AceticAcid comparator n4
 3801
    1GR      C1    1   0.000   0.000   1.900
    1GR      C2    2   0.142   0.000   1.900
    1GR      C3    3   0.213   0.123   1.900
    1GR      C4    4   0.354   0.123   1.900
    1GR      C5    5   0.000   0.246   1.900
    1GR      C6    6   0.142   0.246   1.900
    1GR      C7    7   0.213   0.368   1.900
    1GR      C8    8   0.354   0.368   1.900
    1GR      C9    9   0.000   0.491   1.900
    1GR     C10   10   0.142   0.491   1.900
    1GR     C11   11   0.213   0.614   1.900
    1GR     C12   12   0.354   0.614   1.900
    1GR     C13   13   0.000   0.737   1.900
    1GR     C14   14   0.142   0.737   1.900
    1GR     C15   15   0.213   0.860   1.900
    1GR     C16   16   0.354   0.860   1.900
    1GR     C17   17   0.000   0.982   1.900
    1GR     C18   18   0.142   0.982   1.900
    1GR     C19   19   0.213   1.105   1.900
    1GR     C20   20   0.354   1.105   1.900
    1GR     C21   21   0.000   1.228   1.900
    1GR     C22   22   0.142   1.228   1.900
    1GR     C23   23   0.213   1.351   1.900
    1GR     C24   24   0.354   1.351   1.900
    1GR     C25   25   0.000   1.474   1.900
    1GR     C26   26   0.142   1.474   1.900
    1GR     C27   27   0.213   1.596   1.900
    1GR     C28   28   0.354   1.596   1.900
    1GR     C29   29   0.000   1.719   1.900
    1GR     C30   30   0.142   1.719   1.900
    1GR     C31   31   0.213   1.842   1.900
    1GR     C32   32   0.354   1.842   1.900
    1GR     C33   33   0.000   1.965   1.900
    1GR     C34   34   0.142   1.965   1.900
    1GR     C35   35   0.213   2.088   1.900
    1GR     C36   36   0.354   2.088   1.900
    1GR     C37   37   0.000   2.210   1.900
    1GR     C38   38   0.142   2.210   1.900
    1GR     C39   39   0.213   2.333   1.900
    1GR     C40   40   0.354   2.333   1.900
    1GR     C41   41   0.000   2.456   1.900
    1GR     C42   42   0.142   2.456   1.900
    1GR     C43   43   0.213   2.579   1.900
    1GR     C44   44   0.354   2.579   1.900
    1GR     C45   45   0.000   2.702   1.900
    1GR     C46   46   0.142   2.702   1.900
    1GR     C47   47   0.213   2.824   1.900
    1GR     C48   48   0.354   2.824   1.900
    1GR     C49   49   0.000   2.947   1.900
    1GR     C50   50   0.142   2.947   1.900
    1GR     C51   51   0.213   3.070   1.900
    1GR     C52   52   0.354   3.070   1.900
    1GR     C53   53   0.000   3.193   1.900
    1GR     C54   54   0.142   3.193   1.900
    1GR     C55   55   0.213   3.316   1.900
    1GR     C56   56   0.354   3.316   1.900
    1GR     C57   57   0.425   0.000   1.900
    1GR     C58   58   0.567   0.000   1.900
    1GR     C59   59   0.638   0.123   1.900
    1GR     C60   60   0.780   0.123   1.900
    1GR     C61   61   0.425   0.246   1.900
    1GR     C62   62   0.567   0.246   1.900
    1GR     C63   63   0.638   0.368   1.900
    1GR     C64   64   0.780   0.368   1.900
    1GR     C65   65   0.425   0.491   1.900
    1GR     C66   66   0.567   0.491   1.900
    1GR     C67   67   0.638   0.614   1.900
    1GR     C68   68   0.780   0.614   1.900
    1GR     C69   69   0.425   0.737   1.900
    1GR     C70   70   0.567   0.737   1.900
    1GR     C71   71   0.638   0.860   1.900
    1GR     C72   72   0.780   0.860   1.900
    1GR     C73   73   0.425   0.982   1.900
    1GR     C74   74   0.567   0.982   1.900
    1GR     C75   75   0.638   1.105   1.900
    1GR     C76   76   0.780   1.105   1.900
    1GR     C77   77   0.425   1.228   1.900
    1GR     C78   78   0.567   1.228   1.900
    1GR     C79   79   0.638   1.351   1.900
    1GR     C80   80   0.780   1.351   1.900
    1GR     C81   81   0.425   1.474   1.900
    1GR     C82   82   0.567   1.474   1.900
    1GR     C83   83   0.638   1.596   1.900
    1GR     C84   84   0.780   1.596   1.900
    1GR     C85   85   0.425   1.719   1.900
    1GR     C86   86   0.567   1.719   1.900
    1GR     C87   87   0.638   1.842   1.900
    1GR     C88   88   0.780   1.842   1.900
    1GR     C89   89   0.425   1.965   1.900
    1GR     C90   90   0.567   1.965   1.900
    1GR     C91   91   0.638   2.088   1.900
    1GR     C92   92   0.780   2.088   1.900
    1GR     C93   93   0.425   2.210   1.900
    1GR     C94   94   0.567   2.210   1.900
    1GR     C95   95   0.638   2.333   1.900
    1GR     C96   96   0.780   2.333   1.900
    1GR     C97   97   0.425   2.456   1.900
    1GR     C98   98   0.567   2.456   1.900
    1GR     C99   99   0.638   2.579   1.900
    1GR    C100  100   0.780   2.579   1.900
    1GR    C101  101   0.425   2.702   1.900
    1GR    C102  102   0.567   2.702   1.900
    1GR    C103  103   0.638   2.824   1.900
    1GR    C104  104   0.780   2.824   1.900
    1GR    C105  105   0.425   2.947   1.900
    1GR    C106  106   0.567   2.947   1.900
    1GR    C107  107   0.638   3.070   1.900
    1GR    C108  108   0.780   3.070   1.900
    1GR    C109  109   0.425   3.193   1.900
    1GR    C110  110   0.567   3.193   1.900
    1GR    C111  111   0.638   3.316   1.900
    1GR    C112  112   0.780   3.316   1.900
    1GR    C113  113   0.851   0.000   1.900
    1GR    C114  114   0.993   0.000   1.900
    1GR    C115  115   1.064   0.123   1.900
    1GR    C116  116   1.205   0.123   1.900
    1GR    C117  117   0.851   0.246   1.900
    1GR    C118  118   0.993   0.246   1.900
    1GR    C119  119   1.064   0.368   1.900
    1GR    C120  120   1.205   0.368   1.900
    1GR    C121  121   0.851   0.491   1.900
    1GR    C122  122   0.993   0.491   1.900
    1GR    C123  123   1.064   0.614   1.900
    1GR    C124  124   1.205   0.614   1.900
    1GR    C125  125   0.851   0.737   1.900
    1GR    C126  126   0.993   0.737   1.900
    1GR    C127  127   1.064   0.860   1.900
    1GR    C128  128   1.205   0.860   1.900
    1GR    C129  129   0.851   0.982   1.900
    1GR    C130  130   0.993   0.982   1.900
    1GR    C131  131   1.064   1.105   1.900
    1GR    C132  132   1.205   1.105   1.900
    1GR    C133  133   0.851   1.228   1.900
    1GR    C134  134   0.993   1.228   1.900
    1GR    C135  135   1.064   1.351   1.900
    1GR    C136  136   1.205   1.351   1.900
    1GR    C137  137   0.851   1.474   1.900
    1GR    C138  138   0.993   1.474   1.900
    1GR    C139  139   1.064   1.596   1.900
    1GR    C140  140   1.205   1.596   1.900
    1GR    C141  141   0.851   1.719   1.900
    1GR    C142  142   0.993   1.719   1.900
    1GR    C143  143   1.064   1.842   1.900
    1GR    C144  144   1.205   1.842   1.900
    1GR    C145  145   0.851   1.965   1.900
    1GR    C146  146   0.993   1.965   1.900
    1GR    C147  147   1.064   2.088   1.900
    1GR    C148  148   1.205   2.088   1.900
    1GR    C149  149   0.851   2.210   1.900
    1GR    C150  150   0.993   2.210   1.900
    1GR    C151  151   1.064   2.333   1.900
    1GR    C152  152   1.205   2.333   1.900
    1GR    C153  153   0.851   2.456   1.900
    1GR    C154  154   0.993   2.456   1.900
    1GR    C155  155   1.064   2.579   1.900
    1GR    C156  156   1.205   2.579   1.900
    1GR    C157  157   0.851   2.702   1.900
    1GR    C158  158   0.993   2.702   1.900
    1GR    C159  159   1.064   2.824   1.900
    1GR    C160  160   1.205   2.824   1.900
    1GR    C161  161   0.851   2.947   1.900
    1GR    C162  162   0.993   2.947   1.900
    1GR    C163  163   1.064   3.070   1.900
    1GR    C164  164   1.205   3.070   1.900
    1GR    C165  165   0.851   3.193   1.900
    1GR    C166  166   0.993   3.193   1.900
    1GR    C167  167   1.064   3.316   1.900
    1GR    C168  168   1.205   3.316   1.900
    1GR    C169  169   1.276   0.000   1.900
    1GR    C170  170   1.418   0.000   1.900
    1GR    C171  171   1.489   0.123   1.900
    1GR    C172  172   1.631   0.123   1.900
    1GR    C173  173   1.276   0.246   1.900
    1GR    C174  174   1.418   0.246   1.900
    1GR    C175  175   1.489   0.368   1.900
    1GR    C176  176   1.631   0.368   1.900
    1GR    C177  177   1.276   0.491   1.900
    1GR    C178  178   1.418   0.491   1.900
    1GR    C179  179   1.489   0.614   1.900
    1GR    C180  180   1.631   0.614   1.900
    1GR    C181  181   1.276   0.737   1.900
    1GR    C182  182   1.418   0.737   1.900
    1GR    C183  183   1.489   0.860   1.900
    1GR    C184  184   1.631   0.860   1.900
    1GR    C185  185   1.276   0.982   1.900
    1GR    C186  186   1.418   0.982   1.900
    1GR    C187  187   1.489   1.105   1.900
    1GR    C188  188   1.631   1.105   1.900
    1GR    C189  189   1.276   1.228   1.900
    1GR    C190  190   1.418   1.228   1.900
    1GR    C191  191   1.489   1.351   1.900
    1GR    C192  192   1.631   1.351   1.900
    1GR    C193  193   1.276   1.474   1.900
    1GR    C194  194   1.418   1.474   1.900
    1GR    C195  195   1.489   1.596   1.900
    1GR    C196  196   1.631   1.596   1.900
    1GR    C197  197   1.276   1.719   1.900
    1GR    C198  198   1.418   1.719   1.900
    1GR    C199  199   1.489   1.842   1.900
    1GR    C200  200   1.631   1.842   1.900
    1GR    C201  201   1.276   1.965   1.900
    1GR    C202  202   1.418   1.965   1.900
    1GR    C203  203   1.489   2.088   1.900
    1GR    C204  204   1.631   2.088   1.900
    1GR    C205  205   1.276   2.210   1.900
    1GR    C206  206   1.418   2.210   1.900
    1GR    C207  207   1.489   2.333   1.900
    1GR    C208  208   1.631   2.333   1.900
    1GR    C209  209   1.276   2.456   1.900
    1GR    C210  210   1.418   2.456   1.900
    1GR    C211  211   1.489   2.579   1.900
    1GR    C212  212   1.631   2.579   1.900
    1GR    C213  213   1.276   2.702   1.900
    1GR    C214  214   1.418   2.702   1.900
    1GR    C215  215   1.489   2.824   1.900
    1GR    C216  216   1.631   2.824   1.900
    1GR    C217  217   1.276   2.947   1.900
    1GR    C218  218   1.418   2.947   1.900
    1GR    C219  219   1.489   3.070   1.900
    1GR    C220  220   1.631   3.070   1.900
    1GR    C221  221   1.276   3.193   1.900
    1GR    C222  222   1.418   3.193   1.900
    1GR    C223  223   1.489   3.316   1.900
    1GR    C224  224   1.631   3.316   1.900
    1GR    C225  225   1.702   0.000   1.900
    1GR    C226  226   1.843   0.000   1.900
    1GR    C227  227   1.914   0.123   1.900
    1GR    C228  228   2.056   0.123   1.900
    1GR    C229  229   1.702   0.246   1.900
    1GR    C230  230   1.843   0.246   1.900
    1GR    C231  231   1.914   0.368   1.900
    1GR    C232  232   2.056   0.368   1.900
    1GR    C233  233   1.702   0.491   1.900
    1GR    C234  234   1.843   0.491   1.900
    1GR    C235  235   1.914   0.614   1.900
    1GR    C236  236   2.056   0.614   1.900
    1GR    C237  237   1.702   0.737   1.900
    1GR    C238  238   1.843   0.737   1.900
    1GR    C239  239   1.914   0.860   1.900
    1GR    C240  240   2.056   0.860   1.900
    1GR    C241  241   1.702   0.982   1.900
    1GR    C242  242   1.843   0.982   1.900
    1GR    C243  243   1.914   1.105   1.900
    1GR    C244  244   2.056   1.105   1.900
    1GR    C245  245   1.702   1.228   1.900
    1GR    C246  246   1.843   1.228   1.900
    1GR    C247  247   1.914   1.351   1.900
    1GR    C248  248   2.056   1.351   1.900
    1GR    C249  249   1.702   1.474   1.900
    1GR    C250  250   1.843   1.474   1.900
    1GR    C251  251   1.914   1.596   1.900
    1GR    C252  252   2.056   1.596   1.900
    1GR    C253  253   1.702   1.719   1.900
    1GR    C254  254   1.843   1.719   1.900
    1GR    C255  255   1.914   1.842   1.900
    1GR    C256  256   2.056   1.842   1.900
    1GR    C257  257   1.702   1.965   1.900
    1GR    C258  258   1.843   1.965   1.900
    1GR    C259  259   1.914   2.088   1.900
    1GR    C260  260   2.056   2.088   1.900
    1GR    C261  261   1.702   2.210   1.900
    1GR    C262  262   1.843   2.210   1.900
    1GR    C263  263   1.914   2.333   1.900
    1GR    C264  264   2.056   2.333   1.900
    1GR    C265  265   1.702   2.456   1.900
    1GR    C266  266   1.843   2.456   1.900
    1GR    C267  267   1.914   2.579   1.900
    1GR    C268  268   2.056   2.579   1.900
    1GR    C269  269   1.702   2.702   1.900
    1GR    C270  270   1.843   2.702   1.900
    1GR    C271  271   1.914   2.824   1.900
    1GR    C272  272   2.056   2.824   1.900
    1GR    C273  273   1.702   2.947   1.900
    1GR    C274  274   1.843   2.947   1.900
    1GR    C275  275   1.914   3.070   1.900
    1GR    C276  276   2.056   3.070   1.900
    1GR    C277  277   1.702   3.193   1.900
    1GR    C278  278   1.843   3.193   1.900
    1GR    C279  279   1.914   3.316   1.900
    1GR    C280  280   2.056   3.316   1.900
    1GR    C281  281   2.127   0.000   1.900
    1GR    C282  282   2.269   0.000   1.900
    1GR    C283  283   2.340   0.123   1.900
    1GR    C284  284   2.481   0.123   1.900
    1GR    C285  285   2.127   0.246   1.900
    1GR    C286  286   2.269   0.246   1.900
    1GR    C287  287   2.340   0.368   1.900
    1GR    C288  288   2.481   0.368   1.900
    1GR    C289  289   2.127   0.491   1.900
    1GR    C290  290   2.269   0.491   1.900
    1GR    C291  291   2.340   0.614   1.900
    1GR    C292  292   2.481   0.614   1.900
    1GR    C293  293   2.127   0.737   1.900
    1GR    C294  294   2.269   0.737   1.900
    1GR    C295  295   2.340   0.860   1.900
    1GR    C296  296   2.481   0.860   1.900
    1GR    C297  297   2.127   0.982   1.900
    1GR    C298  298   2.269   0.982   1.900
    1GR    C299  299   2.340   1.105   1.900
    1GR    C300  300   2.481   1.105   1.900
    1GR    C301  301   2.127   1.228   1.900
    1GR    C302  302   2.269   1.228   1.900
    1GR    C303  303   2.340   1.351   1.900
    1GR    C304  304   2.481   1.351   1.900
    1GR    C305  305   2.127   1.474   1.900
    1GR    C306  306   2.269   1.474   1.900
    1GR    C307  307   2.340   1.596   1.900
    1GR    C308  308   2.481   1.596   1.900
    1GR    C309  309   2.127   1.719   1.900
    1GR    C310  310   2.269   1.719   1.900
    1GR    C311  311   2.340   1.842   1.900
    1GR    C312  312   2.481   1.842   1.900
    1GR    C313  313   2.127   1.965   1.900
    1GR    C314  314   2.269   1.965   1.900
    1GR    C315  315   2.340   2.088   1.900
    1GR    C316  316   2.481   2.088   1.900
    1GR    C317  317   2.127   2.210   1.900
    1GR    C318  318   2.269   2.210   1.900
    1GR    C319  319   2.340   2.333   1.900
    1GR    C320  320   2.481   2.333   1.900
    1GR    C321  321   2.127   2.456   1.900
    1GR    C322  322   2.269   2.456   1.900
    1GR    C323  323   2.340   2.579   1.900
    1GR    C324  324   2.481   2.579   1.900
    1GR    C325  325   2.127   2.702   1.900
    1GR    C326  326   2.269   2.702   1.900
    1GR    C327  327   2.340   2.824   1.900
    1GR    C328  328   2.481   2.824   1.900
    1GR    C329  329   2.127   2.947   1.900
    1GR    C330  330   2.269   2.947   1.900
    1GR    C331  331   2.340   3.070   1.900
    1GR    C332  332   2.481   3.070   1.900
    1GR    C333  333   2.127   3.193   1.900
    1GR    C334  334   2.269   3.193   1.900
    1GR    C335  335   2.340   3.316   1.900
    1GR    C336  336   2.481   3.316   1.900
    1GR    C337  337   2.552   0.000   1.900
    1GR    C338  338   2.694   0.000   1.900
    1GR    C339  339   2.765   0.123   1.900
    1GR    C340  340   2.907   0.123   1.900
    1GR    C341  341   2.552   0.246   1.900
    1GR    C342  342   2.694   0.246   1.900
    1GR    C343  343   2.765   0.368   1.900
    1GR    C344  344   2.907   0.368   1.900
    1GR    C345  345   2.552   0.491   1.900
    1GR    C346  346   2.694   0.491   1.900
    1GR    C347  347   2.765   0.614   1.900
    1GR    C348  348   2.907   0.614   1.900
    1GR    C349  349   2.552   0.737   1.900
    1GR    C350  350   2.694   0.737   1.900
    1GR    C351  351   2.765   0.860   1.900
    1GR    C352  352   2.907   0.860   1.900
    1GR    C353  353   2.552   0.982   1.900
    1GR    C354  354   2.694   0.982   1.900
    1GR    C355  355   2.765   1.105   1.900
    1GR    C356  356   2.907   1.105   1.900
    1GR    C357  357   2.552   1.228   1.900
    1GR    C358  358   2.694   1.228   1.900
    1GR    C359  359   2.765   1.351   1.900
    1GR    C360  360   2.907   1.351   1.900
    1GR    C361  361   2.552   1.474   1.900
    1GR    C362  362   2.694   1.474   1.900
    1GR    C363  363   2.765   1.596   1.900
    1GR    C364  364   2.907   1.596   1.900
    1GR    C365  365   2.552   1.719   1.900
    1GR    C366  366   2.694   1.719   1.900
    1GR    C367  367   2.765   1.842   1.900
    1GR    C368  368   2.907   1.842   1.900
    1GR    C369  369   2.552   1.965   1.900
    1GR    C370  370   2.694   1.965   1.900
    1GR    C371  371   2.765   2.088   1.900
    1GR    C372  372   2.907   2.088   1.900
    1GR    C373  373   2.552   2.210   1.900
    1GR    C374  374   2.694   2.210   1.900
    1GR    C375  375   2.765   2.333   1.900
    1GR    C376  376   2.907   2.333   1.900
    1GR    C377  377   2.552   2.456   1.900
    1GR    C378  378   2.694   2.456   1.900
    1GR    C379  379   2.765   2.579   1.900
    1GR    C380  380   2.907   2.579   1.900
    1GR    C381  381   2.552   2.702   1.900
    1GR    C382  382   2.694   2.702   1.900
    1GR    C383  383   2.765   2.824   1.900
    1GR    C384  384   2.907   2.824   1.900
    1GR    C385  385   2.552   2.947   1.900
    1GR    C386  386   2.694   2.947   1.900
    1GR    C387  387   2.765   3.070   1.900
    1GR    C388  388   2.907   3.070   1.900
    1GR    C389  389   2.552   3.193   1.900
    1GR    C390  390   2.694   3.193   1.900
    1GR    C391  391   2.765   3.316   1.900
    1GR    C392  392   2.907   3.316   1.900
    1GR    C393  393   2.978   0.000   1.900
    1GR    C394  394   3.120   0.000   1.900
    1GR    C395  395   3.191   0.123   1.900
    1GR    C396  396   3.332   0.123   1.900
    1GR    C397  397   2.978   0.246   1.900
    1GR    C398  398   3.120   0.246   1.900
    1GR    C399  399   3.191   0.368   1.900
    1GR    C400  400   3.332   0.368   1.900
    1GR    C401  401   2.978   0.491   1.900
    1GR    C402  402   3.120   0.491   1.900
    1GR    C403  403   3.191   0.614   1.900
    1GR    C404  404   3.332   0.614   1.900
    1GR    C405  405   2.978   0.737   1.900
    1GR    C406  406   3.120   0.737   1.900
    1GR    C407  407   3.191   0.860   1.900
    1GR    C408  408   3.332   0.860   1.900
    1GR    C409  409   2.978   0.982   1.900
    1GR    C410  410   3.120   0.982   1.900
    1GR    C411  411   3.191   1.105   1.900
    1GR    C412  412   3.332   1.105   1.900
    1GR    C413  413   2.978   1.228   1.900
    1GR    C414  414   3.120   1.228   1.900
    1GR    C415  415   3.191   1.351   1.900
    1GR    C416  416   3.332   1.351   1.900
    1GR    C417  417   2.978   1.474   1.900
    1GR    C418  418   3.120   1.474   1.900
    1GR    C419  419   3.191   1.596   1.900
    1GR    C420  420   3.332   1.596   1.900
    1GR    C421  421   2.978   1.719   1.900
    1GR    C422  422   3.120   1.719   1.900
    1GR    C423  423   3.191   1.842   1.900
    1GR    C424  424   3.332   1.842   1.900
    1GR    C425  425   2.978   1.965   1.900
    1GR    C426  426   3.120   1.965   1.900
    1GR    C427  427   3.191   2.088   1.900
    1GR    C428  428   3.332   2.088   1.900
    1GR    C429  429   2.978   2.210   1.900
    1GR    C430  430   3.120   2.210   1.900
    1GR    C431  431   3.191   2.333   1.900
    1GR    C432  432   3.332   2.333   1.900
    1GR    C433  433   2.978   2.456   1.900
    1GR    C434  434   3.120   2.456   1.900
    1GR    C435  435   3.191   2.579   1.900
    1GR    C436  436   3.332   2.579   1.900
    1GR    C437  437   2.978   2.702   1.900
    1GR    C438  438   3.120   2.702   1.900
    1GR    C439  439   3.191   2.824   1.900
    1GR    C440  440   3.332   2.824   1.900
    1GR    C441  441   2.978   2.947   1.900
    1GR    C442  442   3.120   2.947   1.900
    1GR    C443  443   3.191   3.070   1.900
    1GR    C444  444   3.332   3.070   1.900
    1GR    C445  445   2.978   3.193   1.900
    1GR    C446  446   3.120   3.193   1.900
    1GR    C447  447   3.191   3.316   1.900
    1GR    C448  448   3.332   3.316   1.900
    2PMMA   CX1  449   1.190   1.826   2.476
    2PMMA   CA2  450   1.344   1.814   2.479
    2PMMA   CX3  451   1.398   1.878   2.349
    2PMMA    C4  452   1.382   1.889   2.608
    2PMMA    O5  453   1.387   1.834   2.715
    2PMMA   OS6  454   1.445   2.007   2.588
    2PMMA   CE7  455   1.521   2.064   2.694
    2PMMA   CX8  456   1.383   1.663   2.492
    2PMMA   CA9  457   1.533   1.612   2.487
    2PMMA  CX10  458   1.576   1.604   2.338
    2PMMA   C11  459   1.524   1.468   2.544
    2PMMA   O12  460   1.522   1.367   2.478
    2PMMA  OS13  461   1.518   1.465   2.679
    2PMMA  CE14  462   1.507   1.342   2.749
    2PMMA  CX15  463   1.630   1.702   2.573
    2PMMA  CA16  464   1.786   1.686   2.581
    2PMMA  CX17  465   1.832   1.776   2.700
    2PMMA   C18  466   1.820   1.540   2.616
    2PMMA   O19  467   1.851   1.499   2.726
    2PMMA  OS20  468   1.822   1.458   2.508
    2PMMA  CE21  469   1.853   1.320   2.522
    2PMMA  CX22  470   1.853   1.737   2.449
    2PMMA  CA23  471   2.006   1.764   2.435
    2PMMA  CX24  472   2.090   1.645   2.487
    2PMMA   C25  473   2.042   1.901   2.497
    2PMMA   O26  474   2.014   2.007   2.447
    2PMMA  OS27  475   2.125   1.894   2.605
    2PMMA  CE28  476   2.165   2.014   2.671
    2PMMA  CX29  477   2.040   1.777   2.284
    2PMMA  HC30  478   1.143   1.782   2.565
    2PMMA  HC31  479   1.156   1.930   2.470
    2PMMA  HC32  480   1.147   1.774   2.389
    2PMMA  HC33  481   1.507   1.893   2.352
    2PMMA  HC34  482   1.354   1.976   2.330
    2PMMA  HC35  483   1.376   1.816   2.261
    2PMMA  H136  484   1.458   2.078   2.783
    2PMMA  H137  485   1.558   2.162   2.663
    2PMMA  H138  486   1.605   2.000   2.720
    2PMMA  HC39  487   1.337   1.627   2.584
    2PMMA  HC40  488   1.327   1.608   2.415
    2PMMA  HC41  489   1.496   1.568   2.273
    2PMMA  HC42  490   1.608   1.701   2.299
    2PMMA  HC43  491   1.659   1.535   2.323
    2PMMA  H144  492   1.412   1.294   2.726
    2PMMA  H145  493   1.511   1.361   2.857
    2PMMA  H146  494   1.589   1.275   2.723
    2PMMA  HC47  495   1.614   1.805   2.541
    2PMMA  HC48  496   1.592   1.700   2.675
    2PMMA  HC49  497   1.817   1.882   2.679
    2PMMA  HC50  498   1.938   1.762   2.724
    2PMMA  HC51  499   1.778   1.754   2.792
    2PMMA  H152  500   1.780   1.271   2.587
    2PMMA  H153  501   1.953   1.308   2.564
    2PMMA  H154  502   1.850   1.272   2.424
    2PMMA  HC55  503   1.828   1.666   2.369
    2PMMA  HC56  504   1.802   1.829   2.418
    2PMMA  HC57  505   2.196   1.660   2.464
    2PMMA  HC58  506   2.082   1.632   2.595
    2PMMA  HC59  507   2.061   1.551   2.440
    2PMMA  H160  508   2.206   2.085   2.600
    2PMMA  H161  509   2.241   1.991   2.745
    2PMMA  H162  510   2.079   2.058   2.722
    2PMMA  HC63  511   2.021   1.684   2.229
    2PMMA  HC64  512   1.979   1.854   2.235
    2PMMA  HC65  513   2.145   1.803   2.267
    3ACE     C1  514   2.152   1.283   1.344
    3ACE     C2  515   2.169   1.161   1.258
    3ACE     O1  516   2.092   1.067   1.259
    3ACE     O2  517   2.251   1.181   1.156
    3ACE     H1  518   2.249   1.323   1.376
    3ACE     H2  519   2.081   1.266   1.427
    3ACE     H3  520   2.112   1.361   1.279
    3ACE     H4  521   2.216   1.117   1.092
    4ACE     C1  522   2.944   2.936   1.227
    4ACE     C2  523   2.981   2.797   1.277
    4ACE     O1  524   3.093   2.753   1.278
    4ACE     O2  525   2.879   2.729   1.330
    4ACE     H1  526   2.927   2.929   1.119
    4ACE     H2  527   3.026   3.007   1.243
    4ACE     H3  528   2.850   2.970   1.271
    4ACE     H4  529   2.914   2.638   1.328
    5ACE     C1  530   2.362   1.869   0.700
    5ACE     C2  531   2.376   1.730   0.643
    5ACE     O1  532   2.311   1.634   0.680
    5ACE     O2  533   2.475   1.717   0.556
    5ACE     H1  534   2.449   1.889   0.763
    5ACE     H2  535   2.269   1.877   0.759
    5ACE     H3  536   2.369   1.942   0.620
    5ACE     H4  537   2.463   1.628   0.519
    6ACE     C1  538   1.571   1.441   1.063
    6ACE     C2  539   1.618   1.447   0.921
    6ACE     O1  540   1.589   1.534   0.840
    6ACE     O2  541   1.704   1.352   0.889
    6ACE     H1  542   1.521   1.345   1.075
    6ACE     H2  543   1.506   1.526   1.091
    6ACE     H3  544   1.657   1.429   1.130
    6ACE     H4  545   1.661   1.313   0.810
    7ACE     C1  546   1.519   2.620   0.125
    7ACE     C2  547   1.649   2.608   0.046
    7ACE     O1  548   1.688   2.506  -0.006
    7ACE     O2  549   1.703   2.724   0.009
    7ACE     H1  550   1.547   2.631   0.231
    7ACE     H2  551   1.453   2.534   0.113
    7ACE     H3  552   1.469   2.715   0.105
    7ACE     H4  553   1.783   2.693  -0.038
    8ACE     C1  554   2.705   2.045   0.346
    8ACE     C2  555   2.757   2.079   0.207
    8ACE     O1  556   2.701   2.153   0.130
    8ACE     O2  557   2.883   2.041   0.185
    8ACE     H1  558   2.691   1.937   0.354
    8ACE     H2  559   2.613   2.100   0.369
    8ACE     H3  560   2.783   2.065   0.420
    8ACE     H4  561   2.901   2.082   0.099
    9ACE     C1  562   1.533   0.645   0.823
    9ACE     C2  563   1.401   0.574   0.831
    9ACE     O1  564   1.297   0.629   0.860
    9ACE     O2  565   1.395   0.464   0.758
    9ACE     H1  566   1.602   0.601   0.896
    9ACE     H2  567   1.520   0.752   0.843
    9ACE     H3  568   1.584   0.622   0.729
    9ACE     H4  569   1.299   0.448   0.755
   10ACE     C1  570   1.703   2.760   0.432
   10ACE     C2  571   1.734   2.814   0.295
   10ACE     O1  572   1.837   2.798   0.235
   10ACE     O2  573   1.635   2.884   0.238
   10ACE     H1  574   1.620   2.815   0.479
   10ACE     H2  575   1.794   2.758   0.493
   10ACE     H3  576   1.668   2.657   0.422
   10ACE     H4  577   1.667   2.889   0.147
   11ACE     C1  578   2.980   1.186   0.211
   11ACE     C2  579   3.088   1.293   0.205
   11ACE     O1  580   3.067   1.411   0.188
   11ACE     O2  581   3.207   1.254   0.250
   11ACE     H1  582   2.997   1.117   0.127
   11ACE     H2  583   2.879   1.229   0.207
   11ACE     H3  584   2.995   1.121   0.298
   11ACE     H4  585   3.259   1.336   0.241
   12ACE     C1  586   2.421   0.688   1.589
   12ACE     C2  587   2.484   0.791   1.501
   12ACE     O1  588   2.474   0.784   1.381
   12ACE     O2  589   2.601   0.827   1.552
   12ACE     H1  590   2.497   0.653   1.660
   12ACE     H2  591   2.382   0.602   1.533
   12ACE     H3  592   2.344   0.738   1.649
   12ACE     H4  593   2.579   0.910   1.598
   13ACE     C1  594   0.509   0.267   0.503
   13ACE     C2  595   0.384   0.180   0.506
   13ACE     O1  596   0.366   0.085   0.579
   13ACE     O2  597   0.287   0.217   0.422
   13ACE     H1  598   0.532   0.295   0.400
   13ACE     H2  599   0.593   0.219   0.554
   13ACE     H3  600   0.485   0.362   0.551
   13ACE     H4  601   0.219   0.152   0.445
   14ACE     C1  602   1.340   3.309   1.177
   14ACE     C2  603   1.487   3.276   1.159
   14ACE     O1  604   1.577   3.354   1.181
   14ACE     O2  605   1.512   3.146   1.152
   14ACE     H1  606   1.293   3.316   1.078
   14ACE     H2  607   1.324   3.401   1.235
   14ACE     H3  608   1.289   3.224   1.224
   14ACE     H4  609   1.608   3.140   1.164
   15ACE     C1  610   3.250   3.026   1.460
   15ACE     C2  611   3.302   3.004   1.319
   15ACE     O1  612   3.274   3.074   1.223
   15ACE     O2  613   3.368   2.890   1.300
   15ACE     H1  614   3.163   2.962   1.474
   15ACE     H2  615   3.221   3.131   1.476
   15ACE     H3  616   3.323   2.990   1.533
   15ACE     H4  617   3.371   2.889   1.202
   16ACE     C1  618   1.408   1.585   0.409
   16ACE     C2  619   1.451   1.589   0.553
   16ACE     O1  620   1.374   1.581   0.646
   16ACE     O2  621   1.582   1.576   0.575
   16ACE     H1  622   1.459   1.664   0.353
   16ACE     H2  623   1.298   1.588   0.400
   16ACE     H3  624   1.446   1.494   0.363
   16ACE     H4  625   1.582   1.565   0.672
   17ACE     C1  626   2.199   2.089   1.559
   17ACE     C2  627   2.121   2.208   1.600
   17ACE     O1  628   2.172   2.310   1.638
   17ACE     O2  629   1.990   2.189   1.612
   17ACE     H1  630   2.138   1.998   1.565
   17ACE     H2  631   2.294   2.081   1.614
   17ACE     H3  632   2.222   2.110   1.454
   17ACE     H4  633   1.962   2.274   1.650
   18ACE     C1  634   1.400   1.900   1.346
   18ACE     C2  635   1.375   1.855   1.207
   18ACE     O1  636   1.281   1.898   1.145
   18ACE     O2  637   1.482   1.807   1.143
   18ACE     H1  638   1.324   1.856   1.412
   18ACE     H2  639   1.383   2.008   1.346
   18ACE     H3  640   1.500   1.873   1.382
   18ACE     H4  641   1.450   1.807   1.052
   19ACE     C1  642   0.732   2.532   0.227
   19ACE     C2  643   0.879   2.549   0.197
   19ACE     O1  644   0.927   2.551   0.085
   19ACE     O2  645   0.954   2.569   0.305
   19ACE     H1  646   0.710   2.425   0.229
   19ACE     H2  647   0.670   2.578   0.148
   19ACE     H3  648   0.708   2.569   0.327
   19ACE     H4  649   1.044   2.586   0.272
   20ACE     C1  650   0.361   2.728   1.115
   20ACE     C2  651   0.343   2.616   1.015
   20ACE     O1  652   0.403   2.511   1.019
   20ACE     O2  653   0.237   2.629   0.934
   20ACE     H1  654   0.413   2.811   1.065
   20ACE     H2  655   0.416   2.695   1.203
   20ACE     H3  656   0.263   2.771   1.140
   20ACE     H4  657   0.230   2.538   0.901
   21ACE     C1  658   0.656   1.768   0.977
   21ACE     C2  659   0.794   1.708   0.990
   21ACE     O1  660   0.817   1.594   1.024
   21ACE     O2  661   0.890   1.782   0.934
   21ACE     H1  662   0.645   1.843   1.055
   21ACE     H2  663   0.579   1.691   0.983
   21ACE     H3  664   0.649   1.827   0.885
   21ACE     H4  665   0.964   1.719   0.932
   22ACE     C1  666   3.182   1.683   0.931
   22ACE     C2  667   3.201   1.579   1.040
   22ACE     O1  668   3.111   1.541   1.111
   22ACE     O2  669   3.326   1.559   1.080
   22ACE     H1  670   3.117   1.762   0.968
   22ACE     H2  671   3.129   1.637   0.846
   22ACE     H3  672   3.278   1.721   0.894
   22ACE     H4  673   3.308   1.524   1.169
   23ACE     C1  674   3.297   1.834   0.428
   23ACE     C2  675   3.276   1.688   0.467
   23ACE     O1  676   3.345   1.625   0.544
   23ACE     O2  677   3.181   1.625   0.398
   23ACE     H1  678   3.240   1.859   0.338
   23ACE     H2  679   3.403   1.856   0.418
   23ACE     H3  680   3.258   1.897   0.509
   23ACE     H4  681   3.189   1.535   0.433
   24ACE     C1  682   3.222   1.000   0.905
   24ACE     C2  683   3.211   0.931   1.041
   24ACE     O1  684   3.112   0.934   1.109
   24ACE     O2  685   3.315   0.857   1.077
   24ACE     H1  686   3.317   1.054   0.899
   24ACE     H2  687   3.135   1.064   0.886
   24ACE     H3  688   3.232   0.923   0.828
   24ACE     H4  689   3.285   0.821   1.162
   25ACE     C1  690   0.791   2.309   0.557
   25ACE     C2  691   0.760   2.419   0.654
   25ACE     O1  692   0.723   2.529   0.623
   25ACE     O2  693   0.765   2.381   0.781
   25ACE     H1  694   0.896   2.281   0.568
   25ACE     H2  695   0.766   2.336   0.453
   25ACE     H3  696   0.739   2.219   0.592
   25ACE     H4  697   0.755   2.465   0.829
   26ACE     C1  698   1.159   1.660   1.029
   26ACE     C2  699   1.226   1.688   0.897
   26ACE     O1  700   1.165   1.707   0.794
   26ACE     O2  701   1.358   1.709   0.904
   26ACE     H1  702   1.233   1.638   1.107
   26ACE     H2  703   1.086   1.580   1.019
   26ACE     H3  704   1.105   1.751   1.059
   26ACE     H4  705   1.383   1.709   0.810
   27ACE     C1  706   1.925   0.211   0.463
   27ACE     C2  707   1.804   0.300   0.451
   27ACE     O1  708   1.734   0.305   0.352
   27ACE     O2  709   1.810   0.403   0.534
   27ACE     H1  710   2.013   0.273   0.483
   27ACE     H2  711   1.940   0.148   0.374
   27ACE     H3  712   1.918   0.154   0.556
   27ACE     H4  713   1.739   0.461   0.502
   28ACE     C1  714   2.678   0.527   1.435
   28ACE     C2  715   2.704   0.381   1.407
   28ACE     O1  716   2.620   0.308   1.360
   28ACE     O2  717   2.831   0.351   1.392
   28ACE     H1  718   2.718   0.555   1.533
   28ACE     H2  719   2.572   0.549   1.422
   28ACE     H3  720   2.738   0.586   1.365
   28ACE     H4  721   2.825   0.264   1.350
   29ACE     C1  722   2.934   0.769   0.864
   29ACE     C2  723   2.994   0.727   0.733
   29ACE     O1  724   3.022   0.612   0.704
   29ACE     O2  725   3.021   0.827   0.649
   29ACE     H1  726   2.980   0.862   0.899
   29ACE     H2  727   2.937   0.688   0.938
   29ACE     H3  728   2.831   0.802   0.846
   29ACE     H4  729   3.063   0.782   0.575
   30ACE     C1  730   2.044   2.544   1.501
   30ACE     C2  731   2.192   2.530   1.477
   30ACE     O1  732   2.275   2.610   1.515
   30ACE     O2  733   2.228   2.432   1.394
   30ACE     H1  734   1.994   2.569   1.407
   30ACE     H2  735   2.023   2.619   1.579
   30ACE     H3  736   2.000   2.446   1.525
   30ACE     H4  737   2.325   2.435   1.402
   31ACE     C1  738   0.127   2.261   0.417
   31ACE     C2  739   0.217   2.326   0.313
   31ACE     O1  740   0.205   2.315   0.193
   31ACE     O2  741   0.329   2.378   0.362
   31ACE     H1  742   0.188   2.198   0.483
   31ACE     H2  743   0.045   2.203   0.372
   31ACE     H3  744   0.090   2.338   0.486
   31ACE     H4  745   0.375   2.402   0.279
   32ACE     C1  746   2.587   2.266   1.292
   32ACE     C2  747   2.609   2.404   1.352
   32ACE     O1  748   2.716   2.456   1.373
   32ACE     O2  749   2.499   2.458   1.405
   32ACE     H1  750   2.501   2.218   1.339
   32ACE     H2  751   2.677   2.204   1.293
   32ACE     H3  752   2.553   2.279   1.188
   32ACE     H4  753   2.536   2.536   1.449
   33ACE     C1  754   2.834   1.643   0.236
   33ACE     C2  755   2.774   1.580   0.114
   33ACE     O1  756   2.710   1.642   0.032
   33ACE     O2  757   2.756   1.449   0.123
   33ACE     H1  758   2.813   1.580   0.323
   33ACE     H2  759   2.800   1.746   0.249
   33ACE     H3  760   2.943   1.639   0.227
   33ACE     H4  761   2.683   1.437   0.060
   34ACE     C1  762   2.843   1.938   0.869
   34ACE     C2  763   2.742   1.858   0.790
   34ACE     O1  764   2.713   1.875   0.674
   34ACE     O2  765   2.682   1.765   0.862
   34ACE     H1  766   2.798   1.974   0.962
   34ACE     H2  767   2.890   2.018   0.810
   34ACE     H3  768   2.918   1.867   0.907
   34ACE     H4  769   2.645   1.702   0.798
   35ACE     C1  770   2.861   0.784   1.183
   35ACE     C2  771   2.832   0.844   1.318
   35ACE     O1  772   2.878   0.800   1.421
   35ACE     O2  773   2.723   0.921   1.320
   35ACE     H1  774   2.768   0.741   1.143
   35ACE     H2  775   2.943   0.712   1.187
   35ACE     H3  776   2.880   0.867   1.114
   35ACE     H4  777   2.673   0.884   1.394
   36ACE     C1  778   0.374   1.080   0.796
   36ACE     C2  779   0.349   1.192   0.895
   36ACE     O1  780   0.390   1.196   1.008
   36ACE     O2  781   0.258   1.280   0.853
   36ACE     H1  782   0.277   1.045   0.759
   36ACE     H2  783   0.433   0.998   0.838
   36ACE     H3  784   0.418   1.121   0.705
   36ACE     H4  785   0.243   1.331   0.934
   37ACE     C1  786   3.292   1.025   1.565
   37ACE     C2  787   3.194   0.984   1.459
   37ACE     O1  788   3.215   0.893   1.383
   37ACE     O2  789   3.069   1.019   1.489
   37ACE     H1  790   3.283   1.132   1.587
   37ACE     H2  791   3.394   0.993   1.540
   37ACE     H3  792   3.259   0.975   1.657
   37ACE     H4  793   3.016   0.948   1.450
   38ACE     C1  794   1.947   0.473   0.177
   38ACE     C2  795   2.048   0.581   0.147
   38ACE     O1  796   2.157   0.559   0.101
   38ACE     O2  797   1.994   0.703   0.136
   38ACE     H1  798   1.895   0.496   0.271
   38ACE     H2  799   1.991   0.373   0.175
   38ACE     H3  800   1.864   0.481   0.105
   38ACE     H4  801   2.065   0.754   0.094
   39ACE     C1  802   0.908   1.961   0.682
   39ACE     C2  803   0.836   2.043   0.787
   39ACE     O1  804   0.716   2.057   0.790
   39ACE     O2  805   0.917   2.120   0.860
   39ACE     H1  806   0.958   2.031   0.613
   39ACE     H2  807   0.839   1.896   0.628
   39ACE     H3  808   0.992   1.907   0.727
   39ACE     H4  809   0.858   2.188   0.895
   40ACE     C1  810   3.124   1.731   1.386
   40ACE     C2  811   3.259   1.665   1.392
   40ACE     O1  812   3.282   1.552   1.354
   40ACE     O2  813   3.360   1.751   1.400
   40ACE     H1  814   3.104   1.785   1.480
   40ACE     H2  815   3.044   1.661   1.359
   40ACE     H3  816   3.129   1.810   1.310
   40ACE     H4  817   3.436   1.695   1.375
   41ACE     C1  818   1.877   3.087   0.339
   41ACE     C2  819   1.943   3.002   0.446
   41ACE     O1  820   2.027   2.918   0.424
   41ACE     O2  821   1.886   3.007   0.565
   41ACE     H1  822   1.769   3.091   0.358
   41ACE     H2  823   1.902   3.054   0.238
   41ACE     H3  824   1.909   3.191   0.354
   41ACE     H4  825   1.935   2.936   0.611
   42ACE     C1  826   2.291   2.290   1.090
   42ACE     C2  827   2.216   2.379   0.992
   42ACE     O1  828   2.222   2.499   0.994
   42ACE     O2  829   2.177   2.317   0.880
   42ACE     H1  830   2.228   2.208   1.129
   42ACE     H2  831   2.333   2.348   1.173
   42ACE     H3  832   2.369   2.236   1.035
   42ACE     H4  833   2.151   2.393   0.825
   43ACE     C1  834   2.373   0.334   0.122
   43ACE     C2  835   2.453   0.458   0.159
   43ACE     O1  836   2.508   0.530   0.078
   43ACE     O2  837   2.490   0.461   0.287
   43ACE     H1  838   2.421   0.246   0.168
   43ACE     H2  839   2.360   0.323   0.014
   43ACE     H3  840   2.277   0.338   0.175
   43ACE     H4  841   2.527   0.550   0.297
   44ACE     C1  842   2.172   0.646   1.407
   44ACE     C2  843   2.043   0.645   1.335
   44ACE     O1  844   1.981   0.544   1.311
   44ACE     O2  845   1.996   0.765   1.306
   44ACE     H1  846   2.246   0.696   1.343
   44ACE     H2  847   2.202   0.544   1.435
   44ACE     H3  848   2.164   0.714   1.492
   44ACE     H4  849   1.924   0.744   1.245
   45ACE     C1  850   1.785   1.698   0.154
   45ACE     C2  851   1.805   1.683   0.304
   45ACE     O1  852   1.871   1.595   0.354
   45ACE     O2  853   1.708   1.741   0.375
   45ACE     H1  854   1.679   1.678   0.132
   45ACE     H2  855   1.851   1.631   0.097
   45ACE     H3  856   1.797   1.803   0.124
   45ACE     H4  857   1.712   1.690   0.458
   46ACE     C1  858   1.634   0.939   0.711
   46ACE     C2  859   1.535   0.896   0.604
   46ACE     O1  860   1.540   0.792   0.542
   46ACE     O2  861   1.434   0.979   0.583
   46ACE     H1  862   1.682   1.034   0.683
   46ACE     H2  863   1.709   0.863   0.734
   46ACE     H3  864   1.577   0.972   0.799
   46ACE     H4  865   1.389   0.941   0.505
   47ACE     C1  866   0.803   1.179   1.266
   47ACE     C2  867   0.770   1.134   1.407
   47ACE     O1  868   0.738   1.207   1.497
   47ACE     O2  869   0.765   1.002   1.425
   47ACE     H1  870   0.876   1.112   1.219
   47ACE     H2  871   0.833   1.285   1.263
   47ACE     H3  872   0.712   1.166   1.206
   47ACE     H4  873   0.738   1.000   1.518
   48ACE     C1  874   2.191   1.326   0.285
   48ACE     C2  875   2.177   1.367   0.141
   48ACE     O1  876   2.172   1.287   0.050
   48ACE     O2  877   2.144   1.496   0.124
   48ACE     H1  878   2.277   1.377   0.330
   48ACE     H2  879   2.198   1.217   0.296
   48ACE     H3  880   2.107   1.368   0.341
   48ACE     H4  881   2.119   1.497   0.030
   49ACE     C1  882   2.686   3.185   0.854
   49ACE     C2  883   2.789   3.295   0.843
   49ACE     O1  884   2.872   3.299   0.755
   49ACE     O2  885   2.816   3.353   0.960
   49ACE     H1  886   2.723   3.115   0.930
   49ACE     H2  887   2.672   3.132   0.759
   49ACE     H3  888   2.593   3.223   0.898
   49ACE     H4  889   2.913   3.353   0.958
   50ACE     C1  890   1.226   2.029   0.868
   50ACE     C2  891   1.375   2.048   0.859
   50ACE     O1  892   1.458   2.006   0.937
   50ACE     O2  893   1.414   2.104   0.744
   50ACE     H1  894   1.184   2.114   0.924
   50ACE     H2  895   1.197   1.939   0.923
   50ACE     H3  896   1.180   2.034   0.769
   50ACE     H4  897   1.510   2.112   0.757
   51ACE     C1  898   0.409   2.477   0.662
   51ACE     C2  899   0.390   2.326   0.659
   51ACE     O1  900   0.299   2.267   0.712
   51ACE     O2  901   0.488   2.258   0.600
   51ACE     H1  902   0.482   2.501   0.739
   51ACE     H2  903   0.314   2.527   0.684
   51ACE     H3  904   0.456   2.512   0.569
   51ACE     H4  905   0.467   2.167   0.627
   52ACE     C1  906   1.149   2.661   0.982
   52ACE     C2  907   1.268   2.622   0.898
   52ACE     O1  908   1.345   2.531   0.924
   52ACE     O2  909   1.293   2.701   0.795
   52ACE     H1  910   1.113   2.761   0.955
   52ACE     H2  911   1.170   2.653   1.089
   52ACE     H3  912   1.064   2.595   0.958
   52ACE     H4  913   1.390   2.700   0.794
   53ACE     C1  914   2.784   1.084   0.752
   53ACE     C2  915   2.635   1.074   0.769
   53ACE     O1  916   2.573   0.970   0.771
   53ACE     O2  917   2.575   1.186   0.807
   53ACE     H1  918   2.810   1.162   0.678
   53ACE     H2  919   2.831   0.988   0.728
   53ACE     H3  920   2.824   1.124   0.846
   53ACE     H4  921   2.502   1.149   0.860
   54ACE     C1  922   2.431   1.720   1.026
   54ACE     C2  923   2.487   1.857   1.063
   54ACE     O1  924   2.599   1.882   1.100
   54ACE     O2  925   2.402   1.957   1.053
   54ACE     H1  926   2.356   1.688   1.100
   54ACE     H2  927   2.508   1.643   1.016
   54ACE     H3  928   2.370   1.729   0.935
   54ACE     H4  929   2.459   2.027   1.089
   55ACE     C1  930   2.815   1.699   1.196
   55ACE     C2  931   2.691   1.614   1.214
   55ACE     O1  932   2.670   1.510   1.154
   55ACE     O2  933   2.603   1.659   1.304
   55ACE     H1  934   2.811   1.746   1.097
   55ACE     H2  935   2.903   1.634   1.195
   55ACE     H3  936   2.822   1.778   1.272
   55ACE     H4  937   2.529   1.596   1.294
   56ACE     C1  938   1.822   2.276   1.350
   56ACE     C2  939   1.957   2.229   1.304
   56ACE     O1  940   1.993   2.113   1.303
   56ACE     O2  941   2.006   2.313   1.215
   56ACE     H1  942   1.830   2.378   1.389
   56ACE     H2  943   1.772   2.206   1.418
   56ACE     H3  944   1.757   2.293   1.264
   56ACE     H4  945   2.029   2.251   1.143
   57ACE     C1  946   0.432   1.493   0.282
   57ACE     C2  947   0.480   1.499   0.426
   57ACE     O1  948   0.580   1.442   0.465
   57ACE     O2  949   0.388   1.539   0.513
   57ACE     H1  950   0.326   1.523   0.275
   57ACE     H2  951   0.450   1.394   0.240
   57ACE     H3  952   0.490   1.565   0.224
   57ACE     H4  953   0.436   1.530   0.598
   58ACE     C1  954   0.943   1.010   0.563
   58ACE     C2  955   0.847   0.907   0.508
   58ACE     O1  956   0.842   0.874   0.392
   58ACE     O2  957   0.752   0.868   0.593
   58ACE     H1  958   0.887   1.095   0.605
   58ACE     H2  959   1.014   1.044   0.487
   58ACE     H3  960   0.992   0.968   0.651
   58ACE     H4  961   0.695   0.817   0.533
   59ACE     C1  962   2.683   2.382   0.962
   59ACE     C2  963   2.579   2.491   0.946
   59ACE     O1  964   2.561   2.555   0.845
   59ACE     O2  965   2.494   2.497   1.048
   59ACE     H1  966   2.728   2.391   1.062
   59ACE     H2  967   2.756   2.382   0.881
   59ACE     H3  968   2.630   2.285   0.968
   59ACE     H4  969   2.417   2.543   1.010
   60ACE     C1  970   1.744   1.814   0.828
   60ACE     C2  971   1.667   1.868   0.711
   60ACE     O1  972   1.718   1.915   0.613
   60ACE     O2  973   1.540   1.831   0.708
   60ACE     H1  974   1.682   1.810   0.918
   60ACE     H2  975   1.838   1.868   0.840
   60ACE     H3  976   1.767   1.710   0.802
   60ACE     H4  977   1.513   1.864   0.621
   61ACE     C1  978   1.691   0.092   0.757
   61ACE     C2  979   1.635   0.231   0.752
   61ACE     O1  980   1.684   0.326   0.807
   61ACE     O2  981   1.536   0.248   0.666
   61ACE     H1  982   1.610   0.021   0.774
   61ACE     H2  983   1.773   0.083   0.829
   61ACE     H3  984   1.725   0.067   0.656
   61ACE     H4  985   1.508   0.339   0.688
   62ACE     C1  986   3.197   0.280   1.171
   62ACE     C2  987   3.124   0.197   1.274
   62ACE     O1  988   3.174   0.150   1.373
   62ACE     O2  989   2.998   0.168   1.241
   62ACE     H1  990   3.191   0.227   1.075
   62ACE     H2  991   3.301   0.299   1.200
   62ACE     H3  992   3.141   0.372   1.151
   62ACE     H4  993   2.975   0.103   1.310
   63ACE     C1  994   0.178   1.341   1.412
   63ACE     C2  995   0.225   1.227   1.323
   63ACE     O1  996   0.155   1.176   1.238
   63ACE     O2  997   0.357   1.208   1.325
   63ACE     H1  998   0.203   1.320   1.516
   63ACE     H2  999   0.071   1.363   1.397
   63ACE     H3 1000   0.239   1.429   1.389
   63ACE     H4 1001   0.370   1.151   1.247
   64ACE     C1 1002   0.454   1.955   1.363
   64ACE     C2 1003   0.372   1.972   1.237
   64ACE     O1 1004   0.284   2.054   1.222
   64ACE     O2 1005   0.395   1.880   1.143
   64ACE     H1 1006   0.436   1.854   1.402
   64ACE     H2 1007   0.431   2.031   1.438
   64ACE     H3 1008   0.561   1.952   1.337
   64ACE     H4 1009   0.322   1.900   1.081
   65ACE     C1 1010   1.754   0.297   1.091
   65ACE     C2 1011   1.680   0.429   1.090
   65ACE     O1 1012   1.561   0.442   1.072
   65ACE     O2 1013   1.744   0.526   1.154
   65ACE     H1 1014   1.839   0.305   1.022
   65ACE     H2 1015   1.688   0.213   1.067
   65ACE     H3 1016   1.804   0.284   1.188
   65ACE     H4 1017   1.671   0.589   1.169
   66ACE     C1 1018   2.046   0.966   1.576
   66ACE     C2 1019   2.180   1.036   1.573
   66ACE     O1 1020   2.285   0.984   1.545
   66ACE     O2 1021   2.177   1.160   1.621
   66ACE     H1 1022   2.056   0.865   1.616
   66ACE     H2 1023   2.009   0.959   1.473
   66ACE     H3 1024   1.972   1.026   1.631
   66ACE     H4 1025   2.270   1.188   1.614
   67ACE     C1 1026   0.910   1.921   0.321
   67ACE     C2 1027   0.770   1.977   0.308
   67ACE     O1 1028   0.716   2.000   0.202
   67ACE     O2 1029   0.732   2.046   0.415
   67ACE     H1 1030   0.982   1.993   0.281
   67ACE     H2 1031   0.919   1.830   0.260
   67ACE     H3 1032   0.937   1.897   0.425
   67ACE     H4 1033   0.659   2.098   0.376
   68ACE     C1 1034   2.079   1.628   1.307
   68ACE     C2 1035   2.203   1.591   1.387
   68ACE     O1 1036   2.315   1.582   1.339
   68ACE     O2 1037   2.187   1.600   1.518
   68ACE     H1 1038   2.005   1.547   1.315
   68ACE     H2 1039   2.102   1.650   1.202
   68ACE     H3 1040   2.027   1.710   1.358
   68ACE     H4 1041   2.278   1.598   1.550
   69ACE     C1 1042   2.534   0.109   1.142
   69ACE     C2 1043   2.386   0.111   1.177
   69ACE     O1 1044   2.340   0.110   1.290
   69ACE     O2 1045   2.304   0.142   1.077
   69ACE     H1 1046   2.552   0.029   1.069
   69ACE     H2 1047   2.597   0.099   1.231
   69ACE     H3 1048   2.558   0.200   1.085
   69ACE     H4 1049   2.222   0.154   1.127
   70ACE     C1 1050   3.052   2.654   0.895
   70ACE     C2 1051   2.902   2.667   0.910
   70ACE     O1 1052   2.841   2.637   1.010
   70ACE     O2 1053   2.835   2.698   0.798
   70ACE     H1 1054   3.073   2.574   0.824
   70ACE     H2 1055   3.101   2.635   0.992
   70ACE     H3 1056   3.091   2.743   0.844
   70ACE     H4 1057   2.743   2.703   0.829
   71ACE     C1 1058   2.334   3.175   0.662
   71ACE     C2 1059   2.356   3.091   0.539
   71ACE     O1 1060   2.281   3.002   0.506
   71ACE     O2 1061   2.431   3.147   0.445
   71ACE     H1 1062   2.412   3.150   0.735
   71ACE     H2 1063   2.235   3.158   0.704
   71ACE     H3 1064   2.354   3.281   0.640
   71ACE     H4 1065   2.426   3.080   0.375
   72ACE     C1 1066   3.155   2.965   0.540
   72ACE     C2 1067   3.017   2.905   0.518
   72ACE     O1 1068   2.918   2.968   0.488
   72ACE     O2 1069   3.011   2.773   0.530
   72ACE     H1 1070   3.202   2.918   0.627
   72ACE     H2 1071   3.152   3.075   0.548
   72ACE     H3 1072   3.219   2.934   0.458
   72ACE     H4 1073   2.917   2.758   0.510
   73ACE     C1 1074   0.557   1.444   1.518
   73ACE     C2 1075   0.472   1.570   1.517
   73ACE     O1 1076   0.406   1.606   1.423
   73ACE     O2 1077   0.502   1.659   1.611
   73ACE     H1 1078   0.650   1.459   1.574
   73ACE     H2 1079   0.575   1.406   1.417
   73ACE     H3 1080   0.505   1.368   1.577
   73ACE     H4 1081   0.445   1.733   1.585
   74ACE     C1 1082   1.906   0.855   0.475
   74ACE     C2 1083   1.878   0.707   0.463
   74ACE     O1 1084   1.768   0.657   0.458
   74ACE     O2 1085   1.985   0.630   0.466
   74ACE     H1 1086   1.969   0.872   0.563
   74ACE     H2 1087   1.814   0.915   0.478
   74ACE     H3 1088   1.973   0.884   0.393
   74ACE     H4 1089   1.947   0.542   0.478
   75ACE     C1 1090   0.919   3.349   1.028
   75ACE     C2 1091   0.924   3.301   0.884
   75ACE     O1 1092   0.901   3.187   0.853
   75ACE     O2 1093   0.929   3.398   0.792
   75ACE     H1 1094   1.013   3.401   1.050
   75ACE     H2 1095   0.899   3.267   1.098
   75ACE     H3 1096   0.844   3.429   1.036
   75ACE     H4 1097   0.935   3.347   0.709
   76ACE     C1 1098   2.476   0.973   1.070
   76ACE     C2 1099   2.600   1.058   1.090
   76ACE     O1 1100   2.708   1.026   1.047
   76ACE     O2 1101   2.574   1.189   1.093
   76ACE     H1 1102   2.429   0.955   1.168
   76ACE     H2 1103   2.498   0.880   1.016
   76ACE     H3 1104   2.399   1.031   1.017
   76ACE     H4 1105   2.663   1.224   1.079
   77ACE     C1 1106   1.032   0.884   1.575
   77ACE     C2 1107   1.088   1.025   1.571
   77ACE     O1 1108   1.023   1.125   1.587
   77ACE     O2 1109   1.211   1.034   1.521
   77ACE     H1 1110   1.025   0.848   1.472
   77ACE     H2 1111   0.934   0.880   1.622
   77ACE     H3 1112   1.105   0.816   1.622
   77ACE     H4 1113   1.213   1.128   1.496
   78ACE     C1 1114   1.284   0.637   1.472
   78ACE     C2 1115   1.403   0.691   1.547
   78ACE     O1 1116   1.476   0.618   1.610
   78ACE     O2 1117   1.385   0.815   1.592
   78ACE     H1 1118   1.230   0.566   1.536
   78ACE     H2 1119   1.321   0.582   1.384
   78ACE     H3 1120   1.219   0.718   1.436
   78ACE     H4 1121   1.453   0.818   1.662
   79ACE     C1 1122   0.177   1.070   0.476
   79ACE     C2 1123   0.228   1.212   0.461
   79ACE     O1 1124   0.343   1.241   0.439
   79ACE     O2 1125   0.139   1.309   0.480
   79ACE     H1 1126   0.119   1.061   0.568
   79ACE     H2 1127   0.259   0.997   0.472
   79ACE     H3 1128   0.102   1.052   0.398
   79ACE     H4 1129   0.196   1.387   0.479
   80ACE     C1 1130   0.141   2.562   1.401
   80ACE     C2 1131   0.098   2.428   1.346
   80ACE     O1 1132   0.101   2.398   1.228
   80ACE     O2 1133   0.055   2.341   1.437
   80ACE     H1 1134   0.075   2.592   1.483
   80ACE     H2 1135   0.149   2.638   1.322
   80ACE     H3 1136   0.238   2.549   1.451
   80ACE     H4 1137   0.037   2.263   1.382
   81ACE     C1 1138   1.099   1.348   0.515
   81ACE     C2 1139   1.162   1.283   0.393
   81ACE     O1 1140   1.199   1.168   0.388
   81ACE     O2 1141   1.160   1.359   0.283
   81ACE     H1 1142   1.145   1.446   0.530
   81ACE     H2 1143   1.106   1.283   0.603
   81ACE     H3 1144   0.995   1.372   0.491
   81ACE     H4 1145   1.185   1.294   0.215
   82ACE     C1 1146   1.029   2.381   1.215
   82ACE     C2 1147   1.058   2.347   1.071
   82ACE     O1 1148   0.982   2.369   0.980
   82ACE     O2 1149   1.186   2.338   1.045
   82ACE     H1 1150   1.093   2.322   1.282
   82ACE     H2 1151   0.922   2.366   1.234
   82ACE     H3 1152   1.056   2.486   1.232
   82ACE     H4 1153   1.191   2.375   0.956
   83ACE     C1 1154   0.544   3.225   1.086
   83ACE     C2 1155   0.408   3.264   1.029
   83ACE     O1 1156   0.311   3.191   1.026
   83ACE     O2 1157   0.403   3.385   0.975
   83ACE     H1 1158   0.621   3.245   1.011
   83ACE     H2 1159   0.546   3.121   1.120
   83ACE     H3 1160   0.569   3.296   1.165
   83ACE     H4 1161   0.313   3.384   0.938
   84ACE     C1 1162   2.051   2.547   0.175
   84ACE     C2 1163   2.026   2.537   0.324
   84ACE     O1 1164   1.919   2.555   0.376
   84ACE     O2 1165   2.123   2.476   0.392
   84ACE     H1 1166   2.139   2.610   0.158
   84ACE     H2 1167   1.963   2.584   0.121
   84ACE     H3 1168   2.082   2.449   0.137
   84ACE     H4 1169   2.089   2.486   0.483
   85ACE     C1 1170   3.164   3.017   0.928
   85ACE     C2 1171   3.140   3.166   0.937
   85ACE     O1 1172   3.054   3.217   1.006
   85ACE     O2 1173   3.201   3.235   0.841
   85ACE     H1 1174   3.104   2.979   0.845
   85ACE     H2 1175   3.136   2.964   1.020
   85ACE     H3 1176   3.269   2.997   0.900
   85ACE     H4 1177   3.167   3.325   0.854
   86ACE     C1 1178   1.916   1.151   0.961
   86ACE     C2 1179   2.015   1.040   0.933
   86ACE     O1 1180   2.133   1.043   0.960
   86ACE     O2 1181   1.969   0.948   0.849
   86ACE     H1 1182   1.944   1.239   0.901
   86ACE     H2 1183   1.920   1.180   1.066
   86ACE     H3 1184   1.815   1.121   0.932
   86ACE     H4 1185   2.047   0.889   0.843
   87ACE     C1 1186   1.255   1.368   0.905
   87ACE     C2 1187   1.223   1.343   1.051
   87ACE     O1 1188   1.278   1.402   1.140
   87ACE     O2 1189   1.104   1.288   1.077
   87ACE     H1 1190   1.297   1.276   0.861
   87ACE     H2 1191   1.328   1.449   0.892
   87ACE     H3 1192   1.163   1.382   0.847
   87ACE     H4 1193   1.103   1.296   1.174
   88ACE     C1 1194   0.185   1.625   0.759
   88ACE     C2 1195   0.324   1.669   0.800
   88ACE     O1 1196   0.424   1.601   0.789
   88ACE     O2 1197   0.333   1.796   0.837
   88ACE     H1 1198   0.111   1.657   0.834
   88ACE     H2 1199   0.179   1.518   0.736
   88ACE     H3 1200   0.157   1.684   0.670
   88ACE     H4 1201   0.429   1.806   0.848
   89ACE     C1 1202   0.268   3.017   1.277
   89ACE     C2 1203   0.261   3.156   1.339
   89ACE     O1 1204   0.357   3.227   1.357
   89ACE     O2 1205   0.144   3.187   1.394
   89ACE     H1 1206   0.226   2.944   1.348
   89ACE     H2 1207   0.369   2.991   1.246
   89ACE     H3 1208   0.197   3.013   1.194
   89ACE     H4 1209   0.163   3.277   1.425
   90ACE     C1 1210   0.210   0.817   0.963
   90ACE     C2 1211   0.190   0.797   0.814
   90ACE     O1 1212   0.279   0.767   0.737
   90ACE     O2 1213   0.075   0.844   0.766
   90ACE     H1 1214   0.169   0.914   0.994
   90ACE     H2 1215   0.314   0.804   0.994
   90ACE     H3 1216   0.144   0.746   1.015
   90ACE     H4 1217   0.077   0.805   0.677
   91ACE     C1 1218   2.438   3.061   1.324
   91ACE     C2 1219   2.366   3.178   1.261
   91ACE     O1 1220   2.422   3.262   1.195
   91ACE     O2 1221   2.252   3.207   1.322
   91ACE     H1 1222   2.426   3.065   1.433
   91ACE     H2 1223   2.544   3.058   1.294
   91ACE     H3 1224   2.385   2.968   1.298
   91ACE     H4 1225   2.234   3.296   1.286
   92ACE     C1 1226   1.000   2.030   1.243
   92ACE     C2 1227   0.901   2.094   1.338
   92ACE     O1 1228   0.792   2.134   1.305
   92ACE     O2 1229   0.941   2.110   1.464
   92ACE     H1 1230   1.086   2.097   1.230
   92ACE     H2 1231   0.956   2.005   1.146
   92ACE     H3 1232   1.047   1.944   1.292
   92ACE     H4 1233   0.870   2.168   1.496
   93ACE     C1 1234   1.569   0.332   1.576
   93ACE     C2 1235   1.603   0.381   1.438
   93ACE     O1 1236   1.524   0.433   1.364
   93ACE     O2 1237   1.735   0.392   1.417
   93ACE     H1 1238   1.617   0.235   1.597
   93ACE     H2 1239   1.461   0.333   1.595
   93ACE     H3 1240   1.621   0.401   1.645
   93ACE     H4 1241   1.736   0.454   1.342
   94ACE     C1 1242   1.451   1.343   1.369
   94ACE     C2 1243   1.311   1.338   1.427
   94ACE     O1 1244   1.223   1.263   1.389
   94ACE     O2 1245   1.283   1.435   1.513
   94ACE     H1 1246   1.476   1.447   1.344
   94ACE     H2 1247   1.462   1.274   1.284
   94ACE     H3 1248   1.523   1.318   1.448
   94ACE     H4 1249   1.186   1.427   1.517
   95ACE     C1 1250   2.621   2.817   1.125
   95ACE     C2 1251   2.572   2.900   1.009
   95ACE     O1 1252   2.500   2.997   1.021
   95ACE     O2 1253   2.586   2.843   0.889
   95ACE     H1 1254   2.605   2.711   1.106
   95ACE     H2 1255   2.578   2.847   1.222
   95ACE     H3 1256   2.730   2.824   1.126
   95ACE     H4 1257   2.520   2.894   0.839
   96ACE     C1 1258   2.146   2.905   1.535
   96ACE     C2 1259   1.995   2.917   1.548
   96ACE     O1 1260   1.914   2.838   1.504
   96ACE     O2 1261   1.953   3.034   1.594
   96ACE     H1 1262   2.194   3.003   1.546
   96ACE     H2 1263   2.175   2.855   1.442
   96ACE     H3 1264   2.183   2.845   1.619
   96ACE     H4 1265   1.856   3.024   1.585
   97ACE     C1 1266   1.415   2.205   1.178
   97ACE     C2 1267   1.438   2.307   1.285
   97ACE     O1 1268   1.528   2.299   1.366
   97ACE     O2 1269   1.346   2.401   1.297
   97ACE     H1 1270   1.312   2.168   1.185
   97ACE     H2 1271   1.487   2.124   1.182
   97ACE     H3 1272   1.416   2.258   1.081
   97ACE     H4 1273   1.377   2.448   1.376
   98ACE     C1 1274   2.768   2.184   1.570
   98ACE     C2 1275   2.633   2.119   1.589
   98ACE     O1 1276   2.528   2.179   1.594
   98ACE     O2 1277   2.635   1.986   1.594
   98ACE     H1 1278   2.838   2.143   1.644
   98ACE     H2 1279   2.764   2.294   1.573
   98ACE     H3 1280   2.811   2.147   1.476
   98ACE     H4 1281   2.542   1.967   1.615
   99ACE     C1 1282   2.274   0.776   0.319
   99ACE     C2 1283   2.270   0.878   0.208
   99ACE     O1 1284   2.340   0.878   0.110
   99ACE     O2 1285   2.168   0.963   0.216
   99ACE     H1 1286   2.306   0.828   0.411
   99ACE     H2 1287   2.340   0.691   0.297
   99ACE     H3 1288   2.173   0.744   0.345
   99ACE     H4 1289   2.182   1.017   0.137
  100ACE     C1 1290   2.037   0.453   0.754
  100ACE     C2 1291   1.937   0.564   0.779
  100ACE     O1 1292   1.846   0.556   0.858
  100ACE     O2 1293   1.984   0.686   0.754
  100ACE     H1 1294   2.055   0.442   0.647
  100ACE     H2 1295   2.007   0.359   0.802
  100ACE     H3 1296   2.136   0.485   0.791
  100ACE     H4 1297   1.918   0.738   0.804
  101ACE     C1 1298   2.831   1.580   1.571
  101ACE     C2 1299   2.926   1.487   1.499
  101ACE     O1 1300   2.906   1.445   1.387
  101ACE     O2 1301   3.042   1.463   1.561
  101ACE     H1 1302   2.782   1.520   1.649
  101ACE     H2 1303   2.756   1.623   1.505
  101ACE     H3 1304   2.887   1.656   1.627
  101ACE     H4 1305   3.090   1.411   1.495
  102ACE     C1 1306   0.968   2.737   1.530
  102ACE     C2 1307   0.834   2.806   1.530
  102ACE     O1 1308   0.794   2.875   1.439
  102ACE     O2 1309   0.746   2.751   1.611
  102ACE     H1 1310   1.034   2.792   1.598
  102ACE     H2 1311   1.010   2.732   1.429
  102ACE     H3 1312   0.962   2.638   1.578
  102ACE     H4 1313   0.663   2.796   1.587
  103ACE     C1 1314   2.553   1.145   0.149
  103ACE     C2 1315   2.531   1.159   0.296
  103ACE     O1 1316   2.579   1.247   0.365
  103ACE     O2 1317   2.439   1.075   0.343
  103ACE     H1 1318   2.554   1.040   0.119
  103ACE     H2 1319   2.640   1.202   0.115
  103ACE     H3 1320   2.461   1.185   0.104
  103ACE     H4 1321   2.421   1.110   0.432
  104ACE     C1 1322   1.732   1.023   1.352
  104ACE     C2 1323   1.583   0.994   1.365
  104ACE     O1 1324   1.536   0.885   1.342
  104ACE     O2 1325   1.523   1.066   1.460
  104ACE     H1 1326   1.746   1.092   1.268
  104ACE     H2 1327   1.791   0.932   1.335
  104ACE     H3 1328   1.768   1.079   1.438
  104ACE     H4 1329   1.440   1.016   1.469
  105ACE     C1 1330   1.691   2.368   0.272
  105ACE     C2 1331   1.607   2.281   0.179
  105ACE     O1 1332   1.651   2.197   0.104
  105ACE     O2 1333   1.476   2.291   0.196
  105ACE     H1 1334   1.630   2.444   0.323
  105ACE     H2 1335   1.773   2.413   0.216
  105ACE     H3 1336   1.738   2.306   0.349
  105ACE     H4 1337   1.444   2.229   0.128
  106ACE     C1 1338   0.770   0.673   1.014
  106ACE     C2 1339   0.766   0.525   1.047
  106ACE     O1 1340   0.700   0.477   1.136
  106ACE     O2 1341   0.812   0.446   0.950
  106ACE     H1 1342   0.874   0.708   1.028
  106ACE     H2 1343   0.700   0.731   1.075
  106ACE     H3 1344   0.755   0.688   0.907
  106ACE     H4 1345   0.791   0.358   0.988
  107ACE     C1 1346   1.803   2.603   0.725
  107ACE     C2 1347   1.888   2.496   0.662
  107ACE     O1 1348   2.010   2.495   0.657
  107ACE     O2 1349   1.816   2.402   0.600
  107ACE     H1 1350   1.713   2.620   0.665
  107ACE     H2 1351   1.858   2.696   0.745
  107ACE     H3 1352   1.761   2.563   0.818
  107ACE     H4 1353   1.887   2.351   0.557
  108ACE     C1 1354   2.769   0.251   0.226
  108ACE     C2 1355   2.915   0.293   0.220
  108ACE     O1 1356   2.958   0.384   0.152
  108ACE     O2 1357   2.986   0.256   0.326
  108ACE     H1 1358   2.763   0.142   0.218
  108ACE     H2 1359   2.707   0.302   0.152
  108ACE     H3 1360   2.731   0.270   0.328
  108ACE     H4 1361   3.065   0.312   0.314
  109ACE     C1 1362   2.749   0.412   0.853
  109ACE     C2 1363   2.636   0.510   0.838
  109ACE     O1 1364   2.521   0.478   0.818
  109ACE     O2 1365   2.662   0.629   0.891
  109ACE     H1 1366   2.798   0.405   0.755
  109ACE     H2 1367   2.713   0.313   0.884
  109ACE     H3 1368   2.826   0.452   0.919
  109ACE     H4 1369   2.579   0.678   0.878
  110ACE     C1 1370   1.304   2.836   0.382
  110ACE     C2 1371   1.292   2.689   0.355
  110ACE     O1 1372   1.217   2.638   0.274
  110ACE     O2 1373   1.382   2.618   0.423
  110ACE     H1 1374   1.310   2.851   0.491
  110ACE     H2 1375   1.225   2.895   0.335
  110ACE     H3 1376   1.402   2.868   0.347
  110ACE     H4 1377   1.343   2.529   0.420
  111ACE     C1 1378   2.760   3.278   1.263
  111ACE     C2 1379   2.873   3.306   1.359
  111ACE     O1 1380   2.903   3.417   1.399
  111ACE     O2 1381   2.936   3.200   1.408
  111ACE     H1 1382   2.779   3.186   1.205
  111ACE     H2 1383   2.741   3.365   1.200
  111ACE     H3 1384   2.669   3.259   1.321
  111ACE     H4 1385   3.004   3.242   1.463
  112ACE     C1 1386   2.003   2.988   1.205
  112ACE     C2 1387   1.894   3.092   1.217
  112ACE     O1 1388   1.776   3.069   1.200
  112ACE     O2 1389   1.936   3.218   1.227
  112ACE     H1 1390   2.019   2.967   1.098
  112ACE     H2 1391   1.973   2.895   1.253
  112ACE     H3 1392   2.099   3.023   1.246
  112ACE     H4 1393   1.851   3.266   1.234
  113ACE     C1 1394   2.115   3.339   0.466
  113ACE     C2 1395   2.050   3.353   0.602
  113ACE     O1 1396   2.094   3.420   0.693
  113ACE     O2 1397   1.928   3.299   0.611
  113ACE     H1 1398   2.122   3.233   0.442
  113ACE     H2 1399   2.212   3.388   0.462
  113ACE     H3 1400   2.046   3.377   0.389
  113ACE     H4 1401   1.923   3.276   0.706
  114ACE     C1 1402   1.670   1.288   0.080
  114ACE     C2 1403   1.730   1.362   0.196
  114ACE     O1 1404   1.663   1.431   0.268
  114ACE     O2 1405   1.861   1.383   0.184
  114ACE     H1 1406   1.678   1.353  -0.007
  114ACE     H2 1407   1.565   1.266   0.103
  114ACE     H3 1408   1.730   1.199   0.058
  114ACE     H4 1409   1.877   1.443   0.259
  115ACE     C1 1410   1.992   2.081   0.686
  115ACE     C2 1411   2.053   2.121   0.556
  115ACE     O1 1412   2.114   2.045   0.485
  115ACE     O2 1413   2.006   2.236   0.511
  115ACE     H1 1414   2.010   2.161   0.759
  115ACE     H2 1415   2.024   1.982   0.719
  115ACE     H3 1416   1.884   2.084   0.672
  115ACE     H4 1417   2.029   2.234   0.416
  116ACE     C1 1418   1.210   2.467   1.574
  116ACE     C2 1419   1.273   2.600   1.542
  116ACE     O1 1420   1.254   2.662   1.441
  116ACE     O2 1421   1.368   2.641   1.624
  116ACE     H1 1422   1.285   2.400   1.616
  116ACE     H2 1423   1.158   2.425   1.487
  116ACE     H3 1424   1.139   2.482   1.656
  116ACE     H4 1425   1.396   2.726   1.584
  117ACE     C1 1426   1.054   3.063   1.371
  117ACE     C2 1427   1.163   2.958   1.363
  117ACE     O1 1428   1.164   2.874   1.278
  117ACE     O2 1429   1.220   2.927   1.479
  117ACE     H1 1430   1.006   3.056   1.469
  117ACE     H2 1431   0.982   3.050   1.290
  117ACE     H3 1432   1.100   3.163   1.373
  117ACE     H4 1433   1.243   2.836   1.456
  118ACE     C1 1434   2.615   2.149   0.709
  118ACE     C2 1435   2.538   2.275   0.688
  118ACE     O1 1436   2.434   2.299   0.745
  118ACE     O2 1437   2.614   2.374   0.644
  118ACE     H1 1438   2.627   2.100   0.612
  118ACE     H2 1439   2.566   2.084   0.783
  118ACE     H3 1440   2.718   2.173   0.737
  118ACE     H4 1441   2.568   2.452   0.680
  119ACE     C1 1442   1.400   2.106   1.590
  119ACE     C2 1443   1.256   2.123   1.545
  119ACE     O1 1444   1.224   2.180   1.444
  119ACE     O2 1445   1.169   2.041   1.602
  119ACE     H1 1446   1.423   2.192   1.653
  119ACE     H2 1447   1.472   2.108   1.508
  119ACE     H3 1448   1.410   2.015   1.651
  119ACE     H4 1449   1.089   2.064   1.552
  120ACE     C1 1450   0.918   0.441   0.186
  120ACE     C2 1451   0.894   0.418   0.334
  120ACE     O1 1452   0.807   0.473   0.400
  120ACE     O2 1453   0.980   0.335   0.392
  120ACE     H1 1454   1.023   0.466   0.170
  120ACE     H2 1455   0.850   0.516   0.144
  120ACE     H3 1456   0.910   0.344   0.135
  120ACE     H4 1457   0.970   0.360   0.485
  121ACE     C1 1458   2.265   1.895   1.324
  121ACE     C2 1459   2.393   1.879   1.404
  121ACE     O1 1460   2.399   1.835   1.517
  121ACE     O2 1461   2.494   1.950   1.355
  121ACE     H1 1462   2.264   1.992   1.273
  121ACE     H2 1463   2.175   1.877   1.384
  121ACE     H3 1464   2.269   1.825   1.239
  121ACE     H4 1465   2.567   1.925   1.413
  122ACE     C1 1466   2.808   0.607   0.282
  122ACE     C2 1467   2.855   0.543   0.412
  122ACE     O1 1468   2.781   0.491   0.494
  122ACE     O2 1469   2.981   0.571   0.443
  122ACE     H1 1470   2.750   0.697   0.303
  122ACE     H2 1471   2.741   0.539   0.228
  122ACE     H3 1472   2.893   0.635   0.219
  122ACE     H4 1473   2.986   0.546   0.536
  123ACE     C1 1474   1.077   2.269   0.338
  123ACE     C2 1475   1.026   2.243   0.200
  123ACE     O1 1476   1.093   2.197   0.111
  123ACE     O2 1477   0.893   2.243   0.193
  123ACE     H1 1478   1.010   2.339   0.390
  123ACE     H2 1479   1.180   2.306   0.334
  123ACE     H3 1480   1.074   2.175   0.395
  123ACE     H4 1481   0.876   2.226   0.099
  124ACE     C1 1482   0.267   2.693   0.370
  124ACE     C2 1483   0.181   2.707   0.495
  124ACE     O1 1484   0.075   2.652   0.510
  124ACE     O2 1485   0.241   2.768   0.598
  124ACE     H1 1486   0.287   2.792   0.329
  124ACE     H2 1487   0.221   2.628   0.295
  124ACE     H3 1488   0.368   2.659   0.398
  124ACE     H4 1489   0.168   2.771   0.662
  125ACE     C1 1490   1.185   0.769   0.614
  125ACE     C2 1491   1.077   0.664   0.619
  125ACE     O1 1492   1.065   0.576   0.537
  125ACE     O2 1493   0.978   0.690   0.704
  125ACE     H1 1494   1.158   0.844   0.539
  125ACE     H2 1495   1.281   0.723   0.585
  125ACE     H3 1496   1.193   0.821   0.710
  125ACE     H4 1497   0.918   0.616   0.684
  126ACE     C1 1498   1.717   2.159   1.011
  126ACE     C2 1499   1.758   2.216   0.880
  126ACE     O1 1500   1.833   2.309   0.868
  126ACE     O2 1501   1.681   2.176   0.780
  126ACE     H1 1502   1.622   2.209   1.032
  126ACE     H2 1503   1.788   2.183   1.090
  126ACE     H3 1504   1.696   2.052   1.003
  126ACE     H4 1505   1.712   2.231   0.706
  127ACE     C1 1506   1.492   1.973   0.280
  127ACE     C2 1507   1.386   1.998   0.384
  127ACE     O1 1508   1.317   2.097   0.384
  127ACE     O2 1509   1.412   1.941   0.501
  127ACE     H1 1510   1.580   2.026   0.319
  127ACE     H2 1511   1.468   2.017   0.182
  127ACE     H3 1512   1.519   1.867   0.272
  127ACE     H4 1513   1.373   2.008   0.560
  128ACE     C1 1514   3.010   1.370   0.852
  128ACE     C2 1515   2.900   1.437   0.930
  128ACE     O1 1516   2.873   1.554   0.916
  128ACE     O2 1517   2.816   1.355   0.994
  128ACE     H1 1518   3.090   1.343   0.922
  128ACE     H2 1519   3.048   1.434   0.771
  128ACE     H3 1520   2.978   1.272   0.815
  128ACE     H4 1521   2.759   1.419   1.039
  129ACE     C1 1522   0.706   3.171   1.416
  129ACE     C2 1523   0.776   3.300   1.452
  129ACE     O1 1524   0.752   3.408   1.402
  129ACE     O2 1525   0.879   3.287   1.535
  129ACE     H1 1526   0.764   3.121   1.338
  129ACE     H2 1527   0.605   3.190   1.377
  129ACE     H3 1528   0.706   3.103   1.501
  129ACE     H4 1529   0.909   3.379   1.540
  130ACE     C1 1530   2.047   1.755   0.535
  130ACE     C2 1531   2.120   1.737   0.402
  130ACE     O1 1532   2.097   1.801   0.302
  130ACE     O2 1533   2.176   1.618   0.389
  130ACE     H1 1534   2.031   1.658   0.583
  130ACE     H2 1535   1.954   1.813   0.524
  130ACE     H3 1536   2.115   1.806   0.604
  130ACE     H4 1537   2.169   1.607   0.292
  131ACE     C1 1538   2.586   0.145   0.683
  131ACE     C2 1539   2.479   0.103   0.783
  131ACE     O1 1540   2.466  -0.009   0.825
  131ACE     O2 1541   2.402   0.202   0.828
  131ACE     H1 1542   2.572   0.089   0.591
  131ACE     H2 1543   2.685   0.118   0.722
  131ACE     H3 1544   2.581   0.253   0.663
  131ACE     H4 1545   2.356   0.160   0.902
  132ACE     C1 1546   1.537   2.669   1.330
  132ACE     C2 1547   1.495   2.663   1.185
  132ACE     O1 1548   1.419   2.742   1.134
  132ACE     O2 1549   1.530   2.551   1.121
  132ACE     H1 1550   1.531   2.569   1.374
  132ACE     H2 1551   1.482   2.745   1.385
  132ACE     H3 1552   1.645   2.690   1.335
  132ACE     H4 1553   1.471   2.555   1.043
  133ACE     C1 1554   2.227   0.721   1.022
  133ACE     C2 1555   2.089   0.665   1.034
  133ACE     O1 1556   1.990   0.733   1.036
  133ACE     O2 1557   2.081   0.533   1.050
  133ACE     H1 1558   2.261   0.751   1.122
  133ACE     H2 1559   2.228   0.812   0.959
  133ACE     H3 1560   2.296   0.644   0.985
  133ACE     H4 1561   1.986   0.523   1.064
  134ACE     C1 1562   3.008   2.335   1.062
  134ACE     C2 1563   2.974   2.352   1.208
  134ACE     O1 1564   2.919   2.268   1.274
  134ACE     O2 1565   3.031   2.457   1.269
  134ACE     H1 1566   2.960   2.415   1.005
  134ACE     H2 1567   2.980   2.236   1.025
  134ACE     H3 1568   3.115   2.357   1.047
  134ACE     H4 1569   3.016   2.433   1.362
  135ACE     C1 1570   3.279   1.241   0.654
  135ACE     C2 1571   3.164   1.191   0.568
  135ACE     O1 1572   3.153   1.078   0.526
  135ACE     O2 1573   3.068   1.280   0.544
  135ACE     H1 1574   3.317   1.335   0.611
  135ACE     H2 1575   3.356   1.165   0.668
  135ACE     H3 1576   3.239   1.274   0.751
  135ACE     H4 1577   3.009   1.225   0.489
  136ACE     C1 1578   2.703   1.413   0.621
  136ACE     C2 1579   2.583   1.454   0.703
  136ACE     O1 1580   2.585   1.532   0.794
  136ACE     O2 1581   2.467   1.428   0.645
  136ACE     H1 1582   2.688   1.312   0.582
  136ACE     H2 1583   2.797   1.424   0.677
  136ACE     H3 1584   2.706   1.475   0.531
  136ACE     H4 1585   2.409   1.494   0.686
  137ACE     C1 1586   1.858   2.539   1.081
  137ACE     C2 1587   1.864   2.689   1.071
  137ACE     O1 1588   1.921   2.752   0.985
  137ACE     O2 1589   1.788   2.753   1.158
  137ACE     H1 1590   1.846   2.510   1.186
  137ACE     H2 1591   1.944   2.492   1.031
  137ACE     H3 1592   1.765   2.505   1.033
  137ACE     H4 1593   1.802   2.846   1.133
  138ACE     C1 1594   0.730   1.248   0.898
  138ACE     C2 1595   0.735   1.097   0.917
  138ACE     O1 1596   0.653   1.030   0.975
  138ACE     O2 1597   0.839   1.040   0.859
  138ACE     H1 1598   0.818   1.292   0.948
  138ACE     H2 1599   0.637   1.292   0.935
  138ACE     H3 1600   0.750   1.271   0.793
  138ACE     H4 1601   0.827   0.946   0.883
  139ACE     C1 1602   0.741   1.665   0.118
  139ACE     C2 1603   0.766   1.612   0.257
  139ACE     O1 1604   0.743   1.675   0.357
  139ACE     O2 1605   0.778   1.480   0.265
  139ACE     H1 1606   0.839   1.674   0.068
  139ACE     H2 1607   0.688   1.761   0.119
  139ACE     H3 1608   0.689   1.589   0.058
  139ACE     H4 1609   0.753   1.465   0.358
  140ACE     C1 1610   0.684   2.829   0.453
  140ACE     C2 1611   0.550   2.865   0.512
  140ACE     O1 1612   0.464   2.923   0.450
  140ACE     O2 1613   0.516   2.797   0.622
  140ACE     H1 1614   0.752   2.913   0.474
  140ACE     H2 1615   0.677   2.816   0.344
  140ACE     H3 1616   0.729   2.743   0.503
  140ACE     H4 1617   0.421   2.814   0.626
  141ACE     C1 1618   2.039   0.221   1.375
  141ACE     C2 1619   2.056   0.241   1.523
  141ACE     O1 1620   2.041   0.154   1.605
  141ACE     O2 1621   2.053   0.369   1.563
  141ACE     H1 1622   1.931   0.218   1.355
  141ACE     H2 1623   2.080   0.123   1.345
  141ACE     H3 1624   2.082   0.304   1.317
  141ACE     H4 1625   2.038   0.356   1.659
  142ACE     C1 1626   0.256   3.137   0.312
  142ACE     C2 1627   0.145   3.038   0.344
  142ACE     O1 1628   0.099   3.017   0.453
  142ACE     O2 1629   0.101   2.969   0.238
  142ACE     H1 1630   0.334   3.086   0.254
  142ACE     H2 1631   0.297   3.185   0.402
  142ACE     H3 1632   0.218   3.211   0.241
  142ACE     H4 1633   0.033   2.912   0.280
  143ACE     C1 1634   0.833   0.583   1.423
  143ACE     C2 1635   0.952   0.513   1.362
  143ACE     O1 1636   0.999   0.539   1.253
  143ACE     O2 1637   1.021   0.435   1.445
  143ACE     H1 1638   0.771   0.509   1.475
  143ACE     H2 1639   0.777   0.641   1.349
  143ACE     H3 1640   0.869   0.647   1.504
  143ACE     H4 1641   1.093   0.407   1.386
  144ACE     C1 1642   0.404   1.515   1.125
  144ACE     C2 1643   0.256   1.545   1.115
  144ACE     O1 1644   0.204   1.651   1.142
  144ACE     O2 1645   0.183   1.451   1.055
  144ACE     H1 1646   0.418   1.434   1.197
  144ACE     H2 1647   0.462   1.604   1.154
  144ACE     H3 1648   0.440   1.470   1.032
  144ACE     H4 1649   0.095   1.491   1.058
  145ACE     C1 1650   2.547   1.344   1.375
  145ACE     C2 1651   2.474   1.237   1.452
  145ACE     O1 1652   2.414   1.258   1.555
  145ACE     O2 1653   2.462   1.121   1.387
  145ACE     H1 1654   2.642   1.305   1.336
  145ACE     H2 1655   2.558   1.435   1.435
  145ACE     H3 1656   2.489   1.364   1.284
  145ACE     H4 1657   2.406   1.068   1.446
  146ACE     C1 1658   0.450   2.349   1.315
  146ACE     C2 1659   0.440   2.300   1.458
  146ACE     O1 1660   0.355   2.335   1.537
  146ACE     O2 1661   0.550   2.242   1.504
  146ACE     H1 1662   0.458   2.459   1.314
  146ACE     H2 1663   0.358   2.323   1.260
  146ACE     H3 1664   0.536   2.305   1.264
  146ACE     H4 1665   0.533   2.251   1.600
  147ACE     C1 1666   3.051   1.227   1.209
  147ACE     C2 1667   3.200   1.240   1.237
  147ACE     O1 1668   3.247   1.251   1.348
  147ACE     O2 1669   3.281   1.226   1.131
  147ACE     H1 1670   3.011   1.326   1.186
  147ACE     H2 1671   2.997   1.187   1.295
  147ACE     H3 1672   3.032   1.170   1.117
  147ACE     H4 1673   3.367   1.212   1.174
  148ACE     C1 1674   3.033   0.263   0.809
  148ACE     C2 1675   3.153   0.170   0.812
  148ACE     O1 1676   3.150   0.058   0.857
  148ACE     O2 1677   3.270   0.230   0.789
  148ACE     H1 1678   3.052   0.345   0.880
  148ACE     H2 1679   2.941   0.209   0.835
  148ACE     H3 1680   3.029   0.314   0.713
  148ACE     H4 1681   3.332   0.157   0.806
  149ACE     C1 1682   2.686   3.094   1.585
  149ACE     C2 1683   2.723   2.958   1.531
  149ACE     O1 1684   2.645   2.885   1.473
  149ACE     O2 1685   2.845   2.915   1.560
  149ACE     H1 1686   2.608   3.079   1.660
  149ACE     H2 1687   2.638   3.155   1.507
  149ACE     H3 1688   2.772   3.146   1.628
  149ACE     H4 1689   2.846   2.830   1.513
  150ACE     C1 1690   2.310   0.217   0.469
  150ACE     C2 1691   2.285   0.365   0.476
  150ACE     O1 1692   2.196   0.421   0.415
  150ACE     O2 1693   2.359   0.428   0.565
  150ACE     H1 1694   2.416   0.200   0.447
  150ACE     H2 1695   2.243   0.167   0.398
  150ACE     H3 1696   2.299   0.176   0.571
  150ACE     H4 1697   2.319   0.517   0.564
  151ACE     C1 1698   1.189   0.713   0.248
  151ACE     C2 1699   1.319   0.763   0.307
  151ACE     O1 1700   1.332   0.872   0.359
  151ACE     O2 1701   1.412   0.668   0.325
  151ACE     H1 1702   1.204   0.694   0.141
  151ACE     H2 1703   1.106   0.783   0.266
  151ACE     H3 1704   1.168   0.613   0.289
  151ACE     H4 1705   1.476   0.710   0.384
  152ACE     C1 1706   0.968   2.900   0.174
  152ACE     C2 1707   0.856   2.977   0.107
  152ACE     O1 1708   0.859   3.096   0.084
  152ACE     O2 1709   0.736   2.919   0.119
  152ACE     H1 1710   0.928   2.844   0.259
  152ACE     H2 1711   1.053   2.965   0.199
  152ACE     H3 1712   1.000   2.819   0.108
  152ACE     H4 1713   0.678   2.989   0.085
  153ACE     C1 1714   2.406   0.328   1.578
  153ACE     C2 1715   2.466   0.189   1.579
  153ACE     O1 1716   2.581   0.165   1.608
  153ACE     O2 1717   2.377   0.092   1.588
  153ACE     H1 1718   2.375   0.351   1.475
  153ACE     H2 1719   2.476   0.403   1.616
  153ACE     H3 1720   2.310   0.328   1.631
  153ACE     H4 1721   2.436   0.015   1.596
  154ACE     C1 1722   1.737   0.870   1.064
  154ACE     C2 1723   1.608   0.947   1.054
  154ACE     O1 1724   1.598   1.067   1.066
  154ACE     O2 1725   1.503   0.868   1.067
  154ACE     H1 1726   1.725   0.791   1.139
  154ACE     H2 1727   1.823   0.933   1.089
  154ACE     H3 1728   1.751   0.812   0.972
  154ACE     H4 1729   1.442   0.926   1.116
  155ACE     C1 1730   3.087   2.038   1.595
  155ACE     C2 1731   3.098   2.078   1.452
  155ACE     O1 1732   3.032   2.029   1.363
  155ACE     O2 1733   3.196   2.165   1.428
  155ACE     H1 1734   3.184   1.998   1.627
  155ACE     H2 1735   3.005   1.967   1.613
  155ACE     H3 1736   3.078   2.131   1.653
  155ACE     H4 1737   3.197   2.171   1.331
  156ACE     C1 1738   0.681   1.162   0.332
  156ACE     C2 1739   0.599   1.105   0.446
  156ACE     O1 1740   0.539   1.000   0.439
  156ACE     O2 1741   0.640   1.146   0.566
  156ACE     H1 1742   0.630   1.252   0.295
  156ACE     H2 1743   0.694   1.089   0.251
  156ACE     H3 1744   0.776   1.202   0.369
  156ACE     H4 1745   0.606   1.073   0.621
  157ACE     C1 1746   3.097   2.917   0.151
  157ACE     C2 1747   3.114   2.770   0.187
  157ACE     O1 1748   3.024   2.690   0.192
  157ACE     O2 1749   3.229   2.743   0.249
  157ACE     H1 1750   3.025   2.962   0.219
  157ACE     H2 1751   3.055   2.924   0.050
  157ACE     H3 1752   3.192   2.970   0.155
  157ACE     H4 1753   3.210   2.653   0.281
  158ACE     C1 1754   1.539   3.009   1.446
  158ACE     C2 1755   1.527   3.158   1.469
  158ACE     O1 1756   1.422   3.219   1.467
  158ACE     O2 1757   1.641   3.225   1.456
  158ACE     H1 1758   1.641   2.981   1.415
  158ACE     H2 1759   1.464   2.976   1.373
  158ACE     H3 1760   1.521   2.958   1.541
  158ACE     H4 1761   1.608   3.315   1.444
  159ACE     C1 1762   1.258   0.373   1.108
  159ACE     C2 1763   1.288   0.225   1.097
  159ACE     O1 1764   1.204   0.140   1.077
  159ACE     O2 1765   1.414   0.190   1.121
  159ACE     H1 1766   1.306   0.415   1.197
  159ACE     H2 1767   1.151   0.396   1.101
  159ACE     H3 1768   1.314   0.424   1.028
  159ACE     H4 1769   1.412   0.094   1.106
  160ACE     C1 1770   0.513   2.230   0.948
  160ACE     C2 1771   0.631   2.201   1.037
  160ACE     O1 1772   0.718   2.281   1.062
  160ACE     O2 1773   0.619   2.092   1.111
  160ACE     H1 1774   0.494   2.144   0.882
  160ACE     H2 1775   0.527   2.324   0.894
  160ACE     H3 1776   0.422   2.233   1.010
  160ACE     H4 1777   0.688   2.108   1.178
  161ACE     C1 1778   3.071   0.522   1.405
  161ACE     C2 1779   3.207   0.586   1.392
  161ACE     O1 1780   3.255   0.617   1.285
  161ACE     O2 1781   3.245   0.649   1.503
  161ACE     H1 1782   3.081   0.428   1.459
  161ACE     H2 1783   3.022   0.510   1.307
  161ACE     H3 1784   3.009   0.582   1.473
  161ACE     H4 1785   3.285   0.728   1.463
  162ACE     C1 1786   1.738   0.800   1.599
  162ACE     C2 1787   1.782   0.693   1.507
  162ACE     O1 1788   1.739   0.676   1.396
  162ACE     O2 1789   1.866   0.607   1.565
  162ACE     H1 1790   1.670   0.747   1.667
  162ACE     H2 1791   1.678   0.881   1.555
  162ACE     H3 1792   1.821   0.837   1.660
  162ACE     H4 1793   1.878   0.540   1.496
  163ACE     C1 1794   2.908   1.674   0.582
  163ACE     C2 1795   2.975   1.807   0.555
  163ACE     O1 1796   3.039   1.870   0.636
  163ACE     O2 1797   2.953   1.855   0.433
  163ACE     H1 1798   2.805   1.679   0.545
  163ACE     H2 1799   2.913   1.647   0.688
  163ACE     H3 1800   2.952   1.596   0.518
  163ACE     H4 1801   2.996   1.943   0.437
  164ACE     C1 1802   1.603   1.225   0.478
  164ACE     C2 1803   1.510   1.250   0.594
  164ACE     O1 1804   1.546   1.255   0.709
  164ACE     O2 1805   1.397   1.309   0.559
  164ACE     H1 1806   1.548   1.226   0.383
  164ACE     H2 1807   1.655   1.129   0.490
  164ACE     H3 1808   1.679   1.304   0.481
  164ACE     H4 1809   1.367   1.346   0.644
  165ACE     C1 1810   1.928   1.547   0.972
  165ACE     C2 1811   2.066   1.488   0.978
  165ACE     O1 1812   2.094   1.391   1.041
  165ACE     O2 1813   2.163   1.566   0.934
  165ACE     H1 1814   1.931   1.655   0.992
  165ACE     H2 1815   1.860   1.495   1.040
  165ACE     H3 1816   1.895   1.543   0.868
  165ACE     H4 1817   2.240   1.512   0.960
  166ACE     C1 1818   0.720   1.698   1.317
  166ACE     C2 1819   0.758   1.733   1.460
  166ACE     O1 1820   0.807   1.656   1.539
  166ACE     O2 1821   0.762   1.863   1.487
  166ACE     H1 1822   0.614   1.720   1.300
  166ACE     H2 1823   0.746   1.595   1.291
  166ACE     H3 1824   0.769   1.771   1.251
  166ACE     H4 1825   0.803   1.860   1.575
  167ACE     C1 1826   0.632   3.158   0.338
  167ACE     C2 1827   0.610   3.298   0.284
  167ACE     O1 1828   0.613   3.398   0.351
  167ACE     O2 1829   0.573   3.303   0.157
  167ACE     H1 1830   0.583   3.083   0.274
  167ACE     H2 1831   0.600   3.151   0.442
  167ACE     H3 1832   0.739   3.135   0.333
  167ACE     H4 1833   0.558   3.399   0.146
  168ACE     C1 1834   1.595   0.969   0.239
  168ACE     C2 1835   1.734   0.929   0.201
  168ACE     O1 1836   1.830   1.003   0.206
  168ACE     O2 1837   1.748   0.798   0.187
  168ACE     H1 1838   1.523   0.901   0.191
  168ACE     H2 1839   1.573   1.074   0.217
  168ACE     H3 1840   1.584   0.953   0.347
  168ACE     H4 1841   1.844   0.787   0.174
  169ACE     C1 1842   0.356   2.017   0.279
  169ACE     C2 1843   0.392   1.874   0.249
  169ACE     O1 1844   0.466   1.806   0.316
  169ACE     O2 1845   0.318   1.816   0.154
  169ACE     H1 1846   0.364   2.076   0.186
  169ACE     H2 1847   0.416   2.059   0.361
  169ACE     H3 1848   0.249   2.021   0.301
  169ACE     H4 1849   0.355   1.726   0.154
  170ACE     C1 1850   2.384   0.451   1.170
  170ACE     C2 1851   2.505   0.538   1.151
  170ACE     O1 1852   2.501   0.657   1.127
  170ACE     O2 1853   2.618   0.474   1.127
  170ACE     H1 1854   2.365   0.400   1.075
  170ACE     H2 1855   2.295   0.509   1.198
  170ACE     H3 1856   2.405   0.371   1.242
  170ACE     H4 1857   2.670   0.547   1.089
  171ACE     C1 1858   0.580   3.282   0.684
  171ACE     C2 1859   0.603   3.136   0.717
  171ACE     O1 1860   0.695   3.069   0.674
  171ACE     O2 1861   0.511   3.083   0.797
  171ACE     H1 1862   0.478   3.294   0.647
  171ACE     H2 1863   0.655   3.322   0.615
  171ACE     H3 1864   0.578   3.339   0.778
  171ACE     H4 1865   0.556   3.002   0.828
  172ACE     C1 1866   2.117   3.336   0.986
  172ACE     C2 1867   2.104   3.194   0.937
  172ACE     O1 1868   2.018   3.154   0.862
  172ACE     O2 1869   2.207   3.116   0.972
  172ACE     H1 1870   2.147   3.337   1.091
  172ACE     H2 1871   2.027   3.395   0.965
  172ACE     H3 1872   2.204   3.379   0.935
  172ACE     H4 1873   2.201   3.040   0.912
  173ACE     C1 1874   1.482   1.692   1.583
  173ACE     C2 1875   1.596   1.599   1.608
  173ACE     O1 1876   1.583   1.479   1.613
  173ACE     O2 1877   1.712   1.651   1.572
  173ACE     H1 1878   1.511   1.796   1.601
  173ACE     H2 1879   1.395   1.661   1.643
  173ACE     H3 1880   1.455   1.676   1.478
  173ACE     H4 1881   1.750   1.577   1.522
  174ACE     C1 1882   1.205   1.748   0.202
  174ACE     C2 1883   1.156   1.861   0.115
  174ACE     O1 1884   1.050   1.863   0.057
  174ACE     O2 1885   1.231   1.970   0.121
  174ACE     H1 1886   1.312   1.733   0.184
  174ACE     H2 1887   1.146   1.656   0.188
  174ACE     H3 1888   1.201   1.781   0.306
  174ACE     H4 1889   1.172   2.040   0.090
  175ACE     C1 1890   1.497   2.414   0.671
  175ACE     C2 1891   1.503   2.327   0.547
  175ACE     O1 1892   1.575   2.230   0.532
  175ACE     O2 1893   1.404   2.349   0.462
  175ACE     H1 1894   1.465   2.516   0.647
  175ACE     H2 1895   1.591   2.413   0.729
  175ACE     H3 1896   1.418   2.374   0.735
  175ACE     H4 1897   1.412   2.275   0.400
  176ACE     C1 1898   3.328   1.949   1.095
  176ACE     C2 1899   3.211   2.044   1.109
  176ACE     O1 1900   3.221   2.149   1.168
  176ACE     O2 1901   3.092   1.984   1.102
  176ACE     H1 1902   3.299   1.850   1.133
  176ACE     H2 1903   3.418   1.986   1.145
  176ACE     H3 1904   3.345   1.930   0.988
  176ACE     H4 1905   3.043   2.028   1.173
  177ACE     C1 1906   2.469   1.700   0.233
  177ACE     C2 1907   2.476   1.550   0.246
  177ACE     O1 1908   2.468   1.470   0.156
  177ACE     O2 1909   2.509   1.509   0.369
  177ACE     H1 1910   2.387   1.737   0.296
  177ACE     H2 1911   2.459   1.734   0.129
  177ACE     H3 1912   2.556   1.745   0.283
  177ACE     H4 1913   2.526   1.414   0.354
  178ACE     C1 1914   0.788   2.756   0.809
  178ACE     C2 1915   0.773   2.877   0.897
  178ACE     O1 1916   0.667   2.917   0.941
  178ACE     O2 1917   0.887   2.920   0.949
  178ACE     H1 1918   0.820   2.790   0.710
  178ACE     H2 1919   0.693   2.701   0.801
  178ACE     H3 1920   0.871   2.694   0.843
  178ACE     H4 1921   0.861   3.006   0.986
  179ACE     C1 1922   2.232   1.239   0.743
  179ACE     C2 1923   2.267   1.194   0.602
  179ACE     O1 1924   2.191   1.131   0.533
  179ACE     O2 1925   2.398   1.183   0.581
  179ACE     H1 1926   2.296   1.186   0.814
  179ACE     H2 1927   2.126   1.220   0.765
  179ACE     H3 1928   2.258   1.345   0.759
  179ACE     H4 1929   2.437   1.257   0.630
  180ACE     C1 1930   2.800   1.219   1.573
  180ACE     C2 1931   2.739   1.085   1.599
  180ACE     O1 1932   2.622   1.068   1.625
  180ACE     O2 1933   2.827   0.988   1.619
  180ACE     H1 1934   2.896   1.227   1.625
  180ACE     H2 1935   2.730   1.300   1.597
  180ACE     H3 1936   2.828   1.219   1.467
  180ACE     H4 1937   2.776   0.906   1.615
  181ACE     C1 1938   2.118   2.795   0.743
  181ACE     C2 1939   2.270   2.792   0.748
  181ACE     O1 1940   2.336   2.887   0.784
  181ACE     O2 1941   2.318   2.669   0.764
  181ACE     H1 1942   2.085   2.772   0.641
  181ACE     H2 1943   2.076   2.889   0.780
  181ACE     H3 1944   2.081   2.708   0.798
  181ACE     H4 1945   2.412   2.683   0.787
  182ACE     C1 1946   1.722   2.589   1.584
  182ACE     C2 1947   1.667   2.449   1.597
  182ACE     O1 1948   1.550   2.423   1.613
  182ACE     O2 1949   1.757   2.357   1.625
  182ACE     H1 1950   1.808   2.601   1.652
  182ACE     H2 1951   1.647   2.667   1.600
  182ACE     H3 1952   1.771   2.598   1.487
  182ACE     H4 1953   1.698   2.282   1.645
  183ACE     C1 1954   1.841   2.037   0.307
  183ACE     C2 1955   1.932   2.119   0.220
  183ACE     O1 1956   1.972   2.229   0.250
  183ACE     O2 1957   2.007   2.044   0.141
  183ACE     H1 1958   1.772   1.982   0.242
  183ACE     H2 1959   1.791   2.095   0.385
  183ACE     H3 1960   1.900   1.957   0.354
  183ACE     H4 1961   2.088   2.098   0.138
  184ACE     C1 1962   2.677   0.911   0.470
  184ACE     C2 1963   2.619   0.781   0.524
  184ACE     O1 1964   2.548   0.710   0.456
  184ACE     O2 1965   2.701   0.724   0.611
  184ACE     H1 1966   2.779   0.926   0.507
  184ACE     H2 1967   2.620   0.993   0.515
  184ACE     H3 1968   2.671   0.916   0.361
  184ACE     H4 1969   2.683   0.630   0.593
  185ACE     C1 1970   1.107   1.712   1.509
  185ACE     C2 1971   1.061   1.641   1.383
  185ACE     O1 1972   1.019   1.698   1.286
  185ACE     O2 1973   1.040   1.510   1.396
  185ACE     H1 1974   1.060   1.667   1.597
  185ACE     H2 1975   1.089   1.820   1.502
  185ACE     H3 1976   1.213   1.688   1.524
  185ACE     H4 1977   0.987   1.493   1.316
  186ACE     C1 1978   1.156   2.305   0.686
  186ACE     C2 1979   1.127   2.444   0.634
  186ACE     O1 1980   1.164   2.486   0.528
  186ACE     O2 1981   1.041   2.516   0.705
  186ACE     H1 1982   1.196   2.312   0.788
  186ACE     H2 1983   1.223   2.248   0.620
  186ACE     H3 1984   1.062   2.251   0.702
  186ACE     H4 1985   1.030   2.592   0.645
  187ACE     C1 1986   0.756   2.488   1.406
  187ACE     C2 1987   0.768   2.440   1.547
  187ACE     O1 1988   0.683   2.455   1.631
  187ACE     O2 1989   0.881   2.376   1.579
  187ACE     H1 1990   0.852   2.529   1.373
  187ACE     H2 1991   0.673   2.559   1.396
  187ACE     H3 1992   0.740   2.401   1.342
  187ACE     H4 1993   0.869   2.368   1.675
  188ACE     C1 1994   2.353   2.200   0.422
  188ACE     C2 1995   2.327   2.118   0.297
  188ACE     O1 1996   2.254   2.151   0.206
  188ACE     O2 1997   2.373   1.994   0.301
  188ACE     H1 1998   2.359   2.134   0.509
  188ACE     H2 1999   2.278   2.279   0.436
  188ACE     H3 2000   2.454   2.243   0.418
  188ACE     H4 2001   2.322   1.954   0.229
  189ACE     C1 2002   1.562   3.308   0.299
  189ACE     C2 2003   1.642   3.354   0.419
  189ACE     O1 2004   1.625   3.313   0.531
  189ACE     O2 2005   1.766   3.392   0.390
  189ACE     H1 2006   1.478   3.378   0.286
  189ACE     H2 2007   1.521   3.207   0.314
  189ACE     H3 2008   1.620   3.316   0.207
  189ACE     H4 2009   1.807   3.372   0.475
  190ACE     C1 2010   1.079   2.911   0.688
  190ACE     C2 2011   1.022   2.892   0.552
  190ACE     O1 2012   0.998   2.784   0.504
  190ACE     O2 2013   1.019   3.001   0.475
  190ACE     H1 2014   1.185   2.934   0.677
  190ACE     H2 2015   1.065   2.821   0.749
  190ACE     H3 2016   1.035   3.001   0.734
  190ACE     H4 2017   0.987   2.963   0.392
  191ACE     C1 2018   0.395   0.968   0.160
  191ACE     C2 2019   0.373   1.115   0.132
  191ACE     O1 2020   0.458   1.188   0.085
  191ACE     O2 2021   0.246   1.154   0.132
  191ACE     H1 2022   0.351   0.942   0.257
  191ACE     H2 2023   0.500   0.940   0.152
  191ACE     H3 2024   0.333   0.911   0.089
  191ACE     H4 2025   0.253   1.243   0.093
  192ACE     C1 2026   0.964   1.076   0.155
  192ACE     C2 2027   1.099   1.050   0.092
  192ACE     O1 2028   1.122   0.957   0.018
  192ACE     O2 2029   1.185   1.152   0.101
  192ACE     H1 2030   0.978   1.093   0.262
  192ACE     H2 2031   0.893   0.994   0.135
  192ACE     H3 2032   0.926   1.173   0.120
  192ACE     H4 2033   1.261   1.120   0.050
  193ACE     C1 2034   2.446   2.402   0.149
  193ACE     C2 2035   2.482   2.549   0.150
  193ACE     O1 2036   2.402   2.637   0.127
  193ACE     O2 2037   2.595   2.578   0.214
  193ACE     H1 2038   2.495   2.354   0.062
  193ACE     H2 2039   2.338   2.387   0.147
  193ACE     H3 2040   2.496   2.352   0.232
  193ACE     H4 2041   2.584   2.673   0.230
  194ACE     C1 2042   2.280   0.889   0.688
  194ACE     C2 2043   2.314   0.743   0.689
  194ACE     O1 2044   2.257   0.659   0.625
  194ACE     O2 2045   2.412   0.711   0.772
  194ACE     H1 2046   2.304   0.936   0.784
  194ACE     H2 2047   2.177   0.906   0.654
  194ACE     H3 2048   2.351   0.934   0.617
  194ACE     H4 2049   2.417   0.614   0.761
  195ACE     C1 2050   2.419   2.566   0.476
  195ACE     C2 2051   2.380   2.706   0.432
  195ACE     O1 2052   2.461   2.792   0.402
  195ACE     O2 2053   2.251   2.733   0.448
  195ACE     H1 2054   2.359   2.533   0.562
  195ACE     H2 2055   2.527   2.558   0.492
  195ACE     H3 2056   2.385   2.496   0.399
  195ACE     H4 2057   2.246   2.829   0.435
  196ACE     C1 2058   1.308   3.173   0.532
  196ACE     C2 2059   1.435   3.104   0.578
  196ACE     O1 2060   1.502   3.031   0.509
  196ACE     O2 2061   1.481   3.143   0.696
  196ACE     H1 2062   1.226   3.151   0.601
  196ACE     H2 2063   1.283   3.148   0.428
  196ACE     H3 2064   1.322   3.281   0.546
  196ACE     H4 2065   1.576   3.126   0.683
  197ACE     C1 2066   1.216   0.789   1.160
  197ACE     C2 2067   1.218   0.933   1.209
  197ACE     O1 2068   1.314   1.007   1.202
  197ACE     O2 2069   1.102   0.982   1.251
  197ACE     H1 2070   1.117   0.745   1.171
  197ACE     H2 2071   1.292   0.731   1.214
  197ACE     H3 2072   1.247   0.785   1.055
  197ACE     H4 2073   1.131   1.071   1.278
  198ACE     C1 2074   1.946   1.369   0.601
  198ACE     C2 2075   1.926   1.227   0.553
  198ACE     O1 2076   1.899   1.134   0.626
  198ACE     O2 2077   1.924   1.213   0.421
  198ACE     H1 2078   2.044   1.404   0.568
  198ACE     H2 2079   1.933   1.378   0.710
  198ACE     H3 2080   1.876   1.435   0.547
  198ACE     H4 2081   1.928   1.117   0.408
  199ACE     C1 2082   2.262   2.789   1.073
  199ACE     C2 2083   2.242   2.714   1.201
  199ACE     O1 2084   2.133   2.697   1.250
  199ACE     O2 2085   2.353   2.705   1.275
  199ACE     H1 2086   2.286   2.892   1.099
  199ACE     H2 2087   2.171   2.786   1.012
  199ACE     H3 2088   2.350   2.749   1.021
  199ACE     H4 2089   2.320   2.674   1.360
  200ACE     C1 2090   2.025   1.898   1.047
  200ACE     C2 2091   2.075   2.034   1.006
  200ACE     O1 2092   2.012   2.135   1.023
  200ACE     O2 2093   2.174   2.036   0.918
  200ACE     H1 2094   2.069   1.822   0.981
  200ACE     H2 2095   1.916   1.897   1.053
  200ACE     H3 2096   2.064   1.878   1.147
  200ACE     H4 2097   2.179   2.131   0.896
  201ACE     C1 2098   0.422   0.513   0.941
  201ACE     C2 2099   0.308   0.489   1.039
  201ACE     O1 2100   0.293   0.550   1.142
  201ACE     O2 2101   0.206   0.418   0.990
  201ACE     H1 2102   0.470   0.418   0.917
  201ACE     H2 2103   0.493   0.588   0.978
  201ACE     H3 2104   0.380   0.544   0.844
  201ACE     H4 2105   0.142   0.431   1.062
  202ACE     C1 2106   1.179   3.048   1.042
  202ACE     C2 2107   1.238   3.085   0.910
  202ACE     O1 2108   1.222   3.192   0.857
  202ACE     O2 2109   1.339   3.007   0.875
  202ACE     H1 2110   1.130   2.950   1.035
  202ACE     H2 2111   1.112   3.125   1.082
  202ACE     H3 2112   1.263   3.026   1.109
  202ACE     H4 2113   1.384   3.065   0.810
  203ACE     C1 2114   0.713   2.590   1.079
  203ACE     C2 2115   0.765   2.704   1.163
  203ACE     O1 2116   0.881   2.715   1.196
  203ACE     O2 2117   0.671   2.771   1.228
  203ACE     H1 2118   0.652   2.524   1.143
  203ACE     H2 2119   0.794   2.533   1.033
  203ACE     H3 2120   0.639   2.628   1.008
  203ACE     H4 2121   0.724   2.823   1.290
  204ACE     C1 2122   1.833   1.319   1.540
  204ACE     C2 2123   1.810   1.358   1.395
  204ACE     O1 2124   1.859   1.303   1.299
  204ACE     O2 2125   1.762   1.479   1.376
  204ACE     H1 2126   1.858   1.408   1.599
  204ACE     H2 2127   1.908   1.240   1.553
  204ACE     H3 2128   1.738   1.287   1.583
  204ACE     H4 2129   1.771   1.488   1.280
  205ACE     C1 2130   0.215   0.544   0.528
  205ACE     C2 2131   0.152   0.483   0.652
  205ACE     O1 2132   0.063   0.537   0.715
  205ACE     O2 2133   0.221   0.383   0.706
  205ACE     H1 2134   0.323   0.557   0.547
  205ACE     H2 2135   0.168   0.638   0.500
  205ACE     H3 2136   0.214   0.470   0.447
  205ACE     H4 2137   0.184   0.380   0.796
  206ACE     C1 2138   0.976   3.324   0.294
  206ACE     C2 2139   1.088   3.379   0.378
  206ACE     O1 2140   1.200   3.398   0.335
  206ACE     O2 2141   1.060   3.391   0.508
  206ACE     H1 2142   0.951   3.224   0.332
  206ACE     H2 2143   1.002   3.320   0.188
  206ACE     H3 2144   0.885   3.382   0.314
  206ACE     H4 2145   1.139   3.440   0.538
  207ACE     C1 2146   0.750   1.589   0.686
  207ACE     C2 2147   0.898   1.561   0.687
  207ACE     O1 2148   0.953   1.486   0.764
  207ACE     O2 2149   0.970   1.650   0.618
  207ACE     H1 2150   0.733   1.691   0.721
  207ACE     H2 2151   0.693   1.516   0.745
  207ACE     H3 2152   0.716   1.598   0.582
  207ACE     H4 2153   1.056   1.646   0.665
  208ACE     C1 2154   1.798   1.930   1.481
  208ACE     C2 2155   1.775   1.891   1.336
  208ACE     O1 2156   1.796   1.780   1.289
  208ACE     O2 2157   1.698   1.975   1.268
  208ACE     H1 2158   1.865   2.017   1.484
  208ACE     H2 2159   1.841   1.851   1.543
  208ACE     H3 2160   1.705   1.972   1.523
  208ACE     H4 2161   1.666   1.918   1.196
  209ACE     C1 2162   1.305   0.357   0.471
  209ACE     C2 2163   1.231   0.266   0.569
  209ACE     O1 2164   1.239   0.145   0.573
  209ACE     O2 2165   1.168   0.328   0.670
  209ACE     H1 2166   1.241   0.372   0.383
  209ACE     H2 2167   1.399   0.312   0.437
  209ACE     H3 2168   1.319   0.457   0.511
  209ACE     H4 2169   1.136   0.252   0.720
  210ACE     C1 2170   1.640   2.937   0.957
  210ACE     C2 2171   1.614   2.849   0.837
  210ACE     O1 2172   1.553   2.744   0.836
  210ACE     O2 2173   1.652   2.905   0.724
  210ACE     H1 2174   1.749   2.951   0.965
  210ACE     H2 2175   1.594   2.899   1.049
  210ACE     H3 2176   1.607   3.039   0.933
  210ACE     H4 2177   1.606   2.851   0.657
  211ACE     C1 2178   1.303   1.014   0.876
  211ACE     C2 2179   1.153   1.019   0.889
  211ACE     O1 2180   1.085   0.926   0.926
  211ACE     O2 2181   1.096   1.120   0.825
  211ACE     H1 2182   1.336   1.073   0.789
  211ACE     H2 2183   1.341   0.911   0.874
  211ACE     H3 2184   1.347   1.070   0.960
  211ACE     H4 2185   1.003   1.098   0.838
  212ACE     C1 2186   3.114   1.424   3.195
  212ACE     C2 2187   3.250   1.483   3.167
  212ACE     O1 2188   3.321   1.527   3.254
  212ACE     O2 2189   3.261   1.533   3.045
  212ACE     H1 2190   3.040   1.495   3.157
  212ACE     H2 2191   3.098   1.403   3.301
  212ACE     H3 2192   3.094   1.336   3.132
  212ACE     H4 2193   3.331   1.600   3.055
  213ACE     C1 2194   3.298   1.978   3.096
  213ACE     C2 2195   3.328   1.834   3.130
  213ACE     O1 2196   3.397   1.759   3.063
  213ACE     O2 2197   3.263   1.788   3.238
  213ACE     H1 2198   3.191   1.988   3.078
  213ACE     H2 2199   3.357   2.013   3.010
  213ACE     H3 2200   3.314   2.040   3.185
  213ACE     H4 2201   3.297   1.698   3.250
  214ACE     C1 2202   0.295   2.726   3.159
  214ACE     C2 2203   0.332   2.581   3.182
  214ACE     O1 2204   0.432   2.545   3.239
  214ACE     O2 2205   0.230   2.496   3.171
  214ACE     H1 2206   0.279   2.741   3.052
  214ACE     H2 2207   0.369   2.797   3.199
  214ACE     H3 2208   0.194   2.746   3.197
  214ACE     H4 2209   0.271   2.416   3.208
  215ACE     C1 2210   2.065   0.160   2.816
  215ACE     C2 2211   2.101   0.047   2.722
  215ACE     O1 2212   2.066   0.039   2.606
  215ACE     O2 2213   2.200  -0.030   2.766
  215ACE     H1 2214   2.074   0.130   2.921
  215ACE     H2 2215   1.966   0.201   2.793
  215ACE     H3 2216   2.138   0.239   2.800
  215ACE     H4 2217   2.217  -0.082   2.686
  216ACE     C1 2218   0.426   2.775   3.490
  216ACE     C2 2219   0.279   2.737   3.485
  216ACE     O1 2220   0.191   2.809   3.444
  216ACE     O2 2221   0.254   2.608   3.500
  216ACE     H1 2222   0.467   2.748   3.588
  216ACE     H2 2223   0.442   2.881   3.464
  216ACE     H3 2224   0.482   2.710   3.422
  216ACE     H4 2225   0.159   2.604   3.479
  217ACE     C1 2226   2.979   0.673   2.772
  217ACE     C2 2227   2.967   0.580   2.891
  217ACE     O1 2228   2.952   0.620   3.004
  217ACE     O2 2229   3.008   0.455   2.871
  217ACE     H1 2230   3.068   0.648   2.713
  217ACE     H2 2231   2.980   0.778   2.804
  217ACE     H3 2232   2.897   0.652   2.702
  217ACE     H4 2233   3.006   0.420   2.961
  218ACE     C1 2234   2.265   0.483   2.381
  218ACE     C2 2235   2.319   0.434   2.250
  218ACE     O1 2236   2.410   0.485   2.189
  218ACE     O2 2237   2.262   0.323   2.203
  218ACE     H1 2238   2.173   0.429   2.407
  218ACE     H2 2239   2.247   0.591   2.378
  218ACE     H3 2240   2.341   0.466   2.458
  218ACE     H4 2241   2.317   0.305   2.125
  219ACE     C1 2242   2.436   1.431   3.570
  219ACE     C2 2243   2.470   1.578   3.574
  219ACE     O1 2244   2.433   1.653   3.661
  219ACE     O2 2245   2.508   1.624   3.455
  219ACE     H1 2246   2.373   1.411   3.482
  219ACE     H2 2247   2.387   1.397   3.662
  219ACE     H3 2248   2.527   1.377   3.544
  219ACE     H4 2249   2.477   1.716   3.456
  220ACE     C1 2250   1.403   3.286   3.360
  220ACE     C2 2251   1.302   3.334   3.258
  220ACE     O1 2252   1.309   3.442   3.205
  220ACE     O2 2253   1.223   3.240   3.206
  220ACE     H1 2254   1.352   3.279   3.457
  220ACE     H2 2255   1.490   3.353   3.366
  220ACE     H3 2256   1.431   3.183   3.337
  220ACE     H4 2257   1.174   3.290   3.139
  221ACE     C1 2258   1.887   2.133   3.074
  221ACE     C2 2259   1.915   2.201   2.941
  221ACE     O1 2260   1.831   2.209   2.854
  221ACE     O2 2261   2.011   2.292   2.945
  221ACE     H1 2262   1.966   2.060   3.094
  221ACE     H2 2263   1.787   2.090   3.078
  221ACE     H3 2264   1.902   2.207   3.153
  221ACE     H4 2265   1.988   2.348   2.869
  222ACE     C1 2266   2.404   0.985   3.543
  222ACE     C2 2267   2.529   1.053   3.593
  222ACE     O1 2268   2.642   1.026   3.560
  222ACE     O2 2269   2.504   1.161   3.663
  222ACE     H1 2270   2.365   0.929   3.628
  222ACE     H2 2271   2.421   0.921   3.456
  222ACE     H3 2272   2.325   1.060   3.526
  222ACE     H4 2273   2.592   1.202   3.671
  223ACE     C1 2274   3.124   0.975   3.028
  223ACE     C2 2275   3.253   1.055   3.017
  223ACE     O1 2276   3.365   1.013   3.041
  223ACE     O2 2277   3.234   1.185   3.002
  223ACE     H1 2278   3.044   1.040   3.065
  223ACE     H2 2279   3.134   0.883   3.086
  223ACE     H3 2280   3.087   0.952   2.927
  223ACE     H4 2281   3.320   1.221   2.973
  224ACE     C1 2282   0.961   1.377   2.905
  224ACE     C2 2283   0.911   1.371   3.048
  224ACE     O1 2284   0.795   1.381   3.080
  224ACE     O2 2285   0.997   1.317   3.134
  224ACE     H1 2286   1.022   1.468   2.894
  224ACE     H2 2287   0.878   1.376   2.833
  224ACE     H3 2288   1.034   1.297   2.888
  224ACE     H4 2289   0.942   1.314   3.215
  225ACE     C1 2290   1.653   0.600   2.703
  225ACE     C2 2291   1.700   0.733   2.760
  225ACE     O1 2292   1.693   0.838   2.701
  225ACE     O2 2293   1.732   0.732   2.889
  225ACE     H1 2294   1.706   0.516   2.749
  225ACE     H2 2295   1.664   0.599   2.594
  225ACE     H3 2296   1.548   0.585   2.732
  225ACE     H4 2297   1.752   0.826   2.905
  226ACE     C1 2298   1.825   2.324   2.406
  226ACE     C2 2299   1.789   2.266   2.539
  226ACE     O1 2300   1.776   2.148   2.562
  226ACE     O2 2301   1.777   2.356   2.637
  226ACE     H1 2302   1.769   2.418   2.391
  226ACE     H2 2303   1.813   2.252   2.324
  226ACE     H3 2304   1.929   2.358   2.412
  226ACE     H4 2305   1.762   2.298   2.714
  227ACE     C1 2306   0.998   0.195   3.705
  227ACE     C2 2307   1.145   0.180   3.738
  227ACE     O1 2308   1.208   0.258   3.806
  227ACE     O2 2309   1.211   0.087   3.668
  227ACE     H1 2310   0.973   0.143   3.612
  227ACE     H2 2311   0.968   0.301   3.704
  227ACE     H3 2312   0.941   0.144   3.783
  227ACE     H4 2313   1.301   0.108   3.696
  228ACE     C1 2314   0.140   0.180   2.898
  228ACE     C2 2315   0.290   0.189   2.872
  228ACE     O1 2316   0.362   0.095   2.847
  228ACE     O2 2317   0.342   0.312   2.885
  228ACE     H1 2318   0.107   0.261   2.964
  228ACE     H2 2319   0.112   0.080   2.934
  228ACE     H3 2320   0.087   0.199   2.804
  228ACE     H4 2321   0.437   0.292   2.880
  229ACE     C1 2322   2.646   1.078   2.328
  229ACE     C2 2323   2.738   0.990   2.412
  229ACE     O1 2324   2.846   1.024   2.453
  229ACE     O2 2325   2.707   0.862   2.412
  229ACE     H1 2326   2.637   1.033   2.229
  229ACE     H2 2327   2.682   1.181   2.322
  229ACE     H3 2328   2.545   1.073   2.368
  229ACE     H4 2329   2.787   0.824   2.451
  230ACE     C1 2330   2.805   1.555   3.333
  230ACE     C2 2331   2.746   1.426   3.281
  230ACE     O1 2332   2.642   1.376   3.317
  230ACE     O2 2333   2.834   1.352   3.214
  230ACE     H1 2334   2.912   1.540   3.355
  230ACE     H2 2335   2.752   1.597   3.419
  230ACE     H3 2336   2.809   1.628   3.251
  230ACE     H4 2337   2.782   1.273   3.188
  231ACE     C1 2338   1.346   3.342   2.469
  231ACE     C2 2339   1.394   3.202   2.442
  231ACE     O1 2340   1.332   3.103   2.475
  231ACE     O2 2341   1.493   3.189   2.354
  231ACE     H1 2342   1.372   3.366   2.573
  231ACE     H2 2343   1.237   3.349   2.462
  231ACE     H3 2344   1.397   3.415   2.404
  231ACE     H4 2345   1.490   3.094   2.337
  232ACE     C1 2346   0.766   2.780   3.485
  232ACE     C2 2347   0.815   2.736   3.621
  232ACE     O1 2348   0.891   2.801   3.687
  232ACE     O2 2349   0.787   2.610   3.655
  232ACE     H1 2350   0.728   2.696   3.426
  232ACE     H2 2351   0.845   2.836   3.434
  232ACE     H3 2352   0.683   2.850   3.501
  232ACE     H4 2353   0.847   2.599   3.731
  233ACE     C1 2354   1.262   0.964   2.443
  233ACE     C2 2355   1.231   0.980   2.295
  233ACE     O1 2356   1.307   0.955   2.205
  233ACE     O2 2357   1.104   1.011   2.268
  233ACE     H1 2358   1.209   1.039   2.502
  233ACE     H2 2359   1.370   0.963   2.461
  233ACE     H3 2360   1.219   0.868   2.474
  233ACE     H4 2361   1.107   1.008   2.171
  234ACE     C1 2362   2.378   3.276   3.576
  234ACE     C2 2363   2.434   3.148   3.636
  234ACE     O1 2364   2.376   3.042   3.637
  234ACE     O2 2365   2.562   3.155   3.670
  234ACE     H1 2366   2.390   3.358   3.649
  234ACE     H2 2367   2.275   3.265   3.542
  234ACE     H3 2368   2.444   3.308   3.494
  234ACE     H4 2369   2.583   3.063   3.691
  235ACE     C1 2370   1.483   2.389   2.255
  235ACE     C2 2371   1.537   2.521   2.204
  235ACE     O1 2372   1.475   2.623   2.192
  235ACE     O2 2373   1.669   2.521   2.187
  235ACE     H1 2374   1.480   2.318   2.172
  235ACE     H2 2375   1.385   2.401   2.303
  235ACE     H3 2376   1.555   2.344   2.324
  235ACE     H4 2377   1.688   2.617   2.194
  236ACE     C1 2378   1.489   0.276   3.564
  236ACE     C2 2379   1.502   0.268   3.413
  236ACE     O1 2380   1.576   0.189   3.356
  236ACE     O2 2381   1.413   0.339   3.344
  236ACE     H1 2382   1.557   0.355   3.598
  236ACE     H2 2383   1.517   0.182   3.613
  236ACE     H3 2384   1.390   0.314   3.594
  236ACE     H4 2385   1.458   0.346   3.258
  237ACE     C1 2386   1.474   3.279   2.964
  237ACE     C2 2387   1.614   3.287   2.908
  237ACE     O1 2388   1.688   3.193   2.890
  237ACE     O2 2389   1.649   3.408   2.867
  237ACE     H1 2390   1.485   3.283   3.073
  237ACE     H2 2391   1.425   3.184   2.939
  237ACE     H3 2392   1.414   3.366   2.936
  237ACE     H4 2393   1.734   3.390   2.825
  238ACE     C1 2394   1.340   1.617   3.394
  238ACE     C2 2395   1.266   1.552   3.279
  238ACE     O1 2396   1.313   1.535   3.169
  238ACE     O2 2397   1.134   1.550   3.299
  238ACE     H1 2398   1.385   1.713   3.365
  238ACE     H2 2399   1.424   1.552   3.421
  238ACE     H3 2400   1.274   1.628   3.480
  238ACE     H4 2401   1.098   1.551   3.209
  239ACE     C1 2402   2.008   3.070   2.258
  239ACE     C2 2403   2.073   2.935   2.280
  239ACE     O1 2404   2.012   2.831   2.282
  239ACE     O2 2405   2.196   2.942   2.333
  239ACE     H1 2406   2.000   3.119   2.356
  239ACE     H2 2407   1.909   3.061   2.213
  239ACE     H3 2408   2.076   3.136   2.202
  239ACE     H4 2409   2.207   2.851   2.365
  240ACE     C1 2410   1.826   1.331   2.971
  240ACE     C2 2411   1.849   1.214   3.063
  240ACE     O1 2412   1.841   1.098   3.029
  240ACE     O2 2413   1.921   1.249   3.168
  240ACE     H1 2414   1.790   1.417   3.028
  240ACE     H2 2415   1.762   1.304   2.886
  240ACE     H3 2416   1.924   1.362   2.934
  240ACE     H4 2417   1.960   1.166   3.199
  241ACE     C1 2418   1.344   2.139   3.394
  241ACE     C2 2419   1.454   2.133   3.497
  241ACE     O1 2420   1.546   2.055   3.490
  241ACE     O2 2421   1.438   2.207   3.607
  241ACE     H1 2422   1.246   2.136   3.444
  241ACE     H2 2423   1.354   2.061   3.318
  241ACE     H3 2424   1.345   2.239   3.349
  241ACE     H4 2425   1.521   2.189   3.653
  242ACE     C1 2426   0.883   1.790   2.937
  242ACE     C2 2427   0.896   1.715   3.068
  242ACE     O1 2428   0.992   1.649   3.100
  242ACE     O2 2429   0.787   1.715   3.144
  242ACE     H1 2430   0.779   1.817   2.916
  242ACE     H2 2431   0.931   1.734   2.855
  242ACE     H3 2432   0.937   1.884   2.949
  242ACE     H4 2433   0.823   1.703   3.233
  243ACE     C1 2434   0.432   1.404   3.656
  243ACE     C2 2435   0.305   1.482   3.633
  243ACE     O1 2436   0.304   1.599   3.601
  243ACE     O2 2437   0.193   1.424   3.677
  243ACE     H1 2438   0.459   1.412   3.762
  243ACE     H2 2439   0.514   1.444   3.595
  243ACE     H3 2440   0.415   1.297   3.637
  243ACE     H4 2441   0.128   1.489   3.649
  244ACE     C1 2442   1.715   2.432   3.032
  244ACE     C2 2443   1.627   2.552   3.055
  244ACE     O1 2444   1.633   2.626   3.151
  244ACE     O2 2445   1.554   2.582   2.948
  244ACE     H1 2446   1.652   2.345   3.011
  244ACE     H2 2447   1.784   2.414   3.115
  244ACE     H3 2448   1.768   2.449   2.938
  244ACE     H4 2449   1.516   2.668   2.970
  245ACE     C1 2450   1.222   3.023   2.210
  245ACE     C2 2451   1.174   3.167   2.229
  245ACE     O1 2452   1.091   3.205   2.309
  245ACE     O2 2453   1.258   3.258   2.182
  245ACE     H1 2454   1.147   2.968   2.151
  245ACE     H2 2455   1.232   2.968   2.304
  245ACE     H3 2456   1.317   3.019   2.155
  245ACE     H4 2457   1.217   3.339   2.218
  246ACE     C1 2458   0.312   0.899   3.094
  246ACE     C2 2459   0.451   0.908   3.152
  246ACE     O1 2460   0.488   0.985   3.237
  246ACE     O2 2461   0.537   0.820   3.101
  246ACE     H1 2462   0.320   0.879   2.986
  246ACE     H2 2463   0.252   0.988   3.115
  246ACE     H3 2464   0.264   0.809   3.135
  246ACE     H4 2465   0.621   0.862   3.127
  247ACE     C1 2466   0.390   2.009   3.138
  247ACE     C2 2467   0.402   1.999   2.988
  247ACE     O1 2468   0.506   2.001   2.926
  247ACE     O2 2469   0.287   2.011   2.922
  247ACE     H1 2470   0.380   2.115   3.166
  247ACE     H2 2471   0.478   1.967   3.188
  247ACE     H3 2472   0.296   1.962   3.171
  247ACE     H4 2473   0.320   2.010   2.830
  248ACE     C1 2474   3.241   0.442   2.643
  248ACE     C2 2475   3.243   0.294   2.611
  248ACE     O1 2476   3.242   0.207   2.696
  248ACE     O2 2477   3.284   0.266   2.488
  248ACE     H1 2478   3.328   0.491   2.596
  248ACE     H2 2479   3.238   0.462   2.751
  248ACE     H3 2480   3.158   0.487   2.589
  248ACE     H4 2481   3.303   0.170   2.495
  249ACE     C1 2482   2.709   0.507   2.539
  249ACE     C2 2483   2.780   0.374   2.558
  249ACE     O1 2484   2.726   0.266   2.546
  249ACE     O2 2485   2.913   0.379   2.559
  249ACE     H1 2486   2.693   0.553   2.637
  249ACE     H2 2487   2.614   0.494   2.487
  249ACE     H3 2488   2.776   0.579   2.490
  249ACE     H4 2489   2.934   0.285   2.557
  250ACE     C1 2490   2.426   0.798   2.282
  250ACE     C2 2491   2.410   0.808   2.434
  250ACE     O1 2492   2.394   0.913   2.493
  250ACE     O2 2493   2.463   0.704   2.499
  250ACE     H1 2494   2.514   0.737   2.259
  250ACE     H2 2495   2.431   0.897   2.234
  250ACE     H3 2496   2.344   0.739   2.241
  250ACE     H4 2497   2.498   0.748   2.579
  251ACE     C1 2498   3.003   1.323   2.524
  251ACE     C2 2499   3.135   1.256   2.489
  251ACE     O1 2500   3.146   1.142   2.450
  251ACE     O2 2501   3.237   1.339   2.472
  251ACE     H1 2502   3.005   1.354   2.629
  251ACE     H2 2503   2.916   1.259   2.508
  251ACE     H3 2504   2.996   1.419   2.470
  251ACE     H4 2505   3.301   1.280   2.429
  252ACE     C1 2506   1.877   0.946   3.340
  252ACE     C2 2507   2.002   0.948   3.259
  252ACE     O1 2508   2.070   1.047   3.247
  252ACE     O2 2509   2.026   0.838   3.187
  252ACE     H1 2510   1.790   0.946   3.272
  252ACE     H2 2511   1.872   1.029   3.411
  252ACE     H3 2512   1.874   0.848   3.390
  252ACE     H4 2513   2.112   0.857   3.146
  253ACE     C1 2514   2.749   0.335   3.235
  253ACE     C2 2515   2.836   0.455   3.266
  253ACE     O1 2516   2.794   0.563   3.302
  253ACE     O2 2517   2.961   0.442   3.220
  253ACE     H1 2518   2.764   0.309   3.129
  253ACE     H2 2519   2.644   0.353   3.258
  253ACE     H3 2520   2.790   0.246   3.284
  253ACE     H4 2521   2.992   0.535   3.220
  254ACE     C1 2522   2.015   3.111   3.579
  254ACE     C2 2523   1.972   3.245   3.522
  254ACE     O1 2524   2.036   3.307   3.439
  254ACE     O2 2525   1.863   3.298   3.576
  254ACE     H1 2526   1.993   3.107   3.687
  254ACE     H2 2527   2.120   3.088   3.556
  254ACE     H3 2528   1.950   3.033   3.538
  254ACE     H4 2529   1.858   3.385   3.533
  255ACE     C1 2530   0.323   2.110   3.491
  255ACE     C2 2531   0.209   2.206   3.459
  255ACE     O1 2532   0.115   2.228   3.531
  255ACE     O2 2533   0.213   2.260   3.337
  255ACE     H1 2534   0.294   2.010   3.457
  255ACE     H2 2535   0.342   2.106   3.599
  255ACE     H3 2536   0.413   2.136   3.433
  255ACE     H4 2537   0.127   2.305   3.337
  256ACE     C1 2538   3.233   1.496   2.732
  256ACE     C2 2539   3.105   1.496   2.812
  256ACE     O1 2540   3.064   1.402   2.875
  256ACE     O2 2541   3.025   1.600   2.789
  256ACE     H1 2542   3.215   1.541   2.634
  256ACE     H2 2543   3.278   1.396   2.727
  256ACE     H3 2544   3.302   1.567   2.780
  256ACE     H4 2545   2.964   1.592   2.864
  257ACE     C1 2546   0.494   3.000   2.803
  257ACE     C2 2547   0.384   3.094   2.759
  257ACE     O1 2548   0.305   3.069   2.670
  257ACE     O2 2549   0.385   3.212   2.819
  257ACE     H1 2550   0.590   3.047   2.779
  257ACE     H2 2551   0.484   2.903   2.755
  257ACE     H3 2552   0.494   2.994   2.912
  257ACE     H4 2553   0.317   3.261   2.770
  258ACE     C1 2554   0.546   2.816   2.493
  258ACE     C2 2555   0.668   2.894   2.537
  258ACE     O1 2556   0.743   2.863   2.627
  258ACE     O2 2557   0.674   3.018   2.491
  258ACE     H1 2558   0.459   2.882   2.489
  258ACE     H2 2559   0.528   2.728   2.556
  258ACE     H3 2560   0.559   2.788   2.388
  258ACE     H4 2561   0.756   3.049   2.533
  259ACE     C1 2562   0.596   2.418   2.589
  259ACE     C2 2563   0.632   2.485   2.458
  259ACE     O1 2564   0.727   2.559   2.442
  259ACE     O2 2565   0.550   2.462   2.356
  259ACE     H1 2566   0.490   2.435   2.611
  259ACE     H2 2567   0.662   2.450   2.671
  259ACE     H3 2568   0.601   2.310   2.577
  259ACE     H4 2569   0.589   2.516   2.286
  260ACE     C1 2570   0.149   2.780   2.783
  260ACE     C2 2571   0.102   2.904   2.856
  260ACE     O1 2572  -0.008   2.953   2.846
  260ACE     O2 2573   0.188   2.956   2.944
  260ACE     H1 2574   0.246   2.800   2.735
  260ACE     H2 2575   0.075   2.743   2.711
  260ACE     H3 2576   0.175   2.702   2.856
  260ACE     H4 2577   0.137   3.033   2.973
  261ACE     C1 2578   0.443   3.273   2.467
  261ACE     C2 2579   0.333   3.199   2.394
  261ACE     O1 2580   0.222   3.243   2.373
  261ACE     O2 2581   0.369   3.084   2.337
  261ACE     H1 2582   0.500   3.203   2.529
  261ACE     H2 2583   0.405   3.359   2.524
  261ACE     H3 2584   0.517   3.306   2.393
  261ACE     H4 2585   0.285   3.057   2.298
  262ACE     C1 2586   2.387   1.568   2.625
  262ACE     C2 2587   2.328   1.428   2.633
  262ACE     O1 2588   2.331   1.350   2.540
  262ACE     O2 2589   2.235   1.414   2.728
  262ACE     H1 2590   2.323   1.640   2.677
  262ACE     H2 2591   2.410   1.597   2.522
  262ACE     H3 2592   2.478   1.569   2.686
  262ACE     H4 2593   2.204   1.324   2.708
  263ACE     C1 2594   2.078   3.034   2.794
  263ACE     C2 2595   2.086   2.888   2.833
  263ACE     O1 2596   2.174   2.841   2.902
  263ACE     O2 2597   1.968   2.827   2.820
  263ACE     H1 2598   2.057   3.040   2.686
  263ACE     H2 2599   2.166   3.094   2.822
  263ACE     H3 2600   1.987   3.076   2.840
  263ACE     H4 2601   1.975   2.749   2.877
  264ACE     C1 2602   2.180   1.759   3.522
  264ACE     C2 2603   2.208   1.804   3.379
  264ACE     O1 2604   2.125   1.856   3.308
  264ACE     O2 2605   2.338   1.817   3.351
  264ACE     H1 2606   2.212   1.655   3.534
  264ACE     H2 2607   2.075   1.773   3.550
  264ACE     H3 2608   2.247   1.812   3.590
  264ACE     H4 2609   2.335   1.849   3.259
  265ACE     C1 2610   1.425   0.845   3.722
  265ACE     C2 2611   1.478   0.986   3.741
  265ACE     O1 2612   1.411   1.080   3.779
  265ACE     O2 2613   1.608   1.000   3.718
  265ACE     H1 2614   1.433   0.823   3.615
  265ACE     H2 2615   1.322   0.832   3.756
  265ACE     H3 2616   1.493   0.773   3.767
  265ACE     H4 2617   1.613   1.095   3.695
  266ACE     C1 2618   0.629   1.586   2.803
  266ACE     C2 2619   0.482   1.624   2.788
  266ACE     O1 2620   0.386   1.552   2.809
  266ACE     O2 2621   0.462   1.745   2.738
  266ACE     H1 2622   0.692   1.650   2.741
  266ACE     H2 2623   0.645   1.479   2.782
  266ACE     H3 2624   0.660   1.604   2.906
  266ACE     H4 2625   0.367   1.740   2.715
  267ACE     C1 2626   2.685   1.032   3.247
  267ACE     C2 2627   2.630   0.891   3.256
  267ACE     O1 2628   2.555   0.843   3.174
  267ACE     O2 2629   2.687   0.816   3.349
  267ACE     H1 2630   2.620   1.097   3.307
  267ACE     H2 2631   2.685   1.067   3.143
  267ACE     H3 2632   2.783   1.038   3.294
  267ACE     H4 2633   2.680   0.725   3.316
  268ACE     C1 2634   0.694   3.203   3.645
  268ACE     C2 2635   0.755   3.339   3.673
  268ACE     O1 2636   0.723   3.439   3.611
  268ACE     O2 2637   0.859   3.339   3.758
  268ACE     H1 2638   0.774   3.127   3.636
  268ACE     H2 2639   0.627   3.204   3.559
  268ACE     H3 2640   0.641   3.171   3.736
  268ACE     H4 2641   0.869   3.247   3.788
  269ACE     C1 2642   1.152   2.271   2.210
  269ACE     C2 2643   1.110   2.418   2.211
  269ACE     O1 2644   1.185   2.510   2.196
  269ACE     O2 2645   0.980   2.439   2.190
  269ACE     H1 2646   1.170   2.238   2.314
  269ACE     H2 2647   1.247   2.257   2.157
  269ACE     H3 2648   1.072   2.207   2.174
  269ACE     H4 2649   0.980   2.536   2.183
  270ACE     C1 2650   0.705   2.085   3.330
  270ACE     C2 2651   0.725   2.096   3.182
  270ACE     O1 2652   0.743   2.004   3.107
  270ACE     O2 2653   0.740   2.220   3.138
  270ACE     H1 2654   0.802   2.109   3.376
  270ACE     H2 2655   0.673   1.985   3.359
  270ACE     H3 2656   0.639   2.165   3.366
  270ACE     H4 2657   0.742   2.206   3.042
  271ACE     C1 2658   3.232   0.537   2.271
  271ACE     C2 2659   3.282   0.665   2.334
  271ACE     O1 2660   3.274   0.691   2.452
  271ACE     O2 2661   3.312   0.763   2.248
  271ACE     H1 2662   3.209   0.552   2.165
  271ACE     H2 2663   3.149   0.495   2.328
  271ACE     H3 2664   3.316   0.466   2.272
  271ACE     H4 2665   3.330   0.836   2.310
  272ACE     C1 2666   1.240   1.072   3.075
  272ACE     C2 2667   1.343   1.178   3.045
  272ACE     O1 2668   1.462   1.160   3.043
  272ACE     O2 2669   1.290   1.295   3.008
  272ACE     H1 2670   1.181   1.106   3.161
  272ACE     H2 2671   1.284   0.973   3.094
  272ACE     H3 2672   1.166   1.069   2.995
  272ACE     H4 2673   1.360   1.359   3.026
  273ACE     C1 2674   1.026   2.279   3.220
  273ACE     C2 2675   1.037   2.149   3.145
  273ACE     O1 2676   1.040   2.040   3.198
  273ACE     O2 2677   1.046   2.160   3.012
  273ACE     H1 2678   1.127   2.304   3.256
  273ACE     H2 2679   0.962   2.268   3.308
  273ACE     H3 2680   0.993   2.360   3.155
  273ACE     H4 2681   1.042   2.066   2.985
  274ACE     C1 2682   2.693   2.481   2.965
  274ACE     C2 2683   2.678   2.383   2.849
  274ACE     O1 2684   2.621   2.277   2.857
  274ACE     O2 2685   2.708   2.432   2.729
  274ACE     H1 2686   2.797   2.478   3.000
  274ACE     H2 2687   2.625   2.458   3.048
  274ACE     H3 2688   2.684   2.584   2.929
  274ACE     H4 2689   2.683   2.358   2.671
  275ACE     C1 2690   2.282   0.792   2.785
  275ACE     C2 2691   2.311   0.730   2.920
  275ACE     O1 2692   2.230   0.702   3.005
  275ACE     O2 2693   2.440   0.731   2.950
  275ACE     H1 2694   2.345   0.881   2.771
  275ACE     H2 2695   2.176   0.815   2.769
  275ACE     H3 2696   2.322   0.725   2.709
  275ACE     H4 2697   2.441   0.705   3.043
  276ACE     C1 2698   1.282   1.879   3.621
  276ACE     C2 2699   1.367   1.771   3.684
  276ACE     O1 2700   1.323   1.669   3.733
  276ACE     O2 2701   1.494   1.774   3.646
  276ACE     H1 2702   1.311   1.975   3.665
  276ACE     H2 2703   1.175   1.858   3.632
  276ACE     H3 2704   1.310   1.889   3.516
  276ACE     H4 2705   1.524   1.685   3.671
  277ACE     C1 2706   0.783   0.451   2.229
  277ACE     C2 2707   0.693   0.565   2.267
  277ACE     O1 2708   0.616   0.621   2.193
  277ACE     O2 2709   0.712   0.614   2.389
  277ACE     H1 2710   0.868   0.491   2.173
  277ACE     H2 2711   0.729   0.380   2.165
  277ACE     H3 2712   0.823   0.401   2.318
  277ACE     H4 2713   0.663   0.697   2.382
  278ACE     C1 2714   0.835   1.908   3.590
  278ACE     C2 2715   0.920   1.876   3.468
  278ACE     O1 2716   0.886   1.802   3.379
  278ACE     O2 2717   1.024   1.957   3.450
  278ACE     H1 2718   0.899   1.915   3.679
  278ACE     H2 2719   0.751   1.839   3.602
  278ACE     H3 2720   0.798   2.011   3.582
  278ACE     H4 2721   1.036   1.952   3.353
  279ACE     C1 2722   1.004   1.600   3.641
  279ACE     C2 2723   0.871   1.530   3.635
  279ACE     O1 2724   0.837   1.442   3.710
  279ACE     O2 2725   0.785   1.580   3.546
  279ACE     H1 2726   1.045   1.609   3.540
  279ACE     H2 2727   1.073   1.554   3.713
  279ACE     H3 2728   0.987   1.705   3.670
  279ACE     H4 2729   0.711   1.517   3.550
  280ACE     C1 2730   1.308   2.302   2.661
  280ACE     C2 2731   1.393   2.410   2.721
  280ACE     O1 2732   1.347   2.517   2.749
  280ACE     O2 2733   1.503   2.368   2.783
  280ACE     H1 2734   1.360   2.254   2.577
  280ACE     H2 2735   1.212   2.345   2.632
  280ACE     H3 2736   1.293   2.223   2.735
  280ACE     H4 2737   1.528   2.451   2.827
  281ACE     C1 2738   2.071   1.439   3.424
  281ACE     C2 2739   2.087   1.403   3.570
  281ACE     O1 2740   2.065   1.478   3.662
  281ACE     O2 2741   2.119   1.275   3.591
  281ACE     H1 2742   2.170   1.468   3.387
  281ACE     H2 2743   2.003   1.523   3.408
  281ACE     H3 2744   2.046   1.350   3.365
  281ACE     H4 2745   2.135   1.274   3.687
  282ACE     C1 2746   1.708   2.877   2.985
  282ACE     C2 2747   1.571   2.914   3.039
  282ACE     O1 2748   1.541   3.020   3.088
  282ACE     O2 2749   1.472   2.832   3.003
  282ACE     H1 2750   1.705   2.790   2.919
  282ACE     H2 2751   1.772   2.850   3.070
  282ACE     H3 2752   1.757   2.963   2.935
  282ACE     H4 2753   1.396   2.882   3.037
  283ACE     C1 2754   0.770   0.742   2.879
  283ACE     C2 2755   0.919   0.763   2.896
  283ACE     O1 2756   0.979   0.860   2.855
  283ACE     O2 2757   0.984   0.662   2.954
  283ACE     H1 2758   0.753   0.663   2.805
  283ACE     H2 2759   0.719   0.835   2.850
  283ACE     H3 2760   0.729   0.698   2.970
  283ACE     H4 2761   1.076   0.692   2.957
  284ACE     C1 2762   3.202   2.029   2.399
  284ACE     C2 2763   3.186   2.172   2.448
  284ACE     O1 2764   3.280   2.242   2.478
  284ACE     O2 2765   3.068   2.196   2.505
  284ACE     H1 2766   3.135   1.963   2.456
  284ACE     H2 2767   3.306   1.996   2.402
  284ACE     H3 2768   3.161   2.021   2.297
  284ACE     H4 2769   3.094   2.262   2.572
  285ACE     C1 2770   2.195   2.876   3.383
  285ACE     C2 2771   2.112   2.963   3.293
  285ACE     O1 2772   1.992   2.949   3.282
  285ACE     O2 2773   2.171   3.074   3.249
  285ACE     H1 2774   2.263   2.818   3.319
  285ACE     H2 2775   2.133   2.810   3.445
  285ACE     H3 2776   2.264   2.937   3.442
  285ACE     H4 2777   2.094   3.117   3.206
  286ACE     C1 2778   0.177   1.485   3.049
  286ACE     C2 2779   0.105   1.353   3.027
  286ACE     O1 2780   0.055   1.317   2.922
  286ACE     O2 2781   0.085   1.280   3.137
  286ACE     H1 2782   0.153   1.527   3.148
  286ACE     H2 2783   0.160   1.557   2.968
  286ACE     H3 2784   0.284   1.464   3.058
  286ACE     H4 2785   0.058   1.193   3.103
  287ACE     C1 2786   2.317   2.430   3.642
  287ACE     C2 2787   2.343   2.480   3.502
  287ACE     O1 2788   2.422   2.430   3.426
  287ACE     O2 2789   2.304   2.605   3.482
  287ACE     H1 2790   2.357   2.507   3.710
  287ACE     H2 2791   2.365   2.333   3.659
  287ACE     H3 2792   2.210   2.432   3.664
  287ACE     H4 2793   2.349   2.625   3.398
  288ACE     C1 2794   1.767   3.287   2.490
  288ACE     C2 2795   1.836   3.259   2.621
  288ACE     O1 2796   1.846   3.342   2.708
  288ACE     O2 2797   1.815   3.134   2.659
  288ACE     H1 2798   1.783   3.207   2.417
  288ACE     H2 2799   1.794   3.385   2.451
  288ACE     H3 2800   1.660   3.290   2.512
  288ACE     H4 2801   1.796   3.146   2.754
  289ACE     C1 2802   0.224   0.612   2.913
  289ACE     C2 2803   0.308   0.669   2.801
  289ACE     O1 2804   0.268   0.752   2.722
  289ACE     O2 2805   0.439   0.650   2.813
  289ACE     H1 2806   0.158   0.535   2.871
  289ACE     H2 2807   0.162   0.691   2.956
  289ACE     H3 2808   0.287   0.563   2.989
  289ACE     H4 2809   0.472   0.717   2.750
  290ACE     C1 2810   2.781   0.975   2.743
  290ACE     C2 2811   2.635   0.944   2.713
  290ACE     O1 2812   2.594   0.832   2.695
  290ACE     O2 2813   2.569   1.047   2.658
  290ACE     H1 2814   2.846   0.907   2.686
  290ACE     H2 2815   2.799   0.959   2.850
  290ACE     H3 2816   2.806   1.079   2.721
  290ACE     H4 2817   2.492   1.004   2.617
  291ACE     C1 2818   1.433   1.372   3.658
  291ACE     C2 2819   1.297   1.361   3.596
  291ACE     O1 2820   1.276   1.343   3.478
  291ACE     O2 2821   1.198   1.341   3.682
  291ACE     H1 2822   1.468   1.476   3.649
  291ACE     H2 2823   1.506   1.308   3.606
  291ACE     H3 2824   1.426   1.352   3.765
  291ACE     H4 2825   1.124   1.324   3.622
  292ACE     C1 2826   3.276   1.966   3.544
  292ACE     C2 2827   3.190   2.051   3.453
  292ACE     O1 2828   3.203   2.171   3.437
  292ACE     O2 2829   3.104   1.983   3.377
  292ACE     H1 2830   3.210   1.912   3.613
  292ACE     H2 2831   3.352   2.024   3.597
  292ACE     H3 2832   3.321   1.885   3.485
  292ACE     H4 2833   3.054   2.054   3.333
  293ACE     C1 2834   1.968   0.929   2.608
  293ACE     C2 2835   1.994   0.804   2.526
  293ACE     O1 2836   2.099   0.780   2.470
  293ACE     O2 2837   1.904   0.707   2.541
  293ACE     H1 2838   1.872   0.973   2.576
  293ACE     H2 2839   2.050   1.001   2.602
  293ACE     H3 2840   1.947   0.899   2.711
  293ACE     H4 2841   1.944   0.633   2.492
  294ACE     C1 2842   1.041   0.754   3.602
  294ACE     C2 2843   1.159   0.713   3.516
  294ACE     O1 2844   1.249   0.644   3.556
  294ACE     O2 2845   1.145   0.734   3.386
  294ACE     H1 2846   1.016   0.860   3.584
  294ACE     H2 2847   1.058   0.731   3.707
  294ACE     H3 2848   0.951   0.702   3.566
  294ACE     H4 2849   1.230   0.703   3.351
  295ACE     C1 2850   2.118   0.511   2.690
  295ACE     C2 2851   2.008   0.532   2.792
  295ACE     O1 2852   1.922   0.450   2.814
  295ACE     O2 2853   2.000   0.654   2.843
  295ACE     H1 2854   2.144   0.605   2.641
  295ACE     H2 2855   2.091   0.432   2.620
  295ACE     H3 2856   2.210   0.485   2.745
  295ACE     H4 2857   1.932   0.642   2.912
  296ACE     C1 2858   2.196   0.716   3.638
  296ACE     C2 2859   2.110   0.840   3.628
  296ACE     O1 2860   2.101   0.907   3.529
  296ACE     O2 2861   2.066   0.890   3.743
  296ACE     H1 2862   2.256   0.718   3.729
  296ACE     H2 2863   2.258   0.707   3.548
  296ACE     H3 2864   2.131   0.629   3.651
  296ACE     H4 2865   2.030   0.974   3.712
  297ACE     C1 2866   2.736   1.850   3.621
  297ACE     C2 2867   2.785   1.922   3.499
  297ACE     O1 2868   2.772   1.884   3.384
  297ACE     O2 2869   2.854   2.033   3.527
  297ACE     H1 2870   2.823   1.823   3.681
  297ACE     H2 2871   2.675   1.762   3.596
  297ACE     H3 2872   2.683   1.920   3.687
  297ACE     H4 2873   2.872   2.067   3.438
  298ACE     C1 2874   0.692   0.367   2.725
  298ACE     C2 2875   0.842   0.348   2.740
  298ACE     O1 2876   0.900   0.242   2.751
  298ACE     O2 2877   0.911   0.460   2.753
  298ACE     H1 2878   0.657   0.435   2.804
  298ACE     H2 2879   0.638   0.271   2.728
  298ACE     H3 2880   0.673   0.424   2.634
  298ACE     H4 2881   0.999   0.424   2.773
  299ACE     C1 2882   2.374   3.045   2.612
  299ACE     C2 2883   2.383   3.193   2.583
  299ACE     O1 2884   2.288   3.264   2.561
  299ACE     O2 2885   2.500   3.250   2.614
  299ACE     H1 2886   2.458   2.994   2.564
  299ACE     H2 2887   2.277   3.003   2.585
  299ACE     H3 2888   2.394   3.030   2.719
  299ACE     H4 2889   2.477   3.344   2.604
  300ACE     C1 2890   2.777   0.478   3.649
  300ACE     C2 2891   2.775   0.325   3.645
  300ACE     O1 2892   2.824   0.253   3.728
  300ACE     O2 2893   2.738   0.272   3.530
  300ACE     H1 2894   2.847   0.512   3.572
  300ACE     H2 2895   2.806   0.516   3.747
  300ACE     H3 2896   2.682   0.518   3.614
  300ACE     H4 2897   2.779   0.184   3.540
  301ACE     C1 2898   0.309   0.277   3.196
  301ACE     C2 2899   0.196   0.181   3.228
  301ACE     O1 2900   0.198   0.062   3.206
  301ACE     O2 2901   0.081   0.240   3.260
  301ACE     H1 2902   0.270   0.360   3.136
  301ACE     H2 2903   0.395   0.228   3.149
  301ACE     H3 2904   0.337   0.329   3.288
  301ACE     H4 2905   0.023   0.163   3.273
  302ACE     C1 2906   2.171   0.148   3.374
  302ACE     C2 2907   2.126   0.087   3.244
  302ACE     O1 2908   2.015   0.097   3.198
  302ACE     O2 2909   2.221   0.027   3.172
  302ACE     H1 2910   2.254   0.091   3.417
  302ACE     H2 2911   2.086   0.160   3.443
  302ACE     H3 2912   2.211   0.248   3.351
  302ACE     H4 2913   2.167  -0.001   3.096
  303ACE     C1 2914   2.664   2.269   3.566
  303ACE     C2 2915   2.580   2.183   3.473
  303ACE     O1 2916   2.602   2.171   3.354
  303ACE     O2 2917   2.509   2.091   3.538
  303ACE     H1 2918   2.671   2.223   3.665
  303ACE     H2 2919   2.610   2.363   3.584
  303ACE     H3 2920   2.761   2.291   3.521
  303ACE     H4 2921   2.452   2.055   3.468
  304ACE     C1 2922   0.767   0.922   2.214
  304ACE     C2 2923   0.804   1.019   2.321
  304ACE     O1 2924   0.790   1.138   2.309
  304ACE     O2 2925   0.808   0.966   2.443
  304ACE     H1 2926   0.856   0.867   2.182
  304ACE     H2 2927   0.717   0.975   2.132
  304ACE     H3 2928   0.703   0.844   2.256
  304ACE     H4 2929   0.827   1.045   2.496
  305ACE     C1 2930   0.197   0.425   3.535
  305ACE     C2 2931   0.205   0.276   3.564
  305ACE     O1 2932   0.123   0.214   3.628
  305ACE     O2 2933   0.316   0.216   3.521
  305ACE     H1 2934   0.295   0.465   3.508
  305ACE     H2 2935   0.150   0.478   3.618
  305ACE     H3 2936   0.134   0.438   3.446
  305ACE     H4 2937   0.306   0.127   3.559
  306ACE     C1 2938   2.146   0.996   2.232
  306ACE     C2 2939   2.010   1.062   2.242
  306ACE     O1 2940   1.989   1.179   2.218
  306ACE     O2 2941   1.908   0.980   2.264
  306ACE     H1 2942   2.181   0.976   2.334
  306ACE     H2 2943   2.219   1.059   2.179
  306ACE     H3 2944   2.136   0.896   2.188
  306ACE     H4 2945   1.833   1.042   2.258
  307ACE     C1 2946   2.209   2.414   3.196
  307ACE     C2 2947   2.232   2.265   3.193
  307ACE     O1 2948   2.335   2.211   3.160
  307ACE     O2 2949   2.137   2.196   3.255
  307ACE     H1 2950   2.129   2.437   3.125
  307ACE     H2 2951   2.300   2.470   3.175
  307ACE     H3 2952   2.164   2.441   3.292
  307ACE     H4 2953   2.186   2.116   3.281
  308ACE     C1 2954   0.430   2.330   2.928
  308ACE     C2 2955   0.580   2.347   2.929
  308ACE     O1 2956   0.659   2.278   2.869
  308ACE     O2 2957   0.623   2.441   3.012
  308ACE     H1 2958   0.399   2.299   3.028
  308ACE     H2 2959   0.397   2.258   2.852
  308ACE     H3 2960   0.382   2.428   2.918
  308ACE     H4 2961   0.719   2.443   2.996
  309ACE     C1 2962   1.267   0.629   2.210
  309ACE     C2 2963   1.234   0.481   2.213
  309ACE     O1 2964   1.124   0.434   2.233
  309ACE     O2 2965   1.338   0.399   2.198
  309ACE     H1 2966   1.263   0.669   2.312
  309ACE     H2 2967   1.190   0.685   2.155
  309ACE     H3 2968   1.368   0.648   2.171
  309ACE     H4 2969   1.294   0.312   2.197
  310ACE     C1 2970   0.442   1.782   2.224
  310ACE     C2 2971   0.384   1.841   2.348
  310ACE     O1 2972   0.281   1.905   2.352
  310ACE     O2 2973   0.452   1.815   2.458
  310ACE     H1 2974   0.549   1.761   2.234
  310ACE     H2 2975   0.421   1.851   2.141
  310ACE     H3 2976   0.393   1.685   2.205
  310ACE     H4 2977   0.393   1.851   2.527
  311ACE     C1 2978   2.479   1.898   2.836
  311ACE     C2 2979   2.525   1.972   2.960
  311ACE     O1 2980   2.640   2.007   2.976
  311ACE     O2 2981   2.448   1.955   3.067
  311ACE     H1 2982   2.547   1.816   2.812
  311ACE     H2 2983   2.482   1.967   2.751
  311ACE     H3 2984   2.376   1.862   2.847
  311ACE     H4 2985   2.495   2.012   3.131
  312ACE     C1 2986   1.445   0.652   3.180
  312ACE     C2 2987   1.592   0.635   3.210
  312ACE     O1 2988   1.659   0.728   3.251
  312ACE     O2 2989   1.623   0.511   3.248
  312ACE     H1 2990   1.411   0.575   3.110
  312ACE     H2 2991   1.424   0.754   3.146
  312ACE     H3 2992   1.392   0.634   3.274
  312ACE     H4 2993   1.710   0.521   3.289
  313ACE     C1 2994   0.976   1.298   2.476
  313ACE     C2 2995   1.058   1.423   2.494
  313ACE     O1 2996   1.012   1.533   2.511
  313ACE     O2 2997   1.186   1.400   2.520
  313ACE     H1 2998   1.019   1.239   2.394
  313ACE     H2 2999   0.870   1.322   2.461
  313ACE     H3 3000   0.991   1.234   2.564
  313ACE     H4 3001   1.216   1.490   2.542
  314ACE     C1 3002   2.624   2.686   3.671
  314ACE     C2 3003   2.714   2.804   3.639
  314ACE     O1 3004   2.685   2.919   3.665
  314ACE     O2 3005   2.799   2.779   3.539
  314ACE     H1 3006   2.608   2.626   3.581
  314ACE     H2 3007   2.529   2.719   3.715
  314ACE     H3 3008   2.678   2.618   3.737
  314ACE     H4 3009   2.829   2.868   3.514
  315ACE     C1 3010   1.815   1.661   3.593
  315ACE     C2 3011   1.801   1.739   3.464
  315ACE     O1 3012   1.819   1.694   3.353
  315ACE     O2 3013   1.790   1.870   3.481
  315ACE     H1 3014   1.885   1.713   3.660
  315ACE     H2 3015   1.841   1.556   3.577
  315ACE     H3 3016   1.721   1.670   3.649
  315ACE     H4 3017   1.785   1.903   3.390
  316ACE     C1 3018   0.554   0.453   3.703
  316ACE     C2 3019   0.573   0.303   3.689
  316ACE     O1 3020   0.527   0.221   3.766
  316ACE     O2 3021   0.658   0.268   3.593
  316ACE     H1 3022   0.652   0.500   3.710
  316ACE     H2 3023   0.490   0.481   3.788
  316ACE     H3 3024   0.515   0.494   3.609
  316ACE     H4 3025   0.665   0.171   3.605
  317ACE     C1 3026   0.701   3.215   2.999
  317ACE     C2 3027   0.813   3.314   2.975
  317ACE     O1 3028   0.806   3.407   2.898
  317ACE     O2 3029   0.909   3.312   3.068
  317ACE     H1 3030   0.728   3.123   2.946
  317ACE     H2 3031   0.605   3.254   2.963
  317ACE     H3 3032   0.699   3.185   3.104
  317ACE     H4 3033   0.961   3.390   3.043
  318ACE     C1 3034   1.203   0.191   2.853
  318ACE     C2 3035   1.156   0.157   2.992
  318ACE     O1 3036   1.095   0.056   3.020
  318ACE     O2 3037   1.224   0.222   3.086
  318ACE     H1 3038   1.215   0.300   2.843
  318ACE     H2 3039   1.139   0.145   2.777
  318ACE     H3 3040   1.305   0.150   2.843
  318ACE     H4 3041   1.239   0.151   3.151
  319ACE     C1 3042   2.725   3.049   2.837
  319ACE     C2 3043   2.717   2.908   2.780
  319ACE     O1 3044   2.813   2.837   2.759
  319ACE     O2 3045   2.594   2.861   2.763
  319ACE     H1 3046   2.643   3.110   2.798
  319ACE     H2 3047   2.824   3.093   2.821
  319ACE     H3 3048   2.706   3.042   2.945
  319ACE     H4 3049   2.615   2.775   2.723
  320ACE     C1 3050   1.799   2.885   2.494
  320ACE     C2 3051   1.773   2.738   2.501
  320ACE     O1 3052   1.737   2.679   2.402
  320ACE     O2 3053   1.727   2.699   2.620
  320ACE     H1 3054   1.726   2.932   2.561
  320ACE     H2 3055   1.787   2.923   2.391
  320ACE     H3 3056   1.896   2.908   2.539
  320ACE     H4 3057   1.674   2.620   2.597
  321ACE     C1 3058   1.552   0.240   3.019
  321ACE     C2 3059   1.645   0.355   3.000
  321ACE     O1 3060   1.606   0.463   2.961
  321ACE     O2 3061   1.774   0.323   3.001
  321ACE     H1 3062   1.549   0.184   2.924
  321ACE     H2 3063   1.451   0.278   3.038
  321ACE     H3 3064   1.589   0.170   3.095
  321ACE     H4 3065   1.814   0.401   2.957
  322ACE     C1 3066   1.007   2.888   2.419
  322ACE     C2 3067   0.951   2.769   2.344
  322ACE     O1 3068   0.859   2.775   2.265
  322ACE     O2 3069   0.972   2.657   2.412
  322ACE     H1 3070   0.942   2.908   2.505
  322ACE     H2 3071   1.004   2.981   2.360
  322ACE     H3 3072   1.107   2.869   2.460
  322ACE     H4 3073   0.887   2.611   2.402
  323ACE     C1 3074   1.050   0.267   3.357
  323ACE     C2 3075   1.059   0.391   3.443
  323ACE     O1 3076   0.978   0.481   3.442
  323ACE     O2 3077   1.167   0.392   3.521
  323ACE     H1 3078   1.064   0.301   3.254
  323ACE     H2 3079   0.950   0.223   3.364
  323ACE     H3 3080   1.129   0.195   3.381
  323ACE     H4 3081   1.181   0.486   3.544
  324ACE     C1 3082   2.433   0.125   2.465
  324ACE     C2 3083   2.365   0.210   2.570
  324ACE     O1 3084   2.252   0.250   2.563
  324ACE     O2 3085   2.446   0.269   2.657
  324ACE     H1 3086   2.487   0.193   2.398
  324ACE     H2 3087   2.359   0.069   2.406
  324ACE     H3 3088   2.512   0.064   2.510
  324ACE     H4 3089   2.384   0.333   2.697
  325ACE     C1 3090   0.857   0.363   3.071
  325ACE     C2 3091   0.765   0.242   3.061
  325ACE     O1 3092   0.656   0.243   3.007
  325ACE     O2 3093   0.791   0.148   3.151
  325ACE     H1 3094   0.865   0.393   3.176
  325ACE     H2 3095   0.822   0.448   3.010
  325ACE     H3 3096   0.959   0.334   3.046
  325ACE     H4 3097   0.718   0.087   3.133
  326ACE     C1 3098   0.341   1.185   2.878
  326ACE     C2 3099   0.487   1.181   2.919
  326ACE     O1 3100   0.562   1.276   2.909
  326ACE     O2 3101   0.542   1.060   2.918
  326ACE     H1 3102   0.318   1.100   2.811
  326ACE     H2 3103   0.313   1.281   2.835
  326ACE     H3 3104   0.280   1.160   2.965
  326ACE     H4 3105   0.631   1.082   2.948
  327ACE     C1 3106   3.291   0.663   3.005
  327ACE     C2 3107   3.273   0.656   3.155
  327ACE     O1 3108   3.165   0.642   3.208
  327ACE     O2 3109   3.372   0.716   3.222
  327ACE     H1 3110   3.358   0.746   2.979
  327ACE     H2 3111   3.196   0.674   2.952
  327ACE     H3 3112   3.344   0.573   2.972
  327ACE     H4 3113   3.323   0.753   3.297
  328ACE     C1 3114   3.009   0.894   2.230
  328ACE     C2 3115   2.947   0.763   2.271
  328ACE     O1 3116   2.958   0.714   2.382
  328ACE     O2 3117   2.851   0.720   2.189
  328ACE     H1 3118   3.082   0.874   2.151
  328ACE     H2 3119   3.057   0.945   2.315
  328ACE     H3 3120   2.934   0.957   2.181
  328ACE     H4 3121   2.826   0.635   2.230
  329ACE     C1 3122   1.155   2.722   2.874
  329ACE     C2 3123   1.031   2.801   2.845
  329ACE     O1 3124   0.925   2.782   2.898
  329ACE     O2 3125   1.032   2.857   2.725
  329ACE     H1 3126   1.199   2.694   2.777
  329ACE     H2 3127   1.137   2.635   2.939
  329ACE     H3 3128   1.232   2.788   2.915
  329ACE     H4 3129   0.936   2.867   2.712
  330ACE     C1 3130   0.146   3.104   3.524
  330ACE     C2 3131   0.282   3.113   3.592
  330ACE     O1 3132   0.357   3.208   3.585
  330ACE     O2 3133   0.309   3.015   3.678
  330ACE     H1 3134   0.163   3.068   3.422
  330ACE     H2 3135   0.098   3.202   3.518
  330ACE     H3 3136   0.083   3.029   3.573
  330ACE     H4 3137   0.390   3.050   3.720
  331ACE     C1 3138   2.633   1.222   2.919
  331ACE     C2 3139   2.778   1.257   2.921
  331ACE     O1 3140   2.859   1.189   2.980
  331ACE     O2 3141   2.806   1.383   2.889
  331ACE     H1 3142   2.584   1.271   3.004
  331ACE     H2 3143   2.623   1.114   2.929
  331ACE     H3 3144   2.584   1.262   2.828
  331ACE     H4 3145   2.903   1.379   2.898
  332ACE     C1 3146   2.983   1.715   2.272
  332ACE     C2 3147   2.849   1.786   2.274
  332ACE     O1 3148   2.833   1.903   2.301
  332ACE     O2 3149   2.743   1.707   2.258
  332ACE     H1 3150   2.980   1.632   2.345
  332ACE     H2 3151   3.067   1.782   2.291
  332ACE     H3 3152   2.993   1.661   2.177
  332ACE     H4 3153   2.670   1.770   2.272
  333ACE     C1 3154   1.009   2.210   3.624
  333ACE     C2 3155   0.876   2.280   3.621
  333ACE     O1 3156   0.822   2.320   3.521
  333ACE     O2 3157   0.809   2.282   3.736
  333ACE     H1 3158   1.080   2.274   3.679
  333ACE     H2 3159   1.046   2.192   3.523
  333ACE     H3 3160   1.005   2.120   3.686
  333ACE     H4 3161   0.734   2.337   3.711
  334ACE     C1 3162   3.285   1.848   2.712
  334ACE     C2 3163   3.229   1.985   2.742
  334ACE     O1 3164   3.111   2.010   2.742
  334ACE     O2 3165   3.319   2.083   2.748
  334ACE     H1 3166   3.350   1.856   2.624
  334ACE     H2 3167   3.205   1.775   2.697
  334ACE     H3 3168   3.355   1.819   2.791
  334ACE     H4 3169   3.263   2.162   2.746
  335ACE     C1 3170   0.471   1.674   3.115
  335ACE     C2 3171   0.440   1.694   3.262
  335ACE     O1 3172   0.342   1.751   3.303
  335ACE     O2 3173   0.511   1.619   3.346
  335ACE     H1 3174   0.546   1.748   3.086
  335ACE     H2 3175   0.382   1.690   3.053
  335ACE     H3 3176   0.520   1.578   3.097
  335ACE     H4 3177   0.457   1.630   3.426
  336ACE     C1 3178   0.935   3.000   3.122
  336ACE     C2 3179   0.994   2.866   3.158
  336ACE     O1 3180   0.931   2.775   3.205
  336ACE     O2 3181   1.126   2.858   3.143
  336ACE     H1 3182   1.013   3.077   3.126
  336ACE     H2 3183   0.846   3.020   3.182
  336ACE     H3 3184   0.907   2.997   3.016
  336ACE     H4 3185   1.144   2.766   3.167
  337ACE     C1 3186   3.141   0.385   3.625
  337ACE     C2 3187   3.119   0.321   3.490
  337ACE     O1 3188   3.029   0.244   3.464
  337ACE     O2 3189   3.183   0.383   3.391
  337ACE     H1 3190   3.248   0.379   3.651
  337ACE     H2 3191   3.077   0.343   3.703
  337ACE     H3 3192   3.125   0.493   3.615
  337ACE     H4 3193   3.126   0.361   3.315
  338ACE     C1 3194   0.677   1.575   2.437
  338ACE     C2 3195   0.667   1.513   2.299
  338ACE     O1 3196   0.563   1.478   2.247
  338ACE     O2 3197   0.773   1.534   2.222
  338ACE     H1 3198   0.733   1.507   2.502
  338ACE     H2 3199   0.579   1.597   2.480
  338ACE     H3 3200   0.743   1.663   2.434
  338ACE     H4 3201   0.741   1.498   2.137
  339ACE     C1 3202   2.880   1.863   2.879
  339ACE     C2 3203   2.926   1.812   3.013
  339ACE     O1 3204   2.929   1.693   3.039
  339ACE     O2 3205   2.932   1.904   3.109
  339ACE     H1 3206   2.783   1.818   2.854
  339ACE     H2 3207   2.950   1.833   2.800
  339ACE     H3 3208   2.874   1.973   2.879
  339ACE     H4 3209   2.919   1.853   3.190
  340ACE     C1 3210   3.241   2.678   3.435
  340ACE     C2 3211   3.103   2.676   3.498
  340ACE     O1 3212   3.078   2.722   3.607
  340ACE     O2 3213   3.006   2.644   3.412
  340ACE     H1 3214   3.269   2.575   3.408
  340ACE     H2 3215   3.315   2.726   3.501
  340ACE     H3 3216   3.235   2.728   3.338
  340ACE     H4 3217   2.926   2.674   3.459
  341ACE     C1 3218   1.750   0.668   3.688
  341ACE     C2 3219   1.664   0.678   3.565
  341ACE     O1 3220   1.582   0.596   3.531
  341ACE     O2 3221   1.670   0.795   3.505
  341ACE     H1 3222   1.854   0.658   3.657
  341ACE     H2 3223   1.719   0.586   3.754
  341ACE     H3 3224   1.750   0.765   3.738
  341ACE     H4 3225   1.642   0.773   3.415
  342ACE     C1 3226   0.963   0.719   2.575
  342ACE     C2 3227   0.991   0.647   2.446
  342ACE     O1 3228   1.005   0.701   2.338
  342ACE     O2 3229   1.009   0.515   2.459
  342ACE     H1 3230   0.858   0.702   2.600
  342ACE     H2 3231   0.984   0.827   2.568
  342ACE     H3 3232   1.018   0.670   2.656
  342ACE     H4 3233   1.033   0.489   2.369
  343ACE     C1 3234   0.261   1.166   3.375
  343ACE     C2 3235   0.346   1.262   3.294
  343ACE     O1 3236   0.373   1.250   3.177
  343ACE     O2 3237   0.371   1.377   3.357
  343ACE     H1 3238   0.316   1.139   3.466
  343ACE     H2 3239   0.230   1.079   3.317
  343ACE     H3 3240   0.176   1.223   3.413
  343ACE     H4 3241   0.438   1.414   3.297
  344ACE     C1 3242   0.479   0.836   3.510
  344ACE     C2 3243   0.628   0.815   3.491
  344ACE     O1 3244   0.709   0.901   3.467
  344ACE     O2 3245   0.671   0.692   3.521
  344ACE     H1 3246   0.425   0.758   3.454
  344ACE     H2 3247   0.448   0.937   3.483
  344ACE     H3 3248   0.454   0.813   3.614
  344ACE     H4 3249   0.767   0.702   3.510
  345ACE     C1 3250   0.933   2.533   2.707
  345ACE     C2 3251   0.951   2.453   2.835
  345ACE     O1 3252   0.883   2.462   2.935
  345ACE     O2 3253   1.043   2.358   2.823
  345ACE     H1 3254   1.030   2.553   2.661
  345ACE     H2 3255   0.873   2.624   2.718
  345ACE     H3 3256   0.881   2.467   2.636
  345ACE     H4 3257   1.026   2.302   2.901
  346ACE     C1 3258   0.477   0.944   2.411
  346ACE     C2 3259   0.432   0.932   2.268
  346ACE     O1 3260   0.462   1.011   2.182
  346ACE     O2 3261   0.373   0.818   2.237
  346ACE     H1 3262   0.391   0.932   2.478
  346ACE     H2 3263   0.530   1.039   2.425
  346ACE     H3 3264   0.542   0.860   2.437
  346ACE     H4 3265   0.367   0.824   2.140
  347ACE     C1 3266   1.667   2.413   3.448
  347ACE     C2 3267   1.707   2.292   3.367
  347ACE     O1 3268   1.804   2.223   3.388
  347ACE     O2 3269   1.621   2.255   3.272
  347ACE     H1 3270   1.672   2.502   3.383
  347ACE     H2 3271   1.729   2.426   3.538
  347ACE     H3 3272   1.560   2.409   3.472
  347ACE     H4 3273   1.654   2.166   3.254
  348ACE     C1 3274   0.649   1.223   2.623
  348ACE     C2 3275   0.509   1.277   2.605
  348ACE     O1 3276   0.483   1.391   2.576
  348ACE     O2 3277   0.415   1.184   2.590
  348ACE     H1 3278   0.649   1.135   2.688
  348ACE     H2 3279   0.719   1.301   2.655
  348ACE     H3 3280   0.680   1.185   2.525
  348ACE     H4 3281   0.338   1.238   2.568
  349ACE     C1 3282   2.360   0.279   3.017
  349ACE     C2 3283   2.252   0.374   3.061
  349ACE     O1 3284   2.155   0.393   2.993
  349ACE     O2 3285   2.297   0.474   3.135
  349ACE     H1 3286   2.408   0.324   2.929
  349ACE     H2 3287   2.317   0.184   2.982
  349ACE     H3 3288   2.435   0.263   3.096
  349ACE     H4 3289   2.238   0.545   3.107
  350ACE     C1 3290   1.508   3.039   2.700
  350ACE     C2 3291   1.389   2.948   2.712
  350ACE     O1 3292   1.397   2.828   2.712
  350ACE     O2 3293   1.275   3.006   2.750
  350ACE     H1 3294   1.542   3.036   2.596
  350ACE     H2 3295   1.590   3.001   2.761
  350ACE     H3 3296   1.481   3.143   2.721
  350ACE     H4 3297   1.212   2.935   2.730
  351ACE     C1 3298   1.301   0.507   2.564
  351ACE     C2 3299   1.420   0.570   2.495
  351ACE     O1 3300   1.440   0.689   2.490
  351ACE     O2 3301   1.500   0.487   2.429
  351ACE     H1 3302   1.260   0.427   2.501
  351ACE     H2 3303   1.228   0.582   2.594
  351ACE     H3 3304   1.337   0.453   2.653
  351ACE     H4 3305   1.569   0.549   2.400
  352ACE     C1 3306   2.493   2.634   2.462
  352ACE     C2 3307   2.530   2.754   2.378
  352ACE     O1 3308   2.593   2.849   2.418
  352ACE     O2 3309   2.467   2.762   2.261
  352ACE     H1 3310   2.384   2.630   2.470
  352ACE     H2 3311   2.541   2.636   2.560
  352ACE     H3 3312   2.517   2.542   2.406
  352ACE     H4 3313   2.488   2.854   2.237
  353ACE     C1 3314   0.306   1.255   2.287
  353ACE     C2 3315   0.197   1.334   2.355
  353ACE     O1 3316   0.099   1.378   2.299
  353ACE     O2 3317   0.195   1.316   2.488
  353ACE     H1 3318   0.404   1.282   2.328
  353ACE     H2 3319   0.302   1.263   2.178
  353ACE     H3 3320   0.292   1.151   2.318
  353ACE     H4 3321   0.128   1.381   2.516
  354ACE     C1 3322   1.890   0.309   3.675
  354ACE     C2 3323   1.835   0.287   3.536
  354ACE     O1 3324   1.789   0.377   3.469
  354ACE     O2 3325   1.806   0.160   3.507
  354ACE     H1 3326   1.805   0.306   3.745
  354ACE     H2 3327   1.937   0.408   3.682
  354ACE     H3 3328   1.958   0.228   3.705
  354ACE     H4 3329   1.750   0.172   3.429
  355ACE     C1 3330   2.874   2.373   2.250
  355ACE     C2 3331   2.880   2.222   2.233
  355ACE     O1 3332   2.979   2.161   2.201
  355ACE     O2 3333   2.764   2.159   2.254
  355ACE     H1 3334   2.794   2.413   2.187
  355ACE     H2 3335   2.971   2.420   2.231
  355ACE     H3 3336   2.837   2.394   2.351
  355ACE     H4 3337   2.795   2.067   2.257
  356ACE     C1 3338   0.863   0.729   3.240
  356ACE     C2 3339   0.873   0.872   3.189
  356ACE     O1 3340   0.783   0.927   3.128
  356ACE     O2 3341   0.997   0.918   3.179
  356ACE     H1 3342   0.950   0.671   3.207
  356ACE     H2 3343   0.768   0.681   3.214
  356ACE     H3 3344   0.880   0.732   3.349
  356ACE     H4 3345   0.982   1.003   3.136
  357ACE     C1 3346   0.903   3.253   2.620
  357ACE     C2 3347   1.022   3.243   2.714
  357ACE     O1 3348   1.129   3.295   2.694
  357ACE     O2 3349   1.015   3.138   2.796
  357ACE     H1 3350   0.839   3.165   2.629
  357ACE     H2 3351   0.934   3.273   2.517
  357ACE     H3 3352   0.839   3.335   2.656
  357ACE     H4 3353   1.110   3.125   2.814
  358ACE     C1 3354   2.981   2.233   2.930
  358ACE     C2 3355   3.048   2.330   2.834
  358ACE     O1 3356   3.141   2.302   2.760
  358ACE     O2 3357   3.013   2.457   2.852
  358ACE     H1 3358   2.943   2.287   3.017
  358ACE     H2 3359   3.046   2.149   2.957
  358ACE     H3 3360   2.890   2.197   2.882
  358ACE     H4 3361   3.067   2.504   2.785
  359ACE     C1 3362   0.933   3.189   3.403
  359ACE     C2 3363   1.032   3.246   3.502
  359ACE     O1 3364   1.071   3.188   3.601
  359ACE     O2 3365   1.072   3.369   3.474
  359ACE     H1 3366   0.843   3.252   3.403
  359ACE     H2 3367   0.909   3.084   3.422
  359ACE     H3 3368   0.972   3.206   3.302
  359ACE     H4 3369   1.122   3.393   3.554
  360ACE     C1 3370   2.542   2.869   3.366
  360ACE     C2 3371   2.573   2.745   3.284
  360ACE     O1 3372   2.685   2.706   3.258
  360ACE     O2 3373   2.469   2.664   3.267
  360ACE     H1 3374   2.464   2.927   3.317
  360ACE     H2 3375   2.632   2.930   3.385
  360ACE     H3 3376   2.494   2.838   3.460
  360ACE     H4 3377   2.514   2.586   3.229
  361ACE     C1 3378   3.224   0.911   2.661
  361ACE     C2 3379   3.223   1.054   2.707
  361ACE     O1 3380   3.124   1.114   2.740
  361ACE     O2 3381   3.343   1.112   2.713
  361ACE     H1 3382   3.312   0.892   2.598
  361ACE     H2 3383   3.130   0.886   2.610
  361ACE     H3 3384   3.236   0.846   2.749
  361ACE     H4 3385   3.319   1.200   2.747
  362ACE     C1 3386   2.668   0.321   2.217
  362ACE     C2 3387   2.817   0.328   2.237
  362ACE     O1 3388   2.891   0.234   2.250
  362ACE     O2 3389   2.863   0.451   2.258
  362ACE     H1 3390   2.619   0.353   2.309
  362ACE     H2 3391   2.634   0.221   2.187
  362ACE     H3 3392   2.639   0.400   2.147
  362ACE     H4 3393   2.954   0.430   2.287
  363ACE     C1 3394   1.419   0.865   2.844
  363ACE     C2 3395   1.291   0.787   2.832
  363ACE     O1 3396   1.242   0.722   2.922
  363ACE     O2 3397   1.214   0.834   2.735
  363ACE     H1 3398   1.461   0.878   2.744
  363ACE     H2 3399   1.487   0.821   2.918
  363ACE     H3 3400   1.394   0.967   2.876
  363ACE     H4 3401   1.125   0.830   2.775
  364ACE     C1 3402   2.207   2.097   3.707
  364ACE     C2 3403   2.166   2.085   3.562
  364ACE     O1 3404   2.245   2.080   3.470
  364ACE     O2 3405   2.040   2.046   3.546
  364ACE     H1 3406   2.146   2.174   3.754
  364ACE     H2 3407   2.315   2.114   3.719
  364ACE     H3 3408   2.177   2.004   3.757
  364ACE     H4 3409   2.034   2.030   3.450
  365ACE     C1 3410   2.668   0.390   2.881
  365ACE     C2 3411   2.658   0.519   2.959
  365ACE     O1 3412   2.593   0.529   3.060
  365ACE     O2 3413   2.680   0.625   2.882
  365ACE     H1 3414   2.603   0.401   2.794
  365ACE     H2 3415   2.637   0.302   2.940
  365ACE     H3 3416   2.768   0.378   2.837
  365ACE     H4 3417   2.624   0.693   2.924
  366ACE     C1 3418   2.043   2.558   2.670
  366ACE     C2 3419   2.077   2.645   2.550
  366ACE     O1 3420   2.132   2.753   2.552
  366ACE     O2 3421   2.030   2.595   2.435
  366ACE     H1 3422   1.936   2.569   2.691
  366ACE     H2 3423   2.100   2.586   2.760
  366ACE     H3 3424   2.052   2.452   2.643
  366ACE     H4 3425   2.043   2.668   2.372
  367ACE     C1 3426   0.518   2.413   3.556
  367ACE     C2 3427   0.445   2.455   3.682
  367ACE     O1 3428   0.487   2.532   3.765
  367ACE     O2 3429   0.338   2.379   3.708
  367ACE     H1 3430   0.547   2.308   3.566
  367ACE     H2 3431   0.606   2.476   3.534
  367ACE     H3 3432   0.448   2.411   3.471
  367ACE     H4 3433   0.302   2.420   3.789
  368ACE     C1 3434   0.358   2.188   2.261
  368ACE     C2 3435   0.321   2.250   2.394
  368ACE     O1 3436   0.368   2.217   2.501
  368ACE     O2 3437   0.253   2.364   2.384
  368ACE     H1 3438   0.268   2.142   2.219
  368ACE     H2 3439   0.440   2.116   2.270
  368ACE     H3 3440   0.380   2.267   2.188
  368ACE     H4 3441   0.247   2.390   2.477
  369ACE     C1 3442   2.219   1.340   3.112
  369ACE     C2 3443   2.343   1.376   3.188
  369ACE     O1 3444   2.363   1.485   3.236
  369ACE     O2 3445   2.421   1.273   3.221
  369ACE     H1 3446   2.248   1.311   3.010
  369ACE     H2 3447   2.145   1.420   3.113
  369ACE     H3 3448   2.181   1.248   3.157
  369ACE     H4 3449   2.493   1.318   3.268
  370ACE     C1 3450   0.330   3.178   3.197
  370ACE     C2 3451   0.466   3.179   3.265
  370ACE     O1 3452   0.528   3.080   3.298
  370ACE     O2 3453   0.521   3.299   3.280
  370ACE     H1 3454   0.262   3.240   3.256
  370ACE     H2 3455   0.292   3.077   3.181
  370ACE     H3 3456   0.338   3.235   3.103
  370ACE     H4 3457   0.600   3.278   3.333
  371ACE     C1 3458   3.281   1.312   3.526
  371ACE     C2 3459   3.280   1.163   3.551
  371ACE     O1 3460   3.186   1.104   3.600
  371ACE     O2 3461   3.366   1.096   3.474
  371ACE     H1 3462   3.337   1.360   3.608
  371ACE     H2 3463   3.179   1.353   3.523
  371ACE     H3 3464   3.340   1.336   3.437
  371ACE     H4 3465   3.325   1.008   3.470
  372ACE     C1 3466   1.380   2.592   3.645
  372ACE     C2 3467   1.464   2.715   3.620
  372ACE     O1 3468   1.444   2.824   3.668
  372ACE     O2 3469   1.578   2.688   3.558
  372ACE     H1 3470   1.349   2.556   3.547
  372ACE     H2 3471   1.298   2.614   3.715
  372ACE     H3 3472   1.443   2.509   3.679
  372ACE     H4 3473   1.631   2.767   3.581
  373ACE     C1 3474   2.879   1.216   3.516
  373ACE     C2 3475   2.844   1.276   3.650
  373ACE     O1 3476   2.731   1.301   3.687
  373ACE     O2 3477   2.947   1.311   3.725
  373ACE     H1 3478   2.963   1.270   3.471
  373ACE     H2 3479   2.791   1.211   3.450
  373ACE     H3 3480   2.920   1.116   3.534
  373ACE     H4 3481   2.904   1.354   3.800
  374ACE     C1 3482   2.740   1.575   2.584
  374ACE     C2 3483   2.684   1.445   2.527
  374ACE     O1 3484   2.669   1.344   2.592
  374ACE     O2 3485   2.617   1.457   2.413
  374ACE     H1 3486   2.840   1.590   2.542
  374ACE     H2 3487   2.743   1.573   2.693
  374ACE     H3 3488   2.683   1.660   2.544
  374ACE     H4 3489   2.564   1.376   2.416
  375ACE     C1 3490   1.844   0.648   2.213
  375ACE     C2 3491   1.983   0.585   2.212
  375ACE     O1 3492   2.085   0.647   2.194
  375ACE     O2 3493   1.983   0.454   2.193
  375ACE     H1 3494   1.771   0.579   2.169
  375ACE     H2 3495   1.844   0.747   2.166
  375ACE     H3 3496   1.809   0.657   2.316
  375ACE     H4 3497   2.077   0.436   2.177
  376ACE     C1 3498   0.749   3.233   2.234
  376ACE     C2 3499   0.789   3.090   2.205
  376ACE     O1 3500   0.898   3.057   2.168
  376ACE     O2 3501   0.690   3.000   2.203
  376ACE     H1 3502   0.649   3.253   2.194
  376ACE     H2 3503   0.825   3.304   2.199
  376ACE     H3 3504   0.736   3.242   2.343
  376ACE     H4 3505   0.742   2.919   2.190
  377ACE     C1 3506   3.050   2.367   3.255
  377ACE     C2 3507   2.924   2.288   3.283
  377ACE     O1 3508   2.924   2.169   3.307
  377ACE     O2 3509   2.809   2.351   3.259
  377ACE     H1 3510   3.029   2.458   3.197
  377ACE     H2 3511   3.127   2.304   3.208
  377ACE     H3 3512   3.090   2.401   3.351
  377ACE     H4 3513   2.742   2.281   3.271
  378ACE     C1 3514   2.923   1.268   2.220
  378ACE     C2 3515   3.068   1.306   2.195
  378ACE     O1 3516   3.111   1.418   2.203
  378ACE     O2 3517   3.151   1.202   2.181
  378ACE     H1 3518   2.883   1.207   2.139
  378ACE     H2 3519   2.860   1.355   2.242
  378ACE     H3 3520   2.923   1.194   2.300
  378ACE     H4 3521   3.237   1.248   2.175
  379ACE     C1 3522   3.039   3.299   2.545
  379ACE     C2 3523   2.894   3.259   2.565
  379ACE     O1 3524   2.853   3.145   2.559
  379ACE     O2 3525   2.814   3.354   2.610
  379ACE     H1 3526   3.045   3.364   2.457
  379ACE     H2 3527   3.105   3.212   2.534
  379ACE     H3 3528   3.071   3.365   2.627
  379ACE     H4 3529   2.731   3.303   2.618
  380ACE     C1 3530   2.330   2.358   2.788
  380ACE     C2 3531   2.365   2.504   2.812
  380ACE     O1 3532   2.355   2.590   2.728
  380ACE     O2 3533   2.377   2.540   2.939
  380ACE     H1 3534   2.407   2.316   2.723
  380ACE     H2 3535   2.236   2.349   2.733
  380ACE     H3 3536   2.329   2.301   2.881
  380ACE     H4 3537   2.389   2.637   2.930
  381ACE     C1 3538   1.281   2.647   2.463
  381ACE     C2 3539   1.430   2.660   2.482
  381ACE     O1 3540   1.503   2.565   2.503
  381ACE     O2 3541   1.481   2.772   2.430
  381ACE     H1 3542   1.232   2.705   2.543
  381ACE     H2 3543   1.248   2.543   2.463
  381ACE     H3 3544   1.252   2.701   2.372
  381ACE     H4 3545   1.571   2.740   2.411
  382ACE     C1 3546   1.235   1.056   3.469
  382ACE     C2 3547   1.378   1.045   3.418
  382ACE     O1 3548   1.474   1.096   3.471
  382ACE     O2 3549   1.398   0.945   3.333
  382ACE     H1 3550   1.181   1.127   3.405
  382ACE     H2 3551   1.231   1.088   3.574
  382ACE     H3 3552   1.179   0.964   3.451
  382ACE     H4 3553   1.495   0.950   3.323
  383ACE     C1 3554   1.297   2.403   3.075
  383ACE     C2 3555   1.336   2.503   3.182
  383ACE     O1 3556   1.392   2.474   3.285
  383ACE     O2 3557   1.286   2.625   3.166
  383ACE     H1 3558   1.193   2.421   3.045
  383ACE     H2 3559   1.317   2.299   3.104
  383ACE     H3 3560   1.351   2.430   2.983
  383ACE     H4 3561   1.311   2.663   3.252
  384ACE     C1 3562   2.990   0.832   3.388
  384ACE     C2 3563   3.105   0.925   3.363
  384ACE     O1 3564   3.223   0.894   3.371
  384ACE     O2 3565   3.070   1.046   3.319
  384ACE     H1 3566   2.917   0.881   3.453
  384ACE     H2 3567   3.022   0.734   3.427
  384ACE     H3 3568   2.937   0.820   3.293
  384ACE     H4 3569   3.156   1.088   3.300
  385ACE     C1 3570   2.744   2.021   2.606
  385ACE     C2 3571   2.646   2.112   2.535
  385ACE     O1 3572   2.639   2.232   2.552
  385ACE     O2 3573   2.547   2.048   2.471
  385ACE     H1 3574   2.727   2.030   2.713
  385ACE     H2 3575   2.846   2.056   2.587
  385ACE     H3 3576   2.733   1.917   2.574
  385ACE     H4 3577   2.499   2.124   2.434
  386ACE     C1 3578   2.986   2.351   3.679
  386ACE     C2 3579   3.128   2.311   3.715
  386ACE     O1 3580   3.157   2.209   3.775
  386ACE     O2 3581   3.223   2.387   3.660
  386ACE     H1 3582   2.962   2.445   3.728
  386ACE     H2 3583   2.915   2.271   3.705
  386ACE     H3 3584   2.982   2.377   3.573
  386ACE     H4 3585   3.302   2.332   3.674
  387ACE     C1 3586   0.713   1.956   2.538
  387ACE     C2 3587   0.762   1.930   2.395
  387ACE     O1 3588   0.877   1.908   2.366
  387ACE     O2 3589   0.682   1.976   2.299
  387ACE     H1 3590   0.792   1.996   2.602
  387ACE     H2 3591   0.680   1.861   2.581
  387ACE     H3 3592   0.623   2.019   2.538
  387ACE     H4 3593   0.739   1.962   2.222
  388ACE     C1 3594   2.144   2.391   2.229
  388ACE     C2 3595   2.238   2.509   2.217
  388ACE     O1 3596   2.204   2.625   2.209
  388ACE     O2 3597   2.367   2.478   2.206
  388ACE     H1 3598   2.180   2.308   2.168
  388ACE     H2 3599   2.041   2.420   2.206
  388ACE     H3 3600   2.152   2.352   2.331
  388ACE     H4 3601   2.405   2.566   2.193
  389ACE     C1 3602   2.589   1.624   3.055
  389ACE     C2 3603   2.468   1.575   2.977
  389ACE     O1 3604   2.465   1.471   2.915
  389ACE     O2 3605   2.359   1.650   2.982
  389ACE     H1 3606   2.617   1.725   3.021
  389ACE     H2 3607   2.673   1.555   3.048
  389ACE     H3 3608   2.558   1.643   3.158
  389ACE     H4 3609   2.295   1.591   2.937
  390ACE     C1 3610   1.735   0.206   2.675
  390ACE     C2 3611   1.594   0.175   2.632
  390ACE     O1 3612   1.565   0.087   2.555
  390ACE     O2 3613   1.502   0.264   2.666
  390ACE     H1 3614   1.756   0.313   2.659
  390ACE     H2 3615   1.808   0.141   2.627
  390ACE     H3 3616   1.740   0.197   2.784
  390ACE     H4 3617   1.428   0.230   2.613
  391ACE     C1 3618   0.775   1.217   3.524
  391ACE     C2 3619   0.729   1.202   3.382
  391ACE     O1 3620   0.634   1.260   3.338
  391ACE     O2 3621   0.823   1.159   3.298
  391ACE     H1 3622   0.797   1.119   3.568
  391ACE     H2 3623   0.701   1.274   3.582
  391ACE     H3 3624   0.873   1.266   3.523
  391ACE     H4 3625   0.771   1.156   3.217
  392ACE     C1 3626   0.849   0.136   2.459
  392ACE     C2 3627   0.697   0.138   2.462
  392ACE     O1 3628   0.627   0.079   2.541
  392ACE     O2 3629   0.643   0.220   2.372
  392ACE     H1 3630   0.882   0.096   2.362
  392ACE     H2 3631   0.892   0.080   2.543
  392ACE     H3 3632   0.887   0.238   2.457
  392ACE     H4 3633   0.550   0.224   2.400
  393ACE     C1 3634   2.675   3.117   2.242
  393ACE     C2 3635   2.826   3.114   2.256
  393ACE     O1 3636   2.898   3.212   2.250
  393ACE     O2 3637   2.879   2.993   2.273
  393ACE     H1 3638   2.642   3.030   2.183
  393ACE     H2 3639   2.639   3.212   2.204
  393ACE     H3 3640   2.634   3.097   2.342
  393ACE     H4 3641   2.969   3.016   2.302
  394ACE     C1 3642   1.995   0.567   3.338
  394ACE     C2 3643   1.960   0.500   3.207
  394ACE     O1 3644   1.907   0.555   3.113
  394ACE     O2 3645   1.954   0.368   3.219
  394ACE     H1 3646   1.912   0.631   3.371
  394ACE     H2 3647   2.084   0.629   3.323
  394ACE     H3 3648   2.021   0.493   3.415
  394ACE     H4 3649   1.913   0.340   3.135
  395ACE     C1 3650   0.646   2.746   3.038
  395ACE     C2 3651   0.575   2.702   2.912
  395ACE     O1 3652   0.455   2.690   2.897
  395ACE     O2 3653   0.653   2.668   2.811
  395ACE     H1 3654   0.738   2.687   3.050
  395ACE     H2 3655   0.583   2.740   3.127
  395ACE     H3 3656   0.684   2.848   3.023
  395ACE     H4 3657   0.587   2.643   2.744
  396ACE     C1 3658   1.257   2.984   3.395
  396ACE     C2 3659   1.227   2.850   3.453
  396ACE     O1 3660   1.260   2.745   3.401
  396ACE     O2 3661   1.138   2.852   3.552
  396ACE     H1 3662   1.162   3.029   3.365
  396ACE     H2 3663   1.326   2.978   3.310
  396ACE     H3 3664   1.292   3.050   3.476
  396ACE     H4 3665   1.125   2.759   3.575
  397ACE     C1 3666   1.268   1.854   3.133
  397ACE     C2 3667   1.290   1.780   3.004
  397ACE     O1 3668   1.203   1.770   2.920
  397ACE     O2 3669   1.418   1.786   2.967
  397ACE     H1 3670   1.354   1.842   3.200
  397ACE     H2 3671   1.174   1.822   3.179
  397ACE     H3 3672   1.261   1.961   3.108
  397ACE     H4 3673   1.408   1.784   2.870
  398ACE     C1 3674   1.796   3.348   3.164
  398ACE     C2 3675   1.905   3.272   3.089
  398ACE     O1 3676   1.927   3.154   3.099
  398ACE     O2 3677   1.965   3.339   2.991
  398ACE     H1 3678   1.831   3.369   3.265
  398ACE     H2 3679   1.704   3.289   3.172
  398ACE     H3 3680   1.777   3.446   3.117
  398ACE     H4 3681   2.010   3.266   2.945
  399ACE     C1 3682   0.601   0.431   3.311
  399ACE     C2 3683   0.541   0.506   3.194
  399ACE     O1 3684   0.596   0.522   3.088
  399ACE     O2 3685   0.444   0.590   3.228
  399ACE     H1 3686   0.693   0.481   3.343
  399ACE     H2 3687   0.629   0.330   3.280
  399ACE     H3 3688   0.530   0.426   3.395
  399ACE     H4 3689   0.452   0.652   3.153
  400ACE     C1 3690   1.912   0.229   2.373
  400ACE     C2 3691   1.791   0.321   2.376
  400ACE     O1 3692   1.789   0.430   2.429
  400ACE     O2 3693   1.679   0.268   2.326
  400ACE     H1 3694   1.885   0.132   2.416
  400ACE     H2 3695   1.999   0.272   2.425
  400ACE     H3 3696   1.934   0.202   2.269
  400ACE     H4 3697   1.612   0.334   2.352
  401ACE     C1 3698   2.157   1.039   2.946
  401ACE     C2 3699   2.294   1.032   3.011
  401ACE     O1 3700   2.394   1.057   2.949
  401ACE     O2 3701   2.302   0.954   3.119
  401ACE     H1 3702   2.102   0.945   2.962
  401ACE     H2 3703   2.164   1.065   2.839
  401ACE     H3 3704   2.096   1.112   3.000
  401ACE     H4 3705   2.398   0.941   3.127
  402ACE     C1 3706   2.428   0.619   3.367
  402ACE     C2 3707   2.384   0.489   3.432
  402ACE     O1 3708   2.271   0.463   3.468
  402ACE     O2 3709   2.484   0.411   3.471
  402ACE     H1 3710   2.480   0.677   3.443
  402ACE     H2 3711   2.344   0.676   3.326
  402ACE     H3 3712   2.505   0.598   3.292
  402ACE     H4 3713   2.437   0.345   3.525
  403ACE     C1 3714   1.719   3.057   3.332
  403ACE     C2 3715   1.669   2.943   3.415
  403ACE     O1 3716   1.719   2.906   3.519
  403ACE     O2 3717   1.570   2.873   3.356
  403ACE     H1 3718   1.752   3.016   3.236
  403ACE     H2 3719   1.800   3.113   3.380
  403ACE     H3 3720   1.634   3.121   3.303
  403ACE     H4 3721   1.565   2.792   3.410
  404ACE     C1 3722   0.401   0.574   2.443
  404ACE     C2 3723   0.351   0.508   2.315
  404ACE     O1 3724   0.241   0.527   2.269
  404ACE     O2 3725   0.414   0.395   2.283
  404ACE     H1 3726   0.319   0.614   2.504
  404ACE     H2 3727   0.465   0.658   2.414
  404ACE     H3 3728   0.469   0.508   2.498
  404ACE     H4 3729   0.359   0.366   2.209
  405ACE     C1 3730   0.087   1.676   2.414
  405ACE     C2 3731   0.152   1.656   2.550
  405ACE     O1 3732   0.218   1.739   2.609
  405ACE     O2 3733   0.113   1.546   2.615
  405ACE     H1 3734   0.003   1.607   2.398
  405ACE     H2 3735   0.161   1.648   2.337
  405ACE     H3 3736   0.059   1.780   2.397
  405ACE     H4 3737   0.164   1.554   2.697
  406ACE     C1 3738   1.588   1.305   3.273
  406ACE     C2 3739   1.677   1.366   3.379
  406ACE     O1 3740   1.645   1.460   3.448
  406ACE     O2 3741   1.774   1.286   3.422
  406ACE     H1 3742   1.615   1.348   3.176
  406ACE     H2 3743   1.482   1.325   3.292
  406ACE     H3 3744   1.609   1.198   3.262
  406ACE     H4 3745   1.815   1.343   3.490
  407ACE     C1 3746   0.838   2.239   2.389
  407ACE     C2 3747   0.951   2.242   2.488
  407ACE     O1 3748   0.955   2.178   2.590
  407ACE     O2 3749   1.025   2.350   2.480
  407ACE     H1 3750   0.822   2.338   2.344
  407ACE     H2 3751   0.745   2.200   2.433
  407ACE     H3 3752   0.869   2.178   2.303
  407ACE     H4 3753   1.066   2.349   2.569
  408ACE     C1 3754   0.192   0.372   2.590
  408ACE     C2 3755   0.269   0.246   2.555
  408ACE     O1 3756   0.218   0.136   2.559
  408ACE     O2 3757   0.401   0.257   2.573
  408ACE     H1 3758   0.257   0.443   2.643
  408ACE     H2 3759   0.101   0.350   2.646
  408ACE     H3 3760   0.165   0.423   2.496
  408ACE     H4 3761   0.426   0.165   2.593
  409ACE     C1 3762   2.496   3.156   3.145
  409ACE     C2 3763   2.448   3.037   3.064
  409ACE     O1 3764   2.499   2.927   3.065
  409ACE     O2 3765   2.348   3.062   2.981
  409ACE     H1 3766   2.505   3.243   3.080
  409ACE     H2 3767   2.589   3.134   3.199
  409ACE     H3 3768   2.416   3.186   3.214
  409ACE     H4 3769   2.330   2.973   2.948
  410ACE     C1 3770   1.015   2.561   3.383
  410ACE     C2 3771   1.090   2.494   3.494
  410ACE     O1 3772   1.170   2.405   3.480
  410ACE     O2 3773   1.076   2.553   3.613
  410ACE     H1 3774   0.912   2.524   3.382
  410ACE     H2 3775   1.062   2.546   3.285
  410ACE     H3 3776   1.004   2.667   3.408
  410ACE     H4 3777   1.131   2.496   3.669
  411ACE     C1 3778   2.885   3.196   3.253
  411ACE     C2 3779   2.833   3.135   3.382
  411ACE     O1 3780   2.866   3.027   3.427
  411ACE     O2 3781   2.734   3.205   3.438
  411ACE     H1 3782   2.801   3.236   3.195
  411ACE     H2 3783   2.947   3.127   3.195
  411ACE     H3 3784   2.940   3.288   3.278
  411ACE     H4 3785   2.716   3.154   3.519
  412ACE     C1 3786   1.933   2.642   3.256
  412ACE     C2 3787   1.999   2.671   3.122
  412ACE     O1 3788   1.955   2.639   3.014
  412ACE     O2 3789   2.127   2.708   3.132
  412ACE     H1 3790   2.008   2.634   3.336
  412ACE     H2 3791   1.866   2.555   3.253
  412ACE     H3 3792   1.873   2.729   3.284
  412ACE     H4 3793   2.150   2.733   3.041
  413ACE     C1 3794   3.047   1.601   3.679
  413ACE     C2 3795   3.108   1.652   3.551
  413ACE     O1 3796   3.224   1.635   3.520
  413ACE     O2 3797   3.029   1.733   3.482
  413ACE     H1 3798   3.035   1.686   3.747
  413ACE     H2 3799   3.109   1.524   3.726
  413ACE     H3 3800   2.944   1.569   3.660
  413ACE     H4 3801   3.089   1.774   3.418
   3.40320   3.43847   3.80000
