AceticAcid comparator n4
 3801
    1GR      C1    1   0.000   0.000   1.900  0.0000  0.0000  0.0000
    1GR      C2    2   0.142   0.000   1.900  0.0000  0.0000  0.0000
    1GR      C3    3   0.213   0.123   1.900  0.0000  0.0000  0.0000
    1GR      C4    4   0.354   0.123   1.900  0.0000  0.0000  0.0000
    1GR      C5    5   0.000   0.246   1.900  0.0000  0.0000  0.0000
    1GR      C6    6   0.142   0.246   1.900  0.0000  0.0000  0.0000
    1GR      C7    7   0.213   0.368   1.900  0.0000  0.0000  0.0000
    1GR      C8    8   0.354   0.368   1.900  0.0000  0.0000  0.0000
    1GR      C9    9   0.000   0.491   1.900  0.0000  0.0000  0.0000
    1GR     C10   10   0.142   0.491   1.900  0.0000  0.0000  0.0000
    1GR     C11   11   0.213   0.614   1.900  0.0000  0.0000  0.0000
    1GR     C12   12   0.354   0.614   1.900  0.0000  0.0000  0.0000
    1GR     C13   13   0.000   0.737   1.900  0.0000  0.0000  0.0000
    1GR     C14   14   0.142   0.737   1.900  0.0000  0.0000  0.0000
    1GR     C15   15   0.213   0.860   1.900  0.0000  0.0000  0.0000
    1GR     C16   16   0.354   0.860   1.900  0.0000  0.0000  0.0000
    1GR     C17   17   0.000   0.982   1.900  0.0000  0.0000  0.0000
    1GR     C18   18   0.142   0.982   1.900  0.0000  0.0000  0.0000
    1GR     C19   19   0.213   1.105   1.900  0.0000  0.0000  0.0000
    1GR     C20   20   0.354   1.105   1.900  0.0000  0.0000  0.0000
    1GR     C21   21   0.000   1.228   1.900  0.0000  0.0000  0.0000
    1GR     C22   22   0.142   1.228   1.900  0.0000  0.0000  0.0000
    1GR     C23   23   0.213   1.351   1.900  0.0000  0.0000  0.0000
    1GR     C24   24   0.354   1.351   1.900  0.0000  0.0000  0.0000
    1GR     C25   25   0.000   1.474   1.900  0.0000  0.0000  0.0000
    1GR     C26   26   0.142   1.474   1.900  0.0000  0.0000  0.0000
    1GR     C27   27   0.213   1.596   1.900  0.0000  0.0000  0.0000
    1GR     C28   28   0.354   1.596   1.900  0.0000  0.0000  0.0000
    1GR     C29   29   0.000   1.719   1.900  0.0000  0.0000  0.0000
    1GR     C30   30   0.142   1.719   1.900  0.0000  0.0000  0.0000
    1GR     C31   31   0.213   1.842   1.900  0.0000  0.0000  0.0000
    1GR     C32   32   0.354   1.842   1.900  0.0000  0.0000  0.0000
    1GR     C33   33   0.000   1.965   1.900  0.0000  0.0000  0.0000
    1GR     C34   34   0.142   1.965   1.900  0.0000  0.0000  0.0000
    1GR     C35   35   0.213   2.088   1.900  0.0000  0.0000  0.0000
    1GR     C36   36   0.354   2.088   1.900  0.0000  0.0000  0.0000
    1GR     C37   37   0.000   2.210   1.900  0.0000  0.0000  0.0000
    1GR     C38   38   0.142   2.210   1.900  0.0000  0.0000  0.0000
    1GR     C39   39   0.213   2.333   1.900  0.0000  0.0000  0.0000
    1GR     C40   40   0.354   2.333   1.900  0.0000  0.0000  0.0000
    1GR     C41   41   0.000   2.456   1.900  0.0000  0.0000  0.0000
    1GR     C42   42   0.142   2.456   1.900  0.0000  0.0000  0.0000
    1GR     C43   43   0.213   2.579   1.900  0.0000  0.0000  0.0000
    1GR     C44   44   0.354   2.579   1.900  0.0000  0.0000  0.0000
    1GR     C45   45   0.000   2.702   1.900  0.0000  0.0000  0.0000
    1GR     C46   46   0.142   2.702   1.900  0.0000  0.0000  0.0000
    1GR     C47   47   0.213   2.824   1.900  0.0000  0.0000  0.0000
    1GR     C48   48   0.354   2.824   1.900  0.0000  0.0000  0.0000
    1GR     C49   49   0.000   2.947   1.900  0.0000  0.0000  0.0000
    1GR     C50   50   0.142   2.947   1.900  0.0000  0.0000  0.0000
    1GR     C51   51   0.213   3.070   1.900  0.0000  0.0000  0.0000
    1GR     C52   52   0.354   3.070   1.900  0.0000  0.0000  0.0000
    1GR     C53   53   0.000   3.193   1.900  0.0000  0.0000  0.0000
    1GR     C54   54   0.142   3.193   1.900  0.0000  0.0000  0.0000
    1GR     C55   55   0.213   3.316   1.900  0.0000  0.0000  0.0000
    1GR     C56   56   0.354   3.316   1.900  0.0000  0.0000  0.0000
    1GR     C57   57   0.425   0.000   1.900  0.0000  0.0000  0.0000
    1GR     C58   58   0.567   0.000   1.900  0.0000  0.0000  0.0000
    1GR     C59   59   0.638   0.123   1.900  0.0000  0.0000  0.0000
    1GR     C60   60   0.780   0.123   1.900  0.0000  0.0000  0.0000
    1GR     C61   61   0.425   0.246   1.900  0.0000  0.0000  0.0000
    1GR     C62   62   0.567   0.246   1.900  0.0000  0.0000  0.0000
    1GR     C63   63   0.638   0.368   1.900  0.0000  0.0000  0.0000
    1GR     C64   64   0.780   0.368   1.900  0.0000  0.0000  0.0000
    1GR     C65   65   0.425   0.491   1.900  0.0000  0.0000  0.0000
    1GR     C66   66   0.567   0.491   1.900  0.0000  0.0000  0.0000
    1GR     C67   67   0.638   0.614   1.900  0.0000  0.0000  0.0000
    1GR     C68   68   0.780   0.614   1.900  0.0000  0.0000  0.0000
    1GR     C69   69   0.425   0.737   1.900  0.0000  0.0000  0.0000
    1GR     C70   70   0.567   0.737   1.900  0.0000  0.0000  0.0000
    1GR     C71   71   0.638   0.860   1.900  0.0000  0.0000  0.0000
    1GR     C72   72   0.780   0.860   1.900  0.0000  0.0000  0.0000
    1GR     C73   73   0.425   0.982   1.900  0.0000  0.0000  0.0000
    1GR     C74   74   0.567   0.982   1.900  0.0000  0.0000  0.0000
    1GR     C75   75   0.638   1.105   1.900  0.0000  0.0000  0.0000
    1GR     C76   76   0.780   1.105   1.900  0.0000  0.0000  0.0000
    1GR     C77   77   0.425   1.228   1.900  0.0000  0.0000  0.0000
    1GR     C78   78   0.567   1.228   1.900  0.0000  0.0000  0.0000
    1GR     C79   79   0.638   1.351   1.900  0.0000  0.0000  0.0000
    1GR     C80   80   0.780   1.351   1.900  0.0000  0.0000  0.0000
    1GR     C81   81   0.425   1.474   1.900  0.0000  0.0000  0.0000
    1GR     C82   82   0.567   1.474   1.900  0.0000  0.0000  0.0000
    1GR     C83   83   0.638   1.596   1.900  0.0000  0.0000  0.0000
    1GR     C84   84   0.780   1.596   1.900  0.0000  0.0000  0.0000
    1GR     C85   85   0.425   1.719   1.900  0.0000  0.0000  0.0000
    1GR     C86   86   0.567   1.719   1.900  0.0000  0.0000  0.0000
    1GR     C87   87   0.638   1.842   1.900  0.0000  0.0000  0.0000
    1GR     C88   88   0.780   1.842   1.900  0.0000  0.0000  0.0000
    1GR     C89   89   0.425   1.965   1.900  0.0000  0.0000  0.0000
    1GR     C90   90   0.567   1.965   1.900  0.0000  0.0000  0.0000
    1GR     C91   91   0.638   2.088   1.900  0.0000  0.0000  0.0000
    1GR     C92   92   0.780   2.088   1.900  0.0000  0.0000  0.0000
    1GR     C93   93   0.425   2.210   1.900  0.0000  0.0000  0.0000
    1GR     C94   94   0.567   2.210   1.900  0.0000  0.0000  0.0000
    1GR     C95   95   0.638   2.333   1.900  0.0000  0.0000  0.0000
    1GR     C96   96   0.780   2.333   1.900  0.0000  0.0000  0.0000
    1GR     C97   97   0.425   2.456   1.900  0.0000  0.0000  0.0000
    1GR     C98   98   0.567   2.456   1.900  0.0000  0.0000  0.0000
    1GR     C99   99   0.638   2.579   1.900  0.0000  0.0000  0.0000
    1GR    C100  100   0.780   2.579   1.900  0.0000  0.0000  0.0000
    1GR    C101  101   0.425   2.702   1.900  0.0000  0.0000  0.0000
    1GR    C102  102   0.567   2.702   1.900  0.0000  0.0000  0.0000
    1GR    C103  103   0.638   2.824   1.900  0.0000  0.0000  0.0000
    1GR    C104  104   0.780   2.824   1.900  0.0000  0.0000  0.0000
    1GR    C105  105   0.425   2.947   1.900  0.0000  0.0000  0.0000
    1GR    C106  106   0.567   2.947   1.900  0.0000  0.0000  0.0000
    1GR    C107  107   0.638   3.070   1.900  0.0000  0.0000  0.0000
    1GR    C108  108   0.780   3.070   1.900  0.0000  0.0000  0.0000
    1GR    C109  109   0.425   3.193   1.900  0.0000  0.0000  0.0000
    1GR    C110  110   0.567   3.193   1.900  0.0000  0.0000  0.0000
    1GR    C111  111   0.638   3.316   1.900  0.0000  0.0000  0.0000
    1GR    C112  112   0.780   3.316   1.900  0.0000  0.0000  0.0000
    1GR    C113  113   0.851   0.000   1.900  0.0000  0.0000  0.0000
    1GR    C114  114   0.993   0.000   1.900  0.0000  0.0000  0.0000
    1GR    C115  115   1.064   0.123   1.900  0.0000  0.0000  0.0000
    1GR    C116  116   1.205   0.123   1.900  0.0000  0.0000  0.0000
    1GR    C117  117   0.851   0.246   1.900  0.0000  0.0000  0.0000
    1GR    C118  118   0.993   0.246   1.900  0.0000  0.0000  0.0000
    1GR    C119  119   1.064   0.368   1.900  0.0000  0.0000  0.0000
    1GR    C120  120   1.205   0.368   1.900  0.0000  0.0000  0.0000
    1GR    C121  121   0.851   0.491   1.900  0.0000  0.0000  0.0000
    1GR    C122  122   0.993   0.491   1.900  0.0000  0.0000  0.0000
    1GR    C123  123   1.064   0.614   1.900  0.0000  0.0000  0.0000
    1GR    C124  124   1.205   0.614   1.900  0.0000  0.0000  0.0000
    1GR    C125  125   0.851   0.737   1.900  0.0000  0.0000  0.0000
    1GR    C126  126   0.993   0.737   1.900  0.0000  0.0000  0.0000
    1GR    C127  127   1.064   0.860   1.900  0.0000  0.0000  0.0000
    1GR    C128  128   1.205   0.860   1.900  0.0000  0.0000  0.0000
    1GR    C129  129   0.851   0.982   1.900  0.0000  0.0000  0.0000
    1GR    C130  130   0.993   0.982   1.900  0.0000  0.0000  0.0000
    1GR    C131  131   1.064   1.105   1.900  0.0000  0.0000  0.0000
    1GR    C132  132   1.205   1.105   1.900  0.0000  0.0000  0.0000
    1GR    C133  133   0.851   1.228   1.900  0.0000  0.0000  0.0000
    1GR    C134  134   0.993   1.228   1.900  0.0000  0.0000  0.0000
    1GR    C135  135   1.064   1.351   1.900  0.0000  0.0000  0.0000
    1GR    C136  136   1.205   1.351   1.900  0.0000  0.0000  0.0000
    1GR    C137  137   0.851   1.474   1.900  0.0000  0.0000  0.0000
    1GR    C138  138   0.993   1.474   1.900  0.0000  0.0000  0.0000
    1GR    C139  139   1.064   1.596   1.900  0.0000  0.0000  0.0000
    1GR    C140  140   1.205   1.596   1.900  0.0000  0.0000  0.0000
    1GR    C141  141   0.851   1.719   1.900  0.0000  0.0000  0.0000
    1GR    C142  142   0.993   1.719   1.900  0.0000  0.0000  0.0000
    1GR    C143  143   1.064   1.842   1.900  0.0000  0.0000  0.0000
    1GR    C144  144   1.205   1.842   1.900  0.0000  0.0000  0.0000
    1GR    C145  145   0.851   1.965   1.900  0.0000  0.0000  0.0000
    1GR    C146  146   0.993   1.965   1.900  0.0000  0.0000  0.0000
    1GR    C147  147   1.064   2.088   1.900  0.0000  0.0000  0.0000
    1GR    C148  148   1.205   2.088   1.900  0.0000  0.0000  0.0000
    1GR    C149  149   0.851   2.210   1.900  0.0000  0.0000  0.0000
    1GR    C150  150   0.993   2.210   1.900  0.0000  0.0000  0.0000
    1GR    C151  151   1.064   2.333   1.900  0.0000  0.0000  0.0000
    1GR    C152  152   1.205   2.333   1.900  0.0000  0.0000  0.0000
    1GR    C153  153   0.851   2.456   1.900  0.0000  0.0000  0.0000
    1GR    C154  154   0.993   2.456   1.900  0.0000  0.0000  0.0000
    1GR    C155  155   1.064   2.579   1.900  0.0000  0.0000  0.0000
    1GR    C156  156   1.205   2.579   1.900  0.0000  0.0000  0.0000
    1GR    C157  157   0.851   2.702   1.900  0.0000  0.0000  0.0000
    1GR    C158  158   0.993   2.702   1.900  0.0000  0.0000  0.0000
    1GR    C159  159   1.064   2.824   1.900  0.0000  0.0000  0.0000
    1GR    C160  160   1.205   2.824   1.900  0.0000  0.0000  0.0000
    1GR    C161  161   0.851   2.947   1.900  0.0000  0.0000  0.0000
    1GR    C162  162   0.993   2.947   1.900  0.0000  0.0000  0.0000
    1GR    C163  163   1.064   3.070   1.900  0.0000  0.0000  0.0000
    1GR    C164  164   1.205   3.070   1.900  0.0000  0.0000  0.0000
    1GR    C165  165   0.851   3.193   1.900  0.0000  0.0000  0.0000
    1GR    C166  166   0.993   3.193   1.900  0.0000  0.0000  0.0000
    1GR    C167  167   1.064   3.316   1.900  0.0000  0.0000  0.0000
    1GR    C168  168   1.205   3.316   1.900  0.0000  0.0000  0.0000
    1GR    C169  169   1.276   0.000   1.900  0.0000  0.0000  0.0000
    1GR    C170  170   1.418   0.000   1.900  0.0000  0.0000  0.0000
    1GR    C171  171   1.489   0.123   1.900  0.0000  0.0000  0.0000
    1GR    C172  172   1.631   0.123   1.900  0.0000  0.0000  0.0000
    1GR    C173  173   1.276   0.246   1.900  0.0000  0.0000  0.0000
    1GR    C174  174   1.418   0.246   1.900  0.0000  0.0000  0.0000
    1GR    C175  175   1.489   0.368   1.900  0.0000  0.0000  0.0000
    1GR    C176  176   1.631   0.368   1.900  0.0000  0.0000  0.0000
    1GR    C177  177   1.276   0.491   1.900  0.0000  0.0000  0.0000
    1GR    C178  178   1.418   0.491   1.900  0.0000  0.0000  0.0000
    1GR    C179  179   1.489   0.614   1.900  0.0000  0.0000  0.0000
    1GR    C180  180   1.631   0.614   1.900  0.0000  0.0000  0.0000
    1GR    C181  181   1.276   0.737   1.900  0.0000  0.0000  0.0000
    1GR    C182  182   1.418   0.737   1.900  0.0000  0.0000  0.0000
    1GR    C183  183   1.489   0.860   1.900  0.0000  0.0000  0.0000
    1GR    C184  184   1.631   0.860   1.900  0.0000  0.0000  0.0000
    1GR    C185  185   1.276   0.982   1.900  0.0000  0.0000  0.0000
    1GR    C186  186   1.418   0.982   1.900  0.0000  0.0000  0.0000
    1GR    C187  187   1.489   1.105   1.900  0.0000  0.0000  0.0000
    1GR    C188  188   1.631   1.105   1.900  0.0000  0.0000  0.0000
    1GR    C189  189   1.276   1.228   1.900  0.0000  0.0000  0.0000
    1GR    C190  190   1.418   1.228   1.900  0.0000  0.0000  0.0000
    1GR    C191  191   1.489   1.351   1.900  0.0000  0.0000  0.0000
    1GR    C192  192   1.631   1.351   1.900  0.0000  0.0000  0.0000
    1GR    C193  193   1.276   1.474   1.900  0.0000  0.0000  0.0000
    1GR    C194  194   1.418   1.474   1.900  0.0000  0.0000  0.0000
    1GR    C195  195   1.489   1.596   1.900  0.0000  0.0000  0.0000
    1GR    C196  196   1.631   1.596   1.900  0.0000  0.0000  0.0000
    1GR    C197  197   1.276   1.719   1.900  0.0000  0.0000  0.0000
    1GR    C198  198   1.418   1.719   1.900  0.0000  0.0000  0.0000
    1GR    C199  199   1.489   1.842   1.900  0.0000  0.0000  0.0000
    1GR    C200  200   1.631   1.842   1.900  0.0000  0.0000  0.0000
    1GR    C201  201   1.276   1.965   1.900  0.0000  0.0000  0.0000
    1GR    C202  202   1.418   1.965   1.900  0.0000  0.0000  0.0000
    1GR    C203  203   1.489   2.088   1.900  0.0000  0.0000  0.0000
    1GR    C204  204   1.631   2.088   1.900  0.0000  0.0000  0.0000
    1GR    C205  205   1.276   2.210   1.900  0.0000  0.0000  0.0000
    1GR    C206  206   1.418   2.210   1.900  0.0000  0.0000  0.0000
    1GR    C207  207   1.489   2.333   1.900  0.0000  0.0000  0.0000
    1GR    C208  208   1.631   2.333   1.900  0.0000  0.0000  0.0000
    1GR    C209  209   1.276   2.456   1.900  0.0000  0.0000  0.0000
    1GR    C210  210   1.418   2.456   1.900  0.0000  0.0000  0.0000
    1GR    C211  211   1.489   2.579   1.900  0.0000  0.0000  0.0000
    1GR    C212  212   1.631   2.579   1.900  0.0000  0.0000  0.0000
    1GR    C213  213   1.276   2.702   1.900  0.0000  0.0000  0.0000
    1GR    C214  214   1.418   2.702   1.900  0.0000  0.0000  0.0000
    1GR    C215  215   1.489   2.824   1.900  0.0000  0.0000  0.0000
    1GR    C216  216   1.631   2.824   1.900  0.0000  0.0000  0.0000
    1GR    C217  217   1.276   2.947   1.900  0.0000  0.0000  0.0000
    1GR    C218  218   1.418   2.947   1.900  0.0000  0.0000  0.0000
    1GR    C219  219   1.489   3.070   1.900  0.0000  0.0000  0.0000
    1GR    C220  220   1.631   3.070   1.900  0.0000  0.0000  0.0000
    1GR    C221  221   1.276   3.193   1.900  0.0000  0.0000  0.0000
    1GR    C222  222   1.418   3.193   1.900  0.0000  0.0000  0.0000
    1GR    C223  223   1.489   3.316   1.900  0.0000  0.0000  0.0000
    1GR    C224  224   1.631   3.316   1.900  0.0000  0.0000  0.0000
    1GR    C225  225   1.702   0.000   1.900  0.0000  0.0000  0.0000
    1GR    C226  226   1.843   0.000   1.900  0.0000  0.0000  0.0000
    1GR    C227  227   1.914   0.123   1.900  0.0000  0.0000  0.0000
    1GR    C228  228   2.056   0.123   1.900  0.0000  0.0000  0.0000
    1GR    C229  229   1.702   0.246   1.900  0.0000  0.0000  0.0000
    1GR    C230  230   1.843   0.246   1.900  0.0000  0.0000  0.0000
    1GR    C231  231   1.914   0.368   1.900  0.0000  0.0000  0.0000
    1GR    C232  232   2.056   0.368   1.900  0.0000  0.0000  0.0000
    1GR    C233  233   1.702   0.491   1.900  0.0000  0.0000  0.0000
    1GR    C234  234   1.843   0.491   1.900  0.0000  0.0000  0.0000
    1GR    C235  235   1.914   0.614   1.900  0.0000  0.0000  0.0000
    1GR    C236  236   2.056   0.614   1.900  0.0000  0.0000  0.0000
    1GR    C237  237   1.702   0.737   1.900  0.0000  0.0000  0.0000
    1GR    C238  238   1.843   0.737   1.900  0.0000  0.0000  0.0000
    1GR    C239  239   1.914   0.860   1.900  0.0000  0.0000  0.0000
    1GR    C240  240   2.056   0.860   1.900  0.0000  0.0000  0.0000
    1GR    C241  241   1.702   0.982   1.900  0.0000  0.0000  0.0000
    1GR    C242  242   1.843   0.982   1.900  0.0000  0.0000  0.0000
    1GR    C243  243   1.914   1.105   1.900  0.0000  0.0000  0.0000
    1GR    C244  244   2.056   1.105   1.900  0.0000  0.0000  0.0000
    1GR    C245  245   1.702   1.228   1.900  0.0000  0.0000  0.0000
    1GR    C246  246   1.843   1.228   1.900  0.0000  0.0000  0.0000
    1GR    C247  247   1.914   1.351   1.900  0.0000  0.0000  0.0000
    1GR    C248  248   2.056   1.351   1.900  0.0000  0.0000  0.0000
    1GR    C249  249   1.702   1.474   1.900  0.0000  0.0000  0.0000
    1GR    C250  250   1.843   1.474   1.900  0.0000  0.0000  0.0000
    1GR    C251  251   1.914   1.596   1.900  0.0000  0.0000  0.0000
    1GR    C252  252   2.056   1.596   1.900  0.0000  0.0000  0.0000
    1GR    C253  253   1.702   1.719   1.900  0.0000  0.0000  0.0000
    1GR    C254  254   1.843   1.719   1.900  0.0000  0.0000  0.0000
    1GR    C255  255   1.914   1.842   1.900  0.0000  0.0000  0.0000
    1GR    C256  256   2.056   1.842   1.900  0.0000  0.0000  0.0000
    1GR    C257  257   1.702   1.965   1.900  0.0000  0.0000  0.0000
    1GR    C258  258   1.843   1.965   1.900  0.0000  0.0000  0.0000
    1GR    C259  259   1.914   2.088   1.900  0.0000  0.0000  0.0000
    1GR    C260  260   2.056   2.088   1.900  0.0000  0.0000  0.0000
    1GR    C261  261   1.702   2.210   1.900  0.0000  0.0000  0.0000
    1GR    C262  262   1.843   2.210   1.900  0.0000  0.0000  0.0000
    1GR    C263  263   1.914   2.333   1.900  0.0000  0.0000  0.0000
    1GR    C264  264   2.056   2.333   1.900  0.0000  0.0000  0.0000
    1GR    C265  265   1.702   2.456   1.900  0.0000  0.0000  0.0000
    1GR    C266  266   1.843   2.456   1.900  0.0000  0.0000  0.0000
    1GR    C267  267   1.914   2.579   1.900  0.0000  0.0000  0.0000
    1GR    C268  268   2.056   2.579   1.900  0.0000  0.0000  0.0000
    1GR    C269  269   1.702   2.702   1.900  0.0000  0.0000  0.0000
    1GR    C270  270   1.843   2.702   1.900  0.0000  0.0000  0.0000
    1GR    C271  271   1.914   2.824   1.900  0.0000  0.0000  0.0000
    1GR    C272  272   2.056   2.824   1.900  0.0000  0.0000  0.0000
    1GR    C273  273   1.702   2.947   1.900  0.0000  0.0000  0.0000
    1GR    C274  274   1.843   2.947   1.900  0.0000  0.0000  0.0000
    1GR    C275  275   1.914   3.070   1.900  0.0000  0.0000  0.0000
    1GR    C276  276   2.056   3.070   1.900  0.0000  0.0000  0.0000
    1GR    C277  277   1.702   3.193   1.900  0.0000  0.0000  0.0000
    1GR    C278  278   1.843   3.193   1.900  0.0000  0.0000  0.0000
    1GR    C279  279   1.914   3.316   1.900  0.0000  0.0000  0.0000
    1GR    C280  280   2.056   3.316   1.900  0.0000  0.0000  0.0000
    1GR    C281  281   2.127   0.000   1.900  0.0000  0.0000  0.0000
    1GR    C282  282   2.269   0.000   1.900  0.0000  0.0000  0.0000
    1GR    C283  283   2.340   0.123   1.900  0.0000  0.0000  0.0000
    1GR    C284  284   2.481   0.123   1.900  0.0000  0.0000  0.0000
    1GR    C285  285   2.127   0.246   1.900  0.0000  0.0000  0.0000
    1GR    C286  286   2.269   0.246   1.900  0.0000  0.0000  0.0000
    1GR    C287  287   2.340   0.368   1.900  0.0000  0.0000  0.0000
    1GR    C288  288   2.481   0.368   1.900  0.0000  0.0000  0.0000
    1GR    C289  289   2.127   0.491   1.900  0.0000  0.0000  0.0000
    1GR    C290  290   2.269   0.491   1.900  0.0000  0.0000  0.0000
    1GR    C291  291   2.340   0.614   1.900  0.0000  0.0000  0.0000
    1GR    C292  292   2.481   0.614   1.900  0.0000  0.0000  0.0000
    1GR    C293  293   2.127   0.737   1.900  0.0000  0.0000  0.0000
    1GR    C294  294   2.269   0.737   1.900  0.0000  0.0000  0.0000
    1GR    C295  295   2.340   0.860   1.900  0.0000  0.0000  0.0000
    1GR    C296  296   2.481   0.860   1.900  0.0000  0.0000  0.0000
    1GR    C297  297   2.127   0.982   1.900  0.0000  0.0000  0.0000
    1GR    C298  298   2.269   0.982   1.900  0.0000  0.0000  0.0000
    1GR    C299  299   2.340   1.105   1.900  0.0000  0.0000  0.0000
    1GR    C300  300   2.481   1.105   1.900  0.0000  0.0000  0.0000
    1GR    C301  301   2.127   1.228   1.900  0.0000  0.0000  0.0000
    1GR    C302  302   2.269   1.228   1.900  0.0000  0.0000  0.0000
    1GR    C303  303   2.340   1.351   1.900  0.0000  0.0000  0.0000
    1GR    C304  304   2.481   1.351   1.900  0.0000  0.0000  0.0000
    1GR    C305  305   2.127   1.474   1.900  0.0000  0.0000  0.0000
    1GR    C306  306   2.269   1.474   1.900  0.0000  0.0000  0.0000
    1GR    C307  307   2.340   1.596   1.900  0.0000  0.0000  0.0000
    1GR    C308  308   2.481   1.596   1.900  0.0000  0.0000  0.0000
    1GR    C309  309   2.127   1.719   1.900  0.0000  0.0000  0.0000
    1GR    C310  310   2.269   1.719   1.900  0.0000  0.0000  0.0000
    1GR    C311  311   2.340   1.842   1.900  0.0000  0.0000  0.0000
    1GR    C312  312   2.481   1.842   1.900  0.0000  0.0000  0.0000
    1GR    C313  313   2.127   1.965   1.900  0.0000  0.0000  0.0000
    1GR    C314  314   2.269   1.965   1.900  0.0000  0.0000  0.0000
    1GR    C315  315   2.340   2.088   1.900  0.0000  0.0000  0.0000
    1GR    C316  316   2.481   2.088   1.900  0.0000  0.0000  0.0000
    1GR    C317  317   2.127   2.210   1.900  0.0000  0.0000  0.0000
    1GR    C318  318   2.269   2.210   1.900  0.0000  0.0000  0.0000
    1GR    C319  319   2.340   2.333   1.900  0.0000  0.0000  0.0000
    1GR    C320  320   2.481   2.333   1.900  0.0000  0.0000  0.0000
    1GR    C321  321   2.127   2.456   1.900  0.0000  0.0000  0.0000
    1GR    C322  322   2.269   2.456   1.900  0.0000  0.0000  0.0000
    1GR    C323  323   2.340   2.579   1.900  0.0000  0.0000  0.0000
    1GR    C324  324   2.481   2.579   1.900  0.0000  0.0000  0.0000
    1GR    C325  325   2.127   2.702   1.900  0.0000  0.0000  0.0000
    1GR    C326  326   2.269   2.702   1.900  0.0000  0.0000  0.0000
    1GR    C327  327   2.340   2.824   1.900  0.0000  0.0000  0.0000
    1GR    C328  328   2.481   2.824   1.900  0.0000  0.0000  0.0000
    1GR    C329  329   2.127   2.947   1.900  0.0000  0.0000  0.0000
    1GR    C330  330   2.269   2.947   1.900  0.0000  0.0000  0.0000
    1GR    C331  331   2.340   3.070   1.900  0.0000  0.0000  0.0000
    1GR    C332  332   2.481   3.070   1.900  0.0000  0.0000  0.0000
    1GR    C333  333   2.127   3.193   1.900  0.0000  0.0000  0.0000
    1GR    C334  334   2.269   3.193   1.900  0.0000  0.0000  0.0000
    1GR    C335  335   2.340   3.316   1.900  0.0000  0.0000  0.0000
    1GR    C336  336   2.481   3.316   1.900  0.0000  0.0000  0.0000
    1GR    C337  337   2.552   0.000   1.900  0.0000  0.0000  0.0000
    1GR    C338  338   2.694   0.000   1.900  0.0000  0.0000  0.0000
    1GR    C339  339   2.765   0.123   1.900  0.0000  0.0000  0.0000
    1GR    C340  340   2.907   0.123   1.900  0.0000  0.0000  0.0000
    1GR    C341  341   2.552   0.246   1.900  0.0000  0.0000  0.0000
    1GR    C342  342   2.694   0.246   1.900  0.0000  0.0000  0.0000
    1GR    C343  343   2.765   0.368   1.900  0.0000  0.0000  0.0000
    1GR    C344  344   2.907   0.368   1.900  0.0000  0.0000  0.0000
    1GR    C345  345   2.552   0.491   1.900  0.0000  0.0000  0.0000
    1GR    C346  346   2.694   0.491   1.900  0.0000  0.0000  0.0000
    1GR    C347  347   2.765   0.614   1.900  0.0000  0.0000  0.0000
    1GR    C348  348   2.907   0.614   1.900  0.0000  0.0000  0.0000
    1GR    C349  349   2.552   0.737   1.900  0.0000  0.0000  0.0000
    1GR    C350  350   2.694   0.737   1.900  0.0000  0.0000  0.0000
    1GR    C351  351   2.765   0.860   1.900  0.0000  0.0000  0.0000
    1GR    C352  352   2.907   0.860   1.900  0.0000  0.0000  0.0000
    1GR    C353  353   2.552   0.982   1.900  0.0000  0.0000  0.0000
    1GR    C354  354   2.694   0.982   1.900  0.0000  0.0000  0.0000
    1GR    C355  355   2.765   1.105   1.900  0.0000  0.0000  0.0000
    1GR    C356  356   2.907   1.105   1.900  0.0000  0.0000  0.0000
    1GR    C357  357   2.552   1.228   1.900  0.0000  0.0000  0.0000
    1GR    C358  358   2.694   1.228   1.900  0.0000  0.0000  0.0000
    1GR    C359  359   2.765   1.351   1.900  0.0000  0.0000  0.0000
    1GR    C360  360   2.907   1.351   1.900  0.0000  0.0000  0.0000
    1GR    C361  361   2.552   1.474   1.900  0.0000  0.0000  0.0000
    1GR    C362  362   2.694   1.474   1.900  0.0000  0.0000  0.0000
    1GR    C363  363   2.765   1.596   1.900  0.0000  0.0000  0.0000
    1GR    C364  364   2.907   1.596   1.900  0.0000  0.0000  0.0000
    1GR    C365  365   2.552   1.719   1.900  0.0000  0.0000  0.0000
    1GR    C366  366   2.694   1.719   1.900  0.0000  0.0000  0.0000
    1GR    C367  367   2.765   1.842   1.900  0.0000  0.0000  0.0000
    1GR    C368  368   2.907   1.842   1.900  0.0000  0.0000  0.0000
    1GR    C369  369   2.552   1.965   1.900  0.0000  0.0000  0.0000
    1GR    C370  370   2.694   1.965   1.900  0.0000  0.0000  0.0000
    1GR    C371  371   2.765   2.088   1.900  0.0000  0.0000  0.0000
    1GR    C372  372   2.907   2.088   1.900  0.0000  0.0000  0.0000
    1GR    C373  373   2.552   2.210   1.900  0.0000  0.0000  0.0000
    1GR    C374  374   2.694   2.210   1.900  0.0000  0.0000  0.0000
    1GR    C375  375   2.765   2.333   1.900  0.0000  0.0000  0.0000
    1GR    C376  376   2.907   2.333   1.900  0.0000  0.0000  0.0000
    1GR    C377  377   2.552   2.456   1.900  0.0000  0.0000  0.0000
    1GR    C378  378   2.694   2.456   1.900  0.0000  0.0000  0.0000
    1GR    C379  379   2.765   2.579   1.900  0.0000  0.0000  0.0000
    1GR    C380  380   2.907   2.579   1.900  0.0000  0.0000  0.0000
    1GR    C381  381   2.552   2.702   1.900  0.0000  0.0000  0.0000
    1GR    C382  382   2.694   2.702   1.900  0.0000  0.0000  0.0000
    1GR    C383  383   2.765   2.824   1.900  0.0000  0.0000  0.0000
    1GR    C384  384   2.907   2.824   1.900  0.0000  0.0000  0.0000
    1GR    C385  385   2.552   2.947   1.900  0.0000  0.0000  0.0000
    1GR    C386  386   2.694   2.947   1.900  0.0000  0.0000  0.0000
    1GR    C387  387   2.765   3.070   1.900  0.0000  0.0000  0.0000
    1GR    C388  388   2.907   3.070   1.900  0.0000  0.0000  0.0000
    1GR    C389  389   2.552   3.193   1.900  0.0000  0.0000  0.0000
    1GR    C390  390   2.694   3.193   1.900  0.0000  0.0000  0.0000
    1GR    C391  391   2.765   3.316   1.900  0.0000  0.0000  0.0000
    1GR    C392  392   2.907   3.316   1.900  0.0000  0.0000  0.0000
    1GR    C393  393   2.978   0.000   1.900  0.0000  0.0000  0.0000
    1GR    C394  394   3.120   0.000   1.900  0.0000  0.0000  0.0000
    1GR    C395  395   3.191   0.123   1.900  0.0000  0.0000  0.0000
    1GR    C396  396   3.332   0.123   1.900  0.0000  0.0000  0.0000
    1GR    C397  397   2.978   0.246   1.900  0.0000  0.0000  0.0000
    1GR    C398  398   3.120   0.246   1.900  0.0000  0.0000  0.0000
    1GR    C399  399   3.191   0.368   1.900  0.0000  0.0000  0.0000
    1GR    C400  400   3.332   0.368   1.900  0.0000  0.0000  0.0000
    1GR    C401  401   2.978   0.491   1.900  0.0000  0.0000  0.0000
    1GR    C402  402   3.120   0.491   1.900  0.0000  0.0000  0.0000
    1GR    C403  403   3.191   0.614   1.900  0.0000  0.0000  0.0000
    1GR    C404  404   3.332   0.614   1.900  0.0000  0.0000  0.0000
    1GR    C405  405   2.978   0.737   1.900  0.0000  0.0000  0.0000
    1GR    C406  406   3.120   0.737   1.900  0.0000  0.0000  0.0000
    1GR    C407  407   3.191   0.860   1.900  0.0000  0.0000  0.0000
    1GR    C408  408   3.332   0.860   1.900  0.0000  0.0000  0.0000
    1GR    C409  409   2.978   0.982   1.900  0.0000  0.0000  0.0000
    1GR    C410  410   3.120   0.982   1.900  0.0000  0.0000  0.0000
    1GR    C411  411   3.191   1.105   1.900  0.0000  0.0000  0.0000
    1GR    C412  412   3.332   1.105   1.900  0.0000  0.0000  0.0000
    1GR    C413  413   2.978   1.228   1.900  0.0000  0.0000  0.0000
    1GR    C414  414   3.120   1.228   1.900  0.0000  0.0000  0.0000
    1GR    C415  415   3.191   1.351   1.900  0.0000  0.0000  0.0000
    1GR    C416  416   3.332   1.351   1.900  0.0000  0.0000  0.0000
    1GR    C417  417   2.978   1.474   1.900  0.0000  0.0000  0.0000
    1GR    C418  418   3.120   1.474   1.900  0.0000  0.0000  0.0000
    1GR    C419  419   3.191   1.596   1.900  0.0000  0.0000  0.0000
    1GR    C420  420   3.332   1.596   1.900  0.0000  0.0000  0.0000
    1GR    C421  421   2.978   1.719   1.900  0.0000  0.0000  0.0000
    1GR    C422  422   3.120   1.719   1.900  0.0000  0.0000  0.0000
    1GR    C423  423   3.191   1.842   1.900  0.0000  0.0000  0.0000
    1GR    C424  424   3.332   1.842   1.900  0.0000  0.0000  0.0000
    1GR    C425  425   2.978   1.965   1.900  0.0000  0.0000  0.0000
    1GR    C426  426   3.120   1.965   1.900  0.0000  0.0000  0.0000
    1GR    C427  427   3.191   2.088   1.900  0.0000  0.0000  0.0000
    1GR    C428  428   3.332   2.088   1.900  0.0000  0.0000  0.0000
    1GR    C429  429   2.978   2.210   1.900  0.0000  0.0000  0.0000
    1GR    C430  430   3.120   2.210   1.900  0.0000  0.0000  0.0000
    1GR    C431  431   3.191   2.333   1.900  0.0000  0.0000  0.0000
    1GR    C432  432   3.332   2.333   1.900  0.0000  0.0000  0.0000
    1GR    C433  433   2.978   2.456   1.900  0.0000  0.0000  0.0000
    1GR    C434  434   3.120   2.456   1.900  0.0000  0.0000  0.0000
    1GR    C435  435   3.191   2.579   1.900  0.0000  0.0000  0.0000
    1GR    C436  436   3.332   2.579   1.900  0.0000  0.0000  0.0000
    1GR    C437  437   2.978   2.702   1.900  0.0000  0.0000  0.0000
    1GR    C438  438   3.120   2.702   1.900  0.0000  0.0000  0.0000
    1GR    C439  439   3.191   2.824   1.900  0.0000  0.0000  0.0000
    1GR    C440  440   3.332   2.824   1.900  0.0000  0.0000  0.0000
    1GR    C441  441   2.978   2.947   1.900  0.0000  0.0000  0.0000
    1GR    C442  442   3.120   2.947   1.900  0.0000  0.0000  0.0000
    1GR    C443  443   3.191   3.070   1.900  0.0000  0.0000  0.0000
    1GR    C444  444   3.332   3.070   1.900  0.0000  0.0000  0.0000
    1GR    C445  445   2.978   3.193   1.900  0.0000  0.0000  0.0000
    1GR    C446  446   3.120   3.193   1.900  0.0000  0.0000  0.0000
    1GR    C447  447   3.191   3.316   1.900  0.0000  0.0000  0.0000
    1GR    C448  448   3.332   3.316   1.900  0.0000  0.0000  0.0000
    2PMMA   CX1  449   1.392   2.108   2.450  0.0779  0.1719 -0.6590
    2PMMA   CA2  450   1.534   2.166   2.430 -0.6169 -0.1292  0.2709
    2PMMA   CX3  451   1.524   2.249   2.303 -0.3088 -0.2204 -0.5982
    2PMMA    C4  452   1.551   2.255   2.556 -0.1599  0.2714  0.7908
    2PMMA    O5  453   1.568   2.373   2.547  0.1989 -0.4189 -0.1259
    2PMMA   OS6  454   1.582   2.186   2.669 -0.1880 -0.0428 -0.2501
    2PMMA   CE7  455   1.623   2.254   2.787  0.1838  0.6167  0.8206
    2PMMA   CX8  456   1.643   2.055   2.409 -0.0601 -0.4604 -0.4115
    2PMMA   CA9  457   1.793   2.075   2.379  0.0191 -0.6638  0.9876
    2PMMA  CX10  458   1.816   2.117   2.232  0.6089  0.0660 -0.1467
    2PMMA   C11  459   1.869   1.943   2.391  0.6098 -0.3683  0.2200
    2PMMA   O12  460   1.908   1.870   2.302  0.0629 -0.3098 -0.1700
    2PMMA  OS13  461   1.853   1.890   2.516  0.3416 -0.5362 -0.3178
    2PMMA  CE14  462   1.882   1.752   2.538 -0.3891  0.9808 -0.5143
    2PMMA  CX15  463   1.857   2.179   2.480 -0.7758  0.1619  0.6365
    2PMMA  CA16  464   2.007   2.212   2.509  0.0593  0.3796 -0.1450
    2PMMA  CX17  465   2.008   2.359   2.570 -0.0646  0.4405 -0.4992
    2PMMA   C18  466   2.054   2.111   2.621 -0.5484 -1.1939 -0.1481
    2PMMA   O19  467   2.082   2.150   2.735 -0.5221  0.2496 -0.6644
    2PMMA  OS20  468   2.103   2.000   2.560 -0.4498 -0.3243 -0.6929
    2PMMA  CE21  469   2.181   1.899   2.626 -0.1445 -0.0780  0.6788
    2PMMA  CX22  470   2.086   2.220   2.377 -0.0492  0.0296 -0.6511
    2PMMA  CA23  471   2.239   2.256   2.374  0.3358 -0.0819  0.0034
    2PMMA  CX24  472   2.329   2.192   2.486 -0.3922  0.8167 -0.3637
    2PMMA   C25  473   2.253   2.409   2.363  0.3879  0.3515 -0.0126
    2PMMA   O26  474   2.178   2.485   2.302 -0.2615  0.1602 -0.1863
    2PMMA  OS27  475   2.368   2.456   2.425 -0.7472  0.1301  0.2425
    2PMMA  CE28  476   2.380   2.597   2.448  0.5459 -0.0344  0.6165
    2PMMA  CX29  477   2.300   2.211   2.242 -0.4134 -0.0389  0.6647
    2PMMA  HC30  478   1.311   2.175   2.482  0.0118  0.3786 -1.2578
    2PMMA  HC31  479   1.358   2.066   2.355  1.8154 -3.0990  0.0768
    2PMMA  HC32  480   1.391   2.025   2.523  1.9067 -0.1128 -0.9495
    2PMMA  HC33  481   1.608   2.319   2.296  0.1892 -0.7995 -0.3932
    2PMMA  HC34  482   1.431   2.302   2.279 -1.1783 -1.6233 -0.3649
    2PMMA  HC35  483   1.539   2.189   2.213 -0.7488 -0.9396 -0.1964
    2PMMA  H136  484   1.715   2.207   2.821 -1.5734 -1.3813  3.0029
    2PMMA  H137  485   1.551   2.244   2.869 -0.9776 -1.2957 -0.3939
    2PMMA  H138  486   1.639   2.360   2.764  1.3753  0.4816  1.0086
    2PMMA  HC39  487   1.636   1.999   2.503 -1.2232 -0.7812 -0.6846
    2PMMA  HC40  488   1.603   1.984   2.336 -0.0050 -1.8541  0.8812
    2PMMA  HC41  489   1.767   2.211   2.207 -0.6585 -0.0919  1.6797
    2PMMA  HC42  490   1.918   2.116   2.190  1.0058 -1.2883  0.8047
    2PMMA  HC43  491   1.758   2.055   2.161 -2.0233  2.0653  0.1992
    2PMMA  H144  492   1.812   1.683   2.491 -0.0778  0.8596 -0.8081
    2PMMA  H145  493   1.876   1.736   2.646 -0.6101  0.2247 -0.6341
    2PMMA  H146  494   1.982   1.729   2.498 -0.5952  0.8780 -0.9783
    2PMMA  HC47  495   1.808   2.275   2.463  1.4891  1.6625  2.3143
    2PMMA  HC48  496   1.812   2.143   2.573  1.8616  1.3472  2.4123
    2PMMA  HC49  497   1.986   2.436   2.495 -1.1318 -0.0306 -0.6864
    2PMMA  HC50  498   2.106   2.393   2.605  0.7288 -1.1130 -1.1338
    2PMMA  HC51  499   1.940   2.374   2.654 -0.2010  1.4322 -0.7712
    2PMMA  H152  500   2.289   1.916   2.616 -0.4290  2.1220  1.0407
    2PMMA  H153  501   2.164   1.799   2.586  0.9919  0.4001 -1.0739
    2PMMA  H154  502   2.151   1.905   2.731 -0.1504 -3.2363  0.8936
    2PMMA  HC55  503   2.073   2.119   2.339 -0.4687  0.1344 -0.7978
    2PMMA  HC56  504   2.031   2.283   2.306  2.8797  0.2764 -2.7591
    2PMMA  HC57  505   2.436   2.211   2.474 -0.6597  1.8911 -1.1484
    2PMMA  HC58  506   2.297   2.229   2.583 -0.4395  0.0352 -0.0743
    2PMMA  HC59  507   2.322   2.083   2.475  0.8781  0.5067  1.6978
    2PMMA  H160  508   2.293   2.632   2.504  0.0592  1.3813 -0.9584
    2PMMA  H161  509   2.370   2.653   2.354  3.1734  1.5165  1.2060
    2PMMA  H162  510   2.473   2.615   2.504  0.9366 -3.1653  1.0257
    2PMMA  HC63  511   2.249   2.250   2.154  0.4283 -1.0872 -0.2987
    2PMMA  HC64  512   2.407   2.237   2.242  0.6263 -4.0621 -1.1778
    2PMMA  HC65  513   2.288   2.103   2.228 -0.7881  0.1545 -0.5245
    3ACE     C1  514   2.431   1.697   0.782 -0.7505 -0.2820  0.2177
    3ACE     C2  515   2.290   1.641   0.772 -0.5916  0.1322 -0.0098
    3ACE     O1  516   2.258   1.523   0.768 -0.3907 -0.1277  0.2626
    3ACE     O2  517   2.190   1.730   0.764  0.2922  0.2818 -0.3978
    3ACE     H1  518   2.428   1.771   0.863 -3.0071 -1.4032  1.2121
    3ACE     H2  519   2.461   1.765   0.701 -0.4720 -0.5089  0.1333
    3ACE     H3  520   2.513   1.625   0.787 -2.5961 -2.5396 -1.0742
    3ACE     H4  521   2.110   1.679   0.744  0.5049  0.2287 -1.1037
    4ACE     C1  522   3.401   2.710   1.135  0.4523  0.0112 -0.2297
    4ACE     C2  523   3.486   2.821   1.200 -0.1919 -0.5419 -0.0837
    4ACE     O1  524   3.606   2.812   1.211 -0.1378  0.1635 -0.7934
    4ACE     O2  525   3.425   2.928   1.235 -0.0834 -0.2202  0.0976
    4ACE     H1  526   3.464   2.622   1.116  1.1682  0.0474  1.7822
    4ACE     H2  527   3.374   2.748   1.036  2.9501  1.2123 -0.4815
    4ACE     H3  528   3.321   2.689   1.206  1.1926 -0.2439  0.5458
    4ACE     H4  529   3.501   2.981   1.267  0.6470  0.1114 -2.0573
    5ACE     C1  530   1.945   1.981   0.698  0.2458 -1.3366  0.6520
    5ACE     C2  531   1.837   1.921   0.782 -0.1056 -0.3541  0.7165
    5ACE     O1  532   1.820   1.804   0.800 -0.3247 -0.1429 -0.2969
    5ACE     O2  533   1.777   2.009   0.856 -0.0772 -0.2945  0.1444
    5ACE     H1  534   2.000   1.909   0.637 -0.0820  0.4918 -1.8883
    5ACE     H2  535   2.006   2.040   0.768  1.4465 -2.2445  0.3833
    5ACE     H3  536   1.897   2.052   0.630  1.4967  0.4511  1.5919
    5ACE     H4  537   1.725   1.947   0.910 -0.7800 -0.7784 -1.0691
    6ACE     C1  538   1.443   1.691   0.742 -0.9949 -0.1374 -0.1117
    6ACE     C2  539   1.570   1.654   0.670  0.0134  0.7382 -0.1491
    6ACE     O1  540   1.621   1.543   0.691 -1.0865  0.5820 -0.3987
    6ACE     O2  541   1.590   1.713   0.552  0.8237 -0.0694  0.5378
    6ACE     H1  542   1.381   1.743   0.668 -0.1927 -0.9907 -1.3980
    6ACE     H2  543   1.469   1.764   0.819  2.1199  0.1319 -1.3302
    6ACE     H3  544   1.391   1.603   0.780  0.1408 -1.3332 -1.2759
    6ACE     H4  545   1.669   1.670   0.515 -0.2588  0.2833 -2.3523
    7ACE     C1  546   1.856   3.089   0.005  0.9246  0.0581  0.0994
    7ACE     C2  547   1.758   2.979   0.023  0.3975 -0.4418 -0.0908
    7ACE     O1  548   1.649   2.976   0.085  0.1996 -0.1180 -0.4323
    7ACE     O2  549   1.778   2.875  -0.055 -0.3109  0.6517 -0.2757
    7ACE     H1  550   1.951   3.046   0.040  1.5081  1.0888 -0.1862
    7ACE     H2  551   1.842   3.187   0.051  0.0582  1.1516 -2.3893
    7ACE     H3  552   1.877   3.107  -0.101  0.3970 -0.3056 -0.0674
    7ACE     H4  553   1.701   2.823  -0.029  0.1859  0.6094  1.1562
    8ACE     C1  554   0.292   2.658   0.740  0.2207 -0.4883 -0.5557
    8ACE     C2  555   0.165   2.600   0.807  0.1152  0.6650  0.1875
    8ACE     O1  556   0.154   2.547   0.915 -0.3833  0.0973  0.5926
    8ACE     O2  557   0.057   2.606   0.729  0.4816 -0.0617  0.4852
    8ACE     H1  558   0.385   2.631   0.793  0.4342  1.1569 -0.0550
    8ACE     H2  559   0.283   2.767   0.743  0.8237 -0.4094 -1.5226
    8ACE     H3  560   0.302   2.623   0.637 -1.1840 -0.9008 -0.5579
    8ACE     H4  561  -0.007   2.568   0.792  0.8310 -1.0466  0.2500
    9ACE     C1  562   1.386   0.892   0.686  0.3350  0.5592 -0.6289
    9ACE     C2  563   1.272   0.885   0.789 -0.3353 -0.0704 -0.2368
    9ACE     O1  564   1.227   0.974   0.858 -0.1737 -0.5570 -0.0933
    9ACE     O2  565   1.214   0.768   0.785 -0.9514 -0.6277  0.5413
    9ACE     H1  566   1.464   0.958   0.725 -0.2405  1.5688 -1.1971
    9ACE     H2  567   1.350   0.934   0.592  1.8864  0.8662 -1.0994
    9ACE     H3  568   1.424   0.791   0.665  1.0620  0.5551  0.6079
    9ACE     H4  569   1.138   0.786   0.842  0.2324 -1.1909  2.3402
   10ACE     C1  570   1.452   2.474   0.262 -0.0281 -0.4739 -0.1033
   10ACE     C2  571   1.464   2.626   0.290  1.0709  0.7050 -0.1402
   10ACE     O1  572   1.401   2.693   0.366 -0.1947  0.1056  0.0886
   10ACE     O2  573   1.558   2.680   0.208  0.1793 -0.0599  0.3110
   10ACE     H1  574   1.439   2.432   0.362  0.2363  1.5896  0.8278
   10ACE     H2  575   1.529   2.421   0.205 -0.3072 -1.4882  0.4576
   10ACE     H3  576   1.358   2.453   0.209 -0.2140 -0.6622  0.2952
   10ACE     H4  577   1.579   2.767   0.245  0.1491 -0.4552  1.2965
   11ACE     C1  578   3.090   0.933   0.284 -0.4893 -0.1308 -0.2610
   11ACE     C2  579   3.030   0.901   0.416  0.0667  0.0835  0.5868
   11ACE     O1  580   3.032   0.972   0.509 -0.6230 -0.0223  0.3373
   11ACE     O2  581   2.995   0.770   0.422 -0.0809 -0.1699 -0.3823
   11ACE     H1  582   3.018   0.907   0.206 -1.3648 -1.9192  1.1022
   11ACE     H2  583   3.164   0.858   0.252 -0.9194  0.2189 -2.0839
   11ACE     H3  584   3.137   1.032   0.275 -0.6041 -0.2233 -1.9109
   11ACE     H4  585   2.954   0.748   0.507 -0.5552 -0.2585 -0.6350
   12ACE     C1  586   2.497   0.841   1.547  0.0953  0.2858 -1.0504
   12ACE     C2  587   2.635   0.902   1.561 -0.3203  0.0628 -0.3357
   12ACE     O1  588   2.736   0.840   1.562  0.2332 -0.8246 -0.2184
   12ACE     O2  589   2.635   1.038   1.569 -0.2265 -0.1657  0.3072
   12ACE     H1  590   2.424   0.904   1.600  1.4590  0.0468  1.1367
   12ACE     H2  591   2.502   0.737   1.580 -0.1531  0.3538 -0.8004
   12ACE     H3  592   2.464   0.859   1.444  1.4532  1.2197 -1.3414
   12ACE     H4  593   2.722   1.069   1.539 -0.8379 -0.8926 -2.4081
   13ACE     C1  594   0.214   0.219   0.528 -0.3519 -0.6032  0.5462
   13ACE     C2  595   0.136   0.324   0.597  0.6015 -0.0084 -0.0993
   13ACE     O1  596   0.019   0.308   0.623 -0.3297  0.3163  0.6608
   13ACE     O2  597   0.198   0.435   0.613 -0.3670  0.2016 -0.2389
   13ACE     H1  598   0.171   0.118   0.529  0.8242 -1.0993  2.3048
   13ACE     H2  599   0.304   0.207   0.589 -0.4478 -0.3685  0.7345
   13ACE     H3  600   0.258   0.250   0.433  2.2232  1.2494  2.2996
   13ACE     H4  601   0.133   0.483   0.667 -1.8808  2.0149 -3.5256
   14ACE     C1  602   1.575   3.217   1.069 -0.2356 -0.0987 -0.1695
   14ACE     C2  603   1.481   3.222   1.189 -0.3131  0.7803 -0.1168
   14ACE     O1  604   1.493   3.160   1.295 -0.2224  0.3798  0.1672
   14ACE     O2  605   1.386   3.321   1.184  0.2678  0.6394 -0.3590
   14ACE     H1  606   1.654   3.141   1.076  1.3643  1.5559  0.1183
   14ACE     H2  607   1.620   3.316   1.060  0.9982 -0.7587 -1.3199
   14ACE     H3  608   1.513   3.203   0.980  0.0166 -1.2986 -0.1646
   14ACE     H4  609   1.328   3.296   1.259  0.4283  0.0335 -0.4353
   15ACE     C1  610   0.691   3.175   1.588 -0.0751 -0.2623  0.1995
   15ACE     C2  611   0.699   3.328   1.573  0.1694 -0.2406 -0.5623
   15ACE     O1  612   0.608   3.398   1.538 -0.1297  0.2881 -0.2981
   15ACE     O2  613   0.821   3.379   1.577 -0.1418 -0.3903  0.2131
   15ACE     H1  614   0.591   3.140   1.616  0.7203 -2.6952  0.1272
   15ACE     H2  615   0.775   3.130   1.643  0.5442  0.4573 -0.1483
   15ACE     H3  616   0.713   3.133   1.490 -2.1603 -4.2303  1.3085
   15ACE     H4  617   0.805   3.474   1.559 -1.6291 -0.8394 -0.9218
   16ACE     C1  618   1.417   1.832   0.290  0.3878  1.0173  0.5487
   16ACE     C2  619   1.418   1.680   0.261 -0.3162  0.7605 -0.7797
   16ACE     O1  620   1.318   1.616   0.235  0.0797 -0.2992 -0.2392
   16ACE     O2  621   1.532   1.619   0.291 -0.2343  0.3630  0.5924
   16ACE     H1  622   1.384   1.851   0.393 -0.2745 -0.4774  0.6309
   16ACE     H2  623   1.356   1.885   0.215 -0.2210  0.1685  0.4353
   16ACE     H3  624   1.516   1.878   0.284 -0.6857  3.5523  1.3616
   16ACE     H4  625   1.514   1.524   0.300  1.7787 -0.4624 -3.0966
   17ACE     C1  626   2.279   2.308   1.507  0.5969 -0.0069  0.0103
   17ACE     C2  627   2.143   2.379   1.508 -0.0180 -0.0290 -0.4029
   17ACE     O1  628   2.038   2.338   1.452 -0.7716 -0.1601 -0.4101
   17ACE     O2  629   2.139   2.492   1.592  0.0166  0.4724  0.6143
   17ACE     H1  630   2.288   2.204   1.474  0.1841  0.5480 -1.9319
   17ACE     H2  631   2.325   2.312   1.606 -1.2833  1.8301  0.8342
   17ACE     H3  632   2.347   2.360   1.438 -0.0283  1.3627  0.3990
   17ACE     H4  633   2.044   2.508   1.581 -0.2897 -0.6941  1.4384
   18ACE     C1  634   1.727   1.767   1.130 -0.8100  0.1574  0.4347
   18ACE     C2  635   1.579   1.765   1.159  0.4582 -0.0599 -0.0002
   18ACE     O1  636   1.496   1.708   1.083 -0.4948  0.1892 -0.6304
   18ACE     O2  637   1.530   1.838   1.268  0.1500 -0.1739  0.0461
   18ACE     H1  638   1.779   1.762   1.227 -0.5363  0.1621  0.2876
   18ACE     H2  639   1.747   1.866   1.088 -0.8068 -0.4795 -1.1163
   18ACE     H3  640   1.736   1.694   1.049 -1.1770  1.6560 -0.9662
   18ACE     H4  641   1.435   1.820   1.262  0.5517 -2.1960 -0.9127
   19ACE     C1  642   1.034   2.784   0.037 -0.5503 -0.3648  0.2016
   19ACE     C2  643   0.923   2.865   0.097  0.0707  0.3465  0.5706
   19ACE     O1  644   0.810   2.835   0.089  0.0591 -1.0658  0.1499
   19ACE     O2  645   0.949   2.992   0.130 -0.3791 -0.3357  0.1656
   19ACE     H1  646   1.100   2.863  -0.001 -0.2443 -1.1238 -0.8784
   19ACE     H2  647   1.005   2.709  -0.038  0.5719  0.1710 -0.7937
   19ACE     H3  648   1.102   2.732   0.106  0.3920  0.3116 -0.2175
   19ACE     H4  649   0.869   3.013   0.181 -1.5784 -1.2383 -1.2702
   20ACE     C1  650   0.577   3.305   0.687 -0.3291  0.0126 -0.4255
   20ACE     C2  651   0.450   3.276   0.607  0.6360  0.0519 -0.7689
   20ACE     O1  652   0.394   3.167   0.601 -0.2584  0.0080  0.3818
   20ACE     O2  653   0.403   3.373   0.531  0.6482  0.4115  0.1886
   20ACE     H1  654   0.576   3.236   0.771 -2.8592 -1.4508 -1.6144
   20ACE     H2  655   0.577   3.412   0.714 -1.0142 -0.0295 -0.2546
   20ACE     H3  656   0.660   3.287   0.618  0.2732 -0.0236  0.3029
   20ACE     H4  657   0.325   3.325   0.498  0.9460  0.6807 -0.9487
   21ACE     C1  658   0.750   2.071   1.182  0.4809 -0.1133  0.5518
   21ACE     C2  659   0.784   2.017   1.047  0.6557 -0.1887 -0.2484
   21ACE     O1  660   0.718   1.935   0.985  0.0586  0.1780 -0.0315
   21ACE     O2  661   0.913   2.022   1.016 -0.2788 -0.1740  0.1298
   21ACE     H1  662   0.731   2.176   1.159  1.8241  0.0079 -0.0984
   21ACE     H2  663   0.827   2.063   1.259 -1.3067  1.8057  2.5837
   21ACE     H3  664   0.657   2.031   1.222  0.2484  1.4443  1.5791
   21ACE     H4  665   0.927   1.958   0.944  2.2178  0.4641  0.0046
   22ACE     C1  666   2.523   2.151   1.176  0.0798  0.3677  0.0435
   22ACE     C2  667   2.547   2.022   1.103 -0.5894 -0.2129  0.1123
   22ACE     O1  668   2.497   1.995   0.995 -0.7631 -0.5722 -0.2082
   22ACE     O2  669   2.643   1.951   1.158  0.0697 -0.5945  0.2408
   22ACE     H1  670   2.467   2.125   1.267 -1.3403  0.0227 -0.9066
   22ACE     H2  671   2.463   2.221   1.117  1.0976 -0.1599 -1.6417
   22ACE     H3  672   2.619   2.192   1.210 -1.2605  1.9091  2.0949
   22ACE     H4  673   2.628   1.866   1.114 -1.4380 -1.3894  2.1952
   23ACE     C1  674   0.190   2.264   0.725 -0.1966 -0.3868 -0.6065
   23ACE     C2  675   0.208   2.128   0.661 -0.4618 -0.2209 -0.2787
   23ACE     O1  676   0.120   2.055   0.632  0.2653 -0.1906  0.4191
   23ACE     O2  677   0.335   2.082   0.676  0.1891  0.1871  0.3416
   23ACE     H1  678   0.094   2.275   0.777  1.1036  0.4766  1.7415
   23ACE     H2  679   0.197   2.347   0.654 -0.9649  0.4910  0.3303
   23ACE     H3  680   0.275   2.286   0.791  0.6104 -0.2267 -1.6932
   23ACE     H4  681   0.327   1.987   0.659 -2.1330  0.6506 -1.4308
   24ACE     C1  682   0.419   1.270   0.660  1.0957  0.0486  0.0555
   24ACE     C2  683   0.379   1.149   0.738  0.2535  0.4160  0.1795
   24ACE     O1  684   0.458   1.060   0.776  0.3706 -0.2693 -0.0062
   24ACE     O2  685   0.265   1.158   0.805  0.0596  0.4417 -0.0366
   24ACE     H1  686   0.477   1.337   0.724  0.7609  0.6852 -0.3077
   24ACE     H2  687   0.330   1.330   0.637 -0.7150 -2.6079 -0.1100
   24ACE     H3  688   0.491   1.241   0.582  0.9806 -1.4189  0.4771
   24ACE     H4  689   0.251   1.080   0.861 -3.5480  0.6935 -0.4266
   25ACE     C1  690   0.652   2.904   0.523  0.0941  0.3277 -0.7197
   25ACE     C2  691   0.774   2.977   0.577  0.2456 -0.8677  0.6564
   25ACE     O1  692   0.803   3.091   0.536  0.3014 -0.1067 -0.0367
   25ACE     O2  693   0.820   2.920   0.685  0.0502 -0.0285 -0.3211
   25ACE     H1  694   0.589   2.883   0.610  0.1784  0.9145 -0.5155
   25ACE     H2  695   0.684   2.808   0.482  1.3473  0.2255  0.4721
   25ACE     H3  696   0.594   2.962   0.450 -1.1620 -1.0321 -0.8262
   25ACE     H4  697   0.881   2.992   0.709 -0.0624  0.8273 -2.4391
   26ACE     C1  698   1.042   1.757   1.192 -0.7143  0.4729 -1.0505
   26ACE     C2  699   1.195   1.731   1.196  0.3930 -0.3353  0.0768
   26ACE     O1  700   1.276   1.773   1.278  0.5152  0.0032  0.2686
   26ACE     O2  701   1.238   1.695   1.076 -0.0173 -0.9480  0.5474
   26ACE     H1  702   1.014   1.841   1.257 -2.1746  0.2057 -1.3263
   26ACE     H2  703   1.001   1.665   1.237 -1.0038  0.8072 -0.6269
   26ACE     H3  704   1.003   1.755   1.090  0.7764  0.7580 -1.6348
   26ACE     H4  705   1.333   1.677   1.084  0.1991 -1.1393 -2.0251
   27ACE     C1  706   2.254   0.160   0.514 -0.2246 -0.0347 -0.5708
   27ACE     C2  707   2.119   0.117   0.462  0.6617  0.1997  0.3394
   27ACE     O1  708   2.110   0.060   0.355  0.1641 -0.4433  0.1704
   27ACE     O2  709   2.018   0.112   0.546 -0.3756  0.0280 -0.0197
   27ACE     H1  710   2.282   0.261   0.482 -1.3978 -0.0010 -1.5435
   27ACE     H2  711   2.316   0.076   0.480  1.9158  1.5484 -0.6084
   27ACE     H3  712   2.253   0.170   0.623  2.4624  0.1269 -0.5434
   27ACE     H4  713   1.963   0.040   0.510 -0.1201  0.2817 -0.9197
   28ACE     C1  714   0.381   0.388   1.554  0.3388 -0.0373 -0.4285
   28ACE     C2  715   0.463   0.514   1.566  1.1367  0.2308  0.2778
   28ACE     O1  716   0.570   0.512   1.613  0.3037  0.0082  0.1164
   28ACE     O2  717   0.402   0.623   1.533 -0.2404 -0.4090 -0.1755
   28ACE     H1  718   0.313   0.387   1.640  0.2050 -1.7961 -0.5368
   28ACE     H2  719   0.451   0.305   1.570  1.4170  1.5639  4.0221
   28ACE     H3  720   0.324   0.392   1.461  2.5858  0.5600 -1.8306
   28ACE     H4  721   0.474   0.687   1.550 -1.2763  0.2075  2.0975
   29ACE     C1  722   0.180   1.135   1.190 -0.5467 -0.5364  0.2669
   29ACE     C2  723   0.125   1.016   1.113  0.6549  0.4631 -0.4481
   29ACE     O1  724   0.170   0.968   1.012 -0.5562 -0.3397 -0.2512
   29ACE     O2  725   0.015   0.968   1.169 -0.0497  0.7640  0.0435
   29ACE     H1  726   0.132   1.224   1.148  0.3181  0.2904  1.0131
   29ACE     H2  727   0.290   1.136   1.184 -0.5423 -2.0129 -0.0556
   29ACE     H3  728   0.150   1.132   1.295  1.6766  0.9331  0.9736
   29ACE     H4  729   0.002   0.876   1.142  1.3742  0.1075  1.5308
   30ACE     C1  730   2.558   2.535   1.543  0.3858 -0.0721  0.4889
   30ACE     C2  731   2.661   2.643   1.523 -0.3951  0.3285  0.0054
   30ACE     O1  732   2.652   2.728   1.442  0.0078  1.0501 -0.5222
   30ACE     O2  733   2.770   2.635   1.600  0.0143  0.5920 -0.0674
   30ACE     H1  734   2.597   2.462   1.615  0.5294 -0.0838  0.4008
   30ACE     H2  735   2.520   2.487   1.451 -1.6952  0.8445  0.8415
   30ACE     H3  736   2.468   2.576   1.590  1.7120 -0.4075  3.4185
   30ACE     H4  737   2.810   2.717   1.569  0.4482 -0.4657 -2.4457
   31ACE     C1  738   0.529   2.539   0.439 -0.4871 -0.0898  0.0564
   31ACE     C2  739   0.433   2.440   0.431  0.5570  0.9254  0.0765
   31ACE     O1  740   0.329   2.459   0.380  0.6082 -0.7177 -0.9111
   31ACE     O2  741   0.467   2.317   0.459  0.1082 -0.3688 -0.1117
   31ACE     H1  742   0.603   2.523   0.361  0.8058  1.4457  0.9456
   31ACE     H2  743   0.587   2.517   0.529 -2.7877  0.6998  1.7952
   31ACE     H3  744   0.490   2.642   0.436  3.4111  1.4248 -0.5456
   31ACE     H4  745   0.393   2.277   0.409 -0.4552  1.6574 -0.9593
   32ACE     C1  746   2.948   2.760   1.155 -0.2608  0.2599 -0.0077
   32ACE     C2  747   2.946   2.616   1.172  0.3290  0.7694 -0.0741
   32ACE     O1  748   3.038   2.549   1.211  0.4406 -0.2683  0.0034
   32ACE     O2  749   2.816   2.566   1.164  0.4786 -0.7069 -0.2615
   32ACE     H1  750   2.878   2.801   1.229 -0.1796  1.8341 -0.7970
   32ACE     H2  751   2.901   2.797   1.064  0.4020 -0.7132 -0.7546
   32ACE     H3  752   3.043   2.810   1.179  0.7900 -2.2402  1.3394
   32ACE     H4  753   2.820   2.469   1.174 -0.7174 -0.9581 -2.0469
   33ACE     C1  754   2.728   2.202   0.125 -0.0087  0.9784 -0.4967
   33ACE     C2  755   2.737   2.167   0.266 -0.2136  0.2102 -0.3998
   33ACE     O1  756   2.810   2.074   0.309  0.2561 -0.0821 -0.5897
   33ACE     O2  757   2.706   2.269   0.351 -0.1509 -0.6341  0.1302
   33ACE     H1  758   2.781   2.129   0.064  0.1980 -0.2683  1.1288
   33ACE     H2  759   2.738   2.308   0.100 -4.1647  1.5800  0.0120
   33ACE     H3  760   2.619   2.190   0.117 -0.1088  0.6108  1.2331
   33ACE     H4  761   2.748   2.244   0.436 -1.0620 -0.4949  0.6256
   34ACE     C1  762   3.066   2.661   0.843 -0.6628  0.4882  0.2946
   34ACE     C2  763   3.096   2.527   0.902 -0.2597  0.3801 -0.7862
   34ACE     O1  764   3.022   2.438   0.928  0.0842 -0.0330 -0.5821
   34ACE     O2  765   3.227   2.499   0.888  0.0417  0.9558 -0.5206
   34ACE     H1  766   3.139   2.737   0.873 -1.5317  1.6798 -0.6175
   34ACE     H2  767   2.961   2.684   0.861 -0.8391 -0.7895  1.0066
   34ACE     H3  768   3.081   2.659   0.735  0.0800  2.7499  0.3412
   34ACE     H4  769   3.232   2.420   0.945  0.1031  0.7104 -0.8649
   35ACE     C1  770   3.073   1.277   1.517 -0.2685  0.8942  0.8582
   35ACE     C2  771   2.927   1.245   1.477 -0.5412  0.1558  0.2593
   35ACE     O1  772   2.844   1.334   1.465 -0.3614  0.0689 -0.0386
   35ACE     O2  773   2.885   1.117   1.489  0.0041 -0.1670 -0.0537
   35ACE     H1  774   3.096   1.280   1.624  2.1070 -1.1533  0.4559
   35ACE     H2  775   3.093   1.381   1.491  0.9733  0.4000 -0.2061
   35ACE     H3  776   3.144   1.198   1.490  1.5783  3.1467 -1.1006
   35ACE     H4  777   2.960   1.055   1.494 -0.6530 -1.0540 -0.9845
   36ACE     C1  778   0.086   1.477   0.944 -1.0177 -0.1862  1.0142
   36ACE     C2  779  -0.028   1.386   0.978 -0.0880 -0.4560  0.2716
   36ACE     O1  780  -0.072   1.378   1.089  0.5158 -0.2622  0.1136
   36ACE     O2  781  -0.097   1.347   0.876 -0.2522  0.0682  0.1557
   36ACE     H1  782   0.148   1.419   0.874 -0.9617 -1.3059  1.9761
   36ACE     H2  783   0.149   1.514   1.025  1.4362 -0.5869 -0.6571
   36ACE     H3  784   0.047   1.561   0.885  0.0921 -0.2871  0.1193
   36ACE     H4  785  -0.186   1.328   0.908  0.0661  0.0680  1.0450
   37ACE     C1  786   0.076   1.031   1.533  0.1619 -0.0792 -0.3214
   37ACE     C2  787   0.186   0.923   1.517 -0.1611  0.6300 -0.6631
   37ACE     O1  788   0.290   0.952   1.458  0.3914 -0.3187  0.6727
   37ACE     O2  789   0.167   0.804   1.573  0.1864  0.2719  0.0678
   37ACE     H1  790   0.017   1.024   1.625  2.0765 -0.3464  0.9345
   37ACE     H2  791  -0.001   1.012   1.458 -2.3535  0.9042  1.9119
   37ACE     H3  792   0.109   1.135   1.527 -0.3716  0.0249 -1.4396
   37ACE     H4  793   0.258   0.774   1.557  0.8485  1.7426  0.9854
   38ACE     C1  794   1.615   0.115   0.519  0.1200  0.0997 -0.3707
   38ACE     C2  795   1.642   0.158   0.382  0.4054  0.3702  0.0599
   38ACE     O1  796   1.596   0.099   0.282  0.5372 -0.4172 -0.5194
   38ACE     O2  797   1.751   0.231   0.368 -0.0496  0.0251 -0.0796
   38ACE     H1  798   1.526   0.052   0.528  0.2670 -0.0596  0.0057
   38ACE     H2  799   1.615   0.200   0.588 -3.4323 -0.1594  0.0113
   38ACE     H3  800   1.699   0.051   0.552 -0.9040  0.6698  3.6249
   38ACE     H4  801   1.752   0.250   0.272 -0.8954 -0.3632 -0.1695
   39ACE     C1  802   0.658   2.211   0.709  0.3364  0.3180 -0.5265
   39ACE     C2  803   0.697   2.341   0.775 -0.6950 -0.3661  0.1049
   39ACE     O1  804   0.618   2.437   0.796  0.0065  0.0211 -0.2492
   39ACE     O2  805   0.825   2.346   0.823  0.2412  0.4956  0.5512
   39ACE     H1  806   0.725   2.197   0.623  1.6162  1.1764  0.3200
   39ACE     H2  807   0.549   2.205   0.701  0.1500  1.4296  1.1540
   39ACE     H3  808   0.683   2.129   0.778  0.4191  0.5109 -0.3305
   39ACE     H4  809   0.842   2.435   0.859  2.1151  0.8246 -1.0642
   40ACE     C1  810   0.343   2.633   1.518  0.0788  0.8424  0.6014
   40ACE     C2  811   0.354   2.489   1.468 -0.2430  0.1446  0.2001
   40ACE     O1  812   0.444   2.407   1.497 -0.5273 -0.3112 -0.6004
   40ACE     O2  813   0.244   2.438   1.405 -0.1728 -0.0769 -0.2614
   40ACE     H1  814   0.442   2.673   1.540  0.0015  2.0765 -1.2053
   40ACE     H2  815   0.272   2.638   1.602  0.1790  0.0916  0.7354
   40ACE     H3  816   0.295   2.683   1.433 -0.8131  0.1979  0.7076
   40ACE     H4  817   0.275   2.347   1.387 -1.7565 -0.5381 -0.6909
   41ACE     C1  818   2.533   2.687   3.668 -0.1602 -0.1270 -0.1824
   41ACE     C2  819   2.470   2.738   3.798 -0.4622 -0.4221  0.1864
   41ACE     O1  820   2.360   2.705   3.834 -0.6909 -0.0233  0.4471
   41ACE     O2  821   2.552   2.818   3.870 -0.5344 -0.4234  0.0625
   41ACE     H1  822   2.512   2.581   3.652 -2.2780  0.0840  1.0853
   41ACE     H2  823   2.640   2.705   3.686  0.0442 -0.3653 -1.1152
   41ACE     H3  824   2.503   2.748   3.582  0.8645 -1.5395 -1.5614
   41ACE     H4  825   2.493   2.842   3.943 -0.3495 -0.6275  0.2795
   42ACE     C1  826   2.256   2.453   0.835 -0.6035  0.1156  0.2210
   42ACE     C2  827   2.271   2.581   0.746 -0.3049 -0.7573  1.1416
   42ACE     O1  828   2.367   2.656   0.739  0.0819 -0.0552 -0.5309
   42ACE     O2  829   2.158   2.629   0.712  0.0991  0.0610  0.1675
   42ACE     H1  830   2.153   2.421   0.853 -0.2596 -0.0129  1.9821
   42ACE     H2  831   2.312   2.459   0.929 -1.3423  0.9143  0.6223
   42ACE     H3  832   2.304   2.372   0.778  2.9360  0.2170  2.8944
   42ACE     H4  833   2.184   2.712   0.668 -0.9700 -0.3779 -1.3301
   43ACE     C1  834   2.952   0.419   0.391 -0.2829  0.0310 -0.3652
   43ACE     C2  835   2.969   0.268   0.354 -0.2754 -0.2991 -0.1585
   43ACE     O1  836   2.912   0.224   0.260  0.8988 -0.0544 -0.0080
   43ACE     O2  837   3.055   0.202   0.431 -0.2256 -0.0896  0.2277
   43ACE     H1  838   2.995   0.434   0.491  0.2802  0.6558 -0.7009
   43ACE     H2  839   2.849   0.459   0.390  0.2481  1.4469  0.4425
   43ACE     H3  840   3.019   0.482   0.332 -1.9803  1.1787 -1.1408
   43ACE     H4  841   3.052   0.110   0.401  0.5103  0.1451 -0.5863
   44ACE     C1  842   2.184   0.614   1.558 -0.0467 -0.3385 -0.1127
   44ACE     C2  843   2.133   0.750   1.520  0.1239  0.1235  0.4201
   44ACE     O1  844   2.193   0.841   1.471 -0.4405  0.0895  0.0967
   44ACE     O2  845   2.002   0.777   1.554 -0.3662  0.0685  0.0818
   44ACE     H1  846   2.294   0.609   1.560  0.0077  0.8956  1.1483
   44ACE     H2  847   2.147   0.529   1.500  0.1622 -0.1555 -0.5177
   44ACE     H3  848   2.141   0.595   1.658 -0.8938  0.7482 -0.2614
   44ACE     H4  849   1.991   0.869   1.525 -0.8074 -0.5922 -1.9505
   45ACE     C1  850   1.423   1.234   0.060  0.1237 -0.6583 -0.4454
   45ACE     C2  851   1.434   1.227   0.211  0.2476  0.4556 -0.8231
   45ACE     O1  852   1.472   1.318   0.278  0.3515  0.2094 -0.3455
   45ACE     O2  853   1.368   1.122   0.265 -0.6336 -0.2679  0.2236
   45ACE     H1  854   1.527   1.248   0.027 -0.3585  0.3247 -1.6187
   45ACE     H2  855   1.376   1.332   0.042  1.6939  0.5920  1.9228
   45ACE     H3  856   1.368   1.151   0.015 -1.7732  1.2807 -1.8338
   45ACE     H4  857   1.370   1.155   0.357  1.1247  0.6211 -0.1035
   46ACE     C1  858   0.929   0.841   1.195  0.2672  0.3058  0.2104
   46ACE     C2  859   1.004   0.868   1.069  0.0928 -0.2804 -0.4517
   46ACE     O1  860   1.037   0.794   0.976  0.3565 -0.0040  0.0915
   46ACE     O2  861   1.050   0.993   1.065  0.4932 -0.2471  0.2500
   46ACE     H1  862   0.904   0.735   1.200  2.1694 -0.2874 -1.9827
   46ACE     H2  863   0.841   0.906   1.203  1.0737  1.4577 -0.1507
   46ACE     H3  864   0.997   0.865   1.278  1.3998  2.3225 -1.2433
   46ACE     H4  865   1.106   0.989   0.986  0.9289 -0.5004  0.5706
   47ACE     C1  866   0.411   1.323   1.568  0.1592  0.3934 -0.4907
   47ACE     C2  867   0.428   1.466   1.540  0.2415 -0.1108 -0.2170
   47ACE     O1  868   0.350   1.532   1.478  0.2355 -0.5822  0.0851
   47ACE     O2  869   0.557   1.512   1.561 -0.1648  0.3827  0.4195
   47ACE     H1  870   0.493   1.289   1.632 -1.5269 -1.3217  0.8412
   47ACE     H2  871   0.413   1.257   1.481  0.6576  0.4732 -0.5406
   47ACE     H3  872   0.317   1.313   1.624 -0.2368  0.4172 -1.1490
   47ACE     H4  873   0.541   1.607   1.554  0.0596  0.2303 -3.2522
   48ACE     C1  874   2.023   1.150   3.787 -0.5577 -0.1437 -0.1162
   48ACE     C2  875   1.983   1.113   3.648  0.4826  0.9904 -0.3912
   48ACE     O1  876   2.067   1.103   3.560 -0.1621 -0.1722  0.1295
   48ACE     O2  877   1.862   1.053   3.637  0.3681 -0.2497  0.0344
   48ACE     H1  878   1.967   1.085   3.855 -0.6191 -0.0699 -0.0964
   48ACE     H2  879   1.996   1.254   3.811 -1.9050 -0.0622 -1.8428
   48ACE     H3  880   2.131   1.136   3.793 -0.5523 -1.5892 -2.8422
   48ACE     H4  881   1.858   1.028   3.543  2.3317  0.2795 -0.2030
   49ACE     C1  882   3.049   3.315   1.546  0.3146  0.2968 -0.0029
   49ACE     C2  883   3.086   3.308   1.394  0.1273  0.4008 -0.6102
   49ACE     O1  884   3.189   3.348   1.349 -0.4401 -0.1151 -0.3022
   49ACE     O2  885   2.972   3.292   1.322 -0.2921  0.4408 -0.8849
   49ACE     H1  886   2.989   3.228   1.573 -0.8255  0.7809 -0.9426
   49ACE     H2  887   2.977   3.397   1.556  0.8940  0.8472 -0.2708
   49ACE     H3  888   3.130   3.342   1.616  0.6951  2.3189 -1.1830
   49ACE     H4  889   2.992   3.295   1.227  1.5849 -0.1248 -0.5359
   50ACE     C1  890   1.132   2.904   0.424  0.3793  0.2967  0.9207
   50ACE     C2  891   1.087   2.761   0.448 -0.2268 -0.4402 -0.5652
   50ACE     O1  892   1.048   2.694   0.354  0.4156 -0.4437  0.5441
   50ACE     O2  893   1.059   2.731   0.575 -0.2438 -0.6271  0.2663
   50ACE     H1  894   1.084   2.980   0.487 -1.3092  1.2281 -1.4298
   50ACE     H2  895   1.140   2.925   0.317  0.7854 -0.5333  0.7836
   50ACE     H3  896   1.234   2.889   0.463  1.3971  0.1632 -1.7026
   50ACE     H4  897   1.038   2.636   0.574 -0.5459 -0.5889  1.7180
   51ACE     C1  898   0.261   3.154   1.554 -0.1827  0.0168  0.2849
   51ACE     C2  899   0.282   3.103   1.415 -0.1265 -0.3062 -0.1163
   51ACE     O1  900   0.194   3.111   1.334  0.6254 -0.0181  0.0455
   51ACE     O2  901   0.403   3.052   1.391  0.0922  0.4300 -0.2684
   51ACE     H1  902   0.249   3.058   1.606  1.9714 -0.8969 -0.8309
   51ACE     H2  903   0.180   3.227   1.564 -0.7595 -0.3717 -1.4022
   51ACE     H3  904   0.352   3.199   1.595  0.7595 -1.4424 -0.1534
   51ACE     H4  905   0.400   3.050   1.293 -1.2547  2.6960 -0.3015
   52ACE     C1  906   1.889   0.036   0.844 -0.1822 -0.2331 -0.2047
   52ACE     C2  907   1.807  -0.091   0.825 -0.5909  0.5044 -0.3492
   52ACE     O1  908   1.687  -0.092   0.815 -0.2888 -0.2297  0.0576
   52ACE     O2  909   1.865  -0.208   0.848 -0.8990  0.2227  0.3037
   52ACE     H1  910   1.989   0.020   0.802 -0.5054  1.4637 -1.7170
   52ACE     H2  911   1.906   0.045   0.951 -1.1092  1.7332 -0.1908
   52ACE     H3  912   1.830   0.124   0.814 -2.9170 -1.4746  1.3680
   52ACE     H4  913   1.792  -0.272   0.845  0.5075 -1.3595 -1.3300
   53ACE     C1  914   2.815   1.570   0.624  0.2767 -0.0574 -0.2689
   53ACE     C2  915   2.839   1.498   0.755  0.6426 -0.3906  0.2831
   53ACE     O1  916   2.751   1.465   0.829  0.1488 -0.0850  0.1267
   53ACE     O2  917   2.969   1.507   0.793 -0.3003 -0.3050  0.1947
   53ACE     H1  918   2.887   1.646   0.593 -1.5868  1.4825 -0.9284
   53ACE     H2  919   2.711   1.604   0.620 -0.5375 -2.4534 -0.1725
   53ACE     H3  920   2.833   1.497   0.543  1.1424  0.2383 -0.3462
   53ACE     H4  921   2.970   1.479   0.886 -1.0386  1.6914  0.8425
   54ACE     C1  922   2.787   2.424   0.732 -0.4356  0.0055  0.5648
   54ACE     C2  923   2.837   2.460   0.593 -0.6631  0.3264 -0.3569
   54ACE     O1  924   2.899   2.388   0.516  0.3139 -0.5017 -0.0515
   54ACE     O2  925   2.838   2.597   0.584 -0.1070  0.3075 -0.0294
   54ACE     H1  926   2.680   2.409   0.713 -0.6148  0.1844  1.4112
   54ACE     H2  927   2.787   2.514   0.795 -3.2085  0.7766 -0.4708
   54ACE     H3  928   2.845   2.338   0.767  0.4804  0.1797 -0.5034
   54ACE     H4  929   2.871   2.606   0.493  1.5318  0.8640  0.5904
   55ACE     C1  930   2.212   1.914   1.208  0.4521 -0.2391  0.9711
   55ACE     C2  931   2.175   1.792   1.111 -0.0139 -0.1229 -0.7616
   55ACE     O1  932   2.240   1.693   1.109 -0.3190  0.4180  0.1173
   55ACE     O2  933   2.049   1.779   1.095  0.1232 -0.2321 -0.4774
   55ACE     H1  934   2.133   1.928   1.282  0.6164 -0.6234  1.2224
   55ACE     H2  935   2.199   2.008   1.153 -0.2404 -0.9663 -0.1563
   55ACE     H3  936   2.310   1.903   1.256  1.5454  1.2794 -0.8388
   55ACE     H4  937   2.031   1.689   1.063  3.0647 -0.9358 -0.3095
   56ACE     C1  938   1.868   1.893   1.511 -0.1765  0.8913 -0.2094
   56ACE     C2  939   1.954   2.022   1.515 -0.2490 -0.1228  0.4642
   56ACE     O1  940   2.045   2.037   1.591 -0.1631 -0.2695  0.1952
   56ACE     O2  941   1.912   2.119   1.433 -0.3369  0.4731 -0.2398
   56ACE     H1  942   1.782   1.890   1.443  0.9125 -4.2971 -1.5803
   56ACE     H2  943   1.828   1.864   1.609  0.5073 -0.1914 -0.2396
   56ACE     H3  944   1.927   1.815   1.462  0.9910  0.7492  1.3735
   56ACE     H4  945   1.967   2.195   1.460  0.5932 -0.6307  1.0414
   57ACE     C1  946   2.962   1.770   0.143  1.0638 -0.4174  1.2046
   57ACE     C2  947   3.046   1.734   0.263  0.0550  0.1495  0.6430
   57ACE     O1  948   3.053   1.625   0.307  0.1579 -0.0831 -1.0207
   57ACE     O2  949   3.159   1.805   0.263  0.3340 -0.2688 -0.0138
   57ACE     H1  950   3.010   1.745   0.048  2.0425  1.2943  1.2176
   57ACE     H2  951   2.940   1.878   0.137  0.7822 -0.6310 -2.1231
   57ACE     H3  952   2.868   1.712   0.141  1.2571 -0.6665 -1.0215
   57ACE     H4  953   3.203   1.766   0.340  2.1199 -0.0863 -0.9137
   58ACE     C1  954   0.519   0.707   3.627  0.6585 -0.2860  0.1972
   58ACE     C2  955   0.660   0.768   3.627 -0.2754 -0.1696  0.2165
   58ACE     O1  956   0.715   0.808   3.727 -0.0554 -0.1581 -0.0195
   58ACE     O2  957   0.733   0.749   3.524 -0.7436  0.3201  1.0600
   58ACE     H1  958   0.445   0.782   3.659  1.4500  0.7054 -0.2549
   58ACE     H2  959   0.506   0.636   3.709  0.7499  0.0513  0.5040
   58ACE     H3  960   0.499   0.657   3.531 -1.9431 -0.1357  0.6341
   58ACE     H4  961   0.806   0.808   3.553  0.1840 -0.4464  0.3109
   59ACE     C1  962   2.627   3.240   1.100  0.4030  0.2700  0.1791
   59ACE     C2  963   2.504   3.307   1.065 -0.5981 -0.3046 -0.4655
   59ACE     O1  964   2.494   3.426   1.050 -0.1214  0.2061 -0.3727
   59ACE     O2  965   2.392   3.237   1.067  0.3300 -0.3169  0.2774
   59ACE     H1  966   2.632   3.211   1.206  1.9353  2.6442  0.7926
   59ACE     H2  967   2.720   3.291   1.071  0.5848 -0.4835 -0.5724
   59ACE     H3  968   2.627   3.137   1.061  3.4843  0.4248 -0.3525
   59ACE     H4  969   2.331   3.308   1.040  0.7659  0.1770  0.6061
   60ACE     C1  970   1.187   2.274   0.518 -0.1117 -0.0361  0.5689
   60ACE     C2  971   1.057   2.316   0.589 -0.6541  0.4102 -0.3496
   60ACE     O1  972   1.018   2.429   0.584  0.1192 -0.3950 -0.5749
   60ACE     O2  973   1.008   2.223   0.677  0.1838  0.1757 -0.7343
   60ACE     H1  974   1.182   2.178   0.467 -1.6444 -0.4977  1.5482
   60ACE     H2  975   1.260   2.263   0.599 -0.7319 -1.2054  0.9750
   60ACE     H3  976   1.203   2.356   0.447  1.0983  2.1437  3.2140
   60ACE     H4  977   0.943   2.273   0.728 -2.8328 -2.5260 -1.7330
   61ACE     C1  978   1.898   0.530   0.496 -0.3316 -0.0723  0.2878
   61ACE     C2  979   1.795   0.504   0.600  1.0459 -0.1959 -0.4852
   61ACE     O1  980   1.679   0.483   0.570 -0.1335  0.2390 -0.3559
   61ACE     O2  981   1.838   0.521   0.728  0.2561  0.3434  0.6157
   61ACE     H1  982   1.946   0.433   0.479  0.8602  0.5974 -0.2271
   61ACE     H2  983   1.971   0.597   0.543 -1.5444  0.3801  1.5653
   61ACE     H3  984   1.858   0.571   0.403  0.7391  2.2465  0.8203
   61ACE     H4  985   1.764   0.500   0.787  0.4811  1.0719  1.1625
   62ACE     C1  986   2.724   0.168   1.242  0.4768  0.3509  0.4787
   62ACE     C2  987   2.875   0.168   1.234 -0.4490  0.0689 -1.0571
   62ACE     O1  988   2.939   0.109   1.149  0.3267  0.1854 -0.3335
   62ACE     O2  989   2.933   0.216   1.345 -0.1888  0.1078 -0.4012
   62ACE     H1  990   2.695   0.099   1.322  0.8811  0.5976  0.8391
   62ACE     H2  991   2.686   0.132   1.145  0.8952  1.2653 -0.0281
   62ACE     H3  992   2.689   0.269   1.266 -0.3526 -0.0254  0.8671
   62ACE     H4  993   3.027   0.197   1.331  0.1898  0.9005  0.9027
   63ACE     C1  994   3.377   1.488   1.564  0.3821  0.1331  0.1138
   63ACE     C2  995   3.379   1.476   1.410  0.9846 -0.5556 -0.0709
   63ACE     O1  996   3.343   1.572   1.345  0.2133 -0.4680  0.1341
   63ACE     O2  997   3.371   1.357   1.358  0.8822 -0.1724 -0.2571
   63ACE     H1  998   3.273   1.475   1.597 -0.4278  2.2807 -1.4931
   63ACE     H2  999   3.395   1.592   1.592 -1.1484  0.7164 -0.9882
   63ACE     H3 1000   3.429   1.404   1.612  3.6077  1.6595 -0.5993
   63ACE     H4 1001   3.341   1.386   1.270  1.5653  1.1310 -0.0762
   64ACE     C1 1002   0.934   2.303   1.554 -0.5217 -0.2045 -0.1989
   64ACE     C2 1003   0.793   2.314   1.485 -0.3482 -0.1664  0.1377
   64ACE     O1 1004   0.776   2.332   1.367  0.1659  0.0561 -0.1273
   64ACE     O2 1005   0.695   2.324   1.580  0.5328 -0.0367  0.4054
   64ACE     H1 1006   0.942   2.213   1.616 -1.3195 -1.0437 -1.2942
   64ACE     H2 1007   0.939   2.384   1.627  1.2527 -1.7744  1.4774
   64ACE     H3 1008   1.020   2.322   1.489  2.2970 -2.0600  2.8639
   64ACE     H4 1009   0.615   2.353   1.532  0.1947  1.6139  1.9074
   65ACE     C1 1010   2.075   0.753   1.166 -0.2073 -0.0345  0.7975
   65ACE     C2 1011   1.967   0.651   1.158  0.6754  0.2168 -0.9475
   65ACE     O1 1012   1.862   0.667   1.103 -0.0157  0.2304 -0.0263
   65ACE     O2 1013   1.995   0.536   1.229 -0.5111  0.2145 -0.2898
   65ACE     H1 1014   2.104   0.760   1.271  1.4864 -0.2906  0.3604
   65ACE     H2 1015   2.056   0.854   1.126  2.6699  0.3479  0.3417
   65ACE     H3 1016   2.160   0.714   1.109 -0.6267  1.4950 -0.9509
   65ACE     H4 1017   1.911   0.487   1.218 -0.6029  0.0941  0.8639
   66ACE     C1 1018   1.755   1.160   1.437 -0.2509 -0.1616  0.3925
   66ACE     C2 1019   1.890   1.115   1.493  0.0390  0.3236  0.3006
   66ACE     O1 1020   1.945   1.011   1.463 -0.0167 -0.2768  0.9165
   66ACE     O2 1021   1.954   1.203   1.574  1.0241  0.0723 -0.6491
   66ACE     H1 1022   1.768   1.262   1.399  0.2221 -0.0176  0.9167
   66ACE     H2 1023   1.678   1.181   1.512 -0.4220  0.6273 -0.0024
   66ACE     H3 1024   1.701   1.090   1.373 -0.9260 -0.6004  1.4208
   66ACE     H4 1025   2.046   1.171   1.572  1.0588  0.0752  0.5056
   67ACE     C1 1026   0.880   2.461   0.256 -0.0502 -0.2057 -0.3977
   67ACE     C2 1027   0.846   2.355   0.155  0.2111 -0.7815  0.2760
   67ACE     O1 1028   0.908   2.258   0.130 -0.2114  0.3206 -0.2599
   67ACE     O2 1029   0.725   2.381   0.094  0.0413  0.0086 -0.0056
   67ACE     H1 1030   0.795   2.529   0.259  2.5442  3.1107  1.1260
   67ACE     H2 1031   0.972   2.505   0.218  0.3106  1.3529  2.1322
   67ACE     H3 1032   0.907   2.399   0.343 -3.7396 -1.5637 -0.1125
   67ACE     H4 1033   0.715   2.294   0.050 -2.5928  0.7668 -1.0457
   68ACE     C1 1034   2.052   1.560   1.576 -0.2198 -0.3913  0.7085
   68ACE     C2 1035   2.075   1.558   1.417  0.1655  0.1216 -0.2864
   68ACE     O1 1036   1.975   1.566   1.344 -0.4004  0.3099  0.1910
   68ACE     O2 1037   2.194   1.542   1.375 -1.2544  0.6038  0.6267
   68ACE     H1 1038   2.087   1.469   1.626 -0.4624 -0.4903  0.7014
   68ACE     H2 1039   1.953   1.601   1.600 -1.6127 -2.4230 -1.4594
   68ACE     H3 1040   2.125   1.630   1.619  0.8299 -0.4393 -0.9674
   68ACE     H4 1041   2.178   1.563   1.282  1.6832 -4.0323 -1.0839
   69ACE     C1 1042   2.338   0.399   1.223 -0.6026  0.3198 -0.0755
   69ACE     C2 1043   2.375   0.255   1.181  0.6271 -0.0420 -0.1036
   69ACE     O1 1044   2.350   0.160   1.242  0.2047  0.5431 -0.3946
   69ACE     O2 1045   2.458   0.253   1.069  0.2247 -0.0180  0.4630
   69ACE     H1 1046   2.418   0.464   1.262 -0.4181 -0.4576  0.8622
   69ACE     H2 1047   2.262   0.395   1.302 -1.1341 -0.0380 -0.6031
   69ACE     H3 1048   2.299   0.453   1.137 -1.3005  0.5241  0.3677
   69ACE     H4 1049   2.474   0.158   1.056  1.6426  0.1242  1.0087
   70ACE     C1 1050   0.582   2.924   0.933  0.3611  0.1010  0.1314
   70ACE     C2 1051   0.475   2.933   1.034 -0.1976 -0.8750 -0.1996
   70ACE     O1 1052   0.484   2.997   1.138  0.0714 -0.1743 -0.1096
   70ACE     O2 1053   0.391   2.827   1.018 -0.1989 -0.3550 -0.2617
   70ACE     H1 1054   0.584   3.009   0.864 -0.5430 -0.2655 -0.3715
   70ACE     H2 1055   0.574   2.835   0.868  1.9699  0.1967 -0.2149
   70ACE     H3 1056   0.674   2.938   0.990  1.1965 -1.2806 -0.8503
   70ACE     H4 1057   0.351   2.812   1.105 -1.6657  0.7586 -0.7222
   71ACE     C1 1058   2.835   0.125   0.781 -0.0677  0.6451  0.2833
   71ACE     C2 1059   2.829  -0.030   0.769  0.0840 -0.1628 -0.0024
   71ACE     O1 1060   2.859  -0.111   0.852  0.3625 -0.1926 -0.9277
   71ACE     O2 1061   2.760  -0.069   0.658  0.4697 -0.3408  0.3960
   71ACE     H1 1062   2.740   0.176   0.757 -0.5701  0.0897  1.0805
   71ACE     H2 1063   2.899   0.158   0.698 -0.0411 -1.6491 -0.6540
   71ACE     H3 1064   2.871   0.153   0.880  1.3771  0.4102 -0.1691
   71ACE     H4 1065   2.773  -0.164   0.644  0.0113 -0.0887 -1.9903
   72ACE     C1 1066   3.248   3.151   1.067 -0.2758 -0.0612 -0.0160
   72ACE     C2 1067   3.145   3.255   1.016 -0.3651 -0.0051 -0.1743
   72ACE     O1 1068   3.171   3.324   0.917 -0.0943 -0.0434  0.3737
   72ACE     O2 1069   3.019   3.238   1.048 -0.2349 -0.0115  0.5916
   72ACE     H1 1070   3.341   3.206   1.082 -0.4269 -0.2521  1.7853
   72ACE     H2 1071   3.273   3.072   0.995  0.9841 -1.2416  1.6965
   72ACE     H3 1072   3.212   3.106   1.161 -3.0694 -0.5598 -1.2619
   72ACE     H4 1073   2.970   3.298   0.989  0.6207 -0.4225 -0.5518
   73ACE     C1 1074   0.343   2.017   1.546 -0.1690 -0.3747 -0.1017
   73ACE     C2 1075   0.370   2.093   1.411 -1.4446  0.0455  0.2919
   73ACE     O1 1076   0.284   2.151   1.348  0.0444  0.4902  0.8301
   73ACE     O2 1077   0.499   2.141   1.415  0.2318 -0.9578  0.6783
   73ACE     H1 1078   0.414   2.056   1.620 -1.1756  0.6498  0.3410
   73ACE     H2 1079   0.380   1.915   1.536  0.9381 -0.3028  2.7571
   73ACE     H3 1080   0.238   2.023   1.578  0.0588 -4.5332  1.7960
   73ACE     H4 1081   0.490   2.215   1.354 -1.7296 -1.1735  0.6611
   74ACE     C1 1082   1.803   1.391   0.240  0.6496  0.3536 -0.0889
   74ACE     C2 1083   1.821   1.242   0.254 -0.2994 -0.4059 -0.3799
   74ACE     O1 1084   1.881   1.190   0.349 -0.0826  0.3700 -0.1485
   74ACE     O2 1085   1.755   1.172   0.168 -0.5068  0.3359  0.3906
   74ACE     H1 1086   1.741   1.404   0.151  0.0565  0.9627  0.4100
   74ACE     H2 1087   1.899   1.440   0.218  1.6766 -1.4969  0.2040
   74ACE     H3 1088   1.767   1.436   0.333  0.6601  1.2402 -0.5016
   74ACE     H4 1089   1.769   1.082   0.204 -1.7910  0.0836  0.2836
   75ACE     C1 1090   0.926   0.081   0.648 -0.1141  0.2497 -0.3143
   75ACE     C2 1091   0.938  -0.056   0.716  0.4919 -0.6680 -0.5873
   75ACE     O1 1092   0.860  -0.099   0.799  0.0739  0.1659  0.2051
   75ACE     O2 1093   1.045  -0.129   0.681 -0.4958  0.2125  0.2945
   75ACE     H1 1094   0.824   0.115   0.622 -0.8359 -0.2273  1.7535
   75ACE     H2 1095   0.989   0.088   0.559 -0.1408 -1.9688 -0.5360
   75ACE     H3 1096   0.964   0.158   0.717 -0.5033 -0.4524  0.7005
   75ACE     H4 1097   1.028  -0.216   0.720  2.9154 -0.1661  1.0926
   76ACE     C1 1098   3.094   1.117   1.104 -0.0812  0.1821 -0.2806
   76ACE     C2 1099   3.048   1.261   1.077 -0.0350 -0.1292  0.2592
   76ACE     O1 1100   3.040   1.306   0.966  0.0399  0.1357 -0.0433
   76ACE     O2 1101   3.066   1.346   1.179  0.6655 -0.3798  0.2833
   76ACE     H1 1102   3.081   1.061   1.010  0.8373 -0.5558  0.0195
   76ACE     H2 1103   3.026   1.078   1.181  1.8508 -5.0800 -1.0268
   76ACE     H3 1104   3.192   1.122   1.152 -0.8594  0.7878  1.2824
   76ACE     H4 1105   3.079   1.435   1.141  0.5506 -1.2101 -1.7204
   77ACE     C1 1106   0.840   1.289   1.523 -0.3855 -0.6491  0.0730
   77ACE     C2 1107   0.949   1.389   1.565 -0.0146  0.5216 -0.0971
   77ACE     O1 1108   1.057   1.353   1.600  0.3764  0.7198 -0.0784
   77ACE     O2 1109   0.936   1.512   1.513 -0.3376  0.4971 -0.0857
   77ACE     H1 1110   0.890   1.215   1.459  0.1657  0.5375 -0.8823
   77ACE     H2 1111   0.757   1.334   1.466 -0.4462 -2.9682 -1.7309
   77ACE     H3 1112   0.802   1.234   1.610  0.2444  0.1824  0.8814
   77ACE     H4 1113   1.017   1.557   1.542 -0.8077  0.5250  1.1947
   78ACE     C1 1114   1.101   0.668   1.474  0.4429 -0.1069 -0.7753
   78ACE     C2 1115   1.231   0.596   1.502 -0.3384  0.1879  0.9489
   78ACE     O1 1116   1.302   0.630   1.598 -0.5977  0.4694 -0.1149
   78ACE     O2 1117   1.271   0.513   1.404  0.2181  0.2654  0.0060
   78ACE     H1 1118   1.074   0.653   1.369 -1.5144  1.2154 -0.4811
   78ACE     H2 1119   1.116   0.770   1.511  3.6290  0.1433 -2.5658
   78ACE     H3 1120   1.022   0.610   1.524  0.3184 -0.9127 -1.8753
   78ACE     H4 1121   1.360   0.493   1.436  2.0180  1.4070 -4.0116
   79ACE     C1 1122   3.367   0.498   0.320 -0.2361 -0.4688  0.1656
   79ACE     C2 1123   3.364   0.483   0.167  0.3454  0.0479  0.3288
   79ACE     O1 1124   3.395   0.386   0.106 -0.2079 -0.0890  0.0348
   79ACE     O2 1125   3.298   0.579   0.104 -0.4536 -0.2794 -0.1014
   79ACE     H1 1126   3.295   0.576   0.348  0.1261  0.2000 -0.7747
   79ACE     H2 1127   3.467   0.530   0.353 -0.4090 -0.0862  0.3219
   79ACE     H3 1128   3.340   0.399   0.361 -1.5065  0.0016  0.4683
   79ACE     H4 1129   3.312   0.561   0.010  1.1422  0.4844 -0.0246
   80ACE     C1 1130   3.292   3.061   1.544  0.5129  0.4860  0.2972
   80ACE     C2 1131   3.308   2.913   1.522 -0.0239  0.0211 -0.1048
   80ACE     O1 1132   3.215   2.842   1.499  0.1821 -0.2495 -0.2302
   80ACE     O2 1133   3.424   2.869   1.565  0.0047 -0.4324  0.3319
   80ACE     H1 1134   3.194   3.074   1.592  0.9154  1.8689  0.7494
   80ACE     H2 1135   3.289   3.113   1.448 -1.2829  0.6460  0.4332
   80ACE     H3 1136   3.375   3.099   1.605  0.4634  1.0468  0.0199
   80ACE     H4 1137   3.406   2.774   1.558  0.8480 -0.5821  0.0382
   81ACE     C1 1138   0.713   1.549   0.147 -0.0446  0.0226 -0.1490
   81ACE     C2 1139   0.696   1.523   0.295  0.7789 -0.2584  0.7572
   81ACE     O1 1140   0.652   1.423   0.345  0.0887  0.0329 -0.2373
   81ACE     O2 1141   0.742   1.611   0.375 -0.4785  0.5984 -0.3655
   81ACE     H1 1142   0.703   1.466   0.077 -1.6700  0.2937 -0.2563
   81ACE     H2 1143   0.807   1.605   0.141 -0.4377  0.6321 -0.6372
   81ACE     H3 1144   0.636   1.623   0.124 -0.3532 -0.2206  0.0847
   81ACE     H4 1145   0.696   1.573   0.452  2.2290 -0.8496  0.5976
   82ACE     C1 1146   1.288   2.520   0.847 -0.0784 -0.2818 -0.2858
   82ACE     C2 1147   1.350   2.593   0.723 -0.4388  0.7276 -0.8834
   82ACE     O1 1148   1.357   2.712   0.722 -0.3071  0.1873 -0.1901
   82ACE     O2 1149   1.333   2.530   0.607  0.0926  0.5260  0.1346
   82ACE     H1 1150   1.368   2.454   0.883 -0.8071 -2.4952 -2.5572
   82ACE     H2 1151   1.216   2.445   0.815  0.7555 -1.1822 -0.0697
   82ACE     H3 1152   1.248   2.589   0.923 -0.6924  0.1116 -0.9620
   82ACE     H4 1153   1.361   2.588   0.534 -1.0425 -1.0532 -1.6027
   83ACE     C1 1154   0.572   3.314   1.191 -0.0244  0.6052  0.3736
   83ACE     C2 1155   0.667   3.363   1.086  0.2567  0.2790 -0.2106
   83ACE     O1 1156   0.689   3.479   1.044  0.1340  0.3790 -0.6801
   83ACE     O2 1157   0.728   3.260   1.023  0.4553 -0.1445 -0.3025
   83ACE     H1 1158   0.625   3.236   1.247 -0.3377 -0.0893 -0.2961
   83ACE     H2 1159   0.494   3.260   1.137 -2.1429  1.4549  2.5117
   83ACE     H3 1160   0.520   3.393   1.247 -0.3353 -0.0570  1.0333
   83ACE     H4 1161   0.785   3.306   0.959  0.9793 -0.5872 -0.1591
   84ACE     C1 1162   1.984   1.776   0.075  0.0062  0.2559  0.0708
   84ACE     C2 1163   2.055   1.866   0.180  0.2617  0.1555  0.1410
   84ACE     O1 1164   2.167   1.914   0.153 -0.4022 -0.1044  0.4562
   84ACE     O2 1165   1.985   1.900   0.285 -0.6452 -0.1636 -0.2032
   84ACE     H1 1166   1.924   1.695   0.120 -1.8200  1.1368 -0.7378
   84ACE     H2 1167   2.042   1.750  -0.014 -1.6446 -3.3663 -0.0432
   84ACE     H3 1168   1.901   1.841   0.045 -0.1147 -0.0388 -0.2258
   84ACE     H4 1169   2.037   1.973   0.322  0.3893 -1.3308  0.6817
   85ACE     C1 1170   3.400   3.352   0.161  0.4021  0.5669  0.1615
   85ACE     C2 1171   3.484   3.226   0.186  0.0774 -0.4937 -0.4952
   85ACE     O1 1172   3.459   3.116   0.142 -0.6799 -0.5761  0.0806
   85ACE     O2 1173   3.579   3.246   0.275 -0.1736 -0.0491  0.5925
   85ACE     H1 1174   3.463   3.424   0.108  1.4657 -0.9144 -0.6402
   85ACE     H2 1175   3.385   3.409   0.253  1.0641  0.5206  0.2983
   85ACE     H3 1176   3.311   3.323   0.105  2.0516 -1.2686 -1.6082
   85ACE     H4 1177   3.638   3.169   0.267 -0.6753 -0.4230  0.4718
   86ACE     C1 1178   1.750   1.426   0.965 -0.6206 -0.3415 -0.1329
   86ACE     C2 1179   1.853   1.482   1.064 -0.4116 -0.5568  0.0005
   86ACE     O1 1180   1.959   1.531   1.039  0.1576  0.3552 -0.5377
   86ACE     O2 1181   1.819   1.447   1.188  0.2947 -0.1410 -0.2446
   86ACE     H1 1182   1.776   1.455   0.863 -1.5281  0.4199 -0.1641
   86ACE     H2 1183   1.651   1.446   1.009 -1.0063 -1.6136 -0.3800
   86ACE     H3 1184   1.753   1.317   0.970 -0.2811 -0.2834  1.0083
   86ACE     H4 1185   1.896   1.480   1.239  0.4012 -1.2043  0.2851
   87ACE     C1 1186   1.139   1.389   0.866  0.4814 -0.0187  0.7971
   87ACE     C2 1187   0.991   1.368   0.921 -0.3918  0.6217  0.5355
   87ACE     O1 1188   0.960   1.380   1.034  0.4749 -0.9269  0.0579
   87ACE     O2 1189   0.894   1.340   0.834  0.1702  0.0253 -0.2575
   87ACE     H1 1190   1.199   1.431   0.947 -0.3151 -0.2401  1.5113
   87ACE     H2 1191   1.145   1.436   0.767 -1.5033 -0.8314  0.2665
   87ACE     H3 1192   1.179   1.292   0.833 -1.5211 -0.8626  0.7934
   87ACE     H4 1193   0.824   1.311   0.895  0.8992  0.7363  0.9465
   88ACE     C1 1194   3.269   1.575   0.659 -0.0108  0.0231  0.3588
   88ACE     C2 1195   3.332   1.705   0.609 -0.4474 -0.5249  0.6936
   88ACE     O1 1196   3.306   1.758   0.503 -0.2562  0.1107 -0.0725
   88ACE     O2 1197   3.398   1.771   0.704  0.2149  0.3408  0.4661
   88ACE     H1 1198   3.341   1.492   0.654 -1.1927 -1.0727  1.0659
   88ACE     H2 1199   3.182   1.554   0.596 -0.0771  1.6533 -0.1107
   88ACE     H3 1200   3.242   1.588   0.765 -1.1833 -0.7950  0.1727
   88ACE     H4 1201   3.404   1.862   0.670 -0.3705  0.9681  2.0211
   89ACE     C1 1202   0.151   3.017   0.848 -0.2622  0.5543  0.5496
   89ACE     C2 1203   0.194   3.157   0.885  0.6957 -0.5746 -0.4482
   89ACE     O1 1204   0.129   3.255   0.853 -0.4744 -0.1729 -0.0801
   89ACE     O2 1205   0.318   3.173   0.937  0.1974  0.2212 -0.2550
   89ACE     H1 1206   0.178   2.940   0.921  2.2177  1.0171  0.1679
   89ACE     H2 1207   0.217   2.988   0.766  1.7896  2.9849  1.2798
   89ACE     H3 1208   0.047   3.010   0.815 -0.4692  2.3788  0.7668
   89ACE     H4 1209   0.321   3.270   0.931 -1.0886  0.3486  1.0353
   90ACE     C1 1210   0.480   0.762   0.520  0.3736  0.2439  0.2621
   90ACE     C2 1211   0.463   0.643   0.426 -0.3709 -0.5086 -0.2497
   90ACE     O1 1212   0.512   0.532   0.435 -0.2321 -0.2128  0.5476
   90ACE     O2 1213   0.371   0.656   0.332 -0.4329 -0.1042 -0.0630
   90ACE     H1 1214   0.503   0.724   0.620 -0.0620 -1.0687 -0.1232
   90ACE     H2 1215   0.392   0.828   0.513 -0.6170 -1.1851 -1.3171
   90ACE     H3 1216   0.565   0.818   0.480  1.4228 -2.3172 -1.2264
   90ACE     H4 1217   0.395   0.571   0.290  0.8357 -0.7231  1.8582
   91ACE     C1 1218   2.761   0.463   1.539 -0.4667 -0.8335 -0.5319
   91ACE     C2 1219   2.686   0.331   1.550 -0.2864  0.3275 -0.0124
   91ACE     O1 1220   2.740   0.232   1.593  0.2197  0.0894 -0.3228
   91ACE     O2 1221   2.565   0.330   1.497  0.2126  0.1436 -0.2267
   91ACE     H1 1222   2.839   0.447   1.463 -1.1904 -1.2522 -1.1972
   91ACE     H2 1223   2.824   0.487   1.626  0.2488  0.9631 -1.5033
   91ACE     H3 1224   2.707   0.554   1.509  0.0790 -0.2414  0.2336
   91ACE     H4 1225   2.544   0.236   1.510  3.1913 -0.3014  1.8803
   92ACE     C1 1226   1.065   2.289   1.182  0.1023 -0.0850 -0.5143
   92ACE     C2 1227   1.201   2.336   1.237 -0.5038  0.0183 -0.3437
   92ACE     O1 1228   1.253   2.442   1.213  0.6144 -0.5070  0.2428
   92ACE     O2 1229   1.274   2.243   1.299  0.5401 -0.4116 -0.7965
   92ACE     H1 1230   1.069   2.278   1.073  1.8909 -0.4594 -0.4260
   92ACE     H2 1231   0.985   2.360   1.207  1.3977  0.5987  1.8289
   92ACE     H3 1232   1.055   2.189   1.225  2.4697 -1.3148 -2.6793
   92ACE     H4 1233   1.349   2.299   1.324 -0.2340 -0.0292  0.6701
   93ACE     C1 1234   1.408   0.511   1.015  0.3684  0.2745  0.4591
   93ACE     C2 1235   1.556   0.530   0.997 -0.2873 -0.1414 -0.1653
   93ACE     O1 1236   1.626   0.486   0.912 -0.2443 -0.5354 -0.1734
   93ACE     O2 1237   1.609   0.594   1.098  0.1166 -0.0685 -0.0778
   93ACE     H1 1238   1.359   0.589   1.076 -1.6259 -0.8640  0.3387
   93ACE     H2 1239   1.396   0.422   1.078  0.1927  0.5884  0.8783
   93ACE     H3 1240   1.355   0.502   0.920 -1.0783  0.6338  1.1983
   93ACE     H4 1241   1.704   0.592   1.076  0.5351 -1.2644  1.7486
   94ACE     C1 1242   0.568   1.216   1.183 -0.4384  0.2172  0.2531
   94ACE     C2 1243   0.690   1.238   1.117 -1.6878 -0.0416 -0.2177
   94ACE     O1 1244   0.714   1.234   0.998 -0.1173 -0.6853 -0.3340
   94ACE     O2 1245   0.793   1.241   1.204  0.6433  0.6035  0.0972
   94ACE     H1 1246   0.579   1.137   1.259  1.1637 -0.3226 -0.5280
   94ACE     H2 1247   0.491   1.195   1.108  1.9857  0.9220 -2.4985
   94ACE     H3 1248   0.533   1.290   1.256  0.6790 -0.4927  1.5266
   94ACE     H4 1249   0.866   1.255   1.141  1.1043  3.0804  1.1278
   95ACE     C1 1250   3.178   0.382   1.565  0.5450  0.3539 -0.5463
   95ACE     C2 1251   3.288   0.281   1.583 -0.5357  0.4776  0.1579
   95ACE     O1 1252   3.409   0.310   1.584  0.6093  0.4389 -0.5230
   95ACE     O2 1253   3.252   0.154   1.551  0.2758 -0.1984 -0.1934
   95ACE     H1 1254   3.090   0.353   1.623  0.1508  1.7909 -0.4223
   95ACE     H2 1255   3.140   0.383   1.462  1.3440  0.7470 -0.8459
   95ACE     H3 1256   3.219   0.478   1.599 -0.1222  0.6041 -0.4487
   95ACE     H4 1257   3.331   0.098   1.562 -0.2805 -0.9059  0.2700
   96ACE     C1 1258   2.472   3.298   1.498 -0.5807  0.7893 -0.9289
   96ACE     C2 1259   2.538   3.425   1.548  0.0884  0.1337 -0.0433
   96ACE     O1 1260   2.483   3.531   1.568  0.4291 -0.9049  0.0093
   96ACE     O2 1261   2.666   3.415   1.557 -0.0947  0.2268  0.2788
   96ACE     H1 1262   2.363   3.309   1.504 -0.4748  0.9507  1.0770
   96ACE     H2 1263   2.526   3.214   1.544 -0.0475  1.2967 -0.6175
   96ACE     H3 1264   2.514   3.294   1.397  3.1558 -1.2395  0.5936
   96ACE     H4 1265   2.690   3.507   1.576  2.4896  0.0492 -1.7797
   97ACE     C1 1266   1.538   2.071   1.543  0.1090 -1.4437  0.3191
   97ACE     C2 1267   1.568   2.216   1.542  0.0086  0.2658 -0.1275
   97ACE     O1 1268   1.665   2.259   1.592  0.2381 -0.5021 -0.0313
   97ACE     O2 1269   1.482   2.302   1.480  0.0320 -0.0965  0.3486
   97ACE     H1 1270   1.433   2.062   1.572  0.0117  0.6915  0.7320
   97ACE     H2 1271   1.606   2.002   1.595 -0.2149 -1.1662  1.1188
   97ACE     H3 1272   1.534   2.035   1.439 -2.1348 -0.2442 -0.0284
   97ACE     H4 1273   1.526   2.386   1.501  1.0815 -0.8853  1.3970
   98ACE     C1 1274   2.822   2.220   1.559 -0.1370  0.5327  0.7185
   98ACE     C2 1275   2.674   2.174   1.564  0.1237 -0.5060 -0.0177
   98ACE     O1 1276   2.580   2.238   1.517 -0.7544  0.2066 -0.2860
   98ACE     O2 1277   2.658   2.046   1.585 -0.2270 -0.5719 -0.5263
   98ACE     H1 1278   2.830   2.277   1.466 -1.5376  1.6444  1.2668
   98ACE     H2 1279   2.886   2.131   1.558  0.6467  1.1103 -1.3154
   98ACE     H3 1280   2.851   2.276   1.649 -1.0228 -0.3181  1.5425
   98ACE     H4 1281   2.579   2.028   1.530  0.1663 -1.2421 -0.8901
   99ACE     C1 1282   2.267   0.835   3.723 -0.2537 -0.1425 -0.4462
   99ACE     C2 1283   2.402   0.909   3.728  0.0554 -0.6647 -0.7531
   99ACE     O1 1284   2.513   0.853   3.724 -0.0604  0.4279  0.3245
   99ACE     O2 1285   2.403   1.023   3.788  0.1700 -0.3667 -0.1073
   99ACE     H1 1286   2.216   0.850   3.627  2.3272 -1.0813 -1.9946
   99ACE     H2 1287   2.203   0.872   3.804 -1.6858 -2.7217 -0.3320
   99ACE     H3 1288   2.281   0.727   3.732 -0.7749 -0.3766 -2.1075
   99ACE     H4 1289   2.495   1.052   3.772  0.3344 -0.4675  0.6548
  100ACE     C1 1290   1.957   1.022   0.754  0.5204 -0.0213 -0.3128
  100ACE     C2 1291   1.957   0.874   0.800 -0.0307 -0.6101 -0.1666
  100ACE     O1 1292   2.058   0.821   0.833  0.1488  0.1140  0.4991
  100ACE     O2 1293   1.838   0.810   0.790 -0.5783 -0.4256 -0.6062
  100ACE     H1 1294   1.952   1.028   0.645  1.1036  0.3714 -0.3241
  100ACE     H2 1295   2.038   1.083   0.797 -1.1158  1.1867  1.1441
  100ACE     H3 1296   1.864   1.067   0.792  0.9490 -1.5259  2.6762
  100ACE     H4 1297   1.870   0.722   0.815 -0.3586  0.0728  0.9141
  101ACE     C1 1298   3.301   2.007   1.538  0.1748 -0.0506 -0.0682
  101ACE     C2 1299   3.288   1.869   1.489 -0.0775 -0.1453 -0.3109
  101ACE     O1 1300   3.247   1.777   1.559  0.4935  0.1096 -0.2385
  101ACE     O2 1301   3.363   1.839   1.384  0.0389  0.1881  0.5829
  101ACE     H1 1302   3.403   2.016   1.576 -0.1307  2.0094  0.2894
  101ACE     H2 1303   3.228   2.026   1.618  0.6959 -1.1487  0.6678
  101ACE     H3 1304   3.288   2.076   1.453 -0.0239  0.2473  0.2029
  101ACE     H4 1305   3.343   1.744   1.381  1.3591 -0.0592 -1.2328
  102ACE     C1 1306   1.025   0.280   1.542 -0.2880  0.5445 -0.0587
  102ACE     C2 1307   0.877   0.296   1.539  0.5590 -0.5888 -0.1672
  102ACE     O1 1308   0.794   0.204   1.550  0.0051  0.1314 -0.7875
  102ACE     O2 1309   0.837   0.421   1.548  0.0089 -0.1364 -0.7242
  102ACE     H1 1310   1.075   0.350   1.610 -0.1996  1.2780 -0.8643
  102ACE     H2 1311   1.067   0.318   1.448 -0.9181 -1.5677 -1.2189
  102ACE     H3 1312   1.056   0.180   1.574 -1.2737  0.9347  2.2261
  102ACE     H4 1313   0.742   0.412   1.565  0.3221 -0.5097  0.8675
  103ACE     C1 1314   2.854   1.225   0.403  0.0532 -0.7131 -0.1106
  103ACE     C2 1315   2.711   1.255   0.364  0.0783  0.1754 -0.1027
  103ACE     O1 1316   2.630   1.308   0.430 -0.0154 -0.4605  0.5071
  103ACE     O2 1317   2.700   1.244   0.233 -0.0417 -0.2020 -0.3405
  103ACE     H1 1318   2.876   1.249   0.508 -0.3086  0.1514 -0.2253
  103ACE     H2 1319   2.922   1.286   0.343 -0.1731 -1.2796 -0.9482
  103ACE     H3 1320   2.872   1.122   0.370 -1.4566 -0.6347 -1.2579
  103ACE     H4 1321   2.616   1.288   0.211  0.3236  1.5130  1.5230
  104ACE     C1 1322   1.360   1.003   1.535  0.1573  0.0999  0.2401
  104ACE     C2 1323   1.230   1.084   1.554  0.4202 -0.1812 -0.8581
  104ACE     O1 1324   1.119   1.033   1.565 -0.8023  0.0237  0.3762
  104ACE     O2 1325   1.268   1.212   1.585  0.5367 -0.5062 -0.1185
  104ACE     H1 1326   1.357   0.903   1.489 -1.7081  0.4812 -0.5147
  104ACE     H2 1327   1.401   1.009   1.636 -0.9294  2.5549  0.5790
  104ACE     H3 1328   1.432   1.061   1.476 -0.5546 -1.2178 -2.0006
  104ACE     H4 1329   1.181   1.252   1.604  0.9462 -0.5686  2.0233
  105ACE     C1 1330   1.964   2.508   0.120 -0.1297  0.4873 -0.3542
  105ACE     C2 1331   1.895   2.437   0.240 -0.3801 -0.2991  0.8155
  105ACE     O1 1332   1.946   2.435   0.353 -0.0933 -0.2225  0.0509
  105ACE     O2 1333   1.831   2.326   0.202  0.5943 -0.2419 -0.1096
  105ACE     H1 1334   1.975   2.437   0.037  0.0224 -0.5604  0.5533
  105ACE     H2 1335   2.058   2.558   0.146  0.8704 -0.3210 -2.2863
  105ACE     H3 1336   1.898   2.583   0.076  0.4639  0.5575 -1.1443
  105ACE     H4 1337   1.823   2.274   0.284 -2.1332 -2.0599 -1.4585
  106ACE     C1 1338   1.042   0.053   1.093  0.1121 -0.4559  0.4921
  106ACE     C2 1339   1.085   0.196   1.068  0.4722  0.0200 -0.5619
  106ACE     O1 1340   1.171   0.254   1.128 -0.2492  0.4553 -0.8147
  106ACE     O2 1341   1.011   0.261   0.979 -0.3807  0.1498 -0.1667
  106ACE     H1 1342   1.045   0.004   0.995  1.9606  1.8041 -0.6322
  106ACE     H2 1343   0.933   0.054   1.111 -0.2664 -2.4063 -1.4409
  106ACE     H3 1344   1.103   0.007   1.171  2.0111 -0.5626 -1.0264
  106ACE     H4 1345   1.058   0.346   0.966 -0.7828  0.6700  1.6592
  107ACE     C1 1346   1.720   2.467   0.782 -0.1929 -0.1000  0.1754
  107ACE     C2 1347   1.746   2.461   0.632 -0.2846 -0.4112  0.5317
  107ACE     O1 1348   1.696   2.528   0.550  0.2505  0.6756 -0.2518
  107ACE     O2 1349   1.863   2.395   0.609 -0.2454 -0.6934  0.0432
  107ACE     H1 1350   1.634   2.529   0.809  0.9932  1.8931 -0.4976
  107ACE     H2 1351   1.809   2.507   0.831 -1.3740  1.5439  1.0432
  107ACE     H3 1352   1.710   2.362   0.811 -1.2556  0.0680  0.4561
  107ACE     H4 1353   1.892   2.421   0.520  0.0822  1.9250  0.8749
  108ACE     C1 1354   2.795   3.282   0.242 -0.0904  0.0463 -0.1593
  108ACE     C2 1355   2.929   3.280   0.326  0.6852 -0.5574  0.0070
  108ACE     O1 1356   2.968   3.354   0.411  0.3207 -0.1287 -0.0143
  108ACE     O2 1357   3.020   3.195   0.269 -0.8161 -0.2719 -0.5540
  108ACE     H1 1358   2.781   3.183   0.197  1.5398 -1.0455  1.6579
  108ACE     H2 1359   2.820   3.344   0.155  0.6878  1.1847  0.8627
  108ACE     H3 1360   2.712   3.339   0.285  1.1973  1.2222  0.8066
  108ACE     H4 1361   3.093   3.209   0.332 -2.2440 -0.7222  1.2238
  109ACE     C1 1362   3.013   0.523   1.195 -0.1754 -0.8784  0.0863
  109ACE     C2 1363   2.939   0.647   1.237  0.5889  0.3434  0.3855
  109ACE     O1 1364   2.818   0.655   1.258 -0.3347 -0.3780  0.0960
  109ACE     O2 1365   3.024   0.747   1.265 -0.6057 -0.6568 -0.2612
  109ACE     H1 1366   3.093   0.502   1.266  0.1590  0.6040  0.1698
  109ACE     H2 1367   3.070   0.562   1.109 -1.0454  0.9214  0.2910
  109ACE     H3 1368   2.938   0.444   1.184 -2.6695  1.4242 -0.0688
  109ACE     H4 1369   2.963   0.822   1.257  2.0502  1.6213  0.0560
  110ACE     C1 1370   1.412   2.557   3.353  0.9997 -0.2312 -0.8332
  110ACE     C2 1371   1.546   2.636   3.373  0.0435  0.1493 -0.2629
  110ACE     O1 1372   1.573   2.709   3.464  0.1584 -0.0959 -0.3452
  110ACE     O2 1373   1.615   2.645   3.259  0.1389  0.2259 -0.1474
  110ACE     H1 1374   1.331   2.631   3.359  0.9061 -0.3589 -0.5217
  110ACE     H2 1375   1.409   2.483   3.433 -0.7355  0.3963 -0.2882
  110ACE     H3 1376   1.425   2.494   3.265 -0.5007 -0.0957 -1.1689
  110ACE     H4 1377   1.667   2.723   3.285 -1.6269  0.3125  3.5235
  111ACE     C1 1378   0.270   0.019   1.332 -0.1352 -0.1934  0.3336
  111ACE     C2 1379   0.161   0.070   1.410  0.3122 -0.2591  0.3522
  111ACE     O1 1380   0.119   0.018   1.513  0.4240 -0.6833 -0.4939
  111ACE     O2 1381   0.129   0.192   1.373 -0.3343  0.6508  0.5747
  111ACE     H1 1382   0.331   0.103   1.298 -0.3274 -1.5835 -3.8477
  111ACE     H2 1383   0.235  -0.037   1.244 -0.5136  1.7598 -0.7808
  111ACE     H3 1384   0.316  -0.060   1.393  3.4489  0.5022 -1.3452
  111ACE     H4 1385   0.085   0.234   1.449  1.6293  1.8329  1.1120
  112ACE     C1 1386   1.604   0.218   1.212  1.1469  0.7474  1.0099
  112ACE     C2 1387   1.744   0.263   1.196 -0.3918  0.0676  0.3017
  112ACE     O1 1388   1.781   0.377   1.197  0.2643  0.6394  0.1783
  112ACE     O2 1389   1.828   0.167   1.152  0.1075 -0.5345  0.0230
  112ACE     H1 1390   1.567   0.180   1.116  0.0683  2.1829  0.8346
  112ACE     H2 1391   1.540   0.305   1.234 -0.3375  0.1480 -0.8593
  112ACE     H3 1392   1.614   0.139   1.287  0.9217 -0.5853 -0.3354
  112ACE     H4 1393   1.913   0.213   1.135  0.8604 -2.4883 -1.6541
  113ACE     C1 1394   2.160   3.203   0.689 -0.0936 -0.2125  0.8860
  113ACE     C2 1395   2.265   3.222   0.568  0.2381 -0.4134 -0.5436
  113ACE     O1 1396   2.246   3.194   0.452  0.1943  0.4772 -0.5891
  113ACE     O2 1397   2.387   3.270   0.610  0.3533  0.6902 -0.0931
  113ACE     H1 1398   2.084   3.282   0.680  0.6585  0.3632 -0.6834
  113ACE     H2 1399   2.220   3.213   0.780  0.6453  1.1857  0.2734
  113ACE     H3 1400   2.104   3.109   0.687 -0.0119 -0.2489 -0.1994
  113ACE     H4 1401   2.443   3.266   0.531 -0.0380  1.1372 -0.3901
  114ACE     C1 1402   1.725   1.663   3.357 -0.4303 -0.3510 -0.2296
  114ACE     C2 1403   1.839   1.648   3.261 -0.2751  0.1997 -0.4064
  114ACE     O1 1404   1.899   1.543   3.249  0.1835  0.0221 -0.1216
  114ACE     O2 1405   1.888   1.762   3.202  0.3162  0.3573  0.1510
  114ACE     H1 1406   1.712   1.581   3.428  0.4460  1.0520  1.5625
  114ACE     H2 1407   1.635   1.679   3.295 -1.1190  0.0872  0.8761
  114ACE     H3 1408   1.724   1.758   3.411 -0.4537 -1.4910  1.8156
  114ACE     H4 1409   1.979   1.740   3.173 -0.0574  0.5481 -1.1955
  115ACE     C1 1410   3.044   2.551   0.105 -0.2060 -0.4285  0.3160
  115ACE     C2 1411   2.971   2.512   0.229 -0.8038 -0.3823  0.0406
  115ACE     O1 1412   2.926   2.591   0.309  0.2964  0.1046  0.1536
  115ACE     O2 1413   2.995   2.388   0.270  0.5196 -0.3379 -0.1783
  115ACE     H1 1414   3.036   2.466   0.036 -1.5979  1.6759 -2.1967
  115ACE     H2 1415   3.150   2.556   0.130 -0.2598  0.2006  0.4161
  115ACE     H3 1416   3.022   2.650   0.064  0.7737  0.0517  0.9413
  115ACE     H4 1417   2.968   2.390   0.363 -1.2738 -1.2450 -0.6489
  116ACE     C1 1418   1.776   2.725   1.508 -0.6652  0.7065 -0.2590
  116ACE     C2 1419   1.740   2.583   1.533  0.9749  0.3785 -0.5225
  116ACE     O1 1420   1.633   2.536   1.500 -0.3979 -0.2449 -0.0941
  116ACE     O2 1421   1.836   2.495   1.567  0.5560 -0.2272 -0.3765
  116ACE     H1 1422   1.883   2.745   1.495  0.0062 -0.0958  3.4219
  116ACE     H2 1423   1.745   2.793   1.588 -0.0542  0.4515  0.1986
  116ACE     H3 1424   1.729   2.760   1.415  0.3977 -1.7820 -1.7719
  116ACE     H4 1425   1.788   2.411   1.553 -0.3769  0.5589 -1.9349
  117ACE     C1 1426   1.430   2.869   1.104  0.5052 -0.0957 -0.4109
  117ACE     C2 1427   1.411   2.723   1.133 -0.0276 -0.4486  0.0236
  117ACE     O1 1428   1.498   2.642   1.123  0.0830 -0.2434 -0.1494
  117ACE     O2 1429   1.291   2.695   1.174 -0.1317 -0.1856  0.1804
  117ACE     H1 1430   1.532   2.901   1.078  1.1204 -2.2603 -0.7540
  117ACE     H2 1431   1.390   2.931   1.186  0.1844  0.4297 -0.9604
  117ACE     H3 1432   1.353   2.887   1.028 -0.6517  0.8870  0.9682
  117ACE     H4 1433   1.288   2.598   1.170 -0.1683 -0.1346 -1.1298
  118ACE     C1 1434   3.182   2.074   0.056 -0.6279 -0.1666  0.1677
  118ACE     C2 1435   3.077   2.130  -0.039 -0.5576  0.1259 -0.8580
  118ACE     O1 1436   3.063   2.251  -0.062 -0.0846  0.1268  0.4573
  118ACE     O2 1437   3.012   2.040  -0.111 -0.0187 -0.4197  0.5587
  118ACE     H1 1438   3.249   2.155   0.087 -0.3508 -0.6322  0.7852
  118ACE     H2 1439   3.228   1.978   0.032  0.5645  0.4365 -0.0021
  118ACE     H3 1440   3.125   2.055   0.148 -2.6879 -0.6518 -1.1822
  118ACE     H4 1441   2.957   2.096  -0.168  0.8270  0.6334  0.7642
  119ACE     C1 1442   1.150   2.005   1.595  0.5857 -0.1669  0.8649
  119ACE     C2 1443   1.190   1.857   1.582  0.6738 -0.7046 -0.0935
  119ACE     O1 1444   1.119   1.764   1.592  0.1638 -0.3769 -0.4622
  119ACE     O2 1445   1.318   1.837   1.558  0.1036  0.1229 -0.5852
  119ACE     H1 1446   1.052   2.014   1.643  0.4439 -0.0212  0.5496
  119ACE     H2 1447   1.152   2.053   1.496  2.6650 -1.4248  0.2652
  119ACE     H3 1448   1.234   2.047   1.651  0.3871 -0.6262  1.5149
  119ACE     H4 1449   1.321   1.741   1.573 -0.7206  0.6117  2.9739
  120ACE     C1 1450   0.447   0.208   0.165 -0.0652 -0.2359 -0.2100
  120ACE     C2 1451   0.336   0.311   0.150 -0.1376 -0.3275 -1.0279
  120ACE     O1 1452   0.333   0.427   0.190 -0.0813 -0.3137  0.0143
  120ACE     O2 1453   0.225   0.252   0.112 -0.0680  0.0261  0.4398
  120ACE     H1 1454   0.479   0.180   0.064  0.0337  0.6442 -0.4336
  120ACE     H2 1455   0.414   0.120   0.221 -1.0976  0.6109  0.5372
  120ACE     H3 1456   0.525   0.259   0.223 -1.8851 -1.4339  3.4250
  120ACE     H4 1457   0.158   0.321   0.127 -2.6363 -2.6947  1.8923
  121ACE     C1 1458   2.426   1.735   1.515  0.6142 -0.0105  0.1562
  121ACE     C2 1459   2.343   1.866   1.530 -0.5756  0.3829  0.5704
  121ACE     O1 1460   2.397   1.975   1.522  0.2908  0.2090 -0.3545
  121ACE     O2 1461   2.229   1.849   1.587 -0.0321 -0.1961  0.2360
  121ACE     H1 1462   2.460   1.707   1.415  0.5948  2.7021 -0.6277
  121ACE     H2 1463   2.374   1.645   1.550  1.1408 -0.6383 -0.6435
  121ACE     H3 1464   2.516   1.752   1.575 -0.5468 -1.6402  2.4864
  121ACE     H4 1465   2.200   1.935   1.621 -3.1436 -1.1008  0.0870
  122ACE     C1 1466   3.250   0.708   0.830 -0.4766  0.5212 -0.0494
  122ACE     C2 1467   3.307   0.570   0.790  0.4811 -0.0022  0.4527
  122ACE     O1 1468   3.426   0.544   0.801  0.5633  0.9573  0.2080
  122ACE     O2 1469   3.227   0.503   0.704 -0.1460 -0.6758  0.2849
  122ACE     H1 1470   3.336   0.765   0.866  0.2717 -0.8352  0.3788
  122ACE     H2 1471   3.175   0.697   0.910  0.6010 -0.3335  0.8619
  122ACE     H3 1472   3.200   0.754   0.745 -2.2778  0.3901  0.9181
  122ACE     H4 1473   3.283   0.429   0.674 -0.4546 -0.6645 -0.3264
  123ACE     C1 1474   1.817   2.387   3.532 -0.0035  0.6348 -0.1468
  123ACE     C2 1475   1.671   2.413   3.561  0.0834  0.1962  0.6374
  123ACE     O1 1476   1.577   2.339   3.526  0.0975 -0.1291 -0.2193
  123ACE     O2 1477   1.659   2.478   3.679 -0.3911 -0.3946  0.4676
  123ACE     H1 1478   1.871   2.416   3.622 -1.8334 -0.0420  1.1939
  123ACE     H2 1479   1.834   2.467   3.459 -0.0094 -0.1808 -1.0673
  123ACE     H3 1480   1.827   2.285   3.492  0.2034  0.6922 -0.2391
  123ACE     H4 1481   1.565   2.472   3.703  0.2462  0.0034  3.2200
  124ACE     C1 1482   0.940   3.402   3.623  0.6167  0.1494  0.5033
  124ACE     C2 1483   0.924   3.259   3.661 -0.1067  0.2185  0.3611
  124ACE     O1 1484   0.822   3.199   3.632  0.4257 -0.3456 -0.0206
  124ACE     O2 1485   1.000   3.225   3.768 -0.4881 -0.0811 -0.3738
  124ACE     H1 1486   1.048   3.416   3.605  0.5378 -0.7188 -0.7318
  124ACE     H2 1487   0.907   3.458   3.710 -0.4789  0.7470 -0.2889
  124ACE     H3 1488   0.871   3.419   3.540 -0.4955  0.8565  1.5608
  124ACE     H4 1489   0.965   3.142   3.803 -2.9497  1.6083  1.3624
  125ACE     C1 1490   0.854   0.543   0.311  0.1339 -0.1777  0.1199
  125ACE     C2 1491   0.838   0.601   0.172  0.1546 -0.5837 -0.4267
  125ACE     O1 1492   0.919   0.590   0.080 -0.0801  0.1918 -0.0284
  125ACE     O2 1493   0.718   0.664   0.149 -0.4462 -0.0933 -0.2816
  125ACE     H1 1494   0.944   0.481   0.317 -0.1773 -0.3980  2.7188
  125ACE     H2 1495   0.764   0.482   0.325  0.6689 -1.4936 -1.9034
  125ACE     H3 1496   0.846   0.625   0.383  1.6571  0.7825 -0.7783
  125ACE     H4 1497   0.734   0.710   0.064 -2.0445  0.9175 -0.0612
  126ACE     C1 1498   1.584   2.128   0.590 -0.1570 -0.6080  0.3854
  126ACE     C2 1499   1.606   2.138   0.442 -0.4000 -0.2070 -0.0343
  126ACE     O1 1500   1.713   2.175   0.393  0.3876 -0.5771  0.0373
  126ACE     O2 1501   1.492   2.152   0.376  0.1476  0.5991 -0.1488
  126ACE     H1 1502   1.677   2.147   0.646  0.3507  0.0109 -0.6601
  126ACE     H2 1503   1.555   2.024   0.611 -1.9669 -0.1612  0.1548
  126ACE     H3 1504   1.499   2.186   0.626  1.9477  1.3387  2.3975
  126ACE     H4 1505   1.535   2.181   0.294  0.0305 -2.6655 -1.4392
  127ACE     C1 1506   1.574   2.060   3.680  0.3337  0.1466  0.0769
  127ACE     C2 1507   1.633   2.128   3.803 -0.1005  0.2056 -0.2853
  127ACE     O1 1508   1.571   2.176   3.903  0.5781  0.4178 -0.7641
  127ACE     O2 1509   1.761   2.149   3.799 -0.7445  0.7803  0.0084
  127ACE     H1 1510   1.608   2.084   3.579  1.7123  2.3197  1.0017
  127ACE     H2 1511   1.467   2.063   3.700 -0.3102 -0.5872 -3.0088
  127ACE     H3 1512   1.603   1.954   3.682  3.2377  0.9006  1.0661
  127ACE     H4 1513   1.776   2.214   3.869 -1.5431  0.9731 -0.0057
  128ACE     C1 1514   2.655   1.477   1.184 -0.1431 -0.5936  0.0123
  128ACE     C2 1515   2.556   1.563   1.097 -0.6298 -0.5361 -0.4092
  128ACE     O1 1516   2.568   1.685   1.093  0.1456  0.4745 -0.3324
  128ACE     O2 1517   2.434   1.512   1.099  0.3823  0.6684  0.7978
  128ACE     H1 1518   2.742   1.541   1.205  0.3486 -1.2459  0.0095
  128ACE     H2 1519   2.685   1.384   1.134 -0.7217 -1.4055  1.1594
  128ACE     H3 1520   2.608   1.441   1.276  1.0698  3.4868  2.3447
  128ACE     H4 1521   2.376   1.589   1.105  0.9330  1.2128 -0.7019
  129ACE     C1 1522   1.362   0.198   1.554 -0.1299  0.4247  0.4089
  129ACE     C2 1523   1.482   0.104   1.566 -0.0516 -0.7592  0.5002
  129ACE     O1 1524   1.471  -0.019   1.571  0.1678  0.3029 -0.3267
  129ACE     O2 1525   1.599   0.168   1.573  0.4858  0.4741 -0.2649
  129ACE     H1 1526   1.266   0.147   1.569  0.5875 -1.5038 -1.3211
  129ACE     H2 1527   1.376   0.250   1.459 -2.1331 -0.5438 -0.4586
  129ACE     H3 1528   1.375   0.273   1.633  0.7885 -0.2272  0.8846
  129ACE     H4 1529   1.657   0.092   1.588  0.1056 -0.5109 -3.5526
  130ACE     C1 1530   1.489   1.261   0.721 -0.2732  0.3118 -0.2871
  130ACE     C2 1531   1.422   1.280   0.585 -0.6251  1.0758  0.5547
  130ACE     O1 1532   1.376   1.178   0.526 -0.2301 -0.4504 -0.2803
  130ACE     O2 1533   1.364   1.399   0.571  0.7455  0.2001 -0.4993
  130ACE     H1 1534   1.592   1.226   0.710 -0.5870 -0.4884 -0.7195
  130ACE     H2 1535   1.447   1.177   0.777 -1.6168  1.2203  0.0935
  130ACE     H3 1536   1.495   1.352   0.782  0.8549  2.0767 -2.9373
  130ACE     H4 1537   1.294   1.386   0.504  0.3029  0.1561 -0.0340
  131ACE     C1 1538   2.537   0.921   0.902 -0.4109 -0.7932  0.1073
  131ACE     C2 1539   2.383   0.926   0.911 -0.1887 -0.0304 -0.6770
  131ACE     O1 1540   2.324   1.004   0.989 -0.5858  0.2365  0.1789
  131ACE     O2 1541   2.327   0.811   0.881 -0.0879 -0.2652  0.0141
  131ACE     H1 1542   2.586   1.009   0.944 -1.7894 -0.1910  0.5046
  131ACE     H2 1543   2.568   0.906   0.798  2.0718  2.3001  0.3358
  131ACE     H3 1544   2.578   0.834   0.956  1.1503  0.1883  0.5264
  131ACE     H4 1545   2.238   0.831   0.915  0.0530  0.6487 -0.1428
  132ACE     C1 1546   1.758   2.249   1.142  0.3390  0.7226 -0.0870
  132ACE     C2 1547   1.651   2.356   1.144 -0.1021 -0.1589  0.5515
  132ACE     O1 1548   1.581   2.362   1.049  0.5011 -0.0439 -0.9263
  132ACE     O2 1549   1.683   2.462   1.209 -0.3064 -0.4839  0.0793
  132ACE     H1 1550   1.713   2.150   1.128  1.0506  0.4530 -0.4923
  132ACE     H2 1551   1.818   2.242   1.234  1.4908 -1.4946 -0.9564
  132ACE     H3 1552   1.820   2.257   1.052 -0.9426 -0.1120 -1.0479
  132ACE     H4 1553   1.620   2.525   1.169  0.0313 -1.4770 -2.0934
  133ACE     C1 1554   2.184   1.273   1.022  0.2103  0.5151  0.1923
  133ACE     C2 1555   2.069   1.213   1.121 -0.1795  0.0050  0.0044
  133ACE     O1 1556   1.960   1.176   1.088  0.1248 -0.7685  0.4850
  133ACE     O2 1557   2.099   1.207   1.252  0.1118 -0.2379 -0.1493
  133ACE     H1 1558   2.170   1.257   0.915  0.7587  0.1736  0.1706
  133ACE     H2 1559   2.279   1.236   1.062 -1.0119 -1.2258  1.5251
  133ACE     H3 1560   2.206   1.378   1.046 -0.8971  0.4643  1.4643
  133ACE     H4 1561   2.025   1.154   1.287  0.6700 -1.3003 -0.5571
  134ACE     C1 1562   2.989   2.103   1.139 -0.4073 -0.1112 -0.0225
  134ACE     C2 1563   2.969   2.251   1.172  0.2153  0.0258 -0.5100
  134ACE     O1 1564   2.861   2.306   1.183  0.5615 -0.3380  0.2575
  134ACE     O2 1565   3.082   2.304   1.229  0.4154  0.4897 -0.5991
  134ACE     H1 1566   2.998   2.104   1.030  0.8989 -2.0118  0.0424
  134ACE     H2 1567   2.901   2.040   1.156  0.7893 -1.7023  0.4164
  134ACE     H3 1568   3.085   2.060   1.169 -0.3051  0.4189  0.4188
  134ACE     H4 1569   3.065   2.400   1.234  0.4349  0.4539  0.1455
  135ACE     C1 1570   2.767   2.007   0.771  1.0183 -0.4489 -0.2553
  135ACE     C2 1571   2.746   2.029   0.626 -0.4810  0.1843  0.2634
  135ACE     O1 1572   2.723   2.140   0.582  0.2237  0.5277 -0.6474
  135ACE     O2 1573   2.798   1.939   0.553  0.0280  0.3110 -0.0241
  135ACE     H1 1574   2.755   2.094   0.836 -2.2217 -0.4738 -0.7004
  135ACE     H2 1575   2.871   1.974   0.781  1.5822  0.2965 -3.2750
  135ACE     H3 1576   2.702   1.924   0.802  0.6611  0.2032  0.7667
  135ACE     H4 1577   2.804   1.991   0.471 -1.6499 -0.8612 -0.9343
  136ACE     C1 1578   2.303   2.024   0.540 -0.8927  0.3087  0.1563
  136ACE     C2 1579   2.278   2.060   0.396  0.7507 -0.3518 -0.3090
  136ACE     O1 1580   2.365   2.094   0.319  0.0264  0.7393  0.4939
  136ACE     O2 1581   2.150   2.107   0.381 -0.1331 -0.0772 -0.1642
  136ACE     H1 1582   2.228   1.950   0.570 -1.7543  0.9197 -0.4217
  136ACE     H2 1583   2.293   2.110   0.608  1.9806  0.9478 -0.1611
  136ACE     H3 1584   2.403   1.981   0.543  0.3228  3.0304 -0.0070
  136ACE     H4 1585   2.161   2.147   0.293 -1.2775 -0.1721 -0.3519
  137ACE     C1 1586   1.962   2.569   1.154 -0.1610 -0.8498  0.3197
  137ACE     C2 1587   2.094   2.640   1.164 -1.1260 -0.2040  0.8304
  137ACE     O1 1588   2.125   2.728   1.089 -0.1566  0.4276 -0.1243
  137ACE     O2 1589   2.189   2.556   1.199  0.1409  0.5151  0.2052
  137ACE     H1 1590   1.950   2.501   1.239 -1.4075 -0.4118  0.5016
  137ACE     H2 1591   1.967   2.497   1.071  0.0715 -1.2593  0.6907
  137ACE     H3 1592   1.875   2.636   1.154 -0.4391 -1.1751 -1.4621
  137ACE     H4 1593   2.269   2.612   1.198  0.0917  0.5832 -1.4883
  138ACE     C1 1594   0.468   1.497   1.003 -0.1178 -1.2588 -0.7690
  138ACE     C2 1595   0.452   1.558   1.142 -0.2675  0.3887 -0.2898
  138ACE     O1 1596   0.541   1.622   1.190 -0.2473 -0.0449  0.4945
  138ACE     O2 1597   0.366   1.488   1.218 -1.0993  0.0493  0.0207
  138ACE     H1 1598   0.461   1.389   1.018 -1.6894 -1.1926 -0.8612
  138ACE     H2 1599   0.559   1.541   0.962 -0.0347 -0.1475  0.5662
  138ACE     H3 1600   0.382   1.520   0.940 -1.1271 -0.8245  0.7220
  138ACE     H4 1601   0.372   1.542   1.299 -0.3937 -2.4514  1.7180
  139ACE     C1 1602   0.351   1.627   0.447 -0.0749  0.0156 -0.0926
  139ACE     C2 1603   0.346   1.687   0.589  0.4345  0.0300 -0.2652
  139ACE     O1 1604   0.336   1.806   0.605  0.9404 -0.5117  0.0860
  139ACE     O2 1605   0.307   1.606   0.692  0.4452 -0.0471  0.1060
  139ACE     H1 1606   0.419   1.542   0.452  0.0524  0.1648  0.8728
  139ACE     H2 1607   0.369   1.699   0.366  1.7723  0.5702  0.7815
  139ACE     H3 1608   0.256   1.574   0.431 -0.0198 -0.4685  1.1568
  139ACE     H4 1609   0.278   1.671   0.758 -0.5406 -0.2723 -0.0987
  140ACE     C1 1610   0.223   2.860   0.275 -1.0465  0.2696  0.0752
  140ACE     C2 1611   0.323   2.947   0.345  0.2689  0.7099 -0.4438
  140ACE     O1 1612   0.363   3.054   0.303 -0.2309  0.6488 -0.1347
  140ACE     O2 1613   0.337   2.920   0.474 -0.0030  0.4379 -0.4174
  140ACE     H1 1614   0.216   2.880   0.168  0.0394  1.9337  0.2973
  140ACE     H2 1615   0.132   2.862   0.336 -1.0939 -1.1517  0.0642
  140ACE     H3 1616   0.260   2.757   0.286  0.1702  0.4003 -2.4837
  140ACE     H4 1617   0.350   3.009   0.512 -1.1341  0.0317  0.9672
  141ACE     C1 1618   2.008   0.281   1.518  0.0834  0.4417 -0.2341
  141ACE     C2 1619   2.118   0.192   1.557  0.9015 -0.3848 -0.1737
  141ACE     O1 1620   2.106   0.073   1.577 -0.2387 -0.3193 -0.2236
  141ACE     O2 1621   2.233   0.248   1.528  0.9110  0.3298  0.0668
  141ACE     H1 1622   2.004   0.370   1.582  0.9501  1.4934 -1.6206
  141ACE     H2 1623   1.907   0.238   1.527  1.9324 -4.1695 -0.1651
  141ACE     H3 1624   2.027   0.325   1.419  1.5684  1.3954  0.4487
  141ACE     H4 1625   2.299   0.178   1.543  2.2992  1.4234 -0.8565
  142ACE     C1 1626   3.236   3.438   0.633  0.0189  0.1955  0.4411
  142ACE     C2 1627   3.226   3.297   0.580 -0.3855  0.2356  0.3545
  142ACE     O1 1628   3.237   3.263   0.461 -0.1488  0.7035 -0.0081
  142ACE     O2 1629   3.192   3.202   0.675 -0.1429  0.4215  0.5177
  142ACE     H1 1630   3.338   3.452   0.671 -0.1673  2.9003  0.0190
  142ACE     H2 1631   3.167   3.459   0.716  0.6023  3.8710  0.0592
  142ACE     H3 1632   3.223   3.507   0.549 -0.8702 -0.8914 -0.3356
  142ACE     H4 1633   3.175   3.268   0.745 -1.4088  2.4104 -1.6000
  143ACE     C1 1634   0.525   0.768   1.044 -0.5968  0.2723  0.0022
  143ACE     C2 1635   0.465   0.787   1.181 -0.0513  0.1364  0.1175
  143ACE     O1 1636   0.371   0.720   1.220  0.5422  0.1917 -0.3443
  143ACE     O2 1637   0.490   0.909   1.238  0.9244 -0.1666 -0.3754
  143ACE     H1 1638   0.514   0.849   0.970  0.2801  1.2013  0.8781
  143ACE     H2 1639   0.491   0.676   0.994 -1.4241 -0.3865  1.7558
  143ACE     H3 1640   0.634   0.768   1.050 -0.5658  0.0561 -0.4757
  143ACE     H4 1641   0.423   0.916   1.308  1.6422  0.9008  0.2238
  144ACE     C1 1642   0.265   1.825   1.167 -0.2231 -0.0543  0.0114
  144ACE     C2 1643   0.293   1.850   1.012  0.9780  0.3331 -0.2040
  144ACE     O1 1644   0.281   1.756   0.934  0.3399 -0.2631 -0.4282
  144ACE     O2 1645   0.300   1.978   0.974  0.4295 -0.0743  0.0188
  144ACE     H1 1646   0.356   1.860   1.217 -0.1982  0.0215 -0.0857
  144ACE     H2 1647   0.231   1.722   1.176 -1.7723  0.3260 -1.2318
  144ACE     H3 1648   0.185   1.895   1.193 -1.5428 -0.1911 -3.4495
  144ACE     H4 1649   0.297   1.966   0.877 -0.5373  0.8661 -0.0706
  145ACE     C1 1650   2.421   1.289   1.522 -0.2580 -0.9403 -0.1752
  145ACE     C2 1651   2.322   1.178   1.497 -0.7135 -0.5959  0.6328
  145ACE     O1 1652   2.222   1.152   1.558  0.3385  0.1422  0.0509
  145ACE     O2 1653   2.362   1.091   1.406  0.2622 -0.2097  0.2874
  145ACE     H1 1654   2.481   1.317   1.434 -1.7493  1.5625 -0.4277
  145ACE     H2 1655   2.500   1.247   1.586 -2.9143 -1.4983  2.8616
  145ACE     H3 1656   2.379   1.375   1.576 -1.2520 -0.8537 -1.0637
  145ACE     H4 1657   2.291   1.025   1.407 -0.2738  0.3316 -1.6569
  146ACE     C1 1658   0.723   2.758   1.542 -0.2728  0.1880 -0.5015
  146ACE     C2 1659   0.874   2.752   1.537 -0.3890  0.8438 -0.0889
  146ACE     O1 1660   0.930   2.646   1.517  0.2610 -0.1804  0.3083
  146ACE     O2 1661   0.930   2.869   1.503  0.2501  0.2840  0.4725
  146ACE     H1 1662   0.699   2.864   1.525  0.7292  0.7511  1.4018
  146ACE     H2 1663   0.683   2.723   1.637  0.6870 -0.4081 -0.3057
  146ACE     H3 1664   0.683   2.688   1.468 -1.3519  0.7401 -0.4439
  146ACE     H4 1665   1.018   2.838   1.474 -0.5817 -0.5314 -1.2497
  147ACE     C1 1666   3.244   1.742   1.046 -0.2950 -0.3877 -0.3515
  147ACE     C2 1667   3.119   1.699   1.117  0.2847  0.0402  0.9820
  147ACE     O1 1668   3.055   1.599   1.087  0.2491  0.1910 -0.4753
  147ACE     O2 1669   3.059   1.795   1.187  0.1165  0.1497  0.2112
  147ACE     H1 1670   3.211   1.833   0.994 -0.8563 -1.1486 -1.3382
  147ACE     H2 1671   3.277   1.657   0.986  0.4661 -2.1378  2.4157
  147ACE     H3 1672   3.320   1.773   1.119 -1.0371  1.6106 -0.3961
  147ACE     H4 1673   2.988   1.738   1.221  0.8456 -1.9079 -1.5623
  148ACE     C1 1674   3.294   0.240   1.036 -0.2583  0.1813  0.4228
  148ACE     C2 1675   3.252   0.162   1.151  0.4032 -0.2488 -0.6331
  148ACE     O1 1676   3.207   0.217   1.250 -0.0252  0.2288  0.5629
  148ACE     O2 1677   3.337   0.065   1.175  0.0213  0.3697 -0.5011
  148ACE     H1 1678   3.401   0.260   1.049 -0.9820  3.3846  2.0878
  148ACE     H2 1679   3.244   0.337   1.021  4.1419  2.2706 -1.6701
  148ACE     H3 1680   3.289   0.186   0.941 -2.1974 -0.5299  0.9002
  148ACE     H4 1681   3.295   0.035   1.258  0.6449 -2.2694 -1.0928
  149ACE     C1 1682   2.774   3.038   1.467  0.3062  0.1869  0.3369
  149ACE     C2 1683   2.903   2.954   1.471 -1.0485 -0.1967 -0.2332
  149ACE     O1 1684   2.920   2.867   1.554  0.6812  0.1881  0.9527
  149ACE     O2 1685   3.010   2.988   1.394  0.6255  0.0198 -0.4280
  149ACE     H1 1686   2.802   3.143   1.453  0.1262 -0.0514 -1.8713
  149ACE     H2 1687   2.722   3.032   1.564  0.9406  0.1596  0.6790
  149ACE     H3 1688   2.717   3.015   1.377  0.3893  0.2630  0.2653
  149ACE     H4 1689   3.076   2.928   1.431  0.0181 -1.2457 -1.3684
  150ACE     C1 1690   2.607   0.888   0.423  0.2289 -0.2118  0.2442
  150ACE     C2 1691   2.678   0.770   0.348 -0.0729  0.0229 -0.6091
  150ACE     O1 1692   2.663   0.656   0.385  0.3168 -0.1859  0.0393
  150ACE     O2 1693   2.730   0.795   0.231 -0.0934  0.5819  0.2099
  150ACE     H1 1694   2.547   0.954   0.358  0.9256  1.2035  1.0176
  150ACE     H2 1695   2.687   0.962   0.434  0.4934 -0.5027  0.2788
  150ACE     H3 1696   2.555   0.849   0.511 -1.5059 -2.5751 -1.7372
  150ACE     H4 1697   2.755   0.706   0.199 -1.1012  1.2633 -2.6148
  151ACE     C1 1698   1.218   0.852   0.278  0.1487  0.4130 -0.2322
  151ACE     C2 1699   1.096   0.887   0.361 -0.1153  0.3477 -0.7876
  151ACE     O1 1700   0.987   0.906   0.314 -0.3080 -0.3291  0.5554
  151ACE     O2 1701   1.115   0.848   0.486  0.5777 -0.1403 -0.0388
  151ACE     H1 1702   1.221   0.902   0.181 -1.8620  2.5326  0.7356
  151ACE     H2 1703   1.221   0.743   0.281  1.0256  0.4451  0.3420
  151ACE     H3 1704   1.310   0.875   0.334 -1.1303  0.4235  1.9250
  151ACE     H4 1705   1.021   0.853   0.511  1.0489  0.3294  1.7084
  152ACE     C1 1706   1.526   3.259   3.633 -0.4776 -0.0479 -0.3832
  152ACE     C2 1707   1.620   3.210   3.522 -0.5159  0.3512 -0.4007
  152ACE     O1 1708   1.674   3.103   3.516  0.0463 -0.2840 -0.3031
  152ACE     O2 1709   1.650   3.298   3.431  0.1152 -0.3730 -0.2431
  152ACE     H1 1710   1.521   3.188   3.717  0.6928  0.1430 -0.1294
  152ACE     H2 1711   1.426   3.280   3.595 -1.2967 -3.0850 -0.0045
  152ACE     H3 1712   1.559   3.356   3.673  0.7642 -0.2105 -0.9991
  152ACE     H4 1713   1.708   3.247   3.373  0.0037  0.4284 -1.0728
  153ACE     C1 1714   3.212   0.742   1.506  0.6411  0.5345  0.8412
  153ACE     C2 1715   3.093   0.815   1.559  0.4975 -0.4912  0.3208
  153ACE     O1 1716   3.073   0.935   1.568  0.5717  0.4479 -0.4070
  153ACE     O2 1717   2.999   0.728   1.581 -0.7380  0.2903 -0.6605
  153ACE     H1 1718   3.302   0.746   1.569 -0.0991  1.0048  1.8815
  153ACE     H2 1719   3.244   0.793   1.414  1.4372  2.9012  2.3978
  153ACE     H3 1720   3.184   0.639   1.478  0.0417  0.7581  0.6186
  153ACE     H4 1721   2.925   0.782   1.615 -0.2464 -0.9152  2.5053
  154ACE     C1 1722   0.668   0.300   0.841 -0.4311 -0.3263  0.6359
  154ACE     C2 1723   0.632   0.397   0.733 -0.5735 -0.0519  0.4121
  154ACE     O1 1724   0.674   0.509   0.733 -0.1019 -0.4059  0.2701
  154ACE     O2 1725   0.518   0.364   0.667 -0.0905  0.3587  0.1519
  154ACE     H1 1726   0.734   0.224   0.798 -0.7386  0.5197 -1.3664
  154ACE     H2 1727   0.584   0.239   0.877 -1.5241 -0.4291 -2.0088
  154ACE     H3 1728   0.722   0.348   0.924 -3.3754  1.8067  1.3809
  154ACE     H4 1729   0.518   0.421   0.589 -1.1193 -0.1206 -0.2107
  155ACE     C1 1730   3.199   2.467   1.551 -0.7383  0.7614 -0.2456
  155ACE     C2 1731   3.345   2.480   1.554 -0.2755 -0.4812 -0.1602
  155ACE     O1 1732   3.405   2.586   1.530  0.3699 -0.3696  0.1518
  155ACE     O2 1733   3.411   2.361   1.529 -0.0188 -0.0231  0.5673
  155ACE     H1 1734   3.171   2.392   1.477 -0.7028  1.7270 -1.2580
  155ACE     H2 1735   3.146   2.562   1.534  0.6005  0.8087 -4.7108
  155ACE     H3 1736   3.172   2.406   1.638  1.3452  0.1949  0.0391
  155ACE     H4 1737   3.486   2.390   1.474 -0.6914 -0.8672 -0.8164
  156ACE     C1 1738   0.633   1.788   0.687  0.7137 -0.0791 -0.2232
  156ACE     C2 1739   0.663   1.640   0.700 -0.0623 -0.1361  0.3671
  156ACE     O1 1740   0.623   1.556   0.618 -0.6609 -0.3776  0.0209
  156ACE     O2 1741   0.785   1.618   0.749 -0.0628 -0.0469 -0.0858
  156ACE     H1 1742   0.579   1.805   0.780 -0.6280  0.9171 -1.1724
  156ACE     H2 1743   0.571   1.806   0.599 -1.0301 -0.7796  0.8407
  156ACE     H3 1744   0.719   1.855   0.703  0.1843  0.8933 -1.3596
  156ACE     H4 1745   0.800   1.523   0.735  1.9642  0.1427  0.5872
  157ACE     C1 1746   0.362   3.311   3.790  0.6053 -0.0193 -0.0779
  157ACE     C2 1747   0.513   3.311   3.767  0.0083  0.2382 -0.6093
  157ACE     O1 1748   0.577   3.414   3.750  0.0477 -0.0285 -0.3708
  157ACE     O2 1749   0.568   3.195   3.754 -0.7206 -0.0256 -0.9591
  157ACE     H1 1750   0.338   3.392   3.861 -0.8979 -0.4824 -0.0328
  157ACE     H2 1751   0.326   3.215   3.829 -0.2220  0.1863 -0.3057
  157ACE     H3 1752   0.321   3.338   3.692  0.1405 -0.6798 -0.0652
  157ACE     H4 1753   0.651   3.205   3.704 -0.3983 -3.4680 -1.1912
  158ACE     C1 1754   1.758   3.174   1.545 -0.8283 -0.2773 -0.3791
  158ACE     C2 1755   1.847   3.304   1.546  0.0216  0.5837 -0.3058
  158ACE     O1 1756   1.802   3.414   1.571 -0.2220 -1.0385 -0.3499
  158ACE     O2 1757   1.980   3.282   1.576 -0.1301 -0.2663  0.0244
  158ACE     H1 1758   1.798   3.108   1.623 -1.4945 -1.5566 -1.0919
  158ACE     H2 1759   1.766   3.127   1.446  0.9066 -0.4027 -0.1938
  158ACE     H3 1760   1.650   3.187   1.558 -0.6407  0.9565 -0.0435
  158ACE     H4 1761   2.011   3.371   1.599 -0.5718 -0.2442  0.5661
  159ACE     C1 1762   1.192   0.497   0.497  0.0802  0.5649  0.1404
  159ACE     C2 1763   1.334   0.459   0.483  0.2562 -0.0557  0.3460
  159ACE     O1 1764   1.384   0.372   0.551 -0.0362 -0.7303 -0.3111
  159ACE     O2 1765   1.406   0.556   0.429  0.1504  0.3038  0.2939
  159ACE     H1 1766   1.181   0.585   0.561 -0.0821 -0.0702  0.9886
  159ACE     H2 1767   1.131   0.414   0.536  0.9877  0.1943  0.7756
  159ACE     H3 1768   1.156   0.544   0.405  0.7164  0.0195 -0.3945
  159ACE     H4 1769   1.494   0.518   0.445  0.3394  0.5349 -0.1981
  160ACE     C1 1770   0.955   2.761   1.080  0.3698 -0.9427 -0.3387
  160ACE     C2 1771   0.976   2.714   0.931 -0.2776 -0.4451  0.1311
  160ACE     O1 1772   0.960   2.597   0.899  0.4497 -0.0565 -0.2826
  160ACE     O2 1773   1.071   2.784   0.866 -0.0183  0.0401  0.4990
  160ACE     H1 1774   1.039   2.723   1.139  0.3208  0.7776  0.8821
  160ACE     H2 1775   0.859   2.723   1.116  0.4193 -0.6683  0.0926
  160ACE     H3 1776   0.960   2.869   1.096  0.2181 -1.0827  0.7199
  160ACE     H4 1777   1.077   2.745   0.776 -0.5719 -0.4393  0.6671
  161ACE     C1 1778   0.782   0.938   1.551 -0.3782  0.7460 -0.2092
  161ACE     C2 1779   0.694   0.807   1.534 -0.0691 -0.3864  0.1263
  161ACE     O1 1780   0.578   0.808   1.579  0.1369  0.0974 -0.0978
  161ACE     O2 1781   0.724   0.728   1.433 -0.2686 -0.1805  0.0510
  161ACE     H1 1782   0.857   0.942   1.471 -0.2309  2.2209 -0.0068
  161ACE     H2 1783   0.840   0.928   1.643  0.2559  1.2478 -0.5506
  161ACE     H3 1784   0.714   1.024   1.554 -1.8435 -0.3207 -2.0791
  161ACE     H4 1785   0.657   0.657   1.428 -0.6087  0.2371 -1.7146
  162ACE     C1 1786   1.671   0.633   1.437 -0.4607  0.5239  0.1754
  162ACE     C2 1787   1.637   0.487   1.464 -0.0990 -0.2905  0.4980
  162ACE     O1 1788   1.520   0.444   1.455  0.5355 -0.5494  0.2373
  162ACE     O2 1789   1.722   0.426   1.546 -0.2775  0.1123  0.6782
  162ACE     H1 1790   1.708   0.677   1.531  1.0114 -0.9807  0.3245
  162ACE     H2 1791   1.586   0.693   1.403  0.6607  1.2978 -1.2860
  162ACE     H3 1792   1.753   0.640   1.365 -0.8487 -1.1004 -0.4375
  162ACE     H4 1793   1.677   0.346   1.576  1.1895 -0.9873  0.0183
  163ACE     C1 1794   3.160   2.130   0.515 -0.2362 -0.2695 -0.0307
  163ACE     C2 1795   3.180   2.135   0.669  0.6910 -0.2220 -0.0721
  163ACE     O1 1796   3.220   2.045   0.737  0.1509 -0.5079  0.1935
  163ACE     O2 1797   3.107   2.230   0.720  0.1933  0.2421  0.3288
  163ACE     H1 1798   3.218   2.213   0.472  0.9761 -0.5895  0.9469
  163ACE     H2 1799   3.054   2.152   0.504 -0.5039  0.0227  2.7574
  163ACE     H3 1800   3.189   2.036   0.467  1.1272 -0.2340  0.6911
  163ACE     H4 1801   3.139   2.234   0.812  2.7116 -2.3131 -0.3623
  164ACE     C1 1802   0.983   1.244   0.263  0.3849 -0.3844 -0.3364
  164ACE     C2 1803   1.081   1.355   0.297 -0.4243  0.1175 -0.1657
  164ACE     O1 1804   1.134   1.371   0.403  0.3305  0.0560  0.4859
  164ACE     O2 1805   1.128   1.414   0.183 -0.0091  0.6244  0.1352
  164ACE     H1 1806   0.927   1.268   0.172 -1.9662 -0.9861  0.9112
  164ACE     H2 1807   0.937   1.202   0.353  0.5991 -0.4712 -0.2660
  164ACE     H3 1808   1.048   1.166   0.222  0.8479 -0.1833  0.0135
  164ACE     H4 1809   1.192   1.478   0.218  0.4802  0.9387 -1.2785
  165ACE     C1 1810   2.076   1.556   0.436  0.5680  0.1099 -0.1777
  165ACE     C2 1811   1.952   1.590   0.515  0.6268 -0.2733 -0.0559
  165ACE     O1 1812   1.844   1.601   0.470  0.0321  0.0607 -0.1554
  165ACE     O2 1813   1.970   1.605   0.646 -0.6357  0.5656 -0.0832
  165ACE     H1 1814   2.163   1.552   0.503  0.5773  2.0581 -0.0425
  165ACE     H2 1815   2.098   1.635   0.363 -0.6396  1.7068  1.1340
  165ACE     H3 1816   2.065   1.466   0.375 -2.6074  0.5072 -0.2997
  165ACE     H4 1817   1.879   1.619   0.678 -1.8316 -2.7647 -1.7975
  166ACE     C1 1818   0.461   2.483   1.041  0.2095  0.1366 -0.4224
  166ACE     C2 1819   0.552   2.420   1.142  0.4326  0.3127  0.5271
  166ACE     O1 1820   0.531   2.313   1.199 -0.2503  0.2576  0.5050
  166ACE     O2 1821   0.649   2.499   1.188 -0.5024  0.1169 -0.4306
  166ACE     H1 1822   0.508   2.568   0.991 -0.4234 -0.6726 -2.4411
  166ACE     H2 1823   0.371   2.517   1.094 -1.8933 -1.9065 -2.5947
  166ACE     H3 1824   0.422   2.408   0.972 -0.2655  2.5251 -2.8209
  166ACE     H4 1825   0.706   2.445   1.245 -2.9427 -1.5617  0.4969
  167ACE     C1 1826   0.782   0.155   3.204  0.4683 -0.0484  0.4533
  167ACE     C2 1827   0.698   0.288   3.210  0.1094 -0.1750  0.5591
  167ACE     O1 1828   0.600   0.316   3.142  0.8075 -0.2279  0.0214
  167ACE     O2 1829   0.719   0.357   3.321  0.1878 -0.1858  0.5783
  167ACE     H1 1830   0.767   0.098   3.112 -0.8551 -0.6816  1.0519
  167ACE     H2 1831   0.756   0.098   3.294  2.7286  1.0798  1.8676
  167ACE     H3 1832   0.886   0.188   3.218  0.5461 -0.2842  0.4384
  167ACE     H4 1833   0.647   0.422   3.309  0.6016  0.0749 -0.5552
  168ACE     C1 1834   2.213   0.791   0.485  0.2606 -0.1445 -0.1807
  168ACE     C2 1835   2.209   0.667   0.394 -0.1690  0.4170  0.1022
  168ACE     O1 1836   2.129   0.643   0.309 -0.2136 -0.0244 -0.3623
  168ACE     O2 1837   2.278   0.563   0.435 -0.8911 -0.4944 -0.1202
  168ACE     H1 1838   2.146   0.867   0.443 -0.8027 -0.2033  1.3771
  168ACE     H2 1839   2.313   0.834   0.489 -0.7307  2.4373 -1.9367
  168ACE     H3 1840   2.172   0.779   0.586 -1.2332  2.5026 -0.4317
  168ACE     H4 1841   2.243   0.495   0.375  0.4452  0.5891 -2.1717
  169ACE     C1 1842   0.152   1.964   0.301  0.4236  0.8269 -0.1184
  169ACE     C2 1843   0.152   2.111   0.324  0.0310 -0.5839 -0.6877
  169ACE     O1 1844   0.242   2.186   0.354  0.1986  0.0362  0.0906
  169ACE     O2 1845   0.037   2.160   0.276  0.3429 -0.5548 -0.3079
  169ACE     H1 1846   0.177   1.908   0.392 -1.7207 -1.2275 -0.7191
  169ACE     H2 1847   0.226   1.928   0.228 -0.8600 -2.7078  0.2043
  169ACE     H3 1848   0.048   1.934   0.284  0.7410 -1.0792  1.1267
  169ACE     H4 1849   0.043   2.256   0.293  0.0321 -0.7779  1.0889
  170ACE     C1 1850   2.629   1.075   1.208  0.5627  0.5337 -0.1135
  170ACE     C2 1851   2.703   0.953   1.217  0.2038 -0.1241  0.0234
  170ACE     O1 1852   2.822   0.950   1.197 -0.2700  0.2883  0.1730
  170ACE     O2 1853   2.633   0.839   1.247  0.0353  0.5178 -0.1001
  170ACE     H1 1854   2.636   1.132   1.302 -0.8474 -0.8794  0.8608
  170ACE     H2 1855   2.523   1.049   1.201  0.8313 -0.1508 -1.8739
  170ACE     H3 1856   2.649   1.141   1.123 -0.5537  0.4184 -0.4698
  170ACE     H4 1857   2.706   0.778   1.269 -0.2256  0.1496 -0.2467
  171ACE     C1 1858   0.289   0.257   0.943  0.0923 -0.1820 -0.0425
  171ACE     C2 1859   0.257   0.111   0.923 -0.0967 -0.1344 -0.7730
  171ACE     O1 1860   0.324   0.014   0.951 -0.7042 -0.2112  0.2243
  171ACE     O2 1861   0.140   0.090   0.869 -0.8274 -0.4504  0.3127
  171ACE     H1 1862   0.390   0.277   0.980  0.0059 -0.6796  0.4569
  171ACE     H2 1863   0.221   0.298   1.019 -0.9360  0.7122 -1.4022
  171ACE     H3 1864   0.266   0.321   0.856 -1.1386  1.3596  1.3747
  171ACE     H4 1865   0.144  -0.007   0.870  0.4362 -0.4146 -0.1507
  172ACE     C1 1866   2.131   0.389   0.834 -0.0534 -0.2538 -0.0598
  172ACE     C2 1867   2.127   0.273   0.932  0.4995  0.1648  0.2771
  172ACE     O1 1868   2.053   0.272   1.031  0.1820  0.2961  0.1938
  172ACE     O2 1869   2.194   0.157   0.888 -0.1992  0.8971 -0.0792
  172ACE     H1 1870   2.085   0.481   0.872  0.1449 -0.2523  0.1713
  172ACE     H2 1871   2.093   0.361   0.735  1.1084  2.8472 -1.4552
  172ACE     H3 1872   2.229   0.413   0.794 -0.7191  1.6391 -0.5915
  172ACE     H4 1873   2.167   0.094   0.957 -0.1931  1.0391  0.0518
  173ACE     C1 1874   1.623   1.602   1.546  0.5632  0.7303 -0.2768
  173ACE     C2 1875   1.493   1.526   1.547  0.1255 -0.2442 -0.2157
  173ACE     O1 1876   1.385   1.571   1.580 -0.6532  0.2651 -0.0781
  173ACE     O2 1877   1.497   1.405   1.491 -0.2743  0.8559 -0.3054
  173ACE     H1 1878   1.684   1.578   1.458  0.7634 -1.4936  0.4409
  173ACE     H2 1879   1.686   1.541   1.612  0.2458  2.1729  1.3940
  173ACE     H3 1880   1.619   1.703   1.588 -1.1286 -0.3380  2.2246
  173ACE     H4 1881   1.408   1.373   1.513  0.0199  0.5376  0.4467
  174ACE     C1 1882   1.143   1.935   3.685  0.2672  0.3718 -0.5303
  174ACE     C2 1883   1.027   1.982   3.774 -0.5978  0.3271  0.2502
  174ACE     O1 1884   0.913   1.940   3.761 -0.0237  0.0164 -0.1010
  174ACE     O2 1885   1.071   2.043   3.884  0.1111  0.1459  0.1013
  174ACE     H1 1886   1.106   1.866   3.608 -2.0206 -0.4459  1.2420
  174ACE     H2 1887   1.226   1.890   3.740  0.6792  1.1282 -0.5305
  174ACE     H3 1888   1.194   2.026   3.653 -0.4460  1.8630  2.4273
  174ACE     H4 1889   0.998   2.105   3.902  0.0675 -0.4574  2.1376
  175ACE     C1 1890   1.263   2.011   0.933  0.0977  0.1865  0.6428
  175ACE     C2 1891   1.384   2.090   0.972  0.3177 -0.4877  0.0004
  175ACE     O1 1892   1.492   2.042   0.989 -0.0910 -0.1631 -0.0633
  175ACE     O2 1893   1.357   2.215   0.994  0.0296 -0.1181  0.1221
  175ACE     H1 1894   1.201   1.990   1.021  2.1716 -0.1188  2.0591
  175ACE     H2 1895   1.288   1.911   0.895 -0.7902  0.2283 -0.0663
  175ACE     H3 1896   1.200   2.066   0.863  0.3596 -1.5287 -0.9834
  175ACE     H4 1897   1.446   2.254   1.007  0.5729 -1.5316  0.7741
  176ACE     C1 1898   0.002   2.177   1.173  0.1732  0.0482  0.2770
  176ACE     C2 1899  -0.057   2.165   1.029 -0.5349 -0.5292 -0.3099
  176ACE     O1 1900  -0.138   2.241   0.977 -0.4847  0.0440  0.4147
  176ACE     O2 1901  -0.045   2.041   0.983 -0.5820  0.3348 -0.9420
  176ACE     H1 1902   0.105   2.141   1.164  0.0476 -0.0939 -0.6258
  176ACE     H2 1903  -0.055   2.106   1.235 -1.0676 -0.7944 -1.7540
  176ACE     H3 1904   0.005   2.281   1.208 -1.6209 -0.2234  1.3132
  176ACE     H4 1905  -0.085   2.048   0.894 -1.6951 -2.2238 -0.6686
  177ACE     C1 1906   2.330   1.220   0.304 -0.1268  0.1497 -0.1302
  177ACE     C2 1907   2.351   1.302   0.183  0.0156 -0.2819  0.2111
  177ACE     O1 1908   2.458   1.338   0.137  0.1928 -0.2097  1.0143
  177ACE     O2 1909   2.245   1.384   0.168 -0.4178  0.1935  0.4129
  177ACE     H1 1910   2.356   1.292   0.383 -2.6522 -1.8077  2.6112
  177ACE     H2 1911   2.396   1.133   0.294  0.0764  0.3199 -0.2798
  177ACE     H3 1912   2.227   1.190   0.329 -0.4755  2.1004  0.9370
  177ACE     H4 1913   2.276   1.445   0.099  0.0442 -0.3949  0.0920
  178ACE     C1 1914   1.006   3.129   1.127  0.1654  0.4687  0.0286
  178ACE     C2 1915   1.061   3.098   0.987 -0.0025 -0.0946 -0.1703
  178ACE     O1 1916   0.999   3.091   0.883  0.0820  0.1485  0.7622
  178ACE     O2 1917   1.196   3.105   0.993 -0.3982 -0.1615 -0.0805
  178ACE     H1 1918   1.081   3.104   1.203  0.8042  0.4980 -0.5808
  178ACE     H2 1919   0.913   3.075   1.150  0.1154  0.7522  0.4888
  178ACE     H3 1920   0.977   3.234   1.124  0.2197  0.5510  2.1412
  178ACE     H4 1921   1.226   3.075   0.906  2.0935  0.0567  0.6507
  179ACE     C1 1922   2.500   1.295   0.723 -0.5139  0.2811  0.8561
  179ACE     C2 1923   2.385   1.221   0.646 -0.2036  0.2398  0.7895
  179ACE     O1 1924   2.396   1.119   0.589  0.2374  0.5835  0.3512
  179ACE     O2 1925   2.266   1.260   0.680  0.0849 -0.1293 -0.5465
  179ACE     H1 1926   2.479   1.291   0.831 -1.9009  1.8827  0.6524
  179ACE     H2 1927   2.503   1.402   0.701 -1.2454 -0.1825 -1.5955
  179ACE     H3 1928   2.592   1.240   0.701 -1.3780 -0.8662  0.0860
  179ACE     H4 1929   2.272   1.341   0.733  2.1154 -0.0074 -0.9148
  180ACE     C1 1930   2.910   1.805   1.540 -0.3814 -0.0425  0.0535
  180ACE     C2 1931   2.923   1.662   1.494  0.8440  0.4595 -0.3268
  180ACE     O1 1932   2.950   1.626   1.386  0.6168  0.0856  0.0855
  180ACE     O2 1933   2.862   1.580   1.578 -0.2460 -0.4333  0.0833
  180ACE     H1 1934   2.924   1.877   1.458 -1.0461  0.1149  0.0731
  180ACE     H2 1935   2.982   1.815   1.622 -1.3324  0.3411  0.8459
  180ACE     H3 1936   2.816   1.821   1.594 -0.1036  0.8425  0.2837
  180ACE     H4 1937   2.868   1.496   1.530  0.6143  0.0352 -0.6539
  181ACE     C1 1938   2.020   3.252   1.188  0.3200 -0.0853 -0.5708
  181ACE     C2 1939   2.119   3.373   1.189  0.6671 -0.1537  0.2865
  181ACE     O1 1940   2.151   3.431   1.084  0.3271  0.0442 -0.6012
  181ACE     O2 1941   2.164   3.409   1.306 -0.2656 -0.0419 -0.0048
  181ACE     H1 1942   2.016   3.198   1.093 -0.7253  1.6228 -1.5117
  181ACE     H2 1943   1.918   3.288   1.206 -0.0005 -1.0070 -0.5048
  181ACE     H3 1944   2.052   3.197   1.278 -2.3637 -0.9172 -0.0974
  181ACE     H4 1945   2.225   3.483   1.286 -0.0436  0.2185  1.5606
  182ACE     C1 1946   2.236   2.876   1.465 -0.1743  0.7235  0.4319
  182ACE     C2 1947   2.130   2.982   1.453  0.2522  0.0547  0.3996
  182ACE     O1 1948   2.020   2.960   1.488 -0.4637  0.2355 -0.6244
  182ACE     O2 1949   2.183   3.101   1.486  0.5073  0.0157 -0.0168
  182ACE     H1 1950   2.190   2.779   1.445 -0.6471  0.7302  1.4470
  182ACE     H2 1951   2.284   2.879   1.564  0.5222  0.4534  0.1051
  182ACE     H3 1952   2.321   2.893   1.397  0.7872 -0.8468  1.1945
  182ACE     H4 1953   2.106   3.145   1.525  0.6857 -0.6071  1.0425
  183ACE     C1 1954   2.472   1.738   0.303  0.9692  0.3506  0.3926
  183ACE     C2 1955   2.545   1.614   0.356 -0.1494  0.1744 -0.5949
  183ACE     O1 1956   2.656   1.581   0.312 -0.2294  0.7260 -0.1849
  183ACE     O2 1957   2.479   1.527   0.436  0.4304  0.1627  0.0721
  183ACE     H1 1958   2.386   1.700   0.246 -0.2242  2.8071  0.4616
  183ACE     H2 1959   2.527   1.799   0.230  0.9380  1.3152  1.1673
  183ACE     H3 1960   2.435   1.793   0.390  1.5044 -0.3509  1.0617
  183ACE     H4 1961   2.545   1.456   0.444 -2.1924 -2.4386 -0.4947
  184ACE     C1 1962   2.597   0.468   0.880  0.2129 -0.1568  0.2681
  184ACE     C2 1963   2.692   0.514   0.985 -0.7480 -0.0125 -0.3976
  184ACE     O1 1964   2.753   0.615   0.975 -0.6365  0.6387 -0.0949
  184ACE     O2 1965   2.673   0.459   1.104 -0.5749 -0.0072 -0.4319
  184ACE     H1 1966   2.602   0.532   0.791  1.3424  0.8779  1.0585
  184ACE     H2 1967   2.498   0.450   0.924 -1.0458  2.1535 -1.5289
  184ACE     H3 1968   2.619   0.364   0.853  0.6495  0.0905 -0.3373
  184ACE     H4 1969   2.723   0.526   1.153  0.8844  0.6601 -2.7702
  185ACE     C1 1970   0.785   1.854   1.514  0.1751 -0.4249  0.8159
  185ACE     C2 1971   0.696   1.767   1.437 -0.8853  0.5150 -0.8051
  185ACE     O1 1972   0.581   1.751   1.471 -0.1245  0.4027  0.2636
  185ACE     O2 1973   0.742   1.720   1.322  0.7620 -0.9670  0.2087
  185ACE     H1 1974   0.738   1.934   1.573  0.8721  1.4527 -1.1295
  185ACE     H2 1975   0.859   1.894   1.444 -0.8200  1.1305  0.6177
  185ACE     H3 1976   0.843   1.792   1.583  1.5064 -0.3236 -0.1972
  185ACE     H4 1977   0.660   1.691   1.278  1.5529  0.7086 -2.5008
  186ACE     C1 1978   1.406   3.167   0.601  0.6155  0.4773  0.6578
  186ACE     C2 1979   1.392   3.036   0.684 -0.5269  0.2310  0.5813
  186ACE     O1 1980   1.294   3.009   0.749  0.0414  0.1038 -0.2357
  186ACE     O2 1981   1.465   2.934   0.634  0.1059 -0.1282  0.3553
  186ACE     H1 1982   1.493   3.226   0.632 -0.1777  2.5603 -1.0012
  186ACE     H2 1983   1.312   3.222   0.611  0.6551  0.6750 -0.0255
  186ACE     H3 1984   1.421   3.141   0.496 -0.2874 -1.0123  0.8740
  186ACE     H4 1985   1.411   2.857   0.656 -0.6720  0.2562 -0.1980
  187ACE     C1 1986   1.318   2.662   1.526  0.6880  0.5342  0.4751
  187ACE     C2 1987   1.298   2.802   1.484 -0.1344  0.3018 -0.2118
  187ACE     O1 1988   1.191   2.846   1.451  0.3449 -0.0123  0.1364
  187ACE     O2 1989   1.406   2.876   1.477  0.2346 -0.0763  0.3718
  187ACE     H1 1990   1.410   2.633   1.475  0.1335  0.0664 -0.2790
  187ACE     H2 1991   1.237   2.592   1.504  1.0963  0.6730 -1.5288
  187ACE     H3 1992   1.339   2.663   1.634  1.1123 -0.9090  0.4186
  187ACE     H4 1993   1.373   2.959   1.438  0.6772  0.3121  0.8121
  188ACE     C1 1994   2.389   1.747   3.697 -0.4439  0.2388 -0.6246
  188ACE     C2 1995   2.416   1.609   3.747  0.0033  0.0568 -0.2112
  188ACE     O1 1996   2.333   1.523   3.760  0.4566 -0.0943  0.1628
  188ACE     O2 1997   2.545   1.587   3.776 -0.5871  0.5639  0.4415
  188ACE     H1 1998   2.325   1.795   3.772 -1.3105 -1.8662  0.0135
  188ACE     H2 1999   2.326   1.743   3.608  1.1799  0.8267 -1.8417
  188ACE     H3 2000   2.477   1.812   3.683 -0.9205  0.4823 -2.7193
  188ACE     H4 2001   2.540   1.498   3.816  2.3401  0.2563  0.2817
  189ACE     C1 2002   1.967   2.750   0.458 -0.1051  0.1283  0.3695
  189ACE     C2 2003   2.096   2.820   0.425 -0.7571  0.0136  0.2097
  189ACE     O1 2004   2.173   2.844   0.515 -0.1057  0.3229  0.2844
  189ACE     O2 2005   2.137   2.782   0.309 -0.3172  0.0978  0.1186
  189ACE     H1 2006   1.891   2.774   0.382  0.7688 -0.0258 -0.5673
  189ACE     H2 2007   1.931   2.757   0.561  1.8204 -0.0545  1.0637
  189ACE     H3 2008   1.991   2.643   0.450  0.8018  0.2560  1.2915
  189ACE     H4 2009   2.232   2.802   0.317  0.0187  0.0882 -3.2405
  190ACE     C1 2010   0.790   3.325   0.249 -0.2479  0.4042  0.4760
  190ACE     C2 2011   0.696   3.213   0.255 -0.2182  0.2657 -0.2417
  190ACE     O1 2012   0.720   3.095   0.229  0.8232  0.8212  0.8180
  190ACE     O2 2013   0.577   3.245   0.299  0.2340 -0.0380 -0.4718
  190ACE     H1 2014   0.891   3.286   0.232 -0.1428 -0.0733  2.1215
  190ACE     H2 2015   0.783   3.383   0.341 -0.1144 -0.3334  0.9516
  190ACE     H3 2016   0.753   3.395   0.172  1.1082 -0.0619 -0.6208
  190ACE     H4 2017   0.519   3.168   0.305  0.6290 -0.1744  3.8375
  191ACE     C1 2018   0.312   1.163   0.148 -0.8484  0.2489  0.3314
  191ACE     C2 2019   0.339   1.281   0.066  0.6620 -0.4210 -0.1045
  191ACE     O1 2020   0.352   1.274  -0.053 -0.4404  0.1446  0.1389
  191ACE     O2 2021   0.381   1.393   0.120  0.0154  1.0975 -0.3815
  191ACE     H1 2022   0.353   1.068   0.112 -1.7519  0.5266 -1.5024
  191ACE     H2 2023   0.204   1.143   0.152 -0.6326 -1.0868 -0.0039
  191ACE     H3 2024   0.334   1.179   0.254 -1.1250  0.5461  0.3443
  191ACE     H4 2025   0.414   1.435   0.040  1.4729  1.8947  0.6200
  192ACE     C1 2026   0.937   1.443   3.624  0.2500 -0.3928  0.3859
  192ACE     C2 2027   1.082   1.439   3.584 -0.6340 -0.0306 -0.6433
  192ACE     O1 2028   1.129   1.541   3.531 -0.2518  0.3891  0.2544
  192ACE     O2 2029   1.120   1.314   3.558 -0.2362  0.1150 -0.3884
  192ACE     H1 2030   0.877   1.496   3.549  3.8150  1.0744 -1.5265
  192ACE     H2 2031   0.939   1.506   3.713  2.6667 -1.6900  1.2932
  192ACE     H3 2032   0.898   1.347   3.659  0.2173 -0.9596 -1.1653
  192ACE     H4 2033   1.201   1.331   3.508  0.7524  0.6500  1.3682
  193ACE     C1 2034   3.111   2.965   3.782 -0.3789 -0.8200 -0.4575
  193ACE     C2 2035   3.225   2.954   3.685  0.0341  0.4442  0.5338
  193ACE     O1 2036   3.301   2.865   3.676 -0.0750  0.0080 -0.2312
  193ACE     O2 2037   3.211   3.034   3.582  0.1608  0.7741 -0.0735
  193ACE     H1 2038   3.036   2.915   3.719  0.0819 -1.7863 -0.2520
  193ACE     H2 2039   3.066   3.064   3.796  0.3599 -0.3903 -1.0663
  193ACE     H3 2040   3.127   2.911   3.877  2.0421  0.8671  0.1376
  193ACE     H4 2041   3.277   3.011   3.514  0.2514 -0.3591  0.3914
  194ACE     C1 2042   2.870   1.029   0.754  0.5690  0.6552  1.0377
  194ACE     C2 2043   2.885   0.883   0.758 -0.2077  0.0624  0.6533
  194ACE     O1 2044   2.825   0.808   0.682  0.1371 -0.1336  0.9376
  194ACE     O2 2045   2.928   0.840   0.877 -0.3470  0.6072  0.3265
  194ACE     H1 2046   2.806   1.063   0.672  1.5264  0.8819  0.3818
  194ACE     H2 2047   2.972   1.063   0.733 -0.2238  1.8919 -0.9539
  194ACE     H3 2048   2.838   1.062   0.853 -1.6927 -0.0913  0.5781
  194ACE     H4 2049   2.893   0.749   0.879 -0.4143  0.6523  1.5750
  195ACE     C1 2050   2.713   2.976   0.786  0.4236 -0.0407  0.2504
  195ACE     C2 2051   2.846   2.994   0.712  0.4111  0.0110  0.0821
  195ACE     O1 2052   2.944   2.924   0.732 -0.4684 -0.2250  0.1065
  195ACE     O2 2053   2.852   3.098   0.626  0.1747 -0.2387 -0.1650
  195ACE     H1 2054   2.690   3.077   0.824 -2.8810 -0.1588 -1.2682
  195ACE     H2 2055   2.714   2.908   0.872 -0.6980 -1.6538 -0.9950
  195ACE     H3 2056   2.625   2.957   0.724  1.7180 -3.7998 -0.5765
  195ACE     H4 2057   2.925   3.067   0.569  1.1794  0.8473  0.5238
  196ACE     C1 2058   0.682   0.331   3.719 -0.3870  1.4331  0.0280
  196ACE     C2 2059   0.805   0.305   3.804  0.2488 -0.7764 -0.1535
  196ACE     O1 2060   0.803   0.233   3.899  0.7824  0.2379  0.2958
  196ACE     O2 2061   0.921   0.314   3.733 -0.0936  0.3438 -0.3373
  196ACE     H1 2062   0.710   0.373   3.622  0.2358  0.5140 -0.1941
  196ACE     H2 2063   0.615   0.401   3.771 -1.0440  0.6988  0.1852
  196ACE     H3 2064   0.616   0.244   3.711  0.1578  1.1921 -2.0401
  196ACE     H4 2065   0.980   0.276   3.800 -1.2016  2.1817  1.7504
  197ACE     C1 2066   0.788   1.014   0.822  0.1783  0.1824  0.1094
  197ACE     C2 2067   0.794   0.880   0.752 -0.3309  0.0480 -0.1146
  197ACE     O1 2068   0.845   0.868   0.642  0.0830 -0.0884  0.0729
  197ACE     O2 2069   0.770   0.774   0.826 -0.2258 -0.8868 -0.1916
  197ACE     H1 2070   0.770   1.098   0.754 -0.2869  0.9592  1.1848
  197ACE     H2 2071   0.872   1.044   0.886 -0.6854  0.6131  1.0492
  197ACE     H3 2072   0.702   1.011   0.890  0.5174 -0.1275  0.5332
  197ACE     H4 2073   0.796   0.705   0.764  1.8451 -0.2628 -0.0553
  198ACE     C1 2074   1.618   0.818   0.442 -0.1298  0.5499 -0.2192
  198ACE     C2 2075   1.720   0.911   0.378  0.3110 -0.1132  0.1942
  198ACE     O1 2076   1.713   0.940   0.260 -0.4657 -0.2179 -0.4462
  198ACE     O2 2077   1.809   0.956   0.463 -0.3158  0.4282  0.3125
  198ACE     H1 2078   1.666   0.762   0.524  0.4463 -0.1103 -0.9959
  198ACE     H2 2079   1.576   0.749   0.367 -2.4628 -0.0358  1.5688
  198ACE     H3 2080   1.546   0.884   0.493 -0.9355 -1.7149  1.7007
  198ACE     H4 2081   1.855   1.029   0.419 -1.1489  0.3153 -0.7780
  199ACE     C1 2082   2.415   2.860   1.064 -0.0415 -0.2017  0.6567
  199ACE     C2 2083   2.466   2.800   1.185 -0.1722 -0.0916  0.0508
  199ACE     O1 2084   2.411   2.709   1.246 -0.2711 -0.4353 -0.3054
  199ACE     O2 2085   2.575   2.858   1.230  0.5395  0.4177 -0.7124
  199ACE     H1 2086   2.480   2.929   1.008  0.2397 -1.5324 -0.6965
  199ACE     H2 2087   2.322   2.918   1.076 -0.4420 -0.6722 -0.1093
  199ACE     H3 2088   2.370   2.785   0.997  1.6555 -1.1179  0.5216
  199ACE     H4 2089   2.601   2.801   1.304 -1.4794 -0.9051 -0.9700
  200ACE     C1 2090   2.269   2.502   0.353  0.9344 -0.3300 -0.4426
  200ACE     C2 2091   2.399   2.434   0.387 -0.1820  0.0859 -0.0920
  200ACE     O1 2092   2.427   2.384   0.497  0.6049  0.2565  0.5684
  200ACE     O2 2093   2.494   2.449   0.299 -1.0908 -0.1473 -0.0292
  200ACE     H1 2094   2.185   2.431   0.343  1.0910 -0.4218 -1.1083
  200ACE     H2 2095   2.283   2.570   0.268 -1.3736 -0.3371 -0.8839
  200ACE     H3 2096   2.246   2.555   0.446  1.8221  2.9621 -2.0063
  200ACE     H4 2097   2.568   2.404   0.343 -0.1688  2.7745  1.5074
  201ACE     C1 2098   0.590   0.295   1.229  0.2335  0.1318  0.0433
  201ACE     C2 2099   0.543   0.437   1.237 -0.5899  0.1499 -0.4285
  201ACE     O1 2100   0.590   0.532   1.297 -0.6011 -0.0824 -0.3088
  201ACE     O2 2101   0.426   0.452   1.177  0.7019  0.1224 -0.7935
  201ACE     H1 2102   0.694   0.292   1.263 -0.1383  0.4467  1.2276
  201ACE     H2 2103   0.584   0.257   1.127  1.8179 -1.5320  0.5277
  201ACE     H3 2104   0.523   0.238   1.295 -0.2065 -0.4942 -0.9421
  201ACE     H4 2105   0.406   0.547   1.186  3.4885  0.5842  1.2818
  202ACE     C1 2106   1.357   0.009   0.868 -0.1832  0.2148 -1.0971
  202ACE     C2 2107   1.335   0.123   0.772 -0.9077  0.4697 -0.2015
  202ACE     O1 2108   1.274   0.105   0.670  0.1020  0.1111 -0.0503
  202ACE     O2 2109   1.433   0.212   0.779 -0.5821 -0.3302 -0.1767
  202ACE     H1 2110   1.344   0.050   0.969  0.2601 -2.6060  0.1581
  202ACE     H2 2111   1.464  -0.014   0.866  0.0092  0.9138  0.4670
  202ACE     H3 2112   1.300  -0.082   0.846  1.0355 -2.0298  4.2360
  202ACE     H4 2113   1.412   0.257   0.695 -1.3648 -0.9704 -0.3319
  203ACE     C1 2114   1.068   3.138   1.557 -0.7804 -0.4704 -0.0154
  203ACE     C2 2115   1.202   3.205   1.508  0.2911 -0.1725  0.0758
  203ACE     O1 2116   1.204   3.262   1.403 -0.1844 -0.0487  0.0806
  203ACE     O2 2117   1.315   3.165   1.569  0.0502 -0.6674  0.1926
  203ACE     H1 2118   1.043   3.207   1.638 -0.9008  0.2128 -0.6323
  203ACE     H2 2119   1.102   3.042   1.598  3.4235  1.6997  1.9128
  203ACE     H3 2120   0.990   3.139   1.480 -2.1192 -1.7834  1.2946
  203ACE     H4 2121   1.382   3.227   1.536 -0.0410 -0.5171  0.2918
  204ACE     C1 2122   1.649   0.949   1.004 -0.5987 -0.3470  0.4312
  204ACE     C2 2123   1.585   1.063   1.079 -0.2346 -0.0448  0.2025
  204ACE     O1 2124   1.553   1.165   1.029 -0.5806 -0.4308  0.0837
  204ACE     O2 2125   1.518   1.019   1.186 -0.2432  0.3394  0.1115
  204ACE     H1 2126   1.738   0.914   1.058 -1.3558  1.3828  2.9384
  204ACE     H2 2127   1.688   0.970   0.904  0.2328 -0.3288  0.7569
  204ACE     H3 2128   1.588   0.858   0.998 -0.2355 -0.4192 -3.0365
  204ACE     H4 2129   1.443   1.079   1.202 -2.0343 -1.1652 -2.3891
  205ACE     C1 2130   0.090   0.603   1.300  0.1191 -0.2375  0.4523
  205ACE     C2 2131   0.058   0.626   1.156 -0.2769 -0.0538  0.1621
  205ACE     O1 2132  -0.021   0.703   1.111  0.5602  0.0363 -0.1905
  205ACE     O2 2133   0.102   0.540   1.069 -0.2636  0.5056 -0.2741
  205ACE     H1 2134   0.011   0.531   1.325 -0.5022  0.0495 -0.6358
  205ACE     H2 2135   0.067   0.696   1.355  2.4759  0.7370 -0.1837
  205ACE     H3 2136   0.190   0.562   1.315  0.5410  0.1219 -1.3689
  205ACE     H4 2137   0.072   0.566   0.980 -1.4359  0.0169 -0.0294
  206ACE     C1 2138   1.400   0.465   0.033 -0.6147 -0.2715  0.2941
  206ACE     C2 2139   1.246   0.493   0.058 -0.1314 -0.6869  0.5015
  206ACE     O1 2140   1.193   0.454   0.158  0.1194  0.7397  0.0601
  206ACE     O2 2141   1.179   0.565  -0.036 -0.6731  0.0189 -0.2225
  206ACE     H1 2142   1.439   0.377   0.085  2.9042  1.0765  0.0766
  206ACE     H2 2143   1.457   0.552   0.069 -1.3149 -0.2123  1.2746
  206ACE     H3 2144   1.424   0.469  -0.074 -3.0498  0.8765 -0.2572
  206ACE     H4 2145   1.094   0.573   0.009 -1.0560  0.5461 -1.0366
  207ACE     C1 2146   1.001   1.870   0.590 -0.7353  0.6443  0.5845
  207ACE     C2 2147   1.017   1.802   0.723 -0.6896  0.2764 -0.2259
  207ACE     O1 2148   0.972   1.851   0.819 -0.0208 -0.3168 -0.4666
  207ACE     O2 2149   1.104   1.703   0.732 -0.1644  0.1968 -0.2519
  207ACE     H1 2150   0.965   1.798   0.515  0.0105 -0.0913  0.9225
  207ACE     H2 2151   1.096   1.887   0.538 -1.4567 -0.4223 -1.1514
  207ACE     H3 2152   0.939   1.960   0.584 -1.0463  0.2822 -2.8177
  207ACE     H4 2153   1.115   1.693   0.828 -0.9703  0.3698 -0.1430
  208ACE     C1 2154   1.214   1.408   1.306  0.2472 -0.6274 -0.6236
  208ACE     C2 2155   1.326   1.339   1.237  0.6434  0.5316  0.2595
  208ACE     O1 2156   1.345   1.219   1.242  0.1734 -0.4134  0.0745
  208ACE     O2 2157   1.405   1.406   1.156  0.5869 -0.0619  0.3360
  208ACE     H1 2158   1.154   1.354   1.380  3.2465 -1.7513  1.1167
  208ACE     H2 2159   1.142   1.462   1.244  0.3454 -0.6308 -0.7413
  208ACE     H3 2160   1.268   1.488   1.357  0.9472 -1.0482 -0.6978
  208ACE     H4 2161   1.458   1.337   1.113  1.7236  2.0009 -1.5829
  209ACE     C1 2162   1.248   0.153   0.275 -1.3064  0.0061  0.2443
  209ACE     C2 2163   1.114   0.170   0.211 -0.5633 -0.4921 -0.4322
  209ACE     O1 2164   1.094   0.183   0.092 -0.2583 -0.1455 -0.2289
  209ACE     O2 2165   1.011   0.137   0.287 -0.3629 -0.4814 -0.3700
  209ACE     H1 2166   1.313   0.221   0.219 -0.3757 -0.2513  1.0051
  209ACE     H2 2167   1.288   0.052   0.259 -1.4209 -0.0964  0.5974
  209ACE     H3 2168   1.249   0.167   0.384  1.3011 -0.1502  0.2630
  209ACE     H4 2169   0.934   0.144   0.228  0.2392 -1.1973 -1.2731
  210ACE     C1 2170   1.895   2.856   0.828 -0.2137  0.4777  0.1067
  210ACE     C2 2171   1.759   2.892   0.791  0.4558 -0.4545  0.0494
  210ACE     O1 2172   1.686   2.974   0.841 -0.3186  0.0692  0.0968
  210ACE     O2 2173   1.712   2.810   0.698  0.3726 -0.2674  0.1045
  210ACE     H1 2174   1.964   2.896   0.752  1.5585 -1.2047  0.8006
  210ACE     H2 2175   1.902   2.747   0.832  1.4881  0.5743  0.4131
  210ACE     H3 2176   1.923   2.903   0.923  2.1245 -0.0399 -0.2915
  210ACE     H4 2177   1.637   2.863   0.666  0.0985 -0.2744  0.7320
  211ACE     C1 2178   0.628   0.974   0.203  0.0839  0.6255 -0.7361
  211ACE     C2 2179   0.654   1.122   0.217  1.3725  0.4104 -0.4877
  211ACE     O1 2180   0.649   1.199   0.123 -0.3223  0.3292 -0.1087
  211ACE     O2 2181   0.647   1.166   0.346  0.5957  0.3409  0.4754
  211ACE     H1 2182   0.587   0.938   0.107 -0.5244  1.1992 -0.6880
  211ACE     H2 2183   0.561   0.942   0.283 -0.6705  1.5591 -0.9799
  211ACE     H3 2184   0.723   0.920   0.213  0.1180  0.8401  0.0540
  211ACE     H4 2185   0.642   1.262   0.333 -2.6305  0.3177  1.1032
  212ACE     C1 2186   3.353   1.869   3.531  0.6144  0.0220 -0.6345
  212ACE     C2 2187   3.408   1.996   3.587  0.8901  0.3489 -0.2257
  212ACE     O1 2188   3.522   2.019   3.612  0.2877  0.0044  0.0945
  212ACE     O2 2189   3.330   2.094   3.540  0.0869 -0.4409 -0.0538
  212ACE     H1 2190   3.418   1.781   3.540  0.9999  0.4200  0.5775
  212ACE     H2 2191   3.305   1.884   3.434  0.6731  0.2105 -0.6341
  212ACE     H3 2192   3.251   1.866   3.571  0.9004  0.2487  0.1133
  212ACE     H4 2193   3.388   2.171   3.554 -0.6251 -0.0073  0.5517
  213ACE     C1 2194   0.133   2.452   0.004 -0.1948 -0.0626 -0.1542
  213ACE     C2 2195   0.090   2.577  -0.065  0.6265 -0.2052  0.8117
  213ACE     O1 2196   0.133   2.623  -0.171 -0.6885  0.3537 -0.5645
  213ACE     O2 2197   0.009   2.651   0.013 -0.3381  0.6333 -0.4162
  213ACE     H1 2198   0.136   2.471   0.112  0.1073 -2.1981  0.2326
  213ACE     H2 2199   0.230   2.417  -0.034  0.3624  0.3001  0.8912
  213ACE     H3 2200   0.047   2.384  -0.005  0.0948 -0.6228  1.1625
  213ACE     H4 2201  -0.010   2.729  -0.042 -1.4627 -0.1748 -1.2004
  214ACE     C1 2202   0.591   3.282   3.388 -0.1886  0.2556 -0.6972
  214ACE     C2 2203   0.495   3.388   3.430  0.3223 -0.4005  0.2852
  214ACE     O1 2204   0.374   3.372   3.454 -0.6833 -0.1958 -0.0674
  214ACE     O2 2205   0.545   3.512   3.436 -0.6528 -0.1083  0.2285
  214ACE     H1 2206   0.553   3.220   3.305 -0.4789 -2.7484  1.5905
  214ACE     H2 2207   0.610   3.208   3.466  1.8386  1.9616  0.4672
  214ACE     H3 2208   0.687   3.326   3.361  0.1705  0.6192  1.1510
  214ACE     H4 2209   0.467   3.559   3.471 -1.0491 -1.0568  0.6198
  215ACE     C1 2210   2.030   0.384   2.746 -0.1416 -0.0785  0.4155
  215ACE     C2 2211   2.157   0.345   2.827  0.5840  0.2952 -0.9162
  215ACE     O1 2212   2.251   0.298   2.768 -0.3637 -0.2671 -0.2461
  215ACE     O2 2213   2.158   0.388   2.958 -0.5728  0.2739 -0.5065
  215ACE     H1 2214   1.981   0.296   2.704  2.4158 -1.1095 -0.4947
  215ACE     H2 2215   2.061   0.432   2.653  0.3641 -1.5888 -0.2029
  215ACE     H3 2216   1.960   0.442   2.808  3.0075  1.4018  2.7997
  215ACE     H4 2217   2.249   0.357   2.978 -0.7855 -0.9602 -1.3988
  216ACE     C1 2218   0.102   0.336   3.536 -0.0824  0.0807 -0.3998
  216ACE     C2 2219   0.201   0.221   3.494 -0.2282  0.6549  0.2992
  216ACE     O1 2220   0.319   0.234   3.471 -0.4387  0.6678 -0.2242
  216ACE     O2 2221   0.153   0.102   3.483  0.1735  0.1906  0.0804
  216ACE     H1 2222   0.150   0.435   3.533  1.3319 -0.5894 -0.2605
  216ACE     H2 2223   0.065   0.313   3.636 -2.5643  1.4567 -0.9401
  216ACE     H3 2224   0.017   0.317   3.470  0.0265 -0.1675 -0.4681
  216ACE     H4 2225   0.228   0.045   3.455 -0.4452 -1.4535  1.6220
  217ACE     C1 2226   3.164   1.323   2.898 -0.2306 -0.5178  0.3101
  217ACE     C2 2227   3.295   1.359   2.970 -0.4689 -0.5846 -0.0104
  217ACE     O1 2228   3.403   1.298   2.962  0.0626  0.1344 -0.0069
  217ACE     O2 2229   3.298   1.485   3.024  0.3822  0.2849  0.9163
  217ACE     H1 2230   3.168   1.222   2.855 -2.1717  0.2234 -1.6963
  217ACE     H2 2231   3.142   1.392   2.816 -2.1408 -2.3559 -0.7854
  217ACE     H3 2232   3.088   1.342   2.975  1.1480 -2.4932  2.2235
  217ACE     H4 2233   3.394   1.497   3.031  0.6429 -1.2200 -0.0640
  218ACE     C1 2234   1.935   0.659   2.258  0.2622  0.1441  0.4294
  218ACE     C2 2235   1.894   0.801   2.248  0.2573 -0.4709  0.0724
  218ACE     O1 2236   1.967   0.897   2.221 -0.6343 -0.2532  0.5341
  218ACE     O2 2237   1.769   0.824   2.294 -0.1972  0.4822  0.5045
  218ACE     H1 2238   1.913   0.615   2.356 -2.7803 -0.8321 -0.6362
  218ACE     H2 2239   2.037   0.657   2.217 -0.2449  1.3032 -0.9473
  218ACE     H3 2240   1.879   0.588   2.196  1.9011 -0.9779  0.1955
  218ACE     H4 2241   1.757   0.911   2.253 -1.1009 -0.0973 -0.4811
  219ACE     C1 2242   2.073   1.444   3.534 -0.2854 -0.0839  0.4325
  219ACE     C2 2243   1.941   1.495   3.606 -0.4413 -0.1335  0.2206
  219ACE     O1 2244   1.865   1.430   3.675  0.3510 -0.0659  0.1926
  219ACE     O2 2245   1.920   1.632   3.582  0.2450  0.1198 -1.0283
  219ACE     H1 2246   2.139   1.405   3.613  0.8396 -0.5155 -0.6981
  219ACE     H2 2247   2.123   1.517   3.469  3.0045 -1.3373  1.4317
  219ACE     H3 2248   2.053   1.363   3.463  0.4823 -0.2314  0.3754
  219ACE     H4 2249   1.837   1.646   3.631  1.9048 -0.0072  1.9585
  220ACE     C1 2250   1.397   3.395   2.853 -0.4063 -0.3785 -0.1205
  220ACE     C2 2251   1.329   3.468   2.739  0.7936 -0.7950 -0.1826
  220ACE     O1 2252   1.213   3.454   2.720  0.2416  0.1484 -0.5866
  220ACE     O2 2253   1.408   3.557   2.678 -0.3447 -0.0967 -0.1717
  220ACE     H1 2254   1.367   3.445   2.945  0.1677 -1.3419  0.5928
  220ACE     H2 2255   1.504   3.410   2.835  0.1823 -2.6131  1.4029
  220ACE     H3 2256   1.362   3.291   2.848 -0.5103 -0.3627  0.2861
  220ACE     H4 2257   1.356   3.599   2.607 -0.5570  1.6470  0.9762
  221ACE     C1 2258   2.523   2.417   2.743 -0.0648  0.0213  0.2994
  221ACE     C2 2259   2.389   2.426   2.814  0.7806 -0.3766 -0.1882
  221ACE     O1 2260   2.334   2.527   2.853  0.0784  0.3608 -0.5329
  221ACE     O2 2261   2.335   2.307   2.838 -0.1092 -0.2415  0.1510
  221ACE     H1 2262   2.522   2.351   2.655  0.7664  0.2502  0.1077
  221ACE     H2 2263   2.579   2.353   2.812  0.7690 -1.8027 -2.0004
  221ACE     H3 2264   2.571   2.515   2.729 -2.9815  1.2204 -1.6849
  221ACE     H4 2265   2.272   2.328   2.908 -0.3942  0.6842 -0.3731
  222ACE     C1 2266   0.072   1.557   0.221  0.4276  0.7142 -0.0747
  222ACE     C2 2267   0.055   1.413   0.253  0.4240  0.0932  0.4000
  222ACE     O1 2268   0.019   1.335   0.167 -0.6065  0.0228 -0.1877
  222ACE     O2 2269   0.056   1.375   0.379  0.1569 -0.3886 -0.0292
  222ACE     H1 2270   0.054   1.628   0.302  1.4041  1.9282 -0.9078
  222ACE     H2 2271   0.003   1.594   0.144  2.0408  2.1730 -0.8571
  222ACE     H3 2272   0.178   1.564   0.192  0.2805 -0.2369 -0.8748
  222ACE     H4 2273   0.021   1.285   0.366 -0.1865  0.0374 -2.2169
  223ACE     C1 2274   0.036   1.278   3.565  0.6422  0.5696  0.5131
  223ACE     C2 2275  -0.033   1.234   3.435  0.4830 -0.4237 -0.4757
  223ACE     O1 2276  -0.052   1.307   3.342 -0.2383  0.0361  0.3175
  223ACE     O2 2277  -0.120   1.138   3.451 -0.3653 -0.5300  0.1477
  223ACE     H1 2278  -0.036   1.330   3.629  2.2287  0.0407  2.7808
  223ACE     H2 2279   0.108   1.360   3.558  0.1111  1.0341  0.4834
  223ACE     H3 2280   0.067   1.192   3.626  0.7989 -1.4300 -2.2633
  223ACE     H4 2281  -0.150   1.122   3.360  0.2019  1.8012 -0.5037
  224ACE     C1 2282   0.405   1.617   2.588  0.2009  0.4983 -0.0536
  224ACE     C2 2283   0.374   1.588   2.735  0.4299  0.0010  0.7839
  224ACE     O1 2284   0.440   1.627   2.826 -0.1667  0.5480 -0.2819
  224ACE     O2 2285   0.248   1.554   2.759 -0.5106  0.5735  1.0010
  224ACE     H1 2286   0.317   1.650   2.530  0.2953 -0.3010 -0.6561
  224ACE     H2 2287   0.439   1.520   2.553 -1.0098 -0.5129  1.4736
  224ACE     H3 2288   0.480   1.697   2.591 -0.2158  0.8500  1.5695
  224ACE     H4 2289   0.237   1.578   2.852  0.2011  0.6795  1.0619
  225ACE     C1 2290   1.691   0.682   2.807 -0.3601 -0.0868 -0.2022
  225ACE     C2 2291   1.657   0.815   2.734 -0.3852 -0.2723 -0.0245
  225ACE     O1 2292   1.702   0.922   2.771  0.5463  0.5045 -0.2638
  225ACE     O2 2293   1.642   0.797   2.599 -0.1829  0.0749 -0.5229
  225ACE     H1 2294   1.766   0.635   2.741 -0.8047  0.7615 -1.3356
  225ACE     H2 2295   1.610   0.609   2.812  1.5840 -2.2084  1.6022
  225ACE     H3 2296   1.742   0.708   2.900  2.3342  0.1147 -1.6521
  225ACE     H4 2297   1.652   0.888   2.566  1.6600  0.1089  0.0973
  226ACE     C1 2298   2.093   2.841   2.322 -0.3213 -0.3078 -0.6534
  226ACE     C2 2299   2.160   2.904   2.444 -0.1959 -0.2164  0.0145
  226ACE     O1 2300   2.098   2.961   2.529  0.4129  0.3503  0.0437
  226ACE     O2 2301   2.290   2.892   2.449  0.4054 -0.6036 -0.0622
  226ACE     H1 2302   2.104   2.911   2.239 -1.1924 -2.0585 -2.3042
  226ACE     H2 2303   1.988   2.821   2.346 -0.1623  0.5952  0.7825
  226ACE     H3 2304   2.140   2.747   2.289  0.4473 -0.2728  0.3470
  226ACE     H4 2305   2.303   2.931   2.537  0.5974 -0.9228  0.0480
  227ACE     C1 2306   1.266   0.224   3.617 -0.4208  0.2012 -0.7865
  227ACE     C2 2307   1.371   0.168   3.522  0.0337 -0.2006  0.2315
  227ACE     O1 2308   1.350   0.078   3.444  0.9470  0.1397 -0.0625
  227ACE     O2 2309   1.502   0.204   3.552  0.4654 -0.2126  0.4338
  227ACE     H1 2310   1.287   0.330   3.637 -0.0191  0.2660 -1.5495
  227ACE     H2 2311   1.293   0.172   3.710  0.0163 -0.7616 -1.4351
  227ACE     H3 2312   1.168   0.196   3.578 -2.2200  1.7040  2.5175
  227ACE     H4 2313   1.561   0.141   3.507  0.3698  1.5508 -2.2967
  228ACE     C1 2314   3.190   0.124   2.674 -0.5349 -0.2569 -0.0630
  228ACE     C2 2315   3.155   0.186   2.807  0.2508 -0.3753 -0.0544
  228ACE     O1 2316   3.189   0.134   2.911 -0.4758  0.0348 -0.3626
  228ACE     O2 2317   3.099   0.307   2.802 -0.0102 -0.1029  0.4700
  228ACE     H1 2318   3.200   0.197   2.593 -1.3825  0.4064  0.4271
  228ACE     H2 2319   3.105   0.063   2.639  1.2378 -2.4922 -0.6384
  228ACE     H3 2320   3.266   0.046   2.685  0.4289  0.5941 -0.6201
  228ACE     H4 2321   3.081   0.321   2.897 -2.6849  0.8036 -0.1409
  229ACE     C1 2322   2.874   1.383   2.225 -0.0853 -0.3180 -0.6326
  229ACE     C2 2323   2.886   1.465   2.347 -0.4550 -0.0149 -0.0988
  229ACE     O1 2324   2.970   1.435   2.433 -0.5212  0.3120  0.6177
  229ACE     O2 2325   2.830   1.584   2.348  0.6196  0.3206  0.0428
  229ACE     H1 2326   2.770   1.350   2.218 -0.0697 -0.9052  1.3552
  229ACE     H2 2327   2.933   1.292   2.208 -0.8838 -1.1686  1.0224
  229ACE     H3 2328   2.885   1.454   2.143  1.3698 -0.0131 -0.1927
  229ACE     H4 2329   2.871   1.623   2.427  1.4506  2.3236 -1.3348
  230ACE     C1 2330   3.145   1.585   3.289 -0.0812 -1.1416 -0.2336
  230ACE     C2 2331   3.114   1.522   3.419 -0.4528 -0.0149 -0.5412
  230ACE     O1 2332   3.005   1.480   3.449 -0.5963  0.0806 -0.0710
  230ACE     O2 2333   3.214   1.529   3.510 -0.4941  0.0875 -0.4210
  230ACE     H1 2334   3.059   1.594   3.223 -1.2989  2.0174  1.6749
  230ACE     H2 2335   3.219   1.514   3.250 -0.5599 -1.7028 -0.1122
  230ACE     H3 2336   3.208   1.674   3.302 -1.3899  0.2073 -2.8798
  230ACE     H4 2337   3.177   1.522   3.600 -0.8353 -1.4412 -0.6675
  231ACE     C1 2338   0.667   3.234   2.255  0.4423  0.7821 -0.1693
  231ACE     C2 2339   0.813   3.216   2.219  0.7367  0.0905 -0.1321
  231ACE     O1 2340   0.893   3.306   2.223 -0.3447 -0.1357  0.5492
  231ACE     O2 2341   0.847   3.089   2.214 -0.1611 -0.0675 -0.6943
  231ACE     H1 2342   0.608   3.143   2.242 -0.4195  1.5250 -1.6871
  231ACE     H2 2343   0.630   3.324   2.204 -1.1811 -1.0430 -2.2768
  231ACE     H3 2344   0.673   3.258   2.361  0.3574 -0.7522  0.1825
  231ACE     H4 2345   0.943   3.095   2.227 -0.5303  0.2076  2.4753
  232ACE     C1 2346   1.305   2.947   3.668 -0.0691  0.0371  0.2148
  232ACE     C2 2347   1.216   2.901   3.546 -0.7675 -0.0742  0.2423
  232ACE     O1 2348   1.185   2.786   3.532 -0.0056 -0.2571 -0.0991
  232ACE     O2 2349   1.128   2.993   3.509 -0.2107 -0.0222  0.2059
  232ACE     H1 2350   1.390   2.992   3.616  0.0101  0.0683  0.3699
  232ACE     H2 2351   1.331   2.871   3.743 -1.3845 -1.6188 -0.9655
  232ACE     H3 2352   1.256   3.030   3.721  0.1040 -0.0815  0.5648
  232ACE     H4 2353   1.058   2.943   3.463 -0.0596 -2.8286  2.8537
  233ACE     C1 2354   1.209   1.474   2.335  0.6856 -0.3471 -0.2283
  233ACE     C2 2355   1.069   1.444   2.278  0.4947  0.3174  0.3697
  233ACE     O1 2356   0.996   1.518   2.215 -0.6284  0.2136  0.7126
  233ACE     O2 2357   1.024   1.322   2.311  0.2575  0.2321 -0.1098
  233ACE     H1 2358   1.236   1.575   2.302  1.7851 -0.4030  0.4809
  233ACE     H2 2359   1.275   1.398   2.292  1.1145 -0.1434  0.0647
  233ACE     H3 2360   1.218   1.447   2.441 -0.3781  1.1961  0.2848
  233ACE     H4 2361   0.929   1.313   2.293  0.1502 -0.7464  0.8830
  234ACE     C1 2362   3.241   2.940   0.367 -0.6022  0.1029  1.0583
  234ACE     C2 2363   3.134   2.932   0.475  0.4886 -0.6558  0.2394
  234ACE     O1 2364   3.026   2.981   0.461 -0.1586 -0.9605 -0.5447
  234ACE     O2 2365   3.177   2.894   0.595 -0.5660  0.1168  0.0554
  234ACE     H1 2366   3.227   2.855   0.300  0.6004  2.3631 -2.1792
  234ACE     H2 2367   3.341   2.929   0.410  0.2329  0.1889 -0.8402
  234ACE     H3 2368   3.223   3.033   0.312 -0.6982 -0.9610 -0.7493
  234ACE     H4 2369   3.099   2.916   0.648 -0.4019  0.1880  0.2683
  235ACE     C1 2370   1.747   2.622   2.228 -0.3186 -0.0371  0.4815
  235ACE     C2 2371   1.599   2.670   2.237 -0.7558 -0.1449  0.3242
  235ACE     O1 2372   1.511   2.588   2.236  0.3416  0.9542 -0.0635
  235ACE     O2 2373   1.588   2.801   2.222 -0.2467  0.7385  0.2483
  235ACE     H1 2374   1.757   2.516   2.202 -1.4907 -0.7131  2.6518
  235ACE     H2 2375   1.799   2.649   2.320  0.5870 -1.0712  0.2755
  235ACE     H3 2376   1.806   2.685   2.159 -0.9323 -2.3082 -2.2134
  235ACE     H4 2377   1.492   2.806   2.210 -0.2498 -3.1572 -2.4160
  236ACE     C1 2378   1.007   0.514   3.373  0.0586  0.0461 -0.3188
  236ACE     C2 2379   1.108   0.618   3.398 -0.1136 -0.6850 -0.1393
  236ACE     O1 2380   1.084   0.738   3.399  0.6428  0.4056 -0.8980
  236ACE     O2 2381   1.225   0.567   3.425 -0.0107 -0.1992 -0.6811
  236ACE     H1 2382   1.002   0.454   3.465 -1.0115  2.9141  1.5831
  236ACE     H2 2383   1.042   0.434   3.307  1.8730  1.2123 -0.8233
  236ACE     H3 2384   0.903   0.543   3.356  0.3106  1.0750 -0.1638
  236ACE     H4 2385   1.289   0.636   3.449  1.5023 -1.1582 -1.8605
  237ACE     C1 2386   1.469   3.284   2.530 -0.0150  0.3742  0.2597
  237ACE     C2 2387   1.607   3.265   2.580  0.0009  0.1552 -0.4149
  237ACE     O1 2388   1.677   3.350   2.632 -0.2668 -0.4896  0.2681
  237ACE     O2 2389   1.646   3.140   2.584  0.2486 -0.6855 -0.1542
  237ACE     H1 2390   1.406   3.240   2.609 -0.2099  1.2004  0.5674
  237ACE     H2 2391   1.468   3.217   2.444  1.4164  1.4693 -0.6271
  237ACE     H3 2392   1.442   3.387   2.503  1.5943  1.0146  1.0156
  237ACE     H4 2393   1.734   3.160   2.618  0.5959  1.7438 -2.2756
  238ACE     C1 2394   1.572   1.365   2.971 -0.3735  0.1577  0.1508
  238ACE     C2 2395   1.443   1.359   3.039  0.0699 -0.2752  0.2765
  238ACE     O1 2396   1.331   1.358   2.994  0.5664 -0.0771  0.1290
  238ACE     O2 2397   1.456   1.363   3.172  0.4031  0.5239 -0.3728
  238ACE     H1 2398   1.557   1.377   2.863 -2.2291  1.4616  0.5347
  238ACE     H2 2399   1.606   1.261   2.979  0.3970  0.4439  0.6621
  238ACE     H3 2400   1.652   1.423   3.018  0.3249 -1.1614  0.6085
  238ACE     H4 2401   1.364   1.363   3.203  0.3219  0.6412 -0.6158
  239ACE     C1 2402   2.227   0.405   2.332 -0.4482 -0.2184  0.4929
  239ACE     C2 2403   2.159   0.266   2.321 -0.3078  0.8538  0.7163
  239ACE     O1 2404   2.068   0.230   2.241  0.3286  0.5783 -0.4952
  239ACE     O2 2405   2.237   0.171   2.368  0.3565  0.0961 -0.0338
  239ACE     H1 2406   2.172   0.491   2.292  1.2055  0.2986 -0.6963
  239ACE     H2 2407   2.323   0.398   2.280 -0.7224 -2.4902  0.2260
  239ACE     H3 2408   2.264   0.418   2.434 -0.8189 -4.0283  1.1953
  239ACE     H4 2409   2.205   0.093   2.320 -0.1266 -0.3157  0.9451
  240ACE     C1 2410   1.496   1.257   2.574 -0.5064 -0.0059 -0.3844
  240ACE     C2 2411   1.586   1.144   2.596  0.2632  0.1728  0.1254
  240ACE     O1 2412   1.594   1.049   2.522 -0.2177  0.4405  0.4798
  240ACE     O2 2413   1.680   1.166   2.685 -0.0410  0.3402  0.2546
  240ACE     H1 2414   1.550   1.346   2.541 -0.2845 -0.4844 -1.3414
  240ACE     H2 2415   1.450   1.292   2.667 -0.4747  1.5374 -0.9472
  240ACE     H3 2416   1.420   1.235   2.499 -2.1879  3.5770  0.2113
  240ACE     H4 2417   1.710   1.077   2.711  1.8728  0.6020 -0.9310
  241ACE     C1 2418   2.375   2.035   3.051 -0.2575  0.1046  0.0354
  241ACE     C2 2419   2.342   2.154   3.134  0.8394  0.2461 -1.1776
  241ACE     O1 2420   2.263   2.242   3.091 -0.2090 -0.1088  0.1356
  241ACE     O2 2421   2.370   2.142   3.263 -0.1357  0.0072  0.0439
  241ACE     H1 2422   2.351   2.041   2.945  0.4164 -0.6261 -0.1686
  241ACE     H2 2423   2.313   1.953   3.088  0.3885 -0.4490 -0.0908
  241ACE     H3 2424   2.478   2.003   3.072  0.5209  1.2500 -1.9552
  241ACE     H4 2425   2.327   2.221   3.300 -0.5813 -0.4007  0.4077
  242ACE     C1 2426   1.704   1.846   2.889  0.3368  0.3082 -1.0326
  242ACE     C2 2427   1.617   1.721   2.875  0.2248 -1.1248  0.5583
  242ACE     O1 2428   1.555   1.665   2.960 -0.2092  0.1221  0.1779
  242ACE     O2 2429   1.622   1.671   2.755 -0.6685 -0.4546 -0.4101
  242ACE     H1 2430   1.715   1.880   2.992  0.8334 -0.3003 -0.8760
  242ACE     H2 2431   1.642   1.918   2.834 -2.8030 -2.9816 -2.0120
  242ACE     H3 2432   1.801   1.836   2.838  0.6575  0.9065 -0.5387
  242ACE     H4 2433   1.543   1.614   2.748 -0.8107 -0.2452 -0.5061
  243ACE     C1 2434   0.378   1.704   3.533  0.2561 -0.5707  0.8787
  243ACE     C2 2435   0.454   1.594   3.601 -0.2258  0.7377  0.2937
  243ACE     O1 2436   0.421   1.559   3.711  0.4350 -0.2364  0.4558
  243ACE     O2 2437   0.500   1.504   3.508  0.4970  0.7432 -0.3590
  243ACE     H1 2438   0.310   1.672   3.454  0.5027 -2.5768  1.4509
  243ACE     H2 2439   0.445   1.775   3.481 -2.4764  1.3382 -0.1348
  243ACE     H3 2440   0.326   1.753   3.616 -1.2202 -1.7046  0.6425
  243ACE     H4 2441   0.516   1.425   3.562 -1.7424 -0.6895 -1.7029
  244ACE     C1 2442   2.682   2.857   2.747 -0.2483 -0.1007 -0.5850
  244ACE     C2 2443   2.715   2.775   2.867 -0.1365  0.3634  0.0822
  244ACE     O1 2444   2.689   2.660   2.878 -0.5008 -0.1563  0.2169
  244ACE     O2 2445   2.806   2.826   2.944  0.0064 -0.3486 -0.4495
  244ACE     H1 2446   2.648   2.952   2.788 -0.0652  1.4955 -3.9235
  244ACE     H2 2447   2.618   2.799   2.679 -0.3955  1.4894 -1.8337
  244ACE     H3 2448   2.776   2.882   2.696  0.9105  0.9409  1.9884
  244ACE     H4 2449   2.821   2.747   2.999  1.0998 -1.3336 -2.1409
  245ACE     C1 2450   0.095   3.243   2.284 -0.3132 -0.5051 -0.0646
  245ACE     C2 2451   0.203   3.349   2.289  0.6533 -0.1507 -0.5588
  245ACE     O1 2452   0.191   3.450   2.353 -0.2753 -0.3497  0.0839
  245ACE     O2 2453   0.315   3.332   2.218 -0.0687  0.1695  0.0623
  245ACE     H1 2454   0.048   3.226   2.381  0.9288 -0.4212  0.5595
  245ACE     H2 2455   0.137   3.153   2.238 -0.6109 -0.9968  0.6161
  245ACE     H3 2456   0.015   3.285   2.222 -1.4005 -1.8340  0.4137
  245ACE     H4 2457   0.359   3.417   2.232 -0.6677  0.4014  0.5691
  246ACE     C1 2458   0.188   0.982   3.368 -0.0036  0.0815  0.3638
  246ACE     C2 2459   0.306   1.053   3.420 -0.3929  0.1523 -0.9372
  246ACE     O1 2460   0.349   1.153   3.367 -0.1578  0.0075 -0.1824
  246ACE     O2 2461   0.322   1.041   3.557 -0.2678  0.5968 -0.3460
  246ACE     H1 2462   0.154   1.032   3.277  0.3723  1.9699  1.2338
  246ACE     H2 2463   0.106   0.986   3.441  0.6411  0.4990  1.0720
  246ACE     H3 2464   0.208   0.874   3.360 -1.6191 -0.3459  1.7236
  246ACE     H4 2465   0.338   1.134   3.579 -0.7781  0.3950  0.8938
  247ACE     C1 2466   0.371   2.120   3.207 -0.9925  0.1501  0.2046
  247ACE     C2 2467   0.276   2.117   3.323 -0.0229  0.6105 -0.6510
  247ACE     O1 2468   0.164   2.159   3.326  0.1662 -0.3993  1.0080
  247ACE     O2 2469   0.317   2.039   3.424 -0.5197  0.2449 -0.3104
  247ACE     H1 2470   0.473   2.088   3.231 -1.3673 -2.1273 -1.0556
  247ACE     H2 2471   0.358   2.219   3.162  0.5048  1.0081  1.6150
  247ACE     H3 2472   0.334   2.059   3.124 -0.9402 -1.4369  1.3248
  247ACE     H4 2473   0.247   2.057   3.490 -0.2494  0.2522 -0.0225
  248ACE     C1 2474   0.284   1.102   2.861  0.0899  0.7449 -0.4684
  248ACE     C2 2475   0.293   0.944   2.888 -0.6964  0.6091 -0.5368
  248ACE     O1 2476   0.300   0.897   2.999 -0.7107 -0.3610 -0.4167
  248ACE     O2 2477   0.222   0.870   2.800 -0.1574  0.3550  0.7450
  248ACE     H1 2478   0.388   1.135   2.874  1.1195 -2.3445 -0.3842
  248ACE     H2 2479   0.236   1.160   2.941  1.7361  1.4749  0.0015
  248ACE     H3 2480   0.255   1.128   2.759 -1.2256 -1.1381 -0.6104
  248ACE     H4 2481   0.204   0.787   2.846  0.3074 -0.8636 -1.2418
  249ACE     C1 2482   3.099   0.405   2.284  0.1213 -0.0160  0.0338
  249ACE     C2 2483   3.021   0.526   2.247 -0.0004  0.0458 -0.4247
  249ACE     O1 2484   2.910   0.545   2.276  0.3391 -0.5517 -0.0823
  249ACE     O2 2485   3.101   0.624   2.191  0.1029 -0.0132  0.1276
  249ACE     H1 2486   3.203   0.417   2.253 -0.4624  1.1014 -1.5263
  249ACE     H2 2487   3.051   0.325   2.225  3.0276 -0.5217 -1.7863
  249ACE     H3 2488   3.086   0.372   2.387  0.1231  0.6638  0.2528
  249ACE     H4 2489   3.039   0.699   2.184 -0.6393 -0.6264  0.0924
  250ACE     C1 2490   2.403   1.090   2.269  0.4177  1.0494  0.2479
  250ACE     C2 2491   2.268   1.022   2.285 -0.0843  0.2829  0.9583
  250ACE     O1 2492   2.246   0.915   2.333  0.2110  0.6293 -0.0220
  250ACE     O2 2493   2.172   1.079   2.205 -0.0214  0.3144  0.0729
  250ACE     H1 2494   2.387   1.192   2.307 -2.1171  0.8685 -0.2587
  250ACE     H2 2495   2.423   1.114   2.164 -1.6970  0.9893 -0.1972
  250ACE     H3 2496   2.489   1.037   2.310 -1.3317 -1.7131  0.4189
  250ACE     H4 2497   2.098   1.016   2.213  0.2584 -0.1513 -0.9555
  251ACE     C1 2498   3.086   1.774   2.713 -0.1242  0.1857 -0.2051
  251ACE     C2 2499   2.967   1.677   2.675 -0.5030 -0.3756  0.1304
  251ACE     O1 2500   2.892   1.694   2.581  0.0716  0.3468 -0.1110
  251ACE     O2 2501   2.938   1.582   2.762 -0.1430  0.2164 -0.4928
  251ACE     H1 2502   3.062   1.836   2.801  0.1000  0.0793 -0.0694
  251ACE     H2 2503   3.101   1.835   2.623 -2.3218  0.8254 -0.1768
  251ACE     H3 2504   3.173   1.712   2.735  0.3128  0.9740  0.3469
  251ACE     H4 2505   2.856   1.547   2.725 -0.4777 -0.6052  0.9868
  252ACE     C1 2506   2.526   1.297   2.986 -0.8894  0.5294  0.9107
  252ACE     C2 2507   2.557   1.196   2.875 -0.0769  0.7658  0.1310
  252ACE     O1 2508   2.491   1.194   2.772  0.2355  0.2623  0.0928
  252ACE     O2 2509   2.622   1.087   2.917  0.0021 -0.0489  0.0739
  252ACE     H1 2510   2.608   1.323   3.053 -1.7904  3.1130  1.0524
  252ACE     H2 2511   2.435   1.280   3.045 -0.0634  1.2064  2.3987
  252ACE     H3 2512   2.499   1.384   2.925  2.7991 -0.4828 -2.3913
  252ACE     H4 2513   2.618   1.014   2.852 -1.8540 -0.4436  0.6188
  253ACE     C1 2514   2.697   3.380   3.411 -0.0541 -0.4038  0.2129
  253ACE     C2 2515   2.686   3.528   3.423 -1.0252 -0.6569 -0.2728
  253ACE     O1 2516   2.572   3.586   3.418  0.3861 -0.0240 -0.0808
  253ACE     O2 2517   2.790   3.591   3.467 -0.4135 -1.3147  0.1550
  253ACE     H1 2518   2.613   3.337   3.354 -0.6967  0.0107  0.8325
  253ACE     H2 2519   2.675   3.343   3.512  2.8600 -2.5629  0.1061
  253ACE     H3 2520   2.793   3.332   3.390 -0.7581 -0.8308 -2.2063
  253ACE     H4 2521   2.759   3.679   3.496  1.9286 -0.0659 -0.9827
  254ACE     C1 2522   1.741   3.094   0.453  1.0473  0.6000 -0.2061
  254ACE     C2 2523   1.862   3.183   0.435 -0.3445  0.0359  0.4103
  254ACE     O1 2524   1.899   3.283   0.497 -0.1234  0.4460  0.4697
  254ACE     O2 2525   1.966   3.112   0.391 -0.2737 -0.2714 -0.7182
  254ACE     H1 2526   1.674   3.110   0.368 -0.4860 -0.9297  0.6852
  254ACE     H2 2527   1.675   3.101   0.540 -1.1084 -0.5099 -1.6915
  254ACE     H3 2528   1.764   2.989   0.432  0.5767  0.5532 -0.4964
  254ACE     H4 2529   2.041   3.172   0.409 -0.8150  0.6672 -1.5484
  255ACE     C1 2530   0.479   2.594   0.031 -0.5822 -0.1275 -0.3835
  255ACE     C2 2531   0.552   2.713  -0.012 -0.2702  0.3709 -0.3254
  255ACE     O1 2532   0.637   2.712  -0.103 -0.5440 -0.0683  0.5183
  255ACE     O2 2533   0.529   2.819   0.071  0.7432 -0.2182 -0.7612
  255ACE     H1 2534   0.502   2.499  -0.019 -0.3974  1.2138 -2.9550
  255ACE     H2 2535   0.373   2.608   0.006 -0.7334 -0.0151  0.3233
  255ACE     H3 2536   0.477   2.590   0.140 -0.6281  0.2429 -0.3730
  255ACE     H4 2537   0.610   2.874   0.075 -1.3335  2.8741  0.2351
  256ACE     C1 2538   3.278   1.839   3.057 -0.4086  0.7809  0.1579
  256ACE     C2 2539   3.391   1.916   3.126 -0.3650  0.4909  0.5805
  256ACE     O1 2540   3.482   1.861   3.186 -0.4075  0.2778 -0.2115
  256ACE     O2 2541   3.362   2.052   3.130 -0.3229 -0.0258 -0.0420
  256ACE     H1 2542   3.323   1.740   3.050  0.7759  1.1913  1.5678
  256ACE     H2 2543   3.243   1.885   2.964  2.2668  2.3983 -0.0996
  256ACE     H3 2544   3.192   1.833   3.126 -0.1907 -0.7279  0.2984
  256ACE     H4 2545   3.428   2.086   3.193 -1.4990 -0.2441  1.3371
  257ACE     C1 2546   0.962   3.117   3.069  0.3781  0.1728 -0.2584
  257ACE     C2 2547   0.885   3.233   3.018  0.4515  0.4802  0.5127
  257ACE     O1 2548   0.799   3.217   2.932  0.1248 -0.5818 -0.2083
  257ACE     O2 2549   0.947   3.344   3.043 -0.1867  0.3008 -0.1046
  257ACE     H1 2550   0.892   3.038   3.099  0.5776 -0.6791 -1.9746
  257ACE     H2 2551   1.035   3.148   3.144 -0.1066  1.8581 -0.4619
  257ACE     H3 2552   1.006   3.079   2.976  0.8859 -0.5139  0.2583
  257ACE     H4 2553   0.910   3.400   2.973 -0.3682 -1.0000 -1.0551
  258ACE     C1 2554   0.389   3.234   2.573  0.1651  0.4480 -0.3762
  258ACE     C2 2555   0.262   3.192   2.653 -0.3773 -0.2779 -0.1760
  258ACE     O1 2556   0.217   3.254   2.740  0.5709 -0.3202  0.7414
  258ACE     O2 2557   0.215   3.073   2.623 -0.1327  0.1098 -0.1496
  258ACE     H1 2558   0.480   3.191   2.615  0.8861  0.2891 -2.0619
  258ACE     H2 2559   0.399   3.343   2.570 -0.4733  0.5707  1.1139
  258ACE     H3 2560   0.383   3.206   2.467 -0.5069 -1.7729  0.2210
  258ACE     H4 2561   0.149   3.063   2.694 -1.1166  1.8714 -0.7806
  259ACE     C1 2562   0.436   2.893   2.948  0.2103  0.1588 -0.1878
  259ACE     C2 2563   0.569   2.967   2.937  0.6319  0.3666  1.0209
  259ACE     O1 2564   0.667   2.928   2.997  0.0404  0.0134 -1.3537
  259ACE     O2 2565   0.559   3.088   2.886 -0.2948  0.0805 -0.3991
  259ACE     H1 2566   0.448   2.784   2.942  0.2705  0.1321  0.3552
  259ACE     H2 2567   0.367   2.933   2.874 -0.5853  2.7131  1.8415
  259ACE     H3 2568   0.401   2.923   3.048 -0.8881  1.0148 -0.8279
  259ACE     H4 2569   0.643   3.131   2.911 -1.2678 -0.0927  3.3683
  260ACE     C1 2570   3.229   0.024   3.476  0.2054 -0.0287 -0.1614
  260ACE     C2 2571   3.316  -0.093   3.500 -0.1509 -0.0770 -0.0506
  260ACE     O1 2572   3.356  -0.168   3.414 -0.1374  0.4028  0.0135
  260ACE     O2 2573   3.336  -0.119   3.633 -0.3837 -0.5988 -0.7195
  260ACE     H1 2574   3.220   0.043   3.368 -2.0308 -1.5501 -0.2705
  260ACE     H2 2575   3.251   0.109   3.542 -1.0897 -0.3651  0.7240
  260ACE     H3 2576   3.133  -0.010   3.517  0.4466  0.0052  0.4309
  260ACE     H4 2577   3.400  -0.192   3.628 -0.9188 -1.2182  0.8650
  261ACE     C1 2578   3.094   3.050   2.303 -0.0725 -0.5672  0.0748
  261ACE     C2 2579   3.152   2.905   2.280 -0.0181  0.1315  0.2996
  261ACE     O1 2580   3.102   2.815   2.217  0.1614  0.2523  0.0046
  261ACE     O2 2581   3.251   2.874   2.357 -0.3965 -0.3587 -0.3524
  261ACE     H1 2582   3.176   3.123   2.306 -1.0387  0.5558 -0.6407
  261ACE     H2 2583   3.053   3.046   2.404  1.1801 -2.4609  0.5425
  261ACE     H3 2584   3.015   3.079   2.233  0.2098  2.9045  1.1004
  261ACE     H4 2585   3.246   2.777   2.352  0.1392 -0.3791 -0.5680
  262ACE     C1 2586   1.989   1.354   2.961 -0.1242 -0.0051  0.0332
  262ACE     C2 2587   2.079   1.440   2.880  0.4812 -0.1074  0.3502
  262ACE     O1 2588   2.190   1.475   2.919  0.7006 -0.0161  0.5241
  262ACE     O2 2589   2.048   1.438   2.747  0.2400 -0.5028  0.4972
  262ACE     H1 2590   1.985   1.256   2.913  0.2498 -1.2846  2.5543
  262ACE     H2 2591   1.888   1.398   2.963 -0.4761 -0.8026  0.0326
  262ACE     H3 2592   2.023   1.356   3.065 -0.4098  0.7231  0.1160
  262ACE     H4 2593   2.127   1.485   2.714 -0.0386  1.3340  2.3536
  263ACE     C1 2594   2.009   3.431   2.575  0.6440  0.1286  0.0939
  263ACE     C2 2595   2.007   3.277   2.598 -0.5540  0.3559 -0.4827
  263ACE     O1 2596   1.917   3.203   2.640  0.3544 -0.2913  0.7030
  263ACE     O2 2597   2.126   3.216   2.580  0.0028  0.2713  0.1380
  263ACE     H1 2598   2.022   3.442   2.467 -0.3848  2.7397  0.2037
  263ACE     H2 2599   2.105   3.472   2.608  0.7752 -0.2425  0.1742
  263ACE     H3 2600   1.923   3.490   2.609  1.3804  1.0675  0.3362
  263ACE     H4 2601   2.102   3.122   2.579 -0.4500  0.3927 -0.7942
  264ACE     C1 2602   1.441   1.627   3.669 -0.1450  0.0356  0.4656
  264ACE     C2 2603   1.581   1.593   3.716 -0.2979 -0.0918  0.2105
  264ACE     O1 2604   1.676   1.667   3.736 -0.0647  0.3925  0.2665
  264ACE     O2 2605   1.593   1.462   3.742  0.1502  0.4855 -0.2999
  264ACE     H1 2606   1.401   1.566   3.587  0.6052 -0.6741  0.6253
  264ACE     H2 2607   1.443   1.733   3.641 -3.7056  0.4938  1.6179
  264ACE     H3 2608   1.378   1.623   3.759  0.3714 -0.0975  0.8215
  264ACE     H4 2609   1.690   1.453   3.742  0.0681 -0.4664 -0.6146
  265ACE     C1 2610   1.017   0.998   3.789 -0.0916 -0.1466 -0.4595
  265ACE     C2 2611   1.039   0.969   3.641 -0.0895  0.5449 -0.4679
  265ACE     O1 2612   0.949   0.940   3.568  0.1612 -0.2228 -0.5721
  265ACE     O2 2613   1.161   0.923   3.615 -0.0110 -0.1271  0.0931
  265ACE     H1 2614   1.087   1.081   3.807  1.2549 -0.8313 -2.4780
  265ACE     H2 2615   1.050   0.910   3.844 -0.1439  0.7180  0.9921
  265ACE     H3 2616   0.913   1.011   3.823  0.1957 -5.0975  2.8106
  265ACE     H4 2617   1.138   0.876   3.533 -0.3927 -3.1152  1.8292
  266ACE     C1 2618   1.245   2.003   2.896  0.4929 -0.0928  0.8600
  266ACE     C2 2619   1.176   2.119   2.823 -0.3305 -0.1516  0.1085
  266ACE     O1 2620   1.057   2.137   2.828  0.4929  0.6357  0.1530
  266ACE     O2 2621   1.260   2.194   2.749 -1.0211 -0.1989 -0.2975
  266ACE     H1 2622   1.178   1.918   2.912 -0.4283  0.6845  1.2451
  266ACE     H2 2623   1.277   2.040   2.995  0.6732 -1.7950  1.4477
  266ACE     H3 2624   1.338   1.971   2.849  0.1853  1.5141 -0.8777
  266ACE     H4 2625   1.194   2.242   2.697  1.2787  2.9858 -0.4279
  267ACE     C1 2626   2.457   1.305   3.494  0.2644  0.0211  0.7567
  267ACE     C2 2627   2.569   1.385   3.420  0.2279 -0.1175  0.5196
  267ACE     O1 2628   2.582   1.400   3.296 -0.4196 -0.3908 -0.4988
  267ACE     O2 2629   2.673   1.415   3.502  0.4259 -0.0426 -0.0936
  267ACE     H1 2630   2.449   1.203   3.455 -1.7057  0.1317  0.8168
  267ACE     H2 2631   2.358   1.347   3.472  0.2066 -0.3240  0.3597
  267ACE     H3 2632   2.482   1.306   3.601  0.8892  0.9764  0.6019
  267ACE     H4 2633   2.741   1.455   3.446 -0.8889  2.9280  0.3104
  268ACE     C1 2634   0.302   0.128   3.126  0.3651  0.0137 -0.2688
  268ACE     C2 2635   0.248   0.273   3.140  0.1397  0.0581  0.6756
  268ACE     O1 2636   0.130   0.297   3.155 -0.3553  0.1997  0.1144
  268ACE     O2 2637   0.327   0.366   3.087  0.4252 -0.9858  0.0693
  268ACE     H1 2638   0.391   0.102   3.184  0.8239 -3.1850 -2.2839
  268ACE     H2 2639   0.341   0.115   3.025  1.6746  0.0437  0.2326
  268ACE     H3 2640   0.221   0.055   3.141 -1.5942  1.7684 -1.9613
  268ACE     H4 2641   0.419   0.338   3.101  0.2040 -0.6166  2.6030
  269ACE     C1 2642   1.106   2.245   2.235 -0.0262  0.2958 -0.0654
  269ACE     C2 2643   0.985   2.318   2.299  0.2326  0.4503 -0.0880
  269ACE     O1 2644   0.960   2.432   2.274 -0.7624 -0.4107  0.7079
  269ACE     O2 2645   0.882   2.234   2.326 -0.2071  0.2025 -0.1711
  269ACE     H1 2646   1.183   2.311   2.193 -0.5126 -0.8676 -2.9303
  269ACE     H2 2647   1.072   2.179   2.155 -0.6057  0.8654 -0.2988
  269ACE     H3 2648   1.144   2.177   2.312 -1.3195 -1.4826 -0.9624
  269ACE     H4 2649   0.800   2.286   2.318 -1.0675 -1.2455 -0.8299
  270ACE     C1 2650   0.668   2.563   2.278  0.6810  0.2463 -0.0357
  270ACE     C2 2651   0.568   2.446   2.262 -0.5087 -0.4898 -0.5830
  270ACE     O1 2652   0.452   2.453   2.235 -0.3773 -0.0742  0.1835
  270ACE     O2 2653   0.616   2.329   2.296 -0.0551  0.0932 -0.3313
  270ACE     H1 2654   0.621   2.659   2.255 -1.0105  0.2615  3.2779
  270ACE     H2 2655   0.751   2.547   2.207 -1.4090 -0.8746 -2.3134
  270ACE     H3 2656   0.720   2.561   2.375  1.2461  0.4470 -0.3283
  270ACE     H4 2657   0.533   2.279   2.308  1.1554 -2.1852 -1.1952
  271ACE     C1 2658   2.796   1.022   2.260 -0.5848  0.1212  0.2971
  271ACE     C2 2659   2.870   0.893   2.294  0.1036  0.1193 -0.6476
  271ACE     O1 2660   2.936   0.829   2.215 -0.0293 -0.1710  0.0867
  271ACE     O2 2661   2.821   0.826   2.396 -0.0026 -0.1250  0.1525
  271ACE     H1 2662   2.693   0.985   2.264 -0.4784 -0.1880  0.1919
  271ACE     H2 2663   2.820   1.060   2.160 -1.0529  0.7072  0.4019
  271ACE     H3 2664   2.804   1.110   2.325 -1.2235  1.9413 -2.0250
  271ACE     H4 2665   2.841   0.733   2.378  0.0036 -0.9467  3.9662
  272ACE     C1 2666   0.790   1.923   3.239  0.3144  0.0919 -0.5551
  272ACE     C2 2667   0.752   1.947   3.380 -0.2316 -0.1154 -0.6674
  272ACE     O1 2668   0.789   2.042   3.449 -0.0872  0.2392  0.7841
  272ACE     O2 2669   0.692   1.854   3.450 -0.0668  0.5598  0.1371
  272ACE     H1 2670   0.839   2.010   3.194 -1.1390  0.8059 -0.7635
  272ACE     H2 2671   0.699   1.903   3.182  0.6804  0.4122 -1.2502
  272ACE     H3 2672   0.846   1.830   3.220  0.9910  0.6523 -1.3565
  272ACE     H4 2673   0.709   1.884   3.541  2.6195  0.9416 -0.4638
  273ACE     C1 2674   1.288   1.658   3.207  0.4848  0.7446  0.3582
  273ACE     C2 2675   1.333   1.801   3.251 -0.2536  0.6239 -0.1355
  273ACE     O1 2676   1.296   1.902   3.199  0.2066  0.2419  0.3275
  273ACE     O2 2677   1.426   1.812   3.341 -0.4353  0.3980 -0.2640
  273ACE     H1 2678   1.361   1.624   3.133  0.5540  1.3635  0.1384
  273ACE     H2 2679   1.192   1.663   3.154  0.1661  0.9762  0.9426
  273ACE     H3 2680   1.292   1.584   3.288  1.6202 -1.3789 -1.5789
  273ACE     H4 2681   1.465   1.900   3.327  0.8948 -0.5043 -2.5881
  274ACE     C1 2682   3.032   2.092   3.195 -0.1621 -0.1516 -0.4965
  274ACE     C2 2683   2.896   2.057   3.133 -0.0893  0.1352  0.7684
  274ACE     O1 2684   2.883   2.036   3.013  0.2779  0.1333 -0.0422
  274ACE     O2 2685   2.791   2.050   3.212 -0.3735 -0.5861  0.1525
  274ACE     H1 2686   3.110   2.105   3.120  1.1371 -1.0829  0.6708
  274ACE     H2 2687   3.071   2.024   3.271  0.4315 -0.7461 -1.3238
  274ACE     H3 2688   3.014   2.183   3.253  1.4473  0.1054 -0.3872
  274ACE     H4 2689   2.729   1.994   3.162 -0.0609 -0.3993 -0.4526
  275ACE     C1 2690   2.569   0.696   2.609 -0.4983  0.2228 -0.1124
  275ACE     C2 2691   2.552   0.841   2.656  0.1027 -0.1316 -0.4219
  275ACE     O1 2692   2.631   0.885   2.739  0.5423 -0.0659  0.0514
  275ACE     O2 2693   2.464   0.919   2.584 -0.4028 -0.1495 -0.3978
  275ACE     H1 2694   2.477   0.638   2.590 -1.2721  1.4068 -0.0651
  275ACE     H2 2695   2.638   0.634   2.667 -0.7072  1.3972  1.4134
  275ACE     H3 2696   2.608   0.706   2.507  0.7229  1.8693  0.5027
  275ACE     H4 2697   2.497   1.006   2.612  2.4529 -1.1377 -0.5559
  276ACE     C1 2698   1.791   2.079   3.285 -0.5120  0.0173 -0.0397
  276ACE     C2 2699   1.648   2.087   3.239 -0.2538  0.7225  0.9307
  276ACE     O1 2700   1.560   2.027   3.294  0.7412 -0.2044 -0.5378
  276ACE     O2 2701   1.626   2.176   3.139  0.3763 -0.1003 -0.2879
  276ACE     H1 2702   1.788   2.036   3.386  0.3228  1.1926  0.5042
  276ACE     H2 2703   1.836   2.177   3.266 -1.3012  0.1654 -1.1746
  276ACE     H3 2704   1.842   2.008   3.219 -0.5732  0.8900 -1.0396
  276ACE     H4 2705   1.531   2.159   3.135  1.0567 -5.6570  2.0309
  277ACE     C1 2706   2.937   0.755   2.757 -0.5302 -0.2804  0.2425
  277ACE     C2 2707   3.040   0.646   2.787 -0.3968  0.0621 -0.0016
  277ACE     O1 2708   3.078   0.631   2.898 -0.2646  0.3183  0.8769
  277ACE     O2 2709   3.058   0.551   2.689  0.0755 -0.1580  0.0673
  277ACE     H1 2710   2.986   0.845   2.720  2.6612 -2.3375 -0.6867
  277ACE     H2 2711   2.873   0.777   2.843 -0.6218  0.0024  0.0995
  277ACE     H3 2712   2.880   0.709   2.675  1.1853  0.2772 -1.2872
  277ACE     H4 2713   3.100   0.480   2.740  0.1683 -0.2003 -0.0679
  278ACE     C1 2714   1.187   1.633   2.800  0.6513  0.2417  0.3001
  278ACE     C2 2715   1.299   1.659   2.709 -0.2876 -0.3209  0.8058
  278ACE     O1 2716   1.387   1.576   2.699 -0.5983  0.5075 -0.3137
  278ACE     O2 2717   1.283   1.758   2.621  0.1145  0.4043  0.2861
  278ACE     H1 2718   1.133   1.725   2.827 -0.7210 -0.6556  0.6466
  278ACE     H2 2719   1.223   1.583   2.890 -1.3645 -0.8324  0.5202
  278ACE     H3 2720   1.105   1.573   2.759 -1.5525  2.3018  1.5038
  278ACE     H4 2721   1.359   1.746   2.561 -0.4258  0.6049 -0.4487
  279ACE     C1 2722   0.451   2.093   3.719 -0.1384  0.3853 -0.4306
  279ACE     C2 2723   0.592   2.067   3.760 -0.0639  0.0411 -0.0810
  279ACE     O1 2724   0.665   2.149   3.813  0.9334 -0.6038 -0.3384
  279ACE     O2 2725   0.653   1.965   3.699 -0.1952 -0.0806 -0.1782
  279ACE     H1 2726   0.457   2.152   3.626 -3.0384 -0.1976 -1.0578
  279ACE     H2 2727   0.404   2.149   3.801  0.0537 -1.0176  0.6419
  279ACE     H3 2728   0.402   1.999   3.690  1.1957 -1.1677  2.2484
  279ACE     H4 2729   0.739   1.981   3.741 -0.8322  1.6785  0.5089
  280ACE     C1 2730   0.727   2.398   3.054 -0.5606 -0.8456  0.3127
  280ACE     C2 2731   0.824   2.328   2.949 -0.2978  0.3619  0.0623
  280ACE     O1 2732   0.886   2.390   2.864 -0.3861  0.6826 -0.5249
  280ACE     O2 2733   0.880   2.225   3.008  0.5116 -0.2845 -0.2455
  280ACE     H1 2734   0.775   2.416   3.151 -1.2193 -0.1064  0.5123
  280ACE     H2 2735   0.644   2.334   3.084  0.4373 -2.9927 -1.3883
  280ACE     H3 2736   0.706   2.499   3.016 -1.8322 -1.9936 -2.1554
  280ACE     H4 2737   0.954   2.204   2.949  0.7780  1.4127 -0.5477
  281ACE     C1 2738   2.307   0.996   3.141 -0.4542  0.3350  0.1822
  281ACE     C2 2739   2.283   1.023   3.290 -0.0992 -0.6152 -0.1109
  281ACE     O1 2740   2.338   0.978   3.388  0.5012 -0.0100 -0.2805
  281ACE     O2 2741   2.188   1.113   3.311  0.3174 -0.6435  0.2068
  281ACE     H1 2742   2.217   0.969   3.085 -0.0111 -1.6876  0.4247
  281ACE     H2 2743   2.391   0.926   3.145 -1.2203 -0.5817  0.2224
  281ACE     H3 2744   2.331   1.089   3.088  0.5171  0.2964  0.5461
  281ACE     H4 2745   2.168   1.101   3.406  1.1923  0.9237  0.6091
  282ACE     C1 2746   1.350   3.177   3.172 -0.1646 -0.8910  0.7197
  282ACE     C2 2747   1.346   3.058   3.081  0.6361 -0.5656 -0.4904
  282ACE     O1 2748   1.289   2.951   3.103 -0.1140 -0.5736 -0.0824
  282ACE     O2 2749   1.451   3.047   3.001 -0.4439 -0.1342  0.5825
  282ACE     H1 2750   1.285   3.251   3.124 -0.0545  0.1300  2.1146
  282ACE     H2 2751   1.446   3.229   3.165 -0.2164 -0.9620 -0.6351
  282ACE     H3 2752   1.317   3.174   3.276 -0.4349 -0.4524  0.6460
  282ACE     H4 2753   1.439   2.954   2.976 -1.6797 -0.0844  0.9221
  283ACE     C1 2754   1.050   1.200   2.751  0.4623 -0.0130 -0.2259
  283ACE     C2 2755   1.187   1.125   2.746  0.5414 -0.7660  0.8809
  283ACE     O1 2756   1.251   1.088   2.841 -0.5888 -0.4720 -0.2451
  283ACE     O2 2757   1.212   1.071   2.621  0.2894 -0.4210 -0.1947
  283ACE     H1 2758   1.022   1.216   2.856  0.6098  2.0453 -0.4863
  283ACE     H2 2759   0.977   1.146   2.689  1.4530 -1.4015 -0.2246
  283ACE     H3 2760   1.055   1.298   2.702  3.1222 -1.0716 -2.1811
  283ACE     H4 2761   1.280   1.007   2.649  2.0739  2.1534  1.5716
  284ACE     C1 2762   3.090   2.643   2.983  0.0999 -0.2128 -0.1469
  284ACE     C2 2763   3.159   2.510   2.976  0.8757 -0.2157 -0.4392
  284ACE     O1 2764   3.277   2.494   2.975 -0.3683 -0.1777  0.2917
  284ACE     O2 2765   3.081   2.409   3.017  1.1266  0.0857 -0.0098
  284ACE     H1 2766   3.039   2.641   3.080 -0.3407 -0.1514 -0.3788
  284ACE     H2 2767   3.011   2.651   2.908 -0.7859 -2.0974  0.5422
  284ACE     H3 2768   3.162   2.724   2.968  0.2280 -0.3694 -0.3809
  284ACE     H4 2769   3.148   2.340   3.023  2.0802  0.9107 -1.0122
  285ACE     C1 2770   2.022   3.281   3.385  0.0903 -0.1675  0.1861
  285ACE     C2 2771   2.091   3.143   3.402 -0.0338  0.1937 -0.7110
  285ACE     O1 2772   2.141   3.098   3.501 -0.4081  0.5807 -0.7521
  285ACE     O2 2773   2.108   3.075   3.295 -0.1497 -0.1464  0.4164
  285ACE     H1 2774   2.028   3.323   3.283 -0.1331  0.4640  0.4284
  285ACE     H2 2775   2.058   3.349   3.463  1.3177 -1.4999  0.8008
  285ACE     H3 2776   1.918   3.254   3.405 -0.1488  0.8007  0.3111
  285ACE     H4 2777   2.185   3.022   3.322  1.1173  0.5973 -1.5633
  286ACE     C1 2778   0.297   1.422   3.146  0.7550 -0.7152 -0.5332
  286ACE     C2 2779   0.224   1.556   3.123 -0.0382 -0.2590 -0.7171
  286ACE     O1 2780   0.174   1.589   3.016  0.1243 -0.3335  0.3410
  286ACE     O2 2781   0.192   1.630   3.237 -0.0892  0.0430 -0.2743
  286ACE     H1 2782   0.388   1.423   3.207  0.4482 -2.6790  0.0104
  286ACE     H2 2783   0.302   1.363   3.053  3.3844 -0.2839 -0.6990
  286ACE     H3 2784   0.227   1.366   3.210  0.4914  0.7987  0.5280
  286ACE     H4 2785   0.153   1.714   3.206 -0.4335 -0.4330 -1.1796
  287ACE     C1 2786   2.291   2.379   3.798 -0.0393  0.0075  0.7790
  287ACE     C2 2787   2.233   2.242   3.830  0.6673 -0.5049 -0.6586
  287ACE     O1 2788   2.162   2.226   3.930  0.1594  0.2742 -0.6848
  287ACE     O2 2789   2.305   2.140   3.782 -0.6770 -0.4770  0.3169
  287ACE     H1 2790   2.282   2.454   3.878 -1.3246  0.0461  0.6171
  287ACE     H2 2791   2.227   2.413   3.716 -1.0062  0.6349  1.7811
  287ACE     H3 2792   2.392   2.362   3.759 -0.2466  1.8929 -0.6381
  287ACE     H4 2793   2.256   2.065   3.819 -1.0578 -1.2673 -1.6956
  288ACE     C1 2794   1.685   0.247   2.526 -0.2842  0.1217  0.1001
  288ACE     C2 2795   1.804   0.270   2.437 -0.1076 -0.3384  0.2438
  288ACE     O1 2796   1.869   0.373   2.436 -0.1276  0.5793 -0.5237
  288ACE     O2 2797   1.826   0.167   2.350  0.2866  0.2508 -0.1405
  288ACE     H1 2798   1.657   0.332   2.590 -1.3175 -1.1235  1.3301
  288ACE     H2 2799   1.702   0.157   2.586  1.3906  0.2359 -0.1740
  288ACE     H3 2800   1.602   0.211   2.464 -0.9581  2.0059 -0.1437
  288ACE     H4 2801   1.910   0.196   2.312 -0.0834  0.0959 -1.0727
  289ACE     C1 2802   0.608   0.532   2.555 -0.4930  0.1391  0.0064
  289ACE     C2 2803   0.483   0.610   2.559 -0.4072 -0.3162  0.5605
  289ACE     O1 2804   0.470   0.725   2.522  0.0614 -0.0533  0.1202
  289ACE     O2 2805   0.377   0.544   2.588 -0.1388 -0.7425 -0.5931
  289ACE     H1 2806   0.695   0.599   2.557 -0.1488 -0.3561  1.7961
  289ACE     H2 2807   0.607   0.475   2.461  0.3388 -0.2309  0.2152
  289ACE     H3 2808   0.603   0.452   2.629  1.2668 -0.0249 -0.0438
  289ACE     H4 2809   0.308   0.610   2.571 -1.2534 -1.6586  0.1979
  290ACE     C1 2810   2.854   1.178   2.632  0.4085 -0.0146  0.0998
  290ACE     C2 2811   2.772   1.297   2.588  0.0433  0.2883  0.5248
  290ACE     O1 2812   2.764   1.401   2.649  0.4622  0.1995 -0.2336
  290ACE     O2 2813   2.671   1.256   2.512 -0.0737  0.4032 -0.5902
  290ACE     H1 2814   2.863   1.110   2.547 -0.9580 -0.3696  0.2171
  290ACE     H2 2815   2.800   1.140   2.720 -2.0902  0.5374 -1.1331
  290ACE     H3 2816   2.951   1.214   2.668 -0.2810  2.6413 -0.6044
  290ACE     H4 2817   2.600   1.315   2.540 -1.0402 -1.0613  0.1480
  291ACE     C1 2818   0.728   1.602   3.056  0.2076 -0.2706 -0.6589
  291ACE     C2 2819   0.753   1.711   2.952  0.8384 -0.3993 -0.0225
  291ACE     O1 2820   0.676   1.790   2.908 -0.0641 -0.1644  0.0982
  291ACE     O2 2821   0.885   1.722   2.914  0.2416  0.1147 -0.3045
  291ACE     H1 2822   0.624   1.573   3.076  0.1577  1.6840  2.1836
  291ACE     H2 2823   0.776   1.631   3.150 -3.4876 -0.1670  1.2899
  291ACE     H3 2824   0.780   1.518   3.008  0.5887  0.8196 -2.2097
  291ACE     H4 2825   0.882   1.800   2.857  0.3225  0.7028  0.4946
  292ACE     C1 2826   2.763   1.779   3.572  0.0366  0.2762 -0.0075
  292ACE     C2 2827   2.761   1.764   3.423 -0.2366 -0.7897 -0.4329
  292ACE     O1 2828   2.859   1.774   3.354  0.1409  0.5454 -0.0985
  292ACE     O2 2829   2.641   1.772   3.365 -0.3631 -0.1207  0.0867
  292ACE     H1 2830   2.752   1.888   3.586 -1.9778 -0.2764  3.3458
  292ACE     H2 2831   2.864   1.757   3.609 -1.3835  0.5262  4.2446
  292ACE     H3 2832   2.674   1.740   3.623  0.6597 -0.7456  0.3104
  292ACE     H4 2833   2.667   1.795   3.274  0.2061  0.4171  0.3759
  293ACE     C1 2834   1.793   1.293   2.243  0.1507  0.4009 -0.2889
  293ACE     C2 2835   1.685   1.183   2.261  0.1163  0.3688 -1.1261
  293ACE     O1 2836   1.702   1.066   2.226  0.5805  0.2913 -0.4065
  293ACE     O2 2837   1.570   1.236   2.265 -0.0175 -0.0805  0.3004
  293ACE     H1 2838   1.752   1.383   2.195 -1.5246  0.4094  1.1026
  293ACE     H2 2839   1.885   1.264   2.191  0.1423  2.0516 -1.2756
  293ACE     H3 2840   1.827   1.312   2.346  0.5996 -3.5440  0.3612
  293ACE     H4 2841   1.511   1.159   2.257  2.1152 -1.8666  1.1864
  294ACE     C1 2842   1.132   1.154   3.142 -0.7167  1.0756  0.2569
  294ACE     C2 2843   1.126   1.049   3.249 -0.2356  0.1538 -0.0883
  294ACE     O1 2844   1.205   1.039   3.335 -0.0089  0.0189  0.4017
  294ACE     O2 2845   1.019   0.965   3.240  0.5770  0.3733 -0.3520
  294ACE     H1 2846   1.032   1.192   3.116 -0.8292  0.4682 -0.1978
  294ACE     H2 2847   1.176   1.094   3.062 -0.1565  0.5539  0.9545
  294ACE     H3 2848   1.201   1.233   3.173 -0.5648  0.8721  0.4352
  294ACE     H4 2849   1.056   0.901   3.304 -1.0517 -0.2415 -0.0012
  295ACE     C1 2850   2.163   0.718   2.652  0.0109  0.3508  0.1067
  295ACE     C2 2851   2.177   0.716   2.807 -0.0033 -0.8107 -0.5415
  295ACE     O1 2852   2.262   0.660   2.880  0.2557  0.2682  0.5875
  295ACE     O2 2853   2.069   0.774   2.863 -0.7238 -0.2563 -0.3043
  295ACE     H1 2854   2.236   0.647   2.611 -2.2988 -2.2978  0.4082
  295ACE     H2 2855   2.170   0.822   2.620  2.3517  0.2391  0.2115
  295ACE     H3 2856   2.058   0.694   2.628  0.0742 -0.1616  0.3357
  295ACE     H4 2857   2.093   0.805   2.952 -1.6677  1.9986 -0.7871
  296ACE     C1 2858   2.159   0.432   0.025  0.5565  0.3521  0.0119
  296ACE     C2 2859   2.197   0.338   0.137  0.0101 -0.3229 -0.1372
  296ACE     O1 2860   2.256   0.362   0.239 -0.1359 -0.2456  0.0144
  296ACE     O2 2861   2.133   0.221   0.123  0.1129  0.4278 -0.0756
  296ACE     H1 2862   2.055   0.467   0.026  1.2323  2.9106 -4.2938
  296ACE     H2 2863   2.164   0.382  -0.072 -1.9806 -0.8018  0.4376
  296ACE     H3 2864   2.218   0.523   0.011  0.0326  0.9046  1.3732
  296ACE     H4 2865   2.154   0.175   0.206  2.7576 -1.1115 -1.5518
  297ACE     C1 2866   2.939   1.436   0.039 -0.0061  0.0485 -0.7334
  297ACE     C2 2867   3.087   1.422   0.053  0.4016  0.9522 -0.1357
  297ACE     O1 2868   3.161   1.466  -0.026  0.2387 -0.1079  0.8976
  297ACE     O2 2869   3.120   1.320   0.129 -0.0740  0.3677  0.1221
  297ACE     H1 2870   2.922   1.536  -0.004  2.7489  1.4700  1.3089
  297ACE     H2 2871   2.876   1.425   0.129 -1.2531  2.4677 -1.2635
  297ACE     H3 2872   2.907   1.366  -0.039  0.2827  0.3306 -1.1062
  297ACE     H4 2873   3.214   1.311   0.106 -0.0234  0.8086  0.1475
  298ACE     C1 2874   0.227   0.314   2.214 -0.6563  0.4496 -0.2300
  298ACE     C2 2875   0.271   0.455   2.243 -0.6291  0.1999  0.4475
  298ACE     O1 2876   0.200   0.549   2.224  0.0112  0.0923  0.0571
  298ACE     O2 2877   0.403   0.473   2.251  0.4631  0.0581 -0.4272
  298ACE     H1 2878   0.242   0.255   2.305  2.2715  1.2270 -0.1712
  298ACE     H2 2879   0.287   0.253   2.145  0.3380  0.9589  0.1727
  298ACE     H3 2880   0.126   0.306   2.172 -1.0238 -2.0888  1.0204
  298ACE     H4 2881   0.416   0.569   2.242  0.7313  0.0795  0.1400
  299ACE     C1 2882   2.380   3.417   2.746 -0.0485  0.8935  0.2176
  299ACE     C2 2883   2.494   3.339   2.697  0.6375  0.2063  0.0119
  299ACE     O1 2884   2.547   3.260   2.762  0.1738  0.4192 -0.2863
  299ACE     O2 2885   2.530   3.362   2.569  0.3930  0.1637 -0.4966
  299ACE     H1 2886   2.308   3.352   2.797 -0.4769  1.1332 -0.0763
  299ACE     H2 2887   2.348   3.479   2.662  0.3396  1.4045  0.4458
  299ACE     H3 2888   2.414   3.488   2.822  1.0890  0.3986  0.1818
  299ACE     H4 2889   2.607   3.303   2.562  0.6743  0.4466  0.1812
  300ACE     C1 2890   2.858   1.097   3.562  0.3312  0.1532 -0.4458
  300ACE     C2 2891   2.768   1.039   3.673  0.5856  0.3892  0.0298
  300ACE     O1 2892   2.685   1.106   3.735  0.0278 -0.2561  0.4472
  300ACE     O2 2893   2.774   0.904   3.677  0.0747 -0.2079  0.3857
  300ACE     H1 2894   2.954   1.128   3.605 -0.2725  0.4172  0.7269
  300ACE     H2 2895   2.810   1.171   3.496  0.5747  0.9600  0.2681
  300ACE     H3 2896   2.897   1.014   3.503  0.7762 -0.4136  0.6337
  300ACE     H4 2897   2.685   0.888   3.713 -0.0383 -1.1487 -0.2902
  301ACE     C1 2898   2.634   0.609   3.449  0.7647  0.2974 -0.2479
  301ACE     C2 2899   2.634   0.483   3.531 -0.4563  0.3643 -0.4211
  301ACE     O1 2900   2.731   0.408   3.535  0.5389 -0.4043  0.1149
  301ACE     O2 2901   2.518   0.450   3.578  0.3007  0.3633 -0.4413
  301ACE     H1 2902   2.716   0.607   3.376  1.0713 -3.7115  0.1471
  301ACE     H2 2903   2.635   0.699   3.512  1.1613  1.0476 -1.2933
  301ACE     H3 2904   2.538   0.617   3.397  0.9739 -1.0790 -0.8664
  301ACE     H4 2905   2.525   0.360   3.614 -0.0982  0.7604  0.6480
  302ACE     C1 2906   2.599   0.169   0.501  0.2234  0.8138  0.2136
  302ACE     C2 2907   2.627   0.318   0.512 -0.0128  0.4291 -0.2631
  302ACE     O1 2908   2.715   0.366   0.583 -0.2434 -0.0068  0.1344
  302ACE     O2 2909   2.546   0.396   0.442  0.3407  0.1220 -0.1358
  302ACE     H1 2910   2.521   0.155   0.578 -0.3536 -0.0372 -0.5208
  302ACE     H2 2911   2.690   0.111   0.518  0.1361  0.6123 -0.0096
  302ACE     H3 2912   2.556   0.146   0.403  1.0362 -2.3017  0.5595
  302ACE     H4 2913   2.571   0.488   0.463  0.8546  0.7371 -3.1521
  303ACE     C1 2914   2.566   2.129   3.494  0.5533 -1.1173 -0.1461
  303ACE     C2 2915   2.693   2.196   3.559 -0.1709 -0.9801 -0.3839
  303ACE     O1 2916   2.800   2.149   3.564  0.6453 -0.1715 -0.3958
  303ACE     O2 2917   2.658   2.317   3.602  0.0208 -0.4459 -0.4825
  303ACE     H1 2918   2.511   2.060   3.560  0.2955 -2.2623 -1.5251
  303ACE     H2 2919   2.595   2.070   3.406 -0.7724 -0.1683 -1.2474
  303ACE     H3 2920   2.488   2.202   3.470  0.7606  0.0352  2.5423
  303ACE     H4 2921   2.734   2.376   3.615 -1.4206  1.5836 -0.9312
  304ACE     C1 2922   1.052   1.932   2.451 -0.3362  0.2931  0.6506
  304ACE     C2 2923   1.079   1.877   2.316 -0.1917 -0.0039  0.6110
  304ACE     O1 2924   1.175   1.907   2.243 -0.0648 -0.5093 -0.1926
  304ACE     O2 2925   0.995   1.770   2.279 -0.2403 -0.1140 -0.6188
  304ACE     H1 2926   1.032   1.854   2.525 -0.9928  1.5029  1.7872
  304ACE     H2 2927   0.952   1.974   2.434  0.3210  1.4636 -0.4361
  304ACE     H3 2928   1.110   2.019   2.484 -0.1258  0.1699  0.6004
  304ACE     H4 2929   1.021   1.731   2.194  2.1985 -3.7709  1.6660
  305ACE     C1 2930   2.997   0.248   3.727 -0.5441 -0.5861 -0.2553
  305ACE     C2 2931   3.147   0.285   3.754 -0.0704 -0.4400 -0.3553
  305ACE     O1 2932   3.189   0.396   3.728 -0.1256 -0.2207 -0.0062
  305ACE     O2 2933   3.229   0.190   3.810  0.0592  0.9193 -0.6391
  305ACE     H1 2934   2.965   0.162   3.787  0.4703  0.4726  1.8579
  305ACE     H2 2935   2.991   0.212   3.624 -0.1814 -0.6739 -0.2480
  305ACE     H3 2936   2.934   0.336   3.745  0.2203  0.7273 -3.6097
  305ACE     H4 2937   3.299   0.249   3.843 -1.3101  2.3146 -0.2149
  306ACE     C1 2938   2.164   1.466   2.290  0.1814 -0.1731  1.1198
  306ACE     C2 2939   2.059   1.577   2.278  0.2649  0.5493 -0.1901
  306ACE     O1 2940   1.942   1.545   2.292  0.0920 -0.1337  0.6150
  306ACE     O2 2941   2.104   1.706   2.262  0.3955 -0.1414  0.2683
  306ACE     H1 2942   2.225   1.468   2.199  0.1631  0.9046  1.1301
  306ACE     H2 2943   2.124   1.364   2.301 -3.1390  1.1543  1.9457
  306ACE     H3 2944   2.242   1.483   2.365  0.6898  0.7876  0.3694
  306ACE     H4 2945   2.022   1.757   2.266  0.9289  0.7189  0.2910
  307ACE     C1 2946   2.006   2.762   3.522 -0.8173 -0.0905  0.1934
  307ACE     C2 2947   2.141   2.771   3.601 -0.7042 -0.3515  0.0822
  307ACE     O1 2948   2.254   2.786   3.557  0.2875  0.1516 -0.0563
  307ACE     O2 2949   2.123   2.762   3.733  0.2012  1.1213  0.6512
  307ACE     H1 2950   1.916   2.750   3.583  0.0534 -0.1537  1.4985
  307ACE     H2 2951   1.999   2.676   3.454  0.5523  1.2299 -1.6606
  307ACE     H3 2952   1.987   2.859   3.475 -3.2190 -0.5192  0.2152
  307ACE     H4 2953   2.214   2.744   3.764  1.2372  0.5684 -2.5292
  308ACE     C1 2954   0.442   2.463   2.669  0.8270  0.9089  0.1063
  308ACE     C2 2955   0.406   2.318   2.672 -0.3255 -0.2588 -0.4394
  308ACE     O1 2956   0.397   2.254   2.776  0.0301 -0.0641  0.4889
  308ACE     O2 2957   0.414   2.257   2.554 -0.3363 -0.0491  0.2333
  308ACE     H1 2958   0.544   2.475   2.632  1.2347 -1.0736  0.4833
  308ACE     H2 2959   0.426   2.499   2.771  0.7405  1.3567 -0.0632
  308ACE     H3 2960   0.386   2.515   2.591 -2.6945 -2.6119  0.1249
  308ACE     H4 2961   0.400   2.166   2.584 -0.0398  0.3394  1.5729
  309ACE     C1 2962   0.857   0.749   2.296 -0.2771 -0.1297 -0.0561
  309ACE     C2 2963   0.721   0.730   2.247 -0.7098 -0.2082 -0.7954
  309ACE     O1 2964   0.671   0.625   2.213  0.6544 -0.3119 -0.3683
  309ACE     O2 2965   0.648   0.839   2.274  0.1744 -0.1134 -0.1278
  309ACE     H1 2966   0.890   0.848   2.265  0.5766  0.2389  1.9697
  309ACE     H2 2967   0.922   0.670   2.255 -0.9777  0.2291 -1.8800
  309ACE     H3 2968   0.854   0.751   2.405  0.6968 -0.0279 -0.0230
  309ACE     H4 2969   0.558   0.819   2.242  0.3850 -0.7003 -0.3632
  310ACE     C1 2970   3.146   2.374   2.336 -0.6106 -0.4876 -0.2189
  310ACE     C2 2971   3.127   2.522   2.328  0.4395  0.2271 -0.3900
  310ACE     O1 2972   3.195   2.604   2.387 -0.3034 -0.2122 -0.0649
  310ACE     O2 2973   3.037   2.547   2.229 -0.0650  0.1644  0.0772
  310ACE     H1 2974   3.061   2.347   2.399  0.8937 -0.5261  1.8096
  310ACE     H2 2975   3.236   2.342   2.389 -1.1019  0.4702  1.2214
  310ACE     H3 2976   3.127   2.327   2.238  0.7625 -1.0289 -0.2457
  310ACE     H4 2977   3.067   2.637   2.206  0.7384 -0.0970  0.0945
  311ACE     C1 2978   2.522   2.938   3.139  0.8290  0.1515 -0.0004
  311ACE     C2 2979   2.485   2.902   3.282  0.5112 -0.0272  1.1269
  311ACE     O1 2980   2.537   2.813   3.346 -0.1131  0.0199  0.6422
  311ACE     O2 2981   2.359   2.926   3.317 -0.1865  0.5197  0.3124
  311ACE     H1 2982   2.630   2.931   3.124  0.9855  1.8318  0.2873
  311ACE     H2 2983   2.494   3.038   3.105  0.3047 -0.5146 -1.5695
  311ACE     H3 2984   2.460   2.873   3.076  0.8214 -0.5769  0.7497
  311ACE     H4 2985   2.341   2.877   3.399 -1.1241  0.2642 -0.0327
  312ACE     C1 2986   1.601   0.871   3.667 -0.7396 -0.0272 -0.2636
  312ACE     C2 2987   1.480   0.782   3.658  0.8254  0.6582  0.2680
  312ACE     O1 2988   1.434   0.738   3.553  0.6261  0.0712 -0.1339
  312ACE     O2 2989   1.400   0.806   3.764  0.4311 -0.1649  0.4557
  312ACE     H1 2990   1.559   0.972   3.671 -0.8832 -0.0190 -1.5237
  312ACE     H2 2991   1.676   0.854   3.588  0.3008  1.4229  0.4050
  312ACE     H3 2992   1.653   0.856   3.762 -2.0126 -3.3812 -0.0505
  312ACE     H4 2993   1.314   0.805   3.719  1.1260  1.0113 -0.9465
  313ACE     C1 2994   1.573   1.607   2.280 -0.0298  0.2101 -0.3718
  313ACE     C2 2995   1.473   1.719   2.319  0.3323 -0.1195  0.0594
  313ACE     O1 2996   1.466   1.768   2.430 -1.2550 -0.1509  0.0052
  313ACE     O2 2997   1.440   1.791   2.209  0.3680  0.5432  0.1993
  313ACE     H1 2998   1.531   1.524   2.221  0.5896 -0.6799  0.4143
  313ACE     H2 2999   1.634   1.565   2.361 -0.8601  1.2888  0.8322
  313ACE     H3 3000   1.646   1.650   2.211  0.6417  1.9606  1.3670
  313ACE     H4 3001   1.376   1.858   2.239 -0.0582 -0.6483  2.0109
  314ACE     C1 3002   2.615   2.785   0.448  0.5931 -0.4186  0.4411
  314ACE     C2 3003   2.490   2.853   0.400  0.2354  0.0357  0.0327
  314ACE     O1 3004   2.417   2.815   0.305  0.2426 -0.5828  0.0739
  314ACE     O2 3005   2.499   2.984   0.420 -0.3675  0.0344 -0.1739
  314ACE     H1 3006   2.625   2.698   0.381  0.7441 -0.3683  0.3983
  314ACE     H2 3007   2.608   2.758   0.554 -0.3421 -0.1926  0.4390
  314ACE     H3 3008   2.697   2.857   0.437  0.6017 -0.5094 -0.0932
  314ACE     H4 3009   2.428   3.010   0.358 -2.0007  0.3292  1.7520
  315ACE     C1 3010   2.325   1.671   3.306  0.7892  0.1615  0.5173
  315ACE     C2 3011   2.260   1.658   3.173 -0.8620 -0.2915  1.0414
  315ACE     O1 3012   2.146   1.690   3.151 -0.4947 -0.2539 -0.4863
  315ACE     O2 3013   2.338   1.629   3.073  0.3691 -0.3163 -0.5209
  315ACE     H1 3014   2.261   1.720   3.380 -0.7589 -2.6015  1.0413
  315ACE     H2 3015   2.415   1.731   3.287 -0.2635  1.5625 -0.2380
  315ACE     H3 3016   2.357   1.582   3.361  1.0406  0.0958  0.2682
  315ACE     H4 3017   2.282   1.574   3.015 -1.8600  1.2348  0.0807
  316ACE     C1 3018   1.162   0.366   2.993 -0.0996 -0.2563 -0.3049
  316ACE     C2 3019   1.287   0.375   2.915  0.3650 -0.6049 -0.3044
  316ACE     O1 3020   1.393   0.416   2.958  0.1332  0.2257 -0.3925
  316ACE     O2 3021   1.276   0.380   2.781  0.0527 -0.3006  0.5397
  316ACE     H1 3022   1.131   0.468   3.022  0.8349  0.1715 -0.7882
  316ACE     H2 3023   1.180   0.317   3.090 -3.0706 -0.0326  0.4040
  316ACE     H3 3024   1.086   0.324   2.927  0.9238 -0.7036 -1.2004
  316ACE     H4 3025   1.361   0.407   2.743 -0.2016  1.0183  0.8558
  317ACE     C1 3026   0.172   0.228   2.769 -0.3007 -0.5379  0.0322
  317ACE     C2 3027   0.205   0.181   2.631  0.0338  0.4311  1.1248
  317ACE     O1 3028   0.317   0.156   2.587 -0.5880  0.2013  0.6914
  317ACE     O2 3029   0.097   0.124   2.572  0.3306 -0.0922 -0.1947
  317ACE     H1 3030   0.068   0.201   2.793 -0.0084 -0.1549  1.8571
  317ACE     H2 3031   0.163   0.337   2.773 -2.1355 -0.6395 -1.1305
  317ACE     H3 3032   0.241   0.184   2.842 -0.0122 -0.6761 -0.3240
  317ACE     H4 3033   0.134   0.089   2.490 -0.7670  0.3066 -0.8797
  318ACE     C1 3034   0.931   3.099   2.556  0.1875  0.3348  0.2364
  318ACE     C2 3035   1.029   3.199   2.576  0.1285 -0.4446 -0.3087
  318ACE     O1 3036   1.148   3.183   2.558  0.5130  0.1154  0.1037
  318ACE     O2 3037   0.985   3.316   2.630 -0.0234  0.0516 -0.1720
  318ACE     H1 3038   0.871   3.090   2.648 -3.4932  0.2727 -2.0478
  318ACE     H2 3039   0.976   3.007   2.516 -0.1122  0.0788  0.4787
  318ACE     H3 3040   0.846   3.127   2.493  1.0274  0.2862 -0.9356
  318ACE     H4 3041   1.070   3.362   2.637  0.8288 -1.5170  0.1709
  319ACE     C1 3042   3.077   3.057   3.092 -0.6560 -0.4446  0.4473
  319ACE     C2 3043   3.018   3.041   3.226 -0.7447  0.0802 -0.3593
  319ACE     O1 3044   2.933   3.114   3.266  0.2656  0.5596  0.1052
  319ACE     O2 3045   3.041   2.918   3.288  0.2321 -0.0835 -0.0707
  319ACE     H1 3046   3.040   2.983   3.021 -0.2452 -0.8409  0.6449
  319ACE     H2 3047   3.180   3.019   3.089 -0.5047  0.0542 -0.6896
  319ACE     H3 3048   3.067   3.157   3.048 -0.0610 -1.0402 -1.0834
  319ACE     H4 3049   2.998   2.934   3.373  2.5617  2.2003  0.7395
  320ACE     C1 3050   1.234   3.284   2.245  0.0004  0.1212  0.4256
  320ACE     C2 3051   1.214   3.137   2.249  0.3009 -0.4353  0.4720
  320ACE     O1 3052   1.106   3.091   2.224  0.2791  0.3482  0.2045
  320ACE     O2 3053   1.325   3.060   2.254  0.3336  0.0268  0.0791
  320ACE     H1 3054   1.141   3.340   2.226 -0.8167 -0.5537  2.2998
  320ACE     H2 3055   1.302   3.301   2.162 -0.7377 -0.6927 -0.3573
  320ACE     H3 3056   1.292   3.326   2.328  1.4282  0.3818 -0.6819
  320ACE     H4 3057   1.290   2.969   2.257  0.7774 -0.1008  2.2830
  321ACE     C1 3058   1.793   0.478   3.320  0.0405  0.2773 -0.0229
  321ACE     C2 3059   1.677   0.496   3.407  0.5207 -0.3440 -0.2849
  321ACE     O1 3060   1.675   0.485   3.526  0.2179 -0.3875 -0.0968
  321ACE     O2 3061   1.587   0.577   3.350 -0.1248  0.1921  0.2161
  321ACE     H1 3062   1.789   0.374   3.287  0.3000 -0.4291  2.0896
  321ACE     H2 3063   1.889   0.491   3.371  0.0812  1.1565 -0.3126
  321ACE     H3 3064   1.797   0.528   3.222  1.2562 -1.6056 -0.9589
  321ACE     H4 3065   1.526   0.584   3.425 -0.0917 -0.1794  0.2789
  322ACE     C1 3066   0.709   2.712   2.734 -0.5524 -0.2563  0.2878
  322ACE     C2 3067   0.647   2.778   2.610 -0.2773  0.6883  0.6084
  322ACE     O1 3068   0.582   2.717   2.524  0.1800 -0.2976 -0.5588
  322ACE     O2 3069   0.610   2.910   2.635 -0.2725 -0.7438  0.1043
  322ACE     H1 3070   0.628   2.665   2.791 -0.3539 -1.3633 -0.3308
  322ACE     H2 3071   0.762   2.781   2.801  0.7665 -1.2914  0.3307
  322ACE     H3 3072   0.779   2.639   2.692  0.3603  0.8484 -0.1455
  322ACE     H4 3073   0.549   2.926   2.562  0.0383  1.2470  0.2502
  323ACE     C1 3074   1.633   0.259   3.062 -0.3773  0.2276  0.3783
  323ACE     C2 3075   1.576   0.183   3.187 -0.2933 -0.1009 -0.6143
  323ACE     O1 3076   1.630   0.180   3.296  0.3270  0.2571  0.4852
  323ACE     O2 3077   1.449   0.160   3.180 -0.0208 -0.2083 -0.7044
  323ACE     H1 3078   1.586   0.221   2.970  1.7822  1.3457 -1.2037
  323ACE     H2 3079   1.742   0.249   3.064 -0.4436 -0.3827  1.0432
  323ACE     H3 3080   1.618   0.367   3.062  2.3581  0.6450 -2.0962
  323ACE     H4 3081   1.424   0.147   3.273 -0.5711  0.2127 -0.7907
  324ACE     C1 3082   2.794   0.223   2.599 -0.3424  0.2815 -0.0504
  324ACE     C2 3083   2.676   0.249   2.683 -0.2519 -0.1630  0.1721
  324ACE     O1 3084   2.647   0.194   2.790  0.0102 -0.3067  0.0598
  324ACE     O2 3085   2.582   0.327   2.623 -0.4045 -0.1293 -0.2004
  324ACE     H1 3086   2.763   0.234   2.494 -0.2299  2.4938  0.1140
  324ACE     H2 3087   2.839   0.124   2.613 -0.7173  0.3211  1.5104
  324ACE     H3 3088   2.869   0.303   2.603 -0.1711  0.0092  2.9180
  324ACE     H4 3089   2.505   0.306   2.678  0.1300 -0.8432  0.2923
  325ACE     C1 3090   3.382   0.572   3.095 -0.7720 -0.3939 -0.6167
  325ACE     C2 3091   3.514   0.638   3.062 -0.6772 -0.2698  0.0253
  325ACE     O1 3092   3.548   0.663   2.945  0.5299 -0.4810 -0.3394
  325ACE     O2 3093   3.559   0.719   3.161  0.4043  0.2943 -0.1073
  325ACE     H1 3094   3.392   0.517   3.189 -2.7729  0.4058  0.0804
  325ACE     H2 3095   3.356   0.506   3.011  0.0171  0.6551 -1.7020
  325ACE     H3 3096   3.304   0.645   3.120 -0.3638  0.4479 -1.7682
  325ACE     H4 3097   3.620   0.772   3.107  2.2874 -0.8383  0.8493
  326ACE     C1 3098   0.684   0.946   2.620  0.2521  0.4976  0.8090
  326ACE     C2 3099   0.687   1.098   2.602  0.1433  0.8921 -0.2837
  326ACE     O1 3100   0.783   1.160   2.556 -0.0366  0.0706 -1.0710
  326ACE     O2 3101   0.585   1.172   2.647 -0.4745  0.5387  0.0778
  326ACE     H1 3102   0.616   0.916   2.700 -1.5699 -0.7966 -1.1559
  326ACE     H2 3103   0.784   0.902   2.614  0.1472  0.2420  0.9542
  326ACE     H3 3104   0.630   0.913   2.530  0.7382 -1.6319  1.2833
  326ACE     H4 3105   0.622   1.262   2.647 -0.3911  0.5203  1.2890
  327ACE     C1 3106   3.341   0.983   3.012  0.3793 -0.5238 -0.2822
  327ACE     C2 3107   3.216   0.991   3.103 -0.6968 -0.1855 -0.3783
  327ACE     O1 3108   3.213   1.035   3.217 -0.2231 -0.1825  0.7965
  327ACE     O2 3109   3.109   0.960   3.038 -0.1778  0.1447 -0.0987
  327ACE     H1 3110   3.350   0.883   2.970 -0.9716 -0.9763  0.4675
  327ACE     H2 3111   3.427   1.027   3.064  0.5209 -0.3566 -0.6580
  327ACE     H3 3112   3.305   1.040   2.926  0.7115  2.4223  1.4570
  327ACE     H4 3113   3.042   0.960   3.109 -3.0091  1.8336 -2.6136
  328ACE     C1 3114   2.562   0.551   2.265  0.5584 -0.0667  0.8921
  328ACE     C2 3115   2.478   0.676   2.268 -0.6092 -0.0606 -0.6593
  328ACE     O1 3116   2.519   0.784   2.230  0.1033  0.0380 -0.3747
  328ACE     O2 3117   2.372   0.668   2.346 -0.3696  0.3655 -0.0632
  328ACE     H1 3118   2.667   0.575   2.242  0.4296 -0.4211 -0.1296
  328ACE     H2 3119   2.516   0.483   2.192  0.7287 -0.6451  1.3282
  328ACE     H3 3120   2.542   0.485   2.350  0.9478 -2.4526 -0.8027
  328ACE     H4 3121   2.347   0.761   2.359  3.5075  1.5468 -0.3261
  329ACE     C1 3122   1.489   2.543   2.925 -0.5346 -0.0654 -0.2111
  329ACE     C2 3123   1.424   2.685   2.951 -0.4575  0.8117 -0.0601
  329ACE     O1 3124   1.472   2.793   2.934  0.8127 -0.1606 -0.1958
  329ACE     O2 3125   1.329   2.671   3.041  0.2671 -0.8738 -0.4268
  329ACE     H1 3126   1.564   2.557   2.847 -1.0027 -0.0446 -0.6624
  329ACE     H2 3127   1.409   2.471   2.905  0.2525 -0.7002 -1.0982
  329ACE     H3 3128   1.552   2.508   3.007  1.6681 -0.2370 -1.9396
  329ACE     H4 3129   1.315   2.764   3.065  1.8416 -0.9167  0.7040
  330ACE     C1 3130   3.304   0.762   3.440 -0.5689 -0.1844 -0.5026
  330ACE     C2 3131   3.298   0.653   3.550  0.8460  0.0320  0.2672
  330ACE     O1 3132   3.377   0.641   3.643  0.0969 -0.0031 -0.4195
  330ACE     O2 3133   3.201   0.566   3.530  0.0870 -0.1063 -1.0541
  330ACE     H1 3134   3.288   0.862   3.480  0.3647 -0.6311  1.0398
  330ACE     H2 3135   3.223   0.748   3.367  0.7714  1.1890 -2.3066
  330ACE     H3 3136   3.408   0.756   3.406 -0.2328 -1.0250  0.6331
  330ACE     H4 3137   3.190   0.522   3.616 -2.2057  1.3393 -0.5537
  331ACE     C1 3138   2.481   1.628   2.655 -0.8083  0.2846 -0.1894
  331ACE     C2 3139   2.387   1.511   2.623  0.5324 -0.7453 -0.5200
  331ACE     O1 3140   2.269   1.509   2.638 -0.2302 -0.4813  0.1926
  331ACE     O2 3141   2.449   1.409   2.559  0.1666 -0.0484 -0.2929
  331ACE     H1 3142   2.429   1.696   2.724 -2.4655 -0.1023 -1.0272
  331ACE     H2 3143   2.506   1.675   2.559  0.9404 -2.9350 -1.4024
  331ACE     H3 3144   2.567   1.574   2.695 -0.8220 -0.4478 -1.1315
  331ACE     H4 3145   2.380   1.341   2.565 -0.2417  0.2685 -1.3527
  332ACE     C1 3146   3.157   1.751   2.322 -0.2025  0.2246 -1.2346
  332ACE     C2 3147   3.112   1.885   2.268  0.1952 -0.3008  0.4318
  332ACE     O1 3148   3.186   1.978   2.237 -0.0097  0.0014 -0.7393
  332ACE     O2 3149   2.980   1.902   2.280  0.2623 -0.0585 -0.1612
  332ACE     H1 3150   3.263   1.750   2.349  0.0504 -0.0624 -2.2157
  332ACE     H2 3151   3.137   1.668   2.254 -0.8732 -0.1039 -0.6431
  332ACE     H3 3152   3.097   1.715   2.406 -1.1593 -0.2481 -2.1130
  332ACE     H4 3153   2.981   1.991   2.241 -1.3995  0.8112  1.7497
  333ACE     C1 3154   1.275   2.334   3.733 -0.4149  0.3058 -0.5838
  333ACE     C2 3155   1.299   2.475   3.687 -0.7112  0.3476  0.7301
  333ACE     O1 3156   1.388   2.548   3.720 -0.3109  0.1120 -0.0804
  333ACE     O2 3157   1.208   2.518   3.601 -0.2284  0.5906  0.8215
  333ACE     H1 3158   1.275   2.268   3.646  3.5205  0.9844 -1.1994
  333ACE     H2 3159   1.174   2.330   3.775  0.0945 -0.6894  0.5936
  333ACE     H3 3160   1.353   2.301   3.803  1.0524  0.8738 -1.9197
  333ACE     H4 3161   1.233   2.607   3.571  0.7228  0.7915  2.1574
  334ACE     C1 3162   3.116   2.135   2.716 -0.2563  0.1142  0.7687
  334ACE     C2 3163   3.222   2.245   2.717  0.9430  0.1101  0.4561
  334ACE     O1 3164   3.247   2.312   2.619 -0.0298 -0.5660  0.1016
  334ACE     O2 3165   3.288   2.260   2.831 -0.4376  0.0638 -0.6953
  334ACE     H1 3166   3.030   2.168   2.776 -0.6104 -0.0531  0.3513
  334ACE     H2 3167   3.163   2.056   2.777 -1.7944  0.9597  3.1371
  334ACE     H3 3168   3.093   2.117   2.611  3.4944 -2.2481  0.2228
  334ACE     H4 3169   3.350   2.332   2.814  0.1722 -0.5617 -1.1910
  335ACE     C1 3170   0.755   2.164   2.622 -0.7198  0.0250  0.1764
  335ACE     C2 3171   0.743   2.028   2.698  0.1720 -1.0303 -0.0276
  335ACE     O1 3172   0.837   1.948   2.713  0.1656  0.0592 -0.1570
  335ACE     O2 3173   0.622   1.994   2.729  0.4705  0.3246 -0.2626
  335ACE     H1 3174   0.719   2.243   2.689 -1.3094 -0.3984  0.3553
  335ACE     H2 3175   0.674   2.167   2.547 -0.9740 -1.3598  0.3952
  335ACE     H3 3176   0.854   2.201   2.593 -0.0729  2.2746  4.7888
  335ACE     H4 3177   0.633   1.917   2.788 -2.9234 -0.9602 -1.2176
  336ACE     C1 3178   1.272   2.507   2.536 -0.7222 -0.4115 -0.1068
  336ACE     C2 3179   1.149   2.444   2.594  0.0842 -0.0291  0.0950
  336ACE     O1 3180   1.107   2.331   2.563  0.4240  0.2714  0.1623
  336ACE     O2 3181   1.094   2.510   2.700 -0.3551 -0.2737  0.0822
  336ACE     H1 3182   1.260   2.611   2.501 -0.1270  0.0668  1.1004
  336ACE     H2 3183   1.319   2.432   2.472 -2.5794 -1.0135 -0.8018
  336ACE     H3 3184   1.334   2.530   2.623 -0.8016  0.6460 -0.3161
  336ACE     H4 3185   1.021   2.456   2.736  1.1557 -1.2808  1.7211
  337ACE     C1 3186   2.461   0.016   0.067  0.5266 -0.6390  0.2989
  337ACE     C2 3187   2.392   0.082  -0.045 -0.3786 -0.5429 -0.3588
  337ACE     O1 3188   2.438   0.178  -0.098  0.0644 -1.0028  0.4826
  337ACE     O2 3189   2.284   0.016  -0.088 -0.3851 -0.3300  0.1644
  337ACE     H1 3190   2.394   0.013   0.154  0.8691  1.4903  0.6712
  337ACE     H2 3191   2.553   0.071   0.089 -0.8260  0.6576  2.9613
  337ACE     H3 3192   2.486  -0.085   0.033  1.9900 -0.5787  1.1383
  337ACE     H4 3193   2.273   0.054  -0.177  0.9825  0.1534  0.1788
  338ACE     C1 3194   0.207   2.181   2.246  0.3115  0.4049 -0.7142
  338ACE     C2 3195   0.086   2.107   2.268 -0.5415  0.1193 -0.6008
  338ACE     O1 3196   0.073   2.020   2.353  0.1556 -0.1831  0.0271
  338ACE     O2 3197  -0.019   2.158   2.201 -0.1456 -0.4636  0.7052
  338ACE     H1 3198   0.285   2.117   2.202  0.7594 -0.3186  1.0511
  338ACE     H2 3199   0.246   2.216   2.343 -2.0272  0.1531  0.3629
  338ACE     H3 3200   0.184   2.261   2.175 -1.5478  2.0930  1.7172
  338ACE     H4 3201  -0.095   2.106   2.230  0.6009 -1.6976  0.5017
  339ACE     C1 3202   3.308   2.356   3.288  0.8444  0.4808  0.5429
  339ACE     C2 3203   3.367   2.422   3.412 -0.0684  0.0625  0.8977
  339ACE     O1 3204   3.411   2.363   3.505  0.2288  0.4043  0.0047
  339ACE     O2 3205   3.382   2.555   3.397  0.2847  0.1424  0.0904
  339ACE     H1 3206   3.389   2.347   3.216 -0.1371 -1.0696 -0.3848
  339ACE     H2 3207   3.231   2.411   3.233  0.4683  0.2196  0.8049
  339ACE     H3 3208   3.268   2.258   3.314  0.2204  0.3161 -1.0263
  339ACE     H4 3209   3.445   2.563   3.470 -1.4651 -0.7413  1.7409
  340ACE     C1 3210   0.229   2.938   3.632 -0.2638  0.6112 -0.8266
  340ACE     C2 3211   0.222   3.078   3.579 -0.3999  0.8910 -0.6061
  340ACE     O1 3212   0.150   3.167   3.625  0.3114 -0.0361  0.1776
  340ACE     O2 3213   0.318   3.096   3.486  0.0211  0.0381  0.4871
  340ACE     H1 3214   0.324   2.915   3.681 -0.8141  0.6240  0.2699
  340ACE     H2 3215   0.219   2.877   3.541 -1.9770  2.9779 -2.2740
  340ACE     H3 3216   0.153   2.913   3.707  0.1892 -0.6399 -0.7776
  340ACE     H4 3217   0.307   3.188   3.455  1.9655 -0.1609 -0.8450
  341ACE     C1 3218   1.884   0.710   0.095 -0.0246 -0.5867  0.9892
  341ACE     C2 3219   1.849   0.634  -0.030 -0.0466  0.1516  0.2612
  341ACE     O1 3220   1.917   0.637  -0.133  0.1946  0.3935 -0.3916
  341ACE     O2 3221   1.758   0.538  -0.017  0.0156 -0.3426 -0.0638
  341ACE     H1 3222   1.833   0.674   0.185  0.2850  1.0269  1.8313
  341ACE     H2 3223   1.842   0.811   0.085  0.1852 -0.5746  0.1692
  341ACE     H3 3224   1.992   0.730   0.104  0.4985 -1.4447 -2.7346
  341ACE     H4 3225   1.758   0.499  -0.106  0.1457  0.6258 -0.5015
  342ACE     C1 3226   0.509   1.423   2.217 -0.8025 -0.0880 -0.1813
  342ACE     C2 3227   0.665   1.449   2.217  0.5816 -0.3771 -0.3742
  342ACE     O1 3228   0.744   1.363   2.230 -0.6380  0.1295 -0.3669
  342ACE     O2 3229   0.706   1.572   2.200  0.5277 -0.4750 -0.3500
  342ACE     H1 3230   0.472   1.400   2.318  0.9628  1.5789  0.8839
  342ACE     H2 3231   0.494   1.339   2.148  0.2413  1.5512 -2.4565
  342ACE     H3 3232   0.455   1.511   2.182  0.3933  1.0480  0.7683
  342ACE     H4 3233   0.802   1.558   2.213  0.5939  0.8898  0.7143
  343ACE     C1 3234   0.787   1.652   2.567 -0.2570  0.2142 -0.1134
  343ACE     C2 3235   0.753   1.499   2.576 -0.2007 -0.1447 -1.0572
  343ACE     O1 3236   0.665   1.447   2.641  0.1004 -0.1373 -0.0437
  343ACE     O2 3237   0.847   1.420   2.519 -0.9182  0.2014  0.1636
  343ACE     H1 3238   0.826   1.686   2.470  1.5392 -0.3210  0.4052
  343ACE     H2 3239   0.879   1.653   2.626 -1.5020  3.7076  1.9111
  343ACE     H3 3240   0.714   1.717   2.616  0.5132  1.2442 -0.2977
  343ACE     H4 3241   0.827   1.331   2.552 -2.1216  0.8694  1.2446
  344ACE     C1 3242   0.693   1.124   3.387  0.7473  0.3904  0.1631
  344ACE     C2 3243   0.639   1.172   3.524  0.3560  0.4005  0.1930
  344ACE     O1 3244   0.652   1.283   3.573 -0.5041 -0.2685 -0.0987
  344ACE     O2 3245   0.614   1.073   3.601  0.3262 -0.2299  0.4396
  344ACE     H1 3246   0.610   1.086   3.327  0.2529 -1.8955  2.1963
  344ACE     H2 3247   0.757   1.035   3.393 -0.5598 -0.5848 -0.0659
  344ACE     H3 3248   0.737   1.206   3.330 -2.3748  3.4704  1.9374
  344ACE     H4 3249   0.616   1.116   3.688 -1.6716 -0.5366  0.6572
  345ACE     C1 3250   1.057   2.751   3.242  0.1206  0.0256 -0.3498
  345ACE     C2 3251   0.980   2.754   3.112 -0.3336 -0.3550 -0.3671
  345ACE     O1 3252   1.024   2.794   3.003 -0.2781  0.2994 -0.3351
  345ACE     O2 3253   0.847   2.745   3.130  0.3321  0.3597 -0.1719
  345ACE     H1 3254   1.109   2.848   3.238 -0.0124  0.3919  4.1545
  345ACE     H2 3255   1.124   2.665   3.237  0.3113  0.1384  0.1972
  345ACE     H3 3256   1.001   2.745   3.336  0.0390  0.1786 -0.3879
  345ACE     H4 3257   0.820   2.798   3.053  0.7758  0.2689 -0.3909
  346ACE     C1 3258   0.287   1.050   2.285  0.9002  0.0998 -0.7260
  346ACE     C2 3259   0.287   0.895   2.257 -0.2953 -0.1764 -0.1698
  346ACE     O1 3260   0.384   0.828   2.227 -0.4442  0.1791  0.0881
  346ACE     O2 3261   0.161   0.849   2.238  0.0010  0.2433  0.2553
  346ACE     H1 3262   0.233   1.070   2.379  1.9938 -2.0972  0.3919
  346ACE     H2 3263   0.224   1.095   2.207  1.6223  1.8281 -0.3330
  346ACE     H3 3264   0.387   1.094   2.290  1.3594 -1.1076  1.0408
  346ACE     H4 3265   0.181   0.753   2.234 -2.4324 -0.3228  0.7061
  347ACE     C1 3266   2.218   2.555   3.278  0.0243 -1.0762  0.4175
  347ACE     C2 3267   2.224   2.452   3.393 -0.1219  0.1285  0.0528
  347ACE     O1 3268   2.288   2.351   3.388 -0.6087  0.1968 -0.4532
  347ACE     O2 3269   2.114   2.450   3.464  0.6336 -0.5530  0.4890
  347ACE     H1 3270   2.112   2.572   3.256 -0.0758  0.3840  1.9339
  347ACE     H2 3271   2.275   2.523   3.191  0.7167 -0.5260  0.6636
  347ACE     H3 3272   2.265   2.650   3.307 -0.0670 -0.7374 -0.5166
  347ACE     H4 3273   2.113   2.362   3.505 -0.8322 -2.2411 -2.9191
  348ACE     C1 3274   0.214   1.992   2.822 -1.2307  0.2872  0.5925
  348ACE     C2 3275   0.206   2.026   2.671  0.9873 -0.1002 -0.3828
  348ACE     O1 3276   0.301   2.019   2.594  0.1063  0.2552  0.8764
  348ACE     O2 3277   0.085   2.069   2.634 -0.0289 -0.0871  0.4999
  348ACE     H1 3278   0.192   2.082   2.882  3.1766  0.6907  1.8260
  348ACE     H2 3279   0.319   1.969   2.841 -1.2654 -0.0638  0.3549
  348ACE     H3 3280   0.134   1.921   2.846 -0.2827 -0.7596  0.6893
  348ACE     H4 3281   0.098   2.074   2.537  1.7002 -0.3054  0.7153
  349ACE     C1 3282   2.678   0.372   3.035 -0.5864  0.2139 -0.7549
  349ACE     C2 3283   2.543   0.416   2.984 -0.6789  0.1583 -0.7260
  349ACE     O1 3284   2.440   0.369   3.027  0.1482 -0.2252 -1.2016
  349ACE     O2 3285   2.546   0.538   2.924  0.5886  0.1536  0.1492
  349ACE     H1 3286   2.758   0.391   2.963 -0.6435  0.2989 -0.7956
  349ACE     H2 3287   2.666   0.266   3.061  1.4487  0.5808  1.7681
  349ACE     H3 3288   2.694   0.433   3.124 -1.3367 -0.4453 -0.1572
  349ACE     H4 3289   2.452   0.559   2.907  0.0828 -3.0476 -1.4316
  350ACE     C1 3290   1.338   2.912   2.594  0.0445 -0.3322  0.2181
  350ACE     C2 3291   1.217   2.869   2.679  0.6991  0.2385 -0.0532
  350ACE     O1 3292   1.121   2.805   2.631  0.2410  0.2873  0.0691
  350ACE     O2 3293   1.215   2.910   2.811 -0.7522  0.0475 -0.7508
  350ACE     H1 3294   1.343   2.860   2.497 -0.9654  1.5854 -0.9036
  350ACE     H2 3295   1.429   2.896   2.652  0.6208 -1.3732 -0.9402
  350ACE     H3 3296   1.334   3.021   2.590  1.3905 -0.2381  1.0701
  350ACE     H4 3297   1.136   2.868   2.848 -0.5932 -1.6714 -2.3096
  351ACE     C1 3298   1.051   0.779   2.714  0.2131  0.3069 -0.0504
  351ACE     C2 3299   1.128   0.729   2.589  0.5583 -0.7359 -0.4543
  351ACE     O1 3300   1.083   0.658   2.500 -0.2060  0.0169 -0.4231
  351ACE     O2 3301   1.262   0.745   2.605  0.0049 -0.2384 -0.1421
  351ACE     H1 3302   1.086   0.876   2.751 -1.2104  1.0752 -0.6708
  351ACE     H2 3303   1.073   0.710   2.796 -0.3109  0.9991  0.6822
  351ACE     H3 3304   0.946   0.773   2.682  0.1902  1.3931 -0.2192
  351ACE     H4 3305   1.289   0.722   2.515  3.1957  2.1649  0.1100
  352ACE     C1 3306   2.624   2.907   2.326 -0.5758  0.0911 -0.2983
  352ACE     C2 3307   2.777   2.888   2.331  0.2421 -0.1410  0.9213
  352ACE     O1 3308   2.837   2.872   2.437  0.4694 -0.2348 -0.2336
  352ACE     O2 3309   2.821   2.826   2.219 -0.6230 -0.1103  0.0801
  352ACE     H1 3310   2.581   2.806   2.318 -1.5670  0.3522  1.5125
  352ACE     H2 3311   2.608   2.970   2.238  2.8298  1.7951  0.2348
  352ACE     H3 3312   2.594   2.956   2.419  1.9485  0.2084  0.4760
  352ACE     H4 3313   2.901   2.782   2.254  1.0268  3.4681  1.0680
  353ACE     C1 3314   0.160   1.668   2.269  0.3720 -0.1738 -1.0443
  353ACE     C2 3315   0.095   1.535   2.239  0.4547 -0.3623  0.1840
  353ACE     O1 3316  -0.021   1.519   2.211  0.4164  0.0282  0.3886
  353ACE     O2 3317   0.163   1.432   2.272  0.2492  0.8251  0.5801
  353ACE     H1 3318   0.257   1.677   2.219  0.8823 -0.5203 -0.1306
  353ACE     H2 3319   0.171   1.672   2.378 -1.8074  0.7187 -0.8199
  353ACE     H3 3320   0.090   1.745   2.234 -0.5816  0.7075  2.5498
  353ACE     H4 3321   0.095   1.365   2.251 -0.1187  1.0922  0.8980
  354ACE     C1 3322   1.890   0.123   3.721  0.0581  0.3998  0.4114
  354ACE     C2 3323   1.783   0.136   3.829 -1.0765 -0.3915  0.0010
  354ACE     O1 3324   1.764   0.236   3.899  0.1219 -0.3237  0.0258
  354ACE     O2 3325   1.700   0.033   3.841  0.2018  0.1663  0.1734
  354ACE     H1 3326   1.975   0.064   3.757  2.0815  3.2995  0.5872
  354ACE     H2 3327   1.926   0.215   3.672  1.6323 -1.1125 -1.3493
  354ACE     H3 3328   1.848   0.067   3.637 -0.0299  2.0927 -0.7156
  354ACE     H4 3329   1.639   0.066   3.910  1.6358  1.3461  0.9001
  355ACE     C1 3330   2.729   2.356   2.268  0.8621  0.6966 -0.1849
  355ACE     C2 3331   2.758   2.216   2.232 -0.4197 -0.3766  0.0252
  355ACE     O1 3332   2.857   2.161   2.267  0.6798 -0.0629 -0.5481
  355ACE     O2 3333   2.643   2.143   2.224 -0.4687 -0.1129 -0.2230
  355ACE     H1 3334   2.760   2.425   2.188  0.6567 -0.5692 -1.3757
  355ACE     H2 3335   2.781   2.379   2.362 -0.1831 -0.3267  0.6605
  355ACE     H3 3336   2.621   2.374   2.277  0.5916 -1.1646  0.3517
  355ACE     H4 3337   2.677   2.052   2.224 -1.0708 -0.3390 -0.6076
  356ACE     C1 3338   0.803   0.634   2.938  0.2292 -0.3127  0.1232
  356ACE     C2 3339   0.883   0.750   2.981 -0.2478  0.2444 -0.4568
  356ACE     O1 3340   0.873   0.864   2.952 -0.5060 -0.6651  0.3923
  356ACE     O2 3341   0.985   0.710   3.062 -0.6304 -0.2303  0.0185
  356ACE     H1 3342   0.862   0.544   2.918 -1.5433 -1.5779  0.3780
  356ACE     H2 3343   0.742   0.655   2.849  0.2735 -0.5567  0.0327
  356ACE     H3 3344   0.739   0.606   3.023 -0.7712 -0.5221 -0.6753
  356ACE     H4 3345   1.047   0.785   3.056  0.7777 -1.4629 -1.3472
  357ACE     C1 3346   0.664   0.248   2.249 -0.5971 -0.0457  0.6830
  357ACE     C2 3347   0.567   0.167   2.339 -0.2485 -0.7261 -0.1094
  357ACE     O1 3348   0.468   0.110   2.297  0.0244 -0.2538 -0.8391
  357ACE     O2 3349   0.565   0.208   2.469 -0.0351 -0.3315  0.2431
  357ACE     H1 3350   0.650   0.213   2.146  0.5746  0.3860  0.3704
  357ACE     H2 3351   0.766   0.260   2.288 -0.2630  2.3217 -0.8412
  357ACE     H3 3352   0.629   0.351   2.263  1.5884  0.5177  2.2897
  357ACE     H4 3353   0.481   0.175   2.506 -1.4428 -0.2586 -2.7515
  358ACE     C1 3354   0.081   2.875   3.186  0.1770  0.4703 -0.1379
  358ACE     C2 3355   0.030   2.993   3.265  0.0478  0.5157  0.3862
  358ACE     O1 3356  -0.035   2.977   3.368 -0.1824 -0.1482  0.2074
  358ACE     O2 3357   0.056   3.118   3.227  0.3706 -0.2456  0.0387
  358ACE     H1 3358   0.190   2.869   3.199  0.1368  0.9527  0.4403
  358ACE     H2 3359   0.072   2.895   3.078 -0.5930 -0.6544 -0.2825
  358ACE     H3 3360   0.029   2.781   3.206  1.3870 -1.0738 -3.8135
  358ACE     H4 3361  -0.001   3.174   3.282 -1.2899 -0.3492 -1.5238
  359ACE     C1 3362   0.605   0.140   2.809  0.1979  0.1606  0.2662
  359ACE     C2 3363   0.741   0.086   2.780 -0.4116 -0.5179  0.6512
  359ACE     O1 3364   0.833   0.083   2.858 -0.7291  0.1686  0.5173
  359ACE     O2 3365   0.753   0.007   2.666 -0.2921 -1.0117  0.6637
  359ACE     H1 3366   0.524   0.075   2.774  0.7910 -2.0387  2.8059
  359ACE     H2 3367   0.593   0.226   2.741 -0.3966 -0.6001 -0.5947
  359ACE     H3 3368   0.595   0.175   2.912 -0.5354 -0.7010  0.4959
  359ACE     H4 3369   0.834  -0.046   2.678 -0.3246 -1.6003 -1.4538
  360ACE     C1 3370   2.649   3.025   3.618 -0.1578 -0.2179 -0.0934
  360ACE     C2 3371   2.742   3.023   3.505  0.1362 -0.1563  0.6635
  360ACE     O1 3372   2.836   2.955   3.504 -0.0133 -0.3735 -0.9670
  360ACE     O2 3373   2.706   3.096   3.399 -0.2025 -0.0612 -0.0091
  360ACE     H1 3374   2.690   3.101   3.684 -0.2683 -0.5426  0.3496
  360ACE     H2 3375   2.659   2.927   3.667 -0.4602 -0.3619 -0.3112
  360ACE     H3 3376   2.549   3.056   3.585 -0.3180  0.1965  0.7801
  360ACE     H4 3377   2.789   3.097   3.348 -1.8144 -1.1355 -2.8083
  361ACE     C1 3378   0.020   1.360   2.586  0.2248  0.1653 -0.1432
  361ACE     C2 3379  -0.105   1.442   2.579  0.0744 -0.0609 -0.4444
  361ACE     O1 3380  -0.109   1.558   2.548 -0.1956 -0.4761 -0.1150
  361ACE     O2 3381  -0.210   1.361   2.548  0.1750  0.3599  0.1687
  361ACE     H1 3382   0.110   1.412   2.551 -0.1840  1.9709  1.4082
  361ACE     H2 3383   0.013   1.252   2.569 -1.2709  0.3153 -0.5505
  361ACE     H3 3384   0.024   1.373   2.695 -0.1691  0.0038 -0.1093
  361ACE     H4 3385  -0.281   1.419   2.516  0.0447  0.5633  0.8270
  362ACE     C1 3386   2.588   0.130   2.263  0.3655 -0.7356 -0.0550
  362ACE     C2 3387   2.725   0.080   2.227 -0.2846  0.2398  0.3931
  362ACE     O1 3388   2.751  -0.037   2.242 -0.1991 -0.2543 -0.1038
  362ACE     O2 3389   2.820   0.177   2.227 -1.0148  0.5858  0.0740
  362ACE     H1 3390   2.530   0.164   2.176 -0.6313  1.7428  1.5198
  362ACE     H2 3391   2.603   0.229   2.306 -1.7513  0.2775 -1.5836
  362ACE     H3 3392   2.529   0.071   2.334 -2.4754  2.3065  0.2221
  362ACE     H4 3393   2.898   0.125   2.204 -3.5869 -2.9736 -1.0233
  363ACE     C1 3394   1.414   0.754   3.134 -0.0515 -0.2213  0.3167
  363ACE     C2 3395   1.375   0.824   3.011  0.0971  0.4908  0.3008
  363ACE     O1 3396   1.267   0.812   2.965 -0.0552 -0.2479  0.3467
  363ACE     O2 3397   1.443   0.942   2.996  0.1241  0.4739  0.0571
  363ACE     H1 3398   1.349   0.793   3.214  3.2089  2.9857  1.5481
  363ACE     H2 3399   1.516   0.773   3.168  0.5078  0.1698 -1.5530
  363ACE     H3 3400   1.380   0.650   3.126 -0.3936 -0.0481 -0.5379
  363ACE     H4 3401   1.384   0.992   2.937  1.0321 -0.6795 -1.8828
  364ACE     C1 3402   2.078   2.063   3.415  0.7945 -0.6776 -0.4985
  364ACE     C2 3403   2.050   2.095   3.559  0.3808  0.3617 -0.2818
  364ACE     O1 3404   2.060   2.209   3.596 -0.2224  0.2590 -0.2094
  364ACE     O2 3405   1.970   2.011   3.624  0.1377  0.2557  0.0391
  364ACE     H1 3406   2.017   1.984   3.371 -2.3492  1.8928 -0.9263
  364ACE     H2 3407   2.171   2.006   3.420  1.0518 -0.2916 -0.8315
  364ACE     H3 3408   2.085   2.156   3.358 -0.5011  0.3803  1.0225
  364ACE     H4 3409   1.939   2.072   3.694  1.7346  0.1837  0.8471
  365ACE     C1 3410   2.818   3.356   3.052  0.2541  0.0121  0.0315
  365ACE     C2 3411   2.914   3.442   2.982  0.1287 -0.2172 -0.0515
  365ACE     O1 3412   2.933   3.436   2.867 -0.7656 -0.2710 -0.2606
  365ACE     O2 3413   3.000   3.497   3.070 -0.1567  0.1754  0.1874
  365ACE     H1 3414   2.731   3.418   3.077  1.2833  0.8340  1.7189
  365ACE     H2 3415   2.848   3.321   3.152  1.0023 -1.8522 -0.8194
  365ACE     H3 3416   2.780   3.273   2.992 -2.3159  0.9976  0.2542
  365ACE     H4 3417   3.062   3.531   3.004  1.3560 -0.7940  1.0812
  366ACE     C1 3418   1.655   3.159   2.221 -0.0420 -0.3554  0.5063
  366ACE     C2 3419   1.741   3.281   2.247 -0.4219 -0.2574  0.6987
  366ACE     O1 3420   1.863   3.282   2.235 -0.0470 -0.4553 -0.2481
  366ACE     O2 3421   1.684   3.382   2.318  0.5363 -0.6826  0.4672
  366ACE     H1 3422   1.702   3.090   2.150  0.7319 -0.1453  0.8065
  366ACE     H2 3423   1.552   3.190   2.199 -0.6932 -1.8814  1.3563
  366ACE     H3 3424   1.644   3.102   2.313 -2.3565 -0.8503 -0.0429
  366ACE     H4 3425   1.757   3.445   2.334  0.9625 -1.5491  1.9938
  367ACE     C1 3426   0.645   2.894   3.469  0.8932  0.6624 -0.2959
  367ACE     C2 3427   0.796   2.899   3.483 -0.3128  0.0078  0.0606
  367ACE     O1 3428   0.861   2.965   3.403  0.4224 -0.0325  0.2693
  367ACE     O2 3429   0.856   2.801   3.557  0.1149  0.2397 -0.2557
  367ACE     H1 3430   0.608   2.929   3.566 -4.1838 -1.3349 -1.3541
  367ACE     H2 3431   0.605   2.792   3.473  2.4502  0.0772  1.3500
  367ACE     H3 3432   0.616   2.955   3.383 -1.7999 -1.5630 -1.0232
  367ACE     H4 3433   0.778   2.760   3.599  0.2709  1.2327  1.0379
  368ACE     C1 3434   3.235   2.863   2.663  0.3183  0.0659 -0.5130
  368ACE     C2 3435   3.288   2.985   2.740 -0.3794 -0.0641 -0.1592
  368ACE     O1 3436   3.406   3.006   2.764  0.2932  0.2575 -0.0870
  368ACE     O2 3437   3.198   3.073   2.790 -0.3154 -0.7449  0.0748
  368ACE     H1 3438   3.132   2.877   2.629 -0.0879 -0.8893  0.3011
  368ACE     H2 3439   3.238   2.781   2.736  0.0612  0.4349 -0.0834
  368ACE     H3 3440   3.304   2.833   2.583 -0.4454  1.2118 -1.6329
  368ACE     H4 3441   3.251   3.131   2.848 -1.2689  0.5482 -0.3079
  369ACE     C1 3442   2.744   1.598   3.082 -0.4725  0.6937  0.3480
  369ACE     C2 3443   2.712   1.740   3.030 -0.2829  0.2510  0.0291
  369ACE     O1 3444   2.672   1.829   3.097  0.0312  0.2814 -0.3558
  369ACE     O2 3445   2.706   1.744   2.896  0.1425  0.2723  0.3605
  369ACE     H1 3446   2.665   1.533   3.042 -0.1136  0.3286  0.2276
  369ACE     H2 3447   2.749   1.591   3.192  3.1536 -0.3934  0.1787
  369ACE     H3 3448   2.837   1.562   3.037 -1.7894 -1.7154 -0.5306
  369ACE     H4 3449   2.673   1.832   2.873 -0.1684 -0.8574 -3.8216
  370ACE     C1 3450   3.092   0.345   3.278  0.1665  0.1325  0.0156
  370ACE     C2 3451   3.043   0.410   3.148 -0.3231  0.1689 -0.4108
  370ACE     O1 3452   3.042   0.350   3.037 -0.1351  0.0165  0.4188
  370ACE     O2 3453   3.030   0.542   3.158 -0.1139 -0.0158 -0.1567
  370ACE     H1 3454   3.077   0.408   3.366 -0.5283  0.1243 -0.0915
  370ACE     H2 3455   3.199   0.319   3.272 -0.2991 -1.6247 -1.1886
  370ACE     H3 3456   3.040   0.249   3.287  0.3916 -0.2091 -1.9468
  370ACE     H4 3457   3.027   0.569   3.064 -0.7654  0.4454 -0.0103
  371ACE     C1 3458   0.073   0.891   0.038  0.2721  0.7004 -0.9773
  371ACE     C2 3459   0.161   0.843   0.152  1.0951  0.0954  0.0061
  371ACE     O1 3460   0.124   0.844   0.264  0.7037 -0.3830  0.0822
  371ACE     O2 3461   0.284   0.801   0.123 -0.0637 -0.5270 -0.3804
  371ACE     H1 3462   0.143   0.881  -0.046  1.2727 -1.9536  0.1375
  371ACE     H2 3463   0.037   0.994   0.049 -0.4501  0.4260 -0.7290
  371ACE     H3 3464  -0.011   0.823   0.021  0.7273 -0.1973  0.3472
  371ACE     H4 3465   0.309   0.761   0.208 -1.9512  3.0321  1.9498
  372ACE     C1 3466   1.139   2.355   3.234  0.8913 -0.8325 -0.1238
  372ACE     C2 3467   1.236   2.243   3.244  0.5399  0.5125  0.3191
  372ACE     O1 3468   1.323   2.221   3.164  0.6045 -0.0160  0.7752
  372ACE     O2 3469   1.190   2.145   3.317  0.9553  0.8992 -0.2175
  372ACE     H1 3470   1.128   2.417   3.324 -1.6497  2.0277 -2.2928
  372ACE     H2 3471   1.038   2.313   3.246  1.2575 -1.8357 -0.4797
  372ACE     H3 3472   1.153   2.415   3.143  3.4875  2.3538  2.2766
  372ACE     H4 3473   1.234   2.069   3.275  0.3458 -1.0698  2.5414
  373ACE     C1 3474   3.381   1.028   0.696 -0.0233 -0.0343 -1.2248
  373ACE     C2 3475   3.439   1.013   0.553  0.0835 -0.2904 -0.0617
  373ACE     O1 3476   3.504   1.097   0.501 -0.3357 -0.1453  0.3054
  373ACE     O2 3477   3.419   0.887   0.510 -0.3999  0.2164 -0.6855
  373ACE     H1 3478   3.435   0.963   0.765  0.1287  2.4119  1.0141
  373ACE     H2 3479   3.283   0.979   0.701 -0.4890  1.0289  0.5660
  373ACE     H3 3480   3.382   1.128   0.740  2.6843  0.2672 -1.8966
  373ACE     H4 3481   3.469   0.887   0.427 -1.1176 -0.4048 -1.1286
  374ACE     C1 3482   2.408   1.837   2.250  0.6456  0.7256  0.0142
  374ACE     C2 3483   2.527   1.741   2.247 -0.4391 -0.2219 -0.4910
  374ACE     O1 3484   2.512   1.622   2.261 -0.1642  0.2354 -0.3087
  374ACE     O2 3485   2.646   1.810   2.255  0.2120  0.1436  0.2935
  374ACE     H1 3486   2.320   1.790   2.204  1.1626  1.3684 -1.6411
  374ACE     H2 3487   2.428   1.941   2.225 -0.8474  0.8745 -0.5733
  374ACE     H3 3488   2.378   1.829   2.355  0.1784 -0.4766 -0.2001
  374ACE     H4 3489   2.715   1.742   2.267  0.3989  0.1355 -0.8107
  375ACE     C1 3490   1.231   0.862   2.243  0.5913 -0.2311 -0.5133
  375ACE     C2 3491   1.364   0.930   2.276  0.1594 -0.0086 -0.8328
  375ACE     O1 3492   1.387   1.047   2.275 -0.1191 -0.0653  0.0056
  375ACE     O2 3493   1.442   0.853   2.359  0.0199  0.1837 -0.6190
  375ACE     H1 3494   1.219   0.761   2.282 -1.5440  0.3773  0.4749
  375ACE     H2 3495   1.232   0.854   2.134 -1.5592  3.2115 -0.8702
  375ACE     H3 3496   1.138   0.910   2.277  0.9600  1.3013 -1.5968
  375ACE     H4 3497   1.519   0.911   2.367 -0.4372  0.4191  2.9319
  376ACE     C1 3498   0.359   2.785   2.257  0.5091  0.2391  0.4840
  376ACE     C2 3499   0.345   2.886   2.364 -0.2012 -0.3617  0.6407
  376ACE     O1 3500   0.443   2.947   2.409 -0.2347 -0.0323 -0.6580
  376ACE     O2 3501   0.225   2.886   2.421 -0.1806  0.2980 -0.4114
  376ACE     H1 3502   0.351   2.690   2.311  0.0782 -0.1938 -0.3304
  376ACE     H2 3503   0.449   2.802   2.196  0.3613 -3.2374 -0.8097
  376ACE     H3 3504   0.263   2.792   2.205 -0.0657  2.5104  1.7876
  376ACE     H4 3505   0.246   2.942   2.498 -1.5210 -1.7097  1.5159
  377ACE     C1 3506   3.015   2.667   3.494  0.0597  0.0308 -0.0673
  377ACE     C2 3507   2.984   2.532   3.554 -0.5656 -0.5526  0.8767
  377ACE     O1 3508   2.872   2.506   3.590  0.1597  0.0107  0.0063
  377ACE     O2 3509   3.083   2.442   3.553  0.1598 -0.0927  0.4005
  377ACE     H1 3510   2.947   2.688   3.411 -1.0169  2.8252  1.4215
  377ACE     H2 3511   3.119   2.684   3.465  0.2368 -1.8819 -0.6005
  377ACE     H3 3512   2.982   2.749   3.559  0.9722  1.2886 -1.1762
  377ACE     H4 3513   3.062   2.381   3.625 -1.8722 -0.4592 -0.4824
  378ACE     C1 3514   3.198   1.076   2.298 -0.2376  0.3674  0.9110
  378ACE     C2 3515   3.272   1.205   2.274  0.1405 -0.2387  0.3165
  378ACE     O1 3516   3.393   1.208   2.261  0.5951 -0.0331  0.3733
  378ACE     O2 3517   3.197   1.297   2.210 -0.2168  0.0678  0.3123
  378ACE     H1 3518   3.162   1.092   2.400 -1.3746  0.8944  0.4357
  378ACE     H2 3519   3.260   0.987   2.288  1.0895  1.5406 -1.6843
  378ACE     H3 3520   3.098   1.081   2.253 -0.3423  2.4625  1.3073
  378ACE     H4 3521   3.258   1.371   2.192 -1.1444  0.5869 -0.7367
  379ACE     C1 3522   2.890   3.172   2.657  0.3253  0.2146  0.0754
  379ACE     C2 3523   2.872   3.265   2.534 -0.6105  0.6396  0.2622
  379ACE     O1 3524   2.968   3.317   2.482  0.0500  0.0155  0.1184
  379ACE     O2 3525   2.751   3.243   2.474 -0.6553  0.6175 -0.1329
  379ACE     H1 3526   2.788   3.157   2.696  0.0022  0.6163 -0.6031
  379ACE     H2 3527   2.942   3.225   2.737  0.3348  0.6584 -0.2274
  379ACE     H3 3528   2.939   3.080   2.625 -1.7092 -0.0698 -2.3809
  379ACE     H4 3529   2.778   3.276   2.386 -0.9603  1.1298 -0.0385
  380ACE     C1 3530   2.395   3.289   3.082 -0.4905  0.8174 -1.0592
  380ACE     C2 3531   2.363   3.426   3.119  0.0529 -0.1461 -0.5986
  380ACE     O1 3532   2.252   3.471   3.134  0.9906 -0.1257  0.1550
  380ACE     O2 3533   2.464   3.508   3.124  0.6296  0.2789 -0.1421
  380ACE     H1 3534   2.490   3.281   3.027  0.1947  0.0968  0.2224
  380ACE     H2 3535   2.309   3.234   3.041  0.8000 -2.1035  0.0326
  380ACE     H3 3536   2.424   3.236   3.173  0.4292 -0.2853 -1.9724
  380ACE     H4 3537   2.415   3.586   3.155 -0.4507  0.4351 -2.1258
  381ACE     C1 3538   1.043   2.734   2.283  0.4189  0.3613  0.5780
  381ACE     C2 3539   1.186   2.702   2.252 -0.2883  0.0363  0.2099
  381ACE     O1 3540   1.276   2.784   2.237  0.0500 -0.2644 -0.1315
  381ACE     O2 3541   1.212   2.574   2.212  0.3940  0.1540  0.0845
  381ACE     H1 3542   1.042   2.841   2.308 -0.0538  0.3939  0.4110
  381ACE     H2 3543   1.008   2.672   2.366 -0.7892  0.0919 -0.1280
  381ACE     H3 3544   0.980   2.722   2.194  1.1308  0.5028  0.0456
  381ACE     H4 3545   1.307   2.586   2.191  0.1497 -0.1137 -1.2738
  382ACE     C1 3546   1.586   1.239   3.506 -0.3674  0.7212  0.6823
  382ACE     C2 3547   1.453   1.191   3.440 -0.2187 -0.7950 -0.6778
  382ACE     O1 3548   1.359   1.271   3.426  0.0368 -0.4465 -0.1258
  382ACE     O2 3549   1.429   1.062   3.467  0.8322  0.0805  0.1312
  382ACE     H1 3550   1.584   1.348   3.497  2.6970  0.8403  0.8233
  382ACE     H2 3551   1.670   1.195   3.450 -1.7260  2.0519 -2.5067
  382ACE     H3 3552   1.591   1.213   3.613  0.0282 -0.5000  0.3745
  382ACE     H4 3553   1.336   1.053   3.441  0.8491 -1.4124  0.5695
  383ACE     C1 3554   1.989   2.482   2.979  0.4874  0.2047  0.1429
  383ACE     C2 3555   1.881   2.439   3.072 -0.2674 -0.2240  0.5309
  383ACE     O1 3556   1.896   2.437   3.187 -0.1936  0.3030 -0.2951
  383ACE     O2 3557   1.782   2.378   3.011  0.3780 -0.0088  0.5119
  383ACE     H1 3558   1.956   2.463   2.876  0.8736  1.7932 -0.2863
  383ACE     H2 3559   2.085   2.430   2.992  0.7545  0.8543  0.8176
  383ACE     H3 3560   1.994   2.589   2.999  0.4221  0.7695 -2.6543
  383ACE     H4 3561   1.740   2.315   3.072 -0.6186 -1.9121 -2.0786
  384ACE     C1 3562   2.962   1.261   3.255 -0.1070  1.0994  1.0339
  384ACE     C2 3563   2.899   1.156   3.172 -0.0882  0.9830 -0.1456
  384ACE     O1 3564   2.859   1.053   3.218 -0.5251 -0.3391 -0.3765
  384ACE     O2 3565   2.865   1.190   3.052  0.1724 -0.2625  0.0931
  384ACE     H1 3566   2.903   1.353   3.246 -0.3695  0.7684 -1.0242
  384ACE     H2 3567   3.055   1.288   3.202  1.1411 -1.4937  1.8577
  384ACE     H3 3568   2.974   1.226   3.358  1.0123 -1.5352  0.0548
  384ACE     H4 3569   2.812   1.109   3.038  0.7624 -0.8478  1.1545
  385ACE     C1 3570   2.645   2.521   3.312  0.0734  0.6674  0.3783
  385ACE     C2 3571   2.692   2.546   3.173  0.2057 -0.5164  0.2006
  385ACE     O1 3572   2.770   2.640   3.147  0.0331  0.1899 -0.2003
  385ACE     O2 3573   2.601   2.512   3.084 -0.1976  0.0772 -0.3212
  385ACE     H1 3574   2.711   2.569   3.387 -0.2507 -0.1279  1.1795
  385ACE     H2 3575   2.607   2.423   3.341  1.8078  0.4638  2.0969
  385ACE     H3 3576   2.551   2.576   3.320 -1.9704 -2.7358  0.5524
  385ACE     H4 3577   2.627   2.550   2.998 -0.3711 -0.2121 -0.5025
  386ACE     C1 3578   3.271   2.567   0.479  0.7276  0.2595  0.5837
  386ACE     C2 3579   3.395   2.530   0.408 -0.2705 -0.3045 -0.0253
  386ACE     O1 3580   3.403   2.433   0.331  0.0623 -0.2085 -0.9585
  386ACE     O2 3581   3.507   2.602   0.441  0.1619 -0.0401 -0.2380
  386ACE     H1 3582   3.185   2.570   0.410  0.7175 -0.0933  0.5801
  386ACE     H2 3583   3.287   2.654   0.544  3.6497 -0.6935  1.1927
  386ACE     H3 3584   3.244   2.488   0.549  2.4121 -1.8573 -1.0945
  386ACE     H4 3585   3.573   2.545   0.398 -1.2207 -2.6146  0.9491
  387ACE     C1 3586   0.674   1.914   2.229 -0.0697  0.2702  0.3085
  387ACE     C2 3587   0.572   1.973   2.322 -0.5585 -0.8040  0.0918
  387ACE     O1 3588   0.508   2.077   2.307 -0.3608 -0.2195 -0.5688
  387ACE     O2 3589   0.523   1.874   2.402  0.2988 -0.2198  0.1484
  387ACE     H1 3590   0.753   1.880   2.296  1.8128  2.2940 -0.8191
  387ACE     H2 3591   0.710   1.992   2.161 -0.4002  0.9590  0.9147
  387ACE     H3 3592   0.638   1.816   2.193 -0.9569  1.6731 -2.7821
  387ACE     H4 3593   0.453   1.922   2.451 -1.1337 -0.0445 -1.9902
  388ACE     C1 3594   2.358   3.191   2.257  0.5058 -0.1452  0.4618
  388ACE     C2 3595   2.224   3.258   2.243 -0.5036 -0.2119  0.2976
  388ACE     O1 3596   2.196   3.378   2.249 -0.0678 -0.6048  0.3315
  388ACE     O2 3597   2.126   3.174   2.229  0.9320  0.1861 -0.0621
  388ACE     H1 3598   2.414   3.214   2.349  1.4608  0.9097 -0.3728
  388ACE     H2 3599   2.429   3.238   2.188  1.9134 -1.3134  1.0778
  388ACE     H3 3600   2.353   3.083   2.237  0.5658  0.3924 -2.6418
  388ACE     H4 3601   2.051   3.236   2.238  0.1959 -0.5884 -0.7359
  389ACE     C1 3602   2.684   1.991   2.558  0.6424  0.2009  0.4006
  389ACE     C2 3603   2.697   2.024   2.703  0.0731 -0.2442 -0.1974
  389ACE     O1 3604   2.628   1.980   2.796  0.3088  0.2205 -0.3570
  389ACE     O2 3605   2.813   2.084   2.734 -0.2721 -0.1105  0.2064
  389ACE     H1 3606   2.708   1.885   2.547 -1.1514 -0.3380  1.4128
  389ACE     H2 3607   2.748   2.051   2.493  1.8526 -1.6568 -0.1810
  389ACE     H3 3608   2.577   1.980   2.536  0.6425 -0.5287  0.7454
  389ACE     H4 3609   2.818   2.077   2.831 -1.6108 -1.1066  0.2192
  390ACE     C1 3610   1.047   0.179   2.360 -0.0458 -0.5212 -0.0386
  390ACE     C2 3611   1.198   0.185   2.361  0.0909 -0.0702 -0.1132
  390ACE     O1 3612   1.263   0.198   2.456  0.1752  0.2737 -0.1149
  390ACE     O2 3613   1.261   0.190   2.242  0.3182  0.2177 -0.4330
  390ACE     H1 3614   0.995   0.214   2.450  0.6685 -0.1938  0.2528
  390ACE     H2 3615   1.022   0.075   2.335  1.8266 -0.9954 -0.0369
  390ACE     H3 3616   1.003   0.229   2.273 -0.7270  0.8221  1.0630
  390ACE     H4 3617   1.350   0.225   2.256  0.8705 -0.9653 -0.9836
  391ACE     C1 3618   0.537   1.232   3.045 -0.1103 -0.7361  0.2268
  391ACE     C2 3619   0.649   1.148   2.981  0.3650 -0.5891  0.0013
  391ACE     O1 3620   0.740   1.195   2.909 -0.1793  0.0686 -0.6258
  391ACE     O2 3621   0.663   1.022   3.026  0.1462  0.0776  0.2273
  391ACE     H1 3622   0.581   1.269   3.139 -1.2816 -0.6431  0.7516
  391ACE     H2 3623   0.461   1.159   3.075  0.8509 -2.4659 -1.4430
  391ACE     H3 3624   0.508   1.305   2.969  0.7183 -0.4277  0.2022
  391ACE     H4 3625   0.749   1.001   2.986  0.6419 -0.1297  1.4027
  392ACE     C1 3626   3.333   0.724   2.424 -0.3402 -0.1705 -0.1243
  392ACE     C2 3627   3.444   0.763   2.517 -0.2921  0.1790 -0.3124
  392ACE     O1 3628   3.549   0.703   2.534 -0.1084 -0.2974 -0.5424
  392ACE     O2 3629   3.412   0.864   2.601  0.3094  0.4751 -0.6670
  392ACE     H1 3630   3.319   0.808   2.355  1.0822  1.5126  1.5846
  392ACE     H2 3631   3.239   0.737   2.480 -1.6888  1.1992 -2.6230
  392ACE     H3 3632   3.346   0.626   2.377 -1.0518 -1.8475  3.0052
  392ACE     H4 3633   3.493   0.869   2.654 -1.0260  1.6786  1.3278
  393ACE     C1 3634   2.878   2.417   2.716  1.1171  0.1749  0.8648
  393ACE     C2 3635   2.848   2.539   2.637  0.1787 -0.1424  0.0548
  393ACE     O1 3636   2.760   2.552   2.556  0.4849  0.3005 -0.6465
  393ACE     O2 3637   2.942   2.631   2.636  0.0719  0.0326  0.5078
  393ACE     H1 3638   2.856   2.327   2.657 -0.2354  1.2948 -0.3668
  393ACE     H2 3639   2.809   2.418   2.802  0.4631 -0.8725  0.3666
  393ACE     H3 3640   2.981   2.431   2.749  1.7993  0.5896 -1.3502
  393ACE     H4 3641   2.910   2.686   2.563  1.7640 -1.4584 -1.4461
  394ACE     C1 3642   2.242   0.636   3.289 -0.0847 -0.5226 -0.3769
  394ACE     C2 3643   2.126   0.650   3.386 -0.3640 -0.5908  0.1312
  394ACE     O1 3644   2.026   0.714   3.359  0.2173  0.0843  0.2905
  394ACE     O2 3645   2.138   0.587   3.502  0.0722 -0.0441  0.1465
  394ACE     H1 3646   2.227   0.704   3.205  1.1798  0.1137 -0.1001
  394ACE     H2 3647   2.252   0.528   3.275 -2.0352 -1.0024  1.7527
  394ACE     H3 3648   2.332   0.663   3.345  1.0482 -1.9655 -1.4606
  394ACE     H4 3649   2.057   0.617   3.546  0.1359 -0.1816  0.3586
  395ACE     C1 3650   0.332   2.552   3.286 -0.7404  0.1686 -0.6211
  395ACE     C2 3651   0.436   2.483   3.371 -0.0725 -0.0902  0.4288
  395ACE     O1 3652   0.457   2.516   3.488 -0.9221  0.7473 -0.6319
  395ACE     O2 3653   0.516   2.407   3.297  0.2858  0.5971 -0.9642
  395ACE     H1 3654   0.381   2.643   3.250 -0.2654  0.9770  1.9091
  395ACE     H2 3655   0.241   2.577   3.341 -0.4301  0.0292 -0.0380
  395ACE     H3 3656   0.306   2.488   3.201  1.6755  0.3126 -1.4874
  395ACE     H4 3657   0.586   2.386   3.362  1.1846  0.0720 -2.0961
  396ACE     C1 3658   1.836   2.922   3.082  0.0875 -0.1632 -0.1275
  396ACE     C2 3659   1.778   2.973   3.214  0.8035 -0.0038  0.7704
  396ACE     O1 3660   1.755   3.090   3.230 -0.0300  0.2226  0.1353
  396ACE     O2 3661   1.725   2.885   3.301 -1.1913  0.0881  0.3920
  396ACE     H1 3662   1.825   3.002   3.007  1.5646  1.5529  1.4500
  396ACE     H2 3663   1.784   2.827   3.063  0.2591  0.0490 -1.7381
  396ACE     H3 3664   1.943   2.904   3.096 -0.0470 -0.6646  0.2887
  396ACE     H4 3665   1.696   2.942   3.375  1.0603  1.1900  0.4793
  397ACE     C1 3666   1.752   2.841   2.709 -0.2082 -0.3184 -0.2669
  397ACE     C2 3667   1.748   2.693   2.676 -0.0289 -0.4925  0.2442
  397ACE     O1 3668   1.829   2.612   2.726  0.0643 -0.1375  0.3006
  397ACE     O2 3669   1.633   2.646   2.612  0.1652  0.1007 -0.2180
  397ACE     H1 3670   1.748   2.886   2.610 -0.6068 -1.0572 -0.5881
  397ACE     H2 3671   1.841   2.882   2.759 -0.4953 -0.4708  0.3760
  397ACE     H3 3672   1.661   2.867   2.764 -1.4314  2.2463 -3.3706
  397ACE     H4 3673   1.640   2.550   2.598  1.6753  0.2702 -0.8045
  398ACE     C1 3674   2.113   0.250   3.305  0.6755 -0.8815 -0.2690
  398ACE     C2 3675   2.235   0.209   3.384 -0.4986 -0.4077 -0.4014
  398ACE     O1 3676   2.238   0.131   3.477  0.3788 -0.2726  0.1288
  398ACE     O2 3677   2.353   0.268   3.339  0.2155  0.5271 -0.1405
  398ACE     H1 3678   2.102   0.358   3.315 -1.3113 -1.1572  0.6456
  398ACE     H2 3679   2.019   0.204   3.337 -0.7152  0.6286 -2.1091
  398ACE     H3 3680   2.124   0.246   3.196  0.2216 -1.6511 -0.2907
  398ACE     H4 3681   2.427   0.225   3.385 -0.7776  0.0415  1.0153
  399ACE     C1 3682   0.541   0.809   3.227  0.1103  0.0389  0.2961
  399ACE     C2 3683   0.495   0.664   3.215  0.5754 -0.0283  0.0164
  399ACE     O1 3684   0.522   0.584   3.302  0.0925 -0.5989  0.1199
  399ACE     O2 3685   0.450   0.625   3.097  0.3091 -0.1594 -0.0403
  399ACE     H1 3686   0.491   0.865   3.147  1.4435 -0.5767 -0.9924
  399ACE     H2 3687   0.649   0.809   3.212  0.0864  3.2666 -0.2305
  399ACE     H3 3688   0.508   0.849   3.324  1.2244  0.3840  0.5373
  399ACE     H4 3689   0.403   0.541   3.108 -0.4099  0.1274 -0.8528
  400ACE     C1 3690   1.600   0.555   2.292  0.2728  0.2997  0.4331
  400ACE     C2 3691   1.481   0.457   2.321 -0.4302 -1.0801 -0.1681
  400ACE     O1 3692   1.465   0.358   2.258  0.2416 -0.1056 -0.3117
  400ACE     O2 3693   1.398   0.488   2.416 -0.2956  0.1731  0.1290
  400ACE     H1 3694   1.634   0.545   2.189 -0.6796 -2.2260  0.3311
  400ACE     H2 3695   1.680   0.526   2.361  0.1391  0.4316  0.6449
  400ACE     H3 3696   1.581   0.657   2.329 -0.5400  0.3135 -0.0119
  400ACE     H4 3697   1.335   0.413   2.418 -0.3997  0.1993 -1.4124
  401ACE     C1 3698   2.033   1.129   2.609  0.3439  0.0778  0.4333
  401ACE     C2 3699   2.183   1.142   2.621 -0.5232 -0.4729 -0.3532
  401ACE     O1 3700   2.242   1.226   2.552 -0.1324 -0.1761 -0.0719
  401ACE     O2 3701   2.227   1.129   2.745 -0.1966 -0.0059 -0.0002
  401ACE     H1 3702   2.017   1.061   2.524 -0.2438  0.3519  0.3260
  401ACE     H2 3703   1.982   1.224   2.588 -2.9001 -2.1005 -2.0938
  401ACE     H3 3704   1.976   1.085   2.691  0.5870  3.0020  2.2504
  401ACE     H4 3705   2.297   1.196   2.754  1.5572 -2.0026  1.6856
  402ACE     C1 3706   2.523   0.495   0.087 -0.7318 -0.3712 -0.1319
  402ACE     C2 3707   2.666   0.448   0.123  0.1102 -0.1642  0.0592
  402ACE     O1 3708   2.766   0.521   0.125 -0.8708 -0.1282  0.4149
  402ACE     O2 3709   2.672   0.318   0.158 -0.8729 -0.2579 -0.1759
  402ACE     H1 3710   2.461   0.415   0.044 -0.2940 -0.8612  0.1467
  402ACE     H2 3711   2.529   0.577   0.014 -0.5230 -0.9906 -0.8207
  402ACE     H3 3712   2.475   0.516   0.183 -1.6854 -2.0386 -0.2252
  402ACE     H4 3713   2.758   0.303   0.203 -0.0507  2.0950 -0.8892
  403ACE     C1 3714   1.246   3.211   0.249  0.4502  0.2030 -0.1014
  403ACE     C2 3715   1.368   3.136   0.202 -0.5165  0.3050 -0.2178
  403ACE     O1 3716   1.378   3.021   0.196 -0.4690 -0.3607 -0.2789
  403ACE     O2 3717   1.477   3.206   0.171 -0.9538  0.0630 -0.2726
  403ACE     H1 3718   1.244   3.302   0.187 -0.6527  0.2656  0.0243
  403ACE     H2 3719   1.269   3.246   0.350 -0.9273  0.5154  0.1099
  403ACE     H3 3720   1.156   3.149   0.244  0.2100  0.5930 -0.6268
  403ACE     H4 3721   1.537   3.131   0.160 -0.8036  0.5118 -2.9127
  404ACE     C1 3722   3.310   0.112   2.245 -0.0546 -0.2121 -0.2084
  404ACE     C2 3723   3.185   0.023   2.273 -0.3783  0.3432  0.9364
  404ACE     O1 3724   3.068   0.054   2.250 -0.2289  0.1511  0.3651
  404ACE     O2 3725   3.205  -0.058   2.379 -0.4142  0.1778  0.0739
  404ACE     H1 3726   3.274   0.198   2.188  0.9239  1.7776  2.1283
  404ACE     H2 3727   3.396   0.059   2.202 -0.5625  0.4539 -2.0977
  404ACE     H3 3728   3.346   0.147   2.342 -1.0950  2.2992 -0.6828
  404ACE     H4 3729   3.113  -0.077   2.405  0.0870  0.2600  1.9417
  405ACE     C1 3730   0.180   2.454   2.964 -0.1723  0.1584 -0.3538
  405ACE     C2 3731   0.141   2.504   2.828 -0.3315  0.0540 -1.0182
  405ACE     O1 3732   0.082   2.435   2.751 -0.3218  0.0838  0.3263
  405ACE     O2 3733   0.165   2.630   2.809  0.1301 -0.5389  0.3505
  405ACE     H1 3734   0.093   2.460   3.029  0.2076  0.1109  0.1650
  405ACE     H2 3735   0.258   2.516   3.010 -2.4318  2.7912 -0.0185
  405ACE     H3 3736   0.196   2.345   2.966 -0.9649  0.0130 -1.5032
  405ACE     H4 3737   0.116   2.626   2.725  0.0230 -1.7035  0.4526
  406ACE     C1 3738   1.788   1.097   3.146 -0.1031 -0.4243 -0.8790
  406ACE     C2 3739   1.860   1.010   3.252  0.1253  0.8414  1.0217
  406ACE     O1 3740   1.835   0.995   3.368  0.5786 -0.2335  0.1206
  406ACE     O2 3741   1.929   0.913   3.191  0.3176  0.0870  0.0877
  406ACE     H1 3742   1.852   1.116   3.059 -0.0027  1.7359 -0.3704
  406ACE     H2 3743   1.744   1.188   3.189  0.0436 -1.3647  1.3201
  406ACE     H3 3744   1.706   1.038   3.105  0.4116 -0.4638 -1.8531
  406ACE     H4 3745   1.955   0.851   3.262 -0.0442  2.0626  1.9828
  407ACE     C1 3746   0.081   2.571   2.317 -0.1466 -0.1457 -0.3219
  407ACE     C2 3747   0.077   2.528   2.459  0.1631 -0.1901 -0.2539
  407ACE     O1 3748   0.077   2.611   2.548  0.2786  0.1212 -0.1523
  407ACE     O2 3749   0.090   2.397   2.482  0.1745 -0.5242 -0.1289
  407ACE     H1 3750   0.180   2.540   2.283 -0.8056 -0.7794 -1.7000
  407ACE     H2 3751   0.087   2.679   2.303  1.4275 -0.2494 -0.4458
  407ACE     H3 3752   0.015   2.512   2.253 -0.6817  1.4115 -1.2230
  407ACE     H4 3753   0.052   2.396   2.572 -2.0611 -1.2559 -1.0268
  408ACE     C1 3754   3.334   3.418   3.122 -0.6054  0.0579 -0.9283
  408ACE     C2 3755   3.386   3.336   3.014 -0.4441  0.1241  0.5062
  408ACE     O1 3756   3.325   3.266   2.933 -0.2711 -0.5138  0.0391
  408ACE     O2 3757   3.511   3.370   2.977 -0.3358  0.0780  0.0063
  408ACE     H1 3758   3.237   3.379   3.157 -0.5541 -1.4834 -2.4242
  408ACE     H2 3759   3.344   3.524   3.095 -1.9294  0.6060  0.6246
  408ACE     H3 3760   3.401   3.412   3.208 -1.4118  3.3554 -0.0012
  408ACE     H4 3761   3.520   3.339   2.886 -0.4972  2.0131 -0.6896
  409ACE     C1 3762   1.821   3.349   2.952  0.4747  0.1330  0.2461
  409ACE     C2 3763   1.960   3.371   3.017 -0.0234  0.6186  0.0463
  409ACE     O1 3764   2.054   3.304   2.988 -0.6307  0.9298  0.0419
  409ACE     O2 3765   1.982   3.476   3.093 -0.0059 -0.0921 -0.1159
  409ACE     H1 3766   1.788   3.445   2.911  0.0984  0.2783  0.8788
  409ACE     H2 3767   1.737   3.330   3.021 -0.2651 -0.6184 -0.8316
  409ACE     H3 3768   1.829   3.278   2.869  0.9016 -0.1902  0.5631
  409ACE     H4 3769   2.079   3.470   3.107  0.0999  0.1622 -0.7453
  410ACE     C1 3770   0.890   2.493   3.595  0.1857 -1.7026  0.5316
  410ACE     C2 3771   0.837   2.366   3.526  0.3564  0.1681  0.8548
  410ACE     O1 3772   0.737   2.355   3.452  0.0769  0.6635 -1.1758
  410ACE     O2 3773   0.908   2.256   3.538  0.0444  0.2564 -0.1356
  410ACE     H1 3774   0.957   2.541   3.523 -1.0272 -0.7706 -0.0039
  410ACE     H2 3775   0.944   2.470   3.688  0.5166 -0.3617  0.6808
  410ACE     H3 3776   0.808   2.563   3.614  0.0031 -1.3804 -1.3000
  410ACE     H4 3777   0.851   2.198   3.484  0.3614 -1.1820  1.0280
  411ACE     C1 3778   2.247   3.091   3.794  0.0022  0.3973  0.2415
  411ACE     C2 3779   2.290   3.131   3.931 -0.0260 -0.3979  0.2729
  411ACE     O1 3780   2.399   3.104   3.982  0.3004 -0.0244 -0.2169
  411ACE     O2 3781   2.194   3.195   3.993  0.2289  0.5530 -0.3031
  411ACE     H1 3782   2.164   3.021   3.808  0.2012 -0.2241 -1.5636
  411ACE     H2 3783   2.334   3.045   3.744  1.4442  1.2457  1.9156
  411ACE     H3 3784   2.211   3.174   3.732  1.4659  0.2498 -0.8341
  411ACE     H4 3785   2.232   3.195   4.083 -0.6610 -0.6185  0.0973
  412ACE     C1 3786   2.182   3.003   2.869 -0.0076 -0.6711  0.1619
  412ACE     C2 3787   2.218   2.881   2.797 -0.7920  0.4360 -0.5761
  412ACE     O1 3788   2.307   2.878   2.715 -0.3223 -0.8122  0.3704
  412ACE     O2 3789   2.177   2.769   2.858 -0.2342  0.1987  0.2817
  412ACE     H1 3790   2.229   3.095   2.833 -2.1451  0.4628  0.1809
  412ACE     H2 3791   2.167   2.992   2.977  1.4964  0.9295  0.5542
  412ACE     H3 3792   2.077   3.021   2.844  0.3115  0.6348 -0.3043
  412ACE     H4 3793   2.229   2.704   2.807  0.5866 -0.2919  1.7227
  413ACE     C1 3794   0.792   1.969   0.300 -0.2846  0.4710  0.3583
  413ACE     C2 3795   0.673   2.052   0.350 -0.6105 -0.2574 -0.0098
  413ACE     O1 3796   0.562   2.009   0.396  0.7677 -0.1858 -0.3743
  413ACE     O2 3797   0.704   2.184   0.363 -0.8208 -0.2469  0.6570
  413ACE     H1 3798   0.810   1.985   0.193  0.2563  1.9421  0.6609
  413ACE     H2 3799   0.782   1.863   0.327  0.5380  0.2997  0.0264
  413ACE     H3 3800   0.863   2.017   0.368 -1.4711  0.3482  1.7114
  413ACE     H4 3801   0.623   2.209   0.410 -0.1950  0.9006  1.1385
   3.40320   3.43847   3.80000
