AceticAcid comparator n4
 3801
    1GR      C1    1   0.000   0.000   1.900  0.0000  0.0000  0.0000
    1GR      C2    2   0.142   0.000   1.900  0.0000  0.0000  0.0000
    1GR      C3    3   0.213   0.123   1.900  0.0000  0.0000  0.0000
    1GR      C4    4   0.354   0.123   1.900  0.0000  0.0000  0.0000
    1GR      C5    5   0.000   0.246   1.900  0.0000  0.0000  0.0000
    1GR      C6    6   0.142   0.246   1.900  0.0000  0.0000  0.0000
    1GR      C7    7   0.213   0.368   1.900  0.0000  0.0000  0.0000
    1GR      C8    8   0.354   0.368   1.900  0.0000  0.0000  0.0000
    1GR      C9    9   0.000   0.491   1.900  0.0000  0.0000  0.0000
    1GR     C10   10   0.142   0.491   1.900  0.0000  0.0000  0.0000
    1GR     C11   11   0.213   0.614   1.900  0.0000  0.0000  0.0000
    1GR     C12   12   0.354   0.614   1.900  0.0000  0.0000  0.0000
    1GR     C13   13   0.000   0.737   1.900  0.0000  0.0000  0.0000
    1GR     C14   14   0.142   0.737   1.900  0.0000  0.0000  0.0000
    1GR     C15   15   0.213   0.860   1.900  0.0000  0.0000  0.0000
    1GR     C16   16   0.354   0.860   1.900  0.0000  0.0000  0.0000
    1GR     C17   17   0.000   0.982   1.900  0.0000  0.0000  0.0000
    1GR     C18   18   0.142   0.982   1.900  0.0000  0.0000  0.0000
    1GR     C19   19   0.213   1.105   1.900  0.0000  0.0000  0.0000
    1GR     C20   20   0.354   1.105   1.900  0.0000  0.0000  0.0000
    1GR     C21   21   0.000   1.228   1.900  0.0000  0.0000  0.0000
    1GR     C22   22   0.142   1.228   1.900  0.0000  0.0000  0.0000
    1GR     C23   23   0.213   1.351   1.900  0.0000  0.0000  0.0000
    1GR     C24   24   0.354   1.351   1.900  0.0000  0.0000  0.0000
    1GR     C25   25   0.000   1.474   1.900  0.0000  0.0000  0.0000
    1GR     C26   26   0.142   1.474   1.900  0.0000  0.0000  0.0000
    1GR     C27   27   0.213   1.596   1.900  0.0000  0.0000  0.0000
    1GR     C28   28   0.354   1.596   1.900  0.0000  0.0000  0.0000
    1GR     C29   29   0.000   1.719   1.900  0.0000  0.0000  0.0000
    1GR     C30   30   0.142   1.719   1.900  0.0000  0.0000  0.0000
    1GR     C31   31   0.213   1.842   1.900  0.0000  0.0000  0.0000
    1GR     C32   32   0.354   1.842   1.900  0.0000  0.0000  0.0000
    1GR     C33   33   0.000   1.965   1.900  0.0000  0.0000  0.0000
    1GR     C34   34   0.142   1.965   1.900  0.0000  0.0000  0.0000
    1GR     C35   35   0.213   2.088   1.900  0.0000  0.0000  0.0000
    1GR     C36   36   0.354   2.088   1.900  0.0000  0.0000  0.0000
    1GR     C37   37   0.000   2.210   1.900  0.0000  0.0000  0.0000
    1GR     C38   38   0.142   2.210   1.900  0.0000  0.0000  0.0000
    1GR     C39   39   0.213   2.333   1.900  0.0000  0.0000  0.0000
    1GR     C40   40   0.354   2.333   1.900  0.0000  0.0000  0.0000
    1GR     C41   41   0.000   2.456   1.900  0.0000  0.0000  0.0000
    1GR     C42   42   0.142   2.456   1.900  0.0000  0.0000  0.0000
    1GR     C43   43   0.213   2.579   1.900  0.0000  0.0000  0.0000
    1GR     C44   44   0.354   2.579   1.900  0.0000  0.0000  0.0000
    1GR     C45   45   0.000   2.702   1.900  0.0000  0.0000  0.0000
    1GR     C46   46   0.142   2.702   1.900  0.0000  0.0000  0.0000
    1GR     C47   47   0.213   2.824   1.900  0.0000  0.0000  0.0000
    1GR     C48   48   0.354   2.824   1.900  0.0000  0.0000  0.0000
    1GR     C49   49   0.000   2.947   1.900  0.0000  0.0000  0.0000
    1GR     C50   50   0.142   2.947   1.900  0.0000  0.0000  0.0000
    1GR     C51   51   0.213   3.070   1.900  0.0000  0.0000  0.0000
    1GR     C52   52   0.354   3.070   1.900  0.0000  0.0000  0.0000
    1GR     C53   53   0.000   3.193   1.900  0.0000  0.0000  0.0000
    1GR     C54   54   0.142   3.193   1.900  0.0000  0.0000  0.0000
    1GR     C55   55   0.213   3.316   1.900  0.0000  0.0000  0.0000
    1GR     C56   56   0.354   3.316   1.900  0.0000  0.0000  0.0000
    1GR     C57   57   0.425   0.000   1.900  0.0000  0.0000  0.0000
    1GR     C58   58   0.567   0.000   1.900  0.0000  0.0000  0.0000
    1GR     C59   59   0.638   0.123   1.900  0.0000  0.0000  0.0000
    1GR     C60   60   0.780   0.123   1.900  0.0000  0.0000  0.0000
    1GR     C61   61   0.425   0.246   1.900  0.0000  0.0000  0.0000
    1GR     C62   62   0.567   0.246   1.900  0.0000  0.0000  0.0000
    1GR     C63   63   0.638   0.368   1.900  0.0000  0.0000  0.0000
    1GR     C64   64   0.780   0.368   1.900  0.0000  0.0000  0.0000
    1GR     C65   65   0.425   0.491   1.900  0.0000  0.0000  0.0000
    1GR     C66   66   0.567   0.491   1.900  0.0000  0.0000  0.0000
    1GR     C67   67   0.638   0.614   1.900  0.0000  0.0000  0.0000
    1GR     C68   68   0.780   0.614   1.900  0.0000  0.0000  0.0000
    1GR     C69   69   0.425   0.737   1.900  0.0000  0.0000  0.0000
    1GR     C70   70   0.567   0.737   1.900  0.0000  0.0000  0.0000
    1GR     C71   71   0.638   0.860   1.900  0.0000  0.0000  0.0000
    1GR     C72   72   0.780   0.860   1.900  0.0000  0.0000  0.0000
    1GR     C73   73   0.425   0.982   1.900  0.0000  0.0000  0.0000
    1GR     C74   74   0.567   0.982   1.900  0.0000  0.0000  0.0000
    1GR     C75   75   0.638   1.105   1.900  0.0000  0.0000  0.0000
    1GR     C76   76   0.780   1.105   1.900  0.0000  0.0000  0.0000
    1GR     C77   77   0.425   1.228   1.900  0.0000  0.0000  0.0000
    1GR     C78   78   0.567   1.228   1.900  0.0000  0.0000  0.0000
    1GR     C79   79   0.638   1.351   1.900  0.0000  0.0000  0.0000
    1GR     C80   80   0.780   1.351   1.900  0.0000  0.0000  0.0000
    1GR     C81   81   0.425   1.474   1.900  0.0000  0.0000  0.0000
    1GR     C82   82   0.567   1.474   1.900  0.0000  0.0000  0.0000
    1GR     C83   83   0.638   1.596   1.900  0.0000  0.0000  0.0000
    1GR     C84   84   0.780   1.596   1.900  0.0000  0.0000  0.0000
    1GR     C85   85   0.425   1.719   1.900  0.0000  0.0000  0.0000
    1GR     C86   86   0.567   1.719   1.900  0.0000  0.0000  0.0000
    1GR     C87   87   0.638   1.842   1.900  0.0000  0.0000  0.0000
    1GR     C88   88   0.780   1.842   1.900  0.0000  0.0000  0.0000
    1GR     C89   89   0.425   1.965   1.900  0.0000  0.0000  0.0000
    1GR     C90   90   0.567   1.965   1.900  0.0000  0.0000  0.0000
    1GR     C91   91   0.638   2.088   1.900  0.0000  0.0000  0.0000
    1GR     C92   92   0.780   2.088   1.900  0.0000  0.0000  0.0000
    1GR     C93   93   0.425   2.210   1.900  0.0000  0.0000  0.0000
    1GR     C94   94   0.567   2.210   1.900  0.0000  0.0000  0.0000
    1GR     C95   95   0.638   2.333   1.900  0.0000  0.0000  0.0000
    1GR     C96   96   0.780   2.333   1.900  0.0000  0.0000  0.0000
    1GR     C97   97   0.425   2.456   1.900  0.0000  0.0000  0.0000
    1GR     C98   98   0.567   2.456   1.900  0.0000  0.0000  0.0000
    1GR     C99   99   0.638   2.579   1.900  0.0000  0.0000  0.0000
    1GR    C100  100   0.780   2.579   1.900  0.0000  0.0000  0.0000
    1GR    C101  101   0.425   2.702   1.900  0.0000  0.0000  0.0000
    1GR    C102  102   0.567   2.702   1.900  0.0000  0.0000  0.0000
    1GR    C103  103   0.638   2.824   1.900  0.0000  0.0000  0.0000
    1GR    C104  104   0.780   2.824   1.900  0.0000  0.0000  0.0000
    1GR    C105  105   0.425   2.947   1.900  0.0000  0.0000  0.0000
    1GR    C106  106   0.567   2.947   1.900  0.0000  0.0000  0.0000
    1GR    C107  107   0.638   3.070   1.900  0.0000  0.0000  0.0000
    1GR    C108  108   0.780   3.070   1.900  0.0000  0.0000  0.0000
    1GR    C109  109   0.425   3.193   1.900  0.0000  0.0000  0.0000
    1GR    C110  110   0.567   3.193   1.900  0.0000  0.0000  0.0000
    1GR    C111  111   0.638   3.316   1.900  0.0000  0.0000  0.0000
    1GR    C112  112   0.780   3.316   1.900  0.0000  0.0000  0.0000
    1GR    C113  113   0.851   3.438   1.900  0.0000  0.0000  0.0000
    1GR    C114  114   0.993   0.000   1.900  0.0000  0.0000  0.0000
    1GR    C115  115   1.064   0.123   1.900  0.0000  0.0000  0.0000
    1GR    C116  116   1.205   0.123   1.900  0.0000  0.0000  0.0000
    1GR    C117  117   0.851   0.246   1.900  0.0000  0.0000  0.0000
    1GR    C118  118   0.993   0.246   1.900  0.0000  0.0000  0.0000
    1GR    C119  119   1.064   0.368   1.900  0.0000  0.0000  0.0000
    1GR    C120  120   1.205   0.368   1.900  0.0000  0.0000  0.0000
    1GR    C121  121   0.851   0.491   1.900  0.0000  0.0000  0.0000
    1GR    C122  122   0.993   0.491   1.900  0.0000  0.0000  0.0000
    1GR    C123  123   1.064   0.614   1.900  0.0000  0.0000  0.0000
    1GR    C124  124   1.205   0.614   1.900  0.0000  0.0000  0.0000
    1GR    C125  125   0.851   0.737   1.900  0.0000  0.0000  0.0000
    1GR    C126  126   0.993   0.737   1.900  0.0000  0.0000  0.0000
    1GR    C127  127   1.064   0.860   1.900  0.0000  0.0000  0.0000
    1GR    C128  128   1.205   0.860   1.900  0.0000  0.0000  0.0000
    1GR    C129  129   0.851   0.982   1.900  0.0000  0.0000  0.0000
    1GR    C130  130   0.993   0.982   1.900  0.0000  0.0000  0.0000
    1GR    C131  131   1.064   1.105   1.900  0.0000  0.0000  0.0000
    1GR    C132  132   1.205   1.105   1.900  0.0000  0.0000  0.0000
    1GR    C133  133   0.851   1.228   1.900  0.0000  0.0000  0.0000
    1GR    C134  134   0.993   1.228   1.900  0.0000  0.0000  0.0000
    1GR    C135  135   1.064   1.351   1.900  0.0000  0.0000  0.0000
    1GR    C136  136   1.205   1.351   1.900  0.0000  0.0000  0.0000
    1GR    C137  137   0.851   1.474   1.900  0.0000  0.0000  0.0000
    1GR    C138  138   0.993   1.474   1.900  0.0000  0.0000  0.0000
    1GR    C139  139   1.064   1.596   1.900  0.0000  0.0000  0.0000
    1GR    C140  140   1.205   1.596   1.900  0.0000  0.0000  0.0000
    1GR    C141  141   0.851   1.719   1.900  0.0000  0.0000  0.0000
    1GR    C142  142   0.993   1.719   1.900  0.0000  0.0000  0.0000
    1GR    C143  143   1.064   1.842   1.900  0.0000  0.0000  0.0000
    1GR    C144  144   1.205   1.842   1.900  0.0000  0.0000  0.0000
    1GR    C145  145   0.851   1.965   1.900  0.0000  0.0000  0.0000
    1GR    C146  146   0.993   1.965   1.900  0.0000  0.0000  0.0000
    1GR    C147  147   1.064   2.088   1.900  0.0000  0.0000  0.0000
    1GR    C148  148   1.205   2.088   1.900  0.0000  0.0000  0.0000
    1GR    C149  149   0.851   2.210   1.900  0.0000  0.0000  0.0000
    1GR    C150  150   0.993   2.210   1.900  0.0000  0.0000  0.0000
    1GR    C151  151   1.064   2.333   1.900  0.0000  0.0000  0.0000
    1GR    C152  152   1.205   2.333   1.900  0.0000  0.0000  0.0000
    1GR    C153  153   0.851   2.456   1.900  0.0000  0.0000  0.0000
    1GR    C154  154   0.993   2.456   1.900  0.0000  0.0000  0.0000
    1GR    C155  155   1.064   2.579   1.900  0.0000  0.0000  0.0000
    1GR    C156  156   1.205   2.579   1.900  0.0000  0.0000  0.0000
    1GR    C157  157   0.851   2.702   1.900  0.0000  0.0000  0.0000
    1GR    C158  158   0.993   2.702   1.900  0.0000  0.0000  0.0000
    1GR    C159  159   1.064   2.824   1.900  0.0000  0.0000  0.0000
    1GR    C160  160   1.205   2.824   1.900  0.0000  0.0000  0.0000
    1GR    C161  161   0.851   2.947   1.900  0.0000  0.0000  0.0000
    1GR    C162  162   0.993   2.947   1.900  0.0000  0.0000  0.0000
    1GR    C163  163   1.064   3.070   1.900  0.0000  0.0000  0.0000
    1GR    C164  164   1.205   3.070   1.900  0.0000  0.0000  0.0000
    1GR    C165  165   0.851   3.193   1.900  0.0000  0.0000  0.0000
    1GR    C166  166   0.993   3.193   1.900  0.0000  0.0000  0.0000
    1GR    C167  167   1.064   3.316   1.900  0.0000  0.0000  0.0000
    1GR    C168  168   1.205   3.316   1.900  0.0000  0.0000  0.0000
    1GR    C169  169   1.276   0.000   1.900  0.0000  0.0000  0.0000
    1GR    C170  170   1.418   0.000   1.900  0.0000  0.0000  0.0000
    1GR    C171  171   1.489   0.123   1.900  0.0000  0.0000  0.0000
    1GR    C172  172   1.631   0.123   1.900  0.0000  0.0000  0.0000
    1GR    C173  173   1.276   0.246   1.900  0.0000  0.0000  0.0000
    1GR    C174  174   1.418   0.246   1.900  0.0000  0.0000  0.0000
    1GR    C175  175   1.489   0.368   1.900  0.0000  0.0000  0.0000
    1GR    C176  176   1.631   0.368   1.900  0.0000  0.0000  0.0000
    1GR    C177  177   1.276   0.491   1.900  0.0000  0.0000  0.0000
    1GR    C178  178   1.418   0.491   1.900  0.0000  0.0000  0.0000
    1GR    C179  179   1.489   0.614   1.900  0.0000  0.0000  0.0000
    1GR    C180  180   1.631   0.614   1.900  0.0000  0.0000  0.0000
    1GR    C181  181   1.276   0.737   1.900  0.0000  0.0000  0.0000
    1GR    C182  182   1.418   0.737   1.900  0.0000  0.0000  0.0000
    1GR    C183  183   1.489   0.860   1.900  0.0000  0.0000  0.0000
    1GR    C184  184   1.631   0.860   1.900  0.0000  0.0000  0.0000
    1GR    C185  185   1.276   0.982   1.900  0.0000  0.0000  0.0000
    1GR    C186  186   1.418   0.982   1.900  0.0000  0.0000  0.0000
    1GR    C187  187   1.489   1.105   1.900  0.0000  0.0000  0.0000
    1GR    C188  188   1.631   1.105   1.900  0.0000  0.0000  0.0000
    1GR    C189  189   1.276   1.228   1.900  0.0000  0.0000  0.0000
    1GR    C190  190   1.418   1.228   1.900  0.0000  0.0000  0.0000
    1GR    C191  191   1.489   1.351   1.900  0.0000  0.0000  0.0000
    1GR    C192  192   1.631   1.351   1.900  0.0000  0.0000  0.0000
    1GR    C193  193   1.276   1.474   1.900  0.0000  0.0000  0.0000
    1GR    C194  194   1.418   1.474   1.900  0.0000  0.0000  0.0000
    1GR    C195  195   1.489   1.596   1.900  0.0000  0.0000  0.0000
    1GR    C196  196   1.631   1.596   1.900  0.0000  0.0000  0.0000
    1GR    C197  197   1.276   1.719   1.900  0.0000  0.0000  0.0000
    1GR    C198  198   1.418   1.719   1.900  0.0000  0.0000  0.0000
    1GR    C199  199   1.489   1.842   1.900  0.0000  0.0000  0.0000
    1GR    C200  200   1.631   1.842   1.900  0.0000  0.0000  0.0000
    1GR    C201  201   1.276   1.965   1.900  0.0000  0.0000  0.0000
    1GR    C202  202   1.418   1.965   1.900  0.0000  0.0000  0.0000
    1GR    C203  203   1.489   2.088   1.900  0.0000  0.0000  0.0000
    1GR    C204  204   1.631   2.088   1.900  0.0000  0.0000  0.0000
    1GR    C205  205   1.276   2.210   1.900  0.0000  0.0000  0.0000
    1GR    C206  206   1.418   2.210   1.900  0.0000  0.0000  0.0000
    1GR    C207  207   1.489   2.333   1.900  0.0000  0.0000  0.0000
    1GR    C208  208   1.631   2.333   1.900  0.0000  0.0000  0.0000
    1GR    C209  209   1.276   2.456   1.900  0.0000  0.0000  0.0000
    1GR    C210  210   1.418   2.456   1.900  0.0000  0.0000  0.0000
    1GR    C211  211   1.489   2.579   1.900  0.0000  0.0000  0.0000
    1GR    C212  212   1.631   2.579   1.900  0.0000  0.0000  0.0000
    1GR    C213  213   1.276   2.702   1.900  0.0000  0.0000  0.0000
    1GR    C214  214   1.418   2.702   1.900  0.0000  0.0000  0.0000
    1GR    C215  215   1.489   2.824   1.900  0.0000  0.0000  0.0000
    1GR    C216  216   1.631   2.824   1.900  0.0000  0.0000  0.0000
    1GR    C217  217   1.276   2.947   1.900  0.0000  0.0000  0.0000
    1GR    C218  218   1.418   2.947   1.900  0.0000  0.0000  0.0000
    1GR    C219  219   1.489   3.070   1.900  0.0000  0.0000  0.0000
    1GR    C220  220   1.631   3.070   1.900  0.0000  0.0000  0.0000
    1GR    C221  221   1.276   3.193   1.900  0.0000  0.0000  0.0000
    1GR    C222  222   1.418   3.193   1.900  0.0000  0.0000  0.0000
    1GR    C223  223   1.489   3.316   1.900  0.0000  0.0000  0.0000
    1GR    C224  224   1.631   3.316   1.900  0.0000  0.0000  0.0000
    1GR    C225  225   1.702   0.000   1.900  0.0000  0.0000  0.0000
    1GR    C226  226   1.843   0.000   1.900  0.0000  0.0000  0.0000
    1GR    C227  227   1.914   0.123   1.900  0.0000  0.0000  0.0000
    1GR    C228  228   2.056   0.123   1.900  0.0000  0.0000  0.0000
    1GR    C229  229   1.702   0.246   1.900  0.0000  0.0000  0.0000
    1GR    C230  230   1.843   0.246   1.900  0.0000  0.0000  0.0000
    1GR    C231  231   1.914   0.368   1.900  0.0000  0.0000  0.0000
    1GR    C232  232   2.056   0.368   1.900  0.0000  0.0000  0.0000
    1GR    C233  233   1.702   0.491   1.900  0.0000  0.0000  0.0000
    1GR    C234  234   1.843   0.491   1.900  0.0000  0.0000  0.0000
    1GR    C235  235   1.914   0.614   1.900  0.0000  0.0000  0.0000
    1GR    C236  236   2.056   0.614   1.900  0.0000  0.0000  0.0000
    1GR    C237  237   1.702   0.737   1.900  0.0000  0.0000  0.0000
    1GR    C238  238   1.843   0.737   1.900  0.0000  0.0000  0.0000
    1GR    C239  239   1.914   0.860   1.900  0.0000  0.0000  0.0000
    1GR    C240  240   2.056   0.860   1.900  0.0000  0.0000  0.0000
    1GR    C241  241   1.702   0.982   1.900  0.0000  0.0000  0.0000
    1GR    C242  242   1.843   0.982   1.900  0.0000  0.0000  0.0000
    1GR    C243  243   1.914   1.105   1.900  0.0000  0.0000  0.0000
    1GR    C244  244   2.056   1.105   1.900  0.0000  0.0000  0.0000
    1GR    C245  245   1.702   1.228   1.900  0.0000  0.0000  0.0000
    1GR    C246  246   1.843   1.228   1.900  0.0000  0.0000  0.0000
    1GR    C247  247   1.914   1.351   1.900  0.0000  0.0000  0.0000
    1GR    C248  248   2.056   1.351   1.900  0.0000  0.0000  0.0000
    1GR    C249  249   1.702   1.474   1.900  0.0000  0.0000  0.0000
    1GR    C250  250   1.843   1.474   1.900  0.0000  0.0000  0.0000
    1GR    C251  251   1.914   1.596   1.900  0.0000  0.0000  0.0000
    1GR    C252  252   2.056   1.596   1.900  0.0000  0.0000  0.0000
    1GR    C253  253   1.702   1.719   1.900  0.0000  0.0000  0.0000
    1GR    C254  254   1.843   1.719   1.900  0.0000  0.0000  0.0000
    1GR    C255  255   1.914   1.842   1.900  0.0000  0.0000  0.0000
    1GR    C256  256   2.056   1.842   1.900  0.0000  0.0000  0.0000
    1GR    C257  257   1.702   1.965   1.900  0.0000  0.0000  0.0000
    1GR    C258  258   1.843   1.965   1.900  0.0000  0.0000  0.0000
    1GR    C259  259   1.914   2.088   1.900  0.0000  0.0000  0.0000
    1GR    C260  260   2.056   2.088   1.900  0.0000  0.0000  0.0000
    1GR    C261  261   1.702   2.210   1.900  0.0000  0.0000  0.0000
    1GR    C262  262   1.843   2.210   1.900  0.0000  0.0000  0.0000
    1GR    C263  263   1.914   2.333   1.900  0.0000  0.0000  0.0000
    1GR    C264  264   2.056   2.333   1.900  0.0000  0.0000  0.0000
    1GR    C265  265   1.702   2.456   1.900  0.0000  0.0000  0.0000
    1GR    C266  266   1.843   2.456   1.900  0.0000  0.0000  0.0000
    1GR    C267  267   1.914   2.579   1.900  0.0000  0.0000  0.0000
    1GR    C268  268   2.056   2.579   1.900  0.0000  0.0000  0.0000
    1GR    C269  269   1.702   2.702   1.900  0.0000  0.0000  0.0000
    1GR    C270  270   1.843   2.702   1.900  0.0000  0.0000  0.0000
    1GR    C271  271   1.914   2.824   1.900  0.0000  0.0000  0.0000
    1GR    C272  272   2.056   2.824   1.900  0.0000  0.0000  0.0000
    1GR    C273  273   1.702   2.947   1.900  0.0000  0.0000  0.0000
    1GR    C274  274   1.843   2.947   1.900  0.0000  0.0000  0.0000
    1GR    C275  275   1.914   3.070   1.900  0.0000  0.0000  0.0000
    1GR    C276  276   2.056   3.070   1.900  0.0000  0.0000  0.0000
    1GR    C277  277   1.702   3.193   1.900  0.0000  0.0000  0.0000
    1GR    C278  278   1.843   3.193   1.900  0.0000  0.0000  0.0000
    1GR    C279  279   1.914   3.316   1.900  0.0000  0.0000  0.0000
    1GR    C280  280   2.056   3.316   1.900  0.0000  0.0000  0.0000
    1GR    C281  281   2.127   0.000   1.900  0.0000  0.0000  0.0000
    1GR    C282  282   2.269   3.438   1.900  0.0000  0.0000  0.0000
    1GR    C283  283   2.340   0.123   1.900  0.0000  0.0000  0.0000
    1GR    C284  284   2.481   0.123   1.900  0.0000  0.0000  0.0000
    1GR    C285  285   2.127   0.246   1.900  0.0000  0.0000  0.0000
    1GR    C286  286   2.269   0.246   1.900  0.0000  0.0000  0.0000
    1GR    C287  287   2.340   0.368   1.900  0.0000  0.0000  0.0000
    1GR    C288  288   2.481   0.368   1.900  0.0000  0.0000  0.0000
    1GR    C289  289   2.127   0.491   1.900  0.0000  0.0000  0.0000
    1GR    C290  290   2.269   0.491   1.900  0.0000  0.0000  0.0000
    1GR    C291  291   2.340   0.614   1.900  0.0000  0.0000  0.0000
    1GR    C292  292   2.481   0.614   1.900  0.0000  0.0000  0.0000
    1GR    C293  293   2.127   0.737   1.900  0.0000  0.0000  0.0000
    1GR    C294  294   2.269   0.737   1.900  0.0000  0.0000  0.0000
    1GR    C295  295   2.340   0.860   1.900  0.0000  0.0000  0.0000
    1GR    C296  296   2.481   0.860   1.900  0.0000  0.0000  0.0000
    1GR    C297  297   2.127   0.982   1.900  0.0000  0.0000  0.0000
    1GR    C298  298   2.269   0.982   1.900  0.0000  0.0000  0.0000
    1GR    C299  299   2.340   1.105   1.900  0.0000  0.0000  0.0000
    1GR    C300  300   2.481   1.105   1.900  0.0000  0.0000  0.0000
    1GR    C301  301   2.127   1.228   1.900  0.0000  0.0000  0.0000
    1GR    C302  302   2.269   1.228   1.900  0.0000  0.0000  0.0000
    1GR    C303  303   2.340   1.351   1.900  0.0000  0.0000  0.0000
    1GR    C304  304   2.481   1.351   1.900  0.0000  0.0000  0.0000
    1GR    C305  305   2.127   1.474   1.900  0.0000  0.0000  0.0000
    1GR    C306  306   2.269   1.474   1.900  0.0000  0.0000  0.0000
    1GR    C307  307   2.340   1.596   1.900  0.0000  0.0000  0.0000
    1GR    C308  308   2.481   1.596   1.900  0.0000  0.0000  0.0000
    1GR    C309  309   2.127   1.719   1.900  0.0000  0.0000  0.0000
    1GR    C310  310   2.269   1.719   1.900  0.0000  0.0000  0.0000
    1GR    C311  311   2.340   1.842   1.900  0.0000  0.0000  0.0000
    1GR    C312  312   2.481   1.842   1.900  0.0000  0.0000  0.0000
    1GR    C313  313   2.127   1.965   1.900  0.0000  0.0000  0.0000
    1GR    C314  314   2.269   1.965   1.900  0.0000  0.0000  0.0000
    1GR    C315  315   2.340   2.088   1.900  0.0000  0.0000  0.0000
    1GR    C316  316   2.481   2.088   1.900  0.0000  0.0000  0.0000
    1GR    C317  317   2.127   2.210   1.900  0.0000  0.0000  0.0000
    1GR    C318  318   2.269   2.210   1.900  0.0000  0.0000  0.0000
    1GR    C319  319   2.340   2.333   1.900  0.0000  0.0000  0.0000
    1GR    C320  320   2.481   2.333   1.900  0.0000  0.0000  0.0000
    1GR    C321  321   2.127   2.456   1.900  0.0000  0.0000  0.0000
    1GR    C322  322   2.269   2.456   1.900  0.0000  0.0000  0.0000
    1GR    C323  323   2.340   2.579   1.900  0.0000  0.0000  0.0000
    1GR    C324  324   2.481   2.579   1.900  0.0000  0.0000  0.0000
    1GR    C325  325   2.127   2.702   1.900  0.0000  0.0000  0.0000
    1GR    C326  326   2.269   2.702   1.900  0.0000  0.0000  0.0000
    1GR    C327  327   2.340   2.824   1.900  0.0000  0.0000  0.0000
    1GR    C328  328   2.481   2.824   1.900  0.0000  0.0000  0.0000
    1GR    C329  329   2.127   2.947   1.900  0.0000  0.0000  0.0000
    1GR    C330  330   2.269   2.947   1.900  0.0000  0.0000  0.0000
    1GR    C331  331   2.340   3.070   1.900  0.0000  0.0000  0.0000
    1GR    C332  332   2.481   3.070   1.900  0.0000  0.0000  0.0000
    1GR    C333  333   2.127   3.193   1.900  0.0000  0.0000  0.0000
    1GR    C334  334   2.269   3.193   1.900  0.0000  0.0000  0.0000
    1GR    C335  335   2.340   3.316   1.900  0.0000  0.0000  0.0000
    1GR    C336  336   2.481   3.316   1.900  0.0000  0.0000  0.0000
    1GR    C337  337   2.552   0.000   1.900  0.0000  0.0000  0.0000
    1GR    C338  338   2.694   0.000   1.900  0.0000  0.0000  0.0000
    1GR    C339  339   2.765   0.123   1.900  0.0000  0.0000  0.0000
    1GR    C340  340   2.907   0.123   1.900  0.0000  0.0000  0.0000
    1GR    C341  341   2.552   0.246   1.900  0.0000  0.0000  0.0000
    1GR    C342  342   2.694   0.246   1.900  0.0000  0.0000  0.0000
    1GR    C343  343   2.765   0.368   1.900  0.0000  0.0000  0.0000
    1GR    C344  344   2.907   0.368   1.900  0.0000  0.0000  0.0000
    1GR    C345  345   2.552   0.491   1.900  0.0000  0.0000  0.0000
    1GR    C346  346   2.694   0.491   1.900  0.0000  0.0000  0.0000
    1GR    C347  347   2.765   0.614   1.900  0.0000  0.0000  0.0000
    1GR    C348  348   2.907   0.614   1.900  0.0000  0.0000  0.0000
    1GR    C349  349   2.552   0.737   1.900  0.0000  0.0000  0.0000
    1GR    C350  350   2.694   0.737   1.900  0.0000  0.0000  0.0000
    1GR    C351  351   2.765   0.860   1.900  0.0000  0.0000  0.0000
    1GR    C352  352   2.907   0.860   1.900  0.0000  0.0000  0.0000
    1GR    C353  353   2.552   0.982   1.900  0.0000  0.0000  0.0000
    1GR    C354  354   2.694   0.982   1.900  0.0000  0.0000  0.0000
    1GR    C355  355   2.765   1.105   1.900  0.0000  0.0000  0.0000
    1GR    C356  356   2.907   1.105   1.900  0.0000  0.0000  0.0000
    1GR    C357  357   2.552   1.228   1.900  0.0000  0.0000  0.0000
    1GR    C358  358   2.694   1.228   1.900  0.0000  0.0000  0.0000
    1GR    C359  359   2.765   1.351   1.900  0.0000  0.0000  0.0000
    1GR    C360  360   2.907   1.351   1.900  0.0000  0.0000  0.0000
    1GR    C361  361   2.552   1.474   1.900  0.0000  0.0000  0.0000
    1GR    C362  362   2.694   1.474   1.900  0.0000  0.0000  0.0000
    1GR    C363  363   2.765   1.596   1.900  0.0000  0.0000  0.0000
    1GR    C364  364   2.907   1.596   1.900  0.0000  0.0000  0.0000
    1GR    C365  365   2.552   1.719   1.900  0.0000  0.0000  0.0000
    1GR    C366  366   2.694   1.719   1.900  0.0000  0.0000  0.0000
    1GR    C367  367   2.765   1.842   1.900  0.0000  0.0000  0.0000
    1GR    C368  368   2.907   1.842   1.900  0.0000  0.0000  0.0000
    1GR    C369  369   2.552   1.965   1.900  0.0000  0.0000  0.0000
    1GR    C370  370   2.694   1.965   1.900  0.0000  0.0000  0.0000
    1GR    C371  371   2.765   2.088   1.900  0.0000  0.0000  0.0000
    1GR    C372  372   2.907   2.088   1.900  0.0000  0.0000  0.0000
    1GR    C373  373   2.552   2.210   1.900  0.0000  0.0000  0.0000
    1GR    C374  374   2.694   2.210   1.900  0.0000  0.0000  0.0000
    1GR    C375  375   2.765   2.333   1.900  0.0000  0.0000  0.0000
    1GR    C376  376   2.907   2.333   1.900  0.0000  0.0000  0.0000
    1GR    C377  377   2.552   2.456   1.900  0.0000  0.0000  0.0000
    1GR    C378  378   2.694   2.456   1.900  0.0000  0.0000  0.0000
    1GR    C379  379   2.765   2.579   1.900  0.0000  0.0000  0.0000
    1GR    C380  380   2.907   2.579   1.900  0.0000  0.0000  0.0000
    1GR    C381  381   2.552   2.702   1.900  0.0000  0.0000  0.0000
    1GR    C382  382   2.694   2.702   1.900  0.0000  0.0000  0.0000
    1GR    C383  383   2.765   2.824   1.900  0.0000  0.0000  0.0000
    1GR    C384  384   2.907   2.824   1.900  0.0000  0.0000  0.0000
    1GR    C385  385   2.552   2.947   1.900  0.0000  0.0000  0.0000
    1GR    C386  386   2.694   2.947   1.900  0.0000  0.0000  0.0000
    1GR    C387  387   2.765   3.070   1.900  0.0000  0.0000  0.0000
    1GR    C388  388   2.907   3.070   1.900  0.0000  0.0000  0.0000
    1GR    C389  389   2.552   3.193   1.900  0.0000  0.0000  0.0000
    1GR    C390  390   2.694   3.193   1.900  0.0000  0.0000  0.0000
    1GR    C391  391   2.765   3.316   1.900  0.0000  0.0000  0.0000
    1GR    C392  392   2.907   3.316   1.900  0.0000  0.0000  0.0000
    1GR    C393  393   2.978   0.000   1.900  0.0000  0.0000  0.0000
    1GR    C394  394   3.120   0.000   1.900  0.0000  0.0000  0.0000
    1GR    C395  395   3.191   0.123   1.900  0.0000  0.0000  0.0000
    1GR    C396  396   3.332   0.123   1.900  0.0000  0.0000  0.0000
    1GR    C397  397   2.978   0.246   1.900  0.0000  0.0000  0.0000
    1GR    C398  398   3.120   0.246   1.900  0.0000  0.0000  0.0000
    1GR    C399  399   3.191   0.368   1.900  0.0000  0.0000  0.0000
    1GR    C400  400   3.332   0.368   1.900  0.0000  0.0000  0.0000
    1GR    C401  401   2.978   0.491   1.900  0.0000  0.0000  0.0000
    1GR    C402  402   3.120   0.491   1.900  0.0000  0.0000  0.0000
    1GR    C403  403   3.191   0.614   1.900  0.0000  0.0000  0.0000
    1GR    C404  404   3.332   0.614   1.900  0.0000  0.0000  0.0000
    1GR    C405  405   2.978   0.737   1.900  0.0000  0.0000  0.0000
    1GR    C406  406   3.120   0.737   1.900  0.0000  0.0000  0.0000
    1GR    C407  407   3.191   0.860   1.900  0.0000  0.0000  0.0000
    1GR    C408  408   3.332   0.860   1.900  0.0000  0.0000  0.0000
    1GR    C409  409   2.978   0.982   1.900  0.0000  0.0000  0.0000
    1GR    C410  410   3.120   0.982   1.900  0.0000  0.0000  0.0000
    1GR    C411  411   3.191   1.105   1.900  0.0000  0.0000  0.0000
    1GR    C412  412   3.332   1.105   1.900  0.0000  0.0000  0.0000
    1GR    C413  413   2.978   1.228   1.900  0.0000  0.0000  0.0000
    1GR    C414  414   3.120   1.228   1.900  0.0000  0.0000  0.0000
    1GR    C415  415   3.191   1.351   1.900  0.0000  0.0000  0.0000
    1GR    C416  416   3.332   1.351   1.900  0.0000  0.0000  0.0000
    1GR    C417  417   2.978   1.474   1.900  0.0000  0.0000  0.0000
    1GR    C418  418   3.120   1.474   1.900  0.0000  0.0000  0.0000
    1GR    C419  419   3.191   1.596   1.900  0.0000  0.0000  0.0000
    1GR    C420  420   3.332   1.596   1.900  0.0000  0.0000  0.0000
    1GR    C421  421   2.978   1.719   1.900  0.0000  0.0000  0.0000
    1GR    C422  422   3.120   1.719   1.900  0.0000  0.0000  0.0000
    1GR    C423  423   3.191   1.842   1.900  0.0000  0.0000  0.0000
    1GR    C424  424   3.332   1.842   1.900  0.0000  0.0000  0.0000
    1GR    C425  425   2.978   1.965   1.900  0.0000  0.0000  0.0000
    1GR    C426  426   3.120   1.965   1.900  0.0000  0.0000  0.0000
    1GR    C427  427   3.191   2.088   1.900  0.0000  0.0000  0.0000
    1GR    C428  428   3.332   2.088   1.900  0.0000  0.0000  0.0000
    1GR    C429  429   2.978   2.210   1.900  0.0000  0.0000  0.0000
    1GR    C430  430   3.120   2.210   1.900  0.0000  0.0000  0.0000
    1GR    C431  431   3.191   2.333   1.900  0.0000  0.0000  0.0000
    1GR    C432  432   3.332   2.333   1.900  0.0000  0.0000  0.0000
    1GR    C433  433   2.978   2.456   1.900  0.0000  0.0000  0.0000
    1GR    C434  434   3.120   2.456   1.900  0.0000  0.0000  0.0000
    1GR    C435  435   3.191   2.579   1.900  0.0000  0.0000  0.0000
    1GR    C436  436   3.332   2.579   1.900  0.0000  0.0000  0.0000
    1GR    C437  437   2.978   2.702   1.900  0.0000  0.0000  0.0000
    1GR    C438  438   3.120   2.702   1.900  0.0000  0.0000  0.0000
    1GR    C439  439   3.191   2.824   1.900  0.0000  0.0000  0.0000
    1GR    C440  440   3.332   2.824   1.900  0.0000  0.0000  0.0000
    1GR    C441  441   2.978   2.947   1.900  0.0000  0.0000  0.0000
    1GR    C442  442   3.120   2.947   1.900  0.0000  0.0000  0.0000
    1GR    C443  443   3.191   3.070   1.900  0.0000  0.0000  0.0000
    1GR    C444  444   3.332   3.070   1.900  0.0000  0.0000  0.0000
    1GR    C445  445   2.978   3.193   1.900  0.0000  0.0000  0.0000
    1GR    C446  446   3.120   3.193   1.900  0.0000  0.0000  0.0000
    1GR    C447  447   3.191   3.316   1.900  0.0000  0.0000  0.0000
    1GR    C448  448   3.332   3.316   1.900  0.0000  0.0000  0.0000
    2PMMA   CX1  449   1.442   1.585   2.385  0.0569  0.1167  0.6535
    2PMMA   CA2  450   1.572   1.670   2.387 -0.2846  0.2694 -0.6158
    2PMMA   CX3  451   1.573   1.766   2.257 -0.3190 -0.1157 -0.1582
    2PMMA    C4  452   1.560   1.760   2.511 -0.6665  0.4379  0.1601
    2PMMA    O5  453   1.571   1.881   2.513  0.9751  0.0264 -0.8127
    2PMMA   OS6  454   1.560   1.687   2.625  0.1464 -0.0378 -0.4067
    2PMMA   CE7  455   1.569   1.738   2.755  0.8769  0.0460 -0.5862
    2PMMA   CX8  456   1.697   1.573   2.397  0.2957  1.1323  0.5001
    2PMMA   CA9  457   1.849   1.610   2.382 -0.5005 -0.0249  0.4343
    2PMMA  CX10  458   1.894   1.625   2.236  0.8604 -0.0198  0.2291
    2PMMA   C11  459   1.926   1.481   2.439 -0.2298 -0.2460  0.0409
    2PMMA   O12  460   1.964   1.394   2.365  0.3779 -0.2074 -0.4399
    2PMMA  OS13  461   1.934   1.464   2.570 -0.2542  0.0904 -0.2088
    2PMMA  CE14  462   1.989   1.342   2.624 -0.1660  0.5131 -0.0324
    2PMMA  CX15  463   1.885   1.736   2.472  0.7498 -0.2470 -0.1872
    2PMMA  CA16  464   2.024   1.806   2.495 -0.5714 -0.3201  0.2315
    2PMMA  CX17  465   2.007   1.903   2.622 -0.0162  0.0344 -0.2317
    2PMMA   C18  466   2.137   1.706   2.523  0.2931 -0.5953  0.3817
    2PMMA   O19  467   2.196   1.684   2.623  0.2540  0.1595  0.3857
    2PMMA  OS20  468   2.168   1.635   2.409  0.1884  0.6415 -0.1760
    2PMMA  CE21  469   2.278   1.549   2.402  0.2012  0.3193 -0.4038
    2PMMA  CX22  470   2.058   1.884   2.369 -0.1473  0.4928  0.0173
    2PMMA  CA23  471   2.165   2.003   2.370  0.3072  0.5099  0.1601
    2PMMA  CX24  472   2.303   1.946   2.418 -0.3079  0.4340 -0.2974
    2PMMA   C25  473   2.121   2.134   2.443  0.2978 -0.6726  0.5133
    2PMMA   O26  474   2.010   2.176   2.469  0.0151 -0.4375  0.0223
    2PMMA  OS27  475   2.227   2.208   2.485 -0.6187 -0.1106  0.3496
    2PMMA  CE28  476   2.212   2.336   2.553 -0.1418  0.1200  0.1887
    2PMMA  CX29  477   2.183   2.043   2.219  0.3650  0.6733 -0.2430
    2PMMA  HC30  478   1.356   1.652   2.396  1.3179  1.9044 -0.0929
    2PMMA  HC31  479   1.436   1.536   2.288  2.7746  0.4091  0.3070
    2PMMA  HC32  480   1.437   1.504   2.458 -0.2785  0.0094  0.5126
    2PMMA  HC33  481   1.652   1.841   2.266  0.2760 -0.5187 -1.8199
    2PMMA  HC34  482   1.478   1.819   2.243  0.7003  1.8387  0.0691
    2PMMA  HC35  483   1.589   1.702   2.170  0.6970  0.0564 -0.1001
    2PMMA  H136  484   1.670   1.750   2.795  0.9290 -0.4777 -0.5595
    2PMMA  H137  485   1.521   1.667   2.823  1.5648  1.6279  1.6340
    2PMMA  H138  486   1.520   1.836   2.756 -0.4303 -0.5967 -0.7300
    2PMMA  HC39  487   1.678   1.522   2.491  0.4022  0.6159  0.2418
    2PMMA  HC40  488   1.670   1.501   2.319 -0.1534 -0.5831  2.2203
    2PMMA  HC41  489   1.838   1.701   2.181 -0.3809  0.2530  1.8249
    2PMMA  HC42  490   1.995   1.664   2.222  0.1421  3.0923  3.0320
    2PMMA  HC43  491   1.886   1.532   2.179 -2.1271 -0.1356  0.7449
    2PMMA  H144  492   2.098   1.341   2.621 -0.1633  1.2733 -0.1477
    2PMMA  H145  493   1.949   1.247   2.587  1.7958 -1.3260  2.3712
    2PMMA  H146  494   1.970   1.344   2.732 -1.9637 -1.5904 -0.2604
    2PMMA  HC47  495   1.817   1.812   2.432  1.4639 -0.2112 -1.3591
    2PMMA  HC48  496   1.838   1.721   2.570 -1.2688  2.3020 -0.7177
    2PMMA  HC49  497   2.077   1.986   2.635 -1.0003  0.7486  0.5295
    2PMMA  HC50  498   2.018   1.844   2.713  1.3753  0.8120  0.1160
    2PMMA  HC51  499   1.907   1.947   2.628 -0.0505 -0.3106  2.3574
    2PMMA  H152  500   2.277   1.506   2.302 -0.1651  1.6236 -0.9670
    2PMMA  H153  501   2.268   1.466   2.472  0.3788  0.9698  0.4034
    2PMMA  H154  502   2.373   1.601   2.409 -0.0336  0.7461 -0.3555
    2PMMA  HC55  503   2.085   1.814   2.289  2.1923 -0.6933  1.7488
    2PMMA  HC56  504   1.969   1.935   2.333  0.9031  2.4157  0.0850
    2PMMA  HC57  505   2.381   2.024   2.421  1.3985 -1.1865 -1.6499
    2PMMA  HC58  506   2.305   1.905   2.520  2.2337 -0.0371 -0.4965
    2PMMA  HC59  507   2.336   1.870   2.347 -1.4458  1.3148 -1.7994
    2PMMA  H160  508   2.166   2.330   2.651  1.1901 -1.0103  0.7642
    2PMMA  H161  509   2.152   2.393   2.482 -1.3723 -2.1759 -0.6510
    2PMMA  H162  510   2.309   2.382   2.572  0.3629 -1.8705  2.5874
    2PMMA  HC63  511   2.093   2.099   2.190 -0.6006 -0.7447 -0.0430
    2PMMA  HC64  512   2.266   2.111   2.198  0.1229  1.0481 -0.0043
    2PMMA  HC65  513   2.195   1.958   2.152  0.1050 -0.0541  0.6325
    3ACE     C1  514   1.453   1.476   0.267 -0.0502 -0.0731 -0.0457
    3ACE     C2  515   1.509   1.570   0.366 -0.2374  0.2568  0.0401
    3ACE     O1  516   1.628   1.582   0.372 -0.3722 -0.4866  0.2457
    3ACE     O2  517   1.424   1.652   0.431 -0.0916  0.8096  0.1091
    3ACE     H1  518   1.376   1.404   0.300 -1.2408  0.5036 -1.5210
    3ACE     H2  519   1.530   1.422   0.212  0.2290  1.5451 -1.2708
    3ACE     H3  520   1.395   1.529   0.191 -0.7846 -2.4455 -1.2049
    3ACE     H4  521   1.481   1.709   0.484  1.6280 -2.5766  2.0195
    4ACE     C1  522   0.055   2.222   1.124  0.0816  0.0934  0.6269
    4ACE     C2  523   0.032   2.281   0.987 -0.0310 -0.4650  0.9554
    4ACE     O1  524   0.121   2.315   0.909  0.2039 -0.2616  0.7846
    4ACE     O2  525  -0.093   2.272   0.939 -0.2410 -0.0285  0.6306
    4ACE     H1  526   0.140   2.279   1.164  1.6416  1.0338 -3.7105
    4ACE     H2  527   0.084   2.118   1.111 -1.9224 -0.4950  0.7075
    4ACE     H3  528  -0.031   2.244   1.189 -0.0644  2.2098 -0.2329
    4ACE     H4  529  -0.091   2.326   0.857 -1.3653  0.3808  0.8610
    5ACE     C1  530   1.058   0.953   0.294 -0.5964  0.1846  0.0956
    5ACE     C2  531   1.066   1.049   0.416 -0.7375 -0.5357  0.1863
    5ACE     O1  532   0.983   1.134   0.434 -0.8107 -0.3628  0.6120
    5ACE     O2  533   1.179   1.042   0.485 -0.2404 -0.5608 -0.1698
    5ACE     H1  534   1.047   1.017   0.206 -3.3196  0.2718  0.4749
    5ACE     H2  535   0.965   0.894   0.300  0.3182 -1.4763 -1.3819
    5ACE     H3  536   1.143   0.884   0.290  1.0395  1.9602  2.7132
    5ACE     H4  537   1.176   1.112   0.553 -0.8199 -1.0855  0.3451
    6ACE     C1  538   1.337   0.763   0.612  0.0866  0.2307  1.5637
    6ACE     C2  539   1.467   0.810   0.681 -0.6194 -0.0584  0.7564
    6ACE     O1  540   1.564   0.849   0.623 -0.0994 -0.1065  0.0320
    6ACE     O2  541   1.460   0.823   0.818 -0.0704 -0.0837  0.4994
    6ACE     H1  542   1.341   0.655   0.632  1.5687  0.3677  2.0873
    6ACE     H2  543   1.332   0.784   0.505 -1.4738 -1.1419  1.3338
    6ACE     H3  544   1.248   0.792   0.671 -1.1583 -1.4439  0.5447
    6ACE     H4  545   1.549   0.856   0.839 -0.6461  2.5981 -1.0304
    7ACE     C1  546   0.911   0.044   3.426  0.4677  0.6525  0.0335
    7ACE     C2  547   0.914  -0.098   3.386 -0.1703  0.3461  0.5404
    7ACE     O1  548   0.857  -0.136   3.287  0.7712  0.6461 -0.3951
    7ACE     O2  549   1.022  -0.169   3.422 -0.4208  0.1108 -0.1595
    7ACE     H1  550   0.805   0.059   3.450  0.1871  0.9365 -1.3625
    7ACE     H2  551   0.935   0.107   3.340 -1.2403  0.1802 -0.8016
    7ACE     H3  552   0.977   0.066   3.511 -1.4488 -1.4531  2.1476
    7ACE     H4  553   1.003  -0.262   3.402 -0.7207 -0.1587  1.3636
    8ACE     C1  554   0.122   2.610   0.763  0.2962  0.6862 -1.2146
    8ACE     C2  555   0.040   2.507   0.690 -0.2793 -0.5393 -0.1817
    8ACE     O1  556  -0.064   2.464   0.736 -0.3093 -0.5692 -0.0700
    8ACE     O2  557   0.084   2.490   0.567  0.0871 -0.0301 -0.1753
    8ACE     H1  558   0.062   2.697   0.789 -0.2316 -0.1950  0.5958
    8ACE     H2  559   0.210   2.641   0.705  0.4478  1.6030 -0.5075
    8ACE     H3  560   0.165   2.575   0.857 -1.3738  0.0162 -0.6811
    8ACE     H4  561   0.023   2.428   0.524  2.6645 -1.6841 -1.5873
    9ACE     C1  562   1.339   0.482   0.967  0.9188 -0.0157 -0.1272
    9ACE     C2  563   1.316   0.376   1.078  0.3349  0.2836 -0.0635
    9ACE     O1  564   1.251   0.394   1.179 -0.1921 -0.5623  0.7651
    9ACE     O2  565   1.364   0.250   1.052  0.1297  0.0106 -0.6126
    9ACE     H1  566   1.340   0.441   0.865 -0.8948  1.4071 -0.7392
    9ACE     H2  567   1.443   0.515   0.966  0.6083  0.9421 -1.8316
    9ACE     H3  568   1.272   0.566   0.989  0.9223 -0.4698  1.6739
    9ACE     H4  569   1.327   0.200   1.128 -0.9510  0.2093 -1.0004
   10ACE     C1  570   1.017   1.756   3.525  0.5888 -0.1971 -1.0301
   10ACE     C2  571   1.105   1.878   3.585 -0.1524  0.6398 -0.0320
   10ACE     O1  572   1.159   1.967   3.523  0.2932 -0.2290 -0.4254
   10ACE     O2  573   1.141   1.874   3.715  0.1032 -0.9058  0.0032
   10ACE     H1  574   0.928   1.730   3.585  0.2685  0.8239 -1.0497
   10ACE     H2  575   1.073   1.662   3.529 -0.1138 -0.5962 -0.2736
   10ACE     H3  576   0.980   1.772   3.423 -1.4419 -0.6021 -0.3893
   10ACE     H4  577   1.170   1.965   3.733 -1.0516 -0.4833 -0.2160
   11ACE     C1  578   0.074   3.325   1.067  0.3682  0.4134  0.3375
   11ACE     C2  579  -0.032   3.431   1.066 -0.3574 -0.5383  0.2519
   11ACE     O1  580  -0.028   3.533   1.004 -0.1446  0.4177 -0.1483
   11ACE     O2  581  -0.151   3.379   1.100 -0.4082  0.3913 -0.1181
   11ACE     H1  582   0.136   3.323   0.977 -0.6040  0.1679 -0.3439
   11ACE     H2  583   0.061   3.229   1.119  0.4447  0.9589  1.3697
   11ACE     H3  584   0.151   3.366   1.133 -0.6869  1.6757  0.8031
   11ACE     H4  585  -0.216   3.452   1.097 -1.5693 -0.6938 -2.8692
   12ACE     C1  586   2.718   0.436   1.533 -0.1263  0.0232 -0.0759
   12ACE     C2  587   2.817   0.550   1.557 -0.4141  0.3397  0.2729
   12ACE     O1  588   2.932   0.549   1.531  0.2931 -0.0111 -0.2850
   12ACE     O2  589   2.759   0.671   1.568 -0.4931 -0.3106  0.2210
   12ACE     H1  590   2.763   0.374   1.455  1.6166 -0.0859  0.9875
   12ACE     H2  591   2.626   0.488   1.503  1.4183  2.1689 -1.2051
   12ACE     H3  592   2.695   0.385   1.627 -1.3618 -2.1495 -1.5430
   12ACE     H4  593   2.828   0.740   1.564  0.0857 -0.8170  1.1836
   13ACE     C1  594   0.213   3.293   0.306  0.1808  0.3493  0.2483
   13ACE     C2  595   0.255   3.151   0.352 -0.4932  0.1829 -0.0476
   13ACE     O1  596   0.311   3.070   0.279  0.1538  0.0253 -0.5074
   13ACE     O2  597   0.205   3.112   0.469 -0.0918  0.6388 -0.3249
   13ACE     H1  598   0.105   3.309   0.310  0.2143  0.6438 -0.0333
   13ACE     H2  599   0.232   3.307   0.199  0.0718 -0.4712  0.1169
   13ACE     H3  600   0.255   3.368   0.373  0.2394  2.4999 -2.1199
   13ACE     H4  601   0.237   3.021   0.476 -3.8302 -0.7350  0.3134
   14ACE     C1  602   1.153   2.637   0.501 -0.2966 -0.0638 -0.1583
   14ACE     C2  603   1.257   2.715   0.582 -0.6768 -0.0706 -0.5187
   14ACE     O1  604   1.369   2.729   0.540 -0.1992  0.2718  0.1213
   14ACE     O2  605   1.209   2.812   0.664 -0.0229  0.6637  0.3071
   14ACE     H1  606   1.082   2.588   0.569 -0.2618  1.1757  0.7935
   14ACE     H2  607   1.194   2.562   0.432 -2.2376 -0.3732 -1.0117
   14ACE     H3  608   1.095   2.703   0.436 -0.5109  0.8379  0.9334
   14ACE     H4  609   1.287   2.866   0.684 -0.2054  1.3725 -0.8885
   15ACE     C1  610   0.671   0.063   1.515 -0.5003  0.6479 -0.6794
   15ACE     C2  611   0.805   0.002   1.519  0.0917  0.7232  0.6936
   15ACE     O1  612   0.885   0.026   1.426  0.1923  0.3629  0.1499
   15ACE     O2  613   0.808  -0.118   1.573  0.2177 -0.3355  0.2288
   15ACE     H1  614   0.631   0.063   1.618  0.6977 -2.1615 -0.1614
   15ACE     H2  615   0.602  -0.007   1.466  0.1365 -0.7899  0.4323
   15ACE     H3  616   0.661   0.159   1.464 -3.0792  0.2208 -1.0378
   15ACE     H4  617   0.895  -0.150   1.542 -0.1248 -1.8851  0.8222
   16ACE     C1  618   0.743   1.319   0.525 -0.4740  0.0450 -0.1950
   16ACE     C2  619   0.629   1.418   0.495 -1.0345  0.2264 -0.0205
   16ACE     O1  620   0.558   1.468   0.578 -0.2502  0.3658  0.5695
   16ACE     O2  621   0.661   1.484   0.383 -1.0919  0.7515 -0.1589
   16ACE     H1  622   0.818   1.349   0.451 -1.5553  0.3569 -1.1808
   16ACE     H2  623   0.709   1.223   0.483  1.0258 -0.3021 -0.6583
   16ACE     H3  624   0.772   1.331   0.630 -0.6201 -0.0126 -0.1469
   16ACE     H4  625   0.596   1.556   0.370  0.0639  1.5772 -1.4634
   17ACE     C1  626   2.145   2.153   1.546  0.1547  0.0628 -0.1992
   17ACE     C2  627   2.030   2.204   1.458  0.2149 -0.2426 -0.1337
   17ACE     O1  628   1.925   2.243   1.498  0.5797  0.1084 -0.2394
   17ACE     O2  629   2.035   2.188   1.324 -0.4344 -0.0590  0.0759
   17ACE     H1  630   2.165   2.225   1.626 -1.0486 -1.1429  1.2352
   17ACE     H2  631   2.238   2.136   1.491 -0.1387  1.9922 -1.3612
   17ACE     H3  632   2.117   2.061   1.599 -0.5690 -1.6918 -3.4465
   17ACE     H4  633   1.947   2.219   1.296 -0.9459  0.5040  2.2309
   18ACE     C1  634   1.108   0.942   1.183 -0.0820  0.3205  0.4277
   18ACE     C2  635   1.147   0.958   1.037 -0.7730 -0.1695  0.2912
   18ACE     O1  636   1.189   1.054   0.987 -0.2537  0.2731 -0.8831
   18ACE     O2  637   1.158   0.843   0.965 -0.2431  0.0807  0.2649
   18ACE     H1  638   1.165   0.863   1.234 -1.4490 -0.8336  0.2085
   18ACE     H2  639   1.008   0.897   1.178  2.0027 -4.3345 -3.7939
   18ACE     H3  640   1.117   1.034   1.241  1.3421 -0.8126  2.0840
   18ACE     H4  641   1.215   0.875   0.893 -1.7449 -1.1766 -1.5246
   19ACE     C1  642   1.473   2.375   3.126 -0.4989 -0.2545 -0.1386
   19ACE     C2  643   1.382   2.332   3.244  0.2977  0.0740  0.0086
   19ACE     O1  644   1.275   2.271   3.238  0.2231  0.3230 -0.0456
   19ACE     O2  645   1.450   2.340   3.357  0.5160 -0.2294  0.7846
   19ACE     H1  646   1.434   2.352   3.026 -2.3235 -1.3055  0.7883
   19ACE     H2  647   1.579   2.357   3.147  0.2045  1.9565 -1.6199
   19ACE     H3  648   1.469   2.484   3.137 -0.9308 -0.3031  0.2324
   19ACE     H4  649   1.391   2.309   3.428 -0.7305  0.4350  0.0700
   20ACE     C1  650   0.597   3.183   0.529  0.1347  0.3963 -0.2042
   20ACE     C2  651   0.742   3.224   0.538 -0.2427 -0.3206  0.3747
   20ACE     O1  652   0.833   3.160   0.482 -0.0401 -0.0828  0.3534
   20ACE     O2  653   0.758   3.343   0.591 -0.7184  0.6582  0.3249
   20ACE     H1  654   0.547   3.223   0.439 -1.8671  0.2997  0.8520
   20ACE     H2  655   0.545   3.219   0.618 -0.7174  2.4852 -1.5141
   20ACE     H3  656   0.589   3.075   0.519  3.6496  0.0783 -0.2213
   20ACE     H4  657   0.851   3.350   0.566 -0.7112 -2.3928 -0.6557
   21ACE     C1  658   1.163   1.735   0.808  0.0510 -0.5389  0.0907
   21ACE     C2  659   1.243   1.865   0.800  0.0080  0.2855 -0.2764
   21ACE     O1  660   1.335   1.887   0.720 -0.4409 -0.2801  0.5747
   21ACE     O2  661   1.200   1.964   0.883  0.3973 -0.5982  0.0700
   21ACE     H1  662   1.112   1.715   0.713  0.9635 -1.4050 -0.2326
   21ACE     H2  663   1.076   1.744   0.874  0.4352 -2.0423  0.8326
   21ACE     H3  664   1.226   1.661   0.860  0.8448  0.3249  0.3592
   21ACE     H4  665   1.269   2.031   0.870  0.8183 -1.1621 -0.6543
   22ACE     C1  666   2.266   1.725   1.119 -0.7658 -0.3325  0.1408
   22ACE     C2  667   2.343   1.601   1.153  0.3392  0.0931  0.6537
   22ACE     O1  668   2.444   1.607   1.226  0.8725 -0.5149 -0.5039
   22ACE     O2  669   2.325   1.497   1.072 -0.1055 -0.4149 -0.0571
   22ACE     H1  670   2.307   1.758   1.022  0.8834  0.0866  0.9690
   22ACE     H2  671   2.281   1.811   1.186  0.4951  0.2514 -0.8666
   22ACE     H3  672   2.158   1.708   1.108 -0.3723 -0.9656 -3.3511
   22ACE     H4  673   2.410   1.450   1.070 -0.2827 -0.7023 -2.1966
   23ACE     C1  674   0.311   2.044   1.005 -0.3012 -0.0171  0.3935
   23ACE     C2  675   0.417   1.956   0.942  0.1231  0.7256 -0.4966
   23ACE     O1  676   0.496   2.003   0.865  0.1873 -0.2882  0.0026
   23ACE     O2  677   0.418   1.825   0.972 -0.2191  0.5520  0.3062
   23ACE     H1  678   0.228   1.976   1.022  1.1694 -1.6320  1.3088
   23ACE     H2  679   0.284   2.127   0.938 -0.0554 -0.7346 -0.6118
   23ACE     H3  680   0.329   2.066   1.111 -2.3456 -1.6110  1.0987
   23ACE     H4  681   0.485   1.794   0.909 -0.0538 -1.7390  1.5416
   24ACE     C1  682   0.232   0.264   0.862 -0.0208 -0.4420 -0.3313
   24ACE     C2  683   0.373   0.289   0.809 -0.3320  0.3107  0.2272
   24ACE     O1  684   0.421   0.226   0.720  0.6737  0.8694 -0.1871
   24ACE     O2  685   0.454   0.367   0.880 -0.0498 -0.2762  0.2359
   24ACE     H1  686   0.177   0.358   0.877  0.1447 -0.4562  0.3903
   24ACE     H2  687   0.233   0.240   0.969  0.4393 -1.9785 -0.6684
   24ACE     H3  688   0.189   0.193   0.791  0.8980  1.5138 -2.9340
   24ACE     H4  689   0.537   0.360   0.830 -0.0452  0.9632  0.0425
   25ACE     C1  690   0.671   2.657   0.085 -0.5691  0.4739 -0.1536
   25ACE     C2  691   0.783   2.719   0.171  0.1100  0.7521  0.7063
   25ACE     O1  692   0.824   2.682   0.279 -0.0443  0.5296  0.2188
   25ACE     O2  693   0.835   2.829   0.114 -0.2928  0.0244  0.3785
   25ACE     H1  694   0.627   2.578   0.147  2.4344  0.9093  2.6388
   25ACE     H2  695   0.719   2.621  -0.006 -0.4347 -2.2138  0.9278
   25ACE     H3  696   0.609   2.743   0.055 -1.7114  0.2566  1.5241
   25ACE     H4  697   0.891   2.853   0.189  0.6526 -1.9513  0.3619
   26ACE     C1  698   1.304   1.326   1.195 -0.9050 -0.2427 -0.5201
   26ACE     C2  699   1.438   1.275   1.226 -0.5385  0.7576  0.1006
   26ACE     O1  700   1.474   1.157   1.225 -0.2576  0.0304  0.2444
   26ACE     O2  701   1.536   1.371   1.260  0.3027  0.5693 -0.2953
   26ACE     H1  702   1.233   1.243   1.207  1.1750 -1.9377  0.4472
   26ACE     H2  703   1.307   1.365   1.093  0.6288 -0.1271 -0.4410
   26ACE     H3  704   1.273   1.413   1.255 -0.2507  0.4231 -1.1406
   26ACE     H4  705   1.618   1.321   1.271 -0.7036 -0.7323  1.4771
   27ACE     C1  706   2.306   3.286   3.775 -0.2514 -0.1758 -1.1095
   27ACE     C2  707   2.263   3.430   3.751  0.3050 -0.3615 -0.3197
   27ACE     O1  708   2.149   3.474   3.735 -0.6273 -0.1654  0.1825
   27ACE     O2  709   2.362   3.509   3.711  0.4680  0.0626  0.5177
   27ACE     H1  710   2.395   3.262   3.715  0.1901 -1.6234  0.1045
   27ACE     H2  711   2.226   3.212   3.764  1.3361 -2.0281 -0.3905
   27ACE     H3  712   2.362   3.277   3.868  1.5825 -1.1476 -2.2726
   27ACE     H4  713   2.312   3.592   3.702  0.9379  0.0115 -3.2188
   28ACE     C1  714   0.299   0.295   1.555 -0.1035 -0.2291  0.5372
   28ACE     C2  715   0.405   0.404   1.557 -0.3330  0.1046  0.0278
   28ACE     O1  716   0.525   0.382   1.573  0.1455 -0.0426  0.5806
   28ACE     O2  717   0.370   0.525   1.510  0.6322  0.3798  0.2084
   28ACE     H1  718   0.309   0.251   1.455  1.2798  1.3441 -0.0535
   28ACE     H2  719   0.201   0.340   1.571 -1.9395 -3.8347 -0.0974
   28ACE     H3  720   0.305   0.217   1.631 -2.3849  0.5851  1.6089
   28ACE     H4  721   0.452   0.576   1.512  0.8280  0.1255 -0.8628
   29ACE     C1  722   2.922   0.276   0.904 -0.7922  0.6611 -0.6247
   29ACE     C2  723   3.059   0.230   0.974 -0.4002  0.0596 -0.7329
   29ACE     O1  724   3.062   0.120   1.019  0.8043 -0.6940 -0.0705
   29ACE     O2  725   3.168   0.298   0.934  0.0075  0.2229 -0.1074
   29ACE     H1  726   2.883   0.358   0.965  0.8599  1.0996 -0.1133
   29ACE     H2  727   2.848   0.199   0.882 -1.2530 -0.1056  3.1930
   29ACE     H3  728   2.949   0.337   0.817  0.4522  0.1293 -0.6186
   29ACE     H4  729   3.240   0.238   0.962  1.2638  2.1859  0.9731
   30ACE     C1  730   2.631   2.161   1.324  0.0829  0.2273 -0.7100
   30ACE     C2  731   2.606   2.283   1.406  0.8320  0.1480  0.0296
   30ACE     O1  732   2.492   2.321   1.424  0.0916  0.1932  0.4432
   30ACE     O2  733   2.712   2.339   1.466  0.0269  0.2369 -0.2368
   30ACE     H1  734   2.697   2.184   1.240 -1.6566  2.8713 -1.4341
   30ACE     H2  735   2.540   2.114   1.286  0.4918  0.2027 -1.6539
   30ACE     H3  736   2.687   2.089   1.385 -0.1838  0.8743  0.3200
   30ACE     H4  737   2.686   2.430   1.491  1.2715  0.9491 -1.4365
   31ACE     C1  738   0.222   2.505   0.089 -0.1711 -0.2825  0.4507
   31ACE     C2  739   0.336   2.427   0.152 -0.4491  0.1566  0.3327
   31ACE     O1  740   0.311   2.345   0.235 -0.6776 -0.4423 -0.0549
   31ACE     O2  741   0.426   2.405   0.067  0.0293 -0.3843  0.1864
   31ACE     H1  742   0.167   2.440   0.020 -0.2644  0.5139 -0.2402
   31ACE     H2  743   0.253   2.587   0.023  0.2628 -2.0701 -1.6460
   31ACE     H3  744   0.148   2.539   0.163 -1.7981 -0.6713 -0.9606
   31ACE     H4  745   0.453   2.323   0.111  0.8593  0.8118  1.9561
   32ACE     C1  746   2.536   1.735   0.891  0.2592  0.1575  0.2423
   32ACE     C2  747   2.634   1.739   0.775 -0.9063  0.1286 -0.1708
   32ACE     O1  748   2.633   1.654   0.688 -0.2385 -0.1637  0.0383
   32ACE     O2  749   2.719   1.840   0.777  0.2185  0.4355 -0.2027
   32ACE     H1  750   2.581   1.678   0.972  0.3460 -1.8400 -1.1730
   32ACE     H2  751   2.444   1.677   0.880  0.7108 -1.0180  2.4279
   32ACE     H3  752   2.523   1.839   0.924 -0.0101 -0.6205  2.6140
   32ACE     H4  753   2.786   1.817   0.711  1.4769  1.0634  0.8349
   33ACE     C1  754   2.389   1.575   0.295 -0.1423 -0.0881 -0.3878
   33ACE     C2  755   2.419   1.572   0.441  0.2995 -0.3280  0.0985
   33ACE     O1  756   2.351   1.610   0.530 -0.3508  0.1369  0.2734
   33ACE     O2  757   2.546   1.547   0.464 -0.0577 -0.2851  0.2752
   33ACE     H1  758   2.445   1.498   0.240  1.4878  2.0330 -1.7459
   33ACE     H2  759   2.422   1.676   0.268  0.6364 -0.3948 -0.5933
   33ACE     H3  760   2.281   1.560   0.278 -0.6977  2.0647  1.0409
   33ACE     H4  761   2.570   1.585   0.551 -0.3161  1.0849 -0.2360
   34ACE     C1  762   2.884   1.620   0.372 -0.0159 -0.1642  0.3646
   34ACE     C2  763   2.876   1.766   0.416 -0.2412 -0.2283 -0.3960
   34ACE     O1  764   2.880   1.796   0.535  0.6785 -0.0783 -0.1955
   34ACE     O2  765   2.873   1.865   0.319  0.6592  0.3819  0.2802
   34ACE     H1  766   2.957   1.621   0.290 -0.4841  0.3453 -0.0512
   34ACE     H2  767   2.799   1.596   0.306 -0.3823 -1.3635  1.2569
   34ACE     H3  768   2.903   1.552   0.455  3.0140  1.9223  1.4752
   34ACE     H4  769   2.868   1.940   0.381  0.6467  0.7722 -0.1960
   35ACE     C1  770   3.102   1.059   1.511  0.1913  0.5423 -0.6580
   35ACE     C2  771   2.958   0.999   1.535 -0.4813 -0.2261  0.2607
   35ACE     O1  772   2.852   1.056   1.509 -0.4052  0.3822 -0.1435
   35ACE     O2  773   2.952   0.869   1.566  0.7238 -0.4398 -0.3982
   35ACE     H1  774   3.102   1.152   1.453  0.0717  1.5266  0.8960
   35ACE     H2  775   3.166   0.989   1.456 -0.4796 -0.4692 -0.1651
   35ACE     H3  776   3.148   1.083   1.607 -3.2162  2.2518  0.6129
   35ACE     H4  777   3.041   0.833   1.551  1.3791  0.0676  2.0446
   36ACE     C1  778   3.082   0.725   1.158  0.0303 -0.0207 -0.2496
   36ACE     C2  779   3.185   0.826   1.198 -0.0442  0.4732 -0.7308
   36ACE     O1  780   3.175   0.945   1.175  0.1763  0.0170  0.0109
   36ACE     O2  781   3.299   0.768   1.235 -0.0092 -0.0160 -0.4641
   36ACE     H1  782   3.118   0.648   1.089 -0.9111  0.9306 -1.8077
   36ACE     H2  783   2.994   0.780   1.124 -0.3959  0.2469  1.2428
   36ACE     H3  784   3.059   0.664   1.247  2.5542  0.6675  0.9388
   36ACE     H4  785   3.365   0.839   1.230  0.6632 -0.5216  0.8231
   37ACE     C1  786   0.358   0.846   1.546  0.6912 -0.1941  0.0963
   37ACE     C2  787   0.504   0.819   1.526  0.0999  0.1062  0.2804
   37ACE     O1  788   0.547   0.707   1.514  0.8423 -0.6354 -0.0825
   37ACE     O2  789   0.585   0.922   1.549  0.0282  0.0346  0.1245
   37ACE     H1  790   0.325   0.785   1.631 -0.5184  0.3027  0.0062
   37ACE     H2  791   0.301   0.815   1.457  2.9248 -0.9009 -1.1035
   37ACE     H3  792   0.336   0.950   1.573  0.3728 -0.4899  1.0119
   37ACE     H4  793   0.678   0.893   1.546 -0.1124 -0.4066  0.0309
   38ACE     C1  794   1.681   0.245   0.085 -0.5756  0.8558 -0.1153
   38ACE     C2  795   1.610   0.216   0.202 -0.0137 -0.1737  0.3963
   38ACE     O1  796   1.649   0.245   0.310  0.1305 -0.6743 -0.7685
   38ACE     O2  797   1.535   0.108   0.181 -0.0829  0.0323 -0.2390
   38ACE     H1  798   1.721   0.156   0.035 -2.5296  0.4417 -0.9833
   38ACE     H2  799   1.761   0.318   0.105 -0.3746  1.3938 -2.7466
   38ACE     H3  800   1.609   0.278   0.010 -1.9364 -1.5738  0.0739
   38ACE     H4  801   1.508   0.076   0.269 -0.2620 -0.1827 -0.3717
   39ACE     C1  802   1.049   2.292   0.148  0.5397 -0.5250 -0.2242
   39ACE     C2  803   0.946   2.275   0.035  0.1299 -0.3760 -0.1045
   39ACE     O1  804   0.966   2.237  -0.073  0.0715  0.0816  0.0400
   39ACE     O2  805   0.828   2.312   0.073  0.6174  0.5133  0.0433
   39ACE     H1  806   1.135   2.229   0.122 -0.6185 -1.6598 -1.3586
   39ACE     H2  807   1.007   2.258   0.243 -3.5777  1.0547 -1.3604
   39ACE     H3  808   1.070   2.396   0.173 -0.7659 -0.2106 -0.3971
   39ACE     H4  809   0.776   2.305  -0.009  0.4271  0.1704  0.1901
   40ACE     C1  810   3.380   2.089   1.482  0.1091 -0.3799 -0.7143
   40ACE     C2  811   3.415   1.954   1.551  0.2887 -0.1631  0.6992
   40ACE     O1  812   3.525   1.900   1.549 -0.0420 -0.1750  0.2042
   40ACE     O2  813   3.303   1.884   1.557  0.8871 -0.1573  0.6481
   40ACE     H1  814   3.462   2.109   1.412  1.4931  1.0700  1.2610
   40ACE     H2  815   3.356   2.163   1.559 -2.0001 -1.3502 -0.3891
   40ACE     H3  816   3.290   2.075   1.421  0.6310 -4.0622 -0.7816
   40ACE     H4  817   3.334   1.792   1.556  0.1165 -0.4190 -1.2179
   41ACE     C1  818   2.512   2.054   0.032  0.5052 -0.6327  0.1104
   41ACE     C2  819   2.613   1.942   0.072  0.0260  0.6000 -0.3236
   41ACE     O1  820   2.584   1.843   0.136 -0.3502  0.4828 -0.3221
   41ACE     O2  821   2.742   1.986   0.059 -0.1507 -0.3531  0.0656
   41ACE     H1  822   2.525   2.142   0.096  0.7708  0.0389 -0.8582
   41ACE     H2  823   2.416   2.006   0.051  0.2225 -0.3091 -0.4724
   41ACE     H3  824   2.519   2.090  -0.072  0.3914 -0.7204  0.0721
   41ACE     H4  825   2.795   1.908   0.081  0.5649  0.1678  0.2197
   42ACE     C1  826   2.553   2.543   1.158  0.2471 -0.3758 -0.3199
   42ACE     C2  827   2.477   2.558   1.026  0.0389  0.3388  0.4667
   42ACE     O1  828   2.411   2.655   0.996  0.0844  0.3114 -0.1533
   42ACE     O2  829   2.492   2.450   0.945  0.3347  0.1105 -0.9598
   42ACE     H1  830   2.589   2.440   1.169  0.9963 -0.2052 -1.1246
   42ACE     H2  831   2.480   2.583   1.229  2.0419  0.0819  1.2782
   42ACE     H3  832   2.639   2.610   1.160 -1.0394  1.3494 -0.8964
   42ACE     H4  833   2.448   2.484   0.866 -1.1060 -0.5029 -0.4331
   43ACE     C1  834   3.197   0.221   0.488  0.6523 -0.0539  0.6442
   43ACE     C2  835   3.182   0.217   0.339 -0.2772 -0.2751 -0.2274
   43ACE     O1  836   3.179   0.115   0.272 -0.3984 -0.2175  0.7374
   43ACE     O2  837   3.182   0.334   0.280  0.5662 -0.7726  0.3003
   43ACE     H1  838   3.197   0.323   0.527 -1.1241  0.2545 -0.1128
   43ACE     H2  839   3.285   0.161   0.513 -0.5969 -2.8758 -1.4261
   43ACE     H3  840   3.113   0.166   0.533  2.7250 -1.9457  2.3437
   43ACE     H4  841   3.186   0.316   0.184 -2.9134  1.7057 -0.4104
   44ACE     C1  842   2.173   0.294   1.524  0.6416 -0.0489  0.6300
   44ACE     C2  843   2.130   0.444   1.531  0.2317 -1.1443  0.2487
   44ACE     O1  844   2.211   0.528   1.567 -0.3545 -0.0988  0.1667
   44ACE     O2  845   2.002   0.449   1.561 -0.0774 -0.2623 -0.3074
   44ACE     H1  846   2.261   0.276   1.586  0.4239 -1.4910  0.5521
   44ACE     H2  847   2.218   0.278   1.425 -1.0377 -3.2149  0.3020
   44ACE     H3  848   2.083   0.230   1.520  0.6190  0.0655 -1.2313
   44ACE     H4  849   1.985   0.544   1.575  0.0767  0.0809 -2.2931
   45ACE     C1  850   1.012   0.848   3.425  0.3335  0.3360 -0.3542
   45ACE     C2  851   0.969   0.873   3.568  0.2487  0.0353 -0.3633
   45ACE     O1  852   0.883   0.805   3.628  0.3723  0.1721 -0.4166
   45ACE     O2  853   1.017   0.984   3.627 -0.4165  0.2846  0.5508
   45ACE     H1  854   1.005   0.946   3.376 -1.6831  0.8962  0.9870
   45ACE     H2  855   0.968   0.769   3.364  1.8557  0.7037 -1.9742
   45ACE     H3  856   1.119   0.823   3.428  0.0788 -0.7373  0.1646
   45ACE     H4  857   0.957   0.994   3.703 -0.5889  1.1733  0.3067
   46ACE     C1  858   1.011   0.140   0.964 -0.2434 -0.1589 -0.6209
   46ACE     C2  859   1.069   0.042   1.065 -0.0589  0.2769  0.2358
   46ACE     O1  860   1.177   0.051   1.124 -0.1209 -0.1113  0.4496
   46ACE     O2  861   0.982  -0.052   1.101 -0.1965  0.0847 -0.3425
   46ACE     H1  862   1.084   0.193   0.902  0.2757  1.0438  1.0011
   46ACE     H2  863   0.938   0.206   1.012  1.2470  0.3364  1.0257
   46ACE     H3  864   0.961   0.073   0.893  0.2586 -1.2004 -0.0221
   46ACE     H4  865   1.019  -0.084   1.185  0.6680 -0.2146 -0.8339
   47ACE     C1  866   0.544   1.390   0.919 -0.1579 -0.2043 -0.4334
   47ACE     C2  867   0.454   1.277   0.937 -0.1036 -0.1636  0.0623
   47ACE     O1  868   0.490   1.158   0.922  0.2566 -0.4022  0.5000
   47ACE     O2  869   0.340   1.295   1.011  0.4551 -0.0720  0.4100
   47ACE     H1  870   0.633   1.358   0.864  0.3163  0.5184 -0.0905
   47ACE     H2  871   0.562   1.433   1.018 -1.9280  2.0502 -1.0751
   47ACE     H3  872   0.487   1.466   0.865  1.0715  0.7299 -0.4492
   47ACE     H4  873   0.309   1.203   1.017  0.2226 -0.0244 -0.0448
   48ACE     C1  874   1.840   0.363   3.121  0.5148 -0.1489  0.2729
   48ACE     C2  875   1.694   0.338   3.100 -0.2917  0.7929 -0.2156
   48ACE     O1  876   1.617   0.307   3.186  0.1805  0.2319  0.1178
   48ACE     O2  877   1.678   0.273   2.987 -0.2721  0.1211  0.5947
   48ACE     H1  878   1.882   0.270   3.159 -3.0863 -2.2581 -0.6236
   48ACE     H2  879   1.864   0.437   3.198  0.2969  1.1730 -0.8978
   48ACE     H3  880   1.889   0.383   3.025 -0.8621  1.0087 -0.2118
   48ACE     H4  881   1.585   0.246   2.995 -0.5014  0.9475  0.7096
   49ACE     C1  882   2.892   3.074   1.578  0.0713 -0.0803 -0.0312
   49ACE     C2  883   2.966   3.211   1.572  0.5101 -0.3629 -0.1982
   49ACE     O1  884   2.913   3.317   1.561  0.0739 -0.0517 -0.4882
   49ACE     O2  885   3.094   3.197   1.527  0.0132 -0.2481  0.1489
   49ACE     H1  886   2.788   3.081   1.612  0.3121  0.9818  0.4823
   49ACE     H2  887   2.952   3.000   1.632  0.9505 -0.7146 -1.8408
   49ACE     H3  888   2.906   3.033   1.477  1.2354  0.4257 -0.0768
   49ACE     H4  889   3.116   3.288   1.501  2.6650 -1.4193 -1.9595
   50ACE     C1  890   1.351   2.667   0.982 -0.5334  0.3856  0.0800
   50ACE     C2  891   1.206   2.716   0.974  0.0994 -0.3665  0.2472
   50ACE     O1  892   1.110   2.648   0.931  0.4820 -0.3430 -0.8140
   50ACE     O2  893   1.203   2.852   0.980 -0.3244 -0.2300 -0.2129
   50ACE     H1  894   1.367   2.566   1.021  3.4088  1.1746  0.6776
   50ACE     H2  895   1.415   2.732   1.042  0.6485 -0.3792 -0.3338
   50ACE     H3  896   1.390   2.659   0.879 -0.9274 -1.4155  0.0523
   50ACE     H4  897   1.117   2.873   0.939 -0.0178  1.4792 -0.0203
   51ACE     C1  898   0.168   2.523   1.563  0.5352  0.0175  0.0977
   51ACE     C2  899   0.303   2.504   1.497 -0.2333  0.6767  0.7616
   51ACE     O1  900   0.330   2.418   1.417 -0.1811  0.4546  0.0230
   51ACE     O2  901   0.386   2.605   1.521  0.6465 -0.2967 -0.0757
   51ACE     H1  902   0.162   2.499   1.670  0.9223  2.1094  0.6174
   51ACE     H2  903   0.090   2.469   1.509  1.3234 -0.6963 -0.3288
   51ACE     H3  904   0.147   2.630   1.553 -2.5643 -0.4714  0.6605
   51ACE     H4  905   0.468   2.577   1.477  0.6253 -0.8078  0.2079
   52ACE     C1  906   1.124   2.248   0.608  0.3934  0.6348  0.6650
   52ACE     C2  907   1.159   2.369   0.698  0.4409 -0.4849  0.0780
   52ACE     O1  908   1.270   2.410   0.705  0.1397  0.1034 -0.3599
   52ACE     O2  909   1.084   2.384   0.806 -0.6996  1.2147 -0.3459
   52ACE     H1  910   1.137   2.160   0.672  1.4983  0.3030  0.0221
   52ACE     H2  911   1.200   2.231   0.530  0.6644 -0.5536  1.1793
   52ACE     H3  912   1.022   2.249   0.568  0.0954 -0.8845  1.3452
   52ACE     H4  913   1.117   2.464   0.850  0.3586  1.3018 -1.2855
   53ACE     C1  914   2.689   1.152   1.210 -0.2696 -0.1325 -0.4094
   53ACE     C2  915   2.828   1.112   1.205  1.2482 -0.3076 -0.2524
   53ACE     O1  916   2.871   1.010   1.152  0.3473 -0.2196 -0.0179
   53ACE     O2  917   2.918   1.222   1.215  0.0910 -0.3529  0.3309
   53ACE     H1  918   2.687   1.262   1.206 -2.3749 -0.0125  2.4633
   53ACE     H2  919   2.648   1.130   1.309  2.8323  2.5061  1.5651
   53ACE     H3  920   2.645   1.108   1.120  1.5313 -1.3207 -0.7272
   53ACE     H4  921   3.004   1.191   1.181  0.1566  0.5452 -0.3333
   54ACE     C1  922   2.135   1.920   0.295  0.2101  0.6407  0.3169
   54ACE     C2  923   2.172   2.049   0.362  0.7077 -0.0693 -0.4593
   54ACE     O1  924   2.269   2.118   0.333 -0.2134  0.0534  0.4040
   54ACE     O2  925   2.106   2.071   0.482 -0.0265  0.0620  0.0335
   54ACE     H1  926   2.139   1.840   0.370 -0.9762 -0.2979 -0.5869
   54ACE     H2  927   2.194   1.905   0.204 -0.2545  0.2123  0.0822
   54ACE     H3  928   2.029   1.933   0.267  0.0978 -0.9703 -0.0386
   54ACE     H4  929   2.136   2.159   0.510  0.3984 -0.0463 -0.0862
   55ACE     C1  930   1.844   1.451   1.027 -0.8044 -0.3056  0.0102
   55ACE     C2  931   1.997   1.415   1.055  0.0708  0.7042 -0.6344
   55ACE     O1  932   2.050   1.320   1.005 -0.0089  0.7686 -0.0655
   55ACE     O2  933   2.036   1.459   1.173 -0.2647  0.6082 -0.7314
   55ACE     H1  934   1.790   1.361   0.996  0.3163 -1.1775  0.5878
   55ACE     H2  935   1.846   1.527   0.947 -2.3232 -2.1580 -1.8457
   55ACE     H3  936   1.809   1.495   1.121 -1.0131 -0.2039 -0.1127
   55ACE     H4  937   2.110   1.401   1.199 -0.0767  0.5640 -1.3759
   56ACE     C1  938   1.436   2.089   1.537  0.0936 -0.5836 -0.1629
   56ACE     C2  939   1.584   2.118   1.512  0.0643  0.2783  0.5047
   56ACE     O1  940   1.663   2.034   1.471  0.2283  0.6003  0.2850
   56ACE     O2  941   1.621   2.239   1.547 -0.1301 -0.0308  0.4254
   56ACE     H1  942   1.423   2.117   1.642  0.4035 -1.4392  0.1090
   56ACE     H2  943   1.404   1.984   1.535 -2.2119 -0.0293  3.2238
   56ACE     H3  944   1.371   2.153   1.476  0.2488 -0.8081 -0.5656
   56ACE     H4  945   1.716   2.221   1.539 -0.1806 -0.1871  0.1861
   57ACE     C1  946   2.692   1.311   0.180  0.3644 -0.1222  0.6449
   57ACE     C2  947   2.843   1.295   0.180 -0.2514  0.5147  0.1255
   57ACE     O1  948   2.905   1.222   0.259  0.0887  0.1113  0.3237
   57ACE     O2  949   2.914   1.361   0.088  0.7508 -0.1689 -0.0969
   57ACE     H1  950   2.658   1.290   0.077 -0.6899 -1.0357  1.1592
   57ACE     H2  951   2.666   1.416   0.197  1.0010  0.0192  0.7204
   57ACE     H3  952   2.653   1.242   0.255  3.0091  1.1137  3.2084
   57ACE     H4  953   3.001   1.320   0.105 -0.0688 -1.7860  0.2346
   58ACE     C1  954   1.134   0.528   3.261  0.3393 -0.0822  0.0776
   58ACE     C2  955   1.148   0.379   3.307  0.3993  0.0434  0.2258
   58ACE     O1  956   1.087   0.293   3.254  0.2762 -0.1744 -0.3412
   58ACE     O2  957   1.250   0.361   3.389  0.0473  0.4145 -0.4176
   58ACE     H1  958   1.233   0.569   3.234  1.0160 -0.8362  1.3699
   58ACE     H2  959   1.137   0.579   3.358  1.8474 -2.8861  1.5689
   58ACE     H3  960   1.054   0.563   3.195  0.5988  0.8962  0.2689
   58ACE     H4  961   1.239   0.271   3.424 -0.4852  0.7373  0.2668
   59ACE     C1  962   3.187   3.026   1.204 -0.6996 -0.4051  0.2389
   59ACE     C2  963   3.036   3.021   1.203  0.1860 -0.7002 -0.3174
   59ACE     O1  964   2.968   2.919   1.226  0.5530 -0.6065 -0.1594
   59ACE     O2  965   2.978   3.142   1.186  0.6933 -0.6223 -0.3902
   59ACE     H1  966   3.228   2.927   1.178 -2.0003 -0.4123 -1.9380
   59ACE     H2  967   3.222   3.061   1.301 -1.5894 -1.3886  0.9212
   59ACE     H3  968   3.224   3.105   1.138  0.0080 -0.6629  0.3277
   59ACE     H4  969   2.882   3.134   1.197  0.6147  2.2425  1.5656
   60ACE     C1  970   1.485   2.123   1.182 -0.8393 -0.0901  0.2736
   60ACE     C2  971   1.354   2.198   1.188  0.0188 -0.0147  0.6903
   60ACE     O1  972   1.249   2.144   1.222 -0.3312  0.0057 -0.1565
   60ACE     O2  973   1.365   2.328   1.195 -0.3923  0.1751 -0.3979
   60ACE     H1  974   1.573   2.185   1.159  0.3111 -1.3464  1.2284
   60ACE     H2  975   1.481   2.054   1.096 -0.0779 -0.6510  0.6888
   60ACE     H3  976   1.506   2.064   1.271  1.9701  0.0726 -0.2261
   60ACE     H4  977   1.277   2.362   1.219 -1.0342 -1.0247 -1.0593
   61ACE     C1  978   1.895   0.331   0.798 -0.2535  0.7468  0.2632
   61ACE     C2  979   1.840   0.465   0.825 -0.0583 -0.3637  0.0367
   61ACE     O1  980   1.900   0.562   0.857 -0.4617 -0.1502 -0.4410
   61ACE     O2  981   1.706   0.477   0.809 -1.0604  0.2698  0.1464
   61ACE     H1  982   1.970   0.353   0.721 -0.7267 -1.1607 -0.7679
   61ACE     H2  983   1.820   0.261   0.759 -0.2188  1.1271 -0.4915
   61ACE     H3  984   1.930   0.280   0.889  0.8274 -0.8457 -1.0131
   61ACE     H4  985   1.692   0.558   0.862 -1.3293  0.6197 -0.4528
   62ACE     C1  986   0.461   2.659   0.473  0.2683  0.6519 -0.3904
   62ACE     C2  987   0.391   2.774   0.414  0.5110 -0.0279 -0.8732
   62ACE     O1  988   0.320   2.856   0.475 -0.2705  0.0591 -0.1409
   62ACE     O2  989   0.413   2.796   0.284 -0.0419  0.1276 -0.1860
   62ACE     H1  990   0.468   2.581   0.396  1.2155  0.5725 -0.2268
   62ACE     H2  991   0.413   2.628   0.566 -0.0507 -0.7566 -1.0153
   62ACE     H3  992   0.564   2.694   0.484  0.7083 -1.1695  1.3129
   62ACE     H4  993   0.378   2.886   0.270  1.5800  0.6576 -0.8743
   63ACE     C1  994   0.417   0.689   1.164  0.0439 -0.4524 -0.1149
   63ACE     C2  995   0.463   0.827   1.128  0.0167 -0.2356 -0.2658
   63ACE     O1  996   0.469   0.916   1.212 -0.1125  0.3397 -0.0829
   63ACE     O2  997   0.473   0.856   0.998 -0.0131 -0.3733  0.0308
   63ACE     H1  998   0.502   0.620   1.167  1.0355  0.7788  0.2112
   63ACE     H2  999   0.358   0.641   1.084  0.7318  2.3772 -2.4049
   63ACE     H3 1000   0.369   0.687   1.262  0.5334  1.1755  0.1697
   63ACE     H4 1001   0.502   0.948   1.011  1.1432 -0.9831  2.0020
   64ACE     C1 1002   0.535   2.205   1.479  0.3297 -0.0464  0.1077
   64ACE     C2 1003   0.415   2.118   1.522 -0.2318 -0.6624 -0.5065
   64ACE     O1 1004   0.332   2.148   1.603  0.3817 -0.6305 -0.2526
   64ACE     O2 1005   0.369   2.055   1.416  0.1428  0.0826 -0.4628
   64ACE     H1 1006   0.570   2.276   1.554  1.7226  2.3751 -2.7325
   64ACE     H2 1007   0.510   2.258   1.386 -1.0233  1.7228  1.4371
   64ACE     H3 1008   0.615   2.141   1.440 -0.4487 -0.7567 -0.3565
   64ACE     H4 1009   0.289   2.015   1.454  0.5094 -1.8168 -1.6399
   65ACE     C1 1010   1.696   0.302   1.209 -0.1569 -0.4244  0.2801
   65ACE     C2 1011   1.760   0.168   1.175  0.4978  0.0290  0.5929
   65ACE     O1 1012   1.877   0.148   1.170 -0.1915 -0.4812 -0.2871
   65ACE     O2 1013   1.676   0.103   1.094  0.4419  0.3651  0.1374
   65ACE     H1 1014   1.614   0.294   1.281 -0.9164 -3.9516 -0.8680
   65ACE     H2 1015   1.637   0.335   1.122  1.9256  0.6608 -0.7608
   65ACE     H3 1016   1.766   0.381   1.236 -0.5875 -0.4269  1.4039
   65ACE     H4 1017   1.735   0.037   1.054  1.2094  1.1174 -0.0116
   66ACE     C1 1018   1.781   0.868   1.544 -0.5752 -0.0062  0.7027
   66ACE     C2 1019   1.926   0.817   1.561 -0.2680 -0.4687  0.2439
   66ACE     O1 1020   1.950   0.703   1.587 -0.4006  0.1746  0.1588
   66ACE     O2 1021   2.021   0.920   1.553  1.1499  0.1314  0.1663
   66ACE     H1 1022   1.753   0.879   1.439  2.4013 -1.7556 -0.3409
   66ACE     H2 1023   1.764   0.968   1.585 -2.4257 -0.3861  0.8902
   66ACE     H3 1024   1.715   0.791   1.585 -1.1548 -0.0325 -0.2696
   66ACE     H4 1025   2.107   0.879   1.574  0.9863 -0.4762 -0.3140
   67ACE     C1 1026   0.864   1.298   0.170 -0.2686 -0.7551  0.1351
   67ACE     C2 1027   0.912   1.354   0.034  0.2474 -0.4048  0.0419
   67ACE     O1 1028   0.886   1.465  -0.003  0.3444 -0.3643  0.2896
   67ACE     O2 1029   0.981   1.267  -0.040  0.3182  0.1766  0.1213
   67ACE     H1 1030   0.887   1.376   0.244 -1.3377  2.2245 -2.5228
   67ACE     H2 1031   0.905   1.197   0.181 -0.1566 -0.8552 -1.1164
   67ACE     H3 1032   0.755   1.306   0.167 -0.2828 -0.7601  0.7181
   67ACE     H4 1033   0.983   1.304  -0.130 -0.4393 -0.8434 -0.3238
   68ACE     C1 1034   2.233   1.275   1.549  0.8239  0.5667  0.3608
   68ACE     C2 1035   2.256   1.265   1.398  0.0181  0.0952 -0.8228
   68ACE     O1 1036   2.170   1.294   1.320  0.6775 -0.1903  0.0453
   68ACE     O2 1037   2.350   1.181   1.365  0.7326  0.4268  0.0217
   68ACE     H1 1038   2.177   1.362   1.585 -0.9145 -0.5692  0.4998
   68ACE     H2 1039   2.331   1.283   1.596  1.1742 -0.3749 -0.1902
   68ACE     H3 1040   2.187   1.179   1.575  2.7097 -0.4292  0.0448
   68ACE     H4 1041   2.352   1.177   1.268  0.2394  0.4501  0.0102
   69ACE     C1 1042   2.511   3.001   1.157  1.0316  0.4068 -0.7213
   69ACE     C2 1043   2.649   2.995   1.226 -0.2317 -0.8638 -0.2306
   69ACE     O1 1044   2.724   3.089   1.233  0.0998 -0.0246  0.1686
   69ACE     O2 1045   2.710   2.879   1.213 -0.0755 -0.4084 -0.0449
   69ACE     H1 1046   2.494   2.912   1.095  0.7304 -0.0184 -0.0244
   69ACE     H2 1047   2.509   3.100   1.109  0.9914  1.0612  0.6026
   69ACE     H3 1048   2.440   2.986   1.239  0.1832 -0.6006 -1.6198
   69ACE     H4 1049   2.802   2.895   1.241 -0.3189 -2.7806  2.2390
   70ACE     C1 1050   0.775   3.135   1.146 -0.5045 -1.0211  0.1608
   70ACE     C2 1051   0.634   3.100   1.178 -0.1178  0.1583  0.0048
   70ACE     O1 1052   0.597   2.989   1.202 -0.3625  0.1090 -0.2231
   70ACE     O2 1053   0.568   3.193   1.233 -0.0175  0.1942 -0.3973
   70ACE     H1 1054   0.845   3.095   1.220 -0.2432  1.8067  1.4766
   70ACE     H2 1055   0.781   3.243   1.134  1.0185 -1.1719 -0.7137
   70ACE     H3 1056   0.804   3.081   1.054  4.0201  1.8185 -0.2161
   70ACE     H4 1057   0.482   3.148   1.241  0.2018 -0.2503 -0.5185
   71ACE     C1 1058   2.579   2.972   0.802 -0.3900  0.5105  0.0499
   71ACE     C2 1059   2.673   2.866   0.858  0.0255  0.0334 -0.2654
   71ACE     O1 1060   2.640   2.759   0.901 -0.6408  0.3891  0.2826
   71ACE     O2 1061   2.798   2.910   0.881  0.4738 -0.6210  0.0586
   71ACE     H1 1062   2.506   3.009   0.875 -1.4681 -1.0882 -0.1899
   71ACE     H2 1063   2.524   2.918   0.725  1.4594 -0.7303 -0.4423
   71ACE     H3 1064   2.635   3.057   0.760  0.5672 -0.1080  0.0450
   71ACE     H4 1065   2.836   2.833   0.927  0.8709 -0.0429  0.7043
   72ACE     C1 1066   2.830   2.472   1.008 -0.0082 -0.2724 -0.0921
   72ACE     C2 1067   2.882   2.604   1.059 -0.5124  0.1324  0.2004
   72ACE     O1 1068   2.931   2.685   0.982 -0.0365  0.0405  0.0168
   72ACE     O2 1069   2.885   2.619   1.192  0.0731 -0.0933  0.1262
   72ACE     H1 1070   2.793   2.411   1.091  0.1809  0.3331  0.4360
   72ACE     H2 1071   2.905   2.412   0.954 -1.5258 -0.7634 -1.7044
   72ACE     H3 1072   2.751   2.489   0.934  0.1081  1.3480  0.1372
   72ACE     H4 1073   2.923   2.708   1.204  0.6822 -0.1889 -1.0215
   73ACE     C1 1074   0.112   1.411   1.548  0.3980 -0.1483  0.0614
   73ACE     C2 1075   0.099   1.563   1.580  0.0722  0.3520 -0.2302
   73ACE     O1 1076  -0.007   1.630   1.572  0.0393  0.0418  0.6316
   73ACE     O2 1077   0.221   1.621   1.579  0.3115 -0.2815 -0.2129
   73ACE     H1 1078   0.171   1.356   1.623 -1.1307 -1.1072  0.5798
   73ACE     H2 1079   0.166   1.395   1.454  0.0607  0.3905 -0.2218
   73ACE     H3 1080   0.015   1.363   1.561  0.0826 -0.1042 -2.0839
   73ACE     H4 1081   0.199   1.716   1.580 -0.1923 -0.3065 -3.3393
   74ACE     C1 1082   2.416   0.528   0.048 -0.5027  0.8089  0.0110
   74ACE     C2 1083   2.366   0.383   0.059 -0.0157  0.7481 -0.6978
   74ACE     O1 1084   2.280   0.332  -0.015  0.0068  0.1543 -0.0909
   74ACE     O2 1085   2.415   0.314   0.162 -0.2623  0.1565 -0.2029
   74ACE     H1 1086   2.448   0.552   0.150 -0.9159  0.9548  0.1081
   74ACE     H2 1087   2.339   0.587  -0.004 -1.1558 -0.6023 -0.6663
   74ACE     H3 1088   2.512   0.525  -0.004  0.2906 -1.1475  1.5460
   74ACE     H4 1089   2.347   0.245   0.166 -0.6453  0.3183 -2.7422
   75ACE     C1 1090   1.493   3.124   0.889  0.0245  0.2430  0.2319
   75ACE     C2 1091   1.487   3.055   0.757  0.3244  0.2246 -0.1254
   75ACE     O1 1092   1.417   2.953   0.738  0.7542 -0.3651  0.0356
   75ACE     O2 1093   1.594   3.089   0.677 -0.0580  0.7064  0.2191
   75ACE     H1 1094   1.593   3.159   0.916 -0.2544  1.7472 -0.6450
   75ACE     H2 1095   1.437   3.068   0.966 -0.9876 -2.3260 -2.2740
   75ACE     H3 1096   1.447   3.222   0.874 -0.4036 -0.1026 -0.7906
   75ACE     H4 1097   1.590   3.023   0.606  0.8974  1.5120 -0.5887
   76ACE     C1 1098   0.230   1.118   1.300 -0.3649  0.6352 -0.3538
   76ACE     C2 1099   0.191   1.021   1.192  0.1758  0.0425  0.5154
   76ACE     O1 1100   0.112   0.926   1.205  0.9316  0.0538 -0.3423
   76ACE     O2 1101   0.220   1.056   1.067  0.2034 -0.0560  0.6159
   76ACE     H1 1102   0.334   1.151   1.303  0.3092 -1.3258 -1.4477
   76ACE     H2 1103   0.188   1.096   1.399 -0.9111 -1.0952 -0.9518
   76ACE     H3 1104   0.170   1.204   1.267  0.0677  1.5404  1.1717
   76ACE     H4 1105   0.192   0.979   1.015 -0.5056 -0.7396  1.9860
   77ACE     C1 1106   0.508   1.407   1.548 -0.0734 -0.1700  0.2362
   77ACE     C2 1107   0.551   1.260   1.554  0.2795 -0.2028  0.3313
   77ACE     O1 1108   0.664   1.231   1.566 -0.8246  0.0614  0.3054
   77ACE     O2 1109   0.445   1.174   1.563  0.2174  0.0887 -0.2366
   77ACE     H1 1110   0.592   1.474   1.527 -0.6382  0.3290 -0.4749
   77ACE     H2 1111   0.440   1.433   1.630  0.7232 -0.4237  0.9786
   77ACE     H3 1112   0.443   1.410   1.459  2.8437 -0.7918 -1.9729
   77ACE     H4 1113   0.495   1.092   1.574  0.4698  0.0433 -1.5889
   78ACE     C1 1114   1.354   3.046   1.270 -0.8675  0.6946  0.1542
   78ACE     C2 1115   1.273   3.169   1.219 -0.2052 -0.3247 -0.4095
   78ACE     O1 1116   1.158   3.163   1.181  0.2144 -0.6842 -0.3111
   78ACE     O2 1117   1.338   3.275   1.189 -0.1478  0.1296  0.0786
   78ACE     H1 1118   1.312   3.019   1.368 -2.0372  1.0604 -0.2349
   78ACE     H2 1119   1.460   3.070   1.278 -0.8901  0.9560 -0.3431
   78ACE     H3 1120   1.346   2.952   1.214 -0.2953  0.8792 -0.2457
   78ACE     H4 1121   1.271   3.337   1.155 -1.0278  0.0129  1.5493
   79ACE     C1 1122   0.009   0.078   3.777 -0.1668  0.6751 -0.4147
   79ACE     C2 1123   0.117   0.077   3.671  0.1132 -0.2777 -0.0136
   79ACE     O1 1124   0.100   0.080   3.549  0.1132  0.5464  0.2144
   79ACE     O2 1125   0.239   0.066   3.718  0.1124  0.8499  0.2253
   79ACE     H1 1126   0.014   0.168   3.839 -0.4785  1.9912 -2.2642
   79ACE     H2 1127   0.046   0.006   3.851  0.0688  2.3684  1.1460
   79ACE     H3 1128  -0.088   0.051   3.733  0.1779  2.0821 -2.1289
   79ACE     H4 1129   0.292   0.046   3.640 -1.5046 -1.9869 -0.2385
   80ACE     C1 1130   3.192   2.799   1.514  0.5170 -1.0480 -0.0966
   80ACE     C2 1131   3.123   2.663   1.540 -0.1753 -0.2454  0.1531
   80ACE     O1 1132   3.005   2.659   1.539  0.1624  0.5196  0.2790
   80ACE     O2 1133   3.198   2.572   1.588 -0.2415  0.0876 -0.0402
   80ACE     H1 1134   3.253   2.791   1.423  1.7607  0.0911  0.6060
   80ACE     H2 1135   3.266   2.818   1.594  0.4507 -0.5793 -0.1445
   80ACE     H3 1136   3.132   2.891   1.508  0.4354 -1.1678 -1.1275
   80ACE     H4 1137   3.128   2.507   1.604 -0.5570  0.9660  2.2549
   81ACE     C1 1138   0.216   0.921   0.322  1.1404  0.3255  0.3396
   81ACE     C2 1139   0.280   0.878   0.452  0.0160  0.0657 -0.3276
   81ACE     O1 1140   0.217   0.861   0.554  0.2457 -0.0565 -0.3215
   81ACE     O2 1141   0.415   0.867   0.444 -0.1643  0.7075  0.4811
   81ACE     H1 1142   0.255   1.010   0.270  1.3746  2.7446  4.4157
   81ACE     H2 1143   0.107   0.928   0.329  1.0520  0.4753 -1.0380
   81ACE     H3 1144   0.229   0.846   0.243  1.0016  0.6871 -0.0277
   81ACE     H4 1145   0.428   0.832   0.534  0.2372  0.3348  0.2789
   82ACE     C1 1146   1.260   2.960   0.279 -0.2823  0.9749  0.2830
   82ACE     C2 1147   1.120   2.978   0.338  0.4383 -0.1549 -0.4515
   82ACE     O1 1148   1.024   2.914   0.303  0.3353  0.7626 -0.2401
   82ACE     O2 1149   1.100   3.096   0.391  0.7288 -0.1951 -0.2483
   82ACE     H1 1150   1.285   3.036   0.204 -4.0908  1.8955 -0.1359
   82ACE     H2 1151   1.268   2.858   0.240  0.3321  0.0906  2.6403
   82ACE     H3 1152   1.330   2.976   0.362  1.5226  0.2531 -1.0773
   82ACE     H4 1153   1.007   3.090   0.418  0.0383  1.6648 -2.0610
   83ACE     C1 1154   0.899   2.844   0.646  0.0392 -0.3319 -0.5018
   83ACE     C2 1155   0.837   2.921   0.763 -0.1517 -0.1259 -0.2303
   83ACE     O1 1156   0.896   2.951   0.866  0.8028 -0.0164 -0.4262
   83ACE     O2 1157   0.728   2.985   0.720  0.5244  0.2760 -0.8252
   83ACE     H1 1158   0.935   2.750   0.688 -0.0863  0.8731  2.4270
   83ACE     H2 1159   0.977   2.900   0.593 -1.0419 -0.7286 -2.5832
   83ACE     H3 1160   0.819   2.808   0.580 -0.8794  1.9070 -0.6693
   83ACE     H4 1161   0.717   3.053   0.790  1.0129  0.9649 -1.4157
   84ACE     C1 1162   1.861   1.278   0.336 -0.1932 -0.1668 -0.4911
   84ACE     C2 1163   1.769   1.290   0.456 -0.1112  0.0082 -0.4972
   84ACE     O1 1164   1.662   1.234   0.464  0.1172 -0.1116 -0.3208
   84ACE     O2 1165   1.809   1.374   0.548  0.0913 -0.0745  0.7524
   84ACE     H1 1166   1.806   1.286   0.241 -0.0986 -1.1240 -0.6265
   84ACE     H2 1167   1.907   1.179   0.345  0.3429  0.3026  2.3614
   84ACE     H3 1168   1.939   1.356   0.342 -1.1738  0.7303  1.1854
   84ACE     H4 1169   1.724   1.379   0.596 -1.3389 -1.2843 -1.5386
   85ACE     C1 1170   3.256   3.103   0.067 -0.3955 -0.3007 -0.4076
   85ACE     C2 1171   3.215   2.989  -0.020  0.5836  0.2902  0.2159
   85ACE     O1 1172   3.273   2.966  -0.123  0.1739  0.0159  0.6273
   85ACE     O2 1173   3.111   2.913   0.017  0.3760 -0.5792 -0.1005
   85ACE     H1 1174   3.183   3.123   0.146  0.0179 -0.1585 -0.0596
   85ACE     H2 1175   3.275   3.194   0.008 -2.1029 -0.3473 -1.0412
   85ACE     H3 1176   3.349   3.068   0.114 -0.8577  0.8613  1.4566
   85ACE     H4 1177   3.128   2.837  -0.042  2.0954 -1.6791  1.7334
   86ACE     C1 1178   1.929   1.041   1.234  0.0526  0.1996 -0.0295
   86ACE     C2 1179   1.793   1.106   1.241  0.5738 -0.6000  0.0445
   86ACE     O1 1180   1.773   1.220   1.280 -0.3103 -0.7347  0.5665
   86ACE     O2 1181   1.695   1.027   1.190 -0.2279 -0.0419  0.6265
   86ACE     H1 1182   1.943   0.996   1.135  1.0194 -0.1926  0.2857
   86ACE     H2 1183   1.930   0.949   1.294  2.6224  0.1479 -0.1082
   86ACE     H3 1184   2.005   1.113   1.266  1.0612 -0.6615 -0.4814
   86ACE     H4 1185   1.612   1.078   1.198  0.6229  1.4294  0.3239
   87ACE     C1 1186   0.111   0.659   0.998  0.1954 -0.5769 -0.0515
   87ACE     C2 1187   0.162   0.746   0.884  0.8023 -0.1909 -0.1530
   87ACE     O1 1188   0.154   0.862   0.880 -0.6017  0.4090 -0.4106
   87ACE     O2 1189   0.191   0.675   0.772 -0.2574 -0.0032 -0.0810
   87ACE     H1 1190   0.017   0.611   0.969  0.7540 -0.9809 -1.2590
   87ACE     H2 1191   0.115   0.709   1.095 -0.1832 -0.4297 -0.1091
   87ACE     H3 1192   0.178   0.573   1.001  2.7746  1.3656 -0.3411
   87ACE     H4 1193   0.221   0.749   0.716 -0.5120 -0.0782 -0.3202
   88ACE     C1 1194   3.068   1.520   0.747 -0.0184 -0.5303  0.0029
   88ACE     C2 1195   3.047   1.375   0.765  0.8447  0.0735  0.6970
   88ACE     O1 1196   3.041   1.300   0.667  0.3258 -0.3157 -0.0128
   88ACE     O2 1197   3.079   1.326   0.885 -0.4745 -0.2144 -0.1175
   88ACE     H1 1198   3.001   1.561   0.670  0.3820  1.3132  0.6192
   88ACE     H2 1199   3.173   1.543   0.728 -0.9605  1.2336 -3.5623
   88ACE     H3 1200   3.053   1.585   0.834 -0.2588 -0.0281 -0.4066
   88ACE     H4 1201   3.071   1.231   0.864 -0.4319 -0.0204 -1.0382
   89ACE     C1 1202   0.773   2.368   0.668  0.0714 -0.4497 -0.0955
   89ACE     C2 1203   0.787   2.420   0.530  0.4542  0.3300  0.2874
   89ACE     O1 1204   0.782   2.350   0.433  0.2522 -0.4413 -0.3137
   89ACE     O2 1205   0.828   2.544   0.527 -0.8401 -0.1826  0.1966
   89ACE     H1 1206   0.859   2.393   0.732 -0.3232  0.2543  0.1681
   89ACE     H2 1207   0.771   2.259   0.660 -0.6742 -0.5173  0.9126
   89ACE     H3 1208   0.696   2.420   0.727  0.2963 -1.5423  1.1870
   89ACE     H4 1209   0.826   2.564   0.431 -1.1412 -1.3845 -0.0520
   90ACE     C1 1210   0.706   0.405   3.765  0.6583 -0.7481 -0.0080
   90ACE     C2 1211   0.603   0.344   3.665  0.4675 -0.5810 -0.0035
   90ACE     O1 1212   0.511   0.401   3.611 -0.2042 -0.0856  0.0600
   90ACE     O2 1213   0.619   0.215   3.642 -0.1771 -0.3617  0.3049
   90ACE     H1 1214   0.808   0.377   3.738  0.5856 -2.2296  1.1936
   90ACE     H2 1215   0.695   0.353   3.861  0.7285 -0.6956  0.0279
   90ACE     H3 1216   0.696   0.513   3.782 -3.3256 -0.6946 -2.1914
   90ACE     H4 1217   0.546   0.197   3.581  0.3858  0.7387 -0.7095
   91ACE     C1 1218   2.488   0.126   1.503 -0.5465  0.2427 -0.2080
   91ACE     C2 1219   2.589   0.016   1.538 -0.1716  1.2373  0.0845
   91ACE     O1 1220   2.559  -0.102   1.545 -0.3719 -0.1279  0.6158
   91ACE     O2 1221   2.716   0.061   1.540 -0.0834 -0.8051  0.1377
   91ACE     H1 1222   2.390   0.076   1.497 -0.5702  0.3720 -0.8762
   91ACE     H2 1223   2.518   0.168   1.407 -1.9962  0.2804 -0.6624
   91ACE     H3 1224   2.481   0.207   1.577  2.1012  1.7777 -1.5773
   91ACE     H4 1225   2.773  -0.011   1.571 -0.7466 -0.6067  1.8991
   92ACE     C1 1226   0.375   1.725   1.305  0.5831 -0.0226  0.2125
   92ACE     C2 1227   0.514   1.757   1.348 -1.5383  0.4146 -0.3518
   92ACE     O1 1228   0.614   1.716   1.291  0.2002 -0.5130 -0.5654
   92ACE     O2 1229   0.518   1.793   1.479 -0.3682  0.0264  0.2557
   92ACE     H1 1230   0.356   1.617   1.315  1.1573 -0.0466  1.0798
   92ACE     H2 1231   0.364   1.741   1.197  2.4364  2.0468  0.2969
   92ACE     H3 1232   0.307   1.792   1.359 -2.0595 -1.2409 -1.4833
   92ACE     H4 1233   0.612   1.781   1.500  0.1959  3.0944 -0.3188
   93ACE     C1 1234   1.491   0.767   1.181 -0.1479 -0.6365  0.0504
   93ACE     C2 1235   1.628   0.707   1.133  0.1976 -0.3456 -0.5277
   93ACE     O1 1236   1.641   0.664   1.019 -0.8041  0.1811 -0.3035
   93ACE     O2 1237   1.723   0.688   1.229  0.0528 -0.3942 -0.1390
   93ACE     H1 1238   1.443   0.683   1.233 -1.3972 -1.3378 -2.1976
   93ACE     H2 1239   1.426   0.791   1.097  0.5598 -1.7651 -0.8351
   93ACE     H3 1240   1.512   0.851   1.248 -0.1096 -1.2701  0.8493
   93ACE     H4 1241   1.798   0.658   1.175 -0.2096 -0.6719 -0.3489
   94ACE     C1 1242   3.206   1.522   0.393  0.0936 -0.1602 -0.3185
   94ACE     C2 1243   3.332   1.458   0.433  1.1156 -0.6452  0.0101
   94ACE     O1 1244   3.341   1.394   0.534  0.0294 -0.1327  0.1810
   94ACE     O2 1245   3.437   1.512   0.370 -0.1529  0.1390  0.4535
   94ACE     H1 1246   3.215   1.538   0.285  1.0324  1.7338  0.0226
   94ACE     H2 1247   3.188   1.615   0.449 -0.2063 -0.8627  0.7726
   94ACE     H3 1248   3.117   1.466   0.426 -0.2310 -0.9079 -2.4114
   94ACE     H4 1249   3.510   1.454   0.398 -2.7887 -2.0075  3.2550
   95ACE     C1 1250   3.054   0.180   1.517 -0.5076  0.0925 -0.6981
   95ACE     C2 1251   3.184   0.103   1.515 -0.3281  1.1488  0.2299
   95ACE     O1 1252   3.291   0.162   1.523  0.3211 -0.5458  0.0876
   95ACE     O2 1253   3.182  -0.004   1.432  0.5275  0.1887  0.4221
   95ACE     H1 1254   2.988   0.130   1.589  0.4883  0.9414  0.8403
   95ACE     H2 1255   3.002   0.158   1.423 -2.7704 -1.1498  0.7974
   95ACE     H3 1256   3.067   0.288   1.535  2.3023  0.0298 -2.1064
   95ACE     H4 1257   3.278  -0.013   1.421  0.9488  3.7282  0.4220
   96ACE     C1 1258   2.223   2.979   1.531 -0.3135 -0.2645 -0.4222
   96ACE     C2 1259   2.294   3.109   1.534  0.3629  0.6826 -0.0753
   96ACE     O1 1260   2.271   3.206   1.599  0.0645  0.0183  0.4664
   96ACE     O2 1261   2.413   3.098   1.478 -0.4288 -0.4147 -0.5431
   96ACE     H1 1262   2.240   2.930   1.435  0.3419 -0.4936 -0.1920
   96ACE     H2 1263   2.115   2.993   1.544 -0.4418  0.2094 -1.9603
   96ACE     H3 1264   2.256   2.911   1.611 -2.3561  0.6335  1.2446
   96ACE     H4 1265   2.449   3.185   1.502 -0.2539 -0.1887 -1.5781
   97ACE     C1 1266   0.845   1.532   1.455 -0.2432 -0.1144 -0.7946
   97ACE     C2 1267   0.871   1.646   1.551 -0.3442 -0.3967  0.7532
   97ACE     O1 1268   0.979   1.666   1.597 -0.4525  0.1583  0.0859
   97ACE     O2 1269   0.777   1.744   1.541 -0.1813 -0.1322  0.2455
   97ACE     H1 1270   0.936   1.517   1.397  1.0029 -0.9006  1.3204
   97ACE     H2 1271   0.757   1.538   1.390  0.5091 -1.0385 -1.9074
   97ACE     H3 1272   0.824   1.440   1.511  1.2881 -0.2563 -0.4379
   97ACE     H4 1273   0.831   1.820   1.569  0.2373 -0.3159 -0.0641
   98ACE     C1 1274   2.495   1.789   1.497  0.4955 -0.3183 -0.0996
   98ACE     C2 1275   2.357   1.729   1.515  0.0465  1.0071  0.3936
   98ACE     O1 1276   2.342   1.618   1.561 -0.0904  0.6244 -0.2731
   98ACE     O2 1277   2.258   1.828   1.525 -0.5646 -0.0167  0.3488
   98ACE     H1 1278   2.482   1.892   1.462  0.4801 -0.0804  0.5903
   98ACE     H2 1279   2.558   1.745   1.419  0.9798 -0.8572  0.6006
   98ACE     H3 1280   2.564   1.788   1.582  0.8864 -1.4660 -0.4332
   98ACE     H4 1281   2.186   1.776   1.566  0.2073 -0.9615  0.5309
   99ACE     C1 1282   2.777   0.544   3.554 -0.0414  0.0010  0.4419
   99ACE     C2 1283   2.869   0.655   3.524  0.5416  0.2179  0.4508
   99ACE     O1 1284   2.963   0.635   3.449  0.3169 -0.7060  1.0188
   99ACE     O2 1285   2.883   0.740   3.620  0.4218 -0.4264  0.2591
   99ACE     H1 1286   2.676   0.586   3.551 -0.5807 -1.2752  0.2641
   99ACE     H2 1287   2.786   0.515   3.659 -0.3172  1.7149  0.9417
   99ACE     H3 1288   2.791   0.457   3.488 -2.8380 -1.1659  1.3093
   99ACE     H4 1289   2.972   0.777   3.608 -0.4330  1.6079  0.0123
  100ACE     C1 1290   2.195   0.512   0.376 -0.0157  0.7168  0.9672
  100ACE     C2 1291   2.288   0.517   0.490  0.4667  0.2582  0.0059
  100ACE     O1 1292   2.404   0.553   0.482  0.0688 -0.0999  0.5689
  100ACE     O2 1293   2.223   0.503   0.605  0.7092 -0.2883 -0.3319
  100ACE     H1 1294   2.125   0.429   0.393  0.6648  0.0178  0.3795
  100ACE     H2 1295   2.239   0.512   0.275  1.0945 -0.0098  1.4443
  100ACE     H3 1296   2.132   0.601   0.389  1.3721  2.1882 -1.8784
  100ACE     H4 1297   2.299   0.509   0.665  2.7248 -1.3724 -2.6952
  101ACE     C1 1298   2.988   1.810   1.498  0.6025  0.5586  0.9425
  101ACE     C2 1299   2.998   1.660   1.530  0.1148  0.1554 -0.4810
  101ACE     O1 1300   3.052   1.575   1.462 -0.3699 -0.4030  0.8480
  101ACE     O2 1301   2.904   1.623   1.616 -0.1014 -0.1447  0.8873
  101ACE     H1 1302   3.037   1.830   1.402 -2.7419 -0.2851 -1.0173
  101ACE     H2 1303   3.020   1.872   1.583  0.0650  0.0689  1.5084
  101ACE     H3 1304   2.882   1.835   1.485  0.4094 -0.9409 -0.4302
  101ACE     H4 1305   2.883   1.532   1.589 -2.2868  0.6482 -0.1936
  102ACE     C1 1306   0.913   0.421   1.542 -0.4148 -0.2423 -0.0147
  102ACE     C2 1307   1.008   0.538   1.520  0.1812 -0.4319  0.6778
  102ACE     O1 1308   1.005   0.640   1.585 -0.1528 -0.6187  0.1789
  102ACE     O2 1309   1.118   0.505   1.459  0.3398  0.0338  0.0311
  102ACE     H1 1310   0.929   0.336   1.474  1.8602  1.3916 -1.6123
  102ACE     H2 1311   0.809   0.452   1.522  0.7649  1.1565 -4.4622
  102ACE     H3 1312   0.906   0.407   1.650  0.4060  2.8868  0.5064
  102ACE     H4 1313   1.173   0.578   1.491  0.7189 -0.3952  0.3633
  103ACE     C1 1314   2.830   1.047   0.679 -0.1750  0.2651  0.1743
  103ACE     C2 1315   2.813   0.997   0.826 -0.8246  1.0401  0.3117
  103ACE     O1 1316   2.723   0.931   0.870  0.1685 -0.1235 -0.4400
  103ACE     O2 1317   2.927   1.028   0.901  0.0486  0.2600 -0.0432
  103ACE     H1 1318   2.925   1.016   0.634 -0.6712 -0.4627 -0.3997
  103ACE     H2 1319   2.850   1.154   0.680  0.4052  0.1496  1.1040
  103ACE     H3 1320   2.745   1.021   0.614  0.1384  1.6075 -0.7816
  103ACE     H4 1321   2.905   1.003   0.993  0.4920  1.9650  0.5406
  104ACE     C1 1322   1.404   0.957   1.535 -0.1146 -0.0584 -0.0363
  104ACE     C2 1323   1.426   1.106   1.508  0.0708  0.4555  0.3736
  104ACE     O1 1324   1.329   1.183   1.493  0.6434  0.9065 -0.3101
  104ACE     O2 1325   1.538   1.148   1.565 -0.3284 -0.6769  0.0542
  104ACE     H1 1326   1.359   0.911   1.447  1.5183  0.7278 -1.3126
  104ACE     H2 1327   1.330   0.945   1.615 -0.4908 -0.8972 -0.5086
  104ACE     H3 1328   1.498   0.907   1.562  0.3715  1.1251  0.5171
  104ACE     H4 1329   1.519   1.244   1.568 -0.6379 -0.7221 -0.3972
  105ACE     C1 1330   2.036   2.360   0.218  0.2195 -0.8400 -0.0071
  105ACE     C2 1331   1.903   2.299   0.182  0.2122  0.1863 -0.0488
  105ACE     O1 1332   1.858   2.301   0.065  0.3685  0.3242  0.5350
  105ACE     O2 1333   1.835   2.242   0.284 -0.0887  0.4994 -0.1688
  105ACE     H1 1334   2.011   2.460   0.256 -1.5023 -0.7860 -1.2057
  105ACE     H2 1335   2.103   2.371   0.131 -0.2382  0.9421 -0.1667
  105ACE     H3 1336   2.088   2.311   0.301  1.6559 -1.9442 -1.5346
  105ACE     H4 1337   1.752   2.200   0.256  0.1320 -0.2522  0.2607
  106ACE     C1 1338   1.132   3.223   0.844 -0.0649 -0.2700 -0.0841
  106ACE     C2 1339   1.123   3.257   0.700  0.1019 -0.1545 -0.8435
  106ACE     O1 1340   1.043   3.320   0.636 -0.2258 -0.2370  0.1756
  106ACE     O2 1341   1.235   3.222   0.634  0.4056  0.2292 -0.3578
  106ACE     H1 1342   1.192   3.298   0.896  0.6155  0.1673 -1.4676
  106ACE     H2 1343   1.186   3.133   0.875 -0.8580 -1.0108 -0.8407
  106ACE     H3 1344   1.036   3.228   0.896 -0.1125  0.9403 -0.2612
  106ACE     H4 1345   1.201   3.236   0.544  0.6161  3.0208 -0.0237
  107ACE     C1 1346   1.811   1.940   1.210  0.3339  0.6088  0.1613
  107ACE     C2 1347   1.843   1.874   1.076 -0.4301  0.3053  0.4486
  107ACE     O1 1348   1.811   1.922   0.965  0.6383 -0.5784  0.1737
  107ACE     O2 1349   1.944   1.799   1.079 -0.4719  0.5850  0.4601
  107ACE     H1 1350   1.904   1.941   1.268  0.9620  0.8611 -0.8327
  107ACE     H2 1351   1.747   1.875   1.271 -0.3687 -0.0889 -1.2755
  107ACE     H3 1352   1.769   2.039   1.187  2.3450  1.7265  1.1193
  107ACE     H4 1353   1.958   1.793   0.983 -2.7634  0.9417  0.0727
  108ACE     C1 1354   3.001   3.237   0.462  0.2745 -0.0788 -0.5075
  108ACE     C2 1355   2.984   3.115   0.399  0.0737  0.3619 -0.3067
  108ACE     O1 1356   2.980   3.009   0.458  0.2776  0.0325  0.0563
  108ACE     O2 1357   2.931   3.127   0.275  0.4438 -0.3277 -0.0925
  108ACE     H1 1358   2.952   3.316   0.405  3.4581  3.4484  1.4303
  108ACE     H2 1359   3.107   3.262   0.452  0.2686  0.6160  1.0424
  108ACE     H3 1360   2.968   3.239   0.567  0.6531  2.0011 -0.4178
  108ACE     H4 1361   2.896   3.037   0.269  1.6010 -0.8868  1.2414
  109ACE     C1 1362   2.804   0.019   1.174 -0.1604 -0.7676 -0.1947
  109ACE     C2 1363   2.696   0.124   1.160  1.0472  0.2782  0.3717
  109ACE     O1 1364   2.710   0.243   1.164 -0.1923  0.2970  0.0802
  109ACE     O2 1365   2.575   0.068   1.144 -0.7273 -0.6289 -0.2354
  109ACE     H1 1366   2.835   0.002   1.070  0.3651 -2.4207  0.2146
  109ACE     H2 1367   2.760  -0.072   1.215  1.1540 -2.0713 -1.5916
  109ACE     H3 1368   2.892   0.051   1.231  0.6237  0.9429 -2.2857
  109ACE     H4 1369   2.519   0.147   1.145  0.6872  0.4178  2.9519
  110ACE     C1 1370   1.493   2.483   0.334 -0.0091  0.6360 -0.2575
  110ACE     C2 1371   1.465   2.572   0.218  0.1045 -0.2162 -0.0895
  110ACE     O1 1372   1.361   2.580   0.155 -0.0812  0.0724 -1.0132
  110ACE     O2 1373   1.563   2.656   0.192  0.3877 -0.0009  0.8799
  110ACE     H1 1374   1.592   2.436   0.333 -0.5324 -0.4646 -2.2004
  110ACE     H2 1375   1.417   2.404   0.341  0.3267  0.4315  1.5231
  110ACE     H3 1376   1.485   2.530   0.433  0.3921  2.1130 -0.9076
  110ACE     H4 1377   1.539   2.693   0.105 -1.0869 -1.4829  0.6237
  111ACE     C1 1378   0.262   3.355   1.437 -0.4413 -0.8511 -0.2682
  111ACE     C2 1379   0.121   3.379   1.473  0.3004  0.1281  0.4857
  111ACE     O1 1380   0.026   3.355   1.403 -0.1892 -0.3084  0.3789
  111ACE     O2 1381   0.109   3.446   1.590  0.0463  0.1867  0.0179
  111ACE     H1 1382   0.324   3.317   1.518  0.7718  0.6335 -0.4661
  111ACE     H2 1383   0.310   3.453   1.428  0.0250 -1.1467 -0.9939
  111ACE     H3 1384   0.268   3.303   1.340  0.6452 -0.7890 -0.2328
  111ACE     H4 1385   0.026   3.494   1.573 -0.0658  0.4173  1.2074
  112ACE     C1 1386   1.781   3.217   1.236  0.0053 -0.3799  0.0204
  112ACE     C2 1387   1.826   3.075   1.215 -0.3520 -0.2101 -0.2966
  112ACE     O1 1388   1.908   3.009   1.278  0.6229 -1.0333  0.4524
  112ACE     O2 1389   1.770   3.032   1.107 -0.4360 -0.5335  0.3925
  112ACE     H1 1390   1.823   3.269   1.149  1.9361  0.9780  1.7247
  112ACE     H2 1391   1.823   3.278   1.316 -0.4200  0.5047 -0.4253
  112ACE     H3 1392   1.672   3.220   1.232 -0.2277 -2.4213  3.1015
  112ACE     H4 1393   1.787   2.937   1.113 -2.0668 -0.6855  3.5048
  113ACE     C1 1394   2.581   3.250   0.457 -0.2146  1.0658 -0.4299
  113ACE     C2 1395   2.535   3.150   0.360  0.4227  0.8514  0.1904
  113ACE     O1 1396   2.532   3.165   0.238  0.4148 -0.5510  0.3991
  113ACE     O2 1397   2.520   3.030   0.412 -0.4542  0.6406 -0.3800
  113ACE     H1 1398   2.649   3.207   0.532  0.2030 -0.3742 -1.6140
  113ACE     H2 1399   2.495   3.281   0.517 -0.9160  0.0896 -0.9083
  113ACE     H3 1400   2.641   3.332   0.416  0.3380  0.9982  0.2337
  113ACE     H4 1401   2.484   2.972   0.343 -1.7578  1.5542 -0.4819
  114ACE     C1 1402   2.844   0.896   3.186 -0.3255 -0.1355  0.4371
  114ACE     C2 1403   2.703   0.864   3.230  0.1946  0.9045 -0.4569
  114ACE     O1 1404   2.607   0.891   3.161  0.2980 -0.4320  0.3373
  114ACE     O2 1405   2.685   0.817   3.350 -0.3353  0.2100 -0.5249
  114ACE     H1 1406   2.917   0.838   3.244 -2.0761 -2.7027  0.1480
  114ACE     H2 1407   2.863   0.999   3.219 -0.3917  0.2583 -0.7444
  114ACE     H3 1408   2.858   0.897   3.078  0.3389 -1.0390  0.5120
  114ACE     H4 1409   2.589   0.820   3.366 -0.4354  1.6147 -1.2798
  115ACE     C1 1410   2.509   2.096   0.580  0.1295 -0.2272 -0.0347
  115ACE     C2 1411   2.563   2.014   0.465  0.1891  0.0490  0.4539
  115ACE     O1 1412   2.683   2.024   0.438 -0.1514  0.2754  0.3942
  115ACE     O2 1413   2.498   1.905   0.438 -0.2247 -0.1493  0.0355
  115ACE     H1 1414   2.480   2.031   0.663 -1.6064 -0.3310 -0.6942
  115ACE     H2 1415   2.417   2.144   0.543  1.7265  3.8502  0.9569
  115ACE     H3 1416   2.575   2.174   0.620 -1.1706  1.0214 -0.2472
  115ACE     H4 1417   2.550   1.854   0.374  0.2332  1.2469 -0.7206
  116ACE     C1 1418   1.102   2.117   1.541  0.2009 -0.9228 -0.2427
  116ACE     C2 1419   1.053   1.974   1.561  0.6182 -0.2829  0.4777
  116ACE     O1 1420   0.941   1.947   1.590  0.1181  0.1954 -0.2290
  116ACE     O2 1421   1.151   1.884   1.585 -0.7187  0.2560 -0.2632
  116ACE     H1 1422   1.035   2.194   1.582 -0.8223 -1.4589 -0.9007
  116ACE     H2 1423   1.118   2.137   1.435  0.3403 -2.2242 -0.4676
  116ACE     H3 1424   1.199   2.133   1.591 -0.4919  1.0385  0.5680
  116ACE     H4 1425   1.104   1.800   1.593  0.8815 -0.9013 -2.5277
  117ACE     C1 1426   1.259   2.626   1.502  0.3636  0.1715 -0.2168
  117ACE     C2 1427   1.192   2.598   1.371  0.1727 -0.8403 -0.3709
  117ACE     O1 1428   1.163   2.486   1.339  0.4693  0.0107  0.2671
  117ACE     O2 1429   1.167   2.707   1.303 -0.2467  0.2923 -0.2403
  117ACE     H1 1430   1.207   2.569   1.580  1.3030  0.0801  0.3404
  117ACE     H2 1431   1.251   2.734   1.520 -1.4451  0.3525 -1.8595
  117ACE     H3 1432   1.361   2.588   1.493  0.5846 -0.0815  2.9560
  117ACE     H4 1433   1.087   2.680   1.255 -0.1943 -0.7982  0.2665
  118ACE     C1 1434   3.359   1.907   0.175 -0.2382  0.7365  0.3337
  118ACE     C2 1435   3.212   1.858   0.202 -0.3483 -0.1914 -0.4331
  118ACE     O1 1436   3.163   1.751   0.174  0.4199 -0.2344  0.6467
  118ACE     O2 1437   3.133   1.966   0.221  0.3764  0.3735  0.6921
  118ACE     H1 1438   3.411   1.872   0.265 -1.0990 -1.1453  0.1201
  118ACE     H2 1439   3.372   2.016   0.167  0.5450  0.5573 -0.9208
  118ACE     H3 1440   3.407   1.848   0.097  1.4104  2.1814  0.2248
  118ACE     H4 1441   3.045   1.925   0.229  0.1983  0.8978  1.3506
  119ACE     C1 1442   0.978   0.597   1.151 -0.2487  0.0858  0.0488
  119ACE     C2 1443   0.831   0.612   1.095  0.1127 -0.2819  0.7464
  119ACE     O1 1444   0.772   0.715   1.105  0.2131  0.4010 -0.4557
  119ACE     O2 1445   0.787   0.526   1.007  0.3425  0.1871  0.6227
  119ACE     H1 1446   1.042   0.545   1.078 -1.2271  0.5071 -1.1325
  119ACE     H2 1447   0.968   0.533   1.239  0.4859  2.6645  2.0429
  119ACE     H3 1448   1.027   0.691   1.179  0.4244  0.4125 -2.0737
  119ACE     H4 1449   0.712   0.580   0.976 -0.1759 -1.2696 -0.7110
  120ACE     C1 1450   0.676   0.499   3.253  0.2797 -0.2469  0.2294
  120ACE     C2 1451   0.804   0.437   3.283 -0.3989 -0.0554  0.2897
  120ACE     O1 1452   0.859   0.439   3.394 -0.0413 -0.2319 -0.2559
  120ACE     O2 1453   0.822   0.329   3.204  0.8263  0.0427  0.2160
  120ACE     H1 1454   0.604   0.474   3.332 -2.6001  3.1628 -1.1947
  120ACE     H2 1455   0.632   0.458   3.162 -2.4212 -0.3085  1.5092
  120ACE     H3 1456   0.698   0.606   3.243 -2.5589  0.3440 -0.1610
  120ACE     H4 1457   0.902   0.291   3.245  1.3622  0.7080 -0.2167
  121ACE     C1 1458   1.872   1.517   1.489  0.3263  0.4825 -0.8561
  121ACE     C2 1459   1.894   1.659   1.523  0.4711  0.3436  0.1281
  121ACE     O1 1460   1.991   1.696   1.575 -0.1541  0.2560 -0.4771
  121ACE     O2 1461   1.792   1.743   1.477 -0.8431 -0.0500  0.0139
  121ACE     H1 1462   1.767   1.496   1.509  0.4127  0.1280 -0.7620
  121ACE     H2 1463   1.946   1.456   1.543  1.0911  1.0644 -1.2290
  121ACE     H3 1464   1.894   1.502   1.382 -0.5838  0.9285 -1.1133
  121ACE     H4 1465   1.818   1.828   1.515 -0.5323  0.2837 -0.9494
  122ACE     C1 1466   0.130   2.911   1.320  0.0874  0.6841  0.5851
  122ACE     C2 1467   0.276   2.937   1.304 -0.1648 -0.1201 -0.3891
  122ACE     O1 1468   0.328   3.044   1.286 -0.3476 -0.5724  0.5129
  122ACE     O2 1469   0.337   2.835   1.239 -0.8094 -0.4637 -0.3817
  122ACE     H1 1470   0.109   2.818   1.374 -2.4350  1.5039  1.0808
  122ACE     H2 1471   0.083   2.911   1.221 -1.3584  2.0156  1.2424
  122ACE     H3 1472   0.086   3.005   1.357  2.4375  2.2204 -0.3652
  122ACE     H4 1473   0.427   2.868   1.224 -0.1788 -1.2568  1.3957
  123ACE     C1 1474   1.413   1.718   3.709 -1.2169 -0.2497 -0.1557
  123ACE     C2 1475   1.342   1.593   3.672  0.4295  0.2263  0.0449
  123ACE     O1 1476   1.313   1.505   3.747  0.3632  0.4531  0.0820
  123ACE     O2 1477   1.366   1.572   3.544  0.4234 -0.0307 -0.4296
  123ACE     H1 1478   1.512   1.706   3.663 -1.6299 -1.5123 -0.7512
  123ACE     H2 1479   1.428   1.746   3.813 -3.2168 -0.6219  0.2643
  123ACE     H3 1480   1.370   1.805   3.657 -1.2721  0.1095  0.4948
  123ACE     H4 1481   1.335   1.480   3.533 -1.5325  0.2937  1.9639
  124ACE     C1 1482   0.771   2.817   3.563 -0.6950  0.2133  0.2823
  124ACE     C2 1483   0.643   2.739   3.525  0.0690 -0.1436 -0.4167
  124ACE     O1 1484   0.544   2.737   3.595 -0.5373  0.5966  0.2465
  124ACE     O2 1485   0.630   2.697   3.398 -1.0023 -0.0564  0.0476
  124ACE     H1 1486   0.825   2.731   3.606  0.9409 -0.4299 -2.8155
  124ACE     H2 1487   0.750   2.892   3.639 -0.2755  0.1543  0.4576
  124ACE     H3 1488   0.831   2.849   3.476  0.0745  1.1418  1.1425
  124ACE     H4 1489   0.535   2.679   3.389 -0.7315 -2.4286  1.4901
  125ACE     C1 1490   1.414   0.429   0.414 -0.2127 -0.2161 -0.1933
  125ACE     C2 1491   1.394   0.423   0.261  0.1662 -0.0509 -0.1367
  125ACE     O1 1492   1.293   0.385   0.210 -0.0164 -0.2448 -0.2709
  125ACE     O2 1493   1.500   0.480   0.193  0.3166  0.3633  0.0318
  125ACE     H1 1494   1.458   0.339   0.460  1.7479  1.0269  0.4528
  125ACE     H2 1495   1.324   0.463   0.466 -0.6099 -0.6530 -0.5882
  125ACE     H3 1496   1.487   0.509   0.433  0.6229 -0.2777 -2.8901
  125ACE     H4 1497   1.472   0.470   0.100  0.7904 -0.8150 -0.0008
  126ACE     C1 1498   1.585   1.670   0.913 -0.3792  0.1464  0.8463
  126ACE     C2 1499   1.537   1.734   1.036 -0.1927  0.0280 -0.6693
  126ACE     O1 1500   1.574   1.707   1.146  0.2577 -0.0782  0.3389
  126ACE     O2 1501   1.411   1.794   1.022  0.2545  0.4519  0.3317
  126ACE     H1 1502   1.511   1.685   0.833  1.1114 -0.9709 -0.7529
  126ACE     H2 1503   1.609   1.565   0.930 -0.3333 -0.2640 -1.6172
  126ACE     H3 1504   1.670   1.729   0.876 -0.6678 -0.1630 -0.3360
  126ACE     H4 1505   1.382   1.804   1.114 -1.6460 -0.3556 -0.1594
  127ACE     C1 1506   1.375   1.995   0.294 -0.4105 -0.8051  0.3187
  127ACE     C2 1507   1.516   2.019   0.235  0.2656 -0.2845 -0.3247
  127ACE     O1 1508   1.564   2.128   0.215 -0.5802 -0.3064  0.1346
  127ACE     O2 1509   1.575   1.910   0.185 -0.1905 -0.0551 -0.7849
  127ACE     H1 1510   1.381   1.933   0.384 -0.8585  1.6665  2.1019
  127ACE     H2 1511   1.326   1.926   0.224  1.4777  0.1459 -2.0117
  127ACE     H3 1512   1.328   2.089   0.327 -0.0270 -0.1961 -0.8279
  127ACE     H4 1513   1.639   1.959   0.132  1.3648  0.8454  1.8307
  128ACE     C1 1514   2.401   0.961   0.957  0.0334 -0.7521  0.4312
  128ACE     C2 1515   2.320   1.092   0.998  0.4803 -0.5779 -0.2426
  128ACE     O1 1516   2.325   1.148   1.105  0.3474  0.3256 -0.4848
  128ACE     O2 1517   2.217   1.111   0.918  0.0056  0.0740  0.0155
  128ACE     H1 1518   2.456   0.980   0.864  0.8950  1.8716  1.4594
  128ACE     H2 1519   2.316   0.898   0.927 -1.4444  0.7939  1.2941
  128ACE     H3 1520   2.458   0.912   1.037  0.1025  0.4163  1.1064
  128ACE     H4 1521   2.178   1.190   0.960  0.9713 -0.1392  1.3239
  129ACE     C1 1522   1.260   0.036   1.497  0.3151  0.3499  0.0154
  129ACE     C2 1523   1.360  -0.065   1.539  0.0956  0.6812  0.0809
  129ACE     O1 1524   1.333  -0.187   1.563  0.5742 -0.2404  0.6109
  129ACE     O2 1525   1.481  -0.023   1.573 -0.1473 -0.1045 -0.4348
  129ACE     H1 1526   1.167  -0.004   1.455 -2.6815  2.5758  4.2232
  129ACE     H2 1527   1.298   0.120   1.436  0.1563  0.3454 -0.0919
  129ACE     H3 1528   1.229   0.086   1.589  2.1631  1.0353  0.2985
  129ACE     H4 1529   1.534  -0.104   1.562  0.7725  0.4053  0.1861
  130ACE     C1 1530   0.645   0.960   0.205 -0.2868  0.1848  0.2843
  130ACE     C2 1531   0.722   0.935   0.082  0.2586 -0.5621  0.6245
  130ACE     O1 1532   0.823   0.991   0.047  0.1487 -0.1645  0.2336
  130ACE     O2 1533   0.688   0.820   0.022  0.5563 -0.1072  0.8241
  130ACE     H1 1534   0.650   0.875   0.275  3.7976  0.0016 -0.1488
  130ACE     H2 1535   0.539   0.965   0.176 -0.3764 -0.1826  0.5330
  130ACE     H3 1536   0.687   1.044   0.261 -0.3375 -0.2825  1.0318
  130ACE     H4 1537   0.763   0.803  -0.037  0.4071 -0.2132  0.6632
  131ACE     C1 1538   2.240   3.296   1.240  0.5579 -0.6558  0.2196
  131ACE     C2 1539   2.135   3.385   1.186 -0.1447 -0.2617  0.7699
  131ACE     O1 1540   2.089   3.391   1.071  0.1590 -0.4802 -0.0483
  131ACE     O2 1541   2.097   3.473   1.272 -0.3003  0.0631 -0.5288
  131ACE     H1 1542   2.232   3.277   1.348  0.3476 -1.2520  0.1004
  131ACE     H2 1543   2.324   3.366   1.240 -0.2077  0.2762  0.4332
  131ACE     H3 1544   2.255   3.211   1.173  2.0678  0.6637 -1.1436
  131ACE     H4 1545   2.028   3.524   1.227  0.7691 -0.0856 -2.3608
  132ACE     C1 1546   1.641   2.465   1.142  0.1677 -0.0136  0.6878
  132ACE     C2 1547   1.773   2.386   1.132 -0.0835  0.6329 -0.3255
  132ACE     O1 1548   1.809   2.305   1.212 -0.1670 -0.2838  0.2134
  132ACE     O2 1549   1.826   2.382   1.008 -0.0126  0.2793  0.2296
  132ACE     H1 1550   1.597   2.449   1.240  1.4466  1.6289  1.5625
  132ACE     H2 1551   1.579   2.441   1.055  0.5864 -1.1113  0.6763
  132ACE     H3 1552   1.667   2.571   1.141  0.3625 -0.0607  0.6327
  132ACE     H4 1553   1.896   2.318   1.028  0.8770  0.5860 -1.7176
  133ACE     C1 1554   2.178   0.343   1.023 -0.4159 -0.3115 -0.4443
  133ACE     C2 1555   2.311   0.356   1.108  0.1062 -1.2642 -0.1472
  133ACE     O1 1556   2.384   0.263   1.137  0.1272  0.0777 -0.0247
  133ACE     O2 1557   2.341   0.482   1.121  0.4776 -0.0318 -0.2915
  133ACE     H1 1558   2.093   0.391   1.072  0.7870 -0.5023  1.9078
  133ACE     H2 1559   2.157   0.236   1.014  0.8385 -0.7763  1.8096
  133ACE     H3 1560   2.199   0.393   0.927 -1.8572 -1.3572 -1.3186
  133ACE     H4 1561   2.429   0.480   1.162 -0.0091  1.7714  0.8889
  134ACE     C1 1562   2.918   1.626   1.170  0.3308  0.1982 -0.2108
  134ACE     C2 1563   2.781   1.671   1.230 -0.2032  0.0989  0.0778
  134ACE     O1 1564   2.706   1.754   1.178 -0.2969 -0.0518  0.2202
  134ACE     O2 1565   2.721   1.570   1.293 -0.1601  0.0937  0.0066
  134ACE     H1 1566   2.941   1.671   1.073  1.9763 -0.9064 -0.3344
  134ACE     H2 1567   2.934   1.519   1.188 -0.5972  0.0377 -0.3019
  134ACE     H3 1568   2.997   1.649   1.242 -1.7013  0.4480  2.0182
  134ACE     H4 1569   2.631   1.606   1.294 -0.5920 -0.9304  3.2355
  135ACE     C1 1570   2.495   1.358   0.773  0.0834 -0.3390 -0.0234
  135ACE     C2 1571   2.599   1.385   0.884  0.5793 -0.5482  0.4378
  135ACE     O1 1572   2.570   1.412   0.997 -0.5675 -0.9144  0.2564
  135ACE     O2 1573   2.717   1.326   0.866 -0.1654  0.6924  0.1153
  135ACE     H1 1574   2.399   1.318   0.807  0.1563 -0.1701  0.3877
  135ACE     H2 1575   2.538   1.281   0.707  0.3848  0.3060 -0.5820
  135ACE     H3 1576   2.477   1.443   0.707 -1.9107 -0.7541 -0.0299
  135ACE     H4 1577   2.748   1.309   0.957 -0.3391  0.8727  0.2099
  136ACE     C1 1578   1.475   1.185   0.901 -0.1780  0.1722 -0.4620
  136ACE     C2 1579   1.531   1.211   0.768  0.2794  0.0439 -0.3445
  136ACE     O1 1580   1.615   1.295   0.745  0.4966 -0.0764  0.0829
  136ACE     O2 1581   1.453   1.162   0.670 -0.2746 -0.3234 -0.3309
  136ACE     H1 1582   1.552   1.180   0.979 -0.8734 -1.8912  0.1372
  136ACE     H2 1583   1.422   1.089   0.907 -1.3430  0.7777 -1.0006
  136ACE     H3 1584   1.414   1.271   0.931  1.3671  1.0746  0.1346
  136ACE     H4 1585   1.518   1.163   0.598 -0.5723 -0.3013 -0.6021
  137ACE     C1 1586   2.154   2.091   0.885  0.1579 -0.2083  0.6451
  137ACE     C2 1587   2.143   2.169   1.014 -0.4077 -0.7941  0.1889
  137ACE     O1 1588   2.070   2.268   1.027 -0.5046  0.9508  0.0572
  137ACE     O2 1589   2.196   2.105   1.120  0.3062  0.3986 -0.2113
  137ACE     H1 1590   2.189   1.988   0.884 -0.4487 -0.4486 -2.9258
  137ACE     H2 1591   2.229   2.137   0.819 -2.1566  0.4409 -1.6804
  137ACE     H3 1592   2.059   2.093   0.829  0.2260  1.7144  0.5465
  137ACE     H4 1593   2.152   2.153   1.193 -0.8310  0.4771 -0.9394
  138ACE     C1 1594   0.822   1.679   1.049  0.2034 -0.4575  0.2519
  138ACE     C2 1595   0.905   1.556   1.009 -0.7094 -0.9114 -0.7223
  138ACE     O1 1596   0.959   1.483   1.091  0.5045  0.4740  0.4903
  138ACE     O2 1597   0.904   1.536   0.883 -0.7436 -0.3384  0.3451
  138ACE     H1 1598   0.805   1.673   1.157 -0.6614  0.9479  0.2139
  138ACE     H2 1599   0.725   1.671   0.998 -0.2265  1.3844  0.7408
  138ACE     H3 1600   0.861   1.777   1.016 -2.8029 -0.1298 -2.6448
  138ACE     H4 1601   0.976   1.477   0.858  0.2838  1.8338 -1.9938
  139ACE     C1 1602   3.180   2.026   0.611 -0.1822 -0.4059  0.5956
  139ACE     C2 1603   3.239   1.888   0.645 -0.3620  0.1007  0.2673
  139ACE     O1 1604   3.205   1.814   0.734  0.3453  0.3733 -0.4877
  139ACE     O2 1605   3.361   1.867   0.578 -0.1540  0.2173  0.4302
  139ACE     H1 1606   3.082   2.042   0.658  0.4717 -2.1055  2.6655
  139ACE     H2 1607   3.173   2.047   0.504 -0.9818 -1.5538  0.4066
  139ACE     H3 1608   3.248   2.098   0.658 -1.4342  0.4672  1.0901
  139ACE     H4 1609   3.393   1.777   0.598  0.6423 -0.2103 -2.4530
  140ACE     C1 1610   0.126   2.610   3.526 -0.7022 -0.3380 -0.1390
  140ACE     C2 1611   0.090   2.736   3.598 -0.2830  0.4809 -0.0737
  140ACE     O1 1612   0.086   2.741   3.722 -0.1407  0.1592 -0.0782
  140ACE     O2 1613   0.000   2.800   3.523  0.0963 -0.2057  0.0128
  140ACE     H1 1614   0.222   2.628   3.476 -1.0744 -0.9396 -1.0754
  140ACE     H2 1615   0.051   2.582   3.450 -1.6036 -0.8692  0.9385
  140ACE     H3 1616   0.137   2.533   3.602 -1.3014  0.3869  0.6960
  140ACE     H4 1617  -0.046   2.846   3.595 -0.0015 -1.0138  0.4784
  141ACE     C1 1618   1.870   0.007   1.551  0.5390  0.1748 -0.2839
  141ACE     C2 1619   1.984  -0.088   1.591  0.2334 -0.9760  0.2809
  141ACE     O1 1620   1.973  -0.210   1.585  0.0774 -0.3426 -0.1368
  141ACE     O2 1621   2.100  -0.027   1.577 -0.1297  0.4733  0.1029
  141ACE     H1 1622   1.870   0.102   1.605 -0.4965  0.5259 -0.8982
  141ACE     H2 1623   1.779  -0.053   1.562  0.6954 -0.2173 -1.0619
  141ACE     H3 1624   1.880   0.036   1.446 -0.9769  2.1327  0.1053
  141ACE     H4 1625   2.161  -0.102   1.580  0.0144  0.6121  0.6156
  142ACE     C1 1626   3.072   2.872   0.726  0.1432  0.2544 -0.3626
  142ACE     C2 1627   3.171   2.892   0.837  0.4945 -0.4588  0.4646
  142ACE     O1 1628   3.220   3.002   0.853  0.3514 -0.6317  0.0919
  142ACE     O2 1629   3.222   2.781   0.898  0.3246  0.3880 -0.1135
  142ACE     H1 1630   3.026   2.970   0.706 -1.1687 -0.3120 -0.1427
  142ACE     H2 1631   3.010   2.786   0.752  1.7610 -0.5847  0.7714
  142ACE     H3 1632   3.133   2.862   0.635  1.6517 -0.8794  0.7474
  142ACE     H4 1633   3.157   2.716   0.867 -0.5508  1.0702  0.2837
  143ACE     C1 1634   3.355   0.327   1.197  0.3159 -0.4564  0.3149
  143ACE     C2 1635   3.487   0.310   1.257 -0.4267  0.0379 -0.3661
  143ACE     O1 1636   3.527   0.200   1.294 -0.3306  0.3291  0.2595
  143ACE     O2 1637   3.570   0.409   1.237  0.1269 -0.1719  0.2293
  143ACE     H1 1638   3.312   0.422   1.232 -1.0360 -0.5989 -0.9301
  143ACE     H2 1639   3.286   0.243   1.201 -0.6156  0.1815 -1.5632
  143ACE     H3 1640   3.373   0.365   1.096  3.7402  0.0189  1.0351
  143ACE     H4 1641   3.656   0.375   1.265  0.5418 -0.7453 -1.6194
  144ACE     C1 1642   3.300   1.775   1.209 -0.5919  0.1638  0.2780
  144ACE     C2 1643   3.281   1.827   1.066 -0.1577 -0.0069 -0.0716
  144ACE     O1 1644   3.339   1.922   1.026  0.2270  0.1989  0.1582
  144ACE     O2 1645   3.192   1.774   0.996 -0.2200 -1.3636  0.3540
  144ACE     H1 1646   3.361   1.845   1.269  0.6470  0.7970 -1.6798
  144ACE     H2 1647   3.365   1.690   1.187 -0.9025  0.2163 -0.8274
  144ACE     H3 1648   3.207   1.732   1.248  0.6832 -0.9991  2.1153
  144ACE     H4 1649   3.207   1.813   0.908 -1.3195 -1.0500  0.2936
  145ACE     C1 1650   2.511   0.901   1.555 -0.1004 -0.5018 -0.2994
  145ACE     C2 1651   2.396   0.804   1.557  0.5826 -0.2143 -0.2562
  145ACE     O1 1652   2.283   0.839   1.584  0.4229  0.0853 -0.3506
  145ACE     O2 1653   2.419   0.678   1.549 -0.3991 -0.5336 -0.6093
  145ACE     H1 1654   2.483   1.003   1.583  1.7405 -0.5871  2.0624
  145ACE     H2 1655   2.576   0.899   1.467  0.6515  0.1064  0.2267
  145ACE     H3 1656   2.582   0.868   1.632 -0.3875  2.4936  1.3364
  145ACE     H4 1657   2.330   0.643   1.562 -0.6610  0.6474  0.9058
  146ACE     C1 1658   0.570   3.083   1.557 -0.2264  0.0379 -0.0011
  146ACE     C2 1659   0.527   2.940   1.571 -0.3000  0.8854  0.6170
  146ACE     O1 1660   0.605   2.848   1.566 -0.2500 -0.1402 -0.6474
  146ACE     O2 1661   0.399   2.910   1.584  0.0170  0.6626  0.8508
  146ACE     H1 1662   0.511   3.150   1.620 -0.0553 -1.1418  1.4375
  146ACE     H2 1663   0.536   3.117   1.458 -3.0062 -0.0193  0.9092
  146ACE     H3 1664   0.677   3.094   1.578 -0.4782  1.5419  0.5255
  146ACE     H4 1665   0.401   2.813   1.584 -0.6194  0.6330  1.9308
  147ACE     C1 1666   3.240   1.424   1.217 -0.4928 -0.3535 -0.2559
  147ACE     C2 1667   3.248   1.275   1.250 -0.2693 -0.0800  0.0659
  147ACE     O1 1668   3.336   1.223   1.314  0.3749 -0.6894 -0.8144
  147ACE     O2 1669   3.179   1.205   1.154  0.3476  0.2053 -0.3360
  147ACE     H1 1670   3.325   1.476   1.264  0.1174 -0.0098 -1.7114
  147ACE     H2 1671   3.142   1.457   1.253 -0.1552 -0.2102  0.5406
  147ACE     H3 1672   3.244   1.420   1.108  0.2830  0.8413 -0.2777
  147ACE     H4 1673   3.202   1.112   1.169  1.7109  0.5545 -0.2009
  148ACE     C1 1674   0.435   2.846   0.915 -0.4988  0.8079 -0.2141
  148ACE     C2 1675   0.340   2.961   0.889  0.1049 -0.7660  0.2849
  148ACE     O1 1676   0.360   3.077   0.925  0.4359  0.0059 -0.4257
  148ACE     O2 1677   0.216   2.927   0.848  0.1028 -0.0430 -0.2694
  148ACE     H1 1678   0.527   2.888   0.956  0.4696 -1.6875  0.2343
  148ACE     H2 1679   0.460   2.786   0.827  3.1200 -0.0601  1.3232
  148ACE     H3 1680   0.398   2.767   0.982  0.9106 -0.7081 -1.1819
  148ACE     H4 1681   0.173   3.014   0.837 -2.8404 -1.7438 -3.0970
  149ACE     C1 1682   2.518   2.780   1.519  0.4573  0.1863  0.1687
  149ACE     C2 1683   2.654   2.710   1.502  0.2792 -0.0906 -0.4770
  149ACE     O1 1684   2.664   2.593   1.472  0.1278  0.0224  0.3584
  149ACE     O2 1685   2.763   2.791   1.521 -0.1655 -0.2617  0.2229
  149ACE     H1 1686   2.467   2.728   1.600  0.4350  0.6035  0.4249
  149ACE     H2 1687   2.462   2.751   1.429 -2.9353  2.4912  1.4172
  149ACE     H3 1688   2.509   2.887   1.542 -3.2770 -0.9400  4.6413
  149ACE     H4 1689   2.828   2.718   1.522  1.4814  1.1469 -0.6680
  150ACE     C1 1690   2.618   0.295   0.488  0.1852  0.1009  0.3238
  150ACE     C2 1691   2.746   0.319   0.547  0.5042 -0.0203  0.0290
  150ACE     O1 1692   2.799   0.240   0.620 -0.2917  0.4815 -0.2932
  150ACE     O2 1693   2.804   0.432   0.503 -0.0674  0.2874 -0.3396
  150ACE     H1 1694   2.552   0.346   0.559  0.5308  1.9863 -0.6653
  150ACE     H2 1695   2.576   0.194   0.486 -0.8866  0.5528 -0.0297
  150ACE     H3 1696   2.608   0.349   0.393 -0.0732  1.0983  0.9103
  150ACE     H4 1697   2.882   0.433   0.561 -0.5265 -2.1122  0.3748
  151ACE     C1 1698   0.292   1.237   0.611 -0.4181  0.6894  0.7099
  151ACE     C2 1699   0.321   1.305   0.476 -0.0285 -0.3220  0.5401
  151ACE     O1 1700   0.250   1.388   0.426 -0.1060  0.4328  0.5844
  151ACE     O2 1701   0.401   1.243   0.396 -0.3016  0.0436 -0.0012
  151ACE     H1 1702   0.239   1.311   0.672 -0.6481  0.0740  1.2605
  151ACE     H2 1703   0.382   1.192   0.654  0.4587  1.3127 -0.4287
  151ACE     H3 1704   0.211   1.167   0.587  0.2325 -0.8690  2.9181
  151ACE     H4 1705   0.383   1.282   0.309 -0.2377 -1.9242 -0.9320
  152ACE     C1 1706   1.379   3.090   3.369 -0.6188  0.0040  0.3406
  152ACE     C2 1707   1.364   2.967   3.290  0.3628 -0.3791 -0.2890
  152ACE     O1 1708   1.336   2.864   3.342 -0.0573  0.4558  0.2387
  152ACE     O2 1709   1.441   2.964   3.180  0.2635  0.0075  0.0838
  152ACE     H1 1710   1.439   3.075   3.459 -0.1015  0.6010  0.1008
  152ACE     H2 1711   1.280   3.122   3.404  0.2801  2.7593  0.5451
  152ACE     H3 1712   1.422   3.162   3.299 -0.4770 -0.4146 -0.0047
  152ACE     H4 1713   1.433   2.873   3.147 -2.0005  0.1876  0.0603
  153ACE     C1 1714   0.004   0.674   1.514 -0.4355 -0.0538  0.6656
  153ACE     C2 1715  -0.146   0.669   1.540 -0.3274 -0.1449  0.5959
  153ACE     O1 1716  -0.206   0.769   1.577  0.2073  0.5659  0.3596
  153ACE     O2 1717  -0.214   0.555   1.511  0.3417 -0.3315 -0.3742
  153ACE     H1 1718   0.047   0.605   1.587  0.2776  0.8395  1.1102
  153ACE     H2 1719   0.057   0.770   1.521  1.7718 -1.1853  0.1499
  153ACE     H3 1720   0.032   0.622   1.421 -3.2999 -2.0074  0.8416
  153ACE     H4 1721  -0.304   0.567   1.547 -0.7926 -1.5015 -2.7247
  154ACE     C1 1722   0.871   0.228   0.632 -0.4048  0.2228 -0.0739
  154ACE     C2 1723   0.843   0.324   0.741  0.3069  0.7726  0.2366
  154ACE     O1 1724   0.732   0.326   0.801  0.4008 -0.0853 -0.4208
  154ACE     O2 1725   0.931   0.419   0.755 -0.2157  0.0810  0.4540
  154ACE     H1 1726   0.928   0.271   0.548 -0.4232  3.3013  1.4135
  154ACE     H2 1727   0.778   0.184   0.594  0.9436 -2.8233  0.0166
  154ACE     H3 1728   0.942   0.152   0.665 -0.4309 -0.3331 -1.2468
  154ACE     H4 1729   0.902   0.444   0.845 -0.1859  1.1113  0.1870
  155ACE     C1 1730   3.024   2.327   1.379  0.7321  0.0364  0.3044
  155ACE     C2 1731   2.989   2.302   1.517  0.0725 -0.1709  0.0805
  155ACE     O1 1732   2.984   2.389   1.604  0.6160 -0.2382  0.2536
  155ACE     O2 1733   2.946   2.176   1.541  0.4990 -0.3395 -0.2783
  155ACE     H1 1734   3.000   2.431   1.358 -1.1363 -0.5762 -0.7223
  155ACE     H2 1735   2.995   2.246   1.311  0.3507  1.1813 -0.9146
  155ACE     H3 1736   3.133   2.333   1.364  0.3347  0.8816 -2.4572
  155ACE     H4 1737   2.924   2.182   1.636 -2.8373  0.8121 -1.0583
  156ACE     C1 1738   0.561   0.613   0.610 -0.3550 -0.1313  0.6134
  156ACE     C2 1739   0.553   0.687   0.738  0.3450 -0.3998  0.2985
  156ACE     O1 1740   0.631   0.672   0.834  0.2687 -0.2325 -0.0197
  156ACE     O2 1741   0.463   0.788   0.736  0.0586 -0.1938 -0.1611
  156ACE     H1 1742   0.636   0.680   0.565 -1.1292 -0.1271 -0.6853
  156ACE     H2 1743   0.469   0.628   0.552 -0.4123  0.0641  0.7535
  156ACE     H3 1744   0.590   0.508   0.616 -1.4117 -0.5644 -1.3958
  156ACE     H4 1745   0.453   0.803   0.832  1.4278 -1.2495  0.1579
  157ACE     C1 1746   2.921   3.389   3.575  0.1027  0.1533  1.0860
  157ACE     C2 1747   3.052   3.417   3.514 -0.2769  0.4293  0.3622
  157ACE     O1 1748   3.152   3.349   3.522  0.3271 -0.4907  0.4126
  157ACE     O2 1749   3.058   3.532   3.443  0.5475  0.1651 -0.8395
  157ACE     H1 1750   2.943   3.335   3.668 -0.4560  1.0442  1.7380
  157ACE     H2 1751   2.862   3.330   3.503  1.7335 -1.1077  0.7582
  157ACE     H3 1752   2.861   3.478   3.597 -4.5198 -2.6628  0.6575
  157ACE     H4 1753   3.145   3.540   3.402  0.4088  0.4492 -1.0802
  158ACE     C1 1754   1.553   2.956   1.549 -0.9563  0.2731 -0.7019
  158ACE     C2 1755   1.652   3.078   1.537 -0.6350  0.8306 -0.4519
  158ACE     O1 1756   1.616   3.194   1.515 -0.4785 -0.0081  0.0892
  158ACE     O2 1757   1.779   3.041   1.557 -0.4860 -0.3432  0.1058
  158ACE     H1 1758   1.596   2.865   1.593 -1.7200  1.0147  1.6737
  158ACE     H2 1759   1.537   2.921   1.447  2.7665 -0.5481 -1.0850
  158ACE     H3 1760   1.458   2.991   1.591 -1.0941 -0.1280 -0.6751
  158ACE     H4 1761   1.833   3.120   1.575 -0.4291 -0.1824 -0.7677
  159ACE     C1 1762   1.840   0.643   0.496 -0.1232  0.2507  0.1081
  159ACE     C2 1763   1.837   0.503   0.435  0.5512 -0.2073  0.9494
  159ACE     O1 1764   1.857   0.487   0.315  0.3370 -0.1981  0.3984
  159ACE     O2 1765   1.773   0.408   0.504 -0.6653  0.2308 -0.7185
  159ACE     H1 1766   1.788   0.650   0.592  0.2513  0.3412  0.3081
  159ACE     H2 1767   1.823   0.727   0.427 -1.8961 -0.0425  0.1818
  159ACE     H3 1768   1.945   0.653   0.526 -0.3835 -1.0932  1.5476
  159ACE     H4 1769   1.756   0.360   0.422  0.8222 -0.6665 -0.5359
  160ACE     C1 1770   0.974   2.183   1.052  0.5940 -0.3652 -1.1123
  160ACE     C2 1771   0.834   2.217   1.077 -0.5863 -0.1447  0.5883
  160ACE     O1 1772   0.798   2.330   1.096  0.3711  0.3756  0.4085
  160ACE     O2 1773   0.745   2.127   1.038  0.1177 -0.0657 -0.2106
  160ACE     H1 1774   1.048   2.242   1.108 -0.1163 -0.7444  0.2228
  160ACE     H2 1775   0.982   2.198   0.943 -1.8285  0.4858 -1.1974
  160ACE     H3 1776   0.993   2.076   1.066 -1.5422 -0.2879  2.9653
  160ACE     H4 1777   0.661   2.171   1.059  0.9984  2.0780 -0.9812
  161ACE     C1 1778   0.999   1.116   1.544  0.1193 -0.7164  0.0547
  161ACE     C2 1779   0.963   0.971   1.538 -0.0039 -0.5059  0.4897
  161ACE     O1 1780   0.857   0.924   1.558  0.4757  0.6956 -0.6646
  161ACE     O2 1781   1.063   0.889   1.503  0.6267  0.3433  0.1525
  161ACE     H1 1782   0.972   1.159   1.447  1.6421  2.4239  0.9788
  161ACE     H2 1783   1.107   1.133   1.552  0.3060 -1.7311 -0.1331
  161ACE     H3 1784   0.930   1.167   1.612 -1.6505 -2.5405 -0.2853
  161ACE     H4 1785   1.028   0.803   1.530  1.3517  0.7163  2.4299
  162ACE     C1 1786   1.588   0.471   1.538 -0.2790  0.7478 -0.2504
  162ACE     C2 1787   1.457   0.485   1.474 -0.0496  0.1908  0.4883
  162ACE     O1 1788   1.386   0.581   1.487 -0.2389 -0.7228  0.1180
  162ACE     O2 1789   1.412   0.376   1.418 -0.1535 -0.6703  0.2308
  162ACE     H1 1790   1.580   0.404   1.624  2.9820 -2.6855 -2.4515
  162ACE     H2 1791   1.645   0.561   1.564  2.0960 -1.0445  0.9388
  162ACE     H3 1792   1.649   0.405   1.475 -1.0176  1.2794 -1.5319
  162ACE     H4 1793   1.324   0.405   1.389  0.4038  0.7965 -0.0816
  163ACE     C1 1794   0.788   1.710   0.605  0.3787  0.0638 -0.1933
  163ACE     C2 1795   0.695   1.790   0.707 -0.3948  1.1369 -0.0490
  163ACE     O1 1796   0.619   1.739   0.790 -0.5032  0.6357  0.3197
  163ACE     O2 1797   0.724   1.922   0.724 -0.2743 -1.2486  0.3334
  163ACE     H1 1798   0.876   1.772   0.580  2.3055 -2.9197 -1.0251
  163ACE     H2 1799   0.745   1.705   0.505  0.2215  0.7691 -0.1665
  163ACE     H3 1800   0.822   1.614   0.646  2.1291  0.2713 -1.0808
  163ACE     H4 1801   0.653   1.948   0.785  0.7630 -0.1565  1.0900
  164ACE     C1 1802   0.306   1.696   0.536 -0.2703 -0.5009  0.2453
  164ACE     C2 1803   0.388   1.749   0.420  1.0521 -0.1982 -0.2812
  164ACE     O1 1804   0.506   1.720   0.396  0.1254  0.2926 -0.3462
  164ACE     O2 1805   0.344   1.874   0.378  0.2841 -0.5350  0.0972
  164ACE     H1 1806   0.237   1.771   0.576  1.4233  1.0155  0.4060
  164ACE     H2 1807   0.367   1.656   0.619 -1.0376 -1.1809  0.4883
  164ACE     H3 1808   0.252   1.612   0.491  2.3016 -1.4226 -1.1902
  164ACE     H4 1809   0.412   1.908   0.317 -2.3084 -0.6363 -3.0268
  165ACE     C1 1810   1.942   1.037   0.811 -0.2884  0.0961  0.1773
  165ACE     C2 1811   1.798   1.014   0.756 -0.4428  0.2957  0.0417
  165ACE     O1 1812   1.716   0.962   0.826  0.2166 -0.3166  0.1247
  165ACE     O2 1813   1.795   1.006   0.622  0.0762 -0.0798  0.0358
  165ACE     H1 1814   1.952   1.019   0.919 -0.6223 -2.1427 -0.1480
  165ACE     H2 1815   1.981   1.131   0.771 -0.0780 -0.4249 -0.8600
  165ACE     H3 1816   2.001   0.960   0.759  1.3590 -0.1251  2.3087
  165ACE     H4 1817   1.722   0.941   0.617  0.2861 -0.2632 -0.8556
  166ACE     C1 1818   0.488   2.366   0.934 -0.1729 -1.0187  0.0447
  166ACE     C2 1819   0.478   2.344   1.082 -0.4483  0.5186 -0.6381
  166ACE     O1 1820   0.513   2.240   1.145  0.3059 -0.5872 -0.4927
  166ACE     O2 1821   0.417   2.441   1.145 -0.1142  0.5119 -0.2501
  166ACE     H1 1822   0.408   2.429   0.894  0.8734  0.2681 -0.0484
  166ACE     H2 1823   0.516   2.268   0.893 -0.2895 -0.6288 -0.9916
  166ACE     H3 1824   0.575   2.431   0.919 -0.2959 -0.5335  1.3397
  166ACE     H4 1825   0.400   2.408   1.235  0.7684 -2.3316 -1.0559
  167ACE     C1 1826   0.866   0.113   2.965 -0.5753 -0.2862  0.1540
  167ACE     C2 1827   0.791  -0.019   2.928 -0.0828  0.1027  0.0851
  167ACE     O1 1828   0.840  -0.129   2.941 -0.2152 -0.1922 -0.1348
  167ACE     O2 1829   0.696  -0.007   2.832  0.1812 -0.8441  0.2001
  167ACE     H1 1830   0.789   0.191   2.965 -0.6375 -0.3445 -0.3099
  167ACE     H2 1831   0.936   0.141   2.886  1.4007  0.5034  2.1481
  167ACE     H3 1832   0.936   0.099   3.047  0.4767 -0.1392 -0.7065
  167ACE     H4 1833   0.678  -0.099   2.804  3.7242 -1.3145 -0.7725
  168ACE     C1 1834   2.048   0.139   0.386 -0.5670  0.7297  0.1149
  168ACE     C2 1835   2.102   0.153   0.249 -0.4182  0.4874  0.2199
  168ACE     O1 1836   2.219   0.168   0.224  1.0786  0.5748 -0.1925
  168ACE     O2 1837   2.014   0.116   0.157  0.8903 -0.6200  0.3220
  168ACE     H1 1838   1.959   0.200   0.405 -1.9956 -0.9249 -1.1358
  168ACE     H2 1839   2.124   0.161   0.462 -0.6784  0.0660  0.4209
  168ACE     H3 1840   2.004   0.039   0.395 -0.0733  0.4512 -0.4732
  168ACE     H4 1841   2.064   0.095   0.077  0.6710 -0.6191  0.1829
  169ACE     C1 1842   0.248   2.135   0.657 -0.4387 -0.2252 -0.8235
  169ACE     C2 1843   0.231   2.197   0.522 -0.4900 -0.1225 -0.0510
  169ACE     O1 1844   0.128   2.198   0.461 -0.0412 -0.3132  0.6287
  169ACE     O2 1845   0.331   2.275   0.490 -0.4201  0.4061  0.0964
  169ACE     H1 1846   0.163   2.069   0.680 -0.2865  0.9063  3.4121
  169ACE     H2 1847   0.228   2.225   0.716 -0.9152 -1.9784  1.7614
  169ACE     H3 1848   0.352   2.103   0.668 -0.5547  0.0404  1.1090
  169ACE     H4 1849   0.309   2.297   0.398 -0.1814 -1.7783 -0.4984
  170ACE     C1 1850   2.717   0.731   1.181  0.1749  0.4008  0.0217
  170ACE     C2 1851   2.703   0.583   1.213 -0.4416  0.9235  0.1501
  170ACE     O1 1852   2.590   0.536   1.237  0.3810  0.4043 -0.1493
  170ACE     O2 1853   2.802   0.508   1.171  0.5568  0.3669  0.8585
  170ACE     H1 1854   2.785   0.771   1.257 -0.2491  0.3624  0.4234
  170ACE     H2 1855   2.625   0.791   1.184 -0.4207 -0.5060  0.3163
  170ACE     H3 1856   2.765   0.746   1.084 -0.1341 -0.2026 -0.2280
  170ACE     H4 1857   2.774   0.415   1.178  0.8160  0.1530 -0.7054
  171ACE     C1 1858   0.692   3.420   0.874  0.2243  0.0738  0.1450
  171ACE     C2 1859   0.610   3.298   0.898  0.1271 -0.2121  0.0607
  171ACE     O1 1860   0.647   3.191   0.862  0.6879  0.4130 -0.2168
  171ACE     O2 1861   0.484   3.311   0.941  0.0597  0.1516  0.1445
  171ACE     H1 1862   0.686   3.483   0.964 -0.1255  1.5152 -0.8842
  171ACE     H2 1863   0.631   3.481   0.808  0.8191 -0.8019 -1.2271
  171ACE     H3 1864   0.791   3.395   0.835 -1.1680 -2.6562 -1.7858
  171ACE     H4 1865   0.448   3.221   0.931  1.8675 -0.5368 -0.4117
  172ACE     C1 1866   1.801   3.396   0.684  0.0052  0.6340  0.2727
  172ACE     C2 1867   1.861   3.398   0.826 -0.6767 -0.2406  0.0941
  172ACE     O1 1868   1.807   3.380   0.932 -0.2131 -0.4560  0.5431
  172ACE     O2 1869   1.988   3.443   0.836  0.0329  0.1807  0.3593
  172ACE     H1 1870   1.691   3.398   0.686 -0.0187  0.2497 -0.5514
  172ACE     H2 1871   1.823   3.298   0.639  0.0427  1.2241 -1.0383
  172ACE     H3 1872   1.850   3.471   0.620  1.5695  0.4946  1.2886
  172ACE     H4 1873   2.003   3.420   0.929 -2.9334 -2.0686  0.3553
  173ACE     C1 1874   1.478   1.673   1.575 -0.2545 -0.2945  0.0818
  173ACE     C2 1875   1.418   1.531   1.585 -0.1691 -0.6991 -0.5008
  173ACE     O1 1876   1.487   1.426   1.604  0.2475 -0.0395  0.0598
  173ACE     O2 1877   1.286   1.522   1.567  0.3878  0.3810  0.1295
  173ACE     H1 1878   1.493   1.697   1.469 -2.0996  2.3432  0.3769
  173ACE     H2 1879   1.576   1.668   1.623  0.3050  0.2724 -0.9759
  173ACE     H3 1880   1.416   1.752   1.617 -1.4179 -1.9464  1.5620
  173ACE     H4 1881   1.275   1.427   1.585  0.4331 -0.1261 -2.3481
  174ACE     C1 1882   0.790   1.481   3.329 -0.3101 -0.3066  0.2834
  174ACE     C2 1883   0.819   1.471   3.479 -0.7708  0.1143 -0.4890
  174ACE     O1 1884   0.908   1.402   3.520  0.8789 -0.3181 -0.3643
  174ACE     O2 1885   0.744   1.530   3.569  0.2888 -0.3105  0.1689
  174ACE     H1 1886   0.868   1.437   3.266  0.0203 -0.1455  0.5832
  174ACE     H2 1887   0.760   1.580   3.294 -2.0967 -0.3782  1.4914
  174ACE     H3 1888   0.691   1.434   3.318  0.7841 -2.4729 -0.5287
  174ACE     H4 1889   0.775   1.489   3.651 -0.8966 -0.7617  0.4029
  175ACE     C1 1890   1.175   1.685   1.258 -0.5144 -0.0468  0.0656
  175ACE     C2 1891   1.211   1.832   1.294 -0.0621 -1.0373  0.5705
  175ACE     O1 1892   1.328   1.863   1.277  0.1118 -0.6055 -0.0240
  175ACE     O2 1893   1.114   1.918   1.257 -0.4152 -0.0923 -0.2118
  175ACE     H1 1894   1.216   1.650   1.162 -0.3131 -0.0128  0.1394
  175ACE     H2 1895   1.067   1.664   1.261 -0.2956 -0.9378  1.7538
  175ACE     H3 1896   1.220   1.630   1.341 -0.2095 -0.5014 -0.3909
  175ACE     H4 1897   1.166   2.000   1.258 -0.5807  0.0300  1.7589
  176ACE     C1 1898   2.892   2.074   1.021 -0.4001  0.2515 -0.2395
  176ACE     C2 1899   3.040   2.097   1.016 -0.1808 -0.1175 -0.4439
  176ACE     O1 1900   3.110   2.111   1.113 -0.0355  0.3622  0.3022
  176ACE     O2 1901   3.085   2.137   0.892  0.0712  0.2249 -0.5367
  176ACE     H1 1902   2.877   1.995   1.095 -1.8983 -0.5479 -1.3585
  176ACE     H2 1903   2.863   2.050   0.918  3.6981 -3.6167 -0.6616
  176ACE     H3 1904   2.833   2.161   1.051 -0.0958  0.5342 -0.4492
  176ACE     H4 1905   3.175   2.171   0.906  0.6460 -1.2570 -0.5583
  177ACE     C1 1906   2.471   0.961   3.735  0.6387 -0.0792 -0.1271
  177ACE     C2 1907   2.394   1.010   3.862 -0.0533  0.4880  0.0491
  177ACE     O1 1908   2.425   1.111   3.921  0.3130 -0.0445  0.6373
  177ACE     O2 1909   2.267   0.961   3.868 -0.4883  0.3701 -0.2515
  177ACE     H1 1910   2.421   1.020   3.657  1.5433  1.5837  0.5085
  177ACE     H2 1911   2.463   0.853   3.721 -1.2051 -0.0008  0.2659
  177ACE     H3 1912   2.575   0.997   3.741  0.6236  0.0114 -0.4431
  177ACE     H4 1913   2.238   0.992   3.956  1.1628  1.3117 -0.0233
  178ACE     C1 1914   0.677   2.661   1.147 -0.0833 -1.0498  0.0909
  178ACE     C2 1915   0.819   2.628   1.112 -0.0550  0.5562 -0.4413
  178ACE     O1 1916   0.917   2.669   1.170  0.4653 -0.3412  0.1987
  178ACE     O2 1917   0.818   2.628   0.978 -0.0326 -0.1758 -0.0221
  178ACE     H1 1918   0.623   2.683   1.054 -1.5343  0.7375  1.3299
  178ACE     H2 1919   0.670   2.743   1.219  0.8543  1.1684 -2.2662
  178ACE     H3 1920   0.613   2.581   1.185 -0.9452  0.1255  1.1448
  178ACE     H4 1921   0.914   2.636   0.965 -0.2143  1.1925 -0.5067
  179ACE     C1 1922   2.076   1.575   0.664  0.3724  0.2166 -0.1875
  179ACE     C2 1923   2.112   1.704   0.747 -0.1211  0.5846  0.7085
  179ACE     O1 1924   2.032   1.767   0.816  0.1457 -0.0825 -0.2162
  179ACE     O2 1925   2.231   1.756   0.719 -0.3664  0.5388 -0.2323
  179ACE     H1 1926   2.078   1.608   0.560 -0.7906  0.3410 -0.1754
  179ACE     H2 1927   1.974   1.539   0.684  0.9558 -0.3738  1.9187
  179ACE     H3 1928   2.160   1.505   0.663 -1.4099 -1.9565 -0.4523
  179ACE     H4 1929   2.272   1.708   0.645  1.2667  1.5758 -0.0327
  180ACE     C1 1930   2.600   1.461   1.568  0.2429  0.4140 -0.8112
  180ACE     C2 1931   2.710   1.352   1.572 -0.5834  0.4776  0.1474
  180ACE     O1 1932   2.823   1.364   1.606 -0.2205  0.0422  0.3056
  180ACE     O2 1933   2.660   1.230   1.548  0.1734 -0.6436 -0.1875
  180ACE     H1 1934   2.573   1.481   1.463 -0.0931 -2.0465 -1.2474
  180ACE     H2 1935   2.620   1.551   1.625  2.1196 -0.2528 -0.3932
  180ACE     H3 1936   2.505   1.422   1.608  0.8281  0.8175  0.9728
  180ACE     H4 1937   2.732   1.167   1.532 -0.2008 -1.1886  0.2435
  181ACE     C1 1938   2.050   2.620   1.045 -0.1224  0.3706 -0.0065
  181ACE     C2 1939   1.984   2.745   1.102  0.5251  0.0497 -0.4360
  181ACE     O1 1940   1.885   2.797   1.048 -0.0661  0.2868  0.2211
  181ACE     O2 1941   2.034   2.785   1.220 -0.5121  0.0507  0.5391
  181ACE     H1 1942   2.155   2.646   1.024 -0.2462  1.1696  0.3626
  181ACE     H2 1943   1.989   2.581   0.962 -0.9462 -3.2491  2.1713
  181ACE     H3 1944   2.054   2.549   1.129  1.0725  1.6535  1.0297
  181ACE     H4 1945   1.984   2.867   1.236 -1.2073 -0.6460  2.0505
  182ACE     C1 1946   1.778   2.553   1.497  0.4578 -0.8015 -0.3718
  182ACE     C2 1947   1.778   2.702   1.465  0.5310  0.4270 -0.0687
  182ACE     O1 1948   1.708   2.756   1.382  0.0083  0.2037 -0.0579
  182ACE     O2 1949   1.858   2.769   1.549  0.0773 -0.1263  0.1429
  182ACE     H1 1950   1.787   2.551   1.606 -1.4782  0.4370 -0.1667
  182ACE     H2 1951   1.872   2.505   1.468  0.0662 -0.2811 -2.6778
  182ACE     H3 1952   1.689   2.511   1.449 -0.4140  1.1459 -0.5188
  182ACE     H4 1953   1.837   2.863   1.538  1.4179  0.2123  0.3459
  183ACE     C1 1954   2.228   0.873   0.542 -0.1163  0.3320  0.4984
  183ACE     C2 1955   2.363   0.913   0.504  0.1879 -0.0772 -0.3315
  183ACE     O1 1956   2.448   0.936   0.589  0.4096  0.3707 -0.3443
  183ACE     O2 1957   2.386   0.936   0.373 -0.3413 -0.9703 -0.7125
  183ACE     H1 1958   2.174   0.841   0.453  0.0508 -0.6350  0.7455
  183ACE     H2 1959   2.165   0.952   0.586  0.8768  0.4511  1.7272
  183ACE     H3 1960   2.238   0.794   0.617  0.8952  0.5698  0.6307
  183ACE     H4 1961   2.473   0.980   0.380 -1.3912  1.0715 -0.1032
  184ACE     C1 1962   2.367   0.105   0.734  0.2791  0.2909  0.0737
  184ACE     C2 1963   2.501   0.095   0.799 -0.6578 -0.0446  0.1223
  184ACE     O1 1964   2.580   0.187   0.801 -0.1455  0.6431 -0.1297
  184ACE     O2 1965   2.538  -0.029   0.824  0.3455 -0.4739  0.3592
  184ACE     H1 1966   2.294   0.077   0.811 -0.3763  0.6839 -0.3980
  184ACE     H2 1967   2.354   0.029   0.656 -1.5074  0.8630 -0.2048
  184ACE     H3 1968   2.342   0.206   0.702 -1.8020  0.1910  1.2706
  184ACE     H4 1969   2.628  -0.008   0.852 -0.4980  2.1369  1.2758
  185ACE     C1 1970   0.778   1.060   1.235  0.5248  0.4567 -0.5947
  185ACE     C2 1971   0.826   1.202   1.206  0.8320  0.0147  0.2323
  185ACE     O1 1972   0.767   1.306   1.229 -0.4306 -0.6515  0.7930
  185ACE     O2 1973   0.939   1.207   1.139  0.6391  0.7287 -0.2555
  185ACE     H1 1974   0.672   1.070   1.262  0.4694  3.6275 -1.8178
  185ACE     H2 1975   0.847   1.025   1.312  0.3908 -2.7964 -1.8556
  185ACE     H3 1976   0.801   0.991   1.153 -0.6179 -1.0544  0.3312
  185ACE     H4 1977   0.948   1.303   1.125  1.0988  0.8930  1.0731
  186ACE     C1 1978   0.982   1.760   0.182  0.0072  0.5932  0.1027
  186ACE     C2 1979   1.073   1.688   0.289  0.1039  0.1836 -0.1217
  186ACE     O1 1980   1.034   1.656   0.395 -0.4038  0.0891 -0.2400
  186ACE     O2 1981   1.202   1.714   0.273  0.0077  0.0855 -0.3491
  186ACE     H1 1982   0.968   1.683   0.106 -2.0175 -0.3342  1.3501
  186ACE     H2 1983   1.037   1.841   0.134  3.2183 -0.4445  1.8835
  186ACE     H3 1984   0.886   1.784   0.230  0.5567 -0.8496  1.9938
  186ACE     H4 1985   1.223   1.701   0.367 -0.7553 -0.5499 -0.2581
  187ACE     C1 1986   0.856   2.441   1.500 -0.6201 -0.1017  0.2287
  187ACE     C2 1987   0.769   2.556   1.526  0.6602 -0.8999  0.5406
  187ACE     O1 1988   0.648   2.557   1.522 -0.4621 -0.1122  0.9537
  187ACE     O2 1989   0.819   2.675   1.559  0.1836  0.2142  0.5120
  187ACE     H1 1990   0.947   2.469   1.554  0.2251  0.2980 -1.4068
  187ACE     H2 1991   0.882   2.434   1.394 -0.2122  0.7340  0.2732
  187ACE     H3 1992   0.813   2.345   1.533 -0.0424 -0.2422  0.5743
  187ACE     H4 1993   0.739   2.724   1.585 -0.1430  0.8198 -1.5639
  188ACE     C1 1994   2.177   1.504   3.735 -0.2630 -0.2635  0.2878
  188ACE     C2 1995   2.253   1.374   3.742 -0.7674  0.0160 -0.0146
  188ACE     O1 1996   2.267   1.285   3.656 -0.0536 -0.3069  0.7293
  188ACE     O2 1997   2.323   1.370   3.854 -0.5067  0.0698  0.7002
  188ACE     H1 1998   2.243   1.592   3.731  0.4339 -0.7031  1.7967
  188ACE     H2 1999   2.116   1.513   3.826 -0.1030  0.4582  0.3303
  188ACE     H3 2000   2.117   1.502   3.643 -0.2456  0.2884  0.2587
  188ACE     H4 2001   2.356   1.279   3.844 -0.8965  0.2035 -2.5119
  189ACE     C1 2002   1.363   2.314   3.775  0.0479 -0.1336  0.7545
  189ACE     C2 2003   1.313   2.191   3.706 -0.4958  0.3255 -0.4627
  189ACE     O1 2004   1.292   2.094   3.769 -0.0323  0.0320  0.0908
  189ACE     O2 2005   1.310   2.179   3.576 -0.6779 -0.3630  0.4565
  189ACE     H1 2006   1.369   2.388   3.694 -0.6989  0.8020  1.5292
  189ACE     H2 2007   1.466   2.299   3.810  0.9529  0.9371 -1.3692
  189ACE     H3 2008   1.300   2.344   3.860  1.3139  0.8918  1.3582
  189ACE     H4 2009   1.247   2.106   3.563 -0.9701  0.5082 -3.4763
  190ACE     C1 2010   3.229   2.733   0.359  0.1665  0.1450  0.5190
  190ACE     C2 2011   3.302   2.714   0.223  0.0525  0.5626 -0.3732
  190ACE     O1 2012   3.263   2.649   0.135  0.0292 -0.4021  0.1028
  190ACE     O2 2013   3.410   2.780   0.212  0.1157  0.0937 -0.0025
  190ACE     H1 2014   3.306   2.708   0.433  0.7207 -0.2375 -0.1859
  190ACE     H2 2015   3.151   2.658   0.377 -0.5992  1.0261  0.9245
  190ACE     H3 2016   3.215   2.841   0.372  0.8429  0.0690  1.9333
  190ACE     H4 2017   3.444   2.759   0.124  1.2069 -0.6311  0.5786
  191ACE     C1 2018   0.254   0.934   3.757  0.6571  0.2020 -0.0982
  191ACE     C2 2019   0.286   1.083   3.730  0.1977  0.5581 -0.3622
  191ACE     O1 2020   0.389   1.131   3.765  0.4536  0.3252  0.0326
  191ACE     O2 2021   0.187   1.154   3.672  0.0703 -0.3293 -0.2299
  191ACE     H1 2022   0.338   0.883   3.804 -0.5168 -0.4710  1.2923
  191ACE     H2 2023   0.222   0.892   3.660  2.7906 -0.7214 -0.4261
  191ACE     H3 2024   0.156   0.927   3.806  0.3368  0.6807 -0.6625
  191ACE     H4 2025   0.226   1.242   3.659  0.4507 -0.4674 -0.0142
  192ACE     C1 2026   2.217   0.969   3.445  0.0510  0.4503 -0.0246
  192ACE     C2 2027   2.315   0.853   3.448  0.8870 -0.7072 -0.1338
  192ACE     O1 2028   2.430   0.861   3.405 -0.5650 -0.1810  0.4259
  192ACE     O2 2029   2.261   0.737   3.478 -0.1674  0.3896 -0.2358
  192ACE     H1 2030   2.236   1.020   3.540 -0.3644 -0.0788  0.3415
  192ACE     H2 2031   2.113   0.936   3.450  1.0821 -2.7258  3.3286
  192ACE     H3 2032   2.237   1.032   3.358 -0.1914  1.0433  0.3416
  192ACE     H4 2033   2.331   0.673   3.459 -1.5500 -0.7486 -1.7227
  193ACE     C1 2034   2.778   2.146   3.400 -0.2752 -0.2254 -0.0122
  193ACE     C2 2035   2.750   2.274   3.321  0.7173  0.6087 -0.0939
  193ACE     O1 2036   2.672   2.267   3.221 -0.9463  0.3210 -0.3833
  193ACE     O2 2037   2.741   2.380   3.399  0.0280  0.0816  0.0810
  193ACE     H1 2038   2.805   2.062   3.335  0.4374  1.6670 -2.2064
  193ACE     H2 2039   2.687   2.106   3.446  0.2902 -4.1541 -2.1299
  193ACE     H3 2040   2.860   2.158   3.472  0.4013  1.1653 -0.9807
  193ACE     H4 2041   2.704   2.449   3.341  0.1712 -0.2719 -0.4331
  194ACE     C1 2042   2.537   0.657   0.863  0.5093 -0.1086 -0.0209
  194ACE     C2 2043   2.530   0.518   0.840 -0.1773 -0.1450  0.2312
  194ACE     O1 2044   2.449   0.478   0.757 -0.3964 -0.2726 -0.6518
  194ACE     O2 2045   2.620   0.443   0.905  0.6038  0.1083 -0.0160
  194ACE     H1 2046   2.480   0.712   0.787  1.8016 -1.0865 -1.7233
  194ACE     H2 2047   2.642   0.684   0.876  0.8126 -0.3225 -1.9639
  194ACE     H3 2048   2.487   0.673   0.959  0.2291  0.5515 -0.2736
  194ACE     H4 2049   2.617   0.360   0.855 -1.3105  1.0172 -1.4632
  195ACE     C1 2050   2.835   2.368   0.555  0.6596 -0.5130  0.9866
  195ACE     C2 2051   2.971   2.410   0.601 -0.6625  0.1502  0.1309
  195ACE     O1 2052   3.003   2.524   0.632  0.0322  0.3727  0.4895
  195ACE     O2 2053   3.065   2.316   0.580  0.0019  0.4539  0.4809
  195ACE     H1 2054   2.837   2.344   0.448 -3.5780  1.5122  0.3395
  195ACE     H2 2055   2.752   2.439   0.566 -1.2326 -2.5253  0.1649
  195ACE     H3 2056   2.800   2.268   0.583 -1.6094  0.0882  0.4247
  195ACE     H4 2057   3.146   2.369   0.577  0.8147 -0.8120 -2.7335
  196ACE     C1 2058   0.611   3.112   0.094 -0.4714 -1.0461  0.2851
  196ACE     C2 2059   0.555   3.226   0.009 -0.0229 -0.3521 -0.0722
  196ACE     O1 2060   0.453   3.287   0.041  0.9214  0.7308 -0.2132
  196ACE     O2 2061   0.625   3.267  -0.102 -0.1303 -0.2282  0.5427
  196ACE     H1 2062   0.695   3.150   0.153 -1.6585  0.2402  1.1750
  196ACE     H2 2063   0.644   3.040   0.019 -2.2918 -2.1451  0.5134
  196ACE     H3 2064   0.538   3.084   0.170 -1.3178  3.3146  1.2115
  196ACE     H4 2065   0.561   3.322  -0.149 -1.0317  0.7967  2.8825
  197ACE     C1 2066   0.966   0.511   0.332  0.6633  0.1804 -0.6762
  197ACE     C2 2067   0.945   0.645   0.417  0.2541  0.4333  0.0712
  197ACE     O1 2068   1.011   0.666   0.516  0.1598  0.1830 -1.0319
  197ACE     O2 2069   0.829   0.710   0.391 -0.7708  0.0078  0.3332
  197ACE     H1 2070   1.064   0.509   0.283  2.3352 -0.9062  2.5601
  197ACE     H2 2071   0.886   0.498   0.258 -1.8173  0.0829  1.9544
  197ACE     H3 2072   0.967   0.423   0.398 -0.9127 -0.3246 -1.3039
  197ACE     H4 2073   0.837   0.784   0.453 -0.0588 -1.2082  1.7314
  198ACE     C1 2074   1.374   0.128   0.725  0.7782  0.0517 -0.4077
  198ACE     C2 2075   1.327   0.103   0.575 -0.2039 -0.7258 -0.6385
  198ACE     O1 2076   1.398   0.053   0.495 -0.1815 -0.2042 -0.1705
  198ACE     O2 2077   1.194   0.107   0.559 -0.1873  0.0492  0.6893
  198ACE     H1 2078   1.361   0.035   0.782 -0.6721  1.6878  1.9902
  198ACE     H2 2079   1.307   0.192   0.783  0.9867  0.1084 -0.2289
  198ACE     H3 2080   1.475   0.167   0.739  0.7158  0.5424 -1.2799
  198ACE     H4 2081   1.184   0.082   0.466  1.2498  1.4061  0.1632
  199ACE     C1 2082   2.142   2.618   1.514  0.5256 -0.2598 -0.1647
  199ACE     C2 2083   2.253   2.536   1.463  0.0374 -0.3852 -0.5975
  199ACE     O1 2084   2.255   2.494   1.353  0.1282  0.6829  0.6097
  199ACE     O2 2085   2.330   2.480   1.563  0.9084 -0.2977 -0.3423
  199ACE     H1 2086   2.189   2.684   1.588  1.4580 -0.2261 -0.7885
  199ACE     H2 2087   2.072   2.556   1.571  0.9841  1.3784  2.2855
  199ACE     H3 2088   2.087   2.671   1.435  1.9496  0.2327 -0.8289
  199ACE     H4 2089   2.395   2.427   1.513  1.7149  0.5360 -0.1813
  200ACE     C1 2090   1.759   1.936   0.640  0.0925 -0.1677 -0.0298
  200ACE     C2 2091   1.717   1.827   0.553  0.0571  0.3973  0.3885
  200ACE     O1 2092   1.602   1.806   0.535 -0.1875  0.6095 -0.1612
  200ACE     O2 2093   1.808   1.753   0.496 -0.6232 -0.2278  0.1913
  200ACE     H1 2094   1.780   2.023   0.577  0.7851  0.1205  0.6058
  200ACE     H2 2095   1.850   1.906   0.693  0.1257  1.9512  1.1702
  200ACE     H3 2096   1.682   1.964   0.713  0.4231 -1.9276  1.0287
  200ACE     H4 2097   1.747   1.701   0.442 -0.1954  1.4700 -1.9991
  201ACE     C1 2098   0.611   0.226   1.179 -0.0093  0.4011  0.1215
  201ACE     C2 2099   0.546   0.335   1.256 -0.3113 -0.0726  1.4950
  201ACE     O1 2100   0.430   0.357   1.272  0.1427  0.0823  0.2780
  201ACE     O2 2101   0.641   0.402   1.322  0.0681  0.2239 -0.2253
  201ACE     H1 2102   0.538   0.182   1.110  1.9372 -1.4671 -0.8189
  201ACE     H2 2103   0.669   0.158   1.243 -2.3145 -3.1033 -1.3688
  201ACE     H3 2104   0.690   0.277   1.122  1.2518 -0.3953  1.1149
  201ACE     H4 2105   0.589   0.467   1.373 -1.7260 -1.0963 -0.3187
  202ACE     C1 2106   1.535   3.222   0.326 -0.3268 -0.5652 -0.1080
  202ACE     C2 2107   1.664   3.144   0.351 -0.7005 -0.5202 -0.2801
  202ACE     O1 2108   1.772   3.194   0.369  0.4327 -0.3437  0.1220
  202ACE     O2 2109   1.642   3.013   0.361 -0.2410  0.1100  0.4199
  202ACE     H1 2110   1.497   3.247   0.426  0.3998 -1.3338  0.3709
  202ACE     H2 2111   1.448   3.174   0.279 -1.6857  1.7006  0.0017
  202ACE     H3 2112   1.553   3.321   0.284  0.5321 -0.2091  1.0607
  202ACE     H4 2113   1.715   2.978   0.415  1.3213 -1.1163 -2.3703
  203ACE     C1 2114   0.953   2.979   1.476  0.0496  0.4992  0.6595
  203ACE     C2 2115   1.055   3.090   1.493 -0.7423 -0.3440  0.4671
  203ACE     O1 2116   1.029   3.204   1.478 -0.1431  0.6370 -0.4064
  203ACE     O2 2117   1.165   3.050   1.554 -0.0792  1.0022 -0.3880
  203ACE     H1 2118   0.982   2.884   1.523  1.5039 -0.0077 -1.1833
  203ACE     H2 2119   0.942   2.961   1.368 -0.0064 -0.6457  0.8442
  203ACE     H3 2120   0.856   3.015   1.512  1.1616  2.8960  1.3758
  203ACE     H4 2121   1.205   3.137   1.568 -0.3601  0.6575  2.9289
  204ACE     C1 2122   2.186   0.761   1.190  0.0865  0.1075 -0.5784
  204ACE     C2 2123   2.078   0.687   1.117  0.0701  0.3676  0.0312
  204ACE     O1 2124   1.993   0.624   1.177 -0.1433  0.0716  0.6626
  204ACE     O2 2125   2.101   0.660   0.986 -0.1998 -0.6422  0.4811
  204ACE     H1 2126   2.196   0.866   1.163  0.2062  0.2192 -0.0970
  204ACE     H2 2127   2.284   0.717   1.169 -0.6043 -0.7346 -2.0972
  204ACE     H3 2128   2.180   0.743   1.298 -0.8293  2.1045 -0.2801
  204ACE     H4 2129   2.032   0.595   0.965 -0.9630 -0.1125  1.3456
  205ACE     C1 2130   0.117   3.352   0.700 -0.8501  0.1574 -0.0613
  205ACE     C2 2131   0.029   3.226   0.689  0.3928 -0.0578  0.4954
  205ACE     O1 2132  -0.081   3.229   0.637 -0.6330 -0.0478 -0.1675
  205ACE     O2 2133   0.050   3.152   0.797  0.1715  0.3609  0.2548
  205ACE     H1 2134   0.076   3.420   0.776  0.1073 -1.8436  2.2992
  205ACE     H2 2135   0.132   3.403   0.604 -4.3140  1.4975  0.0133
  205ACE     H3 2136   0.215   3.320   0.736 -1.2110 -0.1638  0.6479
  205ACE     H4 2137  -0.038   3.113   0.811 -0.7975  1.5656 -2.1679
  206ACE     C1 2138   1.396   3.424   3.654  0.1481 -0.2485  0.5933
  206ACE     C2 2139   1.381   3.545   3.568  0.3963  0.0473  0.5850
  206ACE     O1 2140   1.277   3.577   3.522  0.4680 -0.0370  0.0635
  206ACE     O2 2141   1.481   3.633   3.593 -0.1025 -1.0399  0.1502
  206ACE     H1 2142   1.426   3.446   3.757  0.4550 -3.1401  1.1611
  206ACE     H2 2143   1.485   3.375   3.612 -0.8075  0.0072 -1.7920
  206ACE     H3 2144   1.311   3.356   3.650 -0.1277  0.0620  1.1086
  206ACE     H4 2145   1.444   3.714   3.554 -1.1867 -1.8208 -0.4787
  207ACE     C1 2146   1.169   1.385   0.594  1.0109 -0.4288  0.2085
  207ACE     C2 2147   1.142   1.328   0.726 -0.4285  0.0488 -0.1149
  207ACE     O1 2148   1.107   1.392   0.826  0.2521 -0.2522 -0.0322
  207ACE     O2 2149   1.151   1.195   0.732  0.1131  0.8742  0.4026
  207ACE     H1 2150   1.174   1.494   0.592 -3.0965 -0.1526  0.1691
  207ACE     H2 2151   1.097   1.339   0.525 -0.5579 -1.2632  2.3323
  207ACE     H3 2152   1.267   1.352   0.558  0.4537 -2.0024  0.0509
  207ACE     H4 2153   1.132   1.184   0.827 -0.0566 -0.2819  0.2410
  208ACE     C1 2154   0.787   0.969   0.807 -0.3457 -0.1713 -0.5247
  208ACE     C2 2155   0.840   0.882   0.698  0.9119 -0.2044 -0.0731
  208ACE     O1 2156   0.844   0.908   0.578  0.1387  0.1622 -0.3792
  208ACE     O2 2157   0.924   0.785   0.746 -0.2933  0.2943 -0.0313
  208ACE     H1 2158   0.851   1.057   0.817 -0.9679  0.5592 -2.5296
  208ACE     H2 2159   0.789   0.908   0.898  0.5036 -0.3091 -0.6331
  208ACE     H3 2160   0.685   1.002   0.781 -0.7953 -1.8342 -0.9489
  208ACE     H4 2161   0.956   0.738   0.668 -1.1293  0.6494 -0.6036
  209ACE     C1 2162   0.965   0.049   0.142  0.1572  0.2270  0.1736
  209ACE     C2 2163   1.056   0.153   0.193 -0.2217  0.2176  0.2825
  209ACE     O1 2164   1.148   0.125   0.273 -0.0562 -0.2338 -0.4045
  209ACE     O2 2165   1.066   0.268   0.122 -0.0614  0.5576  0.0723
  209ACE     H1 2166   1.002  -0.054   0.136 -0.1841  0.0861  0.4306
  209ACE     H2 2167   0.933   0.082   0.043 -0.8528 -0.3481  0.3001
  209ACE     H3 2168   0.869   0.051   0.195 -0.1912 -0.4687 -0.4144
  209ACE     H4 2169   1.146   0.304   0.164 -0.6645 -0.2842  2.0065
  210ACE     C1 2170   1.824   2.700   0.707  0.0502 -0.3203  0.0549
  210ACE     C2 2171   1.691   2.672   0.629  0.4798 -0.2353  0.5205
  210ACE     O1 2172   1.620   2.583   0.659  0.2151  0.1196 -0.3403
  210ACE     O2 2173   1.643   2.775   0.559 -0.1140 -0.3499 -0.0270
  210ACE     H1 2174   1.873   2.621   0.765 -0.0533 -1.0105 -0.7816
  210ACE     H2 2175   1.807   2.784   0.775  0.6517  0.0374 -0.2255
  210ACE     H3 2176   1.896   2.746   0.637  2.1462 -0.4139  2.0900
  210ACE     H4 2177   1.552   2.747   0.536  0.1763 -0.2287 -1.3506
  211ACE     C1 2178   0.565   1.619   0.053 -0.4457  0.0564 -0.2279
  211ACE     C2 2179   0.486   1.491   0.068 -0.0260 -0.5320  0.6243
  211ACE     O1 2180   0.399   1.459   0.147 -0.2242  0.2497  0.4311
  211ACE     O2 2181   0.547   1.395  -0.004  0.1401 -0.3496 -0.2213
  211ACE     H1 2182   0.667   1.606   0.092 -0.4128  0.1074 -0.2977
  211ACE     H2 2183   0.521   1.701   0.111  0.0582 -0.9240  1.6126
  211ACE     H3 2184   0.589   1.650  -0.049  0.0488 -2.1207 -0.7949
  211ACE     H4 2185   0.489   1.323   0.024 -1.2964  1.1305  0.7508
  212ACE     C1 2186   0.217   1.889   3.116 -0.4462 -0.1235 -0.0982
  212ACE     C2 2187   0.240   1.897   3.270 -0.2734  0.1452 -0.6106
  212ACE     O1 2188   0.346   1.854   3.316 -0.4438  0.0867 -0.3101
  212ACE     O2 2189   0.136   1.929   3.343 -0.5446  1.2740  0.2339
  212ACE     H1 2190   0.143   1.810   3.101  0.6502 -1.8020  2.8287
  212ACE     H2 2191   0.302   1.857   3.056 -0.8089 -2.9041  0.8132
  212ACE     H3 2192   0.165   1.975   3.072  2.8627 -0.3962 -4.9000
  212ACE     H4 2193   0.162   1.922   3.436 -0.4920 -1.0123  0.0767
  213ACE     C1 2194   0.416   1.994   3.680  0.3499 -0.0950 -0.1017
  213ACE     C2 2195   0.286   1.912   3.700  0.4797  0.4761  0.7024
  213ACE     O1 2196   0.215   1.867   3.616  0.6372  0.3379  0.0982
  213ACE     O2 2197   0.290   1.853   3.819  0.2173 -0.0738 -0.2951
  213ACE     H1 2198   0.502   1.926   3.675  0.0887 -0.4148 -0.2770
  213ACE     H2 2199   0.434   2.057   3.768 -0.8555 -1.3585  1.0699
  213ACE     H3 2200   0.400   2.055   3.590 -0.7642 -0.6487 -0.2868
  213ACE     H4 2201   0.225   1.781   3.817 -0.0365  0.1819 -1.6574
  214ACE     C1 2202   0.663   3.084   3.140 -0.6610  0.1124  0.0034
  214ACE     C2 2203   0.605   3.126   3.276 -0.6049  0.9485  0.2290
  214ACE     O1 2204   0.517   3.202   3.279 -0.8151  0.4078  0.0492
  214ACE     O2 2205   0.617   3.033   3.368  0.1439 -0.1377 -0.0701
  214ACE     H1 2206   0.640   3.163   3.067 -3.4406 -0.1410  0.5556
  214ACE     H2 2207   0.625   2.984   3.117 -2.0171  0.0027  2.5461
  214ACE     H3 2208   0.771   3.081   3.158 -0.4156  1.5125 -1.1303
  214ACE     H4 2209   0.546   3.059   3.429  1.1545 -0.5357  1.3138
  215ACE     C1 2210   2.226   3.426   2.612 -0.4310 -0.1152  0.1744
  215ACE     C2 2211   2.369   3.382   2.609  0.7416 -0.6457  0.1977
  215ACE     O1 2212   2.411   3.269   2.595 -0.1550  0.3684 -0.5060
  215ACE     O2 2213   2.455   3.474   2.649  0.1572  0.0972  0.4673
  215ACE     H1 2214   2.219   3.513   2.547 -0.0964  1.0437  1.6708
  215ACE     H2 2215   2.204   3.476   2.707 -0.9449 -0.7944  0.4169
  215ACE     H3 2216   2.160   3.341   2.591 -1.4821  0.3715  1.4548
  215ACE     H4 2217   2.536   3.421   2.639  0.7900  0.4963  3.1592
  216ACE     C1 2218   0.168   0.406   3.250  0.2528 -0.2863  0.0363
  216ACE     C2 2219   0.184   0.388   3.106  0.4023 -0.1864  0.4113
  216ACE     O1 2220   0.274   0.330   3.053  0.5991  0.3914 -0.0514
  216ACE     O2 2221   0.098   0.460   3.031 -0.4132  0.0863 -0.0025
  216ACE     H1 2222   0.064   0.400   3.282 -0.0246  1.8438 -0.3936
  216ACE     H2 2223   0.192   0.512   3.264  0.2196 -0.0953 -1.3459
  216ACE     H3 2224   0.247   0.349   3.302 -0.0484 -0.6524  0.0940
  216ACE     H4 2225   0.119   0.446   2.937 -0.6241  1.9632 -0.3471
  217ACE     C1 2226   3.280   0.899   3.478  0.7335 -0.3154  0.2004
  217ACE     C2 2227   3.246   0.862   3.618  0.1286 -0.3086 -0.1179
  217ACE     O1 2228   3.136   0.877   3.666 -0.5198  0.1447  0.0296
  217ACE     O2 2229   3.352   0.854   3.696 -0.3002 -0.2844  0.0300
  217ACE     H1 2230   3.205   0.859   3.410 -1.2841  2.1020  0.9128
  217ACE     H2 2231   3.381   0.871   3.447  0.9926  0.2123  0.5469
  217ACE     H3 2232   3.271   1.008   3.472 -1.3753 -0.3557  1.9809
  217ACE     H4 2233   3.326   0.845   3.789  1.5601 -2.0426  0.4364
  218ACE     C1 2234   2.063   0.202   2.269 -0.2058 -0.3945 -0.0366
  218ACE     C2 2235   1.963   0.314   2.227 -0.5240  0.4236 -0.6316
  218ACE     O1 2236   1.845   0.312   2.248  0.1937  0.4456 -0.1269
  218ACE     O2 2237   2.028   0.421   2.189  0.0160 -0.4292 -0.5003
  218ACE     H1 2238   2.121   0.167   2.183  3.3883  2.5923  1.0452
  218ACE     H2 2239   2.016   0.117   2.319 -3.6721 -0.8505 -3.7839
  218ACE     H3 2240   2.145   0.253   2.321 -0.1213 -0.9373  0.3664
  218ACE     H4 2241   1.964   0.494   2.194  0.6013 -0.0425  2.4181
  219ACE     C1 2242   2.547   1.177   3.407 -0.3979  0.1514 -0.2729
  219ACE     C2 2243   2.564   1.287   3.304 -0.0970 -0.4725  0.7534
  219ACE     O1 2244   2.469   1.359   3.280 -0.6861  0.5082  0.1694
  219ACE     O2 2245   2.691   1.307   3.256 -0.1306 -0.1491  0.5737
  219ACE     H1 2246   2.440   1.155   3.419 -0.7578  2.2962  0.6089
  219ACE     H2 2247   2.577   1.217   3.505  0.2791  1.5040 -1.0261
  219ACE     H3 2248   2.609   1.087   3.397  0.4546  0.1483  3.9976
  219ACE     H4 2249   2.672   1.389   3.207  0.9671  0.4431  1.1090
  220ACE     C1 2250   1.099   3.268   2.624  0.6325 -0.3350  0.3966
  220ACE     C2 2251   1.120   3.420   2.643  0.0494 -0.4113  0.1566
  220ACE     O1 2252   1.070   3.506   2.572  0.5240 -0.3427  0.3926
  220ACE     O2 2253   1.218   3.447   2.735 -0.4442 -0.1709 -0.4459
  220ACE     H1 2254   1.075   3.229   2.723  1.2296  2.3732  1.6589
  220ACE     H2 2255   1.192   3.218   2.593  1.1657  1.5414 -1.1361
  220ACE     H3 2256   1.017   3.254   2.552  0.1427  0.8748  0.7103
  220ACE     H4 2257   1.209   3.544   2.730  0.2415  0.0270  1.8940
  221ACE     C1 2258   2.446   1.314   2.731 -0.0924  0.0389 -0.6684
  221ACE     C2 2259   2.561   1.405   2.694  0.1652  0.4739  0.3357
  221ACE     O1 2260   2.636   1.464   2.773 -0.4996 -0.1487  0.5492
  221ACE     O2 2261   2.597   1.403   2.563 -0.3196 -0.0707 -0.3828
  221ACE     H1 2262   2.463   1.232   2.660 -3.8035 -0.5873 -0.8846
  221ACE     H2 2263   2.354   1.345   2.681  0.2346  0.7014 -0.8591
  221ACE     H3 2264   2.438   1.279   2.835 -0.9395  0.7082 -0.5058
  221ACE     H4 2265   2.667   1.470   2.553  1.3919 -1.8477 -0.6146
  222ACE     C1 2266   3.057   0.667   0.209  0.2966  0.0632  0.3333
  222ACE     C2 2267   3.202   0.704   0.222  0.3064  0.3188 -0.0034
  222ACE     O1 2268   3.268   0.758   0.137  0.4241 -0.6686 -0.0471
  222ACE     O2 2269   3.254   0.672   0.342 -0.3078  0.0217  0.0556
  222ACE     H1 2270   2.997   0.733   0.146  2.0219  0.7777 -0.5814
  222ACE     H2 2271   3.024   0.655   0.313 -0.0822  0.2026  0.2288
  222ACE     H3 2272   3.051   0.567   0.164  0.1704 -0.1453  0.8040
  222ACE     H4 2273   3.349   0.674   0.323 -0.4148  1.1160 -0.4008
  223ACE     C1 2274   0.037   0.485   0.554  1.2715  0.9795 -0.1876
  223ACE     C2 2275   0.158   0.404   0.515  0.0840  0.3479 -0.0268
  223ACE     O1 2276   0.264   0.450   0.484 -0.3970  0.3211  0.0227
  223ACE     O2 2277   0.146   0.275   0.533 -0.4033  0.5208 -0.0344
  223ACE     H1 2278   0.047   0.594   0.556 -1.3164  1.2288  0.3711
  223ACE     H2 2279  -0.015   0.448   0.643 -3.0951  3.2054 -1.6969
  223ACE     H3 2280  -0.033   0.464   0.471 -0.9890  1.3617  1.5822
  223ACE     H4 2281   0.237   0.246   0.518 -0.4541  0.8731 -1.0587
  224ACE     C1 2282   0.348   0.866   2.524 -0.3756  0.5416  0.2789
  224ACE     C2 2283   0.234   0.866   2.627  0.1625 -0.0653 -0.3615
  224ACE     O1 2284   0.163   0.768   2.656  0.2632  0.0829 -0.0678
  224ACE     O2 2285   0.237   0.974   2.708  0.0627  0.3315  0.2977
  224ACE     H1 2286   0.386   0.962   2.485  0.1120  1.1805  2.2545
  224ACE     H2 2287   0.316   0.806   2.439 -2.1385  1.4444  0.2854
  224ACE     H3 2288   0.431   0.811   2.571  1.4735  1.5814 -1.6393
  224ACE     H4 2289   0.159   0.956   2.764  0.9446 -1.7577  0.9079
  225ACE     C1 2290   1.497   0.888   2.759  0.4185  0.1162 -0.2170
  225ACE     C2 2291   1.518   0.868   2.616 -0.0890 -0.2495 -0.3726
  225ACE     O1 2292   1.478   0.773   2.551 -0.7673  0.4089  0.3122
  225ACE     O2 2293   1.531   0.980   2.548 -0.4545 -0.3181  0.0611
  225ACE     H1 2294   1.442   0.980   2.783  0.4179  0.1050 -0.1750
  225ACE     H2 2295   1.594   0.901   2.809  0.3547  1.7025 -0.4989
  225ACE     H3 2296   1.438   0.807   2.803  0.1398 -0.1689 -1.1013
  225ACE     H4 2297   1.519   0.946   2.458  0.5593  4.4319 -2.0656
  226ACE     C1 2298   1.805   2.258   2.733 -0.4087  0.3501 -0.7619
  226ACE     C2 2299   1.875   2.307   2.856  0.5320 -0.0408 -0.9789
  226ACE     O1 2300   1.881   2.428   2.892 -0.5832 -0.2748  0.3869
  226ACE     O2 2301   1.942   2.215   2.926 -0.5740 -0.2739  0.0292
  226ACE     H1 2302   1.725   2.325   2.697  0.5974  2.6141  1.0526
  226ACE     H2 2303   1.763   2.161   2.760 -1.5237  0.0013 -3.5740
  226ACE     H3 2304   1.876   2.227   2.656 -0.0124 -0.8529  0.0727
  226ACE     H4 2305   1.993   2.271   2.987  1.3907  0.3262 -2.0799
  227ACE     C1 2306   1.693   3.244   3.793 -0.4165  0.3320  0.0560
  227ACE     C2 2307   1.587   3.132   3.800 -0.3381  0.0277  1.0287
  227ACE     O1 2308   1.617   3.015   3.800 -0.6987 -0.3816 -0.4354
  227ACE     O2 2309   1.459   3.164   3.787  0.8431 -0.0196 -0.0274
  227ACE     H1 2310   1.698   3.282   3.895  0.0598 -0.3920  0.3067
  227ACE     H2 2311   1.660   3.336   3.744 -0.0615  0.9228  0.9170
  227ACE     H3 2312   1.783   3.188   3.766 -0.4929 -0.4535  1.3829
  227ACE     H4 2313   1.419   3.078   3.767 -0.0750  0.3150  0.3183
  228ACE     C1 2314   3.344   2.905   2.281  0.0715 -0.3703  0.5333
  228ACE     C2 2315   3.190   2.890   2.314  0.3320 -0.5290  0.0338
  228ACE     O1 2316   3.150   2.911   2.423 -0.3105  0.0394 -0.1151
  228ACE     O2 2317   3.111   2.878   2.213  0.7937 -0.0198  0.2431
  228ACE     H1 2318   3.377   3.002   2.242  3.0691 -1.6042 -0.1211
  228ACE     H2 2319   3.372   2.834   2.202 -0.9565 -1.0214  0.7428
  228ACE     H3 2320   3.409   2.883   2.366 -0.8461 -0.3270  1.2467
  228ACE     H4 2321   3.029   2.854   2.259 -1.4175 -0.4781 -3.7007
  229ACE     C1 2322   2.749   1.163   2.976 -0.4153  0.0158 -0.7814
  229ACE     C2 2323   2.826   1.088   2.860  0.4465 -0.1493  0.0258
  229ACE     O1 2324   2.915   1.011   2.872  0.5437  0.6250  0.3237
  229ACE     O2 2325   2.744   1.070   2.756  0.0109  0.1057 -0.1343
  229ACE     H1 2326   2.687   1.249   2.950 -0.9495  0.0731  0.6423
  229ACE     H2 2327   2.816   1.177   3.062 -1.3877 -0.4186  0.0684
  229ACE     H3 2328   2.679   1.087   3.013  1.4022  0.2239  3.4149
  229ACE     H4 2329   2.790   1.011   2.695  0.5275 -0.9044  1.2050
  230ACE     C1 2330   2.876   1.151   3.637  0.3261 -0.0924  0.0140
  230ACE     C2 2331   2.963   1.206   3.529 -0.5738 -0.1295  0.1317
  230ACE     O1 2332   3.027   1.136   3.454  0.3703 -0.3383 -0.2919
  230ACE     O2 2333   2.935   1.334   3.488  0.6134 -0.2372  0.7747
  230ACE     H1 2334   2.871   1.042   3.643  1.1314 -0.1413 -0.2536
  230ACE     H2 2335   2.774   1.191   3.650  0.0235 -1.5437  2.4707
  230ACE     H3 2336   2.934   1.176   3.727 -0.3673  0.6250  0.2768
  230ACE     H4 2337   2.990   1.349   3.409 -1.9867 -0.5257 -1.1590
  231ACE     C1 2338   0.729   2.575   2.248 -0.8000  0.6568  0.5537
  231ACE     C2 2339   0.869   2.587   2.312 -0.1810  0.5955  0.3098
  231ACE     O1 2340   0.948   2.672   2.288 -0.3412  0.6215  0.1928
  231ACE     O2 2341   0.914   2.474   2.368 -0.0361 -0.1718 -0.1473
  231ACE     H1 2342   0.675   2.670   2.249 -1.4536  0.2908  0.5478
  231ACE     H2 2343   0.663   2.501   2.295 -1.0302  1.2764  1.2095
  231ACE     H3 2344   0.754   2.536   2.148  0.5319  2.2773  0.2353
  231ACE     H4 2345   1.002   2.508   2.391  1.1852 -3.2592  0.0527
  232ACE     C1 2346   1.554   2.647   3.518 -0.4138 -0.0803 -0.2646
  232ACE     C2 2347   1.559   2.760   3.624  0.0262 -0.0295  0.6637
  232ACE     O1 2348   1.540   2.751   3.743  0.4516 -0.2901 -0.1171
  232ACE     O2 2349   1.603   2.870   3.576 -0.5013 -0.1908 -0.3894
  232ACE     H1 2350   1.647   2.645   3.460  0.5927  2.0806  1.2243
  232ACE     H2 2351   1.487   2.671   3.434 -1.0309  3.5710  1.1499
  232ACE     H3 2352   1.517   2.551   3.556 -1.4718  0.6691  0.6163
  232ACE     H4 2353   1.630   2.913   3.659  0.3853 -0.7607 -0.3749
  233ACE     C1 2354   1.271   0.837   2.252 -0.3097  0.3234  0.1149
  233ACE     C2 2355   1.122   0.837   2.243  0.7830 -0.2479 -0.3707
  233ACE     O1 2356   1.057   0.943   2.238 -0.7037  0.2751  0.2483
  233ACE     O2 2357   1.071   0.715   2.224  0.3488 -0.1059  0.5471
  233ACE     H1 2358   1.299   0.933   2.206  0.0164 -0.3007 -1.0175
  233ACE     H2 2359   1.305   0.747   2.199 -1.6599  0.5447 -1.1679
  233ACE     H3 2360   1.293   0.830   2.359 -2.7954 -0.4563  0.6062
  233ACE     H4 2361   0.979   0.742   2.208  1.0464  0.7526 -2.2491
  234ACE     C1 2362   2.745   2.770   0.521  0.0885  0.2389  0.0809
  234ACE     C2 2363   2.823   2.727   0.390 -0.7298  0.1201 -0.7461
  234ACE     O1 2364   2.851   2.611   0.359  0.3275 -0.3801 -0.1314
  234ACE     O2 2365   2.806   2.817   0.293  0.0491 -0.2857 -0.8426
  234ACE     H1 2366   2.738   2.680   0.582 -1.9899  0.3730  0.0615
  234ACE     H2 2367   2.644   2.806   0.496 -0.0091  1.1986  1.8028
  234ACE     H3 2368   2.799   2.851   0.572  1.9415 -0.3329 -0.9179
  234ACE     H4 2369   2.852   2.771   0.220  0.0905 -1.0540 -0.3366
  235ACE     C1 2370   1.738   2.246   2.269 -0.5921  0.8333  0.0037
  235ACE     C2 2371   1.602   2.304   2.235 -0.5626  0.0782  0.2135
  235ACE     O1 2372   1.509   2.243   2.184  0.0901  0.3365 -0.2504
  235ACE     O2 2373   1.588   2.442   2.242 -0.4729  0.6272 -0.5898
  235ACE     H1 2374   1.760   2.297   2.363 -2.6537  0.8823  0.4823
  235ACE     H2 2375   1.809   2.284   2.195 -1.6865 -2.0230 -2.5982
  235ACE     H3 2376   1.749   2.137   2.277  0.0242  0.9089  0.1895
  235ACE     H4 2377   1.493   2.451   2.224 -0.8238 -1.2584  0.1370
  236ACE     C1 2378   1.589   0.918   0.265  0.6578  0.4592 -0.9784
  236ACE     C2 2379   1.497   0.832   0.178 -0.8180  0.1763  0.2948
  236ACE     O1 2380   1.385   0.794   0.214 -0.1471 -0.3513 -0.1803
  236ACE     O2 2381   1.532   0.815   0.051 -0.2688  0.5585  0.2595
  236ACE     H1 2382   1.541   0.959   0.354 -0.9900  0.2316 -1.7412
  236ACE     H2 2383   1.641   0.995   0.207  1.6231 -0.0800 -0.8438
  236ACE     H3 2384   1.665   0.845   0.295 -0.0701  0.2272  0.3284
  236ACE     H4 2385   1.448   0.783   0.015  0.7479  1.1977 -2.8240
  237ACE     C1 2386   1.485   3.127   2.850 -0.0987 -0.5187  0.8747
  237ACE     C2 2387   1.476   3.100   2.697  0.1228  0.2150  0.5427
  237ACE     O1 2388   1.380   3.047   2.644  0.4541  0.0356 -0.5642
  237ACE     O2 2389   1.555   3.182   2.629 -0.0238  0.4263 -0.2474
  237ACE     H1 2390   1.540   3.046   2.900  3.7218  0.9072 -0.7698
  237ACE     H2 2391   1.389   3.113   2.900 -0.7873  0.8628 -0.0135
  237ACE     H3 2392   1.530   3.225   2.867 -1.8760  0.4697  0.0285
  237ACE     H4 2393   1.526   3.168   2.537  1.4896 -1.5233 -0.4612
  238ACE     C1 2394   2.201   0.485   3.077  0.1244  0.3398 -0.2343
  238ACE     C2 2395   2.184   0.630   3.128 -0.2302 -0.4642  0.0857
  238ACE     O1 2396   2.083   0.666   3.186 -0.4487 -0.4042 -0.1617
  238ACE     O2 2397   2.283   0.710   3.102 -0.2875 -0.0598  0.4737
  238ACE     H1 2398   2.302   0.450   3.054 -0.0075  0.7761 -1.5160
  238ACE     H2 2399   2.164   0.496   2.975  1.3128  0.3767 -0.6714
  238ACE     H3 2400   2.147   0.411   3.138  0.0594  0.3200 -0.3165
  238ACE     H4 2401   2.241   0.797   3.112  3.1410  2.0579 -2.3282
  239ACE     C1 2402   1.723   3.297   2.249  0.2227  0.4286 -0.6194
  239ACE     C2 2403   1.859   3.234   2.288  0.9937 -0.7875 -0.5391
  239ACE     O1 2404   1.880   3.113   2.296 -0.0363 -0.0723 -0.9733
  239ACE     O2 2405   1.952   3.322   2.319  0.4151  0.3189 -0.3378
  239ACE     H1 2406   1.735   3.392   2.195 -1.4089 -0.1301 -2.0155
  239ACE     H2 2407   1.671   3.316   2.344  0.1300  0.0142 -0.5862
  239ACE     H3 2408   1.650   3.235   2.196  0.7867 -0.8361  0.0619
  239ACE     H4 2409   2.032   3.272   2.341  0.0882 -0.9142 -1.9025
  240ACE     C1 2410   1.839   0.863   2.963 -0.6996 -0.0181 -0.6005
  240ACE     C2 2411   1.952   0.862   2.863 -0.6429 -0.3628  0.4878
  240ACE     O1 2412   1.973   0.966   2.798 -0.1155  0.0351  0.1410
  240ACE     O2 2413   2.000   0.742   2.829 -0.6940 -0.1177  0.2082
  240ACE     H1 2414   1.750   0.803   2.939 -1.1719  0.9315 -1.2293
  240ACE     H2 2415   1.804   0.965   2.982 -0.9284  0.0229 -1.2331
  240ACE     H3 2416   1.874   0.817   3.056  0.7708  0.9447 -0.6707
  240ACE     H4 2417   2.075   0.762   2.771  0.4926 -2.2046  0.9510
  241ACE     C1 2418   2.481   1.628   3.487 -0.5074  0.5608 -0.3683
  241ACE     C2 2419   2.479   1.695   3.615 -0.4089  0.2708 -0.1787
  241ACE     O1 2420   2.485   1.816   3.623  0.5785 -0.5123 -0.4256
  241ACE     O2 2421   2.543   1.621   3.713 -0.2784 -0.3057  0.7922
  241ACE     H1 2422   2.380   1.602   3.455 -0.9893  2.0459 -0.1005
  241ACE     H2 2423   2.535   1.534   3.506 -1.0018  0.4329  0.4215
  241ACE     H3 2424   2.525   1.700   3.417 -1.9404  1.0397 -0.7981
  241ACE     H4 2425   2.565   1.677   3.789 -0.9866  1.2229 -0.1055
  242ACE     C1 2426   2.117   1.494   2.907 -0.4879 -0.2053  0.0462
  242ACE     C2 2427   1.986   1.557   2.936  0.4623  0.0611 -1.4275
  242ACE     O1 2428   1.905   1.511   3.009  0.3962 -0.1330 -0.5063
  242ACE     O2 2429   1.958   1.668   2.878  0.0161 -0.0175 -0.1427
  242ACE     H1 2430   2.144   1.520   2.804 -0.8763 -2.6600 -0.7172
  242ACE     H2 2431   2.119   1.385   2.925 -1.4354 -0.5095 -1.5943
  242ACE     H3 2432   2.191   1.536   2.976 -1.2244  0.4861  0.4096
  242ACE     H4 2433   1.869   1.680   2.915 -1.3509 -0.8592 -3.0258
  243ACE     C1 2434   0.870   1.487   2.781 -0.4851  0.2163  0.1236
  243ACE     C2 2435   0.736   1.532   2.731 -0.6913 -0.1339 -0.2944
  243ACE     O1 2436   0.658   1.595   2.794  0.0676  0.5318  0.2316
  243ACE     O2 2437   0.739   1.548   2.598 -0.5221 -0.0047 -0.0489
  243ACE     H1 2438   0.852   1.412   2.859 -2.9919 -1.2079 -1.7949
  243ACE     H2 2439   0.928   1.568   2.828  1.9177 -1.4729  0.1379
  243ACE     H3 2440   0.937   1.449   2.703 -0.2517 -0.2068  0.5226
  243ACE     H4 2441   0.652   1.589   2.584 -1.5275 -1.8024  0.6591
  244ACE     C1 2442   2.598   2.592   2.600 -0.3772 -0.5661 -0.1193
  244ACE     C2 2443   2.599   2.451   2.657  0.2680  0.1686 -0.5232
  244ACE     O1 2444   2.669   2.358   2.621  0.1697 -0.1280  0.5629
  244ACE     O2 2445   2.504   2.425   2.743  0.0871 -0.1352 -0.1281
  244ACE     H1 2446   2.509   2.616   2.541  0.8478  1.9262 -1.0046
  244ACE     H2 2447   2.691   2.628   2.555 -0.0983 -0.6055  0.4205
  244ACE     H3 2448   2.578   2.646   2.693  2.7160  0.3669  0.0539
  244ACE     H4 2449   2.543   2.340   2.769  2.0884  1.1703  1.3199
  245ACE     C1 2450   0.368   2.655   2.258  0.2246  0.0144 -0.3797
  245ACE     C2 2451   0.377   2.802   2.276 -0.8937 -0.1376 -0.1677
  245ACE     O1 2452   0.286   2.875   2.246  0.0133 -0.4791  0.0230
  245ACE     O2 2453   0.466   2.841   2.368 -0.2951 -0.4215 -0.3659
  245ACE     H1 2454   0.282   2.628   2.196 -0.0665  3.7547 -1.6857
  245ACE     H2 2455   0.350   2.603   2.353 -1.8253  1.2849 -0.0528
  245ACE     H3 2456   0.462   2.610   2.224 -0.3594 -0.8811 -0.8105
  245ACE     H4 2457   0.424   2.923   2.397  0.4628 -0.5826  1.2542
  246ACE     C1 2458   0.736   0.971   2.875 -0.4719 -0.3943 -0.4941
  246ACE     C2 2459   0.787   0.999   3.021 -0.1249 -0.3928  0.7938
  246ACE     O1 2460   0.789   0.916   3.109 -0.3791 -0.6029  0.2594
  246ACE     O2 2461   0.847   1.119   3.042 -0.0883 -0.4881  0.5831
  246ACE     H1 2462   0.818   0.929   2.815  2.5541 -1.1892  3.9519
  246ACE     H2 2463   0.707   1.069   2.836 -1.0616 -0.3475  0.0541
  246ACE     H3 2464   0.648   0.907   2.878 -1.3993  0.7658 -2.0641
  246ACE     H4 2465   0.854   1.122   3.139 -1.8214  1.7904  0.6923
  247ACE     C1 2466   3.153   1.946   3.682  0.5902 -0.1491  0.5692
  247ACE     C2 2467   3.233   2.080   3.688 -0.0894  0.8117 -0.4153
  247ACE     O1 2468   3.354   2.089   3.698 -0.0046  0.0274  0.0659
  247ACE     O2 2469   3.163   2.184   3.644  0.1465  0.1520  0.1254
  247ACE     H1 2470   3.067   1.954   3.614 -0.4750  0.7766  2.0202
  247ACE     H2 2471   3.109   1.920   3.778  0.9469  0.8355  1.0002
  247ACE     H3 2472   3.222   1.865   3.653  0.4983  0.1228 -0.4239
  247ACE     H4 2473   3.234   2.250   3.630  1.1037 -1.4250 -2.8505
  248ACE     C1 2474   0.194   0.494   0.027 -0.2600 -0.0043 -0.2193
  248ACE     C2 2475   0.211   0.514   0.179  0.4292  0.0549 -0.0988
  248ACE     O1 2476   0.124   0.559   0.251 -0.1218 -0.2028  0.0998
  248ACE     O2 2477   0.328   0.485   0.230  0.3872 -0.5187 -0.1082
  248ACE     H1 2478   0.281   0.454  -0.025 -0.6210 -0.8057 -0.2180
  248ACE     H2 2479   0.157   0.587  -0.019  1.4720  0.0762 -1.4640
  248ACE     H3 2480   0.118   0.415   0.026  0.0048 -0.3152  1.7028
  248ACE     H4 2481   0.313   0.510   0.323  1.6561 -2.2380  0.5909
  249ACE     C1 2482   3.048   3.251   2.992 -0.1652  0.7246 -0.4466
  249ACE     C2 2483   2.961   3.334   2.893 -0.2578 -0.6913 -0.2480
  249ACE     O1 2484   2.991   3.445   2.853  0.5265 -0.3494  0.1538
  249ACE     O2 2485   2.857   3.263   2.848 -0.0099 -0.3012  0.2048
  249ACE     H1 2486   3.151   3.238   2.957 -0.1336  1.1004 -0.4988
  249ACE     H2 2487   3.007   3.150   3.002  2.6930 -0.5587 -1.2154
  249ACE     H3 2488   3.043   3.291   3.094 -1.9727 -0.2637 -0.1283
  249ACE     H4 2489   2.828   3.315   2.770  0.0570 -1.3563 -0.5371
  250ACE     C1 2490   2.565   0.528   2.274  0.4050  0.3376 -0.1773
  250ACE     C2 2491   2.443   0.442   2.257 -0.0757  0.6866  0.2046
  250ACE     O1 2492   2.450   0.323   2.239 -0.7307  0.3441  0.7423
  250ACE     O2 2493   2.329   0.507   2.214  0.3313  0.5312  0.2855
  250ACE     H1 2494   2.534   0.613   2.335 -1.9558 -0.1582 -0.6556
  250ACE     H2 2495   2.587   0.565   2.173 -0.4346  0.5567 -0.2805
  250ACE     H3 2496   2.644   0.468   2.320 -0.8032  0.3434  1.9588
  250ACE     H4 2497   2.280   0.432   2.177  0.1622  0.5034  0.5690
  251ACE     C1 2498   0.115   1.311   2.668 -0.3015  0.0322  0.0722
  251ACE     C2 2499   0.094   1.443   2.594 -0.2034  0.4715 -0.6551
  251ACE     O1 2500   0.173   1.535   2.576 -0.2864 -0.3398 -0.2981
  251ACE     O2 2501  -0.007   1.435   2.508  0.0652 -0.6124 -0.1399
  251ACE     H1 2502   0.208   1.305   2.726 -0.3386  0.8347  0.2217
  251ACE     H2 2503   0.124   1.227   2.598 -0.5583  1.4382 -1.6765
  251ACE     H3 2504   0.033   1.292   2.738 -0.5157 -1.7552 -0.6315
  251ACE     H4 2505   0.001   1.522   2.465  0.1143 -1.6476 -2.3133
  252ACE     C1 2506   2.700   0.814   2.276  0.2046 -1.2787  0.1687
  252ACE     C2 2507   2.743   0.770   2.408 -0.3431 -0.1155 -0.3642
  252ACE     O1 2508   2.854   0.730   2.431  0.3173  0.8108  0.1828
  252ACE     O2 2509   2.657   0.784   2.509  0.1405 -0.1405 -0.0883
  252ACE     H1 2510   2.727   0.740   2.200 -1.9260 -0.0411 -1.8603
  252ACE     H2 2511   2.749   0.910   2.255 -1.8643 -0.9831 -3.9314
  252ACE     H3 2512   2.591   0.822   2.271  0.2909  1.1269  1.4881
  252ACE     H4 2513   2.704   0.747   2.585  0.2465  2.5052  1.2022
  253ACE     C1 2514   2.411   3.402   3.400  0.2723 -0.0131  0.3334
  253ACE     C2 2515   2.335   3.277   3.346  1.1712  0.0968 -0.3154
  253ACE     O1 2516   2.348   3.220   3.238  0.4691  0.2726 -0.7795
  253ACE     O2 2517   2.215   3.265   3.405 -0.4045 -0.3080  0.1563
  253ACE     H1 2518   2.341   3.481   3.428 -1.2796 -2.4399  3.6329
  253ACE     H2 2519   2.490   3.430   3.328 -0.6409  1.9438  0.0723
  253ACE     H3 2520   2.466   3.374   3.490  0.8731  0.5895  0.1558
  253ACE     H4 2521   2.163   3.205   3.348 -0.0784 -1.2568  0.8399
  254ACE     C1 2522   1.116   2.931   3.587  0.3112  0.3124 -0.0748
  254ACE     C2 2523   1.237   2.881   3.658 -0.1284 -0.1884  0.0823
  254ACE     O1 2524   1.318   2.962   3.706 -0.0445  0.5977  0.2153
  254ACE     O2 2525   1.219   2.757   3.706 -0.0692  0.0347  0.0074
  254ACE     H1 2526   1.109   3.040   3.598 -2.0143  0.0991  0.7950
  254ACE     H2 2527   1.024   2.885   3.626 -1.0111  0.6873 -2.6493
  254ACE     H3 2528   1.109   2.906   3.481 -0.1636  2.1831 -0.4961
  254ACE     H4 2529   1.287   2.741   3.773  0.9675 -1.5662 -1.3671
  255ACE     C1 2530   0.642   2.379   3.416  0.1483  0.4840 -0.3436
  255ACE     C2 2531   0.593   2.383   3.557 -0.0877 -1.0303  0.3358
  255ACE     O1 2532   0.666   2.377   3.655  0.3497 -0.3417  0.5878
  255ACE     O2 2533   0.457   2.376   3.574 -0.1715  0.0642  0.0123
  255ACE     H1 2534   0.655   2.272   3.400  1.8405  0.4756  1.0529
  255ACE     H2 2535   0.744   2.418   3.409  0.6934 -0.4859  1.9601
  255ACE     H3 2536   0.573   2.427   3.345  0.5457  0.4274 -0.7688
  255ACE     H4 2537   0.459   2.382   3.671  1.1531 -0.5156  0.0222
  256ACE     C1 2538   0.389   1.566   3.461  0.2981 -0.3352 -0.7054
  256ACE     C2 2539   0.378   1.419   3.501 -0.0911  0.5139  0.7989
  256ACE     O1 2540   0.315   1.380   3.597 -0.0746  0.0448 -0.6716
  256ACE     O2 2541   0.390   1.331   3.394 -0.0426 -0.4612  0.2810
  256ACE     H1 2542   0.478   1.613   3.505 -1.4266  2.2837  0.1521
  256ACE     H2 2543   0.311   1.632   3.501  0.8532 -0.4969  0.6443
  256ACE     H3 2544   0.386   1.577   3.352 -1.8566 -1.5470 -0.7820
  256ACE     H4 2545   0.353   1.243   3.409  1.2660 -1.0455  0.1103
  257ACE     C1 2546   0.322   3.215   2.919  0.4508 -0.2578 -0.5745
  257ACE     C2 2547   0.198   3.192   3.010 -0.8188  0.4928 -0.2100
  257ACE     O1 2548   0.202   3.198   3.133 -0.3682  0.7357  0.5320
  257ACE     O2 2549   0.105   3.110   2.960 -1.0562  0.0536  0.6992
  257ACE     H1 2550   0.367   3.306   2.961  2.3261 -0.7725 -1.4361
  257ACE     H2 2551   0.312   3.219   2.810  1.6814 -0.8234 -0.7229
  257ACE     H3 2552   0.397   3.135   2.931 -0.3194 -0.7947  0.8067
  257ACE     H4 2553   0.054   3.095   3.042  0.5546  0.3358  1.7942
  258ACE     C1 2554   0.014   2.906   2.656 -0.0773 -0.6999 -0.1503
  258ACE     C2 2555   0.009   2.752   2.634  0.5988  0.4455  0.9375
  258ACE     O1 2556  -0.055   2.672   2.696  0.4912 -0.2258 -0.1188
  258ACE     O2 2557   0.083   2.713   2.534  0.2313 -0.0390 -0.5296
  258ACE     H1 2558  -0.015   2.933   2.758 -0.7214 -0.4069 -0.4100
  258ACE     H2 2559  -0.066   2.948   2.594 -1.1636  0.1889  1.8445
  258ACE     H3 2560   0.118   2.932   2.633  0.3754 -3.8777 -2.1455
  258ACE     H4 2561   0.081   2.616   2.540  1.7338 -0.1859 -1.9032
  259ACE     C1 2562   3.218   2.618   3.025 -0.5133 -0.7282 -0.1143
  259ACE     C2 2563   3.273   2.751   3.035 -0.3071  0.5488 -0.7961
  259ACE     O1 2564   3.391   2.781   3.014  0.5205  0.1007  1.0654
  259ACE     O2 2565   3.186   2.845   3.075  0.1070  0.4275 -0.3086
  259ACE     H1 2566   3.294   2.539   3.017  0.1926 -0.0086 -0.4774
  259ACE     H2 2567   3.129   2.607   2.961 -1.3435 -3.4071  1.3877
  259ACE     H3 2568   3.173   2.611   3.125  0.7152 -2.3346  0.3540
  259ACE     H4 2569   3.244   2.923   3.078 -2.3893  2.4173 -1.1438
  260ACE     C1 2570   3.085   2.851   3.413  0.5301 -0.3647 -0.2027
  260ACE     C2 2571   2.953   2.780   3.377 -0.0166 -0.5290  0.6148
  260ACE     O1 2572   2.932   2.726   3.273  1.1622 -0.0649  0.7114
  260ACE     O2 2573   2.875   2.762   3.485 -0.2913 -0.2225  0.8896
  260ACE     H1 2574   3.066   2.955   3.386  3.1273  0.1227 -0.2628
  260ACE     H2 2575   3.178   2.819   3.364  1.2658  1.4885 -0.0765
  260ACE     H3 2576   3.113   2.852   3.519  0.4516 -3.2319 -0.1044
  260ACE     H4 2577   2.807   2.708   3.442 -0.9956 -0.8856  2.7680
  261ACE     C1 2578   3.288   2.431   2.249 -0.1126  0.2920  0.0859
  261ACE     C2 2579   3.356   2.399   2.381 -0.2367  0.6665  0.0924
  261ACE     O1 2580   3.449   2.463   2.431  0.3995 -0.5983  0.2779
  261ACE     O2 2581   3.314   2.281   2.431 -0.1589  0.3130 -0.3236
  261ACE     H1 2582   3.345   2.366   2.182 -1.0801 -1.6283  1.0833
  261ACE     H2 2583   3.285   2.535   2.216 -1.5057  0.0117 -0.7149
  261ACE     H3 2584   3.188   2.386   2.246 -0.9597  2.0209  1.3939
  261ACE     H4 2585   3.390   2.262   2.489  1.1893 -1.3337 -2.5613
  262ACE     C1 2586   1.987   1.439   3.345 -0.2638  0.4134 -0.5467
  262ACE     C2 2587   2.123   1.378   3.304 -0.1879 -0.3265  0.5566
  262ACE     O1 2588   2.145   1.299   3.213 -0.2364 -0.6620  0.3306
  262ACE     O2 2589   2.217   1.413   3.387 -0.4087  0.3354 -0.0128
  262ACE     H1 2590   1.908   1.394   3.282  0.4602  1.0725 -1.9546
  262ACE     H2 2591   1.993   1.546   3.325  0.1922  0.2102 -1.5080
  262ACE     H3 2592   1.982   1.429   3.454  2.4748 -1.2598 -0.5456
  262ACE     H4 2593   2.296   1.382   3.340 -0.5130  0.0903 -0.0270
  263ACE     C1 2594   1.767   2.798   3.154 -0.4402 -0.3206  0.2072
  263ACE     C2 2595   1.768   2.660   3.090 -0.3124 -0.1591  0.0457
  263ACE     O1 2596   1.674   2.624   3.027 -0.2267  0.0658 -0.3610
  263ACE     O2 2597   1.884   2.600   3.083  0.1254  0.1396  0.0160
  263ACE     H1 2598   1.855   2.851   3.118  0.3008 -0.9499  1.0694
  263ACE     H2 2599   1.779   2.783   3.262 -1.7564  0.0323  0.4087
  263ACE     H3 2600   1.676   2.848   3.118  0.2878 -0.0040 -1.2175
  263ACE     H4 2601   1.865   2.544   3.006 -1.4409  0.5969  0.0498
  264ACE     C1 2602   1.935   1.024   0.039 -0.4165 -0.3674 -0.1304
  264ACE     C2 2603   1.955   0.903   0.128  0.6840  0.9613 -0.1844
  264ACE     O1 2604   1.981   0.911   0.242  0.6541  0.0430  0.2569
  264ACE     O2 2605   1.916   0.786   0.080  0.1240  0.6030 -0.3694
  264ACE     H1 2606   1.848   1.011  -0.025  0.1410  3.1475 -1.7336
  264ACE     H2 2607   2.008   1.039  -0.041 -0.6282  1.1373 -0.0692
  264ACE     H3 2608   1.922   1.110   0.107 -0.0587 -1.8477  1.8373
  264ACE     H4 2609   1.922   0.724   0.155 -1.4531 -1.8145 -2.1624
  265ACE     C1 2610   0.567   1.536   3.075  0.5991  0.8309  0.3284
  265ACE     C2 2611   0.437   1.505   3.006 -0.0312 -0.2746  0.0225
  265ACE     O1 2612   0.406   1.420   2.929 -0.3757  0.1616  0.1395
  265ACE     O2 2613   0.337   1.596   3.043  0.6371 -0.5076 -0.2973
  265ACE     H1 2614   0.588   1.633   3.028  0.6926  1.2710  1.2527
  265ACE     H2 2615   0.646   1.464   3.049  0.0411 -0.5638  2.3785
  265ACE     H3 2616   0.557   1.575   3.177 -0.0500  1.7600 -0.0845
  265ACE     H4 2617   0.267   1.563   2.985  0.6890 -1.2287  0.0332
  266ACE     C1 2618   1.180   1.601   3.039 -0.2915 -0.2443 -0.0162
  266ACE     C2 2619   1.141   1.465   3.091  0.2980  0.2201 -0.1842
  266ACE     O1 2620   1.132   1.366   3.018  0.2830 -0.1165 -0.1491
  266ACE     O2 2621   1.143   1.457   3.222  0.7285 -0.3953 -0.1712
  266ACE     H1 2622   1.203   1.598   2.932 -0.5015  0.1918 -0.0765
  266ACE     H2 2623   1.267   1.638   3.094  2.3210  1.2372 -4.8344
  266ACE     H3 2624   1.101   1.674   3.061 -0.4661  0.1228 -1.8019
  266ACE     H4 2625   1.131   1.362   3.240  0.1812 -0.0503  1.4056
  267ACE     C1 2626   2.716   0.738   0.337  0.4075  0.0393  0.6461
  267ACE     C2 2627   2.735   0.887   0.357 -0.2079 -0.7977  0.6556
  267ACE     O1 2628   2.645   0.967   0.341 -0.1392  0.9061 -0.3731
  267ACE     O2 2629   2.861   0.928   0.346  0.8676 -0.0107  0.2978
  267ACE     H1 2630   2.616   0.720   0.297  1.3997  0.1247 -1.9706
  267ACE     H2 2631   2.735   0.698   0.438  1.5016 -0.6977  0.1566
  267ACE     H3 2632   2.793   0.691   0.276 -1.6437 -2.3026 -0.2013
  267ACE     H4 2633   2.851   1.024   0.333  1.3081  0.1167  0.8668
  268ACE     C1 2634   0.457   0.074   3.292 -0.4859  0.2766 -0.0874
  268ACE     C2 2635   0.395   0.048   3.426 -0.3543 -0.0219 -1.0237
  268ACE     O1 2636   0.391   0.134   3.510  0.4528 -0.4292 -0.0990
  268ACE     O2 2637   0.416  -0.080   3.470 -0.1403  0.2766 -0.0672
  268ACE     H1 2638   0.561   0.041   3.284 -0.6635 -0.2563 -0.2366
  268ACE     H2 2639   0.440   0.180   3.273 -1.2623  0.1433 -0.1445
  268ACE     H3 2640   0.405   0.005   3.225 -1.7090 -0.2554  1.3913
  268ACE     H4 2641   0.450  -0.121   3.389  0.4147  0.8495 -0.1348
  269ACE     C1 2642   1.112   1.678   2.564 -0.0459  0.0836  0.3306
  269ACE     C2 2643   1.170   1.819   2.614  0.4361  0.0365 -0.1414
  269ACE     O1 2644   1.279   1.864   2.596 -0.8743  0.3303 -0.1682
  269ACE     O2 2645   1.113   1.845   2.731  0.4285  0.4952  0.5893
  269ACE     H1 2646   1.129   1.659   2.458  0.1263  1.2730  0.1321
  269ACE     H2 2647   1.004   1.674   2.580 -0.1544  1.0270 -0.1421
  269ACE     H3 2648   1.160   1.597   2.620  0.0372  1.4999  2.4139
  269ACE     H4 2649   1.184   1.893   2.778  1.8903 -0.1553 -0.9023
  270ACE     C1 2650   0.631   2.072   2.292  0.0073  0.3160  0.5754
  270ACE     C2 2651   0.641   1.926   2.270 -0.1640  0.0447  0.1162
  270ACE     O1 2652   0.748   1.867   2.261  0.0374  0.2776  0.4951
  270ACE     O2 2653   0.527   1.861   2.242  0.5949  0.2160 -0.3432
  270ACE     H1 2654   0.555   2.087   2.369 -0.6709 -0.7725  0.1164
  270ACE     H2 2655   0.587   2.114   2.201  0.6502 -1.5529 -0.6304
  270ACE     H3 2656   0.732   2.107   2.316 -0.3875  1.1000  1.1042
  270ACE     H4 2657   0.561   1.771   2.226 -1.6774 -0.4789 -1.5007
  271ACE     C1 2658   3.009   0.366   2.308  0.0213  0.7682 -0.2706
  271ACE     C2 2659   2.908   0.251   2.305 -0.2735 -0.1323  0.1798
  271ACE     O1 2660   2.882   0.177   2.400 -0.6284  0.0584 -0.0177
  271ACE     O2 2661   2.840   0.250   2.192  0.0637 -0.5082  0.1831
  271ACE     H1 2662   3.070   0.370   2.399  0.8339  0.5527 -0.7992
  271ACE     H2 2663   2.963   0.461   2.279 -0.2051  0.2284 -1.7357
  271ACE     H3 2664   3.078   0.356   2.224  0.7759 -0.4881  0.4883
  271ACE     H4 2665   2.768   0.187   2.209 -1.4082  1.1734  0.3368
  272ACE     C1 2666   0.718   1.969   3.374  0.1653  0.5214  0.2260
  272ACE     C2 2667   0.767   2.036   3.503 -0.4184  0.0101  0.2408
  272ACE     O1 2668   0.731   2.013   3.620 -0.5406  0.6066 -0.1524
  272ACE     O2 2669   0.863   2.132   3.480  0.0741 -0.3520 -1.0679
  272ACE     H1 2670   0.773   1.874   3.366  1.0214  1.2043 -2.8875
  272ACE     H2 2671   0.734   2.026   3.281 -0.5906  1.3572  0.6117
  272ACE     H3 2672   0.611   1.949   3.383 -0.1491  1.1566 -1.8813
  272ACE     H4 2673   0.897   2.142   3.570 -1.8772  0.3823 -0.3860
  273ACE     C1 2674   1.923   1.045   3.248 -0.5282  0.7964  0.1887
  273ACE     C2 2675   1.869   1.109   3.369  0.2272  0.4097 -0.0790
  273ACE     O1 2676   1.939   1.157   3.453  0.7704 -0.6131  0.3861
  273ACE     O2 2677   1.737   1.112   3.371  0.0139  0.5413  0.1443
  273ACE     H1 2678   1.927   0.938   3.268  0.8127  0.3633 -2.1970
  273ACE     H2 2679   2.031   1.058   3.230 -0.0977  0.0088  2.0592
  273ACE     H3 2680   1.870   1.074   3.157  0.9329  1.5243 -0.4523
  273ACE     H4 2681   1.726   1.167   3.450  1.3790 -1.2333  1.6159
  274ACE     C1 2682   2.888   1.910   3.056 -0.1864 -0.2145  0.1366
  274ACE     C2 2683   2.921   1.767   3.094  0.0548 -0.5890  0.4327
  274ACE     O1 2684   3.002   1.694   3.044  0.3286  0.3109 -0.7631
  274ACE     O2 2685   2.849   1.720   3.199 -0.6181 -0.8047 -0.4275
  274ACE     H1 2686   2.965   1.967   3.001 -0.0477 -0.5687 -0.0364
  274ACE     H2 2687   2.855   1.971   3.141  2.2468 -1.6364  2.1816
  274ACE     H3 2688   2.793   1.917   3.002 -0.9706  0.3035  1.5563
  274ACE     H4 2689   2.883   1.629   3.201  2.2897  0.2623  2.6465
  275ACE     C1 2690   2.980   0.567   2.736 -0.2180 -0.1220 -0.3048
  275ACE     C2 2691   2.923   0.698   2.782  0.2076  0.2361 -0.4013
  275ACE     O1 2692   2.832   0.756   2.732  0.5350  0.0481  0.2515
  275ACE     O2 2693   3.007   0.764   2.862 -0.7883  0.4059 -1.1822
  275ACE     H1 2694   2.909   0.508   2.677 -3.2705  3.3510 -0.3557
  275ACE     H2 2695   3.027   0.506   2.813  0.9509  1.6837  0.4281
  275ACE     H3 2696   3.062   0.602   2.672  0.0700  0.8970  0.6150
  275ACE     H4 2697   2.967   0.851   2.881 -0.9737 -0.0781  0.7631
  276ACE     C1 2698   1.679   1.363   3.759  0.3251 -0.7148  0.3122
  276ACE     C2 2699   1.684   1.389   3.612  0.2307  0.0838  1.0316
  276ACE     O1 2700   1.671   1.304   3.528 -0.0367 -0.3794 -0.3068
  276ACE     O2 2701   1.725   1.511   3.581  0.0997 -0.6644  0.5831
  276ACE     H1 2702   1.616   1.440   3.805  1.0745 -0.1671  0.4267
  276ACE     H2 2703   1.783   1.355   3.790  0.1926 -2.2466  0.4132
  276ACE     H3 2704   1.632   1.264   3.770 -0.6365 -0.1882  1.1032
  276ACE     H4 2705   1.722   1.508   3.484 -3.1159 -0.9115  0.6602
  277ACE     C1 2706   2.711   3.151   3.161 -0.0557 -0.4128 -0.2670
  277ACE     C2 2707   2.722   3.112   3.307  0.2704  0.4320  0.6221
  277ACE     O1 2708   2.635   3.116   3.390  0.4171 -0.3074  0.1490
  277ACE     O2 2709   2.848   3.083   3.344 -0.4414  0.0927  0.5340
  277ACE     H1 2710   2.780   3.234   3.147 -0.1217 -0.2422  0.4073
  277ACE     H2 2711   2.609   3.177   3.131  0.6180  1.9891 -0.5603
  277ACE     H3 2712   2.763   3.074   3.103  0.3872 -0.1807 -0.1751
  277ACE     H4 2713   2.826   3.045   3.431 -0.3137 -0.0022  0.5242
  278ACE     C1 2714   1.496   1.351   3.244 -0.3855 -0.9563 -0.1361
  278ACE     C2 2715   1.619   1.433   3.198 -0.2552 -0.1127 -0.3166
  278ACE     O1 2716   1.677   1.524   3.266 -0.5775  0.2250 -0.4572
  278ACE     O2 2717   1.649   1.426   3.068 -0.7517  0.0116 -0.3073
  278ACE     H1 2718   1.474   1.392   3.344  1.3000  2.3701 -1.0592
  278ACE     H2 2719   1.531   1.248   3.230 -0.0308 -1.1887  2.1528
  278ACE     H3 2720   1.421   1.377   3.168  1.0244 -0.2233 -1.2926
  278ACE     H4 2721   1.733   1.475   3.065 -1.2660  0.8985 -0.1503
  279ACE     C1 2722   0.630   2.044   0.357  0.1520  0.7323  0.1290
  279ACE     C2 2723   0.628   2.097   0.213 -0.0922 -0.0673 -0.0084
  279ACE     O1 2724   0.553   2.182   0.165 -0.3249 -1.1127 -0.3203
  279ACE     O2 2725   0.698   2.018   0.123  0.6835  0.1680 -0.5628
  279ACE     H1 2726   0.556   2.088   0.425  0.2284  1.2378 -0.1156
  279ACE     H2 2727   0.732   2.055   0.397  0.6418 -0.7452 -0.6685
  279ACE     H3 2728   0.628   1.934   0.357  1.0146  0.7077  0.3474
  279ACE     H4 2729   0.663   2.045   0.037  1.3573 -1.9885 -1.5633
  280ACE     C1 2730   1.518   1.342   2.715 -0.2253 -0.4515  0.0352
  280ACE     C2 2731   1.384   1.364   2.783 -0.3582  0.2047  0.1455
  280ACE     O1 2732   1.296   1.443   2.752  0.3791 -0.1888  0.0632
  280ACE     O2 2733   1.370   1.286   2.881 -0.0434 -0.3578 -0.5949
  280ACE     H1 2734   1.595   1.334   2.792 -1.5015  0.0113  1.3743
  280ACE     H2 2735   1.532   1.431   2.652 -1.9297  0.2075  0.5646
  280ACE     H3 2736   1.514   1.254   2.650 -0.3409 -0.5636  0.1964
  280ACE     H4 2737   1.280   1.316   2.902 -0.1113 -0.6730 -0.4306
  281ACE     C1 2738   2.622   0.545   2.989 -0.3317  0.6809  0.5725
  281ACE     C2 2739   2.547   0.496   2.870  1.0676  0.7128 -0.6819
  281ACE     O1 2740   2.504   0.382   2.866  0.5184 -0.5718  0.0381
  281ACE     O2 2741   2.559   0.562   2.756  0.2063 -0.3682  0.4271
  281ACE     H1 2742   2.577   0.514   3.084 -0.0883 -1.7746 -0.0831
  281ACE     H2 2743   2.628   0.655   2.991 -0.5519  0.7221 -0.5628
  281ACE     H3 2744   2.721   0.500   2.976 -0.3206  1.2457 -1.4224
  281ACE     H4 2745   2.501   0.510   2.698 -2.1795  1.7207  0.8494
  282ACE     C1 2746   1.061   3.107   3.052 -0.1646  0.6402  0.3972
  282ACE     C2 2747   1.054   2.996   3.166 -0.5503  0.0036 -0.1101
  282ACE     O1 2748   1.028   3.028   3.280  0.2008 -0.4045  0.4047
  282ACE     O2 2749   1.077   2.868   3.131  0.5626  0.4747 -0.2807
  282ACE     H1 2750   1.005   3.083   2.960 -0.9285 -0.6976  1.1956
  282ACE     H2 2751   1.164   3.133   3.027  0.2038  1.1195  2.3425
  282ACE     H3 2752   1.027   3.207   3.082 -0.1436  0.6021  0.5459
  282ACE     H4 2753   1.052   2.814   3.208  1.8616  0.3738  0.0817
  283ACE     C1 2754   1.091   1.121   2.724 -0.1705  0.4657  0.2990
  283ACE     C2 2755   1.108   1.013   2.617 -0.1893 -0.2906 -0.8757
  283ACE     O1 2756   1.017   0.982   2.540 -1.0871  0.4363 -0.0470
  283ACE     O2 2757   1.201   0.931   2.643 -0.2943  0.0685 -0.0203
  283ACE     H1 2758   1.073   1.058   2.812 -0.5017 -0.9797 -0.7757
  283ACE     H2 2759   0.998   1.176   2.705 -0.6883 -0.7878 -0.9109
  283ACE     H3 2760   1.187   1.174   2.734  0.6336 -0.8288 -0.3497
  283ACE     H4 2761   1.169   0.849   2.602  1.3765  0.4642 -2.1936
  284ACE     C1 2762   2.726   2.012   2.598 -0.2618  0.3947  0.0275
  284ACE     C2 2763   2.811   1.887   2.627  0.7726 -0.5713  0.4252
  284ACE     O1 2764   2.922   1.888   2.676  0.0204 -0.5021 -0.6418
  284ACE     O2 2765   2.736   1.779   2.635 -0.1086 -0.0756 -0.1476
  284ACE     H1 2766   2.733   2.083   2.682  0.2773  0.4458 -0.0532
  284ACE     H2 2767   2.625   1.984   2.568 -0.4963 -0.8016  1.8483
  284ACE     H3 2768   2.773   2.055   2.509  0.9081 -0.3774  0.2606
  284ACE     H4 2769   2.802   1.707   2.640  1.1963  0.8780 -2.5213
  285ACE     C1 2770   2.115   3.207   0.240 -0.3064 -0.4620 -0.1833
  285ACE     C2 2771   2.131   3.188   0.392 -0.4090  0.4132  0.2737
  285ACE     O1 2772   2.091   3.093   0.460  0.3455 -0.5044 -0.2477
  285ACE     O2 2773   2.189   3.290   0.455 -0.4834 -0.5522 -0.1436
  285ACE     H1 2774   2.123   3.117   0.176  0.9658 -0.0092 -0.6707
  285ACE     H2 2775   2.178   3.289   0.204 -0.6349  0.6034  1.6280
  285ACE     H3 2776   2.008   3.225   0.227 -0.5775 -1.2366  0.8975
  285ACE     H4 2777   2.199   3.272   0.550 -0.8454  2.8882  0.6061
  286ACE     C1 2778   3.291   1.661   3.405  0.6257  0.4372  0.3172
  286ACE     C2 2779   3.376   1.571   3.312 -0.3571  0.0826  0.0358
  286ACE     O1 2780   3.421   1.458   3.342  0.2292 -0.5308 -0.1939
  286ACE     O2 2781   3.372   1.608   3.184 -0.2928  0.0492  0.4144
  286ACE     H1 2782   3.201   1.606   3.433  0.8788 -0.1634 -0.0495
  286ACE     H2 2783   3.261   1.745   3.341  0.4513  0.1867  0.0713
  286ACE     H3 2784   3.347   1.701   3.491  0.4306  1.5458 -0.0658
  286ACE     H4 2785   3.431   1.544   3.141 -0.2301  2.1803 -2.8779
  287ACE     C1 2786   2.209   1.252   0.506  0.1715  0.3614 -0.2576
  287ACE     C2 2787   2.254   1.228   0.363 -0.2820  0.3924 -0.5661
  287ACE     O1 2788   2.188   1.170   0.281  1.8265 -1.2492 -0.4167
  287ACE     O2 2789   2.388   1.240   0.346 -0.6914  0.0450  0.7118
  287ACE     H1 2790   2.230   1.355   0.535  1.5587  0.3748 -1.2825
  287ACE     H2 2791   2.269   1.190   0.573  1.7727  2.1557  0.0155
  287ACE     H3 2792   2.102   1.224   0.505 -0.3959  2.3460  1.5067
  287ACE     H4 2793   2.398   1.186   0.266 -2.2615  0.4244  0.2513
  288ACE     C1 2794   1.791   0.007   2.671  0.1029 -0.0716  0.5526
  288ACE     C2 2795   1.838   0.100   2.554 -0.2365 -0.4350  0.2384
  288ACE     O1 2796   1.918   0.193   2.566  0.3348 -0.2273 -0.4940
  288ACE     O2 2797   1.742   0.110   2.463  0.6766 -0.5691 -0.2371
  288ACE     H1 2798   1.803  -0.099   2.646  0.9248 -0.8701  4.0146
  288ACE     H2 2799   1.681   0.005   2.675  0.0096  0.0015 -1.5552
  288ACE     H3 2800   1.848   0.038   2.760  0.3280 -1.2454  0.8313
  288ACE     H4 2801   1.785   0.175   2.404 -0.7424  0.2239 -0.4129
  289ACE     C1 2802   3.220   0.302   2.598  0.1629  0.4296 -0.3564
  289ACE     C2 2803   3.316   0.369   2.695  0.3098  0.2510 -0.6693
  289ACE     O1 2804   3.353   0.320   2.800 -0.3642 -0.3860  0.2103
  289ACE     O2 2805   3.395   0.454   2.641 -0.0482  0.1159  0.7593
  289ACE     H1 2806   3.115   0.325   2.623 -0.7567 -4.0339  0.3214
  289ACE     H2 2807   3.231   0.194   2.608 -0.5654  0.5865  2.8650
  289ACE     H3 2808   3.249   0.331   2.497  1.1096  1.4289  0.1947
  289ACE     H4 2809   3.472   0.460   2.700 -0.4672  0.7551  1.2555
  290ACE     C1 2810   3.157   1.066   0.228 -0.1964 -0.5741  0.0181
  290ACE     C2 2811   3.209   1.206   0.200  0.2717  0.0812 -0.0296
  290ACE     O1 2812   3.158   1.287   0.126 -0.5000  0.5054  0.6293
  290ACE     O2 2813   3.339   1.210   0.211  0.3236 -0.3246 -0.5825
  290ACE     H1 2814   3.069   1.042   0.167 -0.8430 -1.1493  1.1565
  290ACE     H2 2815   3.133   1.053   0.334 -2.0765  0.1582 -0.2966
  290ACE     H3 2816   3.239   0.994   0.217  0.2202  0.3362 -3.4689
  290ACE     H4 2817   3.365   1.279   0.146  1.0787  1.5760  1.6794
  291ACE     C1 2818   0.922   2.448   3.016  0.2613  0.1173 -0.1281
  291ACE     C2 2819   1.002   2.329   3.049  0.5025 -0.5085  0.6451
  291ACE     O1 2820   1.061   2.259   2.973  0.1579  0.0906  1.0357
  291ACE     O2 2821   1.001   2.304   3.176  0.8601 -0.0379 -0.4007
  291ACE     H1 2822   0.828   2.444   3.072  0.7469 -1.9332  0.5673
  291ACE     H2 2823   0.919   2.464   2.908  2.1682  2.2082  0.0768
  291ACE     H3 2824   0.976   2.533   3.061  0.0759 -0.2709  0.8578
  291ACE     H4 2825   1.068   2.233   3.175 -0.0022 -0.8597 -0.8598
  292ACE     C1 2826   3.363   1.527   3.725  0.4917 -0.0407  0.1907
  292ACE     C2 2827   3.481   1.516   3.817 -0.4786  0.7649 -0.4602
  292ACE     O1 2828   3.565   1.601   3.834 -0.3017 -0.2946 -0.0861
  292ACE     O2 2829   3.509   1.390   3.857 -0.4496 -0.1515  0.4171
  292ACE     H1 2830   3.323   1.629   3.720  0.3615 -0.1541 -1.2600
  292ACE     H2 2831   3.282   1.459   3.752 -1.4881  2.4203  0.6316
  292ACE     H3 2832   3.392   1.484   3.628 -0.4089  0.4280 -0.2847
  292ACE     H4 2833   3.597   1.395   3.899 -0.6472  1.2426  0.7092
  293ACE     C1 2834   1.638   0.740   2.281  0.9053 -0.1304  0.1138
  293ACE     C2 2835   1.725   0.619   2.241  0.1598  0.2527 -0.3265
  293ACE     O1 2836   1.841   0.612   2.209 -0.7126 -0.2956 -0.3206
  293ACE     O2 2837   1.657   0.506   2.249  0.2533 -0.0585  0.2032
  293ACE     H1 2838   1.636   0.802   2.190 -0.9558 -0.4705 -0.0848
  293ACE     H2 2839   1.673   0.793   2.370  1.3940  0.3196 -0.3378
  293ACE     H3 2840   1.536   0.716   2.312  2.1951 -2.6643  2.5700
  293ACE     H4 2841   1.722   0.438   2.225 -0.1597 -0.5365  0.4444
  294ACE     C1 2842   1.089   0.518   3.730 -0.0778 -0.5921  0.2307
  294ACE     C2 2843   1.205   0.611   3.786 -0.3021  0.3794  0.0954
  294ACE     O1 2844   1.318   0.584   3.767  0.3519  0.1014  0.1615
  294ACE     O2 2845   1.175   0.676   3.897  0.1961  0.1678 -0.1311
  294ACE     H1 2846   1.008   0.519   3.804 -0.3389  0.3441 -0.0680
  294ACE     H2 2847   1.124   0.421   3.692  1.0004  0.0909 -0.5209
  294ACE     H3 2848   1.044   0.566   3.642  0.5240  1.9499  1.2788
  294ACE     H4 2849   1.265   0.672   3.934  0.1791 -0.9232 -0.1947
  295ACE     C1 2850   2.156   0.451   2.555  0.6036 -0.6498  0.6998
  295ACE     C2 2851   2.287   0.418   2.612 -0.7802 -0.0411  0.1631
  295ACE     O1 2852   2.396   0.442   2.567  0.2716 -0.6029 -0.0864
  295ACE     O2 2853   2.274   0.345   2.723  0.4117  0.0823  0.1611
  295ACE     H1 2854   2.117   0.526   2.625  0.9520  1.1539 -0.9884
  295ACE     H2 2855   2.088   0.366   2.566 -0.0394 -0.2929 -0.4532
  295ACE     H3 2856   2.163   0.494   2.455  2.2984 -0.3116  0.9400
  295ACE     H4 2857   2.363   0.344   2.763  0.4113 -0.9181  0.1342
  296ACE     C1 2858   2.552   0.348   3.340  0.0887 -0.5240  0.6160
  296ACE     C2 2859   2.426   0.421   3.357  0.3764 -0.3593 -0.6378
  296ACE     O1 2860   2.412   0.533   3.401 -0.2114  0.3990 -0.1520
  296ACE     O2 2861   2.313   0.349   3.336 -0.4087  0.1147  0.1147
  296ACE     H1 2862   2.563   0.262   3.407 -0.0259 -1.8365 -1.0037
  296ACE     H2 2863   2.638   0.416   3.334 -0.6178  0.4020  0.7889
  296ACE     H3 2864   2.547   0.279   3.255  1.1572  0.0921  0.0408
  296ACE     H4 2865   2.246   0.402   3.383  0.8922  0.8072  1.2327
  297ACE     C1 2866   2.965   0.683   0.759 -0.6365 -0.0146  0.4535
  297ACE     C2 2867   3.041   0.640   0.642 -0.0645 -1.0671 -0.5619
  297ACE     O1 2868   3.051   0.521   0.602 -0.5792 -0.1116  0.0696
  297ACE     O2 2869   3.079   0.741   0.565  0.2506  0.6322  0.5865
  297ACE     H1 2870   2.896   0.609   0.800 -0.0830 -0.1880  1.0714
  297ACE     H2 2871   2.902   0.763   0.718  0.1226 -0.1979 -1.1072
  297ACE     H3 2872   3.019   0.742   0.833 -1.2746  1.8192 -0.4921
  297ACE     H4 2873   3.119   0.695   0.490  0.3423  3.8185 -1.3901
  298ACE     C1 2874   0.694   0.412   2.232 -0.8063 -0.5675 -0.4181
  298ACE     C2 2875   0.545   0.417   2.241  0.2105 -0.1167 -0.8401
  298ACE     O1 2876   0.477   0.520   2.232 -0.1310  0.4145  0.0664
  298ACE     O2 2877   0.486   0.301   2.255 -0.2499 -0.4931  0.0164
  298ACE     H1 2878   0.737   0.390   2.331  1.6635  0.3021 -1.2637
  298ACE     H2 2879   0.733   0.510   2.202  0.0948 -0.3539  1.3802
  298ACE     H3 2880   0.727   0.327   2.172  2.1873 -0.5000  0.9909
  298ACE     H4 2881   0.393   0.327   2.269  0.2424  1.5241 -0.2522
  299ACE     C1 2882   1.582   2.763   2.587  0.2063  0.6452 -0.3260
  299ACE     C2 2883   1.698   2.703   2.653 -0.2995 -0.2868 -0.1602
  299ACE     O1 2884   1.775   2.631   2.599 -0.0121 -0.6801 -0.4073
  299ACE     O2 2885   1.733   2.772   2.755 -0.2877 -0.4790 -0.2053
  299ACE     H1 2886   1.508   2.785   2.665  1.1981  1.0069  0.5301
  299ACE     H2 2887   1.541   2.691   2.515 -1.1987  1.2595 -0.1607
  299ACE     H3 2888   1.602   2.856   2.532  0.2981  1.1561  0.5529
  299ACE     H4 2889   1.823   2.747   2.780  0.1742  0.8469 -0.5300
  300ACE     C1 2890   2.703   0.217   0.053 -0.7080 -0.3367  0.5561
  300ACE     C2 2891   2.838   0.168   0.095 -0.0755 -0.9088  0.4126
  300ACE     O1 2892   2.941   0.196   0.037  0.6857  0.0078 -0.1696
  300ACE     O2 2893   2.857   0.147   0.231  0.1210  0.7463  0.0059
  300ACE     H1 2894   2.691   0.323   0.025  2.5775 -0.4870 -1.6555
  300ACE     H2 2895   2.626   0.185   0.124 -0.2016 -2.2297  0.2664
  300ACE     H3 2896   2.677   0.180  -0.047  0.6616 -1.0340  0.4561
  300ACE     H4 2897   2.953   0.139   0.240 -0.0396 -0.4660  0.7816
  301ACE     C1 2898   2.706   0.145   3.098 -0.5005 -0.3941 -0.1381
  301ACE     C2 2899   2.798   0.106   3.224  0.3804  0.4475  0.5788
  301ACE     O1 2900   2.749   0.069   3.330  0.6368  0.8210 -0.2011
  301ACE     O2 2901   2.908   0.046   3.188  0.1757 -0.2821 -0.7667
  301ACE     H1 2902   2.744   0.089   3.012 -2.2567  0.5467 -1.5764
  301ACE     H2 2903   2.727   0.252   3.084  2.7423 -0.9998 -0.2289
  301ACE     H3 2904   2.598   0.128   3.108 -0.2242 -1.3618  1.2691
  301ACE     H4 2905   2.961   0.033   3.268  2.5829 -0.7628 -2.3613
  302ACE     C1 2906   3.013   3.278   0.846  1.2570 -0.3258  0.1160
  302ACE     C2 2907   2.921   3.385   0.790 -0.4326 -0.0175  0.4181
  302ACE     O1 2908   2.798   3.391   0.812  0.1907  0.1625 -0.9061
  302ACE     O2 2909   2.973   3.472   0.697  0.2473  0.8154 -0.3051
  302ACE     H1 2910   3.089   3.346   0.887  1.8394  1.5853 -3.8988
  302ACE     H2 2911   3.072   3.234   0.764  1.8588 -1.3710  1.0943
  302ACE     H3 2912   2.971   3.213   0.924  1.0138  1.6411  1.6633
  302ACE     H4 2913   2.891   3.519   0.672  0.1333  0.0939 -1.3434
  303ACE     C1 2914   1.951   1.739   3.772  0.5349  0.9787  0.3973
  303ACE     C2 2915   1.883   1.671   3.889  0.6567  0.2408  0.4294
  303ACE     O1 2916   1.940   1.652   3.994 -0.2071 -0.5113 -0.0707
  303ACE     O2 2917   1.747   1.680   3.898 -0.1209 -0.4828 -0.2050
  303ACE     H1 2918   2.034   1.810   3.787  0.7498  0.2655  2.8499
  303ACE     H2 2919   1.868   1.788   3.719  0.5107  0.5935  0.0830
  303ACE     H3 2920   1.985   1.669   3.695 -2.0059 -0.7138  0.7815
  303ACE     H4 2921   1.731   1.640   3.986  1.5582 -1.5669 -0.3640
  304ACE     C1 2922   1.116   1.400   2.259  0.1474  0.4273 -0.8610
  304ACE     C2 2923   1.132   1.247   2.266 -0.5986 -0.0031 -0.2981
  304ACE     O1 2924   1.237   1.185   2.242 -0.2281 -0.4380  0.6864
  304ACE     O2 2925   1.028   1.194   2.314 -0.1462  0.4447  0.4617
  304ACE     H1 2926   1.208   1.460   2.249  1.3333 -1.1424  0.2193
  304ACE     H2 2927   1.043   1.441   2.330 -1.0542 -1.8836 -0.7324
  304ACE     H3 2928   1.059   1.413   2.167  1.3117  3.0811 -1.2800
  304ACE     H4 2929   1.041   1.100   2.295 -2.0738 -0.1685  2.0366
  305ACE     C1 2930   2.760   3.073   0.020  0.3475  0.5058 -0.0366
  305ACE     C2 2931   2.821   2.979  -0.077  0.2929 -0.0470  0.2072
  305ACE     O1 2932   2.864   3.011  -0.184  0.2193  0.3172 -0.0336
  305ACE     O2 2933   2.781   2.856  -0.057 -0.3742 -0.4768 -0.6041
  305ACE     H1 2934   2.811   3.170   0.014  2.4992 -0.6856 -2.0054
  305ACE     H2 2935   2.752   3.022   0.117  2.8558 -0.5685 -0.3585
  305ACE     H3 2936   2.657   3.077  -0.017  0.6283 -0.6906 -0.9632
  305ACE     H4 2937   2.801   2.825  -0.147 -0.9189  0.3261 -1.0066
  306ACE     C1 2938   1.974   0.906   2.325 -0.1351 -0.3725 -0.0689
  306ACE     C2 2939   2.060   1.034   2.327 -0.6101  0.9206 -0.1279
  306ACE     O1 2940   2.115   1.064   2.429 -0.0374 -0.2161 -0.6973
  306ACE     O2 2941   2.030   1.133   2.239  0.6106  0.3610  0.1669
  306ACE     H1 2942   1.907   0.900   2.238 -1.1063 -0.1482  0.6441
  306ACE     H2 2943   1.934   0.877   2.422  1.7453 -2.0628  0.2195
  306ACE     H3 2944   2.031   0.814   2.312 -0.8813 -0.8078 -0.3289
  306ACE     H4 2945   2.057   1.210   2.292  1.5621  0.4681 -0.4624
  307ACE     C1 2946   1.871   2.342   0.596 -0.7432  0.1222 -0.3122
  307ACE     C2 2947   2.020   2.383   0.606  0.3515 -1.1963 -0.4593
  307ACE     O1 2948   2.109   2.310   0.644  0.1264 -0.4021 -0.7856
  307ACE     O2 2949   2.054   2.491   0.534  0.3157 -0.0272  0.3263
  307ACE     H1 2950   1.836   2.323   0.697  1.0868 -0.4477  0.2412
  307ACE     H2 2951   1.862   2.243   0.548  2.9029 -1.3446  1.8098
  307ACE     H3 2952   1.803   2.416   0.552  0.2342  0.0666 -1.9807
  307ACE     H4 2953   2.149   2.478   0.518  0.0927 -0.5138 -0.6736
  308ACE     C1 2954   0.174   2.343   2.710  0.4015  0.0597  0.8705
  308ACE     C2 2955   0.156   2.199   2.714 -0.2774  0.2696 -0.7099
  308ACE     O1 2956   0.185   2.132   2.808  0.3981 -0.0882  0.2912
  308ACE     O2 2957   0.082   2.155   2.607  0.4387 -0.4963 -0.0770
  308ACE     H1 2958   0.083   2.401   2.731 -0.8752 -1.6455  0.1830
  308ACE     H2 2959   0.206   2.376   2.611 -0.6370 -2.8983 -0.4975
  308ACE     H3 2960   0.246   2.386   2.781  1.0889  1.7267 -0.7926
  308ACE     H4 2961   0.065   2.062   2.631  2.8079 -0.8203  0.4931
  309ACE     C1 2962   0.805   0.695   2.548 -0.0010 -0.5779 -0.5085
  309ACE     C2 2963   0.669   0.659   2.601  1.2862 -0.4667  0.4215
  309ACE     O1 2964   0.613   0.725   2.681 -0.6111  0.3938  0.4915
  309ACE     O2 2965   0.613   0.559   2.534  0.2603 -0.2851  0.3918
  309ACE     H1 2966   0.874   0.642   2.616  0.3096  2.6106  1.8057
  309ACE     H2 2967   0.831   0.801   2.561 -0.7978 -0.4880  0.3589
  309ACE     H3 2968   0.835   0.655   2.450  2.4968  0.1859 -0.1034
  309ACE     H4 2969   0.528   0.540   2.577 -1.0480  0.7985 -1.6546
  310ACE     C1 2970   3.086   1.871   2.372  0.6532  0.1474  0.5097
  310ACE     C2 2971   3.163   2.002   2.350 -0.7505  0.3920  0.3455
  310ACE     O1 2972   3.280   2.007   2.320 -0.3304 -0.2561  0.4386
  310ACE     O2 2973   3.083   2.103   2.321 -0.0599  0.1135  0.0508
  310ACE     H1 2974   3.001   1.885   2.440 -1.5685 -2.9885 -1.5238
  310ACE     H2 2975   3.162   1.802   2.412  1.4709  0.9098  0.2860
  310ACE     H3 2976   3.035   1.833   2.283  0.5285 -0.2606  0.7500
  310ACE     H4 2977   3.145   2.171   2.291  1.5591 -1.6187 -0.6064
  311ACE     C1 2978   2.485   2.808   0.058 -0.6637  0.0632 -0.2428
  311ACE     C2 2979   2.368   2.769   0.150  0.5000 -0.3284  0.0189
  311ACE     O1 2980   2.290   2.684   0.120  0.1115  0.5001 -0.1008
  311ACE     O2 2981   2.344   2.855   0.254 -0.2442 -0.6947  0.0047
  311ACE     H1 2982   2.571   2.862   0.098 -0.7694 -1.3675  1.9588
  311ACE     H2 2983   2.437   2.863  -0.024 -0.3994 -2.4521 -2.1276
  311ACE     H3 2984   2.508   2.712   0.011 -0.3955  0.8483 -1.7520
  311ACE     H4 2985   2.252   2.835   0.278 -0.2386 -1.6377 -0.7522
  312ACE     C1 2986   1.200   1.056   3.132  0.9504 -0.1806 -0.1325
  312ACE     C2 2987   1.220   1.077   3.279  0.2710 -0.2398 -0.3764
  312ACE     O1 2988   1.278   0.999   3.350 -0.1088  0.0059  0.0855
  312ACE     O2 2989   1.191   1.199   3.317  0.1453 -0.5292  0.6592
  312ACE     H1 2990   1.268   1.120   3.074  0.1845  0.5732 -0.2095
  312ACE     H2 2991   1.102   1.099   3.106  0.4114 -0.6003  1.1751
  312ACE     H3 2992   1.216   0.952   3.103  3.1081  0.7303 -2.4509
  312ACE     H4 2993   1.222   1.190   3.408 -1.7722  0.0270  1.3906
  313ACE     C1 2994   1.715   1.170   2.313  0.0213 -0.2162 -0.4176
  313ACE     C2 2995   1.578   1.150   2.264 -0.1066  0.1505  0.6793
  313ACE     O1 2996   1.529   1.043   2.261  0.4175  0.5186  0.2642
  313ACE     O2 2997   1.500   1.259   2.265 -0.8227  0.3657 -0.3116
  313ACE     H1 2998   1.780   1.222   2.241  1.3067 -0.2403  0.7108
  313ACE     H2 2999   1.759   1.078   2.352  1.0007 -0.2123 -1.4902
  313ACE     H3 3000   1.707   1.250   2.387 -0.8881  2.1712 -2.9855
  313ACE     H4 3001   1.413   1.219   2.247 -0.6979  0.3998 -0.9763
  314ACE     C1 3002   2.248   2.830   0.587 -0.5285 -0.3359  0.0159
  314ACE     C2 3003   2.309   2.745   0.692  0.0873  0.0348 -0.2124
  314ACE     O1 3004   2.363   2.638   0.678  0.0454  0.0941  0.4600
  314ACE     O2 3005   2.270   2.781   0.820 -0.7546  0.1416  0.0147
  314ACE     H1 3006   2.246   2.780   0.489  0.3272  0.6064 -0.4956
  314ACE     H2 3007   2.276   2.936   0.591  0.0472 -0.4136 -1.5230
  314ACE     H3 3008   2.149   2.837   0.634  0.9950 -1.0666  3.4661
  314ACE     H4 3009   2.320   2.715   0.871  0.2777  2.2490  1.8750
  315ACE     C1 3010   2.571   1.703   2.959 -0.0451  0.0486 -0.6018
  315ACE     C2 3011   2.552   1.579   3.046 -0.2364  0.0262  0.1126
  315ACE     O1 3012   2.641   1.532   3.109 -0.9611 -0.1722 -0.7532
  315ACE     O2 3013   2.431   1.537   3.060 -0.8959  0.0733 -0.2231
  315ACE     H1 3014   2.679   1.721   2.949  0.3658 -0.8985  1.7160
  315ACE     H2 3015   2.525   1.781   3.020 -2.0005 -1.9607  0.5655
  315ACE     H3 3016   2.516   1.700   2.864 -2.5921 -2.8226  0.8737
  315ACE     H4 3017   2.443   1.465   3.125 -1.5508 -0.0059 -0.1836
  316ACE     C1 3018   1.262   0.077   3.115  0.3371  0.2134  0.5822
  316ACE     C2 3019   1.400   0.037   3.085  0.6646 -0.0043 -0.1235
  316ACE     O1 3020   1.476   0.104   3.019  0.1443 -0.4591  0.5624
  316ACE     O2 3021   1.442  -0.079   3.127  0.0875  0.6082  0.3174
  316ACE     H1 3022   1.252   0.186   3.106 -1.5093 -0.0559 -1.1514
  316ACE     H2 3023   1.219   0.038   3.208 -1.7642 -1.9680 -1.2197
  316ACE     H3 3024   1.199   0.013   3.051 -0.5226 -0.9593  2.5573
  316ACE     H4 3025   1.532  -0.085   3.091  0.2188  0.8150  0.6017
  317ACE     C1 3026   3.177   3.289   2.587  0.3091  0.1416  0.0722
  317ACE     C2 3027   3.319   3.274   2.636  0.7306 -0.0746  0.7690
  317ACE     O1 3028   3.409   3.213   2.584 -0.1117 -0.1308 -0.2480
  317ACE     O2 3029   3.325   3.264   2.772  0.1371  0.0381  0.0891
  317ACE     H1 3030   3.141   3.389   2.611 -1.1662  0.2627 -2.3902
  317ACE     H2 3031   3.106   3.224   2.640  1.6744 -0.9057  0.6405
  317ACE     H3 3032   3.169   3.255   2.483  0.3267 -2.3536  0.8589
  317ACE     H4 3033   3.397   3.199   2.786 -0.0733  0.2654  2.4610
  318ACE     C1 3034   0.710   2.983   2.737 -0.4096 -0.0139  0.5191
  318ACE     C2 3035   0.659   3.105   2.658  0.3474 -0.9998 -0.3967
  318ACE     O1 3036   0.588   3.191   2.712  0.6660 -0.9732 -0.3576
  318ACE     O2 3037   0.720   3.120   2.540 -1.0166  0.5003 -0.1857
  318ACE     H1 3038   0.660   2.953   2.829  1.1938 -0.6235  1.2092
  318ACE     H2 3039   0.812   3.012   2.765 -0.6555 -0.6787  2.1633
  318ACE     H3 3040   0.726   2.903   2.664  2.6283  2.0980 -1.2541
  318ACE     H4 3041   0.715   3.216   2.521 -0.8116  0.6022  0.2781
  319ACE     C1 3042   2.249   2.473   3.602  0.9357  0.0142  0.0119
  319ACE     C2 3043   2.388   2.455   3.660  0.1812 -0.2656  0.1397
  319ACE     O1 3044   2.489   2.506   3.604 -0.3414 -0.7250  0.0919
  319ACE     O2 3045   2.397   2.376   3.765  0.6550  0.8679 -0.0463
  319ACE     H1 3046   2.247   2.524   3.505  0.0787  0.9158  0.4955
  319ACE     H2 3047   2.181   2.524   3.671  1.2859 -0.2651  0.5630
  319ACE     H3 3048   2.187   2.382   3.598  0.8600  0.1016 -0.9037
  319ACE     H4 3049   2.494   2.376   3.775  0.3244  3.2729  4.0990
  320ACE     C1 3050   1.253   2.706   2.308 -0.0600 -0.2097  0.1834
  320ACE     C2 3051   1.251   2.560   2.360  0.5752 -0.2789  0.1594
  320ACE     O1 3052   1.169   2.511   2.439 -0.3900 -0.7350  0.2544
  320ACE     O2 3053   1.323   2.484   2.278  0.7367  0.1236  0.3628
  320ACE     H1 3054   1.350   2.716   2.259  0.6190  0.5520  1.6392
  320ACE     H2 3055   1.228   2.770   2.394  0.3709  0.2650 -0.0440
  320ACE     H3 3056   1.177   2.716   2.230  1.0432 -0.4583 -0.9335
  320ACE     H4 3057   1.273   2.401   2.288  0.2829  0.6180  2.3789
  321ACE     C1 3058   1.739   3.143   3.270  0.1312  0.1711 -0.2136
  321ACE     C2 3059   1.741   3.187   3.125  0.6704  0.6257 -0.1172
  321ACE     O1 3060   1.698   3.294   3.088  0.4035  0.0192 -0.6063
  321ACE     O2 3061   1.812   3.104   3.041 -0.6719 -0.0868  0.1232
  321ACE     H1 3062   1.838   3.111   3.305  0.4681  1.8834  0.4583
  321ACE     H2 3063   1.683   3.049   3.276  2.8452 -1.5123 -0.5539
  321ACE     H3 3064   1.687   3.215   3.334  0.7687  3.4649 -3.1828
  321ACE     H4 3065   1.828   3.160   2.963 -1.0861 -0.8312 -0.5031
  322ACE     C1 3066   0.898   2.171   2.628  0.5651 -0.1369 -0.4231
  322ACE     C2 3067   0.771   2.215   2.695  0.3397 -0.4085  0.1978
  322ACE     O1 3068   0.751   2.332   2.729  0.2624  0.8385  0.1268
  322ACE     O2 3069   0.672   2.141   2.676  0.4477  0.3392  0.4439
  322ACE     H1 3070   0.917   2.066   2.650  0.5687 -0.0927 -0.2220
  322ACE     H2 3071   0.989   2.228   2.649 -0.6620  2.1283 -1.0000
  322ACE     H3 3072   0.892   2.179   2.518  0.3938  0.3779 -0.3782
  322ACE     H4 3073   0.598   2.200   2.700  1.2879  1.6647 -0.1850
  323ACE     C1 3074   2.029   2.821   3.715  0.6981 -0.2295  0.4018
  323ACE     C2 3075   2.034   2.943   3.629  0.3277  0.3692  0.1396
  323ACE     O1 3076   2.052   2.949   3.510  0.1045 -0.5240 -0.6088
  323ACE     O2 3077   2.010   3.056   3.694  0.0371 -0.0099  0.5582
  323ACE     H1 3078   2.086   2.834   3.808 -0.0356 -0.3113  0.8602
  323ACE     H2 3079   2.059   2.726   3.669 -0.5850  1.0310 -3.2481
  323ACE     H3 3080   1.922   2.810   3.734  0.6040  0.2804  0.1866
  323ACE     H4 3081   2.014   3.123   3.624  0.8863 -0.5758  0.0546
  324ACE     C1 3082   2.928   2.827   2.835  0.0284 -0.3498  0.0309
  324ACE     C2 3083   2.983   2.896   2.713  0.1723  0.3503  0.1539
  324ACE     O1 3084   2.914   2.955   2.622 -0.0852  0.1804 -0.0917
  324ACE     O2 3085   3.109   2.860   2.689  0.0556 -0.1388 -0.0371
  324ACE     H1 3086   2.991   2.746   2.874  0.2679 -0.4325 -0.5200
  324ACE     H2 3087   2.829   2.786   2.815 -0.9556  0.6262  2.6326
  324ACE     H3 3088   2.928   2.902   2.915 -1.1738  0.5752 -0.8151
  324ACE     H4 3089   3.126   2.877   2.595  2.9070 -0.9915  0.2589
  325ACE     C1 3090   0.206   1.169   3.023 -0.0030 -0.3142  0.3300
  325ACE     C2 3091   0.149   1.270   3.120  0.3957  0.1895 -0.0695
  325ACE     O1 3092   0.121   1.383   3.092 -0.0006  0.2123  0.0042
  325ACE     O2 3093   0.126   1.234   3.242  0.0189 -0.2214  0.5382
  325ACE     H1 3094   0.215   1.221   2.927 -1.8316  1.6703  1.2192
  325ACE     H2 3095   0.138   1.083   3.020  0.5095 -0.7351  0.5708
  325ACE     H3 3096   0.302   1.131   3.061 -0.2928  0.3031  1.6803
  325ACE     H4 3097   0.086   1.312   3.284  0.0004  0.0495  0.0112
  326ACE     C1 3098   0.200   0.075   2.652 -0.1915 -0.0203 -0.1084
  326ACE     C2 3099   0.214   0.196   2.569  0.3174  0.9101  0.2077
  326ACE     O1 3100   0.304   0.281   2.572 -0.6034 -0.0086  0.2530
  326ACE     O2 3101   0.137   0.189   2.459 -0.3321  0.5954 -0.4111
  326ACE     H1 3102   0.273   0.080   2.733 -0.9089  2.6113  0.4352
  326ACE     H2 3103   0.201  -0.012   2.585 -0.5617 -0.4065  0.3922
  326ACE     H3 3104   0.095   0.082   2.682  0.0649  0.2900  0.7371
  326ACE     H4 3105   0.176   0.260   2.406  0.7676  1.4576  1.4819
  327ACE     C1 3106   3.302   0.792   3.035 -0.4808 -0.1482 -0.1997
  327ACE     C2 3107   3.358   0.807   2.895  1.2120  0.4836 -0.1404
  327ACE     O1 3108   3.421   0.902   2.857 -0.7304  0.2549  0.8754
  327ACE     O2 3109   3.370   0.694   2.833 -0.1067  1.0510  0.2917
  327ACE     H1 3110   3.383   0.783   3.108 -0.7265 -0.6495  0.0124
  327ACE     H2 3111   3.249   0.697   3.047 -2.2395  1.1044  2.2838
  327ACE     H3 3112   3.238   0.876   3.065  0.2455 -0.1473  1.4124
  327ACE     H4 3113   3.425   0.722   2.758 -0.7157  0.2173 -0.4756
  328ACE     C1 3114   2.511   3.275   2.221  0.2053 -0.6065 -0.2675
  328ACE     C2 3115   2.510   3.428   2.226 -0.0647  0.0097 -0.5849
  328ACE     O1 3116   2.610   3.494   2.238  0.4616  0.1565 -0.1093
  328ACE     O2 3117   2.394   3.488   2.223  0.4060  0.2245 -0.4632
  328ACE     H1 3118   2.430   3.227   2.165  0.7743 -1.9866  0.0636
  328ACE     H2 3119   2.483   3.245   2.323 -0.1852 -1.7116 -0.6955
  328ACE     H3 3120   2.613   3.239   2.205 -0.4667 -2.6756  0.0180
  328ACE     H4 3121   2.422   3.581   2.220 -2.6747  1.2964  1.2860
  329ACE     C1 3122   2.151   1.828   3.177  0.1610 -0.1057  0.4563
  329ACE     C2 3123   2.249   1.935   3.225  0.4748  0.0329 -0.4779
  329ACE     O1 3124   2.213   2.047   3.234 -0.4592 -0.3651  0.2015
  329ACE     O2 3125   2.372   1.900   3.209 -0.0979 -0.5709  0.4682
  329ACE     H1 3126   2.108   1.780   3.266 -1.0704  1.0542  0.5027
  329ACE     H2 3127   2.206   1.748   3.126  0.3478 -1.0997  2.1502
  329ACE     H3 3128   2.072   1.872   3.115  1.5980  0.7107 -0.8311
  329ACE     H4 3129   2.412   1.989   3.214  0.7136 -0.9712  1.2450
  330ACE     C1 3130   3.370   0.065   3.072  0.0520 -0.4486  0.1968
  330ACE     C2 3131   3.382   0.074   3.220 -0.0435 -0.2775  0.3711
  330ACE     O1 3132   3.296   0.117   3.292  0.0540 -0.3051  0.0482
  330ACE     O2 3133   3.504   0.064   3.269 -0.3543  0.2900  0.2253
  330ACE     H1 3134   3.438   0.139   3.028 -3.0646  1.5811 -1.3559
  330ACE     H2 3135   3.269   0.077   3.030  0.5177 -1.6252 -1.3376
  330ACE     H3 3136   3.417  -0.031   3.045  0.1788 -0.3634  0.1148
  330ACE     H4 3137   3.490   0.083   3.363  1.1543  2.3399  0.0704
  331ACE     C1 3138   2.436   0.864   2.793 -0.0749 -0.0009  0.2647
  331ACE     C2 3139   2.321   0.881   2.704 -0.5118  0.3757  0.6743
  331ACE     O1 3140   2.218   0.815   2.701  0.4792  0.7391 -0.2760
  331ACE     O2 3141   2.334   0.983   2.613 -0.1301 -0.5960 -0.2001
  331ACE     H1 3142   2.419   0.802   2.882 -0.2141  2.3674  1.9233
  331ACE     H2 3143   2.481   0.961   2.814 -1.5997  0.6532  0.5598
  331ACE     H3 3144   2.513   0.813   2.734 -0.0685  0.2076  0.0949
  331ACE     H4 3145   2.245   0.995   2.575  0.0484 -1.2505 -0.8414
  332ACE     C1 3146   3.111   1.280   2.283 -0.0076  0.0823  0.2459
  332ACE     C2 3147   3.051   1.414   2.298  0.4723 -0.0386 -0.1086
  332ACE     O1 3148   3.114   1.508   2.341  0.5848 -0.4322 -0.1436
  332ACE     O2 3149   2.931   1.422   2.242  0.4368  0.8060  0.5734
  332ACE     H1 3150   3.220   1.283   2.283 -0.0144  0.4373  1.2248
  332ACE     H2 3151   3.073   1.228   2.195  1.6452 -0.8032  0.0398
  332ACE     H3 3152   3.092   1.218   2.372  3.2236 -0.1627  0.8127
  332ACE     H4 3153   2.895   1.511   2.254  0.0534  0.6664  0.4569
  333ACE     C1 3154   1.053   2.467   3.463  0.6524 -0.9173  0.0895
  333ACE     C2 3155   1.099   2.604   3.407 -0.1813 -0.3161  1.1937
  333ACE     O1 3156   1.031   2.676   3.340  0.6939  0.0288  0.0494
  333ACE     O2 3157   1.229   2.605   3.398  0.1527 -0.1675 -0.1563
  333ACE     H1 3158   0.968   2.487   3.529  1.7742  0.4630  1.1370
  333ACE     H2 3159   1.140   2.427   3.517  0.7170  0.7359  1.2639
  333ACE     H3 3160   1.017   2.400   3.384  0.2005 -0.2642 -0.2544
  333ACE     H4 3161   1.259   2.697   3.387 -1.1678  0.2984  0.1144
  334ACE     C1 3162   3.263   1.884   2.875 -0.1831 -0.2321 -0.5947
  334ACE     C2 3163   3.361   1.850   2.769 -0.1532 -0.7444 -0.1512
  334ACE     O1 3164   3.390   1.924   2.682 -0.5843  0.4191  0.4041
  334ACE     O2 3165   3.397   1.721   2.767 -0.5172  0.0498  0.0726
  334ACE     H1 3166   3.195   1.966   2.847 -0.1963  0.0750  0.3305
  334ACE     H2 3167   3.319   1.881   2.968  0.5495 -0.7514 -1.0474
  334ACE     H3 3168   3.200   1.795   2.891 -1.2289  0.2584 -1.8748
  334ACE     H4 3169   3.447   1.715   2.684 -1.1993 -0.4460 -0.3104
  335ACE     C1 3170   0.952   1.973   3.028 -0.2500  0.0447  0.0907
  335ACE     C2 3171   0.867   1.857   2.977  0.8724  0.9243  0.0409
  335ACE     O1 3172   0.817   1.776   3.056  0.0951  0.0124 -0.8979
  335ACE     O2 3173   0.812   1.867   2.859  0.1750 -0.5410  0.2058
  335ACE     H1 3174   1.008   1.957   3.121  0.4419  1.8016  0.0084
  335ACE     H2 3175   0.886   2.059   3.038  1.6860  1.4628  1.1156
  335ACE     H3 3176   1.015   2.016   2.949 -2.2823 -0.5651 -1.8783
  335ACE     H4 3177   0.733   1.811   2.868 -0.1419 -0.2158 -0.4742
  336ACE     C1 3178   1.308   1.968   3.172 -0.4635  0.4948  0.2307
  336ACE     C2 3179   1.361   1.969   3.026 -0.0345 -0.1584 -0.2227
  336ACE     O1 3180   1.299   1.905   2.940  0.9685 -0.1311 -0.4458
  336ACE     O2 3181   1.481   2.035   3.009  0.8061  0.2633  0.3761
  336ACE     H1 3182   1.308   1.865   3.210  0.0203  1.1216  1.9497
  336ACE     H2 3183   1.202   1.997   3.173 -0.7156 -0.4273  0.7912
  336ACE     H3 3184   1.378   2.020   3.238  0.8913  0.7909 -1.4102
  336ACE     H4 3185   1.478   2.050   2.913 -2.0537  1.9550  0.6981
  337ACE     C1 3186   2.125   2.955   3.038  0.5772 -0.2860 -0.4587
  337ACE     C2 3187   2.121   2.979   3.188 -0.3531  0.0555 -0.2309
  337ACE     O1 3188   2.083   3.078   3.246  0.3882  0.3448 -0.5766
  337ACE     O2 3189   2.159   2.875   3.260  0.0686 -0.3789 -0.5445
  337ACE     H1 3190   2.083   3.022   2.963  2.2124 -0.4492 -1.5447
  337ACE     H2 3191   2.083   2.854   3.031  1.8443 -1.0330  2.0706
  337ACE     H3 3192   2.226   2.923   3.010  0.4556 -1.1677  0.0814
  337ACE     H4 3193   2.149   2.914   3.348 -0.1945 -1.0559 -0.2646
  338ACE     C1 3194   0.111   1.782   2.232  0.1012  0.3341  0.4659
  338ACE     C2 3195  -0.005   1.723   2.302  0.3060 -0.2242 -0.5538
  338ACE     O1 3196  -0.012   1.710   2.421 -0.0993 -0.0763  0.1434
  338ACE     O2 3197  -0.071   1.638   2.223  0.4665 -0.6233 -0.1338
  338ACE     H1 3198   0.182   1.807   2.312  0.3211 -2.7984  1.3315
  338ACE     H2 3199   0.077   1.871   2.178  1.0026 -0.4424 -1.4218
  338ACE     H3 3200   0.158   1.711   2.163  1.0357  2.6005 -1.2717
  338ACE     H4 3201  -0.130   1.595   2.288  4.0420 -3.6354  1.2671
  339ACE     C1 3202   0.331   0.822   3.409  0.2678 -0.5180  0.8376
  339ACE     C2 3203   0.278   0.957   3.377 -0.2427  0.3974 -0.2193
  339ACE     O1 3204   0.315   1.061   3.424  0.0746 -0.1606  0.4500
  339ACE     O2 3205   0.196   0.972   3.277  0.0153  0.0991 -0.2090
  339ACE     H1 3206   0.366   0.771   3.318  3.0814 -0.7141  1.9968
  339ACE     H2 3207   0.246   0.754   3.417 -0.3968 -0.0427 -1.4894
  339ACE     H3 3208   0.404   0.814   3.490  0.5270  1.5770  0.8465
  339ACE     H4 3209   0.189   1.069   3.286  1.1040  0.0452  1.4388
  340ACE     C1 3210   3.122   2.520   3.502  0.1229  0.1496  0.6229
  340ACE     C2 3211   3.165   2.572   3.639 -0.1305 -0.5113  0.3567
  340ACE     O1 3212   3.151   2.687   3.668  0.0261 -0.5541 -0.3955
  340ACE     O2 3213   3.252   2.495   3.706  0.2556 -0.1756 -0.4545
  340ACE     H1 3214   3.145   2.413   3.493  1.4148  0.3294  1.7145
  340ACE     H2 3215   3.176   2.572   3.421 -0.2579 -0.8948 -0.3130
  340ACE     H3 3216   3.015   2.537   3.486  0.0152 -0.0037  1.1762
  340ACE     H4 3217   3.266   2.537   3.793 -0.9691  0.7370 -0.6877
  341ACE     C1 3218   1.937   0.474   3.624  0.5539  0.8158  0.6835
  341ACE     C2 3219   1.993   0.510   3.488  0.1059  0.4081  0.4903
  341ACE     O1 3220   2.099   0.462   3.441  0.0974 -0.1220  0.0989
  341ACE     O2 3221   1.928   0.609   3.420  0.2239  0.4558  0.2860
  341ACE     H1 3222   1.932   0.567   3.682 -1.0727 -0.4200  2.5980
  341ACE     H2 3223   1.999   0.402   3.679  1.0211  0.3345 -0.4540
  341ACE     H3 3224   1.836   0.439   3.600  1.8020 -2.1925 -0.4323
  341ACE     H4 3225   1.986   0.626   3.344 -0.8110 -5.1334 -2.0075
  342ACE     C1 3226   0.593   0.865   2.254 -0.9017  0.2798 -0.2763
  342ACE     C2 3227   0.745   0.871   2.235 -0.4294 -0.3539 -0.4060
  342ACE     O1 3228   0.805   0.767   2.203 -0.1604 -0.3911  0.1195
  342ACE     O2 3229   0.792   0.997   2.239 -0.1095 -0.0609 -0.1539
  342ACE     H1 3230   0.557   0.925   2.169  1.4075  1.2918 -0.5694
  342ACE     H2 3231   0.569   0.922   2.344  1.4525  0.3774  0.3180
  342ACE     H3 3232   0.558   0.761   2.249 -1.4085  0.4506 -0.3525
  342ACE     H4 3233   0.888   0.991   2.226  0.3989  1.4448  2.6543
  343ACE     C1 3234   0.524   1.213   2.632  0.2148  0.0784 -0.2898
  343ACE     C2 3235   0.631   1.131   2.560  0.2813  0.2335 -0.2210
  343ACE     O1 3236   0.625   1.010   2.551  0.2889 -0.2125 -0.0397
  343ACE     O2 3237   0.744   1.186   2.537 -0.5636 -0.0083  0.0954
  343ACE     H1 3238   0.552   1.287   2.707  2.2264 -1.7088  0.7846
  343ACE     H2 3239   0.450   1.158   2.692  0.4370 -0.6847 -0.7111
  343ACE     H3 3240   0.466   1.265   2.554 -0.3199  0.0600  0.0919
  343ACE     H4 3241   0.799   1.108   2.519 -1.9979 -1.2036  0.8473
  344ACE     C1 3242   0.670   1.110   3.522 -0.1782 -0.5640  0.4075
  344ACE     C2 3243   0.716   1.057   3.380 -0.0336  0.0508 -0.0033
  344ACE     O1 3244   0.798   1.111   3.309  0.3512  0.1184  0.4669
  344ACE     O2 3245   0.638   0.953   3.338  0.1647 -0.4701  0.4317
  344ACE     H1 3246   0.600   1.044   3.575 -2.0987  1.6626  0.7554
  344ACE     H2 3247   0.609   1.197   3.496  1.2415 -0.0205 -1.1452
  344ACE     H3 3248   0.750   1.149   3.586  0.3263  1.1460 -1.2445
  344ACE     H4 3249   0.678   0.943   3.250 -2.4529 -1.9912 -0.6288
  345ACE     C1 3250   1.235   2.585   2.915  0.1642  0.3950 -0.1011
  345ACE     C2 3251   1.368   2.659   2.934 -0.3801 -0.2614  0.2236
  345ACE     O1 3252   1.387   2.726   3.029 -0.2655 -0.3446  0.1308
  345ACE     O2 3253   1.467   2.590   2.877 -0.5036  0.5069  0.0239
  345ACE     H1 3254   1.240   2.506   2.990  1.3723 -0.3636 -0.9466
  345ACE     H2 3255   1.218   2.535   2.819 -0.9520 -0.0639  0.3289
  345ACE     H3 3256   1.155   2.656   2.939  0.2206 -0.6123  3.3568
  345ACE     H4 3257   1.543   2.624   2.927 -0.6583  0.5370  0.2391
  346ACE     C1 3258   0.396   0.605   2.923 -0.4963 -0.0205 -0.5362
  346ACE     C2 3259   0.339   0.521   2.810 -0.5717  0.4913 -0.4379
  346ACE     O1 3260   0.232   0.467   2.805 -0.0087 -0.0832  0.5173
  346ACE     O2 3261   0.423   0.480   2.713 -0.3696  0.0280 -0.4692
  346ACE     H1 3262   0.332   0.623   3.010  0.8312  1.2892  0.1679
  346ACE     H2 3263   0.433   0.700   2.883  0.7011 -0.4528 -0.4740
  346ACE     H3 3264   0.491   0.563   2.955 -1.0195 -0.6425  0.2119
  346ACE     H4 3265   0.365   0.406   2.687 -0.9440  0.2288  0.2422
  347ACE     C1 3266   2.500   2.437   0.287  0.0781 -0.2892  0.3659
  347ACE     C2 3267   2.423   2.436   0.420  0.2946 -0.2619 -0.0457
  347ACE     O1 3268   2.315   2.487   0.434 -0.4651 -0.1927 -0.5165
  347ACE     O2 3269   2.504   2.431   0.527  0.0332 -0.4488 -0.5779
  347ACE     H1 3270   2.447   2.478   0.201 -0.0067 -0.2621  0.4316
  347ACE     H2 3271   2.547   2.340   0.264 -0.9356 -1.2501  2.2037
  347ACE     H3 3272   2.591   2.496   0.303  0.5060 -0.7408 -0.3736
  347ACE     H4 3273   2.446   2.466   0.597  1.7934  0.3295  0.5417
  348ACE     C1 3274   0.485   1.899   2.632 -0.3134 -0.1670  0.2358
  348ACE     C2 3275   0.434   1.756   2.635  0.7830 -0.2325  0.4353
  348ACE     O1 3276   0.486   1.677   2.556  0.5715  0.2105  0.0460
  348ACE     O2 3277   0.302   1.749   2.663  0.0179  0.3807  0.1107
  348ACE     H1 3278   0.439   1.952   2.548  2.3899  0.5017 -0.8875
  348ACE     H2 3279   0.594   1.886   2.630 -0.1625  0.8648  1.3524
  348ACE     H3 3280   0.451   1.946   2.725 -2.1614 -0.4284 -0.2809
  348ACE     H4 3281   0.282   1.659   2.631  0.4913 -0.2889  1.6653
  349ACE     C1 3282   2.668   0.259   2.598 -0.6889  0.2788  0.3313
  349ACE     C2 3283   2.749   0.172   2.698  0.2127  0.5043  0.2804
  349ACE     O1 3284   2.741   0.053   2.691  0.3789  0.3067  0.7820
  349ACE     O2 3285   2.856   0.225   2.745  0.5144 -0.3862 -0.2956
  349ACE     H1 3286   2.563   0.263   2.630 -0.4733  0.7950  0.9864
  349ACE     H2 3287   2.680   0.200   2.507 -0.6954  1.0109 -0.1497
  349ACE     H3 3288   2.703   0.362   2.589  1.0860 -0.2979  0.4898
  349ACE     H4 3289   2.894   0.152   2.795 -2.1924 -2.3380 -0.9690
  350ACE     C1 3290   1.026   2.699   2.666 -0.5821  0.1866  0.7401
  350ACE     C2 3291   1.118   2.822   2.691  0.8518 -0.6035 -0.1897
  350ACE     O1 3292   1.074   2.932   2.712 -0.5647 -0.1119 -0.3119
  350ACE     O2 3293   1.243   2.806   2.643  0.1830  0.1482  0.9182
  350ACE     H1 3294   0.940   2.705   2.734  0.3389 -0.8462  2.0128
  350ACE     H2 3295   1.075   2.602   2.676 -2.7308 -0.9294  0.8376
  350ACE     H3 3296   0.972   2.709   2.571 -0.5442  0.1133  0.7115
  350ACE     H4 3297   1.274   2.899   2.644 -2.2362  1.0040 -0.3766
  351ACE     C1 3298   1.014   0.137   2.206  0.3888  0.1143 -0.2978
  351ACE     C2 3299   0.926   0.021   2.239 -0.2231  0.3229 -0.4448
  351ACE     O1 3300   0.972  -0.086   2.270 -0.2081  0.6370 -0.4203
  351ACE     O2 3301   0.796   0.029   2.205  0.0030 -0.0698  0.2584
  351ACE     H1 3302   1.106   0.115   2.152 -0.1496  1.1036 -1.6468
  351ACE     H2 3303   1.035   0.192   2.299 -1.9479  1.0421 -0.2681
  351ACE     H3 3304   0.953   0.212   2.155  0.7284  0.8610  0.3833
  351ACE     H4 3305   0.762  -0.061   2.220  0.5324  0.1290  2.9412
  352ACE     C1 3306   2.188   2.534   2.213 -0.2671  0.4152 -0.1158
  352ACE     C2 3307   2.335   2.534   2.270  0.3635 -0.0751  0.0374
  352ACE     O1 3308   2.404   2.439   2.283 -0.1014 -0.0246 -0.0662
  352ACE     O2 3309   2.390   2.656   2.249 -0.5126 -0.5903 -0.6274
  352ACE     H1 3310   2.175   2.438   2.162  0.7771 -0.5290  1.3441
  352ACE     H2 3311   2.172   2.615   2.142 -0.4673  1.3406  0.9686
  352ACE     H3 3312   2.112   2.547   2.291 -0.1254 -0.5814  0.2027
  352ACE     H4 3313   2.475   2.633   2.289 -1.2590  0.2607  1.4821
  353ACE     C1 3314   0.298   1.386   2.217 -0.2414  0.1749 -0.4283
  353ACE     C2 3315   0.220   1.257   2.239  1.0909 -0.1503  0.1443
  353ACE     O1 3316   0.104   1.241   2.205 -0.0743 -0.2994 -0.5526
  353ACE     O2 3317   0.293   1.151   2.292  0.5141 -0.6202  0.1530
  353ACE     H1 3318   0.402   1.371   2.188 -0.3330  1.2851 -1.3900
  353ACE     H2 3319   0.310   1.427   2.318 -3.1038  2.3870 -0.9251
  353ACE     H3 3320   0.243   1.458   2.155  0.7130  0.8221 -0.5326
  353ACE     H4 3321   0.241   1.069   2.284  1.9255 -1.4971 -0.2610
  354ACE     C1 3322   1.788   0.036   3.453  0.3254  0.4581 -0.4852
  354ACE     C2 3323   1.918  -0.020   3.486  0.1482  0.3615 -0.2986
  354ACE     O1 3324   1.935  -0.122   3.545 -0.1012 -0.2507 -0.7359
  354ACE     O2 3325   2.017   0.071   3.480  0.8607  0.8057 -0.1104
  354ACE     H1 3326   1.791   0.146   3.461 -0.6791  0.3588  1.5434
  354ACE     H2 3327   1.706  -0.007   3.510  0.2788 -0.0370 -0.9281
  354ACE     H3 3328   1.777   0.017   3.345  2.4717 -1.0440 -0.4704
  354ACE     H4 3329   2.088   0.031   3.534  1.7980  1.1983 -1.0493
  355ACE     C1 3330   2.677   1.864   2.262 -0.0180  0.9611 -0.4794
  355ACE     C2 3331   2.692   1.712   2.243 -0.0815 -0.2800 -0.1176
  355ACE     O1 3332   2.794   1.653   2.257  0.2053 -0.5552  0.0043
  355ACE     O2 3333   2.574   1.653   2.232 -0.1806 -0.3918  0.9741
  355ACE     H1 3334   2.629   1.895   2.169  0.8360  0.0384 -1.2462
  355ACE     H2 3335   2.773   1.912   2.284  0.4437  0.4437 -1.3258
  355ACE     H3 3336   2.603   1.868   2.343 -1.2164  0.8693 -1.5661
  355ACE     H4 3337   2.587   1.557   2.233  0.7642 -0.2733  3.9345
  356ACE     C1 3338   1.112   0.436   2.482 -0.0870 -0.4459  0.1129
  356ACE     C2 3339   1.183   0.563   2.522  0.1810 -0.0633 -0.2954
  356ACE     O1 3340   1.128   0.673   2.548  0.8012  0.1292  0.1025
  356ACE     O2 3341   1.317   0.544   2.527 -0.3109  0.1104 -0.4843
  356ACE     H1 3342   1.163   0.350   2.524  0.1025 -0.7193 -0.6613
  356ACE     H2 3343   1.121   0.420   2.374 -1.2717  3.4049 -0.6346
  356ACE     H3 3344   1.003   0.429   2.497 -0.1752  2.6528  1.4123
  356ACE     H4 3345   1.348   0.635   2.543 -0.0461  0.4316 -2.6559
  357ACE     C1 3346   0.402   3.326   2.319 -0.2086  0.2801 -0.1467
  357ACE     C2 3347   0.361   3.176   2.311 -0.0244 -0.3405  0.1391
  357ACE     O1 3348   0.384   3.089   2.390 -0.0745  0.9204 -0.0068
  357ACE     O2 3349   0.281   3.155   2.208  0.1562  0.0941  0.0480
  357ACE     H1 3350   0.313   3.388   2.302  0.6139  1.2738 -0.8287
  357ACE     H2 3351   0.461   3.360   2.233  1.7494 -0.4082  0.8933
  357ACE     H3 3352   0.441   3.352   2.418 -0.8528 -1.6230  0.6332
  357ACE     H4 3353   0.265   3.059   2.214 -0.2948  0.1991  0.6213
  358ACE     C1 3354   0.202   2.251   3.334  0.3373 -0.3316 -0.2269
  358ACE     C2 3355   0.116   2.239   3.463  0.1517 -0.4976  0.4065
  358ACE     O1 3356   0.009   2.298   3.485  0.1061  0.4104  0.1751
  358ACE     O2 3357   0.165   2.141   3.543  0.0280 -0.3344 -0.3814
  358ACE     H1 3358   0.192   2.345   3.279 -2.0709  0.2528  1.1108
  358ACE     H2 3359   0.158   2.182   3.260 -0.3429 -0.7243  0.5302
  358ACE     H3 3360   0.308   2.229   3.350 -0.4302 -2.2241  2.8062
  358ACE     H4 3361   0.087   2.130   3.600 -0.4188  0.0410 -0.9199
  359ACE     C1 3362   0.578   0.129   2.564  0.2317  0.8341 -0.3631
  359ACE     C2 3363   0.720   0.079   2.530 -0.0941  0.1100  0.5384
  359ACE     O1 3364   0.750  -0.036   2.528 -0.9264 -0.0313 -0.4310
  359ACE     O2 3365   0.813   0.172   2.548 -0.0719  0.3047 -0.1776
  359ACE     H1 3366   0.595   0.224   2.616  2.6298  0.2670 -0.0411
  359ACE     H2 3367   0.522   0.059   2.627 -0.0332  0.8923 -0.5323
  359ACE     H3 3368   0.513   0.158   2.481  0.7516  0.7589 -0.7956
  359ACE     H4 3369   0.896   0.122   2.541 -0.9991 -1.4192  0.7126
  360ACE     C1 3370   2.899   2.420   0.058  0.5667 -0.2204  0.1028
  360ACE     C2 3371   2.778   2.429  -0.024  0.4754 -0.2446 -0.3169
  360ACE     O1 3372   2.684   2.354  -0.019 -0.1688  0.1098 -0.3141
  360ACE     O2 3373   2.788   2.511  -0.126  0.0407 -0.0723  0.1881
  360ACE     H1 3374   2.869   2.368   0.150  1.1859  0.1739  0.5274
  360ACE     H2 3375   2.948   2.517   0.069  2.7874 -1.2454 -0.5481
  360ACE     H3 3376   2.966   2.360  -0.004 -2.2099 -1.4188 -1.8667
  360ACE     H4 3377   2.708   2.518  -0.181  0.1532 -0.6249 -0.0447
  361ACE     C1 3378   3.148   1.065   2.614  0.5250  0.5087  0.6142
  361ACE     C2 3379   3.047   0.974   2.547 -0.0844  0.2824 -0.3254
  361ACE     O1 3380   2.932   0.998   2.518 -0.6146 -0.3375  0.2092
  361ACE     O2 3381   3.084   0.847   2.538  0.0994 -0.1533  0.4720
  361ACE     H1 3382   3.227   1.104   2.548  0.0232  1.1593  0.3946
  361ACE     H2 3383   3.203   1.002   2.685 -1.3893 -0.4992  1.2366
  361ACE     H3 3384   3.113   1.152   2.670 -1.1999  0.8882 -1.0107
  361ACE     H4 3385   2.998   0.810   2.511 -0.5076 -0.0430  2.2375
  362ACE     C1 3386   2.870   3.160   2.264 -0.4283  0.4306 -0.5917
  362ACE     C2 3387   2.897   3.306   2.285  0.1888 -0.4104  0.3247
  362ACE     O1 3388   2.932   3.384   2.198 -0.0672 -0.6329 -0.4492
  362ACE     O2 3389   2.858   3.353   2.401 -0.4595 -0.3781 -0.2189
  362ACE     H1 3390   2.961   3.115   2.306 -1.6999 -1.0075  0.6474
  362ACE     H2 3391   2.860   3.125   2.161 -1.7314  0.1466 -0.3692
  362ACE     H3 3392   2.787   3.127   2.327 -2.0147 -0.4181 -3.0744
  362ACE     H4 3393   2.878   3.449   2.399  0.7289 -0.6200 -0.3019
  363ACE     C1 3394   1.407   0.419   2.882  0.7360 -0.3714 -0.3000
  363ACE     C2 3395   1.258   0.401   2.876 -0.0598 -0.2860  0.0151
  363ACE     O1 3396   1.185   0.441   2.966  0.0724 -0.5087 -0.1449
  363ACE     O2 3397   1.211   0.321   2.784 -0.1996  0.4571  0.3661
  363ACE     H1 3398   1.440   0.442   2.984 -2.0193 -0.9692  0.7666
  363ACE     H2 3399   1.434   0.494   2.807  2.1386 -0.6842 -0.1377
  363ACE     H3 3400   1.463   0.336   2.836 -0.2328 -1.2292  0.0510
  363ACE     H4 3401   1.115   0.332   2.795  0.1038  2.5151  1.1964
  364ACE     C1 3402   1.617   2.014   3.519  0.1267 -0.0256  0.9923
  364ACE     C2 3403   1.672   2.073   3.649 -0.1706  0.3117  0.4318
  364ACE     O1 3404   1.691   2.010   3.748 -0.2716  0.1921 -0.0944
  364ACE     O2 3405   1.706   2.201   3.641 -0.0487 -0.1996  0.7056
  364ACE     H1 3406   1.670   2.044   3.428  0.0007  0.7554  1.1750
  364ACE     H2 3407   1.517   2.055   3.501  0.0241 -0.4592  0.5544
  364ACE     H3 3408   1.616   1.905   3.522 -0.4535 -0.0621 -0.2025
  364ACE     H4 3409   1.756   2.224   3.721 -3.0178  1.1231  2.2965
  365ACE     C1 3410   3.042   2.327   2.616 -0.0004 -0.0423  0.5901
  365ACE     C2 3411   3.118   2.450   2.616 -0.0110 -0.2662  0.0546
  365ACE     O1 3412   3.127   2.530   2.523 -0.3411  0.5723  0.0786
  365ACE     O2 3413   3.195   2.461   2.724  0.3586 -0.2215 -0.3393
  365ACE     H1 3414   3.119   2.250   2.601  1.1269  1.1374  0.2795
  365ACE     H2 3415   2.964   2.312   2.541 -0.8531 -2.1356  1.8412
  365ACE     H3 3416   3.001   2.300   2.715 -2.3619  0.2735 -0.2697
  365ACE     H4 3417   3.240   2.547   2.716  0.3868 -0.1442  0.6047
  366ACE     C1 3418   1.814   2.637   2.296 -0.4290 -0.2652 -0.2503
  366ACE     C2 3419   1.808   2.790   2.298 -0.2474 -0.5675  0.4855
  366ACE     O1 3420   1.710   2.857   2.313 -0.3326 -0.0604 -0.3982
  366ACE     O2 3421   1.925   2.853   2.299  0.8142  0.0470  0.1621
  366ACE     H1 3422   1.913   2.606   2.329 -1.0680  0.1038  2.0611
  366ACE     H2 3423   1.799   2.623   2.188 -1.2886  0.9332 -0.2976
  366ACE     H3 3424   1.728   2.602   2.355  0.1330  0.3201  0.9360
  366ACE     H4 3425   1.898   2.946   2.299 -2.3937 -0.8359  0.5826
  367ACE     C1 3426   0.016   3.179   3.405 -0.5481  0.5872 -0.9202
  367ACE     C2 3427  -0.073   3.151   3.287 -0.9155 -0.0995  0.5347
  367ACE     O1 3428  -0.048   3.074   3.193 -0.3650  0.4141 -0.3821
  367ACE     O2 3429  -0.186   3.225   3.283  0.0904  0.2026  0.1952
  367ACE     H1 3430   0.096   3.105   3.408 -2.5525 -1.6142 -0.0920
  367ACE     H2 3431  -0.038   3.169   3.500  1.0803 -2.7786 -0.3104
  367ACE     H3 3432   0.058   3.280   3.411 -0.1493  0.4614 -1.5875
  367ACE     H4 3433  -0.176   3.274   3.366 -0.6204 -1.0374  1.0139
  368ACE     C1 3434   3.245   2.064   3.267  0.3402 -0.4279 -0.0649
  368ACE     C2 3435   3.142   2.175   3.244 -0.0959  0.8603  0.3136
  368ACE     O1 3436   3.026   2.151   3.234 -0.2664  0.2205  0.1527
  368ACE     O2 3437   3.195   2.296   3.225 -0.0215 -0.6209 -0.0666
  368ACE     H1 3438   3.326   2.073   3.194  0.5918 -0.3854  0.2145
  368ACE     H2 3439   3.198   1.965   3.269 -0.8453  0.1252 -0.5493
  368ACE     H3 3440   3.301   2.082   3.360 -0.9197 -2.4348  1.1104
  368ACE     H4 3441   3.113   2.346   3.212 -0.0724 -0.5013  0.6792
  369ACE     C1 3442   3.166   1.181   3.079 -0.3287  0.2988  0.7124
  369ACE     C2 3443   3.160   1.330   3.109 -0.0850 -1.0319 -0.3235
  369ACE     O1 3444   3.095   1.365   3.204 -0.4839 -0.2167 -0.2170
  369ACE     O2 3445   3.160   1.415   3.004  0.2907 -0.6281 -0.0664
  369ACE     H1 3446   3.073   1.146   3.033 -0.0187 -1.1596  1.1561
  369ACE     H2 3447   3.177   1.132   3.177  1.8981 -0.0854  0.3061
  369ACE     H3 3448   3.242   1.165   3.002  0.4675  1.1316  1.3118
  369ACE     H4 3449   3.158   1.507   3.034  2.6012  0.4090 -2.9085
  370ACE     C1 3450   2.544   2.815   3.228 -0.0074 -0.1691  0.9834
  370ACE     C2 3451   2.573   2.716   3.338 -0.5136 -0.4809  0.8341
  370ACE     O1 3452   2.655   2.631   3.329 -0.6120 -0.0732  1.1954
  370ACE     O2 3453   2.502   2.735   3.453 -0.3242 -0.1362 -0.0736
  370ACE     H1 3454   2.635   2.825   3.168 -1.8206 -2.2125 -2.2865
  370ACE     H2 3455   2.498   2.908   3.264 -1.0914 -0.4373  0.3411
  370ACE     H3 3456   2.474   2.762   3.161  1.3178  0.0040 -0.5765
  370ACE     H4 3457   2.511   2.650   3.500 -0.6668  0.5591  1.2488
  371ACE     C1 3458   0.527   0.181   0.251  0.3738 -0.9567 -0.5783
  371ACE     C2 3459   0.465   0.204   0.388 -0.0829  0.7298  0.5119
  371ACE     O1 3460   0.355   0.161   0.424  0.1884 -0.1160 -0.1673
  371ACE     O2 3461   0.559   0.209   0.480  0.2896  0.3276  0.4387
  371ACE     H1 3462   0.554   0.281   0.215  0.6100 -1.0010 -0.5254
  371ACE     H2 3463   0.452   0.125   0.193  0.6686  0.3504 -2.2867
  371ACE     H3 3464   0.622   0.129   0.262  0.8268 -0.2250 -0.9536
  371ACE     H4 3465   0.515   0.223   0.566  2.3072  2.7601  1.1450
  372ACE     C1 3466   1.790   1.960   3.081  0.1278  0.4941  0.6565
  372ACE     C2 3467   1.735   1.823   3.122 -0.2100  0.0326 -0.0149
  372ACE     O1 3468   1.703   1.737   3.044  0.6646 -0.5605  0.4163
  372ACE     O2 3469   1.723   1.798   3.253  0.3297  0.2613 -0.0617
  372ACE     H1 3470   1.802   1.960   2.972 -0.6313 -0.8283  0.5571
  372ACE     H2 3471   1.879   1.974   3.143  1.2339 -0.4274 -0.6911
  372ACE     H3 3472   1.719   2.037   3.112 -1.5703 -1.5073  1.8626
  372ACE     H4 3473   1.688   1.708   3.256 -0.3228  0.4245 -1.9749
  373ACE     C1 3474   3.306   1.015   0.671 -0.4387 -0.0595  0.0894
  373ACE     C2 3475   3.257   0.952   0.803 -0.7412  0.9744  0.5579
  373ACE     O1 3476   3.249   0.834   0.817 -0.2036  0.4261 -0.0282
  373ACE     O2 3477   3.259   1.039   0.902 -0.2487  0.0430  0.0621
  373ACE     H1 3478   3.244   1.101   0.646 -1.9445 -0.7939  1.2397
  373ACE     H2 3479   3.316   0.949   0.584  3.8246  3.6474 -2.4322
  373ACE     H3 3480   3.403   1.061   0.696  0.7151 -1.9579 -0.7275
  373ACE     H4 3481   3.255   0.982   0.981 -0.0463 -0.1431 -0.0607
  374ACE     C1 3482   2.531   1.157   2.291  0.0552 -0.1707 -0.0668
  374ACE     C2 3483   2.627   1.260   2.247 -0.0157 -0.0614 -0.0729
  374ACE     O1 3484   2.607   1.379   2.234  0.1245  0.2576 -0.0515
  374ACE     O2 3485   2.751   1.216   2.232  0.1213 -0.1533  0.0012
  374ACE     H1 3486   2.427   1.191   2.303  0.4369  1.9127 -2.2397
  374ACE     H2 3487   2.570   1.100   2.376 -1.3056  1.4831  1.7178
  374ACE     H3 3488   2.528   1.082   2.212 -2.4036  1.4136 -1.5374
  374ACE     H4 3489   2.793   1.302   2.214  0.5101 -0.0709  1.2515
  375ACE     C1 3490   1.405   0.103   2.384 -0.0981  0.3113  0.1877
  375ACE     C2 3491   1.454   0.188   2.272  0.5603  0.3980 -0.4576
  375ACE     O1 3492   1.552   0.157   2.203 -0.5938 -0.0262  0.1067
  375ACE     O2 3493   1.395   0.296   2.233  0.7942  0.0396  0.2357
  375ACE     H1 3494   1.460   0.012   2.357  1.2334  0.7336  1.3819
  375ACE     H2 3495   1.297   0.096   2.400  0.0039 -2.2260 -0.0574
  375ACE     H3 3496   1.447   0.139   2.478  0.3744 -0.0057  0.1034
  375ACE     H4 3497   1.471   0.326   2.180 -0.4602  1.0300 -1.0554
  376ACE     C1 3498   0.415   2.635   2.664  0.2984 -0.2900  0.1665
  376ACE     C2 3499   0.537   2.553   2.656 -0.0203  0.2603 -0.1562
  376ACE     O1 3500   0.538   2.458   2.576  0.1788  0.0648  0.1669
  376ACE     O2 3501   0.622   2.563   2.761  0.4016 -0.2476 -0.0460
  376ACE     H1 3502   0.338   2.610   2.590  1.6998 -0.0481 -1.3829
  376ACE     H2 3503   0.433   2.740   2.638 -2.6167 -0.2177 -1.8145
  376ACE     H3 3504   0.377   2.642   2.767  0.2312 -1.3136  0.2200
  376ACE     H4 3505   0.667   2.477   2.757  0.6961 -0.0589 -0.7630
  377ACE     C1 3506   2.886   1.681   3.597 -0.0019  0.0613 -0.0390
  377ACE     C2 3507   2.929   1.684   3.740  0.5629  0.4159  0.2642
  377ACE     O1 3508   2.880   1.750   3.823 -0.3396  0.4458 -0.7783
  377ACE     O2 3509   3.050   1.629   3.754 -0.3519  0.1835 -0.3168
  377ACE     H1 3510   2.978   1.678   3.538  0.1419  0.8493  0.1442
  377ACE     H2 3511   2.819   1.767   3.584  1.5902  1.5118  1.0648
  377ACE     H3 3512   2.839   1.586   3.571  1.7132 -0.7647 -0.1954
  377ACE     H4 3513   3.076   1.659   3.843 -0.4145  2.0172 -0.8974
  378ACE     C1 3514   3.293   0.823   2.320  0.1276 -0.0797 -0.7693
  378ACE     C2 3515   3.383   0.942   2.273  0.5528 -0.0035 -0.3868
  378ACE     O1 3516   3.501   0.949   2.278  0.9262 -0.8334  0.0021
  378ACE     O2 3517   3.311   1.032   2.207 -0.0986 -0.3172 -0.0621
  378ACE     H1 3518   3.319   0.794   2.422  3.2310 -1.4452 -1.8780
  378ACE     H2 3519   3.317   0.734   2.260  0.9998 -1.4979  1.6339
  378ACE     H3 3520   3.188   0.855   2.312  0.6669  2.0045  0.3038
  378ACE     H4 3521   3.376   1.093   2.168 -1.2369  0.1607 -1.2070
  379ACE     C1 3522   2.629   2.874   2.239 -0.0024  0.1441 -0.0009
  379ACE     C2 3523   2.738   2.860   2.345 -0.1534 -0.7356 -0.6351
  379ACE     O1 3524   2.855   2.830   2.320  0.0060 -0.9117  0.0218
  379ACE     O2 3525   2.709   2.915   2.460 -0.4290  0.2061  0.1557
  379ACE     H1 3526   2.633   2.785   2.176  2.9450 -1.5256  2.3793
  379ACE     H2 3527   2.661   2.963   2.183  1.0729 -0.4528 -0.3503
  379ACE     H3 3528   2.530   2.896   2.280 -0.3142  2.8099 -2.0232
  379ACE     H4 3529   2.797   2.916   2.500 -1.2656  0.1318  2.0958
  380ACE     C1 3530   2.240   2.676   2.689 -0.2653 -0.1794 -0.4187
  380ACE     C2 3531   2.089   2.649   2.701 -1.0648  0.2432  0.3722
  380ACE     O1 3532   2.023   2.721   2.772 -0.6448  0.4613 -0.4722
  380ACE     O2 3533   2.034   2.577   2.601 -0.2712 -0.5542 -0.7478
  380ACE     H1 3534   2.294   2.625   2.770 -3.0644 -0.2309  1.4878
  380ACE     H2 3535   2.277   2.779   2.683 -1.9744  0.6046  1.7454
  380ACE     H3 3536   2.274   2.630   2.596  0.6719  1.0606 -0.7104
  380ACE     H4 3537   1.938   2.582   2.614 -0.3431  0.2171 -1.5354
  381ACE     C1 3538   1.065   2.057   2.305  0.7555 -0.0548 -0.6267
  381ACE     C2 3539   1.186   2.138   2.279 -0.4049 -0.5016 -0.5837
  381ACE     O1 3540   1.187   2.260   2.299 -0.3405  0.7886  0.2192
  381ACE     O2 3541   1.287   2.068   2.231 -0.2506  0.9016  0.0878
  381ACE     H1 3542   1.072   1.952   2.274 -0.2163  0.0500 -1.1978
  381ACE     H2 3543   0.983   2.102   2.249 -0.7970  0.5745  2.0819
  381ACE     H3 3544   1.044   2.066   2.412 -1.0715 -0.8416 -0.9007
  381ACE     H4 3545   1.362   2.129   2.214  1.8212 -1.3748  0.7938
  382ACE     C1 3546   1.419   1.053   3.663  0.4882  0.1534 -0.4667
  382ACE     C2 3547   1.349   1.193   3.675 -0.2314  0.1255  0.2710
  382ACE     O1 3548   1.301   1.257   3.581  0.4891 -0.3779  0.0712
  382ACE     O2 3549   1.361   1.252   3.794 -0.4109  0.2880 -0.1282
  382ACE     H1 3550   1.349   0.969   3.664  0.8204 -0.1206  2.3350
  382ACE     H2 3551   1.476   1.040   3.755 -2.1547  0.1622  1.2066
  382ACE     H3 3552   1.474   1.049   3.567 -0.9929 -0.5720 -1.2989
  382ACE     H4 3553   1.325   1.341   3.775  1.0809  1.1577  1.0165
  383ACE     C1 3554   2.075   2.052   3.569  0.1613  0.2404 -0.4835
  383ACE     C2 3555   2.190   1.956   3.539  0.2137  0.7751 -0.0439
  383ACE     O1 3556   2.186   1.835   3.533 -0.5638 -0.1190  0.2353
  383ACE     O2 3557   2.306   2.021   3.535  0.0838 -0.3314 -0.4719
  383ACE     H1 3558   1.989   1.999   3.613  0.9466  1.1205  2.1893
  383ACE     H2 3559   2.043   2.091   3.471 -1.4680 -1.5916 -0.7097
  383ACE     H3 3560   2.111   2.136   3.629 -0.0347  0.2123 -0.3270
  383ACE     H4 3561   2.364   1.944   3.546 -0.5806 -0.8673 -0.6517
  384ACE     C1 3562   3.088   0.353   3.079  0.1149 -0.1007  0.3412
  384ACE     C2 3563   3.017   0.445   3.168  0.0796  0.1268  0.5018
  384ACE     O1 3564   2.898   0.435   3.200 -0.5090  0.3121  0.4186
  384ACE     O2 3565   3.094   0.534   3.233 -0.2177 -0.1332 -0.3314
  384ACE     H1 3566   3.142   0.285   3.146  1.2026 -0.2619 -0.6726
  384ACE     H2 3567   3.171   0.398   3.023  0.5669 -1.7292 -0.3245
  384ACE     H3 3568   3.016   0.306   3.011  0.9985 -0.5254 -0.3115
  384ACE     H4 3569   3.041   0.562   3.309  0.9229 -2.8714  1.5835
  385ACE     C1 3570   2.382   2.052   2.888  0.2523 -0.3898 -0.1985
  385ACE     C2 3571   2.475   2.132   2.967 -1.0007 -0.6377 -0.1016
  385ACE     O1 3572   2.560   2.207   2.919  0.1093 -0.2241  0.1514
  385ACE     O2 3573   2.504   2.086   3.092  0.0995  0.4583 -0.0634
  385ACE     H1 3574   2.425   2.028   2.790 -0.2807 -1.7008 -0.1220
  385ACE     H2 3575   2.297   2.116   2.864  0.3849 -0.5738 -1.1980
  385ACE     H3 3576   2.344   1.966   2.944 -1.0683  0.1112 -0.2957
  385ACE     H4 3577   2.572   2.147   3.125  2.7502 -2.8273  0.7988
  386ACE     C1 3578   3.147   2.352   0.252 -0.4229 -0.4062  0.5589
  386ACE     C2 3579   3.277   2.324   0.328  0.1170  0.0891 -0.3284
  386ACE     O1 3580   3.302   2.378   0.435  0.7116  0.3291 -0.5665
  386ACE     O2 3581   3.364   2.259   0.251 -0.3476  0.0147  0.2431
  386ACE     H1 3582   3.106   2.440   0.303 -1.2678  0.4576 -1.5667
  386ACE     H2 3583   3.082   2.264   0.263 -0.2641 -0.7307 -0.9775
  386ACE     H3 3584   3.157   2.361   0.143  0.5712  0.8268  0.7368
  386ACE     H4 3585   3.445   2.264   0.305 -1.1542 -0.1529  1.5015
  387ACE     C1 3586   0.724   1.387   2.231  1.2498 -0.4440  0.1851
  387ACE     C2 3587   0.727   1.540   2.230  0.1855  0.1863  0.0933
  387ACE     O1 3588   0.624   1.608   2.235  0.4330  0.0131 -0.0503
  387ACE     O2 3589   0.849   1.592   2.244  0.2476 -0.0219 -0.1228
  387ACE     H1 3590   0.813   1.351   2.179  2.0416  2.5830 -0.6306
  387ACE     H2 3591   0.633   1.346   2.185  0.2910  0.8421  0.9343
  387ACE     H3 3592   0.732   1.341   2.330  0.6034  0.9871  0.9194
  387ACE     H4 3593   0.824   1.681   2.275  0.6575  0.0144  0.1104
  388ACE     C1 3594   2.209   2.995   2.252 -0.4377  0.2843  0.9433
  388ACE     C2 3595   2.224   3.079   2.371 -0.3812 -0.1959  0.1751
  388ACE     O1 3596   2.167   3.183   2.388  0.0211  0.0402  0.5586
  388ACE     O2 3597   2.337   3.051   2.443  0.2355 -0.0342 -0.1635
  388ACE     H1 3598   2.196   2.890   2.281  1.0711  0.0780  0.9617
  388ACE     H2 3599   2.297   2.990   2.187 -1.6154 -0.5464 -0.6072
  388ACE     H3 3600   2.119   3.016   2.195  1.4932  1.7121 -1.7006
  388ACE     H4 3601   2.338   3.129   2.501 -0.8396  1.4772 -2.1246
  389ACE     C1 3602   3.111   1.530   2.678 -0.0369 -0.5518 -0.0658
  389ACE     C2 3603   2.961   1.511   2.682  1.0266 -0.1424 -0.0649
  389ACE     O1 3604   2.883   1.543   2.596  0.3955  0.5651  0.1938
  389ACE     O2 3605   2.921   1.468   2.802  0.3756  0.0731 -0.0282
  389ACE     H1 3606   3.161   1.433   2.683  0.8839 -0.0724  0.0467
  389ACE     H2 3607   3.131   1.583   2.772 -1.3497 -0.4675  0.1845
  389ACE     H3 3608   3.144   1.582   2.588 -1.5564 -1.9591 -1.4641
  389ACE     H4 3609   2.824   1.476   2.810  0.0899 -2.1573 -0.9195
  390ACE     C1 3610   0.745   2.937   2.240 -0.7395  0.2783  0.4621
  390ACE     C2 3611   0.794   3.080   2.242 -0.1066  0.1683 -0.4099
  390ACE     O1 3612   0.725   3.176   2.218 -0.1497  0.1015  0.4558
  390ACE     O2 3613   0.928   3.092   2.245  0.2987  0.1021 -0.6496
  390ACE     H1 3614   0.648   2.925   2.191  0.5013 -1.3765 -1.7144
  390ACE     H2 3615   0.728   2.892   2.339 -2.6008 -0.8250 -0.3279
  390ACE     H3 3616   0.825   2.882   2.188 -0.3767  1.1589  0.0776
  390ACE     H4 3617   0.932   3.188   2.232 -0.1903  0.1425 -0.5171
  391ACE     C1 3618   1.577   0.707   3.454  0.4810 -0.4385  0.2115
  391ACE     C2 3619   1.613   0.588   3.363 -0.1069  0.7979  0.4643
  391ACE     O1 3620   1.661   0.593   3.256 -0.2107  0.3753  0.6728
  391ACE     O2 3621   1.571   0.470   3.408  0.4403  0.3655  0.5050
  391ACE     H1 3622   1.480   0.675   3.493  0.2418 -0.9923 -0.8280
  391ACE     H2 3623   1.583   0.804   3.405 -1.3121 -2.2826 -3.8262
  391ACE     H3 3624   1.638   0.711   3.546  1.3781  1.5877 -0.4542
  391ACE     H4 3625   1.599   0.414   3.333 -1.5184 -0.5666  0.4371
  392ACE     C1 3626   0.013   0.449   2.232 -0.5184  0.1675  0.6982
  392ACE     C2 3627   0.170   0.462   2.242  0.3884 -0.3047  0.2556
  392ACE     O1 3628   0.237   0.370   2.291 -0.1208 -0.0264 -0.3692
  392ACE     O2 3629   0.220   0.583   2.222 -0.6169  0.2154  0.5503
  392ACE     H1 3630  -0.019   0.344   2.228  1.0156 -0.2529 -1.2739
  392ACE     H2 3631  -0.028   0.507   2.149 -2.2085 -1.7111  0.1805
  392ACE     H3 3632  -0.026   0.499   2.322 -0.6980  0.9842  0.1686
  392ACE     H4 3633   0.306   0.574   2.266  0.1556  1.3178 -0.6803
  393ACE     C1 3634   2.873   2.451   2.266 -0.1436  0.1521  0.0813
  393ACE     C2 3635   2.724   2.458   2.276  0.1659  0.0566  0.1720
  393ACE     O1 3636   2.656   2.560   2.287 -0.1234 -0.1110 -0.2850
  393ACE     O2 3637   2.668   2.338   2.256  0.3757  0.0563  0.1761
  393ACE     H1 3638   2.912   2.435   2.165  0.3256 -1.5377  0.5190
  393ACE     H2 3639   2.927   2.367   2.311  0.7462 -0.4724 -2.1047
  393ACE     H3 3640   2.905   2.550   2.302 -0.8216 -0.7193  3.2331
  393ACE     H4 3641   2.571   2.351   2.257  0.4300  0.4362  0.6481
  394ACE     C1 3642   2.189   0.064   3.061 -0.4145  0.9001  0.3537
  394ACE     C2 3643   2.279  -0.023   2.985  0.3549  0.2674  0.2041
  394ACE     O1 3644   2.249  -0.123   2.919  0.1393  0.2430  0.4685
  394ACE     O2 3645   2.410   0.009   2.994  0.2432 -0.0984  0.3060
  394ACE     H1 3646   2.252   0.102   3.142 -0.1012  0.7477  0.1846
  394ACE     H2 3647   2.102   0.006   3.094 -0.9580  0.9621 -0.9488
  394ACE     H3 3648   2.152   0.137   2.988 -0.1181 -0.8377 -1.6246
  394ACE     H4 3649   2.453  -0.062   2.943  2.8456  0.5404  1.4737
  395ACE     C1 3650   0.229   3.062   3.732 -0.7379 -0.0896 -0.4000
  395ACE     C2 3651   0.346   2.985   3.675  0.6157 -0.2047 -0.3030
  395ACE     O1 3652   0.412   3.008   3.573 -1.1580 -0.3063 -0.2438
  395ACE     O2 3653   0.383   2.879   3.759  0.2142  0.0425  0.1667
  395ACE     H1 3654   0.227   3.058   3.841 -0.9010  0.3336 -0.3856
  395ACE     H2 3655   0.133   3.016   3.706 -0.3180 -1.1551 -0.0835
  395ACE     H3 3656   0.239   3.164   3.692 -1.1883 -0.0708 -0.4642
  395ACE     H4 3657   0.454   2.833   3.711 -0.4753 -0.5868 -0.2645
  396ACE     C1 3658   1.878   2.711   0.304 -0.3978  0.0463 -0.0676
  396ACE     C2 3659   1.965   2.817   0.346 -0.0415 -0.1515 -0.0648
  396ACE     O1 3660   2.080   2.839   0.312 -0.2818 -0.6025  0.4490
  396ACE     O2 3661   1.903   2.902   0.431 -0.5204  0.4668 -0.2245
  396ACE     H1 3662   1.870   2.631   0.379 -0.3535  1.0917  1.0534
  396ACE     H2 3663   1.926   2.675   0.212 -1.6506 -3.8188  0.6981
  396ACE     H3 3664   1.775   2.742   0.283  0.4099  3.7444  1.1441
  396ACE     H4 3665   1.967   2.974   0.442 -1.5951  1.3321  0.4243
  397ACE     C1 3666   1.309   2.246   2.648 -0.6845 -0.7042  0.3534
  397ACE     C2 3667   1.415   2.142   2.658 -0.5623  0.8701 -0.1731
  397ACE     O1 3668   1.465   2.091   2.755  0.6422 -0.3895  0.1760
  397ACE     O2 3669   1.463   2.115   2.535 -0.2888 -0.1404 -0.2417
  397ACE     H1 3670   1.358   2.342   2.634  2.5144 -1.8922  2.8531
  397ACE     H2 3671   1.239   2.244   2.733 -1.3704  0.2930 -0.1768
  397ACE     H3 3672   1.259   2.236   2.551 -2.2072  2.7941  0.7285
  397ACE     H4 3673   1.503   2.027   2.539  0.0214  0.0388  1.2138
  398ACE     C1 3674   2.586   3.037   2.747 -0.4191 -0.8281 -0.4504
  398ACE     C2 3675   2.522   3.125   2.845  0.2459 -0.3881  0.5339
  398ACE     O1 3676   2.554   3.240   2.870 -0.2936 -0.1817 -0.1213
  398ACE     O2 3677   2.449   3.061   2.926 -0.1603  0.0978  0.6479
  398ACE     H1 3678   2.505   2.990   2.690 -0.2085 -0.4917 -1.0377
  398ACE     H2 3679   2.649   2.961   2.793 -0.9030 -0.5156  0.7472
  398ACE     H3 3680   2.636   3.106   2.678 -0.9705  1.5305  1.4580
  398ACE     H4 3681   2.435   3.116   3.005 -0.5932 -0.6382  1.0943
  399ACE     C1 3682   0.739   0.432   2.866  0.5751  0.1200  0.7941
  399ACE     C2 3683   0.885   0.455   2.871  0.6353  0.5747 -0.1259
  399ACE     O1 3684   0.966   0.399   2.804 -0.0315 -0.4079 -0.1007
  399ACE     O2 3685   0.923   0.538   2.959  0.0672 -0.4465 -0.0416
  399ACE     H1 3686   0.710   0.406   2.969 -0.3092 -1.3748  0.1865
  399ACE     H2 3687   0.717   0.354   2.792 -0.8277  2.0439 -0.8633
  399ACE     H3 3688   0.671   0.515   2.847 -0.3431 -0.5104  1.2394
  399ACE     H4 3689   1.014   0.508   2.971  0.2824  0.0465 -0.4150
  400ACE     C1 3690   1.270   3.105   2.255 -0.1026  0.1426  0.7657
  400ACE     C2 3691   1.409   3.063   2.296  0.0698  0.2017  0.2673
  400ACE     O1 3692   1.483   3.117   2.372  0.3005  0.2845  0.0073
  400ACE     O2 3693   1.450   2.946   2.252 -0.0903 -0.0947  0.5108
  400ACE     H1 3694   1.213   3.101   2.348 -1.5025  4.3592  0.2140
  400ACE     H2 3695   1.223   3.031   2.190 -0.6854  1.6279 -0.5450
  400ACE     H3 3696   1.270   3.205   2.209 -1.3387 -1.2343 -2.3797
  400ACE     H4 3697   1.535   2.939   2.298  0.9220 -0.2803 -1.3561
  401ACE     C1 3698   2.371   1.133   3.052 -0.7733  0.6000  0.6958
  401ACE     C2 3699   2.242   1.071   3.002 -0.6453 -0.4671  0.9617
  401ACE     O1 3700   2.199   0.966   3.050  0.2181  0.0330  0.4615
  401ACE     O2 3701   2.211   1.114   2.875  0.1004 -0.6701 -0.6536
  401ACE     H1 3702   2.384   1.089   3.152 -0.5041 -1.2068 -0.1185
  401ACE     H2 3703   2.365   1.242   3.047  0.0639  0.5393 -2.2411
  401ACE     H3 3704   2.456   1.095   2.995 -1.0136  0.1005  0.6672
  401ACE     H4 3705   2.130   1.071   2.842 -1.4527  1.6184 -0.0154
  402ACE     C1 3706   3.261   0.495   3.593  0.1051 -0.1653  0.2504
  402ACE     C2 3707   3.199   0.397   3.684 -0.0421  1.0176 -0.1946
  402ACE     O1 3708   3.213   0.402   3.806 -0.8666  0.4931  0.0676
  402ACE     O2 3709   3.104   0.321   3.622  0.3684  0.0453  0.0276
  402ACE     H1 3710   3.313   0.456   3.504 -2.0246  2.0414 -2.0305
  402ACE     H2 3711   3.338   0.561   3.634  0.9659 -1.1991  0.3316
  402ACE     H3 3712   3.181   0.553   3.545  1.0440  1.9484  1.1771
  402ACE     H4 3713   3.051   0.284   3.695 -1.7253  1.1053 -0.9095
  403ACE     C1 3714   1.554   2.309   0.749  0.3526  0.0392  0.1300
  403ACE     C2 3715   1.469   2.182   0.747 -0.1473  0.2684  0.1634
  403ACE     O1 3716   1.389   2.158   0.835 -0.0072 -0.3803  0.2108
  403ACE     O2 3717   1.482   2.096   0.643  0.0964 -0.2391  0.2867
  403ACE     H1 3718   1.651   2.296   0.798 -0.3789 -4.2322  0.5791
  403ACE     H2 3719   1.497   2.392   0.794 -1.0553 -0.1770 -1.2296
  403ACE     H3 3720   1.580   2.327   0.644 -0.3928 -1.7519 -0.3732
  403ACE     H4 3721   1.426   2.019   0.665 -1.2835  0.3072 -1.1513
  404ACE     C1 3722   0.024   3.407   2.263  0.6257 -0.0591 -0.4459
  404ACE     C2 3723  -0.119   3.448   2.246  0.0237 -0.0635 -0.0225
  404ACE     O1 3724  -0.155   3.564   2.232 -0.5377  0.0803  0.5890
  404ACE     O2 3725  -0.212   3.348   2.241  0.2342  0.4117 -0.3101
  404ACE     H1 3726   0.036   3.303   2.232 -1.9843 -0.4689 -0.1855
  404ACE     H2 3727   0.049   3.407   2.370 -1.4173 -0.8443  0.0662
  404ACE     H3 3728   0.107   3.462   2.217  0.0710 -0.6099 -2.1145
  404ACE     H4 3729  -0.296   3.389   2.212 -0.7205 -0.8334  0.6535
  405ACE     C1 3730   0.536   2.322   3.038  0.8497 -0.3443  0.0161
  405ACE     C2 3731   0.458   2.239   2.941 -0.3899 -0.3687  0.0656
  405ACE     O1 3732   0.467   2.245   2.822  0.0782 -0.3936 -0.1302
  405ACE     O2 3733   0.386   2.141   3.003 -0.2489 -0.4083 -0.0629
  405ACE     H1 3734   0.604   2.250   3.084 -0.7189 -2.5188 -0.9809
  405ACE     H2 3735   0.482   2.360   3.126 -0.3394 -0.9228 -0.4501
  405ACE     H3 3736   0.586   2.398   2.977 -1.3680  1.0849 -0.0841
  405ACE     H4 3737   0.328   2.107   2.933 -0.6760  2.1532 -1.0298
  406ACE     C1 3738   1.708   0.470   2.602 -0.1180 -0.1009 -1.0016
  406ACE     C2 3739   1.742   0.571   2.717 -0.0434 -0.5462  0.1756
  406ACE     O1 3740   1.739   0.686   2.701 -0.0220  0.3725  0.3304
  406ACE     O2 3741   1.833   0.520   2.805 -0.2597  0.1765 -0.1419
  406ACE     H1 3742   1.731   0.370   2.640 -3.1926 -0.3302  0.4079
  406ACE     H2 3743   1.770   0.500   2.516  1.3147  0.3987  0.1958
  406ACE     H3 3744   1.604   0.486   2.569 -0.1683  0.0444 -0.7684
  406ACE     H4 3745   1.895   0.593   2.816 -0.7486  0.9251 -2.2300
  407ACE     C1 3746   0.241   2.136   2.268 -0.5269 -0.6280  0.4093
  407ACE     C2 3747   0.322   2.262   2.309  0.1770  0.3965  0.6824
  407ACE     O1 3748   0.353   2.353   2.235  0.2058 -0.5467 -0.3791
  407ACE     O2 3749   0.333   2.286   2.438  0.1314 -0.6417  0.1387
  407ACE     H1 3750   0.139   2.140   2.307 -1.2430 -0.5217 -1.4642
  407ACE     H2 3751   0.288   2.055   2.325 -0.3943  0.1884  1.4779
  407ACE     H3 3752   0.243   2.108   2.162  0.2257 -1.7071  0.7001
  407ACE     H4 3753   0.409   2.346   2.439 -0.0471 -0.3816 -0.9275
  408ACE     C1 3754   2.882   2.374   2.955  0.3908  0.0475  0.4487
  408ACE     C2 3755   2.883   2.460   3.078 -0.3581 -0.0063 -0.0850
  408ACE     O1 3756   2.952   2.434   3.177  0.8678 -0.2154  0.1785
  408ACE     O2 3757   2.845   2.584   3.062  0.6401  0.4315  0.2259
  408ACE     H1 3758   2.794   2.310   2.966 -0.7070  0.9543 -2.6436
  408ACE     H2 3759   2.975   2.318   2.939 -0.0250 -0.0830 -1.5753
  408ACE     H3 3760   2.862   2.444   2.874  0.0703 -0.6645 -0.0931
  408ACE     H4 3761   2.872   2.619   3.148 -1.8304 -1.9478  2.0684
  409ACE     C1 3762   1.958   3.027   2.649  0.3010  0.1974  0.3791
  409ACE     C2 3763   2.008   3.134   2.746 -0.4563 -0.0409  0.3900
  409ACE     O1 3764   1.944   3.195   2.834 -0.7190 -0.1488 -0.3447
  409ACE     O2 3765   2.142   3.136   2.752  0.5608 -0.4703 -0.3824
  409ACE     H1 3766   1.999   3.030   2.548 -0.6283 -0.5432 -0.0210
  409ACE     H2 3767   1.851   3.004   2.653  0.5950 -1.6630 -1.4799
  409ACE     H3 3768   2.006   2.931   2.669 -0.1733 -0.2394 -0.5675
  409ACE     H4 3769   2.167   3.199   2.821  0.1006 -1.0174  0.3044
  410ACE     C1 3770   0.189   2.845   3.246  0.4437  0.1786 -0.5685
  410ACE     C2 3771   0.287   2.730   3.220  0.4557 -0.0733 -0.4893
  410ACE     O1 3772   0.367   2.698   3.298  0.2245  0.5054  0.0750
  410ACE     O2 3773   0.257   2.658   3.110  0.3181  0.3790 -0.1863
  410ACE     H1 3774   0.227   2.913   3.322  0.2578  0.5089 -0.7726
  410ACE     H2 3775   0.093   2.800   3.274 -0.5294  2.1333 -0.7036
  410ACE     H3 3776   0.178   2.886   3.145  0.6469  0.6672 -0.3907
  410ACE     H4 3777   0.179   2.702   3.073 -0.0492  0.2431  0.4112
  411ACE     C1 3778   2.142   3.083   0.847  0.6983 -0.5625  0.3579
  411ACE     C2 3779   2.280   3.144   0.802 -0.2117  0.1668 -0.3833
  411ACE     O1 3780   2.291   3.201   0.697  0.2203  0.0759  0.0952
  411ACE     O2 3781   2.348   3.200   0.911  0.0670 -0.2238  0.1461
  411ACE     H1 3782   2.159   3.008   0.924  0.8980 -2.7698 -1.7791
  411ACE     H2 3783   2.087   3.042   0.761  0.8515  1.9520 -0.9892
  411ACE     H3 3784   2.083   3.164   0.891 -0.0449 -0.2621 -1.1455
  411ACE     H4 3785   2.413   3.257   0.867 -0.9830  0.0575 -1.0582
  412ACE     C1 3786   2.215   2.536   3.118  0.0456 -0.3931  0.0132
  412ACE     C2 3787   2.184   2.392   3.152 -0.3056 -1.3966 -0.7943
  412ACE     O1 3788   2.141   2.312   3.076 -0.4681  0.1754  0.3183
  412ACE     O2 3789   2.244   2.352   3.256 -0.5678  0.2494  0.0256
  412ACE     H1 3790   2.135   2.594   3.072  1.4395  1.4970 -0.0898
  412ACE     H2 3791   2.291   2.519   3.041 -0.6836 -1.1491 -0.5462
  412ACE     H3 3792   2.273   2.573   3.204  1.2531 -1.0500 -0.4997
  412ACE     H4 3793   2.221   2.258   3.246 -2.5934  0.9232 -2.0983
  413ACE     C1 3794   0.164   1.595   0.912 -0.4151  0.3445  0.0416
  413ACE     C2 3795   0.067   1.562   0.790  0.1064 -0.2538 -0.6746
  413ACE     O1 3796   0.036   1.634   0.698  0.0508 -0.2174 -0.1911
  413ACE     O2 3797   0.022   1.438   0.785  0.0043  0.4758 -0.8693
  413ACE     H1 3798   0.139   1.692   0.958  1.9347  0.8914  0.1981
  413ACE     H2 3799   0.263   1.609   0.868 -0.9074 -0.3294 -1.2847
  413ACE     H3 3800   0.154   1.513   0.984 -0.0824  1.9900  2.0203
  413ACE     H4 3801  -0.032   1.430   0.705 -0.3859  2.0876 -0.7871
   3.40320   3.43847   3.80000
