HFIP comparator n4
 3225
    1GR      C1    1   0.000   0.000   1.900  0.0000  0.0000  0.0000
    1GR      C2    2   0.142   0.000   1.900  0.0000  0.0000  0.0000
    1GR      C3    3   0.213   0.123   1.900  0.0000  0.0000  0.0000
    1GR      C4    4   0.354   0.123   1.900  0.0000  0.0000  0.0000
    1GR      C5    5   0.000   0.246   1.900  0.0000  0.0000  0.0000
    1GR      C6    6   0.142   0.246   1.900  0.0000  0.0000  0.0000
    1GR      C7    7   0.213   0.368   1.900  0.0000  0.0000  0.0000
    1GR      C8    8   0.354   0.368   1.900  0.0000  0.0000  0.0000
    1GR      C9    9   0.000   0.491   1.900  0.0000  0.0000  0.0000
    1GR     C10   10   0.142   0.491   1.900  0.0000  0.0000  0.0000
    1GR     C11   11   0.213   0.614   1.900  0.0000  0.0000  0.0000
    1GR     C12   12   0.354   0.614   1.900  0.0000  0.0000  0.0000
    1GR     C13   13   0.000   0.737   1.900  0.0000  0.0000  0.0000
    1GR     C14   14   0.142   0.737   1.900  0.0000  0.0000  0.0000
    1GR     C15   15   0.213   0.860   1.900  0.0000  0.0000  0.0000
    1GR     C16   16   0.354   0.860   1.900  0.0000  0.0000  0.0000
    1GR     C17   17   0.000   0.982   1.900  0.0000  0.0000  0.0000
    1GR     C18   18   0.142   0.982   1.900  0.0000  0.0000  0.0000
    1GR     C19   19   0.213   1.105   1.900  0.0000  0.0000  0.0000
    1GR     C20   20   0.354   1.105   1.900  0.0000  0.0000  0.0000
    1GR     C21   21   0.000   1.228   1.900  0.0000  0.0000  0.0000
    1GR     C22   22   0.142   1.228   1.900  0.0000  0.0000  0.0000
    1GR     C23   23   0.213   1.351   1.900  0.0000  0.0000  0.0000
    1GR     C24   24   0.354   1.351   1.900  0.0000  0.0000  0.0000
    1GR     C25   25   0.000   1.474   1.900  0.0000  0.0000  0.0000
    1GR     C26   26   0.142   1.474   1.900  0.0000  0.0000  0.0000
    1GR     C27   27   0.213   1.596   1.900  0.0000  0.0000  0.0000
    1GR     C28   28   0.354   1.596   1.900  0.0000  0.0000  0.0000
    1GR     C29   29   0.000   1.719   1.900  0.0000  0.0000  0.0000
    1GR     C30   30   0.142   1.719   1.900  0.0000  0.0000  0.0000
    1GR     C31   31   0.213   1.842   1.900  0.0000  0.0000  0.0000
    1GR     C32   32   0.354   1.842   1.900  0.0000  0.0000  0.0000
    1GR     C33   33   0.000   1.965   1.900  0.0000  0.0000  0.0000
    1GR     C34   34   0.142   1.965   1.900  0.0000  0.0000  0.0000
    1GR     C35   35   0.213   2.088   1.900  0.0000  0.0000  0.0000
    1GR     C36   36   0.354   2.088   1.900  0.0000  0.0000  0.0000
    1GR     C37   37   0.000   2.210   1.900  0.0000  0.0000  0.0000
    1GR     C38   38   0.142   2.210   1.900  0.0000  0.0000  0.0000
    1GR     C39   39   0.213   2.333   1.900  0.0000  0.0000  0.0000
    1GR     C40   40   0.354   2.333   1.900  0.0000  0.0000  0.0000
    1GR     C41   41   0.000   2.456   1.900  0.0000  0.0000  0.0000
    1GR     C42   42   0.142   2.456   1.900  0.0000  0.0000  0.0000
    1GR     C43   43   0.213   2.579   1.900  0.0000  0.0000  0.0000
    1GR     C44   44   0.354   2.579   1.900  0.0000  0.0000  0.0000
    1GR     C45   45   0.000   2.702   1.900  0.0000  0.0000  0.0000
    1GR     C46   46   0.142   2.702   1.900  0.0000  0.0000  0.0000
    1GR     C47   47   0.213   2.824   1.900  0.0000  0.0000  0.0000
    1GR     C48   48   0.354   2.824   1.900  0.0000  0.0000  0.0000
    1GR     C49   49   0.000   2.947   1.900  0.0000  0.0000  0.0000
    1GR     C50   50   0.142   2.947   1.900  0.0000  0.0000  0.0000
    1GR     C51   51   0.213   3.070   1.900  0.0000  0.0000  0.0000
    1GR     C52   52   0.354   3.070   1.900  0.0000  0.0000  0.0000
    1GR     C53   53   0.000   3.193   1.900  0.0000  0.0000  0.0000
    1GR     C54   54   0.142   3.193   1.900  0.0000  0.0000  0.0000
    1GR     C55   55   0.213   3.316   1.900  0.0000  0.0000  0.0000
    1GR     C56   56   0.354   3.316   1.900  0.0000  0.0000  0.0000
    1GR     C57   57   0.425   0.000   1.900  0.0000  0.0000  0.0000
    1GR     C58   58   0.567   0.000   1.900  0.0000  0.0000  0.0000
    1GR     C59   59   0.638   0.123   1.900  0.0000  0.0000  0.0000
    1GR     C60   60   0.780   0.123   1.900  0.0000  0.0000  0.0000
    1GR     C61   61   0.425   0.246   1.900  0.0000  0.0000  0.0000
    1GR     C62   62   0.567   0.246   1.900  0.0000  0.0000  0.0000
    1GR     C63   63   0.638   0.368   1.900  0.0000  0.0000  0.0000
    1GR     C64   64   0.780   0.368   1.900  0.0000  0.0000  0.0000
    1GR     C65   65   0.425   0.491   1.900  0.0000  0.0000  0.0000
    1GR     C66   66   0.567   0.491   1.900  0.0000  0.0000  0.0000
    1GR     C67   67   0.638   0.614   1.900  0.0000  0.0000  0.0000
    1GR     C68   68   0.780   0.614   1.900  0.0000  0.0000  0.0000
    1GR     C69   69   0.425   0.737   1.900  0.0000  0.0000  0.0000
    1GR     C70   70   0.567   0.737   1.900  0.0000  0.0000  0.0000
    1GR     C71   71   0.638   0.860   1.900  0.0000  0.0000  0.0000
    1GR     C72   72   0.780   0.860   1.900  0.0000  0.0000  0.0000
    1GR     C73   73   0.425   0.982   1.900  0.0000  0.0000  0.0000
    1GR     C74   74   0.567   0.982   1.900  0.0000  0.0000  0.0000
    1GR     C75   75   0.638   1.105   1.900  0.0000  0.0000  0.0000
    1GR     C76   76   0.780   1.105   1.900  0.0000  0.0000  0.0000
    1GR     C77   77   0.425   1.228   1.900  0.0000  0.0000  0.0000
    1GR     C78   78   0.567   1.228   1.900  0.0000  0.0000  0.0000
    1GR     C79   79   0.638   1.351   1.900  0.0000  0.0000  0.0000
    1GR     C80   80   0.780   1.351   1.900  0.0000  0.0000  0.0000
    1GR     C81   81   0.425   1.474   1.900  0.0000  0.0000  0.0000
    1GR     C82   82   0.567   1.474   1.900  0.0000  0.0000  0.0000
    1GR     C83   83   0.638   1.596   1.900  0.0000  0.0000  0.0000
    1GR     C84   84   0.780   1.596   1.900  0.0000  0.0000  0.0000
    1GR     C85   85   0.425   1.719   1.900  0.0000  0.0000  0.0000
    1GR     C86   86   0.567   1.719   1.900  0.0000  0.0000  0.0000
    1GR     C87   87   0.638   1.842   1.900  0.0000  0.0000  0.0000
    1GR     C88   88   0.780   1.842   1.900  0.0000  0.0000  0.0000
    1GR     C89   89   0.425   1.965   1.900  0.0000  0.0000  0.0000
    1GR     C90   90   0.567   1.965   1.900  0.0000  0.0000  0.0000
    1GR     C91   91   0.638   2.088   1.900  0.0000  0.0000  0.0000
    1GR     C92   92   0.780   2.088   1.900  0.0000  0.0000  0.0000
    1GR     C93   93   0.425   2.210   1.900  0.0000  0.0000  0.0000
    1GR     C94   94   0.567   2.210   1.900  0.0000  0.0000  0.0000
    1GR     C95   95   0.638   2.333   1.900  0.0000  0.0000  0.0000
    1GR     C96   96   0.780   2.333   1.900  0.0000  0.0000  0.0000
    1GR     C97   97   0.425   2.456   1.900  0.0000  0.0000  0.0000
    1GR     C98   98   0.567   2.456   1.900  0.0000  0.0000  0.0000
    1GR     C99   99   0.638   2.579   1.900  0.0000  0.0000  0.0000
    1GR    C100  100   0.780   2.579   1.900  0.0000  0.0000  0.0000
    1GR    C101  101   0.425   2.702   1.900  0.0000  0.0000  0.0000
    1GR    C102  102   0.567   2.702   1.900  0.0000  0.0000  0.0000
    1GR    C103  103   0.638   2.824   1.900  0.0000  0.0000  0.0000
    1GR    C104  104   0.780   2.824   1.900  0.0000  0.0000  0.0000
    1GR    C105  105   0.425   2.947   1.900  0.0000  0.0000  0.0000
    1GR    C106  106   0.567   2.947   1.900  0.0000  0.0000  0.0000
    1GR    C107  107   0.638   3.070   1.900  0.0000  0.0000  0.0000
    1GR    C108  108   0.780   3.070   1.900  0.0000  0.0000  0.0000
    1GR    C109  109   0.425   3.193   1.900  0.0000  0.0000  0.0000
    1GR    C110  110   0.567   3.193   1.900  0.0000  0.0000  0.0000
    1GR    C111  111   0.638   3.316   1.900  0.0000  0.0000  0.0000
    1GR    C112  112   0.780   3.316   1.900  0.0000  0.0000  0.0000
    1GR    C113  113   0.851   0.000   1.900  0.0000  0.0000  0.0000
    1GR    C114  114   0.993   0.000   1.900  0.0000  0.0000  0.0000
    1GR    C115  115   1.064   0.123   1.900  0.0000  0.0000  0.0000
    1GR    C116  116   1.205   0.123   1.900  0.0000  0.0000  0.0000
    1GR    C117  117   0.851   0.246   1.900  0.0000  0.0000  0.0000
    1GR    C118  118   0.993   0.246   1.900  0.0000  0.0000  0.0000
    1GR    C119  119   1.064   0.368   1.900  0.0000  0.0000  0.0000
    1GR    C120  120   1.205   0.368   1.900  0.0000  0.0000  0.0000
    1GR    C121  121   0.851   0.491   1.900  0.0000  0.0000  0.0000
    1GR    C122  122   0.993   0.491   1.900  0.0000  0.0000  0.0000
    1GR    C123  123   1.064   0.614   1.900  0.0000  0.0000  0.0000
    1GR    C124  124   1.205   0.614   1.900  0.0000  0.0000  0.0000
    1GR    C125  125   0.851   0.737   1.900  0.0000  0.0000  0.0000
    1GR    C126  126   0.993   0.737   1.900  0.0000  0.0000  0.0000
    1GR    C127  127   1.064   0.860   1.900  0.0000  0.0000  0.0000
    1GR    C128  128   1.205   0.860   1.900  0.0000  0.0000  0.0000
    1GR    C129  129   0.851   0.982   1.900  0.0000  0.0000  0.0000
    1GR    C130  130   0.993   0.982   1.900  0.0000  0.0000  0.0000
    1GR    C131  131   1.064   1.105   1.900  0.0000  0.0000  0.0000
    1GR    C132  132   1.205   1.105   1.900  0.0000  0.0000  0.0000
    1GR    C133  133   0.851   1.228   1.900  0.0000  0.0000  0.0000
    1GR    C134  134   0.993   1.228   1.900  0.0000  0.0000  0.0000
    1GR    C135  135   1.064   1.351   1.900  0.0000  0.0000  0.0000
    1GR    C136  136   1.205   1.351   1.900  0.0000  0.0000  0.0000
    1GR    C137  137   0.851   1.474   1.900  0.0000  0.0000  0.0000
    1GR    C138  138   0.993   1.474   1.900  0.0000  0.0000  0.0000
    1GR    C139  139   1.064   1.596   1.900  0.0000  0.0000  0.0000
    1GR    C140  140   1.205   1.596   1.900  0.0000  0.0000  0.0000
    1GR    C141  141   0.851   1.719   1.900  0.0000  0.0000  0.0000
    1GR    C142  142   0.993   1.719   1.900  0.0000  0.0000  0.0000
    1GR    C143  143   1.064   1.842   1.900  0.0000  0.0000  0.0000
    1GR    C144  144   1.205   1.842   1.900  0.0000  0.0000  0.0000
    1GR    C145  145   0.851   1.965   1.900  0.0000  0.0000  0.0000
    1GR    C146  146   0.993   1.965   1.900  0.0000  0.0000  0.0000
    1GR    C147  147   1.064   2.088   1.900  0.0000  0.0000  0.0000
    1GR    C148  148   1.205   2.088   1.900  0.0000  0.0000  0.0000
    1GR    C149  149   0.851   2.210   1.900  0.0000  0.0000  0.0000
    1GR    C150  150   0.993   2.210   1.900  0.0000  0.0000  0.0000
    1GR    C151  151   1.064   2.333   1.900  0.0000  0.0000  0.0000
    1GR    C152  152   1.205   2.333   1.900  0.0000  0.0000  0.0000
    1GR    C153  153   0.851   2.456   1.900  0.0000  0.0000  0.0000
    1GR    C154  154   0.993   2.456   1.900  0.0000  0.0000  0.0000
    1GR    C155  155   1.064   2.579   1.900  0.0000  0.0000  0.0000
    1GR    C156  156   1.205   2.579   1.900  0.0000  0.0000  0.0000
    1GR    C157  157   0.851   2.702   1.900  0.0000  0.0000  0.0000
    1GR    C158  158   0.993   2.702   1.900  0.0000  0.0000  0.0000
    1GR    C159  159   1.064   2.824   1.900  0.0000  0.0000  0.0000
    1GR    C160  160   1.205   2.824   1.900  0.0000  0.0000  0.0000
    1GR    C161  161   0.851   2.947   1.900  0.0000  0.0000  0.0000
    1GR    C162  162   0.993   2.947   1.900  0.0000  0.0000  0.0000
    1GR    C163  163   1.064   3.070   1.900  0.0000  0.0000  0.0000
    1GR    C164  164   1.205   3.070   1.900  0.0000  0.0000  0.0000
    1GR    C165  165   0.851   3.193   1.900  0.0000  0.0000  0.0000
    1GR    C166  166   0.993   3.193   1.900  0.0000  0.0000  0.0000
    1GR    C167  167   1.064   3.316   1.900  0.0000  0.0000  0.0000
    1GR    C168  168   1.205   3.316   1.900  0.0000  0.0000  0.0000
    1GR    C169  169   1.276   0.000   1.900  0.0000  0.0000  0.0000
    1GR    C170  170   1.418   0.000   1.900  0.0000  0.0000  0.0000
    1GR    C171  171   1.489   0.123   1.900  0.0000  0.0000  0.0000
    1GR    C172  172   1.631   0.123   1.900  0.0000  0.0000  0.0000
    1GR    C173  173   1.276   0.246   1.900  0.0000  0.0000  0.0000
    1GR    C174  174   1.418   0.246   1.900  0.0000  0.0000  0.0000
    1GR    C175  175   1.489   0.368   1.900  0.0000  0.0000  0.0000
    1GR    C176  176   1.631   0.368   1.900  0.0000  0.0000  0.0000
    1GR    C177  177   1.276   0.491   1.900  0.0000  0.0000  0.0000
    1GR    C178  178   1.418   0.491   1.900  0.0000  0.0000  0.0000
    1GR    C179  179   1.489   0.614   1.900  0.0000  0.0000  0.0000
    1GR    C180  180   1.631   0.614   1.900  0.0000  0.0000  0.0000
    1GR    C181  181   1.276   0.737   1.900  0.0000  0.0000  0.0000
    1GR    C182  182   1.418   0.737   1.900  0.0000  0.0000  0.0000
    1GR    C183  183   1.489   0.860   1.900  0.0000  0.0000  0.0000
    1GR    C184  184   1.631   0.860   1.900  0.0000  0.0000  0.0000
    1GR    C185  185   1.276   0.982   1.900  0.0000  0.0000  0.0000
    1GR    C186  186   1.418   0.982   1.900  0.0000  0.0000  0.0000
    1GR    C187  187   1.489   1.105   1.900  0.0000  0.0000  0.0000
    1GR    C188  188   1.631   1.105   1.900  0.0000  0.0000  0.0000
    1GR    C189  189   1.276   1.228   1.900  0.0000  0.0000  0.0000
    1GR    C190  190   1.418   1.228   1.900  0.0000  0.0000  0.0000
    1GR    C191  191   1.489   1.351   1.900  0.0000  0.0000  0.0000
    1GR    C192  192   1.631   1.351   1.900  0.0000  0.0000  0.0000
    1GR    C193  193   1.276   1.474   1.900  0.0000  0.0000  0.0000
    1GR    C194  194   1.418   1.474   1.900  0.0000  0.0000  0.0000
    1GR    C195  195   1.489   1.596   1.900  0.0000  0.0000  0.0000
    1GR    C196  196   1.631   1.596   1.900  0.0000  0.0000  0.0000
    1GR    C197  197   1.276   1.719   1.900  0.0000  0.0000  0.0000
    1GR    C198  198   1.418   1.719   1.900  0.0000  0.0000  0.0000
    1GR    C199  199   1.489   1.842   1.900  0.0000  0.0000  0.0000
    1GR    C200  200   1.631   1.842   1.900  0.0000  0.0000  0.0000
    1GR    C201  201   1.276   1.965   1.900  0.0000  0.0000  0.0000
    1GR    C202  202   1.418   1.965   1.900  0.0000  0.0000  0.0000
    1GR    C203  203   1.489   2.088   1.900  0.0000  0.0000  0.0000
    1GR    C204  204   1.631   2.088   1.900  0.0000  0.0000  0.0000
    1GR    C205  205   1.276   2.210   1.900  0.0000  0.0000  0.0000
    1GR    C206  206   1.418   2.210   1.900  0.0000  0.0000  0.0000
    1GR    C207  207   1.489   2.333   1.900  0.0000  0.0000  0.0000
    1GR    C208  208   1.631   2.333   1.900  0.0000  0.0000  0.0000
    1GR    C209  209   1.276   2.456   1.900  0.0000  0.0000  0.0000
    1GR    C210  210   1.418   2.456   1.900  0.0000  0.0000  0.0000
    1GR    C211  211   1.489   2.579   1.900  0.0000  0.0000  0.0000
    1GR    C212  212   1.631   2.579   1.900  0.0000  0.0000  0.0000
    1GR    C213  213   1.276   2.702   1.900  0.0000  0.0000  0.0000
    1GR    C214  214   1.418   2.702   1.900  0.0000  0.0000  0.0000
    1GR    C215  215   1.489   2.824   1.900  0.0000  0.0000  0.0000
    1GR    C216  216   1.631   2.824   1.900  0.0000  0.0000  0.0000
    1GR    C217  217   1.276   2.947   1.900  0.0000  0.0000  0.0000
    1GR    C218  218   1.418   2.947   1.900  0.0000  0.0000  0.0000
    1GR    C219  219   1.489   3.070   1.900  0.0000  0.0000  0.0000
    1GR    C220  220   1.631   3.070   1.900  0.0000  0.0000  0.0000
    1GR    C221  221   1.276   3.193   1.900  0.0000  0.0000  0.0000
    1GR    C222  222   1.418   3.193   1.900  0.0000  0.0000  0.0000
    1GR    C223  223   1.489   3.316   1.900  0.0000  0.0000  0.0000
    1GR    C224  224   1.631   3.316   1.900  0.0000  0.0000  0.0000
    1GR    C225  225   1.702   0.000   1.900  0.0000  0.0000  0.0000
    1GR    C226  226   1.843   0.000   1.900  0.0000  0.0000  0.0000
    1GR    C227  227   1.914   0.123   1.900  0.0000  0.0000  0.0000
    1GR    C228  228   2.056   0.123   1.900  0.0000  0.0000  0.0000
    1GR    C229  229   1.702   0.246   1.900  0.0000  0.0000  0.0000
    1GR    C230  230   1.843   0.246   1.900  0.0000  0.0000  0.0000
    1GR    C231  231   1.914   0.368   1.900  0.0000  0.0000  0.0000
    1GR    C232  232   2.056   0.368   1.900  0.0000  0.0000  0.0000
    1GR    C233  233   1.702   0.491   1.900  0.0000  0.0000  0.0000
    1GR    C234  234   1.843   0.491   1.900  0.0000  0.0000  0.0000
    1GR    C235  235   1.914   0.614   1.900  0.0000  0.0000  0.0000
    1GR    C236  236   2.056   0.614   1.900  0.0000  0.0000  0.0000
    1GR    C237  237   1.702   0.737   1.900  0.0000  0.0000  0.0000
    1GR    C238  238   1.843   0.737   1.900  0.0000  0.0000  0.0000
    1GR    C239  239   1.914   0.860   1.900  0.0000  0.0000  0.0000
    1GR    C240  240   2.056   0.860   1.900  0.0000  0.0000  0.0000
    1GR    C241  241   1.702   0.982   1.900  0.0000  0.0000  0.0000
    1GR    C242  242   1.843   0.982   1.900  0.0000  0.0000  0.0000
    1GR    C243  243   1.914   1.105   1.900  0.0000  0.0000  0.0000
    1GR    C244  244   2.056   1.105   1.900  0.0000  0.0000  0.0000
    1GR    C245  245   1.702   1.228   1.900  0.0000  0.0000  0.0000
    1GR    C246  246   1.843   1.228   1.900  0.0000  0.0000  0.0000
    1GR    C247  247   1.914   1.351   1.900  0.0000  0.0000  0.0000
    1GR    C248  248   2.056   1.351   1.900  0.0000  0.0000  0.0000
    1GR    C249  249   1.702   1.474   1.900  0.0000  0.0000  0.0000
    1GR    C250  250   1.843   1.474   1.900  0.0000  0.0000  0.0000
    1GR    C251  251   1.914   1.596   1.900  0.0000  0.0000  0.0000
    1GR    C252  252   2.056   1.596   1.900  0.0000  0.0000  0.0000
    1GR    C253  253   1.702   1.719   1.900  0.0000  0.0000  0.0000
    1GR    C254  254   1.843   1.719   1.900  0.0000  0.0000  0.0000
    1GR    C255  255   1.914   1.842   1.900  0.0000  0.0000  0.0000
    1GR    C256  256   2.056   1.842   1.900  0.0000  0.0000  0.0000
    1GR    C257  257   1.702   1.965   1.900  0.0000  0.0000  0.0000
    1GR    C258  258   1.843   1.965   1.900  0.0000  0.0000  0.0000
    1GR    C259  259   1.914   2.088   1.900  0.0000  0.0000  0.0000
    1GR    C260  260   2.056   2.088   1.900  0.0000  0.0000  0.0000
    1GR    C261  261   1.702   2.210   1.900  0.0000  0.0000  0.0000
    1GR    C262  262   1.843   2.210   1.900  0.0000  0.0000  0.0000
    1GR    C263  263   1.914   2.333   1.900  0.0000  0.0000  0.0000
    1GR    C264  264   2.056   2.333   1.900  0.0000  0.0000  0.0000
    1GR    C265  265   1.702   2.456   1.900  0.0000  0.0000  0.0000
    1GR    C266  266   1.843   2.456   1.900  0.0000  0.0000  0.0000
    1GR    C267  267   1.914   2.579   1.900  0.0000  0.0000  0.0000
    1GR    C268  268   2.056   2.579   1.900  0.0000  0.0000  0.0000
    1GR    C269  269   1.702   2.702   1.900  0.0000  0.0000  0.0000
    1GR    C270  270   1.843   2.702   1.900  0.0000  0.0000  0.0000
    1GR    C271  271   1.914   2.824   1.900  0.0000  0.0000  0.0000
    1GR    C272  272   2.056   2.824   1.900  0.0000  0.0000  0.0000
    1GR    C273  273   1.702   2.947   1.900  0.0000  0.0000  0.0000
    1GR    C274  274   1.843   2.947   1.900  0.0000  0.0000  0.0000
    1GR    C275  275   1.914   3.070   1.900  0.0000  0.0000  0.0000
    1GR    C276  276   2.056   3.070   1.900  0.0000  0.0000  0.0000
    1GR    C277  277   1.702   3.193   1.900  0.0000  0.0000  0.0000
    1GR    C278  278   1.843   3.193   1.900  0.0000  0.0000  0.0000
    1GR    C279  279   1.914   3.316   1.900  0.0000  0.0000  0.0000
    1GR    C280  280   2.056   3.316   1.900  0.0000  0.0000  0.0000
    1GR    C281  281   2.127   0.000   1.900  0.0000  0.0000  0.0000
    1GR    C282  282   2.269   0.000   1.900  0.0000  0.0000  0.0000
    1GR    C283  283   2.340   0.123   1.900  0.0000  0.0000  0.0000
    1GR    C284  284   2.481   0.123   1.900  0.0000  0.0000  0.0000
    1GR    C285  285   2.127   0.246   1.900  0.0000  0.0000  0.0000
    1GR    C286  286   2.269   0.246   1.900  0.0000  0.0000  0.0000
    1GR    C287  287   2.340   0.368   1.900  0.0000  0.0000  0.0000
    1GR    C288  288   2.481   0.368   1.900  0.0000  0.0000  0.0000
    1GR    C289  289   2.127   0.491   1.900  0.0000  0.0000  0.0000
    1GR    C290  290   2.269   0.491   1.900  0.0000  0.0000  0.0000
    1GR    C291  291   2.340   0.614   1.900  0.0000  0.0000  0.0000
    1GR    C292  292   2.481   0.614   1.900  0.0000  0.0000  0.0000
    1GR    C293  293   2.127   0.737   1.900  0.0000  0.0000  0.0000
    1GR    C294  294   2.269   0.737   1.900  0.0000  0.0000  0.0000
    1GR    C295  295   2.340   0.860   1.900  0.0000  0.0000  0.0000
    1GR    C296  296   2.481   0.860   1.900  0.0000  0.0000  0.0000
    1GR    C297  297   2.127   0.982   1.900  0.0000  0.0000  0.0000
    1GR    C298  298   2.269   0.982   1.900  0.0000  0.0000  0.0000
    1GR    C299  299   2.340   1.105   1.900  0.0000  0.0000  0.0000
    1GR    C300  300   2.481   1.105   1.900  0.0000  0.0000  0.0000
    1GR    C301  301   2.127   1.228   1.900  0.0000  0.0000  0.0000
    1GR    C302  302   2.269   1.228   1.900  0.0000  0.0000  0.0000
    1GR    C303  303   2.340   1.351   1.900  0.0000  0.0000  0.0000
    1GR    C304  304   2.481   1.351   1.900  0.0000  0.0000  0.0000
    1GR    C305  305   2.127   1.474   1.900  0.0000  0.0000  0.0000
    1GR    C306  306   2.269   1.474   1.900  0.0000  0.0000  0.0000
    1GR    C307  307   2.340   1.596   1.900  0.0000  0.0000  0.0000
    1GR    C308  308   2.481   1.596   1.900  0.0000  0.0000  0.0000
    1GR    C309  309   2.127   1.719   1.900  0.0000  0.0000  0.0000
    1GR    C310  310   2.269   1.719   1.900  0.0000  0.0000  0.0000
    1GR    C311  311   2.340   1.842   1.900  0.0000  0.0000  0.0000
    1GR    C312  312   2.481   1.842   1.900  0.0000  0.0000  0.0000
    1GR    C313  313   2.127   1.965   1.900  0.0000  0.0000  0.0000
    1GR    C314  314   2.269   1.965   1.900  0.0000  0.0000  0.0000
    1GR    C315  315   2.340   2.088   1.900  0.0000  0.0000  0.0000
    1GR    C316  316   2.481   2.088   1.900  0.0000  0.0000  0.0000
    1GR    C317  317   2.127   2.210   1.900  0.0000  0.0000  0.0000
    1GR    C318  318   2.269   2.210   1.900  0.0000  0.0000  0.0000
    1GR    C319  319   2.340   2.333   1.900  0.0000  0.0000  0.0000
    1GR    C320  320   2.481   2.333   1.900  0.0000  0.0000  0.0000
    1GR    C321  321   2.127   2.456   1.900  0.0000  0.0000  0.0000
    1GR    C322  322   2.269   2.456   1.900  0.0000  0.0000  0.0000
    1GR    C323  323   2.340   2.579   1.900  0.0000  0.0000  0.0000
    1GR    C324  324   2.481   2.579   1.900  0.0000  0.0000  0.0000
    1GR    C325  325   2.127   2.702   1.900  0.0000  0.0000  0.0000
    1GR    C326  326   2.269   2.702   1.900  0.0000  0.0000  0.0000
    1GR    C327  327   2.340   2.824   1.900  0.0000  0.0000  0.0000
    1GR    C328  328   2.481   2.824   1.900  0.0000  0.0000  0.0000
    1GR    C329  329   2.127   2.947   1.900  0.0000  0.0000  0.0000
    1GR    C330  330   2.269   2.947   1.900  0.0000  0.0000  0.0000
    1GR    C331  331   2.340   3.070   1.900  0.0000  0.0000  0.0000
    1GR    C332  332   2.481   3.070   1.900  0.0000  0.0000  0.0000
    1GR    C333  333   2.127   3.193   1.900  0.0000  0.0000  0.0000
    1GR    C334  334   2.269   3.193   1.900  0.0000  0.0000  0.0000
    1GR    C335  335   2.340   3.316   1.900  0.0000  0.0000  0.0000
    1GR    C336  336   2.481   3.316   1.900  0.0000  0.0000  0.0000
    1GR    C337  337   2.552   0.000   1.900  0.0000  0.0000  0.0000
    1GR    C338  338   2.694   0.000   1.900  0.0000  0.0000  0.0000
    1GR    C339  339   2.765   0.123   1.900  0.0000  0.0000  0.0000
    1GR    C340  340   2.907   0.123   1.900  0.0000  0.0000  0.0000
    1GR    C341  341   2.552   0.246   1.900  0.0000  0.0000  0.0000
    1GR    C342  342   2.694   0.246   1.900  0.0000  0.0000  0.0000
    1GR    C343  343   2.765   0.368   1.900  0.0000  0.0000  0.0000
    1GR    C344  344   2.907   0.368   1.900  0.0000  0.0000  0.0000
    1GR    C345  345   2.552   0.491   1.900  0.0000  0.0000  0.0000
    1GR    C346  346   2.694   0.491   1.900  0.0000  0.0000  0.0000
    1GR    C347  347   2.765   0.614   1.900  0.0000  0.0000  0.0000
    1GR    C348  348   2.907   0.614   1.900  0.0000  0.0000  0.0000
    1GR    C349  349   2.552   0.737   1.900  0.0000  0.0000  0.0000
    1GR    C350  350   2.694   0.737   1.900  0.0000  0.0000  0.0000
    1GR    C351  351   2.765   0.860   1.900  0.0000  0.0000  0.0000
    1GR    C352  352   2.907   0.860   1.900  0.0000  0.0000  0.0000
    1GR    C353  353   2.552   0.982   1.900  0.0000  0.0000  0.0000
    1GR    C354  354   2.694   0.982   1.900  0.0000  0.0000  0.0000
    1GR    C355  355   2.765   1.105   1.900  0.0000  0.0000  0.0000
    1GR    C356  356   2.907   1.105   1.900  0.0000  0.0000  0.0000
    1GR    C357  357   2.552   1.228   1.900  0.0000  0.0000  0.0000
    1GR    C358  358   2.694   1.228   1.900  0.0000  0.0000  0.0000
    1GR    C359  359   2.765   1.351   1.900  0.0000  0.0000  0.0000
    1GR    C360  360   2.907   1.351   1.900  0.0000  0.0000  0.0000
    1GR    C361  361   2.552   1.474   1.900  0.0000  0.0000  0.0000
    1GR    C362  362   2.694   1.474   1.900  0.0000  0.0000  0.0000
    1GR    C363  363   2.765   1.596   1.900  0.0000  0.0000  0.0000
    1GR    C364  364   2.907   1.596   1.900  0.0000  0.0000  0.0000
    1GR    C365  365   2.552   1.719   1.900  0.0000  0.0000  0.0000
    1GR    C366  366   2.694   1.719   1.900  0.0000  0.0000  0.0000
    1GR    C367  367   2.765   1.842   1.900  0.0000  0.0000  0.0000
    1GR    C368  368   2.907   1.842   1.900  0.0000  0.0000  0.0000
    1GR    C369  369   2.552   1.965   1.900  0.0000  0.0000  0.0000
    1GR    C370  370   2.694   1.965   1.900  0.0000  0.0000  0.0000
    1GR    C371  371   2.765   2.088   1.900  0.0000  0.0000  0.0000
    1GR    C372  372   2.907   2.088   1.900  0.0000  0.0000  0.0000
    1GR    C373  373   2.552   2.210   1.900  0.0000  0.0000  0.0000
    1GR    C374  374   2.694   2.210   1.900  0.0000  0.0000  0.0000
    1GR    C375  375   2.765   2.333   1.900  0.0000  0.0000  0.0000
    1GR    C376  376   2.907   2.333   1.900  0.0000  0.0000  0.0000
    1GR    C377  377   2.552   2.456   1.900  0.0000  0.0000  0.0000
    1GR    C378  378   2.694   2.456   1.900  0.0000  0.0000  0.0000
    1GR    C379  379   2.765   2.579   1.900  0.0000  0.0000  0.0000
    1GR    C380  380   2.907   2.579   1.900  0.0000  0.0000  0.0000
    1GR    C381  381   2.552   2.702   1.900  0.0000  0.0000  0.0000
    1GR    C382  382   2.694   2.702   1.900  0.0000  0.0000  0.0000
    1GR    C383  383   2.765   2.824   1.900  0.0000  0.0000  0.0000
    1GR    C384  384   2.907   2.824   1.900  0.0000  0.0000  0.0000
    1GR    C385  385   2.552   2.947   1.900  0.0000  0.0000  0.0000
    1GR    C386  386   2.694   2.947   1.900  0.0000  0.0000  0.0000
    1GR    C387  387   2.765   3.070   1.900  0.0000  0.0000  0.0000
    1GR    C388  388   2.907   3.070   1.900  0.0000  0.0000  0.0000
    1GR    C389  389   2.552   3.193   1.900  0.0000  0.0000  0.0000
    1GR    C390  390   2.694   3.193   1.900  0.0000  0.0000  0.0000
    1GR    C391  391   2.765   3.316   1.900  0.0000  0.0000  0.0000
    1GR    C392  392   2.907   3.316   1.900  0.0000  0.0000  0.0000
    1GR    C393  393   2.978   0.000   1.900  0.0000  0.0000  0.0000
    1GR    C394  394   3.120   0.000   1.900  0.0000  0.0000  0.0000
    1GR    C395  395   3.191   0.123   1.900  0.0000  0.0000  0.0000
    1GR    C396  396   3.332   0.123   1.900  0.0000  0.0000  0.0000
    1GR    C397  397   2.978   0.246   1.900  0.0000  0.0000  0.0000
    1GR    C398  398   3.120   0.246   1.900  0.0000  0.0000  0.0000
    1GR    C399  399   3.191   0.368   1.900  0.0000  0.0000  0.0000
    1GR    C400  400   3.332   0.368   1.900  0.0000  0.0000  0.0000
    1GR    C401  401   2.978   0.491   1.900  0.0000  0.0000  0.0000
    1GR    C402  402   3.120   0.491   1.900  0.0000  0.0000  0.0000
    1GR    C403  403   3.191   0.614   1.900  0.0000  0.0000  0.0000
    1GR    C404  404   3.332   0.614   1.900  0.0000  0.0000  0.0000
    1GR    C405  405   2.978   0.737   1.900  0.0000  0.0000  0.0000
    1GR    C406  406   3.120   0.737   1.900  0.0000  0.0000  0.0000
    1GR    C407  407   3.191   0.860   1.900  0.0000  0.0000  0.0000
    1GR    C408  408   3.332   0.860   1.900  0.0000  0.0000  0.0000
    1GR    C409  409   2.978   0.982   1.900  0.0000  0.0000  0.0000
    1GR    C410  410   3.120   0.982   1.900  0.0000  0.0000  0.0000
    1GR    C411  411   3.191   1.105   1.900  0.0000  0.0000  0.0000
    1GR    C412  412   3.332   1.105   1.900  0.0000  0.0000  0.0000
    1GR    C413  413   2.978   1.228   1.900  0.0000  0.0000  0.0000
    1GR    C414  414   3.120   1.228   1.900  0.0000  0.0000  0.0000
    1GR    C415  415   3.191   1.351   1.900  0.0000  0.0000  0.0000
    1GR    C416  416   3.332   1.351   1.900  0.0000  0.0000  0.0000
    1GR    C417  417   2.978   1.474   1.900  0.0000  0.0000  0.0000
    1GR    C418  418   3.120   1.474   1.900  0.0000  0.0000  0.0000
    1GR    C419  419   3.191   1.596   1.900  0.0000  0.0000  0.0000
    1GR    C420  420   3.332   1.596   1.900  0.0000  0.0000  0.0000
    1GR    C421  421   2.978   1.719   1.900  0.0000  0.0000  0.0000
    1GR    C422  422   3.120   1.719   1.900  0.0000  0.0000  0.0000
    1GR    C423  423   3.191   1.842   1.900  0.0000  0.0000  0.0000
    1GR    C424  424   3.332   1.842   1.900  0.0000  0.0000  0.0000
    1GR    C425  425   2.978   1.965   1.900  0.0000  0.0000  0.0000
    1GR    C426  426   3.120   1.965   1.900  0.0000  0.0000  0.0000
    1GR    C427  427   3.191   2.088   1.900  0.0000  0.0000  0.0000
    1GR    C428  428   3.332   2.088   1.900  0.0000  0.0000  0.0000
    1GR    C429  429   2.978   2.210   1.900  0.0000  0.0000  0.0000
    1GR    C430  430   3.120   2.210   1.900  0.0000  0.0000  0.0000
    1GR    C431  431   3.191   2.333   1.900  0.0000  0.0000  0.0000
    1GR    C432  432   3.332   2.333   1.900  0.0000  0.0000  0.0000
    1GR    C433  433   2.978   2.456   1.900  0.0000  0.0000  0.0000
    1GR    C434  434   3.120   2.456   1.900  0.0000  0.0000  0.0000
    1GR    C435  435   3.191   2.579   1.900  0.0000  0.0000  0.0000
    1GR    C436  436   3.332   2.579   1.900  0.0000  0.0000  0.0000
    1GR    C437  437   2.978   2.702   1.900  0.0000  0.0000  0.0000
    1GR    C438  438   3.120   2.702   1.900  0.0000  0.0000  0.0000
    1GR    C439  439   3.191   2.824   1.900  0.0000  0.0000  0.0000
    1GR    C440  440   3.332   2.824   1.900  0.0000  0.0000  0.0000
    1GR    C441  441   2.978   2.947   1.900  0.0000  0.0000  0.0000
    1GR    C442  442   3.120   2.947   1.900  0.0000  0.0000  0.0000
    1GR    C443  443   3.191   3.070   1.900  0.0000  0.0000  0.0000
    1GR    C444  444   3.332   3.070   1.900  0.0000  0.0000  0.0000
    1GR    C445  445   2.978   3.193   1.900  0.0000  0.0000  0.0000
    1GR    C446  446   3.120   3.193   1.900  0.0000  0.0000  0.0000
    1GR    C447  447   3.191   3.316   1.900  0.0000  0.0000  0.0000
    1GR    C448  448   3.332   3.316   1.900  0.0000  0.0000  0.0000
    2PMMA   CX1  449   2.932   1.619   2.751  0.0494 -0.2640 -0.3818
    2PMMA   CA2  450   3.065   1.699   2.730  0.5435 -0.5804 -0.1402
    2PMMA   CX3  451   3.032   1.759   2.589 -0.2370  0.0578 -0.3004
    2PMMA    C4  452   3.058   1.806   2.837  0.2582  0.0668  0.5179
    2PMMA    O5  453   3.033   1.784   2.955 -0.5851 -0.9070  0.3599
    2PMMA   OS6  454   3.088   1.938   2.799 -0.1960 -0.0210  0.6524
    2PMMA   CE7  455   3.085   2.045   2.891  0.2397 -0.3729 -0.0884
    2PMMA   CX8  456   3.178   1.599   2.724  0.5528  0.2565 -0.1395
    2PMMA   CA9  457   3.332   1.632   2.713  0.1415  0.7903 -0.0747
    2PMMA  CX10  458   3.355   1.702   2.583 -0.9942 -0.8632  0.1744
    2PMMA   C11  459   3.385   1.485   2.701 -0.0315  0.2226 -0.0984
    2PMMA   O12  460   3.398   1.428   2.594  0.4120 -0.4812  0.1000
    2PMMA  OS13  461   3.419   1.429   2.826 -0.1462 -0.1927  0.2688
    2PMMA  CE14  462   3.479   1.304   2.826  0.7345 -0.2919  0.0463
    2PMMA  CX15  463   3.387   1.707   2.838 -0.1231  0.1371  0.8063
    2PMMA  CA16  464   3.532   1.766   2.840 -0.4611  0.4633  0.4136
    2PMMA  CX17  465   3.548   1.810   2.986  0.5722 -0.3709  0.0610
    2PMMA   C18  466   3.638   1.651   2.823  0.2269 -0.1808 -0.2457
    2PMMA   O19  467   3.712   1.611   2.911  0.1898 -0.1872 -0.4509
    2PMMA  OS20  468   3.658   1.618   2.691  0.0337  0.2352  0.2553
    2PMMA  CE21  469   3.754   1.522   2.648  0.5195  0.2559  0.1242
    2PMMA  CX22  470   3.565   1.891   2.743  0.1550 -0.4150  0.3773
    2PMMA  CA23  471   3.690   1.981   2.765  0.5722 -0.0872  0.5909
    2PMMA  CX24  472   3.826   1.909   2.780 -0.2537 -0.3616 -0.2508
    2PMMA   C25  473   3.658   2.079   2.873  0.2708  0.8373 -0.1381
    2PMMA   O26  474   3.549   2.120   2.910 -0.5497  0.2498  0.6702
    2PMMA  OS27  475   3.771   2.123   2.936 -0.3823 -0.4202  0.3173
    2PMMA  CE28  476   3.772   2.223   3.035  0.4831  0.1357 -0.4736
    2PMMA  CX29  477   3.714   2.083   2.653  0.1376  0.0792 -0.3504
    2PMMA  HC30  478   2.842   1.676   2.726 -0.1159 -1.1708 -1.9206
    2PMMA  HC31  479   2.929   1.538   2.677  0.9784  0.5696 -1.3367
    2PMMA  HC32  480   2.915   1.585   2.854  0.1018 -0.8612 -0.5646
    2PMMA  HC33  481   3.102   1.839   2.566  0.8110 -0.5207  0.8046
    2PMMA  HC34  482   2.937   1.814   2.595  0.2102  0.8253 -0.3248
    2PMMA  HC35  483   3.028   1.683   2.511 -0.3000 -0.8245  0.5504
    2PMMA  H136  484   3.149   2.129   2.863  0.2175 -0.0657  0.7903
    2PMMA  H137  485   3.131   2.016   2.986  0.1694 -1.9184 -0.5133
    2PMMA  H138  486   2.983   2.076   2.913  0.5532  1.2413 -0.8445
    2PMMA  HC39  487   3.161   1.539   2.815 -3.6026  0.9923 -0.3099
    2PMMA  HC40  488   3.160   1.526   2.645  0.8040  0.0922 -0.0448
    2PMMA  HC41  489   3.280   1.680   2.506 -2.9825  0.3854  1.7068
    2PMMA  HC42  490   3.351   1.811   2.593  1.5199 -0.7912  0.6254
    2PMMA  HC43  491   3.449   1.677   2.532 -0.9772 -1.9260  0.7121
    2PMMA  H144  492   3.574   1.312   2.773  0.5373  0.1049 -0.2448
    2PMMA  H145  493   3.415   1.226   2.784  1.2797 -0.9326  0.3847
    2PMMA  H146  494   3.494   1.263   2.926 -2.3795 -0.3198  0.5609
    2PMMA  HC47  495   3.329   1.799   2.850 -0.2850  0.1214  0.1974
    2PMMA  HC48  496   3.356   1.662   2.932  0.6614  1.6092  1.7919
    2PMMA  HC49  497   3.465   1.877   3.015  0.2914 -0.7829  0.2139
    2PMMA  HC50  498   3.647   1.853   2.998  0.7595 -0.4361 -1.1756
    2PMMA  HC51  499   3.535   1.722   3.049 -3.6891  1.0059  1.2922
    2PMMA  H152  500   3.836   1.526   2.721  1.4970  3.3041 -1.0672
    2PMMA  H153  501   3.780   1.537   2.543 -0.8378  0.4177 -0.1886
    2PMMA  H154  502   3.689   1.434   2.650  0.1852  0.4863 -0.5773
    2PMMA  HC55  503   3.572   1.860   2.638  0.4094  0.5155  0.1156
    2PMMA  HC56  504   3.475   1.954   2.741  1.4513  1.4523 -0.6873
    2PMMA  HC57  505   3.841   1.823   2.715  0.9076  0.5909 -1.2799
    2PMMA  HC58  506   3.914   1.973   2.765 -0.5560  0.0868 -0.1266
    2PMMA  HC59  507   3.837   1.872   2.883 -0.2158  2.3207  0.7516
    2PMMA  H160  508   3.730   2.319   3.004  2.5652  0.8252 -1.2819
    2PMMA  H161  509   3.873   2.241   3.073  1.0081  1.8293 -2.5932
    2PMMA  H162  510   3.721   2.180   3.121  2.7429 -0.8698  0.4084
    2PMMA  HC63  511   3.799   2.150   2.663  0.0734  0.0328  0.5651
    2PMMA  HC64  512   3.745   2.037   2.559 -0.7961 -0.2319 -0.5179
    2PMMA  HC65  513   3.624   2.140   2.629 -0.0834 -0.0190  0.2225
    3HFI     O1  514   2.418   1.798   3.662 -0.0719  0.1754 -0.2896
    3HFI     C1  515   2.469   1.929   3.680 -0.5371  0.7050  0.1377
    3HFI     C2  516   2.357   2.038   3.649  0.1239 -0.3545 -0.2031
    3HFI     F1  517   2.236   2.009   3.707 -0.3546 -0.5394  0.9189
    3HFI     F2  518   2.348   2.054   3.514 -0.0362  0.5630 -0.4086
    3HFI     F3  519   2.390   2.158   3.702  0.2374 -0.1942 -0.0424
    3HFI     C3  520   2.599   1.946   3.594 -0.3272  0.5536 -0.4223
    3HFI     F4  521   2.662   2.065   3.607  0.2670  0.3186 -0.0875
    3HFI     F5  522   2.580   1.930   3.460  0.4006  0.1302 -0.2955
    3HFI     F6  523   2.680   1.849   3.636  0.0343 -0.3475 -0.2632
    3HFI     H1  524   2.491   1.736   3.679  1.1758  1.7932  0.3897
    3HFI     H2  525   2.501   1.943   3.784 -0.4919 -0.6966  0.3350
    4HFI     O1  526   2.224   2.575   1.271 -0.3269 -0.4392 -0.2403
    4HFI     C1  527   2.231   2.463   1.368  0.0310  0.0558  0.1315
    4HFI     C2  528   2.197   2.328   1.289 -0.5924 -1.0564  0.0807
    4HFI     F1  529   2.250   2.333   1.163 -0.9264 -0.7306 -0.0135
    4HFI     F2  530   2.066   2.312   1.281 -0.8775  0.0692 -0.3969
    4HFI     F3  531   2.249   2.221   1.354 -0.1477  0.2074  0.3765
    4HFI     C3  532   2.146   2.486   1.495  0.2368 -0.1623  0.9206
    4HFI     F4  533   2.012   2.523   1.466 -0.3083  0.0503  0.2003
    4HFI     F5  534   2.210   2.585   1.565 -0.2657 -0.1827 -0.2993
    4HFI     F6  535   2.149   2.381   1.579  0.3577  0.2081  0.5336
    4HFI     H1  536   2.285   2.553   1.199  1.2064 -1.8619  1.4428
    4HFI     H2  537   2.330   2.451   1.412 -0.8434 -1.1446  1.8700
    5HFI     O1  538   0.170   1.422   3.771  0.0822 -0.2281  0.1319
    5HFI     C1  539   0.050   1.453   3.849 -0.2786 -0.2628  0.1765
    5HFI     C2  540   0.064   1.375   3.986 -0.2267  0.1265  0.1291
    5HFI     F1  541   0.180   1.423   4.046  0.1306 -0.0870  0.4431
    5HFI     F2  542   0.057   1.244   3.983  0.0638 -0.5419 -0.3358
    5HFI     F3  543  -0.036   1.407   4.070  0.3702 -0.3069 -0.2657
    5HFI     C3  544  -0.079   1.435   3.785 -0.6891  0.4198 -0.1059
    5HFI     F4  545  -0.073   1.487   3.667 -0.0063  0.6892 -0.0879
    5HFI     F5  546  -0.197   1.480   3.843  0.7005 -0.0051 -0.1987
    5HFI     F6  547  -0.091   1.302   3.761 -0.4436  0.3490  0.1935
    5HFI     H1  548   0.156   1.446   3.678  1.0311  0.6248  0.2000
    5HFI     H2  549   0.051   1.561   3.870  3.3962 -0.1291 -0.2484
    6HFI     O1  550   3.182   0.272   1.145 -0.3313 -0.7505  0.1761
    6HFI     C1  551   3.133   0.293   1.011  0.2927 -0.0995 -0.4191
    6HFI     C2  552   3.061   0.434   0.986 -0.2850 -0.2914  0.0290
    6HFI     F1  553   2.956   0.451   1.063 -0.2064 -0.0714  0.0518
    6HFI     F2  554   3.027   0.461   0.860 -0.3559  0.3164 -0.2897
    6HFI     F3  555   3.146   0.527   1.029  0.1016 -0.2894  0.4060
    6HFI     C3  556   3.040   0.184   0.972  0.0163  0.1465 -0.1851
    6HFI     F4  557   2.993   0.200   0.842  0.1205  0.4214 -0.5917
    6HFI     F5  558   2.936   0.178   1.061  0.3445 -0.1927  0.0548
    6HFI     F6  559   3.109   0.068   0.982  0.9132  0.3198 -0.2198
    6HFI     H1  560   3.115   0.234   1.204 -1.5371 -0.3306 -0.9118
    6HFI     H2  561   3.219   0.291   0.942  0.3871 -0.4651 -0.2951
    7HFI     O1  562   2.570   3.305   3.799 -0.4314  0.3679 -0.4592
    7HFI     C1  563   2.609   3.254   3.668  0.6063  0.0788 -0.0552
    7HFI     C2  564   2.589   3.098   3.653  0.7647  0.1542 -0.1573
    7HFI     F1  565   2.642   3.027   3.753  0.5711 -0.1187 -0.3496
    7HFI     F2  566   2.638   3.044   3.538 -0.0020  0.9881 -0.4845
    7HFI     F3  567   2.448   3.070   3.652 -0.2306  0.4469  0.7042
    7HFI     C3  568   2.759   3.295   3.637 -0.3336 -0.6932  0.8704
    7HFI     F4  569   2.781   3.277   3.508  0.4078  0.4756 -0.9605
    7HFI     F5  570   2.850   3.222   3.698  0.0328 -0.9862  0.3235
    7HFI     F6  571   2.778   3.427   3.666  0.2556 -0.0264 -0.5492
    7HFI     H1  572   2.473   3.309   3.806 -0.4103 -0.0319  0.0477
    7HFI     H2  573   2.547   3.298   3.590 -1.6581  2.1535  2.8184
    8HFI     O1  574   1.740   0.327   0.868  0.0178 -0.2051 -0.2521
    8HFI     C1  575   1.845   0.429   0.862 -0.3989  0.4886  0.1559
    8HFI     C2  576   1.983   0.363   0.864 -0.0397 -0.6123 -0.6232
    8HFI     F1  577   2.084   0.450   0.871 -0.0565  0.4037  0.6671
    8HFI     F2  578   1.998   0.289   0.760 -0.0369 -0.1025  0.3677
    8HFI     F3  579   2.006   0.281   0.975  0.3366 -0.5388 -0.5236
    8HFI     C3  580   1.835   0.537   0.975  0.9096  0.4119  0.0086
    8HFI     F4  581   1.854   0.492   1.098  0.3944 -0.6754 -0.5859
    8HFI     F5  582   1.710   0.590   0.976  0.0557 -0.1457  0.3617
    8HFI     F6  583   1.923   0.635   0.955 -0.2543 -0.0856  0.0390
    8HFI     H1  584   1.652   0.365   0.883 -1.0170 -1.7710 -2.1570
    8HFI     H2  585   1.840   0.482   0.766  1.6219  0.8955  0.2559
    9HFI     O1  586   2.701   1.334   3.336  0.0666 -0.2012 -0.1704
    9HFI     C1  587   2.622   1.331   3.212  0.5192 -0.0106  0.9643
    9HFI     C2  588   2.663   1.205   3.130 -0.0317  0.5948 -0.4521
    9HFI     F1  589   2.648   1.094   3.206 -0.3660 -0.0711  1.0577
    9HFI     F2  590   2.798   1.204   3.098  0.3996 -0.0298  0.4842
    9HFI     F3  591   2.594   1.189   3.016 -0.4631 -0.0546 -0.0779
    9HFI     C3  592   2.625   1.468   3.134  0.2129 -0.0337  0.0464
    9HFI     F4  593   2.527   1.478   3.037 -0.2473  0.2847 -0.3068
    9HFI     F5  594   2.747   1.492   3.077 -0.0458 -0.3330  0.3968
    9HFI     F6  595   2.602   1.560   3.226  0.9617 -0.3566  0.3733
    9HFI     H1  596   2.789   1.368   3.311 -0.8779  1.8720 -0.7666
    9HFI     H2  597   2.518   1.306   3.236  0.8179 -0.8718  1.3737
   10HFI     O1  598   2.686   2.581   0.998  0.2282  0.3009 -0.3428
   10HFI     C1  599   2.583   2.556   0.896 -0.6635 -0.4120  0.4777
   10HFI     C2  600   2.552   2.686   0.823  0.5940  0.5167  0.1591
   10HFI     F1  601   2.524   2.781   0.910  0.1743  0.3184  0.0965
   10HFI     F2  602   2.448   2.673   0.733 -0.6880 -0.6404 -0.0958
   10HFI     F3  603   2.662   2.726   0.754 -0.3427  0.0005  0.0228
   10HFI     C3  604   2.449   2.495   0.956 -0.5892 -0.3846 -0.6662
   10HFI     F4  605   2.394   2.575   1.045  0.2809  0.2223 -0.0214
   10HFI     F5  606   2.484   2.378   1.020  1.2755 -0.3579  0.2049
   10HFI     F6  607   2.351   2.468   0.868  0.0834  0.4895 -0.0061
   10HFI     H1  608   2.688   2.503   1.056  0.7857  1.0571  0.6741
   10HFI     H2  609   2.606   2.483   0.818 -4.9493 -1.8913  0.4385
   11HFI     O1  610   0.633   2.624   0.263 -0.2246  0.0037 -0.3797
   11HFI     C1  611   0.514   2.549   0.301 -0.0697  0.2325 -0.8907
   11HFI     C2  612   0.386   2.579   0.219  0.4661 -0.0973  0.2303
   11HFI     F1  613   0.262   2.535   0.275 -0.2685  0.1637  0.3760
   11HFI     F2  614   0.402   2.521   0.096  0.1679  0.2693 -0.2860
   11HFI     F3  615   0.377   2.714   0.201  0.8465  0.3952  0.2949
   11HFI     C3  616   0.491   2.572   0.454 -0.3311 -0.1524 -0.0548
   11HFI     F4  617   0.387   2.499   0.496 -0.0262  0.3443  0.0008
   11HFI     F5  618   0.469   2.701   0.476 -0.3874 -0.3490 -0.0522
   11HFI     F6  619   0.600   2.533   0.523  0.4021  0.3547 -0.1304
   11HFI     H1  620   0.614   2.719   0.273 -1.3199 -0.1719 -0.6301
   11HFI     H2  621   0.547   2.445   0.295  0.3497 -0.2377  5.8923
   12HFI     O1  622   0.983   3.138   3.258 -0.0858 -0.0558 -0.2716
   12HFI     C1  623   0.985   3.001   3.210  0.0711 -0.0791  0.2577
   12HFI     C2  624   0.906   2.902   3.300  0.1953 -0.2043 -0.5125
   12HFI     F1  625   0.918   2.925   3.431  0.8017 -0.0333 -0.5104
   12HFI     F2  626   0.935   2.777   3.269 -0.3764  0.2318 -0.0806
   12HFI     F3  627   0.773   2.915   3.288 -0.0696 -0.1506 -0.0647
   12HFI     C3  628   1.132   2.956   3.199 -0.2350 -0.6311 -0.7528
   12HFI     F4  629   1.202   2.962   3.317  0.6883  0.2042 -0.3765
   12HFI     F5  630   1.188   3.046   3.120  0.0278 -0.9477 -0.0681
   12HFI     F6  631   1.164   2.842   3.133 -0.5214  0.2797  0.1913
   12HFI     H1  632   0.956   3.142   3.351  0.9139  0.2801  0.0040
   12HFI     H2  633   0.948   2.992   3.107 -1.9504 -1.0609  1.0501
   13HFI     O1  634   2.024   1.179   3.012 -0.0254 -0.2835 -0.3911
   13HFI     C1  635   2.099   1.133   3.129  0.1426 -0.3760 -0.0588
   13HFI     C2  636   2.252   1.140   3.108 -0.0386  0.2664  0.1794
   13HFI     F1  637   2.303   1.269   3.083  0.3089 -0.1302  0.2868
   13HFI     F2  638   2.288   1.059   3.005 -0.2727 -0.2008 -0.4748
   13HFI     F3  639   2.316   1.090   3.215 -0.5108  0.6465 -0.6677
   13HFI     C3  640   2.049   0.982   3.162 -0.3547  0.7073  0.0889
   13HFI     F4  641   1.933   0.993   3.230 -0.1952  0.4916 -0.0443
   13HFI     F5  642   2.130   0.908   3.245 -0.0700  0.1735  0.4897
   13HFI     F6  643   2.020   0.905   3.056 -0.2839 -0.2655 -0.0274
   13HFI     H1  644   2.031   1.275   3.019 -1.9518 -0.2345  1.5486
   13HFI     H2  645   2.072   1.195   3.215 -2.1342 -0.1255 -0.9255
   14HFI     O1  646   2.687   0.845   0.110 -0.0405  0.5602  0.6598
   14HFI     C1  647   2.769   0.791   0.217 -0.2820  0.1547  0.2152
   14HFI     C2  648   2.861   0.668   0.180  0.2407  0.0202 -0.4997
   14HFI     F1  649   2.794   0.553   0.154 -0.2197 -0.7248 -0.3463
   14HFI     F2  650   2.957   0.642   0.271 -0.4558  0.0718  0.1738
   14HFI     F3  651   2.930   0.698   0.071  0.0766  0.0874  0.3665
   14HFI     C3  652   2.692   0.762   0.354  0.1200  0.1282 -0.0585
   14HFI     F4  653   2.609   0.865   0.397 -0.6010 -0.4508  0.9171
   14HFI     F5  654   2.784   0.741   0.454 -0.0849 -0.1259  0.3517
   14HFI     F6  655   2.622   0.651   0.345 -0.1011  0.4435  0.0940
   14HFI     H1  656   2.700   0.783   0.036  0.2036  0.3185  0.9053
   14HFI     H2  657   2.845   0.864   0.246 -0.3777  0.6729 -0.8510
   15HFI     O1  658   2.715   0.111   1.452  0.2476 -0.4367  0.3533
   15HFI     C1  659   2.827   0.038   1.517  0.7789 -0.1130 -0.2549
   15HFI     C2  660   2.954   0.125   1.525 -0.6375 -0.0641  0.0524
   15HFI     F1  661   2.928   0.225   1.610  0.1004  0.1433 -0.4528
   15HFI     F2  662   2.987   0.179   1.405 -0.3362  0.0483  0.0624
   15HFI     F3  663   3.063   0.071   1.576  0.1288 -0.0641  0.3627
   15HFI     C3  664   2.854  -0.106   1.467  0.2619  0.3078 -0.2373
   15HFI     F4  665   2.888  -0.110   1.341  0.3127 -0.4530  0.2204
   15HFI     F5  666   2.741  -0.176   1.487 -0.1487 -0.5274 -0.5123
   15HFI     F6  667   2.946  -0.167   1.544  0.2208  0.1245  0.3549
   15HFI     H1  668   2.706   0.200   1.491 -2.5732  0.0771 -1.3383
   15HFI     H2  669   2.798   0.021   1.621  0.4139 -1.5196 -0.5765
   16HFI     O1  670   0.180   2.378   3.654 -0.1622  0.3418  0.3181
   16HFI     C1  671   0.064   2.466   3.626 -0.1381  0.5037  0.9356
   16HFI     C2  672   0.068   2.608   3.700 -0.0558  0.1932 -0.6476
   16HFI     F1  673   0.069   2.599   3.827 -0.8900 -0.6872  0.4939
   16HFI     F2  674  -0.042   2.673   3.665  0.1025 -0.2267  0.2663
   16HFI     F3  675   0.170   2.695   3.661  0.0093  0.4411  0.4079
   16HFI     C3  676  -0.076   2.401   3.645  0.5051  0.4598  0.0596
   16HFI     F4  677  -0.075   2.274   3.588 -0.4745  0.0678  0.1237
   16HFI     F5  678  -0.182   2.469   3.585  0.0902  0.0019  0.4321
   16HFI     F6  679  -0.107   2.387   3.771 -0.4050 -0.2133  0.4808
   16HFI     H1  680   0.160   2.286   3.629 -0.1442  0.6284 -0.7910
   16HFI     H2  681   0.066   2.510   3.525 -1.0309  1.7866  1.4545
   17HFI     O1  682   3.033   2.538   0.652 -0.0145  0.2298 -0.1177
   17HFI     C1  683   3.048   2.406   0.711  0.1867  0.0723  0.5793
   17HFI     C2  684   2.920   2.318   0.680 -0.1267  0.3094 -0.3491
   17HFI     F1  685   2.910   2.289   0.546 -0.3078  0.3841 -0.4751
   17HFI     F2  686   2.801   2.368   0.717  0.1633  0.0582 -0.3822
   17HFI     F3  687   2.934   2.196   0.741  0.4754 -0.9341  0.2100
   17HFI     C3  688   3.083   2.418   0.853 -0.6291  0.3390  0.4290
   17HFI     F4  689   2.974   2.456   0.920 -0.1600  0.2864  0.3860
   17HFI     F5  690   3.177   2.519   0.866  1.0432 -0.2990 -0.2531
   17HFI     F6  691   3.131   2.305   0.908  0.0997  0.3038  0.2511
   17HFI     H1  692   3.008   2.524   0.559  1.1149 -0.4022 -0.3319
   17HFI     H2  693   3.137   2.353   0.673 -0.0811 -0.0668  0.1394
   18HFI     O1  694   1.048   3.405   0.521 -0.5728 -0.1513  0.1019
   18HFI     C1  695   1.109   3.451   0.395 -0.3965  0.3352  0.4830
   18HFI     C2  696   1.005   3.459   0.277  0.4041 -0.4323 -0.6400
   18HFI     F1  697   0.933   3.575   0.291 -0.5228  0.1723 -0.0954
   18HFI     F2  698   0.915   3.354   0.282 -0.6183 -0.0713  0.0259
   18HFI     F3  699   1.064   3.450   0.155 -0.3553 -0.0033 -0.0307
   18HFI     C3  700   1.238   3.371   0.363 -0.1073 -0.0198  0.0719
   18HFI     F4  701   1.212   3.252   0.295  0.0322  0.4104 -0.0706
   18HFI     F5  702   1.311   3.335   0.474 -0.3847 -0.5713  0.9725
   18HFI     F6  703   1.316   3.437   0.272 -0.3919 -0.0170 -0.1112
   18HFI     H1  704   0.972   3.346   0.506  0.0338 -1.0234  0.4184
   18HFI     H2  705   1.137   3.556   0.414  1.8776  0.5010 -3.2727
   19HFI     O1  706   0.326   1.470   0.839  0.1456 -0.0083 -0.1954
   19HFI     C1  707   0.350   1.527   0.706 -0.2718  0.2796  0.0987
   19HFI     C2  708   0.496   1.579   0.695  0.0989 -0.8703  0.9483
   19HFI     F1  709   0.528   1.610   0.566  0.5030 -0.2878 -0.3455
   19HFI     F2  710   0.597   1.497   0.747  0.4661  0.4746  0.2094
   19HFI     F3  711   0.512   1.698   0.756  0.1074 -0.0129 -0.0666
   19HFI     C3  712   0.234   1.616   0.657 -0.2977  0.1291  0.5887
   19HFI     F4  713   0.123   1.590   0.727 -0.1953 -0.2523 -0.0500
   19HFI     F5  714   0.200   1.599   0.526 -0.2103  0.2980 -0.1752
   19HFI     F6  715   0.264   1.749   0.669 -0.0369  0.4267 -0.3723
   19HFI     H1  716   0.237   1.433   0.842  0.2111 -0.2974 -1.5348
   19HFI     H2  717   0.353   1.441   0.638 -0.1803 -0.3956  0.9455
   20HFI     O1  718   1.649   0.863   1.471  0.6385 -0.0583 -0.3352
   20HFI     C1  719   1.745   0.946   1.544 -0.0167 -0.4099 -0.2451
   20HFI     C2  720   1.702   1.091   1.541  0.1981 -0.5606  0.2446
   20HFI     F1  721   1.685   1.133   1.415  0.2705 -0.7010  0.3104
   20HFI     F2  722   1.792   1.167   1.602  0.0266 -0.1822  0.2446
   20HFI     F3  723   1.585   1.110   1.607  0.1095 -0.0827  0.2408
   20HFI     C3  724   1.893   0.919   1.506  0.3593 -0.2569 -0.8437
   20HFI     F4  725   1.922   0.957   1.371 -0.2443  0.0087 -0.8086
   20HFI     F5  726   1.922   0.786   1.513 -0.3470  0.0760 -0.2125
   20HFI     F6  727   1.976   0.983   1.585 -0.0413  0.1426  0.1497
   20HFI     H1  728   1.616   0.921   1.400 -0.9067  1.7068  1.7571
   20HFI     H2  729   1.746   0.925   1.652  0.5884  0.2520 -0.1200
   21HFI     O1  730   2.378   0.498   0.834 -0.2457  0.0038  0.8813
   21HFI     C1  731   2.497   0.578   0.861 -0.0904 -0.8749 -0.1459
   21HFI     C2  732   2.480   0.726   0.813 -0.9868 -0.0921 -0.6952
   21HFI     F1  733   2.463   0.744   0.678 -0.4242 -0.1656  0.4302
   21HFI     F2  734   2.583   0.810   0.853  0.2047 -0.0809  0.2221
   21HFI     F3  735   2.369   0.775   0.866  0.0437  0.5595  0.4236
   21HFI     C3  736   2.623   0.508   0.796 -0.1549  1.2129 -0.0192
   21HFI     F4  737   2.643   0.387   0.847  0.4552  0.3200 -0.1678
   21HFI     F5  738   2.728   0.579   0.835 -0.5184  0.2098 -0.2803
   21HFI     F6  739   2.617   0.500   0.662 -0.5605  0.3205  0.5255
   21HFI     H1  740   2.396   0.409   0.868  0.1428 -1.1566 -2.1882
   21HFI     H2  741   2.509   0.579   0.970 -1.0455 -0.2595 -0.0377
   22HFI     O1  742   2.620   0.679   3.706  0.4950 -0.3911  0.7931
   22HFI     C1  743   2.523   0.599   3.771 -0.5684  0.5629  0.2142
   22HFI     C2  744   2.511   0.459   3.698  0.2314 -0.7068  0.6558
   22HFI     F1  745   2.630   0.404   3.700 -0.4530  0.1114  0.1148
   22HFI     F2  746   2.468   0.470   3.571 -0.1823  0.6332  0.3995
   22HFI     F3  747   2.429   0.373   3.766  0.7708 -0.0450  0.1983
   22HFI     C3  748   2.382   0.672   3.782 -0.3404 -0.3674  0.5065
   22HFI     F4  749   2.324   0.695   3.666 -0.2036  0.1019 -0.0222
   22HFI     F5  750   2.387   0.790   3.844  0.1019 -0.2298 -0.0586
   22HFI     F6  751   2.292   0.595   3.860 -0.6191 -0.1643  0.3837
   22HFI     H1  752   2.617   0.655   3.611 -1.3340  0.0277  0.7279
   22HFI     H2  753   2.550   0.570   3.873 -1.9924 -0.0559  0.4304
   23HFI     O1  754   1.661   1.147   0.802 -0.7435  0.5221  0.4070
   23HFI     C1  755   1.758   1.133   0.916 -0.3595  0.3088 -0.8861
   23HFI     C2  756   1.734   0.994   0.987  0.0025 -0.3786 -0.0727
   23HFI     F1  757   1.747   0.893   0.896 -0.0769 -0.0083 -0.3958
   23HFI     F2  758   1.618   0.978   1.051  0.0624  0.2667 -1.1939
   23HFI     F3  759   1.826   0.975   1.081 -0.1700  0.1923 -0.6618
   23HFI     C3  760   1.769   1.251   1.007 -0.1088 -0.1443  0.4067
   23HFI     F4  761   1.882   1.243   1.084  0.1280  0.1708 -0.2175
   23HFI     F5  762   1.672   1.256   1.097 -0.2189 -0.1152  0.0835
   23HFI     F6  763   1.780   1.374   0.943 -0.6818  0.1473 -0.2311
   23HFI     H1  764   1.705   1.109   0.724  3.1268 -0.6697  3.0172
   23HFI     H2  765   1.859   1.119   0.876  0.7812  1.4853  1.4489
   24HFI     O1  766   0.919   0.701   1.013 -0.0463 -0.2218  0.2557
   24HFI     C1  767   0.815   0.754   0.921 -0.6112  0.4711  0.5584
   24HFI     C2  768   0.678   0.689   0.948 -0.2805 -0.2279  0.6049
   24HFI     F1  769   0.669   0.559   0.949 -0.4111 -0.4091  0.4161
   24HFI     F2  770   0.584   0.740   0.864 -0.2311 -0.2605  0.3752
   24HFI     F3  771   0.630   0.727   1.069 -0.2190  0.1597 -0.1374
   24HFI     C3  772   0.862   0.764   0.776  0.5894 -0.3876 -0.0288
   24HFI     F4  773   0.980   0.839   0.768  0.0929 -0.1937  0.5298
   24HFI     F5  774   0.772   0.822   0.694 -0.2470 -0.0322 -0.1157
   24HFI     F6  775   0.889   0.647   0.723 -0.0407  0.0503  0.2133
   24HFI     H1  776   0.984   0.769   1.034 -0.6305  0.1265  0.9557
   24HFI     H2  777   0.800   0.859   0.948 -2.0480  0.5526 -0.5030
   25HFI     O1  778   3.311   3.294   0.173  0.2315  0.1364 -0.6275
   25HFI     C1  779   3.375   3.286   0.040  0.2428  0.1840  0.5282
   25HFI     C2  780   3.346   3.422  -0.032  0.6890  0.5156 -0.1670
   25HFI     F1  781   3.359   3.409  -0.165 -0.2498  0.5352 -0.0073
   25HFI     F2  782   3.425   3.522   0.004 -0.0315  0.5663 -0.1583
   25HFI     F3  783   3.219   3.458  -0.012  0.0254  0.1275 -0.2887
   25HFI     C3  784   3.320   3.164  -0.037  0.2216  0.0715 -0.3957
   25HFI     F4  785   3.408   3.135  -0.134  1.1758 -0.3471  0.0404
   25HFI     F5  786   3.195   3.176  -0.091  0.1355  0.0956  0.3908
   25HFI     F6  787   3.313   3.059   0.045  0.1250 -0.0643 -0.3813
   25HFI     H1  788   3.216   3.298   0.152  0.2320 -1.2570 -0.9158
   25HFI     H2  789   3.484   3.279   0.046  0.2099 -1.3027 -0.4319
   26HFI     O1  790   1.952   1.972   2.987  0.3598 -0.4473  0.0622
   26HFI     C1  791   1.945   2.036   2.860 -0.2600 -0.6634 -0.7295
   26HFI     C2  792   2.017   1.968   2.744 -0.4344 -0.3813 -0.0512
   26HFI     F1  793   1.975   1.840   2.743  0.0927 -0.2604 -0.1696
   26HFI     F2  794   2.155   1.967   2.764  0.2370  0.1971 -0.0914
   26HFI     F3  795   2.001   2.020   2.626 -0.0683  0.0099  0.6625
   26HFI     C3  796   1.993   2.189   2.876 -0.4908 -0.3657 -0.7178
   26HFI     F4  797   1.906   2.266   2.951 -0.1498 -0.3011 -0.1389
   26HFI     F5  798   2.007   2.246   2.754  0.0856  0.7485  0.1997
   26HFI     F6  799   2.118   2.185   2.935  0.2663 -0.0562 -0.0974
   26HFI     H1  800   2.043   1.949   3.012  1.7071  1.6685 -2.5969
   26HFI     H2  801   1.844   2.038   2.818 -0.1670 -1.7862 -1.0233
   27HFI     O1  802   2.981   1.647   0.053 -0.2197 -0.8505  0.3438
   27HFI     C1  803   2.879   1.627   0.164 -0.2874 -0.7437 -0.5683
   27HFI     C2  804   2.778   1.518   0.123  0.0626 -0.7306  0.1786
   27HFI     F1  805   2.847   1.403   0.093  0.1509  0.5436  0.1925
   27HFI     F2  806   2.705   1.547   0.014  0.2166 -0.0659  0.2562
   27HFI     F3  807   2.683   1.485   0.210  0.1858  0.0491 -0.8479
   27HFI     C3  808   2.806   1.764   0.195  0.0698 -0.4442  0.2017
   27HFI     F4  809   2.722   1.742   0.299 -0.5473  0.3362 -0.3509
   27HFI     F5  810   2.734   1.821   0.089 -0.0040 -0.0443 -0.3111
   27HFI     F6  811   2.900   1.857   0.231  0.0856 -0.1655  0.2702
   27HFI     H1  812   3.009   1.568   0.004  4.1011  0.8604 -0.1216
   27HFI     H2  813   2.932   1.609   0.258 -0.0380 -2.5115 -1.0282
   28HFI     O1  814   2.246   1.671   3.455 -0.3527 -0.1672 -0.1014
   28HFI     C1  815   2.143   1.623   3.368  0.3494 -0.8102  0.8619
   28HFI     C2  816   2.187   1.511   3.284 -0.0247 -0.2939 -0.1936
   28HFI     F1  817   2.253   1.420   3.357 -0.7250 -0.1918 -0.2089
   28HFI     F2  818   2.270   1.554   3.188 -0.3247 -0.0896  0.1291
   28HFI     F3  819   2.098   1.444   3.222  0.1972 -0.2005 -0.0001
   28HFI     C3  820   2.082   1.744   3.291 -0.0921 -0.1221  0.0002
   28HFI     F4  821   2.169   1.825   3.223  0.0695 -0.2008 -0.0243
   28HFI     F5  822   2.027   1.823   3.379 -0.2588  0.2172 -0.2228
   28HFI     F6  823   1.988   1.701   3.206  0.9091  0.8323  0.1254
   28HFI     H1  824   2.221   1.751   3.503  0.8506  2.5490 -3.7668
   28HFI     H2  825   2.058   1.591   3.428  0.2993 -1.1908  0.5861
   29HFI     O1  826   0.036   1.458   1.004  0.0513  0.5221 -0.4752
   29HFI     C1  827  -0.107   1.442   0.987  0.4782  0.5163  0.2782
   29HFI     C2  828  -0.158   1.468   0.841  0.4426 -0.0048 -1.3245
   29HFI     F1  829  -0.128   1.595   0.802 -0.0955  0.1399  0.2239
   29HFI     F2  830  -0.294   1.447   0.825 -0.4602  0.4516 -0.3635
   29HFI     F3  831  -0.101   1.376   0.754 -0.2815 -0.2281 -0.3385
   29HFI     C3  832  -0.185   1.532   1.085 -0.2593 -0.5138 -0.1439
   29HFI     F4  833  -0.148   1.523   1.214  0.3404  0.2659 -0.2223
   29HFI     F5  834  -0.316   1.514   1.089  0.2738  0.1122  0.2301
   29HFI     F6  835  -0.166   1.661   1.052 -0.1906 -0.2014  0.8268
   29HFI     H1  836   0.065   1.419   1.088 -1.2431  0.0463 -0.2326
   29HFI     H2  837  -0.130   1.335   0.998 -0.0163  0.3843 -1.7994
   30HFI     O1  838   0.083   2.038   3.755  0.5302  0.5067  0.4766
   30HFI     C1  839   0.124   1.955   3.641  0.5104 -1.3878  0.0276
   30HFI     C2  840   0.107   1.804   3.670  0.1508  0.9037 -0.3134
   30HFI     F1  841  -0.007   1.771   3.742  0.1440 -0.0900 -0.0439
   30HFI     F2  842   0.214   1.754   3.733  0.0586  0.2756  0.1000
   30HFI     F3  843   0.094   1.736   3.555  0.4821 -0.8263 -0.0479
   30HFI     C3  844   0.269   1.996   3.590  0.4331 -0.3925 -0.0128
   30HFI     F4  845   0.310   1.907   3.497 -0.3115 -0.0416  0.5739
   30HFI     F5  846   0.363   2.008   3.692 -0.1740 -0.3236  0.0942
   30HFI     F6  847   0.272   2.114   3.533  0.0458  0.2222 -0.4036
   30HFI     H1  848   0.110   1.997   3.839  2.3730  0.6990  0.0026
   30HFI     H2  849   0.058   1.994   3.563  1.4229  0.4670  0.1341
   31HFI     O1  850   1.971   2.017   0.761  0.4869  0.1672  0.1330
   31HFI     C1  851   2.114   2.048   0.769 -0.0068 -0.6860  0.5887
   31HFI     C2  852   2.186   1.969   0.876  0.2471 -0.1787  0.6782
   31HFI     F1  853   2.134   1.996   1.000  0.8953 -0.1700  0.0705
   31HFI     F2  854   2.318   2.007   0.880  0.2644 -0.6673  0.3959
   31HFI     F3  855   2.185   1.837   0.856  0.0817 -0.0812  0.2295
   31HFI     C3  856   2.139   2.198   0.795  0.2353 -0.3360 -0.1711
   31HFI     F4  857   2.253   2.235   0.734 -0.4186  0.1010 -0.2676
   31HFI     F5  858   2.147   2.248   0.921 -0.1235  0.0632  0.9321
   31HFI     F6  859   2.042   2.269   0.721  0.3351 -0.4637 -0.4801
   31HFI     H1  860   1.923   2.079   0.704 -1.2208 -1.4885 -0.2861
   31HFI     H2  861   2.165   2.024   0.675  0.3606  0.2213  0.5474
   32HFI     O1  862   2.633   0.666   1.223  0.1927  0.2648 -0.5067
   32HFI     C1  863   2.732   0.613   1.321 -0.7068 -0.2892  0.3880
   32HFI     C2  864   2.692   0.477   1.389 -0.2313 -0.3199  0.6774
   32HFI     F1  865   2.648   0.402   1.289  0.4371 -0.4843  0.1665
   32HFI     F2  866   2.596   0.495   1.476  0.1383 -0.0770 -0.2031
   32HFI     F3  867   2.791   0.412   1.465  0.2082  0.1719 -0.4823
   32HFI     C3  868   2.774   0.724   1.426  0.3991 -0.6789  0.2976
   32HFI     F4  869   2.668   0.764   1.500 -0.1863  0.1717 -0.1648
   32HFI     F5  870   2.829   0.830   1.359  0.5002  0.2022  0.3328
   32HFI     F6  871   2.865   0.680   1.521 -0.5393 -0.0706  0.1067
   32HFI     H1  872   2.551   0.694   1.268  0.6042 -0.2604  0.5688
   32HFI     H2  873   2.828   0.599   1.270 -0.4913  0.8434  0.4667
   33HFI     O1  874   0.327   1.893   1.566  0.2771  0.4179 -0.1402
   33HFI     C1  875   0.389   1.976   1.464 -0.8445 -0.0533  0.6904
   33HFI     C2  876   0.322   2.116   1.456  0.7075 -0.0656  0.3189
   33HFI     F1  877   0.389   2.209   1.381  0.0706  0.2116  0.2087
   33HFI     F2  878   0.317   2.162   1.581 -0.3706  0.9435 -0.1582
   33HFI     F3  879   0.198   2.112   1.409 -0.3633  0.0554 -0.4061
   33HFI     C3  880   0.405   1.898   1.331 -0.2718  0.1093 -0.2952
   33HFI     F4  881   0.287   1.876   1.271  0.1471  0.1078 -0.0281
   33HFI     F5  882   0.471   1.779   1.339 -0.4191  0.0097  0.2047
   33HFI     F6  883   0.476   1.973   1.243 -0.5624 -0.5793  0.3032
   33HFI     H1  884   0.344   1.797   1.557  0.9526  0.4606  0.6058
   33HFI     H2  885   0.490   2.003   1.496 -1.1775  1.2731  0.6441
   34HFI     O1  886   2.640   2.980   1.547  0.0858  0.1948  0.0764
   34HFI     C1  887   2.697   2.845   1.548 -0.0346  0.2199  0.7836
   34HFI     C2  888   2.855   2.850   1.511  0.3167 -0.0855  0.2955
   34HFI     F1  889   2.922   2.929   1.598 -0.3500  0.1435  0.0391
   34HFI     F2  890   2.876   2.908   1.393 -0.1189 -0.5875  0.5529
   34HFI     F3  891   2.924   2.735   1.509 -0.1633 -0.1685 -0.2090
   34HFI     C3  892   2.621   2.739   1.457  0.1340  0.8215  0.4093
   34HFI     F4  893   2.679   2.614   1.461  0.1177 -0.4765  0.1770
   34HFI     F5  894   2.627   2.782   1.329 -0.8760 -0.1105  0.1093
   34HFI     F6  895   2.494   2.736   1.495  0.4924 -0.2459  0.2880
   34HFI     H1  896   2.637   3.013   1.456 -3.2914 -1.1937 -0.4051
   34HFI     H2  897   2.693   2.795   1.645  1.5866 -1.0576  0.2112
   35HFI     O1  898   0.115   1.162   3.514 -0.2501  0.0932  0.2929
   35HFI     C1  899   0.161   1.077   3.628 -0.1006  0.7672 -1.1633
   35HFI     C2  900   0.308   1.033   3.614 -0.1648 -0.0633 -0.1998
   35HFI     F1  901   0.369   1.003   3.728  0.3468 -0.3922  0.0938
   35HFI     F2  902   0.377   1.135   3.567  0.3228 -0.5751  0.1246
   35HFI     F3  903   0.330   0.931   3.528 -0.2521 -0.0564 -0.4951
   35HFI     C3  904   0.054   0.962   3.646 -0.4196  0.6848  0.0920
   35HFI     F4  905   0.081   0.888   3.761 -0.1247 -0.4025  0.0594
   35HFI     F5  906   0.047   0.884   3.535  0.2899  0.1502  0.1707
   35HFI     F6  907  -0.069   1.023   3.673  0.2571  0.2172 -0.2829
   35HFI     H1  908   0.020   1.149   3.498 -0.6252 -0.2333  2.6375
   35HFI     H2  909   0.157   1.140   3.718 -0.9510 -0.8430 -0.0325
   36HFI     O1  910   1.414   3.208   0.731 -0.4215  0.2449 -0.0167
   36HFI     C1  911   1.485   3.262   0.838  0.5413  0.8781 -0.1706
   36HFI     C2  912   1.479   3.174   0.959  0.2308  0.4703 -0.1182
   36HFI     F1  913   1.500   3.038   0.925 -0.1501 -0.2780  0.1649
   36HFI     F2  914   1.357   3.174   1.028  0.0307 -0.0708 -0.0995
   36HFI     F3  915   1.574   3.209   1.048  0.4875 -0.1747  0.1888
   36HFI     C3  916   1.459   3.411   0.855 -0.4526  0.6867 -0.2340
   36HFI     F4  917   1.332   3.431   0.881 -0.6883  0.5051 -0.3982
   36HFI     F5  918   1.483   3.475   0.740 -0.5170 -0.2960  0.0016
   36HFI     F6  919   1.533   3.464   0.953  0.6028  0.0351  0.0846
   36HFI     H1  920   1.363   3.271   0.676 -1.7468 -1.5359 -0.8723
   36HFI     H2  921   1.593   3.263   0.821  0.3977  3.5107 -1.1773
   37HFI     O1  922   3.003   2.169   1.294 -0.1934  0.3444  0.5903
   37HFI     C1  923   2.863   2.180   1.316 -0.3256  0.1171 -0.2917
   37HFI     C2  924   2.798   2.258   1.205  1.1018 -0.7509 -0.3294
   37HFI     F1  925   2.847   2.214   1.085 -0.0469 -0.1227  0.3251
   37HFI     F2  926   2.825   2.389   1.209 -0.2007 -0.1331 -0.4356
   37HFI     F3  927   2.669   2.246   1.196 -0.0673 -0.1872 -0.3814
   37HFI     C3  928   2.834   2.233   1.450 -0.5794 -0.0809 -0.5027
   37HFI     F4  929   2.863   2.148   1.548  0.1363  0.1538 -0.3757
   37HFI     F5  930   2.706   2.274   1.462  0.2969 -1.0406 -0.3015
   37HFI     F6  931   2.911   2.343   1.475 -0.2546 -0.3743 -0.3859
   37HFI     H1  932   3.043   2.222   1.366  1.0693  0.1258  0.0559
   37HFI     H2  933   2.825   2.077   1.311 -1.6172  0.5826 -0.3392
   38HFI     O1  934   1.939   2.137   1.482  0.6243  0.5371 -0.0711
   38HFI     C1  935   1.808   2.140   1.542 -0.9863 -0.1160 -0.2021
   38HFI     C2  936   1.735   2.009   1.503  0.0621  0.2502 -0.5797
   38HFI     F1  937   1.814   1.898   1.510 -0.3176 -0.7814 -0.5169
   38HFI     F2  938   1.703   2.013   1.369 -0.0900 -0.0190  0.2443
   38HFI     F3  939   1.629   1.984   1.586  0.2208 -0.5719 -0.2859
   38HFI     C3  940   1.725   2.270   1.524  0.1055 -0.1410 -0.6567
   38HFI     F4  941   1.722   2.301   1.385  0.0119 -0.3608  0.0202
   38HFI     F5  942   1.781   2.371   1.590  0.3085 -0.2310  0.8301
   38HFI     F6  943   1.595   2.254   1.566  0.0052 -0.0871 -0.2170
   38HFI     H1  944   1.941   2.186   1.398  0.3804  0.3686 -0.1739
   38HFI     H2  945   1.823   2.130   1.650  1.4120 -0.2672 -0.5319
   39HFI     O1  946   1.210   0.742   3.544  0.0103  0.5321 -0.5826
   39HFI     C1  947   1.224   0.857   3.628 -0.5006  0.9694 -0.6936
   39HFI     C2  948   1.371   0.874   3.687  0.0091  0.5855 -0.2117
   39HFI     F1  949   1.380   1.001   3.728  0.0419 -0.1719 -0.0235
   39HFI     F2  950   1.461   0.839   3.594 -0.3671 -0.4135 -0.3854
   39HFI     F3  951   1.385   0.793   3.799  0.2980  0.3341  0.3910
   39HFI     C3  952   1.118   0.864   3.738 -0.1122 -0.1571  0.4230
   39HFI     F4  953   1.119   0.751   3.811  0.1232 -0.2618 -0.8452
   39HFI     F5  954   0.989   0.870   3.680 -0.0787  0.2345  0.0887
   39HFI     F6  955   1.133   0.965   3.823 -0.4578 -0.7723  0.2747
   39HFI     H1  956   1.114   0.725   3.536  0.0425 -0.4932  0.9765
   39HFI     H2  957   1.214   0.939   3.556 -1.5310  1.7237  0.2855
   40HFI     O1  958   2.577   0.995   3.667  0.5129 -1.3355 -0.0086
   40HFI     C1  959   2.517   1.131   3.681 -0.4655  0.2683  0.7999
   40HFI     C2  960   2.488   1.157   3.831  0.4226  0.5341 -0.4808
   40HFI     F1  961   2.384   1.082   3.884  0.0944 -0.0769  0.4500
   40HFI     F2  962   2.472   1.294   3.850  0.6464 -0.1501  0.5033
   40HFI     F3  963   2.595   1.119   3.903 -0.6371 -0.0420 -0.3878
   40HFI     C3  964   2.392   1.166   3.589  0.7038  0.4614  0.4940
   40HFI     F4  965   2.404   1.297   3.561  0.0112  0.0732 -0.7650
   40HFI     F5  966   2.273   1.146   3.640 -0.0329 -0.0284  0.0452
   40HFI     F6  967   2.390   1.095   3.474 -0.2210  0.3544 -0.7124
   40HFI     H1  968   2.601   0.961   3.756 -1.0231 -2.2197  0.0942
   40HFI     H2  969   2.598   1.200   3.655 -1.3095  1.3819  1.1070
   41HFI     O1  970   1.811   3.328   0.792 -0.4547 -0.4420  0.1407
   41HFI     C1  971   1.934   3.246   0.771  0.1461 -0.2203  0.2830
   41HFI     C2  972   1.993   3.191   0.903  0.3280 -0.2728  0.1303
   41HFI     F1  973   2.034   3.293   0.984  0.2074 -0.2042  0.2237
   41HFI     F2  974   2.100   3.111   0.887  0.5094 -0.2873 -0.2974
   41HFI     F3  975   1.904   3.120   0.966  0.3816  0.1568  0.5461
   41HFI     C3  976   2.029   3.332   0.675  0.6926 -0.9920  0.1086
   41HFI     F4  977   2.053   3.451   0.728 -0.3928 -0.2686 -0.0555
   41HFI     F5  978   1.969   3.346   0.553  0.5040 -0.2075 -0.2723
   41HFI     F6  979   2.145   3.268   0.646 -0.6050  0.0837 -0.1662
   41HFI     H1  980   1.836   3.421   0.776 -2.4929 -0.0809 -1.1386
   41HFI     H2  981   1.905   3.160   0.710 -0.2194 -0.1669  0.3826
   42HFI     O1  982   1.111   0.846   2.990 -0.2189 -0.3573  0.3231
   42HFI     C1  983   1.069   0.960   3.067 -0.2333  0.0296 -0.1544
   42HFI     C2  984   0.917   0.988   3.040 -0.0609  0.6212 -0.0453
   42HFI     F1  985   0.886   1.029   2.916  0.4788 -0.5965 -0.2661
   42HFI     F2  986   0.870   1.083   3.124  0.0041 -0.4864 -0.1357
   42HFI     F3  987   0.836   0.878   3.060 -0.0881 -0.5985  0.3431
   42HFI     C3  988   1.164   1.086   3.058 -0.6451 -0.4754 -0.5858
   42HFI     F4  989   1.182   1.130   2.927 -0.2645 -0.1904 -0.4807
   42HFI     F5  990   1.290   1.053   3.104  0.1384 -0.1375 -0.5355
   42HFI     F6  991   1.121   1.196   3.124  0.2694 -0.1652 -0.1906
   42HFI     H1  992   1.095   0.871   2.897 -0.3120 -0.4600  0.3110
   42HFI     H2  993   1.064   0.937   3.174 -0.4561 -1.1417 -0.4077
   43HFI     O1  994   0.840   1.576   0.449  0.3697  0.3902 -0.6385
   43HFI     C1  995   0.917   1.697   0.481 -1.3951 -0.0889  0.3515
   43HFI     C2  996   0.819   1.804   0.543 -0.4489  0.0457  0.3746
   43HFI     F1  997   0.774   1.752   0.655 -0.3853 -0.7119  0.4332
   43HFI     F2  998   0.712   1.836   0.462 -0.1272 -0.2218 -0.3136
   43HFI     F3  999   0.890   1.914   0.562  0.2830 -0.3099  0.0224
   43HFI     C3 1000   0.997   1.740   0.348 -0.0758 -0.3370  0.1923
   43HFI     F4 1001   1.080   1.848   0.361 -0.0536  0.1963 -0.0019
   43HFI     F5 1002   0.908   1.773   0.257 -0.3353 -0.0048  0.1658
   43HFI     F6 1003   1.065   1.639   0.296 -0.3503 -0.8127  0.2043
   43HFI     H1 1004   0.826   1.530   0.534  0.5322  1.4422 -0.0320
   43HFI     H2 1005   0.987   1.687   0.564 -1.0552 -1.2041 -0.0601
   44HFI     O1 1006   1.607   3.266   3.120 -0.1505 -0.3774 -0.0402
   44HFI     C1 1007   1.671   3.174   3.220 -0.8754 -0.9612 -0.3132
   44HFI     C2 1008   1.555   3.083   3.286  0.3358  0.0608  0.6016
   44HFI     F1 1009   1.461   3.161   3.348 -0.1668  0.0724 -0.8663
   44HFI     F2 1010   1.594   2.978   3.367 -0.1109  0.2521 -0.1485
   44HFI     F3 1011   1.492   3.016   3.180 -0.1081 -0.1897  0.6893
   44HFI     C3 1012   1.743   3.249   3.330 -0.3729  0.3231  0.4522
   44HFI     F4 1013   1.670   3.342   3.387  0.0389  0.5241 -0.3401
   44HFI     F5 1014   1.857   3.316   3.288 -0.0223  0.3943  0.6999
   44HFI     F6 1015   1.789   3.171   3.432 -0.2460 -0.0093  0.0847
   44HFI     H1 1016   1.541   3.323   3.163 -0.4038 -1.9378  1.7039
   44HFI     H2 1017   1.736   3.097   3.178 -0.8066 -0.0723 -1.8484
   45HFI     O1 1018   1.091   0.508   1.290 -0.4379  0.3595  0.0477
   45HFI     C1 1019   1.002   0.565   1.396 -0.6538 -0.1446 -0.0217
   45HFI     C2 1020   1.072   0.606   1.521 -0.1252  0.3517 -0.1487
   45HFI     F1 1021   1.120   0.499   1.587 -0.4399 -0.0098 -0.6185
   45HFI     F2 1022   0.987   0.671   1.604  0.4863  0.4480 -0.3977
   45HFI     F3 1023   1.175   0.686   1.497  0.1936 -0.6269  0.0721
   45HFI     C3 1024   0.875   0.477   1.419  0.1876  0.1274 -0.5510
   45HFI     F4 1025   0.768   0.545   1.469  0.1496 -0.1777 -0.3675
   45HFI     F5 1026   0.902   0.381   1.518  0.1048  0.0296  0.1159
   45HFI     F6 1027   0.836   0.409   1.304 -0.2151  0.2477  0.2537
   45HFI     H1 1028   1.126   0.424   1.326  0.1572  1.1058  1.2600
   45HFI     H2 1029   0.968   0.665   1.367 -2.7557 -0.3437  1.5927
   46HFI     O1 1030   0.902   2.511   0.550  0.3575 -0.2032  0.9026
   46HFI     C1 1031   0.936   2.415   0.446  0.4583  0.1272  0.5755
   46HFI     C2 1032   0.903   2.266   0.478  1.2608 -0.7590 -0.4816
   46HFI     F1 1033   0.991   2.219   0.565 -0.2073  0.4394 -0.0757
   46HFI     F2 1034   0.914   2.195   0.356  0.6211  0.1876 -0.3593
   46HFI     F3 1035   0.776   2.255   0.512 -0.2134  0.2951 -0.1711
   46HFI     C3 1036   1.081   2.434   0.406 -0.1133 -0.2423 -0.3503
   46HFI     F4 1037   1.102   2.558   0.374  0.5770 -0.8186  0.0154
   46HFI     F5 1038   1.124   2.357   0.301 -0.2095  0.5752 -0.0053
   46HFI     F6 1039   1.174   2.411   0.509  0.1140 -0.0950 -0.3173
   46HFI     H1 1040   0.972   2.578   0.557  0.2185  0.1088 -0.5830
   46HFI     H2 1041   0.878   2.427   0.354 -0.1195 -1.1882  0.7489
   47HFI     O1 1042   0.894   0.755   0.408 -0.4069  0.1239 -0.1376
   47HFI     C1 1043   0.990   0.680   0.324 -1.2104 -0.5462  0.2321
   47HFI     C2 1044   0.963   0.525   0.315  0.0514  0.2373  0.2838
   47HFI     F1 1045   0.833   0.508   0.281 -0.5627 -0.1093  0.2301
   47HFI     F2 1046   0.981   0.463   0.435 -0.5051  0.5396 -0.0136
   47HFI     F3 1047   1.034   0.460   0.221  0.0498  0.2688  0.3662
   47HFI     C3 1048   1.137   0.709   0.362  0.2650 -0.5695 -0.3739
   47HFI     F4 1049   1.158   0.834   0.339 -0.4172  0.7087 -0.0311
   47HFI     F5 1050   1.221   0.630   0.298  0.6443 -0.0195  0.1900
   47HFI     F6 1051   1.144   0.687   0.495 -0.3977  0.3767 -0.6291
   47HFI     H1 1052   0.923   0.739   0.500  0.4259 -2.8056 -0.8422
   47HFI     H2 1053   0.986   0.719   0.221 -0.4534  0.0784  0.4354
   48HFI     O1 1054   2.248   3.425   1.335 -1.0932  0.0292  0.3514
   48HFI     C1 1055   2.363   3.479   1.410 -1.0969  0.1397  0.3896
   48HFI     C2 1056   2.412   3.388   1.525  0.1535 -0.8020 -0.1693
   48HFI     F1 1057   2.448   3.267   1.481  0.0881  0.2438 -0.1579
   48HFI     F2 1058   2.314   3.368   1.610  0.6770  0.6448 -0.0646
   48HFI     F3 1059   2.515   3.434   1.596 -0.0215  0.6833  0.3721
   48HFI     C3 1060   2.335   3.620   1.468  0.3019  0.0353  0.1729
   48HFI     F4 1061   2.295   3.689   1.360  0.2212  0.5481 -0.3770
   48HFI     F5 1062   2.443   3.683   1.516  0.1092 -0.5879 -0.2962
   48HFI     F6 1063   2.232   3.619   1.563  0.2622 -0.4561  0.0818
   48HFI     H1 1064   2.179   3.426   1.403 -0.0257 -0.8215  1.4592
   48HFI     H2 1065   2.449   3.491   1.344  0.0975  0.0871  1.9129
   49HFI     O1 1066   1.635   2.978   1.570 -0.9191  0.6081 -0.4219
   49HFI     C1 1067   1.694   2.901   1.461 -0.2499 -0.3181  0.0977
   49HFI     C2 1068   1.617   2.940   1.329  0.4667  0.0780  0.4542
   49HFI     F1 1069   1.646   2.856   1.228 -0.1140  0.3122  0.3188
   49HFI     F2 1070   1.648   3.060   1.295 -0.1184  0.6477 -0.0675
   49HFI     F3 1071   1.479   2.937   1.349  0.1296  0.2252  0.1008
   49HFI     C3 1072   1.698   2.743   1.484 -0.0833 -0.0501  0.2009
   49HFI     F4 1073   1.577   2.696   1.480 -0.2066 -0.0389  0.1900
   49HFI     F5 1074   1.756   2.707   1.602  0.1081 -0.2461  0.6311
   49HFI     F6 1075   1.769   2.675   1.387  0.0417 -0.2804 -0.5358
   49HFI     H1 1076   1.538   2.976   1.562 -0.9623  3.9912 -1.6500
   49HFI     H2 1077   1.800   2.929   1.462 -0.6149  1.1013  1.9295
   50HFI     O1 1078   0.794   1.152   1.306 -0.6939 -0.1042  0.7887
   50HFI     C1 1079   0.923   1.102   1.359  0.1852 -0.1123 -0.0656
   50HFI     C2 1080   1.016   1.049   1.244 -0.3289  0.1242 -0.0930
   50HFI     F1 1081   1.116   0.967   1.289  0.0199  0.2654  0.0909
   50HFI     F2 1082   1.088   1.152   1.189 -0.1745  0.5398  0.0131
   50HFI     F3 1083   0.947   0.979   1.151  0.0094  0.0823  0.1249
   50HFI     C3 1084   0.900   1.006   1.481 -0.2557  0.1962 -0.8082
   50HFI     F4 1085   0.790   1.045   1.552 -0.3719 -0.5084 -0.3328
   50HFI     F5 1086   0.999   1.016   1.571 -0.1390  0.1914 -0.1446
   50HFI     F6 1087   0.881   0.875   1.440  0.4339  0.1180 -0.1077
   50HFI     H1 1088   0.735   1.178   1.379 -0.2409  2.5786  0.2612
   50HFI     H2 1089   0.979   1.183   1.407 -0.5445  0.1568  0.3275
   51HFI     O1 1090   3.155   0.974   3.399 -0.1421  0.3809 -0.1640
   51HFI     C1 1091   3.068   0.865   3.438  0.1803  0.2084 -0.0041
   51HFI     C2 1092   3.020   0.784   3.313 -0.8051  0.4275  0.0263
   51HFI     F1 1093   2.940   0.680   3.340 -0.3880  0.2546  0.2870
   51HFI     F2 1094   3.127   0.735   3.250  0.2305 -0.3355  0.2164
   51HFI     F3 1095   2.954   0.861   3.221 -0.3478  0.4552  0.1808
   51HFI     C3 1096   2.945   0.923   3.508  0.5611  0.1274  0.2394
   51HFI     F4 1097   2.976   0.987   3.629 -0.4259  0.3945  0.1648
   51HFI     F5 1098   2.871   0.814   3.541  0.2714 -0.1591  0.0146
   51HFI     F6 1099   2.870   1.009   3.439  0.2810  0.6220  0.2101
   51HFI     H1 1100   3.233   0.935   3.356 -0.0065 -0.3241  0.7081
   51HFI     H2 1101   3.119   0.800   3.509  1.4286  2.8902  1.6205
   52HFI     O1 1102   2.235   1.131   0.535  0.0658  0.1174  0.1305
   52HFI     C1 1103   2.178   1.005   0.485 -0.0009  0.4734 -1.1252
   52HFI     C2 1104   2.224   0.983   0.339  0.2405 -0.3840 -0.3824
   52HFI     F1 1105   2.361   0.952   0.341 -0.5564 -0.6157  0.1514
   52HFI     F2 1106   2.206   1.091   0.262  0.1492 -0.0982 -0.3057
   52HFI     F3 1107   2.169   0.881   0.280  0.4919  0.1127  0.3121
   52HFI     C3 1108   2.025   0.998   0.500  0.0201  0.1192 -0.8939
   52HFI     F4 1109   1.993   1.026   0.626 -0.0223 -0.1861 -0.1063
   52HFI     F5 1110   1.965   0.883   0.461 -0.4025 -0.2050  0.5719
   52HFI     F6 1111   1.976   1.105   0.431 -0.0824 -0.0357  0.0724
   52HFI     H1 1112   2.207   1.196   0.468 -1.6537 -0.7380 -0.0273
   52HFI     H2 1113   2.225   0.924   0.541 -1.9186 -1.3678 -2.0905
   53HFI     O1 1114   1.462   0.362   0.916 -0.6620 -0.3076 -0.2790
   53HFI     C1 1115   1.342   0.439   0.871 -0.6316  0.5323 -0.1724
   53HFI     C2 1116   1.342   0.582   0.936  0.4184 -0.4457 -0.2447
   53HFI     F1 1117   1.241   0.654   0.893  0.0245  0.4933 -0.7711
   53HFI     F2 1118   1.452   0.656   0.906  0.0962  0.5576  0.2017
   53HFI     F3 1119   1.332   0.562   1.074  0.1364  0.0383 -0.2521
   53HFI     C3 1120   1.211   0.359   0.882  0.4976  1.6241  0.1928
   53HFI     F4 1121   1.164   0.345   1.011 -0.1162  0.0549 -0.3409
   53HFI     F5 1122   1.224   0.239   0.836  0.5065  0.1421  0.2755
   53HFI     F6 1123   1.110   0.416   0.814  0.0997 -0.4545 -0.1043
   53HFI     H1 1124   1.428   0.299   0.981  2.4643 -1.9519 -0.1517
   53HFI     H2 1125   1.361   0.453   0.764 -1.2017  1.8029 -0.1149
   54HFI     O1 1126   2.288   0.041   0.165  0.2842  0.0366 -0.0587
   54HFI     C1 1127   2.170   0.023   0.081 -0.1330 -0.7871 -1.1732
   54HFI     C2 1128   2.188  -0.105  -0.013  0.6474  0.2325 -0.2262
   54HFI     F1 1129   2.304  -0.109  -0.076 -0.2510  0.2711  0.6038
   54HFI     F2 1130   2.087  -0.124  -0.103 -0.6770 -0.1148 -0.0879
   54HFI     F3 1131   2.194  -0.213   0.065  0.2266  0.4057  0.1353
   54HFI     C3 1132   2.128   0.152   0.014  0.0125  0.2540  0.0989
   54HFI     F4 1133   2.007   0.145  -0.048  0.1263 -0.4500  0.3810
   54HFI     F5 1134   2.220   0.174  -0.083 -0.0874 -0.4205  0.3266
   54HFI     F6 1135   2.133   0.253   0.104  0.7715 -0.0160 -0.8765
   54HFI     H1 1136   2.295   0.133   0.196  0.3205  0.2721 -0.7598
   54HFI     H2 1137   2.082   0.009   0.145  0.5300 -0.2869 -0.1264
   55HFI     O1 1138   0.943   3.124   0.510 -0.0222  0.1854 -0.2789
   55HFI     C1 1139   0.839   3.054   0.430 -0.2737  0.3996  0.6797
   55HFI     C2 1140   0.737   2.990   0.529  0.0366 -0.8831 -0.2448
   55HFI     F1 1141   0.618   2.964   0.467  0.1703  0.0218 -0.4717
   55HFI     F2 1142   0.712   3.070   0.636  0.3911 -0.1761  0.6524
   55HFI     F3 1143   0.792   2.879   0.588  0.3351  0.6067  0.5671
   55HFI     C3 1144   0.891   2.938   0.337  0.3040  0.0457  0.1865
   55HFI     F4 1145   0.803   2.839   0.303  0.5182  0.5060  0.4836
   55HFI     F5 1146   0.994   2.880   0.398 -0.0706 -0.4362 -0.3406
   55HFI     F6 1147   0.931   2.995   0.224 -0.4732 -0.2184  0.0963
   55HFI     H1 1148   0.943   3.085   0.599  0.7375  1.2007  0.1740
   55HFI     H2 1149   0.791   3.110   0.348 -1.5216  0.1866  1.2415
   56HFI     O1 1150   2.187   0.656   0.544 -0.5542 -0.4805 -0.4577
   56HFI     C1 1151   2.153   0.519   0.507 -0.9118  0.1979  0.3208
   56HFI     C2 1152   2.259   0.434   0.444 -0.0316  0.1664  0.2240
   56HFI     F1 1153   2.372   0.430   0.515  0.1131  0.2620 -0.2664
   56HFI     F2 1154   2.294   0.479   0.324 -0.6933  0.0921 -0.4616
   56HFI     F3 1155   2.223   0.308   0.432 -0.4949  0.0816 -0.1780
   56HFI     C3 1156   2.024   0.522   0.423 -0.8949  0.1783  0.0946
   56HFI     F4 1157   2.033   0.585   0.307  0.2951 -0.4052  0.4319
   56HFI     F5 1158   1.930   0.577   0.501  0.2926  0.2992 -0.2747
   56HFI     F6 1159   1.980   0.399   0.392 -0.2425 -0.3459 -0.2338
   56HFI     H1 1160   2.249   0.653   0.619 -0.3832 -0.0199 -0.5745
   56HFI     H2 1161   2.130   0.463   0.598  0.0706 -2.4045 -0.9901
   57HFI     O1 1162   2.693   0.926   2.967 -0.9240  0.3966 -0.0698
   57HFI     C1 1163   2.608   0.836   2.889 -0.3095 -0.0338  0.0159
   57HFI     C2 1164   2.708   0.733   2.824 -0.2334  0.2496 -1.1076
   57HFI     F1 1165   2.643   0.633   2.767  0.0503 -0.3543  0.2078
   57HFI     F2 1166   2.794   0.687   2.923  0.6936  0.5913 -0.6658
   57HFI     F3 1167   2.783   0.789   2.723  0.3018  0.4199 -0.2061
   57HFI     C3 1168   2.530   0.905   2.772 -0.2765  0.3015  0.6742
   57HFI     F4 1169   2.606   0.972   2.683  0.1881 -0.2867  0.3785
   57HFI     F5 1170   2.442   0.994   2.810 -0.3295  0.4043  0.0757
   57HFI     F6 1171   2.466   0.812   2.697  0.5164  0.5067 -0.0703
   57HFI     H1 1172   2.673   0.935   3.062  0.8059 -1.0947  0.4559
   57HFI     H2 1173   2.530   0.792   2.952  0.8599  1.2236  2.4269
   58HFI     O1 1174   1.346   1.481   0.120 -0.1626 -0.0985 -0.3471
   58HFI     C1 1175   1.382   1.344   0.093 -0.7950  0.3409  0.5136
   58HFI     C2 1176   1.375   1.255   0.219  0.3339 -0.0974 -0.7945
   58HFI     F1 1177   1.415   1.129   0.205  0.0991  0.0788  0.6902
   58HFI     F2 1178   1.246   1.248   0.248 -0.1853 -0.5691 -0.2116
   58HFI     F3 1179   1.447   1.306   0.324  0.6373  0.2827 -0.4212
   58HFI     C3 1180   1.526   1.345   0.039  0.2206 -0.3125  0.2881
   58HFI     F4 1181   1.620   1.392   0.129  0.0068  0.1360 -0.0761
   58HFI     F5 1182   1.544   1.434  -0.061  0.5575 -0.0938  0.0102
   58HFI     F6 1183   1.562   1.224  -0.007  0.5120  0.0993 -0.2760
   58HFI     H1 1184   1.270   1.484   0.180  2.8857  1.8070  3.6339
   58HFI     H2 1185   1.309   1.307   0.020  1.5634  1.8638 -2.6921
   59HFI     O1 1186   1.277   1.510   0.885  0.0511 -0.1982 -0.5566
   59HFI     C1 1187   1.376   1.611   0.837 -0.3539  0.4419  0.2491
   59HFI     C2 1188   1.361   1.645   0.681 -0.2327 -0.0749 -0.5269
   59HFI     F1 1189   1.234   1.701   0.655  0.5097  0.5618  0.5192
   59HFI     F2 1190   1.373   1.534   0.605 -0.3952 -0.0047  0.6263
   59HFI     F3 1191   1.454   1.737   0.639 -0.5526  0.5875 -0.0649
   59HFI     C3 1192   1.516   1.565   0.881 -0.1089  0.4601 -0.0772
   59HFI     F4 1193   1.586   1.499   0.781 -0.1273  0.4656  0.0596
   59HFI     F5 1194   1.520   1.503   1.002  0.3126 -0.4614  0.7260
   59HFI     F6 1195   1.591   1.672   0.898 -0.2584  0.3914  0.0436
   59HFI     H1 1196   1.321   1.441   0.938 -1.0856 -1.4944 -1.2430
   59HFI     H2 1197   1.348   1.703   0.891  0.0433  0.8322 -0.2037
   60HFI     O1 1198   3.161   3.438   2.472 -0.0632  0.3393  0.5275
   60HFI     C1 1199   3.085   3.328   2.404  0.2259  0.5421 -0.6603
   60HFI     C2 1200   3.006   3.241   2.501  0.1091  0.2568 -0.0435
   60HFI     F1 1201   3.084   3.175   2.598 -1.0417  0.1306  0.1314
   60HFI     F2 1202   2.931   3.140   2.446  0.4418  0.3302  0.4598
   60HFI     F3 1203   2.917   3.320   2.562 -0.5231 -0.0518  0.3022
   60HFI     C3 1204   3.183   3.248   2.309 -0.2543  0.6504 -0.6400
   60HFI     F4 1205   3.133   3.133   2.257  0.3139 -0.2259 -0.4164
   60HFI     F5 1206   3.290   3.210   2.384 -0.6322 -0.6679  0.5535
   60HFI     F6 1207   3.223   3.333   2.212 -0.4103 -0.0966  0.8409
   60HFI     H1 1208   3.232   3.403   2.528  0.0218  1.1040  0.8990
   60HFI     H2 1209   3.015   3.387   2.343  1.6724  2.1088 -0.8448
   61HFI     O1 1210   3.000   2.532   0.370 -0.6132  0.1927  0.1035
   61HFI     C1 1211   3.107   2.618   0.319 -0.1803 -0.4312  0.4356
   61HFI     C2 1212   3.068   2.687   0.190 -0.7760 -0.2348 -0.9649
   61HFI     F1 1213   2.936   2.716   0.200 -0.7107 -0.3409 -0.2442
   61HFI     F2 1214   3.081   2.609   0.084 -0.2525 -0.3260 -0.3972
   61HFI     F3 1215   3.148   2.800   0.183 -0.0274  0.3953  0.0633
   61HFI     C3 1216   3.248   2.553   0.313  0.3590  0.0308 -0.2396
   61HFI     F4 1217   3.245   2.444   0.239 -0.0430  0.2850  0.9057
   61HFI     F5 1218   3.287   2.519   0.436  0.8366  0.0502  0.0196
   61HFI     F6 1219   3.339   2.637   0.269 -0.1540  0.2398  0.6645
   61HFI     H1 1220   2.931   2.534   0.302 -1.2127 -0.4666  0.6944
   61HFI     H2 1221   3.133   2.696   0.391  0.3532  1.5754 -1.8584
   62HFI     O1 1222   0.235   1.012   1.307 -0.4555  0.3898  0.2367
   62HFI     C1 1223   0.335   0.935   1.379  0.6068  0.8070  0.7345
   62HFI     C2 1224   0.333   0.948   1.531 -0.1754 -0.1727  0.4291
   62HFI     F1 1225   0.210   0.921   1.571 -0.1479 -0.4154 -0.1020
   62HFI     F2 1226   0.370   1.075   1.560 -0.2778 -0.1006 -0.0355
   62HFI     F3 1227   0.419   0.869   1.589 -0.2951 -0.1736 -0.1383
   62HFI     C3 1228   0.477   0.953   1.320 -0.4759  0.2287  0.0222
   62HFI     F4 1229   0.471   0.945   1.182  0.5463 -0.4513 -0.1664
   62HFI     F5 1230   0.568   0.860   1.368 -0.0065 -0.2157  1.0610
   62HFI     F6 1231   0.535   1.072   1.357  0.3958 -0.3547 -0.6043
   62HFI     H1 1232   0.252   1.107   1.309  0.1876  0.3693 -2.2301
   62HFI     H2 1233   0.309   0.829   1.367 -1.4923  1.4436 -0.5948
   63HFI     O1 1234   2.436   2.037   0.214  0.6068  0.1440  0.1420
   63HFI     C1 1235   2.379   2.006   0.336  0.2210  0.7740 -0.3065
   63HFI     C2 1236   2.227   2.051   0.329 -0.7796  0.9191 -0.0034
   63HFI     F1 1237   2.208   2.185   0.333  0.1506 -0.2140  0.0851
   63HFI     F2 1238   2.172   1.998   0.435  0.1040 -0.6103  0.2203
   63HFI     F3 1239   2.152   1.992   0.229  0.5129 -0.2139 -0.0178
   63HFI     C3 1240   2.462   2.062   0.455  0.2759 -0.3198 -0.0718
   63HFI     F4 1241   2.408   2.044   0.577  0.2385  0.1229  0.2512
   63HFI     F5 1242   2.486   2.195   0.437 -0.2355 -0.1411 -0.5907
   63HFI     F6 1243   2.578   1.998   0.472  0.0730  0.3241 -0.1462
   63HFI     H1 1244   2.434   2.134   0.222  1.6306  0.0166  2.3785
   63HFI     H2 1245   2.381   1.897   0.344 -0.4593  0.8278  0.6294
   64HFI     O1 1246   1.162   1.777   1.428 -0.6722  0.3226 -0.4031
   64HFI     C1 1247   1.234   1.897   1.385 -0.5431 -0.0684 -0.2164
   64HFI     C2 1248   1.347   1.863   1.289 -0.0017 -0.2088  0.3144
   64HFI     F1 1249   1.302   1.805   1.177 -0.0487  0.1827 -0.0946
   64HFI     F2 1250   1.443   1.776   1.332 -0.0756 -0.2588  0.0922
   64HFI     F3 1251   1.407   1.979   1.244  0.7831 -0.4818  0.2210
   64HFI     C3 1252   1.278   1.982   1.512 -0.5317  0.4632 -0.4817
   64HFI     F4 1253   1.380   2.068   1.488  0.1027 -0.4916 -0.2410
   64HFI     F5 1254   1.311   1.892   1.605 -0.2283 -0.0766  0.3480
   64HFI     F6 1255   1.174   2.051   1.555 -0.5989 -0.5942 -1.5546
   64HFI     H1 1256   1.177   1.756   1.522 -1.9637 -1.5801 -0.5963
   64HFI     H2 1257   1.160   1.958   1.332 -0.7148 -0.6510 -0.6604
   65HFI     O1 1258   1.176   2.547   1.266 -0.0876 -0.0605 -0.0816
   65HFI     C1 1259   1.310   2.542   1.320 -0.5042  0.0809  0.6705
   65HFI     C2 1260   1.415   2.474   1.233 -0.3608 -0.4696  0.4727
   65HFI     F1 1261   1.389   2.510   1.103  0.6377 -0.0575  0.6954
   65HFI     F2 1262   1.404   2.333   1.236 -0.5425 -0.7693 -0.3725
   65HFI     F3 1263   1.540   2.506   1.254  0.0068 -0.5864 -0.0574
   65HFI     C3 1264   1.292   2.475   1.455 -0.3075 -0.6169 -0.5031
   65HFI     F4 1265   1.225   2.561   1.532 -0.1665 -0.2789  0.5547
   65HFI     F5 1266   1.412   2.464   1.510 -0.0810 -0.1058 -0.2942
   65HFI     F6 1267   1.236   2.354   1.460 -0.3998 -0.0820  0.3712
   65HFI     H1 1268   1.168   2.489   1.189  1.1722  1.2058 -1.1881
   65HFI     H2 1269   1.338   2.646   1.339 -0.3973 -0.0369  1.1753
   66HFI     O1 1270   0.762   0.372   0.697  0.1094  0.1387  0.0461
   66HFI     C1 1271   0.810   0.236   0.731  0.6396  1.4526  0.0830
   66HFI     C2 1272   0.735   0.132   0.641 -0.2813 -0.1105 -0.1323
   66HFI     F1 1273   0.744   0.170   0.509 -0.3294 -0.0233  0.4091
   66HFI     F2 1274   0.603   0.122   0.667  0.5342  0.5974 -0.2490
   66HFI     F3 1275   0.781   0.011   0.662  0.4804  0.0035  0.2146
   66HFI     C3 1276   0.798   0.208   0.880  0.3252 -0.8323  0.1148
   66HFI     F4 1277   0.859   0.298   0.958  0.0004 -0.3053 -0.2561
   66HFI     F5 1278   0.856   0.091   0.919 -0.4547  0.0767  0.7946
   66HFI     F6 1279   0.674   0.198   0.919  0.2286 -0.3967  0.4811
   66HFI     H1 1280   0.725   0.413   0.777  1.8389 -0.5073  1.2098
   66HFI     H2 1281   0.915   0.220   0.704  0.1675 -1.6163 -0.1947
   67HFI     O1 1282   0.113   0.361   3.735 -0.3338  0.8581 -0.1669
   67HFI     C1 1283  -0.024   0.403   3.732  0.1416 -0.0893 -0.0824
   67HFI     C2 1284  -0.045   0.515   3.618 -0.2334 -0.7952  0.2583
   67HFI     F1 1285  -0.151   0.596   3.634  0.4461  0.2151  0.0271
   67HFI     F2 1286  -0.060   0.452   3.500 -0.3582 -0.8130  0.9493
   67HFI     F3 1287   0.064   0.590   3.600  0.1861  0.0906 -0.4939
   67HFI     C3 1288  -0.071   0.464   3.871 -0.9321  0.5333 -0.1255
   67HFI     F4 1289  -0.021   0.583   3.896 -0.1483 -0.3025 -0.2371
   67HFI     F5 1290  -0.021   0.382   3.971 -0.5072  0.4465 -0.1092
   67HFI     F6 1291  -0.203   0.473   3.883  0.0470  0.4146  0.5151
   67HFI     H1 1292   0.130   0.292   3.802 -1.7543  0.0169 -0.6531
   67HFI     H2 1293  -0.089   0.320   3.703 -0.6976  0.0298  1.3701
   68HFI     O1 1294   0.974   0.156   3.310  0.5940 -0.1025 -0.4523
   68HFI     C1 1295   0.992   0.140   3.166  0.0328 -0.3076 -0.0632
   68HFI     C2 1296   1.139   0.097   3.129 -0.4001  0.5716 -0.0874
   68HFI     F1 1297   1.143   0.045   3.004 -0.1092 -0.5019  0.4058
   68HFI     F2 1298   1.196   0.012   3.211  0.0082  0.4054 -0.3694
   68HFI     F3 1299   1.217   0.207   3.121  0.8813 -0.4419  0.0992
   68HFI     C3 1300   0.957   0.269   3.094  0.3360  0.0303 -0.2555
   68HFI     F4 1301   0.987   0.264   2.968 -0.2757  0.6298 -0.1777
   68HFI     F5 1302   1.021   0.368   3.152 -0.7475 -0.2823 -0.0372
   68HFI     F6 1303   0.827   0.297   3.094  0.2243 -0.1012  0.2031
   68HFI     H1 1304   1.021   0.237   3.336  0.6767  0.0389 -1.0375
   68HFI     H2 1305   0.924   0.068   3.118 -0.9463  0.6259 -0.0986
   69HFI     O1 1306   1.084   0.056   2.430 -0.4104 -0.3112  0.0491
   69HFI     C1 1307   1.168   0.012   2.311  0.1834 -0.1211 -0.3925
   69HFI     C2 1308   1.187  -0.138   2.313 -0.1181  1.1677  0.2912
   69HFI     F1 1309   1.269  -0.167   2.419  0.2751  0.9985 -0.3984
   69HFI     F2 1310   1.248  -0.188   2.204 -0.0779 -0.0353 -0.0211
   69HFI     F3 1311   1.070  -0.214   2.325  0.1765  0.0280  0.8733
   69HFI     C3 1312   1.303   0.087   2.309 -0.1373  0.2129 -0.5686
   69HFI     F4 1313   1.345   0.115   2.435 -0.0533  0.7946 -0.1688
   69HFI     F5 1314   1.288   0.202   2.242 -0.7319  0.4276  0.3342
   69HFI     F6 1315   1.410   0.016   2.258 -0.0499  0.4351  0.1433
   69HFI     H1 1316   1.138   0.072   2.509 -1.8423 -1.3049  1.2611
   69HFI     H2 1317   1.121   0.042   2.217  1.9211  0.8112 -0.9703
   70HFI     O1 1318   1.154   0.253   1.374 -0.9043 -0.4019  0.3070
   70HFI     C1 1319   1.271   0.159   1.369  0.1964 -0.2762  0.2121
   70HFI     C2 1320   1.300   0.107   1.225  0.3585 -0.0063 -0.8274
   70HFI     F1 1321   1.195   0.065   1.158 -0.3933 -0.3835  0.1796
   70HFI     F2 1322   1.388   0.004   1.232 -0.3639  0.0734 -0.2860
   70HFI     F3 1323   1.354   0.206   1.160  0.2743  0.8127  0.4737
   70HFI     C3 1324   1.259   0.041   1.472 -0.5844 -0.2146 -0.5789
   70HFI     F4 1325   1.368  -0.040   1.485 -0.2845  0.0162 -0.3969
   70HFI     F5 1326   1.155  -0.042   1.436 -0.3601  0.2183 -0.6069
   70HFI     F6 1327   1.231   0.095   1.598 -0.6022 -0.0797  0.3526
   70HFI     H1 1328   1.076   0.197   1.360 -2.3493  1.6240  0.1645
   70HFI     H2 1329   1.360   0.215   1.399 -0.8535  0.2795  2.3986
   71HFI     O1 1330   0.452   0.373   1.065 -0.1699 -0.3587 -0.3029
   71HFI     C1 1331   0.347   0.296   0.995  0.2508  0.1466  0.7556
   71HFI     C2 1332   0.305   0.352   0.855  0.3730  0.7800 -0.1747
   71HFI     F1 1333   0.238   0.466   0.854  0.2843  0.3386  0.4431
   71HFI     F2 1334   0.220   0.265   0.800 -0.5293 -0.3473  0.1511
   71HFI     F3 1335   0.407   0.359   0.770 -0.1900 -0.0474 -0.3802
   71HFI     C3 1336   0.216   0.271   1.088  0.4606 -0.2739 -0.2674
   71HFI     F4 1337   0.147   0.388   1.104 -0.1013  0.2465 -0.0139
   71HFI     F5 1338   0.252   0.231   1.207 -0.0254  0.1826 -0.0591
   71HFI     F6 1339   0.131   0.174   1.041 -0.5394 -0.0921  0.0178
   71HFI     H1 1340   0.468   0.456   1.016  0.3018 -0.4483 -0.2941
   71HFI     H2 1341   0.393   0.199   0.970 -0.0429  0.2502 -0.2328
   72HFI     O1 1342   1.180   2.994   0.920 -0.1155  0.4432  0.2171
   72HFI     C1 1343   1.240   2.882   0.845 -0.7767 -0.1245 -0.5114
   72HFI     C2 1344   1.133   2.831   0.745 -0.0500 -0.5071  0.5952
   72HFI     F1 1345   1.188   2.746   0.657 -0.5483  0.0530 -0.2161
   72HFI     F2 1346   1.085   2.936   0.675 -0.5098 -0.2417 -0.5222
   72HFI     F3 1347   1.024   2.773   0.807 -0.3179 -0.0505  0.0245
   72HFI     C3 1348   1.278   2.763   0.939 -0.2244  0.3023 -0.6830
   72HFI     F4 1349   1.176   2.698   1.002 -0.0780 -0.2871  0.7281
   72HFI     F5 1350   1.363   2.802   1.033  0.3858 -0.4001 -0.4611
   72HFI     F6 1351   1.347   2.671   0.870 -0.1949 -0.1400  0.6011
   72HFI     H1 1352   1.253   3.016   0.980  1.1899 -1.6765 -0.5568
   72HFI     H2 1353   1.324   2.922   0.786 -1.3254  0.1957 -1.0866
   73HFI     O1 1354   3.268   0.748   2.530 -0.4070 -0.3241 -0.3288
   73HFI     C1 1355   3.379   0.808   2.461  1.0099  0.2253 -0.2529
   73HFI     C2 1356   3.333   0.835   2.310  0.5273 -0.4995 -0.0162
   73HFI     F1 1357   3.432   0.883   2.230  0.1027  0.0280 -0.1340
   73HFI     F2 1358   3.223   0.915   2.298  0.1486 -0.2461 -0.6145
   73HFI     F3 1359   3.294   0.721   2.253  0.0390 -0.1508  0.3305
   73HFI     C3 1360   3.505   0.708   2.463 -0.4900 -0.4715 -0.6413
   73HFI     F4 1361   3.603   0.731   2.372 -0.3868  0.0291  0.3386
   73HFI     F5 1362   3.467   0.582   2.453  0.6648  0.8204 -0.2475
   73HFI     F6 1363   3.568   0.724   2.583  0.3874 -0.1117  0.0516
   73HFI     H1 1364   3.190   0.805   2.538 -1.1024 -1.3195 -0.0361
   73HFI     H2 1365   3.408   0.905   2.502  0.5734 -0.1516  0.9646
   74HFI     O1 1366   0.408   2.226   0.647  0.0774  0.3654 -0.3344
   74HFI     C1 1367   0.530   2.188   0.724 -0.7295  0.6946  0.5360
   74HFI     C2 1368   0.519   2.042   0.770 -0.7695 -0.4911 -0.6457
   74HFI     F1 1369   0.500   1.957   0.668 -0.0700 -0.3250 -0.0607
   74HFI     F2 1370   0.416   2.018   0.855  0.1418  0.9177 -0.2853
   74HFI     F3 1371   0.630   1.994   0.830 -0.4638 -0.4204 -0.2019
   74HFI     C3 1372   0.559   2.289   0.839 -0.3631  0.0342  0.0776
   74HFI     F4 1373   0.527   2.416   0.811 -0.1880  0.9655 -0.4816
   74HFI     F5 1374   0.696   2.297   0.867 -0.0065 -0.5319  0.4953
   74HFI     F6 1375   0.502   2.255   0.952  0.0643 -0.9196  0.2306
   74HFI     H1 1376   0.368   2.306   0.683  1.8774  0.7601  0.8947
   74HFI     H2 1377   0.619   2.176   0.662 -1.7869  1.6620 -1.2052
   75HFI     O1 1378   3.383   3.186   1.266  0.0025 -0.1473  1.1479
   75HFI     C1 1379   3.348   3.186   1.404  0.7411  0.7052  0.5508
   75HFI     C2 1380   3.249   3.072   1.440  0.2444  0.9661  0.9126
   75HFI     F1 1381   3.307   2.948   1.430  0.1245  0.3466 -0.0481
   75HFI     F2 1382   3.147   3.081   1.356  0.2927  0.2838 -0.6286
   75HFI     F3 1383   3.199   3.081   1.571 -0.2694 -0.3421  0.0915
   75HFI     C3 1384   3.285   3.330   1.444 -0.1297 -0.1097  0.1012
   75HFI     F4 1385   3.169   3.357   1.379 -0.2635  0.0025 -0.2721
   75HFI     F5 1386   3.377   3.423   1.413 -0.9409  0.3050 -0.0851
   75HFI     F6 1387   3.269   3.341   1.578  0.4312 -0.1235  0.0382
   75HFI     H1 1388   3.301   3.204   1.217  0.2107  1.1012  1.2471
   75HFI     H2 1389   3.442   3.180   1.460  1.4466  1.8385 -0.4867
   76HFI     O1 1390   1.754   1.063   2.641 -0.0432  0.1024 -0.4541
   76HFI     C1 1391   1.743   1.021   2.771 -0.5444 -0.2691 -0.7241
   76HFI     C2 1392   1.712   0.871   2.784  0.2952 -0.1868 -0.6333
   76HFI     F1 1393   1.777   0.810   2.690 -0.0533 -0.0043  0.1953
   76HFI     F2 1394   1.582   0.843   2.780 -0.3379  0.4020 -0.2444
   76HFI     F3 1395   1.764   0.817   2.898 -0.0742  0.4433  0.2354
   76HFI     C3 1396   1.637   1.102   2.852  0.3666  0.3547  0.1223
   76HFI     F4 1397   1.517   1.102   2.787  0.3479 -0.1350  0.5830
   76HFI     F5 1398   1.670   1.229   2.868 -0.1131  0.0285  0.5143
   76HFI     F6 1399   1.615   1.050   2.975 -0.3194  0.0887  0.5030
   76HFI     H1 1400   1.669   1.050   2.595  1.9830 -3.7074 -3.3488
   76HFI     H2 1401   1.841   1.040   2.816 -1.9996  1.0311  2.0723
   77HFI     O1 1402   2.588   1.905   1.367 -0.2189 -0.0316 -0.3614
   77HFI     C1 1403   2.443   1.943   1.376 -0.3401 -0.1844 -0.2644
   77HFI     C2 1404   2.388   1.911   1.516  0.0331 -0.3426 -0.3333
   77HFI     F1 1405   2.478   1.969   1.606 -0.4215 -0.3975 -0.3011
   77HFI     F2 1406   2.382   1.778   1.547  0.2762  0.5245 -0.1936
   77HFI     F3 1407   2.272   1.969   1.541  0.3168  0.1180  0.5368
   77HFI     C3 1408   2.360   1.888   1.255  0.6611  0.2423 -0.2032
   77HFI     F4 1409   2.237   1.931   1.268  0.6052 -0.4158 -0.2340
   77HFI     F5 1410   2.364   1.752   1.248 -0.3106 -0.3486 -0.1666
   77HFI     F6 1411   2.409   1.941   1.141  0.3825  0.2992 -0.0289
   77HFI     H1 1412   2.599   1.809   1.358  1.5229  0.0457  0.7690
   77HFI     H2 1413   2.435   2.051   1.359  1.3132 -0.2133 -1.3332
   78HFI     O1 1414   0.162   1.935   0.199 -0.0413  0.1397  0.6883
   78HFI     C1 1415   0.276   2.023   0.231 -0.2854  0.4802 -0.0429
   78HFI     C2 1416   0.357   1.967   0.349  0.5429 -0.5176  1.0791
   78HFI     F1 1417   0.299   1.981   0.466  0.0426  0.2464 -0.3279
   78HFI     F2 1418   0.477   2.026   0.366  0.1328 -0.2225 -0.1752
   78HFI     F3 1419   0.376   1.837   0.341  0.2333  0.0874 -0.2438
   78HFI     C3 1420   0.211   2.159   0.261  0.2119 -0.1779  0.5875
   78HFI     F4 1421   0.309   2.242   0.307 -0.2072  0.0625  0.1106
   78HFI     F5 1422   0.110   2.147   0.350  0.0145  0.0375 -0.2792
   78HFI     F6 1423   0.160   2.217   0.150 -0.2024 -0.4956  0.0991
   78HFI     H1 1424   0.147   1.874   0.274 -2.4943 -0.8839 -0.5616
   78HFI     H2 1425   0.338   2.032   0.141 -1.6672 -1.8171 -1.2516
   79HFI     O1 1426   2.737   2.161   3.274 -0.4290 -0.1012 -0.3923
   79HFI     C1 1427   2.776   2.283   3.351  0.2059  0.3331  0.0787
   79HFI     C2 1428   2.658   2.386   3.362 -0.3822 -0.0258  0.6739
   79HFI     F1 1429   2.548   2.312   3.371  0.3533  0.1681 -0.2343
   79HFI     F2 1430   2.639   2.459   3.257  0.0324 -0.6632  0.1386
   79HFI     F3 1431   2.666   2.461   3.475  0.3429  0.0335 -0.2446
   79HFI     C3 1432   2.902   2.349   3.285  0.1046  0.1735 -0.4534
   79HFI     F4 1433   2.890   2.343   3.155  0.3015 -0.1661  0.2046
   79HFI     F5 1434   3.011   2.275   3.320  0.1962  0.3456 -0.6974
   79HFI     F6 1435   2.918   2.479   3.323 -0.1987 -0.5749 -0.5664
   79HFI     H1 1436   2.665   2.109   3.315  0.7084 -2.1099 -0.8506
   79HFI     H2 1437   2.808   2.261   3.454  1.7576  1.0215 -0.2334
   80HFI     O1 1438   1.470   0.058   2.947 -0.0575 -0.1590  0.8224
   80HFI     C1 1439   1.535   0.191   2.910 -0.1277  0.5310  0.1026
   80HFI     C2 1440   1.598   0.239   3.046 -0.0500 -1.1550 -0.4594
   80HFI     F1 1441   1.703   0.168   3.086 -0.2129 -0.0536 -0.1847
   80HFI     F2 1442   1.518   0.238   3.159  0.3087  0.0419  0.3151
   80HFI     F3 1443   1.643   0.367   3.038 -0.7934  0.8411  0.1853
   80HFI     C3 1444   1.432   0.292   2.860 -0.5437  0.8766 -0.1575
   80HFI     F4 1445   1.377   0.374   2.959 -0.3384 -0.0825  0.6902
   80HFI     F5 1446   1.333   0.223   2.798  0.2964  0.0337  0.1554
   80HFI     F6 1447   1.491   0.375   2.778  0.5262  0.1782  0.4505
   80HFI     H1 1448   1.411   0.035   2.874  1.7318  0.1404 -0.7540
   80HFI     H2 1449   1.612   0.168   2.836 -0.8619  1.4773 -0.9600
   81HFI     O1 1450   2.271   2.855   1.369 -0.6588  0.0413 -0.2621
   81HFI     C1 1451   2.203   2.989   1.384  0.2355 -0.7587  0.8562
   81HFI     C2 1452   2.168   3.028   1.530  0.0521  0.2150  0.6290
   81HFI     F1 1453   2.074   2.941   1.588 -0.0596 -0.1604  0.0295
   81HFI     F2 1454   2.114   3.149   1.542 -0.1920 -0.4808  0.1326
   81HFI     F3 1455   2.288   3.019   1.597  0.3333 -0.0259  0.2300
   81HFI     C3 1456   2.106   3.010   1.269  0.2670  0.1877  0.0042
   81HFI     F4 1457   2.078   3.142   1.250 -0.4693 -0.0476 -0.0340
   81HFI     F5 1458   1.983   2.955   1.307  0.1052  0.2066  0.1897
   81HFI     F6 1459   2.142   2.954   1.147 -0.2655 -0.3617  0.0543
   81HFI     H1 1460   2.208   2.783   1.380 -0.3650 -0.2172 -0.2580
   81HFI     H2 1461   2.277   3.068   1.364 -0.2556 -0.3627  0.6092
   82HFI     O1 1462   3.075   2.103   0.138  0.6986 -0.1400  0.3675
   82HFI     C1 1463   3.035   2.187   0.031 -0.3052  0.7820  0.4963
   82HFI     C2 1464   2.897   2.261   0.059 -0.4650  0.4520 -0.3323
   82HFI     F1 1465   2.809   2.162   0.086  0.2152 -0.3469  0.2505
   82HFI     F2 1466   2.851   2.330  -0.051  0.1380 -0.2083  0.1596
   82HFI     F3 1467   2.912   2.345   0.164  0.5096  0.1343 -0.3352
   82HFI     C3 1468   3.032   2.106  -0.105 -0.3487  0.0030 -0.1126
   82HFI     F4 1469   2.957   1.997  -0.090  0.4565  0.6320  0.0549
   82HFI     F5 1470   3.153   2.055  -0.139  0.2420  0.0318  0.4220
   82HFI     F6 1471   2.989   2.183  -0.208  0.2466  0.3891  0.7876
   82HFI     H1 1472   3.002   2.039   0.148  0.5354 -0.4903 -2.4761
   82HFI     H2 1473   3.104   2.271   0.018 -1.1707  1.2807 -1.0362
   83HFI     O1 1474   0.604   2.618   3.397  0.5431  0.2604 -0.4944
   83HFI     C1 1475   0.635   2.474   3.424  0.4098  0.0545  0.3099
   83HFI     C2 1476   0.736   2.410   3.314 -0.0526 -0.5343 -0.1768
   83HFI     F1 1477   0.780   2.292   3.363 -0.4031 -0.0525  0.1448
   83HFI     F2 1478   0.847   2.480   3.292  0.1336 -0.1040  0.0830
   83HFI     F3 1479   0.671   2.391   3.192 -0.5382  0.3068 -0.0107
   83HFI     C3 1480   0.507   2.387   3.445  0.2351  0.2537 -0.7216
   83HFI     F4 1481   0.474   2.380   3.568 -0.6298 -0.5942  0.1086
   83HFI     F5 1482   0.524   2.258   3.407 -0.1248 -0.2290 -0.2653
   83HFI     F6 1483   0.402   2.428   3.368 -0.0285 -0.6638  0.5930
   83HFI     H1 1484   0.508   2.632   3.394  0.5614  0.1557 -2.0940
   83HFI     H2 1485   0.685   2.473   3.521 -0.0499  2.0527  0.5876
   84HFI     O1 1486   0.695   1.638   2.696  0.1440 -0.3239  0.4944
   84HFI     C1 1487   0.749   1.576   2.818  0.9137 -0.6559  0.1711
   84HFI     C2 1488   0.857   1.669   2.887 -0.2181  0.4183 -0.1253
   84HFI     F1 1489   0.952   1.720   2.798  0.2941 -0.6717 -0.1289
   84HFI     F2 1490   0.923   1.598   2.988 -0.2379 -0.3526  0.0528
   84HFI     F3 1491   0.803   1.779   2.942  0.0532 -0.1137 -0.4530
   84HFI     C3 1492   0.787   1.427   2.801 -0.1524 -0.4066 -0.5268
   84HFI     F4 1493   0.891   1.409   2.719 -0.2092  0.3821 -0.2435
   84HFI     F5 1494   0.677   1.362   2.756 -0.6509 -0.0450  0.4008
   84HFI     F6 1495   0.819   1.373   2.916  0.2139  0.5434 -0.1161
   84HFI     H1 1496   0.766   1.681   2.645  1.2955 -1.2647  1.2600
   84HFI     H2 1497   0.676   1.573   2.900  1.9471  1.9756  1.2545
   85HFI     O1 1498   2.090   0.436   1.310 -0.0651  0.6573  0.6214
   85HFI     C1 1499   2.147   0.562   1.354 -0.1901  0.8566  0.2048
   85HFI     C2 1500   2.257   0.615   1.263  0.6710  0.7072  0.3168
   85HFI     F1 1501   2.362   0.523   1.254 -0.4857  0.2438  0.1683
   85HFI     F2 1502   2.307   0.730   1.311 -0.0653 -0.1786  0.1152
   85HFI     F3 1503   2.211   0.631   1.140 -0.3267  0.4007  0.3269
   85HFI     C3 1504   2.185   0.548   1.508 -0.4437  0.2996  0.5590
   85HFI     F4 1505   2.224   0.663   1.564 -0.8597 -0.4181 -0.3619
   85HFI     F5 1506   2.289   0.468   1.517 -0.1717  0.5085 -0.1033
   85HFI     F6 1507   2.078   0.502   1.586  0.1213  0.0048  0.1257
   85HFI     H1 1508   2.144   0.361   1.341 -3.0404 -1.2595  1.3445
   85HFI     H2 1509   2.071   0.641   1.348 -0.5199  0.5315  0.1257
   86HFI     O1 1510   0.038   0.500   1.344  0.0670 -0.1235  0.2812
   86HFI     C1 1511  -0.039   0.539   1.461  0.7528 -0.6476  0.1311
   86HFI     C2 1512  -0.162   0.447   1.489  0.1417  0.1984  0.1107
   86HFI     F1 1513  -0.234   0.434   1.379  0.3260 -0.1506  0.2798
   86HFI     F2 1514  -0.245   0.500   1.584 -0.1799 -0.1379  0.5915
   86HFI     F3 1515  -0.126   0.315   1.531 -0.2652  0.2698  0.3217
   86HFI     C3 1516  -0.079   0.692   1.458 -0.2014  0.4677 -0.3189
   86HFI     F4 1517   0.035   0.768   1.422  0.2567  0.0264 -0.3324
   86HFI     F5 1518  -0.128   0.735   1.577  0.2236  0.1463  0.3323
   86HFI     F6 1519  -0.172   0.716   1.364  0.5532  0.3669  0.7505
   86HFI     H1 1520  -0.025   0.458   1.283  2.0357  0.1780 -2.0546
   86HFI     H2 1521   0.026   0.509   1.544  1.9540 -0.1786 -0.6329
   87HFI     O1 1522   2.969   1.080   1.311 -0.2718  0.2298 -0.3172
   87HFI     C1 1523   3.099   1.079   1.374  0.4639  1.2516  0.5874
   87HFI     C2 1524   3.070   1.066   1.532  0.9545  0.2781  0.3881
   87HFI     F1 1525   3.177   1.077   1.603 -0.2572 -0.0903  0.1832
   87HFI     F2 1526   3.009   0.945   1.565 -0.0595 -0.2377 -0.1521
   87HFI     F3 1527   2.982   1.158   1.574 -0.0878 -0.1306 -0.3922
   87HFI     C3 1528   3.183   1.199   1.339  1.3222 -0.2501 -0.1251
   87HFI     F4 1529   3.295   1.219   1.413 -0.5300  0.3900 -0.1938
   87HFI     F5 1530   3.117   1.317   1.349  0.2514 -0.2291 -0.0614
   87HFI     F6 1531   3.226   1.192   1.211 -0.7135 -0.0857 -0.4712
   87HFI     H1 1532   2.923   1.164   1.326  1.6718  0.8388  2.5955
   87HFI     H2 1533   3.149   0.986   1.342 -1.1516  0.7919 -0.6609
   88HFI     O1 1534   1.116   0.614   2.711  0.0142  0.3748 -0.2209
   88HFI     C1 1535   1.043   0.491   2.723 -0.8205  0.6542 -0.0723
   88HFI     C2 1536   1.057   0.417   2.591 -0.8664  0.5793  0.8232
   88HFI     F1 1537   1.049   0.504   2.491  0.0183  0.7964  0.0416
   88HFI     F2 1538   0.962   0.321   2.563  0.1160  0.0450  0.0063
   88HFI     F3 1539   1.181   0.360   2.578 -0.0243  0.3234 -0.5985
   88HFI     C3 1540   0.898   0.513   2.770 -0.1074 -0.4895  0.2253
   88HFI     F4 1541   0.836   0.393   2.791  0.2214 -0.0641  0.4442
   88HFI     F5 1542   0.831   0.582   2.676 -0.7086 -0.1531 -0.6085
   88HFI     F6 1543   0.886   0.579   2.886  0.5650 -0.2529 -0.6135
   88HFI     H1 1544   1.085   0.660   2.631 -2.9899  1.0936  1.2560
   88HFI     H2 1545   1.092   0.438   2.805 -1.5580 -0.4800 -0.3430
   89HFI     O1 1546   2.301   0.988   1.598 -0.2750  0.7702 -0.2109
   89HFI     C1 1547   2.379   1.100   1.542  0.2262 -0.1000 -0.0542
   89HFI     C2 1548   2.294   1.167   1.429  0.1362  0.2423 -0.1772
   89HFI     F1 1549   2.353   1.272   1.371 -0.5153  0.8037 -0.3388
   89HFI     F2 1550   2.180   1.216   1.488 -0.0511 -0.2568 -0.0581
   89HFI     F3 1551   2.255   1.080   1.334 -0.0227 -0.1832 -0.0220
   89HFI     C3 1552   2.525   1.062   1.492  0.3240  0.4831 -0.3102
   89HFI     F4 1553   2.580   0.983   1.592  0.4767 -0.4892  0.0054
   89HFI     F5 1554   2.604   1.168   1.473 -0.1780 -0.0533  0.3507
   89HFI     F6 1555   2.523   0.982   1.380  0.3795  0.4424  0.3896
   89HFI     H1 1556   2.225   0.968   1.541 -1.9334  1.7334  1.6290
   89HFI     H2 1557   2.388   1.169   1.626  1.1713 -0.7495  0.3855
   90HFI     O1 1558   2.809   1.313   1.353 -0.2583  0.3194 -0.8309
   90HFI     C1 1559   2.796   1.459   1.352  0.7531  0.5211  0.1392
   90HFI     C2 1560   2.819   1.519   1.495  0.6352 -0.3675 -0.3148
   90HFI     F1 1561   2.851   1.648   1.490 -0.1405 -0.7936  0.6781
   90HFI     F2 1562   2.919   1.459   1.558  0.5510 -0.0701  0.6648
   90HFI     F3 1563   2.702   1.507   1.579 -0.1979 -0.1965 -0.5531
   90HFI     C3 1564   2.669   1.508   1.280  0.1769 -0.3886  0.7744
   90HFI     F4 1565   2.666   1.646   1.253 -0.0039 -0.3715 -0.0845
   90HFI     F5 1566   2.554   1.481   1.355 -0.2959  0.5741 -0.2362
   90HFI     F6 1567   2.654   1.441   1.166 -0.0437  0.4983  0.7991
   90HFI     H1 1568   2.746   1.287   1.423 -1.4605  3.3268 -0.7186
   90HFI     H2 1569   2.881   1.497   1.293  0.6626  0.5756  0.0444
   91HFI     O1 1570   1.951   0.838   3.480  0.2214 -0.4364  0.7430
   91HFI     C1 1571   1.963   0.921   3.597  0.1050 -0.3850 -0.1255
   91HFI     C2 1572   1.859   0.887   3.706  0.3385  0.1089 -0.3177
   91HFI     F1 1573   1.732   0.888   3.653  0.3992  0.3697 -0.1042
   91HFI     F2 1574   1.858   0.972   3.814 -0.2293 -0.2695 -0.3070
   91HFI     F3 1575   1.881   0.765   3.749  0.2309 -0.2121 -0.3196
   91HFI     C3 1576   1.957   1.068   3.555  0.4955  0.4515  0.2522
   91HFI     F4 1577   1.837   1.096   3.507 -0.0305  0.4153  0.0476
   91HFI     F5 1578   2.046   1.098   3.459  0.2564 -0.0838 -0.1116
   91HFI     F6 1579   1.982   1.161   3.656 -0.1764  0.1642 -0.3639
   91HFI     H1 1580   1.891   0.767   3.508 -0.1457 -0.5228 -0.2553
   91HFI     H2 1581   2.064   0.927   3.641  0.9490  0.4522 -2.1104
   92HFI     O1 1582   1.995   0.016   1.480  0.1717  0.0267 -0.4443
   92HFI     C1 1583   1.889  -0.067   1.422 -0.5956  0.1331 -0.6422
   92HFI     C2 1584   1.806   0.011   1.308 -0.0790 -0.4834  0.1119
   92HFI     F1 1585   1.894   0.064   1.221  0.3857 -0.0124  0.2413
   92HFI     F2 1586   1.735   0.113   1.359 -0.5885 -0.1385 -0.6292
   92HFI     F3 1587   1.716  -0.065   1.240 -0.1670  0.5699 -0.2369
   92HFI     C3 1588   1.802  -0.120   1.534  0.4827 -0.5379 -0.1589
   92HFI     F4 1589   1.853  -0.222   1.601  0.6811 -0.1854 -0.0832
   92HFI     F5 1590   1.688  -0.157   1.490 -0.4020  0.1128  0.2460
   92HFI     F6 1591   1.778  -0.012   1.619 -0.0203 -0.4045 -0.2764
   92HFI     H1 1592   1.952   0.098   1.511  0.4269  0.3098 -0.8458
   92HFI     H2 1593   1.944  -0.148   1.374 -2.1651 -2.0937  1.1660
   93HFI     O1 1594   0.537   3.219   3.734  0.0845  0.4685 -0.0707
   93HFI     C1 1595   0.531   3.080   3.680  0.2513  0.0531 -0.1397
   93HFI     C2 1596   0.510   2.978   3.804  0.1390  0.1365  0.8252
   93HFI     F1 1597   0.409   3.020   3.886 -0.0953  0.3175  0.0948
   93HFI     F2 1598   0.625   2.953   3.884  0.1641 -0.3155 -0.0190
   93HFI     F3 1599   0.469   2.862   3.749  0.1617  0.1254  0.6159
   93HFI     C3 1600   0.657   3.033   3.596  0.4160 -0.2034  0.1398
   93HFI     F4 1601   0.668   3.110   3.486 -0.1563 -0.1425  0.1347
   93HFI     F5 1602   0.647   2.902   3.545 -0.0711 -0.0113  0.2708
   93HFI     F6 1603   0.771   3.054   3.662  0.0503 -0.5318 -0.1367
   93HFI     H1 1604   0.617   3.271   3.715  0.1279 -0.0103 -1.2350
   93HFI     H2 1605   0.437   3.069   3.625  0.9224  0.3180 -1.3388
   94HFI     O1 1606   2.305   1.396   0.303 -0.1244  0.2355 -0.0771
   94HFI     C1 1607   2.254   1.532   0.307  0.3875 -0.2913  0.6168
   94HFI     C2 1608   2.292   1.612   0.181  0.8864 -0.1637 -0.8083
   94HFI     F1 1609   2.212   1.714   0.158  0.5032  0.2526  0.3874
   94HFI     F2 1610   2.278   1.536   0.073  0.3286 -0.1059  0.1474
   94HFI     F3 1611   2.408   1.669   0.178  0.6214  0.0647  0.0795
   94HFI     C3 1612   2.283   1.595   0.446  0.4013  0.2574 -0.3963
   94HFI     F4 1613   2.271   1.500   0.542  0.1543 -0.2931 -0.1287
   94HFI     F5 1614   2.209   1.699   0.475 -0.2079 -0.1542  0.2335
   94HFI     F6 1615   2.408   1.639   0.456 -0.2334 -0.4390 -0.0833
   94HFI     H1 1616   2.388   1.407   0.255 -0.5766  2.1958 -0.4649
   94HFI     H2 1617   2.144   1.522   0.302  0.3629  0.5166 -0.7379
   95HFI     O1 1618   3.008   0.871   2.605 -0.1955 -0.3331  0.0949
   95HFI     C1 1619   3.030   0.989   2.688  0.3360  0.4569  0.6456
   95HFI     C2 1620   2.981   1.127   2.613  0.2682 -0.0573  0.2561
   95HFI     F1 1621   3.009   1.242   2.675  0.3492  0.6337  0.3165
   95HFI     F2 1622   2.847   1.118   2.589  0.0552  0.1623  0.3719
   95HFI     F3 1623   3.037   1.131   2.484 -0.0011  0.5864  0.3011
   95HFI     C3 1624   3.167   0.998   2.748 -0.1031  0.0573 -0.6112
   95HFI     F4 1625   3.259   1.022   2.647 -0.1430  0.0365 -0.6557
   95HFI     F5 1626   3.200   0.884   2.808 -0.1822 -0.0522 -0.1145
   95HFI     F6 1627   3.176   1.095   2.830 -0.5794 -0.0089 -0.2285
   95HFI     H1 1628   2.911   0.866   2.596 -0.3775 -0.1393  1.7513
   95HFI     H2 1629   2.954   0.984   2.768  0.4573  0.9241  0.7917
   96HFI     O1 1630   1.836   1.627   3.517  0.6887  0.4409  0.1768
   96HFI     C1 1631   1.849   1.625   3.669  0.1688 -0.3623  0.5821
   96HFI     C2 1632   1.822   1.764   3.730  0.0711 -0.5932  0.5587
   96HFI     F1 1633   1.918   1.853   3.699 -0.2473 -0.4547  0.0142
   96HFI     F2 1634   1.810   1.765   3.864  1.0296  0.5815  0.0720
   96HFI     F3 1635   1.706   1.804   3.679 -0.2256 -0.1594  0.2601
   96HFI     C3 1636   1.985   1.573   3.719  0.1462 -0.5043 -0.4153
   96HFI     F4 1637   2.089   1.658   3.694  0.1387 -0.1035  0.6828
   96HFI     F5 1638   2.000   1.461   3.647 -0.4076  0.2071 -0.1429
   96HFI     F6 1639   1.979   1.546   3.849  0.6499  0.1786  0.1716
   96HFI     H1 1640   1.742   1.618   3.496  0.1494  1.8300  1.8294
   96HFI     H2 1641   1.771   1.560   3.709  0.8092 -1.0403  0.7516
   97HFI     O1 1642   2.997   0.909   1.103  0.2275  0.0244 -0.1493
   97HFI     C1 1643   2.919   0.933   0.981 -0.2794  0.3393  0.6156
   97HFI     C2 1644   3.009   0.917   0.865 -1.1631  0.3944  0.1331
   97HFI     F1 1645   3.060   0.788   0.865  0.4598  0.2515  0.4999
   97HFI     F2 1646   3.106   1.003   0.873 -0.2155 -0.9177  0.0151
   97HFI     F3 1647   2.938   0.939   0.752 -0.6110  0.3198 -0.1582
   97HFI     C3 1648   2.841   1.068   0.984  0.3886  1.2660  0.0865
   97HFI     F4 1649   2.927   1.171   0.977  0.0073  0.5903  0.1589
   97HFI     F5 1650   2.771   1.094   1.098  0.4043  0.4350 -0.3302
   97HFI     F6 1651   2.756   1.080   0.878  0.1481  0.1099 -0.1888
   97HFI     H1 1652   2.986   0.989   1.157 -1.5138  0.3659 -0.9661
   97HFI     H2 1653   2.841   0.856   0.975 -0.1114  0.1917  0.3150
   98HFI     O1 1654   3.016   2.890   0.883  0.3949 -0.0027  0.2356
   98HFI     C1 1655   3.089   2.948   0.990 -1.0150  0.4272 -0.1954
   98HFI     C2 1656   3.068   3.106   0.987 -0.3916 -0.8147  0.0244
   98HFI     F1 1657   3.146   3.174   0.897  0.1369  0.1789  0.0192
   98HFI     F2 1658   3.099   3.160   1.108  0.2822 -0.0293  0.4723
   98HFI     F3 1659   2.935   3.142   0.968 -0.9396  0.2272  0.2896
   98HFI     C3 1660   3.237   2.892   0.984  0.1127 -0.6681  0.1917
   98HFI     F4 1661   3.315   2.936   1.088  0.0154 -0.0482 -0.6460
   98HFI     F5 1662   3.291   2.921   0.861 -0.6098 -0.0850 -0.0112
   98HFI     F6 1663   3.233   2.757   0.988  0.2274  0.1997  0.7787
   98HFI     H1 1664   3.053   2.814   0.836 -1.1077 -0.4103 -0.3129
   98HFI     H2 1665   3.051   2.919   1.089  0.2315 -0.0352  0.1533
   99HFI     O1 1666   2.527   2.887   0.432 -0.4250 -0.2425 -0.0441
   99HFI     C1 1667   2.574   3.026   0.444 -0.1938 -0.4003 -0.9173
   99HFI     C2 1668   2.618   3.084   0.310  1.0306  0.2071  0.1850
   99HFI     F1 1669   2.518   3.054   0.229  0.1277  0.0833  1.0876
   99HFI     F2 1670   2.736   3.030   0.263 -0.1445 -0.0478  0.1406
   99HFI     F3 1671   2.632   3.219   0.318  0.4800 -0.5999 -0.3816
   99HFI     C3 1672   2.676   3.032   0.559 -0.2148 -0.1506 -0.0147
   99HFI     F4 1673   2.790   2.962   0.530  0.1490 -0.4422  0.1420
   99HFI     F5 1674   2.608   2.974   0.664 -0.5115  0.3052 -0.7611
   99HFI     F6 1675   2.696   3.161   0.589  0.5733 -0.4103  0.7241
   99HFI     H1 1676   2.551   2.836   0.511 -0.5199  0.5516  0.4946
   99HFI     H2 1677   2.496   3.089   0.487  1.4084  1.6691 -0.9777
  100HFI     O1 1678   1.565   3.291   0.177 -0.0632  0.1285  0.6918
  100HFI     C1 1679   1.639   3.408   0.120 -0.2517 -0.3317  0.2600
  100HFI     C2 1680   1.616   3.424  -0.034  0.1537  0.6721  0.0542
  100HFI     F1 1681   1.617   3.298  -0.087  0.5516 -0.0785  0.0636
  100HFI     F2 1682   1.705   3.498  -0.105  0.7491 -0.3396 -0.1317
  100HFI     F3 1683   1.498   3.478  -0.052 -0.6953 -0.2573  0.1215
  100HFI     C3 1684   1.783   3.416   0.163  0.2703 -0.2407  0.2862
  100HFI     F4 1685   1.803   3.364   0.290  0.5294 -0.3859 -0.4261
  100HFI     F5 1686   1.830   3.543   0.164  0.3670 -0.3662 -0.1490
  100HFI     F6 1687   1.860   3.345   0.077  0.1250 -0.1071  0.1894
  100HFI     H1 1688   1.529   3.242   0.100  1.0114 -2.2811  1.6689
  100HFI     H2 1689   1.605   3.499   0.171 -0.3923 -1.7118  2.7012
  101HFI     O1 1690   2.670   1.063   0.605  0.3906 -0.1813  0.0769
  101HFI     C1 1691   2.712   1.200   0.562 -0.3988 -0.0008 -0.2088
  101HFI     C2 1692   2.596   1.280   0.503  0.7339  0.3138  0.0131
  101HFI     F1 1693   2.626   1.408   0.474 -0.1512 -0.6352 -0.0678
  101HFI     F2 1694   2.487   1.282   0.592 -0.3838  0.2356  0.3409
  101HFI     F3 1695   2.542   1.224   0.393 -0.1747  0.8464  0.0747
  101HFI     C3 1696   2.833   1.196   0.455 -0.2407 -0.0778  0.4131
  101HFI     F4 1697   2.870   1.320   0.420 -0.4670 -0.4801 -0.9863
  101HFI     F5 1698   2.796   1.130   0.346 -0.1063  0.0719  0.2048
  101HFI     F6 1699   2.941   1.126   0.495 -0.4211  0.1536 -0.3953
  101HFI     H1 1700   2.598   1.028   0.550  0.1490  0.9772 -0.3521
  101HFI     H2 1701   2.755   1.254   0.648  1.1222 -1.8402  0.2002
  102HFI     O1 1702   2.873   0.095   2.876  0.4796  0.1644 -0.1545
  102HFI     C1 1703   2.729   0.100   2.886 -0.7568 -0.1888  0.0929
  102HFI     C2 1704   2.668   0.030   2.764 -1.1830 -0.1860 -0.0614
  102HFI     F1 1705   2.532   0.018   2.766 -0.3302  0.4825 -0.3271
  102HFI     F2 1706   2.719  -0.094   2.755 -0.0022  0.0467 -0.6538
  102HFI     F3 1707   2.708   0.091   2.655 -0.4092  0.6531  0.2513
  102HFI     C3 1708   2.662   0.237   2.913  0.4027  0.4331 -0.1617
  102HFI     F4 1709   2.536   0.228   2.955 -0.1859 -0.1702  0.3518
  102HFI     F5 1710   2.656   0.321   2.810  0.2059  0.0350  0.0902
  102HFI     F6 1711   2.722   0.305   3.011 -0.1676  0.6420  0.0533
  102HFI     H1 1712   2.906   0.182   2.904 -1.4874  0.4784  1.2856
  102HFI     H2 1713   2.700   0.040   2.973  1.2596 -0.4385  0.6108
  103HFI     O1 1714   0.928   1.671   1.319  0.0699  0.0954  0.0054
  103HFI     C1 1715   0.811   1.697   1.403  0.2798  0.1314  0.5194
  103HFI     C2 1716   0.818   1.830   1.477  0.4308  0.1166  0.0537
  103HFI     F1 1717   0.908   1.833   1.568  0.0592  0.2592 -0.0725
  103HFI     F2 1718   0.697   1.865   1.527  0.2749  0.4764 -1.0375
  103HFI     F3 1719   0.846   1.926   1.387 -0.1431  0.3740  0.6919
  103HFI     C3 1720   0.753   1.580   1.482 -0.2424  0.1127  0.9126
  103HFI     F4 1721   0.625   1.598   1.515 -0.0735  0.3236 -0.2426
  103HFI     F5 1722   0.824   1.556   1.592  0.2679  0.2143 -0.5061
  103HFI     F6 1723   0.752   1.475   1.402  0.1544  0.0610  0.1252
  103HFI     H1 1724   1.006   1.709   1.363  0.6518 -1.7631  0.6206
  103HFI     H2 1725   0.734   1.716   1.327  1.1964  0.2630 -0.3889
  104HFI     O1 1726   0.019   2.676   1.328 -0.3141 -0.3933 -0.3745
  104HFI     C1 1727  -0.024   2.536   1.362  0.6278 -0.2843 -0.7994
  104HFI     C2 1728  -0.175   2.522   1.313  0.1858  0.8101 -1.0193
  104HFI     F1 1729  -0.247   2.618   1.366  0.2830  0.3768 -0.3099
  104HFI     F2 1730  -0.233   2.413   1.362 -0.2978  0.2718  0.1715
  104HFI     F3 1731  -0.200   2.517   1.179 -0.0648  0.4905 -0.0653
  104HFI     C3 1732   0.011   2.507   1.514 -0.2915 -0.1415 -0.4510
  104HFI     F4 1733   0.137   2.537   1.534 -0.1630  0.2772  0.2273
  104HFI     F5 1734  -0.013   2.381   1.558 -0.2936  0.0392 -0.1321
  104HFI     F6 1735  -0.057   2.594   1.595 -0.1268  0.2912  0.1689
  104HFI     H1 1736  -0.033   2.736   1.385  1.1720 -0.0257  0.6115
  104HFI     H2 1737   0.040   2.463   1.312  2.2545  0.5100  0.0818
  105HFI     O1 1738   2.328   2.665   3.013  0.8808  0.2032  0.3748
  105HFI     C1 1739   2.238   2.696   2.904 -0.6736 -0.2098  1.4093
  105HFI     C2 1740   2.193   2.580   2.813  0.6679  0.1113 -0.1407
  105HFI     F1 1741   2.291   2.493   2.783  0.1147 -0.3383  0.6412
  105HFI     F2 1742   2.143   2.617   2.691 -0.0368  0.1542  0.1528
  105HFI     F3 1743   2.103   2.497   2.870 -0.0677 -0.5360  0.7185
  105HFI     C3 1744   2.306   2.809   2.818 -0.1166 -0.0774 -0.8849
  105HFI     F4 1745   2.223   2.868   2.736 -0.1419  0.0314  0.0525
  105HFI     F5 1746   2.417   2.766   2.753 -0.6143  0.1034 -0.4291
  105HFI     F6 1747   2.351   2.903   2.904  0.1522 -0.0301  0.4998
  105HFI     H1 1748   2.404   2.611   2.988  0.4598 -0.4185  0.4348
  105HFI     H2 1749   2.147   2.746   2.940 -0.6132  1.7006 -0.9142
  106HFI     O1 1750   2.489   2.971   3.172  0.1002 -0.1499 -0.2114
  106HFI     C1 1751   2.631   3.009   3.136 -0.2186 -0.7743  0.8457
  106HFI     C2 1752   2.629   3.157   3.109 -0.3110  0.0577  0.2174
  106HFI     F1 1753   2.743   3.209   3.057 -0.2987  0.1697 -0.2712
  106HFI     F2 1754   2.615   3.216   3.226  0.5699  0.3608 -0.0581
  106HFI     F3 1755   2.516   3.197   3.037 -0.0039  0.4639  0.9202
  106HFI     C3 1756   2.681   2.934   3.012  0.5323  0.3131 -0.0885
  106HFI     F4 1757   2.636   2.802   3.018  0.1212  0.1893  0.4004
  106HFI     F5 1758   2.805   2.940   2.998  0.2061 -0.1567 -0.1397
  106HFI     F6 1759   2.632   2.983   2.893  0.2187  0.5292 -0.2454
  106HFI     H1 1760   2.427   3.001   3.103 -0.3788  0.7544  0.6009
  106HFI     H2 1761   2.703   2.991   3.216 -0.4575 -1.9251  0.8125
  107HFI     O1 1762   0.767   1.103   0.921  0.2263  0.0912  0.2186
  107HFI     C1 1763   0.779   1.237   0.874  0.0929 -0.5344 -0.1695
  107HFI     C2 1764   0.857   1.244   0.739  0.6028 -0.4896  0.2460
  107HFI     F1 1765   0.817   1.143   0.659  0.1607 -0.1737 -0.2796
  107HFI     F2 1766   0.989   1.225   0.757  0.2259 -0.2541  0.0988
  107HFI     F3 1767   0.841   1.361   0.668  0.8816 -0.2362  0.2399
  107HFI     C3 1768   0.821   1.341   0.982 -0.4410  1.1028  0.8328
  107HFI     F4 1769   0.736   1.338   1.082  0.0522 -0.1553  0.4357
  107HFI     F5 1770   0.834   1.469   0.936  0.5886 -0.3226  0.2919
  107HFI     F6 1771   0.944   1.303   1.035 -0.0091  0.4289 -0.0069
  107HFI     H1 1772   0.736   1.105   1.014 -0.9710  3.6181 -0.1967
  107HFI     H2 1773   0.679   1.275   0.851 -0.2135 -0.7722  0.7573
  108HFI     O1 1774   0.747   1.135   3.523  0.1482  0.1913 -0.0226
  108HFI     C1 1775   0.830   1.254   3.513 -0.4417 -0.0017 -0.4595
  108HFI     C2 1776   0.770   1.365   3.420 -0.7336 -1.2180  0.2243
  108HFI     F1 1777   0.638   1.370   3.450  0.1994  0.4528 -0.2707
  108HFI     F2 1778   0.778   1.319   3.294 -0.3145 -0.2952  0.6472
  108HFI     F3 1779   0.822   1.487   3.433  0.0801 -0.1734  0.2101
  108HFI     C3 1780   0.980   1.218   3.493 -0.2184 -0.1908 -0.2351
  108HFI     F4 1781   1.029   1.159   3.596 -0.0412  0.0786  0.1542
  108HFI     F5 1782   1.053   1.333   3.484  0.6693  0.5965 -0.3937
  108HFI     F6 1783   0.997   1.143   3.379  0.4702  0.3326  0.4075
  108HFI     H1 1784   0.655   1.145   3.494 -1.5355 -2.7399  3.8101
  108HFI     H2 1785   0.828   1.291   3.616 -1.8868  1.1372 -0.8808
  109HFI     O1 1786   0.803   2.476   2.767 -0.0092 -0.0421 -0.4319
  109HFI     C1 1787   0.882   2.575   2.841 -0.3187 -0.4220  0.5751
  109HFI     C2 1788   0.992   2.512   2.927 -0.3557  0.3984  0.0986
  109HFI     F1 1789   1.081   2.454   2.837  0.3360 -0.1047  0.0130
  109HFI     F2 1790   0.947   2.418   3.009 -0.1783 -0.0260 -0.4317
  109HFI     F3 1791   1.058   2.609   2.992  0.6638 -0.2681 -0.5440
  109HFI     C3 1792   0.786   2.670   2.921 -0.6328  0.3901  0.2830
  109HFI     F4 1793   0.860   2.766   2.972  0.1277  0.3096  0.1857
  109HFI     F5 1794   0.725   2.621   3.026 -0.3414 -0.2542  0.2813
  109HFI     F6 1795   0.702   2.721   2.833  0.8753  0.1422  0.3319
  109HFI     H1 1796   0.768   2.411   2.830  0.8033 -0.7109 -0.6596
  109HFI     H2 1797   0.933   2.645   2.774  2.2845 -0.4516  2.4317
  110HFI     O1 1798   1.544   1.626   2.737 -0.4156 -0.4011  0.0028
  110HFI     C1 1799   1.414   1.626   2.808 -0.7261  0.0571 -0.3125
  110HFI     C2 1800   1.314   1.522   2.749  0.3211 -0.4310 -0.0175
  110HFI     F1 1801   1.213   1.569   2.665  0.2749 -0.1950 -0.0751
  110HFI     F2 1802   1.251   1.470   2.859 -0.5412 -0.5870 -0.0657
  110HFI     F3 1803   1.371   1.424   2.679  0.1118  0.0170  0.4352
  110HFI     C3 1804   1.348   1.768   2.825 -0.4035  0.1433 -0.7037
  110HFI     F4 1805   1.250   1.765   2.921  0.2126  0.1726  0.0294
  110HFI     F5 1806   1.305   1.818   2.704 -0.1075  0.1515 -0.2084
  110HFI     F6 1807   1.442   1.855   2.864 -0.5930  0.5081  0.1010
  110HFI     H1 1808   1.600   1.701   2.763  0.2607 -1.0332  0.3811
  110HFI     H2 1809   1.430   1.601   2.914  0.2098  1.1582 -0.1903
  111HFI     O1 1810   1.629   0.394   1.316 -0.1326  0.9330  0.2477
  111HFI     C1 1811   1.619   0.497   1.421 -0.2325  0.2594  0.1649
  111HFI     C2 1812   1.747   0.501   1.505  0.1761  0.8801  0.6568
  111HFI     F1 1813   1.796   0.373   1.532 -0.1546 -0.2390  0.0228
  111HFI     F2 1814   1.734   0.577   1.619  0.9027 -0.2480 -0.3324
  111HFI     F3 1815   1.841   0.556   1.422 -0.0506 -0.4528 -0.4126
  111HFI     C3 1816   1.493   0.474   1.508 -0.4664 -0.4353  0.6576
  111HFI     F4 1817   1.472   0.573   1.585 -0.4776 -0.2882  0.1595
  111HFI     F5 1818   1.506   0.368   1.583 -0.6462  0.0557 -0.1848
  111HFI     F6 1819   1.383   0.461   1.429 -0.0843  0.5981 -0.1052
  111HFI     H1 1820   1.718   0.392   1.276 -0.7030 -2.0767 -1.0494
  111HFI     H2 1821   1.600   0.588   1.362  1.6734 -1.1038 -2.6230
  112HFI     O1 1822   3.042   0.316   2.954 -0.2711  0.0180  0.1119
  112HFI     C1 1823   3.191   0.335   2.945  0.0079 -0.2452  0.1761
  112HFI     C2 1824   3.230   0.452   2.848  0.1747  0.0532 -0.7231
  112HFI     F1 1825   3.185   0.443   2.716 -0.1968  0.4217  0.5577
  112HFI     F2 1826   3.363   0.470   2.839 -0.4052  0.2248  0.2431
  112HFI     F3 1827   3.182   0.566   2.901 -0.2791  0.0193  0.3435
  112HFI     C3 1828   3.262   0.201   2.898  0.1286  0.6260 -0.2781
  112HFI     F4 1829   3.397   0.199   2.916 -0.5731 -0.7295 -0.0363
  112HFI     F5 1830   3.242   0.165   2.765 -0.3411  0.4475 -0.1611
  112HFI     F6 1831   3.222   0.104   2.981  0.1683 -0.4568  0.0992
  112HFI     H1 1832   3.008   0.403   2.981 -1.0376 -0.6132  1.2213
  112HFI     H2 1833   3.231   0.363   3.043  2.7016  0.3739 -1.0569
  113HFI     O1 1834   2.041   1.559   1.294 -0.9511 -0.5420  0.7743
  113HFI     C1 1835   1.919   1.584   1.375 -0.0311  0.0874 -0.6907
  113HFI     C2 1836   1.924   1.533   1.521  0.7705  0.0056 -0.7852
  113HFI     F1 1837   2.008   1.610   1.596 -0.5390 -0.2434  0.5233
  113HFI     F2 1838   1.966   1.406   1.528 -0.1486 -0.2897  0.5259
  113HFI     F3 1839   1.802   1.539   1.582 -0.4999  0.0992  0.2148
  113HFI     C3 1840   1.789   1.547   1.289 -0.1014  1.1338  0.0121
  113HFI     F4 1841   1.765   1.417   1.304 -0.3241 -0.8156 -0.1036
  113HFI     F5 1842   1.821   1.569   1.160 -0.6102 -0.0662  0.3016
  113HFI     F6 1843   1.679   1.620   1.329 -0.1511 -0.5359  0.1442
  113HFI     H1 1844   2.021   1.552   1.199  1.0357  1.3193  0.1853
  113HFI     H2 1845   1.932   1.693   1.385  1.9835 -0.2948  1.3269
  114HFI     O1 1846   0.677   0.530   3.316  0.6612 -0.3939  0.2209
  114HFI     C1 1847   0.717   0.671   3.302  0.1605  0.1771  1.1273
  114HFI     C2 1848   0.864   0.683   3.332  0.0443  0.0688 -0.3993
  114HFI     F1 1849   0.909   0.629   3.456  0.1128 -0.0038  0.1943
  114HFI     F2 1850   0.905   0.816   3.348  0.1345 -0.3069  0.2302
  114HFI     F3 1851   0.944   0.630   3.241  0.1812 -0.2296  0.1524
  114HFI     C3 1852   0.622   0.752   3.391 -0.3310 -0.6144 -0.3981
  114HFI     F4 1853   0.653   0.747   3.519 -0.2795  0.1872 -0.1562
  114HFI     F5 1854   0.493   0.719   3.370  0.1496  0.4703  0.5747
  114HFI     F6 1855   0.629   0.877   3.352 -0.3337 -0.2497  0.3063
  114HFI     H1 1856   0.584   0.538   3.343  0.5258  0.8502 -0.5296
  114HFI     H2 1857   0.705   0.692   3.195  3.8391  0.4317  0.7203
  115HFI     O1 1858   1.358   1.591   1.544 -0.4800 -0.4264  0.5359
  115HFI     C1 1859   1.346   1.450   1.534 -0.7243  0.4578 -0.2400
  115HFI     C2 1860   1.422   1.394   1.411 -0.7825  0.1174 -0.0365
  115HFI     F1 1861   1.375   1.273   1.364  0.5688  0.0768  0.2470
  115HFI     F2 1862   1.554   1.372   1.439 -0.2254 -0.0872 -0.3379
  115HFI     F3 1863   1.418   1.479   1.304 -0.0256 -0.2775  0.2895
  115HFI     C3 1864   1.192   1.409   1.533 -0.8050 -0.2814  0.0117
  115HFI     F4 1865   1.124   1.491   1.617  0.0432  0.5187 -0.0233
  115HFI     F5 1866   1.177   1.279   1.562  0.1213  0.1850  0.2150
  115HFI     F6 1867   1.139   1.421   1.411 -0.0204  0.1121 -0.2116
  115HFI     H1 1868   1.407   1.617   1.463 -2.1993 -0.4061 -0.5123
  115HFI     H2 1869   1.387   1.415   1.630 -1.5792  2.5398  0.9200
  116HFI     O1 1870   2.657   0.040   0.686  0.2154 -0.6163  0.5496
  116HFI     C1 1871   2.513   0.014   0.693 -0.5158  0.0120 -0.1622
  116HFI     C2 1872   2.439   0.033   0.564  0.1285  0.0764  0.1681
  116HFI     F1 1873   2.463  -0.070   0.477 -0.4524 -0.1041  0.2792
  116HFI     F2 1874   2.491   0.139   0.496  1.2611  0.2485 -0.1943
  116HFI     F3 1875   2.305   0.051   0.567  0.4027  0.8630  0.1862
  116HFI     C3 1876   2.446   0.082   0.817 -0.5722 -0.0908 -0.4658
  116HFI     F4 1877   2.332   0.024   0.855 -0.1441  0.3288 -0.1148
  116HFI     F5 1878   2.419   0.209   0.796  0.3396 -0.2960 -0.0040
  116HFI     F6 1879   2.536   0.080   0.919 -0.2212 -0.3625  0.0284
  116HFI     H1 1880   2.686   0.080   0.602  0.7743 -0.4165  0.8339
  116HFI     H2 1881   2.508  -0.095   0.711  1.6477 -0.0180  0.3568
  117HFI     O1 1882   3.400   1.829   1.555 -0.3508 -0.0417  0.3363
  117HFI     C1 1883   3.291   1.896   1.484 -0.2808  0.4663 -0.0375
  117HFI     C2 1884   3.285   2.049   1.523 -0.2922 -0.2382 -0.2065
  117HFI     F1 1885   3.289   2.123   1.411  0.1441  0.2485 -0.8182
  117HFI     F2 1886   3.395   2.087   1.598  0.0379  0.1350 -0.2210
  117HFI     F3 1887   3.184   2.092   1.590 -0.1400 -0.0884 -0.4598
  117HFI     C3 1888   3.155   1.824   1.486  0.6140  0.3806 -0.2732
  117HFI     F4 1889   3.162   1.712   1.412  1.0346  0.3926  0.1925
  117HFI     F5 1890   3.054   1.900   1.435 -0.0840  0.3835  0.3711
  117HFI     F6 1891   3.117   1.784   1.609  0.6047  0.1835 -0.2983
  117HFI     H1 1892   3.470   1.895   1.565 -0.6855  0.7047 -1.7761
  117HFI     H2 1893   3.314   1.899   1.377 -1.0531 -0.5644 -0.2317
  118HFI     O1 1894   2.714   2.275   2.250  0.7786  0.5235 -0.7512
  118HFI     C1 1895   2.636   2.398   2.243  0.1474 -0.2266  0.4530
  118HFI     C2 1896   2.715   2.522   2.282  0.2892 -0.3999  0.6468
  118HFI     F1 1897   2.738   2.518   2.407 -0.0648 -0.4295  0.1436
  118HFI     F2 1898   2.657   2.641   2.237  0.5456 -0.1045 -0.0273
  118HFI     F3 1899   2.833   2.523   2.214  0.0474 -0.4274 -0.1482
  118HFI     C3 1900   2.510   2.392   2.345 -0.5350  0.0616  0.1476
  118HFI     F4 1901   2.448   2.512   2.367  0.4100  0.0486  0.2894
  118HFI     F5 1902   2.545   2.351   2.465 -1.1108 -0.1348 -0.0877
  118HFI     F6 1903   2.408   2.313   2.283  0.2412 -0.3995 -0.3589
  118HFI     H1 1904   2.803   2.307   2.275 -0.5979  3.0649  1.1671
  118HFI     H2 1905   2.594   2.411   2.143  1.4963  0.3868 -0.0488
  119HFI     O1 1906   2.356   1.077   0.776  0.3868  0.1505  0.1195
  119HFI     C1 1907   2.323   1.121   0.914 -0.3497 -0.1284 -0.4461
  119HFI     C2 1908   2.171   1.112   0.933 -0.3673  0.2919  0.1133
  119HFI     F1 1909   2.133   1.128   1.066 -0.7663 -0.1032 -0.0805
  119HFI     F2 1910   2.121   0.989   0.891  0.0433  0.4393 -0.4065
  119HFI     F3 1911   2.113   1.203   0.853  0.3325  0.2938  1.0301
  119HFI     C3 1912   2.380   1.267   0.952 -0.3455  0.9398 -0.6051
  119HFI     F4 1913   2.516   1.253   0.961  0.4772 -0.2856  0.2437
  119HFI     F5 1914   2.338   1.308   1.077  0.0212  0.2784  0.6072
  119HFI     F6 1915   2.364   1.359   0.854  0.3103  0.1110 -0.3545
  119HFI     H1 1916   2.320   1.146   0.718 -0.2368  0.1256  0.4739
  119HFI     H2 1917   2.370   1.051   0.984  2.2883 -0.0186 -2.0679
  120HFI     O1 1918   0.502   0.921   2.577 -0.7327 -0.5008  0.6932
  120HFI     C1 1919   0.446   0.912   2.714  0.8292 -0.5328 -0.5473
  120HFI     C2 1920   0.319   1.004   2.734  0.7373 -0.4778 -0.8820
  120HFI     F1 1921   0.347   1.130   2.710 -0.1232  0.1001 -0.0931
  120HFI     F2 1922   0.271   1.006   2.860  0.3397  0.1458  0.3558
  120HFI     F3 1923   0.212   0.979   2.655 -0.0365 -0.2567  0.2638
  120HFI     C3 1924   0.561   0.940   2.808 -0.9952  0.0833 -0.9786
  120HFI     F4 1925   0.596   1.070   2.802  0.0295 -0.8878 -0.5430
  120HFI     F5 1926   0.669   0.866   2.779  0.4407  0.1173  0.1455
  120HFI     F6 1927   0.523   0.910   2.936  0.2471 -0.3403  0.3694
  120HFI     H1 1928   0.456   0.993   2.531  1.2769 -0.3074 -1.0630
  120HFI     H2 1929   0.418   0.807   2.729 -1.7067  0.2977  0.8044
  121HFI     O1 1930   0.918   1.622   2.464  0.1219 -0.3556 -0.4521
  121HFI     C1 1931   0.978   1.729   2.375 -0.8134  0.2528  0.9377
  121HFI     C2 1932   0.866   1.796   2.291  0.1543 -0.1452 -0.1741
  121HFI     F1 1933   0.809   1.707   2.203 -0.5248 -0.0604 -0.4785
  121HFI     F2 1934   0.919   1.899   2.224  0.0508 -0.0398 -0.1060
  121HFI     F3 1935   0.760   1.848   2.361 -0.1971  0.2069 -1.1251
  121HFI     C3 1936   1.092   1.666   2.285 -0.1175 -0.4321  0.6606
  121HFI     F4 1937   1.044   1.558   2.218  0.0649 -0.3344 -0.0661
  121HFI     F5 1938   1.193   1.627   2.369 -0.0259  0.6337  0.1240
  121HFI     F6 1939   1.147   1.750   2.196  0.4086  0.6001  0.4983
  121HFI     H1 1940   0.901   1.547   2.403  0.5378  0.0073 -1.0189
  121HFI     H2 1941   1.023   1.810   2.433  1.4556 -1.1162  1.1809
  122HFI     O1 1942   2.208   1.703   2.334 -0.3825 -1.0111 -0.1901
  122HFI     C1 1943   2.084   1.670   2.267  0.2138  0.2448 -0.1613
  122HFI     C2 1944   1.974   1.770   2.308  0.3402 -0.8721  0.1464
  122HFI     F1 1945   1.999   1.891   2.262 -0.0245  0.0684 -0.3381
  122HFI     F2 1946   1.966   1.782   2.439 -0.1337  0.0162  0.3494
  122HFI     F3 1947   1.853   1.741   2.261 -0.3987  0.2591 -0.3023
  122HFI     C3 1948   2.055   1.521   2.279  0.2851 -0.3030  0.3203
  122HFI     F4 1949   2.064   1.479   2.408 -0.5742 -0.1526  0.1169
  122HFI     F5 1950   2.149   1.456   2.210  0.0193 -0.4631 -0.3689
  122HFI     F6 1951   1.928   1.495   2.241  0.2860 -0.0197 -0.2023
  122HFI     H1 1952   2.245   1.623   2.374 -1.6383 -0.3152  2.4901
  122HFI     H2 1953   2.112   1.685   2.162  1.5840 -2.2458 -0.1768
  123HFI     O1 1954   0.688   0.977   0.351 -0.2282 -0.3263  0.1050
  123HFI     C1 1955   0.734   1.059   0.240  0.1142 -0.3024  0.3648
  123HFI     C2 1956   0.746   0.978   0.111 -0.8420 -0.2256 -0.6376
  123HFI     F1 1957   0.812   0.860   0.137 -0.6304 -0.4057 -0.4917
  123HFI     F2 1958   0.810   1.044   0.012 -0.0514  0.1345  0.0731
  123HFI     F3 1959   0.621   0.940   0.076 -0.4717 -0.5622 -0.0553
  123HFI     C3 1960   0.875   1.129   0.274  0.0604 -0.3124 -0.2399
  123HFI     F4 1961   0.975   1.032   0.275  0.7422  0.3093 -0.3934
  123HFI     F5 1962   0.888   1.185   0.393  0.0375 -0.2585 -0.1793
  123HFI     F6 1963   0.917   1.214   0.183 -0.2058  0.0512  0.5224
  123HFI     H1 1964   0.747   0.901   0.361  1.3731  0.5291 -2.3172
  123HFI     H2 1965   0.661   1.140   0.226  1.7991  1.2566  0.3918
  124HFI     O1 1966   0.276   2.551   2.472  0.0059  0.0097  0.3244
  124HFI     C1 1967   0.292   2.490   2.604 -0.4802 -0.0545 -1.0478
  124HFI     C2 1968   0.158   2.494   2.691 -0.0155  0.2554  0.5804
  124HFI     F1 1969   0.056   2.441   2.615  0.4196 -0.3939 -0.4052
  124HFI     F2 1970   0.124   2.621   2.720  0.1997  0.5965  0.1991
  124HFI     F3 1971   0.168   2.427   2.810  0.9186 -0.0095 -0.6383
  124HFI     C3 1972   0.418   2.554   2.683 -0.0543 -0.3742 -0.3957
  124HFI     F4 1973   0.434   2.502   2.807 -0.0532 -0.1825 -0.2296
  124HFI     F5 1974   0.414   2.690   2.690 -0.6186  0.1278  1.0571
  124HFI     F6 1975   0.532   2.520   2.617  0.2545 -0.1261 -0.1446
  124HFI     H1 1976   0.228   2.634   2.480 -1.8333 -0.9842 -0.1628
  124HFI     H2 1977   0.299   2.380   2.599 -0.7726 -0.2988  2.3790
  125HFI     O1 1978   0.089   1.401   1.289 -0.1252  0.3965  0.1401
  125HFI     C1 1979   0.201   1.482   1.350  1.3221 -0.4969 -0.1805
  125HFI     C2 1980   0.345   1.438   1.290 -0.3481  0.3479  0.4016
  125HFI     F1 1981   0.440   1.481   1.370  0.7126  0.7443  0.2048
  125HFI     F2 1982   0.364   1.490   1.163  0.9136  0.2108 -0.1279
  125HFI     F3 1983   0.355   1.302   1.279  0.0853  0.0427  0.7516
  125HFI     C3 1984   0.197   1.469   1.508 -0.3906  0.6209 -0.0026
  125HFI     F4 1985   0.272   1.566   1.567  0.3914  0.1894  0.1059
  125HFI     F5 1986   0.246   1.346   1.548  0.1571  0.0326 -0.6137
  125HFI     F6 1987   0.066   1.485   1.554 -0.3285  0.3373 -0.0835
  125HFI     H1 1988   0.022   1.382   1.357  0.7719 -1.0000  0.6557
  125HFI     H2 1989   0.178   1.589   1.341  1.3167 -0.3978  0.8479
  126HFI     O1 1990   3.038   2.210   2.315  0.3873 -0.5402  0.3604
  126HFI     C1 1991   3.098   2.099   2.394  0.5312 -0.2145 -0.0703
  126HFI     C2 1992   3.195   2.145   2.506  0.8536 -0.0598  0.5861
  126HFI     F1 1993   3.309   2.196   2.467  0.2705  0.6121 -0.5037
  126HFI     F2 1994   3.225   2.048   2.594 -0.2656 -0.3301  0.2056
  126HFI     F3 1995   3.133   2.247   2.571 -0.1956 -0.1389  0.1101
  126HFI     C3 1996   3.171   1.997   2.295  0.2995 -0.2139 -0.0890
  126HFI     F4 1997   3.081   1.926   2.222  0.0140  0.1228 -0.5295
  126HFI     F5 1998   3.253   1.913   2.366 -0.2613  0.7813  0.2250
  126HFI     F6 1999   3.239   2.079   2.211 -0.0483  0.1959 -0.1515
  126HFI     H1 2000   3.115   2.269   2.306  0.0020  0.0039  0.5964
  126HFI     H2 2001   3.017   2.043   2.442  0.6065  0.4628  0.8656
  127HFI     O1 2002   0.948   2.631   0.075  0.4086 -0.1268 -0.2114
  127HFI     C1 2003   1.045   2.620  -0.033  0.5523 -0.0277 -0.6872
  127HFI     C2 2004   1.118   2.755  -0.051  1.2214 -0.8398 -0.0372
  127HFI     F1 2005   1.153   2.798   0.071  0.3524  0.3714 -0.2445
  127HFI     F2 2006   1.039   2.854  -0.099 -0.3965  0.1650  0.0506
  127HFI     F3 2007   1.226   2.745  -0.126  0.1186 -0.3694  0.5208
  127HFI     C3 2008   0.974   2.568  -0.159 -0.3025 -0.0238  0.1004
  127HFI     F4 2009   0.868   2.645  -0.187 -0.0388 -0.0176  0.4476
  127HFI     F5 2010   0.925   2.445  -0.145 -0.1236  0.0903  0.4830
  127HFI     F6 2011   1.055   2.567  -0.269  0.0799  0.2915 -0.1394
  127HFI     H1 2012   0.900   2.715   0.064  0.7210  0.1642  0.5775
  127HFI     H2 2013   1.125   2.546  -0.013  1.0193 -0.0579 -2.5789
  128HFI     O1 2014   0.408   2.875   2.307 -0.4573 -0.3956 -1.3128
  128HFI     C1 2015   0.306   2.964   2.251  0.8265 -0.1366  0.1338
  128HFI     C2 2016   0.344   3.103   2.277  0.4184  0.0255  0.0642
  128HFI     F1 2017   0.479   3.122   2.261 -0.3305 -0.1073  0.3318
  128HFI     F2 2018   0.321   3.142   2.399 -0.3517  0.3844 -0.5955
  128HFI     F3 2019   0.281   3.189   2.197 -0.3878 -0.0555  0.3900
  128HFI     C3 2020   0.158   2.931   2.287 -0.0931 -0.7171  0.1742
  128HFI     F4 2021   0.140   2.807   2.235 -0.3546  0.1898  0.4150
  128HFI     F5 2022   0.071   3.018   2.221 -0.4319  0.0719 -0.3468
  128HFI     F6 2023   0.132   2.941   2.418  0.1496 -0.0133 -0.7739
  128HFI     H1 2024   0.494   2.895   2.265  0.2836 -3.0888 -1.1614
  128HFI     H2 2025   0.308   2.951   2.142 -2.1047  1.8499 -0.1981
  129HFI     O1 2026   0.397   2.977   2.631  0.2520  0.0160  0.3437
  129HFI     C1 2027   0.433   3.105   2.693  0.2199  0.3114 -0.1311
  129HFI     C2 2028   0.567   3.104   2.782 -0.5326  0.3131  0.8065
  129HFI     F1 2029   0.547   3.057   2.910  0.0889 -0.2191  0.0151
  129HFI     F2 2030   0.615   3.229   2.796  0.0132  0.1578  0.0929
  129HFI     F3 2031   0.664   3.028   2.727 -0.5709  0.0190  0.0418
  129HFI     C3 2032   0.317   3.161   2.779  0.2209  0.0939 -0.6960
  129HFI     F4 2033   0.275   3.066   2.870 -0.0810 -0.0333 -0.4395
  129HFI     F5 2034   0.212   3.181   2.701 -0.9424  0.2873 -0.9149
  129HFI     F6 2035   0.342   3.284   2.838  0.1725  0.1125 -0.3340
  129HFI     H1 2036   0.362   2.912   2.694  0.5030 -0.5264 -0.0714
  129HFI     H2 2037   0.448   3.184   2.618 -0.9997 -1.0294 -1.8394
  130HFI     O1 2038   0.418   3.146   1.429  0.4464 -0.1219 -0.4017
  130HFI     C1 2039   0.421   3.010   1.482 -0.3453 -0.0696 -0.1981
  130HFI     C2 2040   0.569   2.963   1.512 -0.0589 -0.0036  0.1401
  130HFI     F1 2041   0.640   2.972   1.400  0.4892 -0.4497 -0.1015
  130HFI     F2 2042   0.566   2.838   1.565  0.4483  0.2621  0.6183
  130HFI     F3 2043   0.617   3.048   1.601  0.4500 -0.2954 -0.2946
  130HFI     C3 2044   0.348   2.918   1.384  0.2244  0.6141  0.0992
  130HFI     F4 2045   0.353   2.789   1.431 -0.2570 -0.0837 -0.3184
  130HFI     F5 2046   0.404   2.923   1.261  0.1359  0.0809 -0.1697
  130HFI     F6 2047   0.219   2.944   1.374  0.0852 -0.3281 -0.3040
  130HFI     H1 2048   0.461   3.159   1.343 -0.5916 -0.1141 -0.9298
  130HFI     H2 2049   0.372   3.002   1.580  1.0448 -0.3440  0.4834
  131HFI     O1 2050   0.114   3.188   0.874  0.7877 -0.9238 -0.7902
  131HFI     C1 2051   0.218   3.274   0.932  0.3455 -0.6142 -0.1809
  131HFI     C2 2052   0.301   3.344   0.818 -0.0361  0.0218  0.5910
  131HFI     F1 2053   0.370   3.259   0.742  0.2670  0.6880 -0.0950
  131HFI     F2 2054   0.388   3.436   0.871  0.5379 -0.4113  0.5281
  131HFI     F3 2055   0.219   3.418   0.743  0.3471  0.0550  0.1994
  131HFI     C3 2056   0.317   3.199   1.029 -0.1084 -0.9016  0.1290
  131HFI     F4 2057   0.392   3.107   0.965  0.7378  0.1910  0.4140
  131HFI     F5 2058   0.244   3.134   1.123  0.2989 -0.4015 -0.5121
  131HFI     F6 2059   0.399   3.280   1.097 -0.5491 -0.2651 -0.1388
  131HFI     H1 2060   0.133   3.094   0.887 -2.0957 -1.1452  2.4077
  131HFI     H2 2061   0.166   3.355   0.985  0.2658 -1.1916  0.6272
  132HFI     O1 2062   2.532   2.388   0.049 -0.6740  0.3913  0.4051
  132HFI     C1 2063   2.548   2.538   0.050 -0.4298 -0.8381  0.1790
  132HFI     C2 2064   2.568   2.595   0.196  0.1026 -0.3909 -0.3761
  132HFI     F1 2065   2.581   2.729   0.199 -0.4354  0.0372 -0.3706
  132HFI     F2 2066   2.676   2.548   0.249 -0.0501  0.0978 -0.4082
  132HFI     F3 2067   2.465   2.552   0.273 -0.0581 -0.1770  0.3140
  132HFI     C3 2068   2.427   2.607  -0.019  0.1941  0.5822 -0.0789
  132HFI     F4 2069   2.456   2.730  -0.069  0.2688  0.3787 -0.0528
  132HFI     F5 2070   2.313   2.608   0.054 -0.2431  0.0714 -0.2963
  132HFI     F6 2071   2.398   2.522  -0.119  0.3731  0.1015  0.5759
  132HFI     H1 2072   2.448   2.375  -0.000  0.6850 -1.1051 -1.5906
  132HFI     H2 2073   2.632   2.568  -0.015  0.9538 -1.1122  1.8154
  133HFI     O1 2074   2.345   0.728   3.146 -0.3014 -0.0123  0.0493
  133HFI     C1 2075   2.416   0.649   3.241  0.0600  0.3166 -0.5941
  133HFI     C2 2076   2.520   0.736   3.318  0.4119  0.8393 -0.4934
  133HFI     F1 2077   2.592   0.661   3.414 -0.2021 -0.0150 -0.3141
  133HFI     F2 2078   2.462   0.846   3.372 -0.0693  0.3871 -0.0949
  133HFI     F3 2079   2.611   0.782   3.228  0.0697  0.2802  0.6074
  133HFI     C3 2080   2.473   0.524   3.177  0.1384  0.7862  0.0978
  133HFI     F4 2081   2.535   0.448   3.272  0.3651 -0.4436  0.0454
  133HFI     F5 2082   2.549   0.559   3.066 -0.2684  0.2592 -0.0250
  133HFI     F6 2083   2.377   0.447   3.131 -0.2570  0.1967  0.3014
  133HFI     H1 2084   2.264   0.676   3.132  0.5124 -1.8109  1.7892
  133HFI     H2 2085   2.345   0.608   3.313  0.0039 -0.2255 -0.9608
  134HFI     O1 2086   0.355   3.413   3.210  0.3849  0.2473  0.1091
  134HFI     C1 2087   0.481   3.328   3.200  0.4442 -0.0690  0.2381
  134HFI     C2 2088   0.448   3.187   3.245  0.0772  0.2758 -0.2049
  134HFI     F1 2089   0.363   3.123   3.164 -0.1410  0.3937  0.0213
  134HFI     F2 2090   0.386   3.182   3.359 -0.5239 -0.2268 -0.3232
  134HFI     F3 2091   0.558   3.107   3.248  0.4316  0.2189  0.2627
  134HFI     C3 2092   0.604   3.388   3.272  0.2232 -0.0222  0.7671
  134HFI     F4 2093   0.617   3.514   3.233 -0.3075  0.1024 -0.1621
  134HFI     F5 2094   0.717   3.319   3.250  0.0321  0.3009  0.1613
  134HFI     F6 2095   0.580   3.388   3.400 -0.3109  0.0632 -0.8786
  134HFI     H1 2096   0.299   3.383   3.137  1.5608 -0.0927 -0.6626
  134HFI     H2 2097   0.508   3.326   3.094  0.0807  2.5181  0.0605
  135HFI     O1 2098   1.989   2.487   2.500  0.3005 -0.6499  1.0829
  135HFI     C1 2099   1.953   2.373   2.409 -0.0415 -0.2533  0.4018
  135HFI     C2 2100   2.081   2.294   2.350 -0.1476 -0.6685 -1.1846
  135HFI     F1 2101   2.142   2.355   2.242  0.5471 -0.4283 -0.6138
  135HFI     F2 2102   2.037   2.173   2.314 -0.1939 -0.2041 -0.0207
  135HFI     F3 2103   2.168   2.282   2.451  0.2485 -0.0777  0.1714
  135HFI     C3 2104   1.858   2.419   2.294 -0.7176  0.0013  1.4182
  135HFI     F4 2105   1.843   2.313   2.211  0.1684 -0.4359 -0.2923
  135HFI     F5 2106   1.906   2.530   2.226  0.3110  0.9940  0.8945
  135HFI     F6 2107   1.731   2.443   2.353 -0.0364  0.1513  0.4264
  135HFI     H1 2108   2.030   2.456   2.582 -0.5567 -2.5851  0.8063
  135HFI     H2 2109   1.897   2.296   2.463  0.0727  0.5540  1.6675
  136HFI     O1 2110   1.595   2.087   2.285  0.1923  0.5867 -0.3638
  136HFI     C1 2111   1.637   1.981   2.378 -0.2469  0.5297  0.6087
  136HFI     C2 2112   1.551   1.852   2.356  0.2715  0.4599  0.0424
  136HFI     F1 2113   1.524   1.832   2.225  0.0496 -0.2388 -0.5414
  136HFI     F2 2114   1.433   1.854   2.424 -0.4787 -0.1109  0.4012
  136HFI     F3 2115   1.616   1.742   2.400 -0.0282  0.3274  0.1025
  136HFI     C3 2116   1.637   2.024   2.533 -0.7782  0.0131 -0.4746
  136HFI     F4 2117   1.712   1.941   2.612  0.7526  0.3874  0.7243
  136HFI     F5 2118   1.514   2.039   2.589  0.6579 -0.2440 -0.1492
  136HFI     F6 2119   1.692   2.145   2.542 -0.8071  0.1337  0.0631
  136HFI     H1 2120   1.535   2.060   2.214 -2.0306  0.6966  1.4183
  136HFI     H2 2121   1.741   1.956   2.354 -0.6410  0.3236 -0.9990
  137HFI     O1 2122   3.004   0.245   2.516 -0.0768  0.5432  0.0753
  137HFI     C1 2123   2.950   0.326   2.408 -0.5201 -0.1099 -0.1540
  137HFI     C2 2124   2.927   0.232   2.283  0.1605 -0.2813 -0.3077
  137HFI     F1 2125   2.853   0.287   2.184  0.1235  0.0193 -0.0153
  137HFI     F2 2126   2.859   0.122   2.316  0.1504 -0.4138  0.0306
  137HFI     F3 2127   3.038   0.186   2.222 -0.6533 -0.0790 -0.6826
  137HFI     C3 2128   3.051   0.442   2.372  0.2186  0.1759 -0.2486
  137HFI     F4 2129   3.028   0.537   2.458  0.2377  0.3103  0.6411
  137HFI     F5 2130   3.038   0.491   2.250  0.2183  0.1285  0.6080
  137HFI     F6 2131   3.177   0.401   2.392  0.7235  0.1139  0.3418
  137HFI     H1 2132   3.052   0.165   2.487  0.0213  0.5952  0.0941
  137HFI     H2 2133   2.868   0.382   2.453 -0.3594 -0.0948  0.1219
  138HFI     O1 2134   1.487   1.179   2.491  0.3952  0.7329  0.1888
  138HFI     C1 2135   1.506   1.296   2.409  0.0647  0.3687 -0.4748
  138HFI     C2 2136   1.386   1.315   2.317 -0.0959 -0.0090 -1.1677
  138HFI     F1 2137   1.279   1.317   2.402 -0.2254  0.2241  0.6000
  138HFI     F2 2138   1.378   1.222   2.216  0.2477  0.2156 -0.3969
  138HFI     F3 2139   1.396   1.434   2.261  0.2405  0.3269  0.2352
  138HFI     C3 2140   1.650   1.318   2.359  0.3627  0.1096 -0.1128
  138HFI     F4 2141   1.725   1.398   2.449 -0.1232 -0.0919  0.0225
  138HFI     F5 2142   1.653   1.366   2.235 -0.5338 -0.4995 -0.2302
  138HFI     F6 2143   1.711   1.194   2.355 -0.0255  0.1596 -0.1056
  138HFI     H1 2144   1.397   1.144   2.475  1.1339 -1.1475  0.0436
  138HFI     H2 2145   1.498   1.382   2.478  0.3689 -0.6844  0.9057
  139HFI     O1 2146   0.653   0.417   2.396 -0.3460 -0.3611 -0.9224
  139HFI     C1 2147   0.639   0.522   2.293  0.0057  0.4096 -0.1780
  139HFI     C2 2148   0.751   0.620   2.289  0.4032 -0.4032  0.7413
  139HFI     F1 2149   0.773   0.679   2.416 -0.2215  0.6859  0.2246
  139HFI     F2 2150   0.722   0.717   2.202  0.0524 -0.1476 -0.4033
  139HFI     F3 2151   0.863   0.554   2.250 -0.0764 -0.6106  0.4293
  139HFI     C3 2152   0.500   0.593   2.300  0.1381  0.0446  0.6005
  139HFI     F4 2153   0.488   0.693   2.389  0.0292 -0.2046 -0.2564
  139HFI     F5 2154   0.407   0.495   2.333 -0.1336  0.1061 -0.0813
  139HFI     F6 2155   0.471   0.633   2.178 -0.1699  0.0646 -0.0389
  139HFI     H1 2156   0.567   0.381   2.423 -1.7135  2.5488 -1.2698
  139HFI     H2 2157   0.643   0.470   2.197  1.0337 -1.5840  0.9220
  140HFI     O1 2158   0.441   0.301   2.622 -0.2328  0.4424 -0.5869
  140HFI     C1 2159   0.512   0.332   2.747 -0.4728  0.0040 -0.2729
  140HFI     C2 2160   0.524   0.209   2.843  0.4963 -0.0364 -0.8961
  140HFI     F1 2161   0.410   0.181   2.917  0.8746  0.3277  0.3277
  140HFI     F2 2162   0.625   0.225   2.927  0.1013  0.0734 -0.0489
  140HFI     F3 2163   0.543   0.087   2.785  0.4375  0.0001 -0.0390
  140HFI     C3 2164   0.453   0.453   2.805 -0.1272  0.1034  0.4290
  140HFI     F4 2165   0.511   0.487   2.925 -0.2717  0.0315  0.1149
  140HFI     F5 2166   0.320   0.442   2.824  0.0011 -0.3523  0.0251
  140HFI     F6 2167   0.474   0.554   2.723  0.2770  0.7003  0.2058
  140HFI     H1 2168   0.361   0.257   2.653  0.4925 -0.8689 -0.5614
  140HFI     H2 2169   0.618   0.353   2.729 -0.8499  0.7095 -1.7029
  141HFI     O1 2170   1.026   2.832   1.244  0.8221  0.2943  0.7663
  141HFI     C1 2171   0.993   2.917   1.355  1.3138  0.2414 -0.0571
  141HFI     C2 2172   1.112   3.006   1.405  0.5406 -0.0410 -0.4365
  141HFI     F1 2173   1.086   3.072   1.521  0.7894  0.1501 -0.2355
  141HFI     F2 2174   1.157   3.088   1.309 -0.3291 -0.5682 -0.5116
  141HFI     F3 2175   1.214   2.923   1.422 -0.1524  0.0960  0.1012
  141HFI     C3 2176   0.939   2.837   1.475  0.0406 -0.1396 -0.1592
  141HFI     F4 2177   0.830   2.767   1.447 -0.1169 -0.5441  0.2690
  141HFI     F5 2178   0.899   2.912   1.581  0.0776 -0.2730  0.3460
  141HFI     F6 2179   1.028   2.748   1.520 -0.0755  0.1127 -0.0138
  141HFI     H1 2180   1.096   2.776   1.282  1.4779 -0.0666 -0.9619
  141HFI     H2 2181   0.918   2.990   1.324  0.5291 -0.6083 -0.1691
  142HFI     O1 2182   0.077   0.323   0.499  0.6303 -0.5241 -0.1451
  142HFI     C1 2183  -0.061   0.377   0.515 -0.9844  0.7727  0.3563
  142HFI     C2 2184  -0.069   0.458   0.646  1.0328 -0.3458 -0.1004
  142HFI     F1 2185   0.023   0.558   0.658  0.0781  0.6687  0.0753
  142HFI     F2 2186  -0.062   0.392   0.766 -0.2226 -0.2555 -0.0821
  142HFI     F3 2187  -0.191   0.519   0.644  0.1746  0.2646  0.8086
  142HFI     C3 2188  -0.161   0.261   0.500 -0.2743 -0.1846 -1.1659
  142HFI     F4 2189  -0.166   0.168   0.603 -0.2699 -1.0272 -0.3447
  142HFI     F5 2190  -0.132   0.184   0.390  0.0565  0.4376  0.4078
  142HFI     F6 2191  -0.284   0.311   0.488  0.1264 -0.4994  0.5581
  142HFI     H1 2192   0.079   0.249   0.436 -1.2729 -0.0596 -0.7646
  142HFI     H2 2193  -0.095   0.436   0.429 -0.0344 -0.4407 -0.8939
  143HFI     O1 2194   3.080   3.162   3.012  0.1106  0.5968 -0.5165
  143HFI     C1 2195   3.175   3.236   3.082  0.1181  0.2329  1.2185
  143HFI     C2 2196   3.322   3.188   3.052  0.2387 -0.5255  0.4734
  143HFI     F1 2197   3.351   3.202   2.916 -0.3300  0.2251  0.2356
  143HFI     F2 2198   3.330   3.057   3.075  0.1197  0.2462  0.2223
  143HFI     F3 2199   3.424   3.251   3.118  0.0770  0.5107  0.6067
  143HFI     C3 2200   3.151   3.240   3.236 -0.0997  0.2676 -0.0575
  143HFI     F4 2201   3.225   3.337   3.294 -0.2114  0.0715 -0.1567
  143HFI     F5 2202   3.172   3.121   3.305 -0.2893  0.2556  0.8642
  143HFI     F6 2203   3.019   3.275   3.248  0.0681 -0.2121 -0.2082
  143HFI     H1 2204   3.126   3.101   2.952 -0.3519  0.8342 -1.1220
  143HFI     H2 2205   3.167   3.341   3.049 -2.1172 -0.6056 -1.0679
  144HFI     O1 2206   2.327   3.327   2.615 -0.5276  0.3360  0.3920
  144HFI     C1 2207   2.184   3.324   2.653  0.0261  0.0137 -0.2592
  144HFI     C2 2208   2.127   3.470   2.654  0.0728 -0.3453  0.4530
  144HFI     F1 2209   2.005   3.484   2.691  0.5858 -0.1447  0.5238
  144HFI     F2 2210   2.139   3.521   2.528 -0.2901 -0.3885  0.1281
  144HFI     F3 2211   2.206   3.539   2.737 -0.3826 -0.2632  0.0883
  144HFI     C3 2212   2.170   3.257   2.798  0.6409  0.5881 -0.6398
  144HFI     F4 2213   2.045   3.225   2.828  0.0127  0.1159 -0.1441
  144HFI     F5 2214   2.219   3.335   2.895 -0.2391 -0.5319  0.4852
  144HFI     F6 2215   2.237   3.142   2.805 -0.0306 -0.7264 -0.0679
  144HFI     H1 2216   2.366   3.385   2.683  0.2241 -0.0847  0.3207
  144HFI     H2 2217   2.123   3.256   2.593 -0.1155  1.1887 -1.4723
  145HFI     O1 2218   1.834   2.769   3.729  0.5579  0.2779 -0.5297
  145HFI     C1 2219   1.743   2.838   3.822 -0.1337 -1.7565 -0.1588
  145HFI     C2 2220   1.602   2.783   3.823 -0.1883 -0.3262 -0.1930
  145HFI     F1 2221   1.529   2.832   3.921  0.2817 -0.5103  0.2325
  145HFI     F2 2222   1.602   2.650   3.846  0.1134 -0.0184 -0.2195
  145HFI     F3 2223   1.549   2.804   3.703  0.3844  0.5047  0.1808
  145HFI     C3 2224   1.746   3.000   3.804  0.0715  0.0472 -0.8144
  145HFI     F4 2225   1.651   3.070   3.873  0.3557  0.2154 -0.8147
  145HFI     F5 2226   1.731   3.028   3.679  0.2970  0.4543  0.6119
  145HFI     F6 2227   1.865   3.033   3.847 -0.5210  0.4068  0.0651
  145HFI     H1 2228   1.775   2.728   3.664  0.8141 -0.0320 -0.5630
  145HFI     H2 2229   1.776   2.825   3.926  0.7993 -1.1293 -0.3669
  146HFI     O1 2230   1.039   3.168   3.797 -0.1044 -0.0900 -0.7962
  146HFI     C1 2231   1.129   3.162   3.683  0.4958 -0.6390  0.2350
  146HFI     C2 2232   1.276   3.133   3.722 -0.6711 -0.7751  1.1363
  146HFI     F1 2233   1.265   3.035   3.811 -0.0624  0.0044  0.0947
  146HFI     F2 2234   1.333   3.244   3.776  0.1568  0.1629  0.2907
  146HFI     F3 2235   1.350   3.096   3.612  0.2055  0.2576  0.5558
  146HFI     C3 2236   1.116   3.293   3.594  0.0746 -0.4102  0.1528
  146HFI     F4 2237   1.184   3.283   3.485 -0.2231 -0.0573  0.0629
  146HFI     F5 2238   1.159   3.403   3.665  0.5557  0.0734 -0.3124
  146HFI     F6 2239   0.992   3.319   3.557 -0.2548  0.1454 -0.1807
  146HFI     H1 2240   1.069   3.232   3.864  0.4405  0.0150 -1.1357
  146HFI     H2 2241   1.092   3.080   3.621 -0.0899 -0.4195  0.2878
  147HFI     O1 2242   2.815   0.061   0.453  0.5432  0.0131  0.0477
  147HFI     C1 2243   2.790   0.069   0.307  0.0218  0.0266  0.0585
  147HFI     C2 2244   2.922   0.032   0.229  0.3879 -0.5109  0.2793
  147HFI     F1 2245   2.901   0.027   0.101  0.4794 -0.9368  0.0321
  147HFI     F2 2246   2.982  -0.084   0.262 -0.0722 -0.6651 -0.4828
  147HFI     F3 2247   3.021   0.127   0.245  0.4342  0.4385  0.3743
  147HFI     C3 2248   2.734   0.211   0.257  0.3183  0.2605  0.0940
  147HFI     F4 2249   2.755   0.306   0.348 -0.7327 -0.1402  0.4055
  147HFI     F5 2250   2.599   0.194   0.238 -0.2312 -0.2911 -0.1191
  147HFI     F6 2251   2.783   0.264   0.147 -0.2563  0.1082  0.6869
  147HFI     H1 2252   2.904   0.094   0.476  0.0380  2.2142 -1.0707
  147HFI     H2 2253   2.726  -0.004   0.258  0.4513  0.3569 -1.0005
  148HFI     O1 2254   3.063   2.546   2.389  0.3347 -0.2669 -0.1994
  148HFI     C1 2255   3.161   2.605   2.298 -0.9360 -0.3567 -0.0299
  148HFI     C2 2256   3.299   2.534   2.296 -0.6033 -0.0240 -0.6238
  148HFI     F1 2257   3.270   2.401   2.296  0.1220  0.3003  0.1575
  148HFI     F2 2258   3.368   2.557   2.416 -0.1966  0.0316  0.3289
  148HFI     F3 2259   3.379   2.567   2.191 -0.2377  0.0490 -0.5462
  148HFI     C3 2260   3.177   2.759   2.314  0.5445  0.4465  0.3152
  148HFI     F4 2261   3.238   2.819   2.208  0.0375 -0.4055  0.2673
  148HFI     F5 2262   3.248   2.788   2.419 -0.2266  0.1140 -0.1967
  148HFI     F6 2263   3.056   2.810   2.322 -1.2133  0.0795  0.4473
  148HFI     H1 2264   3.054   2.607   2.465  0.1693 -0.4507 -0.0716
  148HFI     H2 2265   3.127   2.606   2.193  2.7469 -1.2388 -1.3209
  149HFI     O1 2266   1.407   1.338   3.250  0.1259  0.1052 -0.0891
  149HFI     C1 2267   1.503   1.237   3.266 -0.1518 -0.7917 -0.2159
  149HFI     C2 2268   1.488   1.163   3.402  0.2040 -0.4895 -0.1590
  149HFI     F1 2269   1.480   1.241   3.512  0.0083  0.1532  0.0104
  149HFI     F2 2270   1.596   1.088   3.418 -0.3200 -0.0565 -0.3414
  149HFI     F3 2271   1.374   1.083   3.395  0.3664 -0.4964 -0.2996
  149HFI     C3 2272   1.649   1.285   3.238 -0.0183  0.0645  0.0346
  149HFI     F4 2273   1.730   1.184   3.199  0.1113 -0.1377  0.1140
  149HFI     F5 2274   1.709   1.336   3.354 -0.9871  0.1818 -0.2459
  149HFI     F6 2275   1.654   1.376   3.145 -0.4980 -0.2247 -0.1494
  149HFI     H1 2276   1.447   1.393   3.180 -0.4339  0.3023 -0.2550
  149HFI     H2 2277   1.492   1.159   3.189 -0.6277  1.6251 -2.6760
  150HFI     O1 2278   1.399   0.695   2.980 -1.6064 -0.0340 -0.0548
  150HFI     C1 2279   1.418   0.632   3.112 -0.2401  0.4199  0.5828
  150HFI     C2 2280   1.281   0.608   3.178 -0.2027  0.4350 -0.2590
  150HFI     F1 2281   1.190   0.587   3.083 -0.2021 -0.1321 -0.7157
  150HFI     F2 2282   1.233   0.707   3.247 -0.0402 -0.1769  0.1569
  150HFI     F3 2283   1.283   0.495   3.254  0.2951 -0.2131  0.1407
  150HFI     C3 2284   1.507   0.716   3.197  0.0191 -0.3712  0.7291
  150HFI     F4 2285   1.517   0.666   3.322 -0.3288 -0.1675  0.1190
  150HFI     F5 2286   1.459   0.843   3.220  0.4078  0.0551  0.4619
  150HFI     F6 2287   1.633   0.720   3.152 -0.0943  0.0460 -0.3656
  150HFI     H1 2288   1.311   0.736   2.971 -1.3081  0.6719  0.2059
  150HFI     H2 2289   1.461   0.533   3.099 -0.6402  0.4758 -1.2193
  151HFI     O1 2290   1.608   0.629   0.388  0.2023 -0.1181  0.6907
  151HFI     C1 2291   1.644   0.769   0.408 -0.4188  0.0249  0.5952
  151HFI     C2 2292   1.634   0.815   0.555 -0.1374 -0.6661 -0.1214
  151HFI     F1 2293   1.633   0.948   0.570  0.2429  0.0405  0.2875
  151HFI     F2 2294   1.737   0.767   0.636 -0.2389 -0.8193  0.0795
  151HFI     F3 2295   1.517   0.783   0.612 -0.2539 -0.1169  0.1515
  151HFI     C3 2296   1.582   0.869   0.300  0.2343 -0.1473 -0.1896
  151HFI     F4 2297   1.653   0.990   0.288 -0.3137 -0.0405  0.5485
  151HFI     F5 2298   1.451   0.885   0.309  0.2136 -0.7110  0.0786
  151HFI     F6 2299   1.612   0.804   0.183  0.5861 -0.5504 -0.7628
  151HFI     H1 2300   1.571   0.617   0.299 -2.6207 -1.6637  2.0355
  151HFI     H2 2301   1.752   0.769   0.388 -0.1995  1.1050  1.6992
  152HFI     O1 2302   1.384   1.246   0.913 -0.7924 -0.5547 -0.5112
  152HFI     C1 2303   1.291   1.146   0.885  0.1036 -0.4784 -0.3951
  152HFI     C2 2304   1.313   1.013   0.965 -0.2781 -0.0606  0.1538
  152HFI     F1 2305   1.192   0.952   0.985  0.1056  0.3560 -0.4903
  152HFI     F2 2306   1.367   1.039   1.091 -0.3920  0.1183 -0.4759
  152HFI     F3 2307   1.394   0.931   0.897 -0.7404  0.3529 -0.4223
  152HFI     C3 2308   1.285   1.131   0.728 -0.5860 -1.3894 -0.3829
  152HFI     F4 2309   1.223   1.017   0.688  0.3589 -0.2473  1.0617
  152HFI     F5 2310   1.413   1.124   0.677  0.0574 -0.0816 -0.1942
  152HFI     F6 2311   1.222   1.239   0.669 -0.1776 -0.2458  0.1254
  152HFI     H1 2312   1.465   1.228   0.864 -0.2103  0.0464  0.2233
  152HFI     H2 2313   1.193   1.178   0.923  1.1874  1.8411  0.5248
  153HFI     O1 2314   0.006   1.491   2.332  0.3967 -0.1651  0.1797
  153HFI     C1 2315  -0.100   1.411   2.264 -0.1372 -0.8135  0.5244
  153HFI     C2 2316  -0.240   1.463   2.289  0.2968  0.0760 -0.6595
  153HFI     F1 2317  -0.246   1.600   2.265  0.7399  0.0823 -0.1016
  153HFI     F2 2318  -0.280   1.434   2.418 -0.6591 -0.1498 -0.2881
  153HFI     F3 2319  -0.339   1.407   2.215  0.4449 -0.4624 -0.0044
  153HFI     C3 2320  -0.085   1.260   2.281  0.4260  0.4416  0.1453
  153HFI     F4 2321  -0.189   1.195   2.229  0.2693 -0.0403  0.9074
  153HFI     F5 2322  -0.074   1.207   2.398  0.5503  0.0316  0.1149
  153HFI     F6 2323   0.022   1.218   2.210 -0.2401 -0.3001  0.6626
  153HFI     H1 2324   0.009   1.455   2.422 -2.0256 -1.3545 -0.1692
  153HFI     H2 2325  -0.075   1.421   2.157 -0.8145 -3.3530  0.0935
  154HFI     O1 2326   0.561   0.671   0.256 -0.2812 -0.0501  0.3378
  154HFI     C1 2327   0.437   0.646   0.335  0.1122 -0.5460 -0.0846
  154HFI     C2 2328   0.463   0.556   0.461 -0.0983  0.0474 -0.4258
  154HFI     F1 2329   0.560   0.612   0.539  0.4151 -0.2830  0.5986
  154HFI     F2 2330   0.507   0.425   0.433 -0.0305  0.4660  0.3365
  154HFI     F3 2331   0.353   0.550   0.541  0.1022  0.4249  0.4649
  154HFI     C3 2332   0.328   0.581   0.247 -0.3972  0.2944  0.3011
  154HFI     F4 2333   0.378   0.468   0.186  0.1186  0.0940 -0.6583
  154HFI     F5 2334   0.298   0.669   0.146  0.4414 -0.5805 -0.4988
  154HFI     F6 2335   0.212   0.539   0.304  0.3635 -0.0921 -0.4267
  154HFI     H1 2336   0.538   0.690   0.164 -1.1964  2.8379  1.0844
  154HFI     H2 2337   0.389   0.739   0.367  1.6832  0.8346 -1.6170
  155HFI     O1 2338   0.269   1.600   2.304  0.0361 -0.2773 -0.5950
  155HFI     C1 2339   0.295   1.729   2.254  0.1820  0.4921  0.1781
  155HFI     C2 2340   0.425   1.785   2.311 -0.3728 -0.1333 -0.2937
  155HFI     F1 2341   0.524   1.692   2.309 -0.1262 -0.4725 -0.3168
  155HFI     F2 2342   0.424   1.837   2.435  0.0611  0.0596  0.2994
  155HFI     F3 2343   0.474   1.881   2.230  0.1970 -0.5084  0.1938
  155HFI     C3 2344   0.183   1.828   2.281  0.3938  0.0522 -0.4019
  155HFI     F4 2345   0.161   1.846   2.406 -0.3908 -0.4700  0.3816
  155HFI     F5 2346   0.068   1.775   2.227 -0.1002 -0.3484 -0.3215
  155HFI     F6 2347   0.202   1.942   2.225 -0.2611  0.3628 -0.0546
  155HFI     H1 2348   0.187   1.563   2.267 -1.3662 -0.4604  2.5290
  155HFI     H2 2349   0.322   1.717   2.148 -1.2392 -0.9804 -0.0466
  156HFI     O1 2350   0.378   1.604   3.153 -0.9814 -0.2347 -0.1286
  156HFI     C1 2351   0.394   1.464   3.202  0.5600  0.7618 -0.5280
  156HFI     C2 2352   0.466   1.367   3.104  0.4540 -0.2941 -0.7468
  156HFI     F1 2353   0.559   1.431   3.049 -0.0343  0.1458  0.0292
  156HFI     F2 2354   0.390   1.316   3.004  0.1810  0.6163  0.0900
  156HFI     F3 2355   0.528   1.266   3.169 -0.0051  0.2354  0.2372
  156HFI     C3 2356   0.263   1.399   3.255  0.0475 -0.1511  1.0159
  156HFI     F4 2357   0.241   1.458   3.370 -0.0405 -0.1424 -0.3310
  156HFI     F5 2358   0.278   1.269   3.284  0.5531 -0.0247 -0.1991
  156HFI     F6 2359   0.161   1.406   3.167  0.0881 -0.3432  0.1643
  156HFI     H1 2360   0.356   1.608   3.059 -0.1086 -0.4762 -0.3501
  156HFI     H2 2361   0.461   1.454   3.289  2.3744 -2.7608 -2.2321
  157HFI     O1 2362   0.167   0.273   1.492  0.2514 -0.2288  0.8504
  157HFI     C1 2363   0.300   0.270   1.544  0.1917  0.2871 -0.3408
  157HFI     C2 2364   0.372   0.406   1.514  0.7972 -0.1083  0.8399
  157HFI     F1 2365   0.304   0.507   1.568 -0.0249 -0.0654  0.4547
  157HFI     F2 2366   0.382   0.430   1.378  0.1238 -0.3892 -0.6748
  157HFI     F3 2367   0.500   0.414   1.548 -0.4126  0.2601 -0.2971
  157HFI     C3 2368   0.392   0.148   1.505 -0.2683  0.3978 -0.1107
  157HFI     F4 2369   0.444   0.158   1.388 -0.7006 -0.2185  0.1056
  157HFI     F5 2370   0.326   0.035   1.506  0.0674  0.0785 -0.6484
  157HFI     F6 2371   0.489   0.145   1.593 -0.0962  0.4586 -0.0165
  157HFI     H1 2372   0.171   0.306   1.400  0.9194  1.3737  1.4378
  157HFI     H2 2373   0.296   0.255   1.653  2.3332 -2.2837 -0.5771
  158HFI     O1 2374   2.688   1.491   0.756 -0.3743 -0.1469 -0.0907
  158HFI     C1 2375   2.743   1.622   0.786 -0.2474 -0.5435 -0.1149
  158HFI     C2 2376   2.628   1.720   0.801 -0.4702  0.2942 -0.9913
  158HFI     F1 2377   2.673   1.843   0.849  0.4340 -0.3729 -0.1530
  158HFI     F2 2378   2.541   1.668   0.890  0.2269  0.3312 -0.2640
  158HFI     F3 2379   2.569   1.740   0.685 -0.1859  0.2171  0.0567
  158HFI     C3 2380   2.848   1.669   0.678 -0.0466  0.3678  0.5582
  158HFI     F4 2381   2.918   1.572   0.624  0.3173  0.4551 -0.0702
  158HFI     F5 2382   2.940   1.745   0.737  0.4210  0.2266 -0.2393
  158HFI     F6 2383   2.799   1.740   0.572  0.1427  0.6460  0.1869
  158HFI     H1 2384   2.610   1.475   0.812 -0.1947  0.1221  0.2359
  158HFI     H2 2385   2.810   1.616   0.872  0.8831  0.7241 -0.8860
  159HFI     O1 2386   0.072   3.214   0.432 -0.9038  0.2032  0.0183
  159HFI     C1 2387  -0.004   3.138   0.528 -0.7373 -0.9061  0.1123
  159HFI     C2 2388  -0.057   3.011   0.463  0.2082  0.4046  0.1462
  159HFI     F1 2389   0.029   2.956   0.382 -0.2104 -0.2489 -0.1550
  159HFI     F2 2390  -0.166   3.039   0.388  0.4958 -0.0215  0.4113
  159HFI     F3 2391  -0.082   2.919   0.551  0.6279  0.1063 -0.4436
  159HFI     C3 2392  -0.124   3.231   0.574 -0.0822  0.1338  0.2879
  159HFI     F4 2393  -0.184   3.299   0.474  0.3246 -0.0262 -0.5645
  159HFI     F5 2394  -0.082   3.315   0.667 -0.0059  0.3692 -0.0781
  159HFI     F6 2395  -0.217   3.156   0.637  0.1840  0.3836 -0.0917
  159HFI     H1 2396   0.027   3.213   0.345 -0.0008  1.5033 -0.4764
  159HFI     H2 2397   0.053   3.110   0.618 -1.5483 -0.4438  0.7783
  160HFI     O1 2398   3.095   2.687   3.402 -0.0762  0.0357 -0.9162
  160HFI     C1 2399   3.035   2.818   3.432 -0.5284 -0.4468 -0.4031
  160HFI     C2 2400   2.960   2.824   3.568 -0.1368  0.6865  0.6766
  160HFI     F1 2401   2.914   2.949   3.590 -0.5987  0.3377 -0.6873
  160HFI     F2 2402   3.045   2.800   3.662  0.0685  0.0525 -0.5106
  160HFI     F3 2403   2.853   2.737   3.576  0.1908 -0.3072 -0.4257
  160HFI     C3 2404   2.945   2.873   3.326 -0.1340  0.2219  0.0076
  160HFI     F4 2405   3.019   2.865   3.213 -0.3929  0.1747  0.1757
  160HFI     F5 2406   2.914   3.006   3.336 -0.4446 -0.6686  0.2368
  160HFI     F6 2407   2.835   2.799   3.306 -0.0738  0.2466  0.5786
  160HFI     H1 2408   3.027   2.617   3.405  0.0569 -0.1289 -1.5452
  160HFI     H2 2409   3.118   2.889   3.445  0.2004 -1.1720 -1.0112
  161HFI     O1 2410   2.616   3.251   0.940  0.3175 -0.0045  0.4125
  161HFI     C1 2411   2.572   3.129   1.004  0.4423  0.2733  0.1020
  161HFI     C2 2412   2.418   3.097   0.986  0.7623 -0.0483  0.6267
  161HFI     F1 2413   2.398   3.088   0.852 -0.4007  0.3235 -0.1896
  161HFI     F2 2414   2.344   3.197   1.037 -0.6940 -0.8154 -0.0178
  161HFI     F3 2415   2.377   2.981   1.046 -0.2411  0.0969  0.1119
  161HFI     C3 2416   2.603   3.140   1.158  0.4445  0.0005 -0.2049
  161HFI     F4 2417   2.737   3.132   1.186  0.1787  0.5404 -0.4980
  161HFI     F5 2418   2.539   3.046   1.232  0.2035  0.2894  0.4550
  161HFI     F6 2419   2.574   3.260   1.202  0.6669 -0.1313  0.1359
  161HFI     H1 2420   2.603   3.326   1.000 -2.0701 -0.8728  1.0280
  161HFI     H2 2421   2.627   3.043   0.965  0.2462 -0.1589  0.7665
  162HFI     O1 2422   2.115   0.577   3.048  0.1717  0.7357  0.5657
  162HFI     C1 2423   2.140   0.507   2.919  0.4595  0.0530  0.4453
  162HFI     C2 2424   2.200   0.601   2.816  0.6085 -0.3317  0.0146
  162HFI     F1 2425   2.124   0.710   2.810 -0.2337  0.3758 -0.0769
  162HFI     F2 2426   2.217   0.537   2.695  0.1835  0.1451 -0.3557
  162HFI     F3 2427   2.315   0.643   2.865 -0.5246 -0.2694  0.0772
  162HFI     C3 2428   2.015   0.430   2.883 -0.1265 -0.4176 -0.1011
  162HFI     F4 2429   1.903   0.500   2.895  0.0502 -0.3697 -0.2467
  162HFI     F5 2430   2.008   0.328   2.971 -0.1510  0.8780 -0.6560
  162HFI     F6 2431   2.022   0.380   2.756 -0.2067 -0.0402 -0.1414
  162HFI     H1 2432   2.037   0.634   3.051 -0.0523  0.4178  0.8934
  162HFI     H2 2433   2.224   0.438   2.928  0.0979 -0.4097  0.2654
  163HFI     O1 2434   0.120   0.314   2.574  0.3077 -0.1439  0.1925
  163HFI     C1 2435   0.064   0.202   2.503 -0.7316 -0.2596 -0.4871
  163HFI     C2 2436   0.125   0.064   2.548  0.4796 -0.8008  0.5829
  163HFI     F1 2437   0.255   0.052   2.512 -0.0081 -0.0862 -0.1104
  163HFI     F2 2438   0.055  -0.032   2.491 -0.2652 -0.1577 -0.5003
  163HFI     F3 2439   0.110   0.046   2.682  0.2433  0.1635 -0.1591
  163HFI     C3 2440   0.090   0.223   2.357 -0.3593  0.0832  0.0959
  163HFI     F4 2441   0.216   0.240   2.327  0.2454 -0.0330  0.1364
  163HFI     F5 2442   0.031   0.336   2.320 -0.5990  0.6363  0.5597
  163HFI     F6 2443   0.034   0.125   2.278 -0.3161  0.2755  0.2987
  163HFI     H1 2444   0.133   0.393   2.519 -1.3578 -1.4775 -2.2202
  163HFI     H2 2445  -0.045   0.194   2.511 -0.4836 -1.6087  1.8524
  164HFI     O1 2446   2.570   1.216   2.480  0.2063 -0.1268 -0.1699
  164HFI     C1 2447   2.570   1.337   2.403 -0.3954 -0.6577  0.1324
  164HFI     C2 2448   2.437   1.342   2.325  0.4272 -0.5712 -0.5154
  164HFI     F1 2449   2.436   1.452   2.249 -0.2001 -0.6813 -0.7451
  164HFI     F2 2450   2.336   1.361   2.419  0.0373 -0.0207  0.0852
  164HFI     F3 2451   2.413   1.233   2.242 -1.0182 -0.2957  0.3091
  164HFI     C3 2452   2.693   1.334   2.308 -0.4200 -0.3785 -0.0942
  164HFI     F4 2453   2.798   1.353   2.384 -0.3146 -0.7391  0.4759
  164HFI     F5 2454   2.695   1.422   2.201 -0.0739  0.4880 -0.0688
  164HFI     F6 2455   2.716   1.211   2.256 -0.0477  0.1768  0.1920
  164HFI     H1 2456   2.657   1.205   2.523  0.4067  0.5539 -0.4037
  164HFI     H2 2457   2.578   1.430   2.462 -1.1350 -1.2771  1.2388
  165HFI     O1 2458   1.766   0.607   3.468  0.4637  0.3978 -0.4827
  165HFI     C1 2459   1.804   0.469   3.493  0.0847 -0.0699  0.2128
  165HFI     C2 2460   1.957   0.445   3.533  0.1751  0.3202 -0.2388
  165HFI     F1 2461   2.036   0.517   3.451 -0.4724 -0.2891 -0.0087
  165HFI     F2 2462   2.002   0.318   3.536  0.4018  0.3154  0.8876
  165HFI     F3 2463   1.976   0.489   3.661 -0.3587  0.1740  0.1601
  165HFI     C3 2464   1.762   0.386   3.368  0.2637 -0.6145  0.5409
  165HFI     F4 2465   1.827   0.427   3.256  0.4887  0.4614  0.1819
  165HFI     F5 2466   1.633   0.404   3.351 -0.2230 -0.5740  0.2890
  165HFI     F6 2467   1.791   0.254   3.382  0.4479  0.1096 -0.3381
  165HFI     H1 2468   1.682   0.612   3.419 -0.3977 -0.4883  0.8811
  165HFI     H2 2469   1.734   0.421   3.562 -1.1164 -0.5278 -1.3083
  166HFI     O1 2470   0.886   2.407   1.597 -0.4715  0.6166 -0.1346
  166HFI     C1 2471   0.792   2.379   1.486  0.3136  0.1024 -0.2650
  166HFI     C2 2472   0.647   2.417   1.519 -0.2253 -0.8033  0.1444
  166HFI     F1 2473   0.634   2.541   1.575 -0.1372 -0.1783 -0.6002
  166HFI     F2 2474   0.587   2.328   1.594  0.0530  0.0288 -0.1696
  166HFI     F3 2475   0.575   2.425   1.406  0.1098  0.1675 -0.0415
  166HFI     C3 2476   0.810   2.243   1.437 -0.0976 -0.0186 -0.1678
  166HFI     F4 2477   0.942   2.210   1.422  0.2943  0.0677  0.1950
  166HFI     F5 2478   0.756   2.222   1.316  0.3919  0.3558  0.3828
  166HFI     F6 2479   0.769   2.150   1.524 -0.0077  0.1811  0.0607
  166HFI     H1 2480   0.844   2.385   1.681  0.0861  0.0949  0.0142
  166HFI     H2 2481   0.830   2.431   1.397  0.3575 -0.5472 -0.6303
  167HFI     O1 2482   2.371   1.855   2.971  0.1812  0.3394  0.6930
  167HFI     C1 2483   2.487   1.914   2.913  0.0654 -0.1485  0.5800
  167HFI     C2 2484   2.566   1.796   2.846 -0.2262 -0.4443  0.3828
  167HFI     F1 2485   2.651   1.859   2.755  0.0792  0.1100 -0.1457
  167HFI     F2 2486   2.480   1.712   2.781  0.0526  0.3620 -0.6624
  167HFI     F3 2487   2.641   1.722   2.933 -0.1547 -0.1548  0.0781
  167HFI     C3 2488   2.578   1.990   3.021 -1.1686 -0.0431 -0.7984
  167HFI     F4 2489   2.708   2.002   2.979  0.0267  0.6457  0.0333
  167HFI     F5 2490   2.573   1.914   3.138  0.0607  0.1755 -0.3093
  167HFI     F6 2491   2.530   2.112   3.057  0.3375  0.2388 -0.1350
  167HFI     H1 2492   2.403   1.841   3.062  1.0445  2.1469  0.6760
  167HFI     H2 2493   2.459   1.991   2.840  1.8839  1.1908  1.2901
  168HFI     O1 2494   2.477   1.827   2.242  0.5044  0.0701  0.6965
  168HFI     C1 2495   2.539   1.922   2.338  0.2231 -0.0575 -0.2752
  168HFI     C2 2496   2.674   1.870   2.389  0.8228  0.4805 -0.3065
  168HFI     F1 2497   2.757   1.842   2.289 -0.0438  0.6360  0.7590
  168HFI     F2 2498   2.654   1.750   2.451 -0.4370  0.1897 -0.0998
  168HFI     F3 2499   2.739   1.958   2.471  0.1631  0.4699 -0.4059
  168HFI     C3 2500   2.440   1.955   2.452 -0.1129 -0.2413 -0.6224
  168HFI     F4 2501   2.324   1.989   2.398  0.1601 -0.1881 -0.2328
  168HFI     F5 2502   2.489   2.055   2.528  0.2103  0.6395  0.0872
  168HFI     F6 2503   2.406   1.853   2.534  0.1474 -0.5143  0.7949
  168HFI     H1 2504   2.380   1.837   2.242  0.2026 -2.4487 -0.8957
  168HFI     H2 2505   2.566   2.018   2.292 -0.9384  1.4938  2.1710
  169HFI     O1 2506   3.025   1.661   3.195 -0.0464  0.2189 -0.8501
  169HFI     C1 2507   3.044   1.779   3.277  0.3196  0.2229 -0.2621
  169HFI     C2 2508   3.171   1.775   3.376 -0.2054  0.0756 -0.6659
  169HFI     F1 2509   3.201   1.896   3.429 -0.0467 -0.1252 -0.4304
  169HFI     F2 2510   3.267   1.737   3.291 -0.0803 -0.0396 -0.2473
  169HFI     F3 2511   3.158   1.683   3.473 -0.1422 -0.6631 -0.7949
  169HFI     C3 2512   2.910   1.820   3.351  0.6670 -0.7164  0.7157
  169HFI     F4 2513   2.820   1.855   3.251  0.4865  0.0153  0.0890
  169HFI     F5 2514   2.922   1.930   3.429 -0.1063  0.0034  0.1846
  169HFI     F6 2515   2.865   1.718   3.427 -0.2204 -0.3822  0.0059
  169HFI     H1 2516   3.013   1.692   3.104  0.3435  2.3599 -0.1930
  169HFI     H2 2517   3.069   1.862   3.210 -0.7957 -0.0459 -1.0363
  170HFI     O1 2518   2.967   1.382   3.274  0.2892  0.0003  0.7375
  170HFI     C1 2519   3.092   1.301   3.250 -0.1381  0.1839  0.1501
  170HFI     C2 2520   3.192   1.306   3.360  0.1722  0.1839 -0.7002
  170HFI     F1 2521   3.135   1.280   3.469 -0.3651  0.0995 -0.2414
  170HFI     F2 2522   3.246   1.433   3.363 -0.2474  0.1867  0.4812
  170HFI     F3 2523   3.297   1.219   3.346 -0.1307 -0.1225 -0.4762
  170HFI     C3 2524   3.146   1.316   3.110 -0.1202 -0.4468 -0.1340
  170HFI     F4 2525   3.229   1.221   3.078 -0.1744 -0.2898 -0.3396
  170HFI     F5 2526   3.211   1.433   3.093 -0.4398  0.7006 -0.1284
  170HFI     F6 2527   3.049   1.313   3.023  0.9582  0.3072 -0.3469
  170HFI     H1 2528   2.996   1.474   3.287  0.9959 -0.4778  2.8041
  170HFI     H2 2529   3.060   1.196   3.258 -2.0717  0.8349  1.4320
  171HFI     O1 2530   1.874   2.372   0.135 -0.6495  0.0401  0.3793
  171HFI     C1 2531   1.906   2.279   0.025 -0.1769  0.0120  0.7252
  171HFI     C2 2532   2.034   2.325  -0.041 -0.5125 -0.6490 -0.6701
  171HFI     F1 2533   2.067   2.251  -0.138 -0.2269 -0.0570 -1.0590
  171HFI     F2 2534   2.135   2.318   0.048  0.0686 -0.1750 -0.1359
  171HFI     F3 2535   2.027   2.450  -0.089 -0.0184 -1.0662  0.5573
  171HFI     C3 2536   1.789   2.258  -0.074 -0.3965 -0.6588 -0.4342
  171HFI     F4 2537   1.670   2.263  -0.018  0.2314 -0.0636  0.0640
  171HFI     F5 2538   1.790   2.132  -0.130 -0.1971  0.3673 -0.2458
  171HFI     F6 2539   1.784   2.348  -0.175 -0.7963  0.3222  0.2418
  171HFI     H1 2540   1.946   2.437   0.139 -0.2816 -0.4786  2.9625
  171HFI     H2 2541   1.920   2.178   0.065 -1.9123 -0.5532 -0.0566
  172HFI     O1 2542   0.039   1.913   0.893  0.0746  0.3892 -0.1047
  172HFI     C1 2543  -0.003   2.045   0.919 -0.4852 -0.7039 -0.1791
  172HFI     C2 2544   0.023   2.150   0.805  0.3430 -0.3073  0.1995
  172HFI     F1 2545  -0.056   2.137   0.698  0.0609 -0.2998  0.2693
  172HFI     F2 2546   0.152   2.137   0.765  0.1745  0.2023  0.2799
  172HFI     F3 2547   0.012   2.278   0.847  0.1502 -0.3675 -0.2621
  172HFI     C3 2548   0.045   2.085   1.059 -0.0543 -0.3305  0.1309
  172HFI     F4 2549  -0.021   2.199   1.101 -0.3638  0.4847 -0.0787
  172HFI     F5 2550   0.175   2.116   1.069 -0.2612 -0.1765  0.7014
  172HFI     F6 2551   0.019   2.003   1.158 -0.2537  0.3258  0.4385
  172HFI     H1 2552   0.136   1.912   0.884  0.4012 -1.9210  2.9543
  172HFI     H2 2553  -0.112   2.044   0.930 -0.4245  0.2866  0.4933
  173HFI     O1 2554   1.383   3.094   2.696 -0.1011 -0.0170  0.2884
  173HFI     C1 2555   1.263   3.081   2.771 -0.6279  0.3990 -0.1098
  173HFI     C2 2556   1.181   2.957   2.723  0.0469  0.0522 -0.7604
  173HFI     F1 2557   1.063   2.945   2.788 -0.1795  0.0235  0.0935
  173HFI     F2 2558   1.249   2.845   2.753 -0.4144  0.5236  0.8548
  173HFI     F3 2559   1.153   2.959   2.591 -0.1200  0.0500 -0.6287
  173HFI     C3 2560   1.186   3.211   2.781 -0.8540 -0.4987  0.4590
  173HFI     F4 2561   1.133   3.251   2.667 -0.2136 -0.0591 -0.1630
  173HFI     F5 2562   1.277   3.310   2.816 -0.0338  0.4692 -0.1430
  173HFI     F6 2563   1.090   3.204   2.878  0.1772  0.3396  0.0337
  173HFI     H1 2564   1.459   3.046   2.733  0.1412  0.4881  0.4463
  173HFI     H2 2565   1.287   3.059   2.876 -1.1604 -1.7760 -0.4157
  174HFI     O1 2566   1.586   2.871   2.763 -0.1705 -0.3397 -0.0929
  174HFI     C1 2567   1.733   2.878   2.749  0.1534  0.8131 -0.7865
  174HFI     C2 2568   1.802   2.844   2.887 -0.3483  0.5767  0.2342
  174HFI     F1 2569   1.926   2.795   2.870 -0.5643 -0.5303 -0.3391
  174HFI     F2 2570   1.737   2.752   2.950  0.1104  0.1988  0.4176
  174HFI     F3 2571   1.812   2.944   2.969 -0.4763 -0.2949 -0.5138
  174HFI     C3 2572   1.775   3.015   2.693 -0.3558  0.7089 -1.5414
  174HFI     F4 2573   1.732   3.116   2.771  0.1544 -0.1311  0.3795
  174HFI     F5 2574   1.725   3.032   2.570 -0.1215 -0.0613  0.1746
  174HFI     F6 2575   1.909   3.028   2.685 -0.2755  0.0350  0.2417
  174HFI     H1 2576   1.553   2.779   2.762 -0.0628 -0.3808  0.1031
  174HFI     H2 2577   1.763   2.804   2.674 -0.5689 -0.4083  0.1002
  175HFI     O1 2578   1.669   2.822   0.406 -0.1937  0.9843  0.3113
  175HFI     C1 2579   1.570   2.920   0.415  0.4274 -0.7283 -0.3357
  175HFI     C2 2580   1.614   3.047   0.483 -0.7823  0.0808 -0.0074
  175HFI     F1 2581   1.633   3.033   0.619 -0.1626 -0.8034 -0.3919
  175HFI     F2 2582   1.504   3.130   0.466  0.2653 -0.2442 -0.0080
  175HFI     F3 2583   1.729   3.102   0.433  0.2970 -0.6265 -0.5219
  175HFI     C3 2584   1.440   2.858   0.477 -0.5625 -0.1131  0.3092
  175HFI     F4 2585   1.407   2.749   0.400  0.0339 -0.0526  0.2130
  175HFI     F5 2586   1.325   2.943   0.472  0.0194 -0.2730 -0.7700
  175HFI     F6 2587   1.455   2.820   0.599  0.2948 -0.2341 -0.2495
  175HFI     H1 2588   1.661   2.765   0.485  0.1384 -1.3989 -1.3323
  175HFI     H2 2589   1.539   2.943   0.312  1.1469 -3.8968 -1.3290
  176HFI     O1 2590   1.911   0.650   2.460 -0.5104  0.4985  0.5744
  176HFI     C1 2591   1.991   0.545   2.396 -0.2952  0.8643 -0.2409
  176HFI     C2 2592   2.093   0.613   2.301 -0.4698  0.0737 -0.3520
  176HFI     F1 2593   2.043   0.704   2.220 -0.1031  0.3273  0.3493
  176HFI     F2 2594   2.162   0.523   2.229  0.3661 -0.1033  0.3244
  176HFI     F3 2595   2.190   0.669   2.372  0.2382  0.0369  0.4277
  176HFI     C3 2596   1.906   0.446   2.314  0.1790  0.4338 -0.4088
  176HFI     F4 2597   1.838   0.512   2.215 -0.1771 -0.0847 -0.3122
  176HFI     F5 2598   1.807   0.392   2.386 -0.1778 -0.1430  0.0867
  176HFI     F6 2599   1.976   0.352   2.252 -0.0893 -0.4428  0.1613
  176HFI     H1 2600   1.969   0.728   2.471  0.6209 -0.0152 -1.4998
  176HFI     H2 2601   2.043   0.497   2.480  0.0196 -0.3101 -1.0981
  177HFI     O1 2602   0.766   2.656   0.889 -0.5510 -0.3077 -0.1574
  177HFI     C1 2603   0.732   2.730   1.005  0.5494 -0.5150  0.1567
  177HFI     C2 2604   0.663   2.646   1.118 -0.0129 -0.3536  0.0276
  177HFI     F1 2605   0.550   2.596   1.067  0.2949 -0.2165  0.1074
  177HFI     F2 2606   0.635   2.719   1.227  0.0825  0.8523 -0.1445
  177HFI     F3 2607   0.735   2.545   1.163 -0.0095  0.3827 -0.1225
  177HFI     C3 2608   0.663   2.869   0.969 -0.2557 -0.0986  0.3406
  177HFI     F4 2609   0.663   2.951   1.077 -0.4895  0.0010  0.0203
  177HFI     F5 2610   0.538   2.849   0.931  0.0530  0.2814 -0.2272
  177HFI     F6 2611   0.737   2.925   0.866  0.3438  0.5203  0.6841
  177HFI     H1 2612   0.690   2.599   0.866 -1.2394  0.5417  0.0158
  177HFI     H2 2613   0.829   2.768   1.039  1.2055 -0.4687 -1.7326
  178HFI     O1 2614   2.273   3.077   3.389  0.1796 -0.2100 -0.0909
  178HFI     C1 2615   2.140   3.019   3.375 -0.1326  0.1131  0.2343
  178HFI     C2 2616   2.136   2.889   3.448 -0.0237 -0.1832 -0.0929
  178HFI     F1 2617   2.138   2.921   3.581  0.1594 -0.1067  0.1062
  178HFI     F2 2618   2.253   2.821   3.431 -0.3868  0.0204  0.2650
  178HFI     F3 2619   2.036   2.804   3.417  0.0049  0.0041 -0.5248
  178HFI     C3 2620   2.102   3.013   3.227 -0.4383  0.1902 -0.2791
  178HFI     F4 2621   1.974   2.973   3.205  0.1174  0.0017  0.2891
  178HFI     F5 2622   2.183   2.930   3.155  0.2213 -0.8287  0.5004
  178HFI     F6 2623   2.109   3.143   3.171 -0.1173  0.7463 -0.2714
  178HFI     H1 2624   2.343   3.011   3.379  0.4790  0.2079 -0.8271
  178HFI     H2 2625   2.077   3.091   3.429 -0.7780  1.8890 -2.7370
  179HFI     O1 2626   2.247   0.336   2.454 -0.4430  0.3796 -0.5717
  179HFI     C1 2627   2.381   0.323   2.395 -0.4418  0.6536 -0.2642
  179HFI     C2 2628   2.379   0.222   2.273 -0.0612  0.3411 -0.0420
  179HFI     F1 2629   2.372   0.095   2.317  0.1000 -0.3384 -0.1883
  179HFI     F2 2630   2.486   0.238   2.191  0.2650 -0.1623  0.8501
  179HFI     F3 2631   2.270   0.243   2.198 -0.1933  0.3980 -0.7401
  179HFI     C3 2632   2.484   0.279   2.503  0.2086  0.1369 -0.2204
  179HFI     F4 2633   2.604   0.255   2.451 -0.5707 -0.2376  0.2971
  179HFI     F5 2634   2.439   0.178   2.588  0.1268  0.1087 -0.4162
  179HFI     F6 2635   2.504   0.389   2.582 -0.2893  0.0617 -0.2835
  179HFI     H1 2636   2.193   0.255   2.445 -1.3201  0.8280  0.4996
  179HFI     H2 2637   2.410   0.421   2.356  2.4054 -0.6861 -1.6802
  180HFI     O1 2638   0.488   2.505   2.279 -0.2186  0.2042  0.2590
  180HFI     C1 2639   0.515   2.367   2.249 -0.4990  0.2524 -0.3849
  180HFI     C2 2640   0.388   2.280   2.282 -0.7167 -0.0007  0.2894
  180HFI     F1 2641   0.372   2.260   2.414  0.2406  0.0623  0.0263
  180HFI     F2 2642   0.394   2.161   2.223  0.4613 -0.5785 -0.0888
  180HFI     F3 2643   0.275   2.339   2.240  0.4705  0.8025 -0.1596
  180HFI     C3 2644   0.654   2.311   2.304 -0.1527 -0.3845  0.5976
  180HFI     F4 2645   0.663   2.286   2.431  0.1998 -0.5069  0.1363
  180HFI     F5 2646   0.748   2.404   2.280 -0.0713 -0.0037  0.5941
  180HFI     F6 2647   0.686   2.200   2.241  0.2153  0.1192 -0.2386
  180HFI     H1 2648   0.435   2.510   2.360  0.9333 -0.7250  1.0912
  180HFI     H2 2649   0.520   2.362   2.139 -0.6679  4.8665 -0.6687
  181HFI     O1 2650   1.482   2.056   0.017 -0.0946 -0.0362 -0.6898
  181HFI     C1 2651   1.342   2.089   0.039  0.3618  0.0470  0.5714
  181HFI     C2 2652   1.316   2.234  -0.006 -0.5081  0.8605  0.2742
  181HFI     F1 2653   1.372   2.323   0.086  0.1975 -0.3620 -0.0930
  181HFI     F2 2654   1.184   2.260  -0.015  0.0776  0.0608 -0.3598
  181HFI     F3 2655   1.370   2.258  -0.126  0.1172 -0.5622  0.2224
  181HFI     C3 2656   1.291   2.046   0.177 -0.3253 -0.1084 -0.3529
  181HFI     F4 2657   1.153   2.065   0.191  0.2077  0.7071  0.1681
  181HFI     F5 2658   1.352   2.109   0.279 -0.1180 -0.1921  0.0372
  181HFI     F6 2659   1.314   1.912   0.200  0.3231 -0.0383  0.1100
  181HFI     H1 2660   1.539   2.089   0.088 -0.5752  0.8632 -0.7102
  181HFI     H2 2661   1.288   2.024  -0.032 -0.0929 -1.0336  1.8926
  182HFI     O1 2662   0.612   1.955   0.068  0.3049 -0.3096 -0.4468
  182HFI     C1 2663   0.673   2.070   0.006 -0.0885  0.3446  0.0127
  182HFI     C2 2664   0.829   2.045  -0.025 -0.1671  0.7229  0.3254
  182HFI     F1 2665   0.863   2.128  -0.131  0.1496  0.0264  0.2672
  182HFI     F2 2666   0.852   1.919  -0.070 -0.0624  0.8820 -0.0711
  182HFI     F3 2667   0.908   2.071   0.083  0.2546  0.2762  0.3886
  182HFI     C3 2668   0.625   2.206   0.073 -0.5923 -0.1870 -1.1532
  182HFI     F4 2669   0.665   2.309  -0.005  0.3089 -0.3399 -0.1419
  182HFI     F5 2670   0.673   2.214   0.194  0.2273 -0.1851 -0.3382
  182HFI     F6 2671   0.494   2.231   0.077 -0.2362 -0.2027  0.4455
  182HFI     H1 2672   0.669   1.926   0.143 -1.1700  1.3755  1.3713
  182HFI     H2 2673   0.627   2.078  -0.094  0.5813  0.7054 -0.2672
  183HFI     O1 2674   0.230   0.057   3.461 -0.3556 -0.3651  0.1256
  183HFI     C1 2675   0.186   0.194   3.432 -0.9487 -0.1179 -0.2993
  183HFI     C2 2676   0.070   0.193   3.321 -0.2185 -0.1866  0.8579
  183HFI     F1 2677   0.101   0.120   3.217 -0.4155  0.1181 -0.0594
  183HFI     F2 2678   0.027   0.306   3.277 -0.1160  0.3271  0.2351
  183HFI     F3 2679  -0.044   0.137   3.373 -0.8485 -0.0528  0.0356
  183HFI     C3 2680   0.307   0.288   3.409  0.3500 -0.3159  0.0700
  183HFI     F4 2681   0.377   0.253   3.295 -0.0239 -0.0975  0.0977
  183HFI     F5 2682   0.396   0.281   3.508 -0.7899  0.7784 -0.1122
  183HFI     F6 2683   0.266   0.419   3.391  0.9764 -0.2451  0.2702
  183HFI     H1 2684   0.269   0.026   3.377 -0.2519 -0.4020  0.1885
  183HFI     H2 2685   0.137   0.228   3.525 -0.2583  0.0608  0.0081
  184HFI     O1 2686   0.727   0.160   2.518  0.3670  0.1085  0.1255
  184HFI     C1 2687   0.736   0.062   2.410  0.6026  0.4180  0.0964
  184HFI     C2 2688   0.786   0.132   2.274 -0.0470  0.0000  0.2505
  184HFI     F1 2689   0.852   0.044   2.199 -0.0740  0.3276  0.4376
  184HFI     F2 2690   0.876   0.229   2.301 -0.0671  0.0171  0.3067
  184HFI     F3 2691   0.686   0.185   2.200 -0.0661 -0.1387 -0.1736
  184HFI     C3 2692   0.601  -0.012   2.390 -0.0480 -0.2254  0.1024
  184HFI     F4 2693   0.492   0.066   2.401  0.3578  0.1483 -0.6032
  184HFI     F5 2694   0.598  -0.110   2.476  0.0672  0.2493 -0.2320
  184HFI     F6 2695   0.590  -0.070   2.262 -0.0733  0.1476 -0.1288
  184HFI     H1 2696   0.790   0.231   2.497  0.1470 -0.0847 -1.1989
  184HFI     H2 2697   0.804  -0.021   2.435 -0.4965 -0.7827 -0.8407
  185HFI     O1 2698   2.576   2.227   2.744 -0.1659  0.1203  0.0672
  185HFI     C1 2699   2.681   2.295   2.822 -0.0463 -0.7561 -0.3357
  185HFI     C2 2700   2.631   2.440   2.872  0.6386  0.3972  0.5134
  185HFI     F1 2701   2.518   2.431   2.952  0.3587  0.0071 -0.1073
  185HFI     F2 2702   2.607   2.505   2.757 -0.2092 -0.0141  0.3028
  185HFI     F3 2703   2.730   2.510   2.933 -0.0983  0.2136 -0.0809
  185HFI     C3 2704   2.816   2.272   2.749  0.2837 -0.1713 -0.9873
  185HFI     F4 2705   2.915   2.338   2.820 -0.3512 -0.0174  0.2339
  185HFI     F5 2706   2.804   2.321   2.628 -0.3400 -0.1380 -0.4076
  185HFI     F6 2707   2.845   2.140   2.742  0.4176 -0.0019  0.1670
  185HFI     H1 2708   2.575   2.263   2.654  0.3701 -0.6828 -0.2621
  185HFI     H2 2709   2.691   2.230   2.910 -2.9588  0.2230  0.7897
  186HFI     O1 2710   0.519   1.251   2.514 -0.8067  0.4097  0.0936
  186HFI     C1 2711   0.496   1.317   2.384 -0.0540  0.7317 -0.6307
  186HFI     C2 2712   0.367   1.253   2.332 -0.2864 -0.0367 -0.5807
  186HFI     F1 2713   0.267   1.308   2.405 -0.3453 -0.5125  0.1004
  186HFI     F2 2714   0.366   1.120   2.352  0.3757  0.5142  0.0938
  186HFI     F3 2715   0.327   1.274   2.205  0.0457 -0.3727  0.0589
  186HFI     C3 2716   0.618   1.303   2.291  0.5382 -0.3157 -0.2772
  186HFI     F4 2717   0.722   1.349   2.351  0.1032 -0.7666 -0.1909
  186HFI     F5 2718   0.603   1.376   2.176 -0.2916 -0.5063  0.6320
  186HFI     F6 2719   0.651   1.178   2.260  0.2528 -0.4745 -0.2663
  186HFI     H1 2720   0.605   1.277   2.550 -0.8502 -1.9780  2.0578
  186HFI     H2 2721   0.470   1.422   2.397 -0.4892  0.4298  1.0134
  187HFI     O1 2722   3.329   2.268   2.961 -0.5627  0.2562 -0.0943
  187HFI     C1 2723   3.308   2.308   3.099  0.0291 -0.0074  0.0016
  187HFI     C2 2724   3.420   2.412   3.149 -0.1897  0.1397  0.7621
  187HFI     F1 2725   3.416   2.515   3.067 -0.1763  1.0074 -0.5322
  187HFI     F2 2726   3.544   2.365   3.139 -0.2559  0.1657 -0.3218
  187HFI     F3 2727   3.402   2.459   3.273 -0.1902  0.5437  0.2693
  187HFI     C3 2728   3.317   2.178   3.197 -0.0784 -0.2385 -0.1815
  187HFI     F4 2729   3.207   2.097   3.185 -0.2240 -0.1632  0.1744
  187HFI     F5 2730   3.315   2.224   3.328 -0.1387  0.6887  0.2222
  187HFI     F6 2731   3.431   2.103   3.181 -0.1505 -0.4564 -0.8823
  187HFI     H1 2732   3.417   2.227   2.958  0.4491  2.1769  1.7121
  187HFI     H2 2733   3.209   2.353   3.107  0.1398  0.2047  0.1685
  188HFI     O1 2734   0.447   0.931   0.526 -0.4949  0.1769  0.1885
  188HFI     C1 2735   0.340   1.026   0.560 -0.2442  0.1634 -0.6321
  188HFI     C2 2736   0.326   1.120   0.436 -0.1856 -0.2520  0.1077
  188HFI     F1 2737   0.303   1.046   0.325 -0.1583 -0.2475  0.2946
  188HFI     F2 2738   0.443   1.198   0.426 -0.8361  0.1562 -0.4681
  188HFI     F3 2739   0.223   1.207   0.452 -0.1424  0.3514 -0.5164
  188HFI     C3 2740   0.367   1.096   0.696 -0.0203 -0.4205  0.2717
  188HFI     F4 2741   0.283   1.202   0.709  0.4257  0.1438  0.1149
  188HFI     F5 2742   0.491   1.141   0.720 -0.0331 -0.5493 -0.1408
  188HFI     F6 2743   0.354   1.011   0.801  0.2422 -0.3753  0.3070
  188HFI     H1 2744   0.501   0.971   0.456 -0.8616  1.3194  0.5452
  188HFI     H2 2745   0.247   0.969   0.572 -0.6607  0.6939 -1.2721
  189HFI     O1 2746   3.162   2.939   2.833  0.2326 -0.3882 -0.4512
  189HFI     C1 2747   3.085   2.822   2.873  0.4066  0.3690  0.0881
  189HFI     C2 2748   3.182   2.708   2.919 -0.2288  0.4159 -0.4045
  189HFI     F1 2749   3.124   2.635   3.016  0.3949 -0.0803 -0.7077
  189HFI     F2 2750   3.306   2.760   2.954 -0.1813 -0.6908  0.5464
  189HFI     F3 2751   3.210   2.622   2.810  0.3421  1.1341 -0.1029
  189HFI     C3 2752   2.984   2.787   2.761  0.0957  0.1651  0.2515
  189HFI     F4 2753   2.901   2.889   2.749  0.7310  0.3694 -0.1669
  189HFI     F5 2754   2.911   2.677   2.788  0.1030  0.2597 -0.0162
  189HFI     F6 2755   3.048   2.772   2.645 -0.0589 -0.6445  0.1557
  189HFI     H1 2756   3.206   2.902   2.755 -0.9082 -1.5170 -0.5717
  189HFI     H2 2757   3.022   2.852   2.958  1.2044  0.6419  0.5901
  190HFI     O1 2758   1.724   2.621   3.504  0.5059 -0.0863 -0.3725
  190HFI     C1 2759   1.603   2.602   3.417 -0.8735 -0.8215 -0.1453
  190HFI     C2 2760   1.521   2.482   3.464  0.6165  0.1008  0.2414
  190HFI     F1 2761   1.401   2.475   3.388 -0.1246 -0.0855 -0.1076
  190HFI     F2 2762   1.489   2.490   3.595  0.2704 -0.6909 -0.1904
  190HFI     F3 2763   1.596   2.366   3.442 -0.1081 -0.0078 -0.1611
  190HFI     C3 2764   1.652   2.593   3.268 -0.3280  0.3568  0.6494
  190HFI     F4 2765   1.716   2.710   3.228 -0.2386  0.3444  0.7607
  190HFI     F5 2766   1.544   2.573   3.185  0.3600  0.5967  0.2745
  190HFI     F6 2767   1.730   2.484   3.248 -0.6121  0.1808  0.1373
  190HFI     H1 2768   1.778   2.541   3.488  2.2999  0.9179  0.5155
  190HFI     H2 2769   1.536   2.687   3.432 -2.3430 -1.5514 -2.3388
  191HFI     O1 2770   3.377   0.831   0.455 -0.5271 -0.3626 -0.0268
  191HFI     C1 2771   3.338   0.970   0.418  0.2922  0.1852 -0.3958
  191HFI     C2 2772   3.299   1.049   0.544 -0.0925 -0.0230 -0.2440
  191HFI     F1 2773   3.211   0.981   0.622  0.0384 -0.0021 -0.2275
  191HFI     F2 2774   3.251   1.173   0.510 -0.2889  0.7259 -0.2242
  191HFI     F3 2775   3.402   1.070   0.620  0.1675 -0.4009 -0.3016
  191HFI     C3 2776   3.232   0.971   0.304  0.5779  0.2024 -0.8759
  191HFI     F4 2777   3.283   0.913   0.192 -0.1955 -0.1093 -0.1491
  191HFI     F5 2778   3.199   1.094   0.268 -0.0321  0.4414  0.0584
  191HFI     F6 2779   3.120   0.905   0.342 -0.0394 -0.0716 -0.6543
  191HFI     H1 2780   3.290   0.801   0.487 -1.1667  0.5286 -0.8610
  191HFI     H2 2781   3.423   1.024   0.376  0.4574  0.1455 -0.1150
  192HFI     O1 2782   1.974   1.634   0.686  0.3018  0.0077 -0.4477
  192HFI     C1 2783   1.865   1.572   0.621  0.2944 -0.4139 -0.1088
  192HFI     C2 2784   1.884   1.422   0.605  0.6298  0.6420 -0.2798
  192HFI     F1 2785   1.974   1.376   0.516  0.2905 -0.0413 -0.1952
  192HFI     F2 2786   1.761   1.367   0.575  0.4277  0.2361 -0.3407
  192HFI     F3 2787   1.916   1.362   0.725 -0.0833  0.0248 -0.4814
  192HFI     C3 2788   1.834   1.659   0.490 -0.8407  1.1830 -0.0106
  192HFI     F4 2789   1.826   1.789   0.510 -0.0144  0.7556 -0.0724
  192HFI     F5 2790   1.717   1.613   0.444  0.3883  0.3038  0.1658
  192HFI     F6 2791   1.922   1.638   0.386  0.3404 -0.0565  0.2910
  192HFI     H1 2792   1.931   1.698   0.745 -2.2669 -2.6355  0.6610
  192HFI     H2 2793   1.775   1.590   0.680  0.4629  0.3263 -0.0639
  193HFI     O1 2794   1.065   0.801   2.465  0.2115 -0.3001 -0.3036
  193HFI     C1 2795   1.018   0.941   2.455 -0.2274  0.5433  0.1183
  193HFI     C2 2796   1.092   1.010   2.328  0.2400 -0.4080 -0.2319
  193HFI     F1 2797   1.224   1.038   2.352  0.0506  0.0386 -0.1163
  193HFI     F2 2798   1.024   1.122   2.294 -0.6922  0.0162  0.8219
  193HFI     F3 2799   1.083   0.921   2.225  0.2679 -0.2042  0.0744
  193HFI     C3 2800   1.048   1.006   2.591  0.3293  0.5756  0.7024
  193HFI     F4 2801   0.984   1.125   2.590  0.4155 -0.0065  0.5422
  193HFI     F5 2802   1.182   1.028   2.616  0.2941 -0.0420 -0.3072
  193HFI     F6 2803   0.998   0.924   2.691  0.2163 -0.0457 -0.0569
  193HFI     H1 2804   1.078   0.772   2.373  0.3284  2.1654 -1.0988
  193HFI     H2 2805   0.910   0.946   2.439  0.0261  0.5395 -1.6760
  194HFI     O1 2806   1.957   1.386   2.709 -0.5592 -0.6544  0.5834
  194HFI     C1 2807   2.017   1.511   2.758 -0.6820 -0.1584  0.5506
  194HFI     C2 2808   2.168   1.503   2.750  0.0333 -0.7910  0.0637
  194HFI     F1 2809   2.200   1.423   2.654 -0.1264  0.6407  0.2946
  194HFI     F2 2810   2.231   1.469   2.866  0.0251  0.3828  0.1899
  194HFI     F3 2811   2.211   1.623   2.719  0.3362 -0.0172 -0.5312
  194HFI     C3 2812   1.951   1.548   2.892 -0.1275  0.3323  0.3427
  194HFI     F4 2813   2.006   1.658   2.947  0.1462  0.6034  0.1142
  194HFI     F5 2814   1.953   1.447   2.981 -0.5008 -0.8581 -0.1125
  194HFI     F6 2815   1.827   1.577   2.866 -0.0120  0.2421  0.2285
  194HFI     H1 2816   2.003   1.354   2.630  0.1864 -2.0805  1.5893
  194HFI     H2 2817   1.988   1.596   2.696  1.1753 -0.4811 -0.8041
  195HFI     O1 2818   0.693   0.278   0.099  0.2331  0.2813 -0.2318
  195HFI     C1 2819   0.763   0.257  -0.029 -0.1262  0.0019 -0.3913
  195HFI     C2 2820   0.732   0.374  -0.128 -0.5822 -0.0865 -0.8293
  195HFI     F1 2821   0.762   0.346  -0.258  0.6138 -0.0800  0.3249
  195HFI     F2 2822   0.806   0.484  -0.099 -0.0591 -0.5293  0.3266
  195HFI     F3 2823   0.604   0.421  -0.121  0.1289  0.0819  0.2540
  195HFI     C3 2824   0.720   0.126  -0.089 -0.5067  0.1062  0.1369
  195HFI     F4 2825   0.733   0.016  -0.009 -0.1295  0.0727  0.2587
  195HFI     F5 2826   0.793   0.092  -0.196 -0.0976 -0.4416 -0.4978
  195HFI     F6 2827   0.589   0.135  -0.132  0.1220  0.0359 -0.1466
  195HFI     H1 2828   0.618   0.332   0.068  0.2680  0.0064 -0.8099
  195HFI     H2 2829   0.869   0.244  -0.003 -0.6183  0.0870  1.8054
  196HFI     O1 2830   1.407   0.441   3.578 -0.1756 -0.5805  0.2700
  196HFI     C1 2831   1.345   0.350   3.670  0.3021 -0.0461 -0.2300
  196HFI     C2 2832   1.188   0.371   3.666 -0.4171  0.5802 -0.2436
  196HFI     F1 2833   1.140   0.349   3.538  0.4473  0.2932 -0.0624
  196HFI     F2 2834   1.152   0.492   3.703  0.1766 -0.5317 -0.0590
  196HFI     F3 2835   1.117   0.288   3.741 -0.1508 -0.1756 -0.1969
  196HFI     C3 2836   1.416   0.353   3.804 -0.0591  0.1369  0.5720
  196HFI     F4 2837   1.408   0.469   3.875 -0.2657 -0.4380  0.0396
  196HFI     F5 2838   1.543   0.330   3.793  0.0630  0.0203  0.2919
  196HFI     F6 2839   1.368   0.259   3.886 -0.3887 -0.0763 -0.4990
  196HFI     H1 2840   1.357   0.524   3.580  1.1417  0.2470 -0.6296
  196HFI     H2 2841   1.377   0.250   3.635  2.6700  0.7146 -0.3215
  197HFI     O1 2842   0.943   0.074   1.320 -0.3672 -0.1953  0.3325
  197HFI     C1 2843   0.823   0.043   1.394 -0.0336 -0.4985 -0.5711
  197HFI     C2 2844   0.843   0.001   1.543 -0.1958  0.8418  0.3199
  197HFI     F1 2845   0.730   0.008   1.622  0.1906 -0.2882  0.7525
  197HFI     F2 2846   0.944   0.077   1.589 -0.5123  0.1295  0.6577
  197HFI     F3 2847   0.889  -0.127   1.541 -0.2449 -0.1891 -0.2453
  197HFI     C3 2848   0.734  -0.057   1.315  0.3216  0.1141 -0.3180
  197HFI     F4 2849   0.632  -0.096   1.390 -0.4177 -0.0940  0.2603
  197HFI     F5 2850   0.801  -0.164   1.271  0.3349  0.0858  0.2499
  197HFI     F6 2851   0.688   0.006   1.206  0.0076  0.0528  0.2057
  197HFI     H1 2852   0.986  -0.009   1.293 -1.7931 -0.2990 -1.6847
  197HFI     H2 2853   0.755   0.128   1.390 -0.8585 -1.0841  0.6519
  198HFI     O1 2854   0.814   2.099   1.046  0.3902 -0.8834 -0.1832
  198HFI     C1 2855   0.943   2.122   0.983 -0.9401 -0.1103 -0.3854
  198HFI     C2 2856   1.021   1.985   0.963 -0.2074 -0.5333 -0.1442
  198HFI     F1 2857   0.955   1.926   0.861 -0.0362  0.7469  0.2324
  198HFI     F2 2858   1.017   1.902   1.069 -0.1165 -0.2330 -0.1959
  198HFI     F3 2859   1.148   2.007   0.922  0.5289 -0.0593 -0.0074
  198HFI     C3 2860   1.027   2.229   1.050  0.0576 -0.4515  0.0016
  198HFI     F4 2861   0.947   2.329   1.069 -0.1512  0.1460 -0.0536
  198HFI     F5 2862   1.135   2.278   0.978  0.0342  0.2279  0.1781
  198HFI     F6 2863   1.077   2.189   1.164 -0.2990 -0.6704 -0.0907
  198HFI     H1 2864   0.761   2.180   1.035 -1.5143 -2.0309  0.3080
  198HFI     H2 2865   0.940   2.169   0.884 -0.9072 -1.5012 -1.0626
  199HFI     O1 2866   0.170   2.793   1.075 -0.0382  0.5562 -0.5142
  199HFI     C1 2867   0.233   2.687   0.983  0.3947 -0.0686  0.7163
  199HFI     C2 2868   0.192   2.706   0.831  0.1754 -0.3383 -0.0483
  199HFI     F1 2869   0.257   2.623   0.741 -0.1910  0.0208 -0.0777
  199HFI     F2 2870   0.230   2.825   0.793  0.2482  0.0885  0.1429
  199HFI     F3 2871   0.063   2.695   0.804 -0.0532  0.3972  0.3808
  199HFI     C3 2872   0.203   2.547   1.029 -0.4027 -0.0105  0.0980
  199HFI     F4 2873   0.239   2.449   0.943 -0.0641  0.3551 -0.5772
  199HFI     F5 2874   0.066   2.534   1.044 -0.2987  0.5362  0.0219
  199HFI     F6 2875   0.262   2.528   1.146  0.2611  0.0618  0.6289
  199HFI     H1 2876   0.140   2.745   1.154  0.2224  0.3572 -0.5336
  199HFI     H2 2877   0.341   2.702   0.996  0.3263  0.3238  0.8480
  200HFI     O1 2878   0.705   1.718   3.238 -0.0993 -0.6164 -0.0563
  200HFI     C1 2879   0.619   1.816   3.309 -0.1405 -0.3971  1.3860
  200HFI     C2 2880   0.599   1.945   3.226  0.1857  0.1026  0.3464
  200HFI     F1 2881   0.567   1.915   3.099 -0.1238 -0.2963  0.0641
  200HFI     F2 2882   0.712   2.023   3.214  0.4532  0.5680 -0.1407
  200HFI     F3 2883   0.500   2.025   3.276 -0.3168 -0.4567 -0.5458
  200HFI     C3 2884   0.679   1.851   3.447 -0.3015 -0.0517  0.0530
  200HFI     F4 2885   0.666   1.738   3.519  0.1512 -0.1198  0.5924
  200HFI     F5 2886   0.611   1.942   3.512  0.4493 -0.1004 -0.7115
  200HFI     F6 2887   0.812   1.881   3.443  0.1284  0.9481  0.0571
  200HFI     H1 2888   0.794   1.754   3.226 -0.5150  0.6150  0.4985
  200HFI     H2 2889   0.519   1.776   3.333 -0.1394 -2.8549 -2.2931
  201HFI     O1 2890   2.233   2.224   3.228 -0.0576  0.1317 -0.0652
  201HFI     C1 2891   2.148   2.274   3.334 -0.5651  0.1897  0.0255
  201HFI     C2 2892   2.009   2.209   3.337  0.1411  0.1752  0.2119
  201HFI     F1 2893   1.999   2.110   3.431  0.0003  0.4294  0.8826
  201HFI     F2 2894   1.960   2.156   3.221  0.3125  0.1011  0.2008
  201HFI     F3 2895   1.906   2.291   3.372  0.4591 -0.3544 -0.1789
  201HFI     C3 2896   2.154   2.430   3.342 -0.9338 -0.4146 -0.3035
  201HFI     F4 2897   2.276   2.479   3.374  0.0861 -0.6564 -0.2345
  201HFI     F5 2898   2.070   2.482   3.433 -0.1572 -0.3239  0.6292
  201HFI     F6 2899   2.114   2.477   3.224  0.0738  0.0884 -0.2408
  201HFI     H1 2900   2.245   2.293   3.160 -0.8530 -0.7696 -1.1313
  201HFI     H2 2901   2.202   2.250   3.427 -2.0113 -2.1830  0.2997
  202HFI     O1 2902   0.850   2.190   2.906  0.0126 -0.7019  0.4055
  202HFI     C1 2903   0.903   2.156   2.775 -0.7276  0.0415 -0.3485
  202HFI     C2 2904   0.789   2.087   2.683 -0.2606 -0.0012 -0.3247
  202HFI     F1 2905   0.772   1.957   2.715  0.1808  0.3809 -0.2263
  202HFI     F2 2906   0.832   2.091   2.555  0.0279 -0.4120  0.2455
  202HFI     F3 2907   0.672   2.154   2.696 -0.1289 -0.2539 -0.3231
  202HFI     C3 2908   1.041   2.076   2.783 -0.1477  0.5393 -0.6391
  202HFI     F4 2909   1.073   1.999   2.675  0.5056 -0.3902  0.5951
  202HFI     F5 2910   1.022   2.005   2.896 -0.0636 -0.0855  0.0419
  202HFI     F6 2911   1.143   2.154   2.810 -0.5332  0.4140 -0.0680
  202HFI     H1 2912   0.906   2.140   2.967 -0.4875 -1.2507  0.4090
  202HFI     H2 2913   0.932   2.250   2.726  1.1755 -0.4076 -0.1159
  203HFI     O1 2914   0.198   0.750   3.323  0.2441 -0.2505 -0.4461
  203HFI     C1 2915   0.197   0.811   3.186 -0.0704 -0.4503 -0.0584
  203HFI     C2 2916   0.075   0.917   3.170  0.3450  0.2524 -0.1461
  203HFI     F1 2917   0.108   1.014   3.247 -0.0286 -0.3995 -0.4824
  203HFI     F2 2918  -0.039   0.874   3.215 -0.0464 -0.3619  0.3463
  203HFI     F3 2919   0.059   0.952   3.045  0.3980 -0.0594  0.3376
  203HFI     C3 2920   0.208   0.701   3.075  0.0396 -0.0339  0.0834
  203HFI     F4 2921   0.312   0.623   3.103  0.3696  0.4139  0.7983
  203HFI     F5 2922   0.234   0.756   2.950  0.2097 -0.2768  0.4865
  203HFI     F6 2923   0.098   0.619   3.062  0.5417 -0.0123 -0.1151
  203HFI     H1 2924   0.289   0.726   3.348  0.4636 -0.9103 -1.8284
  203HFI     H2 2925   0.291   0.867   3.178  0.3608 -1.0502  0.8118
  204HFI     O1 2926   3.030   0.128   3.502  0.3110 -0.1158  0.4670
  204HFI     C1 2927   2.933   0.235   3.528  0.5685  0.0280 -0.1518
  204HFI     C2 2928   2.831   0.259   3.408 -0.3580  0.5260 -0.1103
  204HFI     F1 2929   2.896   0.301   3.295  0.1606  0.1575 -0.1445
  204HFI     F2 2930   2.736   0.349   3.436 -0.2931 -0.3908 -0.2890
  204HFI     F3 2931   2.761   0.142   3.380  0.0823  0.2716 -0.0922
  204HFI     C3 2932   2.987   0.368   3.579  0.4062  0.7108 -1.0443
  204HFI     F4 2933   2.884   0.437   3.633 -0.3252 -0.6606  0.1176
  204HFI     F5 2934   3.049   0.431   3.480  0.9727  0.4183 -0.0537
  204HFI     F6 2935   3.076   0.342   3.677 -0.0882  0.5660  0.1230
  204HFI     H1 2936   2.986   0.044   3.524 -0.8730  0.3471 -0.0590
  204HFI     H2 2937   2.880   0.198   3.616  1.3145  1.4513  0.9052
  205HFI     O1 2938   1.516   2.574   2.894 -0.0560  0.0521  0.2247
  205HFI     C1 2939   1.586   2.448   2.867 -0.4629  0.0550 -0.3027
  205HFI     C2 2940   1.668   2.464   2.733  0.7594  0.6420  0.0180
  205HFI     F1 2941   1.755   2.356   2.715 -0.3443 -0.3712 -0.8402
  205HFI     F2 2942   1.733   2.586   2.733 -0.0566 -0.3674  0.1214
  205HFI     F3 2943   1.576   2.460   2.636 -0.1908 -0.5206  0.0259
  205HFI     C3 2944   1.482   2.330   2.883  0.2619 -0.6866 -0.7090
  205HFI     F4 2945   1.414   2.292   2.772 -0.4597 -0.1033 -0.1421
  205HFI     F5 2946   1.385   2.359   2.976 -0.0014  0.1013 -0.6297
  205HFI     F6 2947   1.537   2.211   2.923  0.1152  0.0926 -0.2702
  205HFI     H1 2948   1.486   2.575   2.986  1.0760 -0.1775  0.6093
  205HFI     H2 2949   1.663   2.433   2.943 -1.4837  1.2447  1.0103
  206HFI     O1 2950   2.178   3.414   3.381  0.2998 -0.4210 -0.5721
  206HFI     C1 2951   2.251   3.466   3.274  0.5923  1.0947 -0.1697
  206HFI     C2 2952   2.381   3.518   3.328 -0.2331  0.1100 -0.2351
  206HFI     F1 2953   2.442   3.420   3.399  0.3407  0.3062 -0.1985
  206HFI     F2 2954   2.368   3.627   3.411  0.0606  0.5975 -0.4991
  206HFI     F3 2955   2.456   3.549   3.228 -0.0458  0.0706 -0.7070
  206HFI     C3 2956   2.175   3.578   3.200 -0.5587 -0.0046  0.0181
  206HFI     F4 2957   2.064   3.534   3.145 -0.6295  0.3873  0.5321
  206HFI     F5 2958   2.248   3.628   3.095  0.5083  0.2938 -0.4924
  206HFI     F6 2959   2.141   3.684   3.281  0.3092  0.6328  0.2535
  206HFI     H1 2960   2.136   3.487   3.429  2.0492 -1.0505  1.9821
  206HFI     H2 2961   2.277   3.390   3.200 -1.2522 -1.0188  1.2836
  207HFI     O1 2962   0.026   1.899   0.455 -0.6072  0.3245  0.1929
  207HFI     C1 2963  -0.096   1.859   0.394  0.0845 -0.0175 -0.1913
  207HFI     C2 2964  -0.222   1.877   0.487  0.6640 -0.1554  0.2455
  207HFI     F1 2965  -0.199   1.824   0.608  0.1719 -0.1162 -0.1948
  207HFI     F2 2966  -0.328   1.818   0.423 -0.2489  0.2695 -0.0009
  207HFI     F3 2967  -0.257   2.004   0.499 -0.1788  0.3868  0.5482
  207HFI     C3 2968  -0.080   1.719   0.343  0.5800 -0.7264 -0.7150
  207HFI     F4 2969   0.051   1.699   0.298 -0.4137  0.2490 -0.4930
  207HFI     F5 2970  -0.162   1.703   0.236  0.3247  0.0384  0.2923
  207HFI     F6 2971  -0.108   1.627   0.438  0.6397  0.1739 -0.4980
  207HFI     H1 2972  -0.002   1.961   0.524  0.5142  1.3884 -0.2995
  207HFI     H2 2973  -0.119   1.919   0.306  0.8999  0.2323 -0.2412
  208HFI     O1 2974   1.419   3.020   2.343 -0.0066  0.4731 -0.7017
  208HFI     C1 2975   1.432   2.904   2.269 -1.0472 -0.1380  0.3513
  208HFI     C2 2976   1.305   2.823   2.311  0.3578  0.5618 -0.0964
  208HFI     F1 2977   1.303   2.781   2.437 -0.0779  0.2508 -0.4732
  208HFI     F2 2978   1.283   2.707   2.237 -0.7546 -0.0366 -0.2158
  208HFI     F3 2979   1.193   2.887   2.295 -0.0772 -0.3918  0.6696
  208HFI     C3 2980   1.568   2.831   2.293  0.3353 -0.2569 -0.3602
  208HFI     F4 2981   1.590   2.730   2.204  0.0959 -0.2533 -0.6809
  208HFI     F5 2982   1.575   2.783   2.410 -0.2615  0.0578  0.3069
  208HFI     F6 2983   1.679   2.920   2.286  0.1316 -0.1944 -0.3313
  208HFI     H1 2984   1.395   2.989   2.432  0.0771  0.4677 -0.6807
  208HFI     H2 2985   1.430   2.933   2.163  0.4370  0.6719  0.5386
  209HFI     O1 2986   2.594   3.139   2.514  0.0733  0.6133  0.2445
  209HFI     C1 2987   2.554   3.158   2.368 -0.4146  0.0305 -0.4738
  209HFI     C2 2988   2.579   3.022   2.303 -0.7054 -0.4374  0.5060
  209HFI     F1 2989   2.492   2.927   2.350 -0.0678  0.2642  0.6460
  209HFI     F2 2990   2.705   2.972   2.321  0.1866 -0.7408  0.2215
  209HFI     F3 2991   2.556   3.034   2.171  0.5399 -0.5808 -0.5304
  209HFI     C3 2992   2.620   3.279   2.302  0.3558  0.4922 -0.0234
  209HFI     F4 2993   2.550   3.320   2.191  0.4424  0.6091  0.1266
  209HFI     F5 2994   2.737   3.251   2.258 -0.8219  0.5009  0.2048
  209HFI     F6 2995   2.621   3.383   2.392 -0.0038 -0.2954 -0.3663
  209HFI     H1 2996   2.614   3.222   2.562 -0.3322  0.9203 -0.1112
  209HFI     H2 2997   2.446   3.173   2.356 -0.6101 -1.9095 -1.4603
  210HFI     O1 2998   1.962   2.788   2.373  0.4346 -0.8203 -0.6086
  210HFI     C1 2999   2.061   2.853   2.294 -0.2328  0.1024 -0.5084
  210HFI     C2 3000   2.198   2.785   2.300 -0.8955  0.4853 -0.1859
  210HFI     F1 3001   2.238   2.785   2.428 -0.0769 -0.5544  0.3038
  210HFI     F2 3002   2.293   2.832   2.218  0.6778  0.6109  0.6134
  210HFI     F3 3003   2.173   2.658   2.265  0.1114 -0.2771 -0.3246
  210HFI     C3 3004   2.061   3.004   2.316  0.9667 -0.2012  0.4786
  210HFI     F4 3005   2.088   3.040   2.445 -0.5309 -0.0289  0.2141
  210HFI     F5 3006   1.944   3.060   2.285 -0.5349  0.4203  0.1079
  210HFI     F6 3007   2.147   3.071   2.232  0.5211  0.4265  0.2609
  210HFI     H1 3008   1.962   2.691   2.366 -0.4101 -0.9417  0.8490
  210HFI     H2 3009   2.046   2.836   2.186  1.9351  2.3747 -1.2058
  211HFI     O1 3010   1.703   3.222   2.317  0.0253  0.3224  0.0402
  211HFI     C1 3011   1.703   3.361   2.371 -1.1230 -0.1678  1.1774
  211HFI     C2 3012   1.839   3.433   2.342 -0.4090  0.2462 -0.0983
  211HFI     F1 3013   1.858   3.450   2.210 -0.2153 -0.0603  0.5259
  211HFI     F2 3014   1.937   3.357   2.392 -0.2767  0.9062 -0.0829
  211HFI     F3 3015   1.843   3.555   2.402  0.0192  0.2838  0.0007
  211HFI     C3 3016   1.666   3.377   2.523  0.6678  0.4525 -0.0265
  211HFI     F4 3017   1.628   3.496   2.564 -0.3825  0.1888  0.4960
  211HFI     F5 3018   1.767   3.342   2.608  0.0689 -0.2067  0.3067
  211HFI     F6 3019   1.567   3.295   2.555  0.4756 -0.0272  0.4006
  211HFI     H1 3020   1.695   3.154   2.386 -0.0298 -1.5158 -1.7171
  211HFI     H2 3021   1.628   3.420   2.316  0.3692  2.7451  2.1322
  212HFI     O1 3022   1.679   1.885   3.042  0.0104 -0.1152 -0.4877
  212HFI     C1 3023   1.578   1.890   3.150 -0.2017 -0.4464  0.1866
  212HFI     C2 3024   1.627   1.990   3.262 -0.7553 -0.4278 -0.5584
  212HFI     F1 3025   1.750   1.953   3.314  0.0071  0.2918 -0.0898
  212HFI     F2 3026   1.530   2.000   3.361  0.7051 -0.3325 -0.1284
  212HFI     F3 3027   1.645   2.113   3.208  0.3105 -0.2519 -0.2482
  212HFI     C3 3028   1.560   1.745   3.213  0.0566 -0.3185  0.7389
  212HFI     F4 3029   1.446   1.747   3.292  0.3629  0.2111 -0.2221
  212HFI     F5 3030   1.672   1.706   3.285  0.4162  0.0906  0.8005
  212HFI     F6 3031   1.532   1.649   3.119 -0.1205 -0.2072 -0.2216
  212HFI     H1 3032   1.769   1.883   3.079 -1.5477 -0.2708  3.6135
  212HFI     H2 3033   1.478   1.928   3.124 -0.0201 -0.1932 -0.1518
  213HFI     O1 3034   1.508   2.249   0.928  0.2554 -0.0662 -0.0442
  213HFI     C1 3035   1.618   2.165   0.982  0.6021 -0.2178 -0.0456
  213HFI     C2 3036   1.748   2.245   0.992 -0.4566 -0.7855 -0.9452
  213HFI     F1 3037   1.796   2.284   0.869 -0.0507  0.1764  0.2667
  213HFI     F2 3038   1.845   2.179   1.052  0.5953 -0.9256  0.1333
  213HFI     F3 3039   1.722   2.356   1.059 -0.4990 -0.1172 -0.0307
  213HFI     C3 3040   1.632   2.029   0.913  0.3235  0.2223  0.6682
  213HFI     F4 3041   1.728   1.955   0.968 -0.1597 -0.0402 -0.6770
  213HFI     F5 3042   1.653   2.041   0.779 -0.0520 -0.2186 -0.3628
  213HFI     F6 3043   1.525   1.951   0.919 -0.9708 -0.0013  0.4129
  213HFI     H1 3044   1.553   2.318   0.877 -2.0989  2.2116  0.8202
  213HFI     H2 3045   1.593   2.140   1.086 -1.9755  0.7871 -0.3900
  214HFI     O1 3046   3.374   0.906   1.194 -0.1644 -0.3093  0.2214
  214HFI     C1 3047   3.371   0.859   1.063 -0.5766  0.5249  0.7156
  214HFI     C2 3048   3.443   0.721   1.042  0.3020 -0.5600  0.9675
  214HFI     F1 3049   3.391   0.628   1.113  0.4168  0.2110 -0.1239
  214HFI     F2 3050   3.568   0.735   1.084  0.5446  0.2625  0.1649
  214HFI     F3 3051   3.442   0.686   0.910 -0.4573 -0.1258 -0.2937
  214HFI     C3 3052   3.434   0.970   0.983  0.2036  0.2746  0.5266
  214HFI     F4 3053   3.408   0.950   0.853 -0.2615  0.3531 -0.3093
  214HFI     F5 3054   3.562   0.987   1.006 -0.1439  0.0543  0.4083
  214HFI     F6 3055   3.382   1.095   1.011  0.0975 -0.5450  0.7530
  214HFI     H1 3056   3.447   0.863   1.240  0.4422  0.8269  0.3503
  214HFI     H2 3057   3.266   0.850   1.029 -0.5776 -0.0353  0.8690
  215HFI     O1 3058   2.236   2.651   0.487 -0.3605  0.4328  0.0304
  215HFI     C1 3059   2.164   2.707   0.379  0.0885  0.3626  0.7057
  215HFI     C2 3060   2.139   2.854   0.399  0.3353 -0.0728  0.1670
  215HFI     F1 3061   2.243   2.925   0.451 -0.3132  0.1283  0.2666
  215HFI     F2 3062   2.039   2.875   0.486 -0.2095 -0.2849  0.2796
  215HFI     F3 3063   2.102   2.917   0.282  0.0545 -0.4616  0.3457
  215HFI     C3 3064   2.039   2.630   0.344 -0.1273  0.1373  0.1474
  215HFI     F4 3065   1.960   2.706   0.257  0.5484  0.3903 -0.2033
  215HFI     F5 3066   1.966   2.605   0.452 -0.1265  0.0914 -0.1392
  215HFI     F6 3067   2.057   2.513   0.274 -0.0342 -0.0543  0.1917
  215HFI     H1 3068   2.183   2.656   0.568 -2.3733 -0.1939 -1.2196
  215HFI     H2 3069   2.223   2.697   0.287 -0.9878  1.7326 -0.1490
  216HFI     O1 3070   0.973   2.155   3.164  0.7537  0.5351 -0.3531
  216HFI     C1 3071   1.106   2.108   3.201 -0.4475 -0.0066 -0.2223
  216HFI     C2 3072   1.100   1.982   3.290 -0.3429  0.6893  0.1569
  216HFI     F1 3073   1.013   1.888   3.233 -0.0586 -0.1380  0.2970
  216HFI     F2 3074   1.056   2.006   3.415 -0.7088 -0.9028  0.0907
  216HFI     F3 3075   1.225   1.925   3.300  0.1099 -0.2275 -0.4960
  216HFI     C3 3076   1.176   2.231   3.257  0.4474  0.0071 -0.1035
  216HFI     F4 3077   1.120   2.272   3.380 -0.8187  0.0834 -0.0471
  216HFI     F5 3078   1.162   2.343   3.171  0.1498  0.3558 -0.2775
  216HFI     F6 3079   1.309   2.212   3.279 -0.5531  0.1660 -0.3608
  216HFI     H1 3080   0.933   2.196   3.242  0.8792 -0.3811  0.2028
  216HFI     H2 3081   1.163   2.086   3.110  0.2339  1.6335 -0.2204
  217HFI     O1 3082   2.471   0.670   2.388  0.1758  0.2922 -0.2328
  217HFI     C1 3083   2.573   0.712   2.290  0.2692 -0.6399 -0.2481
  217HFI     C2 3084   2.708   0.644   2.310 -0.1327  0.3512  0.0578
  217HFI     F1 3085   2.690   0.512   2.306  0.1370  0.1772 -0.5274
  217HFI     F2 3086   2.760   0.669   2.428 -0.4992  0.0278  0.1490
  217HFI     F3 3087   2.788   0.672   2.209 -0.2994 -0.6281 -0.3104
  217HFI     C3 3088   2.589   0.865   2.296  0.8910 -0.0018  0.3289
  217HFI     F4 3089   2.666   0.906   2.188  0.1138 -0.2649 -0.2803
  217HFI     F5 3090   2.645   0.909   2.410  0.1046  0.0664 -0.1691
  217HFI     F6 3091   2.472   0.924   2.284  0.2067 -0.0340 -0.1843
  217HFI     H1 3092   2.474   0.719   2.472 -1.7482 -0.1052  0.0916
  217HFI     H2 3093   2.545   0.684   2.188 -3.6465 -0.7641  0.7879
  218HFI     O1 3094   1.908   2.754   1.047 -0.2370 -0.6273 -0.6112
  218HFI     C1 3095   1.904   2.704   0.907 -0.1988  0.0854 -0.5347
  218HFI     C2 3096   2.047   2.676   0.844  0.2201 -0.2128 -0.1049
  218HFI     F1 3097   2.032   2.652   0.713  0.6081 -0.2024  0.0582
  218HFI     F2 3098   2.103   2.574   0.904  0.0038 -0.9187 -0.2417
  218HFI     F3 3099   2.127   2.791   0.857  0.3262  0.2703  0.0296
  218HFI     C3 3100   1.829   2.807   0.818  0.1848  0.1040  0.0048
  218HFI     F4 3101   1.716   2.850   0.881  0.4064  0.2658 -0.4122
  218HFI     F5 3102   1.785   2.759   0.699  0.2345  0.6728  0.3417
  218HFI     F6 3103   1.905   2.920   0.788  0.0320 -0.2378 -0.4930
  218HFI     H1 3104   1.989   2.807   1.059  0.1648 -0.7796 -2.5114
  218HFI     H2 3105   1.833   2.620   0.904 -0.6862  0.5240 -2.4377
  219HFI     O1 3106   1.611   0.441   0.587 -0.1040 -0.4326 -0.2267
  219HFI     C1 3107   1.547   0.315   0.555  0.8648  0.2192 -0.0180
  219HFI     C2 3108   1.643   0.208   0.489 -0.1661 -0.2930 -0.3962
  219HFI     F1 3109   1.697   0.263   0.377  0.1035 -0.2850  0.2694
  219HFI     F2 3110   1.584   0.100   0.455 -0.0552 -0.8670 -0.6947
  219HFI     F3 3111   1.734   0.175   0.580  0.6226 -0.0236  0.1458
  219HFI     C3 3112   1.416   0.336   0.467  0.2997  0.1650 -0.9186
  219HFI     F4 3113   1.344   0.228   0.450 -0.0584  0.2386 -0.3586
  219HFI     F5 3114   1.440   0.389   0.344 -0.3001  0.4157 -0.3740
  219HFI     F6 3115   1.344   0.433   0.532 -0.2285 -0.1065 -0.3237
  219HFI     H1 3116   1.609   0.495   0.506  0.8728 -1.4001 -0.9219
  219HFI     H2 3117   1.517   0.268   0.649 -0.8659 -0.4965 -0.9001
  220HFI     O1 3118   0.714   3.008   2.471  0.4587 -0.1361  0.0837
  220HFI     C1 3119   0.816   2.924   2.409  0.0069 -0.3630 -0.7319
  220HFI     C2 3120   0.811   2.923   2.258 -0.1356 -0.5537  0.5709
  220HFI     F1 3121   0.833   3.044   2.208  0.4565  0.5652  0.1381
  220HFI     F2 3122   0.689   2.889   2.211  0.0497 -0.2309 -0.0740
  220HFI     F3 3123   0.904   2.846   2.201 -0.5319  0.4387 -0.1169
  220HFI     C3 3124   0.826   2.777   2.472  0.1275 -0.1202 -0.2135
  220HFI     F4 3125   0.907   2.690   2.409  0.1658 -0.0518  0.1440
  220HFI     F5 3126   0.701   2.730   2.480  0.5760 -0.1109  0.3146
  220HFI     F6 3127   0.866   2.788   2.602 -0.3746 -0.1403  0.0695
  220HFI     H1 3128   0.658   2.956   2.531  0.9738  0.9665  1.5504
  220HFI     H2 3129   0.911   2.968   2.440 -1.3458  1.0348  1.5117
  221HFI     O1 3130   0.317   3.428   0.492  0.0283 -0.4848 -0.7901
  221HFI     C1 3131   0.416   3.423   0.389  0.2468  0.7310 -0.9770
  221HFI     C2 3132   0.355   3.434   0.250 -0.1608 -0.4287  0.2940
  221HFI     F1 3133   0.451   3.419   0.148 -0.0251 -0.0797 -0.3959
  221HFI     F2 3134   0.302   3.557   0.254 -0.0772  0.1679 -0.2936
  221HFI     F3 3135   0.257   3.341   0.232 -0.1172  0.0418 -0.0050
  221HFI     C3 3136   0.515   3.302   0.401 -0.3758 -0.4024  0.0505
  221HFI     F4 3137   0.541   3.286   0.537 -0.2129  0.4545 -0.3253
  221HFI     F5 3138   0.629   3.329   0.326 -0.3027 -0.0379  0.3360
  221HFI     F6 3139   0.448   3.194   0.356 -0.0781  0.8898 -0.0667
  221HFI     H1 3140   0.284   3.338   0.507  1.1457 -0.6582  0.7075
  221HFI     H2 3141   0.480   3.510   0.406  1.5706 -0.2255 -0.9356
  222HFI     O1 3142   1.463   0.584   2.235  0.1737  0.0933 -0.6110
  222HFI     C1 3143   1.539   0.642   2.343 -0.7025  1.0214 -0.0534
  222HFI     C2 3144   1.482   0.616   2.482  0.3947 -0.2286  0.0728
  222HFI     F1 3145   1.589   0.608   2.563 -0.0960 -0.2307  0.5928
  222HFI     F2 3146   1.421   0.491   2.483  0.3624  0.0868 -0.1275
  222HFI     F3 3147   1.392   0.709   2.526 -0.4053 -0.1154 -0.4000
  222HFI     C3 3148   1.565   0.795   2.312 -0.0990  0.4148 -0.2721
  222HFI     F4 3149   1.442   0.870   2.295 -0.0940 -0.0473  0.2180
  222HFI     F5 3150   1.634   0.805   2.194  0.6496  0.2069  0.0993
  222HFI     F6 3151   1.633   0.850   2.414 -0.3619  0.2959 -0.3660
  222HFI     H1 3152   1.513   0.550   2.158  1.2671  0.5168 -0.1046
  222HFI     H2 3153   1.637   0.591   2.342 -1.8634 -1.2891  0.9233
  223HFI     O1 3154   0.661   1.442   0.273  0.3167 -0.2497 -0.0827
  223HFI     C1 3155   0.567   1.474   0.164  0.4792  0.7972  0.6483
  223HFI     C2 3156   0.551   1.365   0.054 -0.5199 -0.5141 -0.3670
  223HFI     F1 3157   0.507   1.423  -0.064  0.4549 -0.2007 -0.6721
  223HFI     F2 3158   0.464   1.267   0.098  0.0014 -0.3808 -0.2871
  223HFI     F3 3159   0.662   1.295   0.025  0.2799 -0.3739 -0.2458
  223HFI     C3 3160   0.603   1.614   0.114  1.4879 -0.2743  0.1118
  223HFI     F4 3161   0.507   1.659   0.029  0.0037 -0.1333 -0.0569
  223HFI     F5 3162   0.716   1.617   0.052 -0.1181 -0.6483 -0.0242
  223HFI     F6 3163   0.607   1.699   0.218 -0.2672 -0.4103 -0.1233
  223HFI     H1 3164   0.731   1.509   0.274 -1.6878  1.9370 -0.8266
  223HFI     H2 3165   0.467   1.475   0.207 -0.5549  0.1346 -1.6488
  224HFI     O1 3166   1.466   2.338   0.365  0.4096 -0.3660 -0.0012
  224HFI     C1 3167   1.611   2.316   0.403  0.0727 -0.7017 -0.2190
  224HFI     C2 3168   1.652   2.168   0.397  0.7792  0.4089  0.6042
  224HFI     F1 3169   1.777   2.139   0.447  0.1306 -0.1325 -0.1881
  224HFI     F2 3170   1.656   2.122   0.268 -0.3820  0.0696 -0.0422
  224HFI     F3 3171   1.570   2.086   0.468 -0.1329  0.0875  0.1005
  224HFI     C3 3172   1.646   2.390   0.532  0.9535 -0.1282 -0.0626
  224HFI     F4 3173   1.597   2.323   0.640  0.3171  0.3466 -0.1043
  224HFI     F5 3174   1.589   2.512   0.533  0.1223  0.2128  0.1035
  224HFI     F6 3175   1.785   2.400   0.539  0.4397 -0.9041  0.1533
  224HFI     H1 3176   1.432   2.253   0.333 -1.5754  0.4341 -0.0916
  224HFI     H2 3177   1.670   2.375   0.332  3.2974 -2.1180  1.2101
  225HFI     O1 3178   1.386   1.712   3.702 -0.4885  0.0959  0.1005
  225HFI     C1 3179   1.280   1.698   3.600 -0.3838  0.2521 -0.3669
  225HFI     C2 3180   1.137   1.701   3.656 -0.1090 -0.5813  0.5609
  225HFI     F1 3181   1.118   1.805   3.728 -0.1727 -0.0450  0.2602
  225HFI     F2 3182   1.100   1.597   3.728  0.5621  0.1283 -0.3591
  225HFI     F3 3183   1.046   1.719   3.548  0.4719  0.0640  0.4474
  225HFI     C3 3184   1.312   1.579   3.519  0.4554 -0.1618 -0.0712
  225HFI     F4 3185   1.442   1.573   3.487  0.5979 -0.5867 -0.0185
  225HFI     F5 3186   1.239   1.580   3.408 -0.1552  0.1033 -0.2585
  225HFI     F6 3187   1.282   1.470   3.591  0.8012 -0.1610 -0.4893
  225HFI     H1 3188   1.379   1.650   3.777  0.2177  0.3756  0.4019
  225HFI     H2 3189   1.287   1.783   3.530 -0.5075 -0.0860 -0.7941
  226HFI     O1 3190   1.995   1.208   2.481 -0.4162 -0.3303 -0.7340
  226HFI     C1 3191   2.089   1.108   2.446 -0.0715 -0.0900  0.7430
  226HFI     C2 3192   2.074   1.064   2.296  0.1671  0.2626  1.1713
  226HFI     F1 3193   1.945   1.021   2.273 -0.6399 -0.6851 -0.1165
  226HFI     F2 3194   2.161   0.972   2.251 -0.4258 -0.3086  0.1883
  226HFI     F3 3195   2.093   1.172   2.213 -0.7581  0.0023  0.1852
  226HFI     C3 3196   2.106   0.995   2.551 -0.2969 -0.0974 -0.1157
  226HFI     F4 3197   2.067   1.021   2.678  0.3577  0.4537  0.1754
  226HFI     F5 3198   2.243   0.960   2.548  0.1896  0.2436  0.1138
  226HFI     F6 3199   2.038   0.885   2.512 -0.5341  0.2629  0.3178
  226HFI     H1 3200   1.907   1.174   2.502 -1.6466  3.1404  0.0696
  226HFI     H2 3201   2.186   1.159   2.438 -0.4330  0.3079 -1.4906
  227HFI     O1 3202   0.056   2.776   3.222  0.0283 -0.0608 -0.3644
  227HFI     C1 3203   0.181   2.843   3.233  0.8769  0.0503  0.0755
  227HFI     C2 3204   0.286   2.780   3.134 -0.7581 -0.4012  0.6407
  227HFI     F1 3205   0.248   2.817   3.014  0.1936 -0.4768  0.3365
  227HFI     F2 3206   0.290   2.639   3.138  0.1157 -0.6688 -0.3092
  227HFI     F3 3207   0.410   2.832   3.149 -0.1574  0.5019  0.3263
  227HFI     C3 3208   0.235   2.829   3.376  0.5705 -0.0306  0.1048
  227HFI     F4 3209   0.256   2.695   3.398  0.0295 -0.7073 -0.4175
  227HFI     F5 3210   0.148   2.868   3.461  0.6394  0.0463 -0.6247
  227HFI     F6 3211   0.345   2.903   3.397  0.7980  0.1654 -0.2321
  227HFI     H1 3212   0.043   2.762   3.127  1.5155  0.0129 -0.5909
  227HFI     H2 3213   0.155   2.949   3.229  1.7232  0.2744  0.4511
  228HFI     O1 3214   1.042   2.259   2.507  0.0030 -0.1880 -0.6256
  228HFI     C1 3215   1.156   2.253   2.410  0.5763 -0.3372 -0.2052
  228HFI     C2 3216   1.174   2.396   2.344 -0.3468  0.2359 -0.3999
  228HFI     F1 3217   1.187   2.483   2.444  0.2005 -0.6884  0.2241
  228HFI     F2 3218   1.063   2.434   2.279 -0.3900 -0.4747 -0.3724
  228HFI     F3 3219   1.272   2.415   2.258  0.4355 -0.0277 -0.4576
  228HFI     C3 3220   1.141   2.146   2.299  0.4701  0.0603 -0.1536
  228HFI     F4 3221   1.033   2.173   2.212 -0.5714  0.1010 -0.4066
  228HFI     F5 3222   1.125   2.031   2.360 -0.1809  0.8577 -0.2090
  228HFI     F6 3223   1.256   2.137   2.222  0.1258  0.3757  0.0303
  228HFI     H1 3224   0.965   2.235   2.454  0.5903  0.0208 -1.5895
  228HFI     H2 3225   1.253   2.230   2.456 -0.0750 -2.2001  0.3113
   3.40320   3.43847   3.80000
