DMF comparator n4
 4173
    1GR      C1    1   0.000   0.000   1.900  0.0000  0.0000  0.0000
    1GR      C2    2   0.142   0.000   1.900  0.0000  0.0000  0.0000
    1GR      C3    3   0.213   0.123   1.900  0.0000  0.0000  0.0000
    1GR      C4    4   0.354   0.123   1.900  0.0000  0.0000  0.0000
    1GR      C5    5   0.000   0.246   1.900  0.0000  0.0000  0.0000
    1GR      C6    6   0.142   0.246   1.900  0.0000  0.0000  0.0000
    1GR      C7    7   0.213   0.368   1.900  0.0000  0.0000  0.0000
    1GR      C8    8   0.354   0.368   1.900  0.0000  0.0000  0.0000
    1GR      C9    9   0.000   0.491   1.900  0.0000  0.0000  0.0000
    1GR     C10   10   0.142   0.491   1.900  0.0000  0.0000  0.0000
    1GR     C11   11   0.213   0.614   1.900  0.0000  0.0000  0.0000
    1GR     C12   12   0.354   0.614   1.900  0.0000  0.0000  0.0000
    1GR     C13   13   0.000   0.737   1.900  0.0000  0.0000  0.0000
    1GR     C14   14   0.142   0.737   1.900  0.0000  0.0000  0.0000
    1GR     C15   15   0.213   0.860   1.900  0.0000  0.0000  0.0000
    1GR     C16   16   0.354   0.860   1.900  0.0000  0.0000  0.0000
    1GR     C17   17   0.000   0.982   1.900  0.0000  0.0000  0.0000
    1GR     C18   18   0.142   0.982   1.900  0.0000  0.0000  0.0000
    1GR     C19   19   0.213   1.105   1.900  0.0000  0.0000  0.0000
    1GR     C20   20   0.354   1.105   1.900  0.0000  0.0000  0.0000
    1GR     C21   21   0.000   1.228   1.900  0.0000  0.0000  0.0000
    1GR     C22   22   0.142   1.228   1.900  0.0000  0.0000  0.0000
    1GR     C23   23   0.213   1.351   1.900  0.0000  0.0000  0.0000
    1GR     C24   24   0.354   1.351   1.900  0.0000  0.0000  0.0000
    1GR     C25   25   0.000   1.474   1.900  0.0000  0.0000  0.0000
    1GR     C26   26   0.142   1.474   1.900  0.0000  0.0000  0.0000
    1GR     C27   27   0.213   1.596   1.900  0.0000  0.0000  0.0000
    1GR     C28   28   0.354   1.596   1.900  0.0000  0.0000  0.0000
    1GR     C29   29   0.000   1.719   1.900  0.0000  0.0000  0.0000
    1GR     C30   30   0.142   1.719   1.900  0.0000  0.0000  0.0000
    1GR     C31   31   0.213   1.842   1.900  0.0000  0.0000  0.0000
    1GR     C32   32   0.354   1.842   1.900  0.0000  0.0000  0.0000
    1GR     C33   33   0.000   1.965   1.900  0.0000  0.0000  0.0000
    1GR     C34   34   0.142   1.965   1.900  0.0000  0.0000  0.0000
    1GR     C35   35   0.213   2.088   1.900  0.0000  0.0000  0.0000
    1GR     C36   36   0.354   2.088   1.900  0.0000  0.0000  0.0000
    1GR     C37   37   0.000   2.210   1.900  0.0000  0.0000  0.0000
    1GR     C38   38   0.142   2.210   1.900  0.0000  0.0000  0.0000
    1GR     C39   39   0.213   2.333   1.900  0.0000  0.0000  0.0000
    1GR     C40   40   0.354   2.333   1.900  0.0000  0.0000  0.0000
    1GR     C41   41   0.000   2.456   1.900  0.0000  0.0000  0.0000
    1GR     C42   42   0.142   2.456   1.900  0.0000  0.0000  0.0000
    1GR     C43   43   0.213   2.579   1.900  0.0000  0.0000  0.0000
    1GR     C44   44   0.354   2.579   1.900  0.0000  0.0000  0.0000
    1GR     C45   45   0.000   2.702   1.900  0.0000  0.0000  0.0000
    1GR     C46   46   0.142   2.702   1.900  0.0000  0.0000  0.0000
    1GR     C47   47   0.213   2.824   1.900  0.0000  0.0000  0.0000
    1GR     C48   48   0.354   2.824   1.900  0.0000  0.0000  0.0000
    1GR     C49   49   0.000   2.947   1.900  0.0000  0.0000  0.0000
    1GR     C50   50   0.142   2.947   1.900  0.0000  0.0000  0.0000
    1GR     C51   51   0.213   3.070   1.900  0.0000  0.0000  0.0000
    1GR     C52   52   0.354   3.070   1.900  0.0000  0.0000  0.0000
    1GR     C53   53   0.000   3.193   1.900  0.0000  0.0000  0.0000
    1GR     C54   54   0.142   3.193   1.900  0.0000  0.0000  0.0000
    1GR     C55   55   0.213   3.316   1.900  0.0000  0.0000  0.0000
    1GR     C56   56   0.354   3.316   1.900  0.0000  0.0000  0.0000
    1GR     C57   57   0.425   0.000   1.900  0.0000  0.0000  0.0000
    1GR     C58   58   0.567   0.000   1.900  0.0000  0.0000  0.0000
    1GR     C59   59   0.638   0.123   1.900  0.0000  0.0000  0.0000
    1GR     C60   60   0.780   0.123   1.900  0.0000  0.0000  0.0000
    1GR     C61   61   0.425   0.246   1.900  0.0000  0.0000  0.0000
    1GR     C62   62   0.567   0.246   1.900  0.0000  0.0000  0.0000
    1GR     C63   63   0.638   0.368   1.900  0.0000  0.0000  0.0000
    1GR     C64   64   0.780   0.368   1.900  0.0000  0.0000  0.0000
    1GR     C65   65   0.425   0.491   1.900  0.0000  0.0000  0.0000
    1GR     C66   66   0.567   0.491   1.900  0.0000  0.0000  0.0000
    1GR     C67   67   0.638   0.614   1.900  0.0000  0.0000  0.0000
    1GR     C68   68   0.780   0.614   1.900  0.0000  0.0000  0.0000
    1GR     C69   69   0.425   0.737   1.900  0.0000  0.0000  0.0000
    1GR     C70   70   0.567   0.737   1.900  0.0000  0.0000  0.0000
    1GR     C71   71   0.638   0.860   1.900  0.0000  0.0000  0.0000
    1GR     C72   72   0.780   0.860   1.900  0.0000  0.0000  0.0000
    1GR     C73   73   0.425   0.982   1.900  0.0000  0.0000  0.0000
    1GR     C74   74   0.567   0.982   1.900  0.0000  0.0000  0.0000
    1GR     C75   75   0.638   1.105   1.900  0.0000  0.0000  0.0000
    1GR     C76   76   0.780   1.105   1.900  0.0000  0.0000  0.0000
    1GR     C77   77   0.425   1.228   1.900  0.0000  0.0000  0.0000
    1GR     C78   78   0.567   1.228   1.900  0.0000  0.0000  0.0000
    1GR     C79   79   0.638   1.351   1.900  0.0000  0.0000  0.0000
    1GR     C80   80   0.780   1.351   1.900  0.0000  0.0000  0.0000
    1GR     C81   81   0.425   1.474   1.900  0.0000  0.0000  0.0000
    1GR     C82   82   0.567   1.474   1.900  0.0000  0.0000  0.0000
    1GR     C83   83   0.638   1.596   1.900  0.0000  0.0000  0.0000
    1GR     C84   84   0.780   1.596   1.900  0.0000  0.0000  0.0000
    1GR     C85   85   0.425   1.719   1.900  0.0000  0.0000  0.0000
    1GR     C86   86   0.567   1.719   1.900  0.0000  0.0000  0.0000
    1GR     C87   87   0.638   1.842   1.900  0.0000  0.0000  0.0000
    1GR     C88   88   0.780   1.842   1.900  0.0000  0.0000  0.0000
    1GR     C89   89   0.425   1.965   1.900  0.0000  0.0000  0.0000
    1GR     C90   90   0.567   1.965   1.900  0.0000  0.0000  0.0000
    1GR     C91   91   0.638   2.088   1.900  0.0000  0.0000  0.0000
    1GR     C92   92   0.780   2.088   1.900  0.0000  0.0000  0.0000
    1GR     C93   93   0.425   2.210   1.900  0.0000  0.0000  0.0000
    1GR     C94   94   0.567   2.210   1.900  0.0000  0.0000  0.0000
    1GR     C95   95   0.638   2.333   1.900  0.0000  0.0000  0.0000
    1GR     C96   96   0.780   2.333   1.900  0.0000  0.0000  0.0000
    1GR     C97   97   0.425   2.456   1.900  0.0000  0.0000  0.0000
    1GR     C98   98   0.567   2.456   1.900  0.0000  0.0000  0.0000
    1GR     C99   99   0.638   2.579   1.900  0.0000  0.0000  0.0000
    1GR    C100  100   0.780   2.579   1.900  0.0000  0.0000  0.0000
    1GR    C101  101   0.425   2.702   1.900  0.0000  0.0000  0.0000
    1GR    C102  102   0.567   2.702   1.900  0.0000  0.0000  0.0000
    1GR    C103  103   0.638   2.824   1.900  0.0000  0.0000  0.0000
    1GR    C104  104   0.780   2.824   1.900  0.0000  0.0000  0.0000
    1GR    C105  105   0.425   2.947   1.900  0.0000  0.0000  0.0000
    1GR    C106  106   0.567   2.947   1.900  0.0000  0.0000  0.0000
    1GR    C107  107   0.638   3.070   1.900  0.0000  0.0000  0.0000
    1GR    C108  108   0.780   3.070   1.900  0.0000  0.0000  0.0000
    1GR    C109  109   0.425   3.193   1.900  0.0000  0.0000  0.0000
    1GR    C110  110   0.567   3.193   1.900  0.0000  0.0000  0.0000
    1GR    C111  111   0.638   3.316   1.900  0.0000  0.0000  0.0000
    1GR    C112  112   0.780   3.316   1.900  0.0000  0.0000  0.0000
    1GR    C113  113   0.851   0.000   1.900  0.0000  0.0000  0.0000
    1GR    C114  114   0.993   0.000   1.900  0.0000  0.0000  0.0000
    1GR    C115  115   1.064   0.123   1.900  0.0000  0.0000  0.0000
    1GR    C116  116   1.205   0.123   1.900  0.0000  0.0000  0.0000
    1GR    C117  117   0.851   0.246   1.900  0.0000  0.0000  0.0000
    1GR    C118  118   0.993   0.246   1.900  0.0000  0.0000  0.0000
    1GR    C119  119   1.064   0.368   1.900  0.0000  0.0000  0.0000
    1GR    C120  120   1.205   0.368   1.900  0.0000  0.0000  0.0000
    1GR    C121  121   0.851   0.491   1.900  0.0000  0.0000  0.0000
    1GR    C122  122   0.993   0.491   1.900  0.0000  0.0000  0.0000
    1GR    C123  123   1.064   0.614   1.900  0.0000  0.0000  0.0000
    1GR    C124  124   1.205   0.614   1.900  0.0000  0.0000  0.0000
    1GR    C125  125   0.851   0.737   1.900  0.0000  0.0000  0.0000
    1GR    C126  126   0.993   0.737   1.900  0.0000  0.0000  0.0000
    1GR    C127  127   1.064   0.860   1.900  0.0000  0.0000  0.0000
    1GR    C128  128   1.205   0.860   1.900  0.0000  0.0000  0.0000
    1GR    C129  129   0.851   0.982   1.900  0.0000  0.0000  0.0000
    1GR    C130  130   0.993   0.982   1.900  0.0000  0.0000  0.0000
    1GR    C131  131   1.064   1.105   1.900  0.0000  0.0000  0.0000
    1GR    C132  132   1.205   1.105   1.900  0.0000  0.0000  0.0000
    1GR    C133  133   0.851   1.228   1.900  0.0000  0.0000  0.0000
    1GR    C134  134   0.993   1.228   1.900  0.0000  0.0000  0.0000
    1GR    C135  135   1.064   1.351   1.900  0.0000  0.0000  0.0000
    1GR    C136  136   1.205   1.351   1.900  0.0000  0.0000  0.0000
    1GR    C137  137   0.851   1.474   1.900  0.0000  0.0000  0.0000
    1GR    C138  138   0.993   1.474   1.900  0.0000  0.0000  0.0000
    1GR    C139  139   1.064   1.596   1.900  0.0000  0.0000  0.0000
    1GR    C140  140   1.205   1.596   1.900  0.0000  0.0000  0.0000
    1GR    C141  141   0.851   1.719   1.900  0.0000  0.0000  0.0000
    1GR    C142  142   0.993   1.719   1.900  0.0000  0.0000  0.0000
    1GR    C143  143   1.064   1.842   1.900  0.0000  0.0000  0.0000
    1GR    C144  144   1.205   1.842   1.900  0.0000  0.0000  0.0000
    1GR    C145  145   0.851   1.965   1.900  0.0000  0.0000  0.0000
    1GR    C146  146   0.993   1.965   1.900  0.0000  0.0000  0.0000
    1GR    C147  147   1.064   2.088   1.900  0.0000  0.0000  0.0000
    1GR    C148  148   1.205   2.088   1.900  0.0000  0.0000  0.0000
    1GR    C149  149   0.851   2.210   1.900  0.0000  0.0000  0.0000
    1GR    C150  150   0.993   2.210   1.900  0.0000  0.0000  0.0000
    1GR    C151  151   1.064   2.333   1.900  0.0000  0.0000  0.0000
    1GR    C152  152   1.205   2.333   1.900  0.0000  0.0000  0.0000
    1GR    C153  153   0.851   2.456   1.900  0.0000  0.0000  0.0000
    1GR    C154  154   0.993   2.456   1.900  0.0000  0.0000  0.0000
    1GR    C155  155   1.064   2.579   1.900  0.0000  0.0000  0.0000
    1GR    C156  156   1.205   2.579   1.900  0.0000  0.0000  0.0000
    1GR    C157  157   0.851   2.702   1.900  0.0000  0.0000  0.0000
    1GR    C158  158   0.993   2.702   1.900  0.0000  0.0000  0.0000
    1GR    C159  159   1.064   2.824   1.900  0.0000  0.0000  0.0000
    1GR    C160  160   1.205   2.824   1.900  0.0000  0.0000  0.0000
    1GR    C161  161   0.851   2.947   1.900  0.0000  0.0000  0.0000
    1GR    C162  162   0.993   2.947   1.900  0.0000  0.0000  0.0000
    1GR    C163  163   1.064   3.070   1.900  0.0000  0.0000  0.0000
    1GR    C164  164   1.205   3.070   1.900  0.0000  0.0000  0.0000
    1GR    C165  165   0.851   3.193   1.900  0.0000  0.0000  0.0000
    1GR    C166  166   0.993   3.193   1.900  0.0000  0.0000  0.0000
    1GR    C167  167   1.064   3.316   1.900  0.0000  0.0000  0.0000
    1GR    C168  168   1.205   3.316   1.900  0.0000  0.0000  0.0000
    1GR    C169  169   1.276   0.000   1.900  0.0000  0.0000  0.0000
    1GR    C170  170   1.418   0.000   1.900  0.0000  0.0000  0.0000
    1GR    C171  171   1.489   0.123   1.900  0.0000  0.0000  0.0000
    1GR    C172  172   1.631   0.123   1.900  0.0000  0.0000  0.0000
    1GR    C173  173   1.276   0.246   1.900  0.0000  0.0000  0.0000
    1GR    C174  174   1.418   0.246   1.900  0.0000  0.0000  0.0000
    1GR    C175  175   1.489   0.368   1.900  0.0000  0.0000  0.0000
    1GR    C176  176   1.631   0.368   1.900  0.0000  0.0000  0.0000
    1GR    C177  177   1.276   0.491   1.900  0.0000  0.0000  0.0000
    1GR    C178  178   1.418   0.491   1.900  0.0000  0.0000  0.0000
    1GR    C179  179   1.489   0.614   1.900  0.0000  0.0000  0.0000
    1GR    C180  180   1.631   0.614   1.900  0.0000  0.0000  0.0000
    1GR    C181  181   1.276   0.737   1.900  0.0000  0.0000  0.0000
    1GR    C182  182   1.418   0.737   1.900  0.0000  0.0000  0.0000
    1GR    C183  183   1.489   0.860   1.900  0.0000  0.0000  0.0000
    1GR    C184  184   1.631   0.860   1.900  0.0000  0.0000  0.0000
    1GR    C185  185   1.276   0.982   1.900  0.0000  0.0000  0.0000
    1GR    C186  186   1.418   0.982   1.900  0.0000  0.0000  0.0000
    1GR    C187  187   1.489   1.105   1.900  0.0000  0.0000  0.0000
    1GR    C188  188   1.631   1.105   1.900  0.0000  0.0000  0.0000
    1GR    C189  189   1.276   1.228   1.900  0.0000  0.0000  0.0000
    1GR    C190  190   1.418   1.228   1.900  0.0000  0.0000  0.0000
    1GR    C191  191   1.489   1.351   1.900  0.0000  0.0000  0.0000
    1GR    C192  192   1.631   1.351   1.900  0.0000  0.0000  0.0000
    1GR    C193  193   1.276   1.474   1.900  0.0000  0.0000  0.0000
    1GR    C194  194   1.418   1.474   1.900  0.0000  0.0000  0.0000
    1GR    C195  195   1.489   1.596   1.900  0.0000  0.0000  0.0000
    1GR    C196  196   1.631   1.596   1.900  0.0000  0.0000  0.0000
    1GR    C197  197   1.276   1.719   1.900  0.0000  0.0000  0.0000
    1GR    C198  198   1.418   1.719   1.900  0.0000  0.0000  0.0000
    1GR    C199  199   1.489   1.842   1.900  0.0000  0.0000  0.0000
    1GR    C200  200   1.631   1.842   1.900  0.0000  0.0000  0.0000
    1GR    C201  201   1.276   1.965   1.900  0.0000  0.0000  0.0000
    1GR    C202  202   1.418   1.965   1.900  0.0000  0.0000  0.0000
    1GR    C203  203   1.489   2.088   1.900  0.0000  0.0000  0.0000
    1GR    C204  204   1.631   2.088   1.900  0.0000  0.0000  0.0000
    1GR    C205  205   1.276   2.210   1.900  0.0000  0.0000  0.0000
    1GR    C206  206   1.418   2.210   1.900  0.0000  0.0000  0.0000
    1GR    C207  207   1.489   2.333   1.900  0.0000  0.0000  0.0000
    1GR    C208  208   1.631   2.333   1.900  0.0000  0.0000  0.0000
    1GR    C209  209   1.276   2.456   1.900  0.0000  0.0000  0.0000
    1GR    C210  210   1.418   2.456   1.900  0.0000  0.0000  0.0000
    1GR    C211  211   1.489   2.579   1.900  0.0000  0.0000  0.0000
    1GR    C212  212   1.631   2.579   1.900  0.0000  0.0000  0.0000
    1GR    C213  213   1.276   2.702   1.900  0.0000  0.0000  0.0000
    1GR    C214  214   1.418   2.702   1.900  0.0000  0.0000  0.0000
    1GR    C215  215   1.489   2.824   1.900  0.0000  0.0000  0.0000
    1GR    C216  216   1.631   2.824   1.900  0.0000  0.0000  0.0000
    1GR    C217  217   1.276   2.947   1.900  0.0000  0.0000  0.0000
    1GR    C218  218   1.418   2.947   1.900  0.0000  0.0000  0.0000
    1GR    C219  219   1.489   3.070   1.900  0.0000  0.0000  0.0000
    1GR    C220  220   1.631   3.070   1.900  0.0000  0.0000  0.0000
    1GR    C221  221   1.276   3.193   1.900  0.0000  0.0000  0.0000
    1GR    C222  222   1.418   3.193   1.900  0.0000  0.0000  0.0000
    1GR    C223  223   1.489   3.316   1.900  0.0000  0.0000  0.0000
    1GR    C224  224   1.631   3.316   1.900  0.0000  0.0000  0.0000
    1GR    C225  225   1.702   0.000   1.900  0.0000  0.0000  0.0000
    1GR    C226  226   1.843   0.000   1.900  0.0000  0.0000  0.0000
    1GR    C227  227   1.914   0.123   1.900  0.0000  0.0000  0.0000
    1GR    C228  228   2.056   0.123   1.900  0.0000  0.0000  0.0000
    1GR    C229  229   1.702   0.246   1.900  0.0000  0.0000  0.0000
    1GR    C230  230   1.843   0.246   1.900  0.0000  0.0000  0.0000
    1GR    C231  231   1.914   0.368   1.900  0.0000  0.0000  0.0000
    1GR    C232  232   2.056   0.368   1.900  0.0000  0.0000  0.0000
    1GR    C233  233   1.702   0.491   1.900  0.0000  0.0000  0.0000
    1GR    C234  234   1.843   0.491   1.900  0.0000  0.0000  0.0000
    1GR    C235  235   1.914   0.614   1.900  0.0000  0.0000  0.0000
    1GR    C236  236   2.056   0.614   1.900  0.0000  0.0000  0.0000
    1GR    C237  237   1.702   0.737   1.900  0.0000  0.0000  0.0000
    1GR    C238  238   1.843   0.737   1.900  0.0000  0.0000  0.0000
    1GR    C239  239   1.914   0.860   1.900  0.0000  0.0000  0.0000
    1GR    C240  240   2.056   0.860   1.900  0.0000  0.0000  0.0000
    1GR    C241  241   1.702   0.982   1.900  0.0000  0.0000  0.0000
    1GR    C242  242   1.843   0.982   1.900  0.0000  0.0000  0.0000
    1GR    C243  243   1.914   1.105   1.900  0.0000  0.0000  0.0000
    1GR    C244  244   2.056   1.105   1.900  0.0000  0.0000  0.0000
    1GR    C245  245   1.702   1.228   1.900  0.0000  0.0000  0.0000
    1GR    C246  246   1.843   1.228   1.900  0.0000  0.0000  0.0000
    1GR    C247  247   1.914   1.351   1.900  0.0000  0.0000  0.0000
    1GR    C248  248   2.056   1.351   1.900  0.0000  0.0000  0.0000
    1GR    C249  249   1.702   1.474   1.900  0.0000  0.0000  0.0000
    1GR    C250  250   1.843   1.474   1.900  0.0000  0.0000  0.0000
    1GR    C251  251   1.914   1.596   1.900  0.0000  0.0000  0.0000
    1GR    C252  252   2.056   1.596   1.900  0.0000  0.0000  0.0000
    1GR    C253  253   1.702   1.719   1.900  0.0000  0.0000  0.0000
    1GR    C254  254   1.843   1.719   1.900  0.0000  0.0000  0.0000
    1GR    C255  255   1.914   1.842   1.900  0.0000  0.0000  0.0000
    1GR    C256  256   2.056   1.842   1.900  0.0000  0.0000  0.0000
    1GR    C257  257   1.702   1.965   1.900  0.0000  0.0000  0.0000
    1GR    C258  258   1.843   1.965   1.900  0.0000  0.0000  0.0000
    1GR    C259  259   1.914   2.088   1.900  0.0000  0.0000  0.0000
    1GR    C260  260   2.056   2.088   1.900  0.0000  0.0000  0.0000
    1GR    C261  261   1.702   2.210   1.900  0.0000  0.0000  0.0000
    1GR    C262  262   1.843   2.210   1.900  0.0000  0.0000  0.0000
    1GR    C263  263   1.914   2.333   1.900  0.0000  0.0000  0.0000
    1GR    C264  264   2.056   2.333   1.900  0.0000  0.0000  0.0000
    1GR    C265  265   1.702   2.456   1.900  0.0000  0.0000  0.0000
    1GR    C266  266   1.843   2.456   1.900  0.0000  0.0000  0.0000
    1GR    C267  267   1.914   2.579   1.900  0.0000  0.0000  0.0000
    1GR    C268  268   2.056   2.579   1.900  0.0000  0.0000  0.0000
    1GR    C269  269   1.702   2.702   1.900  0.0000  0.0000  0.0000
    1GR    C270  270   1.843   2.702   1.900  0.0000  0.0000  0.0000
    1GR    C271  271   1.914   2.824   1.900  0.0000  0.0000  0.0000
    1GR    C272  272   2.056   2.824   1.900  0.0000  0.0000  0.0000
    1GR    C273  273   1.702   2.947   1.900  0.0000  0.0000  0.0000
    1GR    C274  274   1.843   2.947   1.900  0.0000  0.0000  0.0000
    1GR    C275  275   1.914   3.070   1.900  0.0000  0.0000  0.0000
    1GR    C276  276   2.056   3.070   1.900  0.0000  0.0000  0.0000
    1GR    C277  277   1.702   3.193   1.900  0.0000  0.0000  0.0000
    1GR    C278  278   1.843   3.193   1.900  0.0000  0.0000  0.0000
    1GR    C279  279   1.914   3.316   1.900  0.0000  0.0000  0.0000
    1GR    C280  280   2.056   3.316   1.900  0.0000  0.0000  0.0000
    1GR    C281  281   2.127   0.000   1.900  0.0000  0.0000  0.0000
    1GR    C282  282   2.269   0.000   1.900  0.0000  0.0000  0.0000
    1GR    C283  283   2.340   0.123   1.900  0.0000  0.0000  0.0000
    1GR    C284  284   2.481   0.123   1.900  0.0000  0.0000  0.0000
    1GR    C285  285   2.127   0.246   1.900  0.0000  0.0000  0.0000
    1GR    C286  286   2.269   0.246   1.900  0.0000  0.0000  0.0000
    1GR    C287  287   2.340   0.368   1.900  0.0000  0.0000  0.0000
    1GR    C288  288   2.481   0.368   1.900  0.0000  0.0000  0.0000
    1GR    C289  289   2.127   0.491   1.900  0.0000  0.0000  0.0000
    1GR    C290  290   2.269   0.491   1.900  0.0000  0.0000  0.0000
    1GR    C291  291   2.340   0.614   1.900  0.0000  0.0000  0.0000
    1GR    C292  292   2.481   0.614   1.900  0.0000  0.0000  0.0000
    1GR    C293  293   2.127   0.737   1.900  0.0000  0.0000  0.0000
    1GR    C294  294   2.269   0.737   1.900  0.0000  0.0000  0.0000
    1GR    C295  295   2.340   0.860   1.900  0.0000  0.0000  0.0000
    1GR    C296  296   2.481   0.860   1.900  0.0000  0.0000  0.0000
    1GR    C297  297   2.127   0.982   1.900  0.0000  0.0000  0.0000
    1GR    C298  298   2.269   0.982   1.900  0.0000  0.0000  0.0000
    1GR    C299  299   2.340   1.105   1.900  0.0000  0.0000  0.0000
    1GR    C300  300   2.481   1.105   1.900  0.0000  0.0000  0.0000
    1GR    C301  301   2.127   1.228   1.900  0.0000  0.0000  0.0000
    1GR    C302  302   2.269   1.228   1.900  0.0000  0.0000  0.0000
    1GR    C303  303   2.340   1.351   1.900  0.0000  0.0000  0.0000
    1GR    C304  304   2.481   1.351   1.900  0.0000  0.0000  0.0000
    1GR    C305  305   2.127   1.474   1.900  0.0000  0.0000  0.0000
    1GR    C306  306   2.269   1.474   1.900  0.0000  0.0000  0.0000
    1GR    C307  307   2.340   1.596   1.900  0.0000  0.0000  0.0000
    1GR    C308  308   2.481   1.596   1.900  0.0000  0.0000  0.0000
    1GR    C309  309   2.127   1.719   1.900  0.0000  0.0000  0.0000
    1GR    C310  310   2.269   1.719   1.900  0.0000  0.0000  0.0000
    1GR    C311  311   2.340   1.842   1.900  0.0000  0.0000  0.0000
    1GR    C312  312   2.481   1.842   1.900  0.0000  0.0000  0.0000
    1GR    C313  313   2.127   1.965   1.900  0.0000  0.0000  0.0000
    1GR    C314  314   2.269   1.965   1.900  0.0000  0.0000  0.0000
    1GR    C315  315   2.340   2.088   1.900  0.0000  0.0000  0.0000
    1GR    C316  316   2.481   2.088   1.900  0.0000  0.0000  0.0000
    1GR    C317  317   2.127   2.210   1.900  0.0000  0.0000  0.0000
    1GR    C318  318   2.269   2.210   1.900  0.0000  0.0000  0.0000
    1GR    C319  319   2.340   2.333   1.900  0.0000  0.0000  0.0000
    1GR    C320  320   2.481   2.333   1.900  0.0000  0.0000  0.0000
    1GR    C321  321   2.127   2.456   1.900  0.0000  0.0000  0.0000
    1GR    C322  322   2.269   2.456   1.900  0.0000  0.0000  0.0000
    1GR    C323  323   2.340   2.579   1.900  0.0000  0.0000  0.0000
    1GR    C324  324   2.481   2.579   1.900  0.0000  0.0000  0.0000
    1GR    C325  325   2.127   2.702   1.900  0.0000  0.0000  0.0000
    1GR    C326  326   2.269   2.702   1.900  0.0000  0.0000  0.0000
    1GR    C327  327   2.340   2.824   1.900  0.0000  0.0000  0.0000
    1GR    C328  328   2.481   2.824   1.900  0.0000  0.0000  0.0000
    1GR    C329  329   2.127   2.947   1.900  0.0000  0.0000  0.0000
    1GR    C330  330   2.269   2.947   1.900  0.0000  0.0000  0.0000
    1GR    C331  331   2.340   3.070   1.900  0.0000  0.0000  0.0000
    1GR    C332  332   2.481   3.070   1.900  0.0000  0.0000  0.0000
    1GR    C333  333   2.127   3.193   1.900  0.0000  0.0000  0.0000
    1GR    C334  334   2.269   3.193   1.900  0.0000  0.0000  0.0000
    1GR    C335  335   2.340   3.316   1.900  0.0000  0.0000  0.0000
    1GR    C336  336   2.481   3.316   1.900  0.0000  0.0000  0.0000
    1GR    C337  337   2.552   0.000   1.900  0.0000  0.0000  0.0000
    1GR    C338  338   2.694   0.000   1.900  0.0000  0.0000  0.0000
    1GR    C339  339   2.765   0.123   1.900  0.0000  0.0000  0.0000
    1GR    C340  340   2.907   0.123   1.900  0.0000  0.0000  0.0000
    1GR    C341  341   2.552   0.246   1.900  0.0000  0.0000  0.0000
    1GR    C342  342   2.694   0.246   1.900  0.0000  0.0000  0.0000
    1GR    C343  343   2.765   0.368   1.900  0.0000  0.0000  0.0000
    1GR    C344  344   2.907   0.368   1.900  0.0000  0.0000  0.0000
    1GR    C345  345   2.552   0.491   1.900  0.0000  0.0000  0.0000
    1GR    C346  346   2.694   0.491   1.900  0.0000  0.0000  0.0000
    1GR    C347  347   2.765   0.614   1.900  0.0000  0.0000  0.0000
    1GR    C348  348   2.907   0.614   1.900  0.0000  0.0000  0.0000
    1GR    C349  349   2.552   0.737   1.900  0.0000  0.0000  0.0000
    1GR    C350  350   2.694   0.737   1.900  0.0000  0.0000  0.0000
    1GR    C351  351   2.765   0.860   1.900  0.0000  0.0000  0.0000
    1GR    C352  352   2.907   0.860   1.900  0.0000  0.0000  0.0000
    1GR    C353  353   2.552   0.982   1.900  0.0000  0.0000  0.0000
    1GR    C354  354   2.694   0.982   1.900  0.0000  0.0000  0.0000
    1GR    C355  355   2.765   1.105   1.900  0.0000  0.0000  0.0000
    1GR    C356  356   2.907   1.105   1.900  0.0000  0.0000  0.0000
    1GR    C357  357   2.552   1.228   1.900  0.0000  0.0000  0.0000
    1GR    C358  358   2.694   1.228   1.900  0.0000  0.0000  0.0000
    1GR    C359  359   2.765   1.351   1.900  0.0000  0.0000  0.0000
    1GR    C360  360   2.907   1.351   1.900  0.0000  0.0000  0.0000
    1GR    C361  361   2.552   1.474   1.900  0.0000  0.0000  0.0000
    1GR    C362  362   2.694   1.474   1.900  0.0000  0.0000  0.0000
    1GR    C363  363   2.765   1.596   1.900  0.0000  0.0000  0.0000
    1GR    C364  364   2.907   1.596   1.900  0.0000  0.0000  0.0000
    1GR    C365  365   2.552   1.719   1.900  0.0000  0.0000  0.0000
    1GR    C366  366   2.694   1.719   1.900  0.0000  0.0000  0.0000
    1GR    C367  367   2.765   1.842   1.900  0.0000  0.0000  0.0000
    1GR    C368  368   2.907   1.842   1.900  0.0000  0.0000  0.0000
    1GR    C369  369   2.552   1.965   1.900  0.0000  0.0000  0.0000
    1GR    C370  370   2.694   1.965   1.900  0.0000  0.0000  0.0000
    1GR    C371  371   2.765   2.088   1.900  0.0000  0.0000  0.0000
    1GR    C372  372   2.907   2.088   1.900  0.0000  0.0000  0.0000
    1GR    C373  373   2.552   2.210   1.900  0.0000  0.0000  0.0000
    1GR    C374  374   2.694   2.210   1.900  0.0000  0.0000  0.0000
    1GR    C375  375   2.765   2.333   1.900  0.0000  0.0000  0.0000
    1GR    C376  376   2.907   2.333   1.900  0.0000  0.0000  0.0000
    1GR    C377  377   2.552   2.456   1.900  0.0000  0.0000  0.0000
    1GR    C378  378   2.694   2.456   1.900  0.0000  0.0000  0.0000
    1GR    C379  379   2.765   2.579   1.900  0.0000  0.0000  0.0000
    1GR    C380  380   2.907   2.579   1.900  0.0000  0.0000  0.0000
    1GR    C381  381   2.552   2.702   1.900  0.0000  0.0000  0.0000
    1GR    C382  382   2.694   2.702   1.900  0.0000  0.0000  0.0000
    1GR    C383  383   2.765   2.824   1.900  0.0000  0.0000  0.0000
    1GR    C384  384   2.907   2.824   1.900  0.0000  0.0000  0.0000
    1GR    C385  385   2.552   2.947   1.900  0.0000  0.0000  0.0000
    1GR    C386  386   2.694   2.947   1.900  0.0000  0.0000  0.0000
    1GR    C387  387   2.765   3.070   1.900  0.0000  0.0000  0.0000
    1GR    C388  388   2.907   3.070   1.900  0.0000  0.0000  0.0000
    1GR    C389  389   2.552   3.193   1.900  0.0000  0.0000  0.0000
    1GR    C390  390   2.694   3.193   1.900  0.0000  0.0000  0.0000
    1GR    C391  391   2.765   3.316   1.900  0.0000  0.0000  0.0000
    1GR    C392  392   2.907   3.316   1.900  0.0000  0.0000  0.0000
    1GR    C393  393   2.978   0.000   1.900  0.0000  0.0000  0.0000
    1GR    C394  394   3.120   0.000   1.900  0.0000  0.0000  0.0000
    1GR    C395  395   3.191   0.123   1.900  0.0000  0.0000  0.0000
    1GR    C396  396   3.332   0.123   1.900  0.0000  0.0000  0.0000
    1GR    C397  397   2.978   0.246   1.900  0.0000  0.0000  0.0000
    1GR    C398  398   3.120   0.246   1.900  0.0000  0.0000  0.0000
    1GR    C399  399   3.191   0.368   1.900  0.0000  0.0000  0.0000
    1GR    C400  400   3.332   0.368   1.900  0.0000  0.0000  0.0000
    1GR    C401  401   2.978   0.491   1.900  0.0000  0.0000  0.0000
    1GR    C402  402   3.120   0.491   1.900  0.0000  0.0000  0.0000
    1GR    C403  403   3.191   0.614   1.900  0.0000  0.0000  0.0000
    1GR    C404  404   3.332   0.614   1.900  0.0000  0.0000  0.0000
    1GR    C405  405   2.978   0.737   1.900  0.0000  0.0000  0.0000
    1GR    C406  406   3.120   0.737   1.900  0.0000  0.0000  0.0000
    1GR    C407  407   3.191   0.860   1.900  0.0000  0.0000  0.0000
    1GR    C408  408   3.332   0.860   1.900  0.0000  0.0000  0.0000
    1GR    C409  409   2.978   0.982   1.900  0.0000  0.0000  0.0000
    1GR    C410  410   3.120   0.982   1.900  0.0000  0.0000  0.0000
    1GR    C411  411   3.191   1.105   1.900  0.0000  0.0000  0.0000
    1GR    C412  412   3.332   1.105   1.900  0.0000  0.0000  0.0000
    1GR    C413  413   2.978   1.228   1.900  0.0000  0.0000  0.0000
    1GR    C414  414   3.120   1.228   1.900  0.0000  0.0000  0.0000
    1GR    C415  415   3.191   1.351   1.900  0.0000  0.0000  0.0000
    1GR    C416  416   3.332   1.351   1.900  0.0000  0.0000  0.0000
    1GR    C417  417   2.978   1.474   1.900  0.0000  0.0000  0.0000
    1GR    C418  418   3.120   1.474   1.900  0.0000  0.0000  0.0000
    1GR    C419  419   3.191   1.596   1.900  0.0000  0.0000  0.0000
    1GR    C420  420   3.332   1.596   1.900  0.0000  0.0000  0.0000
    1GR    C421  421   2.978   1.719   1.900  0.0000  0.0000  0.0000
    1GR    C422  422   3.120   1.719   1.900  0.0000  0.0000  0.0000
    1GR    C423  423   3.191   1.842   1.900  0.0000  0.0000  0.0000
    1GR    C424  424   3.332   1.842   1.900  0.0000  0.0000  0.0000
    1GR    C425  425   2.978   1.965   1.900  0.0000  0.0000  0.0000
    1GR    C426  426   3.120   1.965   1.900  0.0000  0.0000  0.0000
    1GR    C427  427   3.191   2.088   1.900  0.0000  0.0000  0.0000
    1GR    C428  428   3.332   2.088   1.900  0.0000  0.0000  0.0000
    1GR    C429  429   2.978   2.210   1.900  0.0000  0.0000  0.0000
    1GR    C430  430   3.120   2.210   1.900  0.0000  0.0000  0.0000
    1GR    C431  431   3.191   2.333   1.900  0.0000  0.0000  0.0000
    1GR    C432  432   3.332   2.333   1.900  0.0000  0.0000  0.0000
    1GR    C433  433   2.978   2.456   1.900  0.0000  0.0000  0.0000
    1GR    C434  434   3.120   2.456   1.900  0.0000  0.0000  0.0000
    1GR    C435  435   3.191   2.579   1.900  0.0000  0.0000  0.0000
    1GR    C436  436   3.332   2.579   1.900  0.0000  0.0000  0.0000
    1GR    C437  437   2.978   2.702   1.900  0.0000  0.0000  0.0000
    1GR    C438  438   3.120   2.702   1.900  0.0000  0.0000  0.0000
    1GR    C439  439   3.191   2.824   1.900  0.0000  0.0000  0.0000
    1GR    C440  440   3.332   2.824   1.900  0.0000  0.0000  0.0000
    1GR    C441  441   2.978   2.947   1.900  0.0000  0.0000  0.0000
    1GR    C442  442   3.120   2.947   1.900  0.0000  0.0000  0.0000
    1GR    C443  443   3.191   3.070   1.900  0.0000  0.0000  0.0000
    1GR    C444  444   3.332   3.070   1.900  0.0000  0.0000  0.0000
    1GR    C445  445   2.978   3.193   1.900  0.0000  0.0000  0.0000
    1GR    C446  446   3.120   3.193   1.900  0.0000  0.0000  0.0000
    1GR    C447  447   3.191   3.316   1.900  0.0000  0.0000  0.0000
    1GR    C448  448   3.332   3.316   1.900  0.0000  0.0000  0.0000
    2PMMA   CX1  449   2.560   2.032   2.265  0.1043  0.0178 -0.3820
    2PMMA   CA2  450   2.500   1.965   2.391 -0.1618 -0.2727  0.2302
    2PMMA   CX3  451   2.427   2.078   2.462  0.1456  0.6888  0.1810
    2PMMA    C4  452   2.408   1.853   2.327 -0.7004 -0.0341  0.4180
    2PMMA    O5  453   2.441   1.740   2.298 -0.2818  0.2100  0.1341
    2PMMA   OS6  454   2.280   1.885   2.338  0.6534 -0.4552  0.3676
    2PMMA   CE7  455   2.174   1.811   2.296  0.1911  0.3661  0.6013
    2PMMA   CX8  456   2.615   1.901   2.483 -0.5901  0.4216  0.3105
    2PMMA   CA9  457   2.590   1.845   2.626  0.3487 -0.4797 -0.6406
    2PMMA  CX10  458   2.486   1.739   2.618 -0.1035 -0.5718  0.0656
    2PMMA   C11  459   2.549   1.963   2.714  0.1620  0.6407 -1.4428
    2PMMA   O12  460   2.455   1.963   2.787  0.1058  0.1442  0.4204
    2PMMA  OS13  461   2.645   2.057   2.728  0.4213 -0.6120 -0.4285
    2PMMA  CE14  462   2.626   2.159   2.822 -0.0081 -0.4595  0.1163
    2PMMA  CX15  463   2.715   1.782   2.695  0.4031 -0.5120 -0.2810
    2PMMA  CA16  464   2.734   1.706   2.834 -0.1531  0.0795 -0.2936
    2PMMA  CX17  465   2.694   1.806   2.944  0.1435 -0.4596  0.2794
    2PMMA   C18  466   2.643   1.577   2.846 -0.4493  0.8078 -0.2716
    2PMMA   O19  467   2.562   1.561   2.935 -0.2557 -0.4187  0.4224
    2PMMA  OS20  468   2.646   1.495   2.739 -0.0369  0.0152  0.3368
    2PMMA  CE21  469   2.569   1.380   2.736  0.1377 -0.2005  0.0677
    2PMMA  CX22  470   2.881   1.664   2.849 -0.9791 -0.1813 -0.0331
    2PMMA  CA23  471   2.944   1.616   2.981  0.3469  0.0149  0.6557
    2PMMA  CX24  472   2.867   1.487   3.034 -0.9787 -0.5452 -0.4894
    2PMMA   C25  473   2.954   1.718   3.092 -0.5008  0.0143 -0.5781
    2PMMA   O26  474   2.898   1.694   3.199 -0.2794 -0.0383  0.1253
    2PMMA  OS27  475   3.001   1.836   3.053  0.1040 -0.1182 -0.3749
    2PMMA  CE28  476   3.008   1.946   3.147  0.8099  0.3881  0.0613
    2PMMA  CX29  477   3.092   1.574   2.957 -0.4365  0.0130 -0.5408
    2PMMA  HC30  478   2.632   2.110   2.290  0.2456  0.3407 -1.7503
    2PMMA  HC31  479   2.613   1.963   2.199  2.6754  0.3185  1.3345
    2PMMA  HC32  480   2.485   2.081   2.202 -2.1037 -1.9841  0.6106
    2PMMA  HC33  481   2.355   2.134   2.401  0.6729 -0.3701 -1.4440
    2PMMA  HC34  482   2.494   2.154   2.505  0.0361 -0.1304  1.8074
    2PMMA  HC35  483   2.364   2.044   2.544 -0.8950 -0.0921 -0.9360
    2PMMA  H136  484   2.134   1.762   2.385  3.0936 -1.1216  1.1400
    2PMMA  H137  485   2.196   1.743   2.213 -1.7184  0.6011 -0.1236
    2PMMA  H138  486   2.100   1.881   2.256  0.1318  0.5010  0.9478
    2PMMA  HC39  487   2.667   1.823   2.426  0.7110  0.5233  1.3302
    2PMMA  HC40  488   2.695   1.974   2.500 -1.1186  1.1693 -0.3871
    2PMMA  HC41  489   2.389   1.776   2.583  0.0628 -1.0317 -0.9012
    2PMMA  HC42  490   2.522   1.657   2.555  1.7792  0.4108 -0.1691
    2PMMA  HC43  491   2.465   1.705   2.720  0.1149  1.1328  0.6969
    2PMMA  H144  492   2.719   2.214   2.833  0.5816 -1.3174 -0.5122
    2PMMA  H145  493   2.610   2.101   2.914  1.8310 -0.6069  0.3588
    2PMMA  H146  494   2.532   2.214   2.811 -0.5429 -1.1612  1.0867
    2PMMA  HC47  495   2.760   1.718   2.618 -0.1174 -0.3567 -0.7105
    2PMMA  HC48  496   2.789   1.863   2.695  0.2647 -0.3869 -0.6141
    2PMMA  HC49  497   2.739   1.905   2.937 -0.6272 -0.0304  1.2349
    2PMMA  HC50  498   2.718   1.779   3.048  0.7405  1.0654  0.5450
    2PMMA  HC51  499   2.585   1.818   2.937  0.1995 -0.9999 -1.5577
    2PMMA  H152  500   2.585   1.317   2.824  1.0741  0.8926  0.7000
    2PMMA  H153  501   2.604   1.328   2.647  1.0594  1.1672 -0.3778
    2PMMA  H154  502   2.463   1.402   2.719 -0.2889 -1.6047  0.8686
    2PMMA  HC55  503   2.900   1.588   2.773  0.8224 -0.4323  0.6498
    2PMMA  HC56  504   2.949   1.747   2.826  1.1688 -1.3918  1.8075
    2PMMA  HC57  505   2.766   1.515   3.069 -1.4228  0.1679 -2.2682
    2PMMA  HC58  506   2.853   1.411   2.957  3.0920 -1.9013  0.0253
    2PMMA  HC59  507   2.919   1.436   3.115 -0.2537 -0.1191 -0.6896
    2PMMA  H160  508   3.042   1.899   3.239  0.6634 -2.5139 -1.2966
    2PMMA  H161  509   2.904   1.978   3.164  0.3001 -0.5038 -1.2637
    2PMMA  H162  510   3.083   2.021   3.121  2.2259 -0.2191  2.3304
    2PMMA  HC63  511   3.142   1.566   3.054  1.7506 -0.8548 -1.7070
    2PMMA  HC64  512   3.109   1.481   2.903  0.8297  1.5399 -2.8886
    2PMMA  HC65  513   3.147   1.649   2.899  0.5783 -0.2173  0.1093
    3DMF     C1  514   3.324   2.509   3.792  0.4617  0.1815  0.5069
    3DMF     N1  515   3.375   2.375   3.822 -0.0887  0.2084  0.0619
    3DMF     C2  516   3.464   2.312   3.722  0.4945 -0.1288  0.3100
    3DMF     C3  517   3.336   2.300   3.937 -0.1061 -0.1995  0.0554
    3DMF     O1  518   3.271   2.352   4.024  0.1668  0.5097  0.0293
    3DMF     H1  519   3.291   2.559   3.883  1.3521  2.8469 -0.5924
    3DMF     H2  520   3.237   2.507   3.725 -0.1410 -4.9057  1.2092
    3DMF     H3  521   3.405   2.575   3.757  2.5741 -1.0816  2.8777
    3DMF     H4  522   3.396   2.255   3.657 -0.3213 -0.2357  1.2502
    3DMF     H5  523   3.523   2.240   3.780  1.8106 -0.4111 -1.3202
    3DMF     H6  524   3.536   2.374   3.667 -0.2498  0.3523 -0.1398
    3DMF     H7  525   3.390   2.203   3.937  0.5313  0.1499 -1.1323
    4DMF     C1  526   3.248   3.064   2.294 -0.1874  0.8536 -0.1016
    4DMF     N1  527   3.381   3.116   2.340  0.5003 -0.2701  0.0191
    4DMF     C2  528   3.429   3.235   2.284 -0.2603 -0.1573  0.1309
    4DMF     C3  529   3.444   3.065   2.452  0.3770 -0.0298 -0.3536
    4DMF     O1  530   3.388   2.973   2.516 -0.0022 -0.3842 -0.0604
    4DMF     H1  531   3.274   3.018   2.198  0.8397  0.6718  0.2527
    4DMF     H2  532   3.173   3.144   2.286  1.5663  2.4659 -0.7839
    4DMF     H3  533   3.215   2.978   2.354 -0.7548 -0.8830 -2.8153
    4DMF     H4  534   3.394   3.320   2.345  1.1517  2.0377 -2.0491
    4DMF     H5  535   3.385   3.240   2.184  0.3067 -0.6861 -0.1445
    4DMF     H6  536   3.539   3.237   2.280 -0.2397  1.6777  0.7667
    4DMF     H7  537   3.535   3.121   2.478 -0.6048  2.1182 -1.4012
    5DMF     C1  538   0.139   0.894   3.457 -0.2166 -0.0137  0.1496
    5DMF     N1  539   0.268   0.874   3.537  0.5408 -0.4262  0.3398
    5DMF     C2  540   0.318   0.999   3.609 -0.5670 -0.6871 -0.6261
    5DMF     C3  541   0.344   0.755   3.530  0.3382  0.5853  0.4692
    5DMF     O1  542   0.307   0.667   3.452 -0.6000 -0.0951  0.0796
    5DMF     H1  543   0.105   0.998   3.469 -1.1423 -0.4125  1.0373
    5DMF     H2  544   0.068   0.818   3.493 -0.2330 -0.1061 -0.0804
    5DMF     H3  545   0.154   0.877   3.350 -1.4555 -3.1667  0.4452
    5DMF     H4  546   0.385   0.969   3.691 -1.6147 -0.4841  0.3334
    5DMF     H5  547   0.232   1.059   3.641 -0.4092 -0.2216 -1.0833
    5DMF     H6  548   0.384   1.058   3.545 -1.9329 -0.1101 -1.5361
    5DMF     H7  549   0.445   0.755   3.576  1.2741 -2.6070 -1.3762
    6DMF     C1  550   1.786   0.215   3.534 -0.4302  0.4033 -0.0104
    6DMF     N1  551   1.750   0.084   3.475 -0.4814 -1.0538  0.5442
    6DMF     C2  552   1.662  -0.008   3.554  0.1395  0.0777 -0.2639
    6DMF     C3  553   1.808   0.034   3.363 -0.3508 -0.0519  0.5113
    6DMF     O1  554   1.881   0.106   3.300 -0.1886 -0.5113  0.4362
    6DMF     H1  555   1.887   0.250   3.508 -0.2735 -0.4878 -0.5881
    6DMF     H2  556   1.781   0.219   3.644  0.2940  2.9788 -0.0262
    6DMF     H3  557   1.715   0.292   3.500 -1.3635 -0.8407 -0.9098
    6DMF     H4  558   1.729  -0.062   3.621  1.1609 -0.7188 -1.8749
    6DMF     H5  559   1.610  -0.072   3.481  1.2307 -0.0514 -0.9406
    6DMF     H6  560   1.584   0.045   3.610 -2.3003 -1.8731 -1.6677
    6DMF     H7  561   1.788  -0.071   3.338 -0.0057  0.2459 -1.0607
    7DMF     C1  562   1.149   2.996   3.206 -0.9580 -0.1588 -0.3518
    7DMF     N1  563   1.259   3.098   3.193  0.5260 -0.4487  0.1507
    7DMF     C2  564   1.237   3.229   3.132 -0.5125 -0.3512 -0.3891
    7DMF     C3  565   1.391   3.058   3.240  0.2707  0.5300 -0.2953
    7DMF     O1  566   1.418   2.954   3.287 -0.0068 -0.2070 -0.2253
    7DMF     H1  567   1.063   3.020   3.142  0.3840 -0.0404 -2.1469
    7DMF     H2  568   1.114   2.981   3.309  3.8665  0.0757  1.4491
    7DMF     H3  569   1.191   2.900   3.173  1.0268  0.0924  1.3022
    7DMF     H4  570   1.138   3.229   3.086 -1.1222 -1.5300  0.9014
    7DMF     H5  571   1.311   3.249   3.053 -1.2265 -0.2793 -1.0439
    7DMF     H6  572   1.236   3.299   3.217  0.0558  1.0744 -1.5164
    7DMF     H7  573   1.464   3.141   3.235  1.7833 -0.9019 -3.6780
    8DMF     C1  574   3.233   2.765   0.285 -0.1533  0.1254  0.8010
    8DMF     N1  575   3.123   2.667   0.293 -0.1512  0.9864  0.0316
    8DMF     C2  576   3.122   2.560   0.400  0.3097 -0.1598 -0.4536
    8DMF     C3  577   3.016   2.672   0.205  0.1807  0.1842  0.1997
    8DMF     O1  578   3.010   2.756   0.118  0.3659  0.4304  0.0274
    8DMF     H1  579   3.231   2.840   0.365  0.7968  1.8316 -0.7153
    8DMF     H2  580   3.246   2.822   0.192 -0.3081  1.0889  1.3564
    8DMF     H3  581   3.330   2.715   0.299 -0.1455 -0.5557 -1.5020
    8DMF     H4  582   3.072   2.472   0.357  1.1806  0.2831 -2.4243
    8DMF     H5  583   3.062   2.590   0.487  1.0795  0.6939 -0.2038
    8DMF     H6  584   3.224   2.533   0.430 -0.0773 -0.4320  0.6091
    8DMF     H7  585   2.938   2.594   0.215 -1.5887  1.9990  1.0317
    9DMF     C1  586   1.581   0.808   0.688 -0.0090 -0.0807 -0.3938
    9DMF     N1  587   1.479   0.716   0.735  0.1561 -0.5025  0.5193
    9DMF     C2  588   1.517   0.599   0.802  0.5975 -0.4439  1.1877
    9DMF     C3  589   1.350   0.722   0.671  0.6278 -0.1520 -0.0251
    9DMF     O1  590   1.311   0.809   0.594  0.4460 -0.4307 -0.4581
    9DMF     H1  591   1.672   0.793   0.746 -0.9916  0.8020  1.4234
    9DMF     H2  592   1.553   0.914   0.700 -0.2856 -0.1987  0.0372
    9DMF     H3  593   1.611   0.781   0.586  1.1934  3.0490 -0.9546
    9DMF     H4  594   1.426   0.545   0.830  0.4624 -0.9012 -0.1033
    9DMF     H5  595   1.576   0.630   0.890  0.2050  2.7452  0.3980
    9DMF     H6  596   1.574   0.539   0.731 -1.3604 -0.5523 -0.3163
    9DMF     H7  597   1.285   0.639   0.704 -0.2171 -0.0687 -1.4218
   10DMF     C1  598   2.425   2.106   3.189  0.3794  0.3479  0.3969
   10DMF     N1  599   2.549   2.057   3.257  0.3768  0.0173 -0.1108
   10DMF     C2  600   2.637   2.155   3.323  0.5170 -0.0590  0.3638
   10DMF     C3  601   2.583   1.924   3.246 -0.1637 -0.5779  0.6977
   10DMF     O1  602   2.496   1.843   3.222  0.0826  0.0558 -0.2237
   10DMF     H1  603   2.349   2.033   3.158  1.2349  0.3642 -1.8274
   10DMF     H2  604   2.455   2.163   3.101 -0.2579 -0.7342 -0.5354
   10DMF     H3  605   2.376   2.179   3.254 -0.3711 -0.7046  1.0319
   10DMF     H4  606   2.585   2.228   3.387  2.3647  2.7585 -1.2487
   10DMF     H5  607   2.684   2.213   3.242 -0.0157 -1.8135 -1.2363
   10DMF     H6  608   2.711   2.100   3.382 -1.0103 -2.4473  0.1213
   10DMF     H7  609   2.690   1.904   3.262  0.4004  1.3464 -0.4946
   11DMF     C1  610   0.455   2.355   0.645 -0.0683 -0.3814  0.2141
   11DMF     N1  611   0.491   2.500   0.626  0.7405  0.5377 -0.0703
   11DMF     C2  612   0.619   2.532   0.551 -0.1409  0.0579 -0.5191
   11DMF     C3  613   0.412   2.609   0.676  0.1832 -0.1999  0.6843
   11DMF     O1  614   0.304   2.592   0.730  0.0738  0.2485  0.1587
   11DMF     H1  615   0.521   2.304   0.716  0.3248 -0.2277 -0.0350
   11DMF     H2  616   0.459   2.292   0.556 -0.0917 -0.8337  0.5327
   11DMF     H3  617   0.351   2.353   0.680 -0.9592  2.7129 -2.0137
   11DMF     H4  618   0.694   2.551   0.629 -0.9955 -0.2334  0.3881
   11DMF     H5  619   0.606   2.625   0.495 -1.5342  0.8674  1.0763
   11DMF     H6  620   0.659   2.456   0.484 -0.8018  0.8790 -1.8684
   11DMF     H7  621   0.462   2.704   0.650 -2.6339  0.8422 -1.2045
   12DMF     C1  622   2.235   2.834   2.963  0.1757 -0.4742  0.0808
   12DMF     N1  623   2.383   2.848   2.946 -0.8484 -0.1730 -0.5629
   12DMF     C2  624   2.433   2.985   2.939 -0.2234 -0.2996  0.5334
   12DMF     C3  625   2.473   2.746   2.943  0.2948  0.2390 -0.1214
   12DMF     O1  626   2.432   2.633   2.919 -0.1282 -0.2618  0.0782
   12DMF     H1  627   2.183   2.799   2.872 -1.5200  3.2819 -0.4996
   12DMF     H2  628   2.195   2.935   2.976  2.4404  0.4468  0.0422
   12DMF     H3  629   2.195   2.779   3.049  2.8811 -1.7650  0.5777
   12DMF     H4  630   2.532   2.985   2.890 -1.0491  2.3618 -1.3009
   12DMF     H5  631   2.454   3.025   3.039 -0.1435  0.3132  0.2781
   12DMF     H6  632   2.366   3.057   2.889  0.9379  0.0164 -0.6055
   12DMF     H7  633   2.580   2.771   2.949  0.6147 -1.3680  1.4047
   13DMF     C1  634   2.563   0.695   0.970 -0.3600 -0.5820  0.2218
   13DMF     N1  635   2.521   0.684   1.113  0.0466 -0.2229  1.1438
   13DMF     C2  636   2.617   0.623   1.213  0.3723  0.4953 -0.3734
   13DMF     C3  637   2.383   0.698   1.139 -0.1134  0.4192  0.1996
   13DMF     O1  638   2.306   0.754   1.065  0.1596 -0.6778  0.2024
   13DMF     H1  639   2.488   0.643   0.910  1.0903 -1.7041 -0.6610
   13DMF     H2  640   2.665   0.655   0.961 -0.8297 -1.6377 -0.5017
   13DMF     H3  641   2.564   0.804   0.957  1.1369 -0.9272 -3.1084
   13DMF     H4  642   2.573   0.537   1.267 -0.0609  1.1373  0.3049
   13DMF     H5  643   2.652   0.704   1.278  1.5014  1.1546 -1.7897
   13DMF     H6  644   2.695   0.574   1.153 -2.2426 -1.6006 -2.1699
   13DMF     H7  645   2.360   0.650   1.236 -2.4404  1.9033  0.4053
   14DMF     C1  646   0.173   2.139   0.394 -0.1749 -0.0681 -0.7091
   14DMF     N1  647   0.245   2.021   0.425 -0.3315 -0.5794  0.2566
   14DMF     C2  648   0.176   1.928   0.519 -0.1800 -0.3362  0.0622
   14DMF     C3  649   0.377   1.988   0.371 -0.3450  0.0854 -0.6313
   14DMF     O1  650   0.430   2.065   0.291  0.1053 -1.0568  0.0318
   14DMF     H1  651   0.222   2.228   0.436 -0.8349  0.8089 -1.7532
   14DMF     H2  652   0.073   2.138   0.438  0.1169  0.7829  0.0009
   14DMF     H3  653   0.165   2.153   0.285 -1.6608 -0.7962 -0.6983
   14DMF     H4  654   0.153   1.971   0.617 -1.6294  1.1059 -0.8820
   14DMF     H5  655   0.255   1.853   0.532  0.1998  0.1834  0.7890
   14DMF     H6  656   0.085   1.882   0.478  0.1543 -1.8421  0.9599
   14DMF     H7  657   0.420   1.895   0.412  2.6273  0.7733 -2.0468
   15DMF     C1  658   2.814   0.393   1.018  0.5240  0.4032 -0.2157
   15DMF     N1  659   2.917   0.317   0.938  0.1109  0.0295 -0.2634
   15DMF     C2  660   2.928   0.354   0.796  0.2731  0.7768 -0.2144
   15DMF     C3  661   3.002   0.219   0.996 -0.1286 -0.8363  0.3315
   15DMF     O1  662   2.983   0.190   1.117  0.1651  0.6085  0.3050
   15DMF     H1  663   2.812   0.501   0.999 -0.5148  0.5152  0.4827
   15DMF     H2  664   2.825   0.384   1.127  1.6820  3.6354  0.0010
   15DMF     H3  665   2.716   0.350   0.995  0.5270 -0.4949  1.3591
   15DMF     H4  666   3.033   0.375   0.773  0.9513  0.4756  2.3853
   15DMF     H5  667   2.875   0.446   0.770  2.7224  2.2152 -0.2537
   15DMF     H6  668   2.891   0.268   0.739  1.7370 -0.2305  0.3210
   15DMF     H7  669   3.068   0.174   0.920  0.0355  1.2716 -0.8393
   16DMF     C1  670   0.769   1.830   1.583  0.4173 -0.1887 -0.1528
   16DMF     N1  671   0.863   1.721   1.567 -0.1536  0.2233 -0.3765
   16DMF     C2  672   1.009   1.753   1.571 -0.1904  0.2640 -0.1032
   16DMF     C3  673   0.819   1.591   1.554  0.3500  0.0231 -0.1907
   16DMF     O1  674   0.698   1.565   1.554 -0.3084  0.0301 -0.0841
   16DMF     H1  675   0.750   1.878   1.486 -0.9561  1.5012  0.9237
   16DMF     H2  676   0.811   1.909   1.646 -2.7079  0.1213  1.6128
   16DMF     H3  677   0.671   1.805   1.625  0.4531  1.8050  1.1893
   16DMF     H4  678   1.026   1.768   1.464 -1.9839  3.0470 -0.0466
   16DMF     H5  679   1.066   1.661   1.590 -1.0136 -0.1807  0.2258
   16DMF     H6  680   1.030   1.845   1.626  0.8290 -0.6641  1.0883
   16DMF     H7  681   0.893   1.511   1.535 -1.5618 -1.9019  0.2553
   17DMF     C1  682   0.243   2.399   1.547  0.4905 -0.1804  0.4012
   17DMF     N1  683   0.185   2.540   1.549  0.1532 -0.1576  0.3499
   17DMF     C2  684   0.043   2.552   1.551  0.2327 -0.0690  0.2026
   17DMF     C3  685   0.267   2.652   1.570 -0.5528 -0.2032  0.2230
   17DMF     O1  686   0.390   2.634   1.571  0.4690 -0.4262 -0.7821
   17DMF     H1  687   0.275   2.379   1.444  0.2111 -3.1936  0.8580
   17DMF     H2  688   0.175   2.318   1.577 -0.4986  0.6266  0.3694
   17DMF     H3  689   0.333   2.398   1.610  1.9551  1.8923 -1.5763
   17DMF     H4  690   0.005   2.597   1.458  0.0041 -0.1561  0.2532
   17DMF     H5  691   0.010   2.621   1.629 -0.5798  0.2125 -0.3779
   17DMF     H6  692  -0.001   2.451   1.551 -0.2645  0.1411 -0.3744
   17DMF     H7  693   0.217   2.750   1.560  0.1110  0.1576  0.4049
   18DMF     C1  694   2.929   2.326   0.705  0.3488 -0.6544 -0.8802
   18DMF     N1  695   2.832   2.358   0.594 -0.3235 -0.6561 -0.0783
   18DMF     C2  696   2.831   2.281   0.470  0.6580 -0.4333 -0.2656
   18DMF     C3  697   2.752   2.472   0.597  0.6724 -0.3823  0.2164
   18DMF     O1  698   2.752   2.541   0.699  0.0237 -0.2283  0.1806
   18DMF     H1  699   2.949   2.218   0.702 -1.9381 -1.1233  0.3805
   18DMF     H2  700   2.885   2.350   0.802 -1.3423 -0.6518 -1.6423
   18DMF     H3  701   3.025   2.379   0.703  0.0032  0.0298  0.5294
   18DMF     H4  702   2.783   2.185   0.493  0.0981  0.8722  4.5446
   18DMF     H5  703   2.932   2.255   0.433  0.7406 -0.1175 -0.2624
   18DMF     H6  704   2.779   2.332   0.388 -1.2759  0.3953  1.4437
   18DMF     H7  705   2.696   2.496   0.505  0.0111  0.9993  0.9602
   19DMF     C1  706   1.854   2.264   0.738 -0.0388 -0.3386  0.9384
   19DMF     N1  707   1.926   2.347   0.644  0.0006  0.3793  0.1100
   19DMF     C2  708   1.910   2.489   0.640 -0.2963  0.4790 -0.6365
   19DMF     C3  709   2.022   2.290   0.561  0.0987 -0.0518  0.0596
   19DMF     O1  710   2.026   2.168   0.546 -0.3068 -0.2505 -0.5949
   19DMF     H1  711   1.842   2.158   0.713 -0.1967 -0.1843  0.3507
   19DMF     H2  712   1.757   2.308   0.764  0.0233 -1.1630  2.5571
   19DMF     H3  713   1.906   2.271   0.834 -0.1101 -2.1946  1.1223
   19DMF     H4  714   1.848   2.521   0.555 -0.2968  0.0265 -0.8039
   19DMF     H5  715   2.011   2.530   0.628  0.6244 -1.3338  0.7098
   19DMF     H6  716   1.879   2.525   0.739 -0.1910  2.1942 -1.2088
   19DMF     H7  717   2.084   2.361   0.503  0.5244 -1.4394 -1.2149
   20DMF     C1  718   2.370   0.316   1.256  0.0755  0.3283  0.2813
   20DMF     N1  719   2.287   0.383   1.153 -0.2528 -0.2747  0.4399
   20DMF     C2  720   2.323   0.364   1.005  0.2302  0.1892 -0.3023
   20DMF     C3  721   2.174   0.461   1.190  0.0265  0.6218 -0.3345
   20DMF     O1  722   2.129   0.463   1.303 -0.1694 -0.4603 -0.7968
   20DMF     H1  723   2.381   0.211   1.227  1.1959  0.8105 -1.1585
   20DMF     H2  724   2.321   0.324   1.353  1.8797 -1.5287  1.3856
   20DMF     H3  725   2.463   0.374   1.267  0.2719  0.0050  0.3401
   20DMF     H4  726   2.245   0.404   0.939  0.4581  1.9900  0.4629
   20DMF     H5  727   2.347   0.259   0.986 -1.4712 -0.3414  0.4230
   20DMF     H6  728   2.409   0.430   0.986 -0.4397  1.8761  2.2868
   20DMF     H7  729   2.139   0.513   1.099  0.4367  0.4353 -0.6022
   21DMF     C1  730   3.025   0.331   1.372  0.3453 -0.7023 -0.2044
   21DMF     N1  731   3.080   0.385   1.496  0.0555 -0.1997  0.0107
   21DMF     C2  732   3.209   0.325   1.552 -0.0628 -0.3089  0.7451
   21DMF     C3  733   3.039   0.512   1.539  0.0824  0.4167 -0.2261
   21DMF     O1  734   2.952   0.575   1.484 -0.0565 -0.0231 -0.5508
   21DMF     H1  735   3.052   0.226   1.361  2.0746 -0.3296  0.4056
   21DMF     H2  736   3.073   0.389   1.292 -0.4089 -2.4911 -1.9898
   21DMF     H3  737   2.915   0.342   1.368  0.3437 -0.0899  1.2708
   21DMF     H4  738   3.273   0.398   1.603  0.2723 -0.2862  0.2974
   21DMF     H5  739   3.270   0.296   1.466 -0.7906 -0.5493  0.3007
   21DMF     H6  740   3.190   0.247   1.627  0.0769 -0.5942  0.4852
   21DMF     H7  741   3.092   0.549   1.629  0.4384 -0.3515 -0.1155
   22DMF     C1  742   2.636   2.297   1.111  0.8127  0.2188 -0.1281
   22DMF     N1  743   2.491   2.319   1.132  0.1417  0.1648  0.5582
   22DMF     C2  744   2.409   2.370   1.017 -1.3784  0.0200 -0.5736
   22DMF     C3  745   2.424   2.274   1.244  0.0139  0.1680 -0.3027
   22DMF     O1  746   2.481   2.222   1.336  0.1802  0.0976  0.0361
   22DMF     H1  747   2.699   2.387   1.113 -2.3977  2.5622  0.9321
   22DMF     H2  748   2.651   2.268   1.006  2.0183 -0.5144  0.2414
   22DMF     H3  749   2.673   2.216   1.174  0.0512 -0.2710 -0.3030
   22DMF     H4  750   2.317   2.311   1.015 -1.2516 -0.3512  2.3876
   22DMF     H5  751   2.458   2.367   0.918  1.4411  0.5090  0.7569
   22DMF     H6  752   2.378   2.475   1.027  2.5568  1.0452  1.8670
   22DMF     H7  753   2.316   2.283   1.221 -0.3689 -1.0943  0.9141
   23DMF     C1  754   1.144   2.660   0.949  0.4039 -0.1179 -0.4011
   23DMF     N1  755   1.050   2.579   1.028  0.1711  0.3041  0.5207
   23DMF     C2  756   0.915   2.630   1.044 -0.4068 -0.3972 -0.4696
   23DMF     C3  757   1.089   2.456   1.088 -0.6532 -0.0149 -0.2238
   23DMF     O1  758   1.207   2.413   1.088 -0.9649 -0.3457 -0.0215
   23DMF     H1  759   1.191   2.599   0.872  0.6854  1.2638 -1.3338
   23DMF     H2  760   1.229   2.693   1.010 -0.9642 -0.4119  1.7327
   23DMF     H3  761   1.101   2.748   0.901  0.6532  0.8615  1.1315
   23DMF     H4  762   0.916   2.656   1.151 -3.3050  1.5392 -0.8472
   23DMF     H5  763   0.847   2.544   1.034  0.6848 -1.3935  0.4495
   23DMF     H6  764   0.883   2.720   0.991  0.7947  1.5468  1.9825
   23DMF     H7  765   1.006   2.406   1.141  0.2037  2.4540  3.6581
   24DMF     C1  766   1.021   2.383   2.411  0.3348  0.2098 -0.1263
   24DMF     N1  767   1.121   2.329   2.313  0.1167  0.1280 -0.4996
   24DMF     C2  768   1.124   2.183   2.284  1.2014  0.0104 -0.2130
   24DMF     C3  769   1.219   2.406   2.243 -0.4284 -0.0087 -0.2428
   24DMF     O1  770   1.199   2.524   2.222  0.1877  0.0008  0.5954
   24DMF     H1  771   1.054   2.470   2.468  0.7805  0.4788 -0.7989
   24DMF     H2  772   0.999   2.296   2.475 -0.6868 -0.3465 -1.1863
   24DMF     H3  773   0.930   2.415   2.358 -0.5272 -0.9898  0.6145
   24DMF     H4  774   1.133   2.169   2.176 -1.0746 -2.1586 -0.1844
   24DMF     H5  775   1.022   2.157   2.317  2.0254  0.6488  2.9429
   24DMF     H6  776   1.197   2.130   2.346  1.7231  2.2236  1.1097
   24DMF     H7  777   1.297   2.348   2.190 -1.1342 -0.9404 -0.2740
   25DMF     C1  778   0.945   1.605   2.566 -0.3695 -0.3841  0.6374
   25DMF     N1  779   0.843   1.560   2.662 -0.2980 -0.2202 -0.2006
   25DMF     C2  780   0.700   1.602   2.643  0.5274  0.0790 -0.0417
   25DMF     C3  781   0.886   1.490   2.779 -0.3056  0.3141  0.0156
   25DMF     O1  782   1.006   1.469   2.802 -0.0602  0.2272 -0.2669
   25DMF     H1  783   1.014   1.672   2.619 -0.8427  1.4876 -1.0522
   25DMF     H2  784   0.894   1.654   2.482 -1.5247  0.8428  2.0266
   25DMF     H3  785   1.010   1.525   2.530 -1.5760 -1.6404  1.2340
   25DMF     H4  786   0.678   1.651   2.739 -0.8474  0.9107 -0.7658
   25DMF     H5  787   0.632   1.516   2.638  0.1343  0.1808  2.5797
   25DMF     H6  788   0.676   1.671   2.561 -1.6713 -1.5347 -0.7861
   25DMF     H7  789   0.801   1.460   2.843 -0.9472  0.4334 -0.7807
   26DMF     C1  790   0.897   3.040   0.998  0.2054 -0.2581 -0.3950
   26DMF     N1  791   0.861   3.172   0.947 -0.4257 -0.3520  0.1602
   26DMF     C2  792   0.765   3.247   1.026 -0.0872  0.4382 -0.2493
   26DMF     C3  793   0.897   3.211   0.819  0.2668  0.0724 -0.6256
   26DMF     O1  794   0.967   3.142   0.752 -0.8686 -0.6154  0.1233
   26DMF     H1  795   0.903   2.963   0.920  1.2082  0.3491 -0.9149
   26DMF     H2  796   0.820   3.002   1.067  2.2561 -0.5326  1.8126
   26DMF     H3  797   0.990   3.054   1.055  0.6053 -1.4451 -0.7366
   26DMF     H4  798   0.796   3.243   1.131  0.8859  0.0706 -0.5410
   26DMF     H5  799   0.669   3.195   1.023  0.1049 -0.0358  1.3336
   26DMF     H6  800   0.769   3.353   0.997 -0.3218  0.4775 -0.1311
   26DMF     H7  801   0.847   3.303   0.784  0.2204  1.4772  2.8660
   27DMF     C1  802   1.767   1.070   2.365  0.8054 -0.1933 -0.3693
   27DMF     N1  803   1.788   1.204   2.313  0.5376  0.0283 -0.3005
   27DMF     C2  804   1.684   1.262   2.229 -0.1118  0.6375 -0.0767
   27DMF     C3  805   1.899   1.280   2.357 -0.1393  0.4929  0.1143
   27DMF     O1  806   1.993   1.225   2.415 -0.1022 -0.4617 -0.5894
   27DMF     H1  807   1.673   1.067   2.421  1.0188 -0.9633 -0.0499
   27DMF     H2  808   1.839   1.032   2.439 -0.9395 -0.1801  1.3610
   27DMF     H3  809   1.764   1.001   2.280  0.2670  0.6115 -1.0043
   27DMF     H4  810   1.596   1.294   2.286 -0.9859 -0.1152 -0.9908
   27DMF     H5  811   1.664   1.178   2.162  0.6871 -1.0435  1.7249
   27DMF     H6  812   1.726   1.343   2.168  1.3733 -1.2813 -1.6737
   27DMF     H7  813   1.881   1.389   2.355  0.6015  0.6171  0.0143
   28DMF     C1  814   1.984   2.519   1.536  0.1769 -0.4218  0.1247
   28DMF     N1  815   1.853   2.588   1.550  0.1789  0.5182 -0.3572
   28DMF     C2  816   1.728   2.499   1.525  0.1197  0.3821 -0.2322
   28DMF     C3  817   1.837   2.722   1.558  0.3973  0.5115  0.2988
   28DMF     O1  818   1.933   2.798   1.564  0.4036 -0.7775  0.0518
   28DMF     H1  819   1.981   2.426   1.593  0.6318 -0.6916 -0.2941
   28DMF     H2  820   2.062   2.583   1.577  1.1267 -0.7628 -1.1308
   28DMF     H3  821   1.994   2.491   1.431 -1.2118 -0.2065 -0.0777
   28DMF     H4  822   1.693   2.503   1.421 -0.2983 -1.7815 -0.1997
   28DMF     H5  823   1.644   2.532   1.587 -0.9562 -0.9113 -0.9700
   28DMF     H6  824   1.737   2.390   1.539  0.3064  0.6643  2.0912
   28DMF     H7  825   1.732   2.757   1.564 -0.1126 -0.7403 -1.1096
   29DMF     C1  826   0.974   3.244   3.419  0.3474  0.3240 -0.3030
   29DMF     N1  827   0.952   3.363   3.339  0.4237  0.0262 -0.6082
   29DMF     C2  828   0.995   3.492   3.397  0.6776  0.2418  0.1755
   29DMF     C3  829   0.889   3.356   3.219 -0.0943 -0.2241 -0.3461
   29DMF     O1  830   0.855   3.252   3.162 -0.4035  0.1891 -0.0528
   29DMF     H1  831   1.074   3.237   3.463 -0.3251 -1.9934  0.9655
   29DMF     H2  832   0.959   3.153   3.360 -0.1599 -0.2645  0.7175
   29DMF     H3  833   0.900   3.241   3.500  0.3765  0.4988 -0.2693
   29DMF     H4  834   0.998   3.486   3.506  1.2218  0.4531  0.1783
   29DMF     H5  835   0.943   3.580   3.355  0.6787  0.4929  0.6969
   29DMF     H6  836   1.102   3.496   3.372  1.2676  0.0116  2.6161
   29DMF     H7  837   0.858   3.456   3.183  1.7383 -0.0401 -1.5110
   30DMF     C1  838   2.853   1.116   2.902  0.0770 -0.0135  0.1723
   30DMF     N1  839   2.925   1.131   3.029  0.1621 -0.3934  0.0797
   30DMF     C2  840   2.854   1.099   3.153  1.3921  0.4050  0.7911
   30DMF     C3  841   3.063   1.184   3.031  0.5616 -0.0901 -0.0964
   30DMF     O1  842   3.114   1.224   2.930 -0.2811 -0.0245 -0.4138
   30DMF     H1  843   2.809   1.214   2.878 -0.6062 -0.3573 -0.0071
   30DMF     H2  844   2.766   1.049   2.908 -0.3916  0.3924 -1.7441
   30DMF     H3  845   2.918   1.086   2.820 -0.6647  0.1121 -0.4701
   30DMF     H4  846   2.848   1.183   3.223 -0.8006 -1.0032  2.3376
   30DMF     H5  847   2.908   1.017   3.202 -0.5446 -1.0113  0.6039
   30DMF     H6  848   2.758   1.050   3.134  2.2674 -0.7294 -0.8180
   30DMF     H7  849   3.108   1.176   3.131  0.0453 -5.1599 -0.1481
   31DMF     C1  850   2.257   0.672   0.684  0.7774  0.4911 -0.4902
   31DMF     N1  851   2.175   0.798   0.696 -0.3776 -0.7438  0.4379
   31DMF     C2  852   2.047   0.790   0.776 -0.3960  0.6209 -0.0331
   31DMF     C3  853   2.231   0.920   0.655 -0.7592 -0.8596  0.1321
   31DMF     O1  854   2.346   0.938   0.619 -0.0084  0.7073 -0.0820
   31DMF     H1  855   2.191   0.591   0.650  0.5151  0.5597 -0.1410
   31DMF     H2  856   2.291   0.635   0.782  0.0919  1.4755  0.1194
   31DMF     H3  857   2.340   0.691   0.615  0.4722  1.6228 -0.5495
   31DMF     H4  858   1.970   0.736   0.721  0.4467  0.4237 -1.0445
   31DMF     H5  859   2.017   0.893   0.800  0.7506  0.5313  1.9114
   31DMF     H6  860   2.066   0.736   0.870 -1.0112  0.0847 -0.2133
   31DMF     H7  861   2.157   1.001   0.674 -1.4640 -0.8186 -2.6563
   32DMF     C1  862   2.416   2.152   0.278 -0.1013  0.2072  0.2106
   32DMF     N1  863   2.344   2.280   0.287  0.1442  0.2269  0.1910
   32DMF     C2  864   2.228   2.293   0.189 -0.4628 -0.6683  0.4015
   32DMF     C3  865   2.362   2.364   0.396  0.2599  0.1260  0.0076
   32DMF     O1  866   2.458   2.346   0.465 -0.2664 -0.2081 -0.2776
   32DMF     H1  867   2.373   2.073   0.341 -0.6026 -1.1271 -1.7696
   32DMF     H2  868   2.523   2.155   0.303  0.0913  1.6946 -0.7747
   32DMF     H3  869   2.429   2.117   0.175 -2.2225  0.0611 -0.0273
   32DMF     H4  870   2.155   2.214   0.207 -1.5253  0.2494  0.2004
   32DMF     H5  871   2.263   2.301   0.085 -1.8587  1.1806  0.0389
   32DMF     H6  872   2.185   2.393   0.203 -1.1030 -0.7499 -0.8675
   32DMF     H7  873   2.281   2.433   0.426  0.4083 -0.1666  1.1163
   33DMF     C1  874   3.298   1.168   3.420  0.6482  0.5519  0.4749
   33DMF     N1  875   3.328   1.245   3.299 -0.4479  0.2998 -0.6298
   33DMF     C2  876   3.427   1.191   3.205  0.1459  0.3839 -1.5107
   33DMF     C3  877   3.260   1.368   3.263  0.2358  0.6178 -0.3866
   33DMF     O1  878   3.157   1.407   3.316 -0.4272 -0.3207  0.1743
   33DMF     H1  879   3.368   1.205   3.496  0.8592 -0.6935  0.8965
   33DMF     H2  880   3.313   1.060   3.405 -1.2596  0.5597 -1.8212
   33DMF     H3  881   3.192   1.185   3.445  0.8152  2.5388 -0.0763
   33DMF     H4  882   3.449   1.087   3.233 -0.7886  0.4789 -0.3943
   33DMF     H5  883   3.525   1.239   3.215  0.2602 -0.1059 -0.0923
   33DMF     H6  884   3.396   1.205   3.101  0.6244  0.0188 -1.7049
   33DMF     H7  885   3.316   1.425   3.187  0.3584  1.2370  0.1507
   34DMF     C1  886   1.345   1.628   2.701  0.3599 -0.3360  0.6902
   34DMF     N1  887   1.483   1.623   2.748 -0.0282  0.4347  0.0621
   34DMF     C2  888   1.550   1.740   2.812  0.6457 -0.0082 -0.6465
   34DMF     C3  889   1.561   1.504   2.728 -0.4316 -0.4884  0.4885
   34DMF     O1  890   1.525   1.404   2.667  0.3259 -0.4080 -0.1655
   34DMF     H1  891   1.338   1.690   2.611 -0.2228  0.8164  1.5271
   34DMF     H2  892   1.279   1.665   2.780 -0.6286 -0.6262  0.0164
   34DMF     H3  893   1.307   1.530   2.667 -0.9329 -0.0463  1.2762
   34DMF     H4  894   1.485   1.829   2.803  1.5381  0.6796 -0.3266
   34DMF     H5  895   1.643   1.769   2.762  1.1260  1.4385  1.0333
   34DMF     H6  896   1.582   1.729   2.916  2.4469  1.5467 -1.0098
   34DMF     H7  897   1.667   1.517   2.756  0.4201  0.5059 -2.9492
   35DMF     C1  898   3.138   1.790   3.761  0.0919  0.2068  0.2170
   35DMF     N1  899   3.264   1.850   3.700 -0.3276 -0.6098 -0.1306
   35DMF     C2  900   3.403   1.838   3.771  0.6474  0.4309  0.4700
   35DMF     C3  901   3.270   1.869   3.563  0.1441 -0.0481  0.0027
   35DMF     O1  902   3.170   1.870   3.492 -0.1339  0.2995  0.1833
   35DMF     H1  903   3.065   1.870   3.743 -1.0027 -0.9701 -0.7040
   35DMF     H2  904   3.145   1.787   3.870 -0.0703  0.6851  0.2444
   35DMF     H3  905   3.115   1.695   3.712  2.8912 -0.3929 -0.0069
   35DMF     H4  906   3.474   1.879   3.699  0.2576 -2.4726 -1.6346
   35DMF     H5  907   3.419   1.737   3.811  0.1351  0.8118  1.6707
   35DMF     H6  908   3.390   1.910   3.854  3.0588  0.6002  0.7348
   35DMF     H7  909   3.372   1.880   3.523  1.1913  0.1658  2.6660
   36DMF     C1  910   2.035   2.111   1.565 -0.1622  0.3388 -0.2499
   36DMF     N1  911   2.187   2.110   1.551 -0.0052  0.4163 -0.3704
   36DMF     C2  912   2.247   1.986   1.497 -0.1633  0.2978 -0.4692
   36DMF     C3  913   2.274   2.226   1.563 -0.1265 -0.4246 -0.2424
   36DMF     O1  914   2.238   2.337   1.591  0.6900 -0.1395  0.0933
   36DMF     H1  915   1.995   2.037   1.494  2.7033  0.8245 -2.5264
   36DMF     H2  916   1.995   2.210   1.539  0.5563  0.6220 -0.2902
   36DMF     H3  917   2.005   2.077   1.664  0.1344 -0.8830 -0.5665
   36DMF     H4  918   2.352   2.008   1.474 -0.3659  1.6766 -0.1477
   36DMF     H5  919   2.183   1.944   1.418 -1.9293  2.5073 -0.2914
   36DMF     H6  920   2.249   1.919   1.583  0.4223  1.9100  0.7861
   36DMF     H7  921   2.380   2.200   1.543 -0.4500 -1.3989 -0.7281
   37DMF     C1  922   2.413   3.113   1.326  0.3169  0.1578 -0.1729
   37DMF     N1  923   2.359   3.060   1.464  0.0789 -0.2074 -0.1901
   37DMF     C2  924   2.213   3.053   1.484  0.3314 -0.1165  0.1148
   37DMF     C3  925   2.444   2.982   1.544 -0.0801 -0.8011 -0.3531
   37DMF     O1  926   2.564   2.966   1.528  0.6520 -0.5385 -0.1368
   37DMF     H1  927   2.496   3.183   1.337 -0.4321  1.1582 -0.8226
   37DMF     H2  928   2.325   3.163   1.284  0.7679  1.3880  0.3207
   37DMF     H3  929   2.458   3.028   1.273 -0.3861  0.5091 -1.3534
   37DMF     H4  930   2.190   2.953   1.521  0.3431 -0.1406  0.0563
   37DMF     H5  931   2.151   3.081   1.398 -0.7061 -0.1407  0.8516
   37DMF     H6  932   2.186   3.123   1.564 -0.3384 -1.4710  1.0875
   37DMF     H7  933   2.389   2.950   1.635  0.0026  3.5004  1.3096
   38DMF     C1  934   1.652   3.367   0.188 -0.4191 -0.3247 -0.5526
   38DMF     N1  935   1.650   3.512   0.216 -0.2490 -0.6329  0.4132
   38DMF     C2  936   1.712   3.563   0.340  0.0282  0.1575 -0.0185
   38DMF     C3  937   1.576   3.604   0.141 -0.0166  0.1769  1.0859
   38DMF     O1  938   1.517   3.570   0.034  0.0976  0.1936 -0.1058
   38DMF     H1  939   1.741   3.317   0.228  0.9003  0.2897 -2.6688
   38DMF     H2  940   1.660   3.364   0.079  0.6758 -1.7314 -0.4510
   38DMF     H3  941   1.566   3.312   0.229  0.7861 -0.0279  2.5702
   38DMF     H4  942   1.718   3.482   0.413  1.0668 -0.6343 -0.9555
   38DMF     H5  943   1.650   3.642   0.384 -0.9507 -0.8085  0.3685
   38DMF     H6  944   1.809   3.612   0.325 -0.2604  1.0334  0.9224
   38DMF     H7  945   1.574   3.709   0.175 -0.5151  0.7555 -0.6975
   39DMF     C1  946   0.476   0.107   3.205  0.2363 -0.6407 -0.1050
   39DMF     N1  947   0.508   0.209   3.303  1.4482 -0.0523  0.3151
   39DMF     C2  948   0.391   0.277   3.369  0.0724 -0.5447 -0.3875
   39DMF     C3  949   0.633   0.257   3.321 -0.3917 -0.2034  0.1185
   39DMF     O1  950   0.729   0.208   3.263  0.1371 -0.2639  0.0724
   39DMF     H1  951   0.509   0.129   3.103  0.5744 -0.9066 -0.0532
   39DMF     H2  952   0.367   0.117   3.197  0.1279 -1.8030 -0.1327
   39DMF     H3  953   0.506   0.007   3.240  1.8160 -0.1611 -0.0437
   39DMF     H4  954   0.346   0.352   3.303  0.1296 -1.9423 -2.0555
   39DMF     H5  955   0.434   0.339   3.448  1.0040  1.0437 -2.0983
   39DMF     H6  956   0.312   0.210   3.404  0.3066 -0.7776 -0.3052
   39DMF     H7  957   0.652   0.331   3.401  0.4579 -1.2181  0.8752
   40DMF     C1  958   0.472   0.820   1.552  1.2271 -0.7940  0.5391
   40DMF     N1  959   0.462   0.692   1.489  0.1288 -0.5771 -0.0766
   40DMF     C2  960   0.417   0.567   1.568  0.2185 -0.3846 -0.0806
   40DMF     C3  961   0.511   0.665   1.368 -0.3447  0.1533 -0.6391
   40DMF     O1  962   0.555   0.755   1.304 -0.1023  0.1191  0.1138
   40DMF     H1  963   0.566   0.831   1.607  0.7838  1.4734  0.9031
   40DMF     H2  964   0.387   0.841   1.617  0.4028 -1.0738 -0.4291
   40DMF     H3  965   0.481   0.893   1.470 -0.7348 -0.7972  0.2965
   40DMF     H4  966   0.374   0.495   1.497  1.2099  1.7172 -2.9149
   40DMF     H5  967   0.340   0.600   1.639  0.0174 -1.5866  0.2701
   40DMF     H6  968   0.495   0.524   1.631  2.7956  0.4434 -2.5777
   40DMF     H7  969   0.498   0.562   1.331 -2.0628  0.2005 -0.1671
   41DMF     C1  970   2.419   2.855   3.311  0.0778 -0.3360 -0.1418
   41DMF     N1  971   2.550   2.816   3.364 -0.1001 -0.4983 -0.4151
   41DMF     C2  972   2.556   2.768   3.508  0.3080 -0.6205  0.2227
   41DMF     C3  973   2.663   2.837   3.279  0.1955  0.1033 -0.4611
   41DMF     O1  974   2.662   2.850   3.159 -0.1773  0.0287  0.8394
   41DMF     H1  975   2.408   2.952   3.360 -0.9868  0.0826 -1.1815
   41DMF     H2  976   2.337   2.796   3.353 -0.9572 -0.5089 -2.3452
   41DMF     H3  977   2.424   2.884   3.205  2.0425 -0.9419 -0.2323
   41DMF     H4  978   2.586   2.662   3.510 -1.9045 -1.2864  1.2478
   41DMF     H5  979   2.460   2.775   3.562  1.0740  1.4432  1.3753
   41DMF     H6  980   2.626   2.835   3.559  1.5221 -2.0547  0.4866
   41DMF     H7  981   2.762   2.816   3.324  0.1287  1.6853  0.4231
   42DMF     C1  982   2.692   2.623   0.001 -0.5921 -0.0445  0.2488
   42DMF     N1  983   2.658   2.493   0.049  0.5009  0.4724 -0.6669
   42DMF     C2  984   2.612   2.396  -0.051 -0.5064 -0.2865  0.0016
   42DMF     C3  985   2.667   2.461   0.182 -1.1314 -0.3684 -0.1703
   42DMF     O1  986   2.712   2.534   0.271 -0.0022 -0.1976  0.4061
   42DMF     H1  987   2.615   2.688   0.045  0.7260  1.9598 -0.3638
   42DMF     H2  988   2.703   2.628  -0.108  0.7977  2.6927  0.4749
   42DMF     H3  989   2.784   2.663   0.044 -1.3702 -1.0946  2.9967
   42DMF     H4  990   2.598   2.451  -0.145  3.1362  0.4243 -0.1969
   42DMF     H5  991   2.516   2.354  -0.017 -0.6075 -0.3842 -0.4043
   42DMF     H6  992   2.689   2.319  -0.058  0.1595  0.2493  1.1347
   42DMF     H7  993   2.643   2.355   0.198  0.8660 -0.7418  0.4406
   43DMF     C1  994   1.909   2.025   3.362  0.3353  0.1179 -1.1930
   43DMF     N1  995   1.874   2.163   3.394  0.0317  0.0861  0.5339
   43DMF     C2  996   1.885   2.270   3.294  0.3627 -0.2400 -0.2472
   43DMF     C3  997   1.845   2.183   3.526 -0.4678  0.1558 -0.4705
   43DMF     O1  998   1.840   2.094   3.607 -0.1184  0.2845  0.0759
   43DMF     H1  999   1.880   1.995   3.260 -0.1446 -0.8239 -0.7787
   43DMF     H2 1000   1.864   1.949   3.426  1.6725  1.4149  1.3444
   43DMF     H3 1001   2.018   2.018   3.374  0.1060 -0.1125  0.9388
   43DMF     H4 1002   1.985   2.266   3.248 -0.5062 -1.5848 -2.0737
   43DMF     H5 1003   1.861   2.368   3.336 -0.8683  0.1795 -1.8971
   43DMF     H6 1004   1.814   2.234   3.219 -1.3170  1.1532  0.6577
   43DMF     H7 1005   1.818   2.287   3.551  2.1885  0.5654  0.8937
   44DMF     C1 1006   1.685   1.528   1.009  0.0252 -0.1243 -0.2650
   44DMF     N1 1007   1.692   1.593   0.873 -0.0088  0.1960  0.7126
   44DMF     C2 1008   1.563   1.641   0.804 -0.2635  0.1974  0.8080
   44DMF     C3 1009   1.814   1.621   0.808  0.2251 -0.3732  0.0930
   44DMF     O1 1010   1.920   1.594   0.860  0.0881 -0.1091 -0.0004
   44DMF     H1 1011   1.780   1.547   1.060 -0.2288 -1.9385  0.9520
   44DMF     H2 1012   1.664   1.420   1.005  1.9003 -0.5471  0.8608
   44DMF     H3 1013   1.612   1.577   1.076 -0.0387 -0.8722  0.2188
   44DMF     H4 1014   1.565   1.618   0.696 -3.5832  0.8922  0.5417
   44DMF     H5 1015   1.547   1.748   0.820  1.6946  0.4324  1.3111
   44DMF     H6 1016   1.475   1.599   0.853 -1.2183  0.3695 -0.7190
   44DMF     H7 1017   1.803   1.665   0.707 -0.3539 -1.0538 -0.1496
   45DMF     C1 1018   3.305   2.298   3.013  0.3744 -0.8648  0.0229
   45DMF     N1 1019   3.364   2.432   2.983  0.5928 -0.8264  0.3630
   45DMF     C2 1020   3.478   2.434   2.886  0.3279  0.4370 -0.1795
   45DMF     C3 1021   3.305   2.548   3.028 -0.1174 -0.1677  0.7521
   45DMF     O1 1022   3.230   2.543   3.114 -0.5823 -0.5767  0.6621
   45DMF     H1 1023   3.198   2.321   3.016  0.6016  0.0031  2.9455
   45DMF     H2 1024   3.356   2.271   3.106  0.8385 -1.8482 -0.5002
   45DMF     H3 1025   3.324   2.225   2.933  0.4912  0.0268 -0.7733
   45DMF     H4 1026   3.521   2.336   2.865 -0.5512  0.1959 -0.9043
   45DMF     H5 1027   3.561   2.481   2.940 -0.6111  1.1699  0.6705
   45DMF     H6 1028   3.448   2.479   2.790 -1.2332 -1.3878 -0.5839
   45DMF     H7 1029   3.348   2.638   2.981  0.6088 -1.3734 -0.9664
   46DMF     C1 1030   1.042   1.619   3.115 -0.4883  0.5980 -0.5308
   46DMF     N1 1031   1.146   1.520   3.127 -0.5771 -0.1582 -0.7116
   46DMF     C2 1032   1.224   1.507   3.005 -0.1298 -0.3635 -0.2530
   46DMF     C3 1033   1.177   1.441   3.236 -0.6701  0.6882 -0.0328
   46DMF     O1 1034   1.123   1.458   3.347  0.6395  0.5555  0.1364
   46DMF     H1 1035   0.963   1.579   3.050  0.0104 -0.7316 -0.3340
   46DMF     H2 1036   1.082   1.707   3.064  1.1366  0.6033  0.7290
   46DMF     H3 1037   1.000   1.640   3.214  0.7626 -0.2937  0.2082
   46DMF     H4 1038   1.223   1.405   2.966  0.0782 -0.5207  0.1507
   46DMF     H5 1039   1.330   1.534   3.018 -0.3980 -0.6654  2.9737
   46DMF     H6 1040   1.183   1.570   2.925 -0.9915  0.4797  0.8436
   46DMF     H7 1041   1.259   1.370   3.215 -0.7966  0.1065  1.3454
   47DMF     C1 1042   0.063   1.272   2.293 -0.2593  0.0149  0.1774
   47DMF     N1 1043  -0.070   1.321   2.258 -0.1503 -0.2160 -0.3011
   47DMF     C2 1044  -0.179   1.229   2.258  0.5047 -0.1353 -1.0720
   47DMF     C3 1045  -0.101   1.454   2.241 -0.3545 -0.2729  0.8497
   47DMF     O1 1046  -0.014   1.541   2.235 -0.2272 -0.2102  0.2119
   47DMF     H1 1047   0.123   1.355   2.331 -0.7723  1.1446 -1.4505
   47DMF     H2 1048   0.112   1.241   2.200  0.7494  2.7916 -0.2786
   47DMF     H3 1049   0.060   1.193   2.369 -1.4133 -1.4417 -1.3650
   47DMF     H4 1050  -0.183   1.158   2.341  2.9129 -0.0912 -0.8861
   47DMF     H5 1051  -0.169   1.177   2.162  1.0996  0.7729 -1.5135
   47DMF     H6 1052  -0.272   1.286   2.246 -0.2610 -0.4408  2.7351
   47DMF     H7 1053  -0.208   1.475   2.224 -0.3954 -1.8944 -0.9911
   48DMF     C1 1054   2.427   2.747   0.461 -0.8305 -1.0076  0.5333
   48DMF     N1 1055   2.455   2.878   0.393  0.0992  0.2393 -0.2847
   48DMF     C2 1056   2.507   2.871   0.256  0.6474 -0.2295  0.0282
   48DMF     C3 1057   2.452   2.992   0.463  0.6699 -0.0894  0.2942
   48DMF     O1 1058   2.434   2.992   0.583 -0.2738  0.3276 -0.3461
   48DMF     H1 1059   2.391   2.753   0.565  1.5767  1.1496  1.2895
   48DMF     H2 1060   2.523   2.696   0.476  0.2692  0.4793 -1.2957
   48DMF     H3 1061   2.363   2.675   0.409  0.9767 -1.7661 -0.6624
   48DMF     H4 1062   2.601   2.925   0.247 -0.5551  1.9754  0.2633
   48DMF     H5 1063   2.444   2.933   0.191  3.0099 -0.1183 -2.2306
   48DMF     H6 1064   2.518   2.767   0.223  0.7291 -0.0043 -0.6629
   48DMF     H7 1065   2.487   3.075   0.398  3.1578 -0.4325  1.1359
   49DMF     C1 1066   0.166   0.884   2.276  0.2305  0.1630  0.1436
   49DMF     N1 1067   0.311   0.911   2.305 -0.4733 -0.1098  0.5077
   49DMF     C2 1068   0.338   1.027   2.386 -0.5210 -0.4422 -0.5024
   49DMF     C3 1069   0.414   0.821   2.279 -0.3984  1.3596  0.7212
   49DMF     O1 1070   0.400   0.723   2.205 -0.1720 -0.5254  0.2955
   49DMF     H1 1071   0.133   0.845   2.372 -1.1632  1.2911  0.1398
   49DMF     H2 1072   0.157   0.802   2.204 -0.9955  1.7021 -1.5102
   49DMF     H3 1073   0.109   0.974   2.250  1.2654  0.6615 -0.4518
   49DMF     H4 1074   0.445   1.043   2.405 -0.9291 -0.4516  1.9935
   49DMF     H5 1075   0.277   1.028   2.477 -1.1724 -3.1294 -0.8733
   49DMF     H6 1076   0.305   1.113   2.326 -1.1760  0.0820  0.6027
   49DMF     H7 1077   0.513   0.844   2.324 -0.1274  1.1068  0.2489
   50DMF     C1 1078   2.180   3.293   2.728 -0.4491 -0.3061 -0.5016
   50DMF     N1 1079   2.224   3.253   2.592 -0.2507  0.1945 -1.0945
   50DMF     C2 1080   2.270   3.121   2.588 -0.2531  0.3572 -0.1270
   50DMF     C3 1081   2.173   3.313   2.480 -0.7507  0.6205 -0.0227
   50DMF     O1 1082   2.115   3.423   2.478  0.0080  0.0483 -0.1054
   50DMF     H1 1083   2.233   3.242   2.809 -0.5588 -1.6015 -1.2311
   50DMF     H2 1084   2.070   3.286   2.728 -0.4833  0.1680 -0.9145
   50DMF     H3 1085   2.206   3.399   2.743 -0.0024 -0.2535 -1.6143
   50DMF     H4 1086   2.183   3.054   2.589 -0.7109  0.9596  0.5594
   50DMF     H5 1087   2.327   3.096   2.678  0.2414  1.8198 -0.0308
   50DMF     H6 1088   2.333   3.101   2.500 -1.5062 -0.6819 -0.8202
   50DMF     H7 1089   2.198   3.264   2.384 -0.1315  0.7149  0.0839
   51DMF     C1 1090   1.719   2.289   0.063 -0.1343  0.5512 -0.3365
   51DMF     N1 1091   1.798   2.414   0.098  1.2183  0.0747  0.0933
   51DMF     C2 1092   1.880   2.480  -0.009 -0.0190  0.0411  0.3143
   51DMF     C3 1093   1.797   2.473   0.223 -0.1882  0.1809  0.6543
   51DMF     O1 1094   1.735   2.429   0.318  0.1404  0.4006  0.0107
   51DMF     H1 1095   1.767   2.193   0.087 -0.8121 -0.0999 -1.5326
   51DMF     H2 1096   1.700   2.295  -0.045 -1.8703  0.7578 -0.0311
   51DMF     H3 1097   1.622   2.277   0.113  1.4189  0.7510  2.9054
   51DMF     H4 1098   1.830   2.467  -0.106  0.0013  2.4593 -0.0476
   51DMF     H5 1099   1.977   2.430  -0.015  1.3614  2.4750  1.7265
   51DMF     H6 1100   1.890   2.588   0.007  0.2806  0.0830 -0.1353
   51DMF     H7 1101   1.871   2.554   0.234 -1.8386  1.6383  1.4210
   52DMF     C1 1102   0.042   2.615   3.450 -0.0237 -0.6450 -0.1894
   52DMF     N1 1103  -0.093   2.635   3.402 -0.5802  0.0371  0.0212
   52DMF     C2 1104  -0.188   2.530   3.426  0.2593  0.8042 -0.0540
   52DMF     C3 1105  -0.123   2.740   3.326  0.2018  0.1065 -0.0921
   52DMF     O1 1106  -0.052   2.831   3.297  0.1461  0.4673  0.7596
   52DMF     H1 1107   0.061   2.681   3.535 -0.4098 -2.4972  1.3678
   52DMF     H2 1108   0.103   2.651   3.365 -1.0814 -0.3378 -0.8316
   52DMF     H3 1109   0.059   2.510   3.476 -2.1703 -0.9594  0.0635
   52DMF     H4 1110  -0.169   2.452   3.351 -1.3254 -0.2562  0.6202
   52DMF     H5 1111  -0.294   2.560   3.427 -0.1338 -0.5565  0.5040
   52DMF     H6 1112  -0.158   2.479   3.518  0.2246 -0.5246 -0.7653
   52DMF     H7 1113  -0.226   2.729   3.290  0.1098 -0.8474  0.4427
   53DMF     C1 1114   0.048   0.394   2.313  0.0560  0.1456  0.8284
   53DMF     N1 1115   0.188   0.347   2.284  0.3513 -0.3126  0.5229
   53DMF     C2 1116   0.288   0.452   2.252  0.5137 -0.1769  0.1129
   53DMF     C3 1117   0.225   0.215   2.279 -0.4168  0.7704 -0.5426
   53DMF     O1 1118   0.142   0.124   2.287  0.0303 -0.2194  0.0004
   53DMF     H1 1119   0.048   0.501   2.337 -1.2558  0.7152 -1.4946
   53DMF     H2 1120   0.017   0.336   2.400  1.9335 -1.2368  0.6001
   53DMF     H3 1121  -0.008   0.366   2.223  0.8592  2.2434 -0.3746
   53DMF     H4 1122   0.277   0.529   2.330 -0.4707 -0.2369  0.0413
   53DMF     H5 1123   0.272   0.490   2.150 -1.9052 -1.3581  0.0111
   53DMF     H6 1124   0.390   0.411   2.248 -0.1563 -2.0419  1.5324
   53DMF     H7 1125   0.330   0.205   2.247 -1.2986  1.1113 -3.8220
   54DMF     C1 1126   0.674   1.696   3.259  0.2723  0.3741  0.8485
   54DMF     N1 1127   0.652   1.789   3.139 -0.0266 -0.4577  0.0025
   54DMF     C2 1128   0.616   1.925   3.165 -0.6037 -0.0174  0.3987
   54DMF     C3 1129   0.707   1.757   3.012  0.6558  0.7010 -0.0508
   54DMF     O1 1130   0.734   1.639   2.990 -0.6703 -0.1656  0.0726
   54DMF     H1 1131   0.751   1.622   3.234 -1.1410 -0.3897 -1.3907
   54DMF     H2 1132   0.580   1.643   3.277  1.3030 -2.7444 -2.3020
   54DMF     H3 1133   0.708   1.751   3.348  1.1793  1.4979 -0.1605
   54DMF     H4 1134   0.586   1.967   3.068  0.5615 -0.5472 -0.2072
   54DMF     H5 1135   0.700   1.978   3.211 -1.8940  1.7025  0.8216
   54DMF     H6 1136   0.525   1.938   3.224 -1.1836  2.2091 -0.9062
   54DMF     H7 1137   0.725   1.842   2.944 -0.6137  0.1925 -1.0466
   55DMF     C1 1138   3.059   2.644   1.156  0.2583 -0.3855  0.1378
   55DMF     N1 1139   2.986   2.559   1.063  0.0860  0.1508 -0.0525
   55DMF     C2 1140   2.947   2.616   0.938  0.0737  0.4194 -0.0469
   55DMF     C3 1141   2.962   2.428   1.091  0.0376  0.4999  1.1200
   55DMF     O1 1142   2.989   2.375   1.196 -0.1773  0.1066  0.4242
   55DMF     H1 1143   2.973   2.695   1.202  0.8679  0.9355 -0.1647
   55DMF     H2 1144   3.116   2.725   1.109  1.4048 -0.8921  0.6574
   55DMF     H3 1145   3.114   2.596   1.237 -1.6800 -1.8447  0.6089
   55DMF     H4 1146   2.951   2.726   0.937  0.0540  0.4451  1.6759
   55DMF     H5 1147   2.841   2.590   0.925 -0.0100  0.8579 -0.2511
   55DMF     H6 1148   3.000   2.572   0.852 -2.2462 -2.5755 -0.0081
   55DMF     H7 1149   2.908   2.377   1.009 -1.3438  1.9279  1.1115
   56DMF     C1 1150   0.987   1.979   3.183  0.3671 -0.6623  0.2463
   56DMF     N1 1151   1.061   2.012   3.305  0.7718 -0.8301 -0.3173
   56DMF     C2 1152   1.207   2.033   3.294 -0.3007 -0.4537  0.5540
   56DMF     C3 1153   0.995   2.064   3.410 -0.0111 -0.1802  0.5014
   56DMF     O1 1154   0.870   2.067   3.415  0.5230 -0.6537 -0.4369
   56DMF     H1 1155   1.065   1.940   3.115  0.0559 -2.5728  0.9485
   56DMF     H2 1156   0.954   2.073   3.138  1.1873  0.9588  2.9514
   56DMF     H3 1157   0.908   1.904   3.196 -0.2225 -0.4645 -1.9752
   56DMF     H4 1158   1.257   2.060   3.388 -0.2448  1.9507 -0.1540
   56DMF     H5 1159   1.241   2.114   3.229  3.1807 -0.3493  2.3760
   56DMF     H6 1160   1.253   1.940   3.256 -0.3641 -1.9946  3.9889
   56DMF     H7 1161   1.062   2.112   3.483  1.7061  0.7135 -1.6057
   57DMF     C1 1162   2.417   2.779   0.845 -0.7379  0.5255 -0.2649
   57DMF     N1 1163   2.296   2.816   0.917  0.3318 -0.0579  0.6188
   57DMF     C2 1164   2.292   2.942   0.996 -0.4896 -1.0684  0.2214
   57DMF     C3 1165   2.181   2.742   0.907  0.7465  0.2888  0.0091
   57DMF     O1 1166   2.175   2.639   0.842 -0.2902  0.2732 -0.5451
   57DMF     H1 1167   2.472   2.865   0.806 -2.1209  0.2738 -2.8593
   57DMF     H2 1168   2.397   2.714   0.759 -0.8599 -0.4883  0.5134
   57DMF     H3 1169   2.484   2.718   0.908  0.0125 -0.0243 -1.5704
   57DMF     H4 1170   2.275   2.933   1.104  0.5648  0.8458  0.5653
   57DMF     H5 1171   2.217   3.010   0.953  1.1607  0.8392  0.3097
   57DMF     H6 1172   2.392   2.986   0.985 -0.6169 -0.5856  0.9729
   57DMF     H7 1173   2.097   2.776   0.970  1.1243  1.1380  0.0462
   58DMF     C1 1174   0.710   1.537   1.170  0.0990  0.5801  0.3128
   58DMF     N1 1175   0.681   1.677   1.167 -0.2530 -0.0271  0.4329
   58DMF     C2 1176   0.602   1.723   1.279  0.2161 -0.0236 -0.5374
   58DMF     C3 1177   0.710   1.765   1.062  0.3050 -0.0794  0.5821
   58DMF     O1 1178   0.800   1.735   0.982 -0.7475 -0.4922  0.1107
   58DMF     H1 1179   0.755   1.497   1.079 -1.1547 -0.8326  0.2850
   58DMF     H2 1180   0.627   1.469   1.194 -0.1378  0.3713 -1.0539
   58DMF     H3 1181   0.780   1.531   1.254  0.9572  0.0146 -0.4352
   58DMF     H4 1182   0.597   1.655   1.364 -2.4035 -2.5703 -2.6159
   58DMF     H5 1183   0.502   1.744   1.238  1.0384  3.0314 -1.1063
   58DMF     H6 1184   0.643   1.819   1.312 -0.0499 -0.9747  2.7172
   58DMF     H7 1185   0.651   1.858   1.068  1.4713  0.8653 -1.7213
   59DMF     C1 1186   1.721   2.925   3.628  0.0152 -0.1414 -0.0580
   59DMF     N1 1187   1.789   3.028   3.698  0.3846  0.9244  0.0800
   59DMF     C2 1188   1.765   3.034   3.849  0.3160 -0.1443  0.0492
   59DMF     C3 1189   1.838   3.146   3.638 -0.7338  0.0550  0.0839
   59DMF     O1 1190   1.851   3.149   3.517 -0.4805  0.0184  0.1563
   59DMF     H1 1191   1.699   2.966   3.529  0.1472 -0.7369 -0.3419
   59DMF     H2 1192   1.630   2.895   3.681  0.4044 -0.8449  0.2197
   59DMF     H3 1193   1.787   2.837   3.618  0.4852  0.2236 -0.1559
   59DMF     H4 1194   1.863   3.052   3.896  0.7259  0.8059 -1.1527
   59DMF     H5 1195   1.725   2.934   3.866  1.2208 -0.4422  0.4653
   59DMF     H6 1196   1.700   3.120   3.870  2.5988  1.2972  1.4609
   59DMF     H7 1197   1.865   3.225   3.710 -0.3335 -0.1602  0.1762
   60DMF     C1 1198   2.034   0.477   2.908 -0.1368 -0.1417 -0.2158
   60DMF     N1 1199   2.074   0.448   3.049 -0.0825  0.1202  0.2011
   60DMF     C2 1200   1.970   0.440   3.145  0.5467  1.0569  0.2457
   60DMF     C3 1201   2.211   0.442   3.093  0.2100  0.1493  0.9371
   60DMF     O1 1202   2.311   0.460   3.020  0.2776 -0.2301 -0.2945
   60DMF     H1 1203   1.976   0.569   2.921 -2.4704 -1.6933  0.6376
   60DMF     H2 1204   1.977   0.402   2.852 -0.7150  0.8503 -0.9899
   60DMF     H3 1205   2.132   0.495   2.861  0.1985 -1.3811 -0.0059
   60DMF     H4 1206   2.018   0.405   3.237 -0.5803  2.9030  1.5875
   60DMF     H5 1207   1.889   0.373   3.113 -1.6206  3.2262  1.0000
   60DMF     H6 1208   1.924   0.539   3.161 -0.9599  0.4119  0.0357
   60DMF     H7 1209   2.220   0.437   3.203 -0.5854  1.5505  1.0736
   61DMF     C1 1210   2.457   0.769   1.517 -0.1868 -0.3201  0.6806
   61DMF     N1 1211   2.327   0.702   1.522 -0.8280 -0.5132 -0.2432
   61DMF     C2 1212   2.214   0.786   1.487  0.5572 -0.1046 -0.3379
   61DMF     C3 1213   2.315   0.561   1.516  0.5705  0.4470  0.1449
   61DMF     O1 1214   2.414   0.488   1.515 -0.0092  0.1659  0.1585
   61DMF     H1 1215   2.538   0.715   1.468  0.6551  0.1729  1.5121
   61DMF     H2 1216   2.483   0.798   1.619  1.8070  0.7764 -0.1070
   61DMF     H3 1217   2.454   0.871   1.475 -0.8841  0.2300  2.0235
   61DMF     H4 1218   2.195   0.801   1.380 -1.1128 -0.7546 -0.1487
   61DMF     H5 1219   2.221   0.885   1.535  2.4923 -0.0767 -0.6332
   61DMF     H6 1220   2.118   0.745   1.521 -0.5151  2.1821 -0.4736
   61DMF     H7 1221   2.208   0.534   1.510  1.1584 -1.6844 -1.1594
   62DMF     C1 1222   3.300   2.683   0.786 -0.0152 -0.7453 -0.6212
   62DMF     N1 1223   3.273   2.827   0.765 -0.2671 -0.4211  0.0839
   62DMF     C2 1224   3.231   2.870   0.627 -0.0406  0.1793  0.1119
   62DMF     C3 1225   3.281   2.922   0.867 -0.9921  0.4258  0.0842
   62DMF     O1 1226   3.314   2.897   0.981 -0.3818  0.3221  0.1705
   62DMF     H1 1227   3.353   2.660   0.879 -1.2975  0.1872  0.3542
   62DMF     H2 1228   3.368   2.646   0.708  0.9641 -0.5026  0.1011
   62DMF     H3 1229   3.205   2.631   0.768  0.8564 -2.5166 -0.2713
   62DMF     H4 1230   3.311   2.860   0.552 -1.1226  1.3852 -1.2505
   62DMF     H5 1231   3.195   2.973   0.624  1.4516  0.6926 -1.3926
   62DMF     H6 1232   3.162   2.796   0.584 -0.0157  0.5200 -0.5187
   62DMF     H7 1233   3.248   3.024   0.839  0.7376  0.6129 -1.3074
   63DMF     C1 1234   1.777   0.974   3.195 -0.6372  0.2387 -0.0118
   63DMF     N1 1235   1.918   0.951   3.156  0.0725 -0.1191  0.8579
   63DMF     C2 1236   1.952   0.829   3.084 -0.2268 -0.5629 -0.3348
   63DMF     C3 1237   2.022   1.039   3.190  0.1593 -0.4781  0.4695
   63DMF     O1 1238   2.007   1.148   3.241 -0.0917  0.6638 -0.0076
   63DMF     H1 1239   1.725   1.038   3.123  0.7580  1.1822 -0.1752
   63DMF     H2 1240   1.784   1.019   3.295 -0.2706  0.5054 -0.1584
   63DMF     H3 1241   1.721   0.879   3.189 -2.6512  1.3611  0.3429
   63DMF     H4 1242   1.878   0.748   3.076 -3.6207  2.4144  0.1089
   63DMF     H5 1243   2.045   0.783   3.121 -1.7509 -1.1308  2.9606
   63DMF     H6 1244   1.974   0.872   2.985  2.9577 -0.5647  0.3168
   63DMF     H7 1245   2.117   0.984   3.181  1.3788  1.8384 -1.1326
   64DMF     C1 1246   2.526   1.260   0.838  0.8047 -0.5085 -0.5661
   64DMF     N1 1247   2.526   1.406   0.823 -0.1885 -0.4048 -0.1508
   64DMF     C2 1248   2.558   1.479   0.948  0.3827  0.1422 -0.5610
   64DMF     C3 1249   2.536   1.480   0.698  0.9911  0.0896  0.2826
   64DMF     O1 1250   2.533   1.428   0.589  0.2296 -0.1314 -0.8148
   64DMF     H1 1251   2.612   1.211   0.792  0.8065  1.1001 -2.3445
   64DMF     H2 1252   2.446   1.213   0.779  0.3076 -0.8713  0.3754
   64DMF     H3 1253   2.513   1.235   0.944  4.1204 -3.1214 -0.7158
   64DMF     H4 1254   2.641   1.431   1.001  0.2907  0.0532 -0.4991
   64DMF     H5 1255   2.469   1.490   1.011  0.7827 -0.2141  0.0711
   64DMF     H6 1256   2.591   1.580   0.922  1.0736 -0.2130 -1.1098
   64DMF     H7 1257   2.545   1.589   0.712 -0.7553  0.0660  1.7409
   65DMF     C1 1258   1.528   2.717   0.154  0.2432  0.9920 -0.0721
   65DMF     N1 1259   1.455   2.777   0.273  0.0647 -0.3661 -0.5554
   65DMF     C2 1260   1.320   2.734   0.288 -0.5523 -0.4193 -0.4889
   65DMF     C3 1261   1.497   2.889   0.342  0.3146 -0.4021  0.7205
   65DMF     O1 1262   1.612   2.923   0.334  0.0032 -0.3453 -0.4954
   65DMF     H1 1263   1.635   2.741   0.165  0.3070  0.9572 -0.6033
   65DMF     H2 1264   1.493   2.748   0.055  0.5815  0.2771 -0.4163
   65DMF     H3 1265   1.524   2.607   0.158 -1.4651  1.0758  1.2827
   65DMF     H4 1266   1.254   2.801   0.232 -2.6252 -1.9834 -0.0331
   65DMF     H5 1267   1.294   2.756   0.392  1.6351 -1.8172  0.3896
   65DMF     H6 1268   1.306   2.628   0.260  1.9236 -0.3599 -2.0863
   65DMF     H7 1269   1.420   2.933   0.407 -1.4472 -1.1357 -0.8068
   66DMF     C1 1270   0.563   1.288   3.100  0.1488  0.5374 -0.0339
   66DMF     N1 1271   0.644   1.275   3.220  0.1496 -0.1690  0.2503
   66DMF     C2 1272   0.782   1.334   3.216  0.1456  0.4479  0.4437
   66DMF     C3 1273   0.593   1.213   3.332 -0.0250 -0.2388 -0.1678
   66DMF     O1 1274   0.475   1.171   3.335  0.1148  0.6334  0.2588
   66DMF     H1 1275   0.469   1.340   3.123 -1.7827 -2.5429 -0.5873
   66DMF     H2 1276   0.539   1.187   3.066  0.1788  0.2127  0.9020
   66DMF     H3 1277   0.620   1.319   3.012  0.2092  0.1539 -0.1318
   66DMF     H4 1278   0.780   1.412   3.139 -1.5221 -0.3215 -0.3275
   66DMF     H5 1279   0.857   1.256   3.200  1.5137  1.7887  0.2168
   66DMF     H6 1280   0.798   1.375   3.316  3.4033  1.0121 -0.2637
   66DMF     H7 1281   0.661   1.206   3.419  0.5646  0.6572 -0.5415
   67DMF     C1 1282   1.623   3.307   1.550  0.5247 -1.2063  0.0063
   67DMF     N1 1283   1.690   3.178   1.541 -0.1569  0.2590 -0.4059
   67DMF     C2 1284   1.837   3.179   1.516  0.1793 -0.5821 -0.1578
   67DMF     C3 1285   1.613   3.063   1.548 -0.2893 -0.1792 -0.0660
   67DMF     O1 1286   1.493   3.062   1.569 -0.0691 -0.2059  0.3444
   67DMF     H1 1287   1.559   3.315   1.639  0.9310  2.7686  0.0164
   67DMF     H2 1288   1.558   3.336   1.467  2.5713  1.7946 -0.6105
   67DMF     H3 1289   1.698   3.385   1.565 -0.3370 -0.1749 -0.9736
   67DMF     H4 1290   1.874   3.084   1.475 -0.8201 -0.6912 -0.8257
   67DMF     H5 1291   1.899   3.207   1.602  1.2470  0.0878 -1.1329
   67DMF     H6 1292   1.859   3.253   1.438  0.4890  0.8174  1.2394
   67DMF     H7 1293   1.671   2.971   1.525  0.1893 -0.5911  2.6022
   68DMF     C1 1294   1.981   1.773   0.157 -0.3543 -1.0232 -0.5090
   68DMF     N1 1295   2.026   1.845   0.274 -0.3483 -0.3381  0.0485
   68DMF     C2 1296   2.107   1.968   0.252  0.1295 -0.7738  0.4049
   68DMF     C3 1297   2.014   1.808   0.403  0.2124 -0.7276  0.0158
   68DMF     O1 1298   1.948   1.713   0.446 -0.1048 -0.4242 -0.3153
   68DMF     H1 1299   2.053   1.698   0.122  1.2838 -0.2704  1.1133
   68DMF     H2 1300   1.987   1.843   0.073 -1.5499  0.2025  0.3962
   68DMF     H3 1301   1.883   1.729   0.178 -0.0396 -1.0546  0.9897
   68DMF     H4 1302   2.034   2.037   0.208 -1.2614 -1.1165  2.0975
   68DMF     H5 1303   2.188   1.952   0.180 -0.0797 -1.1384  0.2486
   68DMF     H6 1304   2.144   2.017   0.343 -1.0020  0.8860 -0.0097
   68DMF     H7 1305   2.067   1.875   0.473  0.8098  0.6637 -1.7229
   69DMF     C1 1306   0.737   1.160   1.073 -0.3763 -0.5607 -0.4363
   69DMF     N1 1307   0.650   1.081   1.164  0.5731 -0.5853 -0.0654
   69DMF     C2 1308   0.719   1.028   1.279 -0.3794 -0.3494  0.6643
   69DMF     C3 1309   0.508   1.051   1.141 -0.3319 -0.0559  0.4754
   69DMF     O1 1310   0.455   1.084   1.037 -0.4969 -0.0136  0.5789
   69DMF     H1 1311   0.710   1.264   1.091 -1.9104 -0.9044 -0.6766
   69DMF     H2 1312   0.732   1.119   0.971  0.6914 -1.9823  0.0558
   69DMF     H3 1313   0.841   1.152   1.105 -0.9287  1.2917  1.9612
   69DMF     H4 1314   0.788   1.099   1.327  0.4541 -0.3637 -0.4907
   69DMF     H5 1315   0.774   0.940   1.243  1.2596  1.5771 -1.7604
   69DMF     H6 1316   0.647   0.998   1.356  1.2348  0.7195  2.6644
   69DMF     H7 1317   0.468   1.001   1.232 -1.0715 -0.3535 -0.0052
   70DMF     C1 1318   0.777   2.839   0.632  0.1914  0.0452  0.7572
   70DMF     N1 1319   0.827   2.804   0.490 -0.0614 -0.9660 -0.0335
   70DMF     C2 1320   0.966   2.749   0.482 -0.2784  0.4583 -0.5904
   70DMF     C3 1321   0.755   2.829   0.371  0.7570 -0.2249 -0.5111
   70DMF     O1 1322   0.646   2.888   0.378  0.0127  0.3365  0.2899
   70DMF     H1 1323   0.785   2.948   0.638  0.1626  0.2969 -2.6705
   70DMF     H2 1324   0.844   2.790   0.705  1.5773 -0.4427 -0.8021
   70DMF     H3 1325   0.673   2.812   0.651 -0.1065  1.6455  1.3956
   70DMF     H4 1326   0.994   2.720   0.380  0.4218  0.0045 -0.2737
   70DMF     H5 1327   0.974   2.665   0.553 -0.3637  0.7846 -0.1989
   70DMF     H6 1328   1.037   2.826   0.515  1.5434 -0.6940 -1.6829
   70DMF     H7 1329   0.799   2.783   0.281  0.8814 -2.2729  0.5630
   71DMF     C1 1330   3.175   1.408   1.557  0.0748  0.3876 -0.3481
   71DMF     N1 1331   3.260   1.393   1.437  0.2758  0.2031  0.3774
   71DMF     C2 1332   3.187   1.382   1.309  0.1802  0.6108  0.0393
   71DMF     C3 1333   3.399   1.395   1.448 -0.5475 -0.5479 -0.3729
   71DMF     O1 1334   3.454   1.399   1.555 -0.3070  0.6669  0.4534
   71DMF     H1 1335   3.189   1.314   1.612  0.0036  0.9032  0.5576
   71DMF     H2 1336   3.071   1.426   1.528 -0.2421 -0.2583  0.3439
   71DMF     H3 1337   3.213   1.494   1.612  0.9947  0.0067 -0.3758
   71DMF     H4 1338   3.096   1.323   1.322  1.5816 -1.7564 -0.5224
   71DMF     H5 1339   3.246   1.321   1.240  0.3080 -0.6223  1.2137
   71DMF     H6 1340   3.162   1.484   1.276 -0.2559  0.4294 -0.1905
   71DMF     H7 1341   3.452   1.404   1.351 -1.2872 -2.3446 -0.9709
   72DMF     C1 1342   3.383   1.735   1.493  0.0734  0.2976  0.4994
   72DMF     N1 1343   3.330   1.857   1.536  0.8511  0.1301 -0.3714
   72DMF     C2 1344   3.424   1.968   1.554 -0.5464 -0.3903 -0.3616
   72DMF     C3 1345   3.192   1.873   1.556  0.6992 -0.0015 -0.3868
   72DMF     O1 1346   3.110   1.784   1.535 -0.4979  0.1469 -0.3910
   72DMF     H1 1347   3.323   1.697   1.410 -0.8524  3.5024 -0.3798
   72DMF     H2 1348   3.375   1.661   1.574  0.8086 -2.7128 -2.1169
   72DMF     H3 1349   3.488   1.749   1.465  0.0866 -3.4903 -1.5809
   72DMF     H4 1350   3.444   2.020   1.459 -1.9261  0.0071 -0.4489
   72DMF     H5 1351   3.514   1.937   1.607  0.0494  1.4172 -0.2800
   72DMF     H6 1352   3.379   2.048   1.615 -0.4650 -0.5251 -0.1259
   72DMF     H7 1353   3.171   1.973   1.598  0.6797 -1.0152  2.0794
   73DMF     C1 1354   2.726   2.958   1.037 -0.0999  0.1595 -0.2570
   73DMF     N1 1355   2.850   2.996   1.113 -0.9905  0.4863 -0.1016
   73DMF     C2 1356   2.866   2.975   1.257 -0.0132 -0.4665 -0.2944
   73DMF     C3 1357   2.965   3.042   1.049  0.0257 -0.0567 -0.3049
   73DMF     O1 1358   2.963   3.050   0.927 -0.2982 -0.2030 -0.7330
   73DMF     H1 1359   2.719   2.849   1.034  0.0789  0.1182  0.5018
   73DMF     H2 1360   2.735   2.995   0.934  0.5816 -1.0249 -0.6253
   73DMF     H3 1361   2.640   2.997   1.092  1.9543  1.0314  2.4657
   73DMF     H4 1362   2.889   3.072   1.303 -0.0536 -0.6338  0.0807
   73DMF     H5 1363   2.937   2.893   1.269 -0.8151 -1.1275  0.0469
   73DMF     H6 1364   2.769   2.948   1.301  0.0515  1.2718  0.9314
   73DMF     H7 1365   3.052   3.059   1.114 -0.0287  0.5801 -0.3988
   74DMF     C1 1366   1.466   2.102   1.518  0.2813  0.4477  0.2188
   74DMF     N1 1367   1.360   2.193   1.551 -0.1393  0.3233  0.1736
   74DMF     C2 1368   1.401   2.336   1.547 -0.2507 -0.0271  0.2148
   74DMF     C3 1369   1.222   2.160   1.565 -0.7832  0.4537  0.0034
   74DMF     O1 1370   1.179   2.052   1.561 -0.5156  0.0691  0.5941
   74DMF     H1 1371   1.535   2.076   1.599 -0.3657 -0.0995  0.5982
   74DMF     H2 1372   1.524   2.130   1.429 -1.1986  2.1387 -0.2344
   74DMF     H3 1373   1.409   2.011   1.494 -0.8801  0.8504  1.4668
   74DMF     H4 1374   1.346   2.404   1.612 -2.0195  0.5105 -1.7985
   74DMF     H5 1375   1.389   2.362   1.441  1.2539 -2.1690 -0.5214
   74DMF     H6 1376   1.509   2.339   1.568  0.3187  0.7790 -2.5597
   74DMF     H7 1377   1.159   2.246   1.597  0.0712  1.4320 -0.8708
   75DMF     C1 1378   2.431   1.412   2.258  0.1231  0.4066  0.3382
   75DMF     N1 1379   2.357   1.291   2.230  0.1593 -0.3221  1.1224
   75DMF     C2 1380   2.424   1.160   2.251 -0.2056 -0.1045 -0.4481
   75DMF     C3 1381   2.219   1.292   2.205  0.3009  0.4205 -0.1592
   75DMF     O1 1382   2.145   1.395   2.216  0.3211  0.0950  1.0483
   75DMF     H1 1383   2.359   1.495   2.258  0.0701  0.3732 -0.6351
   75DMF     H2 1384   2.515   1.426   2.188  0.8571 -2.2047  0.6649
   75DMF     H3 1385   2.478   1.393   2.355 -0.4945  0.8759  0.7334
   75DMF     H4 1386   2.504   1.182   2.323 -0.3727  3.0796 -1.1303
   75DMF     H5 1387   2.470   1.132   2.155  0.5187 -0.5488  0.0274
   75DMF     H6 1388   2.360   1.078   2.283 -0.2598 -0.4670 -1.4498
   75DMF     H7 1389   2.181   1.190   2.187 -2.0186  1.2835 -0.4033
   76DMF     C1 1390   1.786   0.560   0.366  0.1359  0.0881  0.0518
   76DMF     N1 1391   1.699   0.682   0.360 -0.8018  0.1220 -0.1203
   76DMF     C2 1392   1.769   0.809   0.374 -0.1873  0.0384  0.6985
   76DMF     C3 1393   1.554   0.676   0.372  0.1493  0.4834 -0.8692
   76DMF     O1 1394   1.497   0.571   0.363 -0.0339  0.8044  0.7511
   76DMF     H1 1395   1.795   0.543   0.474 -2.0705 -0.1947  0.2205
   76DMF     H2 1396   1.879   0.574   0.310  0.3701  2.0170  0.8893
   76DMF     H3 1397   1.733   0.481   0.310 -0.7717  1.6648 -1.3822
   76DMF     H4 1398   1.869   0.813   0.329  0.0365 -3.6885  0.7680
   76DMF     H5 1399   1.779   0.823   0.482 -1.0784 -1.7390  1.0222
   76DMF     H6 1400   1.716   0.893   0.328 -0.2401 -1.1376 -1.4583
   76DMF     H7 1401   1.508   0.775   0.383  0.6485  0.5517  0.7161
   77DMF     C1 1402   0.372   2.667   2.505  0.6243  0.0510 -0.0266
   77DMF     N1 1403   0.459   2.655   2.622 -0.5883  0.0033 -0.0620
   77DMF     C2 1404   0.561   2.760   2.641  0.0455 -0.5717 -0.4931
   77DMF     C3 1405   0.439   2.566   2.722  0.5722  0.0726 -0.0464
   77DMF     O1 1406   0.371   2.466   2.718  0.0557 -0.7034  0.0766
   77DMF     H1 1407   0.345   2.773   2.489 -0.7862 -0.4235 -0.8644
   77DMF     H2 1408   0.283   2.604   2.514 -0.3546  1.6598  2.2402
   77DMF     H3 1409   0.426   2.627   2.419  0.7068  0.2721 -0.0791
   77DMF     H4 1410   0.540   2.856   2.593  0.2694  0.2316  0.9907
   77DMF     H5 1411   0.658   2.718   2.611 -1.0191 -2.9330 -0.7143
   77DMF     H6 1412   0.582   2.791   2.745 -0.3387 -1.1102 -0.2551
   77DMF     H7 1413   0.499   2.590   2.812 -1.0908  2.0124  0.5971
   78DMF     C1 1414   2.587   2.123   0.713 -0.5309 -0.0480 -0.2214
   78DMF     N1 1415   2.472   2.044   0.665 -0.7586 -0.4459 -0.1775
   78DMF     C2 1416   2.336   2.111   0.662  0.4828 -0.4049  0.2487
   78DMF     C3 1417   2.479   1.907   0.633  0.1314 -0.2192  0.2374
   78DMF     O1 1418   2.576   1.837   0.657 -0.2434  0.0479  0.4340
   78DMF     H1 1419   2.544   2.199   0.780  0.5588 -1.2492  1.9076
   78DMF     H2 1420   2.618   2.178   0.624 -0.6857 -0.1088 -0.3142
   78DMF     H3 1421   2.660   2.049   0.748  0.4596  0.1002 -1.9353
   78DMF     H4 1422   2.324   2.181   0.745 -0.2584 -0.1868 -0.0370
   78DMF     H5 1423   2.255   2.039   0.679  1.0523 -1.4228 -1.2646
   78DMF     H6 1424   2.321   2.175   0.575 -0.2112 -0.5152  0.2811
   78DMF     H7 1425   2.383   1.867   0.595 -0.0788 -0.5869  1.1447
   79DMF     C1 1426   0.653   1.584   0.484 -0.4990 -0.5467  0.1379
   79DMF     N1 1427   0.697   1.628   0.617 -0.0600  0.0638 -0.2423
   79DMF     C2 1428   0.823   1.565   0.660  0.3726 -0.6285  0.5658
   79DMF     C3 1429   0.652   1.745   0.680  0.1582 -0.0875  0.8719
   79DMF     O1 1430   0.569   1.817   0.629 -0.3915  0.0457  0.4614
   79DMF     H1 1431   0.626   1.661   0.411  1.3000 -0.7300 -0.7225
   79DMF     H2 1432   0.557   1.532   0.490 -1.7285  1.6533  0.2015
   79DMF     H3 1433   0.726   1.520   0.433  0.3754 -0.6721  1.5190
   79DMF     H4 1434   0.872   1.523   0.572  1.1974  0.6671  0.3890
   79DMF     H5 1435   0.805   1.476   0.721 -0.7027 -2.2101 -1.9940
   79DMF     H6 1436   0.892   1.632   0.712  1.1571 -0.2337 -0.9668
   79DMF     H7 1437   0.704   1.775   0.772  0.4463  1.6626  0.1439
   80DMF     C1 1438   0.928   2.462   3.337 -0.6586  0.1580  0.0269
   80DMF     N1 1439   1.056   2.535   3.363  0.8120  0.3461  0.1833
   80DMF     C2 1440   1.067   2.677   3.346  0.4179 -0.0586 -0.1787
   80DMF     C3 1441   1.172   2.456   3.393  0.1326 -0.1216  0.6885
   80DMF     O1 1442   1.172   2.338   3.405  0.1216 -0.2823 -0.4130
   80DMF     H1 1443   0.857   2.535   3.296 -0.5396 -0.4355 -1.2700
   80DMF     H2 1444   0.888   2.430   3.434  0.7654 -2.6296 -0.2654
   80DMF     H3 1445   0.921   2.377   3.269  0.8038  1.5230 -1.9056
   80DMF     H4 1446   1.166   2.703   3.307  0.1593  1.4758  0.1403
   80DMF     H5 1447   1.056   2.732   3.441  0.1857  0.0610 -0.2762
   80DMF     H6 1448   1.008   2.717   3.264  0.1084  0.3162  0.2245
   80DMF     H7 1449   1.262   2.520   3.394 -1.5796  2.4195 -0.7269
   81DMF     C1 1450   3.179   0.551   0.572  0.5433 -0.0071  0.4434
   81DMF     N1 1451   3.280   0.547   0.463 -0.0815 -0.2822  0.0441
   81DMF     C2 1452   3.235   0.494   0.334  0.2619 -0.0375  0.4330
   81DMF     C3 1453   3.419   0.565   0.494  0.6967 -0.0332 -0.1901
   81DMF     O1 1454   3.461   0.569   0.603  0.1294  0.7593 -0.2274
   81DMF     H1 1455   3.081   0.558   0.522  0.7741  0.5214  0.0709
   81DMF     H2 1456   3.194   0.646   0.624  0.5693  1.2399 -1.7692
   81DMF     H3 1457   3.201   0.468   0.641 -0.4849 -0.1663  0.5919
   81DMF     H4 1458   3.257   0.386   0.333  3.2541  0.5649 -0.5163
   81DMF     H5 1459   3.290   0.548   0.257  1.8700 -3.3577 -0.8419
   81DMF     H6 1460   3.132   0.522   0.307  0.4468  0.8374  0.6516
   81DMF     H7 1461   3.472   0.566   0.397 -0.4566 -0.8778 -0.8445
   82DMF     C1 1462   0.708   3.407   1.559 -0.2621  0.0860  0.4647
   82DMF     N1 1463   0.752   3.551   1.554  0.6995 -0.3559  0.7784
   82DMF     C2 1464   0.892   3.580   1.540 -0.2312  0.0341 -0.4601
   82DMF     C3 1465   0.652   3.653   1.554 -0.1766  0.4323  0.2756
   82DMF     O1 1466   0.533   3.632   1.574 -0.2460  0.7051  0.1901
   82DMF     H1 1467   0.618   3.398   1.621 -2.6339 -0.4017 -2.9134
   82DMF     H2 1468   0.785   3.338   1.595  1.0115 -0.5169 -3.1615
   82DMF     H3 1469   0.682   3.378   1.456 -0.9442  1.6566  0.1758
   82DMF     H4 1470   0.937   3.605   1.636 -0.6594  0.7113 -0.4344
   82DMF     H5 1471   0.915   3.659   1.467  1.1859 -0.1144 -0.1913
   82DMF     H6 1472   0.946   3.489   1.510 -1.3027 -0.6313 -0.4124
   82DMF     H7 1473   0.697   3.753   1.568  1.9732 -0.6271  1.2455
   83DMF     C1 1474   0.057   0.106   1.501 -0.6957 -0.9208 -0.4577
   83DMF     N1 1475   0.130  -0.009   1.543  0.3197 -0.1069  0.3210
   83DMF     C2 1476   0.275   0.010   1.559  0.1650 -0.0052 -0.9332
   83DMF     C3 1477   0.069  -0.132   1.572  0.6407  0.0434 -0.1906
   83DMF     O1 1478  -0.050  -0.151   1.546  0.6506  0.0524 -0.2515
   83DMF     H1 1479   0.131   0.186   1.485  0.6872 -1.4657  2.8700
   83DMF     H2 1480  -0.012   0.139   1.579  0.7169 -0.0316  0.4426
   83DMF     H3 1481   0.004   0.081   1.408 -1.8970 -0.8301  0.1950
   83DMF     H4 1482   0.302   0.093   1.625 -0.9370  0.7647 -1.4362
   83DMF     H5 1483   0.319   0.025   1.460 -1.4459  0.5731 -1.5705
   83DMF     H6 1484   0.320  -0.085   1.590 -1.8362 -1.0562 -1.2219
   83DMF     H7 1485   0.132  -0.219   1.600  1.3450  0.5885 -0.0729
   84DMF     C1 1486   3.397   1.237   0.552 -0.1233  0.5168 -0.3952
   84DMF     N1 1487   3.416   1.130   0.652 -0.0287 -0.5807  0.4013
   84DMF     C2 1488   3.374   0.988   0.617 -0.4513 -0.1051 -0.1509
   84DMF     C3 1489   3.486   1.158   0.770 -0.2589 -0.0378 -0.1766
   84DMF     O1 1490   3.520   1.271   0.802 -0.1618  0.2365  0.4202
   84DMF     H1 1491   3.456   1.217   0.462  1.5540  0.6416  0.6743
   84DMF     H2 1492   3.437   1.330   0.593  1.5693  1.1304 -3.3065
   84DMF     H3 1493   3.294   1.263   0.521  0.8883  1.6282 -2.9826
   84DMF     H4 1494   3.466   0.941   0.579  1.2669  3.3989 -0.5639
   84DMF     H5 1495   3.291   1.000   0.547 -1.7247 -3.5740  0.6437
   84DMF     H6 1496   3.341   0.930   0.704 -1.1182 -1.9438 -1.5894
   84DMF     H7 1497   3.497   1.069   0.836  0.8362  1.1367  1.2474
   85DMF     C1 1498   0.413   3.003   2.255 -0.5619 -0.5466 -0.1861
   85DMF     N1 1499   0.425   3.127   2.333 -0.7605  0.0660  0.3407
   85DMF     C2 1500   0.449   3.252   2.264 -0.2988  0.2325  0.1024
   85DMF     C3 1501   0.381   3.138   2.468  0.0200  0.2637 -0.2487
   85DMF     O1 1502   0.347   3.047   2.537 -0.1696 -0.6232 -0.4586
   85DMF     H1 1503   0.332   3.017   2.182 -0.9181 -1.1234  0.0965
   85DMF     H2 1504   0.396   2.915   2.318  0.0917  0.5697  1.5791
   85DMF     H3 1505   0.508   2.988   2.203 -0.8046 -0.6979 -0.5889
   85DMF     H4 1506   0.361   3.313   2.286  0.0788  1.4526 -1.6375
   85DMF     H5 1507   0.465   3.240   2.156 -0.8158  2.6186 -0.2722
   85DMF     H6 1508   0.529   3.307   2.315 -0.9497  0.0341  1.3500
   85DMF     H7 1509   0.372   3.244   2.496  0.4661  0.3983 -0.6135
   86DMF     C1 1510   0.714   1.226   3.768 -0.5958 -0.6105 -0.5127
   86DMF     N1 1511   0.615   1.260   3.865 -0.6024 -0.3582  0.4772
   86DMF     C2 1512   0.470   1.274   3.824 -0.0771 -0.1562 -0.2042
   86DMF     C3 1513   0.652   1.272   4.003  0.3288  0.0211  0.3795
   86DMF     O1 1514   0.766   1.260   4.047 -0.3430 -0.1695 -0.0830
   86DMF     H1 1515   0.793   1.300   3.789 -2.6643  1.9398 -1.5076
   86DMF     H2 1516   0.688   1.235   3.662  0.3152  2.8481 -0.5140
   86DMF     H3 1517   0.762   1.133   3.802  1.4488  0.9694  0.9957
   86DMF     H4 1518   0.473   1.285   3.715  1.0053 -0.5674 -0.2160
   86DMF     H5 1519   0.426   1.362   3.873 -0.7166 -0.7436  0.2928
   86DMF     H6 1520   0.406   1.188   3.847 -0.5486  0.4886  1.0137
   86DMF     H7 1521   0.561   1.285   4.065  0.1762  0.7274  0.0114
   87DMF     C1 1522   3.135   0.367   2.845  0.3545 -0.0448  0.1979
   87DMF     N1 1523   3.274   0.402   2.893 -0.2442 -0.2495  0.8680
   87DMF     C2 1524   3.310   0.386   3.031 -0.4059 -0.2906  0.2613
   87DMF     C3 1525   3.362   0.452   2.798 -0.9689 -0.7087  0.2635
   87DMF     O1 1526   3.332   0.480   2.681 -0.3461 -0.2690  0.2258
   87DMF     H1 1527   3.076   0.458   2.864 -0.8412 -0.8597  0.4809
   87DMF     H2 1528   3.095   0.277   2.895 -0.3247  1.8740  3.2599
   87DMF     H3 1529   3.137   0.349   2.737 -0.0470  0.8334  0.0395
   87DMF     H4 1530   3.259   0.302   3.081  0.8664  1.0803  4.0244
   87DMF     H5 1531   3.293   0.483   3.079  0.6395 -1.2873  2.7155
   87DMF     H6 1532   3.416   0.361   3.043 -0.1944 -0.0485 -1.0322
   87DMF     H7 1533   3.464   0.465   2.839 -0.4797 -0.1450 -1.1183
   88DMF     C1 1534   1.019   3.252   1.339  0.4654  0.3129  0.3135
   88DMF     N1 1535   1.120   3.208   1.438 -0.0170 -0.3092  0.2097
   88DMF     C2 1536   1.247   3.282   1.427 -0.0512 -0.1414 -0.5064
   88DMF     C3 1537   1.083   3.126   1.550  0.5783  0.5099 -0.6169
   88DMF     O1 1538   0.979   3.062   1.553 -0.1327 -0.3644 -0.1199
   88DMF     H1 1539   0.987   3.176   1.267  2.0108  0.7207 -0.8232
   88DMF     H2 1540   1.063   3.336   1.285  1.1077  0.1282  0.5380
   88DMF     H3 1541   0.931   3.289   1.392  0.5410  1.3465 -0.2674
   88DMF     H4 1542   1.315   3.263   1.511 -0.9776 -0.3718  0.1985
   88DMF     H5 1543   1.224   3.389   1.436  1.7182  0.0844  2.1637
   88DMF     H6 1544   1.289   3.250   1.331 -0.8687 -1.4482 -0.4447
   88DMF     H7 1545   1.168   3.110   1.618 -0.9309 -0.2454  1.1244
   89DMF     C1 1546   0.984   2.735   2.899 -0.0713 -0.7204 -0.9158
   89DMF     N1 1547   1.039   2.685   2.769  0.3663 -0.2009  0.5651
   89DMF     C2 1548   1.184   2.646   2.774 -0.6906 -0.4133 -0.1870
   89DMF     C3 1549   0.998   2.745   2.646 -0.2370 -0.1481  0.8732
   89DMF     O1 1550   0.905   2.826   2.638 -0.0225 -0.2805 -0.2286
   89DMF     H1 1551   1.008   2.670   2.984 -1.3323  1.8702  1.5242
   89DMF     H2 1552   0.876   2.732   2.879  0.1663  1.8397 -2.7886
   89DMF     H3 1553   1.018   2.839   2.911 -1.3617 -0.0449 -2.8851
   89DMF     H4 1554   1.241   2.738   2.759 -1.0156 -0.3363 -1.0042
   89DMF     H5 1555   1.213   2.582   2.690 -3.5017 -2.5986  0.4364
   89DMF     H6 1556   1.218   2.603   2.869 -0.2042 -0.0788 -0.2072
   89DMF     H7 1557   1.048   2.703   2.556  0.1653  0.3171  0.8775
   90DMF     C1 1558   1.421   2.189   1.009 -0.3800  0.2868  0.5356
   90DMF     N1 1559   1.514   2.125   0.911 -0.6693  0.2920  0.8110
   90DMF     C2 1560   1.637   2.081   0.968  0.9245  0.1175 -0.7613
   90DMF     C3 1561   1.477   2.094   0.783  0.2154 -0.3773  0.3472
   90DMF     O1 1562   1.371   2.126   0.738  1.0339  0.0709 -0.0320
   90DMF     H1 1563   1.457   2.285   1.046 -0.2888  0.0065  1.1741
   90DMF     H2 1564   1.411   2.129   1.100  1.3819  2.2635  2.0732
   90DMF     H3 1565   1.318   2.195   0.970 -0.1080 -0.7231 -0.3645
   90DMF     H4 1566   1.701   2.170   0.961 -0.1449  1.0431  0.9110
   90DMF     H5 1567   1.680   2.003   0.905 -1.1990 -2.2216  0.5899
   90DMF     H6 1568   1.619   2.050   1.072  0.2056  0.9748 -0.6161
   90DMF     H7 1569   1.556   2.033   0.735 -1.6510 -2.1094 -0.6101
   91DMF     C1 1570   3.097   2.131   2.654 -0.6579  0.1311 -0.9501
   91DMF     N1 1571   3.249   2.126   2.620  0.6094  0.2308 -0.5721
   91DMF     C2 1572   3.325   2.243   2.584  0.0200  0.5239 -0.2513
   91DMF     C3 1573   3.296   2.001   2.580  0.0688 -0.3225 -0.1638
   91DMF     O1 1574   3.212   1.909   2.567 -0.0889 -0.1386 -0.0031
   91DMF     H1 1575   3.075   2.055   2.730 -2.9092  0.3993 -1.3027
   91DMF     H2 1576   3.040   2.110   2.563  0.1803 -2.6858 -0.8696
   91DMF     H3 1577   3.067   2.220   2.711  0.5187  1.0784 -1.8047
   91DMF     H4 1578   3.432   2.222   2.595  0.6673  2.2162 -2.8980
   91DMF     H5 1579   3.300   2.324   2.653 -0.4125 -1.4383  1.9532
   91DMF     H6 1580   3.314   2.271   2.478 -1.7517 -2.6911 -0.9945
   91DMF     H7 1581   3.401   1.996   2.544  0.8241 -0.4442  1.9650
   92DMF     C1 1582   1.576   0.277   1.483  0.2827 -0.1492  0.1242
   92DMF     N1 1583   1.426   0.280   1.478 -0.3004  0.2607  0.4664
   92DMF     C2 1584   1.356   0.377   1.388 -0.2299 -0.3736 -0.4286
   92DMF     C3 1585   1.354   0.166   1.525 -0.2295 -0.0513  0.2325
   92DMF     O1 1586   1.406   0.072   1.572  0.0685  0.4786 -0.0962
   92DMF     H1 1587   1.602   0.383   1.493 -3.8022  1.2521 -2.7246
   92DMF     H2 1588   1.602   0.231   1.387 -1.9398 -0.0513 -0.5703
   92DMF     H3 1589   1.612   0.234   1.577  2.6038 -0.9455 -1.0955
   92DMF     H4 1590   1.425   0.412   1.310 -0.7067 -1.5263 -1.4063
   92DMF     H5 1591   1.333   0.463   1.451 -2.3891 -0.5113 -1.0068
   92DMF     H6 1592   1.264   0.339   1.342 -1.1727  1.5142 -0.1080
   92DMF     H7 1593   1.244   0.180   1.520  0.0474  2.5192  0.3202
   93DMF     C1 1594   0.718   0.560   1.101 -0.4779 -0.4769 -0.0794
   93DMF     N1 1595   0.810   0.447   1.127 -0.2962  0.4201  0.5602
   93DMF     C2 1596   0.880   0.398   1.007 -0.1913  0.2674  0.3942
   93DMF     C3 1597   0.795   0.366   1.241 -0.4425  0.0516 -0.3943
   93DMF     O1 1598   0.728   0.404   1.333 -0.3639 -0.0151 -0.1301
   93DMF     H1 1599   0.702   0.592   0.998  1.2152 -2.9643 -1.1751
   93DMF     H2 1600   0.736   0.644   1.169  0.7105 -0.6100 -0.2150
   93DMF     H3 1601   0.615   0.531   1.127  0.4943 -1.8804  2.3611
   93DMF     H4 1602   0.840   0.441   0.914 -0.6951 -0.2554  0.3676
   93DMF     H5 1603   0.867   0.290   1.009  1.3749  0.0620  0.1194
   93DMF     H6 1604   0.987   0.423   1.015 -0.1202  0.3299 -0.6835
   93DMF     H7 1605   0.847   0.268   1.236 -0.8094 -0.3568  2.7979
   94DMF     C1 1606   1.022   1.193   3.526  1.1879 -0.0140 -0.2848
   94DMF     N1 1607   1.110   1.151   3.648 -0.5841 -0.5911  0.3237
   94DMF     C2 1608   1.082   1.198   3.783  0.2988  0.2946  0.1251
   94DMF     C3 1609   1.233   1.093   3.639 -0.1652 -0.9441 -0.2368
   94DMF     O1 1610   1.274   1.055   3.531  0.1400 -0.0883 -0.0106
   94DMF     H1 1611   1.054   1.143   3.434 -1.6638  1.1396 -1.9759
   94DMF     H2 1612   1.027   1.303   3.519  1.8129 -0.0393 -0.2545
   94DMF     H3 1613   0.921   1.158   3.547  0.0758  1.7027 -2.6021
   94DMF     H4 1614   1.147   1.154   3.859  1.2067  1.1247 -0.1641
   94DMF     H5 1615   0.980   1.173   3.816  0.6170 -2.7150 -1.0751
   94DMF     H6 1616   1.088   1.308   3.788  1.6526  0.2610 -0.7287
   94DMF     H7 1617   1.273   1.077   3.740 -1.9703  0.1270  0.6699
   95DMF     C1 1618   2.653   3.223   0.691  0.0561  0.2828  0.7601
   95DMF     N1 1619   2.710   3.347   0.745 -0.1949  0.4427  0.3764
   95DMF     C2 1620   2.855   3.348   0.767 -0.8211 -0.2444  0.0120
   95DMF     C3 1621   2.631   3.471   0.752  0.5165  0.2421  0.9288
   95DMF     O1 1622   2.511   3.465   0.724  0.6836 -0.2025 -0.2619
   95DMF     H1 1623   2.658   3.219   0.582 -0.8238 -0.8217  0.7459
   95DMF     H2 1624   2.550   3.215   0.728 -1.1981 -1.7597 -2.9264
   95DMF     H3 1625   2.702   3.135   0.734  0.1272 -0.0151  0.0729
   95DMF     H4 1626   2.910   3.308   0.680  0.2595 -1.9304  1.4241
   95DMF     H5 1627   2.887   3.277   0.844  0.4604  1.2551  0.8903
   95DMF     H6 1628   2.892   3.445   0.801 -1.3940 -0.6216  1.7308
   95DMF     H7 1629   2.689   3.555   0.794  1.1263  0.5988 -0.5891
   96DMF     C1 1630   0.868   2.537   0.114  0.0270  0.5280  0.1800
   96DMF     N1 1631   0.882   2.616  -0.011  0.3186 -0.1411 -0.0691
   96DMF     C2 1632   0.958   2.568  -0.118 -1.2653 -0.0651 -0.5365
   96DMF     C3 1633   0.820   2.743  -0.024 -0.3389 -0.2846  0.6923
   96DMF     O1 1634   0.742   2.791   0.056 -0.3508  0.7282  0.0970
   96DMF     H1 1635   0.967   2.496   0.136  0.6781  1.3728 -1.1149
   96DMF     H2 1636   0.798   2.455   0.095  2.3733 -1.9842  1.9602
   96DMF     H3 1637   0.841   2.599   0.201 -1.2375  0.7747 -0.3810
   96DMF     H4 1638   1.014   2.475  -0.104  2.4926  1.6920 -3.0513
   96DMF     H5 1639   1.028   2.650  -0.140  0.1453 -1.3651 -0.9602
   96DMF     H6 1640   0.894   2.551  -0.205  0.2238  0.2844 -1.7269
   96DMF     H7 1641   0.855   2.791  -0.117 -0.5674  0.1578  0.8332
   97DMF     C1 1642   3.148   0.146   0.376 -1.0892 -0.1183 -0.2568
   97DMF     N1 1643   3.159   0.010   0.425 -0.5073 -0.3532 -0.2312
   97DMF     C2 1644   3.140  -0.090   0.322  0.0203  0.3361 -0.5322
   97DMF     C3 1645   3.153  -0.022   0.561  0.3136  0.2765 -0.2055
   97DMF     O1 1646   3.142   0.062   0.643  0.3480 -0.4725 -0.2312
   97DMF     H1 1647   3.226   0.205   0.424  1.2927 -1.9073 -1.7966
   97DMF     H2 1648   3.048   0.181   0.402 -1.0694 -1.4444  1.7217
   97DMF     H3 1649   3.171   0.143   0.268  1.6364  0.6162  0.2759
   97DMF     H4 1650   3.230  -0.152   0.321  0.5104  0.9639  1.3385
   97DMF     H5 1651   3.143  -0.055   0.218  0.1590 -1.3875 -1.1118
   97DMF     H6 1652   3.049  -0.150   0.336  1.1754 -1.3700 -0.1943
   97DMF     H7 1653   3.165  -0.129   0.587  2.4898  0.3600 -0.7233
   98DMF     C1 1654   1.388   2.653   1.344 -0.0605  0.3881  0.0507
   98DMF     N1 1655   1.377   2.779   1.413 -0.7874  0.3235  0.4573
   98DMF     C2 1656   1.384   2.903   1.340  0.1191  0.3240  0.3228
   98DMF     C3 1657   1.363   2.788   1.546  0.4990 -0.2921  0.4034
   98DMF     O1 1658   1.388   2.687   1.613 -0.2148 -0.0784  0.0478
   98DMF     H1 1659   1.379   2.666   1.235  2.8684  3.4852  0.1186
   98DMF     H2 1660   1.321   2.575   1.381  1.9525 -1.3192  0.1742
   98DMF     H3 1661   1.492   2.623   1.360  0.0725  0.5327 -0.5088
   98DMF     H4 1662   1.357   2.880   1.236 -1.1308  1.9205  0.2777
   98DMF     H5 1663   1.491   2.925   1.337  0.3720 -0.5333  2.2156
   98DMF     H6 1664   1.324   2.991   1.365 -0.8370 -0.4268  0.7197
   98DMF     H7 1665   1.341   2.891   1.581 -1.5100 -0.0937 -1.3453
   99DMF     C1 1666   0.381   1.584   3.095  0.2184 -0.3690  0.4993
   99DMF     N1 1667   0.287   1.579   2.986  0.5584  0.8754 -0.5077
   99DMF     C2 1668   0.340   1.573   2.853 -0.2511 -0.5154 -0.3195
   99DMF     C3 1669   0.143   1.560   3.007 -0.2346  0.2974 -0.9035
   99DMF     O1 1670   0.099   1.562   3.122 -0.7275 -0.0474  0.2766
   99DMF     H1 1671   0.481   1.564   3.055 -0.0701 -0.1020 -0.3552
   99DMF     H2 1672   0.347   1.508   3.167 -3.0324  0.3592 -0.1721
   99DMF     H3 1673   0.370   1.684   3.138  0.7153  0.2171 -0.7309
   99DMF     H4 1674   0.361   1.469   2.827 -1.6868 -0.9264  0.1218
   99DMF     H5 1675   0.432   1.630   2.836  0.4354 -0.7785  2.3826
   99DMF     H6 1676   0.263   1.607   2.783  0.5078 -0.7894 -1.3017
   99DMF     H7 1677   0.081   1.529   2.921 -2.5643  1.1742  0.4169
  100DMF     C1 1678   1.029   1.948   2.837 -0.4223 -0.4570  0.6000
  100DMF     N1 1679   0.991   1.942   2.700 -0.5759 -0.1128 -0.2640
  100DMF     C2 1680   0.865   2.007   2.655 -0.2584 -0.4510  0.6081
  100DMF     C3 1681   1.088   1.942   2.598 -0.3996  0.1320 -0.0959
  100DMF     O1 1682   1.209   1.931   2.615  0.0566  1.0533 -0.1646
  100DMF     H1 1683   0.990   1.859   2.888 -0.9053  0.5581  2.0544
  100DMF     H2 1684   0.984   2.042   2.872  0.4933  0.0188  0.5110
  100DMF     H3 1685   1.135   1.966   2.855 -0.3996  0.2672 -0.2119
  100DMF     H4 1686   0.859   1.979   2.549  0.9856  0.0164  0.3982
  100DMF     H5 1687   0.878   2.115   2.671 -0.4441 -0.1220 -1.2874
  100DMF     H6 1688   0.784   1.969   2.718 -0.8337  0.4289  0.4203
  100DMF     H7 1689   1.045   1.955   2.497  0.8042  0.1215 -0.6224
  101DMF     C1 1690   0.153   3.083   3.393 -0.4374 -0.2200  0.4807
  101DMF     N1 1691   0.251   3.183   3.344 -0.2554  0.0741 -0.3833
  101DMF     C2 1692   0.276   3.185   3.203 -1.0185 -0.7964  0.1616
  101DMF     C3 1693   0.318   3.266   3.434  0.6865  0.2509  0.1906
  101DMF     O1 1694   0.295   3.255   3.553 -0.4598 -0.8745  0.0586
  101DMF     H1 1695   0.174   2.987   3.342  1.0717  0.8289 -0.9256
  101DMF     H2 1696   0.051   3.111   3.366 -0.7989 -0.1887  1.8701
  101DMF     H3 1697   0.165   3.065   3.500  2.2054 -0.4817  0.1711
  101DMF     H4 1698   0.359   3.256   3.190 -1.4068 -0.0053  1.8249
  101DMF     H5 1699   0.185   3.220   3.153 -0.4335  0.5814  0.0339
  101DMF     H6 1700   0.290   3.086   3.158  0.8524  0.0961 -1.3165
  101DMF     H7 1701   0.385   3.344   3.394  0.4015  0.9362  1.0127
  102DMF     C1 1702   2.037   2.197   2.291  0.6806  0.0265  0.3676
  102DMF     N1 1703   2.018   2.340   2.265 -0.1647 -0.1854 -0.1773
  102DMF     C2 1704   2.127   2.436   2.298  0.1804 -0.0047  0.2751
  102DMF     C3 1705   1.889   2.380   2.238  0.1345  0.4935 -1.1330
  102DMF     O1 1706   1.803   2.303   2.206 -0.0605  0.3105 -0.1164
  102DMF     H1 1707   2.138   2.173   2.327  0.3047  0.0172  1.4178
  102DMF     H2 1708   2.014   2.142   2.198 -1.2626  0.3841  0.6157
  102DMF     H3 1709   1.973   2.172   2.376  0.3241  2.0267  0.7069
  102DMF     H4 1710   2.096   2.510   2.373 -0.9170  1.5603 -1.6629
  102DMF     H5 1711   2.150   2.491   2.206 -0.1893  0.7674  0.6348
  102DMF     H6 1712   2.212   2.372   2.323 -0.2532 -0.1395  1.4386
  102DMF     H7 1713   1.866   2.488   2.242  1.1688  0.7301 -1.3616
  103DMF     C1 1714   1.850   1.837   1.232 -0.0290 -0.2070  0.0901
  103DMF     N1 1715   1.945   1.776   1.141  0.4815 -0.7388 -0.1496
  103DMF     C2 1716   2.012   1.654   1.184 -0.7427  0.0833  0.5042
  103DMF     C3 1717   2.004   1.854   1.032 -0.0539  0.7135  0.2079
  103DMF     O1 1718   1.962   1.962   0.999 -0.0936 -0.6586  0.7872
  103DMF     H1 1719   1.752   1.788   1.238 -0.6496  1.1193  0.9757
  103DMF     H2 1720   1.839   1.945   1.216 -1.1266 -0.0840  1.5619
  103DMF     H3 1721   1.899   1.827   1.330  0.5234  1.4440 -0.0035
  103DMF     H4 1722   2.084   1.622   1.109  2.6647  5.3843  1.2695
  103DMF     H5 1723   1.947   1.566   1.193 -0.7630 -0.0762 -1.1637
  103DMF     H6 1724   2.070   1.670   1.276  0.7520  2.2558 -0.7689
  103DMF     H7 1725   2.093   1.807   0.986 -0.1235  1.6065 -0.8431
  104DMF     C1 1726   2.689   0.999   3.496  0.4561  0.0792  0.3031
  104DMF     N1 1727   2.833   0.954   3.504 -0.1368  0.0698 -0.1896
  104DMF     C2 1728   2.935   1.058   3.528 -0.5285 -0.0038 -0.7178
  104DMF     C3 1729   2.880   0.826   3.473  0.1542  0.1893 -0.4741
  104DMF     O1 1730   2.810   0.736   3.428  0.3743 -0.2920 -0.3878
  104DMF     H1 1731   2.648   1.037   3.590  0.6135  3.1240 -0.8302
  104DMF     H2 1732   2.628   0.917   3.455  1.6885 -1.0653  0.7162
  104DMF     H3 1733   2.696   1.076   3.418  2.4357 -0.3154  0.0555
  104DMF     H4 1734   2.937   1.117   3.435  1.7523  1.6785  0.3280
  104DMF     H5 1735   3.036   1.017   3.542  0.2332  1.1577 -2.5635
  104DMF     H6 1736   2.909   1.119   3.615  1.5281  0.0831 -0.1345
  104DMF     H7 1737   2.988   0.822   3.496  0.1305  1.9051  0.0511
  105DMF     C1 1738   2.970   1.054   1.170 -0.4255  0.1191 -0.5289
  105DMF     N1 1739   2.950   1.044   1.025  0.2430 -0.0420 -0.2214
  105DMF     C2 1740   2.808   1.034   0.972 -0.1000  0.0517  0.3647
  105DMF     C3 1741   3.059   1.019   0.944  0.4400 -0.4294 -0.0092
  105DMF     O1 1742   3.177   1.001   0.979  0.1918 -0.2063 -0.0090
  105DMF     H1 1743   2.938   1.153   1.203  1.3243  0.2573  0.8465
  105DMF     H2 1744   3.078   1.039   1.184 -0.3028 -1.3181 -2.7323
  105DMF     H3 1745   2.911   0.982   1.228  2.0490 -2.1739 -0.7410
  105DMF     H4 1746   2.808   0.998   0.868 -0.8735 -0.4153  0.5195
  105DMF     H5 1747   2.740   1.119   0.981 -2.1833 -1.4675 -0.5008
  105DMF     H6 1748   2.761   0.958   1.036  0.2657  0.7741  1.4995
  105DMF     H7 1749   3.034   1.015   0.837  0.1626 -0.6443  0.0632
  106DMF     C1 1750   2.100   2.867   2.397  0.3221 -0.4977 -0.4646
  106DMF     N1 1751   2.133   2.958   2.297 -0.2694  0.3511 -0.5009
  106DMF     C2 1752   2.032   3.064   2.267  0.5996 -0.3425  0.7982
  106DMF     C3 1753   2.258   2.954   2.234  0.2925 -0.3667 -0.2157
  106DMF     O1 1754   2.351   2.881   2.261 -0.1041 -0.3860 -0.1642
  106DMF     H1 1755   2.179   2.857   2.472 -0.7233  1.1319  0.8796
  106DMF     H2 1756   2.079   2.767   2.356 -2.2506  0.2394 -1.0474
  106DMF     H3 1757   2.003   2.904   2.432  0.7020  2.4316 -2.3507
  106DMF     H4 1758   1.969   3.034   2.183  2.4727 -1.1521 -0.3332
  106DMF     H5 1759   2.101   3.146   2.243  0.8286 -0.0057  2.5166
  106DMF     H6 1760   1.963   3.089   2.349 -0.6137 -0.7123 -0.0952
  106DMF     H7 1761   2.261   3.020   2.145 -0.2177  2.6361  1.9248
  107DMF     C1 1762   2.212   1.382   0.540 -0.4588 -0.2013 -0.4323
  107DMF     N1 1763   2.197   1.444   0.677  0.0341  0.5852 -0.3130
  107DMF     C2 1764   2.195   1.592   0.690 -0.2877  0.5297  1.1671
  107DMF     C3 1765   2.203   1.370   0.795  0.0296  0.1076 -0.1615
  107DMF     O1 1766   2.207   1.246   0.800  0.5026 -0.5240  0.3352
  107DMF     H1 1767   2.297   1.414   0.478 -3.5496 -0.5196 -5.1144
  107DMF     H2 1768   2.118   1.394   0.486 -0.4149  1.4923 -0.1473
  107DMF     H3 1769   2.213   1.272   0.551 -0.8925 -0.1836 -0.2170
  107DMF     H4 1770   2.264   1.638   0.618  0.5241 -2.1238  0.1918
  107DMF     H5 1771   2.236   1.621   0.788  0.3226 -0.2570  1.1531
  107DMF     H6 1772   2.093   1.622   0.666  0.1314  0.9647 -0.1377
  107DMF     H7 1773   2.198   1.422   0.892  1.7739 -0.0773  0.0372
  108DMF     C1 1774   1.919   2.068   2.940  0.5068  0.6471 -0.6619
  108DMF     N1 1775   2.046   2.010   2.934  0.4216 -0.1895  0.4267
  108DMF     C2 1776   2.105   1.946   3.055 -1.4672 -0.3279 -0.8876
  108DMF     C3 1777   2.106   1.991   2.813  0.0138 -0.2692 -0.2414
  108DMF     O1 1778   2.070   2.040   2.709  0.6780 -0.2343  0.2079
  108DMF     H1 1779   1.922   2.176   2.923 -1.8482  0.7386 -0.6760
  108DMF     H2 1780   1.872   2.047   3.037 -0.2568 -1.6886 -1.5119
  108DMF     H3 1781   1.845   2.023   2.874 -1.8762  0.8989  1.7331
  108DMF     H4 1782   2.094   2.007   3.146 -0.0813 -0.9453 -0.2900
  108DMF     H5 1783   2.211   1.920   3.039 -0.6484  0.7309  2.2818
  108DMF     H6 1784   2.051   1.852   3.073 -0.6861 -0.5849  0.2609
  108DMF     H7 1785   2.204   1.941   2.823  0.6601  0.7683 -1.2737
  109DMF     C1 1786   1.110   1.253   1.012 -0.2833  0.0622  0.1960
  109DMF     N1 1787   1.142   1.389   0.968  0.1323  0.3348 -0.0490
  109DMF     C2 1788   1.034   1.489   0.973  0.4109  0.0464  0.2694
  109DMF     C3 1789   1.263   1.420   0.891 -0.2964 -0.3357 -0.7305
  109DMF     O1 1790   1.354   1.338   0.865  0.1932  0.2195 -0.4757
  109DMF     H1 1791   1.023   1.206   0.963  0.2409 -1.3827  0.6042
  109DMF     H2 1792   1.083   1.253   1.118 -1.3688  0.0012 -0.0749
  109DMF     H3 1793   1.198   1.188   1.005 -2.0177 -2.1678 -1.9106
  109DMF     H4 1794   0.950   1.478   0.903 -0.0982  0.4170  0.8112
  109DMF     H5 1795   1.083   1.583   0.944  0.5059 -0.2621 -0.5942
  109DMF     H6 1796   0.987   1.506   1.071  1.0553  0.6986  0.4713
  109DMF     H7 1797   1.277   1.526   0.862  2.3227 -0.2230  0.7745
  110DMF     C1 1798   0.806   3.317   0.009 -0.1022 -0.5834  0.7152
  110DMF     N1 1799   0.754   3.184  -0.030  0.1082  0.4965 -0.1075
  110DMF     C2 1800   0.614   3.165  -0.015  0.2346  0.0828 -1.1353
  110DMF     C3 1801   0.835   3.080  -0.093  0.2178 -0.2038  0.4377
  110DMF     O1 1802   0.953   3.091  -0.114  0.3084 -0.3264  0.4480
  110DMF     H1 1803   0.860   3.310   0.104  0.6256  0.0359  0.3511
  110DMF     H2 1804   0.730   3.395   0.021 -0.5336 -0.9895  0.6321
  110DMF     H3 1805   0.873   3.344  -0.073  0.1971 -2.5738  0.2725
  110DMF     H4 1806   0.585   3.203   0.083  0.8424 -0.7976 -0.6040
  110DMF     H5 1807   0.576   3.063  -0.034 -0.5245 -0.0475  0.9975
  110DMF     H6 1808   0.573   3.236  -0.088  0.3310  1.3486  0.0412
  110DMF     H7 1809   0.781   2.988  -0.122  0.8707 -0.6638  0.6740
  111DMF     C1 1810   0.266   0.754   0.169  1.1793  0.3911  0.4352
  111DMF     N1 1811   0.405   0.803   0.162 -0.8288  0.0178  0.4316
  111DMF     C2 1812   0.443   0.918   0.238  0.1687 -0.5123 -0.0495
  111DMF     C3 1813   0.499   0.744   0.073 -0.2999 -0.3480 -0.8775
  111DMF     O1 1814   0.486   0.636   0.021 -0.3630 -0.2457  1.0978
  111DMF     H1 1815   0.215   0.803   0.253  0.4715  0.4542 -0.0341
  111DMF     H2 1816   0.258   0.645   0.173  0.4896  0.3932 -0.7335
  111DMF     H3 1817   0.220   0.804   0.083  3.5594  2.3145  0.2078
  111DMF     H4 1818   0.363   0.944   0.308 -0.2610 -3.5172  0.6237
  111DMF     H5 1819   0.471   0.993   0.163 -1.1898 -0.7742 -0.8271
  111DMF     H6 1820   0.537   0.893   0.289 -0.8457 -2.0709  1.0837
  111DMF     H7 1821   0.585   0.812   0.059  0.0702 -0.4589  0.7214
  112DMF     C1 1822   1.175   2.420   0.594 -0.5270  0.1177  0.4076
  112DMF     N1 1823   1.043   2.396   0.555  0.5693  0.2830  0.3744
  112DMF     C2 1824   0.939   2.385   0.661 -0.1533  1.0926 -0.1401
  112DMF     C3 1825   1.016   2.411   0.424 -0.1815  0.3420  0.2348
  112DMF     O1 1826   1.096   2.449   0.340  1.0457 -0.5557 -0.6212
  112DMF     H1 1827   1.215   2.522   0.588  0.8663 -0.4324  0.0352
  112DMF     H2 1828   1.244   2.352   0.542 -0.5029  0.1484  0.3997
  112DMF     H3 1829   1.185   2.389   0.699  0.6622  0.3602  0.3696
  112DMF     H4 1830   0.871   2.470   0.644 -0.2802  1.0027 -0.0860
  112DMF     H5 1831   0.984   2.385   0.761 -1.1912 -1.1095  0.3579
  112DMF     H6 1832   0.892   2.287   0.644 -0.8407  1.8321 -2.6840
  112DMF     H7 1833   0.908   2.399   0.407 -0.2152 -1.1230  1.3769
  113DMF     C1 1834   0.584   3.142   0.522 -0.2322  0.1737 -0.2662
  113DMF     N1 1835   0.508   3.271   0.533 -0.0396 -0.2300  0.4999
  113DMF     C2 1836   0.428   3.324   0.415 -0.2789  0.1718  0.3677
  113DMF     C3 1837   0.527   3.354   0.647 -0.0351  0.2148 -0.2301
  113DMF     O1 1838   0.619   3.335   0.725 -0.0957 -0.3857  0.3386
  113DMF     H1 1839   0.638   3.138   0.427 -0.9706 -0.7459 -0.6523
  113DMF     H2 1840   0.523   3.052   0.513  2.1776 -1.4182 -1.4345
  113DMF     H3 1841   0.656   3.134   0.605 -2.9043 -0.2569  2.0802
  113DMF     H4 1842   0.331   3.272   0.413  1.1623 -2.6212 -0.3710
  113DMF     H5 1843   0.494   3.299   0.331 -0.9201 -0.2894 -0.0044
  113DMF     H6 1844   0.414   3.432   0.429 -0.7374  0.7852 -4.2740
  113DMF     H7 1845   0.461   3.442   0.650  0.9494  1.0391 -1.8252
  114DMF     C1 1846   2.127   0.721   0.362 -0.6500 -0.4713 -0.6610
  114DMF     N1 1847   2.129   0.820   0.253  0.3708 -0.4072  0.0137
  114DMF     C2 1848   2.161   0.782   0.113  0.0478 -0.0302  0.3601
  114DMF     C3 1849   2.092   0.954   0.273  0.1398  0.4771  0.2886
  114DMF     O1 1850   2.043   0.986   0.384 -0.0108 -0.2810  0.0764
  114DMF     H1 1851   2.228   0.692   0.393 -0.9107  0.9969  1.7629
  114DMF     H2 1852   2.083   0.628   0.327  1.3160 -2.8572  2.8382
  114DMF     H3 1853   2.065   0.765   0.441  1.5128  0.4047  0.5987
  114DMF     H4 1854   2.161   0.674   0.097 -0.4626  0.0542 -0.2413
  114DMF     H5 1855   2.252   0.830   0.074  0.3540 -1.1199 -0.2891
  114DMF     H6 1856   2.073   0.817   0.057 -0.2463 -0.4622  0.5570
  114DMF     H7 1857   2.088   1.019   0.184 -2.4561 -1.2363 -0.9094
  115DMF     C1 1858   2.361   0.893   2.602  0.2626 -0.5249 -1.5770
  115DMF     N1 1859   2.319   1.037   2.594  0.5334 -0.4396 -0.2132
  115DMF     C2 1860   2.182   1.069   2.636 -0.8255  0.0482  0.8039
  115DMF     C3 1861   2.419   1.139   2.582  0.2069 -0.9107 -0.0718
  115DMF     O1 1862   2.529   1.115   2.553 -0.3915  0.6212  0.1023
  115DMF     H1 1863   2.469   0.875   2.613  0.1209  0.3516  1.9088
  115DMF     H2 1864   2.331   0.851   2.505 -1.6795 -0.1633 -1.1411
  115DMF     H3 1865   2.303   0.853   2.686  0.8662  0.5289 -0.6376
  115DMF     H4 1866   2.146   1.157   2.580 -0.8239 -0.0611  0.6301
  115DMF     H5 1867   2.183   1.087   2.744  0.0649  0.1368  0.7857
  115DMF     H6 1868   2.111   0.989   2.612 -2.4915  1.7905 -0.3410
  115DMF     H7 1869   2.388   1.242   2.611 -2.1730 -2.3722  2.8447
  116DMF     C1 1870   1.140   0.221   2.587  0.7611 -0.3180  0.0563
  116DMF     N1 1871   1.246   0.314   2.637 -0.1102  0.2391 -0.1735
  116DMF     C2 1872   1.369   0.335   2.558 -0.1665  0.0659  0.0714
  116DMF     C3 1873   1.245   0.377   2.764  0.0338 -0.3904 -0.5729
  116DMF     O1 1874   1.144   0.375   2.835  0.1835  0.9122  0.4334
  116DMF     H1 1875   1.046   0.227   2.644  1.4932  1.0675  1.1422
  116DMF     H2 1876   1.178   0.118   2.592  0.0773 -0.4941  2.3862
  116DMF     H3 1877   1.116   0.231   2.481  1.6651 -1.2007 -0.2409
  116DMF     H4 1878   1.366   0.436   2.516  0.9290 -0.2492 -0.8155
  116DMF     H5 1879   1.371   0.270   2.469  2.9845 -0.6011  0.5500
  116DMF     H6 1880   1.463   0.312   2.611  1.2011 -2.6369 -3.3297
  116DMF     H7 1881   1.343   0.425   2.779  0.4031 -0.9270 -1.2449
  117DMF     C1 1882   1.720   3.124   0.529  0.5533  0.0326 -0.1314
  117DMF     N1 1883   1.688   3.204   0.644  0.3312 -0.8893 -0.0988
  117DMF     C2 1884   1.561   3.184   0.714 -0.3987  0.5469  0.6776
  117DMF     C3 1885   1.771   3.317   0.680 -0.3876  0.1411  0.2392
  117DMF     O1 1886   1.851   3.364   0.602 -0.4008 -0.5768 -0.4009
  117DMF     H1 1887   1.821   3.150   0.496  0.1100  0.7805 -0.9077
  117DMF     H2 1888   1.644   3.146   0.453  1.0278 -0.6540 -0.8105
  117DMF     H3 1889   1.725   3.017   0.553  2.7127  0.0957 -0.2750
  117DMF     H4 1890   1.481   3.201   0.641 -1.0083  1.6776  1.5948
  117DMF     H5 1891   1.543   3.245   0.803  0.9329  1.6268  0.2275
  117DMF     H6 1892   1.554   3.082   0.752 -0.7622  0.7450  1.1438
  117DMF     H7 1893   1.739   3.363   0.775  0.1186  0.0521  0.4490
  118DMF     C1 1894   0.614   3.176   2.718 -0.2410 -0.0080 -0.1464
  118DMF     N1 1895   0.654   3.110   2.839 -0.0673  0.2265 -0.4028
  118DMF     C2 1896   0.783   3.049   2.843 -1.3037  0.5235 -0.3766
  118DMF     C3 1897   0.592   3.145   2.967  0.2391 -0.0286  0.2907
  118DMF     O1 1898   0.487   3.198   2.978  0.5665  0.1045  0.3307
  118DMF     H1 1899   0.630   3.284   2.729 -1.4194  0.2875 -1.1333
  118DMF     H2 1900   0.506   3.162   2.699 -0.3520  0.7034 -0.0342
  118DMF     H3 1901   0.676   3.151   2.631 -0.1716 -0.5851  0.0638
  118DMF     H4 1902   0.843   3.056   2.752  2.6614  2.5042  2.2553
  118DMF     H5 1903   0.783   2.942   2.867 -2.5574  0.5778 -0.0972
  118DMF     H6 1904   0.847   3.094   2.920  2.8354 -0.8319 -2.8629
  118DMF     H7 1905   0.660   3.115   3.049 -0.4060 -1.5556  0.2773
  119DMF     C1 1906   1.954   2.914   1.237  0.3517  0.6773  0.0747
  119DMF     N1 1907   1.849   2.890   1.138  0.0054 -0.2994 -0.0979
  119DMF     C2 1908   1.869   2.921   0.995 -0.4802  0.0166 -0.5058
  119DMF     C3 1909   1.733   2.823   1.170  0.2651  0.8855 -0.5789
  119DMF     O1 1910   1.711   2.785   1.285 -0.2642 -0.6366 -0.1094
  119DMF     H1 1911   1.941   3.011   1.287 -2.0817  0.0299  0.7778
  119DMF     H2 1912   2.053   2.902   1.192  0.3508 -1.5762  0.5910
  119DMF     H3 1913   1.952   2.832   1.310  0.5116  0.6475  0.0446
  119DMF     H4 1914   1.859   2.827   0.940  0.5587  0.5327 -1.6097
  119DMF     H5 1915   1.969   2.966   0.990  0.3346 -1.5409  1.1834
  119DMF     H6 1916   1.797   2.992   0.953  0.8531  2.0112  0.5029
  119DMF     H7 1917   1.664   2.817   1.084  0.9104  1.1202 -1.1154
  120DMF     C1 1918   2.828   1.229   2.205  0.2236  0.0768  0.3604
  120DMF     N1 1919   2.818   1.171   2.344  0.3026 -0.4310 -0.1315
  120DMF     C2 1920   2.855   1.261   2.460 -0.4964  1.3915 -0.4596
  120DMF     C3 1921   2.763   1.045   2.366 -0.4511  0.2561  0.0250
  120DMF     O1 1922   2.736   0.969   2.273  0.0838  0.3507  0.2028
  120DMF     H1 1923   2.907   1.164   2.166  0.7073  0.5290  0.5680
  120DMF     H2 1924   2.868   1.331   2.193 -0.4001  0.3159  0.2803
  120DMF     H3 1925   2.728   1.226   2.162  0.4284 -2.2331  0.0028
  120DMF     H4 1926   2.824   1.365   2.439 -1.5403  1.0151 -0.8294
  120DMF     H5 1927   2.964   1.273   2.459 -0.0648 -2.1029 -0.1390
  120DMF     H6 1928   2.818   1.227   2.557  1.1700 -1.2246 -0.7118
  120DMF     H7 1929   2.764   1.008   2.470 -0.6536  1.0660  0.3126
  121DMF     C1 1930   3.152   2.059   0.450 -0.2191  0.5589  0.9718
  121DMF     N1 1931   3.162   1.942   0.536 -0.0659  0.8066  0.2035
  121DMF     C2 1932   3.151   1.951   0.677 -0.1853 -0.0694 -0.2941
  121DMF     C3 1933   3.212   1.822   0.475  0.2701  0.2903 -0.2367
  121DMF     O1 1934   3.237   1.807   0.355 -0.6991 -0.0895 -0.3729
  121DMF     H1 1935   3.112   2.140   0.513 -0.0911 -1.3796  3.6332
  121DMF     H2 1936   3.084   2.041   0.366  1.2442  2.6892 -0.7363
  121DMF     H3 1937   3.253   2.078   0.411 -0.0149  0.0195  1.2254
  121DMF     H4 1938   3.232   2.021   0.702  0.5447 -1.0884  0.2593
  121DMF     H5 1939   3.165   1.854   0.726  1.1264  0.3286  0.1302
  121DMF     H6 1940   3.057   1.994   0.715  0.2643 -0.3535  1.1834
  121DMF     H7 1941   3.229   1.738   0.545  0.1964 -0.3853 -1.0208
  122DMF     C1 1942   3.128   0.903   1.557  0.3960  0.1057  0.8166
  122DMF     N1 1943   3.273   0.918   1.582 -0.5342  0.3181  0.8059
  122DMF     C2 1944   3.328   1.051   1.584 -0.6786 -1.1259 -0.3068
  122DMF     C3 1945   3.361   0.808   1.575  0.1282  0.3537 -0.7337
  122DMF     O1 1946   3.325   0.694   1.558 -0.5643 -0.1235  0.1280
  122DMF     H1 1947   3.115   0.798   1.531 -0.1394  0.3930 -0.1295
  122DMF     H2 1948   3.091   0.967   1.475 -0.2584 -2.0591 -0.6264
  122DMF     H3 1949   3.071   0.939   1.644 -0.6906  1.9999 -0.6270
  122DMF     H4 1950   3.244   1.108   1.627 -0.3625  0.0985 -1.2605
  122DMF     H5 1951   3.342   1.086   1.480  0.6419  1.0804  0.5771
  122DMF     H6 1952   3.418   1.052   1.646 -2.0004 -0.8981  1.6496
  122DMF     H7 1953   3.467   0.838   1.570 -0.0154  1.2674  1.3364
  123DMF     C1 1954   1.955   2.861   0.354 -0.0941  0.0373 -0.0951
  123DMF     N1 1955   2.053   2.812   0.453  0.4563  0.2386  0.5198
  123DMF     C2 1956   2.078   2.886   0.584 -0.1344 -0.3404  0.1350
  123DMF     C3 1957   2.123   2.685   0.435  0.2223  0.0755  0.5793
  123DMF     O1 1958   2.127   2.615   0.337 -0.2399  0.2319 -0.3208
  123DMF     H1 1959   1.947   2.810   0.257  0.0780 -0.7958  0.3172
  123DMF     H2 1960   1.981   2.965   0.333  2.1435 -0.4267  0.2188
  123DMF     H3 1961   1.859   2.851   0.406  1.6214  0.5844  3.3135
  123DMF     H4 1962   2.101   2.810   0.660 -1.5586 -0.1998  0.7303
  123DMF     H5 1963   1.982   2.932   0.614 -0.3670  0.4811 -1.8111
  123DMF     H6 1964   2.155   2.963   0.575  0.8195 -0.9769  2.2882
  123DMF     H7 1965   2.180   2.657   0.526  2.1071 -3.0882 -1.4668
  124DMF     C1 1966   0.273   1.797   0.842 -0.0124  0.2281  0.5835
  124DMF     N1 1967   0.146   1.736   0.795 -0.0724 -0.4125  0.2777
  124DMF     C2 1968   0.147   1.596   0.750  0.5895 -0.0197  0.1953
  124DMF     C3 1969   0.029   1.811   0.802  0.5300 -0.9906 -0.3505
  124DMF     O1 1970   0.022   1.924   0.844 -0.2346  0.3891  0.3858
  124DMF     H1 1971   0.322   1.731   0.914  1.9288  0.5057 -0.4635
  124DMF     H2 1972   0.255   1.890   0.898  1.2325  0.3810  0.7423
  124DMF     H3 1973   0.329   1.813   0.749  0.5188  0.4482  0.9407
  124DMF     H4 1974   0.248   1.561   0.728 -0.3153 -2.0957 -0.7870
  124DMF     H5 1975   0.088   1.581   0.658 -0.2913 -0.9823  0.9154
  124DMF     H6 1976   0.107   1.537   0.833  0.8085 -0.9204 -0.3377
  124DMF     H7 1977  -0.061   1.752   0.779  0.4520 -0.9846 -0.0533
  125DMF     C1 1978   0.785   0.398   2.255  0.0661 -0.5202  0.2732
  125DMF     N1 1979   0.832   0.532   2.257  0.5068  0.1579  0.5790
  125DMF     C2 1980   0.735   0.648   2.250 -0.1236  0.1772  0.0850
  125DMF     C3 1981   0.971   0.548   2.219 -0.2616  0.1482  0.2887
  125DMF     O1 1982   1.058   0.468   2.213  0.3725 -0.7129 -0.5407
  125DMF     H1 1983   0.721   0.382   2.167  1.6133 -0.4761 -0.8834
  125DMF     H2 1984   0.731   0.378   2.349 -0.8005 -1.5346 -0.4323
  125DMF     H3 1985   0.865   0.322   2.249  1.9555  1.5916 -2.4585
  125DMF     H4 1986   0.765   0.730   2.317  0.0873  0.0080  0.1954
  125DMF     H5 1987   0.635   0.608   2.270 -0.8520  0.9749 -1.7721
  125DMF     H6 1988   0.726   0.687   2.148  0.4982 -0.2811 -0.1467
  125DMF     H7 1989   0.986   0.654   2.193  0.6559 -0.3039 -1.1008
  126DMF     C1 1990   1.891   0.170   1.326 -0.1050  0.6722  0.6809
  126DMF     N1 1991   1.986   0.148   1.434 -0.3193 -0.1338 -0.2417
  126DMF     C2 1992   1.972   0.232   1.556 -0.1638  1.1234 -0.3423
  126DMF     C3 1993   2.088   0.053   1.421 -0.0964 -0.0131 -0.4220
  126DMF     O1 1994   2.082  -0.034   1.332 -0.1537 -0.1581 -0.4932
  126DMF     H1 1995   1.812   0.093   1.330 -0.0668  0.6742  1.8156
  126DMF     H2 1996   1.939   0.157   1.229  2.1730  0.6790  1.7886
  126DMF     H3 1997   1.853   0.273   1.331 -1.3860  0.2950 -0.8125
  126DMF     H4 1998   2.050   0.200   1.625 -0.0035  0.4006 -0.8477
  126DMF     H5 1999   1.874   0.224   1.605  1.0446 -1.0190  1.8091
  126DMF     H6 2000   1.998   0.336   1.533 -0.5856  0.9694 -1.5606
  126DMF     H7 2001   2.161   0.062   1.504 -2.6474 -1.9362  2.1375
  127DMF     C1 2002   0.340   3.021   0.228  0.1699  0.5555  0.0142
  127DMF     N1 2003   0.260   3.020   0.103 -0.0531  0.1853  0.1758
  127DMF     C2 2004   0.284   2.912   0.009 -0.7726  0.3366  0.6817
  127DMF     C3 2005   0.157   3.111   0.071 -0.1640  0.0998 -0.3023
  127DMF     O1 2006   0.140   3.217   0.135  0.1896  0.4445 -0.5359
  127DMF     H1 2007   0.306   2.942   0.296 -0.7627  0.3456 -0.6875
  127DMF     H2 2008   0.325   3.121   0.270  0.2127  1.1465 -1.3601
  127DMF     H3 2009   0.443   2.999   0.199  0.8090  0.8848  1.9493
  127DMF     H4 2010   0.374   2.919  -0.053 -0.2905 -1.3673  1.1544
  127DMF     H5 2011   0.196   2.906  -0.057 -0.8623  0.8081  0.7575
  127DMF     H6 2012   0.299   2.815   0.058 -2.3240 -0.4716 -0.4096
  127DMF     H7 2013   0.105   3.087  -0.024  0.1734  3.0168 -1.2799
  128DMF     C1 2014   2.745   2.533   3.003  0.0372 -0.4854  0.4793
  128DMF     N1 2015   2.853   2.488   3.097 -0.0962 -0.4463 -0.2070
  128DMF     C2 2016   2.932   2.588   3.170 -0.3624  0.3479 -0.5493
  128DMF     C3 2017   2.898   2.363   3.107 -0.2602 -0.0255  0.7994
  128DMF     O1 2018   2.857   2.275   3.032 -0.0216  0.3776  0.1393
  128DMF     H1 2019   2.767   2.635   2.970  0.1343  0.0261  2.0737
  128DMF     H2 2020   2.646   2.534   3.050  0.6013  0.4327  1.6695
  128DMF     H3 2021   2.748   2.464   2.918 -1.8873  0.5726 -0.4688
  128DMF     H4 2022   3.011   2.619   3.100  0.2541  0.9571  0.4101
  128DMF     H5 2023   2.964   2.553   3.269  0.5254 -0.7288 -1.1915
  128DMF     H6 2024   2.869   2.676   3.188 -0.7456  0.3107 -1.6942
  128DMF     H7 2025   2.969   2.341   3.189  2.1425  0.4385 -1.0953
  129DMF     C1 2026   0.054   2.546   2.254  0.2000  0.7450  0.1593
  129DMF     N1 2027  -0.081   2.578   2.312  0.8042  0.0202 -0.0331
  129DMF     C2 2028  -0.107   2.704   2.372 -0.0799 -0.7596  0.5202
  129DMF     C3 2029  -0.180   2.474   2.302 -0.0682  0.3357 -0.2070
  129DMF     O1 2030  -0.156   2.367   2.248  0.1194  0.7518  0.4929
  129DMF     H1 2031   0.083   2.448   2.295  0.8468 -0.7117 -3.5800
  129DMF     H2 2032   0.115   2.632   2.284 -0.6701  1.3127  0.3237
  129DMF     H3 2033   0.049   2.551   2.145 -2.3304 -1.4382  0.1188
  129DMF     H4 2034  -0.014   2.762   2.368 -0.5297 -0.0079  0.8690
  129DMF     H5 2035  -0.132   2.703   2.479  2.1443  1.0856  1.0903
  129DMF     H6 2036  -0.181   2.759   2.311  2.2368  1.7649 -0.1053
  129DMF     H7 2037  -0.275   2.506   2.350  0.4173 -1.4315  2.0082
  130DMF     C1 2038   0.095   2.910   3.040  0.8709 -0.1463  0.3645
  130DMF     N1 2039   0.146   2.973   2.918 -0.0191 -0.4088 -0.1142
  130DMF     C2 2040   0.077   3.094   2.865 -0.5156  0.4941  0.2169
  130DMF     C3 2041   0.234   2.908   2.834  0.4220 -0.2632  0.4809
  130DMF     O1 2042   0.284   2.802   2.862 -0.7437  0.2050  0.1322
  130DMF     H1 2043   0.013   2.970   3.081 -0.1526 -1.4115  0.1806
  130DMF     H2 2044   0.167   2.896   3.122 -1.7728  1.3592  3.0488
  130DMF     H3 2045   0.046   2.816   3.015 -1.1366  0.4243  2.0678
  130DMF     H4 2046  -0.030   3.092   2.886 -0.7219  0.4623 -0.8070
  130DMF     H5 2047   0.095   3.106   2.757  1.5343  1.5886  0.6379
  130DMF     H6 2048   0.109   3.182   2.923 -0.5235  1.5911 -1.3827
  130DMF     H7 2049   0.259   2.965   2.743  0.3450  1.1938  1.3479
  131DMF     C1 2050   1.598   1.306   3.570  0.1841 -0.3139  0.1581
  131DMF     N1 2051   1.712   1.259   3.491  0.2039  0.2103 -0.0618
  131DMF     C2 2052   1.706   1.282   3.343  0.0471 -0.0344  0.2193
  131DMF     C3 2053   1.830   1.219   3.549  0.6126  0.7465 -0.1926
  131DMF     O1 2054   1.844   1.191   3.667  0.0909 -0.1924  0.0041
  131DMF     H1 2055   1.626   1.326   3.674  1.5441 -1.3372 -0.0033
  131DMF     H2 2056   1.520   1.229   3.573  1.8315 -2.0137 -0.4381
  131DMF     H3 2057   1.563   1.405   3.536 -0.1855 -1.0574 -1.7066
  131DMF     H4 2058   1.694   1.388   3.319  2.3138  0.4355  1.0313
  131DMF     H5 2059   1.617   1.232   3.302 -0.2252  0.4653  0.2044
  131DMF     H6 2060   1.793   1.234   3.296 -1.7105 -1.1288 -2.0565
  131DMF     H7 2061   1.913   1.208   3.476 -0.3050 -1.6363 -0.9414
  132DMF     C1 2062   1.419   1.802   1.092 -0.4665  0.1805 -0.3830
  132DMF     N1 2063   1.278   1.783   1.046 -1.1140 -0.0799  0.5916
  132DMF     C2 2064   1.234   1.838   0.916 -0.2654 -0.2363 -0.4176
  132DMF     C3 2065   1.184   1.749   1.143 -0.4826 -0.8622 -0.4251
  132DMF     O1 2066   1.208   1.723   1.258 -0.3992 -0.2819  0.1504
  132DMF     H1 2067   1.415   1.872   1.176 -3.3470 -0.8962  0.4274
  132DMF     H2 2068   1.464   1.868   1.017 -2.6410 -0.8686 -2.7086
  132DMF     H3 2069   1.473   1.710   1.118  0.3942  1.5749  2.9855
  132DMF     H4 2070   1.136   1.886   0.918 -0.1393 -0.0147  1.7994
  132DMF     H5 2071   1.247   1.761   0.838 -1.1614 -0.1824 -0.6213
  132DMF     H6 2072   1.300   1.924   0.901  1.8790 -1.2353  2.8327
  132DMF     H7 2073   1.082   1.747   1.101 -0.6842 -0.2341  0.0385
  133DMF     C1 2074   1.962   2.269   1.230  0.0876 -0.1629  0.3351
  133DMF     N1 2075   1.903   2.395   1.180 -0.0216  0.6242 -0.0184
  133DMF     C2 2076   1.989   2.493   1.117  0.3815  0.5533 -0.5529
  133DMF     C3 2077   1.761   2.408   1.169  0.1280 -0.3711  0.3122
  133DMF     O1 2078   1.683   2.324   1.207  0.2708 -0.6139 -0.0024
  133DMF     H1 2079   1.918   2.175   1.195 -0.6333  0.6505 -0.9758
  133DMF     H2 2080   1.956   2.266   1.340 -1.0418 -0.9617  0.2644
  133DMF     H3 2081   2.070   2.268   1.211  0.1500  0.6985  0.6340
  133DMF     H4 2082   1.923   2.573   1.081 -0.3531 -0.8122 -2.3185
  133DMF     H5 2083   2.028   2.458   1.020 -2.1041  1.1421 -1.8103
  133DMF     H6 2084   2.064   2.522   1.191  0.8473 -2.3408  0.1788
  133DMF     H7 2085   1.727   2.502   1.120  1.0472 -0.6207 -0.8167
  134DMF     C1 2086   2.015   1.486   1.541  0.4426  0.0458 -0.1158
  134DMF     N1 2087   2.156   1.487   1.564  0.0867  0.1150  0.4249
  134DMF     C2 2088   2.229   1.612   1.556  0.0190 -0.7035  0.4263
  134DMF     C3 2089   2.226   1.370   1.570 -0.1396  0.2032 -0.0130
  134DMF     O1 2090   2.180   1.255   1.562 -0.1171  0.6997  0.2638
  134DMF     H1 2091   1.969   1.572   1.590  0.0707 -0.8650  1.1734
  134DMF     H2 2092   1.980   1.389   1.577 -4.4167  2.0743  0.9115
  134DMF     H3 2093   1.994   1.487   1.433 -1.3082 -0.4377  0.2039
  134DMF     H4 2094   2.176   1.697   1.599  1.2231  0.4724 -0.3695
  134DMF     H5 2095   2.250   1.637   1.451 -0.9825 -0.9457  0.1636
  134DMF     H6 2096   2.318   1.595   1.617  0.0781 -0.4240  0.4193
  134DMF     H7 2097   2.335   1.383   1.580 -0.4824  1.5883  2.3100
  135DMF     C1 2098   3.026   0.588   2.573 -0.3440  0.1520  0.2628
  135DMF     N1 2099   2.883   0.610   2.604  0.0798 -0.0708 -0.3030
  135DMF     C2 2100   2.810   0.485   2.624  0.6833  0.8377  0.2545
  135DMF     C3 2101   2.826   0.733   2.635  0.8357 -0.3805  0.3506
  135DMF     O1 2102   2.881   0.835   2.610 -0.3830  0.3128 -0.0373
  135DMF     H1 2103   3.071   0.658   2.502 -0.4506 -0.8750 -0.8232
  135DMF     H2 2104   3.038   0.492   2.522 -1.1318 -0.1198  0.5807
  135DMF     H3 2105   3.074   0.594   2.672  1.0151 -2.3194 -0.1999
  135DMF     H4 2106   2.860   0.422   2.698  0.4164  1.9613  1.4177
  135DMF     H5 2107   2.802   0.438   2.525 -0.8958  1.3952  0.0973
  135DMF     H6 2108   2.704   0.508   2.644  0.4782  2.5321 -2.3934
  135DMF     H7 2109   2.727   0.725   2.683  0.7467 -0.1404  0.2052
  136DMF     C1 2110   3.370   1.861   2.228 -0.8291 -0.2543 -0.1971
  136DMF     N1 2111   3.358   2.010   2.244  0.0661 -0.0489 -0.0370
  136DMF     C2 2112   3.217   2.059   2.265 -0.0812 -0.6944  0.0694
  136DMF     C3 2113   3.466   2.095   2.224 -0.1690  0.4177 -0.0644
  136DMF     O1 2114   3.583   2.060   2.216 -0.6968  0.1544  0.2158
  136DMF     H1 2115   3.274   1.818   2.198  0.2509 -3.3341  0.5464
  136DMF     H2 2116   3.404   1.820   2.324  0.7683  0.2284 -0.5317
  136DMF     H3 2117   3.448   1.834   2.155 -0.4131  0.4494 -0.0141
  136DMF     H4 2118   3.158   1.981   2.315 -0.5198 -1.9806 -2.3933
  136DMF     H5 2119   3.176   2.099   2.171  1.7981  0.0631 -0.4670
  136DMF     H6 2120   3.220   2.150   2.327  2.9398 -1.0010  0.4586
  136DMF     H7 2121   3.432   2.200   2.232 -0.2760  0.4080 -0.3735
  137DMF     C1 2122   1.128   0.828   1.548  0.7078 -1.5504 -0.0260
  137DMF     N1 2123   0.993   0.771   1.516 -0.6012 -0.0646 -1.0504
  137DMF     C2 2124   0.990   0.643   1.446 -0.9433 -0.4242 -0.0381
  137DMF     C3 2125   0.871   0.839   1.530 -0.5601 -0.4278  0.3383
  137DMF     O1 2126   0.864   0.952   1.574 -0.1448 -0.1664  0.5406
  137DMF     H1 2127   1.113   0.920   1.607 -2.4980 -2.2309  0.2844
  137DMF     H2 2128   1.188   0.852   1.459 -0.7787  0.3980 -0.5455
  137DMF     H3 2129   1.186   0.745   1.589  1.0719 -0.8495  0.9175
  137DMF     H4 2130   0.995   0.651   1.337 -2.2788 -0.3474 -0.0988
  137DMF     H5 2131   0.889   0.602   1.461 -0.6946 -0.9062  0.3423
  137DMF     H6 2132   1.062   0.577   1.496 -0.6006  0.5311  0.7436
  137DMF     H7 2133   0.789   0.778   1.488 -0.6037 -0.9089  1.1165
  138DMF     C1 2134   2.270   2.299   2.674  0.8519 -0.8630 -0.4656
  138DMF     N1 2135   2.240   2.379   2.791 -0.1082  0.4011 -0.3386
  138DMF     C2 2136   2.259   2.315   2.921  0.8335 -0.8465  0.1615
  138DMF     C3 2137   2.196   2.513   2.791 -0.5005 -1.0070  0.9379
  138DMF     O1 2138   2.163   2.578   2.689  0.1529 -0.2571 -0.3984
  138DMF     H1 2139   2.194   2.320   2.598  0.1466 -0.1695  0.4172
  138DMF     H2 2140   2.267   2.196   2.710 -1.1735  0.3559  3.1459
  138DMF     H3 2141   2.365   2.331   2.628  0.2433  0.4658 -0.8338
  138DMF     H4 2142   2.178   2.248   2.952  2.5763 -1.6853  3.1192
  138DMF     H5 2143   2.283   2.393   2.994 -0.5094 -0.0057 -0.2820
  138DMF     H6 2144   2.350   2.254   2.910  1.2533 -0.1906 -0.0252
  138DMF     H7 2145   2.178   2.543   2.896  1.1616 -1.0030  1.2348
  139DMF     C1 2146   0.919   1.603   3.596 -0.0585  0.2095 -1.3739
  139DMF     N1 2147   0.868   1.569   3.724  0.1589  0.6076 -1.0336
  139DMF     C2 2148   0.958   1.549   3.845 -1.0286 -0.2622  0.3159
  139DMF     C3 2149   0.734   1.535   3.743 -0.0176 -0.0903 -0.1194
  139DMF     O1 2150   0.656   1.516   3.652 -0.2264 -0.0475 -0.2255
  139DMF     H1 2151   1.022   1.634   3.615  0.4863 -1.9984 -0.6246
  139DMF     H2 2152   0.864   1.684   3.547  0.3540 -0.1440 -2.4559
  139DMF     H3 2153   0.910   1.514   3.532 -1.6550 -0.0631 -0.7973
  139DMF     H4 2154   0.929   1.622   3.921 -1.2371  0.2799 -0.2707
  139DMF     H5 2155   1.065   1.565   3.828 -1.1601  0.6657  0.3651
  139DMF     H6 2156   0.942   1.446   3.879 -0.9886  0.2275  1.8424
  139DMF     H7 2157   0.708   1.514   3.849 -1.6505  0.6436 -0.3592
  140DMF     C1 2158   2.764   3.368   2.655 -0.0552 -0.1332 -0.0867
  140DMF     N1 2159   2.756   3.241   2.574  0.6308 -0.1298 -0.0946
  140DMF     C2 2160   2.625   3.195   2.540 -0.5121 -0.3290  0.4144
  140DMF     C3 2161   2.867   3.161   2.553  0.6482 -0.2264 -0.1915
  140DMF     O1 2162   2.985   3.194   2.582  0.6817  0.9284 -0.3303
  140DMF     H1 2163   2.694   3.349   2.738 -2.8153 -2.2410 -2.7847
  140DMF     H2 2164   2.728   3.451   2.593 -1.7272 -0.5235  0.3369
  140DMF     H3 2165   2.866   3.384   2.691  1.2384  1.1057 -4.0789
  140DMF     H4 2166   2.557   3.282   2.540 -0.7096 -0.4430 -2.8619
  140DMF     H5 2167   2.581   3.121   2.608 -3.7606  0.5549 -0.6655
  140DMF     H6 2168   2.633   3.164   2.436  0.1208  0.8740  0.0889
  140DMF     H7 2169   2.850   3.063   2.505  3.3153 -0.6861 -0.3105
  141DMF     C1 2170   2.072   0.923   2.284  0.6832 -0.3617 -0.6997
  141DMF     N1 2171   2.093   0.783   2.247 -0.0875  0.1415  0.7192
  141DMF     C2 2172   2.229   0.723   2.251 -0.2110 -0.6130  0.0441
  141DMF     C3 2173   1.984   0.705   2.216  0.1149 -0.0014  0.3575
  141DMF     O1 2174   1.867   0.738   2.223 -0.2094  0.0150  0.4040
  141DMF     H1 2175   2.002   0.977   2.218 -0.3049  0.2939  0.8651
  141DMF     H2 2176   2.168   0.977   2.288 -0.2803  1.3285  0.1099
  141DMF     H3 2177   2.029   0.915   2.384  2.5192  0.3499  0.1809
  141DMF     H4 2178   2.268   0.685   2.155  1.0454  0.7360  0.0127
  141DMF     H5 2179   2.213   0.640   2.321 -1.9195 -0.6803 -0.4064
  141DMF     H6 2180   2.307   0.792   2.285 -1.1679  2.2050 -3.1848
  141DMF     H7 2181   2.014   0.600   2.199 -0.9206 -0.0826 -1.0906
  142DMF     C1 2182   0.417   0.689   0.988 -0.3400 -0.6476  0.5658
  142DMF     N1 2183   0.285   0.707   0.920 -0.6468 -0.0011  0.4010
  142DMF     C2 2184   0.226   0.848   0.911  0.5320 -0.1570  0.1214
  142DMF     C3 2185   0.223   0.604   0.869 -0.5488  0.1216  0.5941
  142DMF     O1 2186   0.262   0.490   0.883  0.0442  0.2038  0.4433
  142DMF     H1 2187   0.395   0.630   1.077  0.4714 -1.4049  0.2753
  142DMF     H2 2188   0.473   0.777   1.023  0.0758 -0.9710  0.7186
  142DMF     H3 2189   0.477   0.618   0.929 -0.6864 -1.9173  1.7165
  142DMF     H4 2190   0.118   0.847   0.891  0.5829  1.6976 -0.3698
  142DMF     H5 2191   0.275   0.891   0.823  2.1927 -1.7780  0.2180
  142DMF     H6 2192   0.244   0.902   1.005  1.6182 -0.2588 -0.0244
  142DMF     H7 2193   0.128   0.636   0.821  0.8896  1.0399 -1.7485
  143DMF     C1 2194   2.513   3.414   1.502 -0.5412 -0.5816 -0.8018
  143DMF     N1 2195   2.550   3.550   1.547 -0.4183 -0.3238  0.8178
  143DMF     C2 2196   2.695   3.578   1.549 -0.4170  0.1295  0.6914
  143DMF     C3 2197   2.448   3.638   1.584 -0.6203 -0.3086  0.0198
  143DMF     O1 2198   2.328   3.612   1.594 -0.2904  0.1531  0.2433
  143DMF     H1 2199   2.550   3.401   1.400 -0.1893 -1.0653 -0.6173
  143DMF     H2 2200   2.405   3.402   1.485 -0.6043 -0.6272 -0.3759
  143DMF     H3 2201   2.557   3.335   1.564  0.8978 -0.4956 -1.7004
  143DMF     H4 2202   2.717   3.685   1.536  0.6571  0.0166  1.4551
  143DMF     H5 2203   2.749   3.521   1.472  1.8649  1.3644  1.3349
  143DMF     H6 2204   2.731   3.556   1.650 -0.5232  3.5640  1.5351
  143DMF     H7 2205   2.495   3.729   1.626 -2.2260  1.0668 -1.1048
  144DMF     C1 2206   3.040   0.668   0.921 -0.6386 -1.1335 -0.5045
  144DMF     N1 2207   3.091   0.626   1.055 -0.5932  0.0761  0.4903
  144DMF     C2 2208   3.007   0.667   1.170 -0.7016  0.3674 -0.1834
  144DMF     C3 2209   3.217   0.563   1.063 -0.4284 -0.0743 -0.2988
  144DMF     O1 2210   3.291   0.544   0.965 -0.1486  0.3216  0.2934
  144DMF     H1 2211   3.134   0.689   0.868 -1.6503  1.5155 -1.3160
  144DMF     H2 2212   2.974   0.756   0.926 -0.9227 -1.3832  0.1565
  144DMF     H3 2213   2.986   0.588   0.869 -1.5689 -0.5194 -0.4969
  144DMF     H4 2214   2.959   0.757   1.133 -1.2195 -0.9161 -2.7309
  144DMF     H5 2215   3.073   0.683   1.257 -0.6471 -1.0167  0.0511
  144DMF     H6 2216   2.932   0.590   1.193 -0.7337  0.0012 -1.4905
  144DMF     H7 2217   3.235   0.533   1.168 -1.2264  0.9401  0.1485
  145DMF     C1 2218   2.281   1.083   1.343  0.9258 -0.6010 -0.2884
  145DMF     N1 2219   2.267   1.050   1.195  0.1075  0.5842 -0.1483
  145DMF     C2 2220   2.133   1.024   1.133  0.3165 -0.0328 -0.8115
  145DMF     C3 2221   2.376   1.067   1.109  0.0406 -0.2491 -0.8078
  145DMF     O1 2222   2.481   1.109   1.149  0.5169 -0.3289  0.0218
  145DMF     H1 2223   2.313   1.188   1.348 -2.5459  0.4899  0.9358
  145DMF     H2 2224   2.363   1.019   1.376 -0.0532 -0.4910  2.4946
  145DMF     H3 2225   2.186   1.067   1.395  1.1606 -1.3856 -0.1023
  145DMF     H4 2226   2.131   1.058   1.029 -0.7732  2.2694 -0.0553
  145DMF     H5 2227   2.071   1.097   1.186 -0.7422 -1.8625  0.5391
  145DMF     H6 2228   2.102   0.921   1.156  1.6270 -0.2636  0.0020
  145DMF     H7 2229   2.359   1.039   1.003 -0.6094  0.0263 -0.7750
  146DMF     C1 2230   2.760   2.659   2.631 -0.1725  0.2253 -0.0204
  146DMF     N1 2231   2.618   2.695   2.627 -0.1717  0.3517 -0.5429
  146DMF     C2 2232   2.576   2.831   2.626  0.6091 -0.3237 -0.3787
  146DMF     C3 2233   2.520   2.598   2.619  0.0386  0.3837 -0.3977
  146DMF     O1 2234   2.548   2.481   2.637  0.2740  0.7219  0.3941
  146DMF     H1 2235   2.786   2.599   2.719  2.0529 -1.1022 -1.5091
  146DMF     H2 2236   2.817   2.752   2.644  0.2208  0.1368 -1.0455
  146DMF     H3 2237   2.787   2.602   2.541 -2.5456 -1.3375  0.2121
  146DMF     H4 2238   2.648   2.908   2.657  1.6490 -1.6274  0.5104
  146DMF     H5 2239   2.485   2.836   2.687  0.3741  0.4950 -0.7829
  146DMF     H6 2240   2.537   2.858   2.527  0.2413  0.0940 -0.1228
  146DMF     H7 2241   2.415   2.627   2.602 -0.0809 -1.1493 -2.4206
  147DMF     C1 2242   2.728   0.542   0.432 -0.5362 -0.6365 -0.7815
  147DMF     N1 2243   2.677   0.624   0.537 -0.3740  0.1273 -0.5187
  147DMF     C2 2244   2.612   0.558   0.646  0.4828  0.1437 -0.0159
  147DMF     C3 2245   2.676   0.765   0.530 -0.8774  0.5024  0.3864
  147DMF     O1 2246   2.714   0.828   0.430  0.4619  0.1589 -0.4970
  147DMF     H1 2247   2.651   0.512   0.360  0.3514 -2.9886 -0.7709
  147DMF     H2 2248   2.780   0.455   0.473  0.2722  1.3286  2.5232
  147DMF     H3 2249   2.804   0.593   0.371  2.2290 -3.4164  0.2603
  147DMF     H4 2250   2.539   0.626   0.692 -0.4172 -0.1863 -0.9046
  147DMF     H5 2251   2.682   0.540   0.727 -1.0981 -2.3153  0.8833
  147DMF     H6 2252   2.557   0.469   0.610  2.3188 -0.2786 -1.8837
  147DMF     H7 2253   2.639   0.817   0.620 -0.3278 -1.3795  1.7191
  148DMF     C1 2254   0.812   2.612   1.535  0.6196  0.1844  0.4001
  148DMF     N1 2255   0.961   2.638   1.535  0.1590 -0.1699  0.3824
  148DMF     C2 2256   1.008   2.781   1.547 -0.8129 -0.3286 -0.7653
  148DMF     C3 2257   1.047   2.526   1.529 -0.0450  0.5311  0.7281
  148DMF     O1 2258   1.000   2.411   1.513 -0.6299  0.1782 -0.1816
  148DMF     H1 2259   0.794   2.527   1.602 -1.0452 -0.3922 -0.7411
  148DMF     H2 2260   0.788   2.584   1.432  2.2020  0.3856 -0.0296
  148DMF     H3 2261   0.758   2.707   1.547  3.6307  2.0318 -0.3016
  148DMF     H4 2262   0.962   2.825   1.637  0.3715  1.1405 -0.8628
  148DMF     H5 2263   0.980   2.829   1.453  0.0929 -1.7808 -1.7960
  148DMF     H6 2264   1.117   2.783   1.561 -0.8149  1.8973 -0.8666
  148DMF     H7 2265   1.155   2.549   1.531 -0.2035  1.3217  0.4133
  149DMF     C1 2266   0.653   0.468   0.339 -0.0276  0.0605 -0.0103
  149DMF     N1 2267   0.763   0.366   0.316  0.0300  0.0626 -0.5555
  149DMF     C2 2268   0.895   0.407   0.275  0.1744 -0.1466 -1.0070
  149DMF     C3 2269   0.731   0.234   0.277  0.0702  0.0942  0.1090
  149DMF     O1 2270   0.628   0.175   0.304  0.4330  0.3405 -0.1784
  149DMF     H1 2271   0.585   0.428   0.415  0.0845  1.1756  0.6928
  149DMF     H2 2272   0.596   0.483   0.247 -0.0501  1.0620  0.1528
  149DMF     H3 2273   0.698   0.562   0.374 -0.6425  0.1491  0.5526
  149DMF     H4 2274   0.879   0.453   0.176  1.9845  2.3952 -0.1757
  149DMF     H5 2275   0.976   0.334   0.272  0.8741  0.5888 -0.1880
  149DMF     H6 2276   0.926   0.487   0.343 -0.4501 -1.4104  0.7736
  149DMF     H7 2277   0.821   0.181   0.240 -0.6645 -0.6437 -0.6563
  150DMF     C1 2278   2.303   3.258   0.861 -0.4832 -0.6214 -0.0014
  150DMF     N1 2279   2.233   3.319   0.972 -0.6159 -0.2328  0.1210
  150DMF     C2 2280   2.293   3.437   1.036 -0.8225  0.1485  0.5024
  150DMF     C3 2281   2.095   3.281   1.012 -0.4538 -0.2487 -0.2602
  150DMF     O1 2282   2.028   3.204   0.941  0.2533  0.7148  0.1961
  150DMF     H1 2283   2.297   3.324   0.774  1.4405  0.0672  0.3766
  150DMF     H2 2284   2.262   3.161   0.831 -1.4608 -0.5437  1.0625
  150DMF     H3 2285   2.409   3.238   0.885  0.1384 -1.2217 -3.0813
  150DMF     H4 2286   2.213   3.496   1.081 -1.5150  0.2385 -0.8164
  150DMF     H5 2287   2.328   3.502   0.954 -0.7066  0.0822  0.4983
  150DMF     H6 2288   2.370   3.403   1.107 -0.6043 -0.4099  0.0048
  150DMF     H7 2289   2.059   3.329   1.105  1.8631 -0.6726  0.9134
  151DMF     C1 2290   1.318   3.303   2.731 -0.0480 -0.4247  0.2930
  151DMF     N1 2291   1.232   3.191   2.697 -0.1732  0.5031  0.0654
  151DMF     C2 2292   1.239   3.073   2.790  0.2323  0.4102 -0.5596
  151DMF     C3 2293   1.153   3.202   2.578  0.0106  0.4974  1.0062
  151DMF     O1 2294   1.160   3.303   2.510 -0.3456 -0.4653 -0.3832
  151DMF     H1 2295   1.336   3.303   2.840 -0.5630  0.0480  0.3824
  151DMF     H2 2296   1.268   3.397   2.704 -2.9421 -1.0011  3.2966
  151DMF     H3 2297   1.415   3.289   2.682  0.8244  2.1901  1.1793
  151DMF     H4 2298   1.343   3.038   2.788 -0.2077 -0.9169 -0.8742
  151DMF     H5 2299   1.178   2.993   2.746  2.8920 -1.4960 -0.9020
  151DMF     H6 2300   1.194   3.107   2.884  0.0511 -1.4478  0.0474
  151DMF     H7 2301   1.085   3.118   2.558  0.8593  0.0535 -0.0537
  152DMF     C1 2302   1.435   0.565   0.026  0.4414 -0.1990  0.3100
  152DMF     N1 2303   1.310   0.567  -0.057  0.5740  0.3783  0.2853
  152DMF     C2 2304   1.241   0.431  -0.066  0.0454  0.2326  0.0418
  152DMF     C3 2305   1.243   0.684  -0.086 -0.6142 -0.5165 -0.0891
  152DMF     O1 2306   1.298   0.795  -0.071  0.1427  0.5635  0.0505
  152DMF     H1 2307   1.402   0.525   0.123  0.7529 -1.6757 -0.1819
  152DMF     H2 2308   1.475   0.667   0.036 -1.8213  0.6788  0.7877
  152DMF     H3 2309   1.512   0.505  -0.023  2.1791  0.2670  2.3605
  152DMF     H4 2310   1.325   0.360  -0.072  2.3247  2.8049  0.1177
  152DMF     H5 2311   1.180   0.428  -0.157  0.2212  2.0140 -0.1606
  152DMF     H6 2312   1.169   0.415   0.014 -0.1553  0.9278  0.0054
  152DMF     H7 2313   1.137   0.672  -0.116 -1.2162  0.7059  1.4125
  153DMF     C1 2314   2.865   2.986   0.339  0.5259  0.1660  0.6718
  153DMF     N1 2315   2.853   2.934   0.481 -0.4248 -0.3841  0.0165
  153DMF     C2 2316   2.777   2.812   0.519  0.4202  0.3871  0.0701
  153DMF     C3 2317   2.914   3.007   0.582  0.8643  0.3346 -0.1800
  153DMF     O1 2318   2.983   3.113   0.567  0.0937  0.0162 -0.1241
  153DMF     H1 2319   2.789   3.060   0.312  0.8814  0.2007 -0.2533
  153DMF     H2 2320   2.848   2.893   0.282  0.2132  0.8727 -0.3996
  153DMF     H3 2321   2.969   3.017   0.325  0.0463  0.6743 -2.2192
  153DMF     H4 2322   2.761   2.752   0.428  0.3463  1.5298 -0.6924
  153DMF     H5 2323   2.689   2.828   0.582  1.2678  1.0420  1.1107
  153DMF     H6 2324   2.841   2.742   0.573 -0.1158 -1.8388 -2.1081
  153DMF     H7 2325   2.889   2.969   0.683 -1.7379 -1.9243 -1.5810
  154DMF     C1 2326   0.548   3.027   0.840  0.0863  0.2656 -0.3745
  154DMF     N1 2327   0.512   2.950   0.960  0.2168 -0.3493 -0.2545
  154DMF     C2 2328   0.409   3.003   1.041  0.2789  0.2233  0.2830
  154DMF     C3 2329   0.573   2.830   0.994 -0.3881  0.2544  0.0705
  154DMF     O1 2330   0.649   2.779   0.915  0.4723 -0.0067 -0.4077
  154DMF     H1 2331   0.657   3.024   0.829  0.2354 -2.0554  1.2886
  154DMF     H2 2332   0.509   3.129   0.847 -0.9190 -0.0762 -0.8601
  154DMF     H3 2333   0.507   2.969   0.757  0.3650  0.2601 -0.5081
  154DMF     H4 2334   0.437   2.990   1.146  1.7129 -0.3622 -0.1533
  154DMF     H5 2335   0.315   2.947   1.043  0.4380 -0.0922 -0.8302
  154DMF     H6 2336   0.378   3.107   1.023 -0.6945 -0.6033 -3.1529
  154DMF     H7 2337   0.535   2.782   1.087  0.0673 -2.7441 -1.2262
  155DMF     C1 2338   0.048   2.217   1.276 -0.1568  0.1438  0.0613
  155DMF     N1 2339  -0.057   2.320   1.296 -0.6405  0.0311 -0.1057
  155DMF     C2 2340  -0.052   2.439   1.206 -0.5023 -0.2934  0.0109
  155DMF     C3 2341  -0.167   2.308   1.388  0.2839  0.1103  0.3678
  155DMF     O1 2342  -0.177   2.215   1.467  0.1103 -0.2069 -0.7630
  155DMF     H1 2343   0.101   2.235   1.182 -0.4103  1.9671  0.2317
  155DMF     H2 2344   0.004   2.117   1.273 -0.5460  0.3195 -0.2185
  155DMF     H3 2345   0.133   2.218   1.345  0.4003  3.7275 -0.5439
  155DMF     H4 2346  -0.015   2.528   1.258  0.3192 -2.2022  2.8405
  155DMF     H5 2347  -0.156   2.450   1.171  0.2525  1.7195 -1.7185
  155DMF     H6 2348   0.011   2.426   1.117 -2.7820 -1.9843 -1.4204
  155DMF     H7 2349  -0.244   2.380   1.355 -2.1586 -2.7534 -0.4107
  156DMF     C1 2350   1.728   1.923   0.547 -0.2954  0.4055 -1.2412
  156DMF     N1 2351   1.614   2.004   0.497  0.3053 -0.5948 -0.5345
  156DMF     C2 2352   1.632   2.124   0.409 -0.2552  1.1484  0.3522
  156DMF     C3 2353   1.481   1.954   0.508 -0.6688  0.1312  0.4103
  156DMF     O1 2354   1.448   1.851   0.567 -0.3185  0.3739  0.1144
  156DMF     H1 2355   1.712   1.921   0.656 -0.0496 -2.1285 -1.2335
  156DMF     H2 2356   1.823   1.972   0.523 -0.2293 -0.1065 -2.0249
  156DMF     H3 2357   1.722   1.822   0.506  1.0643  0.6548 -2.0929
  156DMF     H4 2358   1.564   2.120   0.324 -0.4079 -1.5303  0.5770
  156DMF     H5 2359   1.735   2.125   0.373 -0.5842  0.0323 -0.6056
  156DMF     H6 2360   1.613   2.219   0.462 -1.2096  1.8245 -1.1642
  156DMF     H7 2361   1.412   2.006   0.439  0.3805  0.5803 -0.3141
  157DMF     C1 2362   0.086   0.183   0.227  0.0061 -0.2645  0.5134
  157DMF     N1 2363   0.236   0.198   0.220  0.2145 -0.6871 -0.4564
  157DMF     C2 2364   0.317   0.108   0.133 -0.7229 -0.0185  0.0439
  157DMF     C3 2365   0.292   0.306   0.285 -0.3696 -0.4560 -0.1477
  157DMF     O1 2366   0.229   0.385   0.355 -0.4773 -0.3033  0.6510
  157DMF     H1 2367   0.061   0.124   0.138 -0.0765  1.5663 -0.6941
  157DMF     H2 2368   0.030   0.277   0.229 -0.8831 -0.7356 -1.3963
  157DMF     H3 2369   0.066   0.124   0.318 -0.1298 -0.0116  0.6485
  157DMF     H4 2370   0.374   0.169   0.061 -0.1808 -1.0937 -0.4484
  157DMF     H5 2371   0.249   0.039   0.083 -0.2133  1.0579 -2.2154
  157DMF     H6 2372   0.379   0.040   0.194 -1.0040 -1.3765 -1.1669
  157DMF     H7 2373   0.400   0.322   0.266 -0.3157  4.3605  3.3436
  158DMF     C1 2374   0.828   0.217   3.732  0.3483 -1.1082  0.5209
  158DMF     N1 2375   0.727   0.322   3.751 -0.5203  0.3143  0.2087
  158DMF     C2 2376   0.587   0.290   3.755  0.0187  0.4025  0.0004
  158DMF     C3 2377   0.765   0.453   3.729  0.1025  0.0598 -0.0476
  158DMF     O1 2378   0.872   0.484   3.687  0.3150  0.3316 -0.3131
  158DMF     H1 2379   0.810   0.154   3.820  0.2634 -1.6829  0.0936
  158DMF     H2 2380   0.932   0.251   3.733  0.1915 -0.6041 -0.1374
  158DMF     H3 2381   0.809   0.166   3.637  1.1288  0.7601 -0.6595
  158DMF     H4 2382   0.550   0.301   3.652 -0.5672  0.0685  0.1726
  158DMF     H5 2383   0.533   0.356   3.824  0.4089  0.1151  0.5816
  158DMF     H6 2384   0.575   0.193   3.804  3.4254 -0.4424 -0.7684
  158DMF     H7 2385   0.682   0.525   3.743  0.5788  0.1936  2.1616
  159DMF     C1 2386   2.230   0.174   0.631  0.4356  0.0349  0.4116
  159DMF     N1 2387   2.095   0.211   0.676  0.0732 -0.1655  0.0218
  159DMF     C2 2388   2.040   0.135   0.791  0.4915 -0.7320  0.0638
  159DMF     C3 2389   2.013   0.305   0.612  0.2736 -0.8852  0.5817
  159DMF     O1 2390   2.058   0.360   0.510 -0.2453 -0.3112  0.6678
  159DMF     H1 2391   2.289   0.145   0.718  3.0629 -0.7868 -1.5751
  159DMF     H2 2392   2.281   0.264   0.594 -2.6761  1.0868 -1.5236
  159DMF     H3 2393   2.226   0.090   0.561 -2.3594  0.3791  0.1223
  159DMF     H4 2394   2.044   0.199   0.880  0.2347 -0.5994 -0.0172
  159DMF     H5 2395   2.093   0.041   0.809 -2.2055 -2.6956 -1.7936
  159DMF     H6 2396   1.936   0.109   0.768  0.0877  2.5424 -2.2368
  159DMF     H7 2397   1.912   0.318   0.656 -0.0210  2.4844 -0.8774
  160DMF     C1 2398   0.816   2.422   2.770  0.3662  0.6374  0.3633
  160DMF     N1 2399   0.763   2.349   2.896 -0.4602 -0.4551 -0.4732
  160DMF     C2 2400   0.619   2.310   2.898  0.1054 -0.5456  0.0925
  160DMF     C3 2401   0.840   2.334   3.014  0.6271 -0.2082  0.4318
  160DMF     O1 2402   0.946   2.389   3.027  0.0574 -0.6548 -0.0191
  160DMF     H1 2403   0.787   2.363   2.683 -2.1560 -1.8619  2.7853
  160DMF     H2 2404   0.925   2.433   2.768  0.3832  0.2311 -0.9074
  160DMF     H3 2405   0.773   2.523   2.765 -1.6663 -0.2550 -0.7991
  160DMF     H4 2406   0.575   2.310   2.798 -1.8031 -1.3584  0.8961
  160DMF     H5 2407   0.557   2.382   2.953  0.2361  1.8156 -2.7733
  160DMF     H6 2408   0.614   2.207   2.935 -0.2749 -0.4694  0.2595
  160DMF     H7 2409   0.796   2.274   3.096 -1.3791  0.3649 -0.1942
  161DMF     C1 2410   1.506   0.200   0.655 -0.4565  0.2680 -0.2112
  161DMF     N1 2411   1.383   0.196   0.567  0.0188  0.5085  0.1320
  161DMF     C2 2412   1.338   0.330   0.519 -0.3517  0.0442 -0.3661
  161DMF     C3 2413   1.324   0.078   0.516 -0.4347  0.1056 -0.1021
  161DMF     O1 2414   1.361  -0.033   0.564 -0.0074 -0.5859  0.4000
  161DMF     H1 2415   1.486   0.180   0.761  2.8739 -2.1213  0.0417
  161DMF     H2 2416   1.560   0.295   0.647  0.9541 -0.2293  2.7937
  161DMF     H3 2417   1.572   0.121   0.619 -0.4173 -0.2227  0.9313
  161DMF     H4 2418   1.412   0.403   0.554 -0.3619 -0.6461  1.1354
  161DMF     H5 2419   1.237   0.347   0.559 -0.5393 -0.6595 -0.5318
  161DMF     H6 2420   1.349   0.339   0.410 -3.7427  2.4403 -0.5960
  161DMF     H7 2421   1.245   0.090   0.439 -2.5226  0.2268  1.9925
  162DMF     C1 2422   0.539   1.216   1.571 -0.0036  0.2539 -0.3256
  162DMF     N1 2423   0.407   1.272   1.530 -0.1368  0.7525  0.4470
  162DMF     C2 2424   0.390   1.410   1.491  0.1747  0.1449 -0.6428
  162DMF     C3 2425   0.299   1.178   1.518 -0.4673  0.3678  0.8596
  162DMF     O1 2426   0.301   1.066   1.563 -0.4387  1.0297 -0.0701
  162DMF     H1 2427   0.526   1.114   1.609  2.3954  0.1365  0.2751
  162DMF     H2 2428   0.584   1.278   1.649 -0.2618 -0.1398  0.1342
  162DMF     H3 2429   0.603   1.203   1.482  0.5635 -0.4502  0.1828
  162DMF     H4 2430   0.285   1.417   1.459  0.0471  1.5737  0.0364
  162DMF     H5 2431   0.466   1.447   1.421  0.8743  0.6606  0.3724
  162DMF     H6 2432   0.403   1.483   1.572  1.0061 -0.1803 -0.4845
  162DMF     H7 2433   0.207   1.220   1.472 -0.4024 -1.1132 -0.6509
  163DMF     C1 2434   3.035   3.096   3.481  0.2725  0.3308  0.0729
  163DMF     N1 2435   3.097   2.994   3.569 -0.0553 -0.4036 -0.2583
  163DMF     C2 2436   3.246   2.978   3.564  0.6822  0.4304  0.0494
  163DMF     C3 2437   3.015   2.898   3.629 -0.9532  0.4271  0.7791
  163DMF     O1 2438   2.897   2.906   3.615 -0.1554 -0.0061 -0.2701
  163DMF     H1 2439   2.990   3.043   3.396 -0.2452  1.1636 -0.1755
  163DMF     H2 2440   3.107   3.167   3.440 -1.1972  1.1710 -1.0750
  163DMF     H3 2441   2.957   3.151   3.534 -2.2842 -0.5800 -2.5893
  163DMF     H4 2442   3.303   3.051   3.623 -1.9118  1.9418  0.7406
  163DMF     H5 2443   3.275   2.991   3.458 -0.9553 -1.3269 -0.6444
  163DMF     H6 2444   3.272   2.877   3.598 -3.3656 -1.2270 -1.4011
  163DMF     H7 2445   3.066   2.820   3.689 -0.2309  0.5066  0.2757
  164DMF     C1 2446   1.635   3.100   2.244 -0.7378 -0.4407  0.0508
  164DMF     N1 2447   1.567   3.124   2.375  0.5255  1.0185  0.5196
  164DMF     C2 2448   1.419   3.111   2.381 -0.7361 -0.4328 -0.1049
  164DMF     C3 2449   1.642   3.146   2.487 -0.4997 -0.3877 -0.2632
  164DMF     O1 2450   1.765   3.147   2.495  0.1259 -0.1863 -0.6748
  164DMF     H1 2451   1.664   3.197   2.203 -0.5163 -0.9777 -1.0664
  164DMF     H2 2452   1.570   3.050   2.171 -0.0922 -0.1316 -0.7445
  164DMF     H3 2453   1.721   3.033   2.253  1.5876  2.7513  2.4691
  164DMF     H4 2454   1.375   3.192   2.439 -0.0292 -0.2007  0.1042
  164DMF     H5 2455   1.400   3.014   2.431  0.4140 -0.1522  0.9014
  164DMF     H6 2456   1.373   3.122   2.282  1.9681  2.8252 -1.0643
  164DMF     H7 2457   1.578   3.155   2.576 -1.6105 -0.2958 -1.0727
  165DMF     C1 2458   1.760   1.230   1.180  0.1563  0.2240  0.2187
  165DMF     N1 2459   1.830   1.205   1.057 -0.4026 -0.2603 -0.0315
  165DMF     C2 2460   1.920   1.309   1.008  0.0074 -0.0846 -0.5035
  165DMF     C3 2461   1.831   1.080   0.988 -0.1613 -0.0712 -0.6728
  165DMF     O1 2462   1.772   0.986   1.049  0.1178 -0.0675 -0.2521
  165DMF     H1 2463   1.700   1.142   1.205 -0.4588 -0.0472 -2.1458
  165DMF     H2 2464   1.693   1.316   1.173 -1.7597 -1.0644  2.0611
  165DMF     H3 2465   1.825   1.244   1.268  0.1203  0.4240  0.2127
  165DMF     H4 2466   2.016   1.261   0.988  0.8588  1.5741 -0.4907
  165DMF     H5 2467   1.945   1.381   1.086 -1.7840 -1.6755  1.5866
  165DMF     H6 2468   1.880   1.351   0.914 -1.1669 -0.6920 -0.2893
  165DMF     H7 2469   1.898   1.066   0.901  0.1486 -1.8017 -0.1684
  166DMF     C1 2470   1.059   2.062   0.354 -1.0103  0.0166 -0.9207
  166DMF     N1 2471   1.006   1.978   0.459 -0.1818  0.4235 -0.1277
  166DMF     C2 2472   1.065   1.995   0.594 -0.1030  0.8712 -0.0721
  166DMF     C3 2473   0.910   1.883   0.433  0.3809 -0.5371 -0.2778
  166DMF     O1 2474   0.874   1.858   0.318  0.2527 -0.6470  0.6014
  166DMF     H1 2475   1.083   1.995   0.271 -2.8045 -1.7179 -0.0728
  166DMF     H2 2476   1.156   2.104   0.385 -2.2525 -0.2644  3.7837
  166DMF     H3 2477   0.986   2.139   0.327 -0.3045  0.4743 -1.5497
  166DMF     H4 2478   1.174   1.990   0.583 -0.1393  1.4220 -0.6988
  166DMF     H5 2479   1.029   1.922   0.668  0.4278  0.6394 -0.0392
  166DMF     H6 2480   1.040   2.094   0.634 -0.1136  0.8822 -0.1065
  166DMF     H7 2481   0.872   1.829   0.521  1.6082 -1.2194 -0.1585
  167DMF     C1 2482   3.234   3.275   0.928  0.0467 -0.3562  0.2671
  167DMF     N1 2483   3.250   3.387   1.027 -0.2923 -0.1866  0.0965
  167DMF     C2 2484   3.343   3.491   0.985 -0.2709 -0.5706  0.2304
  167DMF     C3 2485   3.211   3.378   1.163  0.2936  0.2452 -0.6189
  167DMF     O1 2486   3.147   3.283   1.199  0.3884 -0.2457 -0.0582
  167DMF     H1 2487   3.162   3.307   0.852 -0.5144 -1.3887  0.3572
  167DMF     H2 2488   3.195   3.189   0.984 -0.0670 -0.6737 -0.2864
  167DMF     H3 2489   3.336   3.259   0.889 -0.2077 -0.6993 -0.2739
  167DMF     H4 2490   3.420   3.518   1.059 -0.1291  1.0577 -0.4870
  167DMF     H5 2491   3.286   3.578   0.951 -0.1264 -0.4709  0.2408
  167DMF     H6 2492   3.397   3.448   0.900 -0.3150  0.3455 -0.2677
  167DMF     H7 2493   3.228   3.466   1.228 -1.3200 -0.0760  0.2608
  168DMF     C1 2494   1.519   1.989   3.434  0.1881 -0.9431 -0.4655
  168DMF     N1 2495   1.542   2.093   3.333 -0.3667  0.0667  0.5565
  168DMF     C2 2496   1.547   2.239   3.376 -0.2758 -0.6661 -0.3421
  168DMF     C3 2497   1.554   2.060   3.190 -0.2046  0.0481  1.0731
  168DMF     O1 2498   1.551   1.947   3.144 -0.5089 -0.8428  0.0436
  168DMF     H1 2499   1.611   1.929   3.444  0.9554  0.5876  2.1197
  168DMF     H2 2500   1.427   1.935   3.408 -0.4751  0.3554 -0.8755
  168DMF     H3 2501   1.495   2.032   3.532  3.1419  1.0123 -0.5184
  168DMF     H4 2502   1.580   2.246   3.480 -0.2032 -0.6541 -0.3662
  168DMF     H5 2503   1.454   2.294   3.356  0.6143  1.1892  0.4455
  168DMF     H6 2504   1.628   2.285   3.318 -0.4418  1.0829  0.7833
  168DMF     H7 2505   1.553   2.149   3.123  0.5964 -0.8834 -0.2022
  169DMF     C1 2506   0.100   1.580   3.541 -1.1296 -0.2167 -0.5182
  169DMF     N1 2507   0.191   1.465   3.554  0.0765  0.5150 -0.5221
  169DMF     C2 2508   0.306   1.457   3.472  0.4215 -0.3636  0.3191
  169DMF     C3 2509   0.159   1.349   3.627  0.0416 -0.2815 -0.8407
  169DMF     O1 2510   0.054   1.336   3.688  0.1077  0.6289  0.1257
  169DMF     H1 2511   0.052   1.610   3.635 -0.2806 -0.5072  0.0168
  169DMF     H2 2512   0.026   1.556   3.465 -2.1836 -2.0957  1.0411
  169DMF     H3 2513   0.160   1.662   3.501 -4.1173  1.5240 -1.5288
  169DMF     H4 2514   0.312   1.353   3.437 -4.1085 -1.1776  1.6324
  169DMF     H5 2515   0.391   1.488   3.533  0.7023  1.5236 -0.9789
  169DMF     H6 2516   0.300   1.529   3.388  1.6578  1.1441  1.4947
  169DMF     H7 2517   0.233   1.266   3.621 -0.4102 -0.8231  0.8633
  170DMF     C1 2518   2.956   1.941   1.102  0.5419 -0.5437  0.0078
  170DMF     N1 2519   3.065   1.858   1.138  0.0189 -0.2809 -0.1427
  170DMF     C2 2520   3.187   1.924   1.188 -0.0184  0.7110 -0.1857
  170DMF     C3 2521   3.046   1.719   1.143  0.6580 -0.2308 -0.3486
  170DMF     O1 2522   2.935   1.667   1.118 -0.3636 -0.0966  0.2658
  170DMF     H1 2523   2.892   1.896   1.024 -0.8329  0.0040  0.7971
  170DMF     H2 2524   3.008   2.023   1.052  2.3961 -0.8189  1.4526
  170DMF     H3 2525   2.905   1.992   1.184  1.6351 -0.1098  0.4185
  170DMF     H4 2526   3.246   1.853   1.248 -2.0497  0.5323  1.6785
  170DMF     H5 2527   3.180   2.010   1.255 -1.1285  0.5168 -0.0432
  170DMF     H6 2528   3.246   1.961   1.103  0.8002  2.9929  1.3508
  170DMF     H7 2529   3.127   1.659   1.188 -0.8223 -0.8570  1.5306
  171DMF     C1 2530   2.941   2.199   3.649  0.0217  0.4182  0.3716
  171DMF     N1 2531   2.968   2.327   3.711  0.4313  0.4298 -0.4573
  171DMF     C2 2532   2.999   2.328   3.854 -0.2846 -0.3135 -0.4154
  171DMF     C3 2533   2.928   2.442   3.650 -0.2316  0.2750  0.1093
  171DMF     O1 2534   2.891   2.443   3.534  0.2016 -0.2831  0.0586
  171DMF     H1 2535   2.916   2.198   3.542  0.3551  0.1234  0.2952
  171DMF     H2 2536   2.853   2.151   3.695 -1.3363  1.2469 -1.2893
  171DMF     H3 2537   3.033   2.144   3.669 -0.2141  0.3273  1.2327
  171DMF     H4 2538   2.904   2.337   3.908 -0.4337  0.8340 -0.8619
  171DMF     H5 2539   3.054   2.421   3.874  1.2540 -1.0401 -1.2141
  171DMF     H6 2540   3.060   2.238   3.871 -0.7725 -0.7377 -0.9105
  171DMF     H7 2541   2.935   2.535   3.710  0.4449 -0.0321  0.5122
  172DMF     C1 2542   1.801   1.319   2.998  0.2220 -0.0947  0.0960
  172DMF     N1 2543   1.674   1.271   2.951 -0.0856 -0.0651 -0.1561
  172DMF     C2 2544   1.669   1.161   2.857 -0.0361  0.2656 -0.2219
  172DMF     C3 2545   1.556   1.332   2.988  0.0017  0.2641 -0.2093
  172DMF     O1 2546   1.551   1.433   3.054 -0.0956  0.2601 -0.3952
  172DMF     H1 2547   1.811   1.312   3.107  2.3976 -3.9029 -0.2932
  172DMF     H2 2548   1.796   1.426   2.971 -0.9075 -0.0960  0.2664
  172DMF     H3 2549   1.880   1.267   2.943 -0.0651  1.0096 -1.3801
  172DMF     H4 2550   1.568   1.166   2.814 -0.5201  0.2097  0.8809
  172DMF     H5 2551   1.679   1.062   2.902  0.4476  0.6727  0.5826
  172DMF     H6 2552   1.745   1.183   2.781  0.9362  0.8014  0.8756
  172DMF     H7 2553   1.465   1.278   2.958  0.5849  0.4269 -2.3447
  173DMF     C1 2554   0.942   2.114   1.049  0.6052 -0.5638 -0.2428
  173DMF     N1 2555   0.989   2.079   1.176  0.1702 -0.1039  0.0356
  173DMF     C2 2556   1.136   2.084   1.187 -0.3996 -0.2677  0.3293
  173DMF     C3 2557   0.917   2.010   1.274 -0.5753  0.3196  0.5111
  173DMF     O1 2558   0.796   2.002   1.263  0.8557  0.0449  0.1165
  173DMF     H1 2559   0.978   2.216   1.029 -1.3725  0.8245  2.8362
  173DMF     H2 2560   0.832   2.106   1.048  0.6643 -1.9993  2.1859
  173DMF     H3 2561   0.975   2.040   0.975 -2.6808 -1.6236 -0.7417
  173DMF     H4 2562   1.187   2.070   1.091  0.4804 -0.4537  0.8167
  173DMF     H5 2563   1.168   1.998   1.247 -0.7837 -1.7520 -1.5371
  173DMF     H6 2564   1.165   2.179   1.234  0.2374 -1.1530  1.7828
  173DMF     H7 2565   0.979   1.975   1.359 -0.5721  0.8516  0.7327
  174DMF     C1 2566   2.379   0.060   2.258 -0.1676  0.4588 -0.1360
  174DMF     N1 2567   2.512   0.012   2.259 -0.3085  0.2370  0.5394
  174DMF     C2 2568   2.618   0.111   2.280  0.1923  0.2099  0.4064
  174DMF     C3 2569   2.541  -0.127   2.224 -0.6683  0.1151  0.7068
  174DMF     O1 2570   2.457  -0.217   2.207 -0.3032  0.2659 -0.5258
  174DMF     H1 2571   2.338   0.060   2.157  0.2035  1.2074 -0.2950
  174DMF     H2 2572   2.363   0.154   2.312 -1.5643 -0.1374  0.4884
  174DMF     H3 2573   2.328  -0.015   2.319 -0.8678  0.1615 -1.0785
  174DMF     H4 2574   2.582   0.203   2.328  0.0774  0.5454 -0.3164
  174DMF     H5 2575   2.663   0.149   2.187  1.6043 -0.0215  0.9796
  174DMF     H6 2576   2.703   0.064   2.331  0.6872  0.3366 -0.2857
  174DMF     H7 2577   2.649  -0.146   2.205 -0.2271  1.4491  1.8218
  175DMF     C1 2578   2.028   0.075   0.131 -0.3328  0.3270  0.3293
  175DMF     N1 2579   2.076   0.210   0.157  0.0768 -0.3090  0.4471
  175DMF     C2 2580   2.206   0.231   0.229 -0.2453  0.3457  0.8493
  175DMF     C3 2581   1.985   0.315   0.158 -0.1355  0.1749  0.4416
  175DMF     O1 2582   1.884   0.302   0.097 -0.0164 -0.7312 -0.2289
  175DMF     H1 2583   2.107   0.008   0.094 -1.7732 -1.3926  0.3018
  175DMF     H2 2584   1.958   0.061   0.047 -0.5382 -0.1999  0.5851
  175DMF     H3 2585   1.975   0.022   0.211  1.1266  0.0438  1.1320
  175DMF     H4 2586   2.218   0.326   0.282  1.6324  0.2471  0.6398
  175DMF     H5 2587   2.282   0.225   0.150  0.2860 -1.6963  1.4710
  175DMF     H6 2588   2.218   0.150   0.303  1.1251 -1.3016 -1.0903
  175DMF     H7 2589   2.016   0.409   0.205  0.2553  0.2697 -0.0004
  176DMF     C1 2590   3.039   3.414   2.344  0.8707 -0.3377 -0.0268
  176DMF     N1 2591   3.095   3.554   2.336  0.3827 -0.4401  0.8913
  176DMF     C2 2592   3.217   3.568   2.256 -0.1952 -0.3704  0.1548
  176DMF     C3 2593   3.029   3.671   2.380 -0.2344 -0.1530  0.2466
  176DMF     O1 2594   2.927   3.671   2.444 -0.0205  0.5858 -0.4082
  176DMF     H1 2595   2.964   3.413   2.424  2.8266  1.6220  1.9055
  176DMF     H2 2596   3.130   3.354   2.360  1.1308 -0.2115 -1.0301
  176DMF     H3 2597   3.000   3.386   2.246 -0.5099  0.4296  0.2986
  176DMF     H4 2598   3.222   3.657   2.191 -0.0301  0.3019  1.0834
  176DMF     H5 2599   3.237   3.481   2.192 -2.9871 -0.2168 -1.0051
  176DMF     H6 2600   3.307   3.580   2.317  0.6560 -0.3018 -1.1083
  176DMF     H7 2601   3.079   3.764   2.346 -0.5036 -0.0308  0.1885
  177DMF     C1 2602   1.272   1.787   0.011  0.2463  0.3542  0.1893
  177DMF     N1 2603   1.289   1.714  -0.111 -1.0122 -0.0350  0.4721
  177DMF     C2 2604   1.327   1.570  -0.102 -0.3885 -0.4573 -0.2244
  177DMF     C3 2605   1.267   1.769  -0.239  0.0952  1.1611 -0.6914
  177DMF     O1 2606   1.224   1.884  -0.246  0.5846 -0.0997 -0.0480
  177DMF     H1 2607   1.297   1.728   0.100  0.9784 -0.2372 -0.3932
  177DMF     H2 2608   1.173   1.834   0.016 -1.1545 -1.8188 -4.6022
  177DMF     H3 2609   1.340   1.873   0.010  0.5107  0.1511  0.5951
  177DMF     H4 2610   1.320   1.533   0.001  0.2125  2.7959  1.0314
  177DMF     H5 2611   1.429   1.562  -0.143 -0.2664  0.5448 -0.1075
  177DMF     H6 2612   1.259   1.512  -0.167  1.3411 -0.0479 -2.4728
  177DMF     H7 2613   1.301   1.704  -0.322 -1.0548  0.6952 -0.7956
  178DMF     C1 2614   1.067   0.583   2.521 -0.6036  0.0761  0.4197
  178DMF     N1 2615   1.109   0.727   2.555  0.4306  0.3987  0.3175
  178DMF     C2 2616   1.003   0.825   2.524 -0.2437 -0.4072 -0.3704
  178DMF     C3 2617   1.222   0.759   2.625  0.2308 -0.0462  0.7698
  178DMF     O1 2618   1.297   0.671   2.664 -0.0411 -0.2536 -0.1410
  178DMF     H1 2619   1.065   0.518   2.608 -0.1302 -2.8633 -1.7049
  178DMF     H2 2620   1.130   0.536   2.445 -2.6933  0.5463 -1.6644
  178DMF     H3 2621   0.967   0.589   2.477  0.0253  1.6847 -0.8381
  178DMF     H4 2622   0.909   0.771   2.504 -0.6136 -1.4420  3.7295
  178DMF     H5 2623   1.039   0.877   2.434 -1.1326 -0.6639 -0.8881
  178DMF     H6 2624   0.982   0.896   2.605  1.3609  0.3305 -0.5826
  178DMF     H7 2625   1.231   0.867   2.647  0.7503  0.9848 -3.9627
  179DMF     C1 2626   3.122   0.108   3.256  0.0801 -0.2740 -0.3517
  179DMF     N1 2627   3.254   0.053   3.250  0.6606 -0.0169 -0.0466
  179DMF     C2 2628   3.353   0.089   3.357 -0.2785  0.3933 -0.3947
  179DMF     C3 2629   3.292  -0.039   3.148  0.1405 -0.3475  0.3133
  179DMF     O1 2630   3.211  -0.075   3.057 -0.4347 -1.2719 -0.2952
  179DMF     H1 2631   3.063   0.105   3.164 -2.1456  2.2485  0.8964
  179DMF     H2 2632   3.140   0.215   3.275  2.2580 -0.7367  0.2831
  179DMF     H3 2633   3.062   0.076   3.342 -0.6785 -0.5287 -0.9685
  179DMF     H4 2634   3.344   0.024   3.445 -2.4524 -0.4792 -1.2309
  179DMF     H5 2635   3.366   0.195   3.382  0.0660 -0.0471  1.4194
  179DMF     H6 2636   3.450   0.061   3.313 -0.8817 -0.1398 -1.3767
  179DMF     H7 2637   3.392  -0.083   3.163  1.0259  1.3071 -0.6775
  180DMF     C1 2638   0.125   3.133   0.548  0.1118  0.4433  0.3969
  180DMF     N1 2639   0.144   3.033   0.656  0.2095 -0.4211  0.7309
  180DMF     C2 2640   0.202   2.900   0.620 -0.1626 -0.3797  0.3857
  180DMF     C3 2641   0.167   3.082   0.790 -0.1386 -0.1001 -0.7159
  180DMF     O1 2642   0.151   3.198   0.822  0.2657 -0.4583  0.3504
  180DMF     H1 2643   0.189   3.219   0.571  2.8615 -0.8959 -1.9439
  180DMF     H2 2644   0.022   3.171   0.547  0.0136  0.1724  0.0050
  180DMF     H3 2645   0.158   3.101   0.448 -0.2586 -1.7881  0.9708
  180DMF     H4 2646   0.302   2.917   0.579  0.0869 -0.8304  0.8011
  180DMF     H5 2647   0.136   2.862   0.541  0.5150 -0.2598 -0.2375
  180DMF     H6 2648   0.211   2.838   0.710 -0.7946 -0.8876  0.0998
  180DMF     H7 2649   0.195   3.005   0.865 -0.2989 -0.5392 -1.1084
  181DMF     C1 2650   1.607   2.789   2.827  0.1546  0.1368 -0.0505
  181DMF     N1 2651   1.739   2.751   2.773 -0.1513 -0.2733 -0.2464
  181DMF     C2 2652   1.821   2.840   2.697 -0.3599  0.4174 -0.3391
  181DMF     C3 2653   1.779   2.613   2.794 -0.0415 -0.9982  0.1186
  181DMF     O1 2654   1.714   2.538   2.866  0.4332  0.9008  0.2659
  181DMF     H1 2655   1.614   2.810   2.935  2.0709  0.9346 -0.3078
  181DMF     H2 2656   1.537   2.706   2.814  2.5265 -1.7016 -1.4167
  181DMF     H3 2657   1.586   2.888   2.785 -0.0372 -0.6139 -1.7505
  181DMF     H4 2658   1.762   2.927   2.666 -0.8642  0.1744 -0.0751
  181DMF     H5 2659   1.865   2.785   2.613 -2.7312  0.3656 -1.6049
  181DMF     H6 2660   1.907   2.871   2.758 -2.0340  1.7008  1.4349
  181DMF     H7 2661   1.876   2.588   2.747  0.2978 -0.2468  0.4272
  182DMF     C1 2662   2.743   1.000   1.476 -0.6168 -0.2730 -1.1245
  182DMF     N1 2663   2.733   1.148   1.512 -0.2364  0.6563  0.0379
  182DMF     C2 2664   2.606   1.211   1.474  0.2640  0.6384  0.0986
  182DMF     C3 2665   2.843   1.223   1.528 -0.6111  0.6219  0.3663
  182DMF     O1 2666   2.949   1.175   1.561  0.5087  0.4819  0.3728
  182DMF     H1 2667   2.846   0.979   1.446 -1.0575 -2.9601 -0.8734
  182DMF     H2 2668   2.691   0.983   1.380 -0.0291 -0.2407 -1.4474
  182DMF     H3 2669   2.709   0.931   1.554 -0.3653  0.6719 -0.1762
  182DMF     H4 2670   2.530   1.132   1.476  1.9398 -1.0209  3.2838
  182DMF     H5 2671   2.619   1.270   1.383  1.0531  1.4468  0.7233
  182DMF     H6 2672   2.565   1.269   1.558  3.2472 -1.1111  2.9397
  182DMF     H7 2673   2.829   1.331   1.510 -0.6904  0.5701  0.1017
  183DMF     C1 2674   0.706   0.741   3.421  0.2438  0.1913 -0.2114
  183DMF     N1 2675   0.817   0.809   3.502 -0.0726 -0.0174 -0.8954
  183DMF     C2 2676   0.950   0.751   3.501 -0.1096 -0.7162  0.4364
  183DMF     C3 2677   0.783   0.894   3.605  0.4214 -0.0996 -0.8168
  183DMF     O1 2678   0.674   0.930   3.633 -0.7010  0.5302  0.3451
  183DMF     H1 2679   0.631   0.708   3.494  0.7714  0.9029  0.6681
  183DMF     H2 2680   0.737   0.655   3.361  0.4167  0.1422 -0.0540
  183DMF     H3 2681   0.658   0.821   3.365  0.5309 -0.1322 -0.9209
  183DMF     H4 2682   1.014   0.840   3.514 -1.0536  0.0360 -0.0061
  183DMF     H5 2683   0.965   0.690   3.412 -0.1354 -1.3844  0.8847
  183DMF     H6 2684   0.960   0.693   3.594 -0.2264 -1.0549  0.2377
  183DMF     H7 2685   0.867   0.927   3.669 -1.0378 -2.3212  2.4268
  184DMF     C1 2686   1.556   1.018   0.089  0.0395 -0.1452  0.0101
  184DMF     N1 2687   1.601   1.127   0.184  0.5899 -0.0842 -0.2210
  184DMF     C2 2688   1.728   1.132   0.248 -0.3000 -0.2108 -0.2393
  184DMF     C3 2689   1.524   1.246   0.184  0.3197  0.2138  0.1491
  184DMF     O1 2690   1.406   1.247   0.142  0.6468  0.4890 -0.3185
  184DMF     H1 2691   1.640   0.994   0.022  0.2203 -1.2493  0.6168
  184DMF     H2 2692   1.476   1.060   0.026 -0.4909 -0.8521  0.1991
  184DMF     H3 2693   1.512   0.937   0.149 -1.5179  1.1997  0.7491
  184DMF     H4 2694   1.778   1.228   0.230 -1.7812  0.6741  0.2877
  184DMF     H5 2695   1.791   1.055   0.202 -0.1561 -0.3203  0.1417
  184DMF     H6 2696   1.716   1.125   0.357 -0.2137  2.0591 -0.0547
  184DMF     H7 2697   1.572   1.329   0.240  2.5910 -2.0030  1.5999
  185DMF     C1 2698   1.385   1.039   1.223  0.1710  0.4105  0.4939
  185DMF     N1 2699   1.406   0.949   1.112 -0.3560  0.9046  0.3036
  185DMF     C2 2700   1.443   1.005   0.974  0.4694  0.1650  0.1312
  185DMF     C3 2701   1.394   0.810   1.120  0.2173 -0.4560 -0.2294
  185DMF     O1 2702   1.340   0.760   1.220 -0.1221 -0.1387 -0.1634
  185DMF     H1 2703   1.469   1.013   1.288  0.0032  1.7977  1.2830
  185DMF     H2 2704   1.286   1.015   1.265 -0.0524  1.3769  0.5333
  185DMF     H3 2705   1.388   1.146   1.199 -3.7369  0.9248  1.7798
  185DMF     H4 2706   1.357   1.000   0.905  1.2647 -1.5791 -0.7872
  185DMF     H5 2707   1.518   0.941   0.926 -0.9781 -0.6977 -1.0551
  185DMF     H6 2708   1.482   1.106   0.987  0.6115  0.3753 -1.7913
  185DMF     H7 2709   1.423   0.754   1.029  0.5978  1.1526 -1.1063
  186DMF     C1 2710   3.009   0.342   3.612  0.0881  0.3734  0.4916
  186DMF     N1 2711   2.872   0.272   3.601 -0.2990  0.0337 -0.0558
  186DMF     C2 2712   2.778   0.325   3.498  0.4177 -0.4615 -0.5951
  186DMF     C3 2713   2.847   0.146   3.662  0.2214 -0.2541 -0.9385
  186DMF     O1 2714   2.930   0.082   3.723 -0.1390 -0.1509  0.5390
  186DMF     H1 2715   2.981   0.447   3.598  0.3244  0.5686  1.4633
  186DMF     H2 2716   3.077   0.311   3.532  0.3666 -0.6665  1.1179
  186DMF     H3 2717   3.051   0.320   3.711 -0.9312 -0.2415  0.7956
  186DMF     H4 2718   2.675   0.315   3.534  0.4127 -0.3451 -0.5781
  186DMF     H5 2719   2.797   0.271   3.404 -0.2426 -1.3317 -0.2341
  186DMF     H6 2720   2.802   0.426   3.464 -1.8568  0.7511  1.2610
  186DMF     H7 2721   2.745   0.106   3.645  0.3049 -0.7242 -0.3628
  187DMF     C1 2722   0.997   3.074   0.220 -0.6062 -0.7214  0.6911
  187DMF     N1 2723   1.007   3.158   0.343 -0.3186  0.2193  0.1730
  187DMF     C2 2724   0.891   3.229   0.383  0.5594 -0.4516  0.3705
  187DMF     C3 2725   1.119   3.158   0.423 -0.0246  0.3739 -0.4915
  187DMF     O1 2726   1.216   3.090   0.399 -0.5072 -0.0590 -0.4857
  187DMF     H1 2727   0.894   3.037   0.226 -0.3251 -2.0077 -1.7362
  187DMF     H2 2728   1.068   2.991   0.219 -0.6707 -0.7881  1.7179
  187DMF     H3 2729   1.013   3.143   0.136  0.5096  0.5859  1.9612
  187DMF     H4 2730   0.837   3.160   0.450 -0.6815  0.7480  0.6351
  187DMF     H5 2731   0.824   3.237   0.297  2.4496  2.6310 -0.9010
  187DMF     H6 2732   0.919   3.319   0.439  1.1525 -1.1605  1.2225
  187DMF     H7 2733   1.111   3.230   0.506 -2.7197 -1.4471  0.9054
  188DMF     C1 2734   2.753   0.250   3.134 -0.4474 -0.4916 -0.6273
  188DMF     N1 2735   2.750   0.392   3.194 -0.7443 -0.9809  0.2535
  188DMF     C2 2736   2.624   0.441   3.242  0.3133  0.5099 -0.3302
  188DMF     C3 2737   2.867   0.475   3.193 -0.0322 -0.3075  0.3869
  188DMF     O1 2738   2.980   0.417   3.187 -0.5223 -0.4068 -0.1034
  188DMF     H1 2739   2.842   0.191   3.159 -0.9435 -0.5479  1.0992
  188DMF     H2 2740   2.747   0.260   3.025 -0.9984  0.6053 -0.5009
  188DMF     H3 2741   2.670   0.190   3.175 -1.5971  1.2128 -0.4001
  188DMF     H4 2742   2.565   0.369   3.299 -2.2672  1.4448 -1.7462
  188DMF     H5 2743   2.557   0.464   3.159  1.4021  2.0551 -0.8163
  188DMF     H6 2744   2.648   0.534   3.297  1.6464 -0.9028  1.5328
  188DMF     H7 2745   2.855   0.584   3.208 -1.6938 -0.1297 -1.9269
  189DMF     C1 2746   2.094   0.642   2.605 -0.4981 -0.4998 -0.0819
  189DMF     N1 2747   1.947   0.633   2.631 -0.2887  0.1426  0.5985
  189DMF     C2 2748   1.876   0.760   2.668 -0.0304  0.1686 -0.1760
  189DMF     C3 2749   1.877   0.511   2.617  0.3795 -0.2624 -0.0306
  189DMF     O1 2750   1.937   0.414   2.581 -0.3688 -0.0264  0.0426
  189DMF     H1 2751   2.112   0.710   2.521 -2.0623  0.4378  0.3199
  189DMF     H2 2752   2.149   0.552   2.576 -0.4949 -0.4198 -0.3225
  189DMF     H3 2753   2.138   0.669   2.702  2.4046 -0.2344 -1.4234
  189DMF     H4 2754   1.769   0.739   2.679  0.3717 -2.0478 -0.0854
  189DMF     H5 2755   1.883   0.830   2.585 -0.4819  0.9791  0.4629
  189DMF     H6 2756   1.904   0.796   2.768  0.1106 -1.5216  0.4186
  189DMF     H7 2757   1.767   0.518   2.629  0.7330  3.0967  1.7816
  190DMF     C1 2758   2.778   0.220   0.236  0.4740  0.1701 -0.1919
  190DMF     N1 2759   2.725   0.172   0.363 -0.0494 -0.7238  0.0304
  190DMF     C2 2760   2.810   0.080   0.445  0.5619 -0.5368  0.1742
  190DMF     C3 2761   2.595   0.206   0.396  0.1683 -0.8829  0.0112
  190DMF     O1 2762   2.534   0.294   0.339  0.4357 -0.3504  0.1119
  190DMF     H1 2763   2.872   0.175   0.202 -0.3955 -1.1686 -0.8568
  190DMF     H2 2764   2.790   0.329   0.231  0.6591  0.3016  2.5109
  190DMF     H3 2765   2.708   0.194   0.156  0.5287  1.9811 -0.8622
  190DMF     H4 2766   2.855   0.007   0.376  1.1009 -0.2483  0.2180
  190DMF     H5 2767   2.741   0.034   0.516  0.0186 -0.8300 -0.5341
  190DMF     H6 2768   2.887   0.134   0.501 -0.2533  0.6600  0.1524
  190DMF     H7 2769   2.555   0.157   0.486 -0.3734 -2.0069 -0.8275
  191DMF     C1 2770   3.216   0.612   2.248 -0.4150  0.3139 -0.0362
  191DMF     N1 2771   3.081   0.671   2.242 -0.3288  0.0074 -0.5868
  191DMF     C2 2772   3.052   0.815   2.270  0.1007  0.5167  0.6582
  191DMF     C3 2773   2.965   0.592   2.224 -0.2752  0.6867 -0.1788
  191DMF     O1 2774   2.968   0.467   2.210 -0.2815 -0.3458 -0.4236
  191DMF     H1 2775   3.257   0.594   2.349  0.2822 -1.5992 -0.6320
  191DMF     H2 2776   3.283   0.686   2.204 -0.0814 -0.2241 -0.4344
  191DMF     H3 2777   3.218   0.522   2.184 -2.5399  0.9350 -1.0246
  191DMF     H4 2778   3.007   0.828   2.370 -2.5007  0.2338 -0.4354
  191DMF     H5 2779   2.985   0.860   2.196 -0.8905 -0.9357  0.6421
  191DMF     H6 2780   3.138   0.883   2.279  0.9817 -0.8037  2.5534
  191DMF     H7 2781   2.873   0.654   2.219 -0.9346 -0.2400  0.4111
  192DMF     C1 2782   0.138   1.588   0.377 -0.8866 -0.4704 -0.1565
  192DMF     N1 2783   0.200   1.546   0.252 -0.3748 -0.5388  0.2671
  192DMF     C2 2784   0.188   1.402   0.206 -0.3436  0.3795  0.2583
  192DMF     C3 2785   0.264   1.653   0.179 -0.0477  0.1544 -0.2498
  192DMF     O1 2786   0.290   1.763   0.223 -0.3683 -0.0452 -0.3035
  192DMF     H1 2787   0.075   1.678   0.375 -0.3458 -0.1081 -1.3573
  192DMF     H2 2788   0.225   1.604   0.441  1.1962  2.3112 -3.5003
  192DMF     H3 2789   0.074   1.508   0.418 -0.3760 -0.7907  0.0282
  192DMF     H4 2790   0.085   1.369   0.224  0.3222 -1.7268  0.3057
  192DMF     H5 2791   0.250   1.338   0.271 -1.3030 -0.0820  0.7358
  192DMF     H6 2792   0.217   1.393   0.101 -0.0651  1.8189  0.2005
  192DMF     H7 2793   0.304   1.612   0.085 -1.2478 -2.3228  0.2912
  193DMF     C1 2794   0.324   1.558   1.172  0.4520 -0.0772  0.1565
  193DMF     N1 2795   0.209   1.480   1.130 -0.1178 -0.4241 -0.0656
  193DMF     C2 2796   0.223   1.336   1.124 -0.6865  0.1573 -0.1956
  193DMF     C3 2797   0.083   1.540   1.113 -0.2388  0.1283 -0.4106
  193DMF     O1 2798   0.070   1.653   1.147  0.0924  0.2795 -0.8844
  193DMF     H1 2799   0.324   1.576   1.281 -2.6964 -1.6621  0.4691
  193DMF     H2 2800   0.338   1.649   1.112 -2.9276  1.0642  0.9951
  193DMF     H3 2801   0.410   1.495   1.145 -1.9689 -2.8121 -1.4057
  193DMF     H4 2802   0.286   1.307   1.039  1.4227  1.6272  0.8149
  193DMF     H5 2803   0.126   1.286   1.139  0.2135 -1.3012  0.8487
  193DMF     H6 2804   0.288   1.312   1.208  0.1187  1.0391 -0.5597
  193DMF     H7 2805   0.005   1.479   1.065 -0.4138  1.2549 -1.5868
  194DMF     C1 2806   0.844   1.156   2.816 -0.9608  0.3871 -0.4370
  194DMF     N1 2807   0.710   1.090   2.811 -0.1972 -0.4058 -0.1753
  194DMF     C2 2808   0.710   0.944   2.838 -0.0535 -0.3089  0.4966
  194DMF     C3 2809   0.595   1.164   2.764  0.1269 -0.5560 -0.5605
  194DMF     O1 2810   0.591   1.286   2.739  0.5296  0.4296 -0.0510
  194DMF     H1 2811   0.860   1.227   2.899  0.3072 -1.2122  0.7058
  194DMF     H2 2812   0.848   1.225   2.731 -1.3479 -1.4113 -1.9223
  194DMF     H3 2813   0.926   1.084   2.812 -2.5361 -1.4427 -0.8615
  194DMF     H4 2814   0.801   0.911   2.787  0.6299 -0.6105  1.8718
  194DMF     H5 2815   0.626   0.884   2.800  0.0292 -0.7686  1.0325
  194DMF     H6 2816   0.736   0.931   2.944  3.2824 -1.7515 -0.4222
  194DMF     H7 2817   0.514   1.092   2.740  1.2864 -2.0124 -0.1594
  195DMF     C1 2818   1.368   0.025   2.301  0.1375  0.4143 -0.0137
  195DMF     N1 2819   1.273   0.129   2.245 -0.2172  0.0233 -0.2515
  195DMF     C2 2820   1.134   0.101   2.245 -0.2181  0.0577  0.5187
  195DMF     C3 2821   1.321   0.255   2.212  0.1324 -0.5886 -0.2891
  195DMF     O1 2822   1.438   0.275   2.210 -0.3724 -0.1279  0.4558
  195DMF     H1 2823   1.466   0.022   2.251  0.4381 -1.6522  0.6660
  195DMF     H2 2824   1.312  -0.069   2.307  0.5093  0.3452  2.7390
  195DMF     H3 2825   1.393   0.068   2.399  1.3851  1.9805 -0.9848
  195DMF     H4 2826   1.075   0.192   2.258  0.7105  0.7041  0.2607
  195DMF     H5 2827   1.112   0.027   2.324  1.8075 -0.0518  1.0206
  195DMF     H6 2828   1.101   0.068   2.146  0.9521 -2.8088  1.0277
  195DMF     H7 2829   1.245   0.335   2.205  0.1137 -0.2031  3.2181
  196DMF     C1 2830   0.787   3.428   2.236 -0.0536  0.5389  0.1605
  196DMF     N1 2831   0.769   3.450   2.381  0.8996 -0.0744  0.3085
  196DMF     C2 2832   0.881   3.435   2.482 -0.2955  0.4916  0.1889
  196DMF     C3 2833   0.661   3.534   2.416 -0.1878  0.4892 -0.6573
  196DMF     O1 2834   0.570   3.561   2.344 -0.1819  0.1638 -0.2613
  196DMF     H1 2835   0.792   3.530   2.195 -0.1786  0.1650 -0.8159
  196DMF     H2 2836   0.695   3.378   2.203  0.1627  0.6288 -0.5907
  196DMF     H3 2837   0.886   3.381   2.227  1.0588  2.7062  0.5715
  196DMF     H4 2838   0.969   3.483   2.439  0.0778  0.0950  0.5041
  196DMF     H5 2839   0.895   3.327   2.491 -0.6145  0.4762  0.5395
  196DMF     H6 2840   0.864   3.474   2.583  0.1250 -0.3121  0.5745
  196DMF     H7 2841   0.657   3.568   2.521 -1.4418 -0.3902 -0.4053
  197DMF     C1 2842   0.442   2.283   2.219  0.0272 -0.2341 -0.2403
  197DMF     N1 2843   0.456   2.294   2.359 -0.2880 -0.0916  0.6840
  197DMF     C2 2844   0.330   2.274   2.431  0.8817  0.2345  0.1459
  197DMF     C3 2845   0.573   2.348   2.427  0.0135  0.5416  0.0860
  197DMF     O1 2846   0.682   2.356   2.384 -0.5213 -0.0014  0.2491
  197DMF     H1 2847   0.532   2.309   2.161 -0.4831  0.3533 -0.7697
  197DMF     H2 2848   0.368   2.357   2.187 -0.6527 -1.1087 -0.7015
  197DMF     H3 2849   0.411   2.181   2.197 -0.4215 -0.0161 -0.6165
  197DMF     H4 2850   0.241   2.314   2.382  0.3162  0.3919  1.2709
  197DMF     H5 2851   0.334   2.306   2.536  0.3925  0.9677 -0.0572
  197DMF     H6 2852   0.318   2.166   2.446  3.3930 -0.4640 -2.4570
  197DMF     H7 2853   0.561   2.360   2.536 -0.3562  0.5404  0.0445
  198DMF     C1 2854   1.395   2.910   0.914  0.1828 -0.3345  0.3421
  198DMF     N1 2855   1.309   2.993   0.829 -0.1696 -0.1845 -0.4569
  198DMF     C2 2856   1.250   2.943   0.712  0.2304  0.8081 -0.0095
  198DMF     C3 2857   1.275   3.125   0.873 -0.1091 -1.0321 -0.3396
  198DMF     O1 2858   1.301   3.170   0.986 -0.7468 -0.7372  0.2422
  198DMF     H1 2859   1.434   2.820   0.863  0.6794  0.0790 -0.0141
  198DMF     H2 2860   1.350   2.885   1.011  1.5203 -0.4245  0.9571
  198DMF     H3 2861   1.485   2.970   0.933 -0.6406  1.5763 -1.5816
  198DMF     H4 2862   1.310   2.985   0.630  0.5937  3.8052  1.7267
  198DMF     H5 2863   1.144   2.972   0.708  0.2901  0.8113 -2.6517
  198DMF     H6 2864   1.259   2.833   0.719 -0.3828  0.7465 -0.1666
  198DMF     H7 2865   1.228   3.189   0.796 -0.2822  0.3514  0.9011
  199DMF     C1 2866   1.004   1.224   1.528  0.0764  0.3995 -0.0353
  199DMF     N1 2867   1.118   1.293   1.475 -0.4718  0.2310  0.7442
  199DMF     C2 2868   1.251   1.239   1.514 -0.0520  0.2976  0.2302
  199DMF     C3 2869   1.109   1.411   1.395  1.0760 -0.1917  0.0307
  199DMF     O1 2870   1.007   1.443   1.338 -0.5953  1.1602 -0.0304
  199DMF     H1 2871   0.918   1.293   1.534 -0.6275 -0.5442  0.7554
  199DMF     H2 2872   1.027   1.191   1.630  0.4877  0.2339 -0.1834
  199DMF     H3 2873   0.982   1.134   1.470  1.0661  0.0676  0.1084
  199DMF     H4 2874   1.322   1.287   1.446  0.3809  0.7551  0.9982
  199DMF     H5 2875   1.248   1.133   1.484 -0.7273  0.6760 -1.0462
  199DMF     H6 2876   1.280   1.241   1.620 -0.1657 -1.8621  0.3265
  199DMF     H7 2877   1.205   1.465   1.385 -0.3405  2.0639 -1.9534
  200DMF     C1 2878   2.723   1.921   0.381 -0.5676  0.0715  0.0957
  200DMF     N1 2879   2.824   1.896   0.280 -0.0401  0.3145  0.2695
  200DMF     C2 2880   2.891   1.761   0.282  0.5525  0.4636  0.3936
  200DMF     C3 2881   2.864   1.987   0.181  0.3785 -0.1623 -0.4818
  200DMF     O1 2882   2.811   2.098   0.168 -0.3181 -0.1552  0.2434
  200DMF     H1 2883   2.669   1.827   0.397  1.4008 -0.9037  1.1488
  200DMF     H2 2884   2.651   1.997   0.349  0.0109  0.8543  0.6694
  200DMF     H3 2885   2.762   1.948   0.479 -1.5219 -0.4692  0.6319
  200DMF     H4 2886   2.958   1.761   0.369 -3.4363 -0.0392  3.6274
  200DMF     H5 2887   2.954   1.741   0.195  0.1641  0.4516  0.1141
  200DMF     H6 2888   2.811   1.686   0.298  0.8144 -0.0973 -0.9064
  200DMF     H7 2889   2.944   1.946   0.117  0.0748  0.9680 -1.6001
  201DMF     C1 2890   2.651   1.574   1.570 -0.4212 -0.5213  0.2885
  201DMF     N1 2891   2.712   1.552   1.436 -0.1004 -0.0641 -0.0636
  201DMF     C2 2892   2.860   1.579   1.426 -0.0770 -0.2049 -0.4472
  201DMF     C3 2893   2.638   1.566   1.315  0.1833 -0.0880 -0.1559
  201DMF     O1 2894   2.518   1.565   1.325  1.0874  0.0974  0.0660
  201DMF     H1 2895   2.663   1.489   1.639  1.4126 -0.3353  0.2226
  201DMF     H2 2896   2.542   1.585   1.563 -0.5688 -1.3409  1.1289
  201DMF     H3 2897   2.691   1.666   1.614 -0.2966 -1.0302  1.2628
  201DMF     H4 2898   2.876   1.681   1.390 -2.0170 -0.2126 -1.4143
  201DMF     H5 2899   2.902   1.517   1.347  0.9757  2.3242 -1.9324
  201DMF     H6 2900   2.910   1.554   1.520  1.0713 -1.4589 -1.3738
  201DMF     H7 2901   2.693   1.584   1.221  1.0463  0.7712  0.5095
  202DMF     C1 2902   1.123   1.600   0.335  0.5355 -0.2638 -0.4709
  202DMF     N1 2903   1.239   1.591   0.419  0.4487 -0.0770  0.0937
  202DMF     C2 2904   1.368   1.576   0.354 -0.3959 -0.2027 -1.3829
  202DMF     C3 2905   1.231   1.615   0.557  0.5098  0.4025  0.2968
  202DMF     O1 2906   1.125   1.639   0.620  0.2911  0.3344 -0.3579
  202DMF     H1 2907   1.117   1.516   0.265 -0.7622 -0.7826  0.2481
  202DMF     H2 2908   1.133   1.691   0.273 -0.6521  0.8781  0.9559
  202DMF     H3 2909   1.025   1.596   0.384  0.2100  1.4559 -0.9337
  202DMF     H4 2910   1.404   1.669   0.308 -2.6176  1.0772 -0.6246
  202DMF     H5 2911   1.366   1.492   0.283  2.1537 -0.2639 -1.4157
  202DMF     H6 2912   1.435   1.539   0.432 -0.8515 -1.0368 -1.3845
  202DMF     H7 2913   1.328   1.603   0.609  2.1108 -0.3796 -2.7565
  203DMF     C1 2914   2.363   1.949   3.503  0.4532 -0.3347 -0.8240
  203DMF     N1 2915   2.224   1.940   3.553 -0.2888  0.1731 -0.6418
  203DMF     C2 2916   2.149   1.830   3.511 -0.1938  0.5091  0.0201
  203DMF     C3 2917   2.176   2.024   3.652  0.0976  0.1802  0.0638
  203DMF     O1 2918   2.250   2.104   3.697 -0.1782  0.4653 -0.0281
  203DMF     H1 2919   2.393   1.862   3.442  1.3652 -0.2611 -0.4901
  203DMF     H2 2920   2.430   1.966   3.589  0.2017 -1.4953 -0.3776
  203DMF     H3 2921   2.372   2.046   3.454  0.6024  0.1905  0.2169
  203DMF     H4 2922   2.060   1.826   3.575  1.0902  3.2492  2.0790
  203DMF     H5 2923   2.212   1.741   3.520 -1.4603 -0.4361 -0.3017
  203DMF     H6 2924   2.125   1.831   3.404  1.0495 -0.0542 -0.2671
  203DMF     H7 2925   2.072   2.009   3.687 -0.6444  0.4916 -1.9570
  204DMF     C1 2926   1.646   1.724   1.557 -0.2720 -0.3226 -0.5131
  204DMF     N1 2927   1.521   1.690   1.489 -0.3411  0.2141 -0.1345
  204DMF     C2 2928   1.393   1.744   1.542  0.3052  0.1610 -0.1144
  204DMF     C3 2929   1.516   1.620   1.369 -0.4565 -0.1490  0.3063
  204DMF     O1 2930   1.615   1.579   1.314 -0.3021  0.0765  0.3325
  204DMF     H1 2931   1.631   1.782   1.649  0.3647  0.2441 -0.7622
  204DMF     H2 2932   1.710   1.785   1.492 -0.8812 -0.6899 -1.4620
  204DMF     H3 2933   1.688   1.624   1.573 -3.1398 -1.6219 -0.7815
  204DMF     H4 2934   1.339   1.668   1.601 -0.0875 -0.1441 -0.8658
  204DMF     H5 2935   1.342   1.792   1.458 -0.8248 -0.6319  0.1020
  204DMF     H6 2936   1.414   1.824   1.614 -0.6330  0.3978 -0.0974
  204DMF     H7 2937   1.422   1.618   1.312 -0.0745  1.8721 -0.4632
  205DMF     C1 2938   2.984   1.453   0.127  0.5395 -0.8962 -0.4398
  205DMF     N1 2939   3.124   1.463   0.170  0.0666 -0.5551  0.0572
  205DMF     C2 2940   3.225   1.447   0.063  0.5176 -0.1342  0.1705
  205DMF     C3 2941   3.161   1.520   0.294 -0.1503 -0.2298  0.1305
  205DMF     O1 2942   3.085   1.542   0.388  0.0127  0.0332 -0.5118
  205DMF     H1 2943   2.934   1.365   0.167  0.5585 -0.6734  0.0717
  205DMF     H2 2944   2.984   1.446   0.017  1.0555 -0.6344 -0.4577
  205DMF     H3 2945   2.931   1.538   0.172 -0.6082 -1.5670 -0.5307
  205DMF     H4 2946   3.182   1.425  -0.036  0.2039 -0.4797  0.3838
  205DMF     H5 2947   3.301   1.372   0.087  0.3197  0.3428  2.3720
  205DMF     H6 2948   3.278   1.543   0.049  0.1298  0.0542 -0.0272
  205DMF     H7 2949   3.268   1.545   0.306 -0.3845  1.2899 -0.8776
  206DMF     C1 2950   1.552   0.826   2.916 -0.3580  0.0815  0.5357
  206DMF     N1 2951   1.512   0.688   2.945  0.2177  0.5792 -0.0606
  206DMF     C2 2952   1.373   0.662   2.984 -0.0352  0.9731  0.6304
  206DMF     C3 2953   1.608   0.575   2.945 -0.4118  0.2295 -0.1581
  206DMF     O1 2954   1.727   0.584   2.922  0.2152 -0.1512  0.5510
  206DMF     H1 2955   1.658   0.842   2.938 -0.2055 -0.7776  0.4308
  206DMF     H2 2956   1.495   0.899   2.975 -1.1915  2.7075 -3.3292
  206DMF     H3 2957   1.523   0.841   2.811 -1.6793  1.2692  1.0441
  206DMF     H4 2958   1.308   0.686   2.900 -0.1447 -0.0956  0.3993
  206DMF     H5 2959   1.350   0.732   3.065 -1.2176  1.8375 -0.4509
  206DMF     H6 2960   1.360   0.558   3.018 -1.0218  0.3670 -1.5582
  206DMF     H7 2961   1.562   0.474   2.949  2.3977 -1.1793 -1.4452
  207DMF     C1 2962   2.934   1.081   0.527 -0.1730  0.0023 -0.1521
  207DMF     N1 2963   2.981   0.959   0.458  0.0845 -0.0521 -0.1539
  207DMF     C2 2964   2.991   0.966   0.312 -0.4678 -0.3772 -0.6068
  207DMF     C3 2965   3.002   0.841   0.531 -0.3834  0.2083  0.1535
  207DMF     O1 2966   2.977   0.823   0.650  0.5740  0.0524 -0.6793
  207DMF     H1 2967   2.898   1.153   0.453  0.6434 -0.8452 -1.3975
  207DMF     H2 2968   3.025   1.105   0.583 -0.6541  1.5394 -0.0266
  207DMF     H3 2969   2.860   1.059   0.604 -0.1892  1.2510  0.1973
  207DMF     H4 2970   2.884   0.970   0.284 -0.7920 -0.9494  0.5092
  207DMF     H5 2971   3.042   0.878   0.272 -1.6407 -2.2288  1.7922
  207DMF     H6 2972   3.042   1.058   0.281  0.5686 -0.9021 -0.4535
  207DMF     H7 2973   3.044   0.765   0.463  1.2070  1.2691 -0.1076
  208DMF     C1 2974   1.653   1.313   1.526  0.5753 -0.9705 -0.2465
  208DMF     N1 2975   1.710   1.176   1.537  0.0737 -0.4615 -0.1115
  208DMF     C2 2976   1.851   1.156   1.530 -0.7661  0.6694 -0.2622
  208DMF     C3 2977   1.633   1.071   1.575 -0.2305  0.3982  0.2917
  208DMF     O1 2978   1.517   1.081   1.603 -0.1903 -0.5322  0.0143
  208DMF     H1 2979   1.558   1.318   1.472  0.3323 -0.3189  0.2334
  208DMF     H2 2980   1.727   1.379   1.479  0.4189 -1.2761 -0.9161
  208DMF     H3 2981   1.630   1.338   1.631  3.0910  0.1445  0.0659
  208DMF     H4 2982   1.899   1.224   1.459 -1.5106  1.2620 -0.2045
  208DMF     H5 2983   1.866   1.061   1.477 -0.1079  0.2671  0.6305
  208DMF     H6 2984   1.896   1.145   1.629 -0.0505 -0.2138 -0.6807
  208DMF     H7 2985   1.686   0.974   1.582 -0.0459  0.3868 -1.0945
  209DMF     C1 2986   0.537   2.429   3.499 -0.7463  0.0447  0.0700
  209DMF     N1 2987   0.615   2.298   3.482  0.0371 -0.4739  0.0215
  209DMF     C2 2988   0.684   2.235   3.595 -0.0330 -0.1781  0.5644
  209DMF     C3 2989   0.601   2.233   3.354 -0.2119 -0.8306 -0.1961
  209DMF     O1 2990   0.531   2.271   3.266 -0.4520  0.0100  0.4624
  209DMF     H1 2991   0.458   2.444   3.423 -1.3312  1.3890  0.9240
  209DMF     H2 2992   0.598   2.520   3.492  1.4316 -1.4589 -0.9274
  209DMF     H3 2993   0.486   2.427   3.596 -1.0552 -2.0701 -0.1111
  209DMF     H4 2994   0.665   2.128   3.579 -2.1872  0.4118 -1.1255
  209DMF     H5 2995   0.644   2.276   3.689 -0.3249 -0.9894  0.7984
  209DMF     H6 2996   0.784   2.278   3.587 -0.2121  0.3516  1.1780
  209DMF     H7 2997   0.659   2.139   3.352  1.1543 -0.0942  2.1088
  210DMF     C1 2998   1.408   0.100   3.032 -0.0570 -0.5103 -0.0901
  210DMF     N1 2999   1.430   0.153   3.175 -0.3294  0.0026 -0.9892
  210DMF     C2 3000   1.381   0.283   3.203  0.2668  0.1972 -0.2782
  210DMF     C3 3001   1.453   0.061   3.280 -0.2278  0.0029 -0.2155
  210DMF     O1 3002   1.470  -0.056   3.259 -0.0610  0.2876  0.1389
  210DMF     H1 3003   1.311   0.049   3.035 -0.6881  0.5231 -1.6099
  210DMF     H2 3004   1.496   0.040   3.007  0.2238 -0.8800  1.7588
  210DMF     H3 3005   1.398   0.180   2.956  2.2727  0.5063  0.6480
  210DMF     H4 3006   1.280   0.272   3.246  0.4383 -0.7643 -0.1197
  210DMF     H5 3007   1.378   0.345   3.113  2.0612  0.4459 -0.1792
  210DMF     H6 3008   1.441   0.329   3.282 -1.0650 -1.1660  1.5847
  210DMF     H7 3009   1.459   0.106   3.381 -0.4220  1.6925 -0.9384
  211DMF     C1 3010   2.569   0.707   2.329  0.4005  0.5306  0.6124
  211DMF     N1 3011   2.547   0.565   2.360 -0.0382 -0.0511  0.5172
  211DMF     C2 3012   2.602   0.468   2.269  0.7929 -0.1092 -0.2379
  211DMF     C3 3013   2.504   0.518   2.490 -0.4597 -0.5729  0.2825
  211DMF     O1 3014   2.474   0.595   2.582  0.2077  0.4486  0.0200
  211DMF     H1 3015   2.516   0.775   2.397 -0.8547  0.3795 -0.1821
  211DMF     H2 3016   2.515   0.733   2.237 -2.4197 -1.5735  1.5825
  211DMF     H3 3017   2.674   0.739   2.320  0.4057  0.5731  0.8231
  211DMF     H4 3018   2.706   0.445   2.297  0.4023 -0.7449  0.6907
  211DMF     H5 3019   2.614   0.501   2.165  0.6574  0.9118  0.0647
  211DMF     H6 3020   2.548   0.375   2.249  1.9300 -0.6289 -1.0238
  211DMF     H7 3021   2.499   0.408   2.492  0.8780 -0.6629 -0.9089
  212DMF     C1 3022   3.100   2.650   2.708 -0.6599 -0.4955 -0.4815
  212DMF     N1 3023   3.142   2.791   2.720  1.1858  0.1870 -0.6984
  212DMF     C2 3024   3.233   2.831   2.828  0.1834 -0.4133  0.1112
  212DMF     C3 3025   3.120   2.883   2.619 -0.3072 -0.0045  0.1348
  212DMF     O1 3026   3.054   2.850   2.524  0.2823  0.1692 -0.1089
  212DMF     H1 3027   3.190   2.588   2.699 -0.9701 -1.2690  1.6155
  212DMF     H2 3028   3.032   2.631   2.623 -1.7741 -2.1246  0.7488
  212DMF     H3 3029   3.051   2.616   2.800  3.7814 -2.2581  1.3554
  212DMF     H4 3030   3.217   2.758   2.907  1.4433 -1.4967 -0.6166
  212DMF     H5 3031   3.208   2.933   2.862  0.5052 -0.6429  1.0315
  212DMF     H6 3032   3.334   2.830   2.785 -0.0484  0.6820 -0.4857
  212DMF     H7 3033   3.172   2.979   2.637  0.2210 -0.4581  1.0638
  213DMF     C1 3034   2.863   3.112   1.586 -0.1248  1.1176  0.2914
  213DMF     N1 3035   2.993   3.170   1.536  0.7037  0.3872  0.8508
  213DMF     C2 3036   3.012   3.317   1.557 -0.2010  0.4924  0.3889
  213DMF     C3 3037   3.102   3.076   1.510  0.5979  0.4852 -0.5161
  213DMF     O1 3038   3.085   2.952   1.504 -0.1055 -0.0181  0.3069
  213DMF     H1 3039   2.791   3.124   1.505  0.8156 -1.3157 -0.9461
  213DMF     H2 3040   2.836   3.169   1.676  0.6486 -0.4910  1.5801
  213DMF     H3 3041   2.867   3.008   1.619 -1.8562 -0.0607 -3.0444
  213DMF     H4 3042   2.926   3.386   1.556 -0.7039 -0.1321  0.5258
  213DMF     H5 3043   3.070   3.359   1.474 -0.0117  1.8855  1.2148
  213DMF     H6 3044   3.075   3.333   1.645 -0.5752 -0.7476  0.8868
  213DMF     H7 3045   3.200   3.127   1.506  0.2212  1.2004 -0.6973
  214DMF     C1 3046   1.023   0.741   1.037 -0.1982  0.5980 -0.5035
  214DMF     N1 3047   0.945   0.750   0.914  0.0580  0.4647  0.3873
  214DMF     C2 3048   0.847   0.857   0.902 -1.0760  0.3063  0.2629
  214DMF     C3 3049   0.972   0.668   0.800  0.5696 -0.4293 -0.1291
  214DMF     O1 3050   1.076   0.601   0.785  0.4267 -0.5326  0.5257
  214DMF     H1 3051   0.988   0.815   1.110 -0.8013  1.0655 -1.2599
  214DMF     H2 3052   1.128   0.770   1.020  0.0889 -0.4524 -0.5534
  214DMF     H3 3053   1.011   0.641   1.080  0.3061  0.6002 -0.3489
  214DMF     H4 3054   0.894   0.954   0.880  0.3652 -0.6093 -0.7318
  214DMF     H5 3055   0.808   0.862   1.004 -1.0376 -2.9577  0.4916
  214DMF     H6 3056   0.759   0.847   0.837 -2.4435 -0.2201  2.1397
  214DMF     H7 3057   0.889   0.679   0.728  0.1573 -0.1062  0.3851
  215DMF     C1 3058   0.545   1.937   2.342  0.7161 -0.1611 -0.5565
  215DMF     N1 3059   0.671   1.899   2.281 -0.1639  0.0806 -0.1159
  215DMF     C2 3060   0.766   2.016   2.253  0.7516 -0.2401  0.3224
  215DMF     C3 3061   0.696   1.767   2.235  0.0274  0.2552  0.5635
  215DMF     O1 3062   0.617   1.681   2.264  0.2759  0.3709 -0.1940
  215DMF     H1 3063   0.551   2.014   2.420 -0.4463  0.0114 -0.6223
  215DMF     H2 3064   0.504   1.849   2.392  0.6561 -0.6744 -1.5083
  215DMF     H3 3065   0.483   1.967   2.256  1.2177 -1.4680 -1.3782
  215DMF     H4 3066   0.723   2.114   2.227  1.0683 -0.4706 -1.1063
  215DMF     H5 3067   0.836   2.004   2.170  1.4978  0.6012  0.8238
  215DMF     H6 3068   0.834   2.028   2.338 -0.6376  0.3707  1.3689
  215DMF     H7 3069   0.792   1.755   2.183 -0.0889 -0.5336  0.5229
  216DMF     C1 3070   2.470   1.132   3.031  0.3107  0.7800 -0.3755
  216DMF     N1 3071   2.457   1.273   3.073  0.5705  0.2179  0.0228
  216DMF     C2 3072   2.568   1.334   3.150  0.5256 -0.3509 -0.0579
  216DMF     C3 3073   2.367   1.363   3.011  0.3362  0.5484 -0.2338
  216DMF     O1 3074   2.286   1.330   2.926 -0.3300 -0.3173 -0.1717
  216DMF     H1 3075   2.565   1.106   2.984 -0.0520 -0.7611 -0.2795
  216DMF     H2 3076   2.398   1.113   2.950  0.0184  0.3086 -0.0133
  216DMF     H3 3077   2.450   1.064   3.115 -1.5097  1.9866  0.2031
  216DMF     H4 3078   2.550   1.442   3.157 -0.2117 -0.5585  1.6984
  216DMF     H5 3079   2.660   1.309   3.096  0.1621  1.8614 -1.7811
  216DMF     H6 3080   2.565   1.289   3.250 -0.7441 -0.1914 -0.0183
  216DMF     H7 3081   2.385   1.467   3.044 -2.0473  0.3921  1.7510
  217DMF     C1 3082   0.319   0.263   2.927  0.5007 -0.7776  0.5747
  217DMF     N1 3083   0.362   0.130   2.875 -0.0204  0.3529 -0.2416
  217DMF     C2 3084   0.473   0.132   2.782  0.1519 -0.8215  0.4367
  217DMF     C3 3085   0.307   0.010   2.913 -0.6670  0.4890  0.6263
  217DMF     O1 3086   0.211   0.004   2.990 -0.6123 -0.1577  0.4687
  217DMF     H1 3087   0.244   0.246   3.005  0.7685 -3.3916  0.3085
  217DMF     H2 3088   0.277   0.317   2.841  2.3317 -0.2803 -0.0389
  217DMF     H3 3089   0.400   0.321   2.972  0.4790 -1.0282  0.9361
  217DMF     H4 3090   0.524   0.035   2.790 -0.4666 -1.2087 -0.2408
  217DMF     H5 3091   0.533   0.222   2.800 -1.0042  0.1326 -0.4219
  217DMF     H6 3092   0.431   0.134   2.681 -0.3383 -1.3760  0.6295
  217DMF     H7 3093   0.357  -0.076   2.865 -2.9218 -0.1312 -0.7124
  218DMF     C1 3094   2.598   3.109   3.727 -0.0660  0.0558  0.4486
  218DMF     N1 3095   2.668   3.219   3.800 -0.6177  0.3190 -0.3572
  218DMF     C2 3096   2.812   3.204   3.819  0.1103  0.4202  0.2056
  218DMF     C3 3097   2.600   3.342   3.817 -0.0663  0.2373  0.1357
  218DMF     O1 3098   2.487   3.360   3.777 -0.2719  0.2295 -0.3738
  218DMF     H1 3099   2.606   3.122   3.619 -0.3555  2.1714  0.6654
  218DMF     H2 3100   2.497   3.101   3.770 -1.0488  3.5808 -1.0480
  218DMF     H3 3101   2.658   3.019   3.748  0.6314  0.8799  2.0424
  218DMF     H4 3102   2.870   3.262   3.746 -0.2580 -0.6436 -0.9556
  218DMF     H5 3103   2.844   3.099   3.829 -0.3870  0.5037  3.2494
  218DMF     H6 3104   2.846   3.241   3.916  0.9921 -1.6960  0.7380
  218DMF     H7 3105   2.661   3.421   3.864 -2.6795  2.0662  0.5551
  219DMF     C1 3106   0.577   2.418   1.472  0.1800  0.1733 -0.2392
  219DMF     N1 3107   0.688   2.316   1.447  0.1323 -0.8722  0.4180
  219DMF     C2 3108   0.705   2.219   1.548  0.8271  0.1345 -0.2021
  219DMF     C3 3109   0.775   2.325   1.334  0.3271 -0.3985  0.3296
  219DMF     O1 3110   0.755   2.400   1.238 -0.4471  0.4324 -0.0171
  219DMF     H1 3111   0.577   2.451   1.576  0.1499 -1.6446  0.3440
  219DMF     H2 3112   0.476   2.379   1.456  0.5450 -1.2132  0.7662
  219DMF     H3 3113   0.595   2.504   1.406 -1.4448  0.2007 -0.6659
  219DMF     H4 3114   0.716   2.120   1.502  0.0051 -0.0951  0.0925
  219DMF     H5 3115   0.615   2.215   1.611  0.4234 -0.1803 -0.7921
  219DMF     H6 3116   0.788   2.255   1.610  0.0003  1.4492  0.1672
  219DMF     H7 3117   0.860   2.254   1.333  0.9659  0.3487  0.6051
  220DMF     C1 3118   0.375   1.485   2.484  0.6588 -0.6036  0.0249
  220DMF     N1 3119   0.329   1.579   2.385 -1.1089  0.5237 -0.2788
  220DMF     C2 3120   0.336   1.534   2.236 -0.1034  0.4652  0.0823
  220DMF     C3 3121   0.273   1.701   2.420 -0.1617 -0.7590  0.2130
  220DMF     O1 3122   0.259   1.739   2.536  0.0587  0.3629  0.6532
  220DMF     H1 3123   0.473   1.447   2.453  0.6042 -1.6332  1.1066
  220DMF     H2 3124   0.300   1.405   2.493 -1.3125  1.1767 -0.1299
  220DMF     H3 3125   0.381   1.537   2.580  1.0231 -0.3346 -0.1421
  220DMF     H4 3126   0.344   1.628   2.180  2.4527  0.1186 -0.1897
  220DMF     H5 3127   0.250   1.474   2.204  0.9983 -2.0414  1.6231
  220DMF     H6 3128   0.426   1.473   2.219  0.4697  1.1989  0.4169
  220DMF     H7 3129   0.230   1.746   2.329 -0.6638  1.8412  1.6755
  221DMF     C1 3130   1.494   0.008   1.201  0.3005  0.0668  0.1253
  221DMF     N1 3131   1.575  -0.087   1.123  0.4541  0.1142  0.6060
  221DMF     C2 3132   1.573  -0.222   1.167  0.1564 -0.2727 -0.0191
  221DMF     C3 3133   1.656  -0.032   1.024  0.5744  0.1548 -0.2209
  221DMF     O1 3134   1.658   0.082   0.977  0.2813  0.9800 -0.3881
  221DMF     H1 3135   1.560   0.092   1.225  1.5621 -1.0174  0.4777
  221DMF     H2 3136   1.449  -0.035   1.291 -0.4268 -1.1678 -0.8189
  221DMF     H3 3137   1.408   0.037   1.139 -1.3817 -0.6985  2.0581
  221DMF     H4 3138   1.611  -0.225   1.270  1.9055  2.1022 -0.5681
  221DMF     H5 3139   1.629  -0.282   1.095 -1.8962 -1.1872 -0.8920
  221DMF     H6 3140   1.469  -0.258   1.165  0.4333 -1.3979  2.5958
  221DMF     H7 3141   1.727  -0.105   0.980 -0.3182  0.4498 -2.2119
  222DMF     C1 3142   1.324   2.175   3.726 -0.4160  0.4050 -0.4006
  222DMF     N1 3143   1.320   2.280   3.821 -0.1099 -0.2571  0.6070
  222DMF     C2 3144   1.285   2.412   3.769 -0.3379  0.1052  0.2972
  222DMF     C3 3145   1.341   2.264   3.953  0.0693 -0.0047  0.3647
  222DMF     O1 3146   1.379   2.155   3.999  0.6256 -0.0292  0.2889
  222DMF     H1 3147   1.278   2.204   3.630  1.5918 -1.4887 -1.9853
  222DMF     H2 3148   1.281   2.079   3.759  0.1844 -0.1917 -1.3178
  222DMF     H3 3149   1.430   2.164   3.700 -0.4218 -0.1220 -0.2002
  222DMF     H4 3150   1.206   2.396   3.694  0.3989 -2.9572  0.1210
  222DMF     H5 3151   1.373   2.448   3.715  0.7794 -2.4661  0.3612
  222DMF     H6 3152   1.264   2.483   3.850  1.6674  2.2475 -1.0258
  222DMF     H7 3153   1.329   2.357   4.011  1.2946  0.0773  0.4917
  223DMF     C1 3154   2.443   0.108   2.609 -0.1680  1.1480  0.4860
  223DMF     N1 3155   2.434   0.232   2.695  0.5341  0.5569  0.5061
  223DMF     C2 3156   2.305   0.313   2.701  0.4829  0.1671  1.3048
  223DMF     C3 3157   2.537   0.253   2.778  0.0232 -0.4804  0.1447
  223DMF     O1 3158   2.641   0.196   2.779  0.0090 -0.1891 -0.1305
  223DMF     H1 3159   2.528   0.119   2.541  0.4305  0.5433  1.1366
  223DMF     H2 3160   2.353   0.098   2.546  0.2493 -1.0518  0.2051
  223DMF     H3 3161   2.441   0.028   2.684  1.2960  1.2321  0.6306
  223DMF     H4 3162   2.233   0.268   2.632  1.2108  0.2573  0.4827
  223DMF     H5 3163   2.321   0.416   2.667  0.2354  0.4863  2.1380
  223DMF     H6 3164   2.271   0.315   2.806 -1.3350 -2.3671  0.8131
  223DMF     H7 3165   2.520   0.335   2.850 -1.8043 -0.6400 -0.0740
  224DMF     C1 3166   1.869   1.664   3.349 -0.5396  0.2998  0.5980
  224DMF     N1 3167   1.771   1.677   3.241 -0.3363 -0.3542  0.1587
  224DMF     C2 3168   1.824   1.654   3.104  0.2987  0.2294 -0.3419
  224DMF     C3 3169   1.634   1.679   3.268 -0.5259 -0.3411  0.8579
  224DMF     O1 3170   1.590   1.670   3.379 -0.4091 -0.4615 -0.0689
  224DMF     H1 3171   1.965   1.691   3.303 -1.2181  0.7719 -0.5657
  224DMF     H2 3172   1.867   1.561   3.387 -2.1707  0.4508  0.9421
  224DMF     H3 3173   1.843   1.728   3.435 -2.0514  0.4668  0.0419
  224DMF     H4 3174   1.740   1.607   3.050  1.3170  1.3027 -2.9721
  224DMF     H5 3175   1.912   1.589   3.111  0.3857  0.6858  3.7409
  224DMF     H6 3176   1.839   1.755   3.063  0.7415  0.7757  1.1544
  224DMF     H7 3177   1.574   1.677   3.175  0.4288  1.1313  0.1927
  225DMF     C1 3178   3.290   0.804   3.095  0.2247 -0.1558  0.4036
  225DMF     N1 3179   3.146   0.764   3.088 -0.1138 -0.6812 -0.1611
  225DMF     C2 3180   3.093   0.716   2.960  0.6869 -0.4496  0.1439
  225DMF     C3 3181   3.051   0.803   3.180  1.0652  0.1220 -0.0844
  225DMF     O1 3182   3.079   0.876   3.276 -0.4989  0.0549 -0.3706
  225DMF     H1 3183   3.341   0.777   3.002  1.6541  1.5292  0.6554
  225DMF     H2 3184   3.333   0.762   3.186  1.4250 -0.9079 -0.4901
  225DMF     H3 3185   3.306   0.912   3.103  3.4451 -0.7000  1.9617
  225DMF     H4 3186   3.177   0.676   2.901  1.2067  0.4566  0.2705
  225DMF     H5 3187   3.057   0.802   2.903 -1.4533  0.3640  2.6223
  225DMF     H6 3188   3.010   0.645   2.973  0.2754 -0.1368 -0.7419
  225DMF     H7 3189   2.945   0.781   3.156  1.9208 -1.1017 -2.9393
  226DMF     C1 3190   0.488   2.852   3.132 -0.8910  0.0737 -0.5941
  226DMF     N1 3191   0.569   2.726   3.140  0.3492  0.2151  0.1406
  226DMF     C2 3192   0.506   2.598   3.154 -0.3289  0.4224  0.1030
  226DMF     C3 3193   0.704   2.734   3.110 -0.3668 -0.1690 -0.2560
  226DMF     O1 3194   0.771   2.841   3.110  0.4674 -0.1477  0.5226
  226DMF     H1 3195   0.544   2.936   3.175 -2.3228  0.8575 -0.2286
  226DMF     H2 3196   0.401   2.844   3.198 -0.2065  0.3224  0.3636
  226DMF     H3 3197   0.464   2.875   3.028  0.5664 -0.0822 -0.9800
  226DMF     H4 3198   0.574   2.520   3.192 -0.2189  0.6625  0.4013
  226DMF     H5 3199   0.479   2.565   3.053 -1.0336  0.1087  0.3913
  226DMF     H6 3200   0.418   2.597   3.220 -2.1805  1.9559 -2.2865
  226DMF     H7 3201   0.741   2.633   3.086  1.2855  0.5357 -0.7547
  227DMF     C1 3202   1.231   0.281   0.950 -0.1972 -0.4079 -0.1763
  227DMF     N1 3203   1.141   0.166   0.970 -0.5340  0.3903 -0.5141
  227DMF     C2 3204   1.114   0.071   0.866 -0.3145  0.7912  0.2121
  227DMF     C3 3205   1.111   0.110   1.098  0.0407  0.6153 -0.6273
  227DMF     O1 3206   1.175   0.146   1.194 -0.0303  0.1878 -0.5762
  227DMF     H1 3207   1.187   0.348   0.875 -0.8957  0.0668  0.6432
  227DMF     H2 3208   1.330   0.239   0.931 -0.0090 -0.9295  1.8444
  227DMF     H3 3209   1.233   0.340   1.042  1.5231 -0.0620 -0.4317
  227DMF     H4 3210   1.007   0.047   0.858 -0.1917  0.3153 -0.0386
  227DMF     H5 3211   1.166  -0.020   0.900  0.7000  0.3498 -2.3859
  227DMF     H6 3212   1.153   0.106   0.770 -1.0585  2.3626  0.4728
  227DMF     H7 3213   1.061   0.011   1.098  0.0001  0.6349  0.1889
  228DMF     C1 3214   3.258   3.315   2.653  0.2852 -0.8611 -0.2488
  228DMF     N1 3215   3.360   3.415   2.701 -0.2564 -0.1919 -0.0513
  228DMF     C2 3216   3.314   3.534   2.782  0.6792 -0.5081 -0.4448
  228DMF     C3 3217   3.488   3.429   2.646 -0.6665  0.4683 -0.6204
  228DMF     O1 3218   3.539   3.368   2.562  0.6017  0.2668 -0.4070
  228DMF     H1 3219   3.209   3.264   2.737 -2.6226  1.3569 -0.5174
  228DMF     H2 3220   3.287   3.241   2.578 -1.9689  0.2757 -2.3292
  228DMF     H3 3221   3.185   3.371   2.593  0.4715 -1.9095 -1.4793
  228DMF     H4 3222   3.232   3.583   2.728 -1.4206 -0.4118  2.6911
  228DMF     H5 3223   3.400   3.600   2.798 -0.6177  1.0424  0.2994
  228DMF     H6 3224   3.274   3.498   2.877 -0.5237 -0.7246 -1.0251
  228DMF     H7 3225   3.546   3.511   2.692  0.1784 -0.6060  0.2944
  229DMF     C1 3226   2.637   3.279   1.080 -0.0841 -0.2764  0.0351
  229DMF     N1 3227   2.719   3.385   1.151  0.2092 -0.2140  0.0308
  229DMF     C2 3228   2.837   3.338   1.232 -0.0409 -0.1624  0.3434
  229DMF     C3 3229   2.683   3.520   1.144  0.2675  0.0360  0.0084
  229DMF     O1 3230   2.596   3.562   1.069  0.0344  0.0445  0.4284
  229DMF     H1 3231   2.555   3.328   1.026 -1.6547  0.2177  2.7885
  229DMF     H2 3232   2.595   3.205   1.149  0.2762 -0.3443  0.1839
  229DMF     H3 3233   2.708   3.227   1.014  0.6725 -2.0762  2.1818
  229DMF     H4 3234   2.905   3.416   1.269  0.6168  0.1786 -1.5270
  229DMF     H5 3235   2.892   3.276   1.159 -0.0373 -0.4184  0.5622
  229DMF     H6 3236   2.797   3.274   1.312  0.5934  1.0910  1.6810
  229DMF     H7 3237   2.741   3.584   1.212  1.8508 -1.7897  0.4361
  230DMF     C1 3238   2.133   1.010   3.531 -0.3995 -0.1045 -0.2372
  230DMF     N1 3239   2.230   1.022   3.637 -0.0075 -0.2283 -0.3996
  230DMF     C2 3240   2.218   1.117   3.746 -0.4852  0.1888  1.5959
  230DMF     C3 3241   2.348   0.946   3.630  0.8413  0.6602  0.0188
  230DMF     O1 3242   2.359   0.846   3.563  0.3668 -0.0359  0.1723
  230DMF     H1 3243   2.186   0.954   3.453 -1.1891 -1.4916  0.2168
  230DMF     H2 3244   2.094   1.095   3.472  0.1689  1.4078  1.5149
  230DMF     H3 3245   2.054   0.948   3.573  0.7136 -0.6848  1.0036
  230DMF     H4 3246   2.314   1.170   3.754 -0.6313  1.5646 -3.5166
  230DMF     H5 3247   2.207   1.073   3.845  0.6336 -2.0055  0.7608
  230DMF     H6 3248   2.135   1.185   3.720 -0.6790 -1.1179 -1.4741
  230DMF     H7 3249   2.423   0.995   3.695  0.1364  0.8689  0.6951
  231DMF     C1 3250   2.840   0.611   0.071  0.5803 -0.7881  0.7351
  231DMF     N1 3251   2.792   0.750   0.039 -0.3324  0.0333  0.1793
  231DMF     C2 3252   2.665   0.796   0.109 -0.1066 -0.0762 -0.2420
  231DMF     C3 3253   2.883   0.846  -0.008 -0.3658  0.0710 -0.2110
  231DMF     O1 3254   2.990   0.813  -0.058  0.2907  0.1805  0.3034
  231DMF     H1 3255   2.930   0.621   0.133  1.1467 -3.0316  0.3359
  231DMF     H2 3256   2.874   0.569  -0.025 -4.2252 -1.3307 -0.8348
  231DMF     H3 3257   2.765   0.549   0.122  1.0125 -0.3549  1.9231
  231DMF     H4 3258   2.599   0.838   0.033 -0.2358  1.0092  0.4599
  231DMF     H5 3259   2.691   0.870   0.186  0.1633 -0.9883  0.5511
  231DMF     H6 3260   2.616   0.703   0.140 -0.9191  0.6192  0.5836
  231DMF     H7 3261   2.851   0.952  -0.005 -1.6341 -0.2635 -1.2677
  232DMF     C1 3262   1.513   0.620   3.456  0.0016 -0.6171  0.0876
  232DMF     N1 3263   1.461   0.753   3.448 -0.3758  0.0900  0.8387
  232DMF     C2 3264   1.549   0.864   3.471 -0.0297  0.0357 -0.5663
  232DMF     C3 3265   1.330   0.767   3.404  0.3207  0.0462  0.0038
  232DMF     O1 3266   1.252   0.677   3.371 -0.4307  0.0014 -0.3252
  232DMF     H1 3267   1.606   0.604   3.400 -0.2497 -2.0936  0.0722
  232DMF     H2 3268   1.438   0.548   3.421 -1.4081  0.8895 -0.0570
  232DMF     H3 3269   1.526   0.603   3.564 -0.1670 -0.5674  0.1152
  232DMF     H4 3270   1.636   0.833   3.530  0.4791  0.0431 -1.3089
  232DMF     H5 3271   1.498   0.945   3.524 -0.7616 -0.0063 -1.1853
  232DMF     H6 3272   1.590   0.890   3.372  0.4945 -1.2687 -0.7020
  232DMF     H7 3273   1.299   0.872   3.387  0.1365  0.2951  1.7302
  233DMF     C1 3274   2.286   3.176   0.241  0.3085 -0.0052 -0.5009
  233DMF     N1 3275   2.286   3.250   0.371  0.1709  0.7552  0.3636
  233DMF     C2 3276   2.158   3.269   0.432 -0.4514  0.3246 -0.0951
  233DMF     C3 3277   2.398   3.323   0.419 -0.8026  0.4336  0.4971
  233DMF     O1 3278   2.495   3.324   0.342  0.2911 -0.2854 -0.3745
  233DMF     H1 3279   2.214   3.222   0.172 -0.6686 -0.3839  0.2457
  233DMF     H2 3280   2.241   3.076   0.246  2.9000 -1.1252  1.2182
  233DMF     H3 3281   2.386   3.174   0.196  0.6587 -0.3903  0.2949
  233DMF     H4 3282   2.126   3.171   0.470  1.4410 -0.3029 -0.0942
  233DMF     H5 3283   2.082   3.310   0.364  0.1059  1.2958 -0.1446
  233DMF     H6 3284   2.163   3.340   0.516 -0.0190  0.4245 -0.2063
  233DMF     H7 3285   2.394   3.367   0.520  0.8432  0.0326  0.7501
  234DMF     C1 3286   1.130   1.230   2.618  0.4091  0.3282 -0.0670
  234DMF     N1 3287   1.231   1.163   2.533  0.6312 -0.5906 -0.5071
  234DMF     C2 3288   1.347   1.116   2.601  0.2750 -0.3860 -0.4321
  234DMF     C3 3289   1.216   1.147   2.394  0.1337  0.7375 -0.1536
  234DMF     O1 3290   1.114   1.176   2.339 -0.4973 -0.6761  0.5832
  234DMF     H1 3291   1.125   1.192   2.721 -1.3661 -2.6201 -1.1668
  234DMF     H2 3292   1.030   1.219   2.573  0.7260  2.1556 -1.2476
  234DMF     H3 3293   1.147   1.338   2.618 -2.3024  0.8037 -1.0941
  234DMF     H4 3294   1.425   1.191   2.585 -0.2369 -0.0414 -1.3599
  234DMF     H5 3295   1.380   1.015   2.573 -3.0364 -1.5089 -0.4733
  234DMF     H6 3296   1.345   1.133   2.709 -1.6642  1.6569 -0.7502
  234DMF     H7 3297   1.296   1.090   2.343  0.6132 -1.5159  2.9712
  235DMF     C1 3298   1.655   1.805   0.170  0.0342  0.2496 -0.6157
  235DMF     N1 3299   1.674   1.746   0.035 -0.9483  0.3783  0.3649
  235DMF     C2 3300   1.678   1.829  -0.083  0.1192  0.2093  0.3950
  235DMF     C3 3301   1.681   1.607   0.027  0.3162  0.8432  0.1770
  235DMF     O1 3302   1.670   1.529   0.111  0.1277 -0.3879 -0.4908
  235DMF     H1 3303   1.669   1.722   0.240 -1.3754 -0.5466 -1.2533
  235DMF     H2 3304   1.550   1.837   0.171  0.0829  0.4388 -1.1543
  235DMF     H3 3305   1.724   1.887   0.193  0.9751 -0.8395  0.4708
  235DMF     H4 3306   1.647   1.933  -0.066 -0.4576  0.3418 -1.3555
  235DMF     H5 3307   1.618   1.792  -0.167  2.4208 -1.0187 -0.7507
  235DMF     H6 3308   1.783   1.846  -0.107  0.3460 -0.7069  0.7098
  235DMF     H7 3309   1.686   1.574  -0.078 -0.3538  0.4926  0.2495
  236DMF     C1 3310   1.330   0.726   2.273  0.1439  0.3782  0.7715
  236DMF     N1 3311   1.476   0.724   2.269 -0.0992 -0.0491  0.1777
  236DMF     C2 3312   1.541   0.598   2.235 -0.6214  0.1263 -0.3534
  236DMF     C3 3313   1.552   0.842   2.279  0.2720  0.0344 -0.1303
  236DMF     O1 3314   1.501   0.952   2.296  0.4364  0.5773 -0.0863
  236DMF     H1 3315   1.299   0.819   2.323  0.0512  0.7204  0.0771
  236DMF     H2 3316   1.294   0.638   2.329  3.2299 -1.5841 -0.2205
  236DMF     H3 3317   1.286   0.722   2.172  0.7811  0.2327  0.5004
  236DMF     H4 3318   1.501   0.527   2.309 -0.4625  0.4692  0.0605
  236DMF     H5 3319   1.650   0.611   2.243 -0.6782 -0.1843  1.1367
  236DMF     H6 3320   1.514   0.569   2.132 -1.9203 -1.1751  0.3260
  236DMF     H7 3321   1.661   0.825   2.272  0.0577 -0.7673 -1.9922
  237DMF     C1 3322   0.598   1.167   2.245 -0.0103 -0.1809 -0.0166
  237DMF     N1 3323   0.708   1.186   2.335  0.1315  0.1741 -0.3567
  237DMF     C2 3324   0.758   1.321   2.365  0.1744 -1.1207  0.0748
  237DMF     C3 3325   0.776   1.079   2.395  0.0899 -0.1207 -0.3315
  237DMF     O1 3326   0.745   0.964   2.373  0.6282 -0.0400 -0.0585
  237DMF     H1 3327   0.503   1.203   2.288  1.0314  2.1580  0.3572
  237DMF     H2 3328   0.589   1.059   2.224 -1.3364  0.1312 -1.0693
  237DMF     H3 3329   0.627   1.214   2.151  0.6448 -1.3752 -0.4170
  237DMF     H4 3330   0.867   1.321   2.375  0.3114 -0.4282 -1.2145
  237DMF     H5 3331   0.712   1.362   2.456  2.1802  2.2949 -0.3716
  237DMF     H6 3332   0.738   1.390   2.282  1.5021  0.0397  0.7030
  237DMF     H7 3333   0.854   1.119   2.463 -0.7287  0.8919  0.0223
  238DMF     C1 3334   0.194   2.701   1.038 -0.1798 -0.2032  0.2872
  238DMF     N1 3335   0.287   2.612   1.103 -0.1984  0.2043 -0.1533
  238DMF     C2 3336   0.321   2.485   1.038  0.8599  0.3516 -0.8139
  238DMF     C3 3337   0.353   2.646   1.223  0.0400  0.0267 -0.1473
  238DMF     O1 3338   0.332   2.746   1.290 -0.6217 -0.8087  0.6177
  238DMF     H1 3339   0.102   2.643   1.019  0.2512 -0.7592 -0.1329
  238DMF     H2 3340   0.234   2.728   0.939 -0.8186  1.6583  0.5264
  238DMF     H3 3341   0.176   2.783   1.108 -1.3498 -0.8192  0.7148
  238DMF     H4 3342   0.233   2.444   0.987  1.7091  1.4388 -3.1784
  238DMF     H5 3343   0.357   2.408   1.109  0.6308 -0.2579 -1.3559
  238DMF     H6 3344   0.403   2.501   0.968 -0.2239  2.4793 -1.6133
  238DMF     H7 3345   0.428   2.571   1.254 -0.4888  0.4084  2.1384
  239DMF     C1 3346   0.177   0.045   0.666 -0.5624 -0.0860  0.2327
  239DMF     N1 3347   0.157   0.188   0.656 -1.0541  0.4475  0.9031
  239DMF     C2 3348   0.024   0.238   0.665  0.2833  0.4957 -0.4082
  239DMF     C3 3349   0.263   0.276   0.646  0.1028  0.4059 -0.6359
  239DMF     O1 3350   0.378   0.238   0.637 -0.0032  0.7361  0.0795
  239DMF     H1 3351   0.225   0.007   0.575 -0.3485 -0.5933  0.5575
  239DMF     H2 3352   0.079   0.001   0.689 -0.2659 -1.5032 -1.1244
  239DMF     H3 3353   0.253   0.020   0.742 -0.8091  2.2458  1.3025
  239DMF     H4 3354  -0.007   0.251   0.561  2.0826  0.4994 -0.9701
  239DMF     H5 3355   0.015   0.329   0.725  1.5013  0.5529 -0.2919
  239DMF     H6 3356  -0.038   0.167   0.721 -0.8424  1.6791 -0.1423
  239DMF     H7 3357   0.238   0.384   0.643  0.5772  0.5345 -0.0493
  240DMF     C1 3358   0.583   0.768   0.582 -0.4149 -0.5817  1.1526
  240DMF     N1 3359   0.503   0.638   0.592  0.6692  0.2126  0.3396
  240DMF     C2 3360   0.367   0.642   0.535  0.1724  0.3313 -0.2064
  240DMF     C3 3361   0.551   0.542   0.680  0.5136  0.1283  0.0559
  240DMF     O1 3362   0.659   0.544   0.739 -0.0101  0.1602 -0.3075
  240DMF     H1 3363   0.688   0.761   0.614 -0.6240  0.1620  2.0052
  240DMF     H2 3364   0.537   0.847   0.643  3.6995  1.7796  1.4349
  240DMF     H3 3365   0.596   0.807   0.480  0.1559  2.1740  2.2309
  240DMF     H4 3366   0.327   0.744   0.543  0.0407  0.2752 -0.1519
  240DMF     H5 3367   0.302   0.566   0.580  0.8965 -0.7374 -0.9564
  240DMF     H6 3368   0.364   0.605   0.432  1.2157 -0.1819 -0.0512
  240DMF     H7 3369   0.478   0.461   0.697  2.2845 -1.3504  0.9215
  241DMF     C1 3370   0.935   0.331   0.617 -0.5477 -0.0491  0.5791
  241DMF     N1 3371   0.838   0.214   0.611  0.2620  0.6123  0.0508
  241DMF     C2 3372   0.704   0.234   0.663 -0.7069  0.6762 -0.6519
  241DMF     C3 3373   0.893   0.087   0.573 -0.0642  0.3259 -1.1107
  241DMF     O1 3374   1.013   0.077   0.544 -0.1094  0.5385  0.1158
  241DMF     H1 3375   1.016   0.302   0.685 -0.7951 -1.0589  0.4521
  241DMF     H2 3376   0.893   0.423   0.661 -1.3108 -0.8168  1.4986
  241DMF     H3 3377   0.977   0.364   0.522 -0.3919 -0.9873  0.3183
  241DMF     H4 3378   0.649   0.293   0.589 -0.4454  1.1762 -0.4505
  241DMF     H5 3379   0.703   0.292   0.756  0.0256  1.5562 -1.1901
  241DMF     H6 3380   0.648   0.139   0.664  0.8491 -0.2798  2.1158
  241DMF     H7 3381   0.823   0.004   0.590 -0.9525  0.7263 -2.6891
  242DMF     C1 3382   3.150   1.340   0.864  0.4761 -0.5354  0.1738
  242DMF     N1 3383   3.045   1.411   0.777  0.1324 -0.3239  0.5943
  242DMF     C2 3384   2.917   1.347   0.756  0.0086  0.7638 -0.3546
  242DMF     C3 3385   3.077   1.536   0.718  0.3052 -0.1253 -0.7523
  242DMF     O1 3386   3.183   1.589   0.739  0.1889 -0.5722  0.6418
  242DMF     H1 3387   3.218   1.412   0.911  0.5817 -0.9307  0.6239
  242DMF     H2 3388   3.198   1.258   0.809  1.5210 -1.3664  2.2907
  242DMF     H3 3389   3.088   1.299   0.944 -0.2317 -1.9120 -1.0494
  242DMF     H4 3390   2.909   1.245   0.796 -0.9787  0.6896 -0.7392
  242DMF     H5 3391   2.915   1.334   0.647  1.2954  0.7388 -0.3810
  242DMF     H6 3392   2.844   1.419   0.795  0.3566  1.3287 -0.7344
  242DMF     H7 3393   2.997   1.577   0.653  1.6775  0.1768 -2.2623
  243DMF     C1 3394   1.499   1.902   2.261  0.2580 -0.2389 -0.0770
  243DMF     N1 3395   1.635   1.846   2.272  0.0781 -0.5888  0.4895
  243DMF     C2 3396   1.748   1.942   2.295 -0.3902  0.1651 -0.0134
  243DMF     C3 3397   1.650   1.711   2.243  0.3229 -0.2819  0.9719
  243DMF     O1 3398   1.561   1.632   2.218 -0.0354  0.1409  0.5222
  243DMF     H1 3399   1.461   1.906   2.364 -0.3316 -0.0305 -0.3020
  243DMF     H2 3400   1.433   1.849   2.191 -0.8547  0.2219  0.6073
  243DMF     H3 3401   1.506   2.007   2.230  1.4852 -0.2164  0.2537
  243DMF     H4 3402   1.704   2.041   2.283 -0.2947  0.0606 -1.3691
  243DMF     H5 3403   1.828   1.932   2.220 -1.4639 -1.5552 -0.9696
  243DMF     H6 3404   1.789   1.923   2.395 -1.7404 -0.0451  0.5066
  243DMF     H7 3405   1.756   1.679   2.237  0.2330 -0.5607  0.8771
  244DMF     C1 3406   0.599   1.207   0.561  0.5134 -0.1626 -0.5470
  244DMF     N1 3407   0.495   1.288   0.639 -0.1072  0.0020  0.5507
  244DMF     C2 3408   0.544   1.358   0.762 -0.0202  0.8007 -0.1421
  244DMF     C3 3409   0.359   1.308   0.598  0.3257  0.5286 -0.0225
  244DMF     O1 3410   0.318   1.273   0.491  0.5724  0.3087  0.4657
  244DMF     H1 3411   0.692   1.261   0.543  0.0292  1.0547  0.5359
  244DMF     H2 3412   0.551   1.182   0.466  0.1630 -1.4976 -0.0435
  244DMF     H3 3413   0.627   1.116   0.616 -1.2851  0.4037  1.3832
  244DMF     H4 3414   0.628   1.294   0.793  0.0218  0.6958 -0.4734
  244DMF     H5 3415   0.471   1.346   0.843 -0.8854  1.2112 -0.8521
  244DMF     H6 3416   0.560   1.465   0.750 -0.8175  0.8386 -0.9253
  244DMF     H7 3417   0.299   1.354   0.679 -0.0064 -0.1916  0.1415
  245DMF     C1 3418   1.803   0.630   1.052  0.0547 -0.3805 -0.1927
  245DMF     N1 3419   1.743   0.503   1.039  0.6736 -0.1463 -0.4462
  245DMF     C2 3420   1.643   0.457   1.138 -0.0610 -0.2322 -0.8656
  245DMF     C3 3421   1.794   0.417   0.937  0.5533 -0.0691  0.1935
  245DMF     O1 3422   1.874   0.452   0.854  0.2135 -0.1215 -0.1754
  245DMF     H1 3423   1.767   0.681   1.143  1.7223  1.6097 -0.6214
  245DMF     H2 3424   1.780   0.694   0.966  2.1378  1.6492  0.7183
  245DMF     H3 3425   1.910   0.625   1.076 -0.2872  1.2273  1.9057
  245DMF     H4 3426   1.550   0.515   1.140  0.2900  0.3414 -1.0030
  245DMF     H5 3427   1.688   0.470   1.237 -0.4381  0.0361 -0.7289
  245DMF     H6 3428   1.628   0.348   1.128 -1.5804 -0.2799  1.5357
  245DMF     H7 3429   1.747   0.317   0.944 -1.8221  1.0884  1.6142
  246DMF     C1 3430   2.536   2.636   1.284 -0.4351 -0.5276  0.5528
  246DMF     N1 3431   2.431   2.631   1.380  0.1208  0.1248 -0.2135
  246DMF     C2 3432   2.464   2.562   1.510  0.1526 -0.2255  0.6512
  246DMF     C3 3433   2.298   2.676   1.352 -0.2867  0.0002 -0.5634
  246DMF     O1 3434   2.269   2.732   1.246  0.3486 -0.4059 -0.3023
  246DMF     H1 3435   2.603   2.552   1.307 -0.4551 -0.2727  1.5929
  246DMF     H2 3436   2.588   2.732   1.293  1.0100 -1.4464  2.2407
  246DMF     H3 3437   2.498   2.619   1.183 -1.2003 -0.2960  0.7919
  246DMF     H4 3438   2.550   2.604   1.564 -0.0053  0.0388  0.6956
  246DMF     H5 3439   2.478   2.456   1.484  1.4496  0.6851 -2.6108
  246DMF     H6 3440   2.377   2.569   1.577 -1.4945  1.3077 -1.5945
  246DMF     H7 3441   2.235   2.666   1.442  0.2576  0.3941 -0.1305
  247DMF     C1 3442   2.869   2.331   2.227 -0.0625  0.3938 -0.7401
  247DMF     N1 3443   2.767   2.370   2.322 -0.0111 -0.2427  0.0686
  247DMF     C2 3444   2.647   2.443   2.273  0.1666  0.0604 -0.4528
  247DMF     C3 3445   2.780   2.342   2.461 -0.2859  0.2696 -0.0291
  247DMF     O1 3446   2.884   2.303   2.513  0.0392  0.4894  0.4325
  247DMF     H1 3447   2.903   2.416   2.166  0.0723  2.1607  1.7109
  247DMF     H2 3448   2.843   2.255   2.153  0.8485 -1.3356  0.7036
  247DMF     H3 3449   2.952   2.278   2.274 -0.6376 -1.2026 -1.4987
  247DMF     H4 3450   2.568   2.368   2.266 -0.0520  0.2810 -0.3518
  247DMF     H5 3451   2.672   2.493   2.178 -1.9606  0.3416 -0.8817
  247DMF     H6 3452   2.623   2.518   2.350 -0.4312 -1.6164  1.0193
  247DMF     H7 3453   2.687   2.366   2.516 -0.5670 -1.7280  0.4127
  248DMF     C1 3454   2.151   3.345   3.375  0.4333 -0.0728  0.0844
  248DMF     N1 3455   2.179   3.352   3.521  0.2646 -0.3187  0.2687
  248DMF     C2 3456   2.199   3.493   3.578 -0.2527  0.6577 -1.0742
  248DMF     C3 3457   2.235   3.238   3.585  0.2208 -0.6531  0.1855
  248DMF     O1 3458   2.271   3.141   3.519 -0.0126  0.2365  0.1051
  248DMF     H1 3459   2.052   3.303   3.354  0.2463  1.2791 -1.9687
  248DMF     H2 3460   2.217   3.275   3.322 -3.0274 -1.8800 -2.0753
  248DMF     H3 3461   2.153   3.447   3.334  1.4180  0.2857  1.0219
  248DMF     H4 3462   2.239   3.563   3.504 -2.4479  1.7030 -1.3186
  248DMF     H5 3463   2.255   3.489   3.672 -1.3309  1.2403 -0.3953
  248DMF     H6 3464   2.101   3.539   3.599 -1.0029 -0.7338 -1.4566
  248DMF     H7 3465   2.251   3.235   3.695 -2.2625 -1.9759  0.5454
  249DMF     C1 3466   2.369   1.879   1.185  0.0556 -0.1314  0.3038
  249DMF     N1 3467   2.481   1.869   1.091 -0.1492  0.1265 -0.5334
  249DMF     C2 3468   2.621   1.885   1.144  0.0349 -0.2768  0.0039
  249DMF     C3 3469   2.460   1.836   0.960  0.2318  0.4194 -0.0903
  249DMF     O1 3470   2.350   1.798   0.916  0.7443  0.1068  0.5312
  249DMF     H1 3471   2.364   1.786   1.243 -2.6459  0.0231  0.3760
  249DMF     H2 3472   2.273   1.907   1.141 -0.7652 -0.2171  2.0308
  249DMF     H3 3473   2.390   1.966   1.248  0.8914  0.6824 -1.0777
  249DMF     H4 3474   2.619   1.848   1.247 -0.9403 -1.6294 -0.4766
  249DMF     H5 3475   2.653   1.988   1.126 -1.8881  0.1732 -0.9561
  249DMF     H6 3476   2.690   1.812   1.100 -3.7976 -2.9163 -1.9931
  249DMF     H7 3477   2.555   1.839   0.905  1.0241  0.1144  1.2460
  250DMF     C1 3478   1.512   2.672   2.505 -0.0186 -0.5942 -0.3235
  250DMF     N1 3479   1.440   2.724   2.392 -0.2527 -0.2135 -0.2414
  250DMF     C2 3480   1.505   2.702   2.257  0.1277 -0.6749  0.1624
  250DMF     C3 3481   1.308   2.775   2.401  0.4433  0.2012  0.3298
  250DMF     O1 3482   1.262   2.810   2.510 -0.1704 -0.2868 -0.6052
  250DMF     H1 3483   1.478   2.702   2.604  0.0256  0.5835 -0.6610
  250DMF     H2 3484   1.613   2.712   2.489 -0.7372  1.6843  0.6089
  250DMF     H3 3485   1.508   2.562   2.506 -1.0852 -0.5541  2.2284
  250DMF     H4 3486   1.534   2.597   2.242 -2.7041 -1.3559 -0.7865
  250DMF     H5 3487   1.597   2.762   2.262 -1.7610  2.4699 -1.2789
  250DMF     H6 3488   1.445   2.738   2.173  3.4552  2.0232 -1.1606
  250DMF     H7 3489   1.258   2.799   2.305 -0.5018  2.2980  1.3189
  251DMF     C1 3490   3.311   2.334   0.687  0.6633 -0.4130  0.6062
  251DMF     N1 3491   3.357   2.283   0.814  0.0608 -0.0059 -0.4368
  251DMF     C2 3492   3.501   2.260   0.846  0.1256 -0.1636 -0.5337
  251DMF     C3 3493   3.261   2.253   0.915  0.5519  0.0222  0.1398
  251DMF     O1 3494   3.141   2.283   0.906  0.6169  0.5791  0.7396
  251DMF     H1 3495   3.316   2.444   0.692  2.6357 -0.3452 -1.9173
  251DMF     H2 3496   3.208   2.298   0.674  0.9961 -1.1605  0.0211
  251DMF     H3 3497   3.374   2.299   0.605 -1.3044 -1.0632 -0.6636
  251DMF     H4 3498   3.516   2.293   0.949  2.2870 -1.8613 -0.2690
  251DMF     H5 3499   3.559   2.328   0.783 -1.9860  2.4601  0.2539
  251DMF     H6 3500   3.516   2.153   0.823 -0.4518  0.1481 -2.5210
  251DMF     H7 3501   3.300   2.198   1.002  2.0799 -0.3438 -0.7532
  252DMF     C1 3502   3.387   2.912   1.545 -0.8282 -0.1193 -0.3157
  252DMF     N1 3503   3.396   2.891   1.404 -0.7965 -0.0859  0.0620
  252DMF     C2 3504   3.290   2.815   1.331 -0.1820 -0.0839 -0.4966
  252DMF     C3 3505   3.479   2.969   1.332  0.8268  0.3221  0.0251
  252DMF     O1 3506   3.554   3.049   1.381  0.3964  0.3848 -0.2649
  252DMF     H1 3507   3.314   2.842   1.587 -2.4542  1.9387  0.3659
  252DMF     H2 3508   3.344   3.010   1.568 -0.9519 -0.0383 -0.8893
  252DMF     H3 3509   3.485   2.894   1.591 -1.3525 -2.0571  0.1182
  252DMF     H4 3510   3.222   2.887   1.283  0.2059 -0.9064 -2.3358
  252DMF     H5 3511   3.229   2.752   1.396 -1.7442  0.7118 -1.1624
  252DMF     H6 3512   3.327   2.743   1.256 -0.5395 -0.1244 -0.6405
  252DMF     H7 3513   3.479   2.952   1.222 -2.6663  3.4381 -0.5186
  253DMF     C1 3514   2.649   2.827   2.254 -0.9823 -0.1126 -0.1820
  253DMF     N1 3515   2.793   2.837   2.232  0.2860 -0.5272 -1.1312
  253DMF     C2 3516   2.865   2.710   2.245  0.9832  0.0679 -0.6229
  253DMF     C3 3517   2.861   2.956   2.237 -0.1579  0.0952 -0.0239
  253DMF     O1 3518   2.800   3.066   2.239  0.0634  0.0439  0.1755
  253DMF     H1 3519   2.627   2.754   2.332  0.9671  0.3999  0.8919
  253DMF     H2 3520   2.606   2.796   2.158 -1.1456 -0.9507  0.1679
  253DMF     H3 3521   2.616   2.928   2.281  1.2624  0.4418  0.6816
  253DMF     H4 3522   2.965   2.720   2.201  0.9520 -3.1646 -1.5597
  253DMF     H5 3523   2.803   2.645   2.183 -1.9232 -0.5916  2.7900
  253DMF     H6 3524   2.869   2.672   2.348 -1.4951  0.7452 -0.2401
  253DMF     H7 3525   2.971   2.945   2.236  0.2205  2.4221  4.3731
  254DMF     C1 3526   0.452   2.023   1.481  0.8902  0.2767  0.0407
  254DMF     N1 3527   0.370   1.903   1.452 -0.0630 -0.1152 -0.2831
  254DMF     C2 3528   0.358   1.799   1.549 -0.4374 -0.1357 -0.6709
  254DMF     C3 3529   0.305   1.889   1.329 -0.8216 -0.1062 -0.3541
  254DMF     O1 3530   0.305   1.975   1.239  0.3194 -0.4959 -0.1247
  254DMF     H1 3531   0.533   2.019   1.408  1.6137 -0.1149  0.8628
  254DMF     H2 3532   0.492   2.038   1.582  1.5785  0.6097 -0.2777
  254DMF     H3 3533   0.393   2.110   1.451 -0.9252 -0.9255 -0.0125
  254DMF     H4 3534   0.318   1.838   1.644 -1.4001 -0.6316 -0.8639
  254DMF     H5 3535   0.455   1.753   1.574  0.7777  1.7594 -1.7349
  254DMF     H6 3536   0.294   1.718   1.512  0.8353 -0.6197 -1.8705
  254DMF     H7 3537   0.239   1.800   1.326 -0.3803 -0.3818 -2.7506
  255DMF     C1 3538   2.847   2.510   1.492  0.0721 -0.4166  0.2211
  255DMF     N1 3539   2.913   2.628   1.539  0.2469 -0.5149  0.4977
  255DMF     C2 3540   2.831   2.755   1.553  0.7322 -0.2202 -0.6320
  255DMF     C3 3541   3.048   2.635   1.560 -0.0570  0.2425 -0.4769
  255DMF     O1 3542   3.131   2.551   1.527 -0.6933 -0.4341  0.2852
  255DMF     H1 3543   2.818   2.445   1.576  0.3293  1.2536  1.6414
  255DMF     H2 3544   2.908   2.451   1.423  0.8298  0.7637 -0.1204
  255DMF     H3 3545   2.755   2.527   1.435  0.6532  0.3459 -0.4981
  255DMF     H4 3546   2.837   2.794   1.655  1.2950 -0.9607 -0.3788
  255DMF     H5 3547   2.726   2.734   1.526  0.6696 -3.2294  1.6420
  255DMF     H6 3548   2.873   2.836   1.493 -0.2497  2.5735  2.3276
  255DMF     H7 3549   3.075   2.730   1.611  0.2334  1.1956 -2.3574
  256DMF     C1 3550   1.675   2.738   0.720 -0.7217  0.4480  0.6146
  256DMF     N1 3551   1.609   2.604   0.703  0.7611  0.2028  0.3686
  256DMF     C2 3552   1.563   2.565   0.567  0.4087  0.0609 -0.1211
  256DMF     C3 3553   1.602   2.519   0.818  0.3291  0.5775 -0.6265
  256DMF     O1 3554   1.652   2.547   0.924  0.8879  0.5262 -0.0347
  256DMF     H1 3555   1.644   2.801   0.635 -0.2201 -1.2183 -0.8361
  256DMF     H2 3556   1.783   2.720   0.711 -0.9012 -0.5297  0.3502
  256DMF     H3 3557   1.642   2.780   0.815  0.2444  0.8995  0.7638
  256DMF     H4 3558   1.467   2.607   0.536  0.2971  0.1747  0.3726
  256DMF     H5 3559   1.554   2.456   0.559 -1.1568  0.1642  0.0250
  256DMF     H6 3560   1.642   2.603   0.501  1.2737 -0.5045  0.5764
  256DMF     H7 3561   1.545   2.426   0.800 -1.3445  1.3974  0.3348
  257DMF     C1 3562   2.852   1.940   1.516 -0.2888 -0.6799  0.0268
  257DMF     N1 3563   2.799   2.077   1.505 -0.4542  0.2167 -0.5877
  257DMF     C2 3564   2.880   2.184   1.438  0.5672 -0.4042 -0.1874
  257DMF     C3 3565   2.670   2.106   1.550 -0.6449  0.1336 -0.6414
  257DMF     O1 3566   2.600   2.033   1.620  0.4822  0.3447 -0.0121
  257DMF     H1 3567   2.769   1.870   1.535 -0.1522 -0.4745  1.4310
  257DMF     H2 3568   2.910   1.935   1.609 -2.2869  2.4160  1.5033
  257DMF     H3 3569   2.916   1.925   1.428  0.6019  0.8845  0.3802
  257DMF     H4 3570   2.947   2.228   1.513  0.0127  0.0589  0.0390
  257DMF     H5 3571   2.812   2.259   1.394 -1.2280 -1.7383  0.2583
  257DMF     H6 3572   2.942   2.138   1.360  1.8911  1.5992 -0.3659
  257DMF     H7 3573   2.645   2.211   1.527  1.7061  0.8116 -0.2671
  258DMF     C1 3574   0.142   2.078   3.261 -0.0653 -0.3405 -0.0262
  258DMF     N1 3575   0.096   1.940   3.242  0.0914  0.4429  0.5000
  258DMF     C2 3576  -0.041   1.923   3.189 -0.3319 -0.2504 -0.2683
  258DMF     C3 3577   0.153   1.831   3.306 -0.4756 -0.4738  0.4217
  258DMF     O1 3578   0.258   1.844   3.369 -0.2803 -0.2443 -0.6711
  258DMF     H1 3579   0.135   2.129   3.164  0.4365 -0.7883 -0.3013
  258DMF     H2 3580   0.245   2.084   3.298 -1.7007  0.6101  4.6534
  258DMF     H3 3581   0.071   2.127   3.329 -0.2442  0.8649 -1.0677
  258DMF     H4 3582  -0.047   1.878   3.089 -0.6706 -1.4199  0.2686
  258DMF     H5 3583  -0.091   2.019   3.168 -0.4842 -0.6002 -1.6027
  258DMF     H6 3584  -0.097   1.861   3.260  0.0089  1.6078  1.6703
  258DMF     H7 3585   0.094   1.737   3.303  1.3882 -1.7266  1.9232
  259DMF     C1 3586   1.199   1.065   3.122 -0.5247 -1.1159  0.6378
  259DMF     N1 3587   1.129   0.956   3.062  0.7088  0.0814 -0.1529
  259DMF     C2 3588   1.003   0.911   3.131  0.3241 -0.2268  0.5881
  259DMF     C3 3589   1.162   0.915   2.933  0.0352 -0.3461  0.5967
  259DMF     O1 3590   1.261   0.961   2.876  0.4236  0.1650  0.0504
  259DMF     H1 3591   1.143   1.155   3.094  3.2826  0.7806 -1.2251
  259DMF     H2 3592   1.298   1.085   3.079 -1.4521  2.6342  0.0503
  259DMF     H3 3593   1.206   1.043   3.229  2.1087 -2.9821  0.1361
  259DMF     H4 3594   1.018   0.895   3.239  0.7173  0.3698  0.6255
  259DMF     H5 3595   0.965   0.820   3.084 -0.6546  0.2258  0.4871
  259DMF     H6 3596   0.929   0.992   3.120  1.1428  0.2898 -1.1990
  259DMF     H7 3597   1.081   0.850   2.894  0.6603 -1.1873  0.6991
  260DMF     C1 3598   3.228   1.384   2.617 -0.6371  0.2824 -0.9050
  260DMF     N1 3599   3.348   1.474   2.602  0.4339 -0.1630 -0.1968
  260DMF     C2 3600   3.312   1.616   2.576 -0.1792 -0.1071  0.8058
  260DMF     C3 3601   3.482   1.448   2.631 -0.3528  0.3468  0.4405
  260DMF     O1 3602   3.523   1.346   2.675 -0.2650 -0.1862  0.1633
  260DMF     H1 3603   3.143   1.439   2.575 -2.5372 -0.8133  1.3772
  260DMF     H2 3604   3.217   1.362   2.724  3.9875  0.0307 -0.3487
  260DMF     H3 3605   3.229   1.293   2.556  0.2108 -0.4173  0.1219
  260DMF     H4 3606   3.403   1.673   2.552 -0.8129 -0.8195 -3.5724
  260DMF     H5 3607   3.265   1.666   2.662  0.6291  2.5433 -0.2625
  260DMF     H6 3608   3.248   1.621   2.487 -0.5754  2.5563  1.2079
  260DMF     H7 3609   3.545   1.538   2.631 -0.8453  0.6887  1.2199
  261DMF     C1 3610   0.107   0.457   1.425  0.3002 -0.1090 -0.1719
  261DMF     N1 3611   0.149   0.412   1.287 -0.0612 -0.3213  0.3102
  261DMF     C2 3612   0.282   0.438   1.241 -1.1864 -0.2585  0.1236
  261DMF     C3 3613   0.055   0.343   1.198  0.9881  0.2749  0.0492
  261DMF     O1 3614  -0.054   0.305   1.237  0.9950  0.5536 -0.3232
  261DMF     H1 3615   0.016   0.516   1.410  1.3942  1.8972  0.8704
  261DMF     H2 3616   0.180   0.521   1.476 -0.5465  0.4608  0.3285
  261DMF     H3 3617   0.083   0.375   1.494 -0.0909  0.0043 -0.1721
  261DMF     H4 3618   0.293   0.409   1.136 -0.6708  0.1674  0.0574
  261DMF     H5 3619   0.352   0.369   1.290 -3.1654 -1.2522  1.6507
  261DMF     H6 3620   0.312   0.542   1.257  1.4089 -0.7394 -1.2604
  261DMF     H7 3621   0.092   0.323   1.096  0.9014 -0.3600  0.1423
  262DMF     C1 3622   0.558   2.059   0.798 -0.1182  0.2358 -0.5448
  262DMF     N1 3623   0.541   2.155   0.914 -0.2670 -0.0212 -0.2247
  262DMF     C2 3624   0.461   2.104   1.033 -0.2039 -0.4655  0.4538
  262DMF     C3 3625   0.635   2.261   0.928  0.0823  0.1843 -0.1529
  262DMF     O1 3626   0.733   2.266   0.853 -0.2855 -0.0817  0.1392
  262DMF     H1 3627   0.476   1.986   0.799  0.8812 -0.9082 -0.9936
  262DMF     H2 3628   0.656   2.011   0.785 -0.1663  0.0173 -0.1237
  262DMF     H3 3629   0.536   2.104   0.701 -0.5046  0.3581 -0.4025
  262DMF     H4 3630   0.452   2.177   1.115 -1.0612 -1.2997  1.1026
  262DMF     H5 3631   0.502   2.007   1.061  2.5674  0.1901 -1.1491
  262DMF     H6 3632   0.355   2.091   1.007 -0.2526  1.2506 -0.3076
  262DMF     H7 3633   0.613   2.333   1.009  0.1868  1.8813 -1.5887
  263DMF     C1 3634   2.795   1.646   2.258  0.1750  0.6754 -0.4777
  263DMF     N1 3635   2.911   1.729   2.270 -0.5111  0.0793 -0.2617
  263DMF     C2 3636   2.915   1.867   2.223  0.7825 -1.1562 -0.4038
  263DMF     C3 3637   3.022   1.684   2.343 -0.1605 -0.1954  0.3843
  263DMF     O1 3638   3.029   1.569   2.383 -0.5771 -0.4268  0.0463
  263DMF     H1 3639   2.709   1.699   2.214 -0.7586 -0.5705 -0.1792
  263DMF     H2 3640   2.778   1.603   2.358  0.8803 -2.1841 -1.5518
  263DMF     H3 3641   2.810   1.554   2.200 -0.0576 -0.7131  1.6169
  263DMF     H4 3642   3.009   1.883   2.169  1.2693 -0.2194  0.7025
  263DMF     H5 3643   2.897   1.933   2.308 -0.0141 -0.8948 -0.7696
  263DMF     H6 3644   2.830   1.893   2.160  1.5529  0.7732 -0.6845
  263DMF     H7 3645   3.094   1.767   2.347 -1.0352  0.5791  0.1330
  264DMF     C1 3646   0.526   0.209   0.996 -0.4549  0.1780 -0.0925
  264DMF     N1 3647   0.492   0.131   1.119 -0.0280 -0.0603 -0.3216
  264DMF     C2 3648   0.352   0.118   1.159  0.9786  0.0995 -0.7445
  264DMF     C3 3649   0.596   0.073   1.192 -0.2037  0.0998 -0.6041
  264DMF     O1 3650   0.716   0.085   1.173  0.3843 -0.2261 -0.0596
  264DMF     H1 3651   0.592   0.144   0.937  0.6640  1.3905 -0.1893
  264DMF     H2 3652   0.569   0.301   1.039  0.6961  0.9818 -2.8454
  264DMF     H3 3653   0.439   0.238   0.936  0.4014  0.7866 -1.0595
  264DMF     H4 3654   0.335   0.143   1.264 -2.1516 -0.3718 -1.1175
  264DMF     H5 3655   0.326   0.013   1.140 -1.8405  1.3581 -4.4322
  264DMF     H6 3656   0.294   0.183   1.092  0.0345  0.4881  0.4445
  264DMF     H7 3657   0.560   0.002   1.269  0.4003 -0.7016 -1.0494
  265DMF     C1 3658   1.929   1.631   2.538 -0.5139 -0.0678  0.2125
  265DMF     N1 3659   2.042   1.573   2.618  0.0844 -0.1895 -0.2459
  265DMF     C2 3660   2.162   1.516   2.558  0.5903  0.1271  0.5694
  265DMF     C3 3661   2.035   1.574   2.756  0.4124  0.4958 -0.1184
  265DMF     O1 3662   1.930   1.599   2.813  0.1027  0.7169  0.4556
  265DMF     H1 3663   1.836   1.572   2.539 -0.0112 -0.8701 -0.1864
  265DMF     H2 3664   1.956   1.646   2.433 -0.4564  2.9847  0.5976
  265DMF     H3 3665   1.894   1.727   2.578 -0.4052  1.1245 -2.4296
  265DMF     H4 3666   2.145   1.414   2.522 -1.1479  0.4893  0.2943
  265DMF     H5 3667   2.249   1.513   2.624  0.4071 -1.7729  0.7550
  265DMF     H6 3668   2.178   1.571   2.465 -0.1176 -0.9783 -0.2153
  265DMF     H7 3669   2.137   1.557   2.794  0.7831  0.6199 -1.0269
  266DMF     C1 3670   1.843   0.607   3.565 -0.0609 -0.3040  0.1745
  266DMF     N1 3671   1.988   0.581   3.568  0.3790  0.3520  0.0466
  266DMF     C2 3672   2.040   0.473   3.652 -0.7916 -0.0150  0.1970
  266DMF     C3 3673   2.069   0.664   3.480  0.5870 -0.9836 -0.0485
  266DMF     O1 3674   2.028   0.744   3.390 -0.4127  0.5368  0.1535
  266DMF     H1 3675   1.783   0.529   3.612 -0.1545 -0.6726 -0.5625
  266DMF     H2 3676   1.801   0.610   3.464  1.2995 -1.1648 -0.4275
  266DMF     H3 3677   1.837   0.702   3.621 -0.8821  0.1475 -0.6786
  266DMF     H4 3678   2.148   0.490   3.654 -0.8296  0.3747 -0.9081
  266DMF     H5 3679   2.030   0.372   3.610 -0.1500 -0.0938  0.2257
  266DMF     H6 3680   2.001   0.483   3.754 -0.2382  0.4780  0.3618
  266DMF     H7 3681   2.178   0.649   3.493  0.8115  0.8864  0.3894
  267DMF     C1 3682   1.418   2.395   2.842  0.8977 -0.2303  0.0937
  267DMF     N1 3683   1.302   2.341   2.906 -0.0741  0.0909  0.2254
  267DMF     C2 3684   1.197   2.274   2.825 -0.2285 -0.0671 -0.3506
  267DMF     C3 3685   1.296   2.345   3.048 -0.2509 -0.5501  0.1297
  267DMF     O1 3686   1.387   2.389   3.114  0.2091  0.0521 -0.6631
  267DMF     H1 3687   1.472   2.314   2.792  1.2909  1.0476 -1.5795
  267DMF     H2 3688   1.484   2.460   2.901 -1.1873  1.2487  0.8880
  267DMF     H3 3689   1.380   2.447   2.753  0.7966 -0.1996  0.1547
  267DMF     H4 3690   1.134   2.351   2.779  0.3798  1.2880  1.0729
  267DMF     H5 3691   1.139   2.213   2.896  0.0302 -0.5751 -0.5682
  267DMF     H6 3692   1.247   2.210   2.751 -4.6079 -0.2227 -3.3574
  267DMF     H7 3693   1.202   2.302   3.087 -0.3736  0.2223  0.6868
  268DMF     C1 3694   2.221   1.470   3.747 -0.1172  0.2054  0.6530
  268DMF     N1 3695   2.092   1.424   3.811 -0.0809 -0.3885  0.0052
  268DMF     C2 3696   2.107   1.349   3.940  0.6694 -0.1293 -0.1367
  268DMF     C3 3697   1.970   1.462   3.775 -0.1811  0.5046  0.3881
  268DMF     O1 3698   1.952   1.522   3.668 -0.3736  0.1129  0.1629
  268DMF     H1 3699   2.284   1.385   3.719 -1.2597 -1.3875  2.7993
  268DMF     H2 3700   2.268   1.548   3.808 -0.4961  2.5597 -1.9696
  268DMF     H3 3701   2.192   1.514   3.650 -1.9407 -0.2636  0.9622
  268DMF     H4 3702   2.053   1.255   3.926 -0.0902  0.1471  0.8752
  268DMF     H5 3703   2.062   1.401   4.025 -1.7933 -0.0542 -1.4448
  268DMF     H6 3704   2.211   1.317   3.957 -0.0063 -2.3109  0.0072
  268DMF     H7 3705   1.889   1.443   3.848 -1.9937 -2.1843 -2.1958
  269DMF     C1 3706   0.809   3.046   2.357  0.5382  0.1219 -0.2291
  269DMF     N1 3707   0.852   2.909   2.296  0.1236  0.2308 -0.3772
  269DMF     C2 3708   0.759   2.792   2.303 -0.1682 -0.2301  0.2962
  269DMF     C3 3709   0.983   2.891   2.253 -0.5259  0.4344  0.1618
  269DMF     O1 3710   1.075   2.970   2.250  0.3206  0.4883  0.6124
  269DMF     H1 3711   0.886   3.080   2.427  2.0343 -0.9789 -1.2909
  269DMF     H2 3712   0.720   3.031   2.419  0.5634  0.6681 -0.0597
  269DMF     H3 3713   0.786   3.127   2.288 -0.9280 -1.2164 -1.3593
  269DMF     H4 3714   0.772   2.721   2.221  2.4651  1.1408 -0.5319
  269DMF     H5 3715   0.654   2.821   2.311  0.4256  1.5683  2.1760
  269DMF     H6 3716   0.789   2.738   2.394 -1.7328  0.9940  1.5616
  269DMF     H7 3717   1.001   2.794   2.204 -1.1117  0.9473 -1.0909
  270DMF     C1 3718   2.175   2.728   0.034 -0.0962 -0.2232  0.4976
  270DMF     N1 3719   2.143   2.777  -0.097  0.0233 -0.4410 -0.3046
  270DMF     C2 3720   2.132   2.688  -0.208 -0.3188  0.0532 -0.2526
  270DMF     C3 3721   2.118   2.915  -0.122 -0.0912  0.0804 -0.1918
  270DMF     O1 3722   2.122   3.000  -0.034 -0.0876 -0.6849  0.5745
  270DMF     H1 3723   2.129   2.787   0.115  0.0431  1.4705 -0.6219
  270DMF     H2 3724   2.284   2.733   0.046 -0.2842 -1.2640  2.8036
  270DMF     H3 3725   2.125   2.632   0.044  0.0843 -0.4400 -0.6454
  270DMF     H4 3726   2.028   2.680  -0.240 -0.8179 -1.9993  1.7727
  270DMF     H5 3727   2.169   2.586  -0.194 -1.6572 -0.1415  2.2685
  270DMF     H6 3728   2.199   2.712  -0.291 -0.6362 -2.2349 -1.1771
  270DMF     H7 3729   2.095   2.935  -0.228  0.6446  2.6007  0.0859
  271DMF     C1 3730   0.928   3.372   2.849  0.2502 -0.5908 -0.8091
  271DMF     N1 3731   0.951   3.506   2.903  0.2768 -0.3077 -0.4011
  271DMF     C2 3732   1.060   3.528   3.002  0.1296  0.4200  0.3975
  271DMF     C3 3733   0.884   3.622   2.845 -0.1069 -0.1934  0.6503
  271DMF     O1 3734   0.814   3.621   2.747  0.3641 -0.4373  0.3742
  271DMF     H1 3735   0.819   3.364   2.847  0.1997  0.3077 -2.2398
  271DMF     H2 3736   0.966   3.299   2.922  1.4121  0.6094 -0.1783
  271DMF     H3 3737   0.972   3.363   2.749  1.9137  1.2773 -0.2935
  271DMF     H4 3738   1.091   3.436   3.054  1.0201 -0.7058 -2.0332
  271DMF     H5 3739   1.023   3.609   3.065 -2.2270 -0.7876  0.6340
  271DMF     H6 3740   1.143   3.584   2.957 -0.4970  2.0904  1.3035
  271DMF     H7 3741   0.894   3.717   2.899 -2.9199  0.0498  0.7985
  272DMF     C1 3742   0.448   0.495   2.558  0.5818 -0.1107 -0.1336
  272DMF     N1 3743   0.582   0.545   2.602  0.4038  0.6914  0.2261
  272DMF     C2 3744   0.702   0.457   2.602 -0.7981  0.2157 -0.1817
  272DMF     C3 3745   0.611   0.687   2.607  0.1908  0.6022  0.1826
  272DMF     O1 3746   0.523   0.771   2.600  0.1921 -0.2804  0.0113
  272DMF     H1 3747   0.378   0.578   2.546 -0.1373 -0.7630 -0.5056
  272DMF     H2 3748   0.400   0.429   2.632  0.2640  0.7722  0.4500
  272DMF     H3 3749   0.440   0.450   2.459 -1.6579 -0.3949  0.1399
  272DMF     H4 3750   0.673   0.352   2.607 -0.0427  0.1047  3.2876
  272DMF     H5 3751   0.770   0.476   2.686 -0.9013  2.4116 -0.5665
  272DMF     H6 3752   0.765   0.479   2.514  3.3057  2.7437  3.1411
  272DMF     H7 3753   0.719   0.707   2.618  0.3790  0.1894 -0.8302
  273DMF     C1 3754   0.512   2.931   3.512  0.2167  0.2516 -0.1052
  273DMF     N1 3755   0.633   2.980   3.447 -0.3350 -0.3711  0.3884
  273DMF     C2 3756   0.630   3.109   3.380  0.4063 -0.8929  0.1269
  273DMF     C3 3757   0.739   2.891   3.419  0.4058 -0.2857 -0.0895
  273DMF     O1 3758   0.748   2.777   3.458  0.0389 -0.5877  0.3382
  273DMF     H1 3759   0.419   2.984   3.487  0.9341  2.5251  1.8842
  273DMF     H2 3760   0.527   2.930   3.621 -0.5564  1.5857  0.0231
  273DMF     H3 3761   0.494   2.828   3.478  1.9227 -0.6082  1.5226
  273DMF     H4 3762   0.531   3.129   3.336  1.2669  2.7651 -0.3417
  273DMF     H5 3763   0.706   3.117   3.301  1.3503 -1.1605  1.0060
  273DMF     H6 3764   0.654   3.188   3.453  1.0479 -3.0525  2.2926
  273DMF     H7 3765   0.816   2.944   3.359 -0.7100  2.6265  0.9775
  274DMF     C1 3766   2.629   1.223   0.281 -0.0184 -0.0115  0.6348
  274DMF     N1 3767   2.553   1.130   0.365  0.1161 -0.2928  0.2249
  274DMF     C2 3768   2.585   1.135   0.517  0.0703 -0.0329 -0.3813
  274DMF     C3 3769   2.441   1.059   0.316 -0.4124  0.0399  0.1244
  274DMF     O1 3770   2.414   1.051   0.198  0.1524  0.0441 -0.8215
  274DMF     H1 3771   2.721   1.242   0.338  0.3625  1.4435 -0.4264
  274DMF     H2 3772   2.570   1.315   0.285 -1.4609 -0.8560 -0.7490
  274DMF     H3 3773   2.639   1.178   0.181  2.1363 -3.3908  2.3015
  274DMF     H4 3774   2.599   1.031   0.551 -0.0219  0.0158 -0.1920
  274DMF     H5 3775   2.499   1.182   0.567  1.0047 -0.7662  2.0012
  274DMF     H6 3776   2.674   1.196   0.537 -0.7097  0.5688  1.4022
  274DMF     H7 3777   2.380   1.004   0.391 -0.3191 -1.7082 -1.0574
  275DMF     C1 3778   0.335   1.920   2.984  0.6319 -0.6480  0.0815
  275DMF     N1 3779   0.322   1.927   2.837  0.1759  0.0386 -0.0745
  275DMF     C2 3780   0.188   1.945   2.792  0.6556  0.5003  0.1980
  275DMF     C3 3781   0.422   1.897   2.749 -0.2374  0.1711  0.3109
  275DMF     O1 3782   0.535   1.864   2.782 -0.1418 -0.5114 -0.1378
  275DMF     H1 3783   0.420   1.854   3.007  2.3559  1.6041  0.3530
  275DMF     H2 3784   0.239   1.903   3.034  0.0684 -1.1919 -1.1639
  275DMF     H3 3785   0.363   2.021   3.015  0.6156 -0.3401 -0.8729
  275DMF     H4 3786   0.171   1.937   2.684 -1.0026 -0.6178  0.5290
  275DMF     H5 3787   0.169   2.053   2.801 -0.4995  0.2403  0.9521
  275DMF     H6 3788   0.116   1.886   2.850  2.4250 -0.7940  1.1308
  275DMF     H7 3789   0.396   1.906   2.642  4.8764 -0.4911 -1.1433
  276DMF     C1 3790   0.963   1.017   0.278  0.1158  0.2548  0.1373
  276DMF     N1 3791   1.046   0.907   0.231  0.1063  0.2614 -0.1107
  276DMF     C2 3792   1.188   0.914   0.264 -0.4843  0.0463  0.4501
  276DMF     C3 3793   0.996   0.809   0.145  0.3503  0.1952  0.0744
  276DMF     O1 3794   0.879   0.799   0.111  0.8186 -0.1690  1.0760
  276DMF     H1 3795   0.960   1.105   0.214  1.2916  1.1005  1.2197
  276DMF     H2 3796   0.992   1.056   0.377  0.9541 -0.6904  0.2682
  276DMF     H3 3797   0.864   0.971   0.293  0.2002  0.3034  0.8732
  276DMF     H4 3798   1.216   0.873   0.362  2.4539  0.5721 -0.1327
  276DMF     H5 3799   1.220   1.018   0.261  0.3256 -0.1683  1.4325
  276DMF     H6 3800   1.228   0.849   0.185 -1.4389  0.8227 -0.6816
  276DMF     H7 3801   1.069   0.737   0.105 -1.1449 -1.3605  0.1019
  277DMF     C1 3802   0.756   0.541   3.041  0.1417 -0.5732 -0.4297
  277DMF     N1 3803   0.899   0.552   3.013 -0.1791 -0.1635  0.4917
  277DMF     C2 3804   0.993   0.490   3.110  0.3510  0.1988 -0.0309
  277DMF     C3 3805   0.942   0.606   2.889 -0.1016  0.4355  0.0651
  277DMF     O1 3806   0.871   0.664   2.814 -0.2346  0.2429 -0.2728
  277DMF     H1 3807   0.704   0.628   2.999  3.5074  2.1070  0.6711
  277DMF     H2 3808   0.750   0.552   3.150 -0.8933 -1.5429 -0.3794
  277DMF     H3 3809   0.714   0.443   3.015  0.0454 -0.7628  0.4114
  277DMF     H4 3810   0.993   0.380   3.101  0.4550  0.0406  1.7846
  277DMF     H5 3811   0.960   0.518   3.211 -1.7534  2.4132 -1.2797
  277DMF     H6 3812   1.092   0.536   3.102 -1.1670  3.7762  0.7242
  277DMF     H7 3813   1.052   0.594   2.884 -0.1534 -0.1656  0.3150
  278DMF     C1 3814   1.788   0.624   1.519 -0.1481 -0.8318 -0.0001
  278DMF     N1 3815   1.710   0.715   1.430 -0.4684  0.2881  0.4144
  278DMF     C2 3816   1.562   0.704   1.420 -0.8769 -0.2986  0.3175
  278DMF     C3 3817   1.765   0.819   1.351 -0.4293 -0.5593 -0.0755
  278DMF     O1 3818   1.889   0.847   1.355  0.0340 -0.5528  0.3667
  278DMF     H1 3819   1.839   0.540   1.471  1.8239  0.3525 -0.0454
  278DMF     H2 3820   1.726   0.577   1.596  0.2991 -0.9796  0.2735
  278DMF     H3 3821   1.872   0.684   1.556 -0.2391 -0.1638 -0.8366
  278DMF     H4 3822   1.529   0.634   1.342  1.3398  0.8344 -1.6888
  278DMF     H5 3823   1.516   0.803   1.404  1.3727  0.5650 -1.1557
  278DMF     H6 3824   1.540   0.661   1.518  1.1463  0.2014  1.0113
  278DMF     H7 3825   1.694   0.863   1.278  0.8970  1.9781  0.1233
  279DMF     C1 3826   1.865   0.370   2.222  0.2845  0.6057 -0.4930
  279DMF     N1 3827   1.954   0.265   2.266  0.7893 -0.2354 -0.9340
  279DMF     C2 3828   1.907   0.131   2.229 -0.6752 -0.0226 -0.3865
  279DMF     C3 3829   2.080   0.289   2.327  0.5788  0.8995  0.3588
  279DMF     O1 3830   2.119   0.401   2.347 -0.6728  0.8967  0.6596
  279DMF     H1 3831   1.770   0.328   2.187 -1.0405  0.7744  2.7511
  279DMF     H2 3832   1.910   0.433   2.144 -0.4764  2.0884  0.2561
  279DMF     H3 3833   1.829   0.436   2.301 -0.0208 -2.6723  2.2184
  279DMF     H4 3834   1.870   0.083   2.320 -0.4892 -1.1029 -0.8602
  279DMF     H5 3835   1.992   0.065   2.204  0.0492  1.4222 -1.8136
  279DMF     H6 3836   1.821   0.121   2.161 -0.5289 -1.2075 -0.4052
  279DMF     H7 3837   2.141   0.202   2.355 -0.7414  0.8410  3.1510
  280DMF     C1 3838   2.232   2.357   3.366 -0.2630 -0.2391 -0.2513
  280DMF     N1 3839   2.309   2.466   3.298  0.0709 -0.3596  0.4279
  280DMF     C2 3840   2.459   2.472   3.303  0.2637 -0.3352 -0.4662
  280DMF     C3 3841   2.242   2.549   3.208 -0.4784  0.5020 -0.6202
  280DMF     O1 3842   2.123   2.546   3.197 -0.1541 -0.1500  0.2882
  280DMF     H1 3843   2.210   2.285   3.287 -0.5908  1.9410 -2.1854
  280DMF     H2 3844   2.134   2.387   3.406 -0.7891 -1.5427 -0.5372
  280DMF     H3 3845   2.284   2.309   3.450 -2.1129 -0.0488  1.0296
  280DMF     H4 3846   2.486   2.383   3.245 -2.2578 -2.3007  1.2488
  280DMF     H5 3847   2.492   2.449   3.405  1.2211  0.6696 -0.5350
  280DMF     H6 3848   2.500   2.564   3.258  0.8998 -1.0173 -1.2944
  280DMF     H7 3849   2.311   2.615   3.152  1.0891  0.8728  1.6970
  281DMF     C1 3850   1.472   2.086   2.587  0.1370  0.1445  0.1310
  281DMF     N1 3851   1.592   2.158   2.532 -0.2497 -0.0069 -0.4485
  281DMF     C2 3852   1.728   2.130   2.582  0.6193  0.5258  0.1464
  281DMF     C3 3853   1.577   2.244   2.419 -0.3171 -0.3148 -0.3910
  281DMF     O1 3854   1.467   2.258   2.367  0.2042 -0.8842 -0.0097
  281DMF     H1 3855   1.516   2.000   2.639  0.4973 -0.4208 -1.1023
  281DMF     H2 3856   1.401   2.064   2.507  0.8882  1.3046 -0.8614
  281DMF     H3 3857   1.425   2.153   2.661  0.8299 -0.0404  0.7400
  281DMF     H4 3858   1.754   2.208   2.654 -2.4117  0.5315  1.3310
  281DMF     H5 3859   1.799   2.129   2.499  0.1477  2.1195 -0.3033
  281DMF     H6 3860   1.722   2.036   2.638 -0.4659 -0.1763 -1.1191
  281DMF     H7 3861   1.667   2.302   2.391 -0.8345 -0.0629 -1.5136
  282DMF     C1 3862   1.596   1.250   0.606  0.8975  0.4488 -0.4487
  282DMF     N1 3863   1.737   1.262   0.568 -0.0586 -0.1076 -0.2219
  282DMF     C2 3864   1.793   1.398   0.539 -0.8474 -0.2411  0.4025
  282DMF     C3 3865   1.825   1.156   0.604  0.2890 -0.4328  0.4480
  282DMF     O1 3866   1.792   1.046   0.651  0.2658  0.2011  0.0198
  282DMF     H1 3867   1.574   1.146   0.633 -1.0246  0.6484 -1.2029
  282DMF     H2 3868   1.524   1.266   0.525  0.5187  0.9255 -0.0192
  282DMF     H3 3869   1.575   1.308   0.696  1.0959  1.2719 -0.9232
  282DMF     H4 3870   1.893   1.398   0.582 -1.0517  1.7604  0.9012
  282DMF     H5 3871   1.725   1.473   0.581 -0.4782  0.4455 -0.2281
  282DMF     H6 3872   1.797   1.418   0.431  1.1914 -0.9388  0.3345
  282DMF     H7 3873   1.929   1.184   0.579 -0.4639  3.0215  0.9490
  283DMF     C1 3874   0.483   2.626   0.217 -0.3479  0.7710  0.3072
  283DMF     N1 3875   0.378   2.530   0.181  0.1390 -0.1104 -0.0922
  283DMF     C2 3876   0.411   2.402   0.109  0.7712 -0.5095  0.6445
  283DMF     C3 3877   0.243   2.553   0.231 -0.1359  0.3597  0.3157
  283DMF     O1 3878   0.213   2.655   0.293 -0.2044 -0.2406  0.2485
  283DMF     H1 3879   0.522   2.685   0.133  0.7080  0.1754  0.3769
  283DMF     H2 3880   0.574   2.568   0.236  1.0760  2.8788  0.2136
  283DMF     H3 3881   0.452   2.691   0.300 -1.4617 -1.1899  1.4569
  283DMF     H4 3882   0.326   2.365   0.051 -0.4189  3.9641 -0.6270
  283DMF     H5 3883   0.458   2.322   0.167  3.5914 -1.0474 -2.2069
  283DMF     H6 3884   0.492   2.416   0.036 -0.0025 -1.2645 -0.3764
  283DMF     H7 3885   0.165   2.484   0.193 -0.3083 -0.1154  1.5046
  284DMF     C1 3886   2.407   0.355   3.635  0.3311 -0.3753  0.3179
  284DMF     N1 3887   2.445   0.489   3.587  0.4633 -0.0566 -0.3661
  284DMF     C2 3888   2.530   0.571   3.669 -0.3333 -0.5953 -0.1602
  284DMF     C3 3889   2.400   0.525   3.461 -0.0111 -1.1308  0.1492
  284DMF     O1 3890   2.326   0.452   3.395  0.3726  0.7438  0.4807
  284DMF     H1 3891   2.469   0.274   3.597  0.4057  0.6111 -1.7176
  284DMF     H2 3892   2.299   0.348   3.619  0.0262  1.7968  1.1669
  284DMF     H3 3893   2.418   0.356   3.745 -1.9673  2.8808  0.5936
  284DMF     H4 3894   2.550   0.535   3.771 -1.8873  0.9411  0.7261
  284DMF     H5 3895   2.498   0.676   3.670 -3.4551 -1.4931  1.5018
  284DMF     H6 3896   2.624   0.578   3.614 -0.0086 -0.1149  0.4470
  284DMF     H7 3897   2.447   0.620   3.429  2.1996 -1.9161  0.9709
  285DMF     C1 3898   2.228   0.019   3.037 -1.0755 -0.3254  0.2170
  285DMF     N1 3899   2.368   0.052   3.056 -0.6187  0.0264 -0.1560
  285DMF     C2 3900   2.405   0.152   3.147  0.4325  0.5191  0.3441
  285DMF     C3 3901   2.466  -0.040   3.018 -0.8909 -0.2308  0.0182
  285DMF     O1 3902   2.445  -0.142   2.956  0.0954  0.0053  0.1779
  285DMF     H1 3903   2.161   0.089   3.088  0.0672  2.0514 -1.4296
  285DMF     H2 3904   2.195  -0.083   3.062 -2.1033 -0.1798 -0.5183
  285DMF     H3 3905   2.204   0.021   2.930  1.7015  0.9950 -0.4189
  285DMF     H4 3906   2.450   0.238   3.096 -0.4859  1.3577  0.9366
  285DMF     H5 3907   2.472   0.105   3.221 -0.7640  0.2320  1.2573
  285DMF     H6 3908   2.317   0.193   3.199  1.1759 -0.4233  2.4172
  285DMF     H7 3909   2.566  -0.015   3.057 -2.3397  1.4409  2.7624
  286DMF     C1 3910   0.235   0.897   1.303  0.0250  0.3665 -0.4094
  286DMF     N1 3911   0.099   0.886   1.250  0.0534  0.1537 -0.7158
  286DMF     C2 3912   0.047   0.766   1.192 -0.2043  0.5146 -0.0042
  286DMF     C3 3913   0.019   1.002   1.236  0.0280 -0.0624 -0.0982
  286DMF     O1 3914   0.069   1.107   1.269  0.3203  0.1106 -0.0272
  286DMF     H1 3915   0.298   0.821   1.256  0.1712 -1.4691  2.6660
  286DMF     H2 3916   0.229   0.866   1.408 -1.9882  0.7625 -0.3915
  286DMF     H3 3917   0.271   1.001   1.294  1.2478 -0.1758 -1.8908
  286DMF     H4 3918   0.001   0.710   1.275 -1.1864  0.0055 -0.8910
  286DMF     H5 3919   0.118   0.708   1.132  0.8131  1.3269  0.3983
  286DMF     H6 3920  -0.047   0.778   1.137 -2.1974 -1.5810  2.7561
  286DMF     H7 3921  -0.081   0.985   1.192  0.8876 -1.4543 -1.5490
  287DMF     C1 3922   0.443   1.969   0.006 -0.5055  0.8578  0.2011
  287DMF     N1 3923   0.434   1.932  -0.141 -0.1176 -0.3599  0.1494
  287DMF     C2 3924   0.514   1.812  -0.203  0.3621 -0.2878 -0.1428
  287DMF     C3 3925   0.373   2.017  -0.233  0.1361  0.3003  0.2838
  287DMF     O1 3926   0.324   2.123  -0.199 -0.0078  0.2550 -0.2690
  287DMF     H1 3927   0.354   2.021   0.042 -0.7888  0.6842 -0.2404
  287DMF     H2 3928   0.540   2.015   0.026 -0.7252  0.3173  2.6325
  287DMF     H3 3929   0.444   1.878   0.067  1.2264 -0.4736 -1.7490
  287DMF     H4 3930   0.580   1.847  -0.283  1.2582  0.5773  0.9682
  287DMF     H5 3931   0.448   1.738  -0.252 -0.2562  1.7970 -2.5264
  287DMF     H6 3932   0.579   1.771  -0.125  3.2627  0.7032 -1.9716
  287DMF     H7 3933   0.393   1.993  -0.339  0.1801  0.4544  0.2584
  288DMF     C1 3934   0.301   0.803   2.934 -0.8277  0.2907 -0.0965
  288DMF     N1 3935   0.359   0.812   3.071 -0.5600 -0.1266 -0.6889
  288DMF     C2 3936   0.381   0.945   3.132  0.8891 -0.1279  0.6898
  288DMF     C3 3937   0.423   0.701   3.125 -0.1984 -0.3714 -0.2181
  288DMF     O1 3938   0.431   0.592   3.072 -0.4122  0.0600  0.0757
  288DMF     H1 3939   0.330   0.709   2.885 -1.8479  0.6100 -1.3335
  288DMF     H2 3940   0.322   0.898   2.884  1.0370  0.0401  0.1608
  288DMF     H3 3941   0.195   0.791   2.958 -0.3694 -1.7553  0.9732
  288DMF     H4 3942   0.294   1.010   3.119  1.2481  0.0575 -0.9357
  288DMF     H5 3943   0.470   0.989   3.085 -1.0572  1.8905 -1.3043
  288DMF     H6 3944   0.404   0.946   3.239  0.0562  0.2155  0.8713
  288DMF     H7 3945   0.476   0.733   3.217 -2.6820  0.8174  0.8523
  289DMF     C1 3946   2.498   1.828   0.072  0.5976  0.1694 -1.2885
  289DMF     N1 3947   2.497   1.706   0.161  0.1790 -0.7354  0.3667
  289DMF     C2 3948   2.535   1.569   0.100  0.2298 -0.1505 -0.0833
  289DMF     C3 3949   2.456   1.711   0.299 -0.1063 -0.7751  0.1879
  289DMF     O1 3950   2.409   1.812   0.356  0.0280 -0.0921  0.1949
  289DMF     H1 3951   2.394   1.857   0.051 -0.0541  0.5492  2.2026
  289DMF     H2 3952   2.537   1.790  -0.022  1.0679  0.3675 -1.1735
  289DMF     H3 3953   2.558   1.902   0.127  1.3838 -1.5778  0.2391
  289DMF     H4 3954   2.641   1.549   0.122  0.1063  0.3224  0.9429
  289DMF     H5 3955   2.522   1.570  -0.009 -0.6459 -1.6295 -0.0152
  289DMF     H6 3956   2.472   1.494   0.149 -1.3559  0.7573 -0.7249
  289DMF     H7 3957   2.471   1.617   0.355 -2.8791 -0.0206  2.3281
  290DMF     C1 3958   1.812   3.133   3.096 -0.3476  0.5988  0.3065
  290DMF     N1 3959   1.790   3.229   2.985  0.3727 -0.2480  1.0184
  290DMF     C2 3960   1.879   3.345   2.971  0.1866 -0.1275 -0.5126
  290DMF     C3 3961   1.678   3.217   2.889 -0.2600 -0.1743  0.5508
  290DMF     O1 3962   1.601   3.132   2.894  0.0436  0.3624 -0.1216
  290DMF     H1 3963   1.732   3.059   3.097 -1.4508  1.7806  0.1875
  290DMF     H2 3964   1.825   3.180   3.194  0.8575 -1.1625  1.0380
  290DMF     H3 3965   1.899   3.071   3.071 -0.6763  0.2211  0.0889
  290DMF     H4 3966   1.861   3.402   3.063  0.6929  0.3103 -0.6818
  290DMF     H5 3967   1.849   3.394   2.877 -1.4380 -2.1746 -1.0974
  290DMF     H6 3968   1.985   3.318   2.979  0.1689  0.6397  3.0734
  290DMF     H7 3969   1.683   3.289   2.805 -0.0908  0.6047  1.2221
  291DMF     C1 3970   2.792   1.649   3.672 -0.1381  0.8691 -0.1067
  291DMF     N1 3971   2.880   1.686   3.555 -0.0618 -0.2100 -0.5545
  291DMF     C2 3972   2.968   1.590   3.494  0.1159 -0.7938  0.4563
  291DMF     C3 3973   2.861   1.799   3.488  1.0462 -0.0017 -0.2903
  291DMF     O1 3974   2.782   1.883   3.527  0.4190 -0.0926  0.0360
  291DMF     H1 3975   2.688   1.671   3.647  0.1387 -0.0200 -2.0809
  291DMF     H2 3976   2.823   1.724   3.746  0.3098  1.8282 -1.2551
  291DMF     H3 3977   2.798   1.545   3.705  1.5199  0.8932 -0.2794
  291DMF     H4 3978   2.913   1.535   3.416 -0.4255  3.1315 -2.1087
  291DMF     H5 3979   2.993   1.517   3.572 -1.5511  0.5200  2.2470
  291DMF     H6 3980   3.054   1.638   3.446 -0.7656  0.2975 -0.0706
  291DMF     H7 3981   2.931   1.820   3.405  1.5455 -0.5866 -0.0160
  292DMF     C1 3982   0.668   3.019   1.535  0.3408 -0.3449 -0.5011
  292DMF     N1 3983   0.526   3.050   1.492 -0.4446  0.0865 -0.0657
  292DMF     C2 3984   0.418   2.963   1.552  0.4079  0.7065 -0.2063
  292DMF     C3 3985   0.498   3.130   1.384  0.3242 -0.2507  0.7959
  292DMF     O1 3986   0.587   3.177   1.317 -0.3257 -0.2071 -0.5666
  292DMF     H1 3987   0.712   2.979   1.443  0.5114  0.0736 -0.6036
  292DMF     H2 3988   0.676   2.931   1.600  1.5822  0.4915  0.5004
  292DMF     H3 3989   0.726   3.097   1.586  1.5799  1.0960 -3.9654
  292DMF     H4 3990   0.353   2.935   1.469 -0.9286  1.4305  0.5907
  292DMF     H5 3991   0.351   3.017   1.620  1.6673  1.0626  0.7699
  292DMF     H6 3992   0.455   2.867   1.592  0.3920  1.1690  0.9434
  292DMF     H7 3993   0.390   3.137   1.360  0.5348 -1.0522 -0.4380
  293DMF     C1 3994   1.006   1.256   0.568  0.4795 -1.2983 -0.4254
  293DMF     N1 3995   1.071   1.139   0.624  0.1472  0.5462  0.1430
  293DMF     C2 3996   1.217   1.136   0.627  0.0280 -0.1040  0.1922
  293DMF     C3 3997   1.013   1.015   0.645  1.0730 -0.2257  0.1386
  293DMF     O1 3998   0.896   1.011   0.613 -0.3324  0.0265 -0.0313
  293DMF     H1 3999   1.069   1.305   0.493  0.5010 -0.0642  0.3791
  293DMF     H2 4000   0.986   1.310   0.661  0.3611  0.5621 -1.5043
  293DMF     H3 4001   0.913   1.225   0.519 -0.7117  1.3311  0.0842
  293DMF     H4 4002   1.260   1.120   0.527  1.0017 -0.1706  0.6202
  293DMF     H5 4003   1.250   1.053   0.690 -0.8462 -2.3644 -2.2512
  293DMF     H6 4004   1.263   1.233   0.653  2.8414 -1.1361 -0.7279
  293DMF     H7 4005   1.076   0.933   0.686  0.3114 -1.0567 -0.3472
  294DMF     C1 4006   2.758   3.372   3.334  0.0933  0.0417  0.2030
  294DMF     N1 4007   2.615   3.328   3.346  0.1737  0.0341 -0.0344
  294DMF     C2 4008   2.576   3.202   3.281 -0.2173  0.3474  0.1324
  294DMF     C3 4009   2.515   3.403   3.422 -0.5596 -0.6902 -0.1593
  294DMF     O1 4010   2.542   3.503   3.488 -0.4108 -0.6586  0.3335
  294DMF     H1 4011   2.764   3.475   3.373 -0.7571  0.7129 -1.4050
  294DMF     H2 4012   2.785   3.382   3.228  1.1621  0.9580  0.5533
  294DMF     H3 4013   2.825   3.302   3.384  0.6092  1.0604  0.9578
  294DMF     H4 4014   2.503   3.213   3.199  0.5182  0.8290 -0.4619
  294DMF     H5 4015   2.523   3.139   3.353 -1.2953 -0.0520 -0.9815
  294DMF     H6 4016   2.663   3.151   3.238  0.2055  0.9024  0.3361
  294DMF     H7 4017   2.416   3.353   3.424 -2.0049  2.0937  1.4802
  295DMF     C1 4018   1.169   3.378   3.773  0.5606 -0.2553 -0.0633
  295DMF     N1 4019   1.201   3.366   3.914  0.1408  0.5919 -0.4325
  295DMF     C2 4020   1.294   3.271   3.962  0.1361  0.2287  0.3957
  295DMF     C3 4021   1.130   3.443   4.006  0.2902  0.2833 -0.3076
  295DMF     O1 4022   1.054   3.538   3.970 -0.6245  0.2302 -0.9077
  295DMF     H1 4023   1.067   3.417   3.766  0.6349 -0.1967 -0.8744
  295DMF     H2 4024   1.187   3.292   3.708 -0.5263 -0.1411 -0.5223
  295DMF     H3 4025   1.237   3.454   3.732  0.1585 -0.3956 -1.0119
  295DMF     H4 4026   1.385   3.282   3.901  0.1621 -2.8699 -0.1751
  295DMF     H5 4027   1.250   3.172   3.947  0.8773  0.0458 -0.6261
  295DMF     H6 4028   1.330   3.282   4.065 -0.3244  1.8414  0.3938
  295DMF     H7 4029   1.142   3.403   4.109 -0.9783 -0.6501 -0.5109
  296DMF     C1 4030   2.880   2.911   2.899 -0.4296  0.5960 -0.0924
  296DMF     N1 4031   2.946   3.026   2.974 -0.2969 -0.1146 -0.3947
  296DMF     C2 4032   2.947   3.152   2.903  0.8878 -0.0457 -0.2073
  296DMF     C3 4033   3.022   3.007   3.095 -0.8101  0.1984 -0.3087
  296DMF     O1 4034   3.030   2.903   3.157  0.2529  0.2956  0.0048
  296DMF     H1 4035   2.920   2.815   2.933  0.4427  1.1185  0.3687
  296DMF     H2 4036   2.888   2.918   2.790 -2.3874 -0.2602 -0.3054
  296DMF     H3 4037   2.775   2.900   2.928 -1.3187 -0.0947 -3.3040
  296DMF     H4 4038   3.034   3.157   2.837  0.3908 -0.1039 -0.8816
  296DMF     H5 4039   2.934   3.240   2.968  1.8339  2.0163 -2.7448
  296DMF     H6 4040   2.854   3.152   2.844 -0.4059 -2.7155  1.7188
  296DMF     H7 4041   3.083   3.095   3.124 -2.3477  0.7735  1.2636
  297DMF     C1 4042   3.198   0.645   3.486 -0.0036 -0.2359  0.6684
  297DMF     N1 4043   3.328   0.561   3.510 -1.2462  0.2325 -0.0342
  297DMF     C2 4044   3.402   0.530   3.382  0.6008  0.2699 -0.3777
  297DMF     C3 4045   3.380   0.523   3.636 -0.2923 -0.4814 -0.3688
  297DMF     O1 4046   3.331   0.547   3.742 -0.0639  0.2700 -0.0964
  297DMF     H1 4047   3.138   0.599   3.407  0.0374 -1.2170  1.1942
  297DMF     H2 4048   3.224   0.750   3.470 -1.6243  0.0827  0.0410
  297DMF     H3 4049   3.130   0.634   3.571 -2.7438  0.1613 -1.4162
  297DMF     H4 4050   3.343   0.462   3.318 -0.3714  0.0792  0.7102
  297DMF     H5 4051   3.486   0.463   3.406  1.9110  1.9012 -0.3638
  297DMF     H6 4052   3.434   0.618   3.326  0.4555 -0.6082 -1.8865
  297DMF     H7 4053   3.463   0.452   3.625 -0.9422 -1.7668  2.5575
  298DMF     C1 4054   0.949   2.165   0.011  0.5138 -0.3226  0.1923
  298DMF     N1 4055   0.850   2.073   0.056  0.3876  0.3350 -0.2039
  298DMF     C2 4056   0.839   1.937  -0.007 -0.1854 -0.2963  0.3405
  298DMF     C3 4057   0.766   2.113   0.162 -0.2353 -0.1390 -1.4113
  298DMF     O1 4058   0.765   2.218   0.210  0.0332 -0.8808 -0.0462
  298DMF     H1 4059   0.972   2.141  -0.094  0.1383  1.6769 -0.3685
  298DMF     H2 4060   1.036   2.136   0.071  0.9828  0.3976 -0.1356
  298DMF     H3 4061   0.912   2.267   0.029 -1.6662 -0.9984 -0.2785
  298DMF     H4 4062   0.756   1.872   0.024 -0.1663 -1.4350 -1.8493
  298DMF     H5 4063   0.926   1.872   0.009  0.1414  0.3654  1.3027
  298DMF     H6 4064   0.828   1.953  -0.115  1.4351  3.8394  0.7064
  298DMF     H7 4065   0.703   2.031   0.201  0.5751 -0.5812 -1.0077
  299DMF     C1 4066   0.064   0.882   2.695 -0.6587  0.3591 -0.5953
  299DMF     N1 4067  -0.022   0.992   2.738  0.2623  0.2979  0.6125
  299DMF     C2 4068  -0.122   1.048   2.646 -0.9114  0.2413  0.1883
  299DMF     C3 4069   0.003   1.070   2.851  0.2938 -0.8070 -0.7357
  299DMF     O1 4070   0.084   1.036   2.941 -0.1930 -0.0208  0.1166
  299DMF     H1 4071   0.166   0.915   2.673  0.0580  0.1067  2.1678
  299DMF     H2 4072   0.013   0.824   2.618  0.9154 -0.6933 -0.8634
  299DMF     H3 4073   0.076   0.810   2.777  0.3663 -1.1485 -2.0337
  299DMF     H4 4074  -0.090   1.051   2.541  1.2488  1.0373  0.8379
  299DMF     H5 4075  -0.144   1.151   2.679  2.9268  1.6750 -1.5168
  299DMF     H6 4076  -0.217   0.995   2.658 -0.0030 -0.9370  2.6109
  299DMF     H7 4077  -0.059   1.161   2.854  0.3632 -0.6929 -2.2909
  300DMF     C1 4078   1.261   2.957   3.730 -0.1687 -0.3024 -0.4551
  300DMF     N1 4079   1.360   2.950   3.623 -0.1116  0.5745 -0.7928
  300DMF     C2 4080   1.432   3.075   3.589  0.1051  0.3769 -0.5720
  300DMF     C3 4081   1.397   2.828   3.570  0.2496 -0.3575  1.0641
  300DMF     O1 4082   1.343   2.724   3.596  0.5530 -0.2755 -0.4892
  300DMF     H1 4083   1.213   3.056   3.725 -1.8354 -1.0375  0.5304
  300DMF     H2 4084   1.307   2.929   3.825  0.3783 -0.5122 -0.7825
  300DMF     H3 4085   1.182   2.887   3.699  0.8056 -1.7562  0.3358
  300DMF     H4 4086   1.365   3.152   3.550 -0.2507 -0.1740 -1.0533
  300DMF     H5 4087   1.495   3.053   3.501  1.0857 -0.8577  0.4136
  300DMF     H6 4088   1.487   3.114   3.676 -0.8749 -2.5219  1.4424
  300DMF     H7 4089   1.482   2.838   3.499 -0.4241 -1.0412  0.1515
  301DMF     C1 4090   2.402   1.561   3.376  0.7282 -0.1469 -0.1240
  301DMF     N1 4091   2.305   1.455   3.339  0.0546  0.8582  0.1046
  301DMF     C2 4092   2.192   1.498   3.254  0.7295  0.1270 -0.2834
  301DMF     C3 4093   2.303   1.324   3.397  0.4996 -0.6619 -0.8532
  301DMF     O1 4094   2.392   1.275   3.464  0.1303  0.2276 -0.1740
  301DMF     H1 4095   2.415   1.587   3.482  1.0466  0.4739 -0.3160
  301DMF     H2 4096   2.374   1.656   3.329 -0.2313  0.2489  1.2187
  301DMF     H3 4097   2.504   1.530   3.349  1.1117 -0.3146  1.4538
  301DMF     H4 4098   2.106   1.496   3.321  0.4352 -0.7686 -0.6812
  301DMF     H5 4099   2.173   1.420   3.179  1.1010 -0.5216  0.2941
  301DMF     H6 4100   2.203   1.594   3.200 -1.3027 -0.1586 -1.2551
  301DMF     H7 4101   2.206   1.275   3.375 -0.2596 -0.6261  2.1747
  302DMF     C1 4102   0.043   1.037   0.149  0.1045  0.1460 -0.1336
  302DMF     N1 4103  -0.055   0.955   0.088 -0.1841  0.1677  0.5878
  302DMF     C2 4104  -0.111   0.988  -0.047 -0.5180 -0.2645  0.2903
  302DMF     C3 4105  -0.096   0.831   0.142 -0.2692  0.1613 -0.4859
  302DMF     O1 4106  -0.065   0.792   0.253  0.4033 -0.9839 -0.7828
  302DMF     H1 4107  -0.013   1.132   0.151 -2.3346 -1.2473 -0.8602
  302DMF     H2 4108   0.130   1.048   0.083 -2.0792  3.4323 -2.6823
  302DMF     H3 4109   0.066   1.011   0.252 -2.5682 -1.3800  0.1259
  302DMF     H4 4110  -0.155   0.896  -0.088  1.7618 -0.4337 -1.9154
  302DMF     H5 4111  -0.030   1.011  -0.118 -0.9543  0.3599 -0.0157
  302DMF     H6 4112  -0.176   1.074  -0.027 -0.6873 -0.2250 -0.4027
  302DMF     H7 4113  -0.179   0.779   0.090  0.8379 -0.8937 -1.2226
  303DMF     C1 4114   2.546   0.810   3.179 -0.4481 -0.8459  0.4123
  303DMF     N1 4115   2.501   0.756   3.050 -0.4112 -0.5641 -0.4913
  303DMF     C2 4116   2.362   0.755   3.017  0.0448  0.2459 -0.1344
  303DMF     C3 4117   2.599   0.690   2.970 -0.1187 -0.1897  0.0075
  303DMF     O1 4118   2.718   0.693   2.989  0.3736 -0.3182 -0.0996
  303DMF     H1 4119   2.628   0.881   3.161  0.0923 -1.5739 -0.0390
  303DMF     H2 4120   2.586   0.733   3.245 -1.0970 -1.8947 -0.4010
  303DMF     H3 4121   2.478   0.879   3.230 -1.8279  0.1057 -2.5721
  303DMF     H4 4122   2.344   0.709   2.919  0.0841 -2.0846  0.9068
  303DMF     H5 4123   2.310   0.851   3.031 -0.0361  0.3002 -0.8147
  303DMF     H6 4124   2.317   0.691   3.094  1.1205 -0.4555 -0.0775
  303DMF     H7 4125   2.549   0.628   2.893 -0.8033 -2.1491  1.9574
  304DMF     C1 4126   1.621   0.071   2.631  0.4665  0.2375  0.6817
  304DMF     N1 4127   1.738   0.142   2.677 -0.3950 -0.2382 -1.1944
  304DMF     C2 4128   1.865   0.102   2.626 -0.6727 -0.1723 -0.3729
  304DMF     C3 4129   1.721   0.250   2.768  0.5577  0.0688  0.4417
  304DMF     O1 4130   1.611   0.272   2.808  0.6582  0.1272 -0.4071
  304DMF     H1 4131   1.568   0.035   2.720 -0.4843  0.4009  0.1868
  304DMF     H2 4132   1.651  -0.013   2.567 -0.1210  1.2836 -1.0230
  304DMF     H3 4133   1.562   0.142   2.571  0.3278 -0.4186  0.0336
  304DMF     H4 4134   1.944   0.145   2.688  0.2166  1.2586 -2.4523
  304DMF     H5 4135   1.867   0.136   2.522 -1.4460  0.1715 -0.2849
  304DMF     H6 4136   1.881  -0.007   2.625 -1.2155 -0.2565 -0.1320
  304DMF     H7 4137   1.812   0.304   2.802  0.0297 -0.0249  2.0196
  305DMF     C1 4138   1.088   1.503   2.240  0.0989  0.2954  0.4835
  305DMF     N1 4139   1.201   1.569   2.310 -0.3849  0.0127  0.6462
  305DMF     C2 4140   1.307   1.478   2.357 -0.0241  1.1812 -0.1405
  305DMF     C3 4141   1.214   1.704   2.312 -0.8025  0.4821  0.2951
  305DMF     O1 4142   1.133   1.777   2.258 -0.0160  0.0105 -0.0414
  305DMF     H1 4143   1.005   1.571   2.215 -0.1285 -0.0143  0.3897
  305DMF     H2 4144   1.033   1.442   2.313 -3.1633  2.2149 -0.2587
  305DMF     H3 4145   1.124   1.453   2.149  1.5692  0.8958  0.7166
  305DMF     H4 4146   1.399   1.533   2.383  0.0288  1.0186  0.0119
  305DMF     H5 4147   1.330   1.401   2.282 -1.5909 -0.7269  1.2926
  305DMF     H6 4148   1.284   1.422   2.448  1.2657  1.1793  0.1913
  305DMF     H7 4149   1.314   1.722   2.356 -0.6603 -0.3799  0.3446
  306DMF     C1 4150   3.284   0.140   3.720 -0.4000  0.3972 -0.5014
  306DMF     N1 4151   3.352   0.011   3.723  0.4114  0.3140  0.1997
  306DMF     C2 4152   3.290  -0.099   3.796 -0.4178  0.7738  0.5716
  306DMF     C3 4153   3.472  -0.014   3.665 -0.4725  0.0007 -0.4230
  306DMF     O1 4154   3.536   0.071   3.611 -0.0431 -0.2873  0.5720
  306DMF     H1 4155   3.351   0.224   3.701 -0.7786  0.4173 -1.7696
  306DMF     H2 4156   3.236   0.160   3.817 -0.9076 -1.0820 -0.4298
  306DMF     H3 4157   3.203   0.135   3.646 -0.6962 -0.5630 -0.1184
  306DMF     H4 4158   3.181  -0.100   3.788 -0.4144  0.0687  0.5947
  306DMF     H5 4159   3.312  -0.086   3.903  1.5574  0.6015  0.2135
  306DMF     H6 4160   3.330  -0.195   3.762 -0.5842  0.8915  0.0291
  306DMF     H7 4161   3.504  -0.119   3.680  0.2304  0.3528  0.6241
  307DMF     C1 4162   1.814   2.641   3.243  0.3340 -0.0459 -0.0384
  307DMF     N1 4163   1.674   2.607   3.285 -0.0236 -0.0855  0.3633
  307DMF     C2 4164   1.558   2.638   3.194  0.4769 -1.0638  0.6975
  307DMF     C3 4165   1.648   2.567   3.415  0.1890 -0.1527 -0.2394
  307DMF     O1 4166   1.738   2.560   3.499  0.3740 -0.0953  0.2739
  307DMF     H1 4167   1.877   2.661   3.330  0.2966  2.8119 -0.6154
  307DMF     H2 4168   1.819   2.732   3.182  1.2013  0.4358  0.7449
  307DMF     H3 4169   1.855   2.553   3.191 -1.3305 -1.1148  0.4293
  307DMF     H4 4170   1.463   2.624   3.247 -1.1458  0.4569 -1.7310
  307DMF     H5 4171   1.560   2.564   3.113  0.0114 -0.9728  0.6054
  307DMF     H6 4172   1.564   2.744   3.169 -0.8219 -1.3531 -0.9108
  307DMF     H7 4173   1.543   2.541   3.437  0.0392 -0.9132 -1.7460
   3.40320   3.43847   3.80000
