Anisole comparator n4
 3969
    1GR      C1    1   0.000   0.000   1.900  0.0000  0.0000  0.0000
    1GR      C2    2   0.142   0.000   1.900  0.0000  0.0000  0.0000
    1GR      C3    3   0.213   0.123   1.900  0.0000  0.0000  0.0000
    1GR      C4    4   0.354   0.123   1.900  0.0000  0.0000  0.0000
    1GR      C5    5   0.000   0.246   1.900  0.0000  0.0000  0.0000
    1GR      C6    6   0.142   0.246   1.900  0.0000  0.0000  0.0000
    1GR      C7    7   0.213   0.368   1.900  0.0000  0.0000  0.0000
    1GR      C8    8   0.354   0.368   1.900  0.0000  0.0000  0.0000
    1GR      C9    9   0.000   0.491   1.900  0.0000  0.0000  0.0000
    1GR     C10   10   0.142   0.491   1.900  0.0000  0.0000  0.0000
    1GR     C11   11   0.213   0.614   1.900  0.0000  0.0000  0.0000
    1GR     C12   12   0.354   0.614   1.900  0.0000  0.0000  0.0000
    1GR     C13   13   0.000   0.737   1.900  0.0000  0.0000  0.0000
    1GR     C14   14   0.142   0.737   1.900  0.0000  0.0000  0.0000
    1GR     C15   15   0.213   0.860   1.900  0.0000  0.0000  0.0000
    1GR     C16   16   0.354   0.860   1.900  0.0000  0.0000  0.0000
    1GR     C17   17   0.000   0.982   1.900  0.0000  0.0000  0.0000
    1GR     C18   18   0.142   0.982   1.900  0.0000  0.0000  0.0000
    1GR     C19   19   0.213   1.105   1.900  0.0000  0.0000  0.0000
    1GR     C20   20   0.354   1.105   1.900  0.0000  0.0000  0.0000
    1GR     C21   21   0.000   1.228   1.900  0.0000  0.0000  0.0000
    1GR     C22   22   0.142   1.228   1.900  0.0000  0.0000  0.0000
    1GR     C23   23   0.213   1.351   1.900  0.0000  0.0000  0.0000
    1GR     C24   24   0.354   1.351   1.900  0.0000  0.0000  0.0000
    1GR     C25   25   0.000   1.474   1.900  0.0000  0.0000  0.0000
    1GR     C26   26   0.142   1.474   1.900  0.0000  0.0000  0.0000
    1GR     C27   27   0.213   1.596   1.900  0.0000  0.0000  0.0000
    1GR     C28   28   0.354   1.596   1.900  0.0000  0.0000  0.0000
    1GR     C29   29   0.000   1.719   1.900  0.0000  0.0000  0.0000
    1GR     C30   30   0.142   1.719   1.900  0.0000  0.0000  0.0000
    1GR     C31   31   0.213   1.842   1.900  0.0000  0.0000  0.0000
    1GR     C32   32   0.354   1.842   1.900  0.0000  0.0000  0.0000
    1GR     C33   33   0.000   1.965   1.900  0.0000  0.0000  0.0000
    1GR     C34   34   0.142   1.965   1.900  0.0000  0.0000  0.0000
    1GR     C35   35   0.213   2.088   1.900  0.0000  0.0000  0.0000
    1GR     C36   36   0.354   2.088   1.900  0.0000  0.0000  0.0000
    1GR     C37   37   0.000   2.210   1.900  0.0000  0.0000  0.0000
    1GR     C38   38   0.142   2.210   1.900  0.0000  0.0000  0.0000
    1GR     C39   39   0.213   2.333   1.900  0.0000  0.0000  0.0000
    1GR     C40   40   0.354   2.333   1.900  0.0000  0.0000  0.0000
    1GR     C41   41   0.000   2.456   1.900  0.0000  0.0000  0.0000
    1GR     C42   42   0.142   2.456   1.900  0.0000  0.0000  0.0000
    1GR     C43   43   0.213   2.579   1.900  0.0000  0.0000  0.0000
    1GR     C44   44   0.354   2.579   1.900  0.0000  0.0000  0.0000
    1GR     C45   45   3.403   2.702   1.900  0.0000  0.0000  0.0000
    1GR     C46   46   0.142   2.702   1.900  0.0000  0.0000  0.0000
    1GR     C47   47   0.213   2.824   1.900  0.0000  0.0000  0.0000
    1GR     C48   48   0.354   2.824   1.900  0.0000  0.0000  0.0000
    1GR     C49   49   0.000   2.947   1.900  0.0000  0.0000  0.0000
    1GR     C50   50   0.142   2.947   1.900  0.0000  0.0000  0.0000
    1GR     C51   51   0.213   3.070   1.900  0.0000  0.0000  0.0000
    1GR     C52   52   0.354   3.070   1.900  0.0000  0.0000  0.0000
    1GR     C53   53   0.000   3.193   1.900  0.0000  0.0000  0.0000
    1GR     C54   54   0.142   3.193   1.900  0.0000  0.0000  0.0000
    1GR     C55   55   0.213   3.316   1.900  0.0000  0.0000  0.0000
    1GR     C56   56   0.354   3.316   1.900  0.0000  0.0000  0.0000
    1GR     C57   57   0.425   0.000   1.900  0.0000  0.0000  0.0000
    1GR     C58   58   0.567   0.000   1.900  0.0000  0.0000  0.0000
    1GR     C59   59   0.638   0.123   1.900  0.0000  0.0000  0.0000
    1GR     C60   60   0.780   0.123   1.900  0.0000  0.0000  0.0000
    1GR     C61   61   0.425   0.246   1.900  0.0000  0.0000  0.0000
    1GR     C62   62   0.567   0.246   1.900  0.0000  0.0000  0.0000
    1GR     C63   63   0.638   0.368   1.900  0.0000  0.0000  0.0000
    1GR     C64   64   0.780   0.368   1.900  0.0000  0.0000  0.0000
    1GR     C65   65   0.425   0.491   1.900  0.0000  0.0000  0.0000
    1GR     C66   66   0.567   0.491   1.900  0.0000  0.0000  0.0000
    1GR     C67   67   0.638   0.614   1.900  0.0000  0.0000  0.0000
    1GR     C68   68   0.780   0.614   1.900  0.0000  0.0000  0.0000
    1GR     C69   69   0.425   0.737   1.900  0.0000  0.0000  0.0000
    1GR     C70   70   0.567   0.737   1.900  0.0000  0.0000  0.0000
    1GR     C71   71   0.638   0.860   1.900  0.0000  0.0000  0.0000
    1GR     C72   72   0.780   0.860   1.900  0.0000  0.0000  0.0000
    1GR     C73   73   0.425   0.982   1.900  0.0000  0.0000  0.0000
    1GR     C74   74   0.567   0.982   1.900  0.0000  0.0000  0.0000
    1GR     C75   75   0.638   1.105   1.900  0.0000  0.0000  0.0000
    1GR     C76   76   0.780   1.105   1.900  0.0000  0.0000  0.0000
    1GR     C77   77   0.425   1.228   1.900  0.0000  0.0000  0.0000
    1GR     C78   78   0.567   1.228   1.900  0.0000  0.0000  0.0000
    1GR     C79   79   0.638   1.351   1.900  0.0000  0.0000  0.0000
    1GR     C80   80   0.780   1.351   1.900  0.0000  0.0000  0.0000
    1GR     C81   81   0.425   1.474   1.900  0.0000  0.0000  0.0000
    1GR     C82   82   0.567   1.474   1.900  0.0000  0.0000  0.0000
    1GR     C83   83   0.638   1.596   1.900  0.0000  0.0000  0.0000
    1GR     C84   84   0.780   1.596   1.900  0.0000  0.0000  0.0000
    1GR     C85   85   0.425   1.719   1.900  0.0000  0.0000  0.0000
    1GR     C86   86   0.567   1.719   1.900  0.0000  0.0000  0.0000
    1GR     C87   87   0.638   1.842   1.900  0.0000  0.0000  0.0000
    1GR     C88   88   0.780   1.842   1.900  0.0000  0.0000  0.0000
    1GR     C89   89   0.425   1.965   1.900  0.0000  0.0000  0.0000
    1GR     C90   90   0.567   1.965   1.900  0.0000  0.0000  0.0000
    1GR     C91   91   0.638   2.088   1.900  0.0000  0.0000  0.0000
    1GR     C92   92   0.780   2.088   1.900  0.0000  0.0000  0.0000
    1GR     C93   93   0.425   2.210   1.900  0.0000  0.0000  0.0000
    1GR     C94   94   0.567   2.210   1.900  0.0000  0.0000  0.0000
    1GR     C95   95   0.638   2.333   1.900  0.0000  0.0000  0.0000
    1GR     C96   96   0.780   2.333   1.900  0.0000  0.0000  0.0000
    1GR     C97   97   0.425   2.456   1.900  0.0000  0.0000  0.0000
    1GR     C98   98   0.567   2.456   1.900  0.0000  0.0000  0.0000
    1GR     C99   99   0.638   2.579   1.900  0.0000  0.0000  0.0000
    1GR    C100  100   0.780   2.579   1.900  0.0000  0.0000  0.0000
    1GR    C101  101   0.425   2.702   1.900  0.0000  0.0000  0.0000
    1GR    C102  102   0.567   2.702   1.900  0.0000  0.0000  0.0000
    1GR    C103  103   0.638   2.824   1.900  0.0000  0.0000  0.0000
    1GR    C104  104   0.780   2.824   1.900  0.0000  0.0000  0.0000
    1GR    C105  105   0.425   2.947   1.900  0.0000  0.0000  0.0000
    1GR    C106  106   0.567   2.947   1.900  0.0000  0.0000  0.0000
    1GR    C107  107   0.638   3.070   1.900  0.0000  0.0000  0.0000
    1GR    C108  108   0.780   3.070   1.900  0.0000  0.0000  0.0000
    1GR    C109  109   0.425   3.193   1.900  0.0000  0.0000  0.0000
    1GR    C110  110   0.567   3.193   1.900  0.0000  0.0000  0.0000
    1GR    C111  111   0.638   3.316   1.900  0.0000  0.0000  0.0000
    1GR    C112  112   0.780   3.316   1.900  0.0000  0.0000  0.0000
    1GR    C113  113   0.851   0.000   1.900  0.0000  0.0000  0.0000
    1GR    C114  114   0.993   0.000   1.900  0.0000  0.0000  0.0000
    1GR    C115  115   1.064   0.123   1.900  0.0000  0.0000  0.0000
    1GR    C116  116   1.205   0.123   1.900  0.0000  0.0000  0.0000
    1GR    C117  117   0.851   0.246   1.900  0.0000  0.0000  0.0000
    1GR    C118  118   0.993   0.246   1.900  0.0000  0.0000  0.0000
    1GR    C119  119   1.064   0.368   1.900  0.0000  0.0000  0.0000
    1GR    C120  120   1.205   0.368   1.900  0.0000  0.0000  0.0000
    1GR    C121  121   0.851   0.491   1.900  0.0000  0.0000  0.0000
    1GR    C122  122   0.993   0.491   1.900  0.0000  0.0000  0.0000
    1GR    C123  123   1.064   0.614   1.900  0.0000  0.0000  0.0000
    1GR    C124  124   1.205   0.614   1.900  0.0000  0.0000  0.0000
    1GR    C125  125   0.851   0.737   1.900  0.0000  0.0000  0.0000
    1GR    C126  126   0.993   0.737   1.900  0.0000  0.0000  0.0000
    1GR    C127  127   1.064   0.860   1.900  0.0000  0.0000  0.0000
    1GR    C128  128   1.205   0.860   1.900  0.0000  0.0000  0.0000
    1GR    C129  129   0.851   0.982   1.900  0.0000  0.0000  0.0000
    1GR    C130  130   0.993   0.982   1.900  0.0000  0.0000  0.0000
    1GR    C131  131   1.064   1.105   1.900  0.0000  0.0000  0.0000
    1GR    C132  132   1.205   1.105   1.900  0.0000  0.0000  0.0000
    1GR    C133  133   0.851   1.228   1.900  0.0000  0.0000  0.0000
    1GR    C134  134   0.993   1.228   1.900  0.0000  0.0000  0.0000
    1GR    C135  135   1.064   1.351   1.900  0.0000  0.0000  0.0000
    1GR    C136  136   1.205   1.351   1.900  0.0000  0.0000  0.0000
    1GR    C137  137   0.851   1.474   1.900  0.0000  0.0000  0.0000
    1GR    C138  138   0.993   1.474   1.900  0.0000  0.0000  0.0000
    1GR    C139  139   1.064   1.596   1.900  0.0000  0.0000  0.0000
    1GR    C140  140   1.205   1.596   1.900  0.0000  0.0000  0.0000
    1GR    C141  141   0.851   1.719   1.900  0.0000  0.0000  0.0000
    1GR    C142  142   0.993   1.719   1.900  0.0000  0.0000  0.0000
    1GR    C143  143   1.064   1.842   1.900  0.0000  0.0000  0.0000
    1GR    C144  144   1.205   1.842   1.900  0.0000  0.0000  0.0000
    1GR    C145  145   0.851   1.965   1.900  0.0000  0.0000  0.0000
    1GR    C146  146   0.993   1.965   1.900  0.0000  0.0000  0.0000
    1GR    C147  147   1.064   2.088   1.900  0.0000  0.0000  0.0000
    1GR    C148  148   1.205   2.088   1.900  0.0000  0.0000  0.0000
    1GR    C149  149   0.851   2.210   1.900  0.0000  0.0000  0.0000
    1GR    C150  150   0.993   2.210   1.900  0.0000  0.0000  0.0000
    1GR    C151  151   1.064   2.333   1.900  0.0000  0.0000  0.0000
    1GR    C152  152   1.205   2.333   1.900  0.0000  0.0000  0.0000
    1GR    C153  153   0.851   2.456   1.900  0.0000  0.0000  0.0000
    1GR    C154  154   0.993   2.456   1.900  0.0000  0.0000  0.0000
    1GR    C155  155   1.064   2.579   1.900  0.0000  0.0000  0.0000
    1GR    C156  156   1.205   2.579   1.900  0.0000  0.0000  0.0000
    1GR    C157  157   0.851   2.702   1.900  0.0000  0.0000  0.0000
    1GR    C158  158   0.993   2.702   1.900  0.0000  0.0000  0.0000
    1GR    C159  159   1.064   2.824   1.900  0.0000  0.0000  0.0000
    1GR    C160  160   1.205   2.824   1.900  0.0000  0.0000  0.0000
    1GR    C161  161   0.851   2.947   1.900  0.0000  0.0000  0.0000
    1GR    C162  162   0.993   2.947   1.900  0.0000  0.0000  0.0000
    1GR    C163  163   1.064   3.070   1.900  0.0000  0.0000  0.0000
    1GR    C164  164   1.205   3.070   1.900  0.0000  0.0000  0.0000
    1GR    C165  165   0.851   3.193   1.900  0.0000  0.0000  0.0000
    1GR    C166  166   0.993   3.193   1.900  0.0000  0.0000  0.0000
    1GR    C167  167   1.064   3.316   1.900  0.0000  0.0000  0.0000
    1GR    C168  168   1.205   3.316   1.900  0.0000  0.0000  0.0000
    1GR    C169  169   1.276   0.000   1.900  0.0000  0.0000  0.0000
    1GR    C170  170   1.418   0.000   1.900  0.0000  0.0000  0.0000
    1GR    C171  171   1.489   0.123   1.900  0.0000  0.0000  0.0000
    1GR    C172  172   1.631   0.123   1.900  0.0000  0.0000  0.0000
    1GR    C173  173   1.276   0.246   1.900  0.0000  0.0000  0.0000
    1GR    C174  174   1.418   0.246   1.900  0.0000  0.0000  0.0000
    1GR    C175  175   1.489   0.368   1.900  0.0000  0.0000  0.0000
    1GR    C176  176   1.631   0.368   1.900  0.0000  0.0000  0.0000
    1GR    C177  177   1.276   0.491   1.900  0.0000  0.0000  0.0000
    1GR    C178  178   1.418   0.491   1.900  0.0000  0.0000  0.0000
    1GR    C179  179   1.489   0.614   1.900  0.0000  0.0000  0.0000
    1GR    C180  180   1.631   0.614   1.900  0.0000  0.0000  0.0000
    1GR    C181  181   1.276   0.737   1.900  0.0000  0.0000  0.0000
    1GR    C182  182   1.418   0.737   1.900  0.0000  0.0000  0.0000
    1GR    C183  183   1.489   0.860   1.900  0.0000  0.0000  0.0000
    1GR    C184  184   1.631   0.860   1.900  0.0000  0.0000  0.0000
    1GR    C185  185   1.276   0.982   1.900  0.0000  0.0000  0.0000
    1GR    C186  186   1.418   0.982   1.900  0.0000  0.0000  0.0000
    1GR    C187  187   1.489   1.105   1.900  0.0000  0.0000  0.0000
    1GR    C188  188   1.631   1.105   1.900  0.0000  0.0000  0.0000
    1GR    C189  189   1.276   1.228   1.900  0.0000  0.0000  0.0000
    1GR    C190  190   1.418   1.228   1.900  0.0000  0.0000  0.0000
    1GR    C191  191   1.489   1.351   1.900  0.0000  0.0000  0.0000
    1GR    C192  192   1.631   1.351   1.900  0.0000  0.0000  0.0000
    1GR    C193  193   1.276   1.474   1.900  0.0000  0.0000  0.0000
    1GR    C194  194   1.418   1.474   1.900  0.0000  0.0000  0.0000
    1GR    C195  195   1.489   1.596   1.900  0.0000  0.0000  0.0000
    1GR    C196  196   1.631   1.596   1.900  0.0000  0.0000  0.0000
    1GR    C197  197   1.276   1.719   1.900  0.0000  0.0000  0.0000
    1GR    C198  198   1.418   1.719   1.900  0.0000  0.0000  0.0000
    1GR    C199  199   1.489   1.842   1.900  0.0000  0.0000  0.0000
    1GR    C200  200   1.631   1.842   1.900  0.0000  0.0000  0.0000
    1GR    C201  201   1.276   1.965   1.900  0.0000  0.0000  0.0000
    1GR    C202  202   1.418   1.965   1.900  0.0000  0.0000  0.0000
    1GR    C203  203   1.489   2.088   1.900  0.0000  0.0000  0.0000
    1GR    C204  204   1.631   2.088   1.900  0.0000  0.0000  0.0000
    1GR    C205  205   1.276   2.210   1.900  0.0000  0.0000  0.0000
    1GR    C206  206   1.418   2.210   1.900  0.0000  0.0000  0.0000
    1GR    C207  207   1.489   2.333   1.900  0.0000  0.0000  0.0000
    1GR    C208  208   1.631   2.333   1.900  0.0000  0.0000  0.0000
    1GR    C209  209   1.276   2.456   1.900  0.0000  0.0000  0.0000
    1GR    C210  210   1.418   2.456   1.900  0.0000  0.0000  0.0000
    1GR    C211  211   1.489   2.579   1.900  0.0000  0.0000  0.0000
    1GR    C212  212   1.631   2.579   1.900  0.0000  0.0000  0.0000
    1GR    C213  213   1.276   2.702   1.900  0.0000  0.0000  0.0000
    1GR    C214  214   1.418   2.702   1.900  0.0000  0.0000  0.0000
    1GR    C215  215   1.489   2.824   1.900  0.0000  0.0000  0.0000
    1GR    C216  216   1.631   2.824   1.900  0.0000  0.0000  0.0000
    1GR    C217  217   1.276   2.947   1.900  0.0000  0.0000  0.0000
    1GR    C218  218   1.418   2.947   1.900  0.0000  0.0000  0.0000
    1GR    C219  219   1.489   3.070   1.900  0.0000  0.0000  0.0000
    1GR    C220  220   1.631   3.070   1.900  0.0000  0.0000  0.0000
    1GR    C221  221   1.276   3.193   1.900  0.0000  0.0000  0.0000
    1GR    C222  222   1.418   3.193   1.900  0.0000  0.0000  0.0000
    1GR    C223  223   1.489   3.316   1.900  0.0000  0.0000  0.0000
    1GR    C224  224   1.631   3.316   1.900  0.0000  0.0000  0.0000
    1GR    C225  225   1.702   0.000   1.900  0.0000  0.0000  0.0000
    1GR    C226  226   1.843   0.000   1.900  0.0000  0.0000  0.0000
    1GR    C227  227   1.914   0.123   1.900  0.0000  0.0000  0.0000
    1GR    C228  228   2.056   0.123   1.900  0.0000  0.0000  0.0000
    1GR    C229  229   1.702   0.246   1.900  0.0000  0.0000  0.0000
    1GR    C230  230   1.843   0.246   1.900  0.0000  0.0000  0.0000
    1GR    C231  231   1.914   0.368   1.900  0.0000  0.0000  0.0000
    1GR    C232  232   2.056   0.368   1.900  0.0000  0.0000  0.0000
    1GR    C233  233   1.702   0.491   1.900  0.0000  0.0000  0.0000
    1GR    C234  234   1.843   0.491   1.900  0.0000  0.0000  0.0000
    1GR    C235  235   1.914   0.614   1.900  0.0000  0.0000  0.0000
    1GR    C236  236   2.056   0.614   1.900  0.0000  0.0000  0.0000
    1GR    C237  237   1.702   0.737   1.900  0.0000  0.0000  0.0000
    1GR    C238  238   1.843   0.737   1.900  0.0000  0.0000  0.0000
    1GR    C239  239   1.914   0.860   1.900  0.0000  0.0000  0.0000
    1GR    C240  240   2.056   0.860   1.900  0.0000  0.0000  0.0000
    1GR    C241  241   1.702   0.982   1.900  0.0000  0.0000  0.0000
    1GR    C242  242   1.843   0.982   1.900  0.0000  0.0000  0.0000
    1GR    C243  243   1.914   1.105   1.900  0.0000  0.0000  0.0000
    1GR    C244  244   2.056   1.105   1.900  0.0000  0.0000  0.0000
    1GR    C245  245   1.702   1.228   1.900  0.0000  0.0000  0.0000
    1GR    C246  246   1.843   1.228   1.900  0.0000  0.0000  0.0000
    1GR    C247  247   1.914   1.351   1.900  0.0000  0.0000  0.0000
    1GR    C248  248   2.056   1.351   1.900  0.0000  0.0000  0.0000
    1GR    C249  249   1.702   1.474   1.900  0.0000  0.0000  0.0000
    1GR    C250  250   1.843   1.474   1.900  0.0000  0.0000  0.0000
    1GR    C251  251   1.914   1.596   1.900  0.0000  0.0000  0.0000
    1GR    C252  252   2.056   1.596   1.900  0.0000  0.0000  0.0000
    1GR    C253  253   1.702   1.719   1.900  0.0000  0.0000  0.0000
    1GR    C254  254   1.843   1.719   1.900  0.0000  0.0000  0.0000
    1GR    C255  255   1.914   1.842   1.900  0.0000  0.0000  0.0000
    1GR    C256  256   2.056   1.842   1.900  0.0000  0.0000  0.0000
    1GR    C257  257   1.702   1.965   1.900  0.0000  0.0000  0.0000
    1GR    C258  258   1.843   1.965   1.900  0.0000  0.0000  0.0000
    1GR    C259  259   1.914   2.088   1.900  0.0000  0.0000  0.0000
    1GR    C260  260   2.056   2.088   1.900  0.0000  0.0000  0.0000
    1GR    C261  261   1.702   2.210   1.900  0.0000  0.0000  0.0000
    1GR    C262  262   1.843   2.210   1.900  0.0000  0.0000  0.0000
    1GR    C263  263   1.914   2.333   1.900  0.0000  0.0000  0.0000
    1GR    C264  264   2.056   2.333   1.900  0.0000  0.0000  0.0000
    1GR    C265  265   1.702   2.456   1.900  0.0000  0.0000  0.0000
    1GR    C266  266   1.843   2.456   1.900  0.0000  0.0000  0.0000
    1GR    C267  267   1.914   2.579   1.900  0.0000  0.0000  0.0000
    1GR    C268  268   2.056   2.579   1.900  0.0000  0.0000  0.0000
    1GR    C269  269   1.702   2.702   1.900  0.0000  0.0000  0.0000
    1GR    C270  270   1.843   2.702   1.900  0.0000  0.0000  0.0000
    1GR    C271  271   1.914   2.824   1.900  0.0000  0.0000  0.0000
    1GR    C272  272   2.056   2.824   1.900  0.0000  0.0000  0.0000
    1GR    C273  273   1.702   2.947   1.900  0.0000  0.0000  0.0000
    1GR    C274  274   1.843   2.947   1.900  0.0000  0.0000  0.0000
    1GR    C275  275   1.914   3.070   1.900  0.0000  0.0000  0.0000
    1GR    C276  276   2.056   3.070   1.900  0.0000  0.0000  0.0000
    1GR    C277  277   1.702   3.193   1.900  0.0000  0.0000  0.0000
    1GR    C278  278   1.843   3.193   1.900  0.0000  0.0000  0.0000
    1GR    C279  279   1.914   3.316   1.900  0.0000  0.0000  0.0000
    1GR    C280  280   2.056   3.316   1.900  0.0000  0.0000  0.0000
    1GR    C281  281   2.127  -0.000   1.900  0.0000  0.0000  0.0000
    1GR    C282  282   2.269   0.000   1.900  0.0000  0.0000  0.0000
    1GR    C283  283   2.340   0.123   1.900  0.0000  0.0000  0.0000
    1GR    C284  284   2.481   0.123   1.900  0.0000  0.0000  0.0000
    1GR    C285  285   2.127   0.246   1.900  0.0000  0.0000  0.0000
    1GR    C286  286   2.269   0.246   1.900  0.0000  0.0000  0.0000
    1GR    C287  287   2.340   0.368   1.900  0.0000  0.0000  0.0000
    1GR    C288  288   2.481   0.368   1.900  0.0000  0.0000  0.0000
    1GR    C289  289   2.127   0.491   1.900  0.0000  0.0000  0.0000
    1GR    C290  290   2.269   0.491   1.900  0.0000  0.0000  0.0000
    1GR    C291  291   2.340   0.614   1.900  0.0000  0.0000  0.0000
    1GR    C292  292   2.481   0.614   1.900  0.0000  0.0000  0.0000
    1GR    C293  293   2.127   0.737   1.900  0.0000  0.0000  0.0000
    1GR    C294  294   2.269   0.737   1.900  0.0000  0.0000  0.0000
    1GR    C295  295   2.340   0.860   1.900  0.0000  0.0000  0.0000
    1GR    C296  296   2.481   0.860   1.900  0.0000  0.0000  0.0000
    1GR    C297  297   2.127   0.982   1.900  0.0000  0.0000  0.0000
    1GR    C298  298   2.269   0.982   1.900  0.0000  0.0000  0.0000
    1GR    C299  299   2.340   1.105   1.900  0.0000  0.0000  0.0000
    1GR    C300  300   2.481   1.105   1.900  0.0000  0.0000  0.0000
    1GR    C301  301   2.127   1.228   1.900  0.0000  0.0000  0.0000
    1GR    C302  302   2.269   1.228   1.900  0.0000  0.0000  0.0000
    1GR    C303  303   2.340   1.351   1.900  0.0000  0.0000  0.0000
    1GR    C304  304   2.481   1.351   1.900  0.0000  0.0000  0.0000
    1GR    C305  305   2.127   1.474   1.900  0.0000  0.0000  0.0000
    1GR    C306  306   2.269   1.474   1.900  0.0000  0.0000  0.0000
    1GR    C307  307   2.340   1.596   1.900  0.0000  0.0000  0.0000
    1GR    C308  308   2.481   1.596   1.900  0.0000  0.0000  0.0000
    1GR    C309  309   2.127   1.719   1.900  0.0000  0.0000  0.0000
    1GR    C310  310   2.269   1.719   1.900  0.0000  0.0000  0.0000
    1GR    C311  311   2.340   1.842   1.900  0.0000  0.0000  0.0000
    1GR    C312  312   2.481   1.842   1.900  0.0000  0.0000  0.0000
    1GR    C313  313   2.127   1.965   1.900  0.0000  0.0000  0.0000
    1GR    C314  314   2.269   1.965   1.900  0.0000  0.0000  0.0000
    1GR    C315  315   2.340   2.088   1.900  0.0000  0.0000  0.0000
    1GR    C316  316   2.481   2.088   1.900  0.0000  0.0000  0.0000
    1GR    C317  317   2.127   2.210   1.900  0.0000  0.0000  0.0000
    1GR    C318  318   2.269   2.210   1.900  0.0000  0.0000  0.0000
    1GR    C319  319   2.340   2.333   1.900  0.0000  0.0000  0.0000
    1GR    C320  320   2.481   2.333   1.900  0.0000  0.0000  0.0000
    1GR    C321  321   2.127   2.456   1.900  0.0000  0.0000  0.0000
    1GR    C322  322   2.269   2.456   1.900  0.0000  0.0000  0.0000
    1GR    C323  323   2.340   2.579   1.900  0.0000  0.0000  0.0000
    1GR    C324  324   2.481   2.579   1.900  0.0000  0.0000  0.0000
    1GR    C325  325   2.127   2.702   1.900  0.0000  0.0000  0.0000
    1GR    C326  326   2.269   2.702   1.900  0.0000  0.0000  0.0000
    1GR    C327  327   2.340   2.824   1.900  0.0000  0.0000  0.0000
    1GR    C328  328   2.481   2.824   1.900  0.0000  0.0000  0.0000
    1GR    C329  329   2.127   2.947   1.900  0.0000  0.0000  0.0000
    1GR    C330  330   2.269   2.947   1.900  0.0000  0.0000  0.0000
    1GR    C331  331   2.340   3.070   1.900  0.0000  0.0000  0.0000
    1GR    C332  332   2.481   3.070   1.900  0.0000  0.0000  0.0000
    1GR    C333  333   2.127   3.193   1.900  0.0000  0.0000  0.0000
    1GR    C334  334   2.269   3.193   1.900  0.0000  0.0000  0.0000
    1GR    C335  335   2.340   3.316   1.900  0.0000  0.0000  0.0000
    1GR    C336  336   2.481   3.316   1.900  0.0000  0.0000  0.0000
    1GR    C337  337   2.552   0.000   1.900  0.0000  0.0000  0.0000
    1GR    C338  338   2.694  -0.000   1.900  0.0000  0.0000  0.0000
    1GR    C339  339   2.765   0.123   1.900  0.0000  0.0000  0.0000
    1GR    C340  340   2.907   0.123   1.900  0.0000  0.0000  0.0000
    1GR    C341  341   2.552   0.246   1.900  0.0000  0.0000  0.0000
    1GR    C342  342   2.694   0.246   1.900  0.0000  0.0000  0.0000
    1GR    C343  343   2.765   0.368   1.900  0.0000  0.0000  0.0000
    1GR    C344  344   2.907   0.368   1.900  0.0000  0.0000  0.0000
    1GR    C345  345   2.552   0.491   1.900  0.0000  0.0000  0.0000
    1GR    C346  346   2.694   0.491   1.900  0.0000  0.0000  0.0000
    1GR    C347  347   2.765   0.614   1.900  0.0000  0.0000  0.0000
    1GR    C348  348   2.907   0.614   1.900  0.0000  0.0000  0.0000
    1GR    C349  349   2.552   0.737   1.900  0.0000  0.0000  0.0000
    1GR    C350  350   2.694   0.737   1.900  0.0000  0.0000  0.0000
    1GR    C351  351   2.765   0.860   1.900  0.0000  0.0000  0.0000
    1GR    C352  352   2.907   0.860   1.900  0.0000  0.0000  0.0000
    1GR    C353  353   2.552   0.982   1.900  0.0000  0.0000  0.0000
    1GR    C354  354   2.694   0.982   1.900  0.0000  0.0000  0.0000
    1GR    C355  355   2.765   1.105   1.900  0.0000  0.0000  0.0000
    1GR    C356  356   2.907   1.105   1.900  0.0000  0.0000  0.0000
    1GR    C357  357   2.552   1.228   1.900  0.0000  0.0000  0.0000
    1GR    C358  358   2.694   1.228   1.900  0.0000  0.0000  0.0000
    1GR    C359  359   2.765   1.351   1.900  0.0000  0.0000  0.0000
    1GR    C360  360   2.907   1.351   1.900  0.0000  0.0000  0.0000
    1GR    C361  361   2.552   1.474   1.900  0.0000  0.0000  0.0000
    1GR    C362  362   2.694   1.474   1.900  0.0000  0.0000  0.0000
    1GR    C363  363   2.765   1.596   1.900  0.0000  0.0000  0.0000
    1GR    C364  364   2.907   1.596   1.900  0.0000  0.0000  0.0000
    1GR    C365  365   2.552   1.719   1.900  0.0000  0.0000  0.0000
    1GR    C366  366   2.694   1.719   1.900  0.0000  0.0000  0.0000
    1GR    C367  367   2.765   1.842   1.900  0.0000  0.0000  0.0000
    1GR    C368  368   2.907   1.842   1.900  0.0000  0.0000  0.0000
    1GR    C369  369   2.552   1.965   1.900  0.0000  0.0000  0.0000
    1GR    C370  370   2.694   1.965   1.900  0.0000  0.0000  0.0000
    1GR    C371  371   2.765   2.088   1.900  0.0000  0.0000  0.0000
    1GR    C372  372   2.907   2.088   1.900  0.0000  0.0000  0.0000
    1GR    C373  373   2.552   2.210   1.900  0.0000  0.0000  0.0000
    1GR    C374  374   2.694   2.210   1.900  0.0000  0.0000  0.0000
    1GR    C375  375   2.765   2.333   1.900  0.0000  0.0000  0.0000
    1GR    C376  376   2.907   2.333   1.900  0.0000  0.0000  0.0000
    1GR    C377  377   2.552   2.456   1.900  0.0000  0.0000  0.0000
    1GR    C378  378   2.694   2.456   1.900  0.0000  0.0000  0.0000
    1GR    C379  379   2.765   2.579   1.900  0.0000  0.0000  0.0000
    1GR    C380  380   2.907   2.579   1.900  0.0000  0.0000  0.0000
    1GR    C381  381   2.552   2.702   1.900  0.0000  0.0000  0.0000
    1GR    C382  382   2.694   2.702   1.900  0.0000  0.0000  0.0000
    1GR    C383  383   2.765   2.824   1.900  0.0000  0.0000  0.0000
    1GR    C384  384   2.907   2.824   1.900  0.0000  0.0000  0.0000
    1GR    C385  385   2.552   2.947   1.900  0.0000  0.0000  0.0000
    1GR    C386  386   2.694   2.947   1.900  0.0000  0.0000  0.0000
    1GR    C387  387   2.765   3.070   1.900  0.0000  0.0000  0.0000
    1GR    C388  388   2.907   3.070   1.900  0.0000  0.0000  0.0000
    1GR    C389  389   2.552   3.193   1.900  0.0000  0.0000  0.0000
    1GR    C390  390   2.694   3.193   1.900  0.0000  0.0000  0.0000
    1GR    C391  391   2.765   3.316   1.900  0.0000  0.0000  0.0000
    1GR    C392  392   2.907   3.316   1.900  0.0000  0.0000  0.0000
    1GR    C393  393   2.978   0.000   1.900  0.0000  0.0000  0.0000
    1GR    C394  394   3.120   0.000   1.900  0.0000  0.0000  0.0000
    1GR    C395  395   3.191   0.123   1.900  0.0000  0.0000  0.0000
    1GR    C396  396   3.332   0.123   1.900  0.0000  0.0000  0.0000
    1GR    C397  397   2.978   0.246   1.900  0.0000  0.0000  0.0000
    1GR    C398  398   3.120   0.246   1.900  0.0000  0.0000  0.0000
    1GR    C399  399   3.191   0.368   1.900  0.0000  0.0000  0.0000
    1GR    C400  400   3.332   0.368   1.900  0.0000  0.0000  0.0000
    1GR    C401  401   2.978   0.491   1.900  0.0000  0.0000  0.0000
    1GR    C402  402   3.120   0.491   1.900  0.0000  0.0000  0.0000
    1GR    C403  403   3.191   0.614   1.900  0.0000  0.0000  0.0000
    1GR    C404  404   3.332   0.614   1.900  0.0000  0.0000  0.0000
    1GR    C405  405   2.978   0.737   1.900  0.0000  0.0000  0.0000
    1GR    C406  406   3.120   0.737   1.900  0.0000  0.0000  0.0000
    1GR    C407  407   3.191   0.860   1.900  0.0000  0.0000  0.0000
    1GR    C408  408   3.332   0.860   1.900  0.0000  0.0000  0.0000
    1GR    C409  409   2.978   0.982   1.900  0.0000  0.0000  0.0000
    1GR    C410  410   3.120   0.982   1.900  0.0000  0.0000  0.0000
    1GR    C411  411   3.191   1.105   1.900  0.0000  0.0000  0.0000
    1GR    C412  412   3.332   1.105   1.900  0.0000  0.0000  0.0000
    1GR    C413  413   2.978   1.228   1.900  0.0000  0.0000  0.0000
    1GR    C414  414   3.120   1.228   1.900  0.0000  0.0000  0.0000
    1GR    C415  415   3.191   1.351   1.900  0.0000  0.0000  0.0000
    1GR    C416  416   3.332   1.351   1.900  0.0000  0.0000  0.0000
    1GR    C417  417   2.978   1.474   1.900  0.0000  0.0000  0.0000
    1GR    C418  418   3.120   1.474   1.900  0.0000  0.0000  0.0000
    1GR    C419  419   3.191   1.596   1.900  0.0000  0.0000  0.0000
    1GR    C420  420   3.332   1.596   1.900  0.0000  0.0000  0.0000
    1GR    C421  421   2.978   1.719   1.900  0.0000  0.0000  0.0000
    1GR    C422  422   3.120   1.719   1.900  0.0000  0.0000  0.0000
    1GR    C423  423   3.191   1.842   1.900  0.0000  0.0000  0.0000
    1GR    C424  424   3.332   1.842   1.900  0.0000  0.0000  0.0000
    1GR    C425  425   2.978   1.965   1.900  0.0000  0.0000  0.0000
    1GR    C426  426   3.120   1.965   1.900  0.0000  0.0000  0.0000
    1GR    C427  427   3.191   2.088   1.900  0.0000  0.0000  0.0000
    1GR    C428  428   3.332   2.088   1.900  0.0000  0.0000  0.0000
    1GR    C429  429   2.978   2.210   1.900  0.0000  0.0000  0.0000
    1GR    C430  430   3.120   2.210   1.900  0.0000  0.0000  0.0000
    1GR    C431  431   3.191   2.333   1.900  0.0000  0.0000  0.0000
    1GR    C432  432   3.332   2.333   1.900  0.0000  0.0000  0.0000
    1GR    C433  433   2.978   2.456   1.900  0.0000  0.0000  0.0000
    1GR    C434  434   3.120   2.456   1.900  0.0000  0.0000  0.0000
    1GR    C435  435   3.191   2.579   1.900  0.0000  0.0000  0.0000
    1GR    C436  436   3.332   2.579   1.900  0.0000  0.0000  0.0000
    1GR    C437  437   2.978   2.702   1.900  0.0000  0.0000  0.0000
    1GR    C438  438   3.120   2.702   1.900  0.0000  0.0000  0.0000
    1GR    C439  439   3.191   2.824   1.900  0.0000  0.0000  0.0000
    1GR    C440  440   3.332   2.824   1.900  0.0000  0.0000  0.0000
    1GR    C441  441   2.978   2.947   1.900  0.0000  0.0000  0.0000
    1GR    C442  442   3.120   2.947   1.900  0.0000  0.0000  0.0000
    1GR    C443  443   3.191   3.070   1.900  0.0000  0.0000  0.0000
    1GR    C444  444   3.332   3.070   1.900  0.0000  0.0000  0.0000
    1GR    C445  445   2.978   3.193   1.900  0.0000  0.0000  0.0000
    1GR    C446  446   3.120   3.193   1.900  0.0000  0.0000  0.0000
    1GR    C447  447   3.191   3.316   1.900  0.0000  0.0000  0.0000
    1GR    C448  448   3.332   3.316   1.900  0.0000  0.0000  0.0000
    2PMMA   CX1  449   1.484   2.669   2.249  0.6757  0.1149 -0.1584
    2PMMA   CA2  450   1.520   2.745   2.376  0.1824 -0.0462 -0.2563
    2PMMA   CX3  451   1.539   2.892   2.341  0.3645 -0.4190 -0.0644
    2PMMA    C4  452   1.393   2.721   2.469 -0.1476 -0.0872 -0.0609
    2PMMA    O5  453   1.376   2.621   2.529  0.8198 -1.0230 -0.2746
    2PMMA   OS6  454   1.316   2.831   2.486 -0.2370  0.5423 -0.5884
    2PMMA   CE7  455   1.185   2.827   2.548  0.5353  0.1057 -0.0051
    2PMMA   CX8  456   1.649   2.689   2.442  0.1799  0.7276  0.0031
    2PMMA   CA9  457   1.728   2.750   2.566  0.0408  0.1285  0.5656
    2PMMA  CX10  458   1.816   2.871   2.525  0.6403 -0.6529 -0.4212
    2PMMA   C11  459   1.819   2.632   2.620 -0.0524 -0.2952  0.1599
    2PMMA   O12  460   1.937   2.628   2.608  0.0815 -0.1913  0.1724
    2PMMA  OS13  461   1.761   2.544   2.698  0.0295 -0.1954  0.1081
    2PMMA  CE14  462   1.829   2.443   2.765 -0.7037  0.2487 -0.3261
    2PMMA  CX15  463   1.617   2.797   2.673  0.3115  0.0384  0.8217
    2PMMA  CA16  464   1.661   2.861   2.813 -0.2729  0.1721  0.3539
    2PMMA  CX17  465   1.535   2.852   2.904  0.4591 -0.1393 -0.5083
    2PMMA   C18  466   1.776   2.795   2.893 -0.3824 -0.0236 -0.5704
    2PMMA   O19  467   1.767   2.698   2.960  0.4965  0.1735 -0.2811
    2PMMA  OS20  468   1.896   2.838   2.844  0.0655  0.5462  0.3559
    2PMMA  CE21  469   2.023   2.794   2.896  0.4806 -0.3786 -0.0067
    2PMMA  CX22  470   1.692   3.013   2.798  0.5804  0.7756  0.0887
    2PMMA  CA23  471   1.709   3.112   2.923 -0.0524  0.2968 -0.0732
    2PMMA  CX24  472   1.808   3.066   3.032  0.0370 -0.3999  0.7780
    2PMMA   C25  473   1.567   3.137   2.983  0.6798  0.4315 -0.6157
    2PMMA   O26  474   1.470   3.163   2.918  0.7783  0.2900  0.6642
    2PMMA  OS27  475   1.551   3.114   3.120 -0.1710  0.1849 -0.2401
    2PMMA  CE28  476   1.426   3.135   3.178  0.3255 -0.2410  0.1768
    2PMMA  CX29  477   1.760   3.254   2.885  0.1202 -0.3942 -0.3283
    2PMMA  HC30  478   1.487   2.560   2.260 -1.1727  0.1134  0.4317
    2PMMA  HC31  479   1.384   2.699   2.218  0.5281  0.3304  0.5077
    2PMMA  HC32  480   1.545   2.698   2.163  0.4459  0.1908 -0.2954
    2PMMA  HC33  481   1.538   2.954   2.430 -3.0100  0.5104 -0.6893
    2PMMA  HC34  482   1.456   2.926   2.278  0.7490 -0.3579 -0.5452
    2PMMA  HC35  483   1.640   2.900   2.298  0.2101 -1.6182 -0.6723
    2PMMA  H136  484   1.145   2.928   2.557  0.5302  0.0481  0.7036
    2PMMA  H137  485   1.185   2.786   2.650  0.3426  0.2270  0.0443
    2PMMA  H138  486   1.114   2.768   2.489  0.5857  0.0869 -0.0467
    2PMMA  HC39  487   1.637   2.582   2.461  3.3939  0.1071 -1.2781
    2PMMA  HC40  488   1.713   2.692   2.354  1.2726  1.4490  0.8122
    2PMMA  HC41  489   1.860   2.847   2.428  0.3670 -1.2120 -0.4093
    2PMMA  HC42  490   1.763   2.965   2.507  0.4810  0.2493  4.2261
    2PMMA  HC43  491   1.893   2.897   2.598  0.4153  0.5940 -0.6248
    2PMMA  H144  492   1.892   2.384   2.698 -2.4768 -2.0102 -0.0623
    2PMMA  H145  493   1.771   2.374   2.826 -1.8138 -1.5168 -3.2291
    2PMMA  H146  494   1.890   2.495   2.839  0.6210  0.2564 -1.4053
    2PMMA  HC47  495   1.544   2.863   2.625  0.4229 -1.6692 -1.7525
    2PMMA  HC48  496   1.551   2.712   2.691 -0.8628  0.3251 -1.8896
    2PMMA  HC49  497   1.457   2.922   2.874  0.8041  0.8870  0.9819
    2PMMA  HC50  498   1.552   2.872   3.010 -2.6527  2.0779 -0.3667
    2PMMA  HC51  499   1.506   2.746   2.907  2.5787 -0.7316  0.3052
    2PMMA  H152  500   2.083   2.749   2.817 -0.1586  0.1066 -0.7709
    2PMMA  H153  501   2.011   2.713   2.969  0.9776  1.1744  1.8361
    2PMMA  H154  502   2.071   2.880   2.944  0.2208 -0.7126  0.8774
    2PMMA  HC55  503   1.784   3.034   2.743 -0.1794  2.3946 -0.5931
    2PMMA  HC56  504   1.608   3.051   2.739  1.0978  1.6569 -0.0804
    2PMMA  HC57  505   1.809   3.132   3.119  0.5053 -2.8929  2.7230
    2PMMA  HC58  506   1.784   2.969   3.078  1.4178 -1.2952 -0.3566
    2PMMA  HC59  507   1.912   3.059   2.997 -0.0467 -0.5415  0.5652
    2PMMA  H160  508   1.432   3.107   3.284  1.2002  0.0855  0.2125
    2PMMA  H161  509   1.356   3.077   3.117  0.5037  1.5945 -1.8067
    2PMMA  H162  510   1.400   3.240   3.171 -2.9987 -1.1204 -1.8611
    2PMMA  HC63  511   1.757   3.320   2.972 -1.6836  0.2299 -0.8474
    2PMMA  HC64  512   1.865   3.254   2.855  0.6173  0.4268  1.3839
    2PMMA  HC65  513   1.699   3.297   2.804 -1.7853 -0.8081  0.8525
    3ANI     C1  514   0.876   0.528   0.690  0.1382 -0.5941  0.9984
    3ANI     O1  515   0.943   0.429   0.766 -0.2589 -0.5625  0.3509
    3ANI     C2  516   0.951   0.442   0.904  0.1415  0.0949 -0.2470
    3ANI     C3  517   0.881   0.544   0.980  0.7858  0.2822 -0.0727
    3ANI     C4  518   0.874   0.535   1.116 -0.0785  0.1371 -0.7570
    3ANI     C5  519   0.957   0.438   1.184 -0.4813  0.3674  0.7168
    3ANI     C6  520   1.029   0.344   1.107  0.0539  0.0840  0.3523
    3ANI     C7  521   1.020   0.337   0.968  0.2507  0.9977 -0.3520
    3ANI     H1  522   0.768   0.510   0.689  0.2870 -1.4568 -0.2255
    3ANI     H2  523   0.896   0.631   0.723  0.8511  0.1395 -1.5714
    3ANI     H3  524   0.923   0.519   0.591  1.4564  1.5451  1.3935
    3ANI     H4  525   0.813   0.612   0.930  1.7953 -0.4819 -2.5770
    3ANI     H5  526   0.810   0.600   1.174 -0.9408 -0.6512 -0.8269
    3ANI     H6  527   0.958   0.437   1.292 -0.1141  0.3734  0.7148
    3ANI     H7  528   1.083   0.262   1.154  0.5466 -0.1668 -0.6339
    3ANI     H8  529   1.072   0.258   0.915 -0.9857  0.5193 -0.8563
    4ANI     C1  530   2.800   2.094   0.782 -0.3130 -0.1399 -0.9070
    4ANI     O1  531   2.854   2.092   0.915 -0.2147 -0.1385 -0.0435
    4ANI     C2  532   2.917   1.986   0.975 -0.3256 -0.3981  0.2380
    4ANI     C3  533   2.961   1.870   0.904  0.1486 -0.7089  0.2148
    4ANI     C4  534   3.019   1.767   0.976 -0.1330  0.4537  0.1664
    4ANI     C5  535   3.044   1.776   1.116  0.1691 -0.0717  0.0101
    4ANI     C6  536   2.994   1.883   1.194 -0.6799  0.6513 -0.1193
    4ANI     C7  537   2.927   1.989   1.118 -0.2052 -0.0838  0.2983
    4ANI     H1  538   2.885   2.087   0.713  2.7351 -0.8090  2.7259
    4ANI     H2  539   2.728   2.012   0.774  0.6471 -1.1587  0.6400
    4ANI     H3  540   2.741   2.187   0.777 -0.1089 -0.0764 -2.2687
    4ANI     H4  541   2.952   1.862   0.796 -0.2209 -2.2889  0.3474
    4ANI     H5  542   3.048   1.679   0.919 -0.6454  0.2754  0.1734
    4ANI     H6  543   3.081   1.686   1.163 -1.9712 -0.7780  0.3703
    4ANI     H7  544   2.992   1.883   1.302  0.0427 -0.4112 -0.1022
    4ANI     H8  545   2.887   2.078   1.167 -0.1119  0.7012 -1.0405
    5ANI     C1  546   0.929   0.707   2.274 -0.2887  0.2160  0.4480
    5ANI     O1  547   0.959   0.568   2.264 -0.8624  0.0069  0.2214
    5ANI     C2  548   1.090   0.536   2.252  0.2796  0.3162 -0.2301
    5ANI     C3  549   1.130   0.399   2.253 -0.0950 -0.1697  0.0301
    5ANI     C4  550   1.267   0.365   2.249 -0.3965 -0.2421 -0.5499
    5ANI     C5  551   1.361   0.466   2.233 -0.0594 -0.7957  0.2303
    5ANI     C6  552   1.324   0.600   2.216  0.5057  0.3730 -0.8142
    5ANI     C7  553   1.192   0.633   2.235  0.5097 -0.3395  0.2613
    5ANI     H1  554   0.822   0.730   2.275 -0.4704 -0.5972  0.3869
    5ANI     H2  555   0.975   0.754   2.361  0.8773  0.0516 -0.0706
    5ANI     H3  556   0.950   0.755   2.178 -0.6879 -1.6564 -0.6213
    5ANI     H4  557   1.049   0.329   2.271  0.6282 -1.3451 -1.1301
    5ANI     H5  558   1.295   0.262   2.264 -1.1291  0.1390  4.4385
    5ANI     H6  559   1.468   0.452   2.225  0.6484  3.3238  0.9884
    5ANI     H7  560   1.403   0.672   2.197 -0.3465  1.7401  0.6211
    5ANI     H8  561   1.168   0.739   2.233  0.2400 -0.3801  0.9750
    6ANI     C1  562   1.529   0.134   2.254 -0.7143  0.0609  0.1113
    6ANI     O1  563   1.431   0.039   2.227  0.7543 -0.4545  0.3361
    6ANI     C2  564   1.395  -0.055   2.316  0.2566  0.9403  0.1471
    6ANI     C3  565   1.411  -0.045   2.456 -0.1950 -0.1252 -0.4693
    6ANI     C4  566   1.385  -0.153   2.539  0.4995 -0.4089  0.4281
    6ANI     C5  567   1.327  -0.264   2.491  0.6925 -0.1364  0.8901
    6ANI     C6  568   1.304  -0.279   2.359 -0.6658  0.3874  0.2845
    6ANI     C7  569   1.340  -0.176   2.268  0.6013  0.2179  0.1392
    6ANI     H1  570   1.544   0.206   2.173 -1.8263 -1.2270 -1.2661
    6ANI     H2  571   1.486   0.188   2.340 -1.6773  2.2784 -1.7082
    6ANI     H3  572   1.622   0.083   2.283 -0.0346  1.6760  0.8033
    6ANI     H4  573   1.442   0.043   2.512 -1.5270  0.1861 -0.2114
    6ANI     H5  574   1.401  -0.146   2.646 -0.7439 -1.9618  0.7333
    6ANI     H6  575   1.309  -0.345   2.561 -0.4456  0.5296  1.3914
    6ANI     H7  576   1.261  -0.372   2.324 -0.2536  0.0716  0.6054
    6ANI     H8  577   1.321  -0.184   2.161  1.2144  1.4828 -0.0786
    7ANI     C1  578   1.119   1.472   2.935 -0.2049 -0.2199  0.4591
    7ANI     O1  579   1.076   1.544   2.817 -0.0728 -0.2805 -0.0001
    7ANI     C2  580   1.166   1.636   2.763 -0.1188  0.0089 -0.3505
    7ANI     C3  581   1.279   1.685   2.828 -1.0853 -0.8914  0.2847
    7ANI     C4  582   1.357   1.780   2.765 -0.2423  1.2304 -0.2291
    7ANI     C5  583   1.334   1.826   2.637 -0.7588  0.3609  0.0180
    7ANI     C6  584   1.218   1.780   2.569 -0.1501  0.6760  0.2137
    7ANI     C7  585   1.136   1.681   2.634 -0.3373  0.2294 -0.2378
    7ANI     H1  586   1.056   1.383   2.953  1.2478 -1.8194 -2.0862
    7ANI     H2  587   1.218   1.427   2.923 -0.2252 -0.3127  0.6237
    7ANI     H3  588   1.133   1.536   3.023  0.0317 -1.1877  1.1413
    7ANI     H4  589   1.304   1.648   2.927  2.1012 -1.6412 -0.7342
    7ANI     H5  590   1.450   1.807   2.814 -0.6672 -1.3110  2.1133
    7ANI     H6  591   1.409   1.891   2.593 -1.0205 -0.2152 -1.3406
    7ANI     H7  592   1.197   1.815   2.469  0.8054 -0.6433 -0.4671
    7ANI     H8  593   1.054   1.642   2.575 -1.0577  0.5196  0.5745
    8ANI     C1  594   2.535   2.724   1.209 -0.4148  0.0120 -0.1752
    8ANI     O1  595   2.567   2.592   1.224  0.7230 -0.0567 -0.3266
    8ANI     C2  596   2.480   2.488   1.238  0.3381 -0.1474  0.0986
    8ANI     C3  597   2.527   2.359   1.253  0.3309  0.3504  0.0491
    8ANI     C4  598   2.436   2.246   1.267 -0.7007  0.2863 -0.5421
    8ANI     C5  599   2.297   2.268   1.281  0.0126  0.3293 -0.0665
    8ANI     C6  600   2.251   2.399   1.265  0.1407 -0.3198  0.0067
    8ANI     C7  601   2.343   2.502   1.244 -1.7451 -0.8856 -0.0284
    8ANI     H1  602   2.439   2.753   1.254 -0.4635 -2.8927  1.6760
    8ANI     H2  603   2.606   2.786   1.266  1.2303 -1.8495 -0.1381
    8ANI     H3  604   2.548   2.749   1.103 -2.1902  0.1715 -0.3660
    8ANI     H4  605   2.633   2.335   1.251 -0.1115 -1.6150 -2.0956
    8ANI     H5  606   2.488   2.151   1.270 -1.6274 -0.3067 -2.2933
    8ANI     H6  607   2.236   2.179   1.291  0.2674  0.2369  0.7658
    8ANI     H7  608   2.144   2.415   1.278 -0.0688 -2.1681  0.6727
    8ANI     H8  609   2.302   2.602   1.238  2.0005  0.6138 -1.8940
    9ANI     C1  610   0.546   2.531   3.348 -0.3337 -0.1758  0.8107
    9ANI     O1  611   0.621   2.475   3.237  0.3701 -0.0360 -0.0003
    9ANI     C2  612   0.681   2.548   3.135  0.5900 -0.5458 -0.4098
    9ANI     C3  613   0.679   2.691   3.138  0.2200 -0.1468 -0.6273
    9ANI     C4  614   0.743   2.763   3.041  0.8730 -0.5367 -0.0635
    9ANI     C5  615   0.798   2.692   2.938  0.3857 -0.2941 -0.0517
    9ANI     C6  616   0.789   2.553   2.921 -0.1190  0.1321  0.3293
    9ANI     C7  617   0.736   2.476   3.019 -0.8180  0.5559  0.0423
    9ANI     H1  618   0.451   2.571   3.309  0.2480  2.8957  2.4094
    9ANI     H2  619   0.507   2.449   3.410  1.0011 -0.3727  1.3970
    9ANI     H3  620   0.600   2.602   3.411 -1.6692  0.5884  1.1147
    9ANI     H4  621   0.617   2.740   3.213  1.1488  1.7130 -1.0242
    9ANI     H5  622   0.739   2.870   3.056  1.6405 -0.5890  0.5817
    9ANI     H6  623   0.849   2.747   2.859  0.7953  0.6456  0.8622
    9ANI     H7  624   0.839   2.512   2.835 -1.2899 -1.8975  0.5882
    9ANI     H8  625   0.743   2.368   3.006  1.2209  0.8784 -1.8734
   10ANI     C1  626   2.336   3.300   3.261 -0.2026 -0.1535 -0.3574
   10ANI     O1  627   2.380   3.176   3.224 -0.1895 -0.6590 -0.4002
   10ANI     C2  628   2.511   3.136   3.249  0.0452 -0.3414 -0.3156
   10ANI     C3  629   2.602   3.213   3.315  0.1567  0.4613  0.3367
   10ANI     C4  630   2.734   3.159   3.346  0.3670  0.6002  0.8704
   10ANI     C5  631   2.761   3.035   3.301 -0.5714  0.1868  0.4327
   10ANI     C6  632   2.671   2.956   3.227 -0.8850 -0.1741 -0.3500
   10ANI     C7  633   2.547   3.011   3.202  0.1469  0.6407 -0.5064
   10ANI     H1  634   2.230   3.323   3.241 -0.2129 -1.0147 -1.3537
   10ANI     H2  635   2.347   3.313   3.369  0.8390 -1.5195 -0.2827
   10ANI     H3  636   2.381   3.386   3.210  2.9928 -2.1304 -1.0003
   10ANI     H4  637   2.572   3.315   3.339 -0.1519 -0.4599  4.1819
   10ANI     H5  638   2.811   3.211   3.402 -1.0953  1.6284  1.9676
   10ANI     H6  639   2.865   3.008   3.317 -0.7850 -1.1919 -0.4106
   10ANI     H7  640   2.698   2.861   3.182  0.6227  0.2366 -0.3483
   10ANI     H8  641   2.469   2.953   3.155  0.9905 -1.3081  0.4125
   11ANI     C1  642   1.426   3.264   1.483 -0.1141  0.1791  0.1485
   11ANI     O1  643   1.505   3.148   1.527  0.1530 -0.0400 -0.2233
   11ANI     C2  644   1.458   3.018   1.533  0.5722 -0.2820 -0.1609
   11ANI     C3  645   1.325   2.988   1.506 -0.0374  0.2727  0.0782
   11ANI     C4  646   1.288   2.847   1.519  0.4273  0.5447  0.0914
   11ANI     C5  647   1.384   2.750   1.544 -0.1312 -0.2894  1.0386
   11ANI     C6  648   1.510   2.787   1.563 -0.5876 -0.0900 -0.9062
   11ANI     C7  649   1.549   2.922   1.562  0.6059  0.2961  0.2600
   11ANI     H1  650   1.329   3.264   1.534 -0.2554  1.9743 -0.0839
   11ANI     H2  651   1.470   3.360   1.515 -0.8296  0.6298 -0.2185
   11ANI     H3  652   1.410   3.258   1.374 -0.2960 -1.2595  0.2500
   11ANI     H4  653   1.255   3.068   1.483  3.0918  2.1881 -3.2831
   11ANI     H5  654   1.187   2.809   1.513  0.6872 -0.4572  1.6445
   11ANI     H6  655   1.359   2.644   1.541  2.9776 -1.0413 -0.5215
   11ANI     H7  656   1.580   2.708   1.590  1.2502  1.7286 -0.2123
   11ANI     H8  657   1.648   2.961   1.583 -0.6520  3.7598 -0.0060
   12ANI     C1  658   2.546   2.629   3.352  0.5474  0.0601  0.7788
   12ANI     O1  659   2.653   2.592   3.260  0.1426 -0.2997  0.0279
   12ANI     C2  660   2.630   2.591   3.124  0.0913 -0.3830 -0.7612
   12ANI     C3  661   2.521   2.654   3.061  0.2246  0.2436  0.2344
   12ANI     C4  662   2.518   2.678   2.920 -0.3438 -0.3031 -0.0934
   12ANI     C5  663   2.613   2.610   2.840 -0.2097  0.1503  1.1904
   12ANI     C6  664   2.710   2.532   2.901  0.1065  0.6859 -0.0918
   12ANI     C7  665   2.719   2.523   3.042 -0.7425 -0.1387 -0.4332
   12ANI     H1  666   2.579   2.633   3.457  0.9997 -0.5612  0.6712
   12ANI     H2  667   2.510   2.731   3.336  0.5799 -0.2595 -1.4905
   12ANI     H3  668   2.460   2.561   3.344  0.2644  0.5689 -0.4875
   12ANI     H4  669   2.446   2.700   3.125  0.5192  0.0955  0.6898
   12ANI     H5  670   2.438   2.735   2.874 -0.8685  1.2501  2.6684
   12ANI     H6  671   2.598   2.619   2.733  1.6613  0.7152  0.9644
   12ANI     H7  672   2.784   2.480   2.841 -0.4635 -1.7045  1.1608
   12ANI     H8  673   2.793   2.453   3.079  0.6005  1.8276  0.7178
   13ANI     C1  674   0.181   1.888   0.706 -0.0537  0.3831 -0.3073
   13ANI     O1  675   0.089   1.953   0.627  0.3894  0.0541  0.0183
   13ANI     C2  676   0.122   2.049   0.538 -0.5968  0.2301 -0.4218
   13ANI     C3  677   0.242   2.123   0.547 -0.5586 -0.2171  0.0892
   13ANI     C4  678   0.281   2.228   0.458 -0.2470 -0.0747  0.4016
   13ANI     C5  679   0.194   2.252   0.352  0.0184 -0.3088  0.9031
   13ANI     C6  680   0.078   2.180   0.335  0.1501 -1.0050  0.0791
   13ANI     C7  681   0.035   2.081   0.430 -0.4139  0.0298 -1.0112
   13ANI     H1  682   0.262   1.855   0.640 -0.7694 -1.0402 -0.4957
   13ANI     H2  683   0.232   1.952   0.780  1.7681 -0.0475 -1.1487
   13ANI     H3  684   0.139   1.802   0.760 -1.6429  0.4237 -1.4667
   13ANI     H4  685   0.304   2.114   0.636  0.9430  1.5539 -0.7531
   13ANI     H5  686   0.374   2.278   0.482 -0.0332 -1.4109  2.4750
   13ANI     H6  687   0.224   2.326   0.278  0.3725 -0.3978  0.9586
   13ANI     H7  688   0.024   2.195   0.241  0.1975  2.0626  0.4866
   13ANI     H8  689  -0.060   2.034   0.409 -0.6042  0.0855 -0.2692
   14ANI     C1  690   1.990   2.000   0.782  0.3787  0.1857 -0.2976
   14ANI     O1  691   2.097   2.055   0.861 -0.6457 -0.2883 -0.1633
   14ANI     C2  692   2.221   2.008   0.850 -0.4945  0.2596  0.3874
   14ANI     C3  693   2.325   2.082   0.898 -0.3110 -0.2470 -0.2203
   14ANI     C4  694   2.459   2.031   0.906 -0.0145  0.4380  0.0148
   14ANI     C5  695   2.488   1.906   0.848 -0.1229 -0.3037  0.1250
   14ANI     C6  696   2.381   1.830   0.794 -0.5682  0.4264 -0.0058
   14ANI     C7  697   2.249   1.884   0.790 -0.1573 -0.5653 -0.7153
   14ANI     H1  698   1.898   2.041   0.825  0.4416  1.1293 -1.0430
   14ANI     H2  699   1.999   2.028   0.677  0.6098  0.3144 -0.2425
   14ANI     H3  700   1.985   1.891   0.787  1.2316  0.2119  1.2884
   14ANI     H4  701   2.302   2.179   0.941  1.6700  0.8784 -1.6462
   14ANI     H5  702   2.528   2.094   0.962  0.1030  0.1821  0.1592
   14ANI     H6  703   2.581   1.852   0.861 -0.1605 -0.8464 -1.8557
   14ANI     H7  704   2.404   1.728   0.768  0.1258  0.5680  0.0598
   14ANI     H8  705   2.168   1.825   0.748  0.4763 -2.0741  0.1484
   15ANI     C1  706   0.174   2.750   0.728  0.0053 -0.5873  0.3649
   15ANI     O1  707   0.118   2.638   0.659  0.5824 -0.2689 -0.1840
   15ANI     C2  708   0.006   2.650   0.583 -0.2145 -0.1782  0.2486
   15ANI     C3  709  -0.038   2.542   0.508  0.6224 -0.0308 -0.0618
   15ANI     C4  710  -0.157   2.553   0.430  0.6800  0.0684  1.4016
   15ANI     C5  711  -0.233   2.671   0.431  0.0302  0.4323  0.3487
   15ANI     C6  712  -0.188   2.775   0.507  0.0469 -0.2406  0.8901
   15ANI     C7  713  -0.066   2.769   0.569  0.1388 -0.0330 -0.6248
   15ANI     H1  714   0.259   2.719   0.790  1.1063 -0.7592 -1.1899
   15ANI     H2  715   0.208   2.828   0.658 -0.2038 -2.7405 -2.2245
   15ANI     H3  716   0.102   2.792   0.799 -1.3263 -2.3129  0.0546
   15ANI     H4  717   0.011   2.445   0.501  1.4272  0.5678 -3.2654
   15ANI     H5  718  -0.199   2.469   0.376  2.0617 -0.8762  1.7738
   15ANI     H6  719  -0.314   2.685   0.361 -0.6700 -0.8451  0.8835
   15ANI     H7  720  -0.253   2.862   0.513 -1.6924 -1.2220 -2.3200
   15ANI     H8  721  -0.033   2.857   0.623  1.5060 -2.6498  3.0033
   16ANI     C1  722   1.423   3.140   0.652 -0.3951  0.5955 -1.4505
   16ANI     O1  723   1.416   3.282   0.670 -0.2823 -0.1078 -0.4621
   16ANI     C2  724   1.294   3.350   0.650  0.3690 -0.0603  0.2433
   16ANI     C3  725   1.201   3.303   0.554  0.2163 -0.3052  0.3679
   16ANI     C4  726   1.087   3.381   0.532  0.3642  0.3234 -0.0741
   16ANI     C5  727   1.070   3.505   0.585  0.7897 -0.3632 -0.9191
   16ANI     C6  728   1.163   3.548   0.678  0.0172  0.9019  0.1706
   16ANI     C7  729   1.278   3.472   0.710  0.0219  0.0629  0.3291
   16ANI     H1  730   1.422   3.121   0.544  0.3765 -0.4382 -1.2840
   16ANI     H2  731   1.524   3.111   0.683 -0.8755  1.3203  0.8402
   16ANI     H3  732   1.347   3.087   0.710 -1.4329  2.0461 -1.4580
   16ANI     H4  733   1.219   3.207   0.507 -0.0336 -0.9358  1.5280
   16ANI     H5  734   1.015   3.359   0.454  0.8915 -0.9552 -0.2148
   16ANI     H6  735   0.981   3.564   0.561  2.0593  1.5065 -1.1318
   16ANI     H7  736   1.154   3.648   0.718 -1.5730  1.1095 -0.6516
   16ANI     H8  737   1.349   3.527   0.772 -0.1135 -0.0888  0.6175
   17ANI     C1  738   3.148   0.361   3.507 -0.5967 -0.1189  0.8639
   17ANI     O1  739   3.295   0.371   3.512  0.1211 -0.0797 -0.3922
   17ANI     C2  740   3.375   0.435   3.418 -0.1811 -0.2516  0.0309
   17ANI     C3  741   3.328   0.503   3.304  0.1486  0.0352  0.4133
   17ANI     C4  742   3.416   0.556   3.210  0.2265  0.1838  0.2403
   17ANI     C5  743   3.554   0.525   3.216  0.8235 -0.1353  0.3637
   17ANI     C6  744   3.599   0.455   3.332  0.0321 -0.0512 -0.3979
   17ANI     C7  745   3.512   0.413   3.432  0.3688 -0.1859  0.1358
   17ANI     H1  746   3.096   0.457   3.515 -2.9676 -1.3044 -0.0229
   17ANI     H2  747   3.126   0.315   3.410  0.1262  1.2329  0.0410
   17ANI     H3  748   3.118   0.292   3.587  0.9008 -0.9359  0.7551
   17ANI     H4  749   3.221   0.511   3.285 -0.1775 -2.2356  1.1582
   17ANI     H5  750   3.370   0.603   3.123 -2.3952 -1.2549  0.7832
   17ANI     H6  751   3.612   0.550   3.128 -2.1518 -1.0993 -1.9736
   17ANI     H7  752   3.703   0.424   3.334 -0.8562 -3.2281 -0.3253
   17ANI     H8  753   3.557   0.345   3.504  0.9842  0.4815  0.3850
   18ANI     C1  754   1.830   0.442   2.241 -0.4518  0.2117 -0.4021
   18ANI     O1  755   1.881   0.312   2.228  0.0085 -0.2100  0.1944
   18ANI     C2  756   2.016   0.282   2.251  0.0732 -0.1471 -0.3089
   18ANI     C3  757   2.123   0.379   2.244  0.9618 -0.1186 -0.0854
   18ANI     C4  758   2.257   0.337   2.250 -1.2899 -0.4902 -0.0663
   18ANI     C5  759   2.291   0.200   2.266 -0.4784  0.4816  0.2441
   18ANI     C6  760   2.184   0.113   2.261 -0.3635 -0.1617  0.1325
   18ANI     C7  761   2.055   0.153   2.248 -0.7197  0.3359  0.1162
   18ANI     H1  762   1.854   0.502   2.152 -3.0333 -0.7375 -1.7912
   18ANI     H2  763   1.721   0.437   2.239 -0.5922  2.1349  0.6183
   18ANI     H3  764   1.868   0.488   2.333  3.0563  0.3989 -1.8383
   18ANI     H4  765   2.103   0.486   2.236  1.9658  0.2570  2.0412
   18ANI     H5  766   2.337   0.407   2.228  0.1306 -2.2103 -0.5142
   18ANI     H6  767   2.395   0.170   2.270 -0.3005  1.1987  1.3316
   18ANI     H7  768   2.199   0.005   2.261 -2.1109 -0.4390  2.1537
   18ANI     H8  769   1.975   0.079   2.249 -1.2496  0.9152  0.5077
   19ANI     C1  770   0.077   3.447   3.459 -0.4581  0.0334 -0.2111
   19ANI     O1  771   0.205   3.496   3.495 -0.1479  0.0834  0.0008
   19ANI     C2  772   0.280   3.564   3.411  0.1483 -0.4530  0.0114
   19ANI     C3  773   0.250   3.585   3.275  0.2158 -0.0022  0.7884
   19ANI     C4  774   0.338   3.647   3.188  0.0687 -0.8090 -0.0925
   19ANI     C5  775   0.458   3.704   3.240 -0.2512  0.4326  0.2113
   19ANI     C6  776   0.485   3.700   3.375 -0.3275  0.7462  0.1362
   19ANI     C7  777   0.405   3.612   3.455 -0.2197 -0.2061 -0.3894
   19ANI     H1  778   0.026   3.406   3.547 -1.2789 -0.1201 -0.7475
   19ANI     H2  779   0.022   3.530   3.412 -1.4459 -0.9624 -0.8496
   19ANI     H3  780   0.092   3.371   3.382  0.2278  1.4396 -1.5090
   19ANI     H4  781   0.163   3.539   3.229 -1.2513  0.7722  2.7623
   19ANI     H5  782   0.315   3.648   3.082 -1.5056 -0.9856  0.2421
   19ANI     H6  783   0.517   3.769   3.175 -0.5372  0.4431 -0.0371
   19ANI     H7  784   0.573   3.749   3.416  1.3506 -2.4321  0.5016
   19ANI     H8  785   0.438   3.604   3.559 -0.8212  0.1476 -0.1697
   20ANI     C1  786   1.500   0.744   2.503 -0.2951  0.4040 -0.8409
   20ANI     O1  787   1.605   0.721   2.408  0.2464 -0.1039 -0.2317
   20ANI     C2  788   1.722   0.797   2.400  0.5610  0.1745 -0.6981
   20ANI     C3  789   1.800   0.791   2.278 -0.1045 -0.9868  0.5989
   20ANI     C4  790   1.916   0.873   2.265  0.1281 -0.7190  0.1758
   20ANI     C5  791   1.936   0.967   2.367  0.1082  0.1286  0.1737
   20ANI     C6  792   1.873   0.965   2.492  0.1792  0.4467  0.3261
   20ANI     C7  793   1.762   0.882   2.507  0.6897 -0.4216 -0.3363
   20ANI     H1  794   1.411   0.682   2.485 -0.6411  0.3822  0.9123
   20ANI     H2  795   1.532   0.711   2.602  2.8472  3.8337 -0.6056
   20ANI     H3  796   1.472   0.849   2.515 -0.0865  0.5250 -1.3708
   20ANI     H4  797   1.767   0.745   2.186  1.4559 -0.7937 -0.0674
   20ANI     H5  798   1.970   0.883   2.172 -1.5117 -0.3757 -0.7713
   20ANI     H6  799   2.012   1.043   2.356 -1.3140  1.4847 -0.6118
   20ANI     H7  800   1.894   1.036   2.572  0.4377  1.1251 -0.3334
   20ANI     H8  801   1.706   0.887   2.601  0.1950  2.6789 -0.7214
   21ANI     C1  802   1.903   2.238   1.129  0.0105  0.4450  0.3613
   21ANI     O1  803   1.798   2.336   1.121 -0.0365 -0.3397  0.3504
   21ANI     C2  804   1.668   2.286   1.130  0.7208 -0.2960  0.1711
   21ANI     C3  805   1.638   2.155   1.180 -0.1033 -0.0660  0.7030
   21ANI     C4  806   1.502   2.119   1.195 -0.0220 -0.5409 -0.7804
   21ANI     C5  807   1.401   2.197   1.140  0.6193  0.5048  1.6069
   21ANI     C6  808   1.426   2.320   1.076  0.4893 -0.4836 -0.4253
   21ANI     C7  809   1.562   2.366   1.088  0.0069  0.0080 -0.1476
   21ANI     H1  810   1.877   2.147   1.073 -1.8150  0.4675  1.1264
   21ANI     H2  811   1.993   2.272   1.078  0.7142  2.0965  2.6070
   21ANI     H3  812   1.944   2.211   1.228  0.8437  0.9881  0.1647
   21ANI     H4  813   1.708   2.090   1.232  0.3670 -1.8934 -2.1398
   21ANI     H5  814   1.481   2.022   1.240  1.7544 -1.7433 -2.4591
   21ANI     H6  815   1.300   2.157   1.144  1.0936 -0.6008  2.7337
   21ANI     H7  816   1.348   2.378   1.027  1.1256  1.1635  0.4716
   21ANI     H8  817   1.579   2.468   1.055  1.5877 -0.3565 -0.4775
   22ANI     C1  818   2.148   2.181   2.604 -0.1431 -0.6794  1.2149
   22ANI     O1  819   2.128   2.045   2.571  0.1793 -0.4508  0.4398
   22ANI     C2  820   2.003   1.992   2.555 -1.3094  0.4065  0.1427
   22ANI     C3  821   1.992   1.854   2.560 -0.0493 -0.5561 -0.2381
   22ANI     C4  822   1.867   1.791   2.550 -0.2976 -0.3209  0.0244
   22ANI     C5  823   1.752   1.863   2.531 -0.5713 -0.7611 -0.0531
   22ANI     C6  824   1.757   2.006   2.520 -0.1091  0.0010 -0.5422
   22ANI     C7  825   1.885   2.071   2.529  0.3179  0.0179  0.5327
   22ANI     H1  826   2.102   2.195   2.702 -2.7711  2.9074 -0.4009
   22ANI     H2  827   2.256   2.203   2.602 -0.2197 -0.3899 -0.7617
   22ANI     H3  828   2.095   2.245   2.532  0.8936  0.0615  1.0926
   22ANI     H4  829   2.085   1.798   2.553  0.8172  0.6820  0.8999
   22ANI     H5  830   1.860   1.683   2.544 -1.6084 -0.2029 -0.7288
   22ANI     H6  831   1.660   1.809   2.508  0.4083 -2.0627 -0.9507
   22ANI     H7  832   1.674   2.072   2.499  0.0276  0.1727 -0.5403
   22ANI     H8  833   1.895   2.180   2.529 -1.9864  0.2711 -0.1774
   23ANI     C1  834   2.132   2.419   0.511 -0.9931  0.1719  0.2487
   23ANI     O1  835   2.213   2.400   0.397 -0.3740  0.1411  0.0921
   23ANI     C2  836   2.306   2.307   0.387 -0.8802 -0.1266  0.6878
   23ANI     C3  837   2.358   2.282   0.259  0.1018  0.1848  0.0028
   23ANI     C4  838   2.455   2.181   0.242  0.7099 -0.2687 -0.0292
   23ANI     C5  839   2.494   2.103   0.356  0.2069 -0.0458 -0.0539
   23ANI     C6  840   2.446   2.129   0.482  0.2876  0.4641 -0.1634
   23ANI     C7  841   2.347   2.229   0.500  1.2672 -1.1868 -0.4511
   23ANI     H1  842   2.202   2.443   0.592  0.9794 -1.8121 -0.7918
   23ANI     H2  843   2.071   2.506   0.486 -0.0150  1.0900  0.9677
   23ANI     H3  844   2.086   2.324   0.540  0.7530 -1.0673 -0.9229
   23ANI     H4  845   2.312   2.339   0.179 -0.9950  0.6600  0.9427
   23ANI     H5  846   2.488   2.145   0.145  0.6808 -2.2722  0.6882
   23ANI     H6  847   2.556   2.015   0.340  0.8537  0.3309  0.3835
   23ANI     H7  848   2.478   2.074   0.570  0.4790  1.6365  0.5109
   23ANI     H8  849   2.296   2.233   0.596 -0.6228  0.9609 -1.5034
   24ANI     C1  850   0.116   0.184   2.236 -0.2491 -0.0276 -0.2594
   24ANI     O1  851  -0.015   0.242   2.223  0.6607  0.3487 -0.2618
   24ANI     C2  852  -0.120   0.215   2.315  0.3936  0.2166 -1.2197
   24ANI     C3  853  -0.093   0.140   2.435  0.2293 -0.1777  0.2373
   24ANI     C4  854  -0.201   0.104   2.515  0.1434 -0.2090 -0.3909
   24ANI     C5  855  -0.332   0.141   2.478 -0.0971 -0.9034  0.0999
   24ANI     C6  856  -0.362   0.222   2.366  0.0055  0.2067 -0.9897
   24ANI     C7  857  -0.256   0.257   2.285  0.6794 -0.0219  0.2035
   24ANI     H1  858   0.152   0.210   2.336  3.0550  0.9163 -1.6339
   24ANI     H2  859   0.112   0.075   2.229  0.1933 -0.0026 -0.9225
   24ANI     H3  860   0.180   0.224   2.156 -1.3132  0.9025 -0.6625
   24ANI     H4  861   0.008   0.120   2.468  0.3918  2.1011  1.2263
   24ANI     H5  862  -0.180   0.062   2.613 -2.5815  1.8753  1.1699
   24ANI     H6  863  -0.411   0.126   2.552  1.2091  0.9857  1.9119
   24ANI     H7  864  -0.464   0.253   2.344 -0.1051  0.5754 -0.0151
   24ANI     H8  865  -0.271   0.316   2.195 -0.4219 -0.1338  0.3109
   25ANI     C1  866   2.207   2.713   0.173 -0.0580  0.0178 -0.1068
   25ANI     O1  867   2.317   2.719   0.088  0.0803  0.5578 -0.1985
   25ANI     C2  868   2.332   2.825  -0.001 -0.0573 -0.2217  0.3667
   25ANI     C3  869   2.240   2.924  -0.022  0.2698  0.5896 -0.0583
   25ANI     C4  870   2.255   3.025  -0.122  0.3611 -0.0305  0.3382
   25ANI     C5  871   2.365   3.034  -0.205  0.1625 -0.4122  0.2212
   25ANI     C6  872   2.458   2.927  -0.189 -0.2463  0.0717  0.2862
   25ANI     C7  873   2.436   2.825  -0.095 -0.6639  0.1179  0.0299
   25ANI     H1  874   2.110   2.696   0.124 -0.8783  0.7276  1.2608
   25ANI     H2  875   2.223   2.632   0.244 -0.6716  0.4882  0.5804
   25ANI     H3  876   2.200   2.807   0.228  3.8066  0.7885 -0.8052
   25ANI     H4  877   2.145   2.914   0.030 -0.7254  2.0010 -1.5436
   25ANI     H5  878   2.166   3.085  -0.142  0.9647  0.8575  0.2581
   25ANI     H6  879   2.381   3.105  -0.284  0.3265 -0.7763 -0.0746
   25ANI     H7  880   2.543   2.921  -0.256 -0.5051  0.4835 -0.0834
   25ANI     H8  881   2.512   2.748  -0.099 -2.9865 -2.1466 -1.8309
   26ANI     C1  882   1.600   0.118   3.739 -0.6972 -0.0142 -0.3599
   26ANI     O1  883   1.490   0.034   3.687  0.4007 -0.1552 -0.5258
   26ANI     C2  884   1.386  -0.012   3.765 -0.0118 -0.1567  0.6030
   26ANI     C3  885   1.338   0.042   3.890  0.9872  0.1354 -0.4170
   26ANI     C4  886   1.230  -0.015   3.952  0.1998  0.4095  0.4049
   26ANI     C5  887   1.176  -0.140   3.902  0.4974 -0.6543  0.4467
   26ANI     C6  888   1.222  -0.188   3.782  0.4822 -0.0076  1.0990
   26ANI     C7  889   1.327  -0.127   3.715 -0.3985  0.2911 -0.3947
   26ANI     H1  890   1.667   0.060   3.803  0.7570  0.7494 -1.1565
   26ANI     H2  891   1.661   0.167   3.662  0.2515 -1.9609 -0.8995
   26ANI     H3  892   1.557   0.204   3.792  0.8555  0.6207 -0.0808
   26ANI     H4  893   1.372   0.138   3.927 -3.0767  1.5599 -0.1810
   26ANI     H5  894   1.181   0.030   4.038  0.7801  0.5679  0.6512
   26ANI     H6  895   1.098  -0.190   3.959  0.2274 -0.5159  0.2020
   26ANI     H7  896   1.187  -0.282   3.741 -4.3328  0.7748  3.0558
   26ANI     H8  897   1.367  -0.178   3.627  1.9621 -0.8303  1.2753
   27ANI     C1  898   0.304   2.580   0.443  0.0035 -0.2437  0.2714
   27ANI     O1  899   0.388   2.544   0.333 -1.2497 -0.2758 -0.1994
   27ANI     C2  900   0.507   2.613   0.297 -0.6130 -0.1162 -0.1724
   27ANI     C3  901   0.563   2.586   0.170  0.0495  1.0334  0.0976
   27ANI     C4  902   0.686   2.649   0.138 -0.4431  0.6555  0.3426
   27ANI     C5  903   0.750   2.738   0.224  1.5390  1.0736  0.5694
   27ANI     C6  904   0.685   2.764   0.353  0.0823 -0.0391  0.2167
   27ANI     C7  905   0.572   2.694   0.390  0.2245  0.3310  0.5195
   27ANI     H1  906   0.206   2.530   0.434 -0.8336  1.4309 -0.0350
   27ANI     H2  907   0.354   2.541   0.533  0.4266 -2.6133 -0.9515
   27ANI     H3  908   0.278   2.686   0.449  0.2736 -0.1877  0.4376
   27ANI     H4  909   0.524   2.520   0.093  0.5097 -0.7125  1.3378
   27ANI     H5  910   0.730   2.631   0.040 -1.8758  0.2152 -0.2387
   27ANI     H6  911   0.844   2.783   0.196  0.3480  2.8628 -0.6634
   27ANI     H7  912   0.729   2.837   0.420  0.8322 -2.0261  1.9427
   27ANI     H8  913   0.522   2.716   0.484  1.9832 -0.4679  1.6669
   28ANI     C1  914   0.391   2.262   0.948 -0.1276  0.6341  0.2356
   28ANI     O1  915   0.465   2.284   1.068  0.4563 -0.2466 -0.0785
   28ANI     C2  916   0.540   2.401   1.082  0.3436 -0.0754  0.3520
   28ANI     C3  917   0.574   2.434   1.215 -0.4812  0.4226 -0.4272
   28ANI     C4  918   0.660   2.535   1.242  0.4807  0.8140  0.3890
   28ANI     C5  919   0.717   2.611   1.135 -0.4313  0.0813 -0.1597
   28ANI     C6  920   0.686   2.580   1.001 -0.3384 -0.2318 -0.7087
   28ANI     C7  921   0.596   2.478   0.977  0.6839 -0.1217  0.1261
   28ANI     H1  922   0.456   2.236   0.864  0.0550  2.1939 -0.1238
   28ANI     H2  923   0.326   2.174   0.951  0.6102  0.1213  3.6606
   28ANI     H3  924   0.323   2.343   0.920 -0.5956 -0.9169 -3.4192
   28ANI     H4  925   0.530   2.371   1.292  0.8010 -0.8474 -0.7310
   28ANI     H5  926   0.681   2.560   1.345  0.3378  1.3827  0.2817
   28ANI     H6  927   0.782   2.694   1.160 -2.6322  1.5870  0.7122
   28ANI     H7  928   0.742   2.625   0.919  1.3035 -0.2018  0.3995
   28ANI     H8  929   0.582   2.447   0.873  0.9583  1.4004 -0.3732
   29ANI     C1  930   2.145   1.470   3.124 -0.6050 -0.1588  0.0217
   29ANI     O1  931   2.086   1.598   3.152  0.0002  0.2991 -0.4377
   29ANI     C2  932   1.989   1.611   3.245  0.3065  0.5004  0.7419
   29ANI     C3  933   1.909   1.725   3.247 -0.7007  0.1654 -0.4460
   29ANI     C4  934   1.813   1.742   3.345  0.5607  0.1225  0.1022
   29ANI     C5  935   1.785   1.638   3.441 -0.1710 -0.5976 -0.3207
   29ANI     C6  936   1.858   1.518   3.435 -0.1749  0.4244 -0.1881
   29ANI     C7  937   1.958   1.507   3.336 -0.2239  0.6248 -0.8431
   29ANI     H1  938   2.206   1.488   3.035 -0.1799 -0.0355  0.3392
   29ANI     H2  939   2.210   1.435   3.205  0.5444 -1.9293 -1.6141
   29ANI     H3  940   2.070   1.391   3.106  1.4983 -2.1812 -0.0454
   29ANI     H4  941   1.925   1.803   3.174  1.3415  0.8521  0.6849
   29ANI     H5  942   1.762   1.838   3.348 -1.2116 -0.7682 -0.2383
   29ANI     H6  943   1.704   1.653   3.512 -0.9879 -2.3578 -0.8473
   29ANI     H7  944   1.831   1.430   3.492  2.7912  0.1354  0.8534
   29ANI     H8  945   2.002   1.409   3.322 -0.5068  0.0791  1.8154
   30ANI     C1  946   1.204   2.309   0.302 -0.6408  1.0513  0.2892
   30ANI     O1  947   1.069   2.337   0.309  0.5532 -0.5513 -0.2419
   30ANI     C2  948   0.965   2.252   0.281  1.2868  1.1715  0.4905
   30ANI     C3  949   0.845   2.313   0.238 -0.3205  0.3660  0.7079
   30ANI     C4  950   0.739   2.227   0.210 -0.1647 -0.0427 -0.5204
   30ANI     C5  951   0.750   2.084   0.220 -0.1987  0.5196  0.1022
   30ANI     C6  952   0.867   2.029   0.264  0.3003 -0.1089 -0.2868
   30ANI     C7  953   0.977   2.112   0.292 -0.6742  0.0564  0.5899
   30ANI     H1  954   1.227   2.235   0.380  1.1266 -0.7030 -1.8471
   30ANI     H2  955   1.236   2.267   0.206  2.5295  0.1471  1.6809
   30ANI     H3  956   1.264   2.401   0.307  1.4925 -0.1717 -1.7508
   30ANI     H4  957   0.830   2.420   0.243 -0.3763  0.3499  0.9082
   30ANI     H5  958   0.641   2.262   0.178 -0.6896  0.0561  1.0988
   30ANI     H6  959   0.665   2.019   0.203  0.4435 -0.0794 -0.8697
   30ANI     H7  960   0.886   1.922   0.256 -2.4821 -0.6048 -0.9491
   30ANI     H8  961   1.074   2.066   0.314 -0.6240 -0.0560  0.1388
   31ANI     C1  962   2.398   1.101   0.038 -0.3419  0.5267 -0.0196
   31ANI     O1  963   2.294   1.194   0.013  0.2922 -0.2375 -0.2392
   31ANI     C2  964   2.326   1.318  -0.042  0.0104  0.1954  0.3016
   31ANI     C3  965   2.219   1.378  -0.115 -0.3833 -0.1169  0.2604
   31ANI     C4  966   2.248   1.502  -0.189  0.1004 -0.8048 -0.2622
   31ANI     C5  967   2.376   1.562  -0.178 -0.7705 -0.6828  0.3716
   31ANI     C6  968   2.476   1.496  -0.105  0.5676 -0.2288 -0.0702
   31ANI     C7  969   2.452   1.377  -0.039 -0.9831 -0.5946  0.4378
   31ANI     H1  970   2.454   1.138   0.124 -0.6507  0.6796  0.1151
   31ANI     H2  971   2.361   0.999   0.052  1.5394 -0.3120 -0.9160
   31ANI     H3  972   2.463   1.107  -0.051 -0.8198 -0.4854 -0.4448
   31ANI     H4  973   2.121   1.334  -0.106  0.1901 -1.3931  0.4200
   31ANI     H5  974   2.165   1.551  -0.239 -0.9001 -0.2042  1.9265
   31ANI     H6  975   2.397   1.654  -0.232  1.4134 -2.0887 -1.2622
   31ANI     H7  976   2.574   1.542  -0.102  0.4417 -0.0225  2.3938
   31ANI     H8  977   2.538   1.322  -0.002  1.7112  2.4562 -1.0589
   32ANI     C1  978   1.013   2.886   0.519 -0.1097 -0.3469  0.2559
   32ANI     O1  979   1.100   2.941   0.418 -0.3182  0.1308  0.8330
   32ANI     C2  980   1.236   2.933   0.414  0.2848 -0.2667  0.1166
   32ANI     C3  981   1.306   3.005   0.314 -0.3273  0.3758  0.4524
   32ANI     C4  982   1.446   2.995   0.309 -0.9790  0.6750 -0.9601
   32ANI     C5  983   1.517   2.914   0.398 -0.0472  0.3315 -0.2549
   32ANI     C6  984   1.449   2.851   0.502 -0.0646  0.4989  0.1815
   32ANI     C7  985   1.309   2.848   0.498 -0.0612  0.4023 -0.7150
   32ANI     H1  986   0.907   2.888   0.491  0.1535 -0.0416 -0.7276
   32ANI     H2  987   1.046   2.783   0.538  1.2734  0.4186  2.2094
   32ANI     H3  988   1.027   2.944   0.611 -0.7920  0.7759 -0.3344
   32ANI     H4  989   1.263   3.066   0.235 -0.3757 -1.0306 -0.6376
   32ANI     H5  990   1.502   3.067   0.251  0.1914  0.5516  0.0040
   32ANI     H6  991   1.625   2.909   0.412  0.0361  1.5285 -0.4364
   32ANI     H7  992   1.497   2.786   0.574 -0.3073 -1.4721 -1.4148
   32ANI     H8  993   1.257   2.773   0.556  0.2516  0.2175 -0.6745
   33ANI     C1  994   0.183   3.062   3.539  0.0328  0.1581  0.1621
   33ANI     O1  995   0.312   3.057   3.483 -0.2594 -0.6551 -0.3936
   33ANI     C2  996   0.410   2.966   3.506  0.6878  1.1908  0.0882
   33ANI     C3  997   0.394   2.869   3.611  0.1064 -0.2779 -0.0715
   33ANI     C4  998   0.495   2.783   3.651  0.4405  0.0150  0.2219
   33ANI     C5  999   0.617   2.799   3.583  0.8512  0.0496 -0.6642
   33ANI     C6 1000   0.630   2.875   3.468 -0.5765 -0.8572  1.1283
   33ANI     C7 1001   0.524   2.958   3.424  0.1742  0.2242  0.0975
   33ANI     H1 1002   0.135   3.154   3.502 -1.0611 -1.2603 -2.0574
   33ANI     H2 1003   0.121   2.975   3.513 -0.0790  0.2098  0.2562
   33ANI     H3 1004   0.183   3.064   3.648 -0.5012  0.8357  0.1583
   33ANI     H4 1005   0.300   2.862   3.665  0.3819 -0.5248  0.3741
   33ANI     H5 1006   0.485   2.717   3.736 -0.1989  0.6628  0.6561
   33ANI     H6 1007   0.706   2.747   3.618 -0.4246 -0.2985  2.2392
   33ANI     H7 1008   0.717   2.869   3.404 -1.0845  2.6959 -0.0213
   33ANI     H8 1009   0.524   3.026   3.340  2.2513 -0.0357 -0.1308
   34ANI     C1 1010   1.331   1.489   3.262 -0.0612 -0.3070  0.1031
   34ANI     O1 1011   1.256   1.611   3.268  0.1330  0.9026 -0.1366
   34ANI     C2 1012   1.297   1.728   3.207 -0.2709 -0.3765 -0.7070
   34ANI     C3 1013   1.204   1.814   3.153 -0.4391 -0.0185 -0.4815
   34ANI     C4 1014   1.242   1.931   3.091  0.1782  0.4888  0.4229
   34ANI     C5 1015   1.374   1.961   3.079  0.2154  0.2583  0.1981
   34ANI     C6 1016   1.474   1.874   3.126 -0.4991  0.1363 -0.0984
   34ANI     C7 1017   1.434   1.755   3.193  0.0958 -0.7569  0.6636
   34ANI     H1 1018   1.272   1.402   3.295  0.0586 -0.7733 -0.9065
   34ANI     H2 1019   1.365   1.483   3.158  1.8062 -0.5873  0.7074
   34ANI     H3 1020   1.419   1.494   3.329 -0.7924  1.3289  0.9711
   34ANI     H4 1021   1.098   1.795   3.165  0.0023 -0.8200  2.4135
   34ANI     H5 1022   1.171   2.003   3.052  0.7965  1.0227  0.2903
   34ANI     H6 1023   1.401   2.060   3.045  2.3686 -1.3732 -3.1295
   34ANI     H7 1024   1.581   1.890   3.122  0.2420 -3.8690  1.7996
   34ANI     H8 1025   1.505   1.681   3.229  0.7210  0.0537  1.1438
   35ANI     C1 1026   0.002   0.995   0.149 -0.7071 -0.0347 -0.5716
   35ANI     O1 1027   0.051   1.060   0.032  0.5013  0.0952  0.2063
   35ANI     C2 1028   0.044   0.992  -0.086  0.6564  0.1208 -0.4586
   35ANI     C3 1029   0.104   1.043  -0.200  0.2464 -0.3014  0.3687
   35ANI     C4 1030   0.114   0.977  -0.318  0.0339  0.0513  0.9628
   35ANI     C5 1031   0.067   0.845  -0.338  0.1299  0.6157 -0.5148
   35ANI     C6 1032  -0.001   0.788  -0.224 -0.3531  0.1393 -0.1260
   35ANI     C7 1033  -0.009   0.861  -0.099 -0.0690 -0.2188  0.2031
   35ANI     H1 1034   0.018   1.049   0.243 -0.4261 -0.1333 -0.5611
   35ANI     H2 1035  -0.104   0.976   0.130 -0.8146  0.5523 -0.5587
   35ANI     H3 1036   0.058   0.901   0.149 -0.8525 -0.1707 -3.1597
   35ANI     H4 1037   0.149   1.141  -0.189 -0.1347 -0.1702  0.7567
   35ANI     H5 1038   0.158   1.036  -0.398  0.9956  1.0635  2.2242
   35ANI     H6 1039   0.077   0.797  -0.435 -1.6251 -0.9214  0.0506
   35ANI     H7 1040  -0.032   0.685  -0.236  3.2028 -1.1265  0.9490
   35ANI     H8 1041  -0.061   0.809  -0.019 -0.8247  2.5392  1.5661
   36ANI     C1 1042   1.557   0.496   3.252  0.2995 -0.3399  0.3122
   36ANI     O1 1043   1.468   0.593   3.195 -0.0111 -0.2768  0.3917
   36ANI     C2 1044   1.333   0.573   3.190 -0.6586 -0.4703  0.0514
   36ANI     C3 1045   1.255   0.689   3.209  0.2727  0.1037  0.1074
   36ANI     C4 1046   1.115   0.670   3.222 -0.0147  0.1861 -0.6474
   36ANI     C5 1047   1.057   0.546   3.223 -0.0770 -0.1136 -0.3777
   36ANI     C6 1048   1.139   0.429   3.189 -0.2611  0.3056 -0.6524
   36ANI     C7 1049   1.274   0.444   3.174 -0.4687  0.4596 -0.6861
   36ANI     H1 1050   1.552   0.415   3.179  1.7169  0.3266 -0.5493
   36ANI     H2 1051   1.657   0.540   3.261  0.0156  0.1485  1.2059
   36ANI     H3 1052   1.522   0.482   3.355  0.6946 -1.0562  0.3496
   36ANI     H4 1053   1.297   0.788   3.227  0.2438  0.5311 -1.9934
   36ANI     H5 1054   1.059   0.763   3.225 -0.9190 -0.3997  1.6842
   36ANI     H6 1055   0.950   0.531   3.232  0.0505 -0.5589  0.5521
   36ANI     H7 1056   1.097   0.329   3.193  1.1709 -0.2597  0.9654
   36ANI     H8 1057   1.333   0.356   3.150  2.9701  2.3435  0.6361
   37ANI     C1 1058   0.433   1.399   2.291 -0.1353  0.4778  0.5361
   37ANI     O1 1059   0.364   1.275   2.263  0.0269 -0.5974  0.2325
   37ANI     C2 1060   0.435   1.157   2.242 -0.3654  0.0420  0.2383
   37ANI     C3 1061   0.359   1.035   2.240  0.0563  0.6607 -0.0756
   37ANI     C4 1062   0.424   0.907   2.236  0.1610 -0.0094  0.7171
   37ANI     C5 1063   0.561   0.907   2.225  0.3129 -0.0360 -1.0193
   37ANI     C6 1064   0.639   1.030   2.210  0.8108  0.2122 -0.1760
   37ANI     C7 1065   0.573   1.152   2.217  0.2791 -0.3026 -0.1956
   37ANI     H1 1066   0.517   1.418   2.224 -0.5888  0.5618 -0.0071
   37ANI     H2 1067   0.365   1.483   2.277  1.5539  1.5188 -1.6967
   37ANI     H3 1068   0.476   1.397   2.392  0.2727  0.7480  0.3671
   37ANI     H4 1069   0.252   1.054   2.250 -0.1664 -1.3600  1.6478
   37ANI     H5 1070   0.362   0.818   2.226 -0.3068  0.3450  0.4240
   37ANI     H6 1071   0.621   0.816   2.224 -1.6967 -1.4046 -0.3747
   37ANI     H7 1072   0.748   1.034   2.209  0.8615 -0.8516  0.2062
   37ANI     H8 1073   0.633   1.242   2.220 -0.5959  0.2340  1.5402
   38ANI     C1 1074   1.716   2.721   0.812 -0.6515  0.0181  0.7626
   38ANI     O1 1075   1.748   2.848   0.755 -0.7194  0.0826  0.7506
   38ANI     C2 1076   1.843   2.866   0.659 -0.4402  0.1410 -0.1563
   38ANI     C3 1077   1.845   2.998   0.605  0.4580  1.2135  0.2373
   38ANI     C4 1078   1.935   3.031   0.503 -0.0790 -0.5621 -0.0670
   38ANI     C5 1079   2.026   2.932   0.453 -0.2054 -0.5233  0.2139
   38ANI     C6 1080   2.032   2.799   0.508  0.3156  0.1714 -0.6290
   38ANI     C7 1081   1.928   2.764   0.604  0.2057 -0.2036 -0.4213
   38ANI     H1 1082   1.686   2.652   0.732 -0.5552  0.5164  0.2901
   38ANI     H2 1083   1.800   2.694   0.877  1.4671 -0.2945 -2.0094
   38ANI     H3 1084   1.631   2.745   0.877 -0.1375 -0.2178  1.5370
   38ANI     H4 1085   1.776   3.075   0.637  0.6160  0.8299  1.5287
   38ANI     H5 1086   1.944   3.135   0.473 -0.1780 -0.5632 -0.1007
   38ANI     H6 1087   2.101   2.960   0.380 -1.8272  1.7661 -0.6112
   38ANI     H7 1088   2.106   2.723   0.484  0.5896  1.1326 -2.8970
   38ANI     H8 1089   1.916   2.663   0.643  0.5065  0.7709  2.3350
   39ANI     C1 1090   0.430   1.865   1.044  0.4037 -1.1153  0.2644
   39ANI     O1 1091   0.532   1.946   0.977  0.0094 -0.0378  1.1358
   39ANI     C2 1092   0.560   1.939   0.840  0.6082  0.8046 -0.0632
   39ANI     C3 1093   0.500   1.839   0.754 -1.1453  0.4570  0.0129
   39ANI     C4 1094   0.543   1.830   0.619  0.2835 -0.3824 -0.1313
   39ANI     C5 1095   0.631   1.931   0.565  0.0338 -0.0764  0.4333
   39ANI     C6 1096   0.682   2.030   0.647 -0.4360  0.2703  0.2861
   39ANI     C7 1097   0.652   2.031   0.786 -0.2916 -0.6842 -0.0612
   39ANI     H1 1098   0.451   1.758   1.033 -0.1290 -1.1125 -0.8916
   39ANI     H2 1099   0.453   1.888   1.149  0.1472  0.6874 -0.0528
   39ANI     H3 1100   0.329   1.903   1.023  0.5308 -1.4918 -1.0984
   39ANI     H4 1101   0.421   1.771   0.783  0.5825 -1.4476  0.4068
   39ANI     H5 1102   0.492   1.759   0.555 -0.8136  0.1620  0.1420
   39ANI     H6 1103   0.642   1.940   0.457 -0.8318  1.6319  0.4717
   39ANI     H7 1104   0.746   2.107   0.605 -0.8174  0.1945 -0.4359
   39ANI     H8 1105   0.711   2.097   0.849 -1.1033 -0.5441  0.5583
   40ANI     C1 1106   1.502   0.477   1.128 -0.7175 -0.3466  0.9014
   40ANI     O1 1107   1.573   0.383   1.042  0.0462  0.5243 -0.5973
   40ANI     C2 1108   1.584   0.252   1.086 -0.3202  0.1838  0.6243
   40ANI     C3 1109   1.715   0.195   1.068  0.0776 -0.1395 -0.7040
   40ANI     C4 1110   1.740   0.075   1.133 -0.1241  0.5753 -0.2692
   40ANI     C5 1111   1.641   0.017   1.213  0.7019 -0.0831  0.3746
   40ANI     C6 1112   1.510   0.071   1.227 -0.9070 -0.2549 -0.6277
   40ANI     C7 1113   1.478   0.187   1.156 -0.2478  0.2333 -0.4242
   40ANI     H1 1114   1.499   0.577   1.084 -3.6441  0.4696  2.8925
   40ANI     H2 1115   1.395   0.455   1.130 -0.7412 -0.3731 -0.1751
   40ANI     H3 1116   1.536   0.469   1.232  0.2282 -2.3037  0.4755
   40ANI     H4 1117   1.799   0.246   1.023  0.5298 -0.5537 -0.3314
   40ANI     H5 1118   1.844   0.047   1.126  0.1010  0.6747  2.2484
   40ANI     H6 1119   1.670  -0.060   1.284  0.1351  0.6644  1.4413
   40ANI     H7 1120   1.429   0.023   1.282 -1.9338  0.8375 -1.1586
   40ANI     H8 1121   1.379   0.231   1.163 -1.1701 -1.9532  1.0487
   41ANI     C1 1122   2.693   0.709   0.190 -0.9987 -0.3786  0.2730
   41ANI     O1 1123   2.719   0.730   0.053  0.5869 -0.0087  0.1036
   41ANI     C2 1124   2.749   0.635  -0.039 -0.6117  0.7660  0.0404
   41ANI     C3 1125   2.760   0.500  -0.002  1.1667  0.2714 -0.0228
   41ANI     C4 1126   2.780   0.398  -0.103  0.4902 -0.2560 -0.3499
   41ANI     C5 1127   2.795   0.437  -0.242 -0.3721  0.1411 -0.4389
   41ANI     C6 1128   2.782   0.573  -0.274 -0.0310  0.3564 -0.6470
   41ANI     C7 1129   2.762   0.661  -0.168  0.7156 -0.4981  1.2695
   41ANI     H1 1130   2.656   0.801   0.236 -0.6661 -0.4762  0.7401
   41ANI     H2 1131   2.608   0.640   0.200  0.4433 -2.0228  1.5983
   41ANI     H3 1132   2.773   0.672   0.256  0.6204  1.5592 -0.5571
   41ANI     H4 1133   2.722   0.463   0.093  0.4167  0.2552 -0.3279
   41ANI     H5 1134   2.795   0.295  -0.073 -0.4555  0.3547  2.3516
   41ANI     H6 1135   2.818   0.358  -0.312 -0.6209 -0.4284  0.1182
   41ANI     H7 1136   2.784   0.594  -0.380  0.7764 -0.2962 -0.7718
   41ANI     H8 1137   2.750   0.767  -0.190 -1.6691 -0.9801  0.1419
   42ANI     C1 1138   1.440   1.486   2.647  0.0298 -0.1846 -0.8418
   42ANI     O1 1139   1.509   1.374   2.599 -0.3474 -0.1133 -0.0606
   42ANI     C2 1140   1.582   1.369   2.481  0.4329 -0.6147  0.3441
   42ANI     C3 1141   1.583   1.479   2.393  0.0410  0.3183  0.8210
   42ANI     C4 1142   1.654   1.473   2.272 -0.2715  0.5310 -0.0082
   42ANI     C5 1143   1.722   1.351   2.244  0.0610 -0.4592  0.4709
   42ANI     C6 1144   1.720   1.241   2.325  0.2478 -0.6095  0.6986
   42ANI     C7 1145   1.653   1.249   2.448 -0.3812  0.3115 -0.3369
   42ANI     H1 1146   1.354   1.511   2.583 -0.1146 -0.8266 -0.9033
   42ANI     H2 1147   1.411   1.454   2.748 -0.2702  0.4705 -0.7157
   42ANI     H3 1148   1.495   1.579   2.668  2.0510 -1.8125  1.3344
   42ANI     H4 1149   1.514   1.560   2.416 -0.8056 -0.5487  1.3738
   42ANI     H5 1150   1.646   1.554   2.201  0.2760 -0.2069 -0.9246
   42ANI     H6 1151   1.779   1.344   2.152  0.2772 -0.0122  0.5681
   42ANI     H7 1152   1.773   1.151   2.295  0.3282 -0.5742  0.7331
   42ANI     H8 1153   1.643   1.157   2.504 -1.5095 -0.2153 -1.3936
   43ANI     C1 1154   1.587   2.344   0.018 -0.1151 -0.1195  0.1810
   43ANI     O1 1155   1.558   2.203   0.042  0.3067 -0.8193  0.0436
   43ANI     C2 1156   1.510   2.157   0.163  0.4359 -0.0284  0.3912
   43ANI     C3 1157   1.554   2.206   0.291  0.4245  0.2024  0.7010
   43ANI     C4 1158   1.501   2.158   0.410  0.4262 -0.0313  0.6768
   43ANI     C5 1159   1.410   2.052   0.406 -0.1432  0.0152  0.5480
   43ANI     C6 1160   1.370   1.997   0.280 -0.0628 -0.4397 -0.2246
   43ANI     C7 1161   1.415   2.053   0.159  0.0117 -0.6412  0.1576
   43ANI     H1 1162   1.635   2.352  -0.080  0.0536 -1.1291  0.1825
   43ANI     H2 1163   1.493   2.400   0.014 -0.0620 -0.1707 -2.2461
   43ANI     H3 1164   1.661   2.374   0.093 -0.7323  1.3304  0.2344
   43ANI     H4 1165   1.628   2.286   0.295  0.9043 -0.3202  2.7220
   43ANI     H5 1166   1.529   2.207   0.502  1.8439  2.1006 -0.8502
   43ANI     H6 1167   1.379   2.007   0.500  2.3091 -0.7493  1.0091
   43ANI     H7 1168   1.303   1.913   0.266  0.8717 -1.1811 -0.2977
   43ANI     H8 1169   1.386   2.005   0.065 -1.5207 -1.9789  1.2902
   44ANI     C1 1170   0.711   1.293   3.155 -0.3331  0.2078  0.6848
   44ANI     O1 1171   0.776   1.264   3.021  0.0506 -0.1910  0.4274
   44ANI     C2 1172   0.814   1.135   2.984 -0.3328  0.0395  0.1193
   44ANI     C3 1173   0.881   1.116   2.861 -0.1174 -0.0742  0.7502
   44ANI     C4 1174   0.924   0.989   2.823  0.4060  0.2880 -1.1467
   44ANI     C5 1175   0.896   0.882   2.917  0.7340  0.5772  0.4730
   44ANI     C6 1176   0.815   0.893   3.029 -0.2097  0.4612  0.1735
   44ANI     C7 1177   0.774   1.022   3.058  0.2919 -0.1748  0.0256
   44ANI     H1 1178   0.709   1.402   3.170  0.6131  0.2169  0.7587
   44ANI     H2 1179   0.603   1.273   3.159 -0.1310 -1.5861 -2.0022
   44ANI     H3 1180   0.758   1.245   3.241  1.1267 -1.5469 -1.0688
   44ANI     H4 1181   0.919   1.207   2.815  1.2372 -0.9862  0.0228
   44ANI     H5 1182   0.983   0.976   2.733  0.3960 -1.9186 -0.8510
   44ANI     H6 1183   0.944   0.788   2.889 -2.8648 -0.8035 -1.3966
   44ANI     H7 1184   0.802   0.819   3.107 -0.4639  0.9444  0.6020
   44ANI     H8 1185   0.712   1.032   3.147  0.0388  0.6900 -0.2434
   45ANI     C1 1186   2.964   2.142   3.011  0.0653  0.7098 -0.4249
   45ANI     O1 1187   2.930   2.186   2.877 -1.1850  0.5208 -0.4115
   45ANI     C2 1188   3.026   2.246   2.796 -0.2452  0.5625 -0.7076
   45ANI     C3 1189   3.164   2.253   2.828 -0.4196 -0.7243 -0.2346
   45ANI     C4 1190   3.252   2.311   2.733 -0.2044  0.0370  0.1601
   45ANI     C5 1191   3.210   2.373   2.617 -0.7545  0.1083 -0.2298
   45ANI     C6 1192   3.078   2.363   2.577 -0.1468 -1.1115  0.0893
   45ANI     C7 1193   2.987   2.294   2.667 -0.1936  0.0201  0.7666
   45ANI     H1 1194   3.046   2.070   3.011 -2.5066 -2.3730 -3.0975
   45ANI     H2 1195   2.987   2.225   3.080 -0.7275  1.5508 -1.1512
   45ANI     H3 1196   2.869   2.101   3.048  1.2145 -1.7600 -0.1394
   45ANI     H4 1197   3.201   2.199   2.914 -0.7449 -2.1418 -0.9654
   45ANI     H5 1198   3.357   2.309   2.760 -0.1521 -0.0189 -0.0517
   45ANI     H6 1199   3.277   2.432   2.555  0.4064 -1.0034 -0.0589
   45ANI     H7 1200   3.037   2.421   2.494 -1.0316  1.4444  2.2475
   45ANI     H8 1201   2.884   2.287   2.634  0.1037 -0.2573 -0.1184
   46ANI     C1 1202   1.673   1.761   0.329  0.0951 -0.2272  0.3607
   46ANI     O1 1203   1.588   1.725   0.443  0.3188  0.2062  0.3745
   46ANI     C2 1204   1.637   1.676   0.564 -0.4967 -0.0343  0.1491
   46ANI     C3 1205   1.773   1.676   0.588 -0.3678  0.8748 -0.9858
   46ANI     C4 1206   1.812   1.624   0.711  0.3477 -0.0414 -0.3378
   46ANI     C5 1207   1.724   1.575   0.811  0.1315  0.2288 -0.2171
   46ANI     C6 1208   1.582   1.581   0.781  0.1410 -0.3985 -0.9777
   46ANI     C7 1209   1.544   1.629   0.654  0.8332  0.3642 -0.5935
   46ANI     H1 1210   1.609   1.795   0.247  0.3256 -0.5267  0.0578
   46ANI     H2 1211   1.733   1.849   0.352 -1.2400  1.3089 -1.8876
   46ANI     H3 1212   1.725   1.674   0.289  0.2781 -0.1813  0.4998
   46ANI     H4 1213   1.843   1.710   0.513 -1.8816  1.4618 -2.1498
   46ANI     H5 1214   1.917   1.600   0.728  0.3894 -0.3280 -0.9732
   46ANI     H6 1215   1.756   1.542   0.909  0.1307 -0.6819 -0.5177
   46ANI     H7 1216   1.505   1.536   0.844  0.4555  1.9131  1.1419
   46ANI     H8 1217   1.438   1.629   0.630  0.9275  0.4785 -1.0146
   47ANI     C1 1218   3.156   2.526   2.980 -0.0659  0.0741  0.0625
   47ANI     O1 1219   3.222   2.478   3.094 -0.1968 -0.1429 -0.0348
   47ANI     C2 1220   3.312   2.564   3.162  0.6454 -0.1748  0.3251
   47ANI     C3 1221   3.360   2.533   3.293  0.1689 -0.2340 -0.2940
   47ANI     C4 1222   3.453   2.618   3.360  0.1732 -0.4699 -0.1055
   47ANI     C5 1223   3.492   2.738   3.296  0.3902  0.1858 -0.6139
   47ANI     C6 1224   3.436   2.774   3.171  0.2826 -0.3180  0.1253
   47ANI     C7 1225   3.342   2.693   3.106 -0.0786  0.1399 -0.2909
   47ANI     H1 1226   3.083   2.453   2.943 -0.6287 -0.5183  2.2581
   47ANI     H2 1227   3.095   2.613   3.006 -2.8797 -1.6392 -0.6107
   47ANI     H3 1228   3.231   2.543   2.902 -0.6079  3.1148  0.1363
   47ANI     H4 1229   3.334   2.434   3.327 -0.5824 -0.3600 -1.2156
   47ANI     H5 1230   3.508   2.588   3.449 -1.8745 -2.4610  0.5327
   47ANI     H6 1231   3.567   2.803   3.340  1.0004 -0.2163 -1.0415
   47ANI     H7 1232   3.454   2.872   3.128  0.2174  0.6756  2.2759
   47ANI     H8 1233   3.290   2.734   3.020 -2.4108  1.1974  1.5493
   48ANI     C1 1234   0.388   1.744   3.454 -0.0425 -0.1699  0.3267
   48ANI     O1 1235   0.490   1.779   3.372  0.0853 -0.2061  0.0780
   48ANI     C2 1236   0.605   1.708   3.364  0.0002 -0.3411 -0.3428
   48ANI     C3 1237   0.697   1.745   3.267  0.2135 -0.5923 -0.6316
   48ANI     C4 1238   0.822   1.682   3.265 -0.0001 -0.1269 -0.2179
   48ANI     C5 1239   0.845   1.576   3.354 -1.0483 -0.7073 -0.1576
   48ANI     C6 1240   0.748   1.531   3.444  0.0677  0.0654  0.0331
   48ANI     C7 1241   0.627   1.599   3.453 -0.9866 -0.6666  0.5217
   48ANI     H1 1242   0.341   1.650   3.423  1.0195 -0.3439 -0.7653
   48ANI     H2 1243   0.416   1.725   3.559  1.8238 -2.0993 -0.4900
   48ANI     H3 1244   0.308   1.819   3.445 -1.4456 -1.6098  0.4872
   48ANI     H4 1245   0.671   1.823   3.196  1.0234  0.7528  0.5311
   48ANI     H5 1246   0.893   1.696   3.184  1.1932  1.3222  1.0516
   48ANI     H6 1247   0.936   1.516   3.348 -1.3893 -0.9926 -3.0375
   48ANI     H7 1248   0.759   1.447   3.511 -0.2627  1.1264  1.4334
   48ANI     H8 1249   0.551   1.552   3.513 -0.8284 -2.2095 -0.4733
   49ANI     C1 1250   1.301   1.148   1.001 -0.9962  0.8461 -0.3525
   49ANI     O1 1251   1.250   1.254   1.087 -0.3130  0.2835 -0.9522
   49ANI     C2 1252   1.205   1.373   1.041 -0.0614  0.1687 -0.5654
   49ANI     C3 1253   1.222   1.413   0.909  0.0712 -0.0959 -0.4470
   49ANI     C4 1254   1.182   1.543   0.865 -0.1201 -0.3691 -0.2652
   49ANI     C5 1255   1.112   1.628   0.958  0.0802  0.4775  0.0325
   49ANI     C6 1256   1.094   1.584   1.093  0.4797  0.7921  0.1415
   49ANI     C7 1257   1.138   1.455   1.131  0.2604  0.4756 -0.5446
   49ANI     H1 1258   1.383   1.191   0.942 -1.9575 -0.2120 -2.5293
   49ANI     H2 1259   1.337   1.067   1.066  0.3158  0.9454 -0.9258
   49ANI     H3 1260   1.232   1.113   0.924 -2.4230  0.7994  0.9209
   49ANI     H4 1261   1.273   1.351   0.836  1.7802  0.2102  0.4788
   49ANI     H5 1262   1.202   1.566   0.761 -2.4025 -1.0362 -0.8670
   49ANI     H6 1263   1.093   1.732   0.933  0.2972  0.1067 -1.7030
   49ANI     H7 1264   1.046   1.646   1.169  1.0455 -0.9775  1.9774
   49ANI     H8 1265   1.130   1.415   1.232 -0.4049 -1.0893 -1.1987
   50ANI     C1 1266   1.996   3.431   3.534  0.3912 -0.3518  0.0661
   50ANI     O1 1267   2.036   3.414   3.667  0.0670 -0.0977  0.3653
   50ANI     C2 1268   2.018   3.299   3.744 -0.0874  0.4943 -0.4499
   50ANI     C3 1269   1.908   3.221   3.723  0.2813 -0.0701  0.4290
   50ANI     C4 1270   1.875   3.116   3.808  0.5250 -0.8558 -0.3900
   50ANI     C5 1271   1.958   3.089   3.915 -0.9596 -0.2523 -0.0500
   50ANI     C6 1272   2.077   3.169   3.932 -0.0782 -0.1597 -0.9661
   50ANI     C7 1273   2.107   3.278   3.852  0.4398 -0.5351  0.1865
   50ANI     H1 1274   2.018   3.534   3.505 -1.6677 -0.1395 -0.8487
   50ANI     H2 1275   2.048   3.364   3.464 -0.4358 -2.5935  1.5493
   50ANI     H3 1276   1.887   3.422   3.527  0.3152  0.9865 -0.5439
   50ANI     H4 1277   1.838   3.255   3.648 -0.8435  0.5620  1.7525
   50ANI     H5 1278   1.784   3.060   3.786  1.2143 -2.3538  0.4547
   50ANI     H6 1279   1.931   3.014   3.989  1.2694 -0.8536  0.2169
   50ANI     H7 1280   2.152   3.141   4.005 -0.6365 -0.9110 -0.6715
   50ANI     H8 1281   2.201   3.330   3.865 -0.9591  1.7531  1.6275
   51ANI     C1 1282   3.020   0.769   2.455 -0.5460  0.0085 -0.4366
   51ANI     O1 1283   2.914   0.735   2.366 -0.0493  0.0750 -0.7078
   51ANI     C2 1284   2.845   0.623   2.384  0.0765  0.5364 -0.4959
   51ANI     C3 1285   2.751   0.581   2.286 -0.4995 -0.4846  0.0267
   51ANI     C4 1286   2.672   0.472   2.314  0.1314  0.3377  0.5436
   51ANI     C5 1287   2.677   0.401   2.434  0.2033  0.5029 -0.3253
   51ANI     C6 1288   2.774   0.446   2.530  0.2567  0.6208 -0.1466
   51ANI     C7 1289   2.858   0.554   2.505 -0.1763  0.5786 -0.5244
   51ANI     H1 1290   3.072   0.858   2.416 -0.2656  0.2972  0.5702
   51ANI     H2 1291   3.003   0.771   2.563 -1.9195 -0.5055 -0.6314
   51ANI     H3 1292   3.093   0.689   2.441 -0.3275  0.3594 -1.3488
   51ANI     H4 1293   2.747   0.637   2.193  2.2995  3.6766  2.2144
   51ANI     H5 1294   2.596   0.445   2.241  0.1921  3.2123 -0.6398
   51ANI     H6 1295   2.606   0.319   2.440  0.4359  0.3228  0.0055
   51ANI     H7 1296   2.787   0.388   2.621 -0.6553  1.2183  0.3708
   51ANI     H8 1297   2.944   0.561   2.571  1.6014 -1.0223 -2.5724
   52ANI     C1 1298   3.377   1.127   3.079 -0.6446 -0.8722  0.5573
   52ANI     O1 1299   3.259   1.047   3.074  0.7134  0.2905  0.4389
   52ANI     C2 1300   3.195   0.990   3.188 -0.1997  0.3204  0.6999
   52ANI     C3 1301   3.234   1.028   3.318 -0.2674  0.6634  0.1585
   52ANI     C4 1302   3.163   0.971   3.425 -0.1954 -0.6238 -0.6297
   52ANI     C5 1303   3.069   0.867   3.404 -0.3440 -0.6648 -0.0188
   52ANI     C6 1304   3.032   0.825   3.272 -0.6059  0.1452 -0.1455
   52ANI     C7 1305   3.090   0.897   3.165  0.1961 -0.4285  0.1088
   52ANI     H1 1306   3.459   1.069   3.123 -1.6508 -1.6334  1.4295
   52ANI     H2 1307   3.402   1.163   2.978  1.3822 -1.4568  0.8180
   52ANI     H3 1308   3.359   1.213   3.145 -2.0002 -0.9161  0.2394
   52ANI     H4 1309   3.322   1.090   3.333 -0.0789  0.6556 -0.8721
   52ANI     H5 1310   3.203   0.997   3.523  0.1632 -0.6842 -0.7630
   52ANI     H6 1311   3.018   0.826   3.491 -1.1798  2.2812  0.9576
   52ANI     H7 1312   2.959   0.744   3.269  0.7893 -1.0957 -0.8800
   52ANI     H8 1313   3.074   0.870   3.062  0.4657  4.3387 -1.3181
   53ANI     C1 1314   2.076   2.573   3.200 -0.3977 -0.0954 -0.1842
   53ANI     O1 1315   2.046   2.466   3.285  0.1177 -0.1007  0.1263
   53ANI     C2 1316   1.920   2.448   3.329 -0.3287  0.1347  0.4956
   53ANI     C3 1317   1.801   2.509   3.285  0.3419 -0.2458 -0.1088
   53ANI     C4 1318   1.675   2.492   3.351  0.4544  1.0502 -0.9649
   53ANI     C5 1319   1.663   2.387   3.440 -0.2027 -0.5171  0.1259
   53ANI     C6 1320   1.780   2.319   3.485 -0.0674 -0.0088  0.1062
   53ANI     C7 1321   1.905   2.348   3.426 -0.5166  0.2929  0.9763
   53ANI     H1 1322   2.182   2.577   3.170 -0.6428 -1.2225 -1.2825
   53ANI     H2 1323   2.015   2.583   3.109 -1.6580 -1.0454  0.5472
   53ANI     H3 1324   2.044   2.671   3.237 -0.6842 -0.3721  0.3063
   53ANI     H4 1325   1.804   2.584   3.205 -1.6139 -2.0133 -1.9051
   53ANI     H5 1326   1.580   2.544   3.339 -1.1496 -1.1083  1.6347
   53ANI     H6 1327   1.565   2.367   3.483 -0.0958 -1.7864 -0.2172
   53ANI     H7 1328   1.775   2.243   3.562  0.3636 -2.1991 -2.0023
   53ANI     H8 1329   1.989   2.289   3.461  0.0115  1.7345  2.1662
   54ANI     C1 1330   2.397   1.846   2.617  0.0571 -0.5933  0.2552
   54ANI     O1 1331   2.435   1.850   2.480  0.2144 -0.6046  0.0687
   54ANI     C2 1332   2.560   1.838   2.430  0.7114  0.6171  0.1686
   54ANI     C3 1333   2.587   1.834   2.292 -0.2908 -0.2622 -0.1544
   54ANI     C4 1334   2.720   1.824   2.248  0.7756 -0.2708  0.2256
   54ANI     C5 1335   2.824   1.796   2.340  0.1563 -0.5668  0.0400
   54ANI     C6 1336   2.801   1.797   2.477 -0.0769 -0.3273 -0.6021
   54ANI     C7 1337   2.671   1.818   2.522  0.1376  0.2417  0.0851
   54ANI     H1 1338   2.288   1.860   2.628  0.1230 -0.2708  0.5428
   54ANI     H2 1339   2.436   1.757   2.666 -1.5804 -0.0465  2.6465
   54ANI     H3 1340   2.439   1.925   2.681 -0.2857 -0.9820  0.9589
   54ANI     H4 1341   2.509   1.841   2.217  0.4239 -2.3080 -1.1321
   54ANI     H5 1342   2.741   1.830   2.142  1.0738 -3.0396  0.0824
   54ANI     H6 1343   2.924   1.778   2.301  0.2181 -0.0910 -0.0189
   54ANI     H7 1344   2.879   1.779   2.550 -1.4658  0.4237  1.0817
   54ANI     H8 1345   2.659   1.826   2.630 -0.2791 -2.0193  0.2341
   55ANI     C1 1346   2.055   0.387   2.639  0.0536 -0.7143  0.4615
   55ANI     O1 1347   2.116   0.411   2.767  0.2827  0.2990 -0.9949
   55ANI     C2 1348   2.245   0.472   2.780  0.4899  0.1326 -0.5268
   55ANI     C3 1349   2.326   0.486   2.668  0.4700  0.4037 -0.0569
   55ANI     C4 1350   2.458   0.545   2.682  0.3330 -0.4108 -0.5333
   55ANI     C5 1351   2.505   0.573   2.818 -0.0546  0.4106 -0.3121
   55ANI     C6 1352   2.419   0.560   2.929  0.0643  0.0020  0.2755
   55ANI     C7 1353   2.296   0.504   2.908  0.4214 -0.2090 -0.0856
   55ANI     H1 1354   2.116   0.313   2.586  1.8818  0.9225  0.2279
   55ANI     H2 1355   1.958   0.339   2.653 -0.1451 -1.2389 -2.4793
   55ANI     H3 1356   2.033   0.475   2.578  1.5819 -1.2613 -0.9248
   55ANI     H4 1357   2.292   0.456   2.570  0.4617  0.6861 -0.1411
   55ANI     H5 1358   2.516   0.558   2.591  2.1936 -1.5873  0.4418
   55ANI     H6 1359   2.609   0.600   2.829 -0.0982  0.3386  0.3536
   55ANI     H7 1360   2.447   0.592   3.029  0.4201 -0.3294  0.2864
   55ANI     H8 1361   2.243   0.484   3.001  1.6227 -1.9704  0.2344
   56ANI     C1 1362   2.437   1.398   0.395 -0.0074 -0.3711 -0.0229
   56ANI     O1 1363   2.489   1.262   0.388 -0.1651  0.5484 -0.0728
   56ANI     C2 1364   2.409   1.147   0.406  0.2448  0.3196  0.5876
   56ANI     C3 1365   2.269   1.155   0.426 -0.1471  0.2410 -1.0929
   56ANI     C4 1366   2.195   1.037   0.433  0.3194 -0.1746  0.0531
   56ANI     C5 1367   2.259   0.910   0.435 -0.4305 -0.1892 -0.3987
   56ANI     C6 1368   2.397   0.898   0.415  0.2315 -0.0018 -0.2347
   56ANI     C7 1369   2.469   1.014   0.392 -0.6043  0.7827 -0.4395
   56ANI     H1 1370   2.358   1.414   0.320  0.3734  0.9358 -0.1528
   56ANI     H2 1371   2.398   1.409   0.497  0.0143  2.7221 -0.3186
   56ANI     H3 1372   2.520   1.466   0.377 -0.2930 -0.0738 -0.2309
   56ANI     H4 1373   2.223   1.253   0.436  0.8293  0.8835 -2.7423
   56ANI     H5 1374   2.088   1.044   0.449 -0.1027 -0.7128 -2.4041
   56ANI     H6 1375   2.197   0.820   0.441  0.2706 -0.5856  0.9582
   56ANI     H7 1376   2.447   0.802   0.406  1.6459  0.6439  0.4517
   56ANI     H8 1377   2.576   1.000   0.378 -0.8067  0.2922 -1.5196
   57ANI     C1 1378   1.160   1.244   0.076 -0.4028 -1.0757  0.1488
   57ANI     O1 1379   1.070   1.246  -0.039 -0.0707  0.0104 -0.1169
   57ANI     C2 1380   1.083   1.151  -0.137  0.0892 -0.4547 -0.0184
   57ANI     C3 1381   1.171   1.045  -0.132 -0.0081 -0.4924 -0.7049
   57ANI     C4 1382   1.158   0.944  -0.227 -0.1739  0.9942  0.0542
   57ANI     C5 1383   1.068   0.964  -0.333  0.6512 -1.0122  0.2281
   57ANI     C6 1384   0.984   1.081  -0.343 -0.1329  0.2533  0.2655
   57ANI     C7 1385   0.987   1.166  -0.238 -1.0096  1.3841 -0.6073
   57ANI     H1 1386   1.151   1.146   0.125  1.5019 -1.8838 -1.0481
   57ANI     H2 1387   1.261   1.271   0.043 -1.1944  1.9117  0.0522
   57ANI     H3 1388   1.132   1.326   0.142 -0.3833 -0.1425 -0.9839
   57ANI     H4 1389   1.247   1.029  -0.057  0.8801 -0.4922 -1.5818
   57ANI     H5 1390   1.216   0.853  -0.219 -0.0071  1.2379  1.7083
   57ANI     H6 1391   1.068   0.891  -0.414 -1.4529 -1.2253  0.3963
   57ANI     H7 1392   0.916   1.107  -0.424 -1.4376 -1.0097  0.9241
   57ANI     H8 1393   0.922   1.252  -0.245 -1.7288  0.8784 -0.1924
   58ANI     C1 1394   1.778   2.355   0.807  0.4171 -0.6120  0.2084
   58ANI     O1 1395   1.756   2.384   0.671 -0.1158 -0.2135 -0.1018
   58ANI     C2 1396   1.635   2.437   0.626  0.5367  0.2394 -0.2338
   58ANI     C3 1397   1.626   2.466   0.492  0.5973  0.7474 -0.6113
   58ANI     C4 1398   1.509   2.509   0.429 -0.1903  0.3625  0.1005
   58ANI     C5 1399   1.393   2.523   0.507 -0.4299 -0.4717  0.1481
   58ANI     C6 1400   1.400   2.492   0.648 -0.1174 -0.2131  0.1117
   58ANI     C7 1401   1.519   2.450   0.709  0.0545  0.3613  0.7736
   58ANI     H1 1402   1.882   2.322   0.820  0.8427 -0.4457 -2.5008
   58ANI     H2 1403   1.753   2.439   0.873 -0.2873  0.3791 -1.3226
   58ANI     H3 1404   1.703   2.281   0.840 -0.3871 -0.0959 -0.4518
   58ANI     H4 1405   1.721   2.452   0.442  1.6083  1.9338  0.9453
   58ANI     H5 1406   1.497   2.524   0.322  1.2572 -0.2583 -0.1544
   58ANI     H6 1407   1.297   2.548   0.463  0.1692 -0.5626 -1.2309
   58ANI     H7 1408   1.307   2.488   0.705  0.7969 -0.4496  1.6187
   58ANI     H8 1409   1.521   2.423   0.814  1.1639 -1.1651  0.3817
   59ANI     C1 1410   2.850   1.418   0.061 -0.0225  0.5327 -0.6523
   59ANI     O1 1411   2.791   1.536   0.105 -0.6374  0.1738  0.6598
   59ANI     C2 1412   2.779   1.574   0.236  0.4596 -0.5144  0.4074
   59ANI     C3 1413   2.821   1.490   0.340 -0.3525  0.6036 -0.3306
   59ANI     C4 1414   2.797   1.520   0.470  0.3115 -0.5198 -0.4736
   59ANI     C5 1415   2.736   1.642   0.496  0.3595  0.0543 -0.0153
   59ANI     C6 1416   2.694   1.730   0.392  0.1230  0.7928 -0.1560
   59ANI     C7 1417   2.712   1.694   0.257 -0.0726 -0.0892  0.1259
   59ANI     H1 1418   2.859   1.403  -0.048  0.7609 -0.6837 -0.4337
   59ANI     H2 1419   2.956   1.409   0.090 -0.0758 -0.3266 -0.7031
   59ANI     H3 1420   2.787   1.334   0.093  1.6350 -1.1686 -1.7371
   59ANI     H4 1421   2.878   1.398   0.333 -0.2553  0.8451 -3.3267
   59ANI     H5 1422   2.830   1.456   0.552  1.7946 -0.5252 -1.0500
   59ANI     H6 1423   2.718   1.671   0.599  0.8130  1.1513 -0.2375
   59ANI     H7 1424   2.639   1.820   0.416 -0.3718  0.6206 -0.6436
   59ANI     H8 1425   2.670   1.754   0.177  0.2629 -0.4427 -0.3165
   60ANI     C1 1426   0.232   1.270   0.545 -0.5504 -0.1753  0.4486
   60ANI     O1 1427   0.218   1.298   0.401  0.1627 -0.2392 -0.0947
   60ANI     C2 1428   0.185   1.423   0.350  0.2388  0.0993  0.2566
   60ANI     C3 1429   0.135   1.439   0.219  0.4246  0.9165  0.3046
   60ANI     C4 1430   0.106   1.567   0.168  0.0301 -0.3715 -0.7405
   60ANI     C5 1431   0.124   1.683   0.245 -0.1076 -0.2572 -0.1557
   60ANI     C6 1432   0.174   1.672   0.367 -0.5329 -0.9019 -0.0365
   60ANI     C7 1433   0.206   1.546   0.424  0.0900 -0.3732  0.3241
   60ANI     H1 1434   0.153   1.321   0.602 -0.0953 -2.8310  3.6080
   60ANI     H2 1435   0.213   1.163   0.561 -1.2798 -0.8605 -4.2329
   60ANI     H3 1436   0.337   1.294   0.565  0.0374 -0.1977 -2.3990
   60ANI     H4 1437   0.113   1.354   0.156 -0.1750  1.2623  0.0430
   60ANI     H5 1438   0.077   1.587   0.065 -1.6077  0.2641 -0.1710
   60ANI     H6 1439   0.116   1.779   0.195 -2.0179 -0.4926 -0.3502
   60ANI     H7 1440   0.203   1.762   0.422  1.7262 -1.9281  0.5072
   60ANI     H8 1441   0.257   1.552   0.520 -1.4808  0.3958  1.1258
   61ANI     C1 1442   0.707   0.098   0.649  0.0786  0.0342 -0.1461
   61ANI     O1 1443   0.741   0.177   0.538 -0.1289 -0.3903 -0.2576
   61ANI     C2 1444   0.674   0.167   0.416 -0.2825  0.8982 -0.4036
   61ANI     C3 1445   0.586   0.057   0.385  0.3737  0.2645  0.2381
   61ANI     C4 1446   0.525   0.048   0.254 -0.1104  0.4735 -0.3684
   61ANI     C5 1447   0.547   0.150   0.160 -0.3261 -0.1189 -0.4743
   61ANI     C6 1448   0.628   0.267   0.201  0.0564  0.3327 -0.8537
   61ANI     C7 1449   0.698   0.267   0.322  0.0579  0.8652 -0.1683
   61ANI     H1 1450   0.608   0.114   0.692  0.3507 -1.6916  1.2137
   61ANI     H2 1451   0.707  -0.009   0.624  0.8045  0.0163 -0.0765
   61ANI     H3 1452   0.790   0.092   0.720  0.2814  0.0483 -0.3782
   61ANI     H4 1453   0.575  -0.018   0.462 -0.4893  0.8042  0.6497
   61ANI     H5 1454   0.465  -0.040   0.233  0.3701 -0.0931  0.6152
   61ANI     H6 1455   0.511   0.152   0.057 -1.2487  0.2813 -0.1472
   61ANI     H7 1456   0.641   0.348   0.131 -0.9750  0.5055 -0.8481
   61ANI     H8 1457   0.774   0.342   0.342 -1.1141  1.2096  3.3124
   62ANI     C1 1458   3.286   2.045   1.113  0.1052  0.8840  0.3431
   62ANI     O1 1459   3.328   2.166   1.182  0.2264  0.9446  0.3472
   62ANI     C2 1460   3.393   2.265   1.112 -0.2535  0.3218  0.4070
   62ANI     C3 1461   3.398   2.269   0.969 -0.1646  0.1136 -0.8217
   62ANI     C4 1462   3.461   2.377   0.907  0.6213  0.1919 -0.0888
   62ANI     C5 1463   3.521   2.477   0.979 -0.2937 -0.3315 -0.3877
   62ANI     C6 1464   3.520   2.470   1.123 -0.4298  0.0968  0.5749
   62ANI     C7 1465   3.456   2.359   1.187 -0.0781 -0.2067 -0.5095
   62ANI     H1 1466   3.201   2.063   1.047 -1.4479 -1.9763  1.4669
   62ANI     H2 1467   3.367   2.007   1.049 -1.5040  0.7554 -1.6771
   62ANI     H3 1468   3.249   1.978   1.191 -2.3869 -2.2593 -3.3685
   62ANI     H4 1469   3.339   2.196   0.914 -0.2392 -0.2395 -0.2787
   62ANI     H5 1470   3.434   2.396   0.804 -1.4991  1.1085  0.6147
   62ANI     H6 1471   3.550   2.569   0.929  0.1180 -0.0489  0.3546
   62ANI     H7 1472   3.562   2.549   1.184 -0.3344 -0.2071  0.9079
   62ANI     H8 1473   3.449   2.363   1.295  0.4282  1.9397 -0.5207
   63ANI     C1 1474   1.205   1.672   3.584  0.4026  0.2669 -0.2967
   63ANI     O1 1475   1.283   1.557   3.565 -0.7023 -0.4347 -0.1511
   63ANI     C2 1476   1.398   1.532   3.629  0.2776  0.2110  0.3394
   63ANI     C3 1477   1.453   1.611   3.733  0.4364 -0.5666  0.1302
   63ANI     C4 1478   1.575   1.577   3.789  0.0987  0.0038 -0.7705
   63ANI     C5 1479   1.640   1.464   3.744 -0.5021 -0.6251  0.4421
   63ANI     C6 1480   1.582   1.372   3.656  0.6362  1.0370 -0.1684
   63ANI     C7 1481   1.462   1.407   3.590  0.1191 -0.1548  0.0931
   63ANI     H1 1482   1.253   1.770   3.576  0.3017  0.5804  2.4670
   63ANI     H2 1483   1.116   1.668   3.520 -1.0541  2.9297  1.5070
   63ANI     H3 1484   1.166   1.673   3.686 -0.3572  1.5366 -0.5922
   63ANI     H4 1485   1.393   1.690   3.777 -1.4477 -1.1329 -1.3543
   63ANI     H5 1486   1.627   1.632   3.866 -0.6155  1.1420 -1.0911
   63ANI     H6 1487   1.738   1.441   3.787  0.5543  3.1037  0.2045
   63ANI     H7 1488   1.633   1.278   3.637  1.0626  0.9383  1.4010
   63ANI     H8 1489   1.424   1.341   3.513 -0.4782 -0.5334  0.7104
   64ANI     C1 1490   3.383   0.783   1.065  0.2892 -0.6501  0.2991
   64ANI     O1 1491   3.490   0.801   1.167  0.5154 -0.1671  0.4471
   64ANI     C2 1492   3.604   0.723   1.160 -0.1320 -0.1304  0.0051
   64ANI     C3 1493   3.616   0.614   1.068  0.4146 -0.1343  0.2031
   64ANI     C4 1494   3.735   0.544   1.064  1.2304 -0.2565  0.4171
   64ANI     C5 1495   3.843   0.582   1.147  0.3343  0.0635  0.1799
   64ANI     C6 1496   3.834   0.692   1.233  0.0165  0.5435 -0.0855
   64ANI     C7 1497   3.712   0.755   1.252 -0.1461 -0.4851  0.1681
   64ANI     H1 1498   3.340   0.683   1.077 -1.3469 -0.2123 -1.5228
   64ANI     H2 1499   3.303   0.855   1.088  0.5467 -0.6338  1.1534
   64ANI     H3 1500   3.431   0.798   0.967  2.0014  1.2249  1.3637
   64ANI     H4 1501   3.536   0.575   1.007  0.0040  0.3882  0.4039
   64ANI     H5 1502   3.753   0.470   0.987  3.1953 -0.5297  1.1218
   64ANI     H6 1503   3.941   0.536   1.134  0.5812  0.5634  0.2822
   64ANI     H7 1504   3.918   0.723   1.295  0.0976 -2.4887  1.4073
   64ANI     H8 1505   3.701   0.830   1.330 -1.3362 -0.8419  0.3502
   65ANI     C1 1506   2.571   3.255   1.075 -0.1029  0.6462 -0.5725
   65ANI     O1 1507   2.519   3.128   1.076 -0.2251  0.1146  0.2128
   65ANI     C2 1508   2.389   3.101   1.121 -0.4110 -0.2531  0.5695
   65ANI     C3 1509   2.332   2.977   1.078 -0.3593  0.7503 -0.9769
   65ANI     C4 1510   2.208   2.936   1.127  0.5636 -0.4855  1.1613
   65ANI     C5 1511   2.142   3.032   1.209  0.0879  0.1772  0.0770
   65ANI     C6 1512   2.197   3.157   1.256 -0.2432  0.7525 -0.2289
   65ANI     C7 1513   2.322   3.190   1.207  0.4508  0.1139 -0.8623
   65ANI     H1 1514   2.502   3.318   1.016 -0.2263  0.6551 -0.4163
   65ANI     H2 1515   2.584   3.297   1.175 -2.0335  2.9134 -1.2265
   65ANI     H3 1516   2.671   3.250   1.030  0.4622  0.1376  0.7313
   65ANI     H4 1517   2.379   2.917   1.000  0.1993 -0.4546  0.2693
   65ANI     H5 1518   2.169   2.838   1.101 -1.3323  0.5015  0.1881
   65ANI     H6 1519   2.043   3.012   1.249  0.4051  0.6810  1.1230
   65ANI     H7 1520   2.135   3.223   1.315 -3.3379 -1.3577 -0.9630
   65ANI     H8 1521   2.368   3.287   1.227 -0.8233  0.9436 -1.8588
   66ANI     C1 1522   0.583   2.139   2.496  0.0126 -0.2690 -0.5282
   66ANI     O1 1523   0.561   2.270   2.556  0.3398 -0.4336  0.1093
   66ANI     C2 1524   0.535   2.378   2.484  0.1237  0.7329  0.1353
   66ANI     C3 1525   0.481   2.487   2.548 -0.6315 -0.2314 -0.9067
   66ANI     C4 1526   0.446   2.602   2.476 -0.1612  0.2393 -0.4493
   66ANI     C5 1527   0.462   2.594   2.331 -0.0324  0.6137  0.7525
   66ANI     C6 1528   0.522   2.490   2.264 -0.2752 -0.4888  0.1603
   66ANI     C7 1529   0.558   2.381   2.343 -0.5693  0.0037 -0.6984
   66ANI     H1 1530   0.671   2.133   2.431  0.6186 -2.4175  0.4250
   66ANI     H2 1531   0.611   2.056   2.562  0.8354  1.6901  1.6472
   66ANI     H3 1532   0.491   2.109   2.444 -1.6353  0.8953  1.5940
   66ANI     H4 1533   0.461   2.488   2.654  2.7429  2.7100 -0.1857
   66ANI     H5 1534   0.399   2.684   2.530 -0.6087 -0.7816  0.7513
   66ANI     H6 1535   0.432   2.678   2.268  0.4791  0.9033  0.8825
   66ANI     H7 1536   0.535   2.500   2.157 -0.2295  0.2072  0.2290
   66ANI     H8 1537   0.626   2.308   2.302 -0.9206 -1.7964  1.8315
   67ANI     C1 1538   1.416   2.333   1.512  0.0688 -0.2687 -0.0052
   67ANI     O1 1539   1.277   2.309   1.466  0.5230 -0.3302 -0.1788
   67ANI     C2 1540   1.219   2.383   1.369  0.6532 -0.1697  0.6733
   67ANI     C3 1541   1.078   2.348   1.333 -0.2197 -0.0752 -0.8047
   67ANI     C4 1542   1.010   2.410   1.235 -0.2250  0.0296 -0.7619
   67ANI     C5 1543   1.061   2.528   1.175 -0.4712 -0.0893  0.7475
   67ANI     C6 1544   1.193   2.554   1.200  0.9554 -0.0971 -0.2362
   67ANI     C7 1545   1.266   2.492   1.299  0.8590  0.2652 -0.5371
   67ANI     H1 1546   1.491   2.318   1.433  0.6377 -1.0335  0.6702
   67ANI     H2 1547   1.433   2.434   1.549 -0.1446 -0.5414  0.8517
   67ANI     H3 1548   1.432   2.250   1.582  0.8347 -2.2321 -2.4328
   67ANI     H4 1549   1.032   2.259   1.375  0.0417 -0.9123 -2.2572
   67ANI     H5 1550   0.907   2.385   1.210 -0.8638  0.6499  1.1878
   67ANI     H6 1551   1.005   2.589   1.104  2.8442  1.8061 -0.3503
   67ANI     H7 1552   1.221   2.645   1.148  1.4676  0.3557  0.8018
   67ANI     H8 1553   1.366   2.531   1.315  0.3047  1.2537  0.6187
   68ANI     C1 1554   0.239   2.253   2.273 -0.2630  0.2539 -0.3764
   68ANI     O1 1555   0.195   2.115   2.284  0.3562 -0.5976  0.5941
   68ANI     C2 1556   0.287   2.005   2.279  0.3284 -0.7932 -0.0337
   68ANI     C3 1557   0.427   2.007   2.244  0.1027 -0.0162  0.0868
   68ANI     C4 1558   0.503   1.888   2.250 -0.9467 -0.6125 -0.2676
   68ANI     C5 1559   0.444   1.770   2.288  0.0721  0.2715  0.5343
   68ANI     C6 1560   0.307   1.763   2.319 -0.1538  0.1500 -0.4187
   68ANI     C7 1561   0.230   1.882   2.307 -0.3004  0.0793  0.8202
   68ANI     H1 1562   0.317   2.260   2.197 -0.3881  1.1834 -0.4300
   68ANI     H2 1563   0.157   2.317   2.237 -1.7273 -1.2955  0.1598
   68ANI     H3 1564   0.290   2.280   2.367  0.9577  0.3147 -1.0530
   68ANI     H4 1565   0.474   2.099   2.211  1.4526  0.2095  2.5700
   68ANI     H5 1566   0.605   1.887   2.211 -1.7537  0.7559 -2.5161
   68ANI     H6 1567   0.504   1.680   2.299  1.4026  1.1458  0.5853
   68ANI     H7 1568   0.255   1.673   2.350  0.7880  0.0977  1.0538
   68ANI     H8 1569   0.128   1.858   2.336 -0.8355 -0.6081 -1.5204
   69ANI     C1 1570   3.174   1.111   2.249  0.1854  0.0317  0.0871
   69ANI     O1 1571   3.274   1.212   2.240  0.3694  0.0283  0.3454
   69ANI     C2 1572   3.250   1.350   2.256 -0.5093 -0.0353  0.3511
   69ANI     C3 1573   3.353   1.444   2.228 -0.4557 -0.0773 -0.0326
   69ANI     C4 1574   3.336   1.582   2.252 -0.0199 -0.2416  0.0607
   69ANI     C5 1575   3.215   1.626   2.309 -0.1844 -0.1240 -0.4011
   69ANI     C6 1576   3.109   1.537   2.344  0.0137  0.4930  0.9122
   69ANI     C7 1577   3.122   1.397   2.312  0.3116 -0.0376  0.0353
   69ANI     H1 1578   3.090   1.126   2.179  2.2030  0.6231 -2.2931
   69ANI     H2 1579   3.218   1.015   2.221  1.5674  0.2569  1.4609
   69ANI     H3 1580   3.131   1.116   2.350 -1.3116  0.8203 -0.5652
   69ANI     H4 1581   3.450   1.416   2.189  0.1465  2.0871 -0.1484
   69ANI     H5 1582   3.404   1.664   2.232 -0.1509 -0.1926 -0.1851
   69ANI     H6 1583   3.200   1.732   2.329  2.1283  0.3793 -1.1348
   69ANI     H7 1584   3.012   1.577   2.371 -1.3072 -1.0876 -1.2998
   69ANI     H8 1585   3.036   1.332   2.323 -0.7562  1.1553 -1.1362
   70ANI     C1 1586   0.583   0.055   2.873 -0.0325 -0.3315  0.5166
   70ANI     O1 1587   0.618  -0.003   3.000  0.0816 -0.2437  0.4173
   70ANI     C2 1588   0.533  -0.088   3.053  0.1444  0.2166 -0.5770
   70ANI     C3 1589   0.472  -0.199   2.982 -0.0642  1.0681 -0.1407
   70ANI     C4 1590   0.376  -0.284   3.045 -0.2694 -0.0814 -0.2496
   70ANI     C5 1591   0.337  -0.256   3.176  0.1851  0.3554 -0.0107
   70ANI     C6 1592   0.403  -0.152   3.247  1.0705 -0.5044  1.2089
   70ANI     C7 1593   0.499  -0.070   3.187 -0.0030 -0.6681 -0.8892
   70ANI     H1 1594   0.495   0.119   2.877  0.6103  0.7890 -2.2034
   70ANI     H2 1595   0.665   0.101   2.816 -0.3289 -0.3085  0.1085
   70ANI     H3 1596   0.542  -0.023   2.807  0.4619  0.2627 -0.5032
   70ANI     H4 1597   0.508  -0.207   2.880 -0.9095  0.1819 -0.3751
   70ANI     H5 1598   0.320  -0.364   2.997 -0.1776  0.9005 -2.0379
   70ANI     H6 1599   0.264  -0.320   3.225  1.6378 -2.2192 -1.0737
   70ANI     H7 1600   0.376  -0.134   3.350 -0.1948 -1.3109  1.0358
   70ANI     H8 1601   0.552   0.010   3.239 -0.1094  0.3203 -2.2562
   71ANI     C1 1602   2.577   3.305   2.522  0.2209  0.2301 -0.2796
   71ANI     O1 1603   2.665   3.337   2.415 -0.0266  0.3712 -0.1825
   71ANI     C2 1604   2.796   3.304   2.420 -0.8838  0.6341  0.3636
   71ANI     C3 1605   2.861   3.239   2.527  0.2380 -0.0108 -0.2957
   71ANI     C4 1606   2.998   3.204   2.523 -0.2509  0.2093  0.6451
   71ANI     C5 1607   3.078   3.256   2.419 -0.0740 -0.5791  0.1282
   71ANI     C6 1608   3.016   3.330   2.313  0.2102 -0.4909 -0.2275
   71ANI     C7 1609   2.878   3.351   2.316  0.1601  0.4343 -0.2376
   71ANI     H1 1610   2.553   3.198   2.529 -1.6977  0.8588  3.9981
   71ANI     H2 1611   2.623   3.327   2.619  2.7709 -2.1001 -0.8923
   71ANI     H3 1612   2.485   3.360   2.498 -0.3219 -0.9970 -1.0670
   71ANI     H4 1613   2.805   3.211   2.616 -0.8766 -1.7522 -1.4970
   71ANI     H5 1614   3.037   3.138   2.600  1.7332  0.6024  0.0029
   71ANI     H6 1615   3.182   3.227   2.417  0.7618  2.1399 -3.9782
   71ANI     H7 1616   3.070   3.358   2.223 -2.0636  0.3594 -1.3699
   71ANI     H8 1617   2.828   3.406   2.238 -0.6074 -2.4964 -1.8874
   72ANI     C1 1618   1.924   0.571   3.120  0.1700  0.1852  0.3155
   72ANI     O1 1619   1.944   0.456   3.213 -0.0061 -0.1552 -0.4337
   72ANI     C2 1620   1.920   0.454   3.349  0.9030  0.5380 -0.2288
   72ANI     C3 1621   1.918   0.334   3.419  0.0425  0.8388 -0.1998
   72ANI     C4 1622   1.871   0.331   3.550  0.0372  0.0790 -0.3283
   72ANI     C5 1623   1.836   0.453   3.614 -0.6960 -0.3729  0.0947
   72ANI     C6 1624   1.839   0.574   3.544  0.1701 -0.5290  0.0198
   72ANI     C7 1625   1.885   0.572   3.415  0.0729  0.1560  0.7328
   72ANI     H1 1626   1.825   0.618   3.122  0.4115  0.7759 -1.2282
   72ANI     H2 1627   1.996   0.652   3.130  0.5582 -0.2832  1.3857
   72ANI     H3 1628   1.940   0.540   3.016 -3.1787 -2.1886  0.4040
   72ANI     H4 1629   1.956   0.245   3.371 -2.2196 -0.7917  0.9722
   72ANI     H5 1630   1.879   0.246   3.617  0.8999 -0.3357 -0.9515
   72ANI     H6 1631   1.814   0.451   3.721 -0.1049  0.6356  0.2382
   72ANI     H7 1632   1.816   0.673   3.582 -0.9273 -0.2647 -1.3086
   72ANI     H8 1633   1.891   0.668   3.364  0.5889  0.2707  0.9995
   73ANI     C1 1634   0.672   0.560   1.560 -0.0736  0.6339  0.0176
   73ANI     O1 1635   0.804   0.623   1.557 -0.6567  0.7878  0.3792
   73ANI     C2 1636   0.822   0.758   1.578 -0.4144 -0.4061  0.4425
   73ANI     C3 1637   0.714   0.852   1.584 -0.3530  0.2218 -0.1535
   73ANI     C4 1638   0.741   0.986   1.584  0.2726 -0.7993  0.0235
   73ANI     C5 1639   0.870   1.035   1.583 -0.2091  0.3351  0.0549
   73ANI     C6 1640   0.981   0.943   1.595  0.2839  0.0889 -0.1627
   73ANI     C7 1641   0.954   0.806   1.597  0.1794 -1.1481  0.2101
   73ANI     H1 1642   0.621   0.586   1.653  1.6592 -0.3566  1.2681
   73ANI     H2 1643   0.623   0.596   1.468  2.4417  1.8026 -0.9246
   73ANI     H3 1644   0.696   0.454   1.553  1.1036  0.8679  0.3669
   73ANI     H4 1645   0.612   0.813   1.583 -0.1494 -0.3103 -1.4856
   73ANI     H5 1646   0.665   1.062   1.576  1.4594  0.4223  0.1787
   73ANI     H6 1647   0.891   1.137   1.552  0.3308  0.2436  0.1173
   73ANI     H7 1648   1.083   0.982   1.587 -0.1237  1.1991 -0.0754
   73ANI     H8 1649   1.039   0.739   1.599 -0.7495 -2.3267  0.7469
   74ANI     C1 1650   0.640   0.919   0.476 -0.0369  0.2356 -0.9648
   74ANI     O1 1651   0.667   0.918   0.332  0.6142  0.1176 -1.0131
   74ANI     C2 1652   0.792   0.905   0.275  0.3116  0.1191  0.0713
   74ANI     C3 1653   0.909   0.914   0.359 -0.4234 -0.9652  0.4699
   74ANI     C4 1654   1.033   0.906   0.289  0.6858 -0.1326  0.4032
   74ANI     C5 1655   1.031   0.888   0.148  0.2350  0.0311 -0.1540
   74ANI     C6 1656   0.916   0.872   0.069  0.1972  0.3448 -0.0697
   74ANI     C7 1657   0.795   0.886   0.138 -0.3518  0.0560 -0.4354
   74ANI     H1 1658   0.658   0.824   0.529 -0.6443  1.3629  1.2678
   74ANI     H2 1659   0.694   1.001   0.524  0.4362 -1.4409  1.4530
   74ANI     H3 1660   0.534   0.942   0.487  0.4657  2.3959 -0.5588
   74ANI     H4 1661   0.904   0.930   0.467 -1.4226  2.6088 -0.0604
   74ANI     H5 1662   1.122   0.943   0.340  0.0907  1.3266  0.4054
   74ANI     H6 1663   1.123   0.879   0.091  0.4501 -1.1565  0.3582
   74ANI     H7 1664   0.929   0.858  -0.038  1.8016  1.6593 -0.0682
   74ANI     H8 1665   0.706   0.891   0.077  0.2051  2.0681 -1.1213
   75ANI     C1 1666   0.350   2.675   2.872  0.2249  0.0866 -0.5617
   75ANI     O1 1667   0.313   2.770   2.766 -0.6184 -0.0974 -0.4619
   75ANI     C2 1668   0.189   2.786   2.707  0.1914 -0.9228 -0.1698
   75ANI     C3 1669   0.175   2.891   2.616  0.4808 -1.1492 -0.5472
   75ANI     C4 1670   0.046   2.912   2.558  0.1225 -0.5753  0.7936
   75ANI     C5 1671  -0.055   2.827   2.588 -0.4778 -0.1905 -0.2396
   75ANI     C6 1672  -0.042   2.717   2.677 -0.4464 -0.1115  0.1239
   75ANI     C7 1673   0.085   2.698   2.730 -0.1915  0.6284 -0.3145
   75ANI     H1 1674   0.456   2.693   2.897 -0.1941  2.2077 -0.2193
   75ANI     H2 1675   0.307   2.685   2.973  0.1299 -0.8904 -0.5054
   75ANI     H3 1676   0.333   2.572   2.839 -0.2703 -0.2799  0.7952
   75ANI     H4 1677   0.260   2.945   2.576  1.0445 -1.6952 -0.0906
   75ANI     H5 1678   0.036   2.994   2.487 -2.9547 -1.6754 -0.1342
   75ANI     H6 1679  -0.144   2.834   2.526  0.2044 -0.1941 -1.2365
   75ANI     H7 1680  -0.124   2.648   2.697 -0.1821  0.2551  2.7613
   75ANI     H8 1681   0.095   2.618   2.802 -1.5873  2.1188  1.5903
   76ANI     C1 1682   1.608   2.109   2.819  0.7883  0.1398 -0.1837
   76ANI     O1 1683   1.678   2.146   2.940 -0.0825  0.0260 -0.5563
   76ANI     C2 1684   1.813   2.119   2.963  0.1025 -0.0101 -0.2116
   76ANI     C3 1685   1.877   2.170   3.079  0.0352 -0.4986  0.2762
   76ANI     C4 1686   2.018   2.141   3.101  1.0160 -0.4431  0.1787
   76ANI     C5 1687   2.090   2.057   3.012  0.1493  0.0306  0.4888
   76ANI     C6 1688   2.021   2.012   2.895  0.4224 -0.3459 -0.8905
   76ANI     C7 1689   1.885   2.041   2.870 -0.5719  0.5405  0.3236
   76ANI     H1 1690   1.615   2.000   2.803  1.2263  0.1274  0.0662
   76ANI     H2 1691   1.507   2.150   2.830  1.2697  0.3795  4.4037
   76ANI     H3 1692   1.640   2.167   2.732  0.5002  1.6550  0.7184
   76ANI     H4 1693   1.820   2.224   3.154  1.0401 -0.2900  0.8965
   76ANI     H5 1694   2.066   2.180   3.190  0.6838  0.2962  0.0408
   76ANI     H6 1695   2.195   2.030   3.022  0.7400  2.1035  0.0957
   76ANI     H7 1696   2.076   1.956   2.821 -0.2562 -1.6942 -0.3821
   76ANI     H8 1697   1.838   1.997   2.783  0.3855 -2.6188  1.3013
   77ANI     C1 1698   2.083   0.309   0.929  0.1591  0.3039  0.1703
   77ANI     O1 1699   2.106   0.217   1.043  0.0423  1.1734 -0.1778
   77ANI     C2 1700   2.232   0.188   1.092 -0.3794 -0.0015 -0.2294
   77ANI     C3 1701   2.349   0.219   1.015  0.1011 -0.2347 -0.1282
   77ANI     C4 1702   2.474   0.192   1.064 -0.0255  0.0720  0.2613
   77ANI     C5 1703   2.489   0.141   1.190 -0.4790  0.2334  0.2543
   77ANI     C6 1704   2.374   0.114   1.271 -1.0047  0.5054 -0.0175
   77ANI     C7 1705   2.247   0.135   1.223  0.4855  0.0045 -0.5257
   77ANI     H1 1706   2.120   0.411   0.942  0.4942  0.1254  0.6296
   77ANI     H2 1707   2.124   0.262   0.839  1.6843  1.7042  0.1217
   77ANI     H3 1708   1.976   0.310   0.904 -0.0468  2.8533  1.0734
   77ANI     H4 1709   2.338   0.259   0.915 -1.8881 -0.9306 -0.2001
   77ANI     H5 1710   2.563   0.209   1.004 -0.6653  0.4285 -0.5899
   77ANI     H6 1711   2.588   0.114   1.225 -0.4486 -1.4925 -1.0631
   77ANI     H7 1712   2.383   0.070   1.370  2.1182 -2.5862 -1.5669
   77ANI     H8 1713   2.166   0.107   1.289  2.9674 -1.9781  1.8349
   78ANI     C1 1714   3.305   3.028   1.043 -0.3047 -0.8364 -0.2532
   78ANI     O1 1715   3.433   3.025   0.969 -0.8930  0.4710  0.0810
   78ANI     C2 1716   3.459   3.074   0.842 -0.0895 -0.0123  0.7827
   78ANI     C3 1717   3.357   3.091   0.746  0.2395  0.0072 -0.6302
   78ANI     C4 1718   3.388   3.128   0.613 -0.0386 -0.7238  0.2422
   78ANI     C5 1719   3.516   3.153   0.572 -0.0058  0.3166 -0.3368
   78ANI     C6 1720   3.614   3.146   0.669  0.2878 -0.4368  0.0609
   78ANI     C7 1721   3.591   3.094   0.797 -0.0813  0.1010 -0.8213
   78ANI     H1 1722   3.244   3.119   1.041  1.8298  0.5919 -2.1104
   78ANI     H2 1723   3.252   2.939   1.007  0.2291 -0.3572 -2.2953
   78ANI     H3 1724   3.335   3.020   1.149  1.4969  0.8505 -0.6156
   78ANI     H4 1725   3.256   3.067   0.777  0.3104  0.3182 -0.1618
   78ANI     H5 1726   3.312   3.124   0.535  0.0405  3.0882 -0.1290
   78ANI     H6 1727   3.532   3.147   0.465 -1.3824 -1.4615 -0.4659
   78ANI     H7 1728   3.718   3.161   0.642  0.2573  0.8888  0.6467
   78ANI     H8 1729   3.668   3.061   0.866 -1.9567  1.9151  2.2372
   79ANI     C1 1730   1.894   1.170   1.026 -0.5242  0.6999  0.5185
   79ANI     O1 1731   1.809   1.125   0.918 -0.5254  0.5317  0.2430
   79ANI     C2 1732   1.810   1.193   0.797  0.0174  0.0665  0.3051
   79ANI     C3 1733   1.925   1.246   0.745  0.8802 -0.3471 -0.1192
   79ANI     C4 1734   1.927   1.316   0.625 -0.5834  0.3834 -0.0573
   79ANI     C5 1735   1.807   1.333   0.551  0.2112 -0.0747 -0.4881
   79ANI     C6 1736   1.691   1.269   0.591  0.1563  0.0944 -0.4751
   79ANI     C7 1737   1.686   1.216   0.725 -0.6718 -0.8728  0.2033
   79ANI     H1 1738   1.883   1.279   1.036 -0.2917  0.8515 -0.8510
   79ANI     H2 1739   1.862   1.126   1.122 -2.1574  0.5088 -0.0960
   79ANI     H3 1740   1.999   1.151   1.001 -1.2248 -0.1405 -1.8805
   79ANI     H4 1741   2.018   1.238   0.800  0.4065  0.8024  0.8827
   79ANI     H5 1742   2.018   1.368   0.597  0.2648 -0.5355  0.9314
   79ANI     H6 1743   1.807   1.382   0.454 -1.2473 -0.7320 -0.8391
   79ANI     H7 1744   1.594   1.274   0.541  0.8603 -0.0035 -1.8847
   79ANI     H8 1745   1.591   1.182   0.765  0.2441 -2.4935  1.0561
   80ANI     C1 1746   1.245   1.143   2.612  0.1318  0.8478  0.4978
   80ANI     O1 1747   1.278   1.051   2.715 -0.2504 -0.3670 -0.7214
   80ANI     C2 1748   1.246   0.921   2.708 -0.0346 -0.1321  0.1753
   80ANI     C3 1749   1.266   0.834   2.821  0.1270 -0.1391  0.5376
   80ANI     C4 1750   1.233   0.700   2.812 -0.3000 -0.1833 -0.3509
   80ANI     C5 1751   1.159   0.656   2.701 -0.2498 -0.3569 -0.1627
   80ANI     C6 1752   1.172   0.728   2.580 -0.4789  0.1321  0.7986
   80ANI     C7 1753   1.213   0.861   2.584 -0.4965 -0.5746 -0.3674
   80ANI     H1 1754   1.305   1.118   2.524  0.5081 -0.1497  1.0207
   80ANI     H2 1755   1.139   1.131   2.587  0.3615 -0.1366 -0.0592
   80ANI     H3 1756   1.270   1.245   2.645  1.7753  0.5211  0.3319
   80ANI     H4 1757   1.301   0.871   2.917  2.5830 -1.7738  0.3121
   80ANI     H5 1758   1.264   0.628   2.887  2.8830  1.7976  0.3283
   80ANI     H6 1759   1.119   0.555   2.690 -0.5725 -0.2461 -0.0065
   80ANI     H7 1760   1.138   0.673   2.493 -0.4169 -0.5848  1.2192
   80ANI     H8 1761   1.220   0.914   2.489 -0.5204 -2.7414 -1.6040
   81ANI     C1 1762   3.218   3.017   1.540  0.1841 -0.3390 -0.0747
   81ANI     O1 1763   3.149   3.001   1.416  0.0622 -0.3687 -0.0640
   81ANI     C2 1764   3.039   2.917   1.421 -0.7531  0.1206 -0.0374
   81ANI     C3 1765   2.989   2.858   1.299  0.5568  0.1106 -0.1617
   81ANI     C4 1766   2.890   2.759   1.296 -0.4392 -0.2960  0.6318
   81ANI     C5 1767   2.823   2.734   1.414 -0.0083 -0.8427  0.2379
   81ANI     C6 1768   2.858   2.801   1.533  0.3045 -0.1450  0.1064
   81ANI     C7 1769   2.967   2.888   1.535  0.1699  0.2418 -0.2531
   81ANI     H1 1770   3.238   2.918   1.584 -0.7431  0.3953  2.0147
   81ANI     H2 1771   3.313   3.067   1.517  0.4424 -1.2222 -0.9800
   81ANI     H3 1772   3.167   3.077   1.616  1.4146  0.9123 -0.2294
   81ANI     H4 1773   3.050   2.873   1.210  3.7230 -2.8004  1.3974
   81ANI     H5 1774   2.853   2.716   1.204 -0.8377  1.0202  0.1672
   81ANI     H6 1775   2.738   2.665   1.418  0.4086 -1.3406  0.5334
   81ANI     H7 1776   2.799   2.795   1.624 -0.2845 -0.1579 -0.2666
   81ANI     H8 1777   2.994   2.936   1.629 -0.2119 -0.6877  0.3391
   82ANI     C1 1778   2.106   2.332   3.758  0.0280 -0.7500  0.1024
   82ANI     O1 1779   1.980   2.397   3.723  0.6901 -0.1307 -0.4682
   82ANI     C2 1780   1.918   2.478   3.818 -0.3297 -0.8165 -0.5963
   82ANI     C3 1781   1.940   2.475   3.956  0.1403  0.1656  0.0964
   82ANI     C4 1782   1.891   2.582   4.035  0.1926 -0.5944 -0.7841
   82ANI     C5 1783   1.804   2.682   3.978 -0.0107 -0.1522  0.3219
   82ANI     C6 1784   1.778   2.683   3.837 -0.0604 -0.3188 -0.8549
   82ANI     C7 1785   1.829   2.580   3.758  0.4196  0.0434  1.0473
   82ANI     H1 1786   2.080   2.258   3.835  0.7677  0.3324  1.4329
   82ANI     H2 1787   2.148   2.279   3.672 -0.2898 -0.2909 -0.3420
   82ANI     H3 1788   2.174   2.408   3.799 -1.3178  1.4660 -1.6236
   82ANI     H4 1789   2.002   2.398   4.001 -0.8100  0.3553  1.7757
   82ANI     H5 1790   1.900   2.577   4.143 -2.2070 -1.6006 -0.6012
   82ANI     H6 1791   1.754   2.751   4.045  1.0046 -0.3503  1.3054
   82ANI     H7 1792   1.702   2.752   3.800 -1.1313 -1.4568 -0.8076
   82ANI     H8 1793   1.801   2.576   3.653 -1.4218 -1.5754  1.5638
   83ANI     C1 1794   1.926   1.716   1.516  0.5955  0.3329 -0.5476
   83ANI     O1 1795   1.967   1.751   1.378  0.4411 -0.4496 -0.0358
   83ANI     C2 1796   2.091   1.761   1.341  0.0420  0.3570 -0.4372
   83ANI     C3 1797   2.121   1.843   1.237  0.7001 -0.2613 -0.7040
   83ANI     C4 1798   2.250   1.866   1.186  0.1010 -0.3075  0.1312
   83ANI     C5 1799   2.355   1.797   1.251  0.1867 -0.0569  0.6097
   83ANI     C6 1800   2.329   1.702   1.356 -0.4892 -0.8598 -0.0796
   83ANI     C7 1801   2.194   1.689   1.397 -0.2010 -0.0620 -0.5675
   83ANI     H1 1802   1.832   1.770   1.527  0.4475  0.3570 -1.8209
   83ANI     H2 1803   1.905   1.609   1.525  3.4205 -0.1666  0.8149
   83ANI     H3 1804   2.002   1.752   1.586  1.5225 -2.4116 -0.0734
   83ANI     H4 1805   2.053   1.911   1.186 -0.9051 -0.8825  0.5717
   83ANI     H5 1806   2.271   1.939   1.109  2.8119 -2.5507 -1.3313
   83ANI     H6 1807   2.457   1.824   1.226  1.0215 -2.2844  1.4657
   83ANI     H7 1808   2.414   1.646   1.395  1.3731  0.5214 -2.0587
   83ANI     H8 1809   2.172   1.613   1.472  1.0944  0.4581  0.3443
   84ANI     C1 1810   0.926   2.664   3.333  0.0151  0.2127 -0.2754
   84ANI     O1 1811   0.977   2.743   3.436 -0.1108  0.3326  0.5822
   84ANI     C2 1812   0.993   2.696   3.562  0.0065 -0.1994  0.3645
   84ANI     C3 1813   0.960   2.567   3.612  0.4931  0.0091 -0.0948
   84ANI     C4 1814   0.983   2.529   3.748  0.3451 -1.0639 -0.0533
   84ANI     C5 1815   1.026   2.627   3.843 -0.3017 -0.5012 -0.0403
   84ANI     C6 1816   1.058   2.755   3.797 -0.4099 -0.2330 -0.1290
   84ANI     C7 1817   1.050   2.786   3.658 -0.5210  0.0507  0.0834
   84ANI     H1 1818   0.982   2.573   3.308 -1.0140  0.0122 -1.9523
   84ANI     H2 1819   0.823   2.633   3.352  0.6441 -1.7457  0.0683
   84ANI     H3 1820   0.930   2.731   3.247 -1.5372  1.3593  0.5215
   84ANI     H4 1821   0.926   2.482   3.553 -1.8499  1.3047 -0.7013
   84ANI     H5 1822   0.949   2.429   3.774  0.5366 -1.0747  0.1564
   84ANI     H6 1823   1.041   2.604   3.948  3.0824  3.4745  0.4826
   84ANI     H7 1824   1.097   2.827   3.869  1.4707 -0.7897 -0.5697
   84ANI     H8 1825   1.098   2.875   3.618  1.7812 -0.3638  1.8074
   85ANI     C1 1826   0.925   2.113   3.392 -0.5948  0.7603 -0.3130
   85ANI     O1 1827   0.869   2.006   3.477 -0.4210  0.3229 -0.3387
   85ANI     C2 1828   0.923   1.957   3.601  0.3967  0.1271  0.4719
   85ANI     C3 1829   0.883   1.827   3.638 -0.4956  0.2412  0.5313
   85ANI     C4 1830   0.928   1.775   3.762 -0.4960  1.0412 -0.5847
   85ANI     C5 1831   1.019   1.856   3.836  0.2178 -0.2540  0.3606
   85ANI     C6 1832   1.065   1.978   3.789  0.1753  0.2429 -0.1440
   85ANI     C7 1833   1.015   2.033   3.673 -0.0602  0.0752  0.6890
   85ANI     H1 1834   0.915   2.212   3.438 -0.4492  0.4112  0.4796
   85ANI     H2 1835   1.032   2.097   3.376 -0.7138  0.0169 -0.3644
   85ANI     H3 1836   0.869   2.110   3.298 -0.4294  0.3129 -0.3956
   85ANI     H4 1837   0.803   1.779   3.581  0.5978 -1.5256  0.4373
   85ANI     H5 1838   0.889   1.680   3.798  1.2159  1.4770  2.6425
   85ANI     H6 1839   1.054   1.823   3.933 -0.9571 -2.2511  0.1327
   85ANI     H7 1840   1.147   2.034   3.835  0.4785 -0.3871  0.0840
   85ANI     H8 1841   1.055   2.130   3.646 -1.2354  0.4623  0.2783
   86ANI     C1 1842   3.087   1.673   0.157  0.1282  0.1836  0.1024
   86ANI     O1 1843   3.192   1.687   0.055 -0.1121  0.6223  0.2024
   86ANI     C2 1844   3.248   1.807   0.031  0.3663 -0.0799  0.2101
   86ANI     C3 1845   3.207   1.922   0.090  0.5126 -0.5238  0.4722
   86ANI     C4 1846   3.280   2.040   0.072 -0.1263 -0.6252  0.0014
   86ANI     C5 1847   3.400   2.029  -0.000 -0.2727  0.4537 -0.0332
   86ANI     C6 1848   3.436   1.917  -0.066  0.6070 -0.1213  0.0976
   86ANI     C7 1849   3.359   1.804  -0.047 -0.6138 -0.4661 -0.3809
   86ANI     H1 1850   2.991   1.721   0.133  0.4258  1.2373  1.0036
   86ANI     H2 1851   3.064   1.567   0.174 -1.1207  0.4764  0.2857
   86ANI     H3 1852   3.121   1.721   0.249 -1.7627  0.2400  0.8055
   86ANI     H4 1853   3.113   1.926   0.145  0.0478  1.3627 -0.4138
   86ANI     H5 1854   3.248   2.137   0.110 -0.2506 -0.4216 -0.6169
   86ANI     H6 1855   3.462   2.118  -0.005 -1.5441  1.3640  0.1441
   86ANI     H7 1856   3.519   1.921  -0.135 -0.1624  0.8097 -0.7990
   86ANI     H8 1857   3.403   1.713  -0.088  0.8447 -0.3015  0.7955
   87ANI     C1 1858   2.455   1.886   3.747  0.5343  0.3166  0.2848
   87ANI     O1 1859   2.590   1.830   3.756 -0.4997 -0.0848  0.4100
   87ANI     C2 1860   2.696   1.919   3.741 -0.1046  0.7903 -0.4105
   87ANI     C3 1861   2.824   1.869   3.721  0.5970 -0.3196 -0.4584
   87ANI     C4 1862   2.936   1.949   3.722 -0.5308  0.2080  0.3649
   87ANI     C5 1863   2.922   2.086   3.738  0.1062 -0.7101 -1.0589
   87ANI     C6 1864   2.796   2.138   3.746 -0.3331  0.0953 -0.4647
   87ANI     C7 1865   2.682   2.062   3.742  0.2170  0.4667  1.0692
   87ANI     H1 1866   2.446   1.935   3.649 -1.5530 -0.2809  0.1559
   87ANI     H2 1867   2.378   1.812   3.771  1.4489 -1.5711 -2.3800
   87ANI     H3 1868   2.434   1.967   3.817  1.2268  0.9041 -0.1842
   87ANI     H4 1869   2.843   1.762   3.727 -1.3392 -0.8704 -3.2131
   87ANI     H5 1870   3.035   1.909   3.701 -1.2461 -0.5026 -1.8875
   87ANI     H6 1871   2.995   2.167   3.744 -1.2743  0.5761 -1.3663
   87ANI     H7 1872   2.791   2.246   3.751  2.3139  0.2198  0.1478
   87ANI     H8 1873   2.579   2.096   3.750 -0.3871 -1.4092  1.5767
   88ANI     C1 1874   1.765   0.586   2.748 -0.1422 -0.0938 -0.7606
   88ANI     O1 1875   1.846   0.685   2.813 -0.2059 -0.0624  0.1925
   88ANI     C2 1876   1.814   0.818   2.835 -0.4142  0.4698  0.1222
   88ANI     C3 1877   1.678   0.849   2.862 -1.4175  0.2718  0.1014
   88ANI     C4 1878   1.640   0.978   2.897  0.2154 -0.3730  0.1460
   88ANI     C5 1879   1.733   1.083   2.899 -0.2140  0.7837  0.0249
   88ANI     C6 1880   1.868   1.047   2.869  0.5098  0.3546 -0.2565
   88ANI     C7 1881   1.909   0.921   2.835 -0.0283  0.7988 -0.4209
   88ANI     H1 1882   1.744   0.623   2.647  0.0476 -1.6566 -1.3745
   88ANI     H2 1883   1.814   0.490   2.729  2.0047  0.8556 -0.1033
   88ANI     H3 1884   1.668   0.572   2.797  0.4089  0.4500  0.5132
   88ANI     H4 1885   1.599   0.774   2.855 -0.1950 -1.1115  0.9225
   88ANI     H5 1886   1.536   0.995   2.925 -0.0180  1.3184 -1.6606
   88ANI     H6 1887   1.718   1.183   2.937  1.3984  0.4104  1.6967
   88ANI     H7 1888   1.948   1.121   2.863 -0.4585  1.5012  0.8846
   88ANI     H8 1889   2.009   0.909   2.794 -0.6543  0.2898 -1.8586
   89ANI     C1 1890   1.053   2.273   3.072 -0.3143  0.0149  0.1808
   89ANI     O1 1891   1.190   2.292   3.099  0.2890 -0.4110  0.0695
   89ANI     C2 1892   1.274   2.352   3.008  0.0254  0.1308 -0.7913
   89ANI     C3 1893   1.228   2.397   2.885  0.1921  0.1198 -0.6913
   89ANI     C4 1894   1.316   2.455   2.792  0.3486 -0.0226 -0.3501
   89ANI     C5 1895   1.450   2.461   2.819  0.2778 -0.0212 -0.0152
   89ANI     C6 1896   1.500   2.422   2.942 -0.3587 -0.2125 -0.2576
   89ANI     C7 1897   1.418   2.369   3.039  0.2333  0.0980  0.1639
   89ANI     H1 1898   1.000   2.368   3.079  1.3404  0.9609  0.0138
   89ANI     H2 1899   1.028   2.215   2.982 -0.7693  1.2280 -0.4771
   89ANI     H3 1900   1.021   2.210   3.157 -1.5610  0.0151 -0.2767
   89ANI     H4 1901   1.124   2.385   2.856  0.0962 -1.1311  0.1539
   89ANI     H5 1902   1.276   2.475   2.694  0.0905  1.7973  0.1096
   89ANI     H6 1903   1.519   2.516   2.756 -1.1577 -1.3463 -2.8872
   89ANI     H7 1904   1.605   2.423   2.972 -0.7580 -0.8585  1.2270
   89ANI     H8 1905   1.458   2.333   3.133 -0.3198  0.0292  0.3773
   90ANI     C1 1906   3.304   0.414   2.607 -0.7463  0.4393 -0.2860
   90ANI     O1 1907   3.301   0.555   2.639  0.1011 -0.1859  0.2998
   90ANI     C2 1908   3.334   0.643   2.543 -0.3462 -0.4969  0.2666
   90ANI     C3 1909   3.346   0.773   2.598 -0.3221 -1.1524 -0.8921
   90ANI     C4 1910   3.384   0.881   2.510 -0.3620  0.5848  0.1793
   90ANI     C5 1911   3.428   0.856   2.383 -0.3302 -0.1916  0.1881
   90ANI     C6 1912   3.421   0.729   2.332 -0.3686  0.3228  0.7173
   90ANI     C7 1913   3.370   0.620   2.406  0.7379  0.6048  0.4953
   90ANI     H1 1914   3.276   0.362   2.700  0.0171  0.3909 -0.0788
   90ANI     H2 1915   3.224   0.384   2.539 -2.2718 -0.7542  1.9808
   90ANI     H3 1916   3.404   0.382   2.575 -0.5483  0.2382  0.5201
   90ANI     H4 1917   3.330   0.797   2.703 -0.5778  0.5348 -1.3031
   90ANI     H5 1918   3.373   0.981   2.550 -1.9225 -0.1925  1.7492
   90ANI     H6 1919   3.468   0.930   2.313  0.4520 -1.3654 -0.6211
   90ANI     H7 1920   3.456   0.706   2.231 -0.9359  0.2525  0.5387
   90ANI     H8 1921   3.361   0.526   2.353  0.0681 -0.3649  2.2847
   91ANI     C1 1922   0.183   2.290   3.548 -0.2011 -0.2124 -0.1403
   91ANI     O1 1923   0.070   2.306   3.636  0.2152 -0.2235 -0.3070
   91ANI     C2 1924   0.073   2.396   3.738  0.0820  0.1558  0.1332
   91ANI     C3 1925  -0.045   2.421   3.810 -0.2676 -0.5476 -0.6600
   91ANI     C4 1926  -0.044   2.527   3.908  0.2892 -0.6955  0.1616
   91ANI     C5 1927   0.075   2.598   3.941 -0.1510 -0.2130  0.6037
   91ANI     C6 1928   0.193   2.569   3.868  0.5053  0.1511 -0.0805
   91ANI     C7 1929   0.193   2.459   3.780  0.4437  0.4032 -0.0539
   91ANI     H1 1930   0.150   2.207   3.484  0.5094 -0.4800 -0.1623
   91ANI     H2 1931   0.204   2.377   3.484 -1.7438 -1.3301 -2.2291
   91ANI     H3 1932   0.272   2.251   3.597  0.5407  0.9498 -0.5419
   91ANI     H4 1933  -0.136   2.370   3.780 -2.2574  1.2157  2.0746
   91ANI     H5 1934  -0.132   2.564   3.959  1.6871  0.0661  2.0815
   91ANI     H6 1935   0.067   2.685   4.005 -2.3350 -0.6522  0.9736
   91ANI     H7 1936   0.285   2.622   3.892  0.9417 -1.1708  1.3317
   91ANI     H8 1937   0.289   2.443   3.732 -0.3837  0.4255 -1.7803
   92ANI     C1 1938   1.587   0.284   1.541  0.0805  0.7766  0.1514
   92ANI     O1 1939   1.471   0.363   1.517 -0.0164  0.1166 -0.0448
   92ANI     C2 1940   1.346   0.324   1.543 -0.1415  0.0736  0.0043
   92ANI     C3 1941   1.321   0.187   1.564  0.0233 -0.1918  0.4083
   92ANI     C4 1942   1.188   0.143   1.569  0.2536  0.0418  0.1236
   92ANI     C5 1943   1.082   0.235   1.559 -0.5459  0.3348  0.4448
   92ANI     C6 1944   1.110   0.372   1.536 -0.6572 -0.0666  0.1751
   92ANI     C7 1945   1.239   0.415   1.533 -0.1044  0.7316 -0.2356
   92ANI     H1 1946   1.582   0.235   1.639 -2.6410  0.1658 -0.2563
   92ANI     H2 1947   1.590   0.206   1.465  0.7119  0.6201  0.3358
   92ANI     H3 1948   1.680   0.342   1.536  0.9909 -0.6645  0.1884
   92ANI     H4 1949   1.401   0.115   1.580 -0.8347 -1.3723 -0.4284
   92ANI     H5 1950   1.162   0.040   1.590  0.4100 -0.0411 -0.0880
   92ANI     H6 1951   0.978   0.206   1.563 -0.6782  0.8425  0.8553
   92ANI     H7 1952   1.026   0.440   1.521  0.1424  1.0733  0.7600
   92ANI     H8 1953   1.262   0.521   1.521 -0.5634  0.9846  0.9937
   93ANI     C1 1954   2.578   3.128   0.734  0.1868 -0.0589  0.1648
   93ANI     O1 1955   2.532   3.035   0.630  0.4776 -0.0533 -0.5741
   93ANI     C2 1956   2.490   3.074   0.505  0.2010  0.5478 -0.4071
   93ANI     C3 1957   2.507   3.214   0.469  0.1357 -0.1523 -0.5856
   93ANI     C4 1958   2.468   3.258   0.344  0.5867  0.5231  0.1797
   93ANI     C5 1959   2.420   3.159   0.254  0.4182 -0.1929 -0.8576
   93ANI     C6 1960   2.410   3.019   0.290 -0.5763  0.2138  0.4981
   93ANI     C7 1961   2.439   2.977   0.419  0.0007  0.6180  0.7532
   93ANI     H1 1962   2.607   3.058   0.813  1.4860  0.5743  0.2667
   93ANI     H2 1963   2.669   3.183   0.706 -0.5652  0.4235 -1.3533
   93ANI     H3 1964   2.508   3.202   0.775  0.2723 -0.9447  1.9698
   93ANI     H4 1965   2.547   3.288   0.539  0.4748  0.1020 -1.0441
   93ANI     H5 1966   2.488   3.358   0.305 -0.9824  1.0171  0.5914
   93ANI     H6 1967   2.412   3.197   0.153  0.3771  1.9203 -0.0906
   93ANI     H7 1968   2.398   2.940   0.216  1.9592 -0.4967  0.7848
   93ANI     H8 1969   2.418   2.873   0.445 -0.7629  0.8809  1.1893
   94ANI     C1 1970   1.217   0.685   1.093  0.3310  0.6759 -0.2440
   94ANI     O1 1971   1.295   0.666   1.212  0.2467  0.4523 -0.2570
   94ANI     C2 1972   1.309   0.764   1.307 -0.6367  0.3855 -0.0261
   94ANI     C3 1973   1.232   0.887   1.308  0.1051 -0.0083 -0.6331
   94ANI     C4 1974   1.254   0.981   1.407  0.3609 -0.3966 -0.2981
   94ANI     C5 1975   1.351   0.958   1.506  0.2773 -0.5983 -0.4937
   94ANI     C6 1976   1.425   0.837   1.511  0.3808 -0.6748 -0.0131
   94ANI     C7 1977   1.400   0.741   1.413 -0.2200  0.7588 -0.1699
   94ANI     H1 1978   1.109   0.685   1.107 -0.0805  1.6649 -3.1165
   94ANI     H2 1979   1.253   0.773   1.037 -0.8143  1.6873  0.5833
   94ANI     H3 1980   1.234   0.602   1.023 -1.2544 -1.1348  1.4659
   94ANI     H4 1981   1.150   0.893   1.236 -0.7087 -1.0335  0.1998
   94ANI     H5 1982   1.210   1.080   1.406  0.1490 -0.4110  3.3336
   94ANI     H6 1983   1.375   1.037   1.576 -0.8481  0.4691 -1.2945
   94ANI     H7 1984   1.502   0.827   1.586  0.9741 -1.2012 -0.6895
   94ANI     H8 1985   1.457   0.650   1.429 -1.1684 -0.1364 -1.7340
   95ANI     C1 1986   3.025   0.252   1.114  0.5819  0.1090  0.3949
   95ANI     O1 1987   2.961   0.366   1.174  0.1134 -0.0276  0.2970
   95ANI     C2 1988   2.853   0.435   1.114  0.4481  0.4461 -0.0166
   95ANI     C3 1989   2.779   0.526   1.191 -0.5272  0.2706  0.5347
   95ANI     C4 1990   2.676   0.597   1.127  0.4405 -0.0190 -0.0637
   95ANI     C5 1991   2.643   0.573   0.996  0.3110 -0.5476  0.5952
   95ANI     C6 1992   2.719   0.483   0.919 -0.9219  0.4727  0.0271
   95ANI     C7 1993   2.818   0.411   0.981 -0.2074 -0.6878 -0.5437
   95ANI     H1 1994   3.088   0.277   1.028  0.8670  0.6658  0.7597
   95ANI     H2 1995   3.079   0.194   1.190 -0.2117 -0.3673  0.5919
   95ANI     H3 1996   2.950   0.187   1.068  1.8093 -0.0304 -1.4843
   95ANI     H4 1997   2.818   0.561   1.286  0.8721  1.3147 -0.3963
   95ANI     H5 1998   2.614   0.665   1.185  0.2703 -0.0724 -0.1831
   95ANI     H6 1999   2.557   0.624   0.956  0.5578  0.6106  1.5001
   95ANI     H7 2000   2.694   0.460   0.816 -0.8991 -1.7816  0.4930
   95ANI     H8 2001   2.878   0.339   0.926  1.7314  0.4045  0.0934
   96ANI     C1 2002   2.062   1.545   0.991  0.4305 -0.6433 -0.3434
   96ANI     O1 2003   2.141   1.452   0.916 -0.1798  0.2395  0.5713
   96ANI     C2 2004   2.276   1.467   0.902  0.5626 -0.0041 -0.0437
   96ANI     C3 2005   2.336   1.382   0.808 -0.6552 -0.3733 -0.0771
   96ANI     C4 2006   2.475   1.389   0.798 -0.2646  0.0122  0.0561
   96ANI     C5 2007   2.558   1.458   0.889 -0.1079  0.4892  0.1442
   96ANI     C6 2008   2.502   1.536   0.987  0.1295 -0.2301  0.7521
   96ANI     C7 2009   2.360   1.543   0.993 -0.6121  0.6671 -0.2205
   96ANI     H1 2010   2.090   1.644   0.955 -0.7995 -0.2205 -0.1483
   96ANI     H2 2011   1.955   1.536   0.969  0.1544  1.4415  0.0762
   96ANI     H3 2012   2.085   1.531   1.097 -2.0448 -0.7094  0.2153
   96ANI     H4 2013   2.274   1.318   0.745  0.8905 -1.4375 -0.5230
   96ANI     H5 2014   2.529   1.332   0.722 -0.1459 -0.5314  0.5513
   96ANI     H6 2015   2.667   1.454   0.892 -0.1272 -0.6329 -0.3702
   96ANI     H7 2016   2.562   1.599   1.051  0.1879  0.3628  0.1189
   96ANI     H8 2017   2.322   1.612   1.068 -0.7871 -0.3474  0.6444
   97ANI     C1 2018   2.234   2.640   3.537 -0.3332  0.4249 -0.4009
   97ANI     O1 2019   2.232   2.733   3.424 -0.3903 -0.6626 -0.1137
   97ANI     C2 2020   2.134   2.824   3.401 -0.5721  0.2450  0.7760
   97ANI     C3 2021   2.024   2.840   3.482 -0.2768  0.2018 -0.1692
   97ANI     C4 2022   1.923   2.929   3.455 -0.0388 -0.1354  0.7641
   97ANI     C5 2023   1.938   3.016   3.345  0.3244  0.4703  0.4183
   97ANI     C6 2024   2.048   3.006   3.266  0.1601 -0.1088 -0.5658
   97ANI     C7 2025   2.144   2.905   3.292 -0.0708 -0.0507  0.4951
   97ANI     H1 2026   2.218   2.682   3.637 -1.1460 -0.4174 -0.1604
   97ANI     H2 2027   2.149   2.570   3.527  0.9038 -1.0440 -0.7918
   97ANI     H3 2028   2.326   2.581   3.539  0.1563  1.2019  0.1073
   97ANI     H4 2029   2.003   2.776   3.568 -2.0892 -0.6320 -1.1879
   97ANI     H5 2030   1.845   2.948   3.528 -2.0194  0.0264 -1.3451
   97ANI     H6 2031   1.852   3.079   3.326 -1.5981 -2.0480  0.5449
   97ANI     H7 2032   2.066   3.060   3.173 -0.2121 -0.3920 -0.8047
   97ANI     H8 2033   2.228   2.897   3.224 -1.3245 -2.0616 -0.8761
   98ANI     C1 2034   2.454   0.091   0.702  0.3457  0.4689  0.5728
   98ANI     O1 2035   2.588   0.047   0.741 -0.2851  0.4145 -0.0878
   98ANI     C2 2036   2.707   0.110   0.703  0.2953 -0.4088  0.0531
   98ANI     C3 2037   2.827   0.040   0.716  0.0088  0.7687 -0.1463
   98ANI     C4 2038   2.947   0.098   0.683 -0.3418  1.1039  0.0256
   98ANI     C5 2039   2.948   0.229   0.632  0.2945 -0.0807  0.4130
   98ANI     C6 2040   2.827   0.295   0.602 -0.1122 -0.6868  0.1250
   98ANI     C7 2041   2.710   0.240   0.645  0.3237  0.5393  0.6572
   98ANI     H1 2042   2.436   0.069   0.596  1.0169  0.9221  0.3545
   98ANI     H2 2043   2.374   0.049   0.763  0.0138  0.9932  0.5062
   98ANI     H3 2044   2.447   0.201   0.696 -0.7421  0.3624 -0.1317
   98ANI     H4 2045   2.826  -0.062   0.756  0.4735  0.9998  0.4656
   98ANI     H5 2046   3.035   0.039   0.709 -2.0313 -1.1885  0.6564
   98ANI     H6 2047   3.040   0.283   0.614  0.8071 -1.0797 -0.0099
   98ANI     H7 2048   2.829   0.397   0.565 -0.6726 -1.8191 -3.1134
   98ANI     H8 2049   2.615   0.293   0.639 -1.0280 -1.5603  2.3069
   99ANI     C1 2050   2.762   1.144   2.322 -0.3222  0.0012 -0.3496
   99ANI     O1 2051   2.699   1.266   2.340  0.1642  0.4939  0.2447
   99ANI     C2 2052   2.631   1.298   2.459 -0.5043 -0.8369  0.6652
   99ANI     C3 2053   2.571   1.198   2.537  0.5943 -0.0955 -0.1407
   99ANI     C4 2054   2.512   1.233   2.659 -0.2812  0.1871 -0.4484
   99ANI     C5 2055   2.505   1.368   2.695  0.5101  1.1474  0.6308
   99ANI     C6 2056   2.579   1.472   2.623  0.2209  0.0164 -0.3740
   99ANI     C7 2057   2.636   1.436   2.501 -0.7678 -0.3821  0.3281
   99ANI     H1 2058   2.821   1.106   2.405  1.4225  0.2802 -1.4490
   99ANI     H2 2059   2.687   1.071   2.287  0.5649 -1.0997  0.0272
   99ANI     H3 2060   2.828   1.152   2.235 -0.1026 -0.5537 -0.2356
   99ANI     H4 2061   2.558   1.099   2.493  0.6438 -1.4987  2.8759
   99ANI     H5 2062   2.461   1.158   2.718 -0.8214  0.3941 -0.6521
   99ANI     H6 2063   2.453   1.395   2.786  1.8079  0.4921  1.5897
   99ANI     H7 2064   2.581   1.575   2.658 -0.9115 -0.2943  0.6419
   99ANI     H8 2065   2.689   1.508   2.440  2.0059 -1.9567  0.7659
  100ANI     C1 2066   2.616   2.403   0.474 -0.0001  0.2128  0.5250
  100ANI     O1 2067   2.729   2.492   0.482 -0.2939 -0.4220  0.2327
  100ANI     C2 2068   2.765   2.549   0.605 -0.3510  0.7233 -0.4601
  100ANI     C3 2069   2.866   2.645   0.607 -0.5137  0.6258 -0.1716
  100ANI     C4 2070   2.901   2.712   0.725 -0.7667 -0.3148 -0.4378
  100ANI     C5 2071   2.851   2.666   0.847 -0.5041 -0.0848 -0.6542
  100ANI     C6 2072   2.759   2.560   0.851  0.3278 -0.2373 -0.4165
  100ANI     C7 2073   2.709   2.508   0.729  0.4862  0.0441  0.5747
  100ANI     H1 2074   2.593   2.384   0.368 -0.1571  1.4167  0.3423
  100ANI     H2 2075   2.642   2.311   0.527 -2.5080 -0.8392  0.0275
  100ANI     H3 2076   2.535   2.458   0.524  1.5032  0.2200  3.0027
  100ANI     H4 2077   2.915   2.675   0.515  1.3420 -0.5524  0.4040
  100ANI     H5 2078   2.972   2.795   0.728  0.4654 -1.3930  3.7461
  100ANI     H6 2079   2.888   2.705   0.941 -1.7373  0.6710 -0.4775
  100ANI     H7 2080   2.734   2.524   0.950 -0.6255  0.2960 -0.4550
  100ANI     H8 2081   2.643   2.422   0.731 -1.3003  1.4033  3.1554
  101ANI     C1 2082   3.315   0.105   3.765 -0.0181  0.0769 -0.8335
  101ANI     O1 2083   3.310   0.047   3.896 -0.0150 -0.2756  0.1722
  101ANI     C2 2084   3.281   0.132   4.004  0.5773 -0.2593 -0.3935
  101ANI     C3 2085   3.155   0.191   4.009 -0.5774  0.2329 -0.0730
  101ANI     C4 2086   3.123   0.270   4.118  0.0864  0.0636  0.0228
  101ANI     C5 2087   3.222   0.305   4.209  0.5291 -0.3482 -0.7169
  101ANI     C6 2088   3.350   0.242   4.204  0.0956 -0.5768 -0.0964
  101ANI     C7 2089   3.379   0.156   4.096 -0.5536  0.2786  0.1293
  101ANI     H1 2090   3.309   0.020   3.696 -2.4283  0.9164 -1.7030
  101ANI     H2 2091   3.225   0.166   3.753 -0.9844 -1.2638 -0.5285
  101ANI     H3 2092   3.408   0.163   3.758  1.1001 -1.5485  0.3110
  101ANI     H4 2093   3.075   0.165   3.940 -0.4458 -0.8835  0.1945
  101ANI     H5 2094   3.024   0.313   4.122 -0.2040 -0.6294  0.5185
  101ANI     H6 2095   3.209   0.369   4.296  0.4499 -2.2376  0.6990
  101ANI     H7 2096   3.423   0.265   4.281  0.4225  0.1482 -0.6168
  101ANI     H8 2097   3.474   0.104   4.085 -1.4643 -1.5402  0.7220
  102ANI     C1 2098   0.583   0.657   3.294  0.2249 -0.2010  0.2068
  102ANI     O1 2099   0.592   0.744   3.180 -0.1172  0.0715  0.3447
  102ANI     C2 2100   0.479   0.808   3.133 -0.9668 -0.3974  0.0736
  102ANI     C3 2101   0.484   0.857   3.001  0.9036 -0.3155  0.2557
  102ANI     C4 2102   0.372   0.907   2.931 -0.2282  0.2709 -0.1301
  102ANI     C5 2103   0.250   0.903   2.995 -0.3559 -0.2593  0.4133
  102ANI     C6 2104   0.239   0.856   3.128 -0.3358  0.4024  0.3107
  102ANI     C7 2105   0.351   0.805   3.192  0.1137 -0.0133 -0.3329
  102ANI     H1 2106   0.539   0.719   3.373  1.6795 -0.5382  1.3070
  102ANI     H2 2107   0.511   0.576   3.280  0.1572 -0.0773 -0.1918
  102ANI     H3 2108   0.680   0.621   3.330  1.5704  2.9566 -0.1050
  102ANI     H4 2109   0.583   0.854   2.955  0.6361 -0.4109 -0.3218
  102ANI     H5 2110   0.382   0.927   2.824 -2.5238 -3.5178 -1.1423
  102ANI     H6 2111   0.164   0.937   2.938 -0.7489 -0.6504  0.7678
  102ANI     H7 2112   0.139   0.832   3.163 -0.0046 -0.8915  0.4215
  102ANI     H8 2113   0.326   0.763   3.289 -0.9512 -1.6278 -1.2711
  103ANI     C1 2114   1.923   2.848   1.520 -0.4677 -0.3286  0.0069
  103ANI     O1 2115   2.023   2.747   1.514 -0.8163  0.2557  0.2878
  103ANI     C2 2116   2.161   2.770   1.534 -0.2493 -0.5870  0.4056
  103ANI     C3 2117   2.207   2.903   1.555 -0.4389 -0.5359  0.0172
  103ANI     C4 2118   2.344   2.925   1.573  0.2599 -0.1908 -0.0623
  103ANI     C5 2119   2.442   2.823   1.568  0.1757 -0.4482 -0.4557
  103ANI     C6 2120   2.395   2.693   1.539  0.7259  0.7139  0.7443
  103ANI     C7 2121   2.260   2.669   1.532 -0.1197  0.6847 -0.4499
  103ANI     H1 2122   1.820   2.810   1.508 -1.6201  2.7680 -0.4209
  103ANI     H2 2123   1.923   2.899   1.617  1.2346 -1.4468  0.6254
  103ANI     H3 2124   1.936   2.929   1.448  1.9039 -1.8697 -1.3460
  103ANI     H4 2125   2.141   2.989   1.560  0.7378  0.5667 -2.4185
  103ANI     H5 2126   2.378   3.028   1.580  1.5260 -0.4494 -1.9202
  103ANI     H6 2127   2.545   2.848   1.592  0.3195  1.0862 -2.5237
  103ANI     H7 2128   2.466   2.611   1.535  0.6427  0.6529  0.4756
  103ANI     H8 2129   2.225   2.569   1.509  1.4522 -0.0469  0.2514
  104ANI     C1 2130   0.572   2.829   0.806  0.1897 -0.0818 -0.0466
  104ANI     O1 2131   0.518   2.884   0.697  0.1287  0.0378 -0.6622
  104ANI     C2 2132   0.588   2.972   0.619  0.2883  0.0961 -0.0225
  104ANI     C3 2133   0.532   3.029   0.501 -0.0920  0.5839  0.1289
  104ANI     C4 2134   0.594   3.136   0.427  0.2097 -0.2653 -0.0150
  104ANI     C5 2135   0.718   3.179   0.468 -0.3880  0.1380 -0.4660
  104ANI     C6 2136   0.787   3.111   0.573 -0.1110 -0.1209 -0.2061
  104ANI     C7 2137   0.720   3.014   0.649 -0.1145  0.2438  0.0562
  104ANI     H1 2138   0.589   2.911   0.877 -3.0822  1.8964 -1.4076
  104ANI     H2 2139   0.511   2.751   0.853 -1.3186  0.9542 -0.2453
  104ANI     H3 2140   0.665   2.781   0.774  0.5002  0.8130 -0.5274
  104ANI     H4 2141   0.435   2.998   0.464  1.5297 -4.9122  0.1449
  104ANI     H5 2142   0.530   3.184   0.354  1.0342  1.6559  0.5111
  104ANI     H6 2143   0.761   3.267   0.421  1.3395 -0.3605  0.1417
  104ANI     H7 2144   0.888   3.147   0.592 -0.1883  0.5011 -0.9727
  104ANI     H8 2145   0.775   2.970   0.732 -2.6426  2.2068  2.8985
  105ANI     C1 2146   0.731   1.729   1.164  0.3407  0.0933  0.4478
  105ANI     O1 2147   0.731   1.584   1.159  0.0893 -0.3201 -0.3036
  105ANI     C2 2148   0.723   1.504   1.273 -1.1345  0.0148  0.0425
  105ANI     C3 2149   0.690   1.368   1.261  0.2376 -0.2301 -0.1504
  105ANI     C4 2150   0.671   1.293   1.377 -0.1274 -0.5405  0.4004
  105ANI     C5 2151   0.691   1.351   1.503  0.5426  0.5985 -0.4936
  105ANI     C6 2152   0.731   1.481   1.517 -0.2373 -0.4616  0.5559
  105ANI     C7 2153   0.749   1.556   1.403 -0.0762 -0.3925  0.3144
  105ANI     H1 2154   0.737   1.762   1.059  3.9526 -1.5243  0.0631
  105ANI     H2 2155   0.639   1.767   1.209  0.2217  0.7381 -0.3195
  105ANI     H3 2156   0.816   1.763   1.224  1.9689 -0.5684 -1.4154
  105ANI     H4 2157   0.658   1.327   1.166  0.4788  0.6622 -0.6126
  105ANI     H5 2158   0.655   1.186   1.368 -2.6299 -0.0716 -1.1809
  105ANI     H6 2159   0.690   1.289   1.592  0.8824 -0.1778 -1.0198
  105ANI     H7 2160   0.760   1.532   1.608  1.7942 -0.9977  0.2431
  105ANI     H8 2161   0.791   1.656   1.415  0.6612 -0.8956  2.1738
  106ANI     C1 2162   0.907   3.179   3.091  0.7025  0.6073  0.1140
  106ANI     O1 2163   0.966   3.175   3.223  0.1702 -0.3287 -0.2961
  106ANI     C2 2164   1.053   3.078   3.256  0.2340 -0.3933 -0.7861
  106ANI     C3 2165   1.086   2.965   3.174  1.0015 -0.5197 -0.3849
  106ANI     C4 2166   1.163   2.867   3.230 -0.6058 -0.0284  0.4481
  106ANI     C5 2167   1.228   2.882   3.350  0.4006 -0.4881 -0.4205
  106ANI     C6 2168   1.212   3.007   3.426 -0.9254  0.9774  0.6525
  106ANI     C7 2169   1.125   3.107   3.373 -0.7170  0.7091  0.5456
  106ANI     H1 2170   0.843   3.092   3.074  0.3435  1.3184 -2.2209
  106ANI     H2 2171   0.851   3.269   3.064  0.2819  0.2290 -0.2875
  106ANI     H3 2172   0.988   3.187   3.017  0.6635 -0.7051 -0.0965
  106ANI     H4 2173   1.044   2.937   3.077  1.2449  1.2568 -1.0115
  106ANI     H5 2174   1.165   2.778   3.167 -1.4425  1.1717 -1.2945
  106ANI     H6 2175   1.284   2.796   3.385 -0.7427 -1.3424 -0.6801
  106ANI     H7 2176   1.279   3.020   3.511 -1.2515 -1.1993  1.2870
  106ANI     H8 2177   1.105   3.202   3.423  1.9316  1.0168  1.0929
  107ANI     C1 2178   0.987   0.143   2.700 -0.0421  0.9806  0.2813
  107ANI     O1 2179   0.989   0.246   2.798  0.4379 -0.3206 -0.1378
  107ANI     C2 2180   0.886   0.344   2.801  0.1926  0.3838  0.4857
  107ANI     C3 2181   0.886   0.425   2.912 -0.0899  0.2777  0.1868
  107ANI     C4 2182   0.780   0.518   2.931 -1.1565  0.3348 -0.6739
  107ANI     C5 2183   0.670   0.514   2.846 -0.2112  0.2704  0.3798
  107ANI     C6 2184   0.672   0.431   2.731 -0.4475  0.4561  1.0562
  107ANI     C7 2185   0.786   0.355   2.702 -1.0094 -0.4188  0.5235
  107ANI     H1 2186   1.022   0.180   2.603 -1.2179 -0.3360 -0.6609
  107ANI     H2 2187   1.056   0.062   2.727  0.4483  1.3829  0.2478
  107ANI     H3 2188   0.889   0.096   2.685  0.1822 -0.5404  3.2114
  107ANI     H4 2189   0.974   0.426   2.976  0.0692 -1.1205  0.0212
  107ANI     H5 2190   0.784   0.591   3.011  2.3491  0.0430 -0.4825
  107ANI     H6 2191   0.584   0.577   2.866 -1.5142 -0.4789 -2.5896
  107ANI     H7 2192   0.588   0.435   2.662 -1.4577  2.4125  2.3391
  107ANI     H8 2193   0.792   0.299   2.609  0.0178 -0.0887  0.3781
  108ANI     C1 2194   1.141   1.050   3.096  0.4235 -0.5220 -0.0563
  108ANI     O1 2195   1.221   1.015   3.200 -0.0118 -0.2494  0.4690
  108ANI     C2 2196   1.339   1.079   3.219  0.5026 -0.1192 -0.7757
  108ANI     C3 2197   1.389   1.170   3.126  0.8309  0.0937 -0.3766
  108ANI     C4 2198   1.509   1.244   3.152 -0.6010  0.4764 -0.1972
  108ANI     C5 2199   1.576   1.228   3.271 -0.3917  0.5151  0.0129
  108ANI     C6 2200   1.534   1.131   3.366  0.2906  1.1395 -0.7692
  108ANI     C7 2201   1.408   1.052   3.335  0.2200  0.1926  0.0050
  108ANI     H1 2202   1.087   1.145   3.105 -1.1343 -1.4765  0.8597
  108ANI     H2 2203   1.196   1.054   3.001 -1.3060 -4.6546 -1.3195
  108ANI     H3 2204   1.068   0.970   3.078 -0.8985  0.7593 -0.4994
  108ANI     H4 2205   1.340   1.178   3.029 -2.0737 -0.8885  0.9408
  108ANI     H5 2206   1.542   1.313   3.074 -0.2785 -1.5083 -1.8579
  108ANI     H6 2207   1.667   1.285   3.288 -0.5872  1.2123 -1.2121
  108ANI     H7 2208   1.587   1.105   3.457 -0.6463 -2.4771 -1.2090
  108ANI     H8 2209   1.371   0.980   3.407 -1.6143  0.3353 -0.7604
  109ANI     C1 2210   3.140   1.277   1.154 -0.4161 -0.1300 -0.4519
  109ANI     O1 2211   3.112   1.137   1.162  0.4036  0.4873 -0.5007
  109ANI     C2 2212   2.991   1.089   1.119 -0.1573 -0.1146 -0.1097
  109ANI     C3 2213   2.912   1.171   1.032 -0.0275  0.3183  0.1988
  109ANI     C4 2214   2.785   1.127   0.993 -0.6889 -0.5796 -0.7313
  109ANI     C5 2215   2.736   1.008   1.040 -0.8896  0.2170  0.6813
  109ANI     C6 2216   2.811   0.936   1.132 -0.3377  0.4961  0.1816
  109ANI     C7 2217   2.942   0.972   1.168 -0.5571  0.2184  0.1453
  109ANI     H1 2218   3.144   1.319   1.052 -1.8780  0.5511 -0.2417
  109ANI     H2 2219   3.058   1.332   1.202 -1.8181 -0.7623 -2.0394
  109ANI     H3 2220   3.235   1.313   1.194  0.2086 -1.5814 -0.5986
  109ANI     H4 2221   2.955   1.262   0.991 -1.4842  0.1705 -1.7287
  109ANI     H5 2222   2.722   1.183   0.924 -0.4795  0.2025 -0.2898
  109ANI     H6 2223   2.644   0.962   1.003 -0.2994  0.3234 -0.9806
  109ANI     H7 2224   2.770   0.853   1.188  1.1086  0.1819  0.7967
  109ANI     H8 2225   3.001   0.913   1.238  0.5509  0.1701 -0.8047
  110ANI     C1 2226   0.223   2.133   1.391  0.1436  0.0623 -0.5064
  110ANI     O1 2227   0.345   2.090   1.452  0.0305 -0.2625 -0.0434
  110ANI     C2 2228   0.352   1.961   1.504 -0.0208  0.6330 -0.0892
  110ANI     C3 2229   0.239   1.887   1.534 -0.3305 -0.3309 -0.2966
  110ANI     C4 2230   0.243   1.750   1.568 -0.3725  0.3988 -0.3230
  110ANI     C5 2231   0.369   1.688   1.554 -0.7608  0.6412 -0.3845
  110ANI     C6 2232   0.487   1.768   1.530 -0.1637 -0.0786  0.6336
  110ANI     C7 2233   0.479   1.908   1.516 -0.2407  0.9920  0.6572
  110ANI     H1 2234   0.238   2.219   1.325  0.6965  0.4079  0.0661
  110ANI     H2 2235   0.182   2.055   1.326  0.6538 -1.2274  0.6868
  110ANI     H3 2236   0.144   2.161   1.462 -1.3905 -1.7651 -1.4516
  110ANI     H4 2237   0.138   1.927   1.533 -0.0344  0.5094  1.3100
  110ANI     H5 2238   0.161   1.694   1.612 -1.2139  1.5884 -0.3524
  110ANI     H6 2239   0.380   1.583   1.582  1.2970  1.0206  0.3650
  110ANI     H7 2240   0.581   1.715   1.522  1.4380  2.9249 -1.0327
  110ANI     H8 2241   0.573   1.958   1.493 -0.4629 -0.1560 -3.0658
  111ANI     C1 2242   3.047   2.345   1.302 -0.3760  0.0751 -0.3677
  111ANI     O1 2243   3.048   2.352   1.158 -0.4516 -0.4412  0.4145
  111ANI     C2 2244   3.115   2.460   1.091 -0.8300  0.2046  0.0211
  111ANI     C3 2245   3.190   2.558   1.157 -0.4857  0.1230  0.2045
  111ANI     C4 2246   3.254   2.651   1.074  0.0488 -0.2326  0.2789
  111ANI     C5 2247   3.239   2.659   0.938 -0.3676 -0.2415  0.4211
  111ANI     C6 2248   3.154   2.567   0.875 -0.8688 -0.3487 -0.5790
  111ANI     C7 2249   3.094   2.462   0.951  0.3973 -0.0691 -0.7481
  111ANI     H1 2250   2.997   2.253   1.334  4.1655 -2.1961  0.6284
  111ANI     H2 2251   3.147   2.343   1.348 -0.5987 -0.1077  0.1134
  111ANI     H3 2252   2.993   2.429   1.347 -1.9474  0.1681 -2.3763
  111ANI     H4 2253   3.207   2.557   1.264  0.9028 -1.3113 -0.0112
  111ANI     H5 2254   3.320   2.719   1.127  1.7919 -0.4507 -1.5949
  111ANI     H6 2255   3.292   2.732   0.879 -1.1787  1.4391  1.7216
  111ANI     H7 2256   3.148   2.563   0.767  4.3302  2.7852 -1.1843
  111ANI     H8 2257   3.044   2.376   0.907  1.8357 -1.2920 -0.0265
  112ANI     C1 2258   3.032   0.804   0.907 -0.2362  0.2251 -0.4111
  112ANI     O1 2259   3.149   0.776   0.823 -0.3016 -0.9404  0.0725
  112ANI     C2 2260   3.200   0.656   0.798  1.0437 -0.6845  0.4461
  112ANI     C3 2261   3.159   0.539   0.862 -0.0496  0.2982 -0.5327
  112ANI     C4 2262   3.229   0.420   0.828 -0.0338 -0.2274  0.2624
  112ANI     C5 2263   3.335   0.415   0.733 -0.5518 -0.2132  0.2167
  112ANI     C6 2264   3.367   0.534   0.661 -0.1640  0.2713  0.6023
  112ANI     C7 2265   3.293   0.651   0.694  0.9259  0.3982 -0.0780
  112ANI     H1 2266   3.042   0.776   1.012  0.6892  1.4994 -0.1423
  112ANI     H2 2267   3.019   0.913   0.912 -0.2125  0.3134 -1.9634
  112ANI     H3 2268   2.940   0.757   0.871  0.4150 -0.4267 -1.2515
  112ANI     H4 2269   3.078   0.532   0.934 -0.7976  1.0084 -1.2880
  112ANI     H5 2270   3.208   0.326   0.877  1.8616 -1.6581 -1.5741
  112ANI     H6 2271   3.389   0.321   0.727  0.0458  0.1644 -0.3646
  112ANI     H7 2272   3.445   0.537   0.586 -1.8748  1.5255 -1.1761
  112ANI     H8 2273   3.315   0.742   0.639  1.3355  0.5491  0.3317
  113ANI     C1 2274   0.653   2.323   3.631 -0.4318 -0.5500 -0.1729
  113ANI     O1 2275   0.531   2.287   3.692  0.5745  0.2938  0.2166
  113ANI     C2 2276   0.498   2.162   3.737 -0.5222 -0.3962 -0.2519
  113ANI     C3 2277   0.561   2.045   3.699 -0.1993 -0.3174 -0.5179
  113ANI     C4 2278   0.513   1.915   3.738  0.5415 -0.0690 -0.4290
  113ANI     C5 2279   0.401   1.905   3.829 -0.4990 -0.1605 -0.5632
  113ANI     C6 2280   0.348   2.025   3.881 -0.1534  0.2712  0.2120
  113ANI     C7 2281   0.392   2.152   3.833 -0.3248 -0.3575 -1.0429
  113ANI     H1 2282   0.670   2.260   3.543  0.8705 -0.6836  0.1738
  113ANI     H2 2283   0.652   2.422   3.583  3.0833 -1.0042 -1.3031
  113ANI     H3 2284   0.739   2.310   3.697 -0.4412 -0.3345 -0.1170
  113ANI     H4 2285   0.642   2.046   3.628 -1.4947  2.3805 -2.0447
  113ANI     H5 2286   0.573   1.829   3.709  0.3322 -0.4562  0.2759
  113ANI     H6 2287   0.373   1.805   3.859  1.0515 -0.9914 -1.8202
  113ANI     H7 2288   0.266   2.020   3.952  1.1698  0.8258  1.8315
  113ANI     H8 2289   0.339   2.241   3.864 -2.2720 -1.1151 -2.1196
  114ANI     C1 2290   1.241   0.537   0.582  0.8716  0.2787  0.8603
  114ANI     O1 2291   1.192   0.418   0.519  0.0359  0.4261 -0.2353
  114ANI     C2 2292   1.113   0.427   0.398 -0.5586  1.4224  0.2916
  114ANI     C3 2293   1.043   0.540   0.356  0.2939 -0.8899 -0.8528
  114ANI     C4 2294   0.976   0.537   0.233 -0.2896 -0.3071  0.8130
  114ANI     C5 2295   0.975   0.424   0.151  0.8113  0.1982 -0.6991
  114ANI     C6 2296   1.036   0.307   0.202 -0.4894 -0.0141 -0.2553
  114ANI     C7 2297   1.112   0.309   0.321  1.4707 -0.5771 -0.1715
  114ANI     H1 2298   1.156   0.605   0.598 -0.6557 -1.7346  1.4764
  114ANI     H2 2299   1.282   0.512   0.681  2.6352  0.9068  0.3076
  114ANI     H3 2300   1.315   0.594   0.525  0.5647  1.3622  1.5320
  114ANI     H4 2301   1.044   0.637   0.404 -0.2795 -0.4925 -1.6413
  114ANI     H5 2302   0.921   0.625   0.203 -0.5115 -0.0622  1.9321
  114ANI     H6 2303   0.915   0.418   0.061  0.7040 -1.9690 -0.5111
  114ANI     H7 2304   1.035   0.217   0.142 -2.4470 -0.1898 -0.0011
  114ANI     H8 2305   1.173   0.225   0.352  1.0805  0.1332  2.6667
  115ANI     C1 2306   2.637   2.038   2.845  0.8226 -0.1413 -0.2221
  115ANI     O1 2307   2.543   1.955   2.911 -0.6350 -0.2737 -0.5498
  115ANI     C2 2308   2.576   1.834   2.974 -0.2148  0.2123 -0.6263
  115ANI     C3 2309   2.467   1.756   3.023  0.7277 -0.0875  0.8896
  115ANI     C4 2310   2.505   1.643   3.098  0.6180 -0.3095 -0.7031
  115ANI     C5 2311   2.638   1.607   3.116 -0.8018  0.0463 -0.1380
  115ANI     C6 2312   2.738   1.688   3.073  0.3377 -0.7433 -0.5671
  115ANI     C7 2313   2.711   1.806   3.001  0.7863  0.2180  0.0246
  115ANI     H1 2314   2.593   2.098   2.764 -0.8426  2.4580  2.4962
  115ANI     H2 2315   2.685   2.109   2.913  0.0436  0.4935 -0.3184
  115ANI     H3 2316   2.711   1.974   2.795 -1.9204 -0.8999 -3.4979
  115ANI     H4 2317   2.364   1.786   3.004  1.2735  0.2894 -1.7042
  115ANI     H5 2318   2.419   1.584   3.127  1.2028  0.9491  3.9128
  115ANI     H6 2319   2.674   1.516   3.164  1.7829  1.7982  1.4323
  115ANI     H7 2320   2.840   1.660   3.098  0.5447 -0.3601 -0.9514
  115ANI     H8 2321   2.791   1.875   2.978 -0.3913  1.2256 -1.1680
  116ANI     C1 2322   2.240   0.285   3.621 -0.6352 -0.2695  0.5402
  116ANI     O1 2323   2.285   0.320   3.757  0.1086  0.2583  0.4085
  116ANI     C2 2324   2.305   0.451   3.795  0.7611  0.3963  0.5137
  116ANI     C3 2325   2.374   0.536   3.709  0.0530 -0.3045 -1.0536
  116ANI     C4 2326   2.405   0.669   3.750 -0.4165  0.2580  0.2409
  116ANI     C5 2327   2.378   0.707   3.878 -0.4259 -0.1992 -0.4325
  116ANI     C6 2328   2.302   0.628   3.960 -0.8288 -0.7002 -0.0593
  116ANI     C7 2329   2.267   0.498   3.922 -0.6412  0.6141 -0.7344
  116ANI     H1 2330   2.304   0.345   3.554 -0.8568 -1.0215 -0.3610
  116ANI     H2 2331   2.255   0.178   3.602  3.2326  0.2756  0.1648
  116ANI     H3 2332   2.135   0.308   3.598 -0.7782 -1.3762  0.0681
  116ANI     H4 2333   2.413   0.516   3.610 -0.2431  0.5870 -1.3587
  116ANI     H5 2334   2.465   0.729   3.683 -2.4132  0.0021 -1.8320
  116ANI     H6 2335   2.422   0.798   3.918 -1.2258 -0.9914  2.3632
  116ANI     H7 2336   2.280   0.667   4.059  1.9748 -0.2623  0.4448
  116ANI     H8 2337   2.219   0.427   3.989  1.3752  1.3643  1.5824
  117ANI     C1 2338   0.650   1.575   2.915 -0.3024 -0.4877  0.1440
  117ANI     O1 2339   0.631   1.647   2.803 -0.0852 -0.7804 -0.0097
  117ANI     C2 2340   0.516   1.728   2.799  0.6219 -0.9103 -0.5274
  117ANI     C3 2341   0.447   1.765   2.919  0.6207  0.0729 -0.0652
  117ANI     C4 2342   0.337   1.848   2.915 -0.1880 -0.7006  0.2069
  117ANI     C5 2343   0.306   1.913   2.795  0.4217  0.5357 -0.3330
  117ANI     C6 2344   0.363   1.874   2.675  0.3354  1.2058  0.2559
  117ANI     C7 2345   0.465   1.778   2.677 -0.1606 -0.4382 -0.0472
  117ANI     H1 2346   0.673   1.642   2.998  1.1832  0.9303 -1.3753
  117ANI     H2 2347   0.559   1.518   2.939 -1.9189  0.1963 -3.8785
  117ANI     H3 2348   0.735   1.507   2.902  0.4451  0.0804  1.9026
  117ANI     H4 2349   0.470   1.734   3.020 -0.2125  3.2091  1.1580
  117ANI     H5 2350   0.287   1.877   3.007 -0.9277 -0.4457 -0.2723
  117ANI     H6 2351   0.233   1.992   2.784 -0.1197 -0.2687 -2.9942
  117ANI     H7 2352   0.339   1.927   2.583 -1.4499 -1.1942 -0.7024
  117ANI     H8 2353   0.513   1.749   2.584  0.7961  1.0826 -0.0491
  118ANI     C1 2354   0.394   0.928   3.728  0.3038  0.2870 -1.1516
  118ANI     O1 2355   0.516   0.856   3.714  0.5797  0.2731  0.2327
  118ANI     C2 2356   0.523   0.716   3.693  0.1423 -0.5713 -0.5644
  118ANI     C3 2357   0.410   0.633   3.687 -0.7368  0.7547 -0.2146
  118ANI     C4 2358   0.419   0.491   3.666 -0.3366 -0.2380  0.5155
  118ANI     C5 2359   0.546   0.441   3.661 -0.0707  0.2179  0.7670
  118ANI     C6 2360   0.659   0.519   3.669 -0.1794 -0.0012  0.2474
  118ANI     C7 2361   0.647   0.658   3.682  0.0465 -0.5256 -0.0273
  118ANI     H1 2362   0.343   0.920   3.631 -1.8711 -1.9610  0.1334
  118ANI     H2 2363   0.337   0.883   3.810  0.1212  3.7717  0.7165
  118ANI     H3 2364   0.412   1.030   3.763 -1.8912  0.1141  0.5830
  118ANI     H4 2365   0.314   0.681   3.700 -0.9840 -0.3689  2.3097
  118ANI     H5 2366   0.328   0.432   3.670 -0.0787 -0.6095  0.9054
  118ANI     H6 2367   0.556   0.334   3.646 -0.2246  0.4713 -1.2401
  118ANI     H7 2368   0.755   0.469   3.660  0.2758  0.9850 -0.5243
  118ANI     H8 2369   0.739   0.714   3.672 -0.3146  0.2076  0.6939
  119ANI     C1 2370   2.796   2.947   3.744 -1.1397  0.4623 -0.3642
  119ANI     O1 2371   2.923   2.872   3.753 -0.4871 -0.6000 -0.1864
  119ANI     C2 2372   2.964   2.784   3.656 -0.7042 -0.2457 -0.6001
  119ANI     C3 2373   3.084   2.716   3.673 -0.2770  0.1325  0.0702
  119ANI     C4 2374   3.136   2.628   3.577  0.5000  0.0768 -0.2398
  119ANI     C5 2375   3.076   2.603   3.455  0.2541 -0.4672 -0.1905
  119ANI     C6 2376   2.955   2.673   3.437  0.1533  0.3451 -0.2879
  119ANI     C7 2377   2.901   2.766   3.532  0.1035 -0.0022 -0.5841
  119ANI     H1 2378   2.788   3.032   3.813 -0.0751  0.1380  0.1655
  119ANI     H2 2379   2.783   2.990   3.644  1.9860 -0.5940 -1.2465
  119ANI     H3 2380   2.726   2.864   3.758  0.7301 -1.0565  0.0959
  119ANI     H4 2381   3.141   2.738   3.763  0.5392 -0.5036 -0.2861
  119ANI     H5 2382   3.233   2.589   3.608 -0.3601 -0.7319  1.4613
  119ANI     H6 2383   3.115   2.536   3.379  0.8982  1.7588 -1.8739
  119ANI     H7 2384   2.905   2.644   3.346 -1.3895  1.5362  0.1449
  119ANI     H8 2385   2.806   2.816   3.516 -1.0613 -1.1855  2.3128
  120ANI     C1 2386   0.942   1.727   0.634  0.2974 -0.4343 -0.2289
  120ANI     O1 2387   1.076   1.737   0.573 -0.2222 -0.3642  0.1306
  120ANI     C2 2388   1.106   1.688   0.450 -0.3623 -0.5764 -0.3105
  120ANI     C3 2389   1.230   1.704   0.390  0.5948  0.1448  0.3205
  120ANI     C4 2390   1.256   1.658   0.260 -0.3760 -0.3159  0.3751
  120ANI     C5 2391   1.160   1.582   0.187  0.7944  0.0341 -0.2601
  120ANI     C6 2392   1.037   1.566   0.246  0.1574 -0.5149  0.2466
  120ANI     C7 2393   1.008   1.623   0.374 -0.4117 -0.2915  0.1804
  120ANI     H1 2394   0.892   1.630   0.624  0.6527 -0.8049  1.4197
  120ANI     H2 2395   0.940   1.758   0.739 -1.4027 -0.3900 -0.2687
  120ANI     H3 2396   0.868   1.791   0.585  1.5304  0.7307 -0.5963
  120ANI     H4 2397   1.306   1.759   0.444  1.9342  0.5044 -1.8555
  120ANI     H5 2398   1.348   1.683   0.206  0.7743 -0.9561  2.0129
  120ANI     H6 2399   1.172   1.555   0.082  2.3766  1.0837 -0.3715
  120ANI     H7 2400   0.962   1.516   0.186  1.5406 -0.6154 -1.4546
  120ANI     H8 2401   0.905   1.629   0.407 -0.1941  3.2526  0.4102
  121ANI     C1 2402   3.108   0.444   2.911  0.0850 -0.6607 -0.1658
  121ANI     O1 2403   2.989   0.411   2.994  0.0305  0.1124  0.1992
  121ANI     C2 2404   2.891   0.502   3.027 -0.5240 -0.0613  0.0883
  121ANI     C3 2405   2.814   0.476   3.141 -0.5273 -0.2301 -0.9833
  121ANI     C4 2406   2.708   0.563   3.180  0.7156  0.9865 -0.0222
  121ANI     C5 2407   2.689   0.683   3.113  0.1088  0.0850  0.3835
  121ANI     C6 2408   2.766   0.717   2.997  0.1976  0.2716  0.8141
  121ANI     C7 2409   2.862   0.618   2.952  0.0804  0.1259 -0.5556
  121ANI     H1 2410   3.152   0.352   2.872 -1.1235 -1.5623  0.5873
  121ANI     H2 2411   3.089   0.509   2.824  1.0192 -1.5956 -1.0835
  121ANI     H3 2412   3.185   0.492   2.973  0.7790  1.3707 -2.4669
  121ANI     H4 2413   2.821   0.383   3.196 -1.5263  0.5113  0.4508
  121ANI     H5 2414   2.642   0.541   3.264  0.7223  1.3130  0.0699
  121ANI     H6 2415   2.603   0.744   3.140  0.3539  0.5023  0.2204
  121ANI     H7 2416   2.754   0.807   2.937 -1.0124 -0.7681 -0.5642
  121ANI     H8 2417   2.920   0.638   2.862 -0.5369  0.9284 -0.7795
  122ANI     C1 2418   2.501   3.326   3.668 -0.1279  0.1807  0.1299
  122ANI     O1 2419   2.620   3.340   3.744  0.1585  0.4336 -0.2765
  122ANI     C2 2420   2.628   3.437   3.835 -0.4774 -0.3853  0.0264
  122ANI     C3 2421   2.542   3.549   3.832  0.0754  0.5960 -0.2007
  122ANI     C4 2422   2.564   3.655   3.920  0.1301  0.7649  0.1677
  122ANI     C5 2423   2.665   3.644   4.020 -0.0917  0.2721  0.6666
  122ANI     C6 2424   2.751   3.534   4.012  0.0619 -0.1308 -0.2499
  122ANI     C7 2425   2.726   3.419   3.934  0.5890 -0.1538  0.4622
  122ANI     H1 2426   2.475   3.409   3.602  1.1088  1.1291  0.8330
  122ANI     H2 2427   2.522   3.236   3.609  2.3090  1.5581 -1.1569
  122ANI     H3 2428   2.414   3.304   3.732 -0.1047 -0.7664 -0.1582
  122ANI     H4 2429   2.459   3.553   3.762 -0.5767 -0.4489  0.4973
  122ANI     H5 2430   2.511   3.749   3.911  1.7143  1.5625 -1.2976
  122ANI     H6 2431   2.688   3.731   4.081  1.4440 -1.6427  2.8934
  122ANI     H7 2432   2.827   3.521   4.088 -1.1354 -0.4517  0.8938
  122ANI     H8 2433   2.792   3.333   3.933  0.2318 -0.4326  0.8016
  123ANI     C1 2434   2.621   2.936   2.671  0.0388 -0.1098 -0.4906
  123ANI     O1 2435   2.520   2.978   2.771  0.3819 -0.0370  0.2141
  123ANI     C2 2436   2.383   3.005   2.746 -0.0563 -0.6971 -1.1168
  123ANI     C3 2437   2.309   3.059   2.858  0.0620  0.0236  0.6693
  123ANI     C4 2438   2.177   3.107   2.834 -0.0275  0.4174  0.3535
  123ANI     C5 2439   2.117   3.080   2.707  0.3949  0.8159  0.0320
  123ANI     C6 2440   2.196   3.035   2.603 -0.5993  0.3279 -0.5584
  123ANI     C7 2441   2.329   3.000   2.617  0.2688  0.0473  0.0771
  123ANI     H1 2442   2.715   2.922   2.726 -0.1295  0.2677 -0.1018
  123ANI     H2 2443   2.584   2.843   2.626 -0.3539 -0.2542  0.1271
  123ANI     H3 2444   2.641   3.017   2.600 -0.6567  1.5398  1.1560
  123ANI     H4 2445   2.360   3.078   2.952 -2.1994 -2.3113  2.4487
  123ANI     H5 2446   2.114   3.145   2.914 -1.1760  3.6664 -2.0078
  123ANI     H6 2447   2.009   3.071   2.698  0.3104  0.0993  1.7173
  123ANI     H7 2448   2.149   3.020   2.506 -0.2067  1.5591 -0.9523
  123ANI     H8 2449   2.378   2.956   2.531  1.9725  0.0744  0.9895
  124ANI     C1 2450   2.758   1.117   1.397 -0.5703 -0.2275 -0.1422
  124ANI     O1 2451   2.760   1.230   1.495  0.0303 -0.4267  0.5456
  124ANI     C2 2452   2.733   1.358   1.449  0.4253  0.5808  0.3877
  124ANI     C3 2453   2.679   1.446   1.539 -0.3564  0.2399 -0.2842
  124ANI     C4 2454   2.649   1.574   1.499 -0.0577  0.1384 -0.5250
  124ANI     C5 2455   2.674   1.613   1.374 -0.3364 -0.2119  0.2502
  124ANI     C6 2456   2.730   1.529   1.276  0.0423  0.5355 -0.4927
  124ANI     C7 2457   2.755   1.398   1.314 -0.4027 -0.0681  0.2749
  124ANI     H1 2458   2.807   1.140   1.302 -1.7685 -0.0323 -0.7213
  124ANI     H2 2459   2.792   1.018   1.430 -0.5413 -0.3044 -0.3982
  124ANI     H3 2460   2.657   1.094   1.361  0.0512 -1.8819 -0.8829
  124ANI     H4 2461   2.658   1.412   1.640  0.4560  2.7231  0.7566
  124ANI     H5 2462   2.611   1.647   1.569  0.8278 -0.2342  0.3599
  124ANI     H6 2463   2.646   1.717   1.359 -0.9156 -0.2456  1.0396
  124ANI     H7 2464   2.755   1.568   1.177  0.4803  0.2608 -0.4913
  124ANI     H8 2465   2.794   1.330   1.239  1.4628  0.7383  0.4985
  125ANI     C1 2466   2.337   0.149   0.347 -0.3530 -0.6504 -0.8986
  125ANI     O1 2467   2.358   0.278   0.392  0.1283  0.1480 -0.5493
  125ANI     C2 2468   2.249   0.345   0.455  0.8646 -0.2623 -0.1700
  125ANI     C3 2469   2.117   0.307   0.430 -0.2135  0.2326  0.1381
  125ANI     C4 2470   2.012   0.373   0.490 -0.9732  0.2314  0.0723
  125ANI     C5 2471   2.046   0.481   0.569 -0.0928  0.1741  0.7448
  125ANI     C6 2472   2.177   0.527   0.588  0.0476 -0.2052  0.1114
  125ANI     C7 2473   2.285   0.460   0.522 -0.0062 -0.3548  0.0381
  125ANI     H1 2474   2.275   0.146   0.256  0.0806  1.1355 -1.2643
  125ANI     H2 2475   2.437   0.115   0.317  0.6252  0.4637  1.0045
  125ANI     H3 2476   2.304   0.075   0.421  2.1834  0.6821  1.6403
  125ANI     H4 2477   2.078   0.240   0.353  2.7442  1.0718 -2.1718
  125ANI     H5 2478   1.909   0.346   0.473 -0.7836 -0.4054 -0.0742
  125ANI     H6 2479   1.963   0.537   0.612 -0.9130  0.9153 -1.6939
  125ANI     H7 2480   2.196   0.605   0.661  3.8065  2.0564 -3.0393
  125ANI     H8 2481   2.390   0.489   0.523 -0.2456  0.5376 -0.3842
  126ANI     C1 2482   2.153   1.934   3.449  0.2360  0.4493  0.1952
  126ANI     O1 2483   2.166   1.984   3.584  0.3123 -0.1857 -0.1571
  126ANI     C2 2484   2.049   1.986   3.661  0.2647  0.2360  0.0256
  126ANI     C3 2485   1.926   1.980   3.598 -0.7363 -0.0633 -0.0551
  126ANI     C4 2486   1.809   1.972   3.679  0.4621  0.2977  0.2217
  126ANI     C5 2487   1.813   1.990   3.815  0.7457 -0.1104  0.1157
  126ANI     C6 2488   1.933   2.003   3.881 -0.0405  0.6422  0.1900
  126ANI     C7 2489   2.053   2.000   3.800 -0.4342 -0.0805 -0.8495
  126ANI     H1 2490   2.101   1.837   3.453  0.3732  0.3310 -0.8238
  126ANI     H2 2491   2.094   2.008   3.394 -0.2982 -0.0615  0.0708
  126ANI     H3 2492   2.251   1.921   3.402 -0.7941 -1.6424 -1.4427
  126ANI     H4 2493   1.916   1.982   3.490 -0.7698 -0.7254 -0.0656
  126ANI     H5 2494   1.711   1.977   3.632  0.1795 -2.0936  0.4692
  126ANI     H6 2495   1.718   1.987   3.867  2.5714  2.2660  3.7838
  126ANI     H7 2496   1.933   2.018   3.988  0.0674 -2.9656  0.7604
  126ANI     H8 2497   2.149   2.019   3.848 -0.8852  2.2381 -0.7931
  127ANI     C1 2498   0.113   1.625   2.698  0.6632  1.0965 -0.4049
  127ANI     O1 2499   0.061   1.733   2.623 -0.0804 -0.1531  0.9148
  127ANI     C2 2500  -0.064   1.782   2.633  1.2346  0.3832  0.2009
  127ANI     C3 2501  -0.170   1.714   2.697  0.1210  0.0248 -0.2754
  127ANI     C4 2502  -0.291   1.777   2.730 -0.2440  0.1888 -0.5479
  127ANI     C5 2503  -0.318   1.904   2.682  0.0258  0.0315  0.4408
  127ANI     C6 2504  -0.213   1.974   2.613  0.0398  0.5355  0.1305
  127ANI     C7 2505  -0.089   1.914   2.588  0.1822  0.2825 -0.5478
  127ANI     H1 2506   0.220   1.619   2.674  0.5499  1.8722 -1.1468
  127ANI     H2 2507   0.098   1.640   2.806  0.9593  1.0342 -0.3529
  127ANI     H3 2508   0.062   1.530   2.682  1.9326 -0.3097  3.1887
  127ANI     H4 2509  -0.157   1.610   2.726 -1.9285 -0.2943 -0.4257
  127ANI     H5 2510  -0.362   1.720   2.789  0.6487 -0.2842  0.0842
  127ANI     H6 2511  -0.415   1.945   2.709 -0.7528 -2.2368  1.1475
  127ANI     H7 2512  -0.229   2.066   2.558 -0.8781  0.2693 -0.0652
  127ANI     H8 2513  -0.010   1.969   2.538  1.0817  0.6483  1.2164
  128ANI     C1 2514   0.357   1.595   1.264 -0.1665 -0.3190  0.6372
  128ANI     O1 2515   0.333   1.552   1.123 -0.2515  0.1992 -0.4910
  128ANI     C2 2516   0.224   1.587   1.053  0.0590 -0.1968  0.2123
  128ANI     C3 2517   0.208   1.527   0.932 -0.2123  0.0077 -0.3178
  128ANI     C4 2518   0.089   1.546   0.861 -0.4860  0.2974  0.3381
  128ANI     C5 2519  -0.004   1.642   0.907  0.1983  0.7905  0.7681
  128ANI     C6 2520   0.014   1.710   1.025  0.6198  0.4358  0.4508
  128ANI     C7 2521   0.127   1.678   1.104 -0.4719  0.4029  0.3609
  128ANI     H1 2522   0.261   1.582   1.315 -0.7945  1.1754 -0.1533
  128ANI     H2 2523   0.430   1.529   1.312  1.8306  2.8842  2.1984
  128ANI     H3 2524   0.395   1.698   1.269 -0.2529 -0.2070 -0.9252
  128ANI     H4 2525   0.279   1.451   0.901  1.4719  1.1440  0.6707
  128ANI     H5 2526   0.080   1.480   0.775  1.4649 -1.4846  1.4612
  128ANI     H6 2527  -0.094   1.664   0.850  1.3732  0.5305 -1.2131
  128ANI     H7 2528  -0.055   1.786   1.059  1.8830  1.6376  0.3673
  128ANI     H8 2529   0.155   1.737   1.190  1.7313  1.8899 -1.3125
  129ANI     C1 2530   2.309   1.136   3.061 -0.7095  0.5665 -0.7405
  129ANI     O1 2531   2.418   1.217   3.018  0.4259 -0.2434  0.1168
  129ANI     C2 2532   2.550   1.185   3.041 -0.1334 -0.2219 -0.3005
  129ANI     C3 2533   2.660   1.265   2.994  0.6318  0.3422  0.0810
  129ANI     C4 2534   2.790   1.234   3.022  0.1483  0.1211  0.2119
  129ANI     C5 2535   2.818   1.109   3.089 -0.2183  0.6752  0.3936
  129ANI     C6 2536   2.714   1.036   3.143 -0.3450  0.3409  0.9736
  129ANI     C7 2537   2.580   1.070   3.119  1.3172  0.8186 -0.2648
  129ANI     H1 2538   2.213   1.180   3.034  0.4556  2.6433 -1.5859
  129ANI     H2 2539   2.314   1.035   3.019  4.1747  0.0099  0.8566
  129ANI     H3 2540   2.305   1.124   3.170 -0.9278 -2.0317 -1.0009
  129ANI     H4 2541   2.646   1.351   2.930 -0.0333 -1.2394 -1.9529
  129ANI     H5 2542   2.871   1.294   2.982  2.0329 -0.4510  3.0316
  129ANI     H6 2543   2.920   1.085   3.116 -0.0646  0.3529 -0.4625
  129ANI     H7 2544   2.737   0.944   3.196  0.0428 -0.2911 -0.2804
  129ANI     H8 2545   2.509   0.999   3.160  0.3588  0.6519 -2.1790
  130ANI     C1 2546   1.277   1.251   0.485  1.1098 -0.4567 -0.0044
  130ANI     O1 2547   1.326   1.127   0.533 -0.2964  0.7726 -0.1412
  130ANI     C2 2548   1.254   1.043   0.615  0.4255  1.2089 -0.1046
  130ANI     C3 2549   1.315   0.920   0.655  0.4929  0.1744  0.0079
  130ANI     C4 2550   1.244   0.824   0.735 -0.4359 -0.4577 -1.3859
  130ANI     C5 2551   1.111   0.859   0.771  0.0456  0.2903  0.2163
  130ANI     C6 2552   1.053   0.980   0.735 -0.3070  0.0066  0.1903
  130ANI     C7 2553   1.118   1.072   0.654  0.1490  0.9177 -0.6865
  130ANI     H1 2554   1.339   1.288   0.402  2.5594 -0.0128  1.2665
  130ANI     H2 2555   1.170   1.241   0.460  1.1086 -0.8076  0.1317
  130ANI     H3 2556   1.280   1.327   0.564  1.1136  0.3932 -0.8081
  130ANI     H4 2557   1.420   0.905   0.634  0.5934  0.8440  0.0256
  130ANI     H5 2558   1.289   0.728   0.759  0.4519 -0.3537 -2.5844
  130ANI     H6 2559   1.057   0.797   0.842  0.5637  1.1777  1.4133
  130ANI     H7 2560   0.956   1.007   0.775  0.7199  1.2030  1.9266
  130ANI     H8 2561   1.069   1.166   0.629 -2.2722  0.1447  0.9190
  131ANI     C1 2562   0.484   0.438   0.505 -0.0429  0.8993  0.0683
  131ANI     O1 2563   0.427   0.542   0.586  0.3435  0.2708 -0.8006
  131ANI     C2 2564   0.372   0.657   0.532 -0.1441  0.2379  0.0267
  131ANI     C3 2565   0.394   0.699   0.402 -0.8731 -0.4378 -0.1202
  131ANI     C4 2566   0.338   0.820   0.350 -0.3451  0.3418 -0.0081
  131ANI     C5 2567   0.256   0.899   0.433  0.1613 -0.9018 -0.2000
  131ANI     C6 2568   0.225   0.852   0.562 -0.0250 -0.2447  0.4252
  131ANI     C7 2569   0.282   0.732   0.612  0.4757  0.0075  0.1346
  131ANI     H1 2570   0.408   0.386   0.446  1.6927 -0.2834 -1.2028
  131ANI     H2 2571   0.571   0.472   0.447  1.8182 -2.0667  0.9559
  131ANI     H3 2572   0.528   0.364   0.573 -0.1684  0.9984  0.2577
  131ANI     H4 2573   0.460   0.641   0.338  2.6190  2.2517  0.9192
  131ANI     H5 2574   0.349   0.853   0.247  1.5015 -1.2259 -0.3566
  131ANI     H6 2575   0.207   0.990   0.401  1.2138 -0.0225  0.6694
  131ANI     H7 2576   0.151   0.910   0.616 -1.1145 -0.0434 -1.2354
  131ANI     H8 2577   0.257   0.691   0.710 -0.2580  0.8697  0.3091
  132ANI     C1 2578   1.669   2.050   1.516  0.4943 -0.0053 -0.0012
  132ANI     O1 2579   1.713   2.192   1.523 -0.2770 -0.6344 -0.2634
  132ANI     C2 2580   1.846   2.229   1.544  0.4876  0.2224 -0.2350
  132ANI     C3 2581   1.867   2.361   1.558 -0.3438  0.0547 -0.0547
  132ANI     C4 2582   2.004   2.407   1.575  0.3822 -0.1921  0.0485
  132ANI     C5 2583   2.104   2.313   1.577  0.0674 -0.1445 -0.5427
  132ANI     C6 2584   2.080   2.177   1.562 -0.5149 -0.1011 -1.3354
  132ANI     C7 2585   1.948   2.132   1.543  0.0460 -0.0141  0.0476
  132ANI     H1 2586   1.737   1.993   1.452 -2.1973 -0.5687 -2.5238
  132ANI     H2 2587   1.666   2.012   1.619 -1.7758  0.6722  0.2265
  132ANI     H3 2588   1.568   2.037   1.474  1.0904 -2.0233 -0.8474
  132ANI     H4 2589   1.783   2.429   1.547 -0.8785 -0.7953 -1.3246
  132ANI     H5 2590   2.012   2.515   1.584  1.3217 -0.1383 -1.2899
  132ANI     H6 2591   2.208   2.344   1.579 -0.0535  0.2929 -1.0076
  132ANI     H7 2592   2.165   2.108   1.566 -1.0705 -0.7188  0.4019
  132ANI     H8 2593   1.929   2.027   1.521 -2.3925  0.2635  0.6552
  133ANI     C1 2594   1.445   0.991   2.270  0.1502  0.0988 -0.1330
  133ANI     O1 2595   1.300   0.981   2.273 -0.2384  0.2409  0.6041
  133ANI     C2 2596   1.227   1.094   2.264 -0.2622  0.2055 -0.0314
  133ANI     C3 2597   1.093   1.085   2.249 -0.4802  0.5116 -0.4088
  133ANI     C4 2598   1.014   1.199   2.246 -0.2770 -0.2092  0.3354
  133ANI     C5 2599   1.068   1.325   2.262 -0.4863  0.7382 -0.1842
  133ANI     C6 2600   1.209   1.330   2.283  0.7326  0.0071  0.0691
  133ANI     C7 2601   1.291   1.217   2.270  0.4358  0.3375  0.1098
  133ANI     H1 2602   1.508   0.902   2.263  1.5665  1.2117 -2.2235
  133ANI     H2 2603   1.470   1.047   2.179  1.4297 -0.6754 -0.2725
  133ANI     H3 2604   1.478   1.053   2.354  2.5222  0.6901 -1.4505
  133ANI     H4 2605   1.048   0.987   2.232  1.4715 -0.6766  0.9447
  133ANI     H5 2606   0.905   1.202   2.237 -0.4082 -2.0736  1.1112
  133ANI     H6 2607   1.008   1.416   2.264  0.0599  1.1162 -0.9587
  133ANI     H7 2608   1.248   1.432   2.282  2.0375 -0.4672 -2.1699
  133ANI     H8 2609   1.399   1.225   2.279  0.3256  1.1903  0.7672
  134ANI     C1 2610   2.735   2.835   0.288 -0.3507  0.0058  0.4602
  134ANI     O1 2611   2.878   2.873   0.262  0.5441  0.4714 -0.5044
  134ANI     C2 2612   2.930   2.995   0.287 -0.5798 -0.4039  0.1938
  134ANI     C3 2613   3.061   3.011   0.262  0.1606 -0.5466  1.2108
  134ANI     C4 2614   3.120   3.142   0.253 -0.1470 -0.2945  0.9667
  134ANI     C5 2615   3.042   3.249   0.300  0.1092 -0.1608  0.8625
  134ANI     C6 2616   2.908   3.232   0.337  0.0008 -0.6294 -0.2820
  134ANI     C7 2617   2.854   3.103   0.327 -0.2602 -0.7049  0.0656
  134ANI     H1 2618   2.726   2.728   0.266 -2.1455  0.3052 -0.3505
  134ANI     H2 2619   2.714   2.841   0.395  0.2783 -2.6474  0.7692
  134ANI     H3 2620   2.674   2.903   0.228 -1.5108 -1.8516 -0.4799
  134ANI     H4 2621   3.119   2.925   0.230  0.3352  0.7921 -2.3980
  134ANI     H5 2622   3.220   3.165   0.217  0.0446 -1.2739  0.8656
  134ANI     H6 2623   3.083   3.349   0.303 -1.4155  0.5331 -0.4965
  134ANI     H7 2624   2.861   3.310   0.396  0.7962 -0.0557 -0.4021
  134ANI     H8 2625   2.753   3.087   0.364 -0.2853  0.9262  0.7738
  135ANI     C1 2626   2.344   2.578   2.490  0.0192  0.7470  0.2730
  135ANI     O1 2627   2.396   2.463   2.566 -0.1116  0.1888 -0.4962
  135ANI     C2 2628   2.342   2.430   2.682  0.0575 -0.1447  0.3131
  135ANI     C3 2629   2.211   2.471   2.728 -0.3957 -0.5621 -0.7066
  135ANI     C4 2630   2.172   2.421   2.855 -1.0294  0.2145 -0.0296
  135ANI     C5 2631   2.251   2.339   2.937 -0.0137  0.1960  0.0733
  135ANI     C6 2632   2.369   2.294   2.889  0.4400 -0.0128  0.1026
  135ANI     C7 2633   2.415   2.343   2.764  0.3161  0.0280  0.2147
  135ANI     H1 2634   2.391   2.582   2.391  0.7796 -0.3821  0.5751
  135ANI     H2 2635   2.238   2.556   2.477  0.3322 -0.7107  0.0714
  135ANI     H3 2636   2.360   2.676   2.536 -1.8700  0.6806  1.1017
  135ANI     H4 2637   2.148   2.538   2.670  0.5293  0.3566 -0.6694
  135ANI     H5 2638   2.079   2.460   2.895 -2.8422 -1.3899 -2.5393
  135ANI     H6 2639   2.209   2.314   3.034 -3.5315  0.4177 -1.2942
  135ANI     H7 2640   2.440   2.236   2.948  1.1269 -1.1562 -1.7786
  135ANI     H8 2641   2.507   2.300   2.726 -0.7082 -1.2645 -0.8309
  136ANI     C1 2642   3.020   3.116   0.657 -0.3791 -0.4716 -0.5373
  136ANI     O1 2643   3.015   3.219   0.757  0.6035  0.1395  0.2144
  136ANI     C2 2644   2.959   3.196   0.884 -0.5107  0.7686 -0.0532
  136ANI     C3 2645   2.980   3.298   0.980 -0.8579  0.3946 -0.2987
  136ANI     C4 2646   2.938   3.274   1.113  0.1813  0.0155  0.9219
  136ANI     C5 2647   2.882   3.144   1.144  0.2831 -1.0419  0.6624
  136ANI     C6 2648   2.859   3.052   1.046 -0.1562  0.1980  0.0276
  136ANI     C7 2649   2.897   3.080   0.915 -0.1170 -0.3474 -0.4031
  136ANI     H1 2650   3.048   3.165   0.562 -2.4924  1.3649 -0.2765
  136ANI     H2 2651   3.083   3.030   0.681 -4.0150 -3.2629 -0.6041
  136ANI     H3 2652   2.917   3.081   0.646 -0.7427  0.7903 -1.3240
  136ANI     H4 2653   3.034   3.389   0.957  2.5424 -0.7010  3.0469
  136ANI     H5 2654   2.932   3.353   1.187  0.2755  1.6323 -0.7746
  136ANI     H6 2655   2.852   3.130   1.248 -0.7354 -2.2972  0.2192
  136ANI     H7 2656   2.822   2.952   1.069 -1.9696  0.3860 -1.9638
  136ANI     H8 2657   2.892   2.993   0.850  1.4896  0.2348 -1.3315
  137ANI     C1 2658   3.344   1.369   1.538 -0.3515 -0.1881 -0.1948
  137ANI     O1 2659   3.370   1.235   1.583 -0.4475 -0.6067  0.0848
  137ANI     C2 2660   3.487   1.162   1.566  0.0554 -0.1501 -0.6621
  137ANI     C3 2661   3.610   1.217   1.525 -0.6811  1.3795 -0.7418
  137ANI     C4 2662   3.729   1.140   1.525  0.4462 -0.2252 -0.2039
  137ANI     C5 2663   3.712   1.004   1.536  0.2324  0.5028  0.2356
  137ANI     C6 2664   3.587   0.942   1.563 -0.4878 -0.9218 -0.2855
  137ANI     C7 2665   3.481   1.029   1.589  0.0514  0.0448  0.3516
  137ANI     H1 2666   3.407   1.445   1.586 -1.4214 -2.1387  4.5507
  137ANI     H2 2667   3.360   1.376   1.429 -1.8035  2.0856 -0.3077
  137ANI     H3 2668   3.238   1.394   1.552 -0.2936  1.2520 -2.0394
  137ANI     H4 2669   3.609   1.321   1.494 -1.3338  1.2266 -1.2442
  137ANI     H5 2670   3.827   1.181   1.503  1.1366 -1.4713  0.4915
  137ANI     H6 2671   3.801   0.942   1.529  0.2734  0.8243 -2.8425
  137ANI     H7 2672   3.574   0.834   1.569 -0.6795 -0.9564 -1.2886
  137ANI     H8 2673   3.384   0.985   1.612 -0.3336  0.3430 -0.6986
  138ANI     C1 2674   2.149   2.833   2.232 -0.2209  0.0894  0.5022
  138ANI     O1 2675   2.278   2.771   2.234 -0.2507 -0.3090  0.0957
  138ANI     C2 2676   2.397   2.845   2.230  0.8413 -0.1763  0.1157
  138ANI     C3 2677   2.395   2.990   2.221  0.4051 -0.3735  0.4103
  138ANI     C4 2678   2.511   3.064   2.245 -1.3652  0.3400  0.4810
  138ANI     C5 2679   2.636   2.997   2.261  0.0659  0.3210 -0.0865
  138ANI     C6 2680   2.641   2.857   2.257  0.2970 -0.2263  0.5210
  138ANI     C7 2681   2.521   2.778   2.246 -0.2757 -0.1192  0.1827
  138ANI     H1 2682   2.072   2.755   2.225 -0.2525  0.2031 -0.4781
  138ANI     H2 2683   2.125   2.895   2.320 -0.2082 -0.2282  0.7315
  138ANI     H3 2684   2.129   2.898   2.145  1.7484 -2.0970 -1.6366
  138ANI     H4 2685   2.309   3.055   2.209  0.2353 -0.7904 -0.6727
  138ANI     H5 2686   2.507   3.173   2.252  0.1230  0.4597 -0.2561
  138ANI     H6 2687   2.728   3.054   2.255  0.5465 -0.5372 -0.8982
  138ANI     H7 2688   2.740   2.812   2.264 -0.0232 -0.9706  0.3872
  138ANI     H8 2689   2.524   2.670   2.245  0.5687 -0.1454 -3.4908
  139ANI     C1 2690   1.399   2.699   0.093 -0.3794 -0.2453 -0.5817
  139ANI     O1 2691   1.441   2.695  -0.042  0.0545  0.2821 -0.0008
  139ANI     C2 2692   1.491   2.798  -0.114  0.7744 -0.4919  0.1959
  139ANI     C3 2693   1.497   2.932  -0.065 -0.5465 -0.4449  0.1074
  139ANI     C4 2694   1.541   3.036  -0.149 -0.0214 -0.1160  0.2301
  139ANI     C5 2695   1.582   3.011  -0.279 -0.1933 -0.2054 -0.1598
  139ANI     C6 2696   1.566   2.877  -0.328 -0.3832 -0.2133  0.2081
  139ANI     C7 2697   1.519   2.776  -0.244  0.2865 -0.4025 -0.7327
  139ANI     H1 2698   1.477   2.709   0.169 -3.3558  0.6176  2.4678
  139ANI     H2 2699   1.325   2.776   0.120 -0.6235 -0.0442 -1.7809
  139ANI     H3 2700   1.345   2.604   0.107  1.6563 -0.9813  2.6392
  139ANI     H4 2701   1.470   2.949   0.039  1.5145  3.9712  0.0509
  139ANI     H5 2702   1.553   3.138  -0.113 -1.0121  0.4781 -1.1259
  139ANI     H6 2703   1.605   3.098  -0.340 -1.7876 -0.4674 -1.1612
  139ANI     H7 2704   1.595   2.861  -0.431 -0.5239 -0.7663  0.2538
  139ANI     H8 2705   1.535   2.674  -0.279  2.1887 -0.2747 -0.2741
  140ANI     C1 2706   0.085   0.289   2.887 -0.7913 -0.4988 -0.5746
  140ANI     O1 2707   0.172   0.309   2.781  0.4711 -0.5993  0.0635
  140ANI     C2 2708   0.230   0.208   2.714  0.2062  0.1905  0.3585
  140ANI     C3 2709   0.173   0.076   2.709 -0.0520  0.4184  0.3771
  140ANI     C4 2710   0.238  -0.025   2.648  0.6355  0.3588  0.3046
  140ANI     C5 2711   0.363  -0.003   2.580 -0.4245 -0.7021 -0.1672
  140ANI     C6 2712   0.420   0.125   2.585  0.7077  0.3430 -0.5327
  140ANI     C7 2713   0.345   0.232   2.643 -0.7319  0.3582 -0.6878
  140ANI     H1 2714  -0.007   0.242   2.851 -0.2790 -1.1201 -1.0691
  140ANI     H2 2715   0.124   0.245   2.980 -2.5732  0.5970  0.7257
  140ANI     H3 2716   0.049   0.387   2.922 -1.0546 -1.0670  0.7920
  140ANI     H4 2717   0.077   0.058   2.756  0.2173  1.5847  1.3912
  140ANI     H5 2718   0.192  -0.123   2.655 -0.2791  0.6391 -1.2971
  140ANI     H6 2719   0.406  -0.091   2.533 -1.2905 -1.9752  1.3777
  140ANI     H7 2720   0.518   0.142   2.542  0.2907 -1.2446 -2.1448
  140ANI     H8 2721   0.377   0.336   2.648  1.9449 -0.4739  0.0674
  141ANI     C1 2722   3.095   0.597   0.050 -0.1057  0.4986  0.5415
  141ANI     O1 2723   3.185   0.620   0.159 -0.4904 -0.0431  0.3374
  141ANI     C2 2724   3.305   0.551   0.165  0.2111  0.8735 -0.1483
  141ANI     C3 2725   3.375   0.557   0.282 -0.1787  0.0441  0.0832
  141ANI     C4 2726   3.503   0.504   0.291 -0.1341 -0.1783  0.0123
  141ANI     C5 2727   3.556   0.433   0.176  0.6440  0.0592 -0.2180
  141ANI     C6 2728   3.481   0.418   0.060 -0.2188  0.0930 -0.0306
  141ANI     C7 2729   3.357   0.479   0.053 -1.4107  0.0501  0.7488
  141ANI     H1 2730   3.055   0.497   0.028 -0.4165  0.5715  0.7588
  141ANI     H2 2731   3.005   0.659   0.059 -0.2916  0.2661  0.2877
  141ANI     H3 2732   3.137   0.636  -0.043  0.2425 -0.2715  0.3760
  141ANI     H4 2733   3.336   0.606   0.371  1.5616  1.3217  0.1693
  141ANI     H5 2734   3.566   0.518   0.378  2.0171 -1.9135 -1.2181
  141ANI     H6 2735   3.661   0.403   0.175 -0.2504 -3.3036  1.1427
  141ANI     H7 2736   3.530   0.376  -0.028  3.3157  1.8891  0.9850
  141ANI     H8 2737   3.299   0.489  -0.038  2.5340  0.3245 -1.8192
  142ANI     C1 2738   0.695   2.087   1.235 -0.0954 -0.3532 -0.0608
  142ANI     O1 2739   0.766   2.029   1.348 -0.0986 -0.1399  0.4026
  142ANI     C2 2740   0.897   1.983   1.347 -0.0645  0.5546  0.1676
  142ANI     C3 2741   0.982   1.994   1.233  0.1386 -0.1590 -0.5079
  142ANI     C4 2742   1.109   1.924   1.240  0.7998  0.6802 -0.8312
  142ANI     C5 2743   1.153   1.868   1.362  0.3763 -0.0814  0.3619
  142ANI     C6 2744   1.078   1.878   1.478 -0.4190 -0.4972 -0.2918
  142ANI     C7 2745   0.944   1.930   1.466  0.4730 -0.3757 -0.2036
  142ANI     H1 2746   0.707   2.015   1.153 -1.1094 -0.0019 -0.5251
  142ANI     H2 2747   0.589   2.102   1.262 -0.6560 -3.5128 -0.2988
  142ANI     H3 2748   0.736   2.184   1.205  0.4454 -0.5230  0.1239
  142ANI     H4 2749   0.936   2.025   1.140 -0.9199 -0.2265 -0.0146
  142ANI     H5 2750   1.163   1.915   1.146  1.0954  1.4932 -0.7400
  142ANI     H6 2751   1.247   1.813   1.364  0.2250 -0.4691 -2.3019
  142ANI     H7 2752   1.115   1.834   1.570  1.4761 -1.5406 -1.5254
  142ANI     H8 2753   0.881   1.936   1.555 -0.1528  0.5459 -0.7021
  143ANI     C1 2754   3.346   1.897   2.978 -0.1701 -0.8810 -0.4908
  143ANI     O1 2755   3.378   1.840   3.108 -0.4176  0.5877 -0.2621
  143ANI     C2 2756   3.325   1.893   3.219  0.3530 -0.0197 -0.4045
  143ANI     C3 2757   3.190   1.902   3.234 -0.0995 -0.3868 -0.0435
  143ANI     C4 2758   3.138   1.955   3.347 -0.0605 -0.3864  0.5685
  143ANI     C5 2759   3.220   2.006   3.451 -0.0301 -0.0702 -0.3833
  143ANI     C6 2760   3.358   2.000   3.430  0.3708  0.1468 -0.0295
  143ANI     C7 2761   3.415   1.942   3.317  0.1094  0.3729 -0.3904
  143ANI     H1 2762   3.395   1.995   2.971 -1.1666 -0.2036  1.5210
  143ANI     H2 2763   3.388   1.828   2.904 -0.8296 -0.6392 -1.0967
  143ANI     H3 2764   3.239   1.898   2.954 -0.1909 -1.5281 -0.4331
  143ANI     H4 2765   3.129   1.871   3.150  0.3203 -0.6962 -0.2373
  143ANI     H5 2766   3.030   1.962   3.355  0.0126 -0.8605  2.1050
  143ANI     H6 2767   3.177   2.058   3.536  2.6302 -0.2607  1.1535
  143ANI     H7 2768   3.421   2.044   3.507 -0.6965 -0.0343  0.9584
  143ANI     H8 2769   3.522   1.930   3.311  0.4827  2.3273  1.6945
  144ANI     C1 2770   1.163   2.298   2.272  0.0792 -0.6006 -0.3044
  144ANI     O1 2771   1.158   2.155   2.247 -0.4806  0.0311 -0.5807
  144ANI     C2 2772   1.279   2.079   2.249  0.1853 -0.2133 -0.3085
  144ANI     C3 2773   1.402   2.146   2.251  0.4983  0.0762  0.4286
  144ANI     C4 2774   1.525   2.064   2.251 -0.3571 -0.2348 -0.4038
  144ANI     C5 2775   1.515   1.928   2.252 -0.3526 -0.3620 -0.0026
  144ANI     C6 2776   1.396   1.864   2.254 -0.2198  0.2714  0.2669
  144ANI     C7 2777   1.278   1.939   2.249  0.3592  0.1293 -0.2792
  144ANI     H1 2778   1.066   2.343   2.246 -1.3484 -2.6334  1.3408
  144ANI     H2 2779   1.185   2.318   2.377  0.0793 -2.4292  0.0568
  144ANI     H3 2780   1.235   2.355   2.211  0.6798 -0.1254  0.8234
  144ANI     H4 2781   1.419   2.254   2.248 -3.1193  0.6954 -0.0067
  144ANI     H5 2782   1.616   2.124   2.244 -0.1428 -0.3652  1.1446
  144ANI     H6 2783   1.607   1.874   2.235  0.0404  0.5981 -1.0261
  144ANI     H7 2784   1.387   1.756   2.263 -1.3527  0.3185 -0.2654
  144ANI     H8 2785   1.180   1.892   2.247  0.4429 -0.1446  1.1358
  145ANI     C1 2786   1.943   0.330   1.276  0.1546  0.3045  0.1093
  145ANI     O1 2787   1.961   0.431   1.369  0.7586  0.4327 -0.3391
  145ANI     C2 2788   1.891   0.552   1.359 -0.0209  0.4766  0.3172
  145ANI     C3 2789   1.877   0.628   1.473 -0.2254  1.0335  0.5832
  145ANI     C4 2790   1.806   0.749   1.472 -0.0307 -0.3112  0.3738
  145ANI     C5 2791   1.756   0.805   1.349 -0.0960  0.3050  0.2291
  145ANI     C6 2792   1.779   0.728   1.234  0.9580 -0.1192 -0.2132
  145ANI     C7 2793   1.847   0.606   1.238  0.9070 -0.0491 -0.0771
  145ANI     H1 2794   1.856   0.265   1.291  1.6599 -1.6433  0.5261
  145ANI     H2 2795   1.933   0.371   1.175 -1.1112 -2.9978 -1.1429
  145ANI     H3 2796   2.029   0.262   1.272 -1.1338 -1.5833  2.7599
  145ANI     H4 2797   1.905   0.582   1.568  1.9993 -2.1186 -1.4751
  145ANI     H5 2798   1.788   0.809   1.561 -0.5492  0.5162 -0.2873
  145ANI     H6 2799   1.717   0.906   1.346 -0.6746  0.0520 -1.2160
  145ANI     H7 2800   1.748   0.773   1.140 -1.0031  0.4215  0.6569
  145ANI     H8 2801   1.857   0.548   1.146 -1.0930 -0.5802  0.0207
  146ANI     C1 2802   0.637   3.263   1.554  0.0588 -0.3438  0.0919
  146ANI     O1 2803   0.675   3.396   1.511 -0.3135 -0.1986 -0.1077
  146ANI     C2 2804   0.600   3.477   1.424 -0.1086  0.0792  0.4402
  146ANI     C3 2805   0.480   3.438   1.368 -0.0026  0.5867  0.4113
  146ANI     C4 2806   0.401   3.526   1.295  0.6124 -0.1035  0.5987
  146ANI     C5 2807   0.446   3.654   1.277 -0.0902  0.2565  0.3158
  146ANI     C6 2808   0.559   3.703   1.340 -0.6030  0.2971 -0.1953
  146ANI     C7 2809   0.636   3.611   1.417  0.2506 -0.1007  0.3087
  146ANI     H1 2810   0.635   3.200   1.465  0.8939  1.3130 -1.1325
  146ANI     H2 2811   0.706   3.211   1.622  0.0199  0.0858  0.4597
  146ANI     H3 2812   0.531   3.260   1.580  0.2748 -0.9228  0.9354
  146ANI     H4 2813   0.438   3.339   1.383 -0.1967  0.2024 -2.3203
  146ANI     H5 2814   0.302   3.498   1.261  1.1517 -0.6611 -0.5498
  146ANI     H6 2815   0.382   3.725   1.224 -0.6889 -1.5938 -1.5273
  146ANI     H7 2816   0.597   3.804   1.325  0.0960 -0.1068 -1.2218
  146ANI     H8 2817   0.723   3.639   1.476  1.1616 -4.1937  1.0338
  147ANI     C1 2818   0.856   1.303   0.405  0.1246  0.0740 -0.6922
  147ANI     O1 2819   0.885   1.322   0.543 -0.1211  0.0037 -0.0605
  147ANI     C2 2820   0.800   1.390   0.632 -0.0664 -0.1760  0.3739
  147ANI     C3 2821   0.665   1.407   0.598  0.6810  0.3056 -0.1110
  147ANI     C4 2822   0.583   1.477   0.691 -0.2195 -0.4789  0.0012
  147ANI     C5 2823   0.630   1.517   0.816 -0.3240  0.4414  0.4743
  147ANI     C6 2824   0.767   1.484   0.849 -0.4882  0.3686 -0.8066
  147ANI     C7 2825   0.850   1.422   0.760  0.4910 -0.2326  0.3656
  147ANI     H1 2826   0.813   1.389   0.352  1.9888  1.7088  0.3901
  147ANI     H2 2827   0.953   1.287   0.357  0.6121  0.4368  0.1526
  147ANI     H3 2828   0.790   1.218   0.382  0.6400 -0.2499 -0.9902
  147ANI     H4 2829   0.632   1.372   0.500  2.0181  0.2851 -0.5661
  147ANI     H5 2830   0.479   1.489   0.664 -0.0966 -0.9736 -0.7128
  147ANI     H6 2831   0.558   1.552   0.889 -0.1341 -2.7590  2.2758
  147ANI     H7 2832   0.810   1.500   0.948 -0.2958 -0.5076 -0.7504
  147ANI     H8 2833   0.952   1.404   0.790  0.0353 -1.1961  1.3880
  148ANI     C1 2834   0.060   0.339   1.249  0.6381  0.0645  0.2456
  148ANI     O1 2835  -0.034   0.237   1.210 -0.1049 -0.0780  0.4135
  148ANI     C2 2836  -0.007   0.159   1.102 -0.0105  0.2553  0.5983
  148ANI     C3 2837  -0.092   0.048   1.070 -0.1735  0.0825 -1.5746
  148ANI     C4 2838  -0.074  -0.031   0.954  0.5316 -0.2627  0.1153
  148ANI     C5 2839   0.026   0.003   0.860 -0.5841  0.0044  0.4549
  148ANI     C6 2840   0.115   0.108   0.892 -0.0966  0.1553  0.5498
  148ANI     C7 2841   0.096   0.189   1.004 -0.3850  1.0677  0.0806
  148ANI     H1 2842   0.107   0.408   1.177 -2.0578  0.2929 -1.3795
  148ANI     H2 2843   0.014   0.399   1.329 -0.0474  2.5872 -1.9544
  148ANI     H3 2844   0.148   0.281   1.280  0.7565  0.8706  1.4775
  148ANI     H4 2845  -0.174   0.023   1.137  0.5698 -0.7141 -0.9536
  148ANI     H5 2846  -0.145  -0.110   0.929  2.0532 -0.9462 -2.2797
  148ANI     H6 2847   0.046  -0.061   0.775  0.0418 -0.3154  0.8359
  148ANI     H7 2848   0.196   0.137   0.827  0.4689  0.6523  1.4703
  148ANI     H8 2849   0.153   0.279   1.025  0.8473 -0.3146  2.8866
  149ANI     C1 2850   0.968   3.107   2.270  0.1249  0.2963 -0.0439
  149ANI     O1 2851   1.053   3.000   2.217 -0.0142  0.2439  0.2835
  149ANI     C2 2852   1.021   2.871   2.231 -0.4646 -0.2524 -0.2346
  149ANI     C3 2853   0.899   2.830   2.287  0.3578 -0.0131  0.7736
  149ANI     C4 2854   0.863   2.697   2.303  0.0022 -0.1538  0.4375
  149ANI     C5 2855   0.958   2.592   2.270  0.1412  0.3515  0.1222
  149ANI     C6 2856   1.082   2.636   2.218  0.4757  0.1759 -0.3380
  149ANI     C7 2857   1.117   2.774   2.204 -0.3960  0.0680  0.4668
  149ANI     H1 2858   0.864   3.108   2.233  0.6477  1.6237 -1.5477
  149ANI     H2 2859   0.965   3.108   2.379 -1.1429 -3.7951  0.0640
  149ANI     H3 2860   1.006   3.206   2.244 -0.8954  0.4900 -0.8205
  149ANI     H4 2861   0.827   2.904   2.322  0.5174 -0.6801  2.5249
  149ANI     H5 2862   0.772   2.673   2.358  1.0637 -1.4102  1.6727
  149ANI     H6 2863   0.934   2.488   2.290 -0.8375  0.6531  0.5555
  149ANI     H7 2864   1.152   2.560   2.186 -0.6577 -0.2281 -1.8961
  149ANI     H8 2865   1.215   2.799   2.164 -1.1586  1.8885 -0.3465
  150ANI     C1 2866   0.020   1.546   3.461  0.0974 -0.4238  0.1781
  150ANI     O1 2867  -0.109   1.606   3.455  0.3111 -0.4420  0.0918
  150ANI     C2 2868  -0.223   1.532   3.416 -0.3822  0.0421 -0.0005
  150ANI     C3 2869  -0.227   1.397   3.380 -0.1713  0.0941 -0.0307
  150ANI     C4 2870  -0.342   1.340   3.329  0.1742  0.3477 -0.8150
  150ANI     C5 2871  -0.464   1.421   3.326 -0.0489  0.2774  0.3423
  150ANI     C6 2872  -0.462   1.554   3.362  0.5609 -0.0690  0.1596
  150ANI     C7 2873  -0.338   1.608   3.407  0.0023  1.1075  0.1202
  150ANI     H1 2874   0.021   1.446   3.506  0.2751 -0.8661 -0.7918
  150ANI     H2 2875   0.060   1.539   3.358  2.4843  0.3753  1.0062
  150ANI     H3 2876   0.089   1.615   3.511 -0.3759  0.3366 -0.2172
  150ANI     H4 2877  -0.134   1.341   3.385 -0.4596 -0.2751  1.8628
  150ANI     H5 2878  -0.342   1.234   3.304 -2.5954 -0.5352  2.5929
  150ANI     H6 2879  -0.562   1.382   3.301  0.6757 -0.6497 -1.1185
  150ANI     H7 2880  -0.554   1.611   3.356  0.2205 -0.6227  0.0306
  150ANI     H8 2881  -0.329   1.714   3.430 -0.7680  0.8507  1.7183
  151ANI     C1 2882   0.049   3.190   2.938  0.3396 -0.4204  0.2791
  151ANI     O1 2883  -0.023   3.281   2.865 -0.5522 -0.0396 -0.2474
  151ANI     C2 2884  -0.110   3.363   2.932  0.1688  0.0233 -0.3096
  151ANI     C3 2885  -0.076   3.436   3.052  0.3384 -0.2445  0.6825
  151ANI     C4 2886  -0.171   3.522   3.106  0.0498 -0.1905 -0.1912
  151ANI     C5 2887  -0.297   3.538   3.049  0.5703 -0.3662  0.3024
  151ANI     C6 2888  -0.333   3.462   2.938  0.4998  0.5148  0.6310
  151ANI     C7 2889  -0.238   3.373   2.885  0.0452 -0.1941  0.2591
  151ANI     H1 2890   0.113   3.131   2.871 -0.4835  1.9300 -2.6745
  151ANI     H2 2891   0.102   3.243   3.018 -1.4505 -1.4433  2.2309
  151ANI     H3 2892  -0.024   3.118   2.978 -0.1321 -0.3280 -0.4169
  151ANI     H4 2893   0.021   3.437   3.100  0.4080 -0.1193  0.5390
  151ANI     H5 2894  -0.145   3.579   3.195 -1.9688  0.6403 -0.1081
  151ANI     H6 2895  -0.373   3.612   3.070  0.1490 -0.8199  0.3945
  151ANI     H7 2896  -0.430   3.476   2.890  0.7614  0.9287  0.2234
  151ANI     H8 2897  -0.265   3.326   2.791 -2.2657 -0.7704  1.1676
  152ANI     C1 2898   0.855   2.453   0.560 -0.6690 -0.7233 -0.3372
  152ANI     O1 2899   0.868   2.423   0.699 -0.2504 -0.4163  0.5081
  152ANI     C2 2900   0.958   2.327   0.743 -0.1441  0.1790 -0.0133
  152ANI     C3 2901   0.992   2.325   0.874  0.1699 -0.2466  0.4706
  152ANI     C4 2902   1.068   2.225   0.928  0.6316  0.1214  0.0397
  152ANI     C5 2903   1.105   2.116   0.839  0.2728 -0.2752 -0.3579
  152ANI     C6 2904   1.081   2.116   0.700 -0.1853  0.7707  0.1672
  152ANI     C7 2905   1.002   2.223   0.651 -0.0944  0.1059 -0.1925
  152ANI     H1 2906   0.813   2.365   0.509  0.2932 -1.2129 -0.3021
  152ANI     H2 2907   0.804   2.548   0.541  0.6215  0.7824  3.3251
  152ANI     H3 2908   0.955   2.469   0.519 -0.6250  1.3654  0.5361
  152ANI     H4 2909   0.965   2.403   0.945  2.2292  1.5631 -0.7151
  152ANI     H5 2910   1.094   2.225   1.034 -1.5503 -1.2779  0.5974
  152ANI     H6 2911   1.160   2.031   0.880  1.3493 -0.8788 -2.9116
  152ANI     H7 2912   1.115   2.041   0.630 -0.1124  0.4687  0.5269
  152ANI     H8 2913   0.968   2.207   0.549  3.6128 -2.2470 -1.1950
  153ANI     C1 2914   3.335   1.068   0.817 -0.0570  0.3926 -0.0669
  153ANI     O1 2915   3.473   1.111   0.828  0.1373 -0.1696  0.0380
  153ANI     C2 2916   3.539   1.149   0.944 -1.1503  1.1942  0.7859
  153ANI     C3 2917   3.679   1.167   0.939 -0.2983 -0.0136 -0.1375
  153ANI     C4 2918   3.746   1.218   1.048  0.5902 -0.3896  0.6451
  153ANI     C5 2919   3.682   1.239   1.174 -0.5481 -0.6785  0.4996
  153ANI     C6 2920   3.539   1.213   1.183  0.0971 -0.4473 -0.1898
  153ANI     C7 2921   3.468   1.165   1.068 -0.4889 -0.2070  0.3685
  153ANI     H1 2922   3.254   1.137   0.844 -1.8640 -1.8739  0.4617
  153ANI     H2 2923   3.326   1.027   0.716 -0.3294 -0.2400  0.2142
  153ANI     H3 2924   3.308   0.984   0.882 -1.5561  0.6896 -0.2764
  153ANI     H4 2925   3.724   1.161   0.841  2.8701  2.1681  1.0959
  153ANI     H5 2926   3.848   1.253   1.034  1.0440 -1.6603  0.6488
  153ANI     H6 2927   3.733   1.273   1.264  0.1298 -0.6400  0.1013
  153ANI     H7 2928   3.496   1.234   1.281  0.9982 -1.9428  0.5309
  153ANI     H8 2929   3.360   1.153   1.063 -0.9553  3.4806 -0.0338
  154ANI     C1 2930   3.110   2.576   1.534 -0.1857 -0.5562  0.1716
  154ANI     O1 2931   3.230   2.502   1.524  0.1381  0.0231  0.3257
  154ANI     C2 2932   3.349   2.569   1.514  0.7145  0.1663  0.7083
  154ANI     C3 2933   3.356   2.701   1.454 -0.4525  0.3775  0.1471
  154ANI     C4 2934   3.484   2.761   1.443 -0.0921 -0.8011  0.6273
  154ANI     C5 2935   3.596   2.701   1.492 -0.1874 -0.8013 -0.0982
  154ANI     C6 2936   3.588   2.575   1.554  0.6197 -0.5253 -0.3219
  154ANI     C7 2937   3.465   2.511   1.558 -0.4416  0.9731  0.4680
  154ANI     H1 2938   3.113   2.646   1.618  1.2212 -0.8394  0.3758
  154ANI     H2 2939   3.078   2.634   1.446  0.1865 -0.2675  0.2269
  154ANI     H3 2940   3.027   2.511   1.565  0.1589 -0.2691  1.7307
  154ANI     H4 2941   3.276   2.757   1.407 -0.4283 -0.2139 -0.6089
  154ANI     H5 2942   3.497   2.863   1.407  1.4286  0.0205  3.2767
  154ANI     H6 2943   3.687   2.761   1.498 -1.4702  1.0950  0.5989
  154ANI     H7 2944   3.673   2.521   1.595 -0.0771 -2.4273 -1.3572
  154ANI     H8 2945   3.458   2.411   1.598  0.2077 -0.3252 -2.6011
  155ANI     C1 2946   3.261   2.104   1.528  0.3946 -0.1517 -0.2912
  155ANI     O1 2947   3.173   2.005   1.581 -0.0835  0.7821 -0.2647
  155ANI     C2 2948   3.165   1.875   1.533  0.3697 -0.0025 -0.3126
  155ANI     C3 2949   3.253   1.818   1.445  0.4488  0.4128  0.6985
  155ANI     C4 2950   3.225   1.688   1.386  0.2493 -0.3004  0.1155
  155ANI     C5 2951   3.101   1.627   1.422  0.0787 -0.3342  0.2873
  155ANI     C6 2952   3.013   1.682   1.517  0.7156 -0.9796  0.6574
  155ANI     C7 2953   3.053   1.803   1.572  0.5041 -0.1280  0.5004
  155ANI     H1 2954   3.281   2.088   1.421 -1.0254  1.8583 -0.8878
  155ANI     H2 2955   3.222   2.207   1.531  0.8214  0.0117 -0.3810
  155ANI     H3 2956   3.355   2.099   1.584  0.3916 -0.8657 -0.3385
  155ANI     H4 2957   3.346   1.864   1.413  0.3665  0.4178  0.4631
  155ANI     H5 2958   3.293   1.634   1.322  0.0144 -1.3397  0.7221
  155ANI     H6 2959   3.082   1.530   1.375  0.3086 -1.0315  1.6198
  155ANI     H7 2960   2.919   1.631   1.537  0.4986 -1.5130 -1.5930
  155ANI     H8 2961   2.985   1.852   1.641  1.3884  0.0181  1.2618
  156ANI     C1 2962   2.580   0.889   1.565  0.1085  0.5812 -0.1577
  156ANI     O1 2963   2.624   0.754   1.576 -0.3792  0.3481 -0.0032
  156ANI     C2 2964   2.559   0.640   1.534  1.1968  0.0813  0.0185
  156ANI     C3 2965   2.424   0.649   1.499  0.5667  0.3280 -0.3696
  156ANI     C4 2966   2.357   0.535   1.462 -0.4136  0.6320  0.5820
  156ANI     C5 2967   2.415   0.410   1.451 -0.4095  0.4064  1.2027
  156ANI     C6 2968   2.556   0.398   1.487  0.1374 -0.0780  0.0561
  156ANI     C7 2969   2.630   0.520   1.521  0.8654  0.0873 -0.2813
  156ANI     H1 2970   2.663   0.952   1.598  0.5542 -0.9334  1.7431
  156ANI     H2 2971   2.545   0.902   1.462 -1.5913 -1.8985  0.0629
  156ANI     H3 2972   2.485   0.895   1.619 -0.6572 -0.4419 -1.3757
  156ANI     H4 2973   2.369   0.742   1.487  0.6182  0.3922 -0.0958
  156ANI     H5 2974   2.253   0.527   1.432  0.2857 -0.9868 -1.5936
  156ANI     H6 2975   2.355   0.328   1.413  2.2123 -1.0141  0.0094
  156ANI     H7 2976   2.608   0.304   1.474  0.2504  0.2136 -1.8463
  156ANI     H8 2977   2.734   0.518   1.552  0.2938 -2.1314  1.6382
  157ANI     C1 2978   0.319   2.894   1.202 -0.0979  0.7796 -0.2011
  157ANI     O1 2979   0.346   2.985   1.315  0.1002  0.0408 -0.2691
  157ANI     C2 2980   0.264   3.085   1.350  0.2954 -0.1949 -0.9100
  157ANI     C3 2981   0.260   3.129   1.481 -0.1334  0.8155  0.0910
  157ANI     C4 2982   0.174   3.230   1.522  0.3613 -0.2892  0.0382
  157ANI     C5 2983   0.093   3.301   1.424  0.4324 -0.4026  0.3282
  157ANI     C6 2984   0.110   3.258   1.292  0.1251 -0.0632  0.3976
  157ANI     C7 2985   0.201   3.161   1.255  0.9165 -0.1946  0.7585
  157ANI     H1 2986   0.390   2.811   1.206  0.0909  0.9644  0.2769
  157ANI     H2 2987   0.214   2.860   1.204  1.6165 -5.0281 -1.3866
  157ANI     H3 2988   0.333   2.938   1.103 -1.0488  1.7546  0.0808
  157ANI     H4 2989   0.320   3.073   1.551 -2.2067  1.1086  2.1780
  157ANI     H5 2990   0.173   3.264   1.625  1.2224  0.0184 -0.0494
  157ANI     H6 2991   0.035   3.389   1.449 -1.1686 -1.4277  0.3358
  157ANI     H7 2992   0.053   3.319   1.222  0.1834  1.5721  1.7220
  157ANI     H8 2993   0.217   3.145   1.149  1.3594 -1.6406  1.0286
  158ANI     C1 2994   2.423   1.942   1.570 -0.7023 -0.4904 -0.6321
  158ANI     O1 2995   2.461   2.082   1.591  0.3959 -0.0200  0.1401
  158ANI     C2 2996   2.586   2.133   1.558 -0.1217 -0.2389  0.2012
  158ANI     C3 2997   2.598   2.278   1.548  0.7765 -0.1596  0.5874
  158ANI     C4 2998   2.726   2.339   1.559 -0.2236  0.3225 -0.6373
  158ANI     C5 2999   2.842   2.255   1.572 -0.2687 -0.1097 -0.7179
  158ANI     C6 3000   2.824   2.116   1.584  0.1014  0.1257  0.5165
  158ANI     C7 3001   2.699   2.052   1.578 -0.1086 -0.2352  0.2570
  158ANI     H1 3002   2.329   1.926   1.624  0.5510 -0.3127  1.6594
  158ANI     H2 3003   2.430   1.914   1.464 -3.0024 -2.9643 -0.2035
  158ANI     H3 3004   2.490   1.866   1.612 -0.3885 -1.7532 -3.3196
  158ANI     H4 3005   2.508   2.338   1.541  0.2362 -1.2070 -1.7214
  158ANI     H5 3006   2.735   2.447   1.570 -1.2774  0.2668  0.9221
  158ANI     H6 3007   2.943   2.293   1.583  0.1189 -1.1805 -0.4905
  158ANI     H7 3008   2.909   2.050   1.602 -1.5943 -2.7195 -1.5618
  158ANI     H8 3009   2.698   1.943   1.579 -1.1271 -0.2546 -1.4308
  159ANI     C1 3010   2.362   0.865   2.725  0.0568  0.6087  0.1662
  159ANI     O1 3011   2.433   0.872   2.603 -0.3154 -0.6538  0.0805
  159ANI     C2 3012   2.377   0.819   2.485 -0.0202  0.1367  0.4082
  159ANI     C3 3013   2.465   0.805   2.376 -0.2573 -0.1568  0.0873
  159ANI     C4 3014   2.425   0.755   2.252 -0.2900  0.2747 -0.0058
  159ANI     C5 3015   2.289   0.719   2.235  0.4826 -0.0814  0.2460
  159ANI     C6 3016   2.199   0.731   2.343 -1.0779  0.0761 -0.5863
  159ANI     C7 3017   2.244   0.784   2.462 -0.4852 -0.2266 -0.3291
  159ANI     H1 3018   2.429   0.911   2.799  1.2895  1.2585 -1.3023
  159ANI     H2 3019   2.266   0.917   2.723 -0.6993 -0.7815 -0.8824
  159ANI     H3 3020   2.336   0.762   2.751  0.7453  0.0216 -1.3756
  159ANI     H4 3021   2.572   0.824   2.381 -0.5343  1.8048 -1.0350
  159ANI     H5 3022   2.503   0.739   2.178  1.0592 -0.9382  1.6253
  159ANI     H6 3023   2.252   0.677   2.142 -0.7021  0.2711  0.5489
  159ANI     H7 3024   2.094   0.709   2.326 -0.8965  0.0371 -1.6601
  159ANI     H8 3025   2.172   0.792   2.543  1.7643  0.7800  1.6056
  160ANI     C1 3026   2.112   2.983   0.803 -0.3594 -0.1697  0.3923
  160ANI     O1 3027   2.079   2.847   0.844  0.4149 -0.0865 -0.7466
  160ANI     C2 3028   2.165   2.741   0.834  0.5272 -0.3981 -0.0107
  160ANI     C3 3029   2.120   2.611   0.874  0.0825  0.4491  0.2356
  160ANI     C4 3030   2.215   2.506   0.875  0.2050  0.4004 -0.4197
  160ANI     C5 3031   2.350   2.527   0.838 -0.1830  0.3570 -0.2345
  160ANI     C6 3032   2.385   2.646   0.783  0.2087  0.9485  0.2999
  160ANI     C7 3033   2.296   2.755   0.788 -0.3974  1.0056  0.8050
  160ANI     H1 3034   2.136   2.988   0.696 -0.5051 -0.0702  0.3645
  160ANI     H2 3035   2.035   3.059   0.816 -2.2300 -1.5821 -1.9387
  160ANI     H3 3036   2.192   3.029   0.862 -0.8919  2.7619 -1.1141
  160ANI     H4 3037   2.017   2.585   0.897  0.0479 -0.3611 -0.7708
  160ANI     H5 3038   2.185   2.410   0.916  0.6360  0.2419 -0.4734
  160ANI     H6 3039   2.428   2.452   0.836  0.6786  1.2965 -2.2438
  160ANI     H7 3040   2.487   2.658   0.746  0.1291 -0.1441 -0.2736
  160ANI     H8 3041   2.343   2.843   0.745  1.8126 -0.6825 -0.3037
  161ANI     C1 3042   3.222   0.605   1.311 -0.2045 -0.2446  0.1499
  161ANI     O1 3043   3.149   0.654   1.433 -0.0831  0.3627  0.0157
  161ANI     C2 3044   3.120   0.785   1.455 -0.4316  0.0781  0.1085
  161ANI     C3 3045   3.207   0.878   1.393  0.2689 -0.3297 -0.7038
  161ANI     C4 3046   3.192   1.009   1.427  0.5318 -0.4472 -0.0017
  161ANI     C5 3047   3.087   1.055   1.507  0.1497 -0.4285  0.4228
  161ANI     C6 3048   3.004   0.961   1.577 -0.4744  0.7909 -0.6364
  161ANI     C7 3049   3.019   0.823   1.538 -0.0510 -0.3057  0.0845
  161ANI     H1 3050   3.220   0.496   1.317  1.7773 -0.3094 -0.2913
  161ANI     H2 3051   3.166   0.638   1.223 -0.4630 -2.9745 -0.7501
  161ANI     H3 3052   3.324   0.646   1.312 -0.2957  0.0954 -2.3494
  161ANI     H4 3053   3.301   0.854   1.345  0.0599 -1.7738 -0.4091
  161ANI     H5 3054   3.264   1.086   1.400  2.0213 -1.6440  0.5169
  161ANI     H6 3055   3.071   1.163   1.511  1.0173 -0.2762 -0.0408
  161ANI     H7 3056   2.921   0.996   1.639 -0.1709  1.2960 -0.5068
  161ANI     H8 3057   2.954   0.752   1.587  0.6319  0.5632  2.2814
  162ANI     C1 3058   2.936   2.746   2.630  0.0488  0.4161  0.0210
  162ANI     O1 3059   2.997   2.866   2.681 -0.2040  0.2873  0.0361
  162ANI     C2 3060   3.016   2.883   2.815 -0.0075  0.3131  0.1770
  162ANI     C3 3061   2.951   2.807   2.918 -0.3414  0.1829  0.8129
  162ANI     C4 3062   2.959   2.847   3.056 -0.0521  0.3102  0.3463
  162ANI     C5 3063   3.061   2.943   3.092 -0.5876  0.2813 -0.2292
  162ANI     C6 3064   3.129   3.010   2.990  0.9805 -0.2981  0.1575
  162ANI     C7 3065   3.100   2.991   2.853 -0.4145 -0.2293 -0.3868
  162ANI     H1 3066   2.993   2.655   2.654  0.3168  1.4230  3.3897
  162ANI     H2 3067   2.835   2.736   2.671 -0.9059  4.0522 -1.2871
  162ANI     H3 3068   2.938   2.734   2.521 -1.3232  0.6551 -0.0318
  162ANI     H4 3069   2.876   2.732   2.895 -2.3254  1.5570  2.6015
  162ANI     H5 3070   2.890   2.802   3.127  0.0163  1.9808  1.5021
  162ANI     H6 3071   3.068   2.982   3.193 -3.1771  0.7875 -0.2134
  162ANI     H7 3072   3.179   3.104   3.010  0.9016  0.1813 -1.7540
  162ANI     H8 3073   3.153   3.043   2.774  0.9984  2.7041  2.3733
  163ANI     C1 3074   3.057   2.121   2.305  0.2622 -0.0763  0.3059
  163ANI     O1 3075   2.958   2.213   2.255  0.0427 -0.3717  0.1497
  163ANI     C2 3076   2.831   2.226   2.304 -0.1876  0.0167  0.1507
  163ANI     C3 3077   2.784   2.133   2.398  0.1112  0.1726  0.1013
  163ANI     C4 3078   2.659   2.147   2.449  0.4574  0.5382 -0.6628
  163ANI     C5 3079   2.577   2.256   2.406 -0.7567  0.8341 -0.3849
  163ANI     C6 3080   2.628   2.349   2.314 -0.2926 -0.7251 -0.0654
  163ANI     C7 3081   2.752   2.325   2.254 -0.1061 -1.0847 -0.0465
  163ANI     H1 3082   3.015   2.020   2.306 -1.0316  0.4565 -0.2788
  163ANI     H2 3083   3.147   2.115   2.243 -0.3560 -0.9737 -0.5156
  163ANI     H3 3084   3.094   2.149   2.405 -1.1922 -0.9967  1.1303
  163ANI     H4 3085   2.850   2.056   2.436  1.1083  0.6526 -0.6254
  163ANI     H5 3086   2.621   2.083   2.527  3.2533  2.0310  2.0298
  163ANI     H6 3087   2.474   2.263   2.442 -1.5541 -0.7213 -2.2786
  163ANI     H7 3088   2.580   2.445   2.297  0.4182 -0.6387 -1.7171
  163ANI     H8 3089   2.781   2.392   2.173 -0.9278  0.8828  1.2547
  164ANI     C1 3090   1.026   0.035   2.325  0.4349 -0.2660 -0.0299
  164ANI     O1 3091   0.917   0.123   2.362  0.3906 -0.2759  0.4325
  164ANI     C2 3092   0.789   0.098   2.316  0.1762 -0.2913 -0.1158
  164ANI     C3 3093   0.738  -0.022   2.268 -0.0130 -0.5634  0.0839
  164ANI     C4 3094   0.611  -0.033   2.225  0.1888 -0.9297  0.3725
  164ANI     C5 3095   0.526   0.076   2.225  0.8215  0.6701 -0.1260
  164ANI     C6 3096   0.576   0.194   2.280  0.3111  0.1535  1.0886
  164ANI     C7 3097   0.707   0.207   2.317 -0.9951  0.3226 -0.2128
  164ANI     H1 3098   1.015  -0.070   2.355  0.8918  0.4683  2.8506
  164ANI     H2 3099   1.035   0.047   2.216 -0.3774 -2.3897 -0.3664
  164ANI     H3 3100   1.120   0.069   2.369  0.5906  0.4379 -0.8849
  164ANI     H4 3101   0.801  -0.109   2.274  1.2482  0.4991  2.7072
  164ANI     H5 3102   0.585  -0.129   2.181  2.6690 -1.5102  0.1083
  164ANI     H6 3103   0.419   0.066   2.206  0.8169  0.5733 -0.0539
  164ANI     H7 3104   0.504   0.274   2.295  0.8084  0.2040  3.5311
  164ANI     H8 3105   0.732   0.298   2.369 -1.2893 -0.2231  0.8931
  165ANI     C1 3106   2.794   3.203   2.912 -0.4185  0.0714 -0.9281
  165ANI     O1 3107   2.788   3.339   2.865  0.0540  0.1833  0.2807
  165ANI     C2 3108   2.688   3.435   2.879 -0.0493  0.0491  0.2057
  165ANI     C3 3109   2.700   3.561   2.825  0.5775 -0.4983 -0.2966
  165ANI     C4 3110   2.595   3.651   2.830 -0.8218  0.2726 -0.3133
  165ANI     C5 3111   2.468   3.613   2.879 -0.4759  0.4838  0.1183
  165ANI     C6 3112   2.452   3.484   2.929 -0.0286  0.3637  0.3711
  165ANI     C7 3113   2.566   3.400   2.936  0.6024 -0.4022 -0.4971
  165ANI     H1 3114   2.696   3.160   2.887 -0.6687  0.2953 -0.3474
  165ANI     H2 3115   2.875   3.145   2.867  0.4193  2.2743 -2.3289
  165ANI     H3 3116   2.808   3.204   3.021 -1.0499  1.5995 -0.8452
  165ANI     H4 3117   2.791   3.599   2.779 -1.3691  0.0853 -3.8361
  165ANI     H5 3118   2.612   3.752   2.794  1.0680  0.0450 -0.0822
  165ANI     H6 3119   2.373   3.665   2.867 -1.4554 -1.4515 -0.8930
  165ANI     H7 3120   2.353   3.445   2.952 -0.0474  0.9350  1.2894
  165ANI     H8 3121   2.536   3.299   2.961 -1.0261  0.1506 -0.1774
  166ANI     C1 3122   1.404   1.983   3.479  0.2544 -0.0640 -0.1885
  166ANI     O1 3123   1.337   2.068   3.578  0.1579 -0.3466  0.0773
  166ANI     C2 3124   1.324   2.208   3.551 -0.1352 -0.1005 -0.6314
  166ANI     C3 3125   1.299   2.293   3.658 -0.8859  0.6398 -0.3159
  166ANI     C4 3126   1.274   2.428   3.635 -0.4373  0.0860 -0.2452
  166ANI     C5 3127   1.264   2.474   3.506 -0.7216  1.2691  0.2925
  166ANI     C6 3128   1.277   2.388   3.396  0.4773  0.3543  0.3687
  166ANI     C7 3129   1.310   2.256   3.418 -0.5383  1.0583  0.2098
  166ANI     H1 3130   1.332   1.948   3.404  0.0218 -0.8088  0.3743
  166ANI     H2 3131   1.479   2.049   3.433  1.4918 -2.2086 -1.3011
  166ANI     H3 3132   1.443   1.897   3.535  0.3889 -0.6966 -1.2502
  166ANI     H4 3133   1.299   2.257   3.760 -0.2793  0.5467 -0.3481
  166ANI     H5 3134   1.264   2.494   3.721 -1.5460  0.0411 -0.3396
  166ANI     H6 3135   1.234   2.577   3.485 -1.7140  1.2004  1.3196
  166ANI     H7 3136   1.271   2.425   3.295 -2.2903  0.7636  0.6325
  166ANI     H8 3137   1.316   2.186   3.335 -0.5261  0.6898  0.5164
  167ANI     C1 3138   1.308   0.342   2.840  0.6713 -0.0742  0.4601
  167ANI     O1 3139   1.423   0.253   2.834  0.0747  0.4579  0.5166
  167ANI     C2 3140   1.523   0.267   2.741 -0.5630 -1.1711 -0.5051
  167ANI     C3 3141   1.515   0.360   2.632 -0.0622 -0.1756  0.0248
  167ANI     C4 3142   1.621   0.364   2.539 -0.4967 -0.3028  0.8070
  167ANI     C5 3143   1.718   0.261   2.538  0.7311 -0.3330 -0.2580
  167ANI     C6 3144   1.722   0.167   2.641  0.1992  0.6000 -0.4721
  167ANI     C7 3145   1.620   0.167   2.741  0.4609  0.0717 -0.5491
  167ANI     H1 3146   1.266   0.345   2.739 -0.7191  0.2893  1.0328
  167ANI     H2 3147   1.235   0.308   2.914 -2.2012  0.0279 -2.2611
  167ANI     H3 3148   1.356   0.437   2.867  1.8400 -1.0694  1.9459
  167ANI     H4 3149   1.434   0.433   2.627 -0.4581 -0.6989 -1.6723
  167ANI     H5 3150   1.622   0.450   2.473 -0.0192 -0.6295  0.3786
  167ANI     H6 3151   1.797   0.260   2.464  0.1575  0.4397 -0.8906
  167ANI     H7 3152   1.790   0.083   2.632 -1.7181 -1.0048 -0.2861
  167ANI     H8 3153   1.606   0.083   2.808 -1.2135  0.9436  0.2342
  168ANI     C1 3154   2.354   0.326   3.210 -0.5388  0.1989 -0.2474
  168ANI     O1 3155   2.426   0.303   3.334 -0.2808  0.7485  0.0795
  168ANI     C2 3156   2.540   0.225   3.334  0.0329 -0.6937 -0.8621
  168ANI     C3 3157   2.612   0.198   3.217 -0.0390 -0.4977  0.0049
  168ANI     C4 3158   2.732   0.125   3.221  0.2408 -0.2624  0.2422
  168ANI     C5 3159   2.774   0.078   3.346 -0.1376 -1.0124 -0.1888
  168ANI     C6 3160   2.694   0.100   3.461  0.1436 -0.0696  0.5102
  168ANI     C7 3161   2.579   0.176   3.458 -0.5834  0.0996  0.3701
  168ANI     H1 3162   2.405   0.399   3.147  0.7166 -0.2831  0.1965
  168ANI     H2 3163   2.322   0.234   3.159  1.3886  0.7987 -2.5539
  168ANI     H3 3164   2.257   0.376   3.227 -1.3070 -1.6243  0.9370
  168ANI     H4 3165   2.584   0.249   3.125 -2.7731 -2.1471 -0.1297
  168ANI     H5 3166   2.789   0.103   3.131 -0.5902  0.7127 -0.5211
  168ANI     H6 3167   2.867   0.021   3.355  1.3609  1.4610  0.3621
  168ANI     H7 3168   2.725   0.050   3.551 -2.1280  0.3024  1.5332
  168ANI     H8 3169   2.521   0.193   3.548  0.1807  0.3136  0.8297
  169ANI     C1 3170   0.513   2.944   2.252  0.1133 -0.0933  0.7395
  169ANI     O1 3171   0.365   2.932   2.233 -0.3852  0.1396  0.3924
  169ANI     C2 3172   0.286   3.043   2.254 -0.7753  1.1001 -0.4826
  169ANI     C3 3173   0.333   3.167   2.307 -0.0424  0.3279  0.9103
  169ANI     C4 3174   0.229   3.261   2.336  0.4086 -0.3383 -0.4273
  169ANI     C5 3175   0.099   3.231   2.309 -0.2823 -0.3109 -0.6138
  169ANI     C6 3176   0.056   3.112   2.252 -0.5270 -0.0297  0.2774
  169ANI     C7 3177   0.148   3.017   2.231  0.0410  0.2988  0.2094
  169ANI     H1 3178   0.552   3.045   2.234 -1.6669  0.5596  0.4283
  169ANI     H2 3179   0.537   2.926   2.358 -1.5170 -0.4483  1.0558
  169ANI     H3 3180   0.566   2.869   2.192  4.4687  1.0992  2.8685
  169ANI     H4 3181   0.436   3.197   2.325  0.4736 -0.0653 -1.1690
  169ANI     H5 3182   0.244   3.356   2.385 -1.9351 -0.6194  0.9232
  169ANI     H6 3183   0.029   3.309   2.338  3.3234  2.3569  1.3700
  169ANI     H7 3184  -0.051   3.107   2.233 -0.3447  0.8832 -1.0071
  169ANI     H8 3185   0.113   2.932   2.174 -1.7086  0.8850  0.3770
  170ANI     C1 3186   1.912   2.425   2.274 -0.8013 -0.1861  0.3674
  170ANI     O1 3187   1.894   2.287   2.257  0.3232 -0.0085  0.1178
  170ANI     C2 3188   2.003   2.199   2.245  0.5027 -0.0888 -0.1664
  170ANI     C3 3189   2.131   2.247   2.220  0.3805 -0.1762  0.0561
  170ANI     C4 3190   2.240   2.156   2.209  0.0399  0.7399  0.0085
  170ANI     C5 3191   2.222   2.017   2.227  1.0629 -0.0434 -0.1712
  170ANI     C6 3192   2.087   1.968   2.243  0.8155  0.2846  0.3598
  170ANI     C7 3193   1.982   2.060   2.246 -0.5342  0.0370 -0.8122
  170ANI     H1 3194   1.977   2.482   2.206 -1.1115  0.4796  0.6211
  170ANI     H2 3195   1.816   2.478   2.266 -0.9145 -0.0382  2.3843
  170ANI     H3 3196   1.946   2.451   2.375 -1.5063  1.9210  0.0806
  170ANI     H4 3197   2.154   2.352   2.205  0.2434 -0.3562 -1.4440
  170ANI     H5 3198   2.341   2.189   2.186  0.7811 -0.1699  1.8573
  170ANI     H6 3199   2.303   1.944   2.228 -0.0098 -1.2336  1.2355
  170ANI     H7 3200   2.071   1.861   2.253  1.9207  0.0651 -0.1662
  170ANI     H8 3201   1.881   2.024   2.260 -0.8672  0.7224 -1.4685
  171ANI     C1 3202   2.969   3.292   3.708 -0.1322 -0.4274  0.1251
  171ANI     O1 3203   3.053   3.325   3.598 -0.0268  0.0012  0.1042
  171ANI     C2 3204   3.124   3.228   3.528  0.1196 -0.3942 -0.2895
  171ANI     C3 3205   3.142   3.098   3.581  0.2610  0.7122 -0.0268
  171ANI     C4 3206   3.224   3.010   3.505 -0.3989  0.0126  0.3900
  171ANI     C5 3207   3.280   3.042   3.386  0.3544  0.8963 -0.6053
  171ANI     C6 3208   3.260   3.163   3.329  0.1723  0.1013  0.0051
  171ANI     C7 3209   3.184   3.259   3.399  0.6665 -0.2144 -0.1348
  171ANI     H1 3210   2.934   3.380   3.763  2.0730  2.3380 -2.7514
  171ANI     H2 3211   2.892   3.229   3.662  2.0151 -1.9583 -1.4735
  171ANI     H3 3212   3.022   3.231   3.783 -0.9463 -1.2866  0.0193
  171ANI     H4 3213   3.096   3.064   3.672 -0.6437  0.6867 -0.4904
  171ANI     H5 3214   3.252   2.913   3.546 -2.1853 -1.4092 -1.6302
  171ANI     H6 3215   3.340   2.965   3.338  0.7247 -0.3184  1.7233
  171ANI     H7 3216   3.299   3.182   3.229  1.7473 -0.5486  0.4949
  171ANI     H8 3217   3.161   3.357   3.358 -0.5596 -0.0107  0.9996
  172ANI     C1 3218   0.336   1.492   3.693 -0.1528  0.6273  0.1307
  172ANI     O1 3219   0.293   1.427   3.570 -0.2424 -0.0625 -1.0271
  172ANI     C2 3220   0.357   1.322   3.515  0.2314  0.4868 -0.0018
  172ANI     C3 3221   0.463   1.248   3.578  0.8046  0.2203  1.0384
  172ANI     C4 3222   0.525   1.143   3.519  0.4919  0.4497 -0.2889
  172ANI     C5 3223   0.484   1.102   3.394 -0.3384  0.2122  0.0397
  172ANI     C6 3224   0.377   1.164   3.321 -0.1503 -0.6759  0.2850
  172ANI     C7 3225   0.315   1.280   3.386 -0.2804  0.2623  0.4384
  172ANI     H1 3226   0.312   1.432   3.782  0.6688  0.3558  0.1692
  172ANI     H2 3227   0.443   1.514   3.691 -0.2514  1.4923  2.3069
  172ANI     H3 3228   0.276   1.584   3.696  0.0156  0.7140  1.0869
  172ANI     H4 3229   0.484   1.258   3.684 -0.7863 -1.4229  1.5339
  172ANI     H5 3230   0.605   1.090   3.569 -1.0196 -0.4017  1.3150
  172ANI     H6 3231   0.525   1.010   3.354 -0.8223 -0.1868  0.4574
  172ANI     H7 3232   0.342   1.138   3.221  0.0474 -1.2501  0.3642
  172ANI     H8 3233   0.230   1.322   3.334 -0.3512  1.2359  1.3374
  173ANI     C1 3234   3.095   0.337   1.576 -0.0423  0.1266 -0.0487
  173ANI     O1 3235   3.209   0.258   1.609  0.1072 -0.1330  0.3424
  173ANI     C2 3236   3.342   0.295   1.587 -0.2717 -0.0984  0.3141
  173ANI     C3 3237   3.377   0.426   1.579 -0.0411  0.8549 -0.0636
  173ANI     C4 3238   3.510   0.458   1.559 -0.1766 -0.6588 -0.2564
  173ANI     C5 3239   3.602   0.352   1.546  0.3724 -0.2488 -0.1695
  173ANI     C6 3240   3.566   0.214   1.560 -0.2986  0.2059 -0.6525
  173ANI     C7 3241   3.432   0.189   1.583  0.3894  0.8460 -0.0991
  173ANI     H1 3242   3.106   0.432   1.629  1.6441 -0.2881  0.3975
  173ANI     H2 3243   3.102   0.379   1.475  3.9006 -0.5741 -0.1683
  173ANI     H3 3244   3.006   0.276   1.594 -0.1989  0.1761 -0.6490
  173ANI     H4 3245   3.299   0.501   1.592 -0.9322  0.1993 -1.4952
  173ANI     H5 3246   3.547   0.560   1.553  1.5797 -1.3067 -0.6777
  173ANI     H6 3247   3.704   0.378   1.518  0.5986 -0.6345  0.2856
  173ANI     H7 3248   3.641   0.136   1.557  0.0325  0.4082  1.4037
  173ANI     H8 3249   3.385   0.091   1.593 -2.1273  2.0016 -0.2432
  174ANI     C1 3250   1.357   0.264   3.485 -0.6545 -0.1805  0.4832
  174ANI     O1 3251   1.422   0.207   3.368 -0.7763 -0.1706  0.0336
  174ANI     C2 3252   1.351   0.138   3.274  0.0470 -0.8067 -0.2990
  174ANI     C3 3253   1.415   0.102   3.160  0.9453 -0.0321  0.8375
  174ANI     C4 3254   1.340   0.051   3.048  0.5930  0.0308  0.5419
  174ANI     C5 3255   1.205   0.018   3.069 -0.3081 -0.0517  0.0642
  174ANI     C6 3256   1.142   0.051   3.185 -0.0146 -0.8994 -0.2371
  174ANI     C7 3257   1.211   0.116   3.291  0.4193  0.6280 -0.3598
  174ANI     H1 3258   1.295   0.340   3.437 -0.1371 -0.4266 -0.5911
  174ANI     H2 3259   1.301   0.191   3.545  1.3741 -1.5914  0.7002
  174ANI     H3 3260   1.422   0.321   3.553  0.8832 -1.0419 -0.2377
  174ANI     H4 3261   1.519   0.128   3.141  0.9851 -0.7783 -0.0269
  174ANI     H5 3262   1.390   0.026   2.955 -1.0546  0.3838 -0.4631
  174ANI     H6 3263   1.146  -0.032   2.992 -0.8678  0.5630  0.0957
  174ANI     H7 3264   1.034   0.044   3.191 -0.0792  0.4931  0.4842
  174ANI     H8 3265   1.158   0.149   3.380 -0.2447  0.1313 -0.5616
  175ANI     C1 3266   2.735   0.965   2.698 -0.7265 -0.0486  0.0444
  175ANI     O1 3267   2.877   0.957   2.735 -0.0986 -0.2066  0.4030
  175ANI     C2 3268   2.965   1.060   2.726 -0.4809 -0.2235  0.5585
  175ANI     C3 3269   2.925   1.177   2.672  0.1331 -0.6761  0.2247
  175ANI     C4 3270   3.019   1.272   2.646  0.1324  0.2537 -0.2880
  175ANI     C5 3271   3.154   1.258   2.680  0.5736  0.2512 -0.2770
  175ANI     C6 3272   3.194   1.145   2.749 -0.1599 -0.4136  0.3006
  175ANI     C7 3273   3.094   1.047   2.776  0.4158  1.1276  0.4044
  175ANI     H1 3274   2.678   0.872   2.716  0.1938 -0.7762 -0.7463
  175ANI     H2 3275   2.697   1.057   2.744  1.3309  1.9075 -2.0972
  175ANI     H3 3276   2.719   0.976   2.590  0.7021 -0.8798 -0.2631
  175ANI     H4 3277   2.825   1.187   2.632 -0.7259 -1.3431  2.1830
  175ANI     H5 3278   2.987   1.359   2.589 -2.0040 -0.3947 -0.1171
  175ANI     H6 3279   3.220   1.341   2.654  0.0512  0.6696 -0.2790
  175ANI     H7 3280   3.296   1.133   2.783  0.2570 -0.7463 -1.0152
  175ANI     H8 3281   3.120   0.957   2.831  0.5693  1.8609  1.5495
  176ANI     C1 3282   3.075   2.950   2.264  0.0365  0.3929  0.7164
  176ANI     O1 3283   3.047   2.812   2.254 -0.3923 -0.1040  0.6972
  176ANI     C2 3284   3.147   2.715   2.246  0.1899  0.0562 -0.2557
  176ANI     C3 3285   3.098   2.579   2.245  0.3576 -0.3834 -0.1882
  176ANI     C4 3286   3.195   2.481   2.250 -0.3450  0.3488  0.6080
  176ANI     C5 3287   3.334   2.511   2.243  0.5234  0.0569 -0.3212
  176ANI     C6 3288   3.383   2.640   2.246 -0.1610 -0.4146 -0.0857
  176ANI     C7 3289   3.288   2.747   2.247 -0.3110 -0.3964 -0.2153
  176ANI     H1 3290   2.984   3.010   2.254  0.7313  1.5721  1.3918
  176ANI     H2 3291   3.112   2.963   2.367 -2.2600 -1.0779  1.7801
  176ANI     H3 3292   3.145   2.991   2.191 -0.5430  0.8001  0.3941
  176ANI     H4 3293   2.994   2.549   2.249  0.3394 -0.1740  1.3623
  176ANI     H5 3294   3.166   2.376   2.259 -1.1548  0.3647 -1.5795
  176ANI     H6 3295   3.405   2.431   2.261  2.8454  2.2820  0.7376
  176ANI     H7 3296   3.488   2.666   2.236 -0.1582 -0.8200 -1.1990
  176ANI     H8 3297   3.330   2.845   2.268  0.0257 -0.6274  0.1920
  177ANI     C1 3298   0.928   2.316   2.551 -0.4392  0.7351  0.0375
  177ANI     O1 3299   1.000   2.231   2.636  0.5058  0.1620 -0.8072
  177ANI     C2 3300   0.939   2.140   2.721  0.0265 -0.8970 -0.5647
  177ANI     C3 3301   0.806   2.156   2.765 -0.7728  0.8266  0.4249
  177ANI     C4 3302   0.757   2.067   2.858  0.0280  0.0979 -0.8832
  177ANI     C5 3303   0.830   1.951   2.888  0.3200 -0.3197 -0.2447
  177ANI     C6 3304   0.953   1.929   2.837 -0.1623 -0.0009  0.7874
  177ANI     C7 3305   1.013   2.029   2.764 -0.2886 -0.7293  0.3389
  177ANI     H1 3306   0.996   2.385   2.500  1.4182 -0.2951  1.0635
  177ANI     H2 3307   0.867   2.254   2.484 -1.9339 -0.2998  2.3102
  177ANI     H3 3308   0.856   2.371   2.613 -1.6249 -0.7039 -0.0393
  177ANI     H4 3309   0.746   2.243   2.738 -1.5445  0.3933  0.7044
  177ANI     H5 3310   0.651   2.074   2.878 -0.0379  1.2862 -1.6532
  177ANI     H6 3311   0.783   1.872   2.946 -1.1072  0.9170  0.3230
  177ANI     H7 3312   1.007   1.839   2.863 -3.7817 -1.5764  3.3510
  177ANI     H8 3313   1.117   2.026   2.735 -0.6610 -0.1593 -1.0882
  178ANI     C1 3314   0.533   3.298   3.581 -0.2666 -0.3958 -0.1445
  178ANI     O1 3315   0.598   3.362   3.692 -0.2870  0.0236 -0.1089
  178ANI     C2 3316   0.687   3.300   3.776  0.1608  0.5158  0.2003
  178ANI     C3 3317   0.702   3.165   3.776  0.3169  0.1589  0.6363
  178ANI     C4 3318   0.772   3.092   3.866 -0.2346 -0.0228 -1.2288
  178ANI     C5 3319   0.853   3.166   3.957 -0.8620  0.1944  0.7909
  178ANI     C6 3320   0.838   3.309   3.964 -0.1059 -0.0191  0.7818
  178ANI     C7 3321   0.757   3.374   3.869 -0.4187 -0.4947  0.1239
  178ANI     H1 3322   0.458   3.226   3.616 -1.0507  0.9594  1.0063
  178ANI     H2 3323   0.480   3.376   3.525 -0.4268 -0.0824  0.4455
  178ANI     H3 3324   0.617   3.263   3.519 -0.7319 -0.9567 -0.4668
  178ANI     H4 3325   0.653   3.119   3.690 -1.2631  2.2594  0.3661
  178ANI     H5 3326   0.771   2.984   3.858 -3.7630 -0.1559  0.4622
  178ANI     H6 3327   0.925   3.119   4.023  1.6418  0.6747 -1.5066
  178ANI     H7 3328   0.900   3.361   4.036 -0.3757 -1.4429  2.0880
  178ANI     H8 3329   0.755   3.482   3.856  2.3403 -0.2610  1.2358
  179ANI     C1 3330   0.605   0.208   0.994 -0.0638 -0.0677 -0.1929
  179ANI     O1 3331   0.512   0.105   1.010 -0.2833 -0.2295  0.1445
  179ANI     C2 3332   0.549  -0.024   1.037 -0.3241  1.0558  1.2365
  179ANI     C3 3333   0.466  -0.129   0.992  0.6539  1.0922 -0.9441
  179ANI     C4 3334   0.494  -0.263   1.031  0.9639 -0.5531  0.1158
  179ANI     C5 3335   0.615  -0.297   1.098 -0.5268 -0.7545 -0.9113
  179ANI     C6 3336   0.705  -0.191   1.129 -0.5038  0.2517  0.1043
  179ANI     C7 3337   0.672  -0.056   1.107  0.2035  0.3096 -0.6906
  179ANI     H1 3338   0.695   0.177   0.940 -0.3590 -1.7865  0.2958
  179ANI     H2 3339   0.561   0.291   0.937  2.4522 -0.0289 -2.1699
  179ANI     H3 3340   0.651   0.236   1.090 -0.7128 -0.3413  0.2023
  179ANI     H4 3341   0.375  -0.108   0.937 -0.4834 -1.6043 -0.1601
  179ANI     H5 3342   0.425  -0.342   1.003  2.2588 -1.4436 -0.5924
  179ANI     H6 3343   0.646  -0.399   1.119  2.3124  0.4034  0.7839
  179ANI     H7 3344   0.804  -0.215   1.168 -0.2635  0.3964 -0.4058
  179ANI     H8 3345   0.750   0.017   1.126  0.1210  0.5498 -1.2518
  180ANI     C1 3346   0.662   2.835   1.560 -0.2074 -0.7653 -0.1605
  180ANI     O1 3347   0.752   2.728   1.585 -0.0232  0.2104 -0.0718
  180ANI     C2 3348   0.724   2.592   1.581  0.7315 -0.9844 -0.1220
  180ANI     C3 3349   0.827   2.503   1.578  0.1649  0.1588  0.3108
  180ANI     C4 3350   0.797   2.369   1.570 -1.0783 -0.0053  0.4613
  180ANI     C5 3351   0.670   2.319   1.564 -0.1124 -0.5822 -0.6132
  180ANI     C6 3352   0.560   2.412   1.562 -0.3974  0.1746  0.4821
  180ANI     C7 3353   0.588   2.547   1.572  0.8272  0.2574  0.0316
  180ANI     H1 3354   0.713   2.932   1.568 -1.4381 -0.1526  0.3340
  180ANI     H2 3355   0.615   2.821   1.463  0.0582  0.7006 -0.5101
  180ANI     H3 3356   0.587   2.837   1.640  0.4343 -0.2666  0.4452
  180ANI     H4 3357   0.929   2.540   1.576  0.6823 -1.2653  0.4494
  180ANI     H5 3358   0.870   2.291   1.552 -0.1359  0.4311  2.2931
  180ANI     H6 3359   0.648   2.213   1.553 -2.8373  0.1024 -2.0780
  180ANI     H7 3360   0.461   2.367   1.554 -0.8428  0.9187  1.5799
  180ANI     H8 3361   0.504   2.614   1.559  0.8149 -0.2314 -2.7535
  181ANI     C1 3362   0.493   0.852   0.881  0.2740 -0.2977  0.5883
  181ANI     O1 3363   0.576   0.965   0.872  0.1736 -0.5574 -0.6175
  181ANI     C2 3364   0.674   0.997   0.967 -0.1866  0.1149  0.7481
  181ANI     C3 3365   0.738   0.902   1.050 -0.3950  0.2021  0.0056
  181ANI     C4 3366   0.843   0.941   1.130  0.3664  0.1777 -0.6719
  181ANI     C5 3367   0.901   1.067   1.123 -0.2965 -0.3903  0.1094
  181ANI     C6 3368   0.839   1.161   1.037  0.4018  0.6026  0.3881
  181ANI     C7 3369   0.727   1.128   0.958  0.4593  0.7855 -0.2096
  181ANI     H1 3370   0.402   0.885   0.932 -0.1952  0.6433 -0.8285
  181ANI     H2 3371   0.462   0.823   0.780 -1.3191 -3.6550  1.9740
  181ANI     H3 3372   0.541   0.768   0.932  0.2516 -1.1580 -0.7793
  181ANI     H4 3373   0.712   0.797   1.054  0.6039 -0.0229  0.6847
  181ANI     H5 3374   0.886   0.865   1.195 -0.6643 -0.1303 -0.3448
  181ANI     H6 3375   0.995   1.080   1.176 -0.1917  1.1415 -0.4143
  181ANI     H7 3376   0.883   1.260   1.034  1.1010  0.2806 -0.2648
  181ANI     H8 3377   0.680   1.196   0.887  1.0649  0.5013 -0.8870
  182ANI     C1 3378   2.124   3.397   2.595 -0.4518  0.1564  0.5661
  182ANI     O1 3379   1.995   3.341   2.602  0.2823  0.0076  0.2057
  182ANI     C2 3380   1.937   3.296   2.485  0.2652 -0.1786 -1.0625
  182ANI     C3 3381   2.009   3.252   2.369  0.1684  0.5399  0.0281
  182ANI     C4 3382   1.933   3.192   2.264 -0.1145 -0.7743  0.4813
  182ANI     C5 3383   1.791   3.185   2.263 -0.2294 -1.0766 -0.2856
  182ANI     C6 3384   1.731   3.230   2.378  0.3287 -0.0394 -0.3358
  182ANI     C7 3385   1.800   3.284   2.492 -0.0887  0.0391 -0.0441
  182ANI     H1 3386   2.201   3.332   2.551 -0.1125  1.2031 -0.3795
  182ANI     H2 3387   2.124   3.487   2.533 -1.0860 -0.7058 -0.7152
  182ANI     H3 3388   2.165   3.414   2.696 -0.9910 -0.6755  0.9361
  182ANI     H4 3389   2.116   3.254   2.351  0.2539  1.1430  0.5599
  182ANI     H5 3390   1.991   3.152   2.181  0.6568 -0.5378  0.9030
  182ANI     H6 3391   1.734   3.156   2.176 -0.4883  0.6554 -0.7149
  182ANI     H7 3392   1.623   3.215   2.372  0.0259  2.1070 -0.4888
  182ANI     H8 3393   1.752   3.313   2.585  0.9789 -0.2177  0.6026
  183ANI     C1 3394   1.824   1.002   3.732 -0.0452  0.8611 -0.0112
  183ANI     O1 3395   1.815   0.926   3.613 -0.5625  0.3165 -0.2431
  183ANI     C2 3396   1.861   0.973   3.495  0.4048 -0.5398  0.0317
  183ANI     C3 3397   1.795   0.930   3.372  0.0426 -0.3164  0.0853
  183ANI     C4 3398   1.830   0.987   3.248 -0.0649 -0.1601  0.0886
  183ANI     C5 3399   1.950   1.062   3.241  0.7375  0.2646 -0.7752
  183ANI     C6 3400   2.018   1.100   3.358  0.1586  0.8214  0.2817
  183ANI     C7 3401   1.976   1.054   3.482 -0.2857 -0.1920 -0.0443
  183ANI     H1 3402   1.925   0.999   3.774  0.1892  0.5958 -0.5902
  183ANI     H2 3403   1.778   1.102   3.726  0.0238  0.7999 -1.6979
  183ANI     H3 3404   1.758   0.960   3.809  1.1997 -0.0302  0.5860
  183ANI     H4 3405   1.727   0.846   3.382  1.0212 -1.5273 -2.9845
  183ANI     H5 3406   1.789   0.953   3.154 -1.9220 -0.1429  0.8784
  183ANI     H6 3407   1.989   1.085   3.142  0.1863 -0.5115 -1.1777
  183ANI     H7 3408   2.112   1.153   3.351  1.3981 -1.3326  0.0348
  183ANI     H8 3409   2.039   1.087   3.565  0.2601 -0.5580 -0.3058
  184ANI     C1 3410   0.107   1.249   2.542 -1.0417 -0.2827  0.0104
  184ANI     O1 3411   0.224   1.300   2.602 -0.3900 -0.2078  0.4039
  184ANI     C2 3412   0.340   1.228   2.633  1.2205 -0.0380  0.0213
  184ANI     C3 3413   0.430   1.291   2.721  0.1572  0.0337  0.4354
  184ANI     C4 3414   0.555   1.243   2.741  0.7463 -0.3413 -0.2858
  184ANI     C5 3415   0.587   1.113   2.688  0.6075 -0.6650 -0.4204
  184ANI     C6 3416   0.496   1.045   2.598  0.5967  0.3282  0.3773
  184ANI     C7 3417   0.371   1.106   2.572  0.7858  0.4240  0.5020
  184ANI     H1 3418   0.134   1.202   2.447  0.7865 -1.1688  0.9565
  184ANI     H2 3419   0.053   1.176   2.604 -0.9085  0.2000  0.7065
  184ANI     H3 3420   0.032   1.326   2.520 -1.4558 -0.7458 -0.2117
  184ANI     H4 3421   0.393   1.380   2.772  0.1969 -0.4662  1.3428
  184ANI     H5 3422   0.628   1.306   2.790 -0.7389  1.1282  0.0849
  184ANI     H6 3423   0.682   1.066   2.712  0.6065  0.0086  0.9401
  184ANI     H7 3424   0.528   0.952   2.553 -1.6464  1.3564 -3.5452
  184ANI     H8 3425   0.298   1.057   2.509  1.2126 -0.6589  0.8475
  185ANI     C1 3426   1.970   0.714   0.207  0.5150  0.2098 -0.1940
  185ANI     O1 3427   1.845   0.798   0.221  0.3564 -0.1429 -0.7451
  185ANI     C2 3428   1.851   0.935   0.234  0.2500 -0.2316  0.0929
  185ANI     C3 3429   1.731   1.002   0.254  0.1176  0.3296 -0.7531
  185ANI     C4 3430   1.736   1.141   0.246  0.7122 -0.1270  0.0602
  185ANI     C5 3431   1.854   1.212   0.222 -0.3200 -0.1253 -0.3089
  185ANI     C6 3432   1.982   1.138   0.214  0.9186 -0.4061  0.1903
  185ANI     C7 3433   1.977   1.003   0.218 -1.0839  0.3665 -0.2065
  185ANI     H1 3434   2.053   0.759   0.262  0.1191  0.8911 -0.1428
  185ANI     H2 3435   1.957   0.609   0.239  0.2263  0.0699 -0.7600
  185ANI     H3 3436   1.995   0.718   0.100  1.0284  1.4701 -0.0350
  185ANI     H4 3437   1.644   0.939   0.273  0.0951  0.6390  0.1964
  185ANI     H5 3438   1.648   1.203   0.263  0.6563 -0.5049  1.2374
  185ANI     H6 3439   1.846   1.320   0.213  2.5956  0.1637  0.0686
  185ANI     H7 3440   2.075   1.193   0.203 -0.8268  2.3047 -1.7251
  185ANI     H8 3441   2.075   0.960   0.199 -0.1279  2.3442  0.1276
  186ANI     C1 3442   1.103   1.425   1.552  0.1620 -0.4724 -1.0090
  186ANI     O1 3443   1.242   1.373   1.540 -0.3975  0.4402  0.1282
  186ANI     C2 3444   1.351   1.446   1.557 -0.5290  0.3432  0.0788
  186ANI     C3 3445   1.355   1.584   1.541  0.5078 -0.3931 -0.1961
  186ANI     C4 3446   1.479   1.651   1.551  0.2361  0.6261  0.1529
  186ANI     C5 3447   1.597   1.576   1.584  0.0851 -0.4519 -0.4948
  186ANI     C6 3448   1.590   1.434   1.599 -0.0483 -0.5775  0.3378
  186ANI     C7 3449   1.472   1.372   1.577  0.1104  0.8035  0.1808
  186ANI     H1 3450   1.027   1.346   1.557  0.0892 -0.3352  0.2539
  186ANI     H2 3451   1.088   1.487   1.641  0.6599 -1.4689 -0.2355
  186ANI     H3 3452   1.080   1.489   1.466  0.0725 -0.9074 -1.3105
  186ANI     H4 3453   1.264   1.637   1.515  0.6984 -0.1834 -0.4356
  186ANI     H5 3454   1.490   1.758   1.537  2.1594  0.5136  0.6681
  186ANI     H6 3455   1.692   1.627   1.598 -0.0125 -0.3590 -0.1641
  186ANI     H7 3456   1.676   1.378   1.633 -1.2395 -1.5838  1.7486
  186ANI     H8 3457   1.454   1.265   1.586 -0.6290  1.0163  1.4606
  187ANI     C1 3458   1.849   1.650   2.882 -0.1591  0.5664 -0.3303
  187ANI     O1 3459   1.854   1.511   2.839 -0.0740 -0.3623 -0.1760
  187ANI     C2 3460   1.962   1.470   2.767 -0.6686  0.5001 -0.3450
  187ANI     C3 3461   2.085   1.528   2.777  0.2343 -0.4897  0.3252
  187ANI     C4 3462   2.181   1.494   2.685  0.2647 -0.0602 -0.3908
  187ANI     C5 3463   2.159   1.387   2.598  0.1528 -0.0356  0.1545
  187ANI     C6 3464   2.035   1.323   2.593  0.3726  0.2966 -0.3937
  187ANI     C7 3465   1.937   1.365   2.682 -0.5601  0.4716  0.3632
  187ANI     H1 3466   1.861   1.723   2.800  0.3841 -0.2494 -0.9809
  187ANI     H2 3467   1.753   1.682   2.925  0.4028  2.4669 -0.4496
  187ANI     H3 3468   1.927   1.678   2.954 -3.0072  1.1921  2.6047
  187ANI     H4 3469   2.111   1.608   2.847 -2.0462  1.3238 -0.8093
  187ANI     H5 3470   2.270   1.555   2.686 -0.6777  1.3429 -0.0120
  187ANI     H6 3471   2.242   1.358   2.534 -0.7098 -1.0596 -0.5361
  187ANI     H7 3472   2.008   1.239   2.530  3.4595 -0.8798 -0.2003
  187ANI     H8 3473   1.838   1.320   2.677  0.0660 -0.7765 -1.5669
  188ANI     C1 3474   1.535   3.419   0.384 -0.5796 -0.3720  0.1536
  188ANI     O1 3475   1.668   3.457   0.351 -0.0678 -0.2778  0.1428
  188ANI     C2 3476   1.699   3.581   0.304 -0.3302 -0.4549  0.1487
  188ANI     C3 3477   1.808   3.600   0.223 -0.3426  0.8418  0.1581
  188ANI     C4 3478   1.843   3.726   0.172 -0.6727  0.9005  0.0341
  188ANI     C5 3479   1.756   3.832   0.190  0.3514 -0.2628  0.1478
  188ANI     C6 3480   1.630   3.810   0.251  0.2608 -0.2829 -0.3935
  188ANI     C7 3481   1.612   3.688   0.317  0.1309  0.8610  0.3390
  188ANI     H1 3482   1.472   3.447   0.299 -0.1632  2.2816  0.6841
  188ANI     H2 3483   1.544   3.310   0.394 -2.3825 -0.5263  0.2697
  188ANI     H3 3484   1.511   3.472   0.477 -1.5979 -2.8843  1.3679
  188ANI     H4 3485   1.881   3.521   0.211 -0.2655  0.9400 -0.0277
  188ANI     H5 3486   1.931   3.734   0.109 -0.1079 -2.0514  0.3902
  188ANI     H6 3487   1.788   3.927   0.147  4.4346 -0.5245  2.3386
  188ANI     H7 3488   1.558   3.889   0.270 -1.0440 -1.6263  0.3018
  188ANI     H8 3489   1.531   3.676   0.388 -0.0948  0.9944  0.1053
  189ANI     C1 3490   1.808   0.156   0.700 -0.2689 -0.0778  0.3265
  189ANI     O1 3491   1.929   0.117   0.762  0.0125 -0.3102  0.6142
  189ANI     C2 3492   2.018   0.037   0.691 -0.0657  0.3575 -1.0155
  189ANI     C3 3493   2.020   0.020   0.550  0.7049 -0.5913  0.8761
  189ANI     C4 3494   2.099  -0.078   0.489 -0.1587 -0.1414  0.0272
  189ANI     C5 3495   2.181  -0.155   0.566  0.4789 -0.0662  0.1847
  189ANI     C6 3496   2.181  -0.131   0.701 -0.9758  0.2132 -0.2821
  189ANI     C7 3497   2.101  -0.043   0.764 -0.7117 -0.2825 -0.4512
  189ANI     H1 3498   1.760   0.217   0.777  0.4294 -2.1818  2.4859
  189ANI     H2 3499   1.820   0.216   0.608  3.6006 -3.7822 -1.7763
  189ANI     H3 3500   1.750   0.064   0.685  1.0985 -1.0188  0.6881
  189ANI     H4 3501   1.949   0.074   0.487  3.4398 -0.4415 -2.2573
  189ANI     H5 3502   2.077  -0.096   0.384 -0.9105  0.3293  0.0963
  189ANI     H6 3503   2.242  -0.234   0.526 -0.2992 -1.5240  1.8115
  189ANI     H7 3504   2.255  -0.181   0.764  2.0302 -0.9639 -4.5033
  189ANI     H8 3505   2.100  -0.039   0.872 -0.7595 -1.9289 -0.3860
  190ANI     C1 3506   1.138   3.390   1.292  0.3647 -0.6108  0.7230
  190ANI     O1 3507   1.066   3.304   1.375  0.6133  0.8153  0.3161
  190ANI     C2 3508   1.047   3.170   1.358 -0.7679 -0.0877 -0.0332
  190ANI     C3 3509   0.971   3.103   1.459  0.2331  0.2068  0.3414
  190ANI     C4 3510   0.962   2.961   1.460 -0.4778 -0.8277 -0.0713
  190ANI     C5 3511   1.011   2.886   1.346 -0.0722  0.4516 -0.7690
  190ANI     C6 3512   1.074   2.955   1.241 -0.0425  0.4964  0.4604
  190ANI     C7 3513   1.097   3.096   1.249  0.5110 -0.0945 -0.6542
  190ANI     H1 3514   1.119   3.494   1.322  1.1879 -0.2072 -0.1280
  190ANI     H2 3515   1.245   3.370   1.277 -0.5238 -3.2420 -2.6488
  190ANI     H3 3516   1.100   3.384   1.189 -0.4130 -2.0932  1.0705
  190ANI     H4 3517   0.932   3.155   1.546 -1.4007  0.4131 -0.5061
  190ANI     H5 3518   0.918   2.904   1.542 -2.3552  0.2871 -0.2756
  190ANI     H6 3519   1.008   2.777   1.350  1.0268  0.4461  0.8593
  190ANI     H7 3520   1.126   2.888   1.173  0.1752  1.5727 -0.4483
  190ANI     H8 3521   1.163   3.142   1.177  1.2700 -0.0686  0.0481
  191ANI     C1 3522   0.450   2.085   3.253  0.4222 -0.1554 -0.4162
  191ANI     O1 3523   0.325   2.159   3.224 -0.4208 -0.4953 -0.2261
  191ANI     C2 3524   0.303   2.235   3.108 -0.3153 -0.7132  0.0204
  191ANI     C3 3525   0.185   2.305   3.094  0.1589  0.0148 -0.0764
  191ANI     C4 3526   0.155   2.373   2.975 -0.8926  0.2943 -0.3814
  191ANI     C5 3527   0.238   2.359   2.860 -0.3175  0.2747 -0.5960
  191ANI     C6 3528   0.358   2.279   2.870 -0.0156 -0.0671  0.1213
  191ANI     C7 3529   0.388   2.223   2.992 -0.4428  0.1479 -0.2500
  191ANI     H1 3530   0.447   2.046   3.355  2.0315  1.0484  0.1071
  191ANI     H2 3531   0.455   2.000   3.184  0.5215 -2.1009  1.9645
  191ANI     H3 3532   0.538   2.150   3.241 -0.3548  1.1602  0.8269
  191ANI     H4 3533   0.123   2.320   3.182  0.8500  1.0747  0.2341
  191ANI     H5 3534   0.058   2.421   2.964 -0.6389  1.5161  2.1267
  191ANI     H6 3535   0.209   2.414   2.771 -3.9125  0.2312  0.4731
  191ANI     H7 3536   0.431   2.272   2.791  0.0374 -1.5731  0.2936
  191ANI     H8 3537   0.475   2.158   3.003  0.9528  2.5991  4.3891
  192ANI     C1 3538   0.234   0.659   2.706  0.1624  0.4152  0.4043
  192ANI     O1 3539   0.366   0.651   2.637 -0.4128  0.1898 -0.4321
  192ANI     C2 3540   0.384   0.605   2.508 -0.7443 -0.4358  0.2463
  192ANI     C3 3541   0.273   0.547   2.439  1.1835 -0.0838 -0.1630
  192ANI     C4 3542   0.298   0.502   2.309  0.3882 -0.2043  0.2178
  192ANI     C5 3543   0.429   0.511   2.250  0.2865 -0.8016 -0.6370
  192ANI     C6 3544   0.530   0.573   2.321  0.8559 -0.3779 -0.1530
  192ANI     C7 3545   0.509   0.616   2.452  0.1627 -0.2820  0.0958
  192ANI     H1 3546   0.254   0.650   2.814 -0.6305 -2.2057  0.3504
  192ANI     H2 3547   0.189   0.757   2.685  1.1375  0.9743  0.8760
  192ANI     H3 3548   0.159   0.584   2.681  2.1968 -1.7286  0.6116
  192ANI     H4 3549   0.172   0.541   2.477  1.5428  0.0708  0.8324
  192ANI     H5 3550   0.211   0.463   2.257  0.2332 -0.4869  0.6884
  192ANI     H6 3551   0.447   0.489   2.145 -1.6679 -0.9910 -0.9525
  192ANI     H7 3552   0.630   0.576   2.279  0.1121  3.2742 -1.9047
  192ANI     H8 3553   0.596   0.655   2.504 -0.2830  0.8629 -0.0068
  193ANI     C1 3554   0.577   1.688   0.248 -0.4903 -0.3497 -0.3237
  193ANI     O1 3555   0.645   1.609   0.151  1.0791  0.0578 -0.1110
  193ANI     C2 3556   0.632   1.474   0.136  0.5382 -0.6034 -0.0261
  193ANI     C3 3557   0.734   1.401   0.084  0.0449  0.8814  0.5184
  193ANI     C4 3558   0.734   1.258   0.074  0.2450 -0.0017  0.0857
  193ANI     C5 3559   0.618   1.196   0.128  0.2770  0.2096  0.6531
  193ANI     C6 3560   0.505   1.267   0.183 -0.3164  0.5789 -0.1291
  193ANI     C7 3561   0.514   1.411   0.183 -0.5595 -0.1720  0.4021
  193ANI     H1 3562   0.468   1.697   0.237 -0.8621 -0.5780  2.7840
  193ANI     H2 3563   0.581   1.647   0.349 -0.5841 -1.9065 -0.9384
  193ANI     H3 3564   0.612   1.792   0.253 -0.5860 -0.2748 -1.1480
  193ANI     H4 3565   0.822   1.445   0.038  0.7762 -0.9743  0.1288
  193ANI     H5 3566   0.821   1.202   0.043 -1.4107 -1.2976 -2.3784
  193ANI     H6 3567   0.610   1.087   0.129 -0.4742  0.2708  1.4653
  193ANI     H7 3568   0.411   1.224   0.215  0.7895  1.2846  4.4890
  193ANI     H8 3569   0.436   1.474   0.226  0.9087  0.4828  2.1488
  194ANI     C1 3570   2.307   0.639   1.141  0.7046 -0.4283 -0.3886
  194ANI     O1 3571   2.313   0.777   1.088  0.1554 -0.1588 -1.1230
  194ANI     C2 3572   2.239   0.816   0.983  0.2722 -0.4182 -0.6526
  194ANI     C3 3573   2.134   0.743   0.929  0.0393 -0.5047 -0.3584
  194ANI     C4 3574   2.060   0.798   0.825 -0.4256  0.2171 -0.5100
  194ANI     C5 3575   2.095   0.923   0.772  0.0251 -0.2739  0.5746
  194ANI     C6 3576   2.205   0.990   0.823 -0.0524  0.3114  0.1411
  194ANI     C7 3577   2.283   0.935   0.928 -0.2916 -0.2616  0.4071
  194ANI     H1 3578   2.326   0.567   1.061 -1.1696 -0.5901 -0.7024
  194ANI     H2 3579   2.379   0.619   1.221  0.1955 -1.7563 -0.2391
  194ANI     H3 3580   2.210   0.611   1.185 -1.3167  5.2219 -0.8912
  194ANI     H4 3581   2.093   0.658   0.984 -2.9976  0.6921 -0.6510
  194ANI     H5 3582   1.969   0.749   0.792 -1.4720  1.9312 -0.2481
  194ANI     H6 3583   2.029   0.958   0.694  0.7306 -2.0682 -0.8621
  194ANI     H7 3584   2.235   1.074   0.761  3.1887  0.0648  1.2822
  194ANI     H8 3585   2.368   0.986   0.972  0.4560 -2.6728  1.8431
  195ANI     C1 3586   3.016   0.622   0.473 -0.2579  0.6074  0.1593
  195ANI     O1 3587   2.877   0.607   0.489  0.2867  0.3723 -0.1346
  195ANI     C2 3588   2.796   0.695   0.555 -0.1019 -0.0621  0.0218
  195ANI     C3 3589   2.670   0.651   0.580  0.1169  0.3390  0.2276
  195ANI     C4 3590   2.577   0.728   0.652  0.1042 -0.0174  0.3655
  195ANI     C5 3591   2.607   0.854   0.693  0.1254  0.0842  0.1441
  195ANI     C6 3592   2.736   0.904   0.670  0.4659  0.4419  0.0355
  195ANI     C7 3593   2.830   0.828   0.601 -0.2567  0.3198  0.3978
  195ANI     H1 3594   3.038   0.697   0.395  0.9772 -0.7833 -0.8611
  195ANI     H2 3595   3.072   0.644   0.564  0.0636  0.5244 -0.0156
  195ANI     H3 3596   3.059   0.524   0.448 -0.6543 -0.0055  1.8084
  195ANI     H4 3597   2.635   0.553   0.549  1.0335  0.4355 -1.1526
  195ANI     H5 3598   2.482   0.682   0.677 -1.0777  1.7691 -0.7538
  195ANI     H6 3599   2.535   0.913   0.749  1.4454  0.6671  1.2586
  195ANI     H7 3600   2.763   1.002   0.707  0.7250  0.3027  0.2189
  195ANI     H8 3601   2.932   0.863   0.588 -0.6878  0.8956 -1.5045
  196ANI     C1 3602   2.480   1.121   3.445  0.1342  0.5211 -0.3943
  196ANI     O1 3603   2.519   0.986   3.462 -0.4073 -0.2779 -0.2766
  196ANI     C2 3604   2.424   0.891   3.444  0.2127  0.2865 -0.3468
  196ANI     C3 3605   2.290   0.905   3.484  0.5129 -0.1761 -0.3318
  196ANI     C4 3606   2.199   0.793   3.474  0.4210  0.3095 -0.7147
  196ANI     C5 3607   2.235   0.680   3.397  0.2603 -0.0608 -0.3987
  196ANI     C6 3608   2.371   0.671   3.355  0.3730  0.6724  0.3546
  196ANI     C7 3609   2.464   0.771   3.381 -0.0457 -0.1727 -0.1962
  196ANI     H1 3610   2.562   1.193   3.453 -2.0062  2.8714  1.4098
  196ANI     H2 3611   2.431   1.147   3.350 -0.0988  1.0385 -0.1351
  196ANI     H3 3612   2.402   1.146   3.519 -0.3441  0.4252 -0.8623
  196ANI     H4 3613   2.249   0.996   3.527  3.1708  0.1434  1.6281
  196ANI     H5 3614   2.101   0.803   3.520 -0.5235  1.4616 -2.8879
  196ANI     H6 3615   2.167   0.596   3.401  0.2337 -0.0104  0.1764
  196ANI     H7 3616   2.410   0.577   3.317  1.9191  1.0119  1.0654
  196ANI     H8 3617   2.569   0.770   3.352 -0.4607 -2.0045 -1.7958
  197ANI     C1 3618   1.857   3.247   1.496  0.0808  0.4338  0.2656
  197ANI     O1 3619   1.987   3.287   1.540  0.5141 -0.0494  0.6955
  197ANI     C2 3620   2.022   3.425   1.562  0.0265 -0.1589 -0.2770
  197ANI     C3 3621   1.924   3.532   1.563  0.6609  0.3369 -1.6294
  197ANI     C4 3622   1.968   3.667   1.574  0.2932  0.0636 -0.1634
  197ANI     C5 3623   2.107   3.691   1.592  0.1425 -0.3571  0.0381
  197ANI     C6 3624   2.199   3.584   1.598 -0.0033  0.0601 -0.7188
  197ANI     C7 3625   2.155   3.446   1.584 -0.4865 -0.2237 -0.2143
  197ANI     H1 3626   1.777   3.297   1.553  0.2091  0.4682  0.4167
  197ANI     H2 3627   1.842   3.269   1.390 -2.2039 -0.6002  0.3406
  197ANI     H3 3628   1.845   3.138   1.502  0.3634  0.2306 -2.3886
  197ANI     H4 3629   1.818   3.510   1.556  1.0503 -1.8739 -0.8560
  197ANI     H5 3630   1.907   3.756   1.563  1.5568  0.8218 -1.2471
  197ANI     H6 3631   2.148   3.791   1.594  1.7190 -0.9994  0.8900
  197ANI     H7 3632   2.306   3.599   1.609 -0.0342  1.7074 -2.4914
  197ANI     H8 3633   2.221   3.361   1.597  2.3344  1.7430 -1.4356
  198ANI     C1 3634   1.976   1.628   0.042 -0.5181 -0.1392  0.3921
  198ANI     O1 3635   1.975   1.579   0.179  0.0812  0.0183 -0.2477
  198ANI     C2 3636   2.077   1.614   0.267 -0.0038 -0.9156 -0.0644
  198ANI     C3 3637   2.200   1.679   0.218 -0.1210  0.3170 -0.3505
  198ANI     C4 3638   2.307   1.708   0.300 -0.0582 -0.0644  0.1323
  198ANI     C5 3639   2.298   1.682   0.432 -0.1059 -0.9960  0.2649
  198ANI     C6 3640   2.180   1.617   0.485  0.0463 -0.4520 -0.3733
  198ANI     C7 3641   2.076   1.581   0.401  0.0047 -0.2734 -0.1281
  198ANI     H1 3642   1.894   1.588  -0.018 -0.9615  3.0575 -1.2282
  198ANI     H2 3643   1.963   1.737   0.040 -0.3678 -0.1055  1.3419
  198ANI     H3 3644   2.065   1.591  -0.010 -1.9784 -0.4889 -1.9336
  198ANI     H4 3645   2.207   1.695   0.111  2.1365  0.9340 -0.1177
  198ANI     H5 3646   2.396   1.748   0.252 -0.0404 -0.7028 -0.3830
  198ANI     H6 3647   2.381   1.705   0.498 -0.1099  0.3783 -0.1957
  198ANI     H7 3648   2.164   1.603   0.591 -2.6331  0.0738 -0.6663
  198ANI     H8 3649   1.986   1.543   0.449 -0.4310 -1.0258 -1.5105
  199ANI     C1 3650   2.439   2.293   3.518 -0.6109  0.2324  0.5293
  199ANI     O1 3651   2.440   2.365   3.638 -0.7193  0.4947  0.2809
  199ANI     C2 3652   2.554   2.428   3.687 -0.4254  1.0552 -0.1534
  199ANI     C3 3653   2.551   2.470   3.820  0.8506  0.0646  0.4893
  199ANI     C4 3654   2.670   2.519   3.886  0.1973  0.0066  0.9840
  199ANI     C5 3655   2.788   2.526   3.810  0.5285  0.0852  0.2432
  199ANI     C6 3656   2.784   2.482   3.672 -0.5956  0.0943 -0.7072
  199ANI     C7 3657   2.670   2.438   3.612  0.1987 -0.3095 -0.1530
  199ANI     H1 3658   2.527   2.231   3.536  0.3641  1.5928  0.5298
  199ANI     H2 3659   2.343   2.241   3.504 -1.5804  2.5913 -2.3268
  199ANI     H3 3660   2.439   2.363   3.433  1.8458 -1.2718 -0.7407
  199ANI     H4 3661   2.457   2.455   3.873 -0.0476 -3.1896 -1.9103
  199ANI     H5 3662   2.662   2.537   3.993  0.1525 -2.3093  1.4154
  199ANI     H6 3663   2.876   2.576   3.850  0.1938 -1.3635  2.8902
  199ANI     H7 3664   2.875   2.504   3.617  0.4728 -2.6428 -0.1334
  199ANI     H8 3665   2.674   2.426   3.504  1.1147 -0.3481 -0.1179
  200ANI     C1 3666   3.078   3.325   1.523  0.5382  0.0527 -0.2811
  200ANI     O1 3667   2.967   3.418   1.532  0.4400  0.3791 -0.1519
  200ANI     C2 3668   2.838   3.373   1.530 -0.6794  0.0498  0.1888
  200ANI     C3 3669   2.731   3.464   1.540  0.1045 -0.4034  0.1271
  200ANI     C4 3670   2.600   3.419   1.553  0.6472 -0.0317  0.6410
  200ANI     C5 3671   2.571   3.282   1.550 -0.8477 -0.7413  0.1120
  200ANI     C6 3672   2.679   3.189   1.539  0.5092 -0.1134 -0.1634
  200ANI     C7 3673   2.816   3.235   1.522  0.0574  0.0426  0.1914
  200ANI     H1 3674   3.083   3.260   1.611  1.1826  2.1830  1.3284
  200ANI     H2 3675   3.077   3.262   1.434  0.0717 -0.4036  0.0466
  200ANI     H3 3676   3.169   3.387   1.518  0.0860  0.7999  0.4305
  200ANI     H4 3677   2.748   3.571   1.544  0.5403 -0.5150  1.5079
  200ANI     H5 3678   2.517   3.488   1.566 -0.6709 -1.4174 -0.1536
  200ANI     H6 3679   2.469   3.244   1.553 -0.9403 -0.6183 -1.3887
  200ANI     H7 3680   2.648   3.085   1.537 -1.7844  0.5324  0.9956
  200ANI     H8 3681   2.893   3.162   1.503  1.4312  1.8906 -1.5593
  201ANI     C1 3682   1.796   3.107   1.000  0.0944 -0.0469  0.9255
  201ANI     O1 3683   1.686   3.037   1.071 -0.5053 -0.4692  0.4200
  201ANI     C2 3684   1.709   2.907   1.119 -0.6495 -0.3645 -0.5431
  201ANI     C3 3685   1.832   2.839   1.108  1.0850 -0.2902 -0.1654
  201ANI     C4 3686   1.847   2.714   1.172  0.4527  0.5329 -0.1542
  201ANI     C5 3687   1.746   2.649   1.237  0.1389  0.6391 -0.5381
  201ANI     C6 3688   1.624   2.719   1.244  0.1253 -0.5894 -0.1865
  201ANI     C7 3689   1.605   2.843   1.182  0.7055 -0.9425  0.8207
  201ANI     H1 3690   1.880   3.116   1.070  0.6822 -2.0137  0.5260
  201ANI     H2 3691   1.829   3.055   0.909  0.9257  0.4239  0.9497
  201ANI     H3 3692   1.757   3.206   0.974  1.5855  0.2412 -0.3210
  201ANI     H4 3693   1.915   2.879   1.051  0.1472 -2.3617 -3.0770
  201ANI     H5 3694   1.947   2.671   1.163 -0.0779 -0.7421 -0.1368
  201ANI     H6 3695   1.756   2.553   1.287 -2.3112 -0.5087 -2.1710
  201ANI     H7 3696   1.546   2.675   1.306  1.3353 -1.1800  0.9336
  201ANI     H8 3697   1.510   2.892   1.201 -0.0181 -2.5441  1.4162
  202ANI     C1 3698   2.126   0.888   1.426  0.1854 -0.4114  0.2577
  202ANI     O1 3699   2.226   0.950   1.509  0.0598 -0.3239 -0.0440
  202ANI     C2 3700   2.289   1.063   1.468 -0.3389  0.4044 -0.2901
  202ANI     C3 3701   2.308   1.168   1.554 -0.6792  0.0282  0.6388
  202ANI     C4 3702   2.381   1.289   1.513 -0.1295  0.4878  0.0442
  202ANI     C5 3703   2.423   1.300   1.383 -0.2659 -0.3132 -0.0482
  202ANI     C6 3704   2.417   1.189   1.297  0.3581 -0.3565  0.1205
  202ANI     C7 3705   2.349   1.071   1.340 -0.2070 -0.5537  0.0769
  202ANI     H1 3706   2.083   0.801   1.476 -2.0427  0.5618  0.1219
  202ANI     H2 3707   2.037   0.953   1.419 -0.6499 -1.6655 -1.0322
  202ANI     H3 3708   2.160   0.851   1.328 -2.1234 -1.4049 -0.2199
  202ANI     H4 3709   2.260   1.176   1.651  0.9501  0.0511  1.4518
  202ANI     H5 3710   2.388   1.377   1.577 -3.2402 -0.2561  1.5177
  202ANI     H6 3711   2.488   1.384   1.360  0.8392 -0.1791  3.3176
  202ANI     H7 3712   2.464   1.191   1.199  0.5340  1.6056  0.2218
  202ANI     H8 3713   2.332   0.994   1.265 -3.3526  1.5633 -1.4835
  203ANI     C1 3714   0.670   2.756   2.635  0.0621  0.0143  0.3465
  203ANI     O1 3715   0.783   2.837   2.663  0.2439  0.0662 -0.1132
  203ANI     C2 3716   0.782   2.972   2.637  0.1095 -0.0968 -0.6012
  203ANI     C3 3717   0.663   3.037   2.592 -0.4796 -0.0342 -0.3923
  203ANI     C4 3718   0.664   3.177   2.582  0.7639 -0.2336  0.1040
  203ANI     C5 3719   0.783   3.251   2.607 -0.1375  0.0222 -0.3228
  203ANI     C6 3720   0.904   3.184   2.654 -0.0868  0.1004  0.2779
  203ANI     C7 3721   0.897   3.046   2.665 -0.5534 -0.0519  0.1359
  203ANI     H1 3722   0.687   2.648   2.643 -2.2701 -0.2746  1.8455
  203ANI     H2 3723   0.590   2.785   2.703  0.9785 -1.6550  2.1825
  203ANI     H3 3724   0.630   2.775   2.534 -1.1217  1.1418  1.0108
  203ANI     H4 3725   0.571   2.984   2.569 -1.1390 -0.0521  2.1886
  203ANI     H5 3726   0.576   3.229   2.545  0.4143 -0.7687  0.1824
  203ANI     H6 3727   0.784   3.359   2.598 -1.6379  0.2622  1.9056
  203ANI     H7 3728   0.998   3.235   2.674 -0.0533 -0.0189  0.4309
  203ANI     H8 3729   0.983   2.989   2.696 -1.0237  0.6218  2.7540
  204ANI     C1 3730   0.963   3.168   0.928 -0.9598  0.1187 -0.8367
  204ANI     O1 3731   0.969   3.035   0.868 -0.4231 -0.7396  0.0946
  204ANI     C2 3732   1.073   2.948   0.882  0.0070 -0.7586  0.2870
  204ANI     C3 3733   1.047   2.814   0.853  0.1396  0.3132 -1.1161
  204ANI     C4 3734   1.143   2.718   0.851  0.8584 -0.2086 -0.3551
  204ANI     C5 3735   1.278   2.757   0.872 -0.0856 -0.6079 -0.5027
  204ANI     C6 3736   1.307   2.891   0.911 -0.6925  0.5689 -0.5827
  204ANI     C7 3737   1.204   2.983   0.916  0.6195 -0.0602 -0.4957
  204ANI     H1 3738   0.954   3.161   1.037 -1.8754  3.2603 -0.6443
  204ANI     H2 3739   1.047   3.230   0.892  0.6940 -1.4603  0.2444
  204ANI     H3 3740   0.866   3.211   0.898 -0.9480 -0.5273 -1.8066
  204ANI     H4 3741   0.946   2.786   0.823 -0.1434  0.5801 -0.4290
  204ANI     H5 3742   1.109   2.620   0.821  2.2366 -0.4414 -1.2134
  204ANI     H6 3743   1.365   2.693   0.864  1.3216  1.3782 -1.7623
  204ANI     H7 3744   1.409   2.925   0.928 -1.1623  0.4827  2.7042
  204ANI     H8 3745   1.235   3.086   0.927  0.4641  0.1605 -1.9391
  205ANI     C1 3746   3.290   1.639   0.555 -0.0138 -0.9517  0.5625
  205ANI     O1 3747   3.193   1.549   0.611  0.3596 -0.0511 -0.2248
  205ANI     C2 3748   3.171   1.420   0.567  0.4688 -0.3896  0.8613
  205ANI     C3 3749   3.091   1.323   0.635 -0.5353  0.1615 -0.1361
  205ANI     C4 3750   3.066   1.191   0.585 -0.6319 -0.3129 -0.1956
  205ANI     C5 3751   3.124   1.155   0.461 -0.0599 -0.1736  0.5335
  205ANI     C6 3752   3.224   1.241   0.403  0.1493 -0.1857  0.6748
  205ANI     C7 3753   3.241   1.375   0.458  0.0614 -0.2563  0.6866
  205ANI     H1 3754   3.301   1.635   0.446  0.7302  1.0952  0.5465
  205ANI     H2 3755   3.250   1.741   0.569  1.0466 -0.3690 -0.5662
  205ANI     H3 3756   3.390   1.631   0.598  0.8203  0.5452 -1.0260
  205ANI     H4 3757   3.034   1.356   0.722 -1.9124 -0.4454 -0.7998
  205ANI     H5 3758   3.004   1.119   0.636 -2.1473  0.2024 -1.2869
  205ANI     H6 3759   3.101   1.058   0.419 -2.1940  0.3412  0.4804
  205ANI     H7 3760   3.259   1.213   0.305  0.0249  0.5179  0.4236
  205ANI     H8 3761   3.307   1.438   0.398 -0.6446 -0.2832 -0.1269
  206ANI     C1 3762   0.230   3.427   3.805 -0.1852  0.3501  0.6027
  206ANI     O1 3763   0.310   3.312   3.825  0.3614  0.4109 -0.0995
  206ANI     C2 3764   0.275   3.205   3.898 -0.2963  0.0970  0.2053
  206ANI     C3 3765   0.144   3.180   3.947  0.5846 -0.6336  0.0626
  206ANI     C4 3766   0.106   3.059   4.014 -0.3971  0.6650  0.6865
  206ANI     C5 3767   0.199   2.963   4.029 -0.3010  0.1300  0.1499
  206ANI     C6 3768   0.332   2.981   3.982  0.1076 -0.0802  0.5421
  206ANI     C7 3769   0.369   3.104   3.923  0.1191 -0.1266  0.8143
  206ANI     H1 3770   0.196   3.470   3.900  0.2844 -2.2246  1.9915
  206ANI     H2 3771   0.289   3.501   3.750  0.9529 -1.2071 -0.3234
  206ANI     H3 3772   0.145   3.396   3.743  1.0083  0.1163 -0.9376
  206ANI     H4 3773   0.067   3.250   3.919  0.7061 -0.6793 -0.3988
  206ANI     H5 3774   0.005   3.037   4.047 -0.7126 -1.4474 -1.6346
  206ANI     H6 3775   0.168   2.871   4.077  1.2190  0.0344  0.9705
  206ANI     H7 3776   0.404   2.901   3.998  0.4620  0.3299  1.0033
  206ANI     H8 3777   0.471   3.117   3.887 -0.0559 -0.2815  0.2512
  207ANI     C1 3778   0.758   1.372   2.501  0.0109 -0.6069  0.7319
  207ANI     O1 3779   0.776   1.451   2.376 -0.2885  0.0106 -0.0122
  207ANI     C2 3780   0.804   1.589   2.382  0.2492 -0.2313 -0.1094
  207ANI     C3 3781   0.797   1.658   2.501  0.1891  0.1592 -0.7277
  207ANI     C4 3782   0.840   1.788   2.499  0.1232  0.0490 -0.2068
  207ANI     C5 3783   0.885   1.858   2.384 -0.2967  0.7719  0.7998
  207ANI     C6 3784   0.886   1.792   2.260  0.4617  0.0385 -0.4662
  207ANI     C7 3785   0.844   1.655   2.261 -0.0227 -0.0358 -0.4812
  207ANI     H1 3786   0.850   1.376   2.561 -0.1330 -1.3344  1.0064
  207ANI     H2 3787   0.680   1.413   2.566  0.1060  1.5724 -0.4838
  207ANI     H3 3788   0.736   1.268   2.476  0.8863 -0.4575 -0.7181
  207ANI     H4 3789   0.761   1.618   2.595  1.3940  0.3706 -0.1627
  207ANI     H5 3790   0.836   1.835   2.597  0.3788  0.2428 -0.2892
  207ANI     H6 3791   0.912   1.963   2.392 -1.0665  0.9237  1.5851
  207ANI     H7 3792   0.917   1.846   2.171 -0.4531  0.3611 -0.6006
  207ANI     H8 3793   0.851   1.605   2.165 -1.5622  0.8583 -1.0702
  208ANI     C1 3794   2.302   1.098   2.260  0.0495 -0.2227  0.0263
  208ANI     O1 3795   2.190   1.187   2.230 -0.1061  0.3277 -0.1959
  208ANI     C2 3796   2.210   1.327   2.240 -0.0880 -0.6402  0.0820
  208ANI     C3 3797   2.100   1.407   2.239  0.2253  0.1867 -0.1257
  208ANI     C4 3798   2.106   1.545   2.264 -0.5879  0.1749  0.1136
  208ANI     C5 3799   2.237   1.605   2.281 -0.6552  0.1661 -0.3040
  208ANI     C6 3800   2.352   1.521   2.269 -0.5126 -0.4674 -0.0462
  208ANI     C7 3801   2.335   1.382   2.252  0.5021  0.1412  0.1596
  208ANI     H1 3802   2.348   1.131   2.354  0.6589  0.7848 -0.6248
  208ANI     H2 3803   2.265   0.995   2.272 -0.9797  0.2017  0.5325
  208ANI     H3 3804   2.374   1.095   2.178  1.5153  0.2021  1.2766
  208ANI     H4 3805   2.006   1.359   2.262 -0.6087  1.4652 -0.8291
  208ANI     H5 3806   2.019   1.608   2.279 -0.6431  0.3240 -0.8140
  208ANI     H6 3807   2.257   1.712   2.290 -0.0121 -0.0469  0.8884
  208ANI     H7 3808   2.453   1.558   2.284 -0.6300 -0.6040  1.1616
  208ANI     H8 3809   2.426   1.323   2.242  0.5801 -0.1442  2.4432
  209ANI     C1 3810   3.261   1.321   3.767 -0.1115  0.2599  0.4570
  209ANI     O1 3811   3.170   1.237   3.845  0.0773  0.1222  0.0355
  209ANI     C2 3812   3.054   1.181   3.799  0.1286 -0.2270  0.1193
  209ANI     C3 3813   2.972   1.113   3.886  0.0789 -0.6341  0.9541
  209ANI     C4 3814   2.848   1.064   3.848 -0.6419 -0.1366  0.2739
  209ANI     C5 3815   2.813   1.070   3.713  0.6171  0.1744 -0.0375
  209ANI     C6 3816   2.900   1.131   3.621  0.9206 -0.4507  0.0812
  209ANI     C7 3817   3.012   1.190   3.668  0.1323 -0.2321 -0.2936
  209ANI     H1 3818   3.352   1.355   3.818  0.2574 -0.1681  0.0841
  209ANI     H2 3819   3.294   1.249   3.691 -2.9840 -0.9827  0.3179
  209ANI     H3 3820   3.214   1.413   3.730 -1.7680  0.4174  2.8533
  209ANI     H4 3821   2.999   1.105   3.991  2.4920  1.8809  0.5841
  209ANI     H5 3822   2.773   1.031   3.918  1.2460 -0.4273  2.2034
  209ANI     H6 3823   2.716   1.031   3.685  1.7035 -1.6458 -1.4264
  209ANI     H7 3824   2.870   1.150   3.518  0.5669 -0.9635  0.0891
  209ANI     H8 3825   3.072   1.257   3.607  0.3622 -1.1310 -1.0666
  210ANI     C1 3826   3.185   2.116   0.676  0.0209  0.0334  0.0294
  210ANI     O1 3827   3.113   2.041   0.581 -0.1103 -0.2316 -0.5908
  210ANI     C2 3828   3.050   2.092   0.479  0.5997 -0.1865 -0.0922
  210ANI     C3 3829   3.036   2.225   0.453 -0.1643 -0.2506  0.1523
  210ANI     C4 3830   2.957   2.279   0.351  0.2333 -0.0341  0.7608
  210ANI     C5 3831   2.878   2.188   0.276 -0.5824  0.7578 -0.0362
  210ANI     C6 3832   2.889   2.054   0.306  0.7503 -0.6097  0.1510
  210ANI     C7 3833   2.974   2.005   0.401 -0.7257  0.3606  0.0538
  210ANI     H1 3834   3.209   2.043   0.755 -1.4947 -1.2450 -0.6806
  210ANI     H2 3835   3.280   2.159   0.643  0.5755 -1.0291  0.2018
  210ANI     H3 3836   3.127   2.191   0.731  0.0774 -0.4512  0.7629
  210ANI     H4 3837   3.087   2.299   0.513 -0.7696 -1.0303  1.6592
  210ANI     H5 3838   2.940   2.386   0.341 -0.7082 -0.1476  1.0781
  210ANI     H6 3839   2.806   2.227   0.204 -0.0747  1.7388 -0.0299
  210ANI     H7 3840   2.833   1.980   0.249  1.2899 -0.1173 -1.0415
  210ANI     H8 3841   2.997   1.899   0.412  0.0705  0.6372  1.1583
  211ANI     C1 3842   3.240   1.519   3.020  0.0499  0.1296 -0.0485
  211ANI     O1 3843   3.347   1.433   2.978  0.4396 -0.0465 -0.0378
  211ANI     C2 3844   3.474   1.446   3.018  0.0424  0.0128 -0.0827
  211ANI     C3 3845   3.509   1.548   3.110  0.3554  0.2642 -0.2780
  211ANI     C4 3846   3.640   1.571   3.141 -0.9498  0.0005  0.5630
  211ANI     C5 3847   3.738   1.487   3.090 -0.1486  0.6111  0.0322
  211ANI     C6 3848   3.696   1.369   3.016  0.0423  0.4536 -0.4865
  211ANI     C7 3849   3.567   1.359   2.966  0.4203  0.2701  0.0327
  211ANI     H1 3850   3.145   1.472   2.991 -0.3061  0.2614  0.8770
  211ANI     H2 3851   3.238   1.541   3.127 -1.9184 -3.4676  0.7197
  211ANI     H3 3852   3.248   1.616   2.969 -0.0589 -0.2725 -0.8323
  211ANI     H4 3853   3.436   1.620   3.145  0.8906 -0.0781  1.5957
  211ANI     H5 3854   3.667   1.664   3.191 -0.3265  1.2916 -2.1091
  211ANI     H6 3855   3.844   1.507   3.107  0.0378 -0.3639  0.0276
  211ANI     H7 3856   3.780   1.304   2.992  1.2094  1.1428  1.5735
  211ANI     H8 3857   3.543   1.283   2.893  1.9510 -1.2060  1.0215
  212ANI     C1 3858   1.552   1.187   1.251 -0.1320 -0.5349  1.0759
  212ANI     O1 3859   1.629   1.153   1.364 -0.1216  0.1415 -0.4105
  212ANI     C2 3860   1.746   1.210   1.403 -0.2022  1.1398 -0.2335
  212ANI     C3 3861   1.806   1.317   1.328  0.1345  0.1398 -0.4790
  212ANI     C4 3862   1.931   1.372   1.371 -0.1427  0.4437  0.2324
  212ANI     C5 3863   1.987   1.315   1.484 -0.3262 -0.1786 -0.1967
  212ANI     C6 3864   1.929   1.213   1.563 -0.7371  0.0622 -0.3043
  212ANI     C7 3865   1.808   1.157   1.514 -0.1243 -0.2397  0.0711
  212ANI     H1 3866   1.526   1.293   1.245 -1.6464 -0.9975 -1.0870
  212ANI     H2 3867   1.602   1.168   1.155  0.3116 -0.5392  1.3074
  212ANI     H3 3868   1.454   1.138   1.253 -1.0006  1.1342 -0.0473
  212ANI     H4 3869   1.767   1.353   1.233 -1.3032 -0.6490 -0.2043
  212ANI     H5 3870   1.985   1.453   1.322  1.0456 -0.1271  0.5791
  212ANI     H6 3871   2.085   1.350   1.518 -0.5120  0.5113 -0.3824
  212ANI     H7 3872   1.983   1.175   1.649 -1.3671 -1.8287 -0.6986
  212ANI     H8 3873   1.753   1.075   1.559 -0.1065 -0.9953 -1.2638
  213ANI     C1 3874   1.573   0.900   0.937  0.1815 -0.7014 -0.0803
  213ANI     O1 3875   1.541   0.781   0.868 -0.0809  0.3695 -0.6344
  213ANI     C2 3876   1.607   0.760   0.744  0.0514  0.3900 -0.1802
  213ANI     C3 3877   1.702   0.845   0.678  0.1085  0.7164 -0.0668
  213ANI     C4 3878   1.749   0.801   0.556  0.7914  0.2068  0.4173
  213ANI     C5 3879   1.706   0.688   0.489  0.4709 -0.5765  0.3155
  213ANI     C6 3880   1.617   0.602   0.553  0.5403  0.9273 -0.2461
  213ANI     C7 3881   1.570   0.641   0.675  0.6477  0.3065 -0.4082
  213ANI     H1 3882   1.552   0.987   0.874  1.8803  0.4839  0.9633
  213ANI     H2 3883   1.502   0.910   1.020 -1.4298  1.0102 -1.6403
  213ANI     H3 3884   1.677   0.901   0.973 -0.3274  1.5516  1.3948
  213ANI     H4 3885   1.729   0.938   0.728  1.9562  1.8538 -3.0609
  213ANI     H5 3886   1.815   0.858   0.492  1.1138 -0.7656 -0.1272
  213ANI     H6 3887   1.735   0.661   0.388 -1.9599 -0.5218 -0.4342
  213ANI     H7 3888   1.581   0.511   0.506  0.3699  0.1490  1.3663
  213ANI     H8 3889   1.500   0.572   0.722  0.0156  0.1108 -1.6306
  214ANI     C1 3890   1.415   0.752   0.266 -0.3163 -0.2189 -0.4609
  214ANI     O1 3891   1.491   0.740   0.138  0.2776 -0.2614 -0.5410
  214ANI     C2 3892   1.434   0.681   0.029  0.0516  0.0272 -0.3847
  214ANI     C3 3893   1.320   0.605   0.033 -0.3207 -0.1089  0.0802
  214ANI     C4 3894   1.272   0.553  -0.090 -0.3978  0.1164  0.4935
  214ANI     C5 3895   1.338   0.578  -0.208  0.3044  0.2925 -0.0236
  214ANI     C6 3896   1.454   0.662  -0.214  0.2195  0.2005 -0.0735
  214ANI     C7 3897   1.499   0.710  -0.092  0.4430 -0.8541  0.4904
  214ANI     H1 3898   1.387   0.655   0.309 -1.1443 -0.0633 -0.6413
  214ANI     H2 3899   1.468   0.808   0.344 -1.7633 -0.8405  1.0061
  214ANI     H3 3900   1.322   0.802   0.236 -1.2279 -2.9104 -2.3691
  214ANI     H4 3901   1.275   0.577   0.128 -0.2513  0.2027  0.2077
  214ANI     H5 3902   1.179   0.497  -0.097  0.7094 -1.6812 -0.1450
  214ANI     H6 3903   1.288   0.543  -0.298  0.2542 -0.0875  0.1520
  214ANI     H7 3904   1.498   0.688  -0.310  0.0573 -1.1954 -0.5403
  214ANI     H8 3905   1.592   0.765  -0.082 -1.1147  2.1231 -1.0534
  215ANI     C1 3906   1.606   1.971   0.866  0.1574  0.3175  0.4537
  215ANI     O1 3907   1.680   1.903   0.974  0.2361  0.4450 -0.2691
  215ANI     C2 3908   1.629   1.801   1.049 -0.0416  0.1710 -0.1573
  215ANI     C3 3909   1.493   1.769   1.045 -0.0294  0.6372 -0.8642
  215ANI     C4 3910   1.439   1.660   1.120 -0.3117 -0.6099  0.4671
  215ANI     C5 3911   1.528   1.587   1.199  0.0556  0.0926  0.1771
  215ANI     C6 3912   1.663   1.623   1.215  0.1234  0.0263 -0.0439
  215ANI     C7 3913   1.710   1.734   1.142 -0.0643  0.2112  0.3888
  215ANI     H1 3914   1.574   1.893   0.797 -0.5373 -0.8321  2.0324
  215ANI     H2 3915   1.518   2.015   0.917 -1.4380 -0.9940 -1.1274
  215ANI     H3 3916   1.656   2.056   0.818  0.7499 -0.2754  0.0291
  215ANI     H4 3917   1.431   1.832   0.983 -1.6796 -0.3006 -0.1943
  215ANI     H5 3918   1.335   1.630   1.111  0.0809 -1.2083 -3.0410
  215ANI     H6 3919   1.483   1.504   1.252  0.6167 -0.7880 -0.7134
  215ANI     H7 3920   1.723   1.567   1.286  0.3118 -0.0482 -0.2622
  215ANI     H8 3921   1.816   1.757   1.147  0.4950 -2.5942  2.0658
  216ANI     C1 3922   1.708   3.396   3.362  0.8428  0.1925  0.1917
  216ANI     O1 3923   1.825   3.364   3.285  0.3834 -0.3435 -0.2221
  216ANI     C2 3924   1.876   3.452   3.193 -0.1662  0.1882 -0.5825
  216ANI     C3 3925   1.994   3.406   3.134 -0.7630 -0.3725  0.0315
  216ANI     C4 3926   2.055   3.483   3.036 -0.0556 -0.2203  0.0766
  216ANI     C5 3927   1.996   3.599   2.990 -0.2189  0.5080 -0.0829
  216ANI     C6 3928   1.872   3.647   3.043 -0.6478 -0.4762  0.8153
  216ANI     C7 3929   1.817   3.571   3.147 -0.0731 -0.2659 -0.3688
  216ANI     H1 3930   1.705   3.498   3.401  2.3545  0.8885 -1.4137
  216ANI     H2 3931   1.623   3.399   3.292  1.1887  0.0817 -0.2380
  216ANI     H3 3932   1.693   3.321   3.440  1.0010  1.4546  1.4382
  216ANI     H4 3933   2.038   3.314   3.170 -1.0391 -0.7281 -0.5451
  216ANI     H5 3934   2.149   3.452   2.991  0.5923  2.2682 -0.3635
  216ANI     H6 3935   2.054   3.655   2.916  0.3471 -1.7739 -1.4045
  216ANI     H7 3936   1.834   3.741   3.004 -0.8447 -0.1601  1.7620
  216ANI     H8 3937   1.725   3.607   3.193  0.0678  0.7189 -0.8441
  217ANI     C1 3938   2.913   2.246   3.370  0.6427 -0.3550  0.5683
  217ANI     O1 3939   2.788   2.239   3.293  0.4754 -0.1389 -0.3788
  217ANI     C2 3940   2.694   2.134   3.294 -0.1361 -0.1500  0.2827
  217ANI     C3 3941   2.708   2.024   3.393  0.5476 -0.0764  0.3050
  217ANI     C4 3942   2.607   1.928   3.388  0.8711 -0.6179 -0.0481
  217ANI     C5 3943   2.504   1.934   3.295 -0.1749 -0.6450 -0.9514
  217ANI     C6 3944   2.486   2.045   3.210  0.1854  0.4299  0.3872
  217ANI     C7 3945   2.586   2.144   3.209 -0.5687 -0.0774 -0.1640
  217ANI     H1 3946   2.965   2.340   3.350 -0.8886 -0.0173 -1.9916
  217ANI     H2 3947   2.883   2.256   3.476 -2.4420 -1.1825 -0.1686
  217ANI     H3 3948   2.973   2.156   3.354 -0.7101 -1.3558  1.0130
  217ANI     H4 3949   2.796   2.025   3.456  0.9540  0.8589 -0.2640
  217ANI     H5 3950   2.618   1.857   3.469 -1.3385 -0.3567  0.4983
  217ANI     H6 3951   2.435   1.850   3.296 -2.4681  1.2003  0.7576
  217ANI     H7 3952   2.407   2.056   3.136  0.6332 -0.8402 -0.2849
  217ANI     H8 3953   2.577   2.225   3.137 -3.3368 -0.4363 -0.2754
  218ANI     C1 3954   0.801   0.236   3.190 -0.5341 -0.9848  0.2791
  218ANI     O1 3955   0.844   0.280   3.321 -0.6738 -0.7136  0.3587
  218ANI     C2 3956   0.892   0.199   3.426 -0.6122  0.2027  0.0543
  218ANI     C3 3957   0.883   0.059   3.428  0.3295 -0.2926 -0.1905
  218ANI     C4 3958   0.943  -0.012   3.531  0.6074  0.4546  0.5494
  218ANI     C5 3959   0.994   0.053   3.644  0.5117  0.2064 -1.1056
  218ANI     C6 3960   1.004   0.189   3.638  0.7780 -0.8268  0.0009
  218ANI     C7 3961   0.957   0.265   3.530  0.5216 -0.1460 -0.4465
  218ANI     H1 3962   0.887   0.225   3.123 -0.6801  2.2232 -0.5113
  218ANI     H2 3963   0.732   0.151   3.188 -0.9598 -0.6326 -2.6247
  218ANI     H3 3964   0.744   0.318   3.145  0.4253 -1.0841 -1.1566
  218ANI     H4 3965   0.841   0.005   3.343 -0.5827 -1.3710  0.9250
  218ANI     H5 3966   0.938  -0.121   3.531  0.3867  0.4641  0.6980
  218ANI     H6 3967   1.037  -0.001   3.728 -1.4840  1.3265  0.7242
  218ANI     H7 3968   1.050   0.241   3.721 -0.2926 -1.4606  0.9992
  218ANI     H8 3969   0.971   0.373   3.535  0.1874 -0.0942 -0.6194
   3.40320   3.43847   3.80000
