HFIP comparator n4
 3225
    1GR      C1    1   0.000   0.000   1.900  0.0000  0.0000  0.0000
    1GR      C2    2   0.142   0.000   1.900  0.0000  0.0000  0.0000
    1GR      C3    3   0.213   0.123   1.900  0.0000  0.0000  0.0000
    1GR      C4    4   0.354   0.123   1.900  0.0000  0.0000  0.0000
    1GR      C5    5   0.000   0.246   1.900  0.0000  0.0000  0.0000
    1GR      C6    6   0.142   0.246   1.900  0.0000  0.0000  0.0000
    1GR      C7    7   0.213   0.368   1.900  0.0000  0.0000  0.0000
    1GR      C8    8   0.354   0.368   1.900  0.0000  0.0000  0.0000
    1GR      C9    9   0.000   0.491   1.900  0.0000  0.0000  0.0000
    1GR     C10   10   0.142   0.491   1.900  0.0000  0.0000  0.0000
    1GR     C11   11   0.213   0.614   1.900  0.0000  0.0000  0.0000
    1GR     C12   12   0.354   0.614   1.900  0.0000  0.0000  0.0000
    1GR     C13   13   0.000   0.737   1.900  0.0000  0.0000  0.0000
    1GR     C14   14   0.142   0.737   1.900  0.0000  0.0000  0.0000
    1GR     C15   15   0.213   0.860   1.900  0.0000  0.0000  0.0000
    1GR     C16   16   0.354   0.860   1.900  0.0000  0.0000  0.0000
    1GR     C17   17   0.000   0.982   1.900  0.0000  0.0000  0.0000
    1GR     C18   18   0.142   0.982   1.900  0.0000  0.0000  0.0000
    1GR     C19   19   0.213   1.105   1.900  0.0000  0.0000  0.0000
    1GR     C20   20   0.354   1.105   1.900  0.0000  0.0000  0.0000
    1GR     C21   21   0.000   1.228   1.900  0.0000  0.0000  0.0000
    1GR     C22   22   0.142   1.228   1.900  0.0000  0.0000  0.0000
    1GR     C23   23   0.213   1.351   1.900  0.0000  0.0000  0.0000
    1GR     C24   24   0.354   1.351   1.900  0.0000  0.0000  0.0000
    1GR     C25   25   0.000   1.474   1.900  0.0000  0.0000  0.0000
    1GR     C26   26   0.142   1.474   1.900  0.0000  0.0000  0.0000
    1GR     C27   27   0.213   1.596   1.900  0.0000  0.0000  0.0000
    1GR     C28   28   0.354   1.596   1.900  0.0000  0.0000  0.0000
    1GR     C29   29   0.000   1.719   1.900  0.0000  0.0000  0.0000
    1GR     C30   30   0.142   1.719   1.900  0.0000  0.0000  0.0000
    1GR     C31   31   0.213   1.842   1.900  0.0000  0.0000  0.0000
    1GR     C32   32   0.354   1.842   1.900  0.0000  0.0000  0.0000
    1GR     C33   33   0.000   1.965   1.900  0.0000  0.0000  0.0000
    1GR     C34   34   0.142   1.965   1.900  0.0000  0.0000  0.0000
    1GR     C35   35   0.213   2.088   1.900  0.0000  0.0000  0.0000
    1GR     C36   36   0.354   2.088   1.900  0.0000  0.0000  0.0000
    1GR     C37   37   0.000   2.210   1.900  0.0000  0.0000  0.0000
    1GR     C38   38   0.142   2.210   1.900  0.0000  0.0000  0.0000
    1GR     C39   39   0.213   2.333   1.900  0.0000  0.0000  0.0000
    1GR     C40   40   0.354   2.333   1.900  0.0000  0.0000  0.0000
    1GR     C41   41   0.000   2.456   1.900  0.0000  0.0000  0.0000
    1GR     C42   42   0.142   2.456   1.900  0.0000  0.0000  0.0000
    1GR     C43   43   0.213   2.579   1.900  0.0000  0.0000  0.0000
    1GR     C44   44   0.354   2.579   1.900  0.0000  0.0000  0.0000
    1GR     C45   45   0.000   2.702   1.900  0.0000  0.0000  0.0000
    1GR     C46   46   0.142   2.702   1.900  0.0000  0.0000  0.0000
    1GR     C47   47   0.213   2.824   1.900  0.0000  0.0000  0.0000
    1GR     C48   48   0.354   2.824   1.900  0.0000  0.0000  0.0000
    1GR     C49   49   0.000   2.947   1.900  0.0000  0.0000  0.0000
    1GR     C50   50   0.142   2.947   1.900  0.0000  0.0000  0.0000
    1GR     C51   51   0.213   3.070   1.900  0.0000  0.0000  0.0000
    1GR     C52   52   0.354   3.070   1.900  0.0000  0.0000  0.0000
    1GR     C53   53   0.000   3.193   1.900  0.0000  0.0000  0.0000
    1GR     C54   54   0.142   3.193   1.900  0.0000  0.0000  0.0000
    1GR     C55   55   0.213   3.316   1.900  0.0000  0.0000  0.0000
    1GR     C56   56   0.354   3.316   1.900  0.0000  0.0000  0.0000
    1GR     C57   57   0.425   0.000   1.900  0.0000  0.0000  0.0000
    1GR     C58   58   0.567   0.000   1.900  0.0000  0.0000  0.0000
    1GR     C59   59   0.638   0.123   1.900  0.0000  0.0000  0.0000
    1GR     C60   60   0.780   0.123   1.900  0.0000  0.0000  0.0000
    1GR     C61   61   0.425   0.246   1.900  0.0000  0.0000  0.0000
    1GR     C62   62   0.567   0.246   1.900  0.0000  0.0000  0.0000
    1GR     C63   63   0.638   0.368   1.900  0.0000  0.0000  0.0000
    1GR     C64   64   0.780   0.368   1.900  0.0000  0.0000  0.0000
    1GR     C65   65   0.425   0.491   1.900  0.0000  0.0000  0.0000
    1GR     C66   66   0.567   0.491   1.900  0.0000  0.0000  0.0000
    1GR     C67   67   0.638   0.614   1.900  0.0000  0.0000  0.0000
    1GR     C68   68   0.780   0.614   1.900  0.0000  0.0000  0.0000
    1GR     C69   69   0.425   0.737   1.900  0.0000  0.0000  0.0000
    1GR     C70   70   0.567   0.737   1.900  0.0000  0.0000  0.0000
    1GR     C71   71   0.638   0.860   1.900  0.0000  0.0000  0.0000
    1GR     C72   72   0.780   0.860   1.900  0.0000  0.0000  0.0000
    1GR     C73   73   0.425   0.982   1.900  0.0000  0.0000  0.0000
    1GR     C74   74   0.567   0.982   1.900  0.0000  0.0000  0.0000
    1GR     C75   75   0.638   1.105   1.900  0.0000  0.0000  0.0000
    1GR     C76   76   0.780   1.105   1.900  0.0000  0.0000  0.0000
    1GR     C77   77   0.425   1.228   1.900  0.0000  0.0000  0.0000
    1GR     C78   78   0.567   1.228   1.900  0.0000  0.0000  0.0000
    1GR     C79   79   0.638   1.351   1.900  0.0000  0.0000  0.0000
    1GR     C80   80   0.780   1.351   1.900  0.0000  0.0000  0.0000
    1GR     C81   81   0.425   1.474   1.900  0.0000  0.0000  0.0000
    1GR     C82   82   0.567   1.474   1.900  0.0000  0.0000  0.0000
    1GR     C83   83   0.638   1.596   1.900  0.0000  0.0000  0.0000
    1GR     C84   84   0.780   1.596   1.900  0.0000  0.0000  0.0000
    1GR     C85   85   0.425   1.719   1.900  0.0000  0.0000  0.0000
    1GR     C86   86   0.567   1.719   1.900  0.0000  0.0000  0.0000
    1GR     C87   87   0.638   1.842   1.900  0.0000  0.0000  0.0000
    1GR     C88   88   0.780   1.842   1.900  0.0000  0.0000  0.0000
    1GR     C89   89   0.425   1.965   1.900  0.0000  0.0000  0.0000
    1GR     C90   90   0.567   1.965   1.900  0.0000  0.0000  0.0000
    1GR     C91   91   0.638   2.088   1.900  0.0000  0.0000  0.0000
    1GR     C92   92   0.780   2.088   1.900  0.0000  0.0000  0.0000
    1GR     C93   93   0.425   2.210   1.900  0.0000  0.0000  0.0000
    1GR     C94   94   0.567   2.210   1.900  0.0000  0.0000  0.0000
    1GR     C95   95   0.638   2.333   1.900  0.0000  0.0000  0.0000
    1GR     C96   96   0.780   2.333   1.900  0.0000  0.0000  0.0000
    1GR     C97   97   0.425   2.456   1.900  0.0000  0.0000  0.0000
    1GR     C98   98   0.567   2.456   1.900  0.0000  0.0000  0.0000
    1GR     C99   99   0.638   2.579   1.900  0.0000  0.0000  0.0000
    1GR    C100  100   0.780   2.579   1.900  0.0000  0.0000  0.0000
    1GR    C101  101   0.425   2.702   1.900  0.0000  0.0000  0.0000
    1GR    C102  102   0.567   2.702   1.900  0.0000  0.0000  0.0000
    1GR    C103  103   0.638   2.824   1.900  0.0000  0.0000  0.0000
    1GR    C104  104   0.780   2.824   1.900  0.0000  0.0000  0.0000
    1GR    C105  105   0.425   2.947   1.900  0.0000  0.0000  0.0000
    1GR    C106  106   0.567   2.947   1.900  0.0000  0.0000  0.0000
    1GR    C107  107   0.638   3.070   1.900  0.0000  0.0000  0.0000
    1GR    C108  108   0.780   3.070   1.900  0.0000  0.0000  0.0000
    1GR    C109  109   0.425   3.193   1.900  0.0000  0.0000  0.0000
    1GR    C110  110   0.567   3.193   1.900  0.0000  0.0000  0.0000
    1GR    C111  111   0.638   3.316   1.900  0.0000  0.0000  0.0000
    1GR    C112  112   0.780   3.316   1.900  0.0000  0.0000  0.0000
    1GR    C113  113   0.851   0.000   1.900  0.0000  0.0000  0.0000
    1GR    C114  114   0.993   0.000   1.900  0.0000  0.0000  0.0000
    1GR    C115  115   1.064   0.123   1.900  0.0000  0.0000  0.0000
    1GR    C116  116   1.205   0.123   1.900  0.0000  0.0000  0.0000
    1GR    C117  117   0.851   0.246   1.900  0.0000  0.0000  0.0000
    1GR    C118  118   0.993   0.246   1.900  0.0000  0.0000  0.0000
    1GR    C119  119   1.064   0.368   1.900  0.0000  0.0000  0.0000
    1GR    C120  120   1.205   0.368   1.900  0.0000  0.0000  0.0000
    1GR    C121  121   0.851   0.491   1.900  0.0000  0.0000  0.0000
    1GR    C122  122   0.993   0.491   1.900  0.0000  0.0000  0.0000
    1GR    C123  123   1.064   0.614   1.900  0.0000  0.0000  0.0000
    1GR    C124  124   1.205   0.614   1.900  0.0000  0.0000  0.0000
    1GR    C125  125   0.851   0.737   1.900  0.0000  0.0000  0.0000
    1GR    C126  126   0.993   0.737   1.900  0.0000  0.0000  0.0000
    1GR    C127  127   1.064   0.860   1.900  0.0000  0.0000  0.0000
    1GR    C128  128   1.205   0.860   1.900  0.0000  0.0000  0.0000
    1GR    C129  129   0.851   0.982   1.900  0.0000  0.0000  0.0000
    1GR    C130  130   0.993   0.982   1.900  0.0000  0.0000  0.0000
    1GR    C131  131   1.064   1.105   1.900  0.0000  0.0000  0.0000
    1GR    C132  132   1.205   1.105   1.900  0.0000  0.0000  0.0000
    1GR    C133  133   0.851   1.228   1.900  0.0000  0.0000  0.0000
    1GR    C134  134   0.993   1.228   1.900  0.0000  0.0000  0.0000
    1GR    C135  135   1.064   1.351   1.900  0.0000  0.0000  0.0000
    1GR    C136  136   1.205   1.351   1.900  0.0000  0.0000  0.0000
    1GR    C137  137   0.851   1.474   1.900  0.0000  0.0000  0.0000
    1GR    C138  138   0.993   1.474   1.900  0.0000  0.0000  0.0000
    1GR    C139  139   1.064   1.596   1.900  0.0000  0.0000  0.0000
    1GR    C140  140   1.205   1.596   1.900  0.0000  0.0000  0.0000
    1GR    C141  141   0.851   1.719   1.900  0.0000  0.0000  0.0000
    1GR    C142  142   0.993   1.719   1.900  0.0000  0.0000  0.0000
    1GR    C143  143   1.064   1.842   1.900  0.0000  0.0000  0.0000
    1GR    C144  144   1.205   1.842   1.900  0.0000  0.0000  0.0000
    1GR    C145  145   0.851   1.965   1.900  0.0000  0.0000  0.0000
    1GR    C146  146   0.993   1.965   1.900  0.0000  0.0000  0.0000
    1GR    C147  147   1.064   2.088   1.900  0.0000  0.0000  0.0000
    1GR    C148  148   1.205   2.088   1.900  0.0000  0.0000  0.0000
    1GR    C149  149   0.851   2.210   1.900  0.0000  0.0000  0.0000
    1GR    C150  150   0.993   2.210   1.900  0.0000  0.0000  0.0000
    1GR    C151  151   1.064   2.333   1.900  0.0000  0.0000  0.0000
    1GR    C152  152   1.205   2.333   1.900  0.0000  0.0000  0.0000
    1GR    C153  153   0.851   2.456   1.900  0.0000  0.0000  0.0000
    1GR    C154  154   0.993   2.456   1.900  0.0000  0.0000  0.0000
    1GR    C155  155   1.064   2.579   1.900  0.0000  0.0000  0.0000
    1GR    C156  156   1.205   2.579   1.900  0.0000  0.0000  0.0000
    1GR    C157  157   0.851   2.702   1.900  0.0000  0.0000  0.0000
    1GR    C158  158   0.993   2.702   1.900  0.0000  0.0000  0.0000
    1GR    C159  159   1.064   2.824   1.900  0.0000  0.0000  0.0000
    1GR    C160  160   1.205   2.824   1.900  0.0000  0.0000  0.0000
    1GR    C161  161   0.851   2.947   1.900  0.0000  0.0000  0.0000
    1GR    C162  162   0.993   2.947   1.900  0.0000  0.0000  0.0000
    1GR    C163  163   1.064   3.070   1.900  0.0000  0.0000  0.0000
    1GR    C164  164   1.205   3.070   1.900  0.0000  0.0000  0.0000
    1GR    C165  165   0.851   3.193   1.900  0.0000  0.0000  0.0000
    1GR    C166  166   0.993   3.193   1.900  0.0000  0.0000  0.0000
    1GR    C167  167   1.064   3.316   1.900  0.0000  0.0000  0.0000
    1GR    C168  168   1.205   3.316   1.900  0.0000  0.0000  0.0000
    1GR    C169  169   1.276   0.000   1.900  0.0000  0.0000  0.0000
    1GR    C170  170   1.418   0.000   1.900  0.0000  0.0000  0.0000
    1GR    C171  171   1.489   0.123   1.900  0.0000  0.0000  0.0000
    1GR    C172  172   1.631   0.123   1.900  0.0000  0.0000  0.0000
    1GR    C173  173   1.276   0.246   1.900  0.0000  0.0000  0.0000
    1GR    C174  174   1.418   0.246   1.900  0.0000  0.0000  0.0000
    1GR    C175  175   1.489   0.368   1.900  0.0000  0.0000  0.0000
    1GR    C176  176   1.631   0.368   1.900  0.0000  0.0000  0.0000
    1GR    C177  177   1.276   0.491   1.900  0.0000  0.0000  0.0000
    1GR    C178  178   1.418   0.491   1.900  0.0000  0.0000  0.0000
    1GR    C179  179   1.489   0.614   1.900  0.0000  0.0000  0.0000
    1GR    C180  180   1.631   0.614   1.900  0.0000  0.0000  0.0000
    1GR    C181  181   1.276   0.737   1.900  0.0000  0.0000  0.0000
    1GR    C182  182   1.418   0.737   1.900  0.0000  0.0000  0.0000
    1GR    C183  183   1.489   0.860   1.900  0.0000  0.0000  0.0000
    1GR    C184  184   1.631   0.860   1.900  0.0000  0.0000  0.0000
    1GR    C185  185   1.276   0.982   1.900  0.0000  0.0000  0.0000
    1GR    C186  186   1.418   0.982   1.900  0.0000  0.0000  0.0000
    1GR    C187  187   1.489   1.105   1.900  0.0000  0.0000  0.0000
    1GR    C188  188   1.631   1.105   1.900  0.0000  0.0000  0.0000
    1GR    C189  189   1.276   1.228   1.900  0.0000  0.0000  0.0000
    1GR    C190  190   1.418   1.228   1.900  0.0000  0.0000  0.0000
    1GR    C191  191   1.489   1.351   1.900  0.0000  0.0000  0.0000
    1GR    C192  192   1.631   1.351   1.900  0.0000  0.0000  0.0000
    1GR    C193  193   1.276   1.474   1.900  0.0000  0.0000  0.0000
    1GR    C194  194   1.418   1.474   1.900  0.0000  0.0000  0.0000
    1GR    C195  195   1.489   1.596   1.900  0.0000  0.0000  0.0000
    1GR    C196  196   1.631   1.596   1.900  0.0000  0.0000  0.0000
    1GR    C197  197   1.276   1.719   1.900  0.0000  0.0000  0.0000
    1GR    C198  198   1.418   1.719   1.900  0.0000  0.0000  0.0000
    1GR    C199  199   1.489   1.842   1.900  0.0000  0.0000  0.0000
    1GR    C200  200   1.631   1.842   1.900  0.0000  0.0000  0.0000
    1GR    C201  201   1.276   1.965   1.900  0.0000  0.0000  0.0000
    1GR    C202  202   1.418   1.965   1.900  0.0000  0.0000  0.0000
    1GR    C203  203   1.489   2.088   1.900  0.0000  0.0000  0.0000
    1GR    C204  204   1.631   2.088   1.900  0.0000  0.0000  0.0000
    1GR    C205  205   1.276   2.210   1.900  0.0000  0.0000  0.0000
    1GR    C206  206   1.418   2.210   1.900  0.0000  0.0000  0.0000
    1GR    C207  207   1.489   2.333   1.900  0.0000  0.0000  0.0000
    1GR    C208  208   1.631   2.333   1.900  0.0000  0.0000  0.0000
    1GR    C209  209   1.276   2.456   1.900  0.0000  0.0000  0.0000
    1GR    C210  210   1.418   2.456   1.900  0.0000  0.0000  0.0000
    1GR    C211  211   1.489   2.579   1.900  0.0000  0.0000  0.0000
    1GR    C212  212   1.631   2.579   1.900  0.0000  0.0000  0.0000
    1GR    C213  213   1.276   2.702   1.900  0.0000  0.0000  0.0000
    1GR    C214  214   1.418   2.702   1.900  0.0000  0.0000  0.0000
    1GR    C215  215   1.489   2.824   1.900  0.0000  0.0000  0.0000
    1GR    C216  216   1.631   2.824   1.900  0.0000  0.0000  0.0000
    1GR    C217  217   1.276   2.947   1.900  0.0000  0.0000  0.0000
    1GR    C218  218   1.418   2.947   1.900  0.0000  0.0000  0.0000
    1GR    C219  219   1.489   3.070   1.900  0.0000  0.0000  0.0000
    1GR    C220  220   1.631   3.070   1.900  0.0000  0.0000  0.0000
    1GR    C221  221   1.276   3.193   1.900  0.0000  0.0000  0.0000
    1GR    C222  222   1.418   3.193   1.900  0.0000  0.0000  0.0000
    1GR    C223  223   1.489   3.316   1.900  0.0000  0.0000  0.0000
    1GR    C224  224   1.631   3.316   1.900  0.0000  0.0000  0.0000
    1GR    C225  225   1.702   0.000   1.900  0.0000  0.0000  0.0000
    1GR    C226  226   1.843   0.000   1.900  0.0000  0.0000  0.0000
    1GR    C227  227   1.914   0.123   1.900  0.0000  0.0000  0.0000
    1GR    C228  228   2.056   0.123   1.900  0.0000  0.0000  0.0000
    1GR    C229  229   1.702   0.246   1.900  0.0000  0.0000  0.0000
    1GR    C230  230   1.843   0.246   1.900  0.0000  0.0000  0.0000
    1GR    C231  231   1.914   0.368   1.900  0.0000  0.0000  0.0000
    1GR    C232  232   2.056   0.368   1.900  0.0000  0.0000  0.0000
    1GR    C233  233   1.702   0.491   1.900  0.0000  0.0000  0.0000
    1GR    C234  234   1.843   0.491   1.900  0.0000  0.0000  0.0000
    1GR    C235  235   1.914   0.614   1.900  0.0000  0.0000  0.0000
    1GR    C236  236   2.056   0.614   1.900  0.0000  0.0000  0.0000
    1GR    C237  237   1.702   0.737   1.900  0.0000  0.0000  0.0000
    1GR    C238  238   1.843   0.737   1.900  0.0000  0.0000  0.0000
    1GR    C239  239   1.914   0.860   1.900  0.0000  0.0000  0.0000
    1GR    C240  240   2.056   0.860   1.900  0.0000  0.0000  0.0000
    1GR    C241  241   1.702   0.982   1.900  0.0000  0.0000  0.0000
    1GR    C242  242   1.843   0.982   1.900  0.0000  0.0000  0.0000
    1GR    C243  243   1.914   1.105   1.900  0.0000  0.0000  0.0000
    1GR    C244  244   2.056   1.105   1.900  0.0000  0.0000  0.0000
    1GR    C245  245   1.702   1.228   1.900  0.0000  0.0000  0.0000
    1GR    C246  246   1.843   1.228   1.900  0.0000  0.0000  0.0000
    1GR    C247  247   1.914   1.351   1.900  0.0000  0.0000  0.0000
    1GR    C248  248   2.056   1.351   1.900  0.0000  0.0000  0.0000
    1GR    C249  249   1.702   1.474   1.900  0.0000  0.0000  0.0000
    1GR    C250  250   1.843   1.474   1.900  0.0000  0.0000  0.0000
    1GR    C251  251   1.914   1.596   1.900  0.0000  0.0000  0.0000
    1GR    C252  252   2.056   1.596   1.900  0.0000  0.0000  0.0000
    1GR    C253  253   1.702   1.719   1.900  0.0000  0.0000  0.0000
    1GR    C254  254   1.843   1.719   1.900  0.0000  0.0000  0.0000
    1GR    C255  255   1.914   1.842   1.900  0.0000  0.0000  0.0000
    1GR    C256  256   2.056   1.842   1.900  0.0000  0.0000  0.0000
    1GR    C257  257   1.702   1.965   1.900  0.0000  0.0000  0.0000
    1GR    C258  258   1.843   1.965   1.900  0.0000  0.0000  0.0000
    1GR    C259  259   1.914   2.088   1.900  0.0000  0.0000  0.0000
    1GR    C260  260   2.056   2.088   1.900  0.0000  0.0000  0.0000
    1GR    C261  261   1.702   2.210   1.900  0.0000  0.0000  0.0000
    1GR    C262  262   1.843   2.210   1.900  0.0000  0.0000  0.0000
    1GR    C263  263   1.914   2.333   1.900  0.0000  0.0000  0.0000
    1GR    C264  264   2.056   2.333   1.900  0.0000  0.0000  0.0000
    1GR    C265  265   1.702   2.456   1.900  0.0000  0.0000  0.0000
    1GR    C266  266   1.843   2.456   1.900  0.0000  0.0000  0.0000
    1GR    C267  267   1.914   2.579   1.900  0.0000  0.0000  0.0000
    1GR    C268  268   2.056   2.579   1.900  0.0000  0.0000  0.0000
    1GR    C269  269   1.702   2.702   1.900  0.0000  0.0000  0.0000
    1GR    C270  270   1.843   2.702   1.900  0.0000  0.0000  0.0000
    1GR    C271  271   1.914   2.824   1.900  0.0000  0.0000  0.0000
    1GR    C272  272   2.056   2.824   1.900  0.0000  0.0000  0.0000
    1GR    C273  273   1.702   2.947   1.900  0.0000  0.0000  0.0000
    1GR    C274  274   1.843   2.947   1.900  0.0000  0.0000  0.0000
    1GR    C275  275   1.914   3.070   1.900  0.0000  0.0000  0.0000
    1GR    C276  276   2.056   3.070   1.900  0.0000  0.0000  0.0000
    1GR    C277  277   1.702   3.193   1.900  0.0000  0.0000  0.0000
    1GR    C278  278   1.843   3.193   1.900  0.0000  0.0000  0.0000
    1GR    C279  279   1.914   3.316   1.900  0.0000  0.0000  0.0000
    1GR    C280  280   2.056   3.316   1.900  0.0000  0.0000  0.0000
    1GR    C281  281   2.127   0.000   1.900  0.0000  0.0000  0.0000
    1GR    C282  282   2.269   0.000   1.900  0.0000  0.0000  0.0000
    1GR    C283  283   2.340   0.123   1.900  0.0000  0.0000  0.0000
    1GR    C284  284   2.481   0.123   1.900  0.0000  0.0000  0.0000
    1GR    C285  285   2.127   0.246   1.900  0.0000  0.0000  0.0000
    1GR    C286  286   2.269   0.246   1.900  0.0000  0.0000  0.0000
    1GR    C287  287   2.340   0.368   1.900  0.0000  0.0000  0.0000
    1GR    C288  288   2.481   0.368   1.900  0.0000  0.0000  0.0000
    1GR    C289  289   2.127   0.491   1.900  0.0000  0.0000  0.0000
    1GR    C290  290   2.269   0.491   1.900  0.0000  0.0000  0.0000
    1GR    C291  291   2.340   0.614   1.900  0.0000  0.0000  0.0000
    1GR    C292  292   2.481   0.614   1.900  0.0000  0.0000  0.0000
    1GR    C293  293   2.127   0.737   1.900  0.0000  0.0000  0.0000
    1GR    C294  294   2.269   0.737   1.900  0.0000  0.0000  0.0000
    1GR    C295  295   2.340   0.860   1.900  0.0000  0.0000  0.0000
    1GR    C296  296   2.481   0.860   1.900  0.0000  0.0000  0.0000
    1GR    C297  297   2.127   0.982   1.900  0.0000  0.0000  0.0000
    1GR    C298  298   2.269   0.982   1.900  0.0000  0.0000  0.0000
    1GR    C299  299   2.340   1.105   1.900  0.0000  0.0000  0.0000
    1GR    C300  300   2.481   1.105   1.900  0.0000  0.0000  0.0000
    1GR    C301  301   2.127   1.228   1.900  0.0000  0.0000  0.0000
    1GR    C302  302   2.269   1.228   1.900  0.0000  0.0000  0.0000
    1GR    C303  303   2.340   1.351   1.900  0.0000  0.0000  0.0000
    1GR    C304  304   2.481   1.351   1.900  0.0000  0.0000  0.0000
    1GR    C305  305   2.127   1.474   1.900  0.0000  0.0000  0.0000
    1GR    C306  306   2.269   1.474   1.900  0.0000  0.0000  0.0000
    1GR    C307  307   2.340   1.596   1.900  0.0000  0.0000  0.0000
    1GR    C308  308   2.481   1.596   1.900  0.0000  0.0000  0.0000
    1GR    C309  309   2.127   1.719   1.900  0.0000  0.0000  0.0000
    1GR    C310  310   2.269   1.719   1.900  0.0000  0.0000  0.0000
    1GR    C311  311   2.340   1.842   1.900  0.0000  0.0000  0.0000
    1GR    C312  312   2.481   1.842   1.900  0.0000  0.0000  0.0000
    1GR    C313  313   2.127   1.965   1.900  0.0000  0.0000  0.0000
    1GR    C314  314   2.269   1.965   1.900  0.0000  0.0000  0.0000
    1GR    C315  315   2.340   2.088   1.900  0.0000  0.0000  0.0000
    1GR    C316  316   2.481   2.088   1.900  0.0000  0.0000  0.0000
    1GR    C317  317   2.127   2.210   1.900  0.0000  0.0000  0.0000
    1GR    C318  318   2.269   2.210   1.900  0.0000  0.0000  0.0000
    1GR    C319  319   2.340   2.333   1.900  0.0000  0.0000  0.0000
    1GR    C320  320   2.481   2.333   1.900  0.0000  0.0000  0.0000
    1GR    C321  321   2.127   2.456   1.900  0.0000  0.0000  0.0000
    1GR    C322  322   2.269   2.456   1.900  0.0000  0.0000  0.0000
    1GR    C323  323   2.340   2.579   1.900  0.0000  0.0000  0.0000
    1GR    C324  324   2.481   2.579   1.900  0.0000  0.0000  0.0000
    1GR    C325  325   2.127   2.702   1.900  0.0000  0.0000  0.0000
    1GR    C326  326   2.269   2.702   1.900  0.0000  0.0000  0.0000
    1GR    C327  327   2.340   2.824   1.900  0.0000  0.0000  0.0000
    1GR    C328  328   2.481   2.824   1.900  0.0000  0.0000  0.0000
    1GR    C329  329   2.127   2.947   1.900  0.0000  0.0000  0.0000
    1GR    C330  330   2.269   2.947   1.900  0.0000  0.0000  0.0000
    1GR    C331  331   2.340   3.070   1.900  0.0000  0.0000  0.0000
    1GR    C332  332   2.481   3.070   1.900  0.0000  0.0000  0.0000
    1GR    C333  333   2.127   3.193   1.900  0.0000  0.0000  0.0000
    1GR    C334  334   2.269   3.193   1.900  0.0000  0.0000  0.0000
    1GR    C335  335   2.340   3.316   1.900  0.0000  0.0000  0.0000
    1GR    C336  336   2.481   3.316   1.900  0.0000  0.0000  0.0000
    1GR    C337  337   2.552   0.000   1.900  0.0000  0.0000  0.0000
    1GR    C338  338   2.694   0.000   1.900  0.0000  0.0000  0.0000
    1GR    C339  339   2.765   0.123   1.900  0.0000  0.0000  0.0000
    1GR    C340  340   2.907   0.123   1.900  0.0000  0.0000  0.0000
    1GR    C341  341   2.552   0.246   1.900  0.0000  0.0000  0.0000
    1GR    C342  342   2.694   0.246   1.900  0.0000  0.0000  0.0000
    1GR    C343  343   2.765   0.368   1.900  0.0000  0.0000  0.0000
    1GR    C344  344   2.907   0.368   1.900  0.0000  0.0000  0.0000
    1GR    C345  345   2.552   0.491   1.900  0.0000  0.0000  0.0000
    1GR    C346  346   2.694   0.491   1.900  0.0000  0.0000  0.0000
    1GR    C347  347   2.765   0.614   1.900  0.0000  0.0000  0.0000
    1GR    C348  348   2.907   0.614   1.900  0.0000  0.0000  0.0000
    1GR    C349  349   2.552   0.737   1.900  0.0000  0.0000  0.0000
    1GR    C350  350   2.694   0.737   1.900  0.0000  0.0000  0.0000
    1GR    C351  351   2.765   0.860   1.900  0.0000  0.0000  0.0000
    1GR    C352  352   2.907   0.860   1.900  0.0000  0.0000  0.0000
    1GR    C353  353   2.552   0.982   1.900  0.0000  0.0000  0.0000
    1GR    C354  354   2.694   0.982   1.900  0.0000  0.0000  0.0000
    1GR    C355  355   2.765   1.105   1.900  0.0000  0.0000  0.0000
    1GR    C356  356   2.907   1.105   1.900  0.0000  0.0000  0.0000
    1GR    C357  357   2.552   1.228   1.900  0.0000  0.0000  0.0000
    1GR    C358  358   2.694   1.228   1.900  0.0000  0.0000  0.0000
    1GR    C359  359   2.765   1.351   1.900  0.0000  0.0000  0.0000
    1GR    C360  360   2.907   1.351   1.900  0.0000  0.0000  0.0000
    1GR    C361  361   2.552   1.474   1.900  0.0000  0.0000  0.0000
    1GR    C362  362   2.694   1.474   1.900  0.0000  0.0000  0.0000
    1GR    C363  363   2.765   1.596   1.900  0.0000  0.0000  0.0000
    1GR    C364  364   2.907   1.596   1.900  0.0000  0.0000  0.0000
    1GR    C365  365   2.552   1.719   1.900  0.0000  0.0000  0.0000
    1GR    C366  366   2.694   1.719   1.900  0.0000  0.0000  0.0000
    1GR    C367  367   2.765   1.842   1.900  0.0000  0.0000  0.0000
    1GR    C368  368   2.907   1.842   1.900  0.0000  0.0000  0.0000
    1GR    C369  369   2.552   1.965   1.900  0.0000  0.0000  0.0000
    1GR    C370  370   2.694   1.965   1.900  0.0000  0.0000  0.0000
    1GR    C371  371   2.765   2.088   1.900  0.0000  0.0000  0.0000
    1GR    C372  372   2.907   2.088   1.900  0.0000  0.0000  0.0000
    1GR    C373  373   2.552   2.210   1.900  0.0000  0.0000  0.0000
    1GR    C374  374   2.694   2.210   1.900  0.0000  0.0000  0.0000
    1GR    C375  375   2.765   2.333   1.900  0.0000  0.0000  0.0000
    1GR    C376  376   2.907   2.333   1.900  0.0000  0.0000  0.0000
    1GR    C377  377   2.552   2.456   1.900  0.0000  0.0000  0.0000
    1GR    C378  378   2.694   2.456   1.900  0.0000  0.0000  0.0000
    1GR    C379  379   2.765   2.579   1.900  0.0000  0.0000  0.0000
    1GR    C380  380   2.907   2.579   1.900  0.0000  0.0000  0.0000
    1GR    C381  381   2.552   2.702   1.900  0.0000  0.0000  0.0000
    1GR    C382  382   2.694   2.702   1.900  0.0000  0.0000  0.0000
    1GR    C383  383   2.765   2.824   1.900  0.0000  0.0000  0.0000
    1GR    C384  384   2.907   2.824   1.900  0.0000  0.0000  0.0000
    1GR    C385  385   2.552   2.947   1.900  0.0000  0.0000  0.0000
    1GR    C386  386   2.694   2.947   1.900  0.0000  0.0000  0.0000
    1GR    C387  387   2.765   3.070   1.900  0.0000  0.0000  0.0000
    1GR    C388  388   2.907   3.070   1.900  0.0000  0.0000  0.0000
    1GR    C389  389   2.552   3.193   1.900  0.0000  0.0000  0.0000
    1GR    C390  390   2.694   3.193   1.900  0.0000  0.0000  0.0000
    1GR    C391  391   2.765   3.316   1.900  0.0000  0.0000  0.0000
    1GR    C392  392   2.907   3.316   1.900  0.0000  0.0000  0.0000
    1GR    C393  393   2.978   0.000   1.900  0.0000  0.0000  0.0000
    1GR    C394  394   3.120   0.000   1.900  0.0000  0.0000  0.0000
    1GR    C395  395   3.191   0.123   1.900  0.0000  0.0000  0.0000
    1GR    C396  396   3.332   0.123   1.900  0.0000  0.0000  0.0000
    1GR    C397  397   2.978   0.246   1.900  0.0000  0.0000  0.0000
    1GR    C398  398   3.120   0.246   1.900  0.0000  0.0000  0.0000
    1GR    C399  399   3.191   0.368   1.900  0.0000  0.0000  0.0000
    1GR    C400  400   3.332   0.368   1.900  0.0000  0.0000  0.0000
    1GR    C401  401   2.978   0.491   1.900  0.0000  0.0000  0.0000
    1GR    C402  402   3.120   0.491   1.900  0.0000  0.0000  0.0000
    1GR    C403  403   3.191   0.614   1.900  0.0000  0.0000  0.0000
    1GR    C404  404   3.332   0.614   1.900  0.0000  0.0000  0.0000
    1GR    C405  405   2.978   0.737   1.900  0.0000  0.0000  0.0000
    1GR    C406  406   3.120   0.737   1.900  0.0000  0.0000  0.0000
    1GR    C407  407   3.191   0.860   1.900  0.0000  0.0000  0.0000
    1GR    C408  408   3.332   0.860   1.900  0.0000  0.0000  0.0000
    1GR    C409  409   2.978   0.982   1.900  0.0000  0.0000  0.0000
    1GR    C410  410   3.120   0.982   1.900  0.0000  0.0000  0.0000
    1GR    C411  411   3.191   1.105   1.900  0.0000  0.0000  0.0000
    1GR    C412  412   3.332   1.105   1.900  0.0000  0.0000  0.0000
    1GR    C413  413   2.978   1.228   1.900  0.0000  0.0000  0.0000
    1GR    C414  414   3.120   1.228   1.900  0.0000  0.0000  0.0000
    1GR    C415  415   3.191   1.351   1.900  0.0000  0.0000  0.0000
    1GR    C416  416   3.332   1.351   1.900  0.0000  0.0000  0.0000
    1GR    C417  417   2.978   1.474   1.900  0.0000  0.0000  0.0000
    1GR    C418  418   3.120   1.474   1.900  0.0000  0.0000  0.0000
    1GR    C419  419   3.191   1.596   1.900  0.0000  0.0000  0.0000
    1GR    C420  420   3.332   1.596   1.900  0.0000  0.0000  0.0000
    1GR    C421  421   2.978   1.719   1.900  0.0000  0.0000  0.0000
    1GR    C422  422   3.120   1.719   1.900  0.0000  0.0000  0.0000
    1GR    C423  423   3.191   1.842   1.900  0.0000  0.0000  0.0000
    1GR    C424  424   3.332   1.842   1.900  0.0000  0.0000  0.0000
    1GR    C425  425   2.978   1.965   1.900  0.0000  0.0000  0.0000
    1GR    C426  426   3.120   1.965   1.900  0.0000  0.0000  0.0000
    1GR    C427  427   3.191   2.088   1.900  0.0000  0.0000  0.0000
    1GR    C428  428   3.332   2.088   1.900  0.0000  0.0000  0.0000
    1GR    C429  429   2.978   2.210   1.900  0.0000  0.0000  0.0000
    1GR    C430  430   3.120   2.210   1.900  0.0000  0.0000  0.0000
    1GR    C431  431   3.191   2.333   1.900  0.0000  0.0000  0.0000
    1GR    C432  432   3.332   2.333   1.900  0.0000  0.0000  0.0000
    1GR    C433  433   2.978   2.456   1.900  0.0000  0.0000  0.0000
    1GR    C434  434   3.120   2.456   1.900  0.0000  0.0000  0.0000
    1GR    C435  435   3.191   2.579   1.900  0.0000  0.0000  0.0000
    1GR    C436  436   3.332   2.579   1.900  0.0000  0.0000  0.0000
    1GR    C437  437   2.978   2.702   1.900  0.0000  0.0000  0.0000
    1GR    C438  438   3.120   2.702   1.900  0.0000  0.0000  0.0000
    1GR    C439  439   3.191   2.824   1.900  0.0000  0.0000  0.0000
    1GR    C440  440   3.332   2.824   1.900  0.0000  0.0000  0.0000
    1GR    C441  441   2.978   2.947   1.900  0.0000  0.0000  0.0000
    1GR    C442  442   3.120   2.947   1.900  0.0000  0.0000  0.0000
    1GR    C443  443   3.191   3.070   1.900  0.0000  0.0000  0.0000
    1GR    C444  444   3.332   3.070   1.900  0.0000  0.0000  0.0000
    1GR    C445  445   2.978   3.193   1.900  0.0000  0.0000  0.0000
    1GR    C446  446   3.120   3.193   1.900  0.0000  0.0000  0.0000
    1GR    C447  447   3.191   3.316   1.900  0.0000  0.0000  0.0000
    1GR    C448  448   3.332   3.316   1.900  0.0000  0.0000  0.0000
    2PMMA   CX1  449   2.123   1.198   2.321 -0.3545 -0.8112  0.3871
    2PMMA   CA2  450   2.027   1.176   2.448 -0.0681  0.3090 -0.0900
    2PMMA   CX3  451   1.883   1.149   2.392 -0.5146  0.3901  0.0121
    2PMMA    C4  452   2.077   1.051   2.518 -0.1116  0.4571  0.0185
    2PMMA    O5  453   2.026   0.942   2.527  0.2443 -0.0405  0.2932
    2PMMA   OS6  454   2.180   1.080   2.590  0.2383  0.1709  0.1990
    2PMMA   CE7  455   2.236   0.993   2.688  0.0581  0.0263  0.3760
    2PMMA   CX8  456   2.045   1.310   2.523  0.3816  0.1157  0.5936
    2PMMA   CA9  457   1.954   1.354   2.645  0.6056 -0.3934  0.5218
    2PMMA  CX10  458   1.806   1.358   2.613 -0.1397 -0.1565 -0.3553
    2PMMA   C11  459   1.989   1.504   2.674  0.1415  0.8292 -0.4237
    2PMMA   O12  460   1.934   1.603   2.639  0.0014 -0.7216 -0.0731
    2PMMA  OS13  461   2.101   1.509   2.742  0.2415  0.0323 -0.0947
    2PMMA  CE14  462   2.171   1.633   2.751  0.4597  0.9902 -0.2132
    2PMMA  CX15  463   1.972   1.246   2.767 -1.0233  0.0886 -0.9543
    2PMMA  CA16  464   1.929   1.255   2.919  0.0146  0.1137 -0.6227
    2PMMA  CX17  465   2.000   1.143   2.998 -0.3558  0.0527 -0.0306
    2PMMA   C18  466   1.986   1.386   2.981  0.6183 -0.5255 -0.2040
    2PMMA   O19  467   2.083   1.392   3.049  0.3073 -0.0972 -0.1972
    2PMMA  OS20  468   1.913   1.498   2.957  0.3154 -0.3207  0.2627
    2PMMA  CE21  469   1.928   1.619   3.017 -1.0314 -0.7747 -0.3514
    2PMMA  CX22  470   1.773   1.255   2.943 -0.3577 -0.2187 -0.4635
    2PMMA  CA23  471   1.700   1.233   3.074  0.6666 -0.0198  0.0243
    2PMMA  CX24  472   1.738   1.327   3.193  0.1246  0.3014  0.1660
    2PMMA   C25  473   1.715   1.087   3.129  0.6091  0.8725  0.3684
    2PMMA   O26  474   1.687   0.990   3.059  0.2815  0.1561 -0.3956
    2PMMA  OS27  475   1.745   1.063   3.260 -0.7923 -0.1044 -0.1860
    2PMMA  CE28  476   1.766   0.939   3.316 -0.2535  0.3026 -0.5720
    2PMMA  CX29  477   1.550   1.257   3.042  0.3260 -0.1735 -0.0256
    2PMMA  HC30  478   2.074   1.265   2.250 -0.9777 -2.6626 -0.9747
    2PMMA  HC31  479   2.219   1.245   2.346 -0.4281 -0.5500  0.1749
    2PMMA  HC32  480   2.136   1.104   2.268 -1.9652 -0.6473 -0.3270
    2PMMA  HC33  481   1.817   1.111   2.470  0.9883 -1.1104  0.5830
    2PMMA  HC34  482   1.877   1.080   2.308 -4.3559 -0.5757  1.0076
    2PMMA  HC35  483   1.840   1.238   2.346 -2.5572  0.6392  2.2911
    2PMMA  H136  484   2.181   1.007   2.782  0.5325  0.6923  0.5583
    2PMMA  H137  485   2.339   1.025   2.707 -0.0666 -0.0004  1.1080
    2PMMA  H138  486   2.225   0.889   2.656  0.4017  0.0894  0.0427
    2PMMA  HC39  487   2.147   1.336   2.551  0.5838  0.4374 -0.4191
    2PMMA  HC40  488   2.019   1.389   2.451 -1.9245 -2.3067 -1.3086
    2PMMA  HC41  489   1.746   1.400   2.695  0.8644 -0.6588  0.6518
    2PMMA  HC42  490   1.780   1.416   2.524  0.0601  0.0784 -0.2591
    2PMMA  HC43  491   1.755   1.263   2.591 -0.2679 -0.3120  0.5894
    2PMMA  H144  492   2.102   1.711   2.783 -0.4612 -0.2480  0.9092
    2PMMA  H145  493   2.219   1.662   2.658  2.0570  1.5479  0.7741
    2PMMA  H146  494   2.255   1.633   2.820  0.8085  0.1986 -0.6272
    2PMMA  HC47  495   1.927   1.148   2.748  2.3260 -1.6680 -0.2599
    2PMMA  HC48  496   2.080   1.224   2.769 -1.0048  0.3006  1.4329
    2PMMA  HC49  497   1.981   1.153   3.106 -0.6264 -0.7045 -0.0075
    2PMMA  HC50  498   2.110   1.142   2.994 -0.1558  1.6898  3.1197
    2PMMA  HC51  499   1.957   1.046   2.974 -0.5237 -0.1153  0.9145
    2PMMA  H152  500   2.032   1.654   3.018 -1.1095 -0.5121 -1.0740
    2PMMA  H153  501   1.897   1.614   3.121 -3.3823 -0.8852 -1.0424
    2PMMA  H154  502   1.864   1.694   2.972 -2.1759 -1.1372  0.6504
    2PMMA  HC55  503   1.736   1.347   2.895  0.0777  0.7533  1.0206
    2PMMA  HC56  504   1.739   1.169   2.885 -0.2678 -0.1554 -0.6103
    2PMMA  HC57  505   1.847   1.324   3.200  0.2196  2.7089 -0.1018
    2PMMA  HC58  506   1.705   1.427   3.165  0.1522 -0.0139 -1.0122
    2PMMA  HC59  507   1.697   1.305   3.292 -1.5512 -1.8782 -0.9775
    2PMMA  H160  508   1.790   0.931   3.422  0.7640 -2.4101 -0.9718
    2PMMA  H161  509   1.850   0.892   3.264  0.3111  0.4420  0.2059
    2PMMA  H162  510   1.679   0.877   3.293  0.5461 -1.1348  0.2070
    2PMMA  HC63  511   1.526   1.359   3.012  3.6429  0.3755 -1.0429
    2PMMA  HC64  512   1.523   1.190   2.959 -2.6543 -0.9772  1.5171
    2PMMA  HC65  513   1.481   1.214   3.115  0.0034 -1.4541 -1.0520
    3HFI     O1  514   0.578   0.319   0.575  0.4167 -0.5592 -0.2493
    3HFI     C1  515   0.515   0.434   0.508 -0.7564  0.4708 -0.1032
    3HFI     C2  516   0.360   0.418   0.507  0.2907  0.0521  0.0014
    3HFI     F1  517   0.312   0.357   0.618  0.1493 -0.2328 -0.0540
    3HFI     F2  518   0.317   0.341   0.407 -0.1964  0.4689  0.1797
    3HFI     F3  519   0.299   0.531   0.495 -0.1009 -0.3307  0.0945
    3HFI     C3  520   0.573   0.455   0.360 -0.3849 -0.1221 -0.9037
    3HFI     F4  521   0.699   0.512   0.370 -0.2392  0.7003  1.0399
    3HFI     F5  522   0.500   0.545   0.288 -0.4148 -0.3475 -0.2373
    3HFI     F6  523   0.580   0.345   0.286  0.3526 -0.9217  0.0535
    3HFI     H1  524   0.588   0.246   0.512  0.6817  0.4076 -1.3499
    3HFI     H2  525   0.530   0.529   0.562 -1.7738 -0.0533  1.1258
    4HFI     O1  526   0.952   1.313   2.923 -0.2456 -0.5969  0.3792
    4HFI     C1  527   0.997   1.437   2.851 -0.1836 -0.0008 -0.4639
    4HFI     C2  528   1.010   1.413   2.695 -0.5178 -0.1955 -0.3553
    4HFI     F1  529   1.081   1.303   2.670 -0.2704 -0.1949 -0.0736
    4HFI     F2  530   1.067   1.521   2.629  0.0815 -0.2273  0.2242
    4HFI     F3  531   0.894   1.391   2.637 -0.0905  0.2595  0.0309
    4HFI     C3  532   1.124   1.480   2.916  0.0173 -0.2013 -0.5777
    4HFI     F4  533   1.114   1.506   3.043  0.7021  0.3554 -0.0596
    4HFI     F5  534   1.169   1.586   2.842 -0.2360 -0.0424 -0.0857
    4HFI     F6  535   1.212   1.377   2.908 -0.2000  0.6707  0.4239
    4HFI     H1  536   0.979   1.310   3.016  1.4072  2.6255  0.0921
    4HFI     H2  537   0.926   1.519   2.869 -0.4947 -0.3514 -0.1113
    5HFI     O1  538   0.561   1.348   2.951  0.1847 -0.1271 -0.3578
    5HFI     C1  539   0.455   1.364   2.848 -0.0389  0.0180  0.0430
    5HFI     C2  540   0.361   1.238   2.846  0.3482  0.0706  0.3196
    5HFI     F1  541   0.257   1.253   2.753 -0.8175 -0.2488  0.1520
    5HFI     F2  542   0.311   1.209   2.964  0.2539  0.0453  0.0096
    5HFI     F3  543   0.438   1.137   2.799 -0.0811  0.8127 -0.0233
    5HFI     C3  544   0.510   1.397   2.707  0.3008 -0.0982 -0.0338
    5HFI     F4  545   0.548   1.528   2.700 -0.3987 -0.4654 -0.0143
    5HFI     F5  546   0.418   1.373   2.603  0.1343  0.2927 -0.1726
    5HFI     F6  547   0.620   1.316   2.688  0.1740 -0.0110  0.3501
    5HFI     H1  548   0.594   1.257   2.957  1.6250  0.4900  2.0320
    5HFI     H2  549   0.401   1.456   2.871  0.0485  0.2120 -0.5153
    6HFI     O1  550   2.826   3.005   1.318 -0.2274  0.2918  0.1098
    6HFI     C1  551   2.731   2.991   1.431  0.2725 -0.0371  0.2789
    6HFI     C2  552   2.621   2.882   1.411 -0.1274  0.1688  0.6287
    6HFI     F1  553   2.518   2.927   1.324 -0.2082 -0.1859 -1.0677
    6HFI     F2  554   2.570   2.839   1.530  0.1984  0.2875  0.7174
    6HFI     F3  555   2.671   2.770   1.350  0.1783 -0.6291 -0.1068
    6HFI     C3  556   2.681   3.131   1.472  0.0496 -0.2439 -0.3983
    6HFI     F4  557   2.782   3.201   1.533  0.2633 -0.6880  0.2068
    6HFI     F5  558   2.583   3.115   1.562 -0.3549  0.1571 -0.6939
    6HFI     F6  559   2.634   3.198   1.360 -0.3909 -0.1448 -0.0057
    6HFI     H1  560   2.788   3.043   1.237  1.7740  1.5814 -0.2839
    6HFI     H2  561   2.788   2.948   1.515  0.4388 -0.2145  0.0762
    7HFI     O1  562   0.421   2.165   2.737  0.3098  0.3062  0.1408
    7HFI     C1  563   0.278   2.148   2.728  0.5378 -0.0053 -0.4116
    7HFI     C2  564   0.194   2.276   2.735 -0.2743  0.3030  0.7693
    7HFI     F1  565   0.244   2.365   2.648  0.2835 -0.9421 -0.0660
    7HFI     F2  566   0.196   2.333   2.855  0.0038  0.0263  0.3739
    7HFI     F3  567   0.061   2.254   2.701  0.6029 -0.4198 -0.2206
    7HFI     C3  568   0.228   2.038   2.824 -0.3892 -0.7168 -0.4943
    7HFI     F4  569   0.316   1.933   2.829  0.0575 -0.0923 -0.0735
    7HFI     F5  570   0.106   1.993   2.798  0.3731  0.0125 -0.0118
    7HFI     F6  571   0.218   2.087   2.954 -0.0373 -0.5379  0.0644
    7HFI     H1  572   0.442   2.259   2.728  0.0223  0.3962  0.3853
    7HFI     H2  573   0.254   2.093   2.637 -1.3247 -1.1476  0.7428
    8HFI     O1  574   3.292   1.204   1.341 -0.3835 -0.5953 -0.9732
    8HFI     C1  575   3.342   1.069   1.372 -0.3043 -0.2161  0.2617
    8HFI     C2  576   3.242   0.957   1.328  0.7266 -0.2382  0.4514
    8HFI     F1  577   3.221   0.954   1.191  0.6430 -0.5015 -0.2537
    8HFI     F2  578   3.119   0.968   1.385  0.0466 -0.5875 -0.0832
    8HFI     F3  579   3.287   0.839   1.368 -0.6841 -0.4324  0.1388
    8HFI     C3  580   3.369   1.062   1.524 -0.0192 -0.6229  0.0496
    8HFI     F4  581   3.428   1.183   1.566  0.5291 -0.3739  0.4265
    8HFI     F5  582   3.450   0.950   1.549  0.0156  0.2273 -0.2742
    8HFI     F6  583   3.254   1.046   1.594 -0.1496 -0.0841  0.3747
    8HFI     H1  584   3.329   1.270   1.401 -0.5664 -2.5167  1.3478
    8HFI     H2  585   3.440   1.061   1.323 -0.0392 -1.1304  0.9341
    9HFI     O1  586   1.781   2.027   1.332 -0.4025 -0.2321  0.3159
    9HFI     C1  587   1.777   1.883   1.364 -0.3338  0.3242  0.2489
    9HFI     C2  588   1.794   1.850   1.515  0.6484  0.2136  0.5599
    9HFI     F1  589   1.921   1.866   1.570  0.2906  0.1512 -0.5459
    9HFI     F2  590   1.750   1.727   1.532 -0.2744 -0.1101 -0.1721
    9HFI     F3  591   1.712   1.938   1.580 -0.3883 -0.1808 -0.1784
    9HFI     C3  592   1.875   1.801   1.267 -0.5441 -0.0683 -0.3662
    9HFI     F4  593   1.988   1.773   1.332  0.5174 -0.3237  0.0266
    9HFI     F5  594   1.905   1.867   1.150 -0.0620 -0.1225  0.1451
    9HFI     F6  595   1.814   1.687   1.228 -0.1603  0.0597 -0.2594
    9HFI     H1  596   1.759   2.079   1.411 -0.1372  0.2501  0.0787
    9HFI     H2  597   1.676   1.845   1.347 -0.1484 -1.2099  2.3810
   10HFI     O1  598   2.281   0.191   0.628  0.0107 -0.4473 -0.5357
   10HFI     C1  599   2.387   0.088   0.622  0.2809  0.1894  0.2293
   10HFI     C2  600   2.475   0.106   0.495  0.2449 -0.4207 -0.0425
   10HFI     F1  601   2.595   0.043   0.517  0.2982 -0.0486 -0.1552
   10HFI     F2  602   2.506   0.239   0.481  0.1157 -0.1373  0.1023
   10HFI     F3  603   2.416   0.063   0.383 -0.0573 -0.1228  0.2485
   10HFI     C3  604   2.327  -0.051   0.646  0.5388 -0.0369 -0.2434
   10HFI     F4  605   2.237  -0.082   0.553 -0.5061  0.3619 -0.0796
   10HFI     F5  606   2.269  -0.067   0.775 -0.3249  0.1524  0.4792
   10HFI     F6  607   2.419  -0.145   0.631  0.0219 -0.7577  0.2535
   10HFI     H1  608   2.203   0.164   0.577 -1.0575  1.1370  0.1991
   10HFI     H2  609   2.459   0.112   0.702 -0.3693  0.6914  0.6658
   11HFI     O1  610   3.215   0.627   0.591  0.4043  0.6856 -0.6834
   11HFI     C1  611   3.238   0.712   0.704 -0.4987  0.2074  0.4322
   11HFI     C2  612   3.391   0.738   0.721  0.1856  0.2013 -0.1810
   11HFI     F1  613   3.432   0.823   0.628 -0.0563 -0.4765  0.2555
   11HFI     F2  614   3.461   0.625   0.715 -0.4348 -0.1190 -0.0261
   11HFI     F3  615   3.417   0.791   0.843  0.4684  0.1569 -0.1162
   11HFI     C3  616   3.183   0.645   0.832 -0.1005  0.0084  0.2408
   11HFI     F4  617   3.252   0.529   0.860 -0.5400 -0.1704  0.1553
   11HFI     F5  618   3.053   0.611   0.811  0.3593 -0.1904  0.0213
   11HFI     F6  619   3.188   0.728   0.935 -0.1667 -0.5431 -0.6957
   11HFI     H1  620   3.301   0.591   0.561  0.9664  0.8139  0.7178
   11HFI     H2  621   3.186   0.808   0.709  1.7176  1.5293 -1.1975
   12HFI     O1  622   1.487   2.724   3.167 -0.3693  0.3650 -0.1134
   12HFI     C1  623   1.433   2.838   3.247 -0.2498 -0.4879  0.3974
   12HFI     C2  624   1.380   2.787   3.379 -0.3037 -0.1100 -0.4288
   12HFI     F1  625   1.286   2.694   3.367 -0.1160 -0.0860 -0.5246
   12HFI     F2  626   1.336   2.880   3.460 -0.4406 -0.0551  0.1086
   12HFI     F3  627   1.488   2.730   3.436  0.5078 -0.5706 -0.4220
   12HFI     C3  628   1.326   2.924   3.173  0.6911  0.6051  0.4614
   12HFI     F4  629   1.278   3.026   3.246  0.0767  0.1139 -0.1370
   12HFI     F5  630   1.215   2.853   3.128  0.0521 -0.0381 -0.2178
   12HFI     F6  631   1.384   2.973   3.066  0.1531 -0.0357  0.2666
   12HFI     H1  632   1.535   2.667   3.229 -2.0846  0.0208  0.9269
   12HFI     H2  633   1.513   2.909   3.269  0.7502 -1.5559  0.2129
   13HFI     O1  634   1.951   2.266   1.356 -0.3773 -0.9671 -0.3563
   13HFI     C1  635   2.013   2.388   1.383 -0.1533  0.1547  0.5116
   13HFI     C2  636   2.044   2.412   1.535 -1.3692  0.2840  0.0067
   13HFI     F1  637   1.928   2.446   1.596 -0.6392 -0.1116  0.2162
   13HFI     F2  638   2.132   2.511   1.554  0.0783 -0.1385 -0.3512
   13HFI     F3  639   2.095   2.304   1.601  0.2468  0.0066  0.1156
   13HFI     C3  640   1.950   2.510   1.318 -0.3879 -0.4084 -0.0307
   13HFI     F4  641   1.992   2.632   1.361  0.1128  0.6033 -0.2842
   13HFI     F5  642   1.817   2.509   1.340 -0.2179 -0.0692 -0.0563
   13HFI     F6  643   1.963   2.505   1.187  0.0380  0.5342 -0.0382
   13HFI     H1  644   1.963   2.245   1.262  2.7818 -0.2591 -0.1480
   13HFI     H2  645   2.118   2.384   1.351 -0.6684 -0.6910 -1.1271
   14HFI     O1  646   1.138   1.592   1.122 -0.5063 -0.0079 -0.1858
   14HFI     C1  647   1.199   1.506   1.017 -0.5179 -0.4615 -0.5563
   14HFI     C2  648   1.096   1.412   0.950  0.0144 -0.0455 -0.1725
   14HFI     F1  649   1.051   1.315   1.030  0.1880  0.1101  0.4113
   14HFI     F2  650   1.138   1.347   0.837 -0.2658 -0.7550 -0.2926
   14HFI     F3  651   0.983   1.477   0.918 -0.3404 -0.0664  0.0512
   14HFI     C3  652   1.323   1.425   1.079  0.5218  0.3427 -0.1055
   14HFI     F4  653   1.271   1.370   1.195 -0.0982  0.3171 -0.3301
   14HFI     F5  654   1.425   1.506   1.108 -0.6295 -0.4748  0.3752
   14HFI     F6  655   1.365   1.333   0.987  0.1773  0.3363  0.3611
   14HFI     H1  656   1.041   1.592   1.110 -0.6974  2.4468  1.0346
   14HFI     H2  657   1.246   1.569   0.940  3.0834 -2.3390 -0.0360
   15HFI     O1  658   0.374   2.276   1.338 -0.8328 -0.3741 -0.1952
   15HFI     C1  659   0.400   2.134   1.341  0.1543  0.2688  0.6800
   15HFI     C2  660   0.273   2.056   1.292  0.7637  1.0127 -0.2716
   15HFI     F1  661   0.172   2.062   1.388  0.0274  0.1601 -0.1146
   15HFI     F2  662   0.303   1.928   1.267 -0.1763 -0.3268 -0.2990
   15HFI     F3  663   0.220   2.113   1.183 -0.9850 -0.2206 -0.0500
   15HFI     C3  664   0.434   2.094   1.488  0.2535  0.2441  0.8985
   15HFI     F4  665   0.557   2.146   1.519  0.3244 -0.5079  0.3533
   15HFI     F5  666   0.438   1.958   1.511 -0.2124  0.0320  0.0481
   15HFI     F6  667   0.351   2.150   1.584  0.3756  0.2442 -0.1246
   15HFI     H1  668   0.349   2.306   1.427 -0.8854  0.0830 -0.3637
   15HFI     H2  669   0.485   2.109   1.277 -1.4255  1.1697 -1.8297
   16HFI     O1  670   3.072   0.718   2.447 -0.0797  0.0909 -0.5678
   16HFI     C1  671   3.135   0.591   2.429  0.2626 -0.0739  0.4054
   16HFI     C2  672   3.257   0.560   2.521  0.9081  0.0625 -0.6979
   16HFI     F1  673   3.286   0.431   2.537 -0.1453 -0.3685  0.2424
   16HFI     F2  674   3.223   0.604   2.647 -0.5370 -0.3127 -0.6221
   16HFI     F3  675   3.367   0.619   2.489  0.5555  0.2860  0.2429
   16HFI     C3  676   3.165   0.565   2.275  0.0733  0.2700 -0.6385
   16HFI     F4  677   3.219   0.449   2.249  0.1759  0.2002  0.4278
   16HFI     F5  678   3.240   0.654   2.223  0.6286  0.2200 -0.1425
   16HFI     F6  679   3.056   0.563   2.196 -0.4801 -0.2290 -0.3177
   16HFI     H1  680   3.133   0.794   2.446  1.3232 -0.9564  1.4564
   16HFI     H2  681   3.063   0.512   2.451 -0.0452 -0.1201 -0.7242
   17HFI     O1  682   1.952   0.169   1.344 -0.4277  0.3824  0.9272
   17HFI     C1  683   1.961   0.286   1.426  0.1929 -0.2454 -0.4581
   17HFI     C2  684   2.101   0.294   1.504  0.5733  0.6441  0.1798
   17HFI     F1  685   2.109   0.407   1.579 -0.0681  0.0979 -0.0914
   17HFI     F2  686   2.201   0.290   1.408  0.1326 -0.0353  0.3052
   17HFI     F3  687   2.120   0.189   1.586  0.0248 -0.0706 -0.0246
   17HFI     C3  688   1.835   0.296   1.516 -0.2609 -0.2461  0.2248
   17HFI     F4  689   1.721   0.301   1.439 -0.4173  0.4778  0.1902
   17HFI     F5  690   1.841   0.401   1.597 -0.2092  0.3613  0.7909
   17HFI     F6  691   1.820   0.187   1.595  0.6394 -0.0464 -0.7109
   17HFI     H1  692   1.965   0.096   1.407 -0.1978  0.7256  1.2779
   17HFI     H2  693   1.956   0.377   1.364 -0.0510 -0.0227 -0.1116
   18HFI     O1  694   0.161   3.149   3.629  0.6345 -0.6332  0.0723
   18HFI     C1  695   0.018   3.104   3.644 -0.3764  0.1736 -0.0243
   18HFI     C2  696  -0.083   3.216   3.619 -0.1929 -0.5527 -0.5891
   18HFI     F1  697  -0.092   3.302   3.736 -0.2822  0.4539 -0.0102
   18HFI     F2  698  -0.201   3.164   3.601 -0.4623 -0.0731  0.0835
   18HFI     F3  699  -0.050   3.287   3.511 -0.0746  0.3395  0.3284
   18HFI     C3  700   0.006   3.034   3.773 -0.2768  0.2468  0.4526
   18HFI     F4  701   0.059   3.103   3.876  0.5449 -0.1477  0.4040
   18HFI     F5  702   0.074   2.921   3.756  0.2260  0.3008 -0.1147
   18HFI     F6  703  -0.122   3.005   3.804  0.2597 -0.4975 -0.4142
   18HFI     H1  704   0.176   3.163   3.534  0.6605 -3.1577 -0.3395
   18HFI     H2  705  -0.006   3.025   3.572 -2.0810  1.8635 -1.3435
   19HFI     O1  706   2.325   0.012   3.548 -0.5687 -0.1158 -0.3470
   19HFI     C1  707   2.228   0.116   3.527 -0.0686 -0.2247  0.4797
   19HFI     C2  708   2.080   0.060   3.477  0.3528 -0.3183  0.4694
   19HFI     F1  709   2.042  -0.047   3.540 -0.2697  0.0307  0.0274
   19HFI     F2  710   2.086   0.023   3.350  0.0284 -0.1122 -0.0575
   19HFI     F3  711   1.981   0.158   3.493 -0.0132  0.1212  0.1332
   19HFI     C3  712   2.286   0.221   3.431 -0.5185  0.0929  0.2876
   19HFI     F4  713   2.198   0.321   3.414  0.1482 -0.3994  0.2466
   19HFI     F5  714   2.312   0.169   3.307 -0.6995  0.2738  0.7687
   19HFI     F6  715   2.408   0.273   3.470 -0.0571 -0.0559  0.3399
   19HFI     H1  716   2.325  -0.039   3.465 -0.6123  0.8656 -0.9526
   19HFI     H2  717   2.201   0.160   3.624  0.6300  2.2594 -0.4245
   20HFI     O1  718   1.419   0.500   1.477 -0.5657  0.3929  0.7196
   20HFI     C1  719   1.303   0.557   1.537  0.6004 -1.2939 -0.3383
   20HFI     C2  720   1.172   0.491   1.500 -0.0247 -0.3587  0.6241
   20HFI     F1  721   1.137   0.533   1.382  0.0940  0.1755  0.0547
   20HFI     F2  722   1.077   0.508   1.592 -0.0849 -0.3425  0.2881
   20HFI     F3  723   1.186   0.360   1.492 -0.1189  0.0815 -0.3065
   20HFI     C3  724   1.296   0.711   1.503 -0.7284 -0.3311  0.1066
   20HFI     F4  725   1.407   0.776   1.552  0.5643 -1.1288  0.1033
   20HFI     F5  726   1.186   0.760   1.547 -0.3394 -0.1447 -0.3111
   20HFI     F6  727   1.299   0.729   1.371  0.1311 -0.1463  0.1352
   20HFI     H1  728   1.402   0.405   1.470 -1.1113  0.4942  0.6381
   20HFI     H2  729   1.309   0.552   1.647 -0.7283  0.2509 -0.1805
   21HFI     O1  730   1.183   2.032   3.452 -0.2376  0.2931  0.0898
   21HFI     C1  731   1.097   2.151   3.423 -0.2133  0.1185 -0.2468
   21HFI     C2  732   0.963   2.117   3.350  0.1799 -0.2288 -0.0760
   21HFI     F1  733   0.899   2.218   3.296 -0.1198  0.1476  0.1887
   21HFI     F2  734   0.875   2.055   3.430  0.1926  0.2328  0.2604
   21HFI     F3  735   0.994   2.038   3.244  0.4300  0.4202  0.1891
   21HFI     C3  736   1.177   2.261   3.365  0.2542 -0.7730 -0.2528
   21HFI     F4  737   1.099   2.372   3.343 -0.8169 -0.0456  0.1677
   21HFI     F5  738   1.251   2.230   3.259  0.3061  0.2064  0.0034
   21HFI     F6  739   1.264   2.314   3.461 -0.3839 -0.4282 -0.1718
   21HFI     H1  740   1.188   1.977   3.373  0.4811 -0.2839  0.5335
   21HFI     H2  741   1.051   2.184   3.517 -0.3860  0.4495 -0.4435
   22HFI     O1  742   0.094   3.157   0.898  0.1728  0.3285 -0.1873
   22HFI     C1  743   0.131   3.029   0.954 -0.8415 -0.1251 -0.0827
   22HFI     C2  744   0.040   2.992   1.067  0.5154 -1.3943  0.3118
   22HFI     F1  745  -0.080   2.961   1.007  0.4255  0.1815  0.3045
   22HFI     F2  746   0.012   3.097   1.139 -0.4208 -0.2290  0.0884
   22HFI     F3  747   0.084   2.894   1.149  0.3862 -0.0091 -0.5139
   22HFI     C3  748   0.284   3.048   0.988 -0.2341 -0.2974  1.0836
   22HFI     F4  749   0.339   2.934   1.038 -0.2161  0.4119 -0.2686
   22HFI     F5  750   0.295   3.151   1.073 -0.9169 -0.5270  0.2381
   22HFI     F6  751   0.348   3.089   0.870  0.0825 -0.4152 -0.4011
   22HFI     H1  752   0.090   3.223   0.969  1.2471  0.3399 -0.1292
   22HFI     H2  753   0.124   2.948   0.880 -0.1905 -1.3409  1.1488
   23HFI     O1  754   3.143   3.024   2.876 -0.2452 -0.3580 -0.1450
   23HFI     C1  755   3.012   2.996   2.816 -0.9480 -0.2590  0.2226
   23HFI     C2  756   2.952   3.121   2.726 -0.3519 -0.3567  0.3370
   23HFI     F1  757   3.049   3.179   2.647 -0.3217  0.1384 -0.0926
   23HFI     F2  758   2.904   3.221   2.805  0.7822 -0.5420  0.5307
   23HFI     F3  759   2.859   3.072   2.642  0.2377 -0.2681  0.0578
   23HFI     C3  760   2.907   2.959   2.922 -0.6924  0.0945  0.1977
   23HFI     F4  761   2.779   2.948   2.880 -0.1431  0.1041  0.1034
   23HFI     F5  762   2.905   3.043   3.032 -0.8271  0.0925 -0.4992
   23HFI     F6  763   2.932   2.835   2.973 -0.4231  0.3490 -0.2282
   23HFI     H1  764   3.204   2.983   2.812 -1.6646  0.8001 -2.2956
   23HFI     H2  765   3.020   2.919   2.738  0.4456 -0.6495  0.7280
   24HFI     O1  766   1.468   1.320   1.419  0.0847 -0.6436  0.4720
   24HFI     C1  767   1.580   1.279   1.496 -0.1472 -0.6036 -0.0096
   24HFI     C2  768   1.711   1.353   1.470 -0.4871 -0.5177  0.2471
   24HFI     F1  769   1.753   1.313   1.346 -0.2469 -0.3566  0.0508
   24HFI     F2  770   1.807   1.317   1.561  0.0768  0.3858 -0.5822
   24HFI     F3  771   1.696   1.485   1.471 -0.1679  0.5753  0.1704
   24HFI     C3  772   1.586   1.126   1.487 -0.5491 -0.1739 -0.1552
   24HFI     F4  773   1.620   1.090   1.363 -0.2973 -0.2702 -0.1425
   24HFI     F5  774   1.467   1.067   1.518  0.6521 -0.2058  0.7498
   24HFI     F6  775   1.673   1.078   1.579  0.0878 -0.1544  0.4488
   24HFI     H1  776   1.482   1.292   1.327  0.2995 -0.4012  0.4303
   24HFI     H2  777   1.565   1.304   1.602 -1.2083  0.5239 -0.4146
   25HFI     O1  778   0.425   1.759   3.630  0.1584 -0.0143 -0.1874
   25HFI     C1  779   0.373   1.832   3.750 -1.0990 -0.3294  1.0035
   25HFI     C2  780   0.223   1.837   3.751  0.2006 -0.1941 -0.4519
   25HFI     F1  781   0.179   1.944   3.683 -0.2720 -0.0701 -0.3182
   25HFI     F2  782   0.176   1.832   3.883  0.2457 -0.4672 -0.1729
   25HFI     F3  783   0.176   1.731   3.687  0.0344 -0.9145 -0.6790
   25HFI     C3  784   0.441   1.974   3.769  0.4745 -0.1762  0.1008
   25HFI     F4  785   0.437   2.048   3.653 -0.1106  0.3631 -0.2456
   25HFI     F5  786   0.570   1.959   3.799 -0.3076  0.0323  0.1526
   25HFI     F6  787   0.387   2.031   3.874 -0.4110  0.1601 -0.0387
   25HFI     H1  788   0.520   1.778   3.624 -0.1172  1.9521  1.1538
   25HFI     H2  789   0.405   1.774   3.837 -0.3444 -0.7901  0.4195
   26HFI     O1  790   1.010   2.323   1.042  0.1155 -0.0077  0.1260
   26HFI     C1  791   0.966   2.414   0.942 -0.3672 -0.2083  0.3670
   26HFI     C2  792   1.056   2.544   0.939  0.2837  0.3717 -0.2698
   26HFI     F1  793   1.025   2.637   0.843  0.2325 -0.3706  0.3534
   26HFI     F2  794   1.185   2.509   0.917  0.0144 -0.0703  0.3137
   26HFI     F3  795   1.049   2.610   1.060  0.0459  0.4893 -0.2530
   26HFI     C3  796   0.813   2.438   0.951 -0.1664 -1.0470 -0.3001
   26HFI     F4  797   0.773   2.465   1.072  0.2242  0.1814  0.0663
   26HFI     F5  798   0.748   2.328   0.915  0.5207  0.2684 -0.2296
   26HFI     F6  799   0.772   2.541   0.877 -0.2010 -0.3213 -0.6498
   26HFI     H1  800   1.101   2.292   1.027 -0.1421 -1.1057  0.7683
   26HFI     H2  801   0.979   2.363   0.846  2.1155  0.5048  0.2974
   27HFI     O1  802   0.377   3.343   0.394  0.4687  0.0620  0.0448
   27HFI     C1  803   0.275   3.315   0.491  0.6057  0.3854 -0.4274
   27HFI     C2  804   0.289   3.394   0.623  0.0282  0.3518  0.3136
   27HFI     F1  805   0.303   3.522   0.599 -0.2814  0.1203  0.2682
   27HFI     F2  806   0.399   3.362   0.695  0.4703  0.1548  0.0525
   27HFI     F3  807   0.182   3.383   0.698  0.2643 -0.1213 -0.4852
   27HFI     C3  808   0.246   3.158   0.506  0.5060 -0.9500 -0.0244
   27HFI     F4  809   0.145   3.129   0.597  0.3523 -0.5341  0.6141
   27HFI     F5  810   0.355   3.089   0.549  0.5256  0.1197 -1.0288
   27HFI     F6  811   0.206   3.106   0.387 -0.2682  0.2244 -0.0961
   27HFI     H1  812   0.344   3.328   0.304 -0.3032 -1.9582  0.6409
   27HFI     H2  813   0.179   3.354   0.456  1.2460  2.0690 -0.3336
   28HFI     O1  814   0.864   0.435   0.812  0.3755 -0.5088  0.3954
   28HFI     C1  815   0.763   0.533   0.857 -0.2511  0.2370 -0.6077
   28HFI     C2  816   0.760   0.658   0.766  0.5760  0.0730  0.7531
   28HFI     F1  817   0.676   0.752   0.809  0.3907 -0.0759  0.0818
   28HFI     F2  818   0.729   0.633   0.640  0.8320 -0.0874  0.1828
   28HFI     F3  819   0.883   0.713   0.757 -0.2406  0.0797  0.4926
   28HFI     C3  820   0.777   0.564   1.003 -1.1613 -0.8044 -0.4691
   28HFI     F4  821   0.670   0.618   1.068 -0.6206 -0.1526 -0.0512
   28HFI     F5  822   0.885   0.641   1.035  0.3138 -0.2198 -0.5556
   28HFI     F6  823   0.796   0.441   1.064 -0.2895  0.4825  0.4393
   28HFI     H1  824   0.898   0.379   0.884  0.9894 -1.1533 -0.3927
   28HFI     H2  825   0.668   0.479   0.852  0.3842 -1.0669  0.7728
   29HFI     O1  826   0.407   2.502   1.561 -0.3986  0.4809  0.4358
   29HFI     C1  827   0.417   2.609   1.468  0.0168  0.1397 -0.8037
   29HFI     C2  828   0.533   2.708   1.496 -0.1236 -0.5157 -0.2215
   29HFI     F1  829   0.511   2.815   1.574  0.2594  0.0710 -0.2910
   29HFI     F2  830   0.582   2.752   1.382 -0.2170 -0.1397 -0.3898
   29HFI     F3  831   0.638   2.651   1.565 -0.0575 -0.1706 -0.0476
   29HFI     C3  832   0.286   2.695   1.455 -0.1005  0.4460 -0.4792
   29HFI     F4  833   0.249   2.762   1.569 -0.1649  0.0598  0.1712
   29HFI     F5  834   0.185   2.611   1.426 -0.2754  0.3470  0.1624
   29HFI     F6  835   0.303   2.785   1.346  0.1062  0.4432 -0.0542
   29HFI     H1  836   0.461   2.520   1.640 -0.5536  0.0855  0.6350
   29HFI     H2  837   0.433   2.577   1.365 -2.8067  1.9639 -1.8623
   30HFI     O1  838   2.629   0.083   3.647 -0.4197 -0.2966 -0.1963
   30HFI     C1  839   2.584   0.117   3.781  0.3763  0.0159  0.3345
   30HFI     C2  840   2.539   0.269   3.812  0.4840  0.5783 -0.3298
   30HFI     F1  841   2.640   0.360   3.792  0.2829  0.4493 -0.4238
   30HFI     F2  842   2.496   0.281   3.936  0.0072 -0.2579 -0.4615
   30HFI     F3  843   2.437   0.305   3.732 -0.1010  0.0524  0.3203
   30HFI     C3  844   2.697   0.063   3.882  0.0938  0.2682  0.1835
   30HFI     F4  845   2.787  -0.032   3.826 -0.1526  0.0990  0.0763
   30HFI     F5  846   2.641  -0.006   3.981  0.3594 -0.2548  0.1222
   30HFI     F6  847   2.777   0.162   3.936 -0.1282  0.9518  0.2015
   30HFI     H1  848   2.578   0.132   3.580 -1.0340 -2.1661 -1.1256
   30HFI     H2  849   2.500   0.054   3.809  0.4673 -0.1549  0.2199
   31HFI     O1  850   3.297   1.765   0.735 -0.3826  0.1603  0.0073
   31HFI     C1  851   3.329   1.812   0.873  0.6210  0.2858  0.0095
   31HFI     C2  852   3.205   1.832   0.958 -0.2360 -0.1807 -0.2490
   31HFI     F1  853   3.116   1.918   0.899 -0.1392 -0.0896  0.9275
   31HFI     F2  854   3.239   1.878   1.079  0.1737  0.1828 -0.1627
   31HFI     F3  855   3.143   1.711   0.977  0.2478  0.0895 -0.6375
   31HFI     C3  856   3.417   1.938   0.857  0.5842  0.0257 -0.3229
   31HFI     F4  857   3.470   1.981   0.975 -0.1171 -0.2829  0.4720
   31HFI     F5  858   3.356   2.045   0.800  0.4247 -0.5514  0.3245
   31HFI     F6  859   3.518   1.903   0.779 -0.2225 -0.8538 -0.0134
   31HFI     H1  860   3.251   1.840   0.693 -1.5036 -1.3230 -1.5101
   31HFI     H2  861   3.378   1.731   0.929  0.4741  0.8709  0.9999
   32HFI     O1  862   0.518   0.991   0.678  0.5424  0.3925  0.9187
   32HFI     C1  863   0.411   1.002   0.576 -0.4943 -0.0727 -0.0173
   32HFI     C2  864   0.282   1.074   0.628 -0.8058  0.4012 -0.6034
   32HFI     F1  865   0.189   1.091   0.539  0.0075  0.2311  0.1924
   32HFI     F2  866   0.318   1.201   0.660  0.2246 -0.1928 -0.6773
   32HFI     F3  867   0.233   1.026   0.748 -0.1747 -0.6745 -0.4912
   32HFI     C3  868   0.389   0.860   0.519 -0.4961 -0.4017  0.0812
   32HFI     F4  869   0.332   0.781   0.615  0.3257 -0.2793  0.0730
   32HFI     F5  870   0.500   0.796   0.477  0.0563 -0.1634 -0.1345
   32HFI     F6  871   0.313   0.870   0.411 -0.2352 -0.8091  0.3886
   32HFI     H1  872   0.483   0.951   0.760  0.3418  0.0717  0.6736
   32HFI     H2  873   0.440   1.058   0.487 -0.5617 -0.0476 -0.0233
   33HFI     O1  874   1.072   1.361   0.317  0.2658  0.3341 -0.3408
   33HFI     C1  875   1.115   1.349   0.177 -0.3675 -0.3397 -0.2545
   33HFI     C2  876   1.000   1.366   0.078 -0.5129  0.4943 -1.3496
   33HFI     F1  877   1.035   1.341  -0.050 -0.1517 -0.5229  0.0641
   33HFI     F2  878   0.953   1.489   0.087 -0.3124 -0.7153  0.1794
   33HFI     F3  879   0.903   1.275   0.099 -0.0144 -0.2920 -0.2555
   33HFI     C3  880   1.200   1.221   0.158 -0.1381  0.2675 -0.0028
   33HFI     F4  881   1.297   1.224   0.255  0.1193  0.3294  0.2527
   33HFI     F5  882   1.257   1.216   0.046 -0.0377  0.5928  0.0695
   33HFI     F6  883   1.129   1.108   0.178 -0.0303 -0.1658  0.0248
   33HFI     H1  884   1.017   1.285   0.344  2.0565 -1.6532 -2.1337
   33HFI     H2  885   1.187   1.429   0.155 -1.1978  0.5181  0.1015
   34HFI     O1  886   1.312   1.834   3.271 -0.2215  0.5249  0.0590
   34HFI     C1  887   1.362   1.781   3.148 -0.2524 -0.0405 -0.0923
   34HFI     C2  888   1.520   1.753   3.148  0.7996  0.4547  0.0090
   34HFI     F1  889   1.566   1.697   3.264  0.0727 -0.2461 -0.1848
   34HFI     F2  890   1.592   1.863   3.120  0.0972 -0.3297  0.4101
   34HFI     F3  891   1.551   1.669   3.050 -0.3893  0.2128 -1.0239
   34HFI     C3  892   1.318   1.865   3.020 -0.1499  0.2568 -0.5645
   34HFI     F4  893   1.183   1.871   3.012  0.1954 -0.4882  0.3789
   34HFI     F5  894   1.358   1.798   2.907 -0.4994 -0.6476 -0.0376
   34HFI     F6  895   1.367   1.993   3.020 -0.1409 -0.1733  0.2041
   34HFI     H1  896   1.372   1.800   3.339  1.4528  1.8567 -0.7305
   34HFI     H2  897   1.319   1.680   3.143 -0.0429 -0.2706  2.2313
   35HFI     O1  898   1.723   3.025   0.951  0.1872  0.7232 -0.2336
   35HFI     C1  899   1.800   2.944   1.047 -0.0208 -0.3641  0.8361
   35HFI     C2  900   1.920   3.030   1.094  0.6080 -0.5873 -0.3817
   35HFI     F1  901   2.019   2.973   1.160 -0.3471  0.3933 -0.4482
   35HFI     F2  902   1.873   3.125   1.175 -0.2421  0.2524  0.1939
   35HFI     F3  903   1.981   3.091   0.990 -0.9238  0.2047  0.4023
   35HFI     C3  904   1.837   2.804   0.992 -0.2446  0.1734 -0.2191
   35HFI     F4  905   1.890   2.734   1.093 -0.4898 -0.2022 -0.4991
   35HFI     F5  906   1.923   2.797   0.887 -0.0674 -0.1930  0.3002
   35HFI     F6  907   1.722   2.746   0.950 -0.0381  0.3631 -0.2237
   35HFI     H1  908   1.774   3.097   0.909 -0.3313  1.3461  0.2189
   35HFI     H2  909   1.738   2.930   1.137  0.0168 -0.6936  0.8100
   36HFI     O1  910   0.763   0.066   1.068  0.1198 -0.1260 -0.3489
   36HFI     C1  911   0.879  -0.011   1.044 -0.7042  0.6402  0.0404
   36HFI     C2  912   0.916  -0.109   1.158 -0.4948 -0.6837 -0.1587
   36HFI     F1  913   0.990  -0.215   1.112  0.0077  0.1910 -0.5122
   36HFI     F2  914   0.807  -0.161   1.211 -0.4972 -0.7833  0.0615
   36HFI     F3  915   0.991  -0.051   1.250 -0.0117  0.1995  0.0868
   36HFI     C3  916   0.997   0.085   1.000  0.2868 -0.0552 -0.5124
   36HFI     F4  917   1.050   0.163   1.106 -0.1295  0.1525 -0.2851
   36HFI     F5  918   0.958   0.173   0.901 -0.5202 -0.1485  0.4860
   36HFI     F6  919   1.099   0.013   0.942  0.3740 -0.4848 -0.0587
   36HFI     H1  920   0.692   0.000   1.080 -0.1787  0.0799 -0.9618
   36HFI     H2  921   0.855  -0.080   0.962 -0.7477  1.2910 -0.5004
   37HFI     O1  922   2.417   0.513   1.583  0.2635  0.7965  0.3983
   37HFI     C1  923   2.421   0.639   1.510 -0.2996  0.0118  0.1286
   37HFI     C2  924   2.278   0.701   1.480 -0.3429 -0.2743  0.5907
   37HFI     F1  925   2.286   0.826   1.429  0.0473 -0.1299 -0.2768
   37HFI     F2  926   2.206   0.709   1.592  0.0270 -0.7010 -0.0540
   37HFI     F3  927   2.207   0.625   1.398  0.1778 -0.4022 -0.1884
   37HFI     C3  928   2.501   0.616   1.381  0.4739 -0.1691  0.0127
   37HFI     F4  929   2.634   0.601   1.407 -0.1186 -0.1261  0.3751
   37HFI     F5  930   2.507   0.723   1.305 -0.1571  0.3064  0.7211
   37HFI     F6  931   2.451   0.512   1.308  0.2166 -0.1706  0.0647
   37HFI     H1  932   2.343   0.519   1.645 -0.3442 -0.7177 -0.1723
   37HFI     H2  933   2.477   0.714   1.566 -0.8773  0.4794  0.0850
   38HFI     O1  934   1.181   1.858   1.502  0.2375 -0.7294 -0.3849
   38HFI     C1  935   1.285   1.800   1.418 -0.3059 -0.0593  0.5467
   38HFI     C2  936   1.365   1.690   1.487  0.6543  0.3170  1.1257
   38HFI     F1  937   1.477   1.651   1.418  0.2005 -0.0233 -0.0845
   38HFI     F2  938   1.295   1.575   1.509 -0.2308  0.1000  0.6200
   38HFI     F3  939   1.414   1.733   1.604  0.0303 -0.5526 -0.3361
   38HFI     C3  940   1.369   1.919   1.353 -0.4538 -0.2357 -0.5773
   38HFI     F4  941   1.456   1.962   1.444  0.4421  0.1111 -0.6748
   38HFI     F5  942   1.291   2.025   1.309  0.5448  0.3027  0.0451
   38HFI     F6  943   1.452   1.877   1.250  0.0037  0.4809  0.0898
   38HFI     H1  944   1.216   1.944   1.532 -0.1952 -0.5330 -0.4337
   38HFI     H2  945   1.236   1.760   1.328  2.9348 -0.4844 -1.1081
   39HFI     O1  946   1.394   0.400   3.590 -0.2367 -0.4452  0.3787
   39HFI     C1  947   1.395   0.361   3.452 -0.1549  0.0193 -0.3610
   39HFI     C2  948   1.411   0.478   3.356  1.0510  0.0758  0.9103
   39HFI     F1  949   1.443   0.452   3.232 -0.3731  0.2862  0.2522
   39HFI     F2  950   1.509   0.563   3.405 -0.0301  0.1768  0.5920
   39HFI     F3  951   1.304   0.558   3.355  0.0387 -0.5261 -0.2171
   39HFI     C3  952   1.270   0.271   3.424  0.4037 -0.0643 -0.0297
   39HFI     F4  953   1.255   0.172   3.520 -0.1143  0.4699  0.2188
   39HFI     F5  954   1.286   0.215   3.300 -0.2824  0.1833  0.3373
   39HFI     F6  955   1.160   0.348   3.416  0.4769  0.4857 -0.0574
   39HFI     H1  956   1.411   0.496   3.588  0.2808 -0.5170  0.9354
   39HFI     H2  957   1.482   0.297   3.434  0.3795  0.5727  0.2208
   40HFI     O1  958   2.125   0.489   2.726 -0.1555  0.0129 -0.0658
   40HFI     C1  959   2.200   0.502   2.849 -0.4236 -0.2335  0.6151
   40HFI     C2  960   2.131   0.604   2.938  0.5112 -0.2303 -0.1299
   40HFI     F1  961   2.203   0.636   3.049 -0.6716  0.1066  0.0863
   40HFI     F2  962   2.016   0.543   2.976 -0.0561  0.7379  0.0423
   40HFI     F3  963   2.107   0.722   2.866 -0.0743 -0.4615 -0.5362
   40HFI     C3  964   2.344   0.538   2.811 -0.3397 -0.3143 -0.1727
   40HFI     F4  965   2.347   0.652   2.731 -0.2698  0.3499 -0.1173
   40HFI     F5  966   2.403   0.443   2.734 -0.6086  0.2194  0.1829
   40HFI     F6  967   2.424   0.563   2.922  0.3237 -0.2159  0.1985
   40HFI     H1  968   2.084   0.574   2.704  0.6157  0.5989  0.7515
   40HFI     H2  969   2.221   0.406   2.898  0.6316  0.5424  1.7037
   41HFI     O1  970   1.837   2.893   0.476 -0.0607  0.4664 -0.3849
   41HFI     C1  971   1.888   3.033   0.466 -0.1788  0.4991  0.5267
   41HFI     C2  972   2.006   3.046   0.366 -0.0931  0.1183  0.1061
   41HFI     F1  973   2.129   3.019   0.421  0.0093  0.1409  0.5195
   41HFI     F2  974   2.006   3.170   0.313 -0.0792 -0.0438  0.2187
   41HFI     F3  975   1.994   2.972   0.255  0.2700  0.2514  0.3770
   41HFI     C3  976   1.923   3.088   0.609  0.1616  0.1222 -0.1950
   41HFI     F4  977   1.806   3.119   0.674 -0.2607 -0.2816 -0.3427
   41HFI     F5  978   2.010   3.190   0.612  0.0002  0.5238  0.4598
   41HFI     F6  979   1.982   2.980   0.682  0.3296  0.0538 -0.0759
   41HFI     H1  980   1.861   2.853   0.562 -3.5097  0.0809  0.4599
   41HFI     H2  981   1.806   3.089   0.419  1.1455  0.1392 -2.3610
   42HFI     O1  982   0.445   2.026   3.307 -1.0373 -0.0796 -0.0676
   42HFI     C1  983   0.447   2.138   3.217 -0.4062  0.0717  0.0081
   42HFI     C2  984   0.588   2.203   3.201 -0.4395  0.1963  0.3404
   42HFI     F1  985   0.590   2.304   3.108  0.2474 -0.6684  0.1393
   42HFI     F2  986   0.677   2.112   3.158  0.1184  0.0147 -0.4195
   42HFI     F3  987   0.633   2.255   3.323 -0.3673  0.4814  0.0102
   42HFI     C3  988   0.340   2.247   3.264  0.5198  0.4166 -0.6440
   42HFI     F4  989   0.338   2.359   3.184 -0.9587 -0.3928  0.5959
   42HFI     F5  990   0.352   2.284   3.395 -0.0318 -0.1416  0.1486
   42HFI     F6  991   0.224   2.187   3.255 -0.0840 -0.0517 -0.4193
   42HFI     H1  992   0.363   1.975   3.292 -1.4321  0.5614 -0.1163
   42HFI     H2  993   0.423   2.107   3.115 -0.5458  1.2192 -0.3141
   43HFI     O1  994   0.374   2.912   3.481  0.3788 -0.3264  0.2828
   43HFI     C1  995   0.294   2.849   3.376 -0.2441 -0.0243 -0.0596
   43HFI     C2  996   0.231   2.952   3.285  0.1263 -0.2682  0.1546
   43HFI     F1  997   0.130   3.026   3.342 -0.5849 -0.7110  0.5781
   43HFI     F2  998   0.178   2.897   3.172  0.5722  0.2574 -0.2062
   43HFI     F3  999   0.323   3.039   3.237 -0.0255 -0.0540  0.0839
   43HFI     C3 1000   0.189   2.746   3.428  0.2065  0.6150  0.1339
   43HFI     F4 1001   0.253   2.656   3.511 -0.9474  0.3105  0.8768
   43HFI     F5 1002   0.127   2.680   3.330  0.2568 -0.2709  0.2873
   43HFI     F6 1003   0.092   2.798   3.502  0.2902 -0.7728  0.0781
   43HFI     H1 1004   0.375   2.854   3.559  0.4853 -0.5062  0.1499
   43HFI     H2 1005   0.357   2.794   3.304  1.1283  1.5431 -0.0728
   44HFI     O1 1006   2.375   1.954   3.091 -0.7509 -0.1816  0.3993
   44HFI     C1 1007   2.269   2.054   3.097 -0.6002  0.1231  0.3450
   44HFI     C2 1008   2.241   2.090   3.242  0.0883  0.1350 -0.4625
   44HFI     F1 1009   2.175   2.207   3.248  0.3062  0.2236  0.3251
   44HFI     F2 1010   2.350   2.099   3.319 -0.5394  0.1598  0.2571
   44HFI     F3 1011   2.160   2.001   3.303 -0.0643  0.5090 -0.3244
   44HFI     C3 1012   2.138   2.023   3.014  0.7965 -0.1437 -0.0806
   44HFI     F4 1013   2.080   1.908   3.044  0.4510  0.7021  0.1693
   44HFI     F5 1014   2.183   2.019   2.889  0.2192 -0.0916  0.0584
   44HFI     F6 1015   2.045   2.123   3.021  0.0137 -0.0025  0.4046
   44HFI     H1 1016   2.350   1.868   3.052 -2.3802  0.8510 -0.9155
   44HFI     H2 1017   2.308   2.147   3.052  0.1910  1.3947  3.4853
   45HFI     O1 1018   1.910   1.085   0.966 -0.1585 -0.3614 -0.3565
   45HFI     C1 1019   1.866   1.229   0.960  0.4076  0.2996 -0.5342
   45HFI     C2 1020   1.967   1.313   1.039 -1.3215  0.1757 -0.5650
   45HFI     F1 1021   2.083   1.316   0.973  0.2476 -0.2849  0.8783
   45HFI     F2 1022   1.999   1.252   1.153 -0.3492 -0.3201  0.1481
   45HFI     F3 1023   1.920   1.433   1.069 -0.2476  0.0237  0.3031
   45HFI     C3 1024   1.709   1.241   1.000 -0.3331 -0.2876 -0.4103
   45HFI     F4 1025   1.637   1.193   0.901  0.3182 -0.1884 -0.1864
   45HFI     F5 1026   1.680   1.378   1.021 -0.2120 -0.0911 -0.2009
   45HFI     F6 1027   1.674   1.164   1.108 -0.1582 -0.5290  0.0573
   45HFI     H1 1028   1.925   1.058   1.058  0.8462  0.2093 -0.3468
   45HFI     H2 1029   1.868   1.275   0.861 -1.3325 -0.0332 -0.7501
   46HFI     O1 1030   3.330   1.506   1.505  0.5871  0.1910 -0.9288
   46HFI     C1 1031   3.319   1.609   1.402 -0.0658  0.0645 -0.3511
   46HFI     C2 1032   3.363   1.555   1.268 -0.2882  0.2419 -0.1024
   46HFI     F1 1033   3.258   1.497   1.208 -0.0029  0.5471 -0.0633
   46HFI     F2 1034   3.457   1.460   1.290 -0.1145 -0.4441  0.0237
   46HFI     F3 1035   3.410   1.645   1.184  0.4772 -0.1427  0.3014
   46HFI     C3 1036   3.388   1.746   1.445  0.3719  0.3126 -0.2634
   46HFI     F4 1037   3.522   1.743   1.426  0.0467 -0.7331 -0.2638
   46HFI     F5 1038   3.366   1.774   1.571  0.0021  0.1452 -1.0681
   46HFI     F6 1039   3.335   1.854   1.378 -0.3165 -0.1032 -0.1208
   46HFI     H1 1040   3.420   1.516   1.539 -0.0533  0.5083  0.7049
   46HFI     H2 1041   3.215   1.644   1.401  0.0526  0.4528  0.7540
   47HFI     O1 1042   1.844   0.636   3.784  0.2251 -0.0497  0.1409
   47HFI     C1 1043   1.960   0.604   3.698  0.6674 -0.6383 -0.1864
   47HFI     C2 1044   1.936   0.648   3.553  0.0475  0.0061 -0.7487
   47HFI     F1 1045   1.809   0.610   3.517 -0.4951 -0.0534 -0.3422
   47HFI     F2 1046   2.020   0.595   3.464  0.2889 -0.1679 -0.4099
   47HFI     F3 1047   1.948   0.778   3.535 -0.7183  0.0343 -0.5014
   47HFI     C3 1048   2.008   0.459   3.714 -0.1238  0.2535 -0.2424
   47HFI     F4 1049   1.928   0.371   3.658 -0.0104  0.0475  0.0994
   47HFI     F5 1050   2.013   0.432   3.852 -0.0092  0.4717 -0.4783
   47HFI     F6 1051   2.136   0.451   3.669 -0.2351 -0.1802  0.3765
   47HFI     H1 1052   1.815   0.551   3.821 -0.3763 -0.8342 -2.0335
   47HFI     H2 1053   2.050   0.656   3.732 -0.1575  1.5081 -1.2363
   48HFI     O1 1054   0.983   1.737   0.813 -0.6423  0.0141  0.6533
   48HFI     C1 1055   0.967   1.885   0.836 -0.2752  0.2171  0.4556
   48HFI     C2 1056   0.938   1.980   0.717  0.2312 -0.4263 -0.9228
   48HFI     F1 1057   0.860   2.084   0.754  0.2036  0.1359  0.1336
   48HFI     F2 1058   0.862   1.914   0.620  0.0042 -0.2261 -0.2032
   48HFI     F3 1059   1.052   2.021   0.663 -0.4961  0.2941 -0.0132
   48HFI     C3 1060   1.074   1.928   0.937  0.0945 -0.0935  0.0951
   48HFI     F4 1061   1.202   1.905   0.910  0.0848 -0.2954 -0.1859
   48HFI     F5 1062   1.050   1.870   1.061 -0.5636  0.0800  0.5525
   48HFI     F6 1063   1.053   2.054   0.960 -0.1501  0.0924  0.2972
   48HFI     H1 1064   0.994   1.722   0.718 -0.6133  1.3413  0.4454
   48HFI     H2 1065   0.870   1.901   0.885 -0.0543 -2.3837  1.7993
   49HFI     O1 1066   2.595   0.331   1.450  0.2889  0.3749 -0.8118
   49HFI     C1 1067   2.634   0.223   1.534  0.5512  0.3422 -0.5108
   49HFI     C2 1068   2.784   0.196   1.527 -0.8044  0.4052  0.0663
   49HFI     F1 1069   2.852   0.300   1.579 -0.0302  0.3467  0.3594
   49HFI     F2 1070   2.836   0.181   1.398  0.1743 -0.0514  0.3170
   49HFI     F3 1071   2.829   0.084   1.591 -0.0329  0.1060 -0.0401
   49HFI     C3 1072   2.540   0.101   1.514 -1.1020 -0.4175 -0.0056
   49HFI     F4 1073   2.414   0.135   1.553 -0.3368  0.0769 -0.1823
   49HFI     F5 1074   2.573  -0.009   1.587  0.2714  0.2801  0.1612
   49HFI     F6 1075   2.534   0.068   1.381 -0.3336 -0.1687  0.6391
   49HFI     H1 1076   2.517   0.374   1.490 -0.6352 -1.7559 -0.2672
   49HFI     H2 1077   2.613   0.249   1.639 -2.5109 -2.0401 -0.4487
   50HFI     O1 1078   1.841   2.697   0.195  0.0517 -0.7811  0.7290
   50HFI     C1 1079   1.761   2.715   0.080  0.1234 -0.2521  0.0832
   50HFI     C2 1080   1.782   2.592  -0.017  0.0283 -0.0276  0.3139
   50HFI     F1 1081   1.698   2.594  -0.123  0.3514 -0.2024 -0.1770
   50HFI     F2 1082   1.752   2.477   0.047 -0.1813  0.4219  0.7954
   50HFI     F3 1083   1.913   2.585  -0.053 -0.4075  0.4631 -0.1011
   50HFI     C3 1084   1.785   2.847   0.013 -0.0315 -0.4175  0.4043
   50HFI     F4 1085   1.718   2.945   0.087  0.2151  0.0423 -0.0587
   50HFI     F5 1086   1.726   2.855  -0.105 -0.0364 -0.1102 -0.1996
   50HFI     F6 1087   1.920   2.886   0.004 -0.3555 -0.2055  0.1336
   50HFI     H1 1088   1.804   2.762   0.258 -0.9236  1.9300 -2.4775
   50HFI     H2 1089   1.656   2.714   0.113  0.0391  0.2103 -0.1790
   51HFI     O1 1090   1.190   3.220   0.553 -0.1280  0.2185  0.4070
   51HFI     C1 1091   1.306   3.299   0.541 -0.4741 -0.3674  0.2485
   51HFI     C2 1092   1.435   3.212   0.546  0.3309  0.7187  0.0631
   51HFI     F1 1093   1.425   3.097   0.469 -0.5345  0.1323 -0.0587
   51HFI     F2 1094   1.460   3.180   0.675 -0.0943  0.0779  0.0727
   51HFI     F3 1095   1.547   3.284   0.508 -0.1073 -0.3088  0.5082
   51HFI     C3 1096   1.291   3.421   0.630 -0.1837 -0.2521 -0.1147
   51HFI     F4 1097   1.394   3.499   0.606 -0.8080  0.1507 -0.2190
   51HFI     F5 1098   1.295   3.391   0.761 -0.0063  0.0707  0.3739
   51HFI     F6 1099   1.175   3.490   0.602 -0.1860 -0.3099  0.2930
   51HFI     H1 1100   1.203   3.176   0.639  0.8247  1.1443  0.7550
   51HFI     H2 1101   1.312   3.340   0.439  0.6870 -2.9759 -0.7916
   52HFI     O1 1102   1.357   0.665   3.626  0.2508  0.5406 -0.4812
   52HFI     C1 1103   1.261   0.762   3.582  0.0585  0.0491  0.3960
   52HFI     C2 1104   1.330   0.897   3.554  0.0576  0.0340  0.4002
   52HFI     F1 1105   1.426   0.900   3.463  0.0766  0.6416 -0.0525
   52HFI     F2 1106   1.389   0.940   3.668  0.3206 -0.1283  0.3566
   52HFI     F3 1107   1.242   0.988   3.515  0.1972  0.2309 -0.6511
   52HFI     C3 1108   1.145   0.769   3.691  0.0735 -0.9494  0.0108
   52HFI     F4 1109   1.039   0.839   3.653  0.2859 -0.4122 -0.0127
   52HFI     F5 1110   1.178   0.811   3.808  0.6068  0.2618  0.2698
   52HFI     F6 1111   1.098   0.647   3.703  0.5973 -0.1701  0.3579
   52HFI     H1 1112   1.381   0.678   3.720  0.0352  2.3307 -0.6477
   52HFI     H2 1113   1.217   0.726   3.488  1.3120 -0.6739  0.0829
   53HFI     O1 1114   2.936   0.227   3.686 -0.1821 -0.5857  0.0087
   53HFI     C1 1115   3.079   0.242   3.666 -0.6266 -0.0965 -0.4244
   53HFI     C2 1116   3.130   0.392   3.672 -0.0677 -0.5478 -0.2520
   53HFI     F1 1117   3.046   0.469   3.593 -0.1919  0.5693 -0.3087
   53HFI     F2 1118   3.264   0.411   3.630  0.0755  0.3066  0.2342
   53HFI     F3 1119   3.115   0.441   3.794  0.0385  0.0887  0.1576
   53HFI     C3 1120   3.135   0.173   3.535  0.1738  0.1338 -0.5342
   53HFI     F4 1121   3.269   0.162   3.545 -0.3548 -0.2912  0.0827
   53HFI     F5 1122   3.106   0.242   3.425  0.3493 -0.1930  0.0573
   53HFI     F6 1123   3.092   0.047   3.520 -0.3723 -0.1854 -0.0190
   53HFI     H1 1124   2.906   0.302   3.740  0.3193 -1.7384  1.9375
   53HFI     H2 1125   3.131   0.183   3.743  0.9883 -0.1442 -1.5480
   54HFI     O1 1126   1.452   0.499   0.913  0.1063  0.3123  0.0240
   54HFI     C1 1127   1.484   0.379   0.983  0.1874 -0.1009 -0.3177
   54HFI     C2 1128   1.366   0.317   1.066 -0.5566 -0.7811  0.5101
   54HFI     F1 1129   1.385   0.187   1.087  0.0087 -0.4570 -0.4354
   54HFI     F2 1130   1.249   0.322   0.996  0.2102  0.0474  0.3724
   54HFI     F3 1131   1.350   0.369   1.186 -0.0965 -0.2882 -0.0381
   54HFI     C3 1132   1.607   0.397   1.075  0.4258  0.3382  0.4373
   54HFI     F4 1133   1.725   0.439   1.022  0.3125 -0.2180  0.3661
   54HFI     F5 1134   1.653   0.282   1.124 -0.1987 -0.2389  0.5350
   54HFI     F6 1135   1.572   0.484   1.172  0.3177  0.2466 -0.0462
   54HFI     H1 1136   1.485   0.573   0.966  1.1262 -1.7936  2.4056
   54HFI     H2 1137   1.498   0.290   0.920 -1.9198 -0.5590 -0.1906
   55HFI     O1 1138   1.637   2.500   1.589 -0.3873  0.4912 -0.2714
   55HFI     C1 1139   1.533   2.465   1.494  0.9838  0.3342  0.4738
   55HFI     C2 1140   1.406   2.557   1.498 -0.1960 -0.0148  0.7933
   55HFI     F1 1141   1.441   2.675   1.537  0.2557 -0.4079 -0.3808
   55HFI     F2 1142   1.302   2.502   1.573 -0.0687 -0.1138 -0.4115
   55HFI     F3 1143   1.353   2.563   1.372 -0.2716  0.1883  0.4935
   55HFI     C3 1144   1.493   2.314   1.499  0.1718  0.2656  0.4059
   55HFI     F4 1145   1.437   2.278   1.608  0.0199  0.1744 -0.0129
   55HFI     F5 1146   1.600   2.236   1.477  0.5626 -0.2742 -0.2205
   55HFI     F6 1147   1.405   2.286   1.406  0.3264 -0.0716  0.4728
   55HFI     H1 1148   1.723   2.474   1.550 -0.3277 -0.9690  0.7868
   55HFI     H2 1149   1.574   2.483   1.394 -1.5593  2.3786 -0.2444
   56HFI     O1 1150   3.029   0.450   0.543  0.6490  0.2557  0.3414
   56HFI     C1 1151   2.921   0.470   0.439 -0.5941  0.3868  0.9395
   56HFI     C2 1152   2.976   0.430   0.299 -0.1121 -0.0208  0.0799
   56HFI     F1 1153   2.893   0.436   0.195  0.2714 -0.1295 -0.1663
   56HFI     F2 1154   3.028   0.306   0.307 -0.0897  0.0542 -0.6745
   56HFI     F3 1155   3.085   0.511   0.263  0.0912 -0.0242  0.2583
   56HFI     C3 1156   2.872   0.619   0.450 -0.3953  0.4134  0.0041
   56HFI     F4 1157   2.828   0.643   0.573 -0.0837  0.0348 -0.3010
   56HFI     F5 1158   2.764   0.648   0.373  0.5161 -0.0207 -0.1636
   56HFI     F6 1159   2.970   0.712   0.422  0.1932 -0.7070  0.3774
   56HFI     H1 1160   3.096   0.521   0.549  1.0185 -0.1848  1.5421
   56HFI     H2 1161   2.839   0.399   0.457 -0.7344 -0.1832 -1.7325
   57HFI     O1 1162   1.819   2.277   3.203  0.2443  0.2818 -0.2760
   57HFI     C1 1163   1.712   2.207   3.273 -0.1201 -0.0714  0.4250
   57HFI     C2 1164   1.634   2.302   3.370  1.0173  0.2263  0.0744
   57HFI     F1 1165   1.723   2.370   3.448 -0.3112 -0.5448  0.1596
   57HFI     F2 1166   1.551   2.232   3.446  0.1358 -0.5097  0.3156
   57HFI     F3 1167   1.555   2.389   3.303  0.4115 -0.2780  0.3610
   57HFI     C3 1168   1.755   2.075   3.338  0.9370 -0.0288  0.6959
   57HFI     F4 1169   1.825   1.994   3.258  0.2387  0.4211  0.2297
   57HFI     F5 1170   1.651   2.000   3.380  0.0799 -0.3446 -0.1197
   57HFI     F6 1171   1.832   2.099   3.443  0.2346 -0.5604 -0.1438
   57HFI     H1 1172   1.892   2.293   3.265  0.1088 -1.3744  0.3431
   57HFI     H2 1173   1.632   2.179   3.203 -0.3908 -0.3175  0.8328
   58HFI     O1 1174   0.469   3.429   1.048 -0.4685 -0.0545 -0.7639
   58HFI     C1 1175   0.391   3.540   1.092 -0.1090 -0.7886 -0.1687
   58HFI     C2 1176   0.240   3.498   1.105  0.5644  0.5500  0.1799
   58HFI     F1 1177   0.229   3.394   1.193  0.4260  0.3580 -0.1722
   58HFI     F2 1178   0.192   3.447   0.986 -0.2872  0.1182  0.0338
   58HFI     F3 1179   0.159   3.595   1.146  0.2047  0.0891 -0.2596
   58HFI     C3 1180   0.412   3.666   1.000 -0.1870  0.0480 -0.5431
   58HFI     F4 1181   0.541   3.703   0.992 -0.1499 -0.0771 -0.5037
   58HFI     F5 1182   0.352   3.769   1.047  0.5176 -0.1686  0.1645
   58HFI     F6 1183   0.369   3.653   0.871  0.5425  0.6297 -0.2813
   58HFI     H1 1184   0.421   3.393   0.971 -1.0919 -2.3821  0.6687
   58HFI     H2 1185   0.427   3.576   1.190 -0.5260 -2.0206  0.4478
   59HFI     O1 1186   3.218   2.706   1.304  0.1677  0.3268 -0.0460
   59HFI     C1 1187   3.172   2.790   1.425  0.1941  0.0655  0.3751
   59HFI     C2 1188   3.285   2.814   1.521 -0.1935  0.7471  0.2793
   59HFI     F1 1189   3.409   2.830   1.466 -0.3310 -0.0595 -0.3502
   59HFI     F2 1190   3.303   2.719   1.615  0.4105 -0.4141  0.2621
   59HFI     F3 1191   3.256   2.923   1.587  0.1567 -0.1962  0.4161
   59HFI     C3 1192   3.051   2.721   1.500  0.6140  0.3370  0.2414
   59HFI     F4 1193   3.082   2.600   1.552 -0.2540 -0.5317 -0.3454
   59HFI     F5 1194   2.943   2.701   1.414 -0.0533 -0.2101 -0.2446
   59HFI     F6 1195   3.008   2.801   1.602 -0.4055 -0.3957  0.4364
   59HFI     H1 1196   3.315   2.708   1.300  0.3668 -1.2398  2.6579
   59HFI     H2 1197   3.145   2.889   1.388  1.2043 -0.5950 -2.2599
   60HFI     O1 1198   3.316   1.087   2.776  0.3794 -0.6426 -0.2095
   60HFI     C1 1199   3.242   1.111   2.899  0.0216  0.3404  0.4183
   60HFI     C2 1200   3.123   1.210   2.879  0.7829  0.3630 -0.7776
   60HFI     F1 1201   3.060   1.183   2.759 -0.0031 -0.2795 -0.2736
   60HFI     F2 1202   3.154   1.339   2.875 -0.1540 -0.2509  0.2644
   60HFI     F3 1203   3.034   1.196   2.973 -0.0922 -0.0608  0.2121
   60HFI     C3 1204   3.335   1.148   3.021 -0.2427  0.0132 -0.5651
   60HFI     F4 1205   3.451   1.081   3.018  0.0674  0.1604  0.3335
   60HFI     F5 1206   3.268   1.130   3.137 -0.3557  0.2678 -0.3220
   60HFI     F6 1207   3.367   1.276   3.009 -0.0347  0.1498  0.1815
   60HFI     H1 1208   3.409   1.074   2.798  0.9876  2.1928 -0.8926
   60HFI     H2 1209   3.198   1.017   2.935 -1.5341  0.1061 -1.9987
   61HFI     O1 1210   1.187   0.890   0.595  0.1884 -0.4052 -0.2498
   61HFI     C1 1211   1.323   0.936   0.612  0.6527  0.4890 -0.1404
   61HFI     C2 1212   1.321   1.078   0.670  0.6654 -0.2417 -0.2609
   61HFI     F1 1213   1.273   1.178   0.587 -0.5509 -0.0657  0.2897
   61HFI     F2 1214   1.448   1.106   0.692 -0.5408  0.3070 -0.7339
   61HFI     F3 1215   1.255   1.089   0.786  0.7436 -0.3500  0.0984
   61HFI     C3 1216   1.405   0.937   0.474 -0.8782 -0.3673 -0.1134
   61HFI     F4 1217   1.356   0.837   0.399  0.3043  0.5859 -0.1963
   61HFI     F5 1218   1.542   0.925   0.486  0.1444 -0.4017  0.2559
   61HFI     F6 1219   1.393   1.042   0.398  0.3666 -0.2798 -0.0730
   61HFI     H1 1220   1.178   0.793   0.595  1.3354 -0.5581  2.7528
   61HFI     H2 1221   1.375   0.876   0.687 -0.5115  0.7000  0.8515
   62HFI     O1 1222   1.083   2.340   1.363 -0.2072 -0.3482 -0.3175
   62HFI     C1 1223   0.992   2.315   1.482  0.2098  0.6313  0.1648
   62HFI     C2 1224   1.004   2.164   1.521  0.2623 -0.1377 -0.0205
   62HFI     F1 1225   1.123   2.136   1.594  0.7137 -0.3008 -0.1616
   62HFI     F2 1226   1.005   2.087   1.407  0.1213 -0.5783 -0.0103
   62HFI     F3 1227   0.903   2.130   1.597  0.1406  0.1941 -0.2662
   62HFI     C3 1228   0.848   2.375   1.464 -0.2307  0.2416  0.5124
   62HFI     F4 1229   0.851   2.503   1.423 -0.2256 -0.0956 -0.1672
   62HFI     F5 1230   0.769   2.368   1.575 -0.3419 -0.2798 -0.4516
   62HFI     F6 1231   0.797   2.302   1.367  0.3532 -0.2976 -0.0269
   62HFI     H1 1232   1.022   2.360   1.290 -0.3815 -0.1303 -0.1159
   62HFI     H2 1233   1.034   2.369   1.568  1.7458 -1.7438  0.9578
   63HFI     O1 1234   1.475   1.596   3.514 -0.3710  0.0251  0.1691
   63HFI     C1 1235   1.461   1.457   3.551  0.3160 -0.3131  0.4739
   63HFI     C2 1236   1.334   1.396   3.489  0.6919 -0.5011 -0.6166
   63HFI     F1 1237   1.326   1.429   3.360 -0.2006  0.3847 -0.4817
   63HFI     F2 1238   1.224   1.446   3.548 -0.0670  0.1784  0.0998
   63HFI     F3 1239   1.339   1.263   3.493 -0.0737  0.5213 -0.4393
   63HFI     C3 1240   1.478   1.440   3.701 -0.2218  0.2212 -0.5079
   63HFI     F4 1241   1.495   1.310   3.730 -0.6764 -0.2548 -0.1448
   63HFI     F5 1242   1.372   1.494   3.773 -0.2382  0.1426 -0.0209
   63HFI     F6 1243   1.590   1.506   3.745 -0.3945  0.5335 -0.7135
   63HFI     H1 1244   1.556   1.633   3.554  0.4213  0.0953 -1.4642
   63HFI     H2 1245   1.540   1.392   3.511  1.7125  1.1641  0.8075
   64HFI     O1 1246   0.532   1.616   0.875 -0.7024  0.2855  0.6410
   64HFI     C1 1247   0.452   1.574   0.989 -0.5724 -0.3174  0.2649
   64HFI     C2 1248   0.380   1.434   0.978 -0.0138  0.4691 -0.3678
   64HFI     F1 1249   0.270   1.448   0.905  0.1446 -0.2278 -0.3325
   64HFI     F2 1250   0.347   1.389   1.103  0.2869  0.0542 -0.6127
   64HFI     F3 1251   0.457   1.340   0.918 -0.1185 -0.0778  0.2891
   64HFI     C3 1252   0.367   1.688   1.046  0.2402  0.1052 -0.0608
   64HFI     F4 1253   0.352   1.661   1.177  0.3828  0.0230 -0.1671
   64HFI     F5 1254   0.241   1.692   0.996 -0.2598  0.1238 -0.0105
   64HFI     F6 1255   0.424   1.802   1.029  0.3600  0.0421  0.1770
   64HFI     H1 1256   0.534   1.538   0.818 -1.2426  1.6008 -1.2489
   64HFI     H2 1257   0.520   1.558   1.073 -0.7950  0.5643  0.6200
   65HFI     O1 1258   3.092   2.687   0.239  0.1689  0.4601 -0.2930
   65HFI     C1 1259   3.131   2.744   0.361  1.0171  0.1991  0.2273
   65HFI     C2 1260   3.265   2.813   0.352 -0.0303  0.8590  0.0002
   65HFI     F1 1261   3.298   2.875   0.476  0.0829 -0.2910  0.2140
   65HFI     F2 1262   3.246   2.918   0.267 -0.6799  0.6680  0.1516
   65HFI     F3 1263   3.371   2.739   0.304  0.4461 -0.5084  0.5729
   65HFI     C3 1264   3.134   2.628   0.471  1.0349  0.3531  0.2804
   65HFI     F4 1265   3.009   2.579   0.488 -0.6096  0.3856  1.0376
   65HFI     F5 1266   3.169   2.671   0.589  0.2524  0.0630 -0.3300
   65HFI     F6 1267   3.221   2.530   0.431  0.2741 -0.0583 -0.6439
   65HFI     H1 1268   3.173   2.662   0.192 -0.7763  0.9125 -2.1918
   65HFI     H2 1269   3.060   2.819   0.399 -2.8808 -2.5351 -1.2495
   66HFI     O1 1270   0.237   2.798   0.528 -0.0799 -0.0309 -0.8505
   66HFI     C1 1271   0.268   2.709   0.423 -0.5123 -0.0637  0.4594
   66HFI     C2 1272   0.369   2.600   0.473  0.2046 -0.4756 -0.2572
   66HFI     F1 1273   0.423   2.522   0.375 -0.1185  0.2469 -0.8871
   66HFI     F2 1274   0.294   2.508   0.542 -0.1480 -0.1903  0.2046
   66HFI     F3 1275   0.465   2.654   0.553  0.1268  0.4159 -0.4009
   66HFI     C3 1276   0.323   2.791   0.296  0.3207 -0.1841 -0.0223
   66HFI     F4 1277   0.436   2.858   0.331  0.8628 -0.0608  0.2647
   66HFI     F5 1278   0.238   2.883   0.266  0.1998 -0.3304  0.0125
   66HFI     F6 1279   0.345   2.708   0.188 -0.1433 -0.5227  0.2186
   66HFI     H1 1280   0.307   2.865   0.539  1.4761 -1.6406 -0.6490
   66HFI     H2 1281   0.180   2.650   0.396 -0.0575 -0.8357  0.6438
   67HFI     O1 1282   1.549   0.604   2.503 -0.1994  0.6277 -0.1468
   67HFI     C1 1283   1.441   0.637   2.420  0.5169  0.8470  0.3516
   67HFI     C2 1284   1.437   0.547   2.286  0.6433 -0.3765 -0.1134
   67HFI     F1 1285   1.562   0.537   2.232 -0.0227  0.1142 -0.0124
   67HFI     F2 1286   1.345   0.590   2.203  0.5794 -0.1030  0.0463
   67HFI     F3 1287   1.409   0.418   2.316 -0.4122  0.0441 -0.7784
   67HFI     C3 1288   1.443   0.787   2.388 -1.1918 -0.2707  0.4557
   67HFI     F4 1289   1.549   0.810   2.300  0.3816 -0.2301 -0.4189
   67HFI     F5 1290   1.459   0.856   2.502  0.0660  0.0869  0.0873
   67HFI     F6 1291   1.332   0.826   2.324 -0.4038  0.3894  0.4568
   67HFI     H1 1292   1.632   0.622   2.455  1.3670  0.6185  2.4975
   67HFI     H2 1293   1.352   0.605   2.474 -1.0977  3.5843 -0.5854
   68HFI     O1 1294   2.963   3.344   3.292  0.4780  0.0030 -0.0918
   68HFI     C1 1295   3.037   3.329   3.164 -0.5244  0.5450  0.4936
   68HFI     C2 1296   3.182   3.295   3.194 -0.0883  0.0788 -0.1459
   68HFI     F1 1297   3.248   3.379   3.280  0.3683  0.3189 -0.3266
   68HFI     F2 1298   3.254   3.277   3.085  0.6692 -0.0895  0.1947
   68HFI     F3 1299   3.189   3.175   3.260  0.6724  0.5739 -0.0697
   68HFI     C3 1300   3.014   3.454   3.069 -0.3560  0.4129 -0.8093
   68HFI     F4 1301   2.885   3.495   3.092  0.2302  0.0657  0.1974
   68HFI     F5 1302   3.030   3.434   2.941  0.3103  0.1373 -0.2618
   68HFI     F6 1303   3.101   3.557   3.109 -0.1389  0.2091  0.0915
   68HFI     H1 1304   2.984   3.431   3.332  2.8423 -1.0323  1.0203
   68HFI     H2 1305   2.991   3.246   3.108 -1.5276  0.8539  0.8446
   69HFI     O1 1306   0.113   0.552   2.866  0.3172  0.2800 -0.2090
   69HFI     C1 1307   0.200   0.673   2.852  0.3009 -0.3735 -0.0080
   69HFI     C2 1308   0.272   0.712   2.988  0.1948 -0.0444  0.1377
   69HFI     F1 1309   0.389   0.775   2.968  0.1197 -0.1267 -0.0169
   69HFI     F2 1310   0.298   0.600   3.064  0.1779 -0.2777  0.1600
   69HFI     F3 1311   0.184   0.780   3.063  0.2186  0.0176 -0.3942
   69HFI     C3 1312   0.127   0.791   2.793  0.2926  0.1268 -0.0406
   69HFI     F4 1313   0.083   0.757   2.668  0.5883  0.6656 -0.7491
   69HFI     F5 1314   0.199   0.907   2.774 -0.0206  0.1513 -0.7318
   69HFI     F6 1315   0.021   0.830   2.868  0.5795  0.0835 -0.1406
   69HFI     H1 1316   0.134   0.515   2.953 -0.0346 -3.8810 -1.7816
   69HFI     H2 1317   0.280   0.641   2.785 -0.7038  0.3514 -1.5762
   70HFI     O1 1318   2.187   2.322   0.206 -0.2155  0.8318 -0.1679
   70HFI     C1 1319   2.067   2.390   0.256  0.3194 -1.3124  0.3693
   70HFI     C2 1320   2.095   2.501   0.361 -0.4249 -0.5726  0.1904
   70HFI     F1 1321   2.178   2.459   0.463 -0.1214  0.6353  0.1750
   70HFI     F2 1322   1.985   2.558   0.414  0.2798 -0.6490 -0.7873
   70HFI     F3 1323   2.164   2.595   0.293  0.1320 -0.2991  0.5941
   70HFI     C3 1324   1.958   2.287   0.315 -0.1146 -0.2523  0.4263
   70HFI     F4 1325   1.998   2.233   0.434 -0.4267 -0.3495 -0.2900
   70HFI     F5 1326   1.938   2.186   0.235  0.2046  0.7581 -0.0625
   70HFI     F6 1327   1.838   2.350   0.334 -0.1157 -0.3157 -0.3844
   70HFI     H1 1328   2.257   2.372   0.252  1.2103 -0.1171 -1.2806
   70HFI     H2 1329   2.015   2.442   0.175  1.9227  0.3305  0.3696
   71HFI     O1 1330   2.468   3.044   0.043 -0.4707 -0.0035 -0.0181
   71HFI     C1 1331   2.325   3.079   0.072  0.0705  0.6035  0.2660
   71HFI     C2 1332   2.233   3.064  -0.058  0.1224  0.1277  0.1936
   71HFI     F1 1333   2.103   3.087  -0.030  0.6181  0.2375 -0.2083
   71HFI     F2 1334   2.250   2.935  -0.102 -0.2112 -0.0495 -0.1137
   71HFI     F3 1335   2.269   3.142  -0.157  0.0234  0.4035 -0.1494
   71HFI     C3 1336   2.315   3.221   0.120  0.2016  0.2423  0.3896
   71HFI     F4 1337   2.381   3.232   0.238  0.0553  0.0174  0.2598
   71HFI     F5 1338   2.189   3.261   0.142 -0.3708  0.1697 -0.7947
   71HFI     F6 1339   2.364   3.306   0.034 -0.1030  0.0427 -0.4961
   71HFI     H1 1340   2.517   3.113  -0.004 -0.3091 -1.4806 -2.0637
   71HFI     H2 1341   2.282   3.007   0.142 -0.1574  1.9221  1.4946
   72HFI     O1 1342   2.357   1.369   1.560  0.4456 -0.6294 -0.6226
   72HFI     C1 1343   2.207   1.347   1.548  0.3657  0.6282 -0.1054
   72HFI     C2 1344   2.172   1.199   1.543  0.1789 -0.3003 -0.1778
   72HFI     F1 1345   2.261   1.118   1.603  0.2949 -0.1899 -0.5687
   72HFI     F2 1346   2.154   1.153   1.417 -0.0859  0.6528  0.2102
   72HFI     F3 1347   2.046   1.178   1.605 -0.3991  0.0802  0.1150
   72HFI     C3 1348   2.151   1.427   1.429  0.2413  0.6012 -0.4553
   72HFI     F4 1349   2.022   1.400   1.393  0.2411  0.3127  0.1812
   72HFI     F5 1350   2.220   1.426   1.316 -0.1994  0.5930 -0.4116
   72HFI     F6 1351   2.147   1.560   1.471 -0.3749  0.7743 -0.0179
   72HFI     H1 1352   2.398   1.289   1.596  3.0934  1.0144  0.1182
   72HFI     H2 1353   2.160   1.383   1.640 -1.1953 -0.9400 -0.2814
   73HFI     O1 1354   1.622   0.294   3.028 -0.2945 -0.1394  0.3859
   73HFI     C1 1355   1.761   0.303   3.053 -0.2208 -0.5829 -0.0057
   73HFI     C2 1356   1.856   0.266   2.935 -0.2020 -0.4540  0.0264
   73HFI     F1 1357   1.828   0.341   2.829  0.6323 -0.4296 -0.0891
   73HFI     F2 1358   1.828   0.141   2.894  0.1109  0.3806 -0.2970
   73HFI     F3 1359   1.989   0.270   2.962  0.1717 -0.0929 -0.4703
   73HFI     C3 1360   1.806   0.237   3.183  0.0204 -1.2548 -0.4999
   73HFI     F4 1361   1.719   0.268   3.284 -0.3030 -0.5439  0.3368
   73HFI     F5 1362   1.923   0.271   3.222  0.1125  0.3496  0.2300
   73HFI     F6 1363   1.808   0.101   3.173 -0.4112 -0.2081 -0.4591
   73HFI     H1 1364   1.572   0.336   3.101  1.7838  2.0742  0.5839
   73HFI     H2 1365   1.784   0.409   3.069  0.7003 -0.9795  1.3962
   74HFI     O1 1366   2.308   0.390   2.419  0.3078 -0.2391 -0.9056
   74HFI     C1 1367   2.460   0.377   2.409  0.6814 -0.2782 -0.0453
   74HFI     C2 1368   2.524   0.511   2.351  0.0085  0.6337 -0.6747
   74HFI     F1 1369   2.521   0.616   2.437  1.1926  0.1254 -0.1939
   74HFI     F2 1370   2.470   0.548   2.232  0.5195 -0.2012  0.3205
   74HFI     F3 1371   2.661   0.489   2.332  0.2429  0.2575  0.1846
   74HFI     C3 1372   2.497   0.250   2.328  0.6222  1.1138  0.0071
   74HFI     F4 1373   2.432   0.142   2.378  0.3708 -0.6075  0.0729
   74HFI     F5 1374   2.627   0.231   2.317 -0.6617 -0.0107 -0.2631
   74HFI     F6 1375   2.454   0.267   2.200 -0.8021 -0.1835 -0.6460
   74HFI     H1 1376   2.268   0.304   2.440 -1.2562  1.3575  3.0888
   74HFI     H2 1377   2.509   0.359   2.505 -0.2655 -0.7577  0.3562
   75HFI     O1 1378   0.624   0.904   1.273  0.8032  0.7663 -0.2253
   75HFI     C1 1379   0.642   0.807   1.383  0.1334 -0.3059 -0.4168
   75HFI     C2 1380   0.560   0.854   1.504  0.2835 -0.5071  0.0127
   75HFI     F1 1381   0.577   0.787   1.618 -0.1211 -0.1281  0.0577
   75HFI     F2 1382   0.434   0.840   1.474  0.3336 -0.5747 -0.6574
   75HFI     F3 1383   0.586   0.984   1.526  0.2927  0.0486 -0.3253
   75HFI     C3 1384   0.795   0.794   1.423 -0.1711  0.0090  0.7469
   75HFI     F4 1385   0.842   0.921   1.435  0.4734 -0.3436 -0.2789
   75HFI     F5 1386   0.871   0.740   1.327  0.3702 -0.3929  0.2201
   75HFI     F6 1387   0.818   0.735   1.534 -0.0955 -0.0806  0.0906
   75HFI     H1 1388   0.634   0.991   1.315  1.5534 -0.3286  1.9681
   75HFI     H2 1389   0.602   0.706   1.366 -3.2007  0.9998 -0.6430
   76HFI     O1 1390   1.070   2.972   1.322  0.2599 -0.3124  0.3811
   76HFI     C1 1391   0.971   2.904   1.410  0.1747  0.1889  0.6649
   76HFI     C2 1392   0.914   3.008   1.520 -0.4408  0.2695  0.2470
   76HFI     F1 1393   0.997   3.018   1.620  0.5660 -0.1552 -0.1327
   76HFI     F2 1394   0.801   2.957   1.573  0.2166 -0.0064  0.3561
   76HFI     F3 1395   0.886   3.126   1.467  0.7305  0.4812 -0.3201
   76HFI     C3 1396   1.028   2.779   1.470 -0.1504  0.0388  0.0215
   76HFI     F4 1397   1.144   2.801   1.540  0.0115 -0.0120 -0.1552
   76HFI     F5 1398   1.060   2.695   1.369 -0.3571  0.1643 -0.4419
   76HFI     F6 1399   0.947   2.717   1.563 -0.3438  0.3961  0.0743
   76HFI     H1 1400   1.128   3.028   1.376  3.9615 -2.4367 -1.1799
   76HFI     H2 1401   0.880   2.871   1.358  0.5938  0.7010 -0.4043
   77HFI     O1 1402   2.774   1.081   3.448  0.4135  0.3777  0.3849
   77HFI     C1 1403   2.838   1.219   3.448  0.2532  0.4044 -0.7312
   77HFI     C2 1404   2.772   1.327   3.360  0.9255  0.3680 -0.4330
   77HFI     F1 1405   2.803   1.307   3.230 -0.1871 -0.3841  0.8575
   77HFI     F2 1406   2.806   1.456   3.389 -0.0868 -0.4697 -0.2155
   77HFI     F3 1407   2.640   1.318   3.375  0.7034  0.3578 -0.8443
   77HFI     C3 1408   2.990   1.212   3.427 -0.1425  0.6294  0.8489
   77HFI     F4 1409   3.043   1.135   3.528 -0.3509  0.4064  0.0870
   77HFI     F5 1410   3.051   1.335   3.432  0.5122  0.2625  0.0400
   77HFI     F6 1411   3.017   1.144   3.318  0.8261  0.3905 -0.0601
   77HFI     H1 1412   2.744   1.060   3.358 -0.8411  1.6694  0.4767
   77HFI     H2 1413   2.812   1.261   3.546 -0.2856 -1.1765 -0.1840
   78HFI     O1 1414   2.502   2.485   1.047  0.1076 -0.2752 -0.3642
   78HFI     C1 1415   2.434   2.597   0.981  0.5492 -0.3271  0.2666
   78HFI     C2 1416   2.325   2.646   1.077 -0.1079  0.0007  0.6029
   78HFI     F1 1417   2.241   2.728   1.012 -0.2041  0.2341 -0.0944
   78HFI     F2 1418   2.382   2.708   1.182 -0.2122  0.0842  0.0031
   78HFI     F3 1419   2.256   2.538   1.127  0.2311 -0.1936 -0.4831
   78HFI     C3 1420   2.378   2.557   0.838  0.4165  0.0752  0.2077
   78HFI     F4 1421   2.275   2.478   0.847  0.1722  0.8830 -0.1255
   78HFI     F5 1422   2.469   2.480   0.781  0.1331 -0.2044  0.0228
   78HFI     F6 1423   2.348   2.662   0.754 -0.1903  0.0307  0.2277
   78HFI     H1 1424   2.505   2.515   1.139 -0.4079 -1.1787 -0.0477
   78HFI     H2 1425   2.505   2.678   0.961  0.5723 -0.4951 -0.3638
   79HFI     O1 1426   2.777   0.825   3.605  0.6436 -0.2480  0.2337
   79HFI     C1 1427   2.785   0.802   3.745 -0.3424  0.0711  0.0990
   79HFI     C2 1428   2.638   0.797   3.816 -0.2620 -0.2814 -0.5803
   79HFI     F1 1429   2.648   0.727   3.933 -0.0076  0.7551 -0.2132
   79HFI     F2 1430   2.546   0.742   3.734 -0.8250 -0.0211  0.6133
   79HFI     F3 1431   2.595   0.917   3.854  0.4172 -0.2352  0.0794
   79HFI     C3 1432   2.883   0.907   3.812  0.7474  0.4969  0.7525
   79HFI     F4 1433   3.004   0.906   3.755 -0.3096  0.3760  0.4667
   79HFI     F5 1434   2.899   0.894   3.941 -0.1564  0.6117 -0.3581
   79HFI     F6 1435   2.843   1.041   3.798 -0.1612  0.1120  0.5950
   79HFI     H1 1436   2.725   0.905   3.587 -0.3273 -0.3605  2.4172
   79HFI     H2 1437   2.826   0.702   3.765  1.6049  1.1439  1.7378
   80HFI     O1 1438   2.996   1.360   1.475  0.2677 -0.6109 -0.0663
   80HFI     C1 1439   2.877   1.308   1.419  0.1306  0.0419 -0.7616
   80HFI     C2 1440   2.783   1.428   1.377 -0.2713  0.4735 -0.4013
   80HFI     F1 1441   2.669   1.379   1.330  0.1474 -0.1906 -0.0613
   80HFI     F2 1442   2.845   1.506   1.287 -0.2974 -0.2374  0.3865
   80HFI     F3 1443   2.750   1.511   1.489 -0.0145 -0.5468 -0.7633
   80HFI     C3 1444   2.815   1.202   1.520 -0.0940 -0.1190  0.5598
   80HFI     F4 1445   2.914   1.121   1.567  0.4673 -0.1532  0.1366
   80HFI     F5 1446   2.724   1.127   1.452  0.6463  0.2193  0.5034
   80HFI     F6 1447   2.753   1.259   1.625 -0.1307  0.3391 -0.2812
   80HFI     H1 1448   3.057   1.287   1.495  0.9612 -0.1491 -0.4981
   80HFI     H2 1449   2.909   1.264   1.325  1.9568  2.2182 -1.2134
   81HFI     O1 1450   3.168   2.100   0.210 -0.5762 -0.2386 -0.2642
   81HFI     C1 1451   3.182   2.035   0.343  0.2345 -0.6051  0.7396
   81HFI     C2 1452   3.217   1.890   0.322  0.5603  0.0686 -0.5924
   81HFI     F1 1453   3.222   1.834   0.439 -0.2198  0.7052 -0.0899
   81HFI     F2 1454   3.341   1.879   0.266 -0.1540  0.0810  0.1547
   81HFI     F3 1455   3.135   1.818   0.244  0.1199  0.0330  0.2880
   81HFI     C3 1456   3.063   2.071   0.433  0.3383  0.6879 -0.2167
   81HFI     F4 1457   3.042   2.202   0.433  0.5909 -0.4972  0.2539
   81HFI     F5 1458   3.081   2.030   0.565 -0.6741 -0.0684 -0.9458
   81HFI     F6 1459   2.954   2.006   0.386 -0.0496  0.0299  0.2655
   81HFI     H1 1460   3.083   2.083   0.165  0.1212 -0.7465 -1.4127
   81HFI     H2 1461   3.264   2.084   0.397 -0.6937  3.0566 -1.0287
   82HFI     O1 1462   1.408   2.345   0.863  0.8324  0.2669  0.6407
   82HFI     C1 1463   1.510   2.323   0.963 -0.6570  0.0359 -0.7690
   82HFI     C2 1464   1.501   2.175   1.015  0.7082 -0.3466 -0.3327
   82HFI     F1 1465   1.519   2.088   0.914  0.0872 -0.4996  0.1458
   82HFI     F2 1466   1.377   2.154   1.058  0.0618 -0.6791 -0.1321
   82HFI     F3 1467   1.589   2.144   1.110  0.6882 -0.2437 -0.1257
   82HFI     C3 1468   1.501   2.435   1.074  0.2832 -0.0911 -0.4237
   82HFI     F4 1469   1.491   2.561   1.021  0.2116  0.1616  0.2747
   82HFI     F5 1470   1.605   2.431   1.158 -0.3908 -0.8525 -0.1440
   82HFI     F6 1471   1.390   2.420   1.149 -0.2881 -0.0223  0.1901
   82HFI     H1 1472   1.426   2.434   0.828  0.4129  0.1029 -0.0180
   82HFI     H2 1473   1.607   2.340   0.916 -0.6332 -1.3244 -1.2267
   83HFI     O1 1474   1.883   0.962   1.253 -0.2436 -0.2015 -0.2875
   83HFI     C1 1475   1.941   0.830   1.297 -0.4799 -0.7795  0.1685
   83HFI     C2 1476   1.887   0.720   1.204  0.5886 -0.6705 -0.8839
   83HFI     F1 1477   1.919   0.751   1.079  0.2527  0.1010 -0.1277
   83HFI     F2 1478   1.751   0.721   1.210  0.2743 -0.2389  0.3545
   83HFI     F3 1479   1.934   0.599   1.221  0.3380 -0.2936 -0.0267
   83HFI     C3 1480   1.907   0.805   1.448 -0.2878 -0.2410  1.1851
   83HFI     F4 1481   1.982   0.883   1.527  0.5379 -0.0359  0.2624
   83HFI     F5 1482   1.938   0.674   1.483  0.4422 -0.3004  0.6820
   83HFI     F6 1483   1.782   0.826   1.477 -0.0321  0.3888 -0.4240
   83HFI     H1 1484   1.792   0.974   1.287 -0.0538  2.5992 -0.6148
   83HFI     H2 1485   2.051   0.825   1.287 -0.4728  0.8933 -0.7847
   84HFI     O1 1486   0.251   3.318   3.357 -0.4005 -0.6061 -0.0667
   84HFI     C1 1487   0.277   3.464   3.372 -0.0736 -0.4225 -0.4030
   84HFI     C2 1488   0.208   3.544   3.256  0.0355  0.1752  0.0539
   84HFI     F1 1489   0.301   3.609   3.175  0.2222  0.3381  0.1661
   84HFI     F2 1490   0.126   3.635   3.317  0.3518 -0.4388 -0.1765
   84HFI     F3 1491   0.124   3.477   3.171  0.7173  0.0661  0.2625
   84HFI     C3 1492   0.432   3.493   3.375  0.0725 -0.6431 -0.5630
   84HFI     F4 1493   0.459   3.621   3.404  0.0190  0.0095  0.0378
   84HFI     F5 1494   0.500   3.462   3.265  0.3817 -0.3211  0.6250
   84HFI     F6 1495   0.491   3.423   3.475  0.1001  0.6471 -0.4929
   84HFI     H1 1496   0.315   3.276   3.297 -1.1695 -0.7892 -0.7648
   84HFI     H2 1497   0.241   3.510   3.465 -3.2673 -0.8690 -1.3566
   85HFI     O1 1498   2.004   2.186   1.083 -0.4920 -0.2727 -0.1865
   85HFI     C1 1499   2.049   2.233   0.953  0.0965 -0.1866  0.3281
   85HFI     C2 1500   1.932   2.281   0.864  0.3810 -1.1474  0.5273
   85HFI     F1 1501   1.960   2.327   0.739  0.0663 -0.2809 -0.2605
   85HFI     F2 1502   1.855   2.373   0.926  0.2189 -0.0795 -0.7758
   85HFI     F3 1503   1.845   2.180   0.859  0.5451 -0.4507 -0.6755
   85HFI     C3 1504   2.148   2.129   0.881  0.5152 -0.7584 -0.1061
   85HFI     F4 1505   2.192   2.173   0.765 -0.0364  0.1239  0.0016
   85HFI     F5 1506   2.097   2.008   0.855  0.6020 -0.1656  0.3880
   85HFI     F6 1507   2.259   2.106   0.957  0.3289  0.4179  0.2679
   85HFI     H1 1508   1.987   2.092   1.067 -0.2636  0.0467 -2.5016
   85HFI     H2 1509   2.111   2.323   0.953  2.1920 -1.6080 -0.5490
   86HFI     O1 1510   2.641   2.495   1.296 -0.6720  0.3599 -0.3760
   86HFI     C1 1511   2.597   2.412   1.414  0.0078 -0.4411  0.3604
   86HFI     C2 1512   2.449   2.432   1.451  1.0195  0.3538 -0.2744
   86HFI     F1 1513   2.373   2.375   1.364 -0.2401  0.0962 -0.5517
   86HFI     F2 1514   2.414   2.559   1.453  0.0772 -0.3127  0.9154
   86HFI     F3 1515   2.410   2.378   1.565 -0.2424  0.9105  0.2024
   86HFI     C3 1516   2.694   2.416   1.531 -0.2586  0.1723 -0.0473
   86HFI     F4 1517   2.828   2.399   1.488  0.2785  0.6676 -0.3194
   86HFI     F5 1518   2.668   2.330   1.619 -0.0681 -0.5739  0.0863
   86HFI     F6 1519   2.689   2.535   1.593 -0.0769 -0.6955  0.1066
   86HFI     H1 1520   2.653   2.587   1.323 -1.9364 -0.2076  2.3511
   86HFI     H2 1521   2.601   2.308   1.382  1.8343  0.2320 -1.7692
   87HFI     O1 1522   1.583   0.598   0.344  0.2599 -0.2948 -0.3006
   87HFI     C1 1523   1.512   0.476   0.304 -0.1919 -0.0576  0.2023
   87HFI     C2 1524   1.553   0.355   0.390  0.4497 -0.2299  0.7717
   87HFI     F1 1525   1.658   0.284   0.339  0.5213 -0.1548 -0.5147
   87HFI     F2 1526   1.444   0.273   0.403 -0.3275  0.1559 -0.3152
   87HFI     F3 1527   1.582   0.408   0.514  0.4271  0.1274  0.4816
   87HFI     C3 1528   1.524   0.447   0.150 -0.9699 -0.2146 -0.0593
   87HFI     F4 1529   1.650   0.446   0.108 -0.1116  0.0989  0.0565
   87HFI     F5 1530   1.448   0.544   0.095  0.6672  0.3478  0.1861
   87HFI     F6 1531   1.472   0.329   0.128  0.0109  0.6476 -0.1608
   87HFI     H1 1532   1.574   0.611   0.440  0.1004 -0.7993 -0.2456
   87HFI     H2 1533   1.406   0.493   0.329 -0.1893  1.5318 -0.7973
   88HFI     O1 1534   1.119   1.627   0.422 -0.1323  0.3672 -0.6230
   88HFI     C1 1535   1.238   1.709   0.432 -1.5779 -0.0475 -0.1622
   88HFI     C2 1536   1.339   1.648   0.337 -0.0548 -0.2492 -0.3109
   88HFI     F1 1537   1.433   1.736   0.310  0.0335  0.0466  0.2650
   88HFI     F2 1538   1.282   1.617   0.224  0.1007  0.1885 -0.0969
   88HFI     F3 1539   1.400   1.538   0.377 -0.2068 -0.4259  0.4782
   88HFI     C3 1540   1.286   1.735   0.580  0.6772 -0.0276  0.0576
   88HFI     F4 1541   1.409   1.796   0.589  0.1407  0.2577  0.1950
   88HFI     F5 1542   1.305   1.625   0.654 -0.1901  1.2863 -0.1576
   88HFI     F6 1543   1.193   1.816   0.638 -0.3300 -0.1538 -0.2881
   88HFI     H1 1544   1.141   1.542   0.381  0.4144 -0.2769  0.9541
   88HFI     H2 1545   1.211   1.808   0.392  1.4611  1.3455  1.1408
   89HFI     O1 1546   0.184   0.390   0.036  0.3694 -0.1189 -0.0878
   89HFI     C1 1547   0.276   0.501   0.023 -0.2571  0.0365 -0.8647
   89HFI     C2 1548   0.223   0.630   0.101  0.2035 -0.8574  0.1693
   89HFI     F1 1549   0.159   0.604   0.217  0.3460 -0.7112 -0.3525
   89HFI     F2 1550   0.134   0.701   0.024 -0.2710 -0.0483 -0.1958
   89HFI     F3 1551   0.330   0.706   0.128  0.0897  0.5926  0.1066
   89HFI     C3 1552   0.312   0.527  -0.123  0.3374 -0.1091 -0.7648
   89HFI     F4 1553   0.394   0.422  -0.162 -0.3626  0.3307 -0.1084
   89HFI     F5 1554   0.379   0.640  -0.145 -0.6521 -0.4257  0.2151
   89HFI     F6 1555   0.201   0.525  -0.204  0.5529  0.4131 -0.7945
   89HFI     H1 1556   0.155   0.367  -0.054  1.3031 -0.1623 -0.3797
   89HFI     H2 1557   0.370   0.477   0.074  0.8678 -0.4987 -3.1488
   90HFI     O1 1558   2.807   1.487   0.711  0.0680 -0.0204  0.3094
   90HFI     C1 1559   2.807   1.583   0.604  0.7133 -0.2744  0.1504
   90HFI     C2 1560   2.948   1.629   0.578  0.4616  0.5024 -0.8275
   90HFI     F1 1561   2.944   1.694   0.459 -0.6672  0.1480 -0.0053
   90HFI     F2 1562   3.031   1.529   0.564 -0.0701  0.3205  0.4519
   90HFI     F3 1563   3.002   1.703   0.676 -0.2379 -0.0300  0.3164
   90HFI     C3 1564   2.696   1.693   0.611 -0.0632 -0.4305  0.0497
   90HFI     F4 1565   2.577   1.643   0.631  0.1314  0.4523  0.0885
   90HFI     F5 1566   2.694   1.773   0.499 -0.0880  0.4333  0.2380
   90HFI     F6 1567   2.723   1.776   0.714  0.0509  0.5768 -0.1604
   90HFI     H1 1568   2.896   1.478   0.750 -0.3294 -2.4122  0.6975
   90HFI     H2 1569   2.783   1.527   0.513 -2.1645  0.4297  0.4455
   91HFI     O1 1570   2.202   3.359   2.513 -0.0743 -0.1067  0.8430
   91HFI     C1 1571   2.078   3.409   2.451 -0.2514  0.3104  0.6125
   91HFI     C2 1572   2.075   3.411   2.297 -1.0732  0.0332  0.0810
   91HFI     F1 1573   2.180   3.477   2.248 -0.0225 -0.0238  0.2785
   91HFI     F2 1574   1.963   3.454   2.232  0.2571 -0.0509  0.0799
   91HFI     F3 1575   2.089   3.283   2.249  0.4400  0.0399  0.1442
   91HFI     C3 1576   2.039   3.551   2.509 -0.3947  0.0331  1.1244
   91HFI     F4 1577   1.913   3.589   2.481 -0.3625 -0.1077 -0.4059
   91HFI     F5 1578   2.126   3.649   2.465  0.1319  0.4101  0.3304
   91HFI     F6 1579   2.042   3.553   2.644  0.0735  0.0571 -0.0819
   91HFI     H1 1580   2.214   3.263   2.500  0.4908  0.0961 -0.2125
   91HFI     H2 1581   1.998   3.337   2.472 -2.2318  1.7334 -1.8854
   92HFI     O1 1582   1.349   3.389   1.291 -0.2303 -0.0991 -0.1833
   92HFI     C1 1583   1.303   3.450   1.413 -0.9808  0.9398 -0.9135
   92HFI     C2 1584   1.410   3.538   1.473  0.4628 -0.8635 -0.7657
   92HFI     F1 1585   1.448   3.633   1.383  0.4184  0.1494  0.9077
   92HFI     F2 1586   1.521   3.470   1.509  0.3600 -0.0670  0.3552
   92HFI     F3 1587   1.363   3.605   1.582  0.0167  0.4590  0.1838
   92HFI     C3 1588   1.247   3.343   1.517 -0.4697 -0.1411 -0.7494
   92HFI     F4 1589   1.145   3.392   1.601 -0.5526  0.4331 -0.4921
   92HFI     F5 1590   1.338   3.282   1.588  0.0437  0.0492  0.2392
   92HFI     F6 1591   1.190   3.255   1.441  0.3361 -0.0342  0.5134
   92HFI     H1 1592   1.442   3.361   1.293 -0.5569 -1.1551  1.1087
   92HFI     H2 1593   1.211   3.508   1.397 -1.6274  0.2837  0.3744
   93HFI     O1 1594   2.360   1.480   1.052 -0.0068 -0.5359  0.3958
   93HFI     C1 1595   2.340   1.612   0.986 -0.4366 -0.5534  0.9703
   93HFI     C2 1596   2.478   1.690   0.961  0.0890 -0.3514  0.6928
   93HFI     F1 1597   2.523   1.737   1.079 -0.4632 -0.1388  0.4612
   93HFI     F2 1598   2.469   1.794   0.870  0.2223  0.2359 -0.1484
   93HFI     F3 1599   2.572   1.602   0.908  0.0105  0.2627 -0.0234
   93HFI     C3 1600   2.229   1.700   1.056 -0.1796 -0.7278  0.4011
   93HFI     F4 1601   2.260   1.730   1.185  0.3311 -0.5538 -0.5852
   93HFI     F5 1602   2.117   1.632   1.060 -0.1144  0.0179  0.1710
   93HFI     F6 1603   2.211   1.808   0.986 -0.4040 -0.0461 -0.0724
   93HFI     H1 1604   2.280   1.460   1.104 -0.0378  1.2544  1.0996
   93HFI     H2 1605   2.300   1.596   0.885 -0.4253 -3.1292  1.3165
   94HFI     O1 1606   0.228   0.971   3.541 -0.5636 -0.2442  0.0037
   94HFI     C1 1607   0.200   1.094   3.474  0.0158 -0.0186  0.1815
   94HFI     C2 1608   0.162   1.073   3.320  0.1758 -0.1372 -0.2979
   94HFI     F1 1609   0.270   1.040   3.246 -0.3034  0.3574 -0.2107
   94HFI     F2 1610   0.113   1.190   3.266  0.4320  0.4504 -0.3798
   94HFI     F3 1611   0.076   0.971   3.306 -0.6225  0.3070  0.1580
   94HFI     C3 1612   0.319   1.188   3.497  0.3998 -1.1926 -0.3853
   94HFI     F4 1613   0.430   1.139   3.438 -0.3509 -0.2971  0.3663
   94HFI     F5 1614   0.344   1.193   3.632 -0.2717 -0.1151  0.0089
   94HFI     F6 1615   0.300   1.317   3.460  0.2963  0.1796 -0.2591
   94HFI     H1 1616   0.292   0.980   3.614  0.7556  2.3205 -1.3821
   94HFI     H2 1617   0.116   1.155   3.511  0.3060 -0.2950  1.3110
   95HFI     O1 1618   1.704   2.976   3.394  0.0694 -0.4702 -0.2652
   95HFI     C1 1619   1.823   2.947   3.330 -0.3813  0.2052  0.0220
   95HFI     C2 1620   1.849   2.796   3.340  0.4634  0.0236 -0.4911
   95HFI     F1 1621   1.939   2.762   3.247 -0.1250  0.2862 -0.3308
   95HFI     F2 1622   1.730   2.722   3.312 -0.4425  0.2292  0.3839
   95HFI     F3 1623   1.898   2.759   3.462  0.5344 -0.3555 -0.0062
   95HFI     C3 1624   1.950   3.034   3.381  0.3327 -0.0083 -0.2826
   95HFI     F4 1625   1.939   3.169   3.353 -0.3867 -0.1736  0.5097
   95HFI     F5 1626   2.062   2.990   3.319 -0.0669 -0.2932 -0.2853
   95HFI     F6 1627   1.965   3.018   3.514 -0.0039  0.0470 -0.0276
   95HFI     H1 1628   1.733   3.000   3.484 -1.0060  2.0085 -0.5520
   95HFI     H2 1629   1.804   2.982   3.227  1.1714 -1.7094 -0.9327
   96HFI     O1 1630   3.071   1.949   3.450  0.1272 -0.0553  0.0172
   96HFI     C1 1631   3.116   2.078   3.489  0.8534  0.0189 -0.2827
   96HFI     C2 1632   3.276   2.089   3.513 -0.1597  0.0662  0.2318
   96HFI     F1 1633   3.319   2.212   3.485  0.0863  0.6736 -0.3337
   96HFI     F2 1634   3.346   1.996   3.432  0.0923  0.3875  0.2896
   96HFI     F3 1635   3.305   2.066   3.642  0.7850  0.2554 -0.0574
   96HFI     C3 1636   3.024   2.146   3.601  1.0252 -0.1566 -0.4861
   96HFI     F4 1637   3.041   2.073   3.717 -0.1162  0.2024  0.2115
   96HFI     F5 1638   2.894   2.150   3.573 -0.1257  0.7173 -0.7909
   96HFI     F6 1639   3.069   2.272   3.630  0.0081 -0.1468 -0.2460
   96HFI     H1 1640   3.149   1.898   3.421 -0.8820 -1.5876 -0.0437
   96HFI     H2 1641   3.097   2.150   3.408  1.2830  0.2192 -0.2069
   97HFI     O1 1642   2.417   1.952   1.298  0.3038 -0.2382  0.0632
   97HFI     C1 1643   2.334   1.909   1.416 -0.3153 -0.0789  0.2337
   97HFI     C2 1644   2.262   2.021   1.494  0.0850  0.1268  0.2091
   97HFI     F1 1645   2.345   2.099   1.556  0.2825  0.1610  0.3989
   97HFI     F2 1646   2.169   1.979   1.581  0.4423 -0.3020  0.6439
   97HFI     F3 1647   2.199   2.100   1.409 -0.0115  0.2266 -0.5419
   97HFI     C3 1648   2.413   1.826   1.513 -0.0876 -0.6514  0.1417
   97HFI     F4 1649   2.336   1.782   1.616  0.9644 -0.4297  0.0641
   97HFI     F5 1650   2.522   1.892   1.554 -0.7366 -0.2314  0.8784
   97HFI     F6 1651   2.452   1.710   1.444  0.4355 -0.3933  0.3688
   97HFI     H1 1652   2.452   1.868   1.266 -1.9358 -1.3743  0.4862
   97HFI     H2 1653   2.252   1.844   1.384 -1.2298  0.8824  0.6102
   98HFI     O1 1654   1.117   0.595   0.552 -0.2325 -0.0292 -0.1641
   98HFI     C1 1655   1.026   0.544   0.455  0.9412 -0.7784 -0.1565
   98HFI     C2 1656   1.042   0.392   0.443  0.9388  0.6583 -0.4696
   98HFI     F1 1657   0.992   0.343   0.322 -0.9429  0.1502  0.0225
   98HFI     F2 1658   0.966   0.330   0.542 -0.4238  0.3414  0.1855
   98HFI     F3 1659   1.162   0.351   0.458 -0.3306  0.2111 -0.1244
   98HFI     C3 1660   1.041   0.613   0.313 -0.6196 -0.1538 -0.0931
   98HFI     F4 1661   1.159   0.583   0.253  0.1474 -0.1767  0.2773
   98HFI     F5 1662   1.032   0.746   0.320 -0.3195 -0.1284  0.1796
   98HFI     F6 1663   0.943   0.576   0.229 -0.4110  0.1755  0.0847
   98HFI     H1 1664   1.127   0.531   0.625  2.2267  1.2552  0.6918
   98HFI     H2 1665   0.925   0.565   0.492 -0.1183 -2.3141 -2.0869
   99HFI     O1 1666   0.628   1.743   3.402  0.0388  0.2742 -0.0838
   99HFI     C1 1667   0.715   1.630   3.354 -0.9227 -0.8280  0.5331
   99HFI     C2 1668   0.676   1.491   3.418 -0.2870  0.0144 -0.3314
   99HFI     F1 1669   0.738   1.392   3.349  0.7592  0.5965  0.0608
   99HFI     F2 1670   0.545   1.477   3.408  0.8121  0.3520  0.5548
   99HFI     F3 1671   0.720   1.484   3.545  0.2269  0.0663  0.0967
   99HFI     C3 1672   0.859   1.667   3.375  0.5015 -0.1458  0.2007
   99HFI     F4 1673   0.877   1.691   3.501 -0.5491 -0.0668 -0.0438
   99HFI     F5 1674   0.888   1.781   3.307 -0.0256  0.7444  0.0090
   99HFI     F6 1675   0.943   1.574   3.325  0.6723  0.0319  0.2404
   99HFI     H1 1676   0.600   1.798   3.326 -0.8799  1.1221  0.8461
   99HFI     H2 1677   0.694   1.621   3.247  0.1901 -1.3439  0.3548
  100HFI     O1 1678   1.553   2.928   1.601  0.0625  0.0453  0.3159
  100HFI     C1 1679   1.687   2.956   1.559 -0.1907 -0.1838  0.1407
  100HFI     C2 1680   1.700   3.110   1.520 -0.0164 -0.3890 -0.8022
  100HFI     F1 1681   1.824   3.156   1.518  0.2776 -0.2041 -0.0052
  100HFI     F2 1682   1.629   3.192   1.603 -0.1447 -0.2348  0.1885
  100HFI     F3 1683   1.651   3.129   1.398 -0.6288  0.0601  0.3799
  100HFI     C3 1684   1.734   2.848   1.456  0.4606 -0.3709 -0.4543
  100HFI     F4 1685   1.748   2.731   1.515 -0.7077 -0.3566  0.2076
  100HFI     F5 1686   1.847   2.880   1.384 -0.0751  0.1742  0.3830
  100HFI     F6 1687   1.637   2.820   1.362  0.2546  0.2453 -0.4424
  100HFI     H1 1688   1.526   2.837   1.581 -1.7056  0.9400 -1.4279
  100HFI     H2 1689   1.750   2.943   1.648 -0.0582  1.2082  0.2661
  101HFI     O1 1690   3.107   2.424   2.774 -0.0844 -0.1397 -0.1714
  101HFI     C1 1691   3.231   2.446   2.849  0.3653  0.2654 -0.4586
  101HFI     C2 1692   3.226   2.369   2.987 -0.8380 -0.3247 -0.5262
  101HFI     F1 1693   3.137   2.412   3.073 -0.5485 -0.2903  0.2186
  101HFI     F2 1694   3.348   2.372   3.053  0.0696 -0.0130  0.6413
  101HFI     F3 1695   3.195   2.241   2.968  0.1358  0.1701 -0.0354
  101HFI     C3 1696   3.260   2.592   2.874 -0.3603  0.6134 -0.3491
  101HFI     F4 1697   3.288   2.656   2.760 -0.0933 -0.0120  0.7890
  101HFI     F5 1698   3.363   2.609   2.958  0.1998  0.3494 -0.0114
  101HFI     F6 1699   3.148   2.651   2.932  0.2341 -0.2107 -0.2937
  101HFI     H1 1700   3.035   2.386   2.828  0.0022 -0.3341 -0.1942
  101HFI     H2 1701   3.318   2.404   2.797  0.3994 -2.0988  1.4484
  102HFI     O1 1702   1.363   2.335   0.181  0.3092  0.2349 -0.3190
  102HFI     C1 1703   1.420   2.459   0.136  0.2277 -0.8345  0.2440
  102HFI     C2 1704   1.353   2.584   0.204  0.5744 -0.3982 -0.2094
  102HFI     F1 1705   1.414   2.702   0.192 -0.4115 -0.4115  0.3721
  102HFI     F2 1706   1.352   2.557   0.337  0.5323  0.4707  0.3355
  102HFI     F3 1707   1.224   2.604   0.166  0.1052 -0.3978 -0.3397
  102HFI     C3 1708   1.405   2.473  -0.019  0.3761  0.1894 -0.2148
  102HFI     F4 1709   1.284   2.431  -0.051  0.6479 -0.0229 -0.1016
  102HFI     F5 1710   1.486   2.398  -0.093  0.2530  0.2545 -0.4197
  102HFI     F6 1711   1.422   2.600  -0.065  0.2818  0.0782  0.1314
  102HFI     H1 1712   1.267   2.335   0.166  0.2550 -1.7608 -0.0975
  102HFI     H2 1713   1.525   2.470   0.166  0.5370  2.4026 -1.7754
  103HFI     O1 1714   1.986   1.675   0.106  0.6404 -0.3842  0.8110
  103HFI     C1 1715   1.953   1.633   0.245  0.2257  0.1354  0.2267
  103HFI     C2 1716   1.943   1.476   0.246 -0.1613 -1.0067 -0.1905
  103HFI     F1 1717   1.825   1.429   0.192 -0.4008 -0.3380 -0.1482
  103HFI     F2 1718   1.953   1.428   0.373  0.1325 -0.6536  0.1367
  103HFI     F3 1719   2.050   1.418   0.184  0.0651  0.0140 -0.1281
  103HFI     C3 1720   1.844   1.718   0.321  0.4459  0.2299  0.2557
  103HFI     F4 1721   1.845   1.694   0.453 -0.2719  0.3839 -0.5078
  103HFI     F5 1722   1.717   1.707   0.269 -0.1208  0.0233  0.3294
  103HFI     F6 1723   1.872   1.853   0.304  0.3593  0.0909  0.6851
  103HFI     H1 1724   2.011   1.768   0.119 -0.9527  0.2578 -0.6330
  103HFI     H2 1725   2.041   1.643   0.309 -1.3478 -1.6269  2.7503
  104HFI     O1 1726   0.771   2.867   0.419 -0.4242 -0.1321 -0.5907
  104HFI     C1 1727   0.891   2.779   0.418  0.0345 -0.1020 -0.2827
  104HFI     C2 1728   0.850   2.634   0.469  0.7408  0.4458 -0.6823
  104HFI     F1 1729   0.813   2.634   0.600 -0.2790  0.2844  0.0325
  104HFI     F2 1730   0.955   2.557   0.456 -0.2472 -0.3446  0.1012
  104HFI     F3 1731   0.748   2.588   0.395 -0.2354 -0.3399 -0.3165
  104HFI     C3 1732   1.005   2.842   0.496  0.2177  0.5723 -0.2881
  104HFI     F4 1733   1.118   2.768   0.478 -0.3282  0.6402 -0.6030
  104HFI     F5 1734   0.986   2.845   0.626  0.2265  0.1008  0.0359
  104HFI     F6 1735   1.020   2.960   0.446  0.2776  0.9578 -0.2245
  104HFI     H1 1736   0.770   2.919   0.502 -1.7433 -1.4917  0.2681
  104HFI     H2 1737   0.923   2.769   0.314 -1.3493 -2.3552 -0.5377
  105HFI     O1 1738   1.494   2.613   0.748  0.3909  0.4628 -0.1555
  105HFI     C1 1739   1.524   2.635   0.612 -0.4715 -0.1067  0.3665
  105HFI     C2 1740   1.665   2.581   0.580  0.2563 -0.2498  0.5110
  105HFI     F1 1741   1.758   2.642   0.647  0.0337 -0.8488  0.9727
  105HFI     F2 1742   1.686   2.594   0.446  0.4291  0.2084  0.0855
  105HFI     F3 1743   1.680   2.449   0.613 -0.1095 -0.3542  0.3735
  105HFI     C3 1744   1.499   2.786   0.581 -0.1312  0.0624  0.2758
  105HFI     F4 1745   1.565   2.857   0.679 -0.5784 -0.3226 -0.5279
  105HFI     F5 1746   1.374   2.825   0.594 -0.2186  0.4422 -0.5490
  105HFI     F6 1747   1.546   2.829   0.457  0.2706 -0.7443 -0.4179
  105HFI     H1 1748   1.518   2.685   0.809 -1.6780  1.2550 -0.2472
  105HFI     H2 1749   1.453   2.585   0.547  0.6820 -2.7285  1.0712
  106HFI     O1 1750   0.859   0.440   1.385 -0.3539 -0.7398 -0.1737
  106HFI     C1 1751   0.797   0.338   1.472 -0.2530  0.2938  0.9836
  106HFI     C2 1752   0.847   0.193   1.441  0.1552 -0.4409 -0.0323
  106HFI     F1 1753   0.978   0.202   1.398 -0.1151  0.1549 -0.2330
  106HFI     F2 1754   0.779   0.124   1.352 -0.1012  0.4318  0.1202
  106HFI     F3 1755   0.850   0.126   1.554  0.3134  0.1196 -0.7924
  106HFI     C3 1756   0.645   0.347   1.472  0.8843 -0.1280  0.8319
  106HFI     F4 1757   0.590   0.255   1.552 -0.5626  0.3135 -0.2652
  106HFI     F5 1758   0.596   0.320   1.343  0.2374 -0.1700 -0.0795
  106HFI     F6 1759   0.599   0.467   1.519  0.4550 -0.3239  0.0054
  106HFI     H1 1760   0.882   0.403   1.298 -1.6822 -1.8426 -0.0813
  106HFI     H2 1761   0.835   0.353   1.574 -0.5296  0.4616  1.0613
  107HFI     O1 1762   0.382   3.086   1.590  0.5759 -0.1876  0.2176
  107HFI     C1 1763   0.359   3.214   1.542 -0.0404 -0.0811  0.4381
  107HFI     C2 1764   0.209   3.241   1.496  0.0200 -0.0955  0.1356
  107HFI     F1 1765   0.182   3.374   1.495  0.1999 -0.1984 -0.3057
  107HFI     F2 1766   0.126   3.175   1.580 -0.2309  0.1650  0.0219
  107HFI     F3 1767   0.187   3.177   1.382  0.9600 -0.1656  0.8186
  107HFI     C3 1768   0.476   3.266   1.445  0.1799 -0.3361 -0.7352
  107HFI     F4 1769   0.590   3.283   1.509 -0.1524  0.3264  0.2561
  107HFI     F5 1770   0.451   3.380   1.378 -0.0947 -1.2140 -0.7825
  107HFI     F6 1771   0.504   3.174   1.350  0.3151 -0.0213 -0.4723
  107HFI     H1 1772   0.331   3.021   1.538  1.6366 -0.2511 -0.7659
  107HFI     H2 1773   0.368   3.288   1.623 -1.2622 -2.3040  2.6604
  108HFI     O1 1774   0.125   2.342   0.947  0.0523 -0.9438  0.3076
  108HFI     C1 1775   0.197   2.438   1.026 -0.5938 -0.0689  0.3480
  108HFI     C2 1776   0.146   2.576   1.008 -0.9291  0.3467  0.6599
  108HFI     F1 1777   0.228   2.671   1.054 -0.1358 -0.4463  0.0935
  108HFI     F2 1778   0.023   2.588   1.065  0.2817  0.1495 -0.0229
  108HFI     F3 1779   0.120   2.602   0.876 -0.1300  0.0228  0.3842
  108HFI     C3 1780   0.357   2.431   1.000  0.3971 -0.0144  0.6508
  108HFI     F4 1781   0.389   2.475   0.882  0.3059  0.3514  0.2988
  108HFI     F5 1782   0.401   2.302   1.016 -0.7248  0.3092  0.1658
  108HFI     F6 1783   0.422   2.506   1.091 -0.0065  0.4961 -0.8781
  108HFI     H1 1784   0.165   2.254   0.956 -1.0735 -1.2407  2.8037
  108HFI     H2 1785   0.192   2.408   1.132  0.1123  0.8838  0.6603
  109HFI     O1 1786   0.025   2.206   0.083  0.0232  0.1060 -0.1391
  109HFI     C1 1787   0.046   2.327   0.016  0.0026  0.3435  0.5851
  109HFI     C2 1788   0.185   2.388   0.055 -0.4555  0.2175 -0.2136
  109HFI     F1 1789   0.209   2.408   0.185  0.1043 -0.0128 -0.0648
  109HFI     F2 1790   0.202   2.506  -0.006  0.4248  0.0980 -0.5789
  109HFI     F3 1791   0.283   2.310   0.017 -0.1211  0.4230  0.2984
  109HFI     C3 1792  -0.068   2.428   0.048  0.7619  0.9691 -0.4163
  109HFI     F4 1793  -0.064   2.471   0.177 -0.4052  0.2874 -0.1676
  109HFI     F5 1794  -0.193   2.380   0.022 -0.4009 -0.0089 -0.4457
  109HFI     F6 1795  -0.058   2.536  -0.026 -0.0790  0.0465  0.4480
  109HFI     H1 1796  -0.070   2.189   0.073 -0.3975  0.7086  2.2770
  109HFI     H2 1797   0.050   2.314  -0.092 -1.0657  0.7817  0.4909
  110HFI     O1 1798   0.888   2.606   3.361  0.4232  0.0561  0.2609
  110HFI     C1 1799   0.987   2.705   3.388  0.8487  0.1023  0.0072
  110HFI     C2 1800   1.013   2.701   3.549 -0.7636 -0.5228  0.6973
  110HFI     F1 1801   1.113   2.784   3.576  0.1760  0.5692 -0.2237
  110HFI     F2 1802   1.052   2.575   3.581  0.1211  0.2564 -0.1921
  110HFI     F3 1803   0.909   2.732   3.627  0.2554  0.4180 -0.4637
  110HFI     C3 1804   0.926   2.849   3.353  0.1847 -0.1628 -0.0391
  110HFI     F4 1805   0.925   2.849   3.222 -0.1446  0.2105  0.4735
  110HFI     F5 1806   0.994   2.958   3.395 -0.3552  0.3123  0.6565
  110HFI     F6 1807   0.795   2.875   3.390 -0.0626  0.0947 -0.1132
  110HFI     H1 1808   0.932   2.519   3.357  2.9283  1.3428 -2.2035
  110HFI     H2 1809   1.069   2.676   3.321 -1.1595 -0.4343 -2.2828
  111HFI     O1 1810   2.239   3.080   1.301 -0.0592  0.3519  0.4531
  111HFI     C1 1811   2.159   3.097   1.420 -0.1417  0.3920 -0.2235
  111HFI     C2 1812   2.185   3.236   1.489 -0.4799 -0.3620  0.0791
  111HFI     F1 1813   2.183   3.333   1.396  0.1163  0.0312  0.0505
  111HFI     F2 1814   2.306   3.244   1.542  0.0205  0.1615 -0.4763
  111HFI     F3 1815   2.098   3.266   1.580 -0.4461  0.3326  0.9558
  111HFI     C3 1816   2.176   2.981   1.516 -0.3736  0.2119  0.2797
  111HFI     F4 1817   2.162   2.870   1.438 -0.4681  0.3082  0.1512
  111HFI     F5 1818   2.082   2.977   1.611  0.3756  0.1127  0.0185
  111HFI     F6 1819   2.290   2.975   1.578  0.0412 -0.0072 -0.0833
  111HFI     H1 1820   2.205   2.997   1.264 -0.1622 -0.4257  2.2331
  111HFI     H2 1821   2.055   3.097   1.385 -0.1259 -2.0090 -0.3436
  112HFI     O1 1822   0.470   2.729   3.694 -0.1817  0.3069  0.6318
  112HFI     C1 1823   0.598   2.659   3.702  0.2862  0.4992  0.6055
  112HFI     C2 1824   0.608   2.533   3.613  0.1702  0.0570 -0.1256
  112HFI     F1 1825   0.715   2.451   3.628  0.0025  0.2654 -0.0764
  112HFI     F2 1826   0.602   2.563   3.481  0.4097  0.0840  0.3799
  112HFI     F3 1827   0.504   2.450   3.642  0.7422  0.2932 -0.3023
  112HFI     C3 1828   0.636   2.627   3.849  0.1971 -0.0121  0.0066
  112HFI     F4 1829   0.634   2.742   3.922  0.1120 -0.1829  0.1947
  112HFI     F5 1830   0.763   2.586   3.859  0.3110  0.0249 -0.0406
  112HFI     F6 1831   0.555   2.536   3.910  0.5456 -0.2124 -0.1366
  112HFI     H1 1832   0.403   2.669   3.728  1.3515 -1.3805  0.7449
  112HFI     H2 1833   0.681   2.716   3.659  2.9098 -3.3648  0.1970
  113HFI     O1 1834   1.061   1.420   1.439  0.3478  0.2246 -0.5002
  113HFI     C1 1835   1.032   1.307   1.522  0.3251  0.1565 -0.4251
  113HFI     C2 1836   1.147   1.197   1.525  0.6980  0.3059 -0.0363
  113HFI     F1 1837   1.103   1.084   1.569 -0.0244  0.0112  0.0400
  113HFI     F2 1838   1.244   1.249   1.597 -0.3388 -0.4789 -0.0466
  113HFI     F3 1839   1.193   1.177   1.397  0.3404 -0.2747  0.6124
  113HFI     C3 1840   0.881   1.252   1.495 -0.2124 -0.7193  0.3538
  113HFI     F4 1841   0.789   1.355   1.492  0.2062 -0.2067 -0.3222
  113HFI     F5 1842   0.847   1.165   1.596  0.8555  0.5039 -0.1937
  113HFI     F6 1843   0.872   1.187   1.377  0.6405 -0.7587 -0.2163
  113HFI     H1 1844   1.118   1.401   1.363  0.7091  1.8150 -0.6614
  113HFI     H2 1845   1.033   1.351   1.623 -1.3749 -0.2323 -0.2154
  114HFI     O1 1846   0.278   1.745   2.485  0.1362  0.1931  0.5744
  114HFI     C1 1847   0.157   1.735   2.406  0.8086  0.1912 -0.3704
  114HFI     C2 1848   0.176   1.663   2.270  0.3323  0.1582 -0.1168
  114HFI     F1 1849   0.266   1.561   2.289  0.2128  0.0428 -0.1587
  114HFI     F2 1850   0.213   1.750   2.174 -0.2994  0.3313 -0.3737
  114HFI     F3 1851   0.063   1.605   2.218  0.6213  0.2431  0.0554
  114HFI     C3 1852   0.079   1.873   2.393 -1.2416  0.1293  0.3038
  114HFI     F4 1853   0.042   1.924   2.514  0.0215 -0.0428 -0.0085
  114HFI     F5 1854  -0.035   1.863   2.327 -0.1328  0.4992  0.5230
  114HFI     F6 1855   0.150   1.965   2.325 -0.1483 -0.5108 -0.3990
  114HFI     H1 1856   0.313   1.655   2.497 -2.1719 -0.9066 -0.6888
  114HFI     H2 1857   0.087   1.677   2.467  0.2935  1.2872  0.0991
  115HFI     O1 1858   2.476   1.531   3.714  0.3117  0.5152  0.2165
  115HFI     C1 1859   2.544   1.433   3.808  0.3735 -0.3159  0.6409
  115HFI     C2 1860   2.508   1.289   3.764  0.1471 -0.0524 -0.0560
  115HFI     F1 1861   2.556   1.268   3.640 -0.2015  0.0055  0.1701
  115HFI     F2 1862   2.367   1.267   3.759 -0.1948 -0.3377 -0.6162
  115HFI     F3 1863   2.566   1.204   3.848  0.9496 -0.2656 -0.7292
  115HFI     C3 1864   2.497   1.462   3.956  0.6057 -0.1710  0.3069
  115HFI     F4 1865   2.572   1.395   4.046  0.3750  0.0890  0.2913
  115HFI     F5 1866   2.368   1.440   3.976 -0.1029  0.2129  0.0340
  115HFI     F6 1867   2.517   1.590   3.978 -0.2522 -0.4498  0.5195
  115HFI     H1 1868   2.501   1.622   3.736 -1.1755  1.2430 -1.0057
  115HFI     H2 1869   2.653   1.445   3.803  0.0609  2.2102 -1.1743
  116HFI     O1 1870   1.931   0.017   1.077  0.3813 -0.4566  0.3717
  116HFI     C1 1871   2.012   0.053   0.965 -1.0350  0.3395 -0.4064
  116HFI     C2 1872   2.103   0.170   1.005 -0.0359 -0.5911 -0.5435
  116HFI     F1 1873   2.154   0.150   1.129 -0.3814  0.4694 -0.1050
  116HFI     F2 1874   2.043   0.290   0.996  0.0584 -0.2857 -0.7957
  116HFI     F3 1875   2.213   0.174   0.937 -0.1200  0.1127 -0.3668
  116HFI     C3 1876   1.919   0.063   0.839  0.4874  0.4501 -0.0841
  116HFI     F4 1877   2.001   0.106   0.739 -0.3625 -0.7607 -0.2695
  116HFI     F5 1878   1.825   0.163   0.852 -0.0941  0.3871  0.2550
  116HFI     F6 1879   1.862  -0.055   0.801  0.2908  0.0615 -0.0665
  116HFI     H1 1880   1.951   0.075   1.152  1.6552  0.1108 -0.4000
  116HFI     H2 1881   2.082  -0.029   0.946 -1.7277 -0.8013  1.8093
  117HFI     O1 1882   1.933   0.150   0.272  0.1928 -0.4870  0.2172
  117HFI     C1 1883   1.907   0.031   0.192 -0.5379 -0.4949  0.2873
  117HFI     C2 1884   1.877   0.065   0.040 -0.1184  0.0455  0.5196
  117HFI     F1 1885   1.983   0.135  -0.010 -0.1886  0.0648 -0.3390
  117HFI     F2 1886   1.769   0.149   0.032 -0.5353 -0.1765  0.2318
  117HFI     F3 1887   1.848  -0.047  -0.029 -0.1290 -0.1370 -0.1677
  117HFI     C3 1888   1.794  -0.046   0.270  0.1014 -0.0970 -0.2281
  117HFI     F4 1889   1.773  -0.172   0.226  0.0891 -0.1172  0.2251
  117HFI     F5 1890   1.673   0.019   0.265  0.2245 -0.1743 -0.3222
  117HFI     F6 1891   1.822  -0.057   0.404  0.0914 -0.4103 -0.0956
  117HFI     H1 1892   1.851   0.197   0.297  0.0232 -0.5259 -0.2636
  117HFI     H2 1893   1.987  -0.044   0.194  0.3193  0.4026  0.2561
  118HFI     O1 1894   2.659   0.463   3.465 -0.0540  0.6033  0.0827
  118HFI     C1 1895   2.680   0.458   3.313 -1.1016  0.1310 -0.3313
  118HFI     C2 1896   2.646   0.590   3.244  0.5856  0.2023  0.3980
  118HFI     F1 1897   2.521   0.640   3.277 -0.5189 -0.1200  0.3377
  118HFI     F2 1898   2.649   0.574   3.105 -0.1840  0.4753 -0.4518
  118HFI     F3 1899   2.738   0.684   3.290  0.1249  0.0884 -0.1724
  118HFI     C3 1900   2.630   0.327   3.240 -0.1361 -0.1944 -0.1946
  118HFI     F4 1901   2.714   0.290   3.138  0.3515  0.1250 -0.2313
  118HFI     F5 1902   2.496   0.332   3.198  0.0391  1.1178 -0.5257
  118HFI     F6 1903   2.644   0.225   3.327  0.6787  0.3757  0.1270
  118HFI     H1 1904   2.602   0.540   3.485 -0.6903  0.7039 -2.0193
  118HFI     H2 1905   2.787   0.449   3.288 -1.1330  0.6329 -0.6467
  119HFI     O1 1906   1.364   3.164   1.015 -0.1157  0.7392  0.2660
  119HFI     C1 1907   1.302   3.037   1.052 -0.4347 -0.9876 -0.2869
  119HFI     C2 1908   1.376   2.962   1.177 -0.0365 -0.1798 -0.1889
  119HFI     F1 1909   1.311   2.849   1.217  0.5756 -0.1090  0.1765
  119HFI     F2 1910   1.389   3.039   1.285 -0.0141  0.0823  0.1402
  119HFI     F3 1911   1.507   2.927   1.136 -0.2294  0.4510  0.0031
  119HFI     C3 1912   1.289   2.943   0.929 -0.4592 -0.4685 -0.0804
  119HFI     F4 1913   1.197   2.843   0.955  0.3947  0.5826  0.6788
  119HFI     F5 1914   1.410   2.881   0.898 -0.3248  0.1449 -0.3140
  119HFI     F6 1915   1.242   3.009   0.817  0.1436 -0.3911  0.4546
  119HFI     H1 1916   1.453   3.148   0.979 -1.2895 -2.5417 -1.3271
  119HFI     H2 1917   1.200   3.058   1.088 -1.2896 -1.5002 -2.3533
  120HFI     O1 1918   0.549   0.931   2.263 -0.0302  0.2917  0.0321
  120HFI     C1 1919   0.455   0.881   2.365  0.5824 -0.2035 -0.2183
  120HFI     C2 1920   0.326   0.969   2.389 -0.0507  0.5447  0.2419
  120HFI     F1 1921   0.269   1.024   2.277  0.2730 -0.1914  0.3173
  120HFI     F2 1922   0.344   1.065   2.480  0.0507 -0.3204  0.1675
  120HFI     F3 1923   0.228   0.884   2.446 -0.2020 -0.6587  0.0844
  120HFI     C3 1924   0.520   0.842   2.502 -0.3923 -0.3305 -0.2725
  120HFI     F4 1925   0.623   0.761   2.495 -0.0099 -0.5161 -0.2021
  120HFI     F5 1926   0.430   0.777   2.580 -0.4176 -0.3022  0.1199
  120HFI     F6 1927   0.562   0.948   2.576 -0.1539  0.0786  0.1597
  120HFI     H1 1928   0.577   1.022   2.282  0.1417  0.2376  0.0386
  120HFI     H2 1929   0.422   0.782   2.330  2.2269 -0.6732 -0.4813
  121HFI     O1 1930   0.842   1.131   2.459 -0.3732  0.4096 -0.0652
  121HFI     C1 1931   0.968   1.064   2.424  0.2095  1.0207 -0.7395
  121HFI     C2 1932   0.996   1.078   2.275 -0.7527 -0.5459  0.3296
  121HFI     F1 1933   1.120   1.032   2.250 -0.4194 -0.6980 -0.1875
  121HFI     F2 1934   0.991   1.204   2.240 -0.5688 -0.5319  0.7209
  121HFI     F3 1935   0.905   1.009   2.204  0.5455 -0.1833  0.2019
  121HFI     C3 1936   0.968   0.918   2.480 -0.4401 -1.0931  0.5931
  121HFI     F4 1937   1.080   0.849   2.456 -0.2343  0.8352  0.1403
  121HFI     F5 1938   0.868   0.847   2.423 -0.1988  0.4127  0.1557
  121HFI     F6 1939   0.936   0.923   2.611  0.0777  0.4259  0.0762
  121HFI     H1 1940   0.849   1.227   2.447 -0.9453  0.4554 -0.0316
  121HFI     H2 1941   1.060   1.107   2.465  0.6362  0.8400 -1.4859
  122HFI     O1 1942   2.814   3.064   0.818  0.5260  0.2447 -0.2256
  122HFI     C1 1943   2.961   3.054   0.830 -0.4730  0.5668  0.6033
  122HFI     C2 1944   3.020   3.200   0.848  0.0010 -0.1002 -1.1297
  122HFI     F1 1945   2.961   3.255   0.959  0.0910 -0.0301 -0.2957
  122HFI     F2 1946   3.004   3.277   0.749 -0.1658 -0.2457  0.3783
  122HFI     F3 1947   3.149   3.193   0.882  0.2020 -0.1053 -0.2459
  122HFI     C3 1948   3.021   2.991   0.698  0.1537 -0.3444  0.7453
  122HFI     F4 1949   2.974   3.062   0.594  0.0630 -0.1843 -0.0119
  122HFI     F5 1950   2.979   2.861   0.677 -0.4678 -0.6658 -0.0534
  122HFI     F6 1951   3.150   2.994   0.685  0.1552  0.6010 -0.0659
  122HFI     H1 1952   2.792   3.042   0.726 -0.0187 -0.0449 -0.0267
  122HFI     H2 1953   2.994   3.000   0.919  1.3729  1.9160  0.7685
  123HFI     O1 1954   1.515   1.313   2.200  0.0905  0.3619 -0.3566
  123HFI     C1 1955   1.405   1.277   2.283  0.7083 -0.0090  0.3065
  123HFI     C2 1956   1.338   1.404   2.342  0.5103 -0.3256 -0.4349
  123HFI     F1 1957   1.242   1.380   2.429  0.2540 -0.3072  0.0906
  123HFI     F2 1958   1.291   1.487   2.246  0.6275 -0.4683  0.1638
  123HFI     F3 1959   1.438   1.472   2.403  0.0335 -0.2099 -0.1239
  123HFI     C3 1960   1.448   1.171   2.399 -0.2444  0.0680 -0.7438
  123HFI     F4 1961   1.342   1.102   2.449  0.1240  0.6082  0.4092
  123HFI     F5 1962   1.507   1.221   2.504 -0.1071  0.5637  0.0019
  123HFI     F6 1963   1.536   1.083   2.343  0.9899 -0.2958 -0.3048
  123HFI     H1 1964   1.526   1.410   2.202  0.2730  0.3307  0.2829
  123HFI     H2 1965   1.323   1.229   2.228 -0.4167  1.4952  0.6185
  124HFI     O1 1966   1.544   1.726   0.852  0.1044  0.0950  0.1992
  124HFI     C1 1967   1.672   1.652   0.839  0.2681  0.2817  0.4035
  124HFI     C2 1968   1.790   1.756   0.803 -0.1083  1.2150  0.1869
  124HFI     F1 1969   1.907   1.694   0.793  0.0196  0.2835 -0.0703
  124HFI     F2 1970   1.795   1.849   0.910 -0.1192 -0.0923  0.3775
  124HFI     F3 1971   1.765   1.830   0.699  0.0572 -0.0473 -0.3275
  124HFI     C3 1972   1.658   1.537   0.737  0.5963  0.1294 -0.7098
  124HFI     F4 1973   1.546   1.463   0.773  0.2208  0.4305 -0.6578
  124HFI     F5 1974   1.770   1.460   0.748  0.2945 -0.0010 -0.2975
  124HFI     F6 1975   1.643   1.578   0.608  0.2248  0.3289  0.3952
  124HFI     H1 1976   1.530   1.771   0.766  1.6032 -0.0309 -0.1173
  124HFI     H2 1977   1.688   1.607   0.937  0.7057 -0.0056  0.1969
  125HFI     O1 1978   2.685   2.170   0.398 -0.1292 -0.2248  0.5860
  125HFI     C1 1979   2.721   2.294   0.325 -0.1551  0.0117  0.3508
  125HFI     C2 1980   2.615   2.409   0.340  0.0607  0.5597  0.4589
  125HFI     F1 1981   2.610   2.455   0.462 -0.1106  0.9154  0.3642
  125HFI     F2 1982   2.494   2.358   0.314 -0.2229 -0.1367  0.1770
  125HFI     F3 1983   2.637   2.517   0.262 -0.1950  0.0197  0.4741
  125HFI     C3 1984   2.763   2.269   0.177  0.6479  0.2779  0.4630
  125HFI     F4 1985   2.834   2.375   0.129  0.1777  0.8222  0.1771
  125HFI     F5 1986   2.649   2.249   0.099  0.4862  0.0454 -0.0015
  125HFI     F6 1987   2.830   2.154   0.171  0.0814  0.1509  0.0450
  125HFI     H1 1988   2.592   2.172   0.429  0.0213 -0.3531  1.0476
  125HFI     H2 1989   2.812   2.331   0.375  1.2752 -2.3904 -0.3860
  126HFI     O1 1990   2.419   1.966   0.649  0.2533  0.0919  0.0938
  126HFI     C1 1991   2.286   1.949   0.579  0.2165  0.7445 -0.8524
  126HFI     C2 1992   2.236   1.806   0.589  0.4341 -0.0149 -0.5093
  126HFI     F1 1993   2.238   1.763   0.713  0.0978 -0.1730 -0.5733
  126HFI     F2 1994   2.310   1.714   0.515 -0.0223  0.0754 -0.0195
  126HFI     F3 1995   2.102   1.790   0.556  0.5140  0.5237 -0.1858
  126HFI     C3 1996   2.287   1.993   0.426 -0.0428 -0.2943 -0.3070
  126HFI     F4 1997   2.171   1.961   0.363 -0.0720 -0.0297  0.0587
  126HFI     F5 1998   2.396   1.937   0.363  0.0450 -0.2369  0.0894
  126HFI     F6 1999   2.298   2.126   0.417  0.2512 -0.2175  0.4063
  126HFI     H1 2000   2.451   1.896   0.709  1.2587 -0.7363 -1.3656
  126HFI     H2 2001   2.197   1.990   0.628  0.8107  1.3955 -0.2962
  127HFI     O1 2002   2.400   1.446   2.210 -0.0674  0.1887 -0.3880
  127HFI     C1 2003   2.371   1.584   2.259 -0.3016  0.0474 -0.2527
  127HFI     C2 2004   2.477   1.620   2.375  0.6607  0.7695  0.0205
  127HFI     F1 2005   2.446   1.743   2.423 -0.0426  0.3759 -0.1288
  127HFI     F2 2006   2.595   1.626   2.327  0.1477  0.1389 -0.0049
  127HFI     F3 2007   2.478   1.522   2.470  0.2909  0.0067  0.3220
  127HFI     C3 2008   2.233   1.604   2.313 -0.3432 -1.2485  0.0815
  127HFI     F4 2009   2.221   1.559   2.440  0.0843  0.0807  0.1580
  127HFI     F5 2010   2.146   1.544   2.236  0.0978 -0.0103  0.5230
  127HFI     F6 2011   2.194   1.737   2.314  0.5917  0.1448 -0.5215
  127HFI     H1 2012   2.418   1.384   2.282  1.0878  0.2456 -0.6259
  127HFI     H2 2013   2.375   1.659   2.178 -2.5357 -0.5010 -0.9116
  128HFI     O1 2014   1.282   1.776   2.338 -0.1077  0.2310  0.2063
  128HFI     C1 2015   1.210   1.886   2.407  0.3836 -0.1332 -0.5785
  128HFI     C2 2016   1.170   2.001   2.306 -0.3491  0.6405  0.5251
  128HFI     F1 2017   1.275   2.051   2.238 -0.3482  0.1350 -0.4388
  128HFI     F2 2018   1.106   2.107   2.357  0.3722 -0.6827 -0.0944
  128HFI     F3 2019   1.092   1.952   2.205 -0.5113 -0.3195 -0.4419
  128HFI     C3 2020   1.294   1.949   2.525 -0.0974  0.3874 -0.5095
  128HFI     F4 2021   1.216   2.028   2.605  0.3058 -0.2477  0.3642
  128HFI     F5 2022   1.397   2.009   2.473  0.4122  0.3609  0.0462
  128HFI     F6 2023   1.340   1.853   2.606  0.0572  0.1735 -0.1859
  128HFI     H1 2024   1.365   1.814   2.305  0.3079 -0.5056  0.3890
  128HFI     H2 2025   1.125   1.837   2.457 -0.6306  3.2694  1.1670
  129HFI     O1 2026   2.726   2.083   2.406 -0.0763 -0.3342 -0.2283
  129HFI     C1 2027   2.822   2.145   2.314  0.1589  0.0606 -0.2991
  129HFI     C2 2028   2.957   2.076   2.336  0.9657  0.3337 -0.5130
  129HFI     F1 2029   3.058   2.108   2.253 -0.2650  0.1162  0.6436
  129HFI     F2 2030   2.930   1.948   2.326  0.8668  0.2224 -0.0743
  129HFI     F3 2031   2.993   2.093   2.469 -0.1862  0.7264  0.1553
  129HFI     C3 2032   2.821   2.292   2.346  0.0883  0.9436  0.5505
  129HFI     F4 2033   2.702   2.343   2.316 -0.4038 -0.2402 -0.2400
  129HFI     F5 2034   2.914   2.345   2.268 -0.4519  0.3541  0.5333
  129HFI     F6 2035   2.851   2.313   2.470 -0.3703  0.1999  0.0086
  129HFI     H1 2036   2.753   2.103   2.497  0.0387 -0.1079 -0.3120
  129HFI     H2 2037   2.804   2.134   2.206 -1.7188  0.5652 -0.0674
  130HFI     O1 2038   2.537   0.898   2.512  0.1764  0.1487  0.0589
  130HFI     C1 2039   2.590   0.977   2.393 -0.0232 -0.1035  0.0674
  130HFI     C2 2040   2.484   1.087   2.345 -0.0701  0.2086  0.0132
  130HFI     F1 2041   2.442   1.171   2.445 -0.0664  0.1865 -0.0127
  130HFI     F2 2042   2.381   1.018   2.302 -0.1704  0.1510  0.3192
  130HFI     F3 2043   2.528   1.166   2.242 -0.1995 -0.1132  0.0344
  130HFI     C3 2044   2.653   0.897   2.280 -0.4582  0.3432  0.6918
  130HFI     F4 2045   2.558   0.829   2.208  0.2576 -0.2316 -0.5226
  130HFI     F5 2046   2.745   0.804   2.318 -0.1851  0.0208  0.2478
  130HFI     F6 2047   2.709   0.974   2.189  0.1965 -0.0443  0.0118
  130HFI     H1 2048   2.482   0.826   2.475 -0.5596  1.5388 -1.5951
  130HFI     H2 2049   2.670   1.040   2.433 -1.0702 -0.6369  3.1769
  131HFI     O1 2050   0.289   1.788   3.373 -0.2171  0.3869  0.1048
  131HFI     C1 2051   0.255   1.669   3.303  0.6851 -0.7347 -0.0650
  131HFI     C2 2052   0.304   1.671   3.150  0.0168 -0.0438 -0.1560
  131HFI     F1 2053   0.424   1.728   3.147  0.5665  0.8682 -0.3880
  131HFI     F2 2054   0.228   1.750   3.074  0.1282  0.1529 -0.4652
  131HFI     F3 2055   0.312   1.550   3.089  0.1664  0.2440 -0.2775
  131HFI     C3 2056   0.098   1.633   3.312  0.4942  0.4000  0.2666
  131HFI     F4 2057   0.068   1.520   3.241 -0.3140  0.1491  0.1847
  131HFI     F5 2058   0.022   1.728   3.268  0.2400  0.1480  0.2228
  131HFI     F6 2059   0.066   1.610   3.440 -0.5685 -0.3994 -0.1618
  131HFI     H1 2060   0.311   1.766   3.465  1.0153 -0.9063 -0.4660
  131HFI     H2 2061   0.312   1.589   3.351  0.9960  0.0346  0.8514
  132HFI     O1 2062   1.429   3.169   3.438 -0.4926 -0.0627  0.2639
  132HFI     C1 2063   1.449   3.251   3.552  0.1321  0.3404  0.0183
  132HFI     C2 2064   1.546   3.377   3.520 -0.0657 -0.0865 -0.1972
  132HFI     F1 2065   1.542   3.482   3.604  0.1779 -0.1732 -0.7739
  132HFI     F2 2066   1.521   3.422   3.396  0.2065  0.5499 -0.6244
  132HFI     F3 2067   1.668   3.339   3.516  0.0918  0.0426  0.3578
  132HFI     C3 2068   1.505   3.174   3.679  0.4200 -0.3844 -0.2712
  132HFI     F4 2069   1.412   3.095   3.726 -0.1686  0.2031  0.4739
  132HFI     F5 2070   1.538   3.263   3.776  0.6831  0.1457 -0.2170
  132HFI     F6 2071   1.609   3.101   3.638  0.4295  0.2419 -0.0925
  132HFI     H1 2072   1.444   3.220   3.357  1.3561 -1.0920 -0.0710
  132HFI     H2 2073   1.353   3.290   3.587  0.5511  0.5905  0.9100
  133HFI     O1 2074   0.489   3.214   2.470 -0.0342 -0.5536  0.1411
  133HFI     C1 2075   0.476   3.341   2.399 -0.8978  0.1406  0.1053
  133HFI     C2 2076   0.543   3.345   2.259 -0.4990  0.4583  0.2510
  133HFI     F1 2077   0.680   3.347   2.267 -0.5917  0.4391 -0.0681
  133HFI     F2 2078   0.498   3.458   2.200 -0.0404 -0.3800  0.1165
  133HFI     F3 2079   0.495   3.241   2.193  0.4273 -0.7734  0.2992
  133HFI     C3 2080   0.510   3.456   2.490  0.4824  0.7417 -0.2737
  133HFI     F4 2081   0.641   3.467   2.493  0.3692  0.1497  0.0142
  133HFI     F5 2082   0.464   3.436   2.619  0.8784 -0.1887 -0.2766
  133HFI     F6 2083   0.468   3.576   2.447  0.6098 -0.3846  0.2141
  133HFI     H1 2084   0.585   3.203   2.481 -0.3302 -1.9316  1.6131
  133HFI     H2 2085   0.368   3.352   2.382 -0.7595  0.5742 -0.5227
  134HFI     O1 2086   2.713   3.164   1.068 -0.2186  0.0095  0.4756
  134HFI     C1 2087   2.581   3.225   1.029  0.0118  0.4413  0.2857
  134HFI     C2 2088   2.478   3.126   0.972 -0.2117 -0.2578 -0.3247
  134HFI     F1 2089   2.497   3.009   1.025  0.0511  0.5229 -0.4951
  134HFI     F2 2090   2.490   3.110   0.840 -0.4166  0.2408  0.1435
  134HFI     F3 2091   2.352   3.159   1.002 -0.2836 -0.4403  0.0332
  134HFI     C3 2092   2.607   3.351   0.948 -0.3972 -0.2862  0.2100
  134HFI     F4 2093   2.655   3.323   0.827 -0.0603 -0.8813 -0.2799
  134HFI     F5 2094   2.697   3.425   1.013 -0.0792  0.0816  0.4111
  134HFI     F6 2095   2.497   3.429   0.937 -0.3177 -0.0980 -0.0931
  134HFI     H1 2096   2.765   3.149   0.987  1.1509  0.5035  1.2501
  134HFI     H2 2097   2.530   3.253   1.122 -2.5433 -1.5847 -0.4459
  135HFI     O1 2098   0.856   0.413   2.468 -0.0247 -0.0917 -0.1535
  135HFI     C1 2099   0.840   0.524   2.374  0.2383 -0.2767 -0.5282
  135HFI     C2 2100   0.724   0.497   2.272 -0.3311 -0.0608 -0.2377
  135HFI     F1 2101   0.705   0.585   2.174 -0.0330 -0.3688  0.3573
  135HFI     F2 2102   0.609   0.497   2.345  0.4729  0.4872 -0.4517
  135HFI     F3 2103   0.732   0.377   2.213 -0.4018 -0.0378  0.5745
  135HFI     C3 2104   0.976   0.548   2.307 -0.7031  0.6425  0.3150
  135HFI     F4 2105   1.071   0.578   2.390  0.1316  0.0204  0.2428
  135HFI     F5 2106   0.971   0.636   2.205  0.2963 -0.0532  0.2640
  135HFI     F6 2107   1.017   0.434   2.238  0.0385  0.0324 -0.3179
  135HFI     H1 2108   0.918   0.349   2.429 -0.0267  0.1420 -0.5412
  135HFI     H2 2109   0.809   0.614   2.430 -2.3608 -1.2724 -0.2733
  136HFI     O1 2110   2.943   2.933   3.672 -0.3502 -0.6969  0.1917
  136HFI     C1 2111   2.917   2.910   3.814 -0.6471 -0.1909  0.1194
  136HFI     C2 2112   2.802   2.800   3.845 -0.0783 -0.1508 -0.4266
  136HFI     F1 2113   2.782   2.793   3.978  0.1304 -0.4137 -0.0677
  136HFI     F2 2114   2.838   2.681   3.795 -0.6749 -0.0706 -0.7326
  136HFI     F3 2115   2.683   2.835   3.789  0.3889 -0.4474  0.2873
  136HFI     C3 2116   2.908   3.042   3.897 -0.5922 -0.1233  0.1180
  136HFI     F4 2117   2.780   3.070   3.924 -0.2929  0.2113  0.0793
  136HFI     F5 2118   2.956   3.144   3.823 -0.4856  0.1418  0.1218
  136HFI     F6 2119   2.977   3.047   4.018 -0.2267  0.2762 -0.0837
  136HFI     H1 2120   2.890   3.011   3.648 -0.4630 -0.7646  0.2211
  136HFI     H2 2121   3.005   2.857   3.852 -0.1448  1.4111  1.2434
  137HFI     O1 2122   0.759   0.618   3.523  0.1400  0.1413  0.0697
  137HFI     C1 2123   0.749   0.620   3.373 -0.1229  0.3972  1.1155
  137HFI     C2 2124   0.667   0.500   3.311  0.6887  0.0345 -0.4221
  137HFI     F1 2125   0.735   0.387   3.306  0.4616  0.0333  0.2010
  137HFI     F2 2126   0.627   0.538   3.184 -0.2313 -0.3594 -0.5353
  137HFI     F3 2127   0.553   0.476   3.382  0.2478  0.2984  0.1857
  137HFI     C3 2128   0.891   0.638   3.304 -0.5906 -0.4759 -0.0242
  137HFI     F4 2129   0.877   0.654   3.171 -0.0352  0.6203 -0.8275
  137HFI     F5 2130   0.973   0.534   3.324  0.4941  0.5095  0.1767
  137HFI     F6 2131   0.946   0.755   3.356  0.0509 -0.2716  0.3861
  137HFI     H1 2132   0.813   0.544   3.555  1.3278  0.2044 -1.7572
  137HFI     H2 2133   0.691   0.708   3.341  0.9765  1.4497  1.9883
  138HFI     O1 2134   2.912   2.750   3.400 -0.0017  0.7236 -0.3389
  138HFI     C1 2135   3.031   2.689   3.354  0.0766 -0.0925  0.8852
  138HFI     C2 2136   3.094   2.601   3.460  0.0727 -0.6550  0.8245
  138HFI     F1 2137   2.999   2.522   3.508  0.2668 -0.3013  0.0315
  138HFI     F2 2138   3.144   2.674   3.564  0.2451 -0.0906  0.0565
  138HFI     F3 2139   3.190   2.521   3.410 -0.4576 -0.8203  0.4000
  138HFI     C3 2140   3.135   2.792   3.287  0.2972 -0.2316  0.6797
  138HFI     F4 2141   3.220   2.731   3.197 -0.0172 -0.5983 -0.0982
  138HFI     F5 2142   3.216   2.855   3.370  0.4373 -0.0472 -0.1460
  138HFI     F6 2143   3.069   2.883   3.214 -0.2660 -0.5484 -0.5132
  138HFI     H1 2144   2.938   2.797   3.481  2.1390 -1.3043  0.1928
  138HFI     H2 2145   3.012   2.618   3.272  2.6124 -0.0761  0.2481
  139HFI     O1 2146   3.095   3.335   1.591  0.4635 -0.5029  0.4003
  139HFI     C1 2147   3.202   3.365   1.499  0.7072  0.3293  0.3906
  139HFI     C2 2148   3.227   3.521   1.478 -0.1300 -0.7258 -0.3608
  139HFI     F1 2149   3.333   3.552   1.394 -0.2657  0.3387  0.5357
  139HFI     F2 2150   3.263   3.566   1.593  0.2148 -0.2899  0.4052
  139HFI     F3 2151   3.119   3.589   1.449 -0.1758 -1.0105  0.5021
  139HFI     C3 2152   3.180   3.290   1.361 -0.8163 -0.7717  0.4211
  139HFI     F4 2153   3.170   3.156   1.383  0.1582  0.0460 -0.0827
  139HFI     F5 2154   3.282   3.307   1.274 -0.4070  0.6146 -0.1390
  139HFI     F6 2155   3.071   3.334   1.296  0.4645  0.1132  0.1420
  139HFI     H1 2156   3.009   3.347   1.548 -0.0742  0.4439  1.7210
  139HFI     H2 2157   3.298   3.332   1.541  0.9772  2.0334  1.1280
  140HFI     O1 2158   3.387   1.494   0.712  0.1519  0.7487 -0.0659
  140HFI     C1 2159   3.450   1.438   0.591  0.2065 -1.1794 -0.2657
  140HFI     C2 2160   3.567   1.523   0.540 -1.2350 -0.1898 -0.3203
  140HFI     F1 2161   3.633   1.465   0.427  0.5409 -0.5977 -0.0568
  140HFI     F2 2162   3.662   1.545   0.636 -0.2226 -0.1551 -0.1745
  140HFI     F3 2163   3.527   1.647   0.498  0.0765 -0.0744  0.3000
  140HFI     C3 2164   3.350   1.404   0.471  0.0955 -0.2661 -0.5264
  140HFI     F4 2165   3.247   1.336   0.525  0.1435 -0.0703  0.0231
  140HFI     F5 2166   3.399   1.317   0.373  0.0957 -0.2048 -0.6178
  140HFI     F6 2167   3.301   1.514   0.406 -0.1399 -0.0195  0.1643
  140HFI     H1 2168   3.369   1.587   0.694  1.1628  0.9106 -0.3145
  140HFI     H2 2169   3.484   1.337   0.617  0.1480 -1.1574 -0.1060
  141HFI     O1 2170   2.533   2.952   0.311  0.8828  0.1914  0.0599
  141HFI     C1 2171   2.480   2.933   0.445  0.1783  0.1475 -0.3426
  141HFI     C2 2172   2.592   2.916   0.547  0.8497  0.0993 -0.0564
  141HFI     F1 2173   2.704   2.846   0.501  0.8581 -0.2463  0.1845
  141HFI     F2 2174   2.547   2.858   0.656 -0.0665 -0.1680 -0.0360
  141HFI     F3 2175   2.640   3.037   0.584 -0.4869 -0.1030  0.1724
  141HFI     C3 2176   2.378   2.818   0.430  0.1001  0.9304 -0.1568
  141HFI     F4 2177   2.290   2.822   0.529 -0.6755 -0.0828  0.4497
  141HFI     F5 2178   2.444   2.702   0.432 -0.1018 -0.7153  0.1820
  141HFI     F6 2179   2.313   2.822   0.307 -0.3145 -0.1569  0.0536
  141HFI     H1 2180   2.530   2.867   0.264 -3.6948 -0.6994  1.7946
  141HFI     H2 2181   2.426   3.027   0.461  1.3803  0.7647  0.1348
  142HFI     O1 2182   0.070   0.287   2.949  0.5822  0.6870  0.0898
  142HFI     C1 2183   0.068   0.230   2.813  0.0015 -1.0138 -0.1848
  142HFI     C2 2184  -0.072   0.184   2.765 -0.2777  0.6510 -1.1199
  142HFI     F1 2185  -0.163   0.272   2.808  0.1181 -0.4196 -0.2454
  142HFI     F2 2186  -0.111   0.060   2.822 -0.3758 -0.5988  0.2193
  142HFI     F3 2187  -0.094   0.168   2.639  0.4230 -0.1197  0.7227
  142HFI     C3 2188   0.186   0.131   2.792 -0.2666  0.1299  0.1896
  142HFI     F4 2189   0.184   0.086   2.669 -0.1228  0.5502 -0.8014
  142HFI     F5 2190   0.183   0.029   2.866  0.8632  0.3671 -0.3940
  142HFI     F6 2191   0.305   0.191   2.808 -0.2658  0.2674  0.8847
  142HFI     H1 2192   0.003   0.248   3.007 -0.5734  1.2489 -0.8498
  142HFI     H2 2193   0.091   0.310   2.741 -1.2925 -2.0381 -1.7766
  143HFI     O1 2194   2.527   0.299   0.844 -0.1833  1.2392 -0.2440
  143HFI     C1 2195   2.652   0.368   0.871  1.2047  0.0038 -0.1115
  143HFI     C2 2196   2.759   0.294   0.780  0.0693 -0.6054 -0.2380
  143HFI     F1 2197   2.880   0.354   0.790 -0.3534  0.5866  0.2261
  143HFI     F2 2198   2.724   0.309   0.648 -0.0634 -0.5127 -0.7441
  143HFI     F3 2199   2.774   0.160   0.792  0.1581 -0.9238 -0.6854
  143HFI     C3 2200   2.682   0.377   1.018  0.2695 -0.1144 -0.4192
  143HFI     F4 2201   2.750   0.492   1.031 -0.5459 -0.0829  0.5159
  143HFI     F5 2202   2.755   0.275   1.061  0.5327  0.5748  1.0540
  143HFI     F6 2203   2.567   0.390   1.079 -0.1797 -0.0795  0.4620
  143HFI     H1 2204   2.470   0.315   0.921 -0.7288 -0.5574 -0.2332
  143HFI     H2 2205   2.636   0.470   0.835  0.2731 -0.7865 -2.0115
  144HFI     O1 2206   2.272   2.972   3.032  0.0692 -1.1041  0.2221
  144HFI     C1 2207   2.269   2.830   3.002  0.4053  0.4515 -0.1757
  144HFI     C2 2208   2.367   2.751   3.089  0.5089  0.1751 -0.3239
  144HFI     F1 2209   2.489   2.786   3.044 -0.1438 -0.4021  0.1544
  144HFI     F2 2210   2.358   2.612   3.083  0.0654 -0.3490 -0.4429
  144HFI     F3 2211   2.357   2.783   3.223  0.1456 -0.0998  0.0712
  144HFI     C3 2212   2.276   2.791   2.846 -0.4134  0.7933  0.2620
  144HFI     F4 2213   2.390   2.832   2.785 -0.1879 -0.0403 -0.7384
  144HFI     F5 2214   2.171   2.842   2.787  0.6490  0.1357 -0.4573
  144HFI     F6 2215   2.258   2.660   2.831 -0.2730 -0.5545  0.2770
  144HFI     H1 2216   2.356   2.994   3.077  0.4921 -0.6089 -0.8049
  144HFI     H2 2217   2.173   2.789   3.033  1.2277 -1.1074  0.3941
  145HFI     O1 2218   2.235   1.355   0.419 -0.1189 -0.0863 -0.4225
  145HFI     C1 2219   2.265   1.260   0.526  0.1399  0.2182 -0.1862
  145HFI     C2 2220   2.143   1.159   0.565  0.2760 -0.7618  0.5107
  145HFI     F1 2221   2.170   1.071   0.665 -0.5214 -0.1469 -0.0240
  145HFI     F2 2222   2.103   1.085   0.459 -0.4111  0.0927  0.6367
  145HFI     F3 2223   2.033   1.228   0.607  0.6352 -0.8248  0.5438
  145HFI     C3 2224   2.304   1.336   0.661  0.6719 -0.3855 -0.4035
  145HFI     F4 2225   2.193   1.394   0.714 -0.1425 -0.2253  0.0571
  145HFI     F5 2226   2.397   1.430   0.644 -0.1926 -0.1440  0.1963
  145HFI     F6 2227   2.349   1.251   0.759 -0.1939 -0.0313  0.3410
  145HFI     H1 2228   2.185   1.303   0.354  3.0355 -2.3173 -1.1898
  145HFI     H2 2229   2.353   1.197   0.507 -0.0994 -0.1575 -0.0276
  146HFI     O1 2230   2.881   3.075   3.419 -0.3726  0.1269  0.2327
  146HFI     C1 2231   2.752   3.119   3.375  0.8414  0.3177  0.1918
  146HFI     C2 2232   2.688   3.209   3.494  0.4230  0.4692 -0.5009
  146HFI     F1 2233   2.582   3.280   3.452  0.2358  0.2144 -0.4596
  146HFI     F2 2234   2.775   3.305   3.536  0.2714 -0.4818  0.2570
  146HFI     F3 2235   2.648   3.140   3.607 -0.3127  0.3324  0.3854
  146HFI     C3 2236   2.649   2.998   3.338  0.2885 -0.3102 -0.2491
  146HFI     F4 2237   2.660   2.913   3.433  0.3935 -0.3572 -0.1851
  146HFI     F5 2238   2.689   2.937   3.223 -0.3561  0.1363  0.5169
  146HFI     F6 2239   2.519   3.039   3.315 -0.0174  0.1762  0.1642
  146HFI     H1 2240   2.940   3.068   3.342 -1.5287 -0.5310 -0.6251
  146HFI     H2 2241   2.762   3.189   3.291  2.0551 -0.0673 -0.0003
  147HFI     O1 2242   1.912   1.814   2.453  0.5932  0.1002  0.2974
  147HFI     C1 2243   1.779   1.786   2.405  0.7033 -0.3825 -0.2550
  147HFI     C2 2244   1.782   1.663   2.308  0.6131  0.4158  0.4377
  147HFI     F1 2245   1.660   1.623   2.276 -0.3690 -0.1002  0.6220
  147HFI     F2 2246   1.856   1.569   2.366  0.1355  0.0279  0.4326
  147HFI     F3 2247   1.852   1.699   2.199 -0.3519 -0.0783 -0.1091
  147HFI     C3 2248   1.717   1.915   2.337  0.0082  0.5036  0.7853
  147HFI     F4 2249   1.601   1.884   2.270  0.1219 -0.1377  0.2007
  147HFI     F5 2250   1.802   1.965   2.245  0.2913 -0.0419 -0.0723
  147HFI     F6 2251   1.685   2.003   2.430 -0.3455  0.2928  0.3790
  147HFI     H1 2252   1.939   1.741   2.510  0.6630  1.2635  1.7782
  147HFI     H2 2253   1.709   1.753   2.483 -0.9490 -1.0477 -1.9802
  148HFI     O1 2254   1.177   0.454   2.968 -0.3123  0.1134  0.3353
  148HFI     C1 2255   1.145   0.386   2.840 -0.1055 -0.1504  0.3534
  148HFI     C2 2256   1.215   0.249   2.840 -0.0118  1.1100  0.3580
  148HFI     F1 2257   1.344   0.263   2.866  0.5615  0.2087  0.1692
  148HFI     F2 2258   1.211   0.181   2.711 -0.3800 -0.1836 -0.3858
  148HFI     F3 2259   1.168   0.165   2.934  0.3800  0.0423 -0.0438
  148HFI     C3 2260   1.177   0.475   2.719 -0.0312 -0.1434  0.5481
  148HFI     F4 2261   1.105   0.596   2.730  0.0681  0.1309  0.1512
  148HFI     F5 2262   1.152   0.421   2.592  0.3018 -0.0640  0.1312
  148HFI     F6 2263   1.310   0.520   2.717  0.1611  0.3209 -0.2039
  148HFI     H1 2264   1.197   0.546   2.945 -2.3521 -0.0181 -2.2430
  148HFI     H2 2265   1.036   0.375   2.836 -0.0246 -1.0388  0.5719
  149HFI     O1 2266   1.102   2.951   0.152 -0.1727  0.7407 -0.4964
  149HFI     C1 2267   1.034   3.079   0.159  0.9787 -0.3834 -0.1192
  149HFI     C2 2268   0.905   3.085   0.068  0.6225 -0.0158  0.0264
  149HFI     F1 2269   0.913   3.000  -0.033 -0.2794  0.0296  0.3576
  149HFI     F2 2270   0.860   3.205   0.016 -0.1746  0.4920  0.2300
  149HFI     F3 2271   0.798   3.043   0.151 -0.6843  0.5212  0.1752
  149HFI     C3 2272   1.134   3.196   0.119  0.0413  0.2481  0.2687
  149HFI     F4 2273   1.147   3.192  -0.013  0.3410 -0.2209  0.1872
  149HFI     F5 2274   1.257   3.193   0.180  0.2805 -0.2246  0.0777
  149HFI     F6 2275   1.083   3.317   0.161  0.3063 -0.0571  0.3810
  149HFI     H1 2276   1.111   2.921   0.060 -3.6638 -1.6953 -0.1447
  149HFI     H2 2277   0.990   3.110   0.254 -0.9320 -0.2724 -1.0189
  150HFI     O1 2278   1.838   2.227   2.817  0.2699 -0.8595 -0.4848
  150HFI     C1 2279   1.760   2.130   2.737 -0.4350  0.1355 -0.2547
  150HFI     C2 2280   1.603   2.150   2.763  0.1244  0.1528  0.2743
  150HFI     F1 2281   1.533   2.041   2.732  0.5285  0.2928 -0.2914
  150HFI     F2 2282   1.554   2.246   2.689  0.8302 -0.3061  0.7456
  150HFI     F3 2283   1.577   2.182   2.888  0.7887 -0.1515 -0.7294
  150HFI     C3 2284   1.814   1.990   2.779 -0.3892  0.2925 -0.3349
  150HFI     F4 2285   1.935   1.967   2.730  0.2825 -0.4648  0.1758
  150HFI     F5 2286   1.748   1.881   2.739 -0.1169 -0.1690 -0.4913
  150HFI     F6 2287   1.821   1.981   2.916  0.0241  0.5080  0.3345
  150HFI     H1 2288   1.896   2.186   2.883  1.4914  1.0129 -0.3730
  150HFI     H2 2289   1.784   2.135   2.630  0.3642 -1.3676 -0.1571
  151HFI     O1 2290   1.440   1.910   3.554 -0.0338  0.4107 -0.1897
  151HFI     C1 2291   1.473   1.903   3.696  0.4248  0.4620 -0.0099
  151HFI     C2 2292   1.386   1.997   3.775  0.2785  0.5981 -0.5713
  151HFI     F1 2293   1.401   2.123   3.735 -0.2073  0.0897  0.0365
  151HFI     F2 2294   1.412   1.987   3.914  0.4125 -0.1891  0.1095
  151HFI     F3 2295   1.258   1.955   3.766  0.6355 -0.8012  0.0482
  151HFI     C3 2296   1.625   1.935   3.714 -0.1247  0.0292  0.1495
  151HFI     F4 2297   1.660   1.922   3.847  0.1833 -0.2359  0.4616
  151HFI     F5 2298   1.662   2.054   3.662  0.0245  0.0247  0.1539
  151HFI     F6 2299   1.695   1.846   3.643  0.1359 -0.0709  0.3088
  151HFI     H1 2300   1.409   2.001   3.539 -0.7611  0.1874 -0.0712
  151HFI     H2 2301   1.453   1.802   3.734 -1.8321  1.5484  1.8525
  152HFI     O1 2302   0.687   2.828   0.797 -0.4308 -0.4173 -0.5412
  152HFI     C1 2303   0.677   2.931   0.905 -0.1064  0.7769 -0.3041
  152HFI     C2 2304   0.722   3.064   0.856 -0.3036 -1.1864 -0.8757
  152HFI     F1 2305   0.857   3.056   0.818  0.2458 -0.3899  0.0772
  152HFI     F2 2306   0.712   3.159   0.961  0.7282 -0.4367  0.1759
  152HFI     F3 2307   0.649   3.116   0.750  0.1669 -0.0732 -0.2978
  152HFI     C3 2308   0.757   2.874   1.032  0.7935  0.1581  0.2363
  152HFI     F4 2309   0.686   2.765   1.084  0.2868  0.2470 -0.8708
  152HFI     F5 2310   0.770   2.964   1.138 -0.1775 -0.8450  1.0356
  152HFI     F6 2311   0.878   2.835   0.991  0.0104  0.0162  0.8124
  152HFI     H1 2312   0.716   2.745   0.840 -0.5795 -0.0800  0.2157
  152HFI     H2 2313   0.575   2.937   0.943  0.3156 -0.9978  1.1729
  153HFI     O1 2314   2.073   1.961   0.062  0.1901  0.2234 -0.0259
  153HFI     C1 2315   2.118   1.972  -0.074 -0.3464  0.7618 -0.0465
  153HFI     C2 2316   2.243   1.878  -0.103  0.3542 -0.2888  0.3010
  153HFI     F1 2317   2.360   1.931  -0.056  0.8352 -0.0293 -0.4771
  153HFI     F2 2318   2.261   1.858  -0.240 -0.5486  0.0695 -0.5147
  153HFI     F3 2319   2.235   1.753  -0.048 -0.6360 -0.2717 -0.2019
  153HFI     C3 2320   2.132   2.119  -0.125  0.3247  0.5901 -0.5216
  153HFI     F4 2321   2.248   2.180  -0.088 -0.0109 -0.4086  0.1402
  153HFI     F5 2322   2.033   2.196  -0.078  0.0480 -0.3469 -0.0395
  153HFI     F6 2323   2.125   2.123  -0.259  0.3201 -0.1170  0.4391
  153HFI     H1 2324   2.083   2.049   0.102  1.5691  0.5173 -1.0026
  153HFI     H2 2325   2.043   1.941  -0.149  0.1520  0.8406 -0.5849
  154HFI     O1 2326   1.254   0.816   2.854 -0.0895 -0.2055  0.7496
  154HFI     C1 2327   1.187   0.888   2.969 -0.0834 -0.4747  0.6787
  154HFI     C2 2328   1.186   1.039   2.936  0.1381  0.2249  0.1355
  154HFI     F1 2329   1.107   1.065   2.822  0.1770  0.3986 -0.2363
  154HFI     F2 2330   1.309   1.082   2.904 -0.2979  0.4366  0.0160
  154HFI     F3 2331   1.140   1.106   3.043  0.1526  0.6246 -0.8002
  154HFI     C3 2332   1.241   0.848   3.109  0.1020  0.4709  0.0620
  154HFI     F4 2333   1.362   0.905   3.139 -0.1919  0.4311  0.4985
  154HFI     F5 2334   1.262   0.718   3.127 -0.2700  0.5179  0.9378
  154HFI     F6 2335   1.159   0.880   3.208 -0.2880  0.4398 -0.2956
  154HFI     H1 2336   1.348   0.841   2.861 -0.3000  0.4862  1.1614
  154HFI     H2 2337   1.079   0.870   2.982 -0.6442  1.4928 -0.9672
  155HFI     O1 2338   2.410   1.047   3.290  0.3883 -0.2637  0.1321
  155HFI     C1 2339   2.342   0.924   3.327 -0.1300  0.0528 -0.2184
  155HFI     C2 2340   2.189   0.937   3.320  0.4717 -0.6621 -0.1900
  155HFI     F1 2341   2.122   0.822   3.324  0.7841 -0.3686  0.4064
  155HFI     F2 2342   2.150   0.996   3.203 -0.1656 -0.4260 -0.1146
  155HFI     F3 2343   2.136   1.018   3.415 -0.0600 -0.3535 -0.2101
  155HFI     C3 2344   2.387   0.886   3.473  0.6600 -0.6756  0.4138
  155HFI     F4 2345   2.521   0.869   3.469 -0.1277  0.1332  0.2385
  155HFI     F5 2346   2.329   0.770   3.526  0.0534 -0.7035 -0.2342
  155HFI     F6 2347   2.366   0.987   3.567 -0.4418  0.1137 -0.5575
  155HFI     H1 2348   2.346   1.106   3.247  1.8450 -0.4122 -2.3266
  155HFI     H2 2349   2.363   0.838   3.263 -1.0216  0.0642 -0.5413
  156HFI     O1 2350   1.564   2.299   0.421  0.2459 -0.0584  0.4347
  156HFI     C1 2351   1.530   2.207   0.525 -0.1491  0.2444  0.0178
  156HFI     C2 2352   1.625   2.090   0.534 -0.6067  0.8381  0.1240
  156HFI     F1 2353   1.619   2.008   0.420  0.4176 -0.2845 -0.0609
  156HFI     F2 2354   1.606   2.018   0.648  0.6237 -0.5127  0.1930
  156HFI     F3 2355   1.751   2.138   0.540 -0.1247 -0.5195  0.0296
  156HFI     C3 2356   1.380   2.171   0.539  0.1450  0.0016 -0.1585
  156HFI     F4 2357   1.351   2.114   0.656  0.1021  0.1754 -0.0898
  156HFI     F5 2358   1.340   2.095   0.438 -0.3292 -0.0319 -0.3776
  156HFI     F6 2359   1.304   2.281   0.537 -0.3767 -0.3544  0.5050
  156HFI     H1 2360   1.572   2.252   0.336  2.1591  0.6079  0.2211
  156HFI     H2 2361   1.566   2.250   0.620 -1.0841 -1.3946  1.1498
  157HFI     O1 2362   2.628   2.061   3.051  0.4305 -0.0760 -0.2733
  157HFI     C1 2363   2.682   2.154   3.145 -0.5047 -0.8831 -0.0301
  157HFI     C2 2364   2.615   2.298   3.132  0.5775  0.0984  0.5792
  157HFI     F1 2365   2.661   2.362   3.022 -0.4536  0.0288 -0.3038
  157HFI     F2 2366   2.637   2.379   3.241  0.3586  0.1322  0.1286
  157HFI     F3 2367   2.483   2.290   3.105 -0.3749 -0.2682 -0.3697
  157HFI     C3 2368   2.836   2.159   3.150  0.3010  0.1077 -1.0552
  157HFI     F4 2369   2.898   2.192   3.034 -0.1689  0.7454 -0.4792
  157HFI     F5 2370   2.888   2.038   3.182 -0.3745 -0.0610  0.3696
  157HFI     F6 2371   2.880   2.246   3.239  0.0848 -0.4971 -0.2828
  157HFI     H1 2372   2.543   2.029   3.086  0.4913 -0.8436 -0.8060
  157HFI     H2 2373   2.653   2.126   3.247  3.7511  0.9726  1.8033
  158HFI     O1 2374   2.408   0.073   2.986 -0.3543  0.1143  0.3595
  158HFI     C1 2375   2.522  -0.000   2.931  0.0355  0.0979 -0.8737
  158HFI     C2 2376   2.518  -0.000   2.777  0.0952  0.7745 -0.3061
  158HFI     F1 2377   2.497   0.131   2.727 -0.0637 -0.5777 -0.2574
  158HFI     F2 2378   2.423  -0.090   2.732  0.2815  0.2092  0.5398
  158HFI     F3 2379   2.639  -0.037   2.716 -0.4716 -0.0104 -0.0080
  158HFI     C3 2380   2.559  -0.135   3.010  0.5663  0.3121 -0.0718
  158HFI     F4 2381   2.471  -0.234   2.995  0.0828  0.3312 -0.1820
  158HFI     F5 2382   2.574  -0.115   3.139  0.6240  0.7187 -0.5772
  158HFI     F6 2383   2.675  -0.184   2.975 -0.0457  0.3313  0.1055
  158HFI     H1 2384   2.327   0.019   2.982  0.6199 -1.6913  3.2063
  158HFI     H2 2385   2.611   0.058   2.954  0.0601  0.1428 -1.0839
  159HFI     O1 2386   2.837   0.940   0.584  0.1955  0.5807  0.1115
  159HFI     C1 2387   2.794   0.999   0.454  0.6196  0.1689  0.3783
  159HFI     C2 2388   2.875   1.129   0.429 -0.2653 -0.0120 -0.4472
  159HFI     F1 2389   2.832   1.217   0.527 -0.2212  0.0344 -0.5088
  159HFI     F2 2390   2.860   1.183   0.314  0.1880 -0.3383  0.0819
  159HFI     F3 2391   3.003   1.099   0.457  0.5970  0.0877 -0.3109
  159HFI     C3 2392   2.639   1.017   0.449 -0.3965 -0.0079  0.5999
  159HFI     F4 2393   2.597   1.073   0.331 -0.4533  0.3702 -0.0346
  159HFI     F5 2394   2.585   1.100   0.545 -0.1895  0.0148  0.1319
  159HFI     F6 2395   2.573   0.895   0.457  0.3565 -0.9566  0.0036
  159HFI     H1 2396   2.845   1.015   0.645 -3.3200  2.5611 -1.6781
  159HFI     H2 2397   2.827   0.930   0.376  0.8250  1.2654 -0.5083
  160HFI     O1 2398   2.435   0.610   0.795  0.8758 -0.0190 -0.1716
  160HFI     C1 2399   2.370   0.699   0.889 -0.3578 -0.2069  0.3247
  160HFI     C2 2400   2.263   0.613   0.965  0.2827 -0.2621 -0.5133
  160HFI     F1 2401   2.238   0.677   1.083 -0.3763 -0.0461 -0.1224
  160HFI     F2 2402   2.325   0.492   0.990  0.4767 -0.1595  0.2176
  160HFI     F3 2403   2.153   0.587   0.898  0.0225  0.0522 -0.6191
  160HFI     C3 2404   2.308   0.823   0.817 -0.7856  0.1506 -1.1295
  160HFI     F4 2405   2.229   0.895   0.904  0.0802  0.0629 -0.3609
  160HFI     F5 2406   2.227   0.777   0.720 -0.3459  0.2931  0.3975
  160HFI     F6 2407   2.403   0.904   0.764  0.0871 -0.1391  0.0295
  160HFI     H1 2408   2.384   0.590   0.714 -0.2831 -0.8244  0.7477
  160HFI     H2 2409   2.437   0.726   0.971 -0.2623  3.0449 -0.7572
  161HFI     O1 2410   2.358   2.728   2.446  0.0062 -0.4866 -0.4992
  161HFI     C1 2411   2.265   2.650   2.362 -0.6077  0.0964 -0.6136
  161HFI     C2 2412   2.350   2.540   2.283  0.3059 -0.2869  0.0241
  161HFI     F1 2413   2.274   2.473   2.194  0.5125 -0.3434  0.0048
  161HFI     F2 2414   2.393   2.448   2.370  0.3720 -0.2319  0.1977
  161HFI     F3 2415   2.458   2.596   2.223 -0.4384  0.4705 -0.1286
  161HFI     C3 2416   2.187   2.743   2.276  0.9443  0.8960 -0.3934
  161HFI     F4 2417   2.102   2.828   2.345 -0.8243  0.0117 -0.1635
  161HFI     F5 2418   2.099   2.679   2.197 -0.0115 -0.0693  0.1915
  161HFI     F6 2419   2.265   2.823   2.205  0.0716 -0.1276 -0.5268
  161HFI     H1 2420   2.400   2.668   2.510 -1.7269 -0.5028  0.6690
  161HFI     H2 2421   2.193   2.590   2.418  0.0567 -0.1613 -0.0203
  162HFI     O1 2422   2.070   1.985   2.240  0.4488  0.5196  0.6117
  162HFI     C1 2423   2.144   2.105   2.282  0.8575  0.0406  0.2077
  162HFI     C2 2424   2.287   2.078   2.323  0.2213  1.3555  0.6830
  162HFI     F1 2425   2.359   2.000   2.230  0.3135  0.6132 -0.1246
  162HFI     F2 2426   2.284   2.006   2.429 -0.0121 -0.2311 -0.0771
  162HFI     F3 2427   2.356   2.187   2.347  0.8272  0.0764  0.5002
  162HFI     C3 2428   2.063   2.201   2.379 -0.1483  0.0077  0.0289
  162HFI     F4 2429   1.949   2.248   2.323 -0.2443  0.1518 -0.2416
  162HFI     F5 2430   2.133   2.307   2.406 -0.2412 -0.3643 -0.1869
  162HFI     F6 2431   2.032   2.136   2.500  0.7651 -0.1040  0.4536
  162HFI     H1 2432   2.063   1.924   2.315 -0.1636  1.1663  1.0879
  162HFI     H2 2433   2.150   2.166   2.191  0.6878 -1.1923 -0.6380
  163HFI     O1 2434   0.905   0.407   3.643  0.1987  0.3932  0.0182
  163HFI     C1 2435   0.885   0.311   3.753 -0.1693  0.2223 -0.9337
  163HFI     C2 2436   0.996   0.210   3.787 -0.8441 -0.2690  0.1617
  163HFI     F1 2437   1.114   0.280   3.786  0.6840 -0.4897  0.1597
  163HFI     F2 2438   1.008   0.120   3.686  0.2200  0.2693  0.0610
  163HFI     F3 2439   0.988   0.147   3.911 -0.5657  0.6365  0.5202
  163HFI     C3 2440   0.744   0.246   3.744  0.5880 -0.1327  0.1280
  163HFI     F4 2441   0.655   0.341   3.707  0.5212 -0.5472  0.5406
  163HFI     F5 2442   0.704   0.196   3.862  0.5311  0.7638 -0.2683
  163HFI     F6 2443   0.733   0.152   3.651 -0.5489  0.0266 -0.0480
  163HFI     H1 2444   0.917   0.349   3.566 -0.5651 -1.9783  1.6025
  163HFI     H2 2445   0.875   0.364   3.848 -0.8338 -2.1456  0.3748
  164HFI     O1 2446   0.899   1.631   1.327  0.7864 -0.2646  0.0678
  164HFI     C1 2447   0.864   1.757   1.405 -0.3137  0.2479 -0.7113
  164HFI     C2 2448   0.838   1.723   1.553 -0.4787  0.4805 -0.1028
  164HFI     F1 2449   0.761   1.614   1.564  0.3694  0.1261  0.1067
  164HFI     F2 2450   0.779   1.824   1.619  0.3173 -0.1549 -0.0571
  164HFI     F3 2451   0.957   1.693   1.607  0.2592 -0.3297  0.2349
  164HFI     C3 2452   0.756   1.846   1.330  0.4797 -0.0594  0.3027
  164HFI     F4 2453   0.632   1.779   1.331  0.0272  0.2288 -0.1637
  164HFI     F5 2454   0.785   1.862   1.199  0.2962  0.1129 -0.1097
  164HFI     F6 2455   0.738   1.968   1.383  0.8407 -0.1160 -0.0847
  164HFI     H1 2456   0.956   1.576   1.384 -0.6948 -1.8778  0.0154
  164HFI     H2 2457   0.955   1.818   1.407  1.0970 -1.7982 -0.4485
  165HFI     O1 2458   1.698   3.358   2.979  0.4326 -0.0565 -0.9934
  165HFI     C1 2459   1.557   3.381   2.937 -0.2426  0.3619  0.5766
  165HFI     C2 2460   1.468   3.374   3.057 -0.1468 -0.4268 -0.7296
  165HFI     F1 2461   1.496   3.269   3.133  0.7699  0.0901  0.3809
  165HFI     F2 2462   1.340   3.366   3.021 -0.0595 -0.3187  0.1355
  165HFI     F3 2463   1.487   3.483   3.142 -0.0611  0.3249 -0.0497
  165HFI     C3 2464   1.529   3.281   2.826  0.1435  0.3443 -0.0654
  165HFI     F4 2465   1.515   3.161   2.873  0.2973  0.5932 -0.6218
  165HFI     F5 2466   1.624   3.279   2.732  0.1051  0.1295 -0.0453
  165HFI     F6 2467   1.421   3.310   2.755  0.0185  0.3028 -0.4992
  165HFI     H1 2468   1.757   3.426   2.943  1.0245 -0.2063 -0.3233
  165HFI     H2 2469   1.543   3.476   2.885  0.7440  2.3456  3.8382
  166HFI     O1 2470   1.241   2.412   2.722  0.1861 -0.5834  0.3197
  166HFI     C1 2471   1.135   2.428   2.826 -0.2256  0.1360  0.6732
  166HFI     C2 2472   1.187   2.508   2.949 -0.8694  0.1530 -0.6333
  166HFI     F1 2473   1.237   2.623   2.901  0.6249 -0.1581 -0.0498
  166HFI     F2 2474   1.288   2.450   3.022  0.1352  0.1527  0.2546
  166HFI     F3 2475   1.085   2.531   3.031 -0.0705 -0.5480 -0.4889
  166HFI     C3 2476   1.081   2.282   2.873 -0.2828 -0.5329 -0.2061
  166HFI     F4 2477   1.013   2.217   2.780 -0.0349  0.2576 -0.0013
  166HFI     F5 2478   1.007   2.284   2.982 -0.2770 -0.0177 -0.4055
  166HFI     F6 2479   1.184   2.201   2.901 -0.3750 -0.6387  0.1785
  166HFI     H1 2480   1.290   2.331   2.745  0.0863 -0.8339 -0.3467
  166HFI     H2 2481   1.051   2.484   2.782  0.5704 -0.3196 -1.4858
  167HFI     O1 2482   0.367   2.227   0.613 -0.2918  0.1368 -0.0683
  167HFI     C1 2483   0.431   2.114   0.536  0.0294 -0.9998 -0.3270
  167HFI     C2 2484   0.502   2.165   0.406 -0.4099  0.3515  0.3720
  167HFI     F1 2485   0.591   2.270   0.433 -0.1959 -0.6007  0.0512
  167HFI     F2 2486   0.418   2.200   0.303  0.1113 -0.7263  0.2173
  167HFI     F3 2487   0.588   2.071   0.352 -0.1787  0.5463 -0.5524
  167HFI     C3 2488   0.332   1.993   0.513 -0.1815 -0.9588 -0.6169
  167HFI     F4 2489   0.326   1.920   0.632  0.4516  0.1314 -0.4522
  167HFI     F5 2490   0.378   1.915   0.419 -0.6362 -0.2802 -0.4534
  167HFI     F6 2491   0.206   2.037   0.477  0.4451 -0.1880 -0.4854
  167HFI     H1 2492   0.295   2.259   0.556 -1.7985 -1.2475  0.9989
  167HFI     H2 2493   0.514   2.069   0.593  0.2882  1.1584  1.0851
  168HFI     O1 2494   1.543   0.859   2.879 -0.2823 -0.0839  0.6049
  168HFI     C1 2495   1.632   0.791   2.782  0.0368 -0.4425  0.6941
  168HFI     C2 2496   1.698   0.670   2.841 -0.3056  1.0189 -0.1122
  168HFI     F1 2497   1.781   0.702   2.945  0.0025 -0.1863 -0.0929
  168HFI     F2 2498   1.772   0.605   2.748  0.6771  0.0834 -0.4689
  168HFI     F3 2499   1.607   0.583   2.891  0.1117  0.0404  0.2085
  168HFI     C3 2500   1.732   0.887   2.697  0.3478  0.6175 -0.2550
  168HFI     F4 2501   1.856   0.892   2.751 -0.3181 -0.0061  0.2236
  168HFI     F5 2502   1.694   1.016   2.685  0.9376 -0.2584 -0.3717
  168HFI     F6 2503   1.744   0.831   2.571 -1.0732 -0.6038  0.2340
  168HFI     H1 2504   1.597   0.901   2.947  2.3639  0.9874 -2.0601
  168HFI     H2 2505   1.571   0.748   2.702 -0.3709  0.2020  0.6603
  169HFI     O1 2506   0.688   1.067   2.841  0.1180 -0.3395 -0.1153
  169HFI     C1 2507   0.671   0.961   2.939 -0.1430  0.1195 -1.1371
  169HFI     C2 2508   0.711   0.993   3.082  0.0962  0.1129  0.1756
  169HFI     F1 2509   0.651   0.909   3.168  0.2183 -0.5303  0.3305
  169HFI     F2 2510   0.687   1.123   3.114 -0.5326  0.1296  0.0019
  169HFI     F3 2511   0.845   0.981   3.089 -0.0721  0.0158  0.0204
  169HFI     C3 2512   0.729   0.821   2.892  0.9520  0.1367 -0.2367
  169HFI     F4 2513   0.678   0.793   2.771  0.2381 -0.8196 -0.3885
  169HFI     F5 2514   0.696   0.721   2.980 -0.3499  0.2965  0.1484
  169HFI     F6 2515   0.867   0.824   2.876  0.5417 -0.1243 -0.1899
  169HFI     H1 2516   0.754   1.042   2.774  0.7080 -0.4262  0.4886
  169HFI     H2 2517   0.562   0.947   2.946 -0.4269  2.3742 -0.6782
  170HFI     O1 2518   0.323   3.001   2.623 -0.5010  0.4065  0.5352
  170HFI     C1 2519   0.261   2.925   2.735  0.0711 -0.0656 -0.1625
  170HFI     C2 2520   0.264   2.773   2.711  0.2760  0.5307 -0.5102
  170HFI     F1 2521   0.177   2.723   2.625  0.0425 -0.2143  0.6700
  170HFI     F2 2522   0.257   2.706   2.826 -0.5958 -0.1720  0.2722
  170HFI     F3 2523   0.386   2.738   2.668 -0.3047  0.1762  0.0008
  170HFI     C3 2524   0.121   2.987   2.763  0.0604 -0.1875 -0.0936
  170HFI     F4 2525   0.137   3.112   2.804  0.2558  0.1877 -0.7088
  170HFI     F5 2526   0.054   2.926   2.859 -0.1098 -0.0238 -0.2676
  170HFI     F6 2527   0.040   2.990   2.652 -0.5165 -0.1167  0.0177
  170HFI     H1 2528   0.335   3.093   2.651  0.5160  0.3068  0.4388
  170HFI     H2 2529   0.330   2.935   2.820  0.0723  0.2116 -0.1961
  171HFI     O1 2530   2.721   1.594   2.792 -0.1216 -0.7007 -0.2233
  171HFI     C1 2531   2.678   1.716   2.722 -0.0977 -0.5386 -0.0623
  171HFI     C2 2532   2.771   1.840   2.748 -0.1379  0.0522 -0.1174
  171HFI     F1 2533   2.794   1.871   2.878 -0.1629 -0.3540 -0.7000
  171HFI     F2 2534   2.730   1.950   2.690  0.1986 -0.3933  0.8115
  171HFI     F3 2535   2.896   1.812   2.692 -0.2915 -0.2557  0.3180
  171HFI     C3 2536   2.530   1.747   2.746 -0.6215  0.1017 -0.8426
  171HFI     F4 2537   2.512   1.779   2.879  0.0578 -0.4354  0.5315
  171HFI     F5 2538   2.456   1.637   2.716 -0.5436  0.0704 -0.5115
  171HFI     F6 2539   2.479   1.846   2.668  0.3210  0.2103 -0.6636
  171HFI     H1 2540   2.680   1.592   2.880 -2.3979  2.1424 -1.1558
  171HFI     H2 2541   2.681   1.695   2.615 -1.4708  1.0283 -0.4329
  172HFI     O1 2542   2.328   3.074   2.476  0.4235  0.2042  0.0711
  172HFI     C1 2543   2.438   3.070   2.384 -0.7847 -0.5057 -0.2020
  172HFI     C2 2544   2.574   3.048   2.467  0.7966  0.4227 -0.8652
  172HFI     F1 2545   2.679   3.031   2.379  0.1796  0.0991 -0.3751
  172HFI     F2 2546   2.557   2.934   2.538 -0.6931 -0.1301 -0.1953
  172HFI     F3 2547   2.599   3.143   2.562 -0.2792 -0.1795  0.5005
  172HFI     C3 2548   2.453   3.198   2.298 -0.0153 -0.1860  0.5943
  172HFI     F4 2549   2.348   3.200   2.207 -0.0487  0.3745  0.1685
  172HFI     F5 2550   2.569   3.201   2.221 -0.2755 -0.0772  0.4807
  172HFI     F6 2551   2.446   3.308   2.368 -0.8326  0.1014  0.4015
  172HFI     H1 2552   2.329   2.987   2.519  0.1784  0.1738  0.0154
  172HFI     H2 2553   2.424   2.990   2.310  1.9097  0.3131 -1.6725
  173HFI     O1 2554   0.218   1.416   1.545  0.1900  0.2471 -0.2485
  173HFI     C1 2555   0.324   1.412   1.446  0.2184 -0.0422 -0.1353
  173HFI     C2 2556   0.350   1.268   1.409  0.3086 -0.2251  0.1068
  173HFI     F1 2557   0.467   1.262   1.334  0.1446  0.2768 -0.0889
  173HFI     F2 2558   0.257   1.210   1.326 -0.3725  0.0717 -0.2470
  173HFI     F3 2559   0.372   1.196   1.522  0.4471 -0.0600  0.2852
  173HFI     C3 2560   0.448   1.493   1.491  1.1979  0.0546  0.2853
  173HFI     F4 2561   0.503   1.450   1.607 -0.0050  0.2695 -0.0367
  173HFI     F5 2562   0.403   1.620   1.497  0.0896 -0.1009 -0.0036
  173HFI     F6 2563   0.548   1.494   1.404  0.5717 -0.3257 -0.1446
  173HFI     H1 2564   0.246   1.375   1.629 -0.8329 -0.3063 -0.1596
  173HFI     H2 2565   0.292   1.462   1.354 -2.5902 -0.2958  0.6778
  174HFI     O1 2566   3.357   2.972   2.368 -0.2534 -0.0081  0.0741
  174HFI     C1 2567   3.361   3.090   2.286  0.1027 -0.6907  0.1229
  174HFI     C2 2568   3.503   3.145   2.302 -0.3353  0.4223 -0.4691
  174HFI     F1 2569   3.528   3.176   2.429  0.3455  0.0690  0.3295
  174HFI     F2 2570   3.522   3.259   2.239  0.0173 -0.0826 -0.1151
  174HFI     F3 2571   3.593   3.057   2.261 -0.0897  0.3074  0.8552
  174HFI     C3 2572   3.240   3.190   2.315  0.1547  0.2689 -0.3233
  174HFI     F4 2573   3.243   3.231   2.441 -0.1725 -0.8174 -0.1253
  174HFI     F5 2574   3.122   3.120   2.299  0.2151  0.1692 -0.6718
  174HFI     F6 2575   3.242   3.297   2.227  0.2362 -0.8096  0.6084
  174HFI     H1 2576   3.374   3.005   2.458  2.4827  0.2537 -0.4912
  174HFI     H2 2577   3.353   3.052   2.184  3.2082 -0.3932 -0.2616
  175HFI     O1 2578   0.164   0.387   2.511 -0.4348 -0.4173  0.1917
  175HFI     C1 2579   0.242   0.364   2.387  1.2727  0.0342  0.0473
  175HFI     C2 2580   0.249   0.482   2.293  0.1514 -0.5296 -0.3850
  175HFI     F1 2581   0.142   0.495   2.214 -0.0128 -0.2827  0.1787
  175HFI     F2 2582   0.356   0.471   2.209  0.7828  0.1713  0.0720
  175HFI     F3 2583   0.258   0.597   2.366 -0.0254 -0.3889  0.2516
  175HFI     C3 2584   0.184   0.237   2.307  0.3660  0.4689  0.0805
  175HFI     F4 2585   0.265   0.207   2.209 -0.0551 -0.3973 -0.6377
  175HFI     F5 2586   0.058   0.247   2.260 -0.0728 -0.6214  0.3763
  175HFI     F6 2587   0.192   0.133   2.393  0.1150  0.2101 -0.1135
  175HFI     H1 2588   0.074   0.394   2.477 -0.0095 -0.6684 -1.0030
  175HFI     H2 2589   0.347   0.338   2.407  1.1960 -0.2328  0.1100
  176HFI     O1 2590   2.676   0.736   2.723 -0.4433 -0.4181 -0.0359
  176HFI     C1 2591   2.757   0.807   2.818 -0.1070 -0.3562  0.3585
  176HFI     C2 2592   2.678   0.909   2.907 -0.2636  0.2356  0.9790
  176HFI     F1 2593   2.744   0.940   3.017  0.3080 -0.6828  0.7409
  176HFI     F2 2594   2.565   0.859   2.937 -0.0610  0.0863 -0.1506
  176HFI     F3 2595   2.652   1.022   2.832  0.0862  0.2187 -0.2810
  176HFI     C3 2596   2.891   0.855   2.758 -0.6990 -0.5114 -0.3931
  176HFI     F4 2597   2.972   0.753   2.721 -0.4310 -0.2276 -0.2638
  176HFI     F5 2598   2.959   0.931   2.849  0.1370  0.3622  0.0842
  176HFI     F6 2599   2.868   0.937   2.650 -0.1887 -0.0138 -0.1961
  176HFI     H1 2600   2.665   0.789   2.642 -2.0028 -3.2164 -1.7207
  176HFI     H2 2601   2.798   0.735   2.889  1.0647  0.2229  0.2710
  177HFI     O1 2602   0.673   3.009   2.214 -0.1551  0.6076  0.3790
  177HFI     C1 2603   0.682   2.908   2.321  0.4092  0.7423  0.9983
  177HFI     C2 2604   0.801   2.809   2.303  0.3098  0.4856 -0.6175
  177HFI     F1 2605   0.806   2.713   2.400 -0.0452  0.4047  0.3621
  177HFI     F2 2606   0.910   2.890   2.309 -0.0917 -0.0260 -0.0668
  177HFI     F3 2607   0.806   2.749   2.185  0.3033 -0.5043  0.0927
  177HFI     C3 2608   0.545   2.829   2.320  0.4355  0.2779  0.7183
  177HFI     F4 2609   0.538   2.735   2.417 -0.1707 -0.4674 -0.7491
  177HFI     F5 2610   0.529   2.755   2.209 -0.3560  0.4592 -0.2816
  177HFI     F6 2611   0.445   2.926   2.328 -0.7434  0.1407  0.1352
  177HFI     H1 2612   0.723   2.979   2.136 -0.3464 -1.4897  1.0440
  177HFI     H2 2613   0.690   2.951   2.422  2.3961  2.8197 -0.0178
  178HFI     O1 2614   0.953   1.081   0.722  0.2256  0.2772 -0.3687
  178HFI     C1 2615   0.829   1.093   0.654 -0.4438  0.3383 -0.0685
  178HFI     C2 2616   0.842   1.049   0.507  0.3916  0.0550 -0.1026
  178HFI     F1 2617   0.897   0.923   0.505 -0.0336  0.6978 -0.5439
  178HFI     F2 2618   0.930   1.130   0.434  0.4403  0.4639 -0.2949
  178HFI     F3 2619   0.725   1.043   0.445  0.2287 -0.2838  0.3211
  178HFI     C3 2620   0.779   1.239   0.662  0.5035 -0.4484 -0.3193
  178HFI     F4 2621   0.871   1.334   0.654 -0.1455 -0.5496 -0.0372
  178HFI     F5 2622   0.710   1.260   0.769  0.1427  0.3927 -0.5063
  178HFI     F6 2623   0.697   1.268   0.560  0.3633 -0.1051  0.4682
  178HFI     H1 2624   1.005   1.009   0.682 -2.9151 -1.9372 -0.6719
  178HFI     H2 2625   0.757   1.025   0.700 -0.5223 -0.6415 -1.5745
  179HFI     O1 2626   1.596   1.130   0.202  0.5995  0.8181 -0.5672
  179HFI     C1 2627   1.615   1.051   0.082  0.1915  0.2995 -0.2711
  179HFI     C2 2628   1.582   0.905   0.118 -0.0764  0.1550 -0.1902
  179HFI     F1 2629   1.603   0.821   0.010 -0.1044  0.0810 -0.1375
  179HFI     F2 2630   1.458   0.899   0.150  0.2037  0.5011 -0.7356
  179HFI     F3 2631   1.654   0.865   0.229  0.1520  0.6541  0.4381
  179HFI     C3 2632   1.750   1.068   0.013  0.4110 -0.1789  0.0676
  179HFI     F4 2633   1.752   1.017  -0.109 -0.0519 -0.2922  0.3165
  179HFI     F5 2634   1.849   1.013   0.082 -0.2260  0.5929 -0.3526
  179HFI     F6 2635   1.785   1.199  -0.005 -0.3272 -0.1608 -0.0675
  179HFI     H1 2636   1.522   1.085   0.245 -0.6902  3.5814  0.2174
  179HFI     H2 2637   1.541   1.075   0.004  2.0344  2.0456 -1.5271
  180HFI     O1 2638   3.131   0.449   1.438 -0.1638 -0.0699  0.2167
  180HFI     C1 2639   3.067   0.574   1.388  0.3532  0.8312  0.1162
  180HFI     C2 2640   2.984   0.640   1.500  0.1525  0.4489 -0.3694
  180HFI     F1 2641   3.056   0.671   1.608 -0.5659 -0.1919  0.3847
  180HFI     F2 2642   2.884   0.557   1.544 -0.2710  0.1169 -0.4418
  180HFI     F3 2643   2.932   0.751   1.452 -0.0797  0.1247 -0.6132
  180HFI     C3 2644   2.977   0.553   1.262 -0.0730 -0.0896  0.2721
  180HFI     F4 2645   2.934   0.674   1.205  0.1328  0.3625 -0.2336
  180HFI     F5 2646   2.873   0.467   1.290 -0.0629 -0.5461 -0.1846
  180HFI     F6 2647   3.056   0.502   1.170  0.1682 -0.6125 -0.0704
  180HFI     H1 2648   3.075   0.381   1.478  0.0054 -0.1377  0.3405
  180HFI     H2 2649   3.146   0.649   1.373  0.6586  0.0822 -2.3567
  181HFI     O1 2650   0.498   0.021   2.933 -0.4579 -0.3897 -0.1479
  181HFI     C1 2651   0.563  -0.099   2.975  0.0459 -0.1673 -0.6534
  181HFI     C2 2652   0.687  -0.137   2.885 -0.7132  0.2988 -0.3171
  181HFI     F1 2653   0.650  -0.201   2.771  0.3472 -0.0012 -0.0995
  181HFI     F2 2654   0.773  -0.222   2.950 -0.6920 -0.1021  0.3018
  181HFI     F3 2655   0.754  -0.024   2.848 -0.7898  0.1020  0.1006
  181HFI     C3 2656   0.468  -0.212   3.008 -0.3552 -0.4279 -0.3458
  181HFI     F4 2657   0.404  -0.258   2.898 -0.3062  0.7467 -0.2919
  181HFI     F5 2658   0.376  -0.168   3.101 -0.2989  0.1075  0.0939
  181HFI     F6 2659   0.539  -0.310   3.068 -0.3219  0.1466 -0.0334
  181HFI     H1 2660   0.402   0.006   2.926 -0.4552  0.3926 -2.5290
  181HFI     H2 2661   0.625  -0.087   3.065 -0.5843  0.5470 -0.3060
  182HFI     O1 2662   3.160   1.126   0.111  0.4076  0.5176  0.0715
  182HFI     C1 2663   3.295   1.075   0.119  0.3648 -0.3204  0.7145
  182HFI     C2 2664   3.342   1.015  -0.011  0.0633  0.8596 -0.2028
  182HFI     F1 2665   3.276   0.899  -0.048 -0.2402 -0.2186 -0.3012
  182HFI     F2 2666   3.477   0.985  -0.006 -0.5265 -0.3114 -0.5542
  182HFI     F3 2667   3.318   1.109  -0.110 -0.5252 -0.0451  0.3140
  182HFI     C3 2668   3.305   0.982   0.241 -0.5463 -0.2906 -0.2700
  182HFI     F4 2669   3.257   1.041   0.351  0.2041 -0.0917  0.4785
  182HFI     F5 2670   3.429   0.951   0.268  0.0076 -0.0500 -0.1578
  182HFI     F6 2671   3.228   0.873   0.218 -0.5407 -0.2438 -0.0393
  182HFI     H1 2672   3.109   1.053   0.070  2.3398 -0.7234 -0.2101
  182HFI     H2 2673   3.364   1.155   0.148 -0.9619  1.1150 -0.0850
  183HFI     O1 2674   3.395   0.264   0.878  0.3650 -0.2354 -0.3667
  183HFI     C1 2675   3.258   0.218   0.866  0.1151 -0.2449 -0.1813
  183HFI     C2 2676   3.211   0.160   1.003  0.8651  0.4351  0.1885
  183HFI     F1 2677   3.075   0.181   1.020 -0.5108 -0.0105 -0.8133
  183HFI     F2 2678   3.272   0.224   1.102 -0.2627 -0.3637  0.2941
  183HFI     F3 2679   3.234   0.026   1.023  0.2868 -0.6654 -0.1591
  183HFI     C3 2680   3.233   0.122   0.745  0.1981  0.1227 -0.6598
  183HFI     F4 2681   3.100   0.097   0.739  0.3886 -0.2583 -0.0926
  183HFI     F5 2682   3.304   0.004   0.753 -0.2348 -0.0536 -0.1102
  183HFI     F6 2683   3.265   0.194   0.633 -0.1397 -0.8028 -0.4629
  183HFI     H1 2684   3.404   0.316   0.960  0.4467 -0.5360 -0.1859
  183HFI     H2 2685   3.185   0.299   0.849  1.2645  0.6530 -0.9150
  184HFI     O1 2686   1.095   2.816   2.690 -0.6632 -0.6593  0.1837
  184HFI     C1 2687   1.121   2.913   2.789  0.2317  0.1399 -1.0137
  184HFI     C2 2688   1.005   2.940   2.889 -1.0897 -0.3868  0.0873
  184HFI     F1 2689   0.967   2.822   2.953  0.5687 -0.7567  0.3549
  184HFI     F2 2690   0.902   2.998   2.820  0.0643  0.5084 -0.3600
  184HFI     F3 2691   1.041   3.027   2.987  0.3750 -0.3224  0.3422
  184HFI     C3 2692   1.175   3.055   2.734  0.4684  0.8897 -0.4431
  184HFI     F4 2693   1.191   3.145   2.828 -0.0812 -0.2223  0.0694
  184HFI     F5 2694   1.087   3.105   2.644 -0.3444  0.0241 -0.2872
  184HFI     F6 2695   1.285   3.038   2.664 -0.2687  0.2415 -0.1010
  184HFI     H1 2696   1.163   2.827   2.622  0.5477 -0.2605  1.4390
  184HFI     H2 2697   1.198   2.879   2.859 -1.5244  1.2806  1.5354
  185HFI     O1 2698   3.227   0.971   2.479 -0.0923 -0.3731 -0.1399
  185HFI     C1 2699   3.172   1.086   2.394  0.2316  0.6089 -0.1497
  185HFI     C2 2700   3.079   1.037   2.284 -0.3955 -0.0784 -0.0673
  185HFI     F1 2701   2.963   0.992   2.344  0.6480 -0.4462  0.0661
  185HFI     F2 2702   3.131   0.932   2.209 -0.3534  0.1529  0.3484
  185HFI     F3 2703   3.046   1.133   2.197 -0.3773 -0.0801  0.0330
  185HFI     C3 2704   3.291   1.175   2.339 -0.3376  0.1588 -0.3972
  185HFI     F4 2705   3.364   1.107   2.248  0.6289  0.6126  0.2660
  185HFI     F5 2706   3.372   1.213   2.442 -0.0647  0.0377 -0.0125
  185HFI     F6 2707   3.240   1.290   2.286  0.2461  0.5660  1.0035
  185HFI     H1 2708   3.276   1.015   2.550  0.5466 -0.3837 -0.5693
  185HFI     H2 2709   3.112   1.155   2.454 -0.8663 -0.1114 -0.3947
  186HFI     O1 2710   0.670   1.410   2.292  0.0842 -0.3472 -0.2276
  186HFI     C1 2711   0.717   1.546   2.267 -0.6162  0.6073  0.4156
  186HFI     C2 2712   0.847   1.586   2.353 -0.8970 -0.3081 -0.1714
  186HFI     F1 2713   0.914   1.695   2.303  0.5288 -0.1168 -0.9893
  186HFI     F2 2714   0.939   1.480   2.363  0.2121  0.1658 -0.7986
  186HFI     F3 2715   0.805   1.615   2.483  0.3224 -0.7965 -0.0566
  186HFI     C3 2716   0.598   1.649   2.287  0.5048 -0.2896  0.1329
  186HFI     F4 2717   0.642   1.779   2.285  0.4219  0.3426 -0.2805
  186HFI     F5 2718   0.529   1.631   2.408 -0.3810  0.0169  0.4740
  186HFI     F6 2719   0.513   1.640   2.189 -0.2085  0.4520  0.1614
  186HFI     H1 2720   0.575   1.421   2.308 -0.1650 -1.8972 -0.5837
  186HFI     H2 2721   0.759   1.547   2.166  0.1843  0.0722  0.7405
  187HFI     O1 2722   0.951   1.773   2.720  0.3338 -0.1536  0.0172
  187HFI     C1 2723   0.867   1.885   2.763  0.4695 -0.4294  0.2182
  187HFI     C2 2724   0.772   1.857   2.890  0.5508 -0.7763 -0.2728
  187HFI     F1 2725   0.837   1.853   3.014 -0.2812  0.0735  0.6900
  187HFI     F2 2726   0.715   1.733   2.877 -0.2262 -0.0780 -0.6091
  187HFI     F3 2727   0.681   1.952   2.896 -0.1674  0.0518 -0.0480
  187HFI     C3 2728   0.798   1.944   2.643 -0.2540  0.2986 -0.3085
  187HFI     F4 2729   0.688   1.870   2.606 -0.2516 -0.1006 -0.0866
  187HFI     F5 2730   0.875   1.940   2.530 -0.3255  0.2000 -0.2993
  187HFI     F6 2731   0.765   2.072   2.669 -0.0028  0.0476 -0.1338
  187HFI     H1 2732   0.906   1.718   2.654  0.3261 -2.7968  2.1351
  187HFI     H2 2733   0.939   1.958   2.801 -0.0990 -0.0772  0.6126
  188HFI     O1 2734   2.030   0.680   2.527 -0.3006 -0.0752  0.1722
  188HFI     C1 2735   2.045   0.626   2.385  0.0332  0.6531  0.3609
  188HFI     C2 2736   2.151   0.701   2.300 -0.2017  0.1773  0.4423
  188HFI     F1 2737   2.117   0.822   2.257 -0.5262  0.0567  0.3634
  188HFI     F2 2738   2.179   0.623   2.190 -0.1511  0.1111 -0.4995
  188HFI     F3 2739   2.267   0.719   2.361  0.0009  0.3592  0.4937
  188HFI     C3 2740   1.905   0.620   2.318  0.5458 -0.1556 -0.5286
  188HFI     F4 2741   1.899   0.550   2.201  0.0291  0.1708 -0.0779
  188HFI     F5 2742   1.854   0.740   2.292 -0.0714  0.2083  0.1684
  188HFI     F6 2743   1.822   0.555   2.407  0.4809 -0.3640 -0.2818
  188HFI     H1 2744   2.014   0.776   2.523  0.4590  0.1767  2.2460
  188HFI     H2 2745   2.079   0.522   2.382 -1.5948  0.1423 -2.2182
  189HFI     O1 2746   2.714   2.382   0.884  0.3576  0.3717  0.0117
  189HFI     C1 2747   2.748   2.241   0.903  0.1356  0.0937  0.0364
  189HFI     C2 2748   2.809   2.168   0.775 -0.0443  0.6445 -0.0226
  189HFI     F1 2749   2.846   2.043   0.801  0.0291  0.0175  0.0813
  189HFI     F2 2750   2.920   2.236   0.731 -0.3954  0.1158  0.0400
  189HFI     F3 2751   2.716   2.166   0.676  0.4349 -0.2441  0.7800
  189HFI     C3 2752   2.633   2.160   0.963  0.4962  0.3212  0.3945
  189HFI     F4 2753   2.610   2.211   1.083  0.2966  0.1364  0.0126
  189HFI     F5 2754   2.656   2.032   0.975 -0.3007  0.1911 -0.1219
  189HFI     F6 2755   2.514   2.185   0.901  0.2085 -0.3580  0.3888
  189HFI     H1 2756   2.622   2.399   0.911  1.0319  0.4955  2.3589
  189HFI     H2 2757   2.837   2.242   0.966  1.1411  1.1519 -1.3673
  190HFI     O1 2758   2.315   2.676   3.529 -0.4471 -0.0577  0.2502
  190HFI     C1 2759   2.393   2.567   3.580  0.1571  0.3501 -0.8825
  190HFI     C2 2760   2.379   2.442   3.493 -0.3337  0.3803  0.2480
  190HFI     F1 2761   2.261   2.376   3.507  0.0780  0.0165  0.4828
  190HFI     F2 2762   2.476   2.349   3.512 -0.4770 -0.3400 -0.2368
  190HFI     F3 2763   2.384   2.487   3.365 -0.2820 -0.7541  0.2545
  190HFI     C3 2764   2.364   2.540   3.723 -0.6009  0.6367 -0.4338
  190HFI     F4 2765   2.409   2.648   3.795 -0.4742 -0.2017  0.3761
  190HFI     F5 2766   2.430   2.434   3.771 -0.1540  0.1355  0.4926
  190HFI     F6 2767   2.232   2.528   3.750  0.1480 -0.3582  0.3720
  190HFI     H1 2768   2.224   2.677   3.562 -0.3441  1.0556  0.5163
  190HFI     H2 2769   2.501   2.587   3.581  0.3200 -0.5296  1.9443
  191HFI     O1 2770   3.352   1.324   0.964  0.1449  0.2421 -0.3169
  191HFI     C1 2771   3.241   1.233   0.954  0.0222 -0.5760  0.5263
  191HFI     C2 2772   3.276   1.107   0.867 -0.6974 -0.0745 -1.1752
  191HFI     F1 2773   3.288   1.141   0.734  0.1857  0.3379  0.4603
  191HFI     F2 2774   3.181   1.010   0.880 -0.1936  0.2567  0.2041
  191HFI     F3 2775   3.391   1.058   0.909  0.0761 -0.2282 -0.0981
  191HFI     C3 2776   3.117   1.314   0.911 -0.4857 -0.0951 -0.3283
  191HFI     F4 2777   3.087   1.405   1.004  0.2832 -0.2642 -0.1197
  191HFI     F5 2778   3.010   1.240   0.888  0.2744  0.3241  0.6006
  191HFI     F6 2779   3.131   1.388   0.801  0.3991  0.9159  0.4444
  191HFI     H1 2780   3.347   1.391   0.893  0.5079  1.1082  0.4699
  191HFI     H2 2781   3.204   1.196   1.050  1.0288 -1.2388  0.6647
  192HFI     O1 2782   0.054   0.440   1.308  0.2609  0.3114  0.2189
  192HFI     C1 2783   0.155   0.472   1.410  0.5736  0.5441 -0.3856
  192HFI     C2 2784   0.182   0.355   1.514  0.8244 -0.1138  0.4417
  192HFI     F1 2785   0.298   0.381   1.576 -0.5188 -0.3389 -0.2371
  192HFI     F2 2786   0.198   0.239   1.450  0.5682 -0.4462  0.0439
  192HFI     F3 2787   0.081   0.343   1.604 -0.0102  0.0098  0.4147
  192HFI     C3 2788   0.133   0.611   1.471 -0.4274 -0.1778  0.7741
  192HFI     F4 2789   0.007   0.621   1.512 -0.4776  0.2710  0.2254
  192HFI     F5 2790   0.149   0.698   1.375  0.0167  0.3470 -0.1913
  192HFI     F6 2791   0.224   0.648   1.564 -0.7225  0.6113 -0.1361
  192HFI     H1 2792   0.032   0.346   1.316 -2.0541  0.9551  1.7035
  192HFI     H2 2793   0.249   0.481   1.354 -1.1226  3.6706 -2.9079
  193HFI     O1 2794   3.190   1.552   2.692 -0.2420 -0.1428 -0.1084
  193HFI     C1 2795   3.281   1.649   2.747  0.2839 -0.0798  0.2069
  193HFI     C2 2796   3.425   1.605   2.757 -0.0035 -0.1005  0.2369
  193HFI     F1 2797   3.464   1.545   2.870 -0.0368 -0.1825 -0.3257
  193HFI     F2 2798   3.504   1.712   2.731  0.5059 -0.0701  0.1548
  193HFI     F3 2799   3.446   1.514   2.653  0.0315 -0.1219  0.0866
  193HFI     C3 2800   3.226   1.708   2.881 -0.6568  0.6247  0.0230
  193HFI     F4 2801   3.109   1.775   2.861 -0.0319 -0.0454 -0.2263
  193HFI     F5 2802   3.318   1.791   2.929  0.1698  0.2777  0.5862
  193HFI     F6 2803   3.206   1.609   2.978  0.3276 -0.0321 -0.4625
  193HFI     H1 2804   3.197   1.476   2.752  0.6373  0.1999  0.2408
  193HFI     H2 2805   3.282   1.732   2.675  1.8409  0.3809  0.7288
  194HFI     O1 2806   3.106   0.014   0.210 -0.0859  0.0480  0.3280
  194HFI     C1 2807   3.207   0.018   0.318  0.3209 -0.5197 -0.1373
  194HFI     C2 2808   3.324   0.100   0.260  0.8527  0.1291 -0.0825
  194HFI     F1 2809   3.277   0.219   0.215  0.0714  0.2426 -0.4051
  194HFI     F2 2810   3.365   0.029   0.157  0.2519  0.6850 -0.0375
  194HFI     F3 2811   3.418   0.123   0.343  0.2094 -0.5259 -0.2556
  194HFI     C3 2812   3.254  -0.115   0.379 -0.6432 -0.2418  0.0258
  194HFI     F4 2813   3.322  -0.082   0.490 -0.3335 -0.0395  0.3213
  194HFI     F5 2814   3.335  -0.188   0.300 -0.2994  0.4243  0.0074
  194HFI     F6 2815   3.151  -0.191   0.419 -0.3433 -0.2072 -0.0425
  194HFI     H1 2816   3.051  -0.065   0.208  1.1396 -0.7985 -1.0861
  194HFI     H2 2817   3.175   0.079   0.403  1.9593  1.3504 -0.8205
  195HFI     O1 2818   1.937   0.824   0.771 -0.0119 -0.1431  0.0784
  195HFI     C1 2819   1.854   0.757   0.676 -0.1011 -0.0563 -0.1729
  195HFI     C2 2820   1.707   0.749   0.736 -0.7531  0.4025  0.0948
  195HFI     F1 2821   1.605   0.694   0.663  0.3742 -0.2782 -0.4122
  195HFI     F2 2822   1.666   0.872   0.757 -0.3876  0.0846 -0.4890
  195HFI     F3 2823   1.701   0.697   0.860 -0.0055  0.3634 -0.5990
  195HFI     C3 2824   1.902   0.616   0.648 -0.4821 -0.1365  0.3138
  195HFI     F4 2825   1.917   0.542   0.763  0.2335  0.0478  0.4325
  195HFI     F5 2826   2.027   0.624   0.586 -0.0906  0.2532 -0.0699
  195HFI     F6 2827   1.812   0.556   0.562 -0.6371 -0.2060  0.0281
  195HFI     H1 2828   1.886   0.866   0.842 -2.8709 -0.7447 -1.5415
  195HFI     H2 2829   1.843   0.811   0.581  1.0410 -0.7653 -0.7264
  196HFI     O1 2830   3.021   1.394   2.492 -0.3619  0.6185  0.5588
  196HFI     C1 2831   2.955   1.444   2.370  0.2600  0.4442  1.1322
  196HFI     C2 2832   2.970   1.598   2.346  0.2556  0.4266 -0.1092
  196HFI     F1 2833   2.909   1.677   2.446  0.4578 -0.3250 -0.2192
  196HFI     F2 2834   2.913   1.628   2.223 -0.0278  0.3508 -0.4425
  196HFI     F3 2835   3.103   1.622   2.352  0.0496 -0.0132 -0.0333
  196HFI     C3 2836   2.810   1.385   2.363 -0.3365  0.7331 -0.0111
  196HFI     F4 2837   2.743   1.435   2.254  0.1651  0.3337  0.0050
  196HFI     F5 2838   2.738   1.421   2.467 -0.4896 -0.5004  0.1377
  196HFI     F6 2839   2.806   1.251   2.358 -0.6798  0.2464 -0.0755
  196HFI     H1 2840   3.023   1.474   2.547 -1.5078  0.3319  1.0265
  196HFI     H2 2841   3.012   1.416   2.281 -0.2921  1.4239  0.4503
  197HFI     O1 2842   3.104   2.827   2.487 -0.0224  0.4837 -0.2098
  197HFI     C1 2843   2.966   2.831   2.420 -0.8295 -0.3658  0.0640
  197HFI     C2 2844   2.861   2.735   2.484  0.2881  0.7487 -0.2266
  197HFI     F1 2845   2.743   2.734   2.428 -0.0960  0.5787 -0.4500
  197HFI     F2 2846   2.846   2.778   2.609 -0.0010  0.2356 -0.2270
  197HFI     F3 2847   2.903   2.606   2.481  0.0822 -0.0956  0.3521
  197HFI     C3 2848   2.970   2.802   2.265  0.4386  0.3148 -0.2135
  197HFI     F4 2849   2.855   2.841   2.204 -0.1852  0.5884 -0.1797
  197HFI     F5 2850   2.991   2.673   2.236  0.3503  0.2726  0.3970
  197HFI     F6 2851   3.068   2.868   2.195 -0.0043 -0.3434  0.3096
  197HFI     H1 2852   3.157   2.751   2.459 -3.3941 -2.2137  0.3652
  197HFI     H2 2853   2.927   2.933   2.429 -2.9484 -1.2703  1.3758
  198HFI     O1 2854   2.568   2.032   3.519  0.1118  0.2987  0.2498
  198HFI     C1 2855   2.670   1.927   3.513  0.4478 -0.5016 -0.1215
  198HFI     C2 2856   2.626   1.810   3.412  0.0983  0.5887  0.2084
  198HFI     F1 2857   2.520   1.736   3.459 -0.1823 -1.0005  0.3846
  198HFI     F2 2858   2.743   1.738   3.385 -0.1017 -0.0087  0.0046
  198HFI     F3 2859   2.589   1.865   3.298 -0.3684  0.6950 -0.2242
  198HFI     C3 2860   2.698   1.871   3.656 -0.2322 -0.0984  0.1098
  198HFI     F4 2861   2.701   1.976   3.736  0.6968  0.0933  0.0534
  198HFI     F5 2862   2.822   1.822   3.663  0.0764 -0.0455 -0.3618
  198HFI     F6 2863   2.622   1.774   3.712 -0.2707  0.0331  0.1853
  198HFI     H1 2864   2.553   2.056   3.612  0.9893  3.0718 -0.2820
  198HFI     H2 2865   2.763   1.966   3.472  0.2271  0.1771  0.0242
  199HFI     O1 2866   2.933   1.821   1.268 -0.5707 -0.2790  0.0484
  199HFI     C1 2867   2.937   1.919   1.381 -0.5174  0.0139  0.3150
  199HFI     C2 2868   2.944   1.861   1.527 -0.6912  0.1224  0.5563
  199HFI     F1 2869   2.972   1.951   1.624  0.6212 -0.2273 -0.4752
  199HFI     F2 2870   3.050   1.774   1.532 -0.0300  0.3850 -0.4617
  199HFI     F3 2871   2.836   1.793   1.559 -0.2166  0.0724  0.5672
  199HFI     C3 2872   2.830   2.030   1.358 -1.0810 -0.5365 -0.4321
  199HFI     F4 2873   2.863   2.110   1.258 -0.3788  0.4505 -0.0942
  199HFI     F5 2874   2.826   2.110   1.466 -0.0786 -0.0412  0.1096
  199HFI     F6 2875   2.708   1.974   1.338  0.0212 -0.3674 -0.5158
  199HFI     H1 2876   2.876   1.744   1.284 -1.4629  0.6654  1.5124
  199HFI     H2 2877   3.029   1.978   1.374 -1.3378  1.2932  0.0676
  200HFI     O1 2878   1.827   1.370   3.545  0.6351  0.1289  0.1499
  200HFI     C1 2879   1.950   1.441   3.568  0.3463 -0.4682 -0.0310
  200HFI     C2 2880   1.943   1.577   3.495  0.3090  0.3813 -0.3646
  200HFI     F1 2881   1.820   1.629   3.500  0.5060 -0.0730  0.1395
  200HFI     F2 2882   1.972   1.567   3.362  0.0674  0.1314  0.0918
  200HFI     F3 2883   2.031   1.669   3.550 -0.1290  0.4625 -0.5005
  200HFI     C3 2884   2.065   1.357   3.526 -0.1472 -0.2052  0.2520
  200HFI     F4 2885   2.053   1.302   3.404  0.2050 -0.1752 -0.8231
  200HFI     F5 2886   2.065   1.248   3.611 -0.4832 -0.7332  0.5415
  200HFI     F6 2887   2.185   1.411   3.546 -0.6123  0.1387  0.3172
  200HFI     H1 2888   1.840   1.283   3.588 -2.0090  1.0169  2.9250
  200HFI     H2 2889   1.952   1.470   3.673  0.7122 -1.4302  0.2337
  201HFI     O1 2890   3.224   1.420   0.114 -0.2954  0.5938 -0.0455
  201HFI     C1 2891   3.132   1.536   0.083 -0.4195 -0.1124  0.4774
  201HFI     C2 2892   2.983   1.486   0.063  0.9149  0.2340 -0.1811
  201HFI     F1 2893   2.897   1.571   0.007  0.3445  0.1622  0.7134
  201HFI     F2 2894   2.921   1.447   0.180 -0.1369  0.5887 -0.1498
  201HFI     F3 2895   2.981   1.381  -0.023  0.5960 -0.0351  0.6614
  201HFI     C3 2896   3.179   1.614  -0.048 -0.6460 -0.2803  0.1401
  201HFI     F4 2897   3.171   1.546  -0.169  0.0087  0.4234 -0.1576
  201HFI     F5 2898   3.310   1.639  -0.029 -0.1273 -0.7004 -0.4845
  201HFI     F6 2899   3.116   1.733  -0.057 -0.5684  0.3852 -0.0495
  201HFI     H1 2900   3.177   1.338   0.091  0.3065  0.2831 -0.2007
  201HFI     H2 2901   3.125   1.609   0.164 -0.7617 -1.3018  1.5485
  202HFI     O1 2902   0.651   0.067   0.438 -0.0524 -0.2453  0.0758
  202HFI     C1 2903   0.777   0.011   0.488 -0.9867  0.1431  0.7868
  202HFI     C2 2904   0.785  -0.119   0.420 -0.4798  0.3125 -0.3960
  202HFI     F1 2905   0.878  -0.209   0.472 -0.4736 -0.4114  0.2458
  202HFI     F2 2906   0.822  -0.100   0.294 -0.1191  0.9120  0.1346
  202HFI     F3 2907   0.667  -0.191   0.425  0.5437  0.7533 -0.1834
  202HFI     C3 2908   0.789   0.018   0.638  0.4541 -0.4296 -0.4496
  202HFI     F4 2909   0.689  -0.050   0.698 -0.0507  0.3749  0.1197
  202HFI     F5 2910   0.784   0.146   0.679 -0.0805 -0.6809  0.2734
  202HFI     F6 2911   0.908  -0.030   0.685  0.0660 -0.0614  0.3588
  202HFI     H1 2912   0.584  -0.001   0.428 -0.5990  0.1653  0.8343
  202HFI     H2 2913   0.864   0.069   0.456 -0.4929  0.0970  1.9950
  203HFI     O1 2914   3.158   2.161   1.476  0.4102  0.1176 -0.5303
  203HFI     C1 2915   3.277   2.201   1.394  0.1683  0.8245 -0.1929
  203HFI     C2 2916   3.373   2.297   1.473 -0.3291 -0.1214  0.3867
  203HFI     F1 2917   3.488   2.326   1.408 -0.6976  0.3830  0.0002
  203HFI     F2 2918   3.408   2.235   1.586 -0.1564 -0.0159 -0.1091
  203HFI     F3 2919   3.309   2.402   1.504  0.1229  0.1131  0.5712
  203HFI     C3 2920   3.242   2.252   1.252  0.7768 -0.5419 -0.3241
  203HFI     F4 2921   3.355   2.263   1.180 -0.4131 -0.2567  0.6576
  203HFI     F5 2922   3.184   2.370   1.256 -0.3701 -0.2317 -0.0680
  203HFI     F6 2923   3.157   2.160   1.197  0.0628  0.0227  0.0890
  203HFI     H1 2924   3.145   2.232   1.541  0.7393 -0.1994 -0.1169
  203HFI     H2 2925   3.327   2.106   1.374 -1.9865 -0.3357 -0.1595
  204HFI     O1 2926   0.472   0.877   1.002  0.0328  0.4146 -0.0737
  204HFI     C1 2927   0.329   0.842   1.021  0.9606  0.0359  0.2223
  204HFI     C2 2928   0.255   0.944   1.114 -0.2977 -0.2666 -0.0915
  204HFI     F1 2929   0.129   0.913   1.132  0.1895  0.0469  0.2059
  204HFI     F2 2930   0.260   1.070   1.065  0.3192  0.2277  0.3066
  204HFI     F3 2931   0.315   0.946   1.238  0.4290  0.0736 -0.0809
  204HFI     C3 2932   0.329   0.699   1.079  0.4606  0.5279 -0.1950
  204HFI     F4 2933   0.391   0.696   1.199  0.4568 -0.3274 -0.0071
  204HFI     F5 2934   0.400   0.617   1.002  0.0983 -0.0671 -0.3820
  204HFI     F6 2935   0.208   0.645   1.087  0.1236  0.1287 -0.3881
  204HFI     H1 2936   0.518   0.879   1.088  0.6670 -2.2906 -0.2915
  204HFI     H2 2937   0.278   0.843   0.924  0.6534 -2.3205  0.3277
  205HFI     O1 2938   1.413   0.016   2.488 -0.1517 -0.4531  0.1123
  205HFI     C1 2939   1.472   0.128   2.417  0.1727  0.1521 -0.2454
  205HFI     C2 2940   1.544   0.085   2.283  0.2160 -0.5553 -0.3514
  205HFI     F1 2941   1.646   0.008   2.321 -0.0680  0.2525 -0.2433
  205HFI     F2 2942   1.583   0.193   2.208  0.5788 -0.1155  0.0306
  205HFI     F3 2943   1.470   0.004   2.207 -0.7540  0.1761  0.6634
  205HFI     C3 2944   1.560   0.206   2.512  0.2821 -0.0882 -0.0061
  205HFI     F4 2945   1.643   0.122   2.565 -0.0978 -0.4219  0.0743
  205HFI     F5 2946   1.487   0.253   2.615  0.0764  0.1010 -0.2097
  205HFI     F6 2947   1.635   0.311   2.458 -0.2914  0.4821  0.1595
  205HFI     H1 2948   1.462  -0.068   2.476  1.2156  0.3538 -0.0209
  205HFI     H2 2949   1.392   0.189   2.373 -0.3694  1.4315  2.4554
  206HFI     O1 2950   0.269   3.263   0.130  0.3762  0.6987 -0.2193
  206HFI     C1 2951   0.357   3.338   0.041  0.3432 -0.9925 -0.2884
  206HFI     C2 2952   0.511   3.331   0.070  0.0881  0.2402 -0.4780
  206HFI     F1 2953   0.579   3.355  -0.035 -0.2722  0.6139  0.4136
  206HFI     F2 2954   0.548   3.203   0.110 -0.0383 -0.2919  0.0559
  206HFI     F3 2955   0.551   3.415   0.167  0.1390 -0.2767  0.6369
  206HFI     C3 2956   0.299   3.482   0.011 -0.8349 -0.6519 -0.3888
  206HFI     F4 2957   0.384   3.549  -0.069  0.0264 -0.0274 -0.6534
  206HFI     F5 2958   0.293   3.553   0.123 -0.4942 -0.1905 -0.2688
  206HFI     F6 2959   0.178   3.476  -0.046 -0.0251 -0.2787 -0.0259
  206HFI     H1 2960   0.239   3.186   0.079  0.2566  0.1626  0.6484
  206HFI     H2 2961   0.354   3.286  -0.056  1.4437  0.1095 -0.9349
  207HFI     O1 2962   1.760   2.375   2.466  0.1645  0.8396  0.6071
  207HFI     C1 2963   1.672   2.445   2.375 -0.5716 -0.7481 -0.0858
  207HFI     C2 2964   1.580   2.334   2.307  0.1234  0.3661 -0.0354
  207HFI     F1 2965   1.523   2.255   2.397  0.3367 -0.5301 -0.3087
  207HFI     F2 2966   1.651   2.256   2.219 -0.3564  0.8046  0.6920
  207HFI     F3 2967   1.481   2.384   2.236  0.0839  0.4924  0.2671
  207HFI     C3 2968   1.750   2.544   2.282  0.3888  0.5943 -0.1998
  207HFI     F4 2969   1.841   2.477   2.208  0.1180 -0.1048  0.1438
  207HFI     F5 2970   1.802   2.646   2.351 -0.3327 -0.0999 -0.1452
  207HFI     F6 2971   1.667   2.597   2.190 -0.1253  0.1552  0.3852
  207HFI     H1 2972   1.815   2.316   2.412  0.0177  0.8958  0.3947
  207HFI     H2 2973   1.606   2.504   2.440  1.1735 -0.8450  1.8551
  208HFI     O1 2974   0.954   3.319   2.454 -0.2031  0.1514 -0.0590
  208HFI     C1 2975   1.011   3.362   2.329  1.0128 -0.1715  0.4800
  208HFI     C2 2976   1.128   3.275   2.290  0.1250  0.8954  0.0416
  208HFI     F1 2977   1.208   3.341   2.206 -0.3918 -0.0925 -0.5404
  208HFI     F2 2978   1.072   3.169   2.219 -0.7298  0.2832  0.3379
  208HFI     F3 2979   1.195   3.232   2.394  0.6674  0.1230  0.1749
  208HFI     C3 2980   1.035   3.518   2.329  0.0392  0.5472 -0.1330
  208HFI     F4 2981   0.928   3.582   2.379  0.3133  0.3070  0.0586
  208HFI     F5 2982   1.068   3.570   2.211  0.2069  0.3798  0.6956
  208HFI     F6 2983   1.124   3.543   2.423  0.3605  0.1327  0.8272
  208HFI     H1 2984   1.020   3.332   2.524 -2.8918  0.8721  2.4670
  208HFI     H2 2985   0.930   3.357   2.255  1.0537 -0.2827  0.4436
  209HFI     O1 2986   0.650   0.690   3.789 -0.9842 -0.2657  0.0130
  209HFI     C1 2987   0.689   0.838   3.795 -0.2610 -0.1707  0.2513
  209HFI     C2 2988   0.675   0.884   3.941 -0.2836  1.0675 -0.2972
  209HFI     F1 2989   0.545   0.892   3.983  0.6634 -0.1917  0.0672
  209HFI     F2 2990   0.727   1.007   3.948 -0.1751 -0.5711 -0.1090
  209HFI     F3 2991   0.735   0.809   4.028  0.2668  0.1740 -0.4471
  209HFI     C3 2992   0.600   0.924   3.696  0.4186 -0.4917 -0.1787
  209HFI     F4 2993   0.470   0.932   3.724  0.0709 -0.0007 -0.5266
  209HFI     F5 2994   0.608   0.867   3.571  0.0454  0.3705  0.5711
  209HFI     F6 2995   0.641   1.048   3.687 -0.2038  0.2021  0.0816
  209HFI     H1 2996   0.666   0.665   3.697  2.7443  0.4627  0.3762
  209HFI     H2 2997   0.795   0.839   3.771  0.2015 -0.7975  2.1508
  210HFI     O1 2998   1.869   3.140   2.975  0.5927  0.3530 -0.0583
  210HFI     C1 2999   1.996   3.137   2.902  0.3579 -0.5360 -0.0536
  210HFI     C2 3000   2.091   3.261   2.917  0.3866  0.4172  1.3794
  210HFI     F1 3001   2.036   3.368   2.868 -0.2176 -0.5328  0.0075
  210HFI     F2 3002   2.208   3.251   2.850  0.0278 -0.5226 -0.0097
  210HFI     F3 3003   2.119   3.289   3.044 -0.4280  0.4093 -0.0021
  210HFI     C3 3004   1.961   3.107   2.754  0.1718 -0.2453 -0.3901
  210HFI     F4 3005   2.071   3.058   2.692 -0.3978  0.1363  0.2171
  210HFI     F5 3006   1.923   3.204   2.676 -0.1137 -0.1604  0.1978
  210HFI     F6 3007   1.871   3.002   2.746  0.3729 -0.2664  0.2892
  210HFI     H1 3008   1.820   3.222   2.957 -0.0768 -0.3994 -1.7814
  210HFI     H2 3009   2.045   3.046   2.939  2.5428  0.0723 -1.3509
  211HFI     O1 3010   0.086   2.372   2.208 -0.1203  0.0778 -0.3660
  211HFI     C1 3011   0.075   2.507   2.264  0.1721 -0.7910 -1.2351
  211HFI     C2 3012   0.214   2.573   2.294 -0.0974  0.4519 -0.4361
  211HFI     F1 3013   0.272   2.502   2.399  0.4717 -0.0020  0.0775
  211HFI     F2 3014   0.189   2.694   2.341 -0.1396 -0.2385 -0.0420
  211HFI     F3 3015   0.307   2.577   2.193 -0.1773  0.2423  0.3753
  211HFI     C3 3016  -0.024   2.523   2.388 -0.2716 -0.2013 -0.1117
  211HFI     F4 3017  -0.050   2.650   2.422 -0.0824 -0.1240 -0.0540
  211HFI     F5 3018   0.030   2.469   2.502 -0.1580 -0.2659  0.0938
  211HFI     F6 3019  -0.141   2.460   2.371 -0.2729  0.7515  0.7277
  211HFI     H1 3020   0.109   2.317   2.285  0.8724  3.0711  1.5554
  211HFI     H2 3021   0.033   2.565   2.181  0.0097  1.0114  0.0900
  212HFI     O1 3022   3.120   2.754   0.909  0.2187  0.7031 -0.2735
  212HFI     C1 3023   3.057   2.648   0.992 -0.0997  0.2411 -0.0526
  212HFI     C2 3024   3.077   2.508   0.931  0.0354 -0.0411  0.3203
  212HFI     F1 3025   3.209   2.482   0.910  0.1361 -0.4482 -0.3377
  212HFI     F2 3026   3.023   2.495   0.803 -0.3258  0.3999 -0.3796
  212HFI     F3 3027   3.028   2.409   1.005 -0.0587 -0.3199 -0.0871
  212HFI     C3 3028   2.910   2.681   1.023 -0.1735 -0.0530 -0.4260
  212HFI     F4 3029   2.835   2.693   0.909 -0.3155 -0.0989  0.1196
  212HFI     F5 3030   2.905   2.793   1.095  0.1889 -0.0408  0.1546
  212HFI     F6 3031   2.847   2.583   1.096 -0.1366 -0.3698  0.3032
  212HFI     H1 3032   3.156   2.717   0.826  0.3049 -0.4435  0.2567
  212HFI     H2 3033   3.090   2.647   1.097  0.8752  2.1266 -0.3075
  213HFI     O1 3034   2.299   1.316   3.173  0.1883  0.6167 -0.1496
  213HFI     C1 3035   2.411   1.400   3.133  0.0303 -0.6112 -0.8499
  213HFI     C2 3036   2.388   1.548   3.155 -0.2036 -0.3681 -0.4707
  213HFI     F1 3037   2.283   1.603   3.079  0.6715 -0.1462 -0.7448
  213HFI     F2 3038   2.497   1.623   3.117 -0.0652 -0.2628 -0.0504
  213HFI     F3 3039   2.359   1.578   3.284  0.1942  0.1748  0.0157
  213HFI     C3 3040   2.456   1.365   2.988  0.0148  0.4871  0.4712
  213HFI     F4 3041   2.461   1.227   2.972  0.4154 -0.1378  0.1554
  213HFI     F5 3042   2.588   1.407   2.977  0.3514  0.4375 -0.2644
  213HFI     F6 3043   2.382   1.415   2.890 -0.0873  0.2574 -0.0739
  213HFI     H1 3044   2.227   1.338   3.112  0.8479 -1.0690 -1.5891
  213HFI     H2 3045   2.491   1.371   3.203 -0.6230 -0.5795 -0.0858
  214HFI     O1 3046   0.371   1.426   0.010  0.2623  0.4294  0.4213
  214HFI     C1 3047   0.371   1.383   0.152  0.7621 -0.0769 -0.7679
  214HFI     C2 3048   0.510   1.400   0.219 -0.3207  0.1209 -0.1872
  214HFI     F1 3049   0.538   1.528   0.240  0.8851 -0.0428 -0.5643
  214HFI     F2 3050   0.608   1.350   0.136 -0.3470  0.2884  0.5449
  214HFI     F3 3051   0.512   1.334   0.338  0.3679  0.1231 -0.1588
  214HFI     C3 3052   0.309   1.248   0.172  0.1407 -0.2943 -0.3691
  214HFI     F4 3053   0.392   1.149   0.126  0.1418 -0.2643 -0.2950
  214HFI     F5 3054   0.193   1.238   0.106  0.1683 -0.2607  0.4391
  214HFI     F6 3055   0.279   1.220   0.304  0.3298 -0.6673  0.2754
  214HFI     H1 3056   0.454   1.393  -0.028 -0.1482  0.5229 -0.5687
  214HFI     H2 3057   0.310   1.448   0.216 -0.5180 -2.4017  0.4436
  215HFI     O1 3058   1.522   3.183   2.489  0.6289 -0.5990 -0.4037
  215HFI     C1 3059   1.580   3.114   2.369  0.5316  0.6055 -0.0907
  215HFI     C2 3060   1.498   2.994   2.326 -0.2415 -0.0600  0.1842
  215HFI     F1 3061   1.367   3.029   2.318 -0.7189 -0.3831 -0.3060
  215HFI     F2 3062   1.503   2.898   2.426 -0.2301 -0.2940  1.2612
  215HFI     F3 3063   1.542   2.943   2.203 -0.4763 -0.1432 -0.5687
  215HFI     C3 3064   1.728   3.077   2.390 -0.1691  0.4562 -1.2940
  215HFI     F4 3065   1.786   3.012   2.286  0.5182  0.1949  0.4015
  215HFI     F5 3066   1.755   3.009   2.507  0.0063  0.5119  0.1133
  215HFI     F6 3067   1.789   3.191   2.400  0.3401 -0.6807  0.0125
  215HFI     H1 3068   1.554   3.138   2.569 -0.9840 -1.3302 -0.1367
  215HFI     H2 3069   1.580   3.186   2.286  2.9195 -0.3188 -0.9252
  216HFI     O1 3070   2.599   1.247   0.948 -0.3651 -0.6359  0.2934
  216HFI     C1 3071   2.555   1.115   0.978  0.4842 -0.3508  0.2886
  216HFI     C2 3072   2.446   1.114   1.088  0.2446 -0.9286  0.2630
  216HFI     F1 3073   2.395   0.983   1.109 -0.2819 -0.1753  0.0640
  216HFI     F2 3074   2.339   1.193   1.062 -0.4649  0.1012  0.3344
  216HFI     F3 3075   2.507   1.164   1.206 -0.4282  0.1687  0.1011
  216HFI     C3 3076   2.681   1.024   1.013 -0.3631 -0.1770 -0.7285
  216HFI     F4 3077   2.755   1.010   0.901 -0.1136 -0.7928 -0.2555
  216HFI     F5 3078   2.636   0.903   1.050 -0.2167  0.0830  0.5627
  216HFI     F6 3079   2.759   1.071   1.110 -0.1394 -0.3752 -0.0007
  216HFI     H1 3080   2.534   1.312   0.979  0.7446  0.5420  0.1789
  216HFI     H2 3081   2.520   1.072   0.883 -1.1061  0.6451  0.4037
  217HFI     O1 3082   0.810   2.346   0.246  0.2116  0.0697  0.1635
  217HFI     C1 3083   0.866   2.212   0.221 -0.6375  0.0696 -0.4344
  217HFI     C2 3084   0.942   2.151   0.337  0.1706 -0.3687 -0.1056
  217HFI     F1 3085   1.050   2.218   0.371  0.4063  0.2613  0.2578
  217HFI     F2 3086   0.973   2.020   0.313  0.1764  0.8250 -0.0513
  217HFI     F3 3087   0.852   2.149   0.439  0.7810 -0.3170 -0.1949
  217HFI     C3 3088   0.951   2.222   0.091  0.4875  0.1369 -0.0846
  217HFI     F4 3089   1.001   2.104   0.053 -0.0267  0.0907  0.5852
  217HFI     F5 3090   1.051   2.317   0.095  0.5065  0.2724  0.2871
  217HFI     F6 3091   0.866   2.265  -0.007  0.7560 -0.1033  0.4096
  217HFI     H1 3092   0.721   2.344   0.286 -0.7015 -2.1414 -1.8498
  217HFI     H2 3093   0.780   2.144   0.209  0.0512 -0.0679 -5.4168
  218HFI     O1 3094   2.909   0.478   2.653  0.0475 -0.1513  0.0732
  218HFI     C1 3095   2.911   0.370   2.746 -0.1883 -0.1553 -1.0196
  218HFI     C2 3096   2.778   0.282   2.755 -0.6698 -0.0184  0.6050
  218HFI     F1 3097   2.786   0.191   2.852 -0.5317  0.3151  0.3966
  218HFI     F2 3098   2.749   0.228   2.635  0.0168 -0.8630 -0.0303
  218HFI     F3 3099   2.673   0.361   2.785  0.0583  0.0027  0.2938
  218HFI     C3 3100   2.956   0.428   2.887 -0.2355 -0.4036 -0.6988
  218HFI     F4 3101   3.068   0.499   2.867  0.2828  0.5310 -0.3449
  218HFI     F5 3102   2.986   0.338   2.978  0.5353  0.3104 -0.1784
  218HFI     F6 3103   2.863   0.510   2.933 -0.2963 -0.2961 -0.0874
  218HFI     H1 3104   2.859   0.556   2.684  1.3982  1.8918 -2.6340
  218HFI     H2 3105   2.992   0.303   2.717 -1.5296 -1.8408 -0.9156
  219HFI     O1 3106   1.299   1.081   1.095 -0.0541  0.0936 -0.0830
  219HFI     C1 3107   1.272   0.939   1.119 -0.2781 -0.3974  1.2713
  219HFI     C2 3108   1.397   0.852   1.074  0.7572 -0.1777 -0.1614
  219HFI     F1 3109   1.376   0.720   1.092 -0.1224 -0.1474  0.1129
  219HFI     F2 3110   1.496   0.883   1.162 -0.1414 -0.9013 -0.0284
  219HFI     F3 3111   1.439   0.863   0.948 -0.3336  0.2318 -0.4621
  219HFI     C3 3112   1.136   0.887   1.053 -0.9386 -0.4540 -0.5789
  219HFI     F4 3113   1.149   0.880   0.917  0.0781 -0.3302 -0.1875
  219HFI     F5 3114   1.033   0.965   1.074 -0.0840 -0.0684 -0.7106
  219HFI     F6 3115   1.106   0.767   1.099 -0.4712 -0.2951 -0.1997
  219HFI     H1 3116   1.311   1.094   0.999 -0.7668 -0.9074 -0.3249
  219HFI     H2 3117   1.254   0.932   1.227 -1.0529  0.1095  1.1818
  220HFI     O1 3118   3.352   0.722   3.263  0.0297  0.4052  0.3982
  220HFI     C1 3119   3.212   0.681   3.285  0.1196  0.7820 -0.4064
  220HFI     C2 3120   3.139   0.611   3.166 -0.2673  0.1083 -0.4397
  220HFI     F1 3121   3.219   0.507   3.131 -0.1803 -0.5118 -0.7713
  220HFI     F2 3122   3.125   0.703   3.065 -0.1380 -0.4326  0.1286
  220HFI     F3 3123   3.021   0.553   3.205  0.0993  0.2762 -0.3983
  220HFI     C3 3124   3.135   0.800   3.355 -0.1878 -0.5999 -0.0307
  220HFI     F4 3125   3.123   0.907   3.269 -0.3306 -0.0596  0.2359
  220HFI     F5 3126   3.209   0.840   3.468  0.2821 -0.2810 -0.2619
  220HFI     F6 3127   3.014   0.754   3.391 -0.0337 -0.6521  0.1421
  220HFI     H1 3128   3.376   0.803   3.312 -0.6848  0.6168  0.3968
  220HFI     H2 3129   3.213   0.603   3.362 -1.9991  1.2358  0.1094
  221HFI     O1 3130   2.983   0.022   2.511  0.6458 -0.0250 -0.2138
  221HFI     C1 3131   2.927   0.080   2.389 -0.6795  0.4942 -0.2607
  221HFI     C2 3132   2.880  -0.033   2.292 -0.1080  0.0847 -0.5645
  221HFI     F1 3133   2.980  -0.075   2.204  0.2581 -0.0817  0.2059
  221HFI     F2 3134   2.772   0.004   2.221  0.5302 -0.3873  0.0592
  221HFI     F3 3135   2.848  -0.144   2.366  0.2008  0.0893 -0.5109
  221HFI     C3 3136   3.021   0.178   2.331  0.7939  0.3296 -0.6830
  221HFI     F4 3137   3.154   0.139   2.352  0.0718 -0.0239  0.0428
  221HFI     F5 3138   3.005   0.291   2.397 -0.3884 -0.2278 -0.0583
  221HFI     F6 3139   2.995   0.201   2.198 -0.1318 -0.0947 -0.0431
  221HFI     H1 3140   3.066  -0.026   2.493 -0.1041 -1.2687 -0.3851
  221HFI     H2 3141   2.839   0.139   2.415  0.9743  2.8141  0.2027
  222HFI     O1 3142   0.503   2.368   2.482 -0.5230 -0.3766  0.4930
  222HFI     C1 3143   0.571   2.274   2.399  0.2499  0.0680  0.0013
  222HFI     C2 3144   0.656   2.344   2.285  0.7962 -0.2512  0.3982
  222HFI     F1 3145   0.737   2.265   2.218 -0.1456  0.0186 -0.1881
  222HFI     F2 3146   0.724   2.439   2.338  0.0399 -0.2079  0.0590
  222HFI     F3 3147   0.574   2.399   2.193 -0.1511  0.1099 -0.5525
  222HFI     C3 3148   0.485   2.162   2.343  0.2273  0.8840 -0.5222
  222HFI     F4 3149   0.549   2.068   2.256  0.1148  0.1569 -0.5517
  222HFI     F5 3150   0.377   2.215   2.280 -0.0103  0.5068  0.4136
  222HFI     F6 3151   0.427   2.100   2.450 -0.3856 -0.4557 -0.0885
  222HFI     H1 3152   0.459   2.429   2.420 -0.5287 -0.6265  0.2528
  222HFI     H2 3153   0.638   2.214   2.462  1.6165  1.2924 -0.2604
  223HFI     O1 3154   2.313   0.746   0.461 -0.2082  0.1425 -0.1867
  223HFI     C1 3155   2.301   0.699   0.322  0.1646 -0.1326 -0.1414
  223HFI     C2 3156   2.204   0.785   0.233  1.0024  0.0963  0.3580
  223HFI     F1 3157   2.206   0.739   0.107 -0.3712  0.2550 -0.6558
  223HFI     F2 3158   2.238   0.913   0.234 -0.0672  0.1399 -0.2872
  223HFI     F3 3159   2.075   0.772   0.274 -0.1745  0.4564  0.0108
  223HFI     C3 3160   2.278   0.537   0.317 -0.3962 -0.3970 -0.0471
  223HFI     F4 3161   2.364   0.456   0.386  0.3104 -0.2764 -0.0969
  223HFI     F5 3162   2.282   0.498   0.188  0.4096 -0.5907  0.2520
  223HFI     F6 3163   2.149   0.513   0.354 -0.2780  0.5759 -0.1422
  223HFI     H1 3164   2.233   0.730   0.514 -0.6215 -2.4851 -1.5505
  223HFI     H2 3165   2.400   0.699   0.275 -0.1369  2.0006 -0.8331
  224HFI     O1 3166   1.057   3.304   3.505  0.2832  0.3860 -0.1098
  224HFI     C1 3167   0.955   3.290   3.393  0.3721  0.1460  0.0507
  224HFI     C2 3168   0.971   3.402   3.292  0.2683  0.4817 -0.0077
  224HFI     F1 3169   0.906   3.380   3.177  0.2862  0.8006  0.1653
  224HFI     F2 3170   1.099   3.413   3.261  0.5718  0.2050  0.2265
  224HFI     F3 3171   0.929   3.518   3.349 -0.4692  0.0351  0.1680
  224HFI     C3 3172   0.806   3.262   3.434 -0.4840  0.7558  0.6035
  224HFI     F4 3173   0.805   3.151   3.503  0.6798  0.2467 -0.5063
  224HFI     F5 3174   0.732   3.240   3.319 -0.0674  0.0255  0.2474
  224HFI     F6 3175   0.757   3.363   3.503 -0.1178  0.1201  0.2585
  224HFI     H1 3176   1.020   3.375   3.561  1.8621 -0.6749  2.3350
  224HFI     H2 3177   0.991   3.200   3.343 -0.5033  0.2266 -0.7330
  225HFI     O1 3178   0.806   0.284   2.718  0.0265  0.4392  0.8033
  225HFI     C1 3179   0.697   0.285   2.816  1.1192  0.1839  0.0461
  225HFI     C2 3180   0.598   0.384   2.757  0.7013  0.6182 -0.2251
  225HFI     F1 3181   0.538   0.338   2.642 -0.3689 -0.0468  0.3566
  225HFI     F2 3182   0.652   0.501   2.732  0.1928 -0.3001 -0.2270
  225HFI     F3 3183   0.497   0.407   2.847 -0.0238 -0.3679 -0.2218
  225HFI     C3 3184   0.752   0.316   2.957 -0.9112  0.4204  0.4529
  225HFI     F4 3185   0.662   0.279   3.050 -0.3207  0.2785  0.5392
  225HFI     F5 3186   0.780   0.453   2.970  0.1079  0.9139 -0.2528
  225HFI     F6 3187   0.863   0.242   2.982 -0.1460  0.5439 -0.2427
  225HFI     H1 3188   0.795   0.361   2.660  0.8456 -1.0308 -1.4197
  225HFI     H2 3189   0.648   0.187   2.817  2.6145 -0.6023 -0.5968
  226HFI     O1 3190   1.845   2.561   2.711 -0.1961  0.5649  1.1139
  226HFI     C1 3191   1.801   2.680   2.785 -0.3777 -0.2559  0.0694
  226HFI     C2 3192   1.834   2.657   2.940 -0.0274 -0.5446  0.2162
  226HFI     F1 3193   1.758   2.741   3.018  0.6858  0.0460  0.2638
  226HFI     F2 3194   1.961   2.682   2.971  0.1158  0.0584 -0.0864
  226HFI     F3 3195   1.805   2.530   2.980 -0.6332  0.0806 -0.2322
  226HFI     C3 3196   1.654   2.700   2.748  0.8918  0.3601  0.1185
  226HFI     F4 3197   1.588   2.807   2.794  0.3982 -0.3653  0.0933
  226HFI     F5 3198   1.580   2.593   2.777  0.2542  0.5114 -0.3262
  226HFI     F6 3199   1.654   2.706   2.614  0.7919 -0.2958 -0.0014
  226HFI     H1 3200   1.791   2.482   2.731 -0.0178  0.1037 -0.2149
  226HFI     H2 3201   1.857   2.769   2.755  0.6936 -0.2963  1.8823
  227HFI     O1 3202   1.336   2.519   2.480  0.1642 -0.4609 -0.3112
  227HFI     C1 3203   1.237   2.530   2.372  0.2269 -0.6052  0.3950
  227HFI     C2 3204   1.217   2.674   2.331  0.2702  0.2905 -0.2259
  227HFI     F1 3205   1.328   2.723   2.271  0.0470 -0.0188 -0.4401
  227HFI     F2 3206   1.187   2.750   2.437 -0.2760  0.0397  0.1110
  227HFI     F3 3207   1.117   2.687   2.245 -0.1907 -0.3460 -0.1074
  227HFI     C3 3208   1.104   2.451   2.417 -0.5266 -0.5517 -1.1263
  227HFI     F4 3209   1.151   2.347   2.470 -0.4672  1.1823 -0.1404
  227HFI     F5 3210   1.019   2.422   2.316  0.4914  0.3264  0.2484
  227HFI     F6 3211   1.039   2.502   2.526 -0.0870 -0.4882  0.3930
  227HFI     H1 3212   1.281   2.499   2.558  1.3260 -2.1540  0.1050
  227HFI     H2 3213   1.274   2.479   2.282 -0.3282  0.1719 -0.2789
  228HFI     O1 3214   2.575   2.256   2.596 -0.5284  0.7718 -0.4889
  228HFI     C1 3215   2.516   2.313   2.713 -0.1035 -0.1209  0.1364
  228HFI     C2 3216   2.382   2.246   2.745 -0.6006 -0.4251 -0.1131
  228HFI     F1 3217   2.310   2.244   2.629  0.2855 -0.3082  0.5992
  228HFI     F2 3218   2.311   2.312   2.842 -0.0799  0.5185  0.0186
  228HFI     F3 3219   2.406   2.121   2.781  0.0153 -0.0029  0.1941
  228HFI     C3 3220   2.505   2.471   2.712  0.6293  0.4047 -0.3777
  228HFI     F4 3221   2.625   2.522   2.679 -0.5175 -0.3232 -0.1016
  228HFI     F5 3222   2.481   2.526   2.839 -0.0266  0.2300 -0.5786
  228HFI     F6 3223   2.413   2.515   2.625  0.0314  0.5971 -0.6707
  228HFI     H1 3224   2.523   2.288   2.520 -2.0121 -3.4456 -1.4315
  228HFI     H2 3225   2.582   2.303   2.800 -0.5171 -0.3664  0.4226
   3.40320   3.43847   3.80000
