GROningen MAchine for Chemical Simulation
   12
    1HFI     O1    1  -0.066   0.136  -0.075
    1HFI     C1    2  -0.008   0.012  -0.057
    1HFI     C2    3  -0.102  -0.082   0.022
    1HFI     F1    4  -0.217  -0.099  -0.043
    1HFI     F2    5  -0.132  -0.029   0.141
    1HFI     F3    6  -0.050  -0.202   0.043
    1HFI     C3    7   0.130   0.024   0.013
    1HFI     F4    8   0.118   0.086   0.131
    1HFI     F5    9   0.212   0.098  -0.061
    1HFI     F6   10   0.189  -0.093   0.033
    1HFI     H1   11  -0.082   0.180   0.010
    1HFI     H2   12   0.008  -0.032  -0.157
   0.92910   0.88220   0.79810
