HFI
    12
  -0.6570000   1.3630000  -0.7500000  -0.0780000   0.1180000  -0.5730000
  -1.0180000  -0.8170000   0.2230000  -2.1660000  -0.9870000  -0.4340000
  -1.3230000  -0.2880000   1.4130000  -0.4980000  -2.0240000   0.4340000
   1.2950000   0.2440000   0.1260000   1.1750000   0.8580000   1.3080000
   2.1250000   0.9810000  -0.6140000   1.8860000  -0.9300000   0.3340000
  -0.8200000   1.7980000   0.1010000   0.0800000  -0.3170000  -1.5680000
