DMF comparator n4
 4173
    1GR      C1    1   0.000   3.438   1.900  0.0000  0.0000  0.0000
    1GR      C2    2   0.142   0.000   1.900  0.0000  0.0000  0.0000
    1GR      C3    3   0.213   0.123   1.900  0.0000  0.0000  0.0000
    1GR      C4    4   0.354   0.123   1.900  0.0000  0.0000  0.0000
    1GR      C5    5   0.000   0.246   1.900  0.0000  0.0000  0.0000
    1GR      C6    6   0.142   0.246   1.900  0.0000  0.0000  0.0000
    1GR      C7    7   0.213   0.368   1.900  0.0000  0.0000  0.0000
    1GR      C8    8   0.354   0.368   1.900  0.0000  0.0000  0.0000
    1GR      C9    9   0.000   0.491   1.900  0.0000  0.0000  0.0000
    1GR     C10   10   0.142   0.491   1.900  0.0000  0.0000  0.0000
    1GR     C11   11   0.213   0.614   1.900  0.0000  0.0000  0.0000
    1GR     C12   12   0.354   0.614   1.900  0.0000  0.0000  0.0000
    1GR     C13   13   0.000   0.737   1.900  0.0000  0.0000  0.0000
    1GR     C14   14   0.142   0.737   1.900  0.0000  0.0000  0.0000
    1GR     C15   15   0.213   0.860   1.900  0.0000  0.0000  0.0000
    1GR     C16   16   0.354   0.860   1.900  0.0000  0.0000  0.0000
    1GR     C17   17   0.000   0.982   1.900  0.0000  0.0000  0.0000
    1GR     C18   18   0.142   0.982   1.900  0.0000  0.0000  0.0000
    1GR     C19   19   0.213   1.105   1.900  0.0000  0.0000  0.0000
    1GR     C20   20   0.354   1.105   1.900  0.0000  0.0000  0.0000
    1GR     C21   21   0.000   1.228   1.900  0.0000  0.0000  0.0000
    1GR     C22   22   0.142   1.228   1.900  0.0000  0.0000  0.0000
    1GR     C23   23   0.213   1.351   1.900  0.0000  0.0000  0.0000
    1GR     C24   24   0.354   1.351   1.900  0.0000  0.0000  0.0000
    1GR     C25   25   0.000   1.474   1.900  0.0000  0.0000  0.0000
    1GR     C26   26   0.142   1.474   1.900  0.0000  0.0000  0.0000
    1GR     C27   27   0.213   1.596   1.900  0.0000  0.0000  0.0000
    1GR     C28   28   0.354   1.596   1.900  0.0000  0.0000  0.0000
    1GR     C29   29   0.000   1.719   1.900  0.0000  0.0000  0.0000
    1GR     C30   30   0.142   1.719   1.900  0.0000  0.0000  0.0000
    1GR     C31   31   0.213   1.842   1.900  0.0000  0.0000  0.0000
    1GR     C32   32   0.354   1.842   1.900  0.0000  0.0000  0.0000
    1GR     C33   33   0.000   1.965   1.900  0.0000  0.0000  0.0000
    1GR     C34   34   0.142   1.965   1.900  0.0000  0.0000  0.0000
    1GR     C35   35   0.213   2.088   1.900  0.0000  0.0000  0.0000
    1GR     C36   36   0.354   2.088   1.900  0.0000  0.0000  0.0000
    1GR     C37   37   0.000   2.210   1.900  0.0000  0.0000  0.0000
    1GR     C38   38   0.142   2.210   1.900  0.0000  0.0000  0.0000
    1GR     C39   39   0.213   2.333   1.900  0.0000  0.0000  0.0000
    1GR     C40   40   0.354   2.333   1.900  0.0000  0.0000  0.0000
    1GR     C41   41   0.000   2.456   1.900  0.0000  0.0000  0.0000
    1GR     C42   42   0.142   2.456   1.900  0.0000  0.0000  0.0000
    1GR     C43   43   0.213   2.579   1.900  0.0000  0.0000  0.0000
    1GR     C44   44   0.354   2.579   1.900  0.0000  0.0000  0.0000
    1GR     C45   45   0.000   2.702   1.900  0.0000  0.0000  0.0000
    1GR     C46   46   0.142   2.702   1.900  0.0000  0.0000  0.0000
    1GR     C47   47   0.213   2.824   1.900  0.0000  0.0000  0.0000
    1GR     C48   48   0.354   2.824   1.900  0.0000  0.0000  0.0000
    1GR     C49   49   0.000   2.947   1.900  0.0000  0.0000  0.0000
    1GR     C50   50   0.142   2.947   1.900  0.0000  0.0000  0.0000
    1GR     C51   51   0.213   3.070   1.900  0.0000  0.0000  0.0000
    1GR     C52   52   0.354   3.070   1.900  0.0000  0.0000  0.0000
    1GR     C53   53   0.000   3.193   1.900  0.0000  0.0000  0.0000
    1GR     C54   54   0.142   3.193   1.900  0.0000  0.0000  0.0000
    1GR     C55   55   0.213   3.316   1.900  0.0000  0.0000  0.0000
    1GR     C56   56   0.354   3.316   1.900  0.0000  0.0000  0.0000
    1GR     C57   57   0.425   0.000   1.900  0.0000  0.0000  0.0000
    1GR     C58   58   0.567   0.000   1.900  0.0000  0.0000  0.0000
    1GR     C59   59   0.638   0.123   1.900  0.0000  0.0000  0.0000
    1GR     C60   60   0.780   0.123   1.900  0.0000  0.0000  0.0000
    1GR     C61   61   0.425   0.246   1.900  0.0000  0.0000  0.0000
    1GR     C62   62   0.567   0.246   1.900  0.0000  0.0000  0.0000
    1GR     C63   63   0.638   0.368   1.900  0.0000  0.0000  0.0000
    1GR     C64   64   0.780   0.368   1.900  0.0000  0.0000  0.0000
    1GR     C65   65   0.425   0.491   1.900  0.0000  0.0000  0.0000
    1GR     C66   66   0.567   0.491   1.900  0.0000  0.0000  0.0000
    1GR     C67   67   0.638   0.614   1.900  0.0000  0.0000  0.0000
    1GR     C68   68   0.780   0.614   1.900  0.0000  0.0000  0.0000
    1GR     C69   69   0.425   0.737   1.900  0.0000  0.0000  0.0000
    1GR     C70   70   0.567   0.737   1.900  0.0000  0.0000  0.0000
    1GR     C71   71   0.638   0.860   1.900  0.0000  0.0000  0.0000
    1GR     C72   72   0.780   0.860   1.900  0.0000  0.0000  0.0000
    1GR     C73   73   0.425   0.982   1.900  0.0000  0.0000  0.0000
    1GR     C74   74   0.567   0.982   1.900  0.0000  0.0000  0.0000
    1GR     C75   75   0.638   1.105   1.900  0.0000  0.0000  0.0000
    1GR     C76   76   0.780   1.105   1.900  0.0000  0.0000  0.0000
    1GR     C77   77   0.425   1.228   1.900  0.0000  0.0000  0.0000
    1GR     C78   78   0.567   1.228   1.900  0.0000  0.0000  0.0000
    1GR     C79   79   0.638   1.351   1.900  0.0000  0.0000  0.0000
    1GR     C80   80   0.780   1.351   1.900  0.0000  0.0000  0.0000
    1GR     C81   81   0.425   1.474   1.900  0.0000  0.0000  0.0000
    1GR     C82   82   0.567   1.474   1.900  0.0000  0.0000  0.0000
    1GR     C83   83   0.638   1.596   1.900  0.0000  0.0000  0.0000
    1GR     C84   84   0.780   1.596   1.900  0.0000  0.0000  0.0000
    1GR     C85   85   0.425   1.719   1.900  0.0000  0.0000  0.0000
    1GR     C86   86   0.567   1.719   1.900  0.0000  0.0000  0.0000
    1GR     C87   87   0.638   1.842   1.900  0.0000  0.0000  0.0000
    1GR     C88   88   0.780   1.842   1.900  0.0000  0.0000  0.0000
    1GR     C89   89   0.425   1.965   1.900  0.0000  0.0000  0.0000
    1GR     C90   90   0.567   1.965   1.900  0.0000  0.0000  0.0000
    1GR     C91   91   0.638   2.088   1.900  0.0000  0.0000  0.0000
    1GR     C92   92   0.780   2.088   1.900  0.0000  0.0000  0.0000
    1GR     C93   93   0.425   2.210   1.900  0.0000  0.0000  0.0000
    1GR     C94   94   0.567   2.210   1.900  0.0000  0.0000  0.0000
    1GR     C95   95   0.638   2.333   1.900  0.0000  0.0000  0.0000
    1GR     C96   96   0.780   2.333   1.900  0.0000  0.0000  0.0000
    1GR     C97   97   0.425   2.456   1.900  0.0000  0.0000  0.0000
    1GR     C98   98   0.567   2.456   1.900  0.0000  0.0000  0.0000
    1GR     C99   99   0.638   2.579   1.900  0.0000  0.0000  0.0000
    1GR    C100  100   0.780   2.579   1.900  0.0000  0.0000  0.0000
    1GR    C101  101   0.425   2.702   1.900  0.0000  0.0000  0.0000
    1GR    C102  102   0.567   2.702   1.900  0.0000  0.0000  0.0000
    1GR    C103  103   0.638   2.824   1.900  0.0000  0.0000  0.0000
    1GR    C104  104   0.780   2.824   1.900  0.0000  0.0000  0.0000
    1GR    C105  105   0.425   2.947   1.900  0.0000  0.0000  0.0000
    1GR    C106  106   0.567   2.947   1.900  0.0000  0.0000  0.0000
    1GR    C107  107   0.638   3.070   1.900  0.0000  0.0000  0.0000
    1GR    C108  108   0.780   3.070   1.900  0.0000  0.0000  0.0000
    1GR    C109  109   0.425   3.193   1.900  0.0000  0.0000  0.0000
    1GR    C110  110   0.567   3.193   1.900  0.0000  0.0000  0.0000
    1GR    C111  111   0.638   3.316   1.900  0.0000  0.0000  0.0000
    1GR    C112  112   0.780   3.316   1.900  0.0000  0.0000  0.0000
    1GR    C113  113   0.851   0.000   1.900  0.0000  0.0000  0.0000
    1GR    C114  114   0.993   0.000   1.900  0.0000  0.0000  0.0000
    1GR    C115  115   1.064   0.123   1.900  0.0000  0.0000  0.0000
    1GR    C116  116   1.205   0.123   1.900  0.0000  0.0000  0.0000
    1GR    C117  117   0.851   0.246   1.900  0.0000  0.0000  0.0000
    1GR    C118  118   0.993   0.246   1.900  0.0000  0.0000  0.0000
    1GR    C119  119   1.064   0.368   1.900  0.0000  0.0000  0.0000
    1GR    C120  120   1.205   0.368   1.900  0.0000  0.0000  0.0000
    1GR    C121  121   0.851   0.491   1.900  0.0000  0.0000  0.0000
    1GR    C122  122   0.993   0.491   1.900  0.0000  0.0000  0.0000
    1GR    C123  123   1.064   0.614   1.900  0.0000  0.0000  0.0000
    1GR    C124  124   1.205   0.614   1.900  0.0000  0.0000  0.0000
    1GR    C125  125   0.851   0.737   1.900  0.0000  0.0000  0.0000
    1GR    C126  126   0.993   0.737   1.900  0.0000  0.0000  0.0000
    1GR    C127  127   1.064   0.860   1.900  0.0000  0.0000  0.0000
    1GR    C128  128   1.205   0.860   1.900  0.0000  0.0000  0.0000
    1GR    C129  129   0.851   0.982   1.900  0.0000  0.0000  0.0000
    1GR    C130  130   0.993   0.982   1.900  0.0000  0.0000  0.0000
    1GR    C131  131   1.064   1.105   1.900  0.0000  0.0000  0.0000
    1GR    C132  132   1.205   1.105   1.900  0.0000  0.0000  0.0000
    1GR    C133  133   0.851   1.228   1.900  0.0000  0.0000  0.0000
    1GR    C134  134   0.993   1.228   1.900  0.0000  0.0000  0.0000
    1GR    C135  135   1.064   1.351   1.900  0.0000  0.0000  0.0000
    1GR    C136  136   1.205   1.351   1.900  0.0000  0.0000  0.0000
    1GR    C137  137   0.851   1.474   1.900  0.0000  0.0000  0.0000
    1GR    C138  138   0.993   1.474   1.900  0.0000  0.0000  0.0000
    1GR    C139  139   1.064   1.596   1.900  0.0000  0.0000  0.0000
    1GR    C140  140   1.205   1.596   1.900  0.0000  0.0000  0.0000
    1GR    C141  141   0.851   1.719   1.900  0.0000  0.0000  0.0000
    1GR    C142  142   0.993   1.719   1.900  0.0000  0.0000  0.0000
    1GR    C143  143   1.064   1.842   1.900  0.0000  0.0000  0.0000
    1GR    C144  144   1.205   1.842   1.900  0.0000  0.0000  0.0000
    1GR    C145  145   0.851   1.965   1.900  0.0000  0.0000  0.0000
    1GR    C146  146   0.993   1.965   1.900  0.0000  0.0000  0.0000
    1GR    C147  147   1.064   2.088   1.900  0.0000  0.0000  0.0000
    1GR    C148  148   1.205   2.088   1.900  0.0000  0.0000  0.0000
    1GR    C149  149   0.851   2.210   1.900  0.0000  0.0000  0.0000
    1GR    C150  150   0.993   2.210   1.900  0.0000  0.0000  0.0000
    1GR    C151  151   1.064   2.333   1.900  0.0000  0.0000  0.0000
    1GR    C152  152   1.205   2.333   1.900  0.0000  0.0000  0.0000
    1GR    C153  153   0.851   2.456   1.900  0.0000  0.0000  0.0000
    1GR    C154  154   0.993   2.456   1.900  0.0000  0.0000  0.0000
    1GR    C155  155   1.064   2.579   1.900  0.0000  0.0000  0.0000
    1GR    C156  156   1.205   2.579   1.900  0.0000  0.0000  0.0000
    1GR    C157  157   0.851   2.702   1.900  0.0000  0.0000  0.0000
    1GR    C158  158   0.993   2.702   1.900  0.0000  0.0000  0.0000
    1GR    C159  159   1.064   2.824   1.900  0.0000  0.0000  0.0000
    1GR    C160  160   1.205   2.824   1.900  0.0000  0.0000  0.0000
    1GR    C161  161   0.851   2.947   1.900  0.0000  0.0000  0.0000
    1GR    C162  162   0.993   2.947   1.900  0.0000  0.0000  0.0000
    1GR    C163  163   1.064   3.070   1.900  0.0000  0.0000  0.0000
    1GR    C164  164   1.205   3.070   1.900  0.0000  0.0000  0.0000
    1GR    C165  165   0.851   3.193   1.900  0.0000  0.0000  0.0000
    1GR    C166  166   0.993   3.193   1.900  0.0000  0.0000  0.0000
    1GR    C167  167   1.064   3.316   1.900  0.0000  0.0000  0.0000
    1GR    C168  168   1.205   3.316   1.900  0.0000  0.0000  0.0000
    1GR    C169  169   1.276   0.000   1.900  0.0000  0.0000  0.0000
    1GR    C170  170   1.418   0.000   1.900  0.0000  0.0000  0.0000
    1GR    C171  171   1.489   0.123   1.900  0.0000  0.0000  0.0000
    1GR    C172  172   1.631   0.123   1.900  0.0000  0.0000  0.0000
    1GR    C173  173   1.276   0.246   1.900  0.0000  0.0000  0.0000
    1GR    C174  174   1.418   0.246   1.900  0.0000  0.0000  0.0000
    1GR    C175  175   1.489   0.368   1.900  0.0000  0.0000  0.0000
    1GR    C176  176   1.631   0.368   1.900  0.0000  0.0000  0.0000
    1GR    C177  177   1.276   0.491   1.900  0.0000  0.0000  0.0000
    1GR    C178  178   1.418   0.491   1.900  0.0000  0.0000  0.0000
    1GR    C179  179   1.489   0.614   1.900  0.0000  0.0000  0.0000
    1GR    C180  180   1.631   0.614   1.900  0.0000  0.0000  0.0000
    1GR    C181  181   1.276   0.737   1.900  0.0000  0.0000  0.0000
    1GR    C182  182   1.418   0.737   1.900  0.0000  0.0000  0.0000
    1GR    C183  183   1.489   0.860   1.900  0.0000  0.0000  0.0000
    1GR    C184  184   1.631   0.860   1.900  0.0000  0.0000  0.0000
    1GR    C185  185   1.276   0.982   1.900  0.0000  0.0000  0.0000
    1GR    C186  186   1.418   0.982   1.900  0.0000  0.0000  0.0000
    1GR    C187  187   1.489   1.105   1.900  0.0000  0.0000  0.0000
    1GR    C188  188   1.631   1.105   1.900  0.0000  0.0000  0.0000
    1GR    C189  189   1.276   1.228   1.900  0.0000  0.0000  0.0000
    1GR    C190  190   1.418   1.228   1.900  0.0000  0.0000  0.0000
    1GR    C191  191   1.489   1.351   1.900  0.0000  0.0000  0.0000
    1GR    C192  192   1.631   1.351   1.900  0.0000  0.0000  0.0000
    1GR    C193  193   1.276   1.474   1.900  0.0000  0.0000  0.0000
    1GR    C194  194   1.418   1.474   1.900  0.0000  0.0000  0.0000
    1GR    C195  195   1.489   1.596   1.900  0.0000  0.0000  0.0000
    1GR    C196  196   1.631   1.596   1.900  0.0000  0.0000  0.0000
    1GR    C197  197   1.276   1.719   1.900  0.0000  0.0000  0.0000
    1GR    C198  198   1.418   1.719   1.900  0.0000  0.0000  0.0000
    1GR    C199  199   1.489   1.842   1.900  0.0000  0.0000  0.0000
    1GR    C200  200   1.631   1.842   1.900  0.0000  0.0000  0.0000
    1GR    C201  201   1.276   1.965   1.900  0.0000  0.0000  0.0000
    1GR    C202  202   1.418   1.965   1.900  0.0000  0.0000  0.0000
    1GR    C203  203   1.489   2.088   1.900  0.0000  0.0000  0.0000
    1GR    C204  204   1.631   2.088   1.900  0.0000  0.0000  0.0000
    1GR    C205  205   1.276   2.210   1.900  0.0000  0.0000  0.0000
    1GR    C206  206   1.418   2.210   1.900  0.0000  0.0000  0.0000
    1GR    C207  207   1.489   2.333   1.900  0.0000  0.0000  0.0000
    1GR    C208  208   1.631   2.333   1.900  0.0000  0.0000  0.0000
    1GR    C209  209   1.276   2.456   1.900  0.0000  0.0000  0.0000
    1GR    C210  210   1.418   2.456   1.900  0.0000  0.0000  0.0000
    1GR    C211  211   1.489   2.579   1.900  0.0000  0.0000  0.0000
    1GR    C212  212   1.631   2.579   1.900  0.0000  0.0000  0.0000
    1GR    C213  213   1.276   2.702   1.900  0.0000  0.0000  0.0000
    1GR    C214  214   1.418   2.702   1.900  0.0000  0.0000  0.0000
    1GR    C215  215   1.489   2.824   1.900  0.0000  0.0000  0.0000
    1GR    C216  216   1.631   2.824   1.900  0.0000  0.0000  0.0000
    1GR    C217  217   1.276   2.947   1.900  0.0000  0.0000  0.0000
    1GR    C218  218   1.418   2.947   1.900  0.0000  0.0000  0.0000
    1GR    C219  219   1.489   3.070   1.900  0.0000  0.0000  0.0000
    1GR    C220  220   1.631   3.070   1.900  0.0000  0.0000  0.0000
    1GR    C221  221   1.276   3.193   1.900  0.0000  0.0000  0.0000
    1GR    C222  222   1.418   3.193   1.900  0.0000  0.0000  0.0000
    1GR    C223  223   1.489   3.316   1.900  0.0000  0.0000  0.0000
    1GR    C224  224   1.631   3.316   1.900  0.0000  0.0000  0.0000
    1GR    C225  225   1.702   0.000   1.900  0.0000  0.0000  0.0000
    1GR    C226  226   1.843   0.000   1.900  0.0000  0.0000  0.0000
    1GR    C227  227   1.914   0.123   1.900  0.0000  0.0000  0.0000
    1GR    C228  228   2.056   0.123   1.900  0.0000  0.0000  0.0000
    1GR    C229  229   1.702   0.246   1.900  0.0000  0.0000  0.0000
    1GR    C230  230   1.843   0.246   1.900  0.0000  0.0000  0.0000
    1GR    C231  231   1.914   0.368   1.900  0.0000  0.0000  0.0000
    1GR    C232  232   2.056   0.368   1.900  0.0000  0.0000  0.0000
    1GR    C233  233   1.702   0.491   1.900  0.0000  0.0000  0.0000
    1GR    C234  234   1.843   0.491   1.900  0.0000  0.0000  0.0000
    1GR    C235  235   1.914   0.614   1.900  0.0000  0.0000  0.0000
    1GR    C236  236   2.056   0.614   1.900  0.0000  0.0000  0.0000
    1GR    C237  237   1.702   0.737   1.900  0.0000  0.0000  0.0000
    1GR    C238  238   1.843   0.737   1.900  0.0000  0.0000  0.0000
    1GR    C239  239   1.914   0.860   1.900  0.0000  0.0000  0.0000
    1GR    C240  240   2.056   0.860   1.900  0.0000  0.0000  0.0000
    1GR    C241  241   1.702   0.982   1.900  0.0000  0.0000  0.0000
    1GR    C242  242   1.843   0.982   1.900  0.0000  0.0000  0.0000
    1GR    C243  243   1.914   1.105   1.900  0.0000  0.0000  0.0000
    1GR    C244  244   2.056   1.105   1.900  0.0000  0.0000  0.0000
    1GR    C245  245   1.702   1.228   1.900  0.0000  0.0000  0.0000
    1GR    C246  246   1.843   1.228   1.900  0.0000  0.0000  0.0000
    1GR    C247  247   1.914   1.351   1.900  0.0000  0.0000  0.0000
    1GR    C248  248   2.056   1.351   1.900  0.0000  0.0000  0.0000
    1GR    C249  249   1.702   1.474   1.900  0.0000  0.0000  0.0000
    1GR    C250  250   1.843   1.474   1.900  0.0000  0.0000  0.0000
    1GR    C251  251   1.914   1.596   1.900  0.0000  0.0000  0.0000
    1GR    C252  252   2.056   1.596   1.900  0.0000  0.0000  0.0000
    1GR    C253  253   1.702   1.719   1.900  0.0000  0.0000  0.0000
    1GR    C254  254   1.843   1.719   1.900  0.0000  0.0000  0.0000
    1GR    C255  255   1.914   1.842   1.900  0.0000  0.0000  0.0000
    1GR    C256  256   2.056   1.842   1.900  0.0000  0.0000  0.0000
    1GR    C257  257   1.702   1.965   1.900  0.0000  0.0000  0.0000
    1GR    C258  258   1.843   1.965   1.900  0.0000  0.0000  0.0000
    1GR    C259  259   1.914   2.088   1.900  0.0000  0.0000  0.0000
    1GR    C260  260   2.056   2.088   1.900  0.0000  0.0000  0.0000
    1GR    C261  261   1.702   2.210   1.900  0.0000  0.0000  0.0000
    1GR    C262  262   1.843   2.210   1.900  0.0000  0.0000  0.0000
    1GR    C263  263   1.914   2.333   1.900  0.0000  0.0000  0.0000
    1GR    C264  264   2.056   2.333   1.900  0.0000  0.0000  0.0000
    1GR    C265  265   1.702   2.456   1.900  0.0000  0.0000  0.0000
    1GR    C266  266   1.843   2.456   1.900  0.0000  0.0000  0.0000
    1GR    C267  267   1.914   2.579   1.900  0.0000  0.0000  0.0000
    1GR    C268  268   2.056   2.579   1.900  0.0000  0.0000  0.0000
    1GR    C269  269   1.702   2.702   1.900  0.0000  0.0000  0.0000
    1GR    C270  270   1.843   2.702   1.900  0.0000  0.0000  0.0000
    1GR    C271  271   1.914   2.824   1.900  0.0000  0.0000  0.0000
    1GR    C272  272   2.056   2.824   1.900  0.0000  0.0000  0.0000
    1GR    C273  273   1.702   2.947   1.900  0.0000  0.0000  0.0000
    1GR    C274  274   1.843   2.947   1.900  0.0000  0.0000  0.0000
    1GR    C275  275   1.914   3.070   1.900  0.0000  0.0000  0.0000
    1GR    C276  276   2.056   3.070   1.900  0.0000  0.0000  0.0000
    1GR    C277  277   1.702   3.193   1.900  0.0000  0.0000  0.0000
    1GR    C278  278   1.843   3.193   1.900  0.0000  0.0000  0.0000
    1GR    C279  279   1.914   3.316   1.900  0.0000  0.0000  0.0000
    1GR    C280  280   2.056   3.316   1.900  0.0000  0.0000  0.0000
    1GR    C281  281   2.127   0.000   1.900  0.0000  0.0000  0.0000
    1GR    C282  282   2.269   0.000   1.900  0.0000  0.0000  0.0000
    1GR    C283  283   2.340   0.123   1.900  0.0000  0.0000  0.0000
    1GR    C284  284   2.481   0.123   1.900  0.0000  0.0000  0.0000
    1GR    C285  285   2.127   0.246   1.900  0.0000  0.0000  0.0000
    1GR    C286  286   2.269   0.246   1.900  0.0000  0.0000  0.0000
    1GR    C287  287   2.340   0.368   1.900  0.0000  0.0000  0.0000
    1GR    C288  288   2.481   0.368   1.900  0.0000  0.0000  0.0000
    1GR    C289  289   2.127   0.491   1.900  0.0000  0.0000  0.0000
    1GR    C290  290   2.269   0.491   1.900  0.0000  0.0000  0.0000
    1GR    C291  291   2.340   0.614   1.900  0.0000  0.0000  0.0000
    1GR    C292  292   2.481   0.614   1.900  0.0000  0.0000  0.0000
    1GR    C293  293   2.127   0.737   1.900  0.0000  0.0000  0.0000
    1GR    C294  294   2.269   0.737   1.900  0.0000  0.0000  0.0000
    1GR    C295  295   2.340   0.860   1.900  0.0000  0.0000  0.0000
    1GR    C296  296   2.481   0.860   1.900  0.0000  0.0000  0.0000
    1GR    C297  297   2.127   0.982   1.900  0.0000  0.0000  0.0000
    1GR    C298  298   2.269   0.982   1.900  0.0000  0.0000  0.0000
    1GR    C299  299   2.340   1.105   1.900  0.0000  0.0000  0.0000
    1GR    C300  300   2.481   1.105   1.900  0.0000  0.0000  0.0000
    1GR    C301  301   2.127   1.228   1.900  0.0000  0.0000  0.0000
    1GR    C302  302   2.269   1.228   1.900  0.0000  0.0000  0.0000
    1GR    C303  303   2.340   1.351   1.900  0.0000  0.0000  0.0000
    1GR    C304  304   2.481   1.351   1.900  0.0000  0.0000  0.0000
    1GR    C305  305   2.127   1.474   1.900  0.0000  0.0000  0.0000
    1GR    C306  306   2.269   1.474   1.900  0.0000  0.0000  0.0000
    1GR    C307  307   2.340   1.596   1.900  0.0000  0.0000  0.0000
    1GR    C308  308   2.481   1.596   1.900  0.0000  0.0000  0.0000
    1GR    C309  309   2.127   1.719   1.900  0.0000  0.0000  0.0000
    1GR    C310  310   2.269   1.719   1.900  0.0000  0.0000  0.0000
    1GR    C311  311   2.340   1.842   1.900  0.0000  0.0000  0.0000
    1GR    C312  312   2.481   1.842   1.900  0.0000  0.0000  0.0000
    1GR    C313  313   2.127   1.965   1.900  0.0000  0.0000  0.0000
    1GR    C314  314   2.269   1.965   1.900  0.0000  0.0000  0.0000
    1GR    C315  315   2.340   2.088   1.900  0.0000  0.0000  0.0000
    1GR    C316  316   2.481   2.088   1.900  0.0000  0.0000  0.0000
    1GR    C317  317   2.127   2.210   1.900  0.0000  0.0000  0.0000
    1GR    C318  318   2.269   2.210   1.900  0.0000  0.0000  0.0000
    1GR    C319  319   2.340   2.333   1.900  0.0000  0.0000  0.0000
    1GR    C320  320   2.481   2.333   1.900  0.0000  0.0000  0.0000
    1GR    C321  321   2.127   2.456   1.900  0.0000  0.0000  0.0000
    1GR    C322  322   2.269   2.456   1.900  0.0000  0.0000  0.0000
    1GR    C323  323   2.340   2.579   1.900  0.0000  0.0000  0.0000
    1GR    C324  324   2.481   2.579   1.900  0.0000  0.0000  0.0000
    1GR    C325  325   2.127   2.702   1.900  0.0000  0.0000  0.0000
    1GR    C326  326   2.269   2.702   1.900  0.0000  0.0000  0.0000
    1GR    C327  327   2.340   2.824   1.900  0.0000  0.0000  0.0000
    1GR    C328  328   2.481   2.824   1.900  0.0000  0.0000  0.0000
    1GR    C329  329   2.127   2.947   1.900  0.0000  0.0000  0.0000
    1GR    C330  330   2.269   2.947   1.900  0.0000  0.0000  0.0000
    1GR    C331  331   2.340   3.070   1.900  0.0000  0.0000  0.0000
    1GR    C332  332   2.481   3.070   1.900  0.0000  0.0000  0.0000
    1GR    C333  333   2.127   3.193   1.900  0.0000  0.0000  0.0000
    1GR    C334  334   2.269   3.193   1.900  0.0000  0.0000  0.0000
    1GR    C335  335   2.340   3.316   1.900  0.0000  0.0000  0.0000
    1GR    C336  336   2.481   3.316   1.900  0.0000  0.0000  0.0000
    1GR    C337  337   2.552   0.000   1.900  0.0000  0.0000  0.0000
    1GR    C338  338   2.694   0.000   1.900  0.0000  0.0000  0.0000
    1GR    C339  339   2.765   0.123   1.900  0.0000  0.0000  0.0000
    1GR    C340  340   2.907   0.123   1.900  0.0000  0.0000  0.0000
    1GR    C341  341   2.552   0.246   1.900  0.0000  0.0000  0.0000
    1GR    C342  342   2.694   0.246   1.900  0.0000  0.0000  0.0000
    1GR    C343  343   2.765   0.368   1.900  0.0000  0.0000  0.0000
    1GR    C344  344   2.907   0.368   1.900  0.0000  0.0000  0.0000
    1GR    C345  345   2.552   0.491   1.900  0.0000  0.0000  0.0000
    1GR    C346  346   2.694   0.491   1.900  0.0000  0.0000  0.0000
    1GR    C347  347   2.765   0.614   1.900  0.0000  0.0000  0.0000
    1GR    C348  348   2.907   0.614   1.900  0.0000  0.0000  0.0000
    1GR    C349  349   2.552   0.737   1.900  0.0000  0.0000  0.0000
    1GR    C350  350   2.694   0.737   1.900  0.0000  0.0000  0.0000
    1GR    C351  351   2.765   0.860   1.900  0.0000  0.0000  0.0000
    1GR    C352  352   2.907   0.860   1.900  0.0000  0.0000  0.0000
    1GR    C353  353   2.552   0.982   1.900  0.0000  0.0000  0.0000
    1GR    C354  354   2.694   0.982   1.900  0.0000  0.0000  0.0000
    1GR    C355  355   2.765   1.105   1.900  0.0000  0.0000  0.0000
    1GR    C356  356   2.907   1.105   1.900  0.0000  0.0000  0.0000
    1GR    C357  357   2.552   1.228   1.900  0.0000  0.0000  0.0000
    1GR    C358  358   2.694   1.228   1.900  0.0000  0.0000  0.0000
    1GR    C359  359   2.765   1.351   1.900  0.0000  0.0000  0.0000
    1GR    C360  360   2.907   1.351   1.900  0.0000  0.0000  0.0000
    1GR    C361  361   2.552   1.474   1.900  0.0000  0.0000  0.0000
    1GR    C362  362   2.694   1.474   1.900  0.0000  0.0000  0.0000
    1GR    C363  363   2.765   1.596   1.900  0.0000  0.0000  0.0000
    1GR    C364  364   2.907   1.596   1.900  0.0000  0.0000  0.0000
    1GR    C365  365   2.552   1.719   1.900  0.0000  0.0000  0.0000
    1GR    C366  366   2.694   1.719   1.900  0.0000  0.0000  0.0000
    1GR    C367  367   2.765   1.842   1.900  0.0000  0.0000  0.0000
    1GR    C368  368   2.907   1.842   1.900  0.0000  0.0000  0.0000
    1GR    C369  369   2.552   1.965   1.900  0.0000  0.0000  0.0000
    1GR    C370  370   2.694   1.965   1.900  0.0000  0.0000  0.0000
    1GR    C371  371   2.765   2.088   1.900  0.0000  0.0000  0.0000
    1GR    C372  372   2.907   2.088   1.900  0.0000  0.0000  0.0000
    1GR    C373  373   2.552   2.210   1.900  0.0000  0.0000  0.0000
    1GR    C374  374   2.694   2.210   1.900  0.0000  0.0000  0.0000
    1GR    C375  375   2.765   2.333   1.900  0.0000  0.0000  0.0000
    1GR    C376  376   2.907   2.333   1.900  0.0000  0.0000  0.0000
    1GR    C377  377   2.552   2.456   1.900  0.0000  0.0000  0.0000
    1GR    C378  378   2.694   2.456   1.900  0.0000  0.0000  0.0000
    1GR    C379  379   2.765   2.579   1.900  0.0000  0.0000  0.0000
    1GR    C380  380   2.907   2.579   1.900  0.0000  0.0000  0.0000
    1GR    C381  381   2.552   2.702   1.900  0.0000  0.0000  0.0000
    1GR    C382  382   2.694   2.702   1.900  0.0000  0.0000  0.0000
    1GR    C383  383   2.765   2.824   1.900  0.0000  0.0000  0.0000
    1GR    C384  384   2.907   2.824   1.900  0.0000  0.0000  0.0000
    1GR    C385  385   2.552   2.947   1.900  0.0000  0.0000  0.0000
    1GR    C386  386   2.694   2.947   1.900  0.0000  0.0000  0.0000
    1GR    C387  387   2.765   3.070   1.900  0.0000  0.0000  0.0000
    1GR    C388  388   2.907   3.070   1.900  0.0000  0.0000  0.0000
    1GR    C389  389   2.552   3.193   1.900  0.0000  0.0000  0.0000
    1GR    C390  390   2.694   3.193   1.900  0.0000  0.0000  0.0000
    1GR    C391  391   2.765   3.316   1.900  0.0000  0.0000  0.0000
    1GR    C392  392   2.907   3.316   1.900  0.0000  0.0000  0.0000
    1GR    C393  393   2.978   0.000   1.900  0.0000  0.0000  0.0000
    1GR    C394  394   3.120   0.000   1.900  0.0000  0.0000  0.0000
    1GR    C395  395   3.191   0.123   1.900  0.0000  0.0000  0.0000
    1GR    C396  396   3.332   0.123   1.900  0.0000  0.0000  0.0000
    1GR    C397  397   2.978   0.246   1.900  0.0000  0.0000  0.0000
    1GR    C398  398   3.120   0.246   1.900  0.0000  0.0000  0.0000
    1GR    C399  399   3.191   0.368   1.900  0.0000  0.0000  0.0000
    1GR    C400  400   3.332   0.368   1.900  0.0000  0.0000  0.0000
    1GR    C401  401   2.978   0.491   1.900  0.0000  0.0000  0.0000
    1GR    C402  402   3.120   0.491   1.900  0.0000  0.0000  0.0000
    1GR    C403  403   3.191   0.614   1.900  0.0000  0.0000  0.0000
    1GR    C404  404   3.332   0.614   1.900  0.0000  0.0000  0.0000
    1GR    C405  405   2.978   0.737   1.900  0.0000  0.0000  0.0000
    1GR    C406  406   3.120   0.737   1.900  0.0000  0.0000  0.0000
    1GR    C407  407   3.191   0.860   1.900  0.0000  0.0000  0.0000
    1GR    C408  408   3.332   0.860   1.900  0.0000  0.0000  0.0000
    1GR    C409  409   2.978   0.982   1.900  0.0000  0.0000  0.0000
    1GR    C410  410   3.120   0.982   1.900  0.0000  0.0000  0.0000
    1GR    C411  411   3.191   1.105   1.900  0.0000  0.0000  0.0000
    1GR    C412  412   3.332   1.105   1.900  0.0000  0.0000  0.0000
    1GR    C413  413   2.978   1.228   1.900  0.0000  0.0000  0.0000
    1GR    C414  414   3.120   1.228   1.900  0.0000  0.0000  0.0000
    1GR    C415  415   3.191   1.351   1.900  0.0000  0.0000  0.0000
    1GR    C416  416   3.332   1.351   1.900  0.0000  0.0000  0.0000
    1GR    C417  417   2.978   1.474   1.900  0.0000  0.0000  0.0000
    1GR    C418  418   3.120   1.474   1.900  0.0000  0.0000  0.0000
    1GR    C419  419   3.191   1.596   1.900  0.0000  0.0000  0.0000
    1GR    C420  420   3.332   1.596   1.900  0.0000  0.0000  0.0000
    1GR    C421  421   2.978   1.719   1.900  0.0000  0.0000  0.0000
    1GR    C422  422   3.120   1.719   1.900  0.0000  0.0000  0.0000
    1GR    C423  423   3.191   1.842   1.900  0.0000  0.0000  0.0000
    1GR    C424  424   3.332   1.842   1.900  0.0000  0.0000  0.0000
    1GR    C425  425   2.978   1.965   1.900  0.0000  0.0000  0.0000
    1GR    C426  426   3.120   1.965   1.900  0.0000  0.0000  0.0000
    1GR    C427  427   3.191   2.088   1.900  0.0000  0.0000  0.0000
    1GR    C428  428   3.332   2.088   1.900  0.0000  0.0000  0.0000
    1GR    C429  429   2.978   2.210   1.900  0.0000  0.0000  0.0000
    1GR    C430  430   3.120   2.210   1.900  0.0000  0.0000  0.0000
    1GR    C431  431   3.191   2.333   1.900  0.0000  0.0000  0.0000
    1GR    C432  432   3.332   2.333   1.900  0.0000  0.0000  0.0000
    1GR    C433  433   2.978   2.456   1.900  0.0000  0.0000  0.0000
    1GR    C434  434   3.120   2.456   1.900  0.0000  0.0000  0.0000
    1GR    C435  435   3.191   2.579   1.900  0.0000  0.0000  0.0000
    1GR    C436  436   3.332   2.579   1.900  0.0000  0.0000  0.0000
    1GR    C437  437   2.978   2.702   1.900  0.0000  0.0000  0.0000
    1GR    C438  438   3.120   2.702   1.900  0.0000  0.0000  0.0000
    1GR    C439  439   3.191   2.824   1.900  0.0000  0.0000  0.0000
    1GR    C440  440   3.332   2.824   1.900  0.0000  0.0000  0.0000
    1GR    C441  441   2.978   2.947   1.900  0.0000  0.0000  0.0000
    1GR    C442  442   3.120   2.947   1.900  0.0000  0.0000  0.0000
    1GR    C443  443   3.191   3.070   1.900  0.0000  0.0000  0.0000
    1GR    C444  444   3.332   3.070   1.900  0.0000  0.0000  0.0000
    1GR    C445  445   2.978   3.193   1.900  0.0000  0.0000  0.0000
    1GR    C446  446   3.120   3.193   1.900  0.0000  0.0000  0.0000
    1GR    C447  447   3.191   3.316   1.900  0.0000  0.0000  0.0000
    1GR    C448  448   3.332   3.316   1.900  0.0000  0.0000  0.0000
    2PMMA   CX1  449   1.261   0.315   2.263  0.1144 -0.3047  0.9175
    2PMMA   CA2  450   1.393   0.286   2.337 -0.2011  0.0286  0.2426
    2PMMA   CX3  451   1.512   0.358   2.268  0.0064  1.3837  0.1269
    2PMMA    C4  452   1.351   0.355   2.467  0.5111 -0.0454  0.3605
    2PMMA    O5  453   1.300   0.304   2.566  0.0452  0.0285 -0.0088
    2PMMA   OS6  454   1.381   0.488   2.466 -0.4116 -0.5210 -0.5363
    2PMMA   CE7  455   1.370   0.558   2.591 -0.0997 -0.4290  0.3861
    2PMMA   CX8  456   1.414   0.132   2.355 -0.1824  0.2863 -0.4287
    2PMMA   CA9  457   1.554   0.066   2.401  0.3534  0.0355 -0.2401
    2PMMA  CX10  458   1.672   0.075   2.300  0.1330  0.4993  0.1331
    2PMMA   C11  459   1.516  -0.088   2.414  0.1686  0.5614  0.1976
    2PMMA   O12  460   1.541  -0.173   2.330  0.4796  0.0967  0.4300
    2PMMA  OS13  461   1.459  -0.125   2.529 -0.0364  0.2903 -0.0049
    2PMMA  CE14  462   1.439  -0.258   2.572  1.1755  0.1118  0.3084
    2PMMA  CX15  463   1.581   0.133   2.539 -0.0533 -0.3153  0.7928
    2PMMA  CA16  464   1.705   0.107   2.634  0.2247  0.6884  0.4445
    2PMMA  CX17  465   1.675   0.183   2.768  0.2250 -0.1119  0.6704
    2PMMA   C18  466   1.714  -0.044   2.673 -0.5048  0.0159  0.5436
    2PMMA   O19  467   1.713  -0.091   2.785  0.5992  0.0621 -0.1843
    2PMMA  OS20  468   1.760  -0.114   2.560 -0.3636 -0.6434  0.2102
    2PMMA  CE21  469   1.804  -0.249   2.562 -0.2070  0.3072 -0.4714
    2PMMA  CX22  470   1.828   0.167   2.567 -0.6082  0.7633  0.3357
    2PMMA  CA23  471   1.969   0.177   2.653  1.3971  0.2007 -0.4608
    2PMMA  CX24  472   2.007   0.039   2.719  0.8838 -0.0551  0.3581
    2PMMA   C25  473   1.962   0.301   2.740 -0.7150 -0.4379  0.0770
    2PMMA   O26  474   1.923   0.409   2.703 -0.2184 -0.0152  0.1510
    2PMMA  OS27  475   2.001   0.277   2.870 -0.0570  0.4490 -0.1417
    2PMMA  CE28  476   2.011   0.381   2.968 -0.0815  0.2016  0.2412
    2PMMA  CX29  477   2.077   0.196   2.550  0.6803  0.2873 -0.7911
    2PMMA  HC30  478   1.223   0.417   2.269 -0.2226 -0.4313  0.9572
    2PMMA  HC31  479   1.262   0.281   2.159  0.2468 -1.5999  1.3302
    2PMMA  HC32  480   1.177   0.254   2.300  0.0555 -1.1464 -0.5801
    2PMMA  HC33  481   1.595   0.395   2.330  0.4948  0.7917 -0.1739
    2PMMA  HC34  482   1.481   0.444   2.208  0.4753  1.5427  0.1065
    2PMMA  HC35  483   1.558   0.285   2.201 -1.6686  0.3633  0.0619
    2PMMA  H136  484   1.266   0.545   2.623 -0.8248  0.2695 -1.5694
    2PMMA  H137  485   1.393   0.665   2.589 -1.2764 -0.1713 -0.4504
    2PMMA  H138  486   1.443   0.521   2.663  0.0661  1.5415  1.2571
    2PMMA  HC39  487   1.332   0.083   2.410  0.8712 -0.8535  0.1384
    2PMMA  HC40  488   1.397   0.101   2.252  0.3915 -2.9579  0.3883
    2PMMA  HC41  489   1.635   0.087   2.197  0.7161  2.4489  0.1391
    2PMMA  HC42  490   1.735   0.163   2.314  1.0485 -0.4215  2.0109
    2PMMA  HC43  491   1.740  -0.011   2.298 -0.2690  0.1240  1.8858
    2PMMA  H144  492   1.378  -0.314   2.502  1.8381 -1.6187  1.0990
    2PMMA  H145  493   1.393  -0.265   2.671  0.3056  2.7441  0.1290
    2PMMA  H146  494   1.536  -0.306   2.565  0.8247 -0.9899  2.6273
    2PMMA  HC47  495   1.577   0.243   2.531  0.2529 -0.1394  2.7043
    2PMMA  HC48  496   1.487   0.122   2.594 -0.8391  0.0992 -0.4453
    2PMMA  HC49  497   1.681   0.292   2.760  0.9128 -0.1014  1.2283
    2PMMA  HC50  498   1.753   0.166   2.843 -0.0237  1.4498  1.2953
    2PMMA  HC51  499   1.581   0.147   2.810 -0.1977  0.2947  0.0810
    2PMMA  H152  500   1.729  -0.306   2.507 -0.1991  0.0141 -0.1793
    2PMMA  H153  501   1.818  -0.286   2.664  0.6446  1.2406 -0.2443
    2PMMA  H154  502   1.901  -0.259   2.514 -0.6828 -1.8711 -1.0471
    2PMMA  HC55  503   1.858   0.102   2.484  1.0304  1.3998  0.4221
    2PMMA  HC56  504   1.815   0.267   2.525  0.6560  0.8862  0.2271
    2PMMA  HC57  505   2.106   0.020   2.762  0.6279  1.2927  1.6040
    2PMMA  HC58  506   1.942   0.028   2.807  1.3239  2.5155  1.0659
    2PMMA  HC59  507   1.985  -0.048   2.657  1.1959  0.4504 -0.4675
    2PMMA  H160  508   2.061   0.467   2.923  1.9373 -0.5454  0.9905
    2PMMA  H161  509   2.064   0.345   3.057 -0.9977  2.0145  1.5573
    2PMMA  H162  510   1.907   0.399   2.995  0.0120 -1.2525  1.6405
    2PMMA  HC63  511   2.059   0.124   2.469 -0.6933 -0.2047 -0.0766
    2PMMA  HC64  512   2.077   0.296   2.507  1.6724  0.5648 -0.1394
    2PMMA  HC65  513   2.177   0.167   2.581 -0.1060 -1.9451 -0.2002
    3DMF     C1  514   3.193   1.301   1.222  0.4097 -0.7825  0.5933
    3DMF     N1  515   3.235   1.389   1.111 -0.0118 -0.3098 -0.2251
    3DMF     C2  516   3.208   1.346   0.972  0.3945 -0.4072  0.3055
    3DMF     C3  517   3.323   1.491   1.128  0.0487  0.1646  0.6711
    3DMF     O1  518   3.357   1.530   1.239 -0.2524 -0.0702  0.0142
    3DMF     H1  519   3.252   1.209   1.210  0.6909 -0.4848 -0.3234
    3DMF     H2  520   3.086   1.279   1.211 -0.0478  2.2469 -1.4078
    3DMF     H3  521   3.217   1.344   1.320  0.0808  1.8479 -0.4515
    3DMF     H4  522   3.101   1.325   0.965  0.5122 -1.1538  0.7927
    3DMF     H5  523   3.267   1.258   0.944 -0.0576 -0.0791 -1.7425
    3DMF     H6  524   3.234   1.423   0.897 -1.7647 -2.1392 -2.3247
    3DMF     H7  525   3.366   1.529   1.034 -1.9863  1.6303  0.2965
    4DMF     C1  526   2.053   2.787   0.679 -0.1095  0.1024  0.0573
    4DMF     N1  527   2.101   2.650   0.705  0.1435  0.1377 -0.4835
    4DMF     C2  528   2.162   2.617   0.840 -0.1954  0.4213 -0.4409
    4DMF     C3  529   2.050   2.544   0.625 -0.1479 -0.1330  0.1031
    4DMF     O1  530   1.981   2.566   0.527  0.1154  0.2347  0.3005
    4DMF     H1  531   1.995   2.809   0.770 -1.4105  0.7830 -0.9200
    4DMF     H2  532   1.981   2.795   0.597  0.2140 -0.4510 -0.2799
    4DMF     H3  533   2.138   2.855   0.665 -0.3691 -0.0406 -2.3787
    4DMF     H4  534   2.246   2.548   0.827  0.8736  1.1471  2.2457
    4DMF     H5  535   2.091   2.575   0.912 -1.7974  3.0885 -0.3778
    4DMF     H6  536   2.209   2.707   0.882  0.6348 -0.3312  0.2704
    4DMF     H7  537   2.081   2.445   0.664 -2.4559 -1.1363 -0.4815
    5DMF     C1  538   2.267   1.508   3.477  0.3227 -0.4376  0.1808
    5DMF     N1  539   2.130   1.546   3.521 -0.1227  0.2246  0.6770
    5DMF     C2  540   2.130   1.608   3.656 -0.2027 -0.0282  0.0998
    5DMF     C3  541   2.013   1.536   3.443  0.5101 -0.1143  0.0433
    5DMF     O1  542   2.004   1.507   3.324 -0.2699  0.3621 -0.4382
    5DMF     H1  543   2.326   1.468   3.560  1.4830 -1.8197 -1.2669
    5DMF     H2  544   2.311   1.594   3.426 -0.6914  0.6007  1.0361
    5DMF     H3  545   2.253   1.431   3.399  0.0213 -0.5171  0.3109
    5DMF     H4  546   2.161   1.540   3.736 -0.5708  0.4618  0.6628
    5DMF     H5  547   2.041   1.667   3.683  0.1479  0.0372  1.1395
    5DMF     H6  548   2.213   1.679   3.651  0.3743 -0.6528  0.7619
    5DMF     H7  549   1.919   1.558   3.498 -1.2117 -2.3818 -1.8677
    6DMF     C1  550   1.744   3.418   0.262 -0.5375  1.0267 -0.3614
    6DMF     N1  551   1.823   3.536   0.275 -0.6667 -0.2904  0.1479
    6DMF     C2  552   1.817   3.626   0.156  0.4039  0.0537 -0.0051
    6DMF     C3  553   1.894   3.573   0.392  0.1815 -0.3497  0.2474
    6DMF     O1  554   1.912   3.492   0.483  0.4605 -0.1141  0.3079
    6DMF     H1  555   1.667   3.422   0.340  1.5416 -1.2529  1.8971
    6DMF     H2  556   1.791   3.323   0.292  0.2803  1.9378  1.3275
    6DMF     H3  557   1.697   3.395   0.166 -0.2849  0.4055 -0.3369
    6DMF     H4  558   1.884   3.713   0.161 -0.7105  0.8336  1.7296
    6DMF     H5  559   1.718   3.674   0.158 -0.6012 -1.8066 -2.4723
    6DMF     H6  560   1.837   3.572   0.063 -0.4237 -2.8656  1.4579
    6DMF     H7  561   1.931   3.676   0.373 -0.1974 -0.2922 -0.1940
    7DMF     C1  562   2.385   1.414   0.391 -0.5767 -0.4435  0.0998
    7DMF     N1  563   2.463   1.410   0.266 -1.0629 -0.1371 -0.3717
    7DMF     C2  564   2.593   1.482   0.247 -0.3037 -0.0808 -0.3309
    7DMF     C3  565   2.389   1.371   0.152  0.6157  0.6943 -0.2313
    7DMF     O1  566   2.277   1.328   0.158 -0.1555  0.2343 -0.3930
    7DMF     H1  567   2.413   1.324   0.447  1.5689  0.1805  0.0866
    7DMF     H2  568   2.276   1.404   0.382 -0.6098  0.0765 -0.1046
    7DMF     H3  569   2.415   1.503   0.448  1.7845 -0.8228 -0.5002
    7DMF     H4  570   2.641   1.494   0.345 -1.1484  2.0007 -0.1289
    7DMF     H5  571   2.575   1.580   0.201  0.0337  0.2542  0.2443
    7DMF     H6  572   2.663   1.431   0.180 -1.1318 -1.6339 -0.0297
    7DMF     H7  573   2.447   1.389   0.060 -0.5321  0.2600 -1.0393
    8DMF     C1  574   0.200   3.432   0.557 -0.2376  0.1566  0.6645
    8DMF     N1  575   0.297   3.490   0.461 -0.0235  0.0579 -0.5848
    8DMF     C2  576   0.247   3.565   0.348  0.2780 -0.4677 -0.8327
    8DMF     C3  577   0.437   3.454   0.471  0.2392  0.0079  0.0538
    8DMF     O1  578   0.478   3.398   0.572 -0.4680 -0.4526  0.3053
    8DMF     H1  579   0.255   3.389   0.641 -1.4231  0.9593  1.8616
    8DMF     H2  580   0.146   3.355   0.501 -0.0238 -0.9189  1.9075
    8DMF     H3  581   0.131   3.507   0.596  0.4000  0.5037  1.1348
    8DMF     H4  582   0.310   3.652   0.330 -0.3640  0.5407  1.6261
    8DMF     H5  583   0.142   3.594   0.359  0.1304 -1.0758 -0.6215
    8DMF     H6  584   0.256   3.502   0.258 -1.2208  0.0656 -1.3873
    8DMF     H7  585   0.497   3.478   0.381  0.7013  0.9510  0.6070
    9DMF     C1  586   1.249   2.333   0.987  0.3805  0.1439 -0.4523
    9DMF     N1  587   1.186   2.195   0.967  0.2986  0.0165  0.6415
    9DMF     C2  588   1.270   2.071   0.983  0.3503 -0.5159  0.0473
    9DMF     C3  589   1.052   2.180   0.943  0.2226 -0.3764 -0.2410
    9DMF     O1  590   0.974   2.272   0.927 -0.3919 -0.5693  0.1308
    9DMF     H1  591   1.190   2.386   1.062  0.8237 -0.5424  0.3875
    9DMF     H2  592   1.258   2.391   0.894 -0.8833 -0.1543 -0.7753
    9DMF     H3  593   1.348   2.316   1.031  0.4342  2.0562  0.2168
    9DMF     H4  594   1.309   2.049   0.883 -1.6681 -1.4523 -0.5763
    9DMF     H5  595   1.213   1.986   1.023 -0.1811 -0.7490 -1.1685
    9DMF     H6  596   1.349   2.104   1.051  0.6891 -1.6873  0.2374
    9DMF     H7  597   1.012   2.078   0.923 -1.0682  0.0566  0.0530
   10DMF     C1  598   0.492   2.555   0.792  0.5907  0.0026 -0.2122
   10DMF     N1  599   0.608   2.480   0.735 -0.1246  0.0367  0.0716
   10DMF     C2  600   0.657   2.358   0.814  0.5468 -0.8022  0.4331
   10DMF     C3  601   0.670   2.526   0.613  0.2924  0.8818 -0.2492
   10DMF     O1  602   0.626   2.621   0.549  0.1484  0.5795  0.7127
   10DMF     H1  603   0.505   2.612   0.885  0.8600 -1.8111  0.8772
   10DMF     H2  604   0.403   2.493   0.804  1.3004 -1.1379 -0.7973
   10DMF     H3  605   0.482   2.641   0.725 -1.2051  0.9937  1.2982
   10DMF     H4  606   0.762   2.337   0.791  0.2844 -1.8999  0.2470
   10DMF     H5  607   0.604   2.271   0.777  0.6705 -0.4768 -0.5091
   10DMF     H6  608   0.646   2.365   0.923 -0.5121  0.0791  0.2788
   10DMF     H7  609   0.754   2.465   0.576 -0.0348  0.8930 -1.0192
   11DMF     C1  610   3.226   1.799   1.068 -0.8778 -0.0957 -0.3126
   11DMF     N1  611   3.216   1.936   1.026  0.8695  0.0613  0.1846
   11DMF     C2  612   3.229   2.045   1.125  0.0810  0.6150  1.1266
   11DMF     C3  613   3.180   1.974   0.895  0.1239 -0.1075 -0.6885
   11DMF     O1  614   3.153   1.889   0.813  0.1907  0.2808 -0.1822
   11DMF     H1  615   3.132   1.747   1.047 -0.3678 -1.8827  1.6602
   11DMF     H2  616   3.258   1.795   1.173 -0.5115  0.5249 -0.3965
   11DMF     H3  617   3.302   1.753   1.004 -1.1941 -0.9650 -0.0723
   11DMF     H4  618   3.133   2.095   1.144  0.6783  2.0146  0.5111
   11DMF     H5  619   3.303   2.118   1.092  1.3394 -0.3486  1.7608
   11DMF     H6  620   3.253   1.989   1.216  2.2449 -2.0861 -1.0340
   11DMF     H7  621   3.187   2.082   0.875 -1.1366  0.1288  0.1347
   12DMF     C1  622   1.864   1.051   1.107 -0.0357 -0.0222 -0.1087
   12DMF     N1  623   1.912   1.104   0.980 -0.3443 -0.3194 -0.4000
   12DMF     C2  624   2.015   1.215   0.978  0.0313 -0.9118  0.0600
   12DMF     C3  625   1.849   1.069   0.858  0.4029  0.2311  0.3906
   12DMF     O1  626   1.773   0.972   0.846 -0.1717 -0.0086 -0.2320
   12DMF     H1  627   1.918   1.100   1.189  0.4595  0.2413 -0.5882
   12DMF     H2  628   1.875   0.942   1.114 -3.1647 -0.4898 -1.4584
   12DMF     H3  629   1.755   1.066   1.115  0.0373  0.9714 -0.8748
   12DMF     H4  630   1.979   1.307   1.026  0.2127 -0.9676  0.3011
   12DMF     H5  631   2.045   1.231   0.874 -2.5095  2.1053 -0.2740
   12DMF     H6  632   2.107   1.181   1.027  0.0290  0.7160  1.2290
   12DMF     H7  633   1.887   1.136   0.779  0.9593 -0.0731  0.3990
   13DMF     C1  634   2.397   1.167   3.317  0.1965 -0.5854  0.3298
   13DMF     N1  635   2.254   1.168   3.351 -0.2115  0.1784 -0.1776
   13DMF     C2  636   2.162   1.203   3.234  0.3246  0.7824 -0.8497
   13DMF     C3  637   2.201   1.182   3.479 -0.1939 -0.1224 -0.1535
   13DMF     O1  638   2.268   1.212   3.577 -0.1420  0.5272 -0.1276
   13DMF     H1  639   2.418   1.114   3.224 -0.7621  0.5536 -0.5615
   13DMF     H2  640   2.445   1.111   3.398 -0.7307  1.5765  2.4786
   13DMF     H3  641   2.424   1.273   3.302  0.5678 -1.1975 -3.7422
   13DMF     H4  642   2.175   1.129   3.155 -3.2148 -1.1118  0.2194
   13DMF     H5  643   2.192   1.303   3.199  0.1964  0.0978 -3.0055
   13DMF     H6  644   2.056   1.219   3.258  0.3173  0.0132 -0.3632
   13DMF     H7  645   2.091   1.188   3.477 -0.1908 -0.2003 -0.9222
   14DMF     C1  646   0.695   0.170   1.498 -0.2348 -0.9139 -0.6443
   14DMF     N1  647   0.614   0.247   1.398  0.1753 -0.0116  0.1223
   14DMF     C2  648   0.599   0.199   1.266  0.5644 -0.1370  0.0151
   14DMF     C3  649   0.547   0.355   1.449 -0.6867  0.6449  0.4012
   14DMF     O1  650   0.554   0.393   1.559  0.5337 -1.0697 -0.6552
   14DMF     H1  651   0.751   0.241   1.559 -1.9755  1.3992 -1.6827
   14DMF     H2  652   0.770   0.106   1.449 -0.3920  0.7966 -3.1992
   14DMF     H3  653   0.625   0.121   1.567 -1.4997  2.1083  0.2784
   14DMF     H4  654   0.608   0.090   1.260  0.4895 -0.2709  2.1602
   14DMF     H5  655   0.668   0.255   1.201 -0.4526  0.3618 -0.6659
   14DMF     H6  656   0.500   0.237   1.235  1.2805  2.3148  0.6526
   14DMF     H7  657   0.484   0.404   1.372  0.0010  2.2454  0.8267
   15DMF     C1  658   2.956   1.692   3.667 -0.0237  0.3068  0.3461
   15DMF     N1  659   2.914   1.615   3.782  0.0424  0.0952  0.0405
   15DMF     C2  660   2.914   1.470   3.771 -0.4147  0.3993 -0.3041
   15DMF     C3  661   2.858   1.682   3.891 -0.1298 -0.2857  0.5852
   15DMF     O1  662   2.845   1.799   3.896 -0.3643  0.1575 -0.0491
   15DMF     H1  663   3.042   1.753   3.699  1.2284 -1.8383  1.1499
   15DMF     H2  664   2.878   1.760   3.631  0.6098  0.3251 -1.0382
   15DMF     H3  665   2.980   1.627   3.582  1.0232 -0.6269  1.3364
   15DMF     H4  666   2.881   1.440   3.671 -0.7703  0.2463 -0.1403
   15DMF     H5  667   2.853   1.427   3.851  1.4550 -0.9862  0.4219
   15DMF     H6  668   3.012   1.422   3.786 -1.9101 -2.7351 -0.2894
   15DMF     H7  669   2.827   1.626   3.982  1.1967  0.3993  1.4691
   16DMF     C1  670   3.013   0.946   2.234 -0.1188  0.0921 -0.2189
   16DMF     N1  671   3.060   1.055   2.316 -0.0699 -0.0045  0.5752
   16DMF     C2  672   3.034   1.201   2.282 -0.4391 -0.7853  0.2053
   16DMF     C3  673   3.141   1.032   2.424 -0.3102  0.7453 -0.1275
   16DMF     O1  674   3.175   0.918   2.450  0.0664 -0.1707 -0.4287
   16DMF     H1  675   2.977   0.862   2.295 -1.4420 -0.2014 -1.3716
   16DMF     H2  676   3.102   0.919   2.175  0.0616  0.8897 -0.3104
   16DMF     H3  677   2.928   0.986   2.177 -0.6998  0.5029  0.9373
   16DMF     H4  678   2.983   1.250   2.365  1.9416 -1.0135  1.8412
   16DMF     H5  679   2.983   1.210   2.185 -0.7098 -1.0208  0.3267
   16DMF     H6  680   3.131   1.253   2.283 -1.0292  0.3268  0.5565
   16DMF     H7  681   3.177   1.118   2.483 -0.6972  0.2358  0.8749
   17DMF     C1  682   0.477   1.508   0.060 -0.4464 -0.0519 -0.3366
   17DMF     N1  683   0.390   1.397   0.019 -0.0781  0.5984  0.1032
   17DMF     C2  684   0.442   1.259   0.031 -0.6016  0.5970 -0.4314
   17DMF     C3  685   0.264   1.417  -0.043  0.0728  0.3563  0.3502
   17DMF     O1  686   0.227   1.530  -0.060  0.2155  0.1832 -0.5362
   17DMF     H1  687   0.522   1.548  -0.031 -2.5007 -1.4961 -2.0230
   17DMF     H2  688   0.570   1.474   0.107  0.4898  1.7770 -0.8255
   17DMF     H3  689   0.428   1.588   0.117 -1.2662 -1.9162  1.6569
   17DMF     H4  690   0.369   1.189  -0.012 -1.3356  0.6255  0.7692
   17DMF     H5  691   0.464   1.224   0.133  1.0166 -1.2480 -1.3721
   17DMF     H6  692   0.543   1.257  -0.014 -0.2412  2.5388  0.2715
   17DMF     H7  693   0.219   1.319  -0.067  1.0556 -0.2767  1.0472
   18DMF     C1  694   3.249   3.244   1.203 -0.2193 -0.0545 -0.3314
   18DMF     N1  695   3.251   3.095   1.216 -0.0675 -0.1215 -0.0765
   18DMF     C2  696   3.125   3.019   1.231  0.7879  0.0130 -0.0651
   18DMF     C3  697   3.372   3.022   1.212 -0.0374 -0.3327  0.6524
   18DMF     O1  698   3.482   3.073   1.214 -0.2540 -0.1120  0.4570
   18DMF     H1  699   3.303   3.271   1.111  0.4765  1.0472  0.3912
   18DMF     H2  700   3.299   3.282   1.292  1.8008 -0.2218 -1.3608
   18DMF     H3  701   3.144   3.273   1.189 -0.4839 -0.5295  0.6737
   18DMF     H4  702   3.143   2.941   1.306  2.7864 -0.7204 -1.2817
   18DMF     H5  703   3.083   2.985   1.135  0.2180 -2.0578  0.8799
   18DMF     H6  704   3.043   3.080   1.271  0.1221  0.5322 -2.1601
   18DMF     H7  705   3.356   2.912   1.214 -2.5351 -0.0516 -1.6003
   19DMF     C1  706   2.153   3.090   1.563  0.6961 -0.0551  0.1267
   19DMF     N1  707   2.185   3.045   1.425  0.1944  0.0374 -0.2443
   19DMF     C2  708   2.287   3.117   1.344  0.6221  0.5069  0.0353
   19DMF     C3  709   2.146   2.921   1.384  0.0614  0.1703 -0.6372
   19DMF     O1  710   2.067   2.850   1.449 -0.0299 -0.0116 -0.0897
   19DMF     H1  711   2.203   3.182   1.597  1.5400 -0.5585  0.2717
   19DMF     H2  712   2.178   3.005   1.629 -0.9359 -0.8030 -0.1906
   19DMF     H3  713   2.046   3.111   1.565  0.6201 -0.4106 -0.1268
   19DMF     H4  714   2.354   3.049   1.290  0.2118 -0.2189  0.4310
   19DMF     H5  715   2.329   3.194   1.409 -2.8520  0.2837  2.7105
   19DMF     H6  716   2.225   3.174   1.274 -1.0586 -0.0896  1.0064
   19DMF     H7  717   2.192   2.886   1.290  2.1131 -1.9896  1.0796
   20DMF     C1  718   3.388   1.176   1.546  0.1635 -0.0973  0.2698
   20DMF     N1  719   3.514   1.246   1.564 -0.4992  0.0220 -1.0011
   20DMF     C2  720   3.515   1.390   1.550  0.4810 -0.3056 -0.3657
   20DMF     C3  721   3.640   1.178   1.586  0.6848 -0.5534  0.5774
   20DMF     O1  722   3.645   1.059   1.602  0.2167  0.2044 -0.4553
   20DMF     H1  723   3.356   1.205   1.445 -1.7707 -0.2570  0.8265
   20DMF     H2  724   3.315   1.195   1.625  0.4189  1.5669  0.1190
   20DMF     H3  725   3.414   1.070   1.535  0.1925 -0.0173 -0.5165
   20DMF     H4  726   3.517   1.403   1.441 -0.4535  0.4112 -0.3068
   20DMF     H5  727   3.604   1.442   1.586  0.0539  0.2573 -0.1104
   20DMF     H6  728   3.419   1.425   1.592 -0.2876  0.9203 -3.0646
   20DMF     H7  729   3.720   1.255   1.592  0.4715 -0.2646 -0.1765
   21DMF     C1  730   2.695   1.737   0.447 -0.1209 -0.3161 -0.3047
   21DMF     N1  731   2.783   1.812   0.543  0.2989 -0.4026 -0.2641
   21DMF     C2  732   2.829   1.942   0.499 -0.0905  0.2083  0.1474
   21DMF     C3  733   2.835   1.746   0.656 -0.0545  0.0733 -0.5918
   21DMF     O1  734   2.823   1.627   0.679  0.3419  0.3567  0.2910
   21DMF     H1  735   2.722   1.758   0.343 -0.4677 -2.9774 -0.9691
   21DMF     H2  736   2.600   1.793   0.444  2.6368  4.6501 -0.3063
   21DMF     H3  737   2.687   1.631   0.472 -0.6847  0.0731  1.2699
   21DMF     H4  738   2.777   1.965   0.405 -1.5591  1.3831  1.2207
   21DMF     H5  739   2.932   1.928   0.465 -0.8276 -1.1593 -1.6060
   21DMF     H6  740   2.810   2.012   0.582 -0.8104  2.2390 -1.6817
   21DMF     H7  741   2.885   1.819   0.723  0.2815  1.1737 -2.0052
   22DMF     C1  742   0.756   1.494   0.503 -0.2412  0.7456 -0.3540
   22DMF     N1  743   0.739   1.418   0.625  0.3679 -1.0217 -0.1522
   22DMF     C2  744   0.848   1.350   0.699 -0.1252 -0.1236  0.2467
   22DMF     C3  745   0.605   1.395   0.668  0.1904 -0.1127  0.3168
   22DMF     O1  746   0.506   1.443   0.623 -0.6215  0.3033  0.3135
   22DMF     H1  747   0.840   1.564   0.518  0.5957 -0.2818 -0.1765
   22DMF     H2  748   0.670   1.546   0.460  0.3652 -0.0149 -2.5668
   22DMF     H3  749   0.780   1.419   0.427  0.8627  2.2513 -1.5191
   22DMF     H4  750   0.945   1.397   0.682 -0.0164 -0.0926  0.9398
   22DMF     H5  751   0.848   1.241   0.689 -0.7691 -0.3455  2.3252
   22DMF     H6  752   0.828   1.366   0.806 -0.6439 -0.9512  0.2783
   22DMF     H7  753   0.604   1.313   0.743 -3.0661 -0.9045 -0.5219
   23DMF     C1  754   1.117   1.680   1.170 -0.2744 -0.0074  0.7091
   23DMF     N1  755   1.125   1.633   1.026 -0.1057  0.6749 -0.3381
   23DMF     C2  756   1.224   1.698   0.936 -0.3377 -0.4661 -0.0211
   23DMF     C3  757   1.046   1.529   0.977  0.2046  0.2671  0.9842
   23DMF     O1  758   0.976   1.467   1.054  0.1337  0.3929 -0.2399
   23DMF     H1  759   1.083   1.784   1.181 -0.6609 -0.2113  1.4980
   23DMF     H2  760   1.218   1.664   1.210 -0.0870 -0.1091  0.1880
   23DMF     H3  761   1.042   1.615   1.218 -1.3504  0.8809  0.2644
   23DMF     H4  762   1.203   1.658   0.836 -0.0003 -1.0040  0.1220
   23DMF     H5  763   1.327   1.671   0.963 -0.6448  0.6376  2.4300
   23DMF     H6  764   1.208   1.807   0.937 -0.0979 -0.4182 -1.2948
   23DMF     H7  765   1.058   1.501   0.871  0.6961  0.4890  0.9780
   24DMF     C1  766   1.890   1.423   0.612 -0.1014 -0.1786 -0.6774
   24DMF     N1  767   1.802   1.512   0.683 -0.0971  0.5947 -0.1852
   24DMF     C2  768   1.805   1.653   0.655  0.6666  0.0531 -0.1930
   24DMF     C3  769   1.703   1.461   0.769 -0.0032 -0.4772  0.4216
   24DMF     O1  770   1.689   1.347   0.804 -0.2385 -0.2203 -0.1274
   24DMF     H1  771   1.924   1.336   0.670  0.4152  1.0620  0.9284
   24DMF     H2  772   1.975   1.476   0.569  0.7653 -0.6890  0.3769
   24DMF     H3  773   1.846   1.376   0.523  1.6672  0.5376 -1.9549
   24DMF     H4  774   1.891   1.697   0.709  1.8377 -0.6404 -1.4602
   24DMF     H5  775   1.713   1.709   0.673  1.4662  0.9197  1.3430
   24DMF     H6  776   1.841   1.663   0.552  0.0701  0.2375 -0.3843
   24DMF     H7  777   1.634   1.538   0.806  0.3973  0.7535 -1.2993
   25DMF     C1  778   2.645   1.035   0.146 -0.6454 -0.5412 -0.4408
   25DMF     N1  779   2.562   1.083   0.024  0.4856  0.2898 -0.4567
   25DMF     C2  780   2.430   1.014  -0.001  0.5079 -0.0272 -0.2347
   25DMF     C3  781   2.610   1.184  -0.062 -0.4896 -0.3906  1.0198
   25DMF     O1  782   2.712   1.249  -0.034 -0.2949 -0.5259  0.2094
   25DMF     H1  783   2.629   1.103   0.231  0.5524  0.3199 -0.8865
   25DMF     H2  784   2.753   1.031   0.128 -0.3979  3.4950 -0.2652
   25DMF     H3  785   2.611   0.934   0.172 -0.6818 -0.8173 -1.5538
   25DMF     H4  786   2.358   1.074   0.056  0.5514  0.6488 -0.8878
   25DMF     H5  787   2.432   0.912   0.041  0.0552  0.0732  0.0408
   25DMF     H6  788   2.411   1.011  -0.109 -1.3673 -1.5527  0.1093
   25DMF     H7  789   2.554   1.192  -0.157  0.4421  0.3474  0.5236
   26DMF     C1  790   0.339   0.457   0.565  0.6583  0.4399 -0.1697
   26DMF     N1  791   0.231   0.542   0.511 -0.4869  1.0280 -0.0950
   26DMF     C2  792   0.261   0.690   0.506  0.0996 -0.5637  0.2058
   26DMF     C3  793   0.102   0.484   0.468 -0.5295  0.0138 -0.8225
   26DMF     O1  794   0.061   0.364   0.480 -0.3675 -0.2318 -0.1278
   26DMF     H1  795   0.433   0.474   0.510  0.7939  0.7370  0.1483
   26DMF     H2  796   0.311   0.352   0.551  1.7186  0.0893  0.2250
   26DMF     H3  797   0.350   0.481   0.672 -0.5506  2.2819 -0.4343
   26DMF     H4  798   0.319   0.714   0.416 -0.3651  2.4722  0.6500
   26DMF     H5  799   0.310   0.716   0.600 -0.5441 -0.3346  0.4803
   26DMF     H6  800   0.166   0.744   0.494  0.1484 -0.8735 -1.7330
   26DMF     H7  801   0.041   0.569   0.432  1.3318  1.9311  0.4440
   27DMF     C1  802   2.870   0.995   1.516  0.0011  0.1616  0.0632
   27DMF     N1  803   2.897   1.138   1.521  0.0882  0.7433 -0.4847
   27DMF     C2  804   3.037   1.188   1.492  0.5538 -0.1264 -0.2754
   27DMF     C3  805   2.781   1.223   1.507  0.3339 -0.1748  0.0956
   27DMF     O1  806   2.669   1.181   1.529  0.0398 -0.3082  0.3947
   27DMF     H1  807   2.789   0.984   1.443  1.6235 -0.4333 -1.7005
   27DMF     H2  808   2.836   0.960   1.614 -0.1336  0.7219  0.2218
   27DMF     H3  809   2.961   0.939   1.491  0.2406 -0.2544  1.8176
   27DMF     H4  810   3.082   1.113   1.425 -0.5446 -0.6395 -0.4474
   27DMF     H5  811   3.095   1.197   1.584 -0.7211 -0.3374  0.5571
   27DMF     H6  812   3.033   1.286   1.444 -0.9617 -1.0052 -2.0279
   27DMF     H7  813   2.804   1.328   1.482 -1.5079 -0.0790 -1.2827
   28DMF     C1  814   0.442   0.675   1.338 -0.1538 -0.7020  0.4090
   28DMF     N1  815   0.408   0.810   1.388  0.2492 -0.1421 -0.3892
   28DMF     C2  816   0.428   0.839   1.528  0.4299  0.4895  0.9395
   28DMF     C3  817   0.314   0.887   1.312  0.5359  0.8061 -0.4371
   28DMF     O1  818   0.284   0.864   1.199  0.1357 -0.1682  0.0123
   28DMF     H1  819   0.366   0.629   1.273 -1.8602  0.1127  1.7979
   28DMF     H2  820   0.444   0.603   1.420 -1.3671 -1.7124 -0.4407
   28DMF     H3  821   0.540   0.679   1.288 -0.1633  2.2982  0.5231
   28DMF     H4  822   0.338   0.835   1.590 -0.2483  2.4667  0.1445
   28DMF     H5  823   0.486   0.933   1.531  1.0703  0.1796 -0.7170
   28DMF     H6  824   0.502   0.768   1.567  2.0072  1.3304 -0.4168
   28DMF     H7  825   0.280   0.979   1.364 -0.3522  1.0446 -1.4143
   29DMF     C1  826   2.154   1.122   1.351  0.1760 -0.2999  0.1506
   29DMF     N1  827   2.205   1.032   1.459  0.1386  0.4602  0.1820
   29DMF     C2  828   2.349   1.005   1.476  0.1695 -0.3552  0.1412
   29DMF     C3  829   2.123   0.969   1.548 -0.0376  0.1359 -0.7890
   29DMF     O1  830   2.004   0.987   1.547  0.2709 -0.0590 -0.1629
   29DMF     H1  831   2.232   1.187   1.311 -0.4415  0.1416 -0.3570
   29DMF     H2  832   2.062   1.169   1.390  0.6390 -1.7125  3.0499
   29DMF     H3  833   2.128   1.060   1.264 -1.2464 -1.4177  1.3343
   29DMF     H4  834   2.377   0.948   1.566 -0.6396 -0.4833  0.3169
   29DMF     H5  835   2.392   1.106   1.480  0.4569 -0.4236 -1.0524
   29DMF     H6  836   2.395   0.959   1.388  0.9184  0.1281  0.2735
   29DMF     H7  837   2.173   0.901   1.620  1.7746  1.2143 -0.9835
   30DMF     C1  838   1.124   3.120   1.134 -0.3833  0.2557  0.1166
   30DMF     N1  839   1.134   3.264   1.155 -0.2757  0.2703  0.0890
   30DMF     C2  840   1.250   3.339   1.085 -0.2926 -0.1430 -0.1683
   30DMF     C3  841   1.051   3.339   1.234 -0.2805 -0.4929  0.3849
   30DMF     O1  842   0.954   3.288   1.282 -0.1194  0.0660 -0.4713
   30DMF     H1  843   1.057   3.071   1.206  1.2816 -1.9681  0.2062
   30DMF     H2  844   1.225   3.079   1.148 -1.1803 -1.9093 -0.2550
   30DMF     H3  845   1.084   3.101   1.033 -1.3096  2.0375  0.1239
   30DMF     H4  846   1.216   3.414   1.012 -2.4877 -1.2840 -0.3472
   30DMF     H5  847   1.311   3.266   1.030 -0.9954  0.0848 -1.2742
   30DMF     H6  848   1.316   3.391   1.155 -2.1937 -0.3846  1.8435
   30DMF     H7  849   1.062   3.449   1.226 -0.7919 -0.5810 -1.8176
   31DMF     C1  850   1.713   1.774   3.340  0.0289  0.4705  0.7161
   31DMF     N1  851   1.619   1.777   3.450  0.3278 -0.4606  0.4709
   31DMF     C2  852   1.478   1.743   3.431 -0.2551 -0.4820 -0.8697
   31DMF     C3  853   1.666   1.777   3.585 -0.5326  0.9708  0.3332
   31DMF     O1  854   1.782   1.799   3.610 -0.1073 -0.3396 -0.3364
   31DMF     H1  855   1.764   1.678   3.330  0.2303  0.8460 -2.2112
   31DMF     H2  856   1.786   1.856   3.350 -1.3561  1.8248  0.0257
   31DMF     H3  857   1.656   1.792   3.248  0.8319 -0.7814 -0.0371
   31DMF     H4  858   1.469   1.660   3.360 -1.9922 -0.9736 -0.1054
   31DMF     H5  859   1.429   1.832   3.391  1.6518  1.1325  0.2626
   31DMF     H6  860   1.424   1.711   3.521 -0.5074  0.0676 -0.8212
   31DMF     H7  861   1.588   1.744   3.657  1.7766  2.4400  3.6791
   32DMF     C1  862   1.817   0.365   0.759  0.4623 -0.4720 -0.2812
   32DMF     N1  863   1.822   0.216   0.765  0.3960 -0.8889 -0.5979
   32DMF     C2  864   1.945   0.148   0.799 -1.0603  0.4025  0.4782
   32DMF     C3  865   1.712   0.141   0.717  0.4396 -0.3381  0.0668
   32DMF     O1  866   1.605   0.200   0.693 -0.1753  0.3217 -0.5000
   32DMF     H1  867   1.895   0.417   0.814 -0.1065  0.6296 -0.5110
   32DMF     H2  868   1.719   0.390   0.802  0.8333 -1.9945  1.5408
   32DMF     H3  869   1.818   0.393   0.653 -1.0954  1.1346  0.1139
   32DMF     H4  870   2.031   0.217   0.795 -0.3855 -0.4575  0.0815
   32DMF     H5  871   1.963   0.058   0.740  0.6131 -0.0498  1.6222
   32DMF     H6  872   1.933   0.116   0.903  0.7537 -1.3103  0.1841
   32DMF     H7  873   1.729   0.032   0.711  1.8213 -0.3205  3.0123
   33DMF     C1  874   1.315   0.324   2.880  0.0515  0.2038 -0.5357
   33DMF     N1  875   1.240   0.304   3.004  0.3033 -0.6714  0.2616
   33DMF     C2  876   1.211   0.166   3.047 -0.3209  0.4510  0.0617
   33DMF     C3  877   1.217   0.411   3.090 -0.0874  0.0581  0.0576
   33DMF     O1  878   1.246   0.525   3.073  0.3724  0.1373 -0.2911
   33DMF     H1  879   1.419   0.315   2.915 -0.1272 -0.3484 -0.1368
   33DMF     H2  880   1.290   0.409   2.816 -1.8569  1.6117  1.9864
   33DMF     H3  881   1.291   0.243   2.809 -3.2463  2.3337 -1.9806
   33DMF     H4  882   1.204   0.159   3.157  0.1336 -0.3484  0.0460
   33DMF     H5  883   1.286   0.094   3.011  0.7129  2.3922 -1.7821
   33DMF     H6  884   1.112   0.137   3.011 -0.0644 -0.7567  0.3120
   33DMF     H7  885   1.172   0.370   3.182 -0.6993 -0.4611 -0.4673
   34DMF     C1  886   0.970   3.368   0.339  0.1175  0.1021 -0.1209
   34DMF     N1  887   0.834   3.365   0.400 -0.5737 -0.2647 -0.0589
   34DMF     C2  888   0.727   3.279   0.334 -0.0207 -0.3472 -0.4817
   34DMF     C3  889   0.813   3.441   0.513 -0.1255  0.1749  0.0958
   34DMF     O1  890   0.892   3.517   0.559  0.3596 -0.1014 -0.1156
   34DMF     H1  891   1.041   3.381   0.422  0.5013  0.0986 -0.4431
   34DMF     H2  892   0.985   3.448   0.265 -0.0265 -0.7257 -1.0578
   34DMF     H3  893   0.992   3.265   0.308 -0.2173  0.3680 -1.2711
   34DMF     H4  894   0.690   3.338   0.249  0.9442 -0.6500 -1.1122
   34DMF     H5  895   0.638   3.281   0.399 -1.4956  0.0455 -2.4734
   34DMF     H6  896   0.762   3.178   0.310  1.0485  0.3211 -1.7893
   34DMF     H7  897   0.710   3.436   0.554  1.6386  0.1737  4.8373
   35DMF     C1  898   3.150   2.077   0.066 -0.0226  0.3484  0.0437
   35DMF     N1  899   3.178   2.014  -0.065  0.1797 -0.0085 -0.8023
   35DMF     C2  900   3.072   2.014  -0.162 -0.2078 -0.4025 -0.2912
   35DMF     C3  901   3.297   1.969  -0.109 -0.2006 -0.0134  0.3710
   35DMF     O1  902   3.392   1.955  -0.035 -1.0682  0.0336 -0.5922
   35DMF     H1  903   3.241   2.092   0.125 -0.5506 -1.4398  1.3597
   35DMF     H2  904   3.078   2.016   0.121 -1.3984  1.8298 -0.0650
   35DMF     H3  905   3.106   2.177   0.062  1.2063  0.8749 -0.8455
   35DMF     H4  906   3.092   2.101  -0.225  1.5838 -1.7203 -1.6176
   35DMF     H5  907   2.980   2.025  -0.104  0.0436  2.4533 -0.3795
   35DMF     H6  908   3.062   1.926  -0.228  2.4550  0.6165 -2.1389
   35DMF     H7  909   3.299   1.941  -0.216 -2.2638 -0.8030  0.5235
   36DMF     C1  910   1.090   2.334   1.385  0.0194 -0.5399 -1.4350
   36DMF     N1  911   1.229   2.299   1.377  0.2168  0.0060 -0.0825
   36DMF     C2  912   1.328   2.398   1.425 -0.2178  0.2529  0.4253
   36DMF     C3  913   1.265   2.174   1.314 -0.1593  0.8686 -0.6258
   36DMF     O1  914   1.176   2.096   1.276  0.3821 -0.3534  0.4267
   36DMF     H1  915   1.075   2.418   1.316  0.7722  0.7989  0.0184
   36DMF     H2  916   1.057   2.363   1.486  0.2812 -0.5893 -1.3367
   36DMF     H3  917   1.022   2.252   1.356 -0.6235 -0.6767  0.3581
   36DMF     H4  918   1.412   2.377   1.359  0.0220 -3.6718  1.8289
   36DMF     H5  919   1.365   2.358   1.520  2.2062 -0.1510 -0.6628
   36DMF     H6  920   1.294   2.502   1.436  0.8204  0.7026 -0.6292
   36DMF     H7  921   1.375   2.164   1.314 -0.2130  0.2552 -1.0758
   37DMF     C1  922   2.161   3.205   0.858 -1.2166 -1.1147 -0.4187
   37DMF     N1  923   2.299   3.249   0.855  0.4829  0.5335 -0.6043
   37DMF     C2  924   2.403   3.143   0.850 -0.4450 -0.2281 -0.2820
   37DMF     C3  925   2.330   3.383   0.818  0.3042  0.2312  0.2670
   37DMF     O1  926   2.243   3.468   0.791  0.3031  0.1443  0.2911
   37DMF     H1  927   2.135   3.209   0.964  0.5674 -0.9726  0.0280
   37DMF     H2  928   2.155   3.102   0.821 -2.4078 -0.2003 -2.9117
   37DMF     H3  929   2.092   3.258   0.790 -0.3224 -1.5802 -1.7137
   37DMF     H4  930   2.449   3.151   0.751  0.1323  0.2667  0.0204
   37DMF     H5  931   2.366   3.042   0.872  0.7512 -0.5651  0.2018
   37DMF     H6  932   2.475   3.164   0.930 -0.5941  1.3077 -0.5274
   37DMF     H7  933   2.436   3.411   0.811  0.9702 -2.2209  0.1727
   38DMF     C1  934   1.483   1.349   3.543  0.0908  0.1116  0.4104
   38DMF     N1  935   1.575   1.259   3.607 -0.4194 -0.0029 -0.2214
   38DMF     C2  936   1.513   1.156   3.694 -0.3481 -0.2952 -0.0644
   38DMF     C3  937   1.714   1.252   3.576 -0.9915  0.4443 -0.0493
   38DMF     O1  938   1.770   1.322   3.495  0.2889 -0.0216 -0.2766
   38DMF     H1  939   1.480   1.448   3.591  2.6511  0.2668  0.3369
   38DMF     H2  940   1.381   1.311   3.547 -0.1206  0.7557  1.6239
   38DMF     H3  941   1.509   1.368   3.438 -1.0142 -1.4363 -0.1565
   38DMF     H4  942   1.411   1.136   3.658 -1.3277  2.6472  0.9592
   38DMF     H5  943   1.497   1.187   3.798 -1.6975  2.9704 -1.1923
   38DMF     H6  944   1.570   1.063   3.696  1.3468  0.7468  1.6852
   38DMF     H7  945   1.758   1.179   3.646  1.6486 -0.1905 -2.2779
   39DMF     C1  946   1.673   0.518   1.171 -0.6047 -0.7785 -0.6503
   39DMF     N1  947   1.800   0.521   1.095  0.3380 -0.4481  0.3643
   39DMF     C2  948   1.835   0.647   1.035 -0.9816  0.1763  0.0691
   39DMF     C3  949   1.891   0.414   1.072 -0.1470  0.3325 -0.1193
   39DMF     O1  950   1.873   0.301   1.110 -0.3396 -0.2658 -0.3507
   39DMF     H1  951   1.582   0.512   1.111 -1.7165  0.3208  0.8846
   39DMF     H2  952   1.665   0.602   1.242  0.6556 -0.6266 -0.6796
   39DMF     H3  953   1.684   0.434   1.241 -0.3866 -0.8698 -0.7941
   39DMF     H4  954   1.900   0.628   0.948 -0.8193  0.5888  0.0978
   39DMF     H5  955   1.888   0.717   1.101  0.6419 -1.2915  0.3764
   39DMF     H6  956   1.747   0.706   1.006 -0.5791  1.4136  1.3352
   39DMF     H7  957   1.977   0.443   1.009 -0.4352 -3.7756 -2.6252
   40DMF     C1  958   2.112   0.752   0.846  0.0125  0.2773 -0.4074
   40DMF     N1  959   2.077   0.665   0.722  0.3230 -0.2219 -0.5270
   40DMF     C2  960   2.009   0.732   0.609  0.0748 -0.0139 -0.8904
   40DMF     C3  961   2.108   0.529   0.718  0.5236 -0.3409  0.8402
   40DMF     O1  962   2.175   0.485   0.807 -0.3638 -0.1764  0.7709
   40DMF     H1  963   2.178   0.834   0.816 -1.0087  0.1808 -3.0918
   40DMF     H2  964   2.163   0.697   0.926 -0.9007  2.0083  1.4127
   40DMF     H3  965   2.020   0.802   0.879 -0.5256 -0.6056 -0.5543
   40DMF     H4  966   1.962   0.827   0.640 -0.4780 -1.1911  2.0549
   40DMF     H5  967   1.930   0.673   0.559 -1.4663  1.6144 -0.4261
   40DMF     H6  968   2.081   0.763   0.533  2.4746  0.1836  1.4148
   40DMF     H7  969   2.074   0.477   0.627 -0.8511  0.4002  0.9072
   41DMF     C1  970   2.880   0.992   0.394  0.1696  0.2915 -0.5877
   41DMF     N1  971   2.828   1.069   0.498 -0.2555 -0.3817 -0.1956
   41DMF     C2  972   2.807   1.214   0.472 -0.2543 -0.9766  0.5542
   41DMF     C3  973   2.829   1.018   0.628  0.1376  0.2142  0.1145
   41DMF     O1  974   2.871   0.906   0.650 -0.3606 -0.2344 -0.1949
   41DMF     H1  975   2.883   1.055   0.304  0.4257  1.8485  0.5043
   41DMF     H2  976   2.808   0.910   0.382 -1.0810  1.0149  1.6939
   41DMF     H3  977   2.976   0.944   0.417 -0.8497 -0.6200  1.9807
   41DMF     H4  978   2.710   1.238   0.517 -1.8841 -2.9730 -1.7668
   41DMF     H5  979   2.815   1.235   0.365  2.2165 -1.5810  0.5888
   41DMF     H6  980   2.888   1.259   0.532  0.8876 -1.7036 -0.4298
   41DMF     H7  981   2.795   1.089   0.706  0.8442  0.1153  0.5157
   42DMF     C1  982   2.682   2.777   0.115  0.3737  0.4604  0.1550
   42DMF     N1  983   2.573   2.850   0.169 -0.6969 -0.5104 -0.0347
   42DMF     C2  984   2.612   2.977   0.243 -0.3382 -0.3183  0.4225
   42DMF     C3  985   2.440   2.808   0.159 -0.6403  0.0615 -0.6383
   42DMF     O1  986   2.423   2.713   0.085 -0.0162 -0.0217  0.0808
   42DMF     H1  987   2.711   2.816   0.017 -2.0396  0.2014 -0.7159
   42DMF     H2  988   2.656   2.673   0.092  1.0218  0.2978  0.1606
   42DMF     H3  989   2.762   2.775   0.190  0.9557  0.4493 -0.4624
   42DMF     H4  990   2.632   2.968   0.350  0.9176  0.7351  0.2893
   42DMF     H5  991   2.538   3.056   0.225 -0.2169 -0.8640 -2.8856
   42DMF     H6  992   2.701   3.027   0.202  0.4767 -2.8306 -0.9949
   42DMF     H7  993   2.359   2.873   0.196 -0.8815 -0.7999  0.3611
   43DMF     C1  994   2.558   2.584   0.397  0.5945 -0.9472 -0.4107
   43DMF     N1  995   2.480   2.653   0.502 -0.4145  0.4511  0.2013
   43DMF     C2  996   2.334   2.660   0.492  0.5562  0.4584  0.0949
   43DMF     C3  997   2.544   2.692   0.619  0.4349 -0.1002  0.2377
   43DMF     O1  998   2.667   2.677   0.635 -0.5483 -0.5458 -0.0530
   43DMF     H1  999   2.605   2.491   0.432 -1.5600 -1.3282  1.5998
   43DMF     H2 1000   2.632   2.652   0.354  0.9249 -0.1257  1.3882
   43DMF     H3 1001   2.485   2.547   0.325  0.8271 -2.3591  0.0621
   43DMF     H4 1002   2.296   2.568   0.539  1.6755 -0.5007 -0.8286
   43DMF     H5 1003   2.304   2.657   0.387 -0.1864  1.1682  0.2860
   43DMF     H6 1004   2.285   2.750   0.532  1.3267 -0.0246  2.1984
   43DMF     H7 1005   2.475   2.734   0.693 -0.7162  0.2207 -1.0028
   44DMF     C1 1006   2.112   1.957   1.370  0.5688 -0.3266 -0.3056
   44DMF     N1 1007   2.076   2.017   1.495 -0.0986 -0.7166 -0.2327
   44DMF     C2 1008   1.958   1.965   1.562  0.9519  0.2936  0.2187
   44DMF     C3 1009   2.134   2.134   1.533 -0.1787  0.0825  0.2290
   44DMF     O1 1010   2.243   2.173   1.487  0.4041 -0.1042 -0.3930
   44DMF     H1 1011   2.120   2.031   1.290 -0.1025 -2.7329 -2.6740
   44DMF     H2 1012   2.032   1.887   1.345 -3.3969  3.2885  1.5017
   44DMF     H3 1013   2.209   1.908   1.387 -0.0667 -1.8556 -1.0362
   44DMF     H4 1014   1.867   2.008   1.517  2.5093  2.4609 -0.9485
   44DMF     H5 1015   1.956   1.983   1.670  1.3526  0.8701  0.1314
   44DMF     H6 1016   1.955   1.856   1.561 -0.5627  0.3265 -0.7741
   44DMF     H7 1017   2.083   2.187   1.616  1.4153  2.1133 -0.0417
   45DMF     C1 1018   2.279   1.007   0.637 -0.2524  0.0323  0.3893
   45DMF     N1 1019   2.322   1.019   0.492  0.5530 -0.4562  0.2048
   45DMF     C2 1020   2.468   1.045   0.467  0.7603 -0.4550  0.5749
   45DMF     C3 1021   2.221   0.996   0.391  0.5597 -0.7494  0.1301
   45DMF     O1 1022   2.106   0.966   0.424 -0.0090  0.5986 -0.0669
   45DMF     H1 1023   2.264   1.108   0.679  0.5743 -0.3093  1.5335
   45DMF     H2 1024   2.350   0.952   0.700  1.0526 -0.2744 -1.3017
   45DMF     H3 1025   2.180   0.960   0.646 -0.8411  1.6122  2.6394
   45DMF     H4 1026   2.516   0.950   0.438 -1.2790 -1.5289  0.6206
   45DMF     H5 1027   2.511   1.085   0.560  1.2647 -0.5114  0.3674
   45DMF     H6 1028   2.488   1.113   0.384  0.9703 -2.5774 -1.1778
   45DMF     H7 1029   2.250   1.001   0.284  2.1918 -2.4428  0.4757
   46DMF     C1 1030   0.861   0.501   1.493  0.1656  0.6160  0.9191
   46DMF     N1 1031   0.930   0.570   1.389 -0.5762  0.4655  0.3915
   46DMF     C2 1032   0.868   0.573   1.250 -0.0133 -0.1017  0.6897
   46DMF     C3 1033   1.062   0.611   1.406  0.3332 -0.1375  0.2421
   46DMF     O1 1034   1.115   0.610   1.519 -0.0500 -0.8401 -0.1773
   46DMF     H1 1035   0.926   0.482   1.580  0.1885 -2.7425  0.2266
   46DMF     H2 1036   0.836   0.401   1.457 -1.7837  1.4050  0.0020
   46DMF     H3 1037   0.768   0.551   1.523 -0.3564 -0.1987  0.6524
   46DMF     H4 1038   0.936   0.588   1.165  0.1931 -2.3729  0.4267
   46DMF     H5 1039   0.788   0.645   1.228 -1.5007 -1.6918  0.8669
   46DMF     H6 1040   0.819   0.477   1.236 -0.6596  0.3699 -0.3055
   46DMF     H7 1041   1.120   0.650   1.320 -1.8298  2.5066 -0.0836
   47DMF     C1 1042   0.698   3.063   1.316  0.8952 -0.1040  0.9856
   47DMF     N1 1043   0.659   3.095   1.453 -0.3045 -0.3933 -0.8645
   47DMF     C2 1044   0.742   3.200   1.518  0.5752  0.3634  0.2304
   47DMF     C3 1045   0.548   3.049   1.518  0.6256 -0.5855  0.3104
   47DMF     O1 1046   0.474   2.971   1.463 -0.5939 -0.3741 -0.3058
   47DMF     H1 1047   0.798   3.093   1.282  1.1725 -1.8268  0.2595
   47DMF     H2 1048   0.626   3.111   1.248  0.2783 -0.3165  1.4865
   47DMF     H3 1049   0.683   2.955   1.309  1.3589 -0.0933 -0.2975
   47DMF     H4 1050   0.762   3.282   1.447 -2.0908  1.9419  1.2618
   47DMF     H5 1051   0.835   3.156   1.555  1.1805  0.6246 -0.9462
   47DMF     H6 1052   0.686   3.243   1.601  0.7871  0.5447  0.2810
   47DMF     H7 1053   0.543   3.081   1.624  0.0351 -1.3921  0.5318
   48DMF     C1 1054   0.768   1.786   3.730 -0.1355 -0.2088 -0.1204
   48DMF     N1 1055   0.901   1.843   3.761 -0.3622 -0.4408  0.2874
   48DMF     C2 1056   0.880   1.985   3.802 -0.3917  0.6006 -0.0178
   48DMF     C3 1057   1.025   1.781   3.727  0.0562 -0.0256  0.6709
   48DMF     O1 1058   1.028   1.675   3.661 -0.2121 -0.0559 -0.2334
   48DMF     H1 1059   0.765   1.739   3.630 -0.4245 -0.7926  0.1621
   48DMF     H2 1060   0.682   1.853   3.733  0.6638  0.8587 -0.6703
   48DMF     H3 1061   0.746   1.697   3.790 -3.4763  0.6865  0.0779
   48DMF     H4 1062   0.822   2.040   3.727 -1.9202 -0.6873  0.1988
   48DMF     H5 1063   0.976   2.038   3.807  0.4201 -0.9206  0.5628
   48DMF     H6 1064   0.833   1.989   3.901 -0.0367 -0.4205  0.1921
   48DMF     H7 1065   1.114   1.830   3.771  2.3272 -0.7269 -2.9064
   49DMF     C1 1066   2.524   0.777   0.878  0.5213 -1.0041  0.3867
   49DMF     N1 1067   2.471   0.809   1.014 -0.6960  0.3658 -0.0988
   49DMF     C2 1068   2.525   0.731   1.122  0.5261 -0.2325  0.0329
   49DMF     C3 1069   2.401   0.933   1.035  0.6002 -0.1173  0.1722
   49DMF     O1 1070   2.361   1.008   0.946  0.2961  0.7657  0.4235
   49DMF     H1 1071   2.463   0.825   0.801 -1.5213  0.3794  2.7858
   49DMF     H2 1072   2.517   0.668   0.867  0.9997 -0.7650 -2.6584
   49DMF     H3 1073   2.629   0.809   0.871  0.4235 -0.9194 -0.7707
   49DMF     H4 1074   2.481   0.630   1.125  0.5331 -0.2166  0.9858
   49DMF     H5 1075   2.502   0.779   1.218  1.6759 -1.4132  0.9133
   49DMF     H6 1076   2.634   0.729   1.116  0.6824 -2.6571  2.4506
   49DMF     H7 1077   2.400   0.959   1.142  1.6947 -1.6515  0.5769
   50DMF     C1 1078   2.048   2.933   1.058  0.2523 -0.8846  0.1382
   50DMF     N1 1079   1.967   2.812   1.100 -0.6545  0.4524  0.0146
   50DMF     C2 1080   1.822   2.802   1.073 -0.4900 -0.3552 -0.3898
   50DMF     C3 1081   2.041   2.698   1.152  0.0347  0.0354  0.1548
   50DMF     O1 1082   2.161   2.684   1.171  0.1622 -0.0086  0.1829
   50DMF     H1 1083   2.010   2.971   0.963  1.1138  0.1918  0.2206
   50DMF     H2 1084   2.153   2.911   1.035  0.4165 -1.7607  1.6148
   50DMF     H3 1085   2.050   3.008   1.138 -2.0520 -1.7301  1.0468
   50DMF     H4 1086   1.802   2.696   1.053 -0.3453 -0.2007 -1.3694
   50DMF     H5 1087   1.792   2.862   0.986 -1.8600 -0.2868  0.1171
   50DMF     H6 1088   1.766   2.839   1.160  0.4067  2.2809 -0.8837
   50DMF     H7 1089   1.969   2.616   1.169 -4.0159  3.6857  1.3871
   51DMF     C1 1090   1.662   3.199   0.575  0.3947  0.3725  0.4500
   51DMF     N1 1091   1.616   3.063   0.541 -0.4209 -0.2771 -0.1215
   51DMF     C2 1092   1.673   2.946   0.618 -0.1221 -0.9466 -0.4632
   51DMF     C3 1093   1.560   3.050   0.415 -0.5277 -0.8207  0.3420
   51DMF     O1 1094   1.521   3.142   0.349  0.4325 -0.7343  0.2274
   51DMF     H1 1095   1.589   3.273   0.540  1.2242  0.6001 -0.8248
   51DMF     H2 1096   1.756   3.226   0.526 -0.1346 -1.3206 -1.5656
   51DMF     H3 1097   1.680   3.205   0.684 -0.2755 -1.5682  0.6845
   51DMF     H4 1098   1.777   2.934   0.584 -0.5583  0.3336 -2.2789
   51DMF     H5 1099   1.617   2.854   0.595  0.0802 -0.7234 -1.8668
   51DMF     H6 1100   1.686   2.948   0.727  1.9813  1.0637 -0.7257
   51DMF     H7 1101   1.557   2.943   0.386 -0.4544 -0.4654 -1.0015
   52DMF     C1 1102   0.184   2.860   0.956 -0.4488  0.0117  0.4040
   52DMF     N1 1103   0.266   2.833   1.069  0.2241  0.3552  0.4785
   52DMF     C2 1104   0.356   2.941   1.116 -0.6543 -0.1851 -0.2867
   52DMF     C3 1105   0.283   2.699   1.102  0.3356  0.3108  0.3291
   52DMF     O1 1106   0.223   2.600   1.055  0.0912  0.0785  0.0496
   52DMF     H1 1107   0.079   2.854   0.989 -0.5687 -0.1710 -0.0025
   52DMF     H2 1108   0.208   2.787   0.877  2.6022  0.2237  1.1026
   52DMF     H3 1109   0.206   2.961   0.920 -0.7076 -0.5530 -1.4054
   52DMF     H4 1110   0.383   2.918   1.220 -0.8643 -0.2979 -0.2579
   52DMF     H5 1111   0.316   3.042   1.100  0.5617  0.3142 -0.2563
   52DMF     H6 1112   0.444   2.922   1.052  0.6450 -0.3001  1.4819
   52DMF     H7 1113   0.373   2.696   1.166 -1.8416  1.8830  3.5793
   53DMF     C1 1114   2.973   0.328   1.577 -0.3908  0.1197  0.5830
   53DMF     N1 1115   3.082   0.412   1.552  0.1409 -0.1005 -0.0533
   53DMF     C2 1116   3.209   0.344   1.528 -0.1496 -0.0600  0.7172
   53DMF     C3 1117   3.068   0.545   1.531 -0.0775  0.7653 -0.4793
   53DMF     O1 1118   2.967   0.606   1.560  0.2883 -0.0175  0.4295
   53DMF     H1 1119   2.893   0.393   1.616  0.0488  0.5129  0.8292
   53DMF     H2 1120   2.989   0.236   1.635 -0.8624 -0.3763 -0.0767
   53DMF     H3 1121   2.943   0.289   1.479 -0.7854 -0.6322  0.9973
   53DMF     H4 1122   3.288   0.401   1.579 -0.0702 -2.4605  3.3922
   53DMF     H5 1123   3.235   0.330   1.422 -0.4728 -2.7660  0.9680
   53DMF     H6 1124   3.196   0.246   1.574 -0.0939  0.9989  3.0636
   53DMF     H7 1125   3.162   0.588   1.493  1.9698 -1.8302  1.5188
   54DMF     C1 1126   0.767   1.044   3.425 -0.2454  0.2140 -0.0155
   54DMF     N1 1127   0.850   0.947   3.499 -0.0962 -0.1691 -0.4225
   54DMF     C2 1128   0.929   1.006   3.609 -0.6423  0.2995 -0.8663
   54DMF     C3 1129   0.850   0.811   3.482  0.8338 -0.2256 -0.7517
   54DMF     O1 1130   0.756   0.763   3.414 -0.6206 -0.5148 -0.5023
   54DMF     H1 1131   0.845   1.088   3.361 -0.2958 -0.0111 -0.2331
   54DMF     H2 1132   0.724   1.106   3.504  0.9740  1.6891 -0.4873
   54DMF     H3 1133   0.700   0.982   3.364  0.7523 -0.6583 -0.2524
   54DMF     H4 1134   0.872   1.093   3.644  0.3199  1.7630 -2.8527
   54DMF     H5 1135   1.029   1.036   3.577  0.5217 -1.7901  0.6726
   54DMF     H6 1136   0.946   0.927   3.684  1.5404 -2.1781 -3.8679
   54DMF     H7 1137   0.935   0.761   3.532  2.1707  1.7416 -1.0427
   55DMF     C1 1138   0.888   2.859   1.116  0.1025  0.1464 -0.1101
   55DMF     N1 1139   0.909   2.739   1.041  0.2377  0.0197 -0.3743
   55DMF     C2 1140   1.037   2.677   1.031  0.1134 -0.3130 -0.8477
   55DMF     C3 1141   0.798   2.674   0.986  0.4263  0.2074  0.6466
   55DMF     O1 1142   0.684   2.717   1.008 -0.2668 -1.1957  0.1600
   55DMF     H1 1143   0.881   2.857   1.225  0.8551  1.0238 -0.0401
   55DMF     H2 1144   0.812   2.927   1.078 -0.2569 -0.5890 -0.7213
   55DMF     H3 1145   0.976   2.924   1.101  0.0448  0.6091  1.5131
   55DMF     H4 1146   1.108   2.743   1.082 -1.4522  0.6024  0.1765
   55DMF     H5 1147   1.063   2.636   0.933  0.4434  0.3438 -1.0347
   55DMF     H6 1148   1.050   2.586   1.092  1.5010 -0.3586 -1.1913
   55DMF     H7 1149   0.816   2.582   0.928  3.0056  0.9974  0.1421
   56DMF     C1 1150   0.804   2.899   0.119  0.8088  0.9248  0.4923
   56DMF     N1 1151   0.666   2.884   0.171  0.1419 -0.5188  0.0449
   56DMF     C2 1152   0.620   2.742   0.190  0.6976 -0.6722  0.2579
   56DMF     C3 1153   0.572   2.987   0.174 -0.3257  0.6136  0.3539
   56DMF     O1 1154   0.602   3.101   0.144 -0.4562 -0.3122 -0.0843
   56DMF     H1 1155   0.837   2.990   0.067 -1.5565  1.7321  0.3514
   56DMF     H2 1156   0.825   2.825   0.041  0.2694 -1.8893  2.9717
   56DMF     H3 1157   0.868   2.879   0.206 -0.3148  1.1347  1.3806
   56DMF     H4 1158   0.714   2.684   0.190  0.7597 -0.5752 -0.4788
   56DMF     H5 1159   0.562   2.717   0.101  2.6403 -0.4194 -1.1147
   56DMF     H6 1160   0.560   2.725   0.280  0.4850 -1.7215 -0.0658
   56DMF     H7 1161   0.472   2.965   0.214 -0.8756  1.7412 -0.3997
   57DMF     C1 1162   1.155   1.603   1.560  0.8987 -0.0398  0.1830
   57DMF     N1 1163   1.114   1.471   1.516 -0.2294  0.0293 -0.3988
   57DMF     C2 1164   0.984   1.452   1.459  0.0389 -0.9571  1.0073
   57DMF     C3 1165   1.207   1.367   1.520  0.1016 -0.1780 -0.5630
   57DMF     O1 1166   1.327   1.378   1.549  0.4892 -0.1024  0.1046
   57DMF     H1 1167   1.062   1.654   1.588 -0.6950 -2.1398 -1.1875
   57DMF     H2 1168   1.209   1.639   1.471 -2.2287 -0.0912 -1.7937
   57DMF     H3 1169   1.211   1.605   1.654 -0.7921  3.1524  1.2115
   57DMF     H4 1170   0.938   1.548   1.436 -1.1981 -1.6404  0.5797
   57DMF     H5 1171   0.916   1.396   1.525  0.0236 -0.5715  1.3186
   57DMF     H6 1172   0.987   1.390   1.368  1.4420  1.1171 -0.4102
   57DMF     H7 1173   1.160   1.270   1.494  2.3415 -0.8290 -2.3306
   58DMF     C1 1174   1.292   0.327   0.964 -0.7680  0.1706  0.2786
   58DMF     N1 1175   1.150   0.304   0.955 -0.2122  0.1964  0.5060
   58DMF     C2 1176   1.097   0.261   0.825  0.0810  0.0367 -0.3416
   58DMF     C3 1177   1.071   0.316   1.068  0.4411 -0.5864 -0.0478
   58DMF     O1 1178   1.119   0.339   1.177 -0.4035 -0.6997 -0.1598
   58DMF     H1 1179   1.335   0.368   0.872  0.0413 -1.2417  0.0109
   58DMF     H2 1180   1.350   0.236   0.985  1.4256  1.2757 -0.8207
   58DMF     H3 1181   1.326   0.404   1.034 -0.9827  1.6330 -1.1989
   58DMF     H4 1182   1.131   0.157   0.814 -1.9983 -0.6837 -0.1092
   58DMF     H5 1183   1.148   0.321   0.749  2.9700 -0.4638  1.1278
   58DMF     H6 1184   0.989   0.276   0.828 -0.0312 -0.8725  0.2507
   58DMF     H7 1185   0.963   0.299   1.049  0.6303 -0.5535 -1.1750
   59DMF     C1 1186   0.508   0.667   0.923  0.2511 -0.6107  0.0137
   59DMF     N1 1187   0.480   0.768   0.812 -0.0601  0.0580  0.5752
   59DMF     C2 1188   0.372   0.861   0.835 -0.2936  0.0982  0.6429
   59DMF     C3 1189   0.544   0.755   0.685 -0.1474 -0.6101  0.2532
   59DMF     O1 1190   0.615   0.658   0.658  0.2720  0.3540 -1.0680
   59DMF     H1 1191   0.426   0.663   0.995  1.0677 -0.9003  0.9445
   59DMF     H2 1192   0.602   0.688   0.976 -0.6405  0.8642  1.0767
   59DMF     H3 1193   0.519   0.566   0.882 -0.1014 -1.0730  1.0384
   59DMF     H4 1194   0.325   0.884   0.739  1.2318  0.3421 -0.0658
   59DMF     H5 1195   0.421   0.955   0.865  0.6192 -0.0032 -0.4999
   59DMF     H6 1196   0.303   0.824   0.912 -0.7449  0.4900  0.4312
   59DMF     H7 1197   0.516   0.835   0.614 -2.0740 -1.3327  0.1500
   60DMF     C1 1198   2.058   0.851   2.573 -0.2464 -0.3117  0.3513
   60DMF     N1 1199   2.114   0.990   2.562 -0.1019 -0.0418  0.0707
   60DMF     C2 1200   2.253   1.007   2.535 -0.0895  0.3889  0.0234
   60DMF     C3 1201   2.031   1.104   2.590  0.7891  0.0143 -0.1457
   60DMF     O1 1202   1.924   1.093   2.646  0.0106  0.1510  0.8669
   60DMF     H1 1203   2.111   0.776   2.512 -0.9558 -1.9180  1.6612
   60DMF     H2 1204   1.956   0.861   2.534 -0.6703  0.7806  1.7044
   60DMF     H3 1205   2.047   0.823   2.678  0.9156  1.2125  0.8921
   60DMF     H4 1206   2.301   0.960   2.448  0.4893  1.1242 -0.0618
   60DMF     H5 1207   2.318   0.987   2.622  0.6713 -1.3195 -0.9055
   60DMF     H6 1208   2.268   1.115   2.529  1.9933  0.0259 -1.9568
   60DMF     H7 1209   2.073   1.205   2.574  1.8652 -0.1956  1.2478
   61DMF     C1 1210   2.596   1.915   1.537 -0.6523  0.1313  0.3216
   61DMF     N1 1211   2.641   2.058   1.541  0.2142 -0.0016  0.2221
   61DMF     C2 1212   2.534   2.159   1.527 -0.4996  0.1661  0.3092
   61DMF     C3 1213   2.776   2.094   1.553  0.1189  0.3965  0.3890
   61DMF     O1 1214   2.868   2.010   1.552  0.6875 -0.1852  0.3366
   61DMF     H1 1215   2.532   1.905   1.449  0.5840  1.2130 -0.7130
   61DMF     H2 1216   2.540   1.894   1.629  0.5737 -1.0662  0.8027
   61DMF     H3 1217   2.675   1.840   1.526  1.0350  1.8762  0.1642
   61DMF     H4 1218   2.583   2.248   1.485 -0.5922 -0.4956 -1.2339
   61DMF     H5 1219   2.485   2.182   1.623 -0.3774  2.1950 -0.0948
   61DMF     H6 1220   2.462   2.120   1.455  0.6708 -1.8960  0.2100
   61DMF     H7 1221   2.794   2.202   1.564  0.6932  0.3637 -0.2018
   62DMF     C1 1222   2.160   0.615   1.553 -0.6509 -0.3293 -0.1674
   62DMF     N1 1223   2.095   0.658   1.425  0.1856 -0.4386  0.6256
   62DMF     C2 1224   1.945   0.645   1.426  0.4019  0.2300 -0.1203
   62DMF     C3 1225   2.159   0.705   1.311 -0.1003  0.2078 -0.5161
   62DMF     O1 1226   2.278   0.726   1.310  0.6368  0.1544 -0.8403
   62DMF     H1 1227   2.169   0.506   1.553  0.5634 -0.2357  0.0085
   62DMF     H2 1228   2.093   0.640   1.636 -0.2756  0.4221 -0.0782
   62DMF     H3 1229   2.258   0.660   1.573  0.1986 -1.9268 -0.6751
   62DMF     H4 1230   1.921   0.538   1.420 -0.0311  0.3671 -0.9793
   62DMF     H5 1231   1.891   0.700   1.348 -0.1566 -1.3739 -0.8862
   62DMF     H6 1232   1.897   0.679   1.518  0.7982  1.5888 -0.4052
   62DMF     H7 1233   2.091   0.726   1.226  0.2648 -2.2060 -1.4336
   63DMF     C1 1234   2.997   3.198   1.543 -0.1309 -0.0331 -0.6513
   63DMF     N1 1235   3.141   3.233   1.541 -0.3998  0.3079 -0.3639
   63DMF     C2 1236   3.186   3.376   1.521 -0.3508 -0.0928 -0.0286
   63DMF     C3 1237   3.236   3.133   1.564 -0.2346 -0.2579  0.7289
   63DMF     O1 1238   3.207   3.014   1.558  0.0899  0.2219 -0.1745
   63DMF     H1 1239   2.937   3.265   1.606 -0.5989 -0.5295 -0.5586
   63DMF     H2 1240   2.981   3.099   1.589 -0.6441  0.4543  0.2526
   63DMF     H3 1241   2.953   3.194   1.443 -1.2763  1.6484 -0.2288
   63DMF     H4 1242   3.281   3.384   1.466 -0.0813  2.1742  0.6841
   63DMF     H5 1243   3.205   3.425   1.618 -1.2187  1.7061 -0.7491
   63DMF     H6 1244   3.114   3.427   1.456 -0.2746 -0.5513 -0.4676
   63DMF     H7 1245   3.335   3.182   1.571 -0.9048  1.0753  1.0079
   64DMF     C1 1246   2.702   0.423   0.973 -0.0069  0.2201 -0.0669
   64DMF     N1 1247   2.655   0.395   0.837 -0.9022 -0.1718 -0.0986
   64DMF     C2 1248   2.513   0.353   0.816 -0.4800 -0.0350 -0.0837
   64DMF     C3 1249   2.733   0.428   0.726 -0.3570 -0.6175 -0.0124
   64DMF     O1 1250   2.849   0.466   0.739  0.3821 -0.5672 -0.0393
   64DMF     H1 1251   2.635   0.382   1.050 -2.0092 -0.5647 -2.1939
   64DMF     H2 1252   2.699   0.533   0.977 -2.0602  0.2105 -0.9611
   64DMF     H3 1253   2.802   0.379   0.978  0.0336  0.4320  1.3783
   64DMF     H4 1254   2.497   0.344   0.707  2.0346  0.1602 -0.4797
   64DMF     H5 1255   2.450   0.429   0.863 -1.7447 -0.3830 -1.1637
   64DMF     H6 1256   2.491   0.259   0.868  1.4396 -2.8917 -4.1884
   64DMF     H7 1257   2.678   0.419   0.630 -1.0920 -1.2476  0.4644
   65DMF     C1 1258   2.578   1.622   3.565  0.2759  0.1649 -0.2345
   65DMF     N1 1259   2.602   1.640   3.429 -0.0073  0.3329  0.3672
   65DMF     C2 1260   2.608   1.782   3.374 -0.1701  0.0860  0.6416
   65DMF     C3 1261   2.639   1.533   3.349  0.2480 -0.0671 -0.5446
   65DMF     O1 1262   2.664   1.422   3.393 -0.4654 -0.0038  0.7875
   65DMF     H1 1263   2.533   1.525   3.592  0.8604  0.0093  0.1957
   65DMF     H2 1264   2.501   1.692   3.599 -1.4129 -1.4034 -0.7147
   65DMF     H3 1265   2.668   1.638   3.626 -0.7578 -0.5343  1.5131
   65DMF     H4 1266   2.652   1.855   3.443  0.7059 -1.1791  1.4432
   65DMF     H5 1267   2.505   1.812   3.349 -0.1204 -0.2467  0.0261
   65DMF     H6 1268   2.668   1.790   3.282  0.7684  0.4702  1.2724
   65DMF     H7 1269   2.649   1.564   3.243  1.2084 -0.9491 -0.7145
   66DMF     C1 1270   1.395   0.877   0.068 -0.2262 -0.7703  0.1207
   66DMF     N1 1271   1.308   0.811   0.155  0.5387 -0.1006  0.0478
   66DMF     C2 1272   1.365   0.707   0.252 -0.1641  0.1546  0.6922
   66DMF     C3 1273   1.175   0.810   0.140 -0.3874 -0.1237  0.8171
   66DMF     O1 1274   1.120   0.867   0.041  0.7546  0.3082  0.0445
   66DMF     H1 1275   1.419   0.811  -0.017  1.6367  0.6187 -0.4713
   66DMF     H2 1276   1.494   0.908   0.103  0.5144 -1.0894 -1.6384
   66DMF     H3 1277   1.348   0.968   0.029 -1.3925 -0.9498  1.1050
   66DMF     H4 1278   1.353   0.736   0.357 -1.1538  2.2036  0.0326
   66DMF     H5 1279   1.471   0.691   0.227 -0.0086  0.0739  1.4170
   66DMF     H6 1280   1.316   0.609   0.238 -1.2694  1.0777 -2.3375
   66DMF     H7 1281   1.122   0.749   0.216 -0.0531  0.1171  1.2433
   67DMF     C1 1282   2.900   2.230   1.154 -0.2186  0.8578 -0.0400
   67DMF     N1 1283   2.806   2.125   1.200  0.3285 -0.8965  0.0368
   67DMF     C2 1284   2.843   1.984   1.189  0.0808 -0.7998  0.7650
   67DMF     C3 1285   2.675   2.162   1.241 -0.7045  0.4291 -0.5755
   67DMF     O1 1286   2.642   2.280   1.241  0.0204 -0.6043 -0.1878
   67DMF     H1 1287   2.861   2.332   1.147  1.9606  1.9487  2.8405
   67DMF     H2 1288   2.934   2.205   1.052 -2.9539 -1.1752 -0.5047
   67DMF     H3 1289   2.980   2.228   1.229 -0.0624  0.0517 -0.2270
   67DMF     H4 1290   2.821   1.946   1.089  2.3681 -2.4601  0.8307
   67DMF     H5 1291   2.787   1.914   1.252  0.1750 -2.4305 -0.9324
   67DMF     H6 1292   2.947   1.960   1.217  0.2323 -1.3382 -0.2361
   67DMF     H7 1293   2.604   2.081   1.268  1.1549 -1.4331 -1.1148
   68DMF     C1 1294   1.254   0.276   0.195  0.7771 -0.1212 -0.5597
   68DMF     N1 1295   1.271   0.298   0.346 -0.5184 -0.9850 -0.2616
   68DMF     C2 1296   1.153   0.277   0.429 -0.4028 -0.0005  0.0819
   68DMF     C3 1297   1.395   0.338   0.394 -0.1108  0.8019 -0.6313
   68DMF     O1 1298   1.493   0.365   0.327  0.0450  0.6907  0.1249
   68DMF     H1 1299   1.287   0.366   0.142  1.3519 -0.7100 -1.2232
   68DMF     H2 1300   1.148   0.254   0.180 -0.2102  1.6884  3.1194
   68DMF     H3 1301   1.322   0.192   0.174  2.3596  0.8664  0.4815
   68DMF     H4 1302   1.119   0.175   0.405 -0.6903  0.2523 -0.5936
   68DMF     H5 1303   1.076   0.352   0.409  0.8439  0.9958 -1.0892
   68DMF     H6 1304   1.173   0.282   0.537  0.7559 -1.2994 -0.0582
   68DMF     H7 1305   1.403   0.324   0.503  1.2647 -0.4254 -0.8677
   69DMF     C1 1306   0.062   0.518   3.508  0.2127 -0.3126 -0.2975
   69DMF     N1 1307   0.078   0.587   3.375  0.2607 -0.5471  0.0535
   69DMF     C2 1308   0.087   0.740   3.374  0.7484  0.1721 -0.0199
   69DMF     C3 1309   0.093   0.514   3.257 -0.0212  0.3355 -0.0954
   69DMF     O1 1310   0.101   0.391   3.255  0.1836  0.5854 -0.2548
   69DMF     H1 1311   0.163   0.513   3.551  0.8469  1.2671 -1.5898
   69DMF     H2 1312   0.018   0.417   3.508  1.2031 -0.7619 -0.9137
   69DMF     H3 1313   0.001   0.582   3.572  0.5097  0.3210 -0.6455
   69DMF     H4 1314   0.194   0.755   3.355  0.2227 -0.6916 -4.0893
   69DMF     H5 1315   0.058   0.778   3.472  0.1006  0.3447 -0.2745
   69DMF     H6 1316   0.029   0.779   3.289  1.9024 -0.5973 -1.1880
   69DMF     H7 1317   0.102   0.581   3.169 -1.5521  0.6412 -0.0339
   70DMF     C1 1318   1.409   2.820   1.130 -0.4947 -0.5785  0.2344
   70DMF     N1 1319   1.418   2.770   0.993  0.4542  0.0574  0.2140
   70DMF     C2 1320   1.373   2.855   0.881 -0.3806 -0.0924  0.0896
   70DMF     C3 1321   1.476   2.638   0.973 -0.1684  0.7278 -0.2030
   70DMF     O1 1322   1.531   2.576   1.068 -0.7086 -0.2409  0.1603
   70DMF     H1 1323   1.351   2.913   1.127  2.1324  1.0968 -0.2160
   70DMF     H2 1324   1.512   2.845   1.158 -0.2894 -0.3504 -0.6916
   70DMF     H3 1325   1.356   2.753   1.199  0.7386 -1.2644  0.5379
   70DMF     H4 1326   1.268   2.885   0.889 -1.2323 -2.1684 -2.3986
   70DMF     H5 1327   1.387   2.802   0.786  0.2794  2.0260 -1.0228
   70DMF     H6 1328   1.433   2.945   0.896 -0.6113  0.0690  0.0442
   70DMF     H7 1329   1.473   2.591   0.873 -0.7647 -0.6778  0.4591
   71DMF     C1 1330   1.213   0.923   1.259  0.1257  0.4122 -0.5746
   71DMF     N1 1331   1.262   0.813   1.169 -0.4588  0.5828  0.0945
   71DMF     C2 1332   1.387   0.738   1.201 -0.6460 -0.8912 -0.5424
   71DMF     C3 1333   1.181   0.762   1.068 -0.0786 -0.6318 -0.0671
   71DMF     O1 1334   1.069   0.800   1.053 -0.4466  0.1975  0.7521
   71DMF     H1 1335   1.196   1.013   1.199  0.1293  1.2664  0.6839
   71DMF     H2 1336   1.290   0.945   1.334 -0.1757 -1.0474  0.1924
   71DMF     H3 1337   1.127   0.893   1.321  1.3707 -1.9982  0.0349
   71DMF     H4 1338   1.416   0.768   1.303 -0.5212 -0.3744 -0.7285
   71DMF     H5 1339   1.471   0.767   1.137 -0.1576 -0.3367  0.3363
   71DMF     H6 1340   1.372   0.630   1.193 -1.7335 -0.8736  0.8205
   71DMF     H7 1341   1.222   0.669   1.025  0.6820 -1.3279  2.0823
   72DMF     C1 1342   3.081   2.558   1.220 -0.4265  0.7342  0.6940
   72DMF     N1 1343   3.190   2.513   1.135  0.1220  0.3428  0.0552
   72DMF     C2 1344   3.247   2.382   1.156  0.5339  0.6176  0.0783
   72DMF     C3 1345   3.269   2.607   1.062 -0.3653 -0.4473 -0.6644
   72DMF     O1 1346   3.227   2.723   1.044  0.2682  0.8381 -0.0443
   72DMF     H1 1347   3.110   2.648   1.275  1.0380  0.0394  1.0936
   72DMF     H2 1348   3.053   2.478   1.290 -0.9279  0.1809 -0.1182
   72DMF     H3 1349   2.995   2.576   1.155 -0.0228  1.1655  0.2771
   72DMF     H4 1350   3.178   2.332   1.227  2.2199 -1.7246  0.1294
   72DMF     H5 1351   3.347   2.386   1.199  1.4757  0.6900 -2.0711
   72DMF     H6 1352   3.251   2.319   1.066  1.7366 -2.2998  2.0858
   72DMF     H7 1353   3.370   2.575   1.033 -0.0914  0.8227 -1.1296
   73DMF     C1 1354   0.700   1.086   0.441  0.8728  0.7853 -0.0668
   73DMF     N1 1355   0.663   1.038   0.300  0.4118  0.1708  0.0732
   73DMF     C2 1356   0.751   1.081   0.188 -0.0315  0.7648 -0.1260
   73DMF     C3 1357   0.546   0.963   0.273  0.0673  0.4965 -0.7117
   73DMF     O1 1358   0.460   0.941   0.357  0.1085 -0.2977  0.7499
   73DMF     H1 1359   0.729   1.003   0.507 -2.0108 -0.7917 -0.6981
   73DMF     H2 1360   0.616   1.137   0.489  1.3963  2.2199 -0.6465
   73DMF     H3 1361   0.784   1.156   0.438  1.2413  0.3315 -0.5718
   73DMF     H4 1362   0.857   1.095   0.212 -0.0268  2.5408 -1.0609
   73DMF     H5 1363   0.724   1.186   0.171 -0.4174  0.5858 -0.6396
   73DMF     H6 1364   0.738   1.018   0.099  1.1927 -1.0477  0.9609
   73DMF     H7 1365   0.542   0.930   0.168 -1.2612 -2.1127  0.1302
   74DMF     C1 1366   1.654   1.434   1.551 -0.5609  0.5629  0.1999
   74DMF     N1 1367   1.796   1.421   1.562 -0.1931  0.3591 -0.0603
   74DMF     C2 1368   1.857   1.293   1.531 -0.7031 -0.2082 -0.0689
   74DMF     C3 1369   1.884   1.526   1.572  0.3521  0.5647  0.8789
   74DMF     O1 1370   1.852   1.643   1.595  0.0666  0.1136 -0.1616
   74DMF     H1 1371   1.604   1.371   1.476 -0.1872  0.6269 -0.1038
   74DMF     H2 1372   1.628   1.539   1.537 -0.8164  0.9289  3.1052
   74DMF     H3 1373   1.615   1.400   1.648 -0.6987 -2.3672 -0.8291
   74DMF     H4 1374   1.912   1.298   1.436  0.8258  0.3970  0.8284
   74DMF     H5 1375   1.787   1.208   1.532 -1.8670  0.7396  2.7784
   74DMF     H6 1376   1.925   1.257   1.609  1.0637  4.3353  0.6244
   74DMF     H7 1377   1.989   1.496   1.558  0.2639  0.6574 -0.0046
   75DMF     C1 1378   1.760   2.412   0.769 -0.3458  0.0824  0.8322
   75DMF     N1 1379   1.724   2.428   0.626 -0.0939  0.5099  0.0933
   75DMF     C2 1380   1.765   2.323   0.538 -0.5779  0.0732 -0.1250
   75DMF     C3 1381   1.625   2.514   0.584 -0.0330 -0.4961  0.3687
   75DMF     O1 1382   1.578   2.594   0.661 -0.0209  0.0007  0.6037
   75DMF     H1 1383   1.819   2.321   0.788  2.2728  2.0381  2.3706
   75DMF     H2 1384   1.667   2.394   0.824 -0.8115 -3.2628 -0.8930
   75DMF     H3 1385   1.808   2.504   0.805  1.3005 -0.8717  1.0998
   75DMF     H4 1386   1.687   2.247   0.534 -2.2682  1.8092 -1.1897
   75DMF     H5 1387   1.862   2.279   0.567 -0.7518  0.0261  0.3890
   75DMF     H6 1388   1.769   2.360   0.434  0.8770 -1.7161 -0.7435
   75DMF     H7 1389   1.601   2.507   0.476 -0.7426 -1.8975  0.6055
   76DMF     C1 1390   2.984   1.114   3.499  0.7788  0.0723 -0.3917
   76DMF     N1 1391   2.931   1.059   3.626 -0.2670  0.1514  0.1396
   76DMF     C2 1392   3.001   1.096   3.751 -0.2800  0.0699  0.0861
   76DMF     C3 1393   2.832   0.958   3.628 -0.2890  0.2105 -0.4533
   76DMF     O1 1394   2.782   0.922   3.518  0.5506  0.0437  0.2282
   76DMF     H1 1395   2.897   1.165   3.457  2.2784  2.0790 -1.1296
   76DMF     H2 1396   3.007   1.036   3.426 -1.0415 -0.9683  0.1061
   76DMF     H3 1397   3.066   1.185   3.517 -0.4199  0.8843  2.1989
   76DMF     H4 1398   3.036   0.999   3.788  0.4700  0.1172 -0.4927
   76DMF     H5 1399   2.926   1.130   3.824 -0.9254 -1.8480  0.3577
   76DMF     H6 1400   3.088   1.159   3.732 -0.4504 -0.1223 -1.3633
   76DMF     H7 1401   2.812   0.917   3.729  2.1645  1.8915  0.7664
   77DMF     C1 1402   2.434   1.482   0.717 -0.5652  0.5019  0.2622
   77DMF     N1 1403   2.446   1.380   0.831  0.0470 -0.0249 -0.3084
   77DMF     C2 1404   2.552   1.281   0.825  0.0786  0.4470  0.4725
   77DMF     C3 1405   2.342   1.362   0.919 -0.0127  0.1684 -0.1652
   77DMF     O1 1406   2.249   1.442   0.930  0.4555  0.0491  0.8018
   77DMF     H1 1407   2.423   1.582   0.761  0.7885 -0.1329  2.1137
   77DMF     H2 1408   2.346   1.469   0.652 -0.4891 -1.2357  0.4669
   77DMF     H3 1409   2.527   1.485   0.659  0.1620  1.5777  1.4565
   77DMF     H4 1410   2.581   1.257   0.722  0.9234  0.9319  0.5923
   77DMF     H5 1411   2.530   1.184   0.872 -2.2927  1.1067  0.8088
   77DMF     H6 1412   2.645   1.307   0.876  0.2671 -0.6343  0.6842
   77DMF     H7 1413   2.348   1.269   0.979  1.5232 -0.2531 -0.9379
   78DMF     C1 1414   0.834   0.301   0.243  0.3613  0.2387 -0.1555
   78DMF     N1 1415   0.739   0.318   0.134  0.1196  0.2655  0.0848
   78DMF     C2 1416   0.789   0.342  -0.007 -0.3671  0.6785  0.6896
   78DMF     C3 1417   0.607   0.294   0.158 -0.1188 -0.8053 -0.1372
   78DMF     O1 1418   0.560   0.261   0.261 -0.1069 -0.3777  0.0249
   78DMF     H1 1419   0.936   0.334   0.222  0.0414  0.6028 -1.1721
   78DMF     H2 1420   0.837   0.200   0.286 -1.2855  0.9975  1.8060
   78DMF     H3 1421   0.814   0.370   0.326 -1.0426 -0.3270 -0.0113
   78DMF     H4 1422   0.855   0.429  -0.009  1.6309 -0.8242 -0.5746
   78DMF     H5 1423   0.714   0.359  -0.085  0.7258 -2.1386 -1.0233
   78DMF     H6 1424   0.864   0.265  -0.027  1.6322  2.5339  0.8374
   78DMF     H7 1425   0.553   0.318   0.065  0.2189 -1.5929 -0.5395
   79DMF     C1 1426   3.160   2.210   0.464 -0.5990  0.1688  0.6445
   79DMF     N1 1427   3.294   2.168   0.407 -0.7154 -0.2313 -0.3870
   79DMF     C2 1428   3.342   2.026   0.431 -1.1444 -0.6564  0.2001
   79DMF     C3 1429   3.356   2.248   0.319  0.7076 -0.3635 -0.0678
   79DMF     O1 1430   3.322   2.366   0.295 -0.4424 -0.0782 -0.3620
   79DMF     H1 1431   3.129   2.170   0.562 -0.6838 -0.8010  0.2207
   79DMF     H2 1432   3.075   2.207   0.394  0.1494 -1.3714 -0.2141
   79DMF     H3 1433   3.163   2.317   0.490  0.4455  0.7061 -1.5768
   79DMF     H4 1434   3.411   2.027   0.516 -0.8423 -0.1396 -0.0479
   79DMF     H5 1435   3.399   1.992   0.343 -0.1192 -0.6851  0.8691
   79DMF     H6 1436   3.260   1.959   0.458 -1.0452 -1.4745 -1.4160
   79DMF     H7 1437   3.444   2.207   0.265  1.5331  1.3715 -0.0909
   80DMF     C1 1438   3.147   2.124   1.539 -0.5582 -0.1465  1.2425
   80DMF     N1 1439   3.282   2.204   1.547 -0.5600 -0.2863 -0.1417
   80DMF     C2 1440   3.269   2.351   1.554  0.5073  0.3673 -0.4784
   80DMF     C3 1441   3.398   2.133   1.578 -0.3907  0.2861 -0.3627
   80DMF     O1 1442   3.408   2.011   1.572  0.5092 -0.4317 -0.2290
   80DMF     H1 1443   3.148   2.064   1.447  0.0887  0.1159  1.0745
   80DMF     H2 1444   3.060   2.190   1.538 -0.1068  0.4588  1.2685
   80DMF     H3 1445   3.151   2.059   1.627  1.3657 -2.2325 -0.2962
   80DMF     H4 1446   3.191   2.373   1.629 -0.7368 -0.4185 -1.5175
   80DMF     H5 1447   3.252   2.391   1.454 -1.6771 -0.0304 -0.2854
   80DMF     H6 1448   3.363   2.398   1.584  1.1734 -2.1136  1.5317
   80DMF     H7 1449   3.481   2.199   1.607 -0.4113  1.2682 -2.4619
   81DMF     C1 1450   2.942   2.491   0.247  0.7492 -0.3705  0.0234
   81DMF     N1 1451   2.867   2.380   0.185  0.2696 -0.1982 -0.2074
   81DMF     C2 1452   2.849   2.363   0.040 -0.5778  0.0392 -0.0393
   81DMF     C3 1453   2.810   2.280   0.272 -0.2155  0.1065  0.2271
   81DMF     O1 1454   2.803   2.291   0.393 -0.3482  0.1150 -0.2728
   81DMF     H1 1455   2.969   2.562   0.169 -1.7407  0.2126 -0.3531
   81DMF     H2 1456   3.040   2.448   0.271  0.0822 -2.7476 -1.3441
   81DMF     H3 1457   2.898   2.539   0.335  2.0767  0.6802  0.1284
   81DMF     H4 1458   2.936   2.304   0.009 -1.5851 -3.0247  2.6036
   81DMF     H5 1459   2.855   2.462  -0.006  0.6128  0.3162  0.6788
   81DMF     H6 1460   2.751   2.317   0.023 -0.8568  0.5138  0.2949
   81DMF     H7 1461   2.767   2.197   0.213  0.4903 -0.6850  0.8233
   82DMF     C1 1462   3.235   3.392   0.633 -0.6160 -0.6652 -0.2096
   82DMF     N1 1463   3.229   3.248   0.676 -0.4061  0.1662 -0.2709
   82DMF     C2 1464   3.168   3.206   0.802 -0.7097  0.1904 -0.2407
   82DMF     C3 1465   3.273   3.157   0.575 -0.0668  0.2248  0.2019
   82DMF     O1 1466   3.318   3.198   0.472  0.4441  0.3944 -1.0175
   82DMF     H1 1467   3.172   3.453   0.699  1.0014  2.7772 -1.6775
   82DMF     H2 1468   3.202   3.411   0.530 -0.1476 -0.1997 -0.2771
   82DMF     H3 1469   3.338   3.428   0.648 -0.3823 -1.0333 -0.9034
   82DMF     H4 1470   3.245   3.202   0.881  0.4451  1.3547 -1.2953
   82DMF     H5 1471   3.132   3.103   0.791  0.6513 -0.3029 -0.2716
   82DMF     H6 1472   3.093   3.279   0.834  0.4232  1.4372 -0.4134
   82DMF     H7 1473   3.261   3.050   0.601 -0.7958 -0.2664 -2.0195
   83DMF     C1 1474   3.336   2.627   0.493 -0.4681 -0.3666 -0.0277
   83DMF     N1 1475   3.343   2.669   0.635  0.0682  0.4282 -0.2800
   83DMF     C2 1476   3.429   2.587   0.724  0.6079  0.3742 -0.2599
   83DMF     C3 1477   3.249   2.752   0.702 -0.2943  0.2332  0.6636
   83DMF     O1 1478   3.154   2.802   0.645  0.1085  0.3674  0.0947
   83DMF     H1 1479   3.401   2.539   0.493  1.3820  0.9815 -0.2830
   83DMF     H2 1480   3.384   2.709   0.439  1.2432  0.3501  2.5214
   83DMF     H3 1481   3.233   2.602   0.463 -0.5081  1.2645 -1.3387
   83DMF     H4 1482   3.483   2.656   0.790  1.5554 -0.5913 -0.0048
   83DMF     H5 1483   3.499   2.545   0.651  1.8477  0.4768  0.8518
   83DMF     H6 1484   3.377   2.522   0.796  1.5241 -0.5101 -0.3832
   83DMF     H7 1485   3.275   2.783   0.805 -4.6079  2.2692  1.2504
   84DMF     C1 1486   3.260   0.669   0.955  0.2155 -0.2540  0.0496
   84DMF     N1 1487   3.412   0.652   0.918  0.3308  0.3449  0.2480
   84DMF     C2 1488   3.506   0.608   1.019 -0.4335  0.3679  0.1502
   84DMF     C3 1489   3.460   0.670   0.789  0.4086 -0.8054  0.0071
   84DMF     O1 1490   3.378   0.714   0.703 -0.0016 -0.1627  0.1726
   84DMF     H1 1491   3.233   0.598   1.034 -0.5375  0.2607  0.2580
   84DMF     H2 1492   3.193   0.658   0.869 -0.6114 -2.7334  0.9776
   84DMF     H3 1493   3.238   0.775   0.973 -2.1774 -0.7959  0.4488
   84DMF     H4 1494   3.450   0.540   1.085 -1.6850  0.3893 -0.8546
   84DMF     H5 1495   3.539   0.691   1.084  2.2343  0.8999 -1.8021
   84DMF     H6 1496   3.594   0.563   0.974 -0.2052 -0.0976  1.0408
   84DMF     H7 1497   3.569   0.660   0.779  0.5825  1.2776 -0.3956
   85DMF     C1 1498   1.594   3.177   0.984  0.5366  0.0888  0.2307
   85DMF     N1 1499   1.676   3.294   1.013 -0.2429 -0.2486 -0.0700
   85DMF     C2 1500   1.634   3.411   1.091  0.4582 -0.4236  0.2158
   85DMF     C3 1501   1.817   3.274   0.999  0.2181 -0.2155  0.4229
   85DMF     O1 1502   1.861   3.169   0.950 -0.0055  0.7484 -0.3495
   85DMF     H1 1503   1.525   3.158   1.067 -0.0544 -2.0936 -0.7151
   85DMF     H2 1504   1.656   3.087   0.980  2.4824  1.3186  1.6248
   85DMF     H3 1505   1.530   3.195   0.897  3.0336 -1.1210 -1.9190
   85DMF     H4 1506   1.579   3.392   1.184  0.6586  1.3696  0.7115
   85DMF     H5 1507   1.557   3.455   1.026  1.0333 -0.7569 -0.7038
   85DMF     H6 1508   1.720   3.475   1.111  1.1015 -0.9037 -0.9595
   85DMF     H7 1509   1.878   3.365   1.011 -2.9234  1.8464  1.3312
   86DMF     C1 1510   2.332   1.911   0.320 -0.3425  0.4917  0.1432
   86DMF     N1 1511   2.383   1.872   0.179  0.0259  0.3440 -0.1176
   86DMF     C2 1512   2.483   1.958   0.110 -0.5000  0.1227  0.0466
   86DMF     C3 1513   2.358   1.756   0.119 -0.5634  0.2694  0.4824
   86DMF     O1 1514   2.301   1.665   0.175 -0.3522 -0.3130  0.2003
   86DMF     H1 1515   2.423   1.905   0.381  0.3114  0.1969 -0.8515
   86DMF     H2 1516   2.256   1.837   0.350  1.6221 -1.1308  1.2382
   86DMF     H3 1517   2.287   2.010   0.315 -1.6388 -0.1232 -0.5952
   86DMF     H4 1518   2.570   1.895   0.085  0.7546  2.0083 -0.3838
   86DMF     H5 1519   2.521   2.035   0.177  0.6661 -0.4184  0.0184
   86DMF     H6 1520   2.448   2.003   0.016  0.4773  0.4649 -0.1555
   86DMF     H7 1521   2.401   1.746   0.018 -1.4574 -0.6990  0.1816
   87DMF     C1 1522   0.154   1.289   3.412  0.5300 -0.0244  0.2058
   87DMF     N1 1523   0.132   1.162   3.485 -0.5562  0.1542  0.2633
   87DMF     C2 1524   0.247   1.087   3.541 -0.2540 -0.2251  0.6652
   87DMF     C3 1525  -0.000   1.097   3.480 -0.6892 -0.2556  0.5603
   87DMF     O1 1526  -0.093   1.136   3.409  0.6418  0.0835 -0.1064
   87DMF     H1 1527   0.094   1.315   3.324 -0.6959 -1.7836  0.5191
   87DMF     H2 1528   0.257   1.277   3.375 -0.3254  1.8876 -2.9836
   87DMF     H3 1529   0.163   1.369   3.486  1.3979 -1.3453  1.5481
   87DMF     H4 1530   0.255   0.985   3.502 -1.3753 -1.0424  2.5136
   87DMF     H5 1531   0.241   1.069   3.649  1.4435  2.0001  1.1638
   87DMF     H6 1532   0.336   1.146   3.516 -0.4914 -0.2064 -0.1650
   87DMF     H7 1533  -0.010   1.007   3.544  1.5216 -0.6520  0.3748
   88DMF     C1 1534   0.347   1.851   1.321 -0.5967  0.0996  0.2418
   88DMF     N1 1535   0.263   1.836   1.446 -0.1471  0.7485 -0.1382
   88DMF     C2 1536   0.134   1.759   1.435 -0.2904 -0.7317  0.5476
   88DMF     C3 1537   0.294   1.909   1.565  0.0501  0.5895  0.3495
   88DMF     O1 1538   0.399   1.972   1.579 -0.6793 -0.0849  0.5945
   88DMF     H1 1539   0.347   1.957   1.292  1.7797 -0.1250 -0.7020
   88DMF     H2 1540   0.316   1.778   1.246 -0.4916 -1.2944  1.5417
   88DMF     H3 1541   0.450   1.817   1.334 -0.8175 -0.2751  1.0364
   88DMF     H4 1542   0.080   1.764   1.530 -0.3766 -0.8539  0.5060
   88DMF     H5 1543   0.145   1.654   1.404 -1.3892 -0.8986  0.7049
   88DMF     H6 1544   0.073   1.801   1.354 -0.4492  0.1850  1.1337
   88DMF     H7 1545   0.207   1.911   1.633 -0.0317  1.1337  0.2327
   89DMF     C1 1546   0.294   1.945   3.340  0.3998  0.5836  0.7373
   89DMF     N1 1547   0.240   1.844   3.422  0.1717  0.0047 -0.1841
   89DMF     C2 1548   0.250   1.857   3.562  0.5748  0.3363 -0.5549
   89DMF     C3 1549   0.153   1.740   3.374  0.0378  0.4899  0.5794
   89DMF     O1 1550   0.133   1.726   3.253 -0.4916  0.4833  0.2519
   89DMF     H1 1551   0.310   2.042   3.389  0.1556  1.4759 -0.9393
   89DMF     H2 1552   0.236   1.975   3.252 -0.7231  0.9530  1.5929
   89DMF     H3 1553   0.395   1.904   3.326  1.0841  2.0633  1.2701
   89DMF     H4 1554   0.199   1.778   3.617  1.5182  1.1979  1.6295
   89DMF     H5 1555   0.208   1.955   3.588 -0.0272 -0.0154 -0.1976
   89DMF     H6 1556   0.356   1.864   3.591  0.5585 -1.4297 -0.0101
   89DMF     H7 1557   0.096   1.683   3.450 -1.4317 -0.6619 -1.3422
   90DMF     C1 1558   1.396   0.836   1.568 -0.5216  0.3410 -0.0025
   90DMF     N1 1559   1.494   0.923   1.512 -0.8435  0.1893  0.0913
   90DMF     C2 1560   1.497   1.064   1.559 -0.1170 -0.1981  0.5160
   90DMF     C3 1561   1.610   0.864   1.455 -0.1226 -0.5924 -0.1208
   90DMF     O1 1562   1.617   0.745   1.428 -0.5708 -0.0983 -0.1831
   90DMF     H1 1563   1.362   0.766   1.490  0.2775 -1.5550  1.3113
   90DMF     H2 1564   1.313   0.894   1.609 -1.6648 -2.1743  1.3583
   90DMF     H3 1565   1.449   0.778   1.645  0.7795 -0.9008 -1.7903
   90DMF     H4 1566   1.597   1.109   1.557 -0.6790  1.1124  1.8131
   90DMF     H5 1567   1.465   1.075   1.663 -1.6131 -1.2186  0.1828
   90DMF     H6 1568   1.426   1.129   1.506  0.4072  0.2035  0.3051
   90DMF     H7 1569   1.688   0.939   1.432  0.7566 -1.3565  0.3250
   91DMF     C1 1570   1.989   2.262   1.081 -0.4991 -1.0224 -0.4285
   91DMF     N1 1571   2.075   2.317   1.189 -0.5088 -0.1856  0.0414
   91DMF     C2 1572   2.002   2.356   1.313 -0.2826  1.1427  0.1114
   91DMF     C3 1573   2.221   2.307   1.188  0.0289  0.3080 -0.2455
   91DMF     O1 1574   2.269   2.244   1.099  0.0810  0.0581  0.6865
   91DMF     H1 1575   2.012   2.308   0.984  0.2390 -1.7510 -0.6052
   91DMF     H2 1576   1.886   2.284   1.113  1.4759  3.6142  3.2200
   91DMF     H3 1577   2.008   2.154   1.087 -1.6429 -1.3488 -2.0669
   91DMF     H4 1578   1.953   2.271   1.362  0.6654  1.4659  1.6289
   91DMF     H5 1579   1.928   2.434   1.291 -1.3150  0.2975  0.5683
   91DMF     H6 1580   2.077   2.377   1.390  0.8283 -1.0221 -0.3163
   91DMF     H7 1581   2.268   2.365   1.270 -0.2386 -0.6004  0.5604
   92DMF     C1 1582   0.390   0.005   0.876  0.1209 -1.0171 -0.2261
   92DMF     N1 1583   0.266  -0.033   0.945 -0.7650 -0.4104  0.8914
   92DMF     C2 1584   0.180  -0.139   0.884 -0.0213 -0.3939  0.4957
   92DMF     C3 1585   0.225   0.040   1.055 -0.3132 -0.5376  0.0504
   92DMF     O1 1586   0.293   0.132   1.097  0.2220  0.1772 -0.4416
   92DMF     H1 1587   0.382   0.084   0.800  0.8865 -0.9231 -0.2137
   92DMF     H2 1588   0.429  -0.081   0.819  0.4256 -1.8493  1.2124
   92DMF     H3 1589   0.475   0.013   0.945  1.6697  1.1312 -2.2864
   92DMF     H4 1590   0.154  -0.226   0.945 -1.3878  1.5067  2.7490
   92DMF     H5 1591   0.219  -0.184   0.792  2.3100  1.1004  0.7256
   92DMF     H6 1592   0.083  -0.098   0.851  0.5182  1.5541  1.2599
   92DMF     H7 1593   0.143  -0.013   1.107 -0.7400 -0.6665 -0.7417
   93DMF     C1 1594   0.651   1.497   1.480 -0.3374  0.3127  0.2234
   93DMF     N1 1595   0.628   1.416   1.353 -0.1878 -0.6606  0.4006
   93DMF     C2 1596   0.713   1.440   1.237 -0.1768  0.3285  0.5812
   93DMF     C3 1597   0.556   1.296   1.347 -0.4343 -0.4943  0.3889
   93DMF     O1 1598   0.490   1.258   1.437 -0.1965  0.0811 -0.9505
   93DMF     H1 1599   0.553   1.532   1.517 -1.3629 -0.5648 -1.5545
   93DMF     H2 1600   0.709   1.589   1.470 -0.6223  0.6120  1.2307
   93DMF     H3 1601   0.694   1.433   1.558  0.8135  2.5347  1.4669
   93DMF     H4 1602   0.649   1.428   1.149  0.4591  0.1665  0.1363
   93DMF     H5 1603   0.790   1.362   1.242 -0.4769  0.1541  2.4894
   93DMF     H6 1604   0.761   1.539   1.239 -0.8595  0.6618  0.7058
   93DMF     H7 1605   0.561   1.238   1.253 -0.4244 -3.1583  1.9596
   94DMF     C1 1606   1.175   0.866   0.616  0.5215  0.0200 -0.4268
   94DMF     N1 1607   1.075   0.758   0.621  0.3791 -0.6813  0.5453
   94DMF     C2 1608   0.964   0.772   0.713 -0.4807  0.2934 -0.6198
   94DMF     C3 1609   1.070   0.642   0.540 -0.5418  0.0850  1.1200
   94DMF     O1 1610   1.144   0.621   0.443 -0.6684  0.1693 -0.1520
   94DMF     H1 1611   1.191   0.884   0.510 -0.0749  0.6015 -0.4172
   94DMF     H2 1612   1.275   0.832   0.647  0.8546  1.5485  0.1887
   94DMF     H3 1613   1.131   0.953   0.666 -0.9750 -1.2319  0.4877
   94DMF     H4 1614   0.956   0.878   0.743 -1.0681 -0.5102  2.1720
   94DMF     H5 1615   0.967   0.703   0.798  1.3045 -1.2027 -1.8646
   94DMF     H6 1616   0.878   0.746   0.650 -1.3806 -3.4344  1.9576
   94DMF     H7 1617   0.991   0.571   0.571 -1.9819  0.4734 -1.4838
   95DMF     C1 1618   0.749   2.462   1.294 -0.3811  0.6672  0.3410
   95DMF     N1 1619   0.702   2.548   1.408  0.1885 -0.1961 -0.7692
   95DMF     C2 1620   0.602   2.655   1.389  0.3013 -0.5136  0.1087
   95DMF     C3 1621   0.750   2.521   1.543 -0.5646  0.2616  0.1772
   95DMF     O1 1622   0.823   2.429   1.572 -1.1338 -0.0909  0.5914
   95DMF     H1 1623   0.845   2.499   1.256 -0.0310  0.2142  0.7867
   95DMF     H2 1624   0.688   2.467   1.203  2.6401 -1.9094 -1.9405
   95DMF     H3 1625   0.750   2.354   1.314  1.0447  0.7901  1.0105
   95DMF     H4 1626   0.504   2.608   1.406 -0.6720  1.5988  0.5755
   95DMF     H5 1627   0.608   2.697   1.288 -1.3744  0.2060  0.2907
   95DMF     H6 1628   0.607   2.728   1.471 -0.9747  0.5633 -0.7428
   95DMF     H7 1629   0.719   2.596   1.617 -1.3601  1.2642 -1.1454
   96DMF     C1 1630   2.091   0.320   3.552 -0.1320 -0.5304 -0.0102
   96DMF     N1 1631   2.188   0.223   3.497  0.0487 -0.0878 -0.0252
   96DMF     C2 1632   2.226   0.237   3.358  0.2984  0.1204  0.0797
   96DMF     C3 1633   2.235   0.112   3.574  0.3179 -0.2543  0.2274
   96DMF     O1 1634   2.203   0.100   3.692 -0.6004 -0.8369  0.4672
   96DMF     H1 1635   2.055   0.292   3.652  4.0321 -2.7729  0.9983
   96DMF     H2 1636   2.011   0.335   3.479 -0.5231  0.0042  0.5276
   96DMF     H3 1637   2.146   0.414   3.566 -0.9513 -0.1853  0.9082
   96DMF     H4 1638   2.235   0.140   3.306 -0.1476  1.3662 -2.3773
   96DMF     H5 1639   2.332   0.264   3.349  0.4192 -0.3696 -0.0093
   96DMF     H6 1640   2.165   0.308   3.300  0.6092 -0.3048 -0.7852
   96DMF     H7 1641   2.310   0.049   3.522  1.4587  0.0941  1.4276
   97DMF     C1 1642   2.709   0.437   1.371  0.2865  0.1129 -0.5227
   97DMF     N1 1643   2.612   0.422   1.482  0.6551 -0.2571 -0.0150
   97DMF     C2 1644   2.505   0.527   1.492 -0.8678 -0.3322  0.4617
   97DMF     C3 1645   2.600   0.299   1.547 -0.1990  0.3066  0.0046
   97DMF     O1 1646   2.679   0.200   1.533  0.9504  0.1293  0.0980
   97DMF     H1 1647   2.704   0.351   1.304 -0.5711  1.4223 -2.1690
   97DMF     H2 1648   2.813   0.454   1.402 -0.6202  1.6102  1.9199
   97DMF     H3 1649   2.678   0.526   1.315 -2.2865 -1.3957 -1.6237
   97DMF     H4 1650   2.546   0.602   1.562  0.1076  0.1912 -0.6573
   97DMF     H5 1651   2.414   0.471   1.517 -0.2709 -1.6063 -0.1774
   97DMF     H6 1652   2.471   0.576   1.401  0.7241 -0.5746 -0.2778
   97DMF     H7 1653   2.515   0.304   1.617  1.3753  1.0253  1.9144
   98DMF     C1 1654   0.381   3.424   1.490  0.3745  0.4056 -0.5552
   98DMF     N1 1655   0.304   3.321   1.419  0.2942 -0.3191  0.3768
   98DMF     C2 1656   0.361   3.255   1.302  0.4067 -0.5923 -0.0536
   98DMF     C3 1657   0.186   3.267   1.475  0.2541 -0.1112  0.3195
   98DMF     O1 1658   0.148   3.298   1.589  0.2389  0.2834  0.0405
   98DMF     H1 1659   0.482   3.388   1.512 -0.2540 -1.5624 -0.7766
   98DMF     H2 1660   0.320   3.450   1.577 -1.4325  1.6200 -2.1417
   98DMF     H3 1661   0.381   3.511   1.423  2.4343 -0.2892 -1.5154
   98DMF     H4 1662   0.278   3.211   1.245 -0.5234  0.4964  0.4451
   98DMF     H5 1663   0.424   3.170   1.332 -1.5935 -1.6357  1.3295
   98DMF     H6 1664   0.426   3.331   1.258  1.8956 -0.6192  2.0390
   98DMF     H7 1665   0.129   3.200   1.407  0.2160 -0.3440  0.5831
   99DMF     C1 1666   3.108   2.678   1.539 -0.1447  0.3518 -0.1530
   99DMF     N1 1667   2.959   2.690   1.521  1.0121 -0.0812 -0.0274
   99DMF     C2 1668   2.898   2.821   1.488 -0.3015  0.1658 -0.3695
   99DMF     C3 1669   2.875   2.569   1.516  0.0384 -0.0701 -0.6180
   99DMF     O1 1670   2.918   2.458   1.551 -0.2623 -0.9420 -0.2412
   99DMF     H1 1671   3.140   2.738   1.625  0.8325 -0.8543  0.3406
   99DMF     H2 1672   3.155   2.729   1.454  1.3925 -2.4621 -1.0477
   99DMF     H3 1673   3.127   2.570   1.548  0.4201  0.5379  1.0120
   99DMF     H4 1674   2.809   2.823   1.552  0.2824  0.5707  0.4348
   99DMF     H5 1675   2.867   2.822   1.382  0.3135 -2.7608 -0.6306
   99DMF     H6 1676   2.971   2.898   1.513 -0.5492  1.0704 -2.3287
   99DMF     H7 1677   2.768   2.582   1.491 -0.6164 -1.1032  1.5302
  100DMF     C1 1678   0.321   1.273   0.340  0.2066 -0.1071  0.2202
  100DMF     N1 1679   0.251   1.274   0.471  0.4966 -0.3577 -0.5708
  100DMF     C2 1680   0.291   1.179   0.582  0.1595 -0.1415 -0.2065
  100DMF     C3 1681   0.131   1.345   0.491 -0.5724  0.3436  0.0635
  100DMF     O1 1682   0.087   1.410   0.397  0.2320 -0.4318  0.1790
  100DMF     H1 1683   0.247   1.297   0.262 -3.7587 -3.6891  2.6364
  100DMF     H2 1684   0.352   1.169   0.327  0.7122 -0.2134  2.1461
  100DMF     H3 1685   0.407   1.340   0.351  0.7208 -0.4268 -1.7103
  100DMF     H4 1686   0.360   1.099   0.554  1.3067  0.4675  0.8636
  100DMF     H5 1687   0.202   1.126   0.618  2.5715 -3.1882  1.5150
  100DMF     H6 1688   0.321   1.235   0.671 -3.0604  1.2084  0.1046
  100DMF     H7 1689   0.075   1.326   0.584  1.0019  1.2785  1.2331
  101DMF     C1 1690   1.090   1.193   0.083 -0.8733 -0.9039 -0.0068
  101DMF     N1 1691   1.074   1.307  -0.014 -0.8862  0.6753 -0.6764
  101DMF     C2 1692   1.200   1.389  -0.035 -0.2914 -0.2014  0.2144
  101DMF     C3 1693   0.952   1.357  -0.033  0.1008 -0.0404 -0.5312
  101DMF     O1 1694   0.846   1.315   0.007  0.0988 -0.3313 -0.0695
  101DMF     H1 1695   1.196   1.168   0.069 -0.3473  1.4445 -0.4564
  101DMF     H2 1696   1.029   1.107   0.052  0.6017 -1.9449 -0.1123
  101DMF     H3 1697   1.076   1.230   0.185  0.0725 -2.2632  0.6406
  101DMF     H4 1698   1.213   1.460   0.048  0.3063  0.2495 -0.2667
  101DMF     H5 1699   1.188   1.452  -0.124 -1.7808 -3.3641 -1.9510
  101DMF     H6 1700   1.294   1.334  -0.037  0.4618  1.0399  0.7732
  101DMF     H7 1701   0.959   1.433  -0.113  0.4216  0.3560 -0.1239
  102DMF     C1 1702   1.667   2.058   1.206  0.1933  0.2346  0.0579
  102DMF     N1 1703   1.677   1.983   1.087  0.1369 -0.4999  0.0195
  102DMF     C2 1704   1.731   2.059   0.964  0.7339 -0.0176 -0.4008
  102DMF     C3 1705   1.597   1.877   1.063  0.4145  0.2367 -0.2708
  102DMF     O1 1706   1.541   1.816   1.156 -0.0787 -0.1268  0.5044
  102DMF     H1 1707   1.758   2.115   1.226  0.0287  0.0968  1.2720
  102DMF     H2 1708   1.656   1.984   1.287  0.9734 -1.3614 -1.2746
  102DMF     H3 1709   1.581   2.125   1.196  1.3263  1.7784  0.5187
  102DMF     H4 1710   1.720   1.995   0.875  0.6662  0.0310 -0.4273
  102DMF     H5 1711   1.838   2.081   0.973  0.7397  0.0745 -0.6816
  102DMF     H6 1712   1.680   2.155   0.960 -1.1258 -1.0330 -1.7192
  102DMF     H7 1713   1.588   1.836   0.961  2.2838 -0.0920 -0.3122
  103DMF     C1 1714   2.633   3.066   1.499 -0.3657 -0.2707  0.4237
  103DMF     N1 1715   2.624   3.195   1.433  0.3234  0.4650  0.1307
  103DMF     C2 1716   2.589   3.311   1.512 -0.6765 -0.5660  0.1106
  103DMF     C3 1717   2.631   3.204   1.292  0.1335 -0.5050 -0.0935
  103DMF     O1 1718   2.627   3.108   1.220 -0.5652  0.1830  0.6434
  103DMF     H1 1719   2.730   3.015   1.492  0.2299  0.6588  1.7757
  103DMF     H2 1720   2.564   2.993   1.452 -0.1124  0.1121 -0.5624
  103DMF     H3 1721   2.617   3.063   1.607 -2.4329  2.0253  0.2279
  103DMF     H4 1722   2.553   3.276   1.610  1.2727 -4.0596 -0.3482
  103DMF     H5 1723   2.511   3.364   1.455 -0.4069 -0.7174 -0.4046
  103DMF     H6 1724   2.673   3.381   1.514  0.0791 -1.4896  0.7531
  103DMF     H7 1725   2.634   3.307   1.252  2.3585 -0.6109 -0.2590
  104DMF     C1 1726   2.631   2.179   2.795  0.0177 -0.0165 -0.0930
  104DMF     N1 1727   2.489   2.211   2.834 -0.3187 -0.1983  0.1921
  104DMF     C2 1728   2.450   2.345   2.889 -0.0980  0.0168  0.2833
  104DMF     C3 1729   2.396   2.102   2.830 -1.1528 -0.3324 -0.5062
  104DMF     O1 1730   2.430   1.994   2.785  0.1678 -0.3190  0.0599
  104DMF     H1 1731   2.649   2.080   2.839 -0.0831 -0.1531 -0.3582
  104DMF     H2 1732   2.698   2.258   2.831 -1.4367  1.5705 -0.7825
  104DMF     H3 1733   2.648   2.161   2.688  1.3116 -0.9846  0.2618
  104DMF     H4 1734   2.370   2.339   2.964  0.6518 -1.3092  0.9995
  104DMF     H5 1735   2.421   2.411   2.807 -1.5027 -1.1322 -0.1644
  104DMF     H6 1736   2.539   2.381   2.941  0.1943 -1.0795  0.5673
  104DMF     H7 1737   2.294   2.115   2.868 -0.4301  1.1151  1.0231
  105DMF     C1 1738   1.335   1.963   1.499  0.5480  0.3464 -0.3627
  105DMF     N1 1739   1.461   1.913   1.537  0.2034 -0.2035 -0.0426
  105DMF     C2 1740   1.472   1.766   1.559 -0.0735  0.0966  0.0693
  105DMF     C3 1741   1.567   1.999   1.550  0.3612  0.7209  0.2764
  105DMF     O1 1742   1.556   2.115   1.524  0.2895  0.1491 -0.1949
  105DMF     H1 1743   1.300   2.055   1.547 -0.2313 -1.2986  2.3105
  105DMF     H2 1744   1.256   1.893   1.530  0.0970  1.2843  0.6590
  105DMF     H3 1745   1.342   1.973   1.390 -0.8475  0.9603 -0.4027
  105DMF     H4 1746   1.450   1.711   1.467  0.0854 -0.3364  0.2891
  105DMF     H5 1747   1.404   1.740   1.641 -0.7012  1.5391  0.0261
  105DMF     H6 1748   1.573   1.740   1.594  0.2887  2.0199  0.4784
  105DMF     H7 1749   1.658   1.954   1.594  0.3561  0.6154  0.1786
  106DMF     C1 1750   0.565   0.251   3.369  0.2202 -0.4555 -0.1555
  106DMF     N1 1751   0.472   0.332   3.292 -0.2973 -0.4761  0.7823
  106DMF     C2 1752   0.435   0.460   3.348 -0.4416 -0.1320 -0.4126
  106DMF     C3 1753   0.393   0.275   3.184 -1.0110  0.4722 -0.2869
  106DMF     O1 1754   0.410   0.164   3.145  0.0480  0.6972 -0.5423
  106DMF     H1 1755   0.527   0.217   3.467  2.2872 -0.2855  0.7293
  106DMF     H2 1756   0.645   0.320   3.400  1.4462 -3.0834  2.7684
  106DMF     H3 1757   0.601   0.170   3.305  0.0663  1.1730 -2.3495
  106DMF     H4 1758   0.524   0.513   3.385 -0.0976 -0.7784 -0.3078
  106DMF     H5 1759   0.355   0.434   3.419 -0.6012  1.3063 -0.0546
  106DMF     H6 1760   0.394   0.524   3.269  0.9345  1.2931  0.0145
  106DMF     H7 1761   0.323   0.348   3.141  1.4560  3.1820  0.1712
  107DMF     C1 1762   2.170   0.020   1.483  0.0479  0.5081  0.1543
  107DMF     N1 1763   2.084   0.126   1.533 -0.4338  0.0898  0.1453
  107DMF     C2 1764   1.936   0.111   1.521 -0.4705 -0.1257 -0.3652
  107DMF     C3 1765   2.140   0.238   1.581  0.8681  0.2646 -0.7876
  107DMF     O1 1766   2.258   0.263   1.614  0.3893  0.5496  0.3690
  107DMF     H1 1767   2.274   0.054   1.472 -0.9295  3.4856 -0.5790
  107DMF     H2 1768   2.147  -0.010   1.380  1.9076  0.3436 -0.2391
  107DMF     H3 1769   2.166  -0.071   1.543 -0.8725 -0.6018 -1.5553
  107DMF     H4 1770   1.892   0.194   1.577  0.5037  0.8228 -0.9913
  107DMF     H5 1771   1.910   0.013   1.564 -0.5080  0.3329  0.6766
  107DMF     H6 1772   1.903   0.111   1.417 -1.4791  0.5550 -0.0577
  107DMF     H7 1773   2.062   0.311   1.609  2.1203  1.7328 -1.0620
  108DMF     C1 1774   2.450   1.935   1.096 -0.6144  0.0318 -0.1779
  108DMF     N1 1775   2.485   1.790   1.080  0.5077 -0.0365  0.1463
  108DMF     C2 1776   2.453   1.704   1.193 -0.1090 -0.5908  0.0244
  108DMF     C3 1777   2.521   1.735   0.955 -0.4628  0.1234  0.2326
  108DMF     O1 1778   2.556   1.801   0.858 -0.3612  0.0011  1.0861
  108DMF     H1 1779   2.529   1.992   1.046 -0.0735 -1.7316 -1.4061
  108DMF     H2 1780   2.444   1.958   1.203 -0.3069 -1.0624  0.0832
  108DMF     H3 1781   2.352   1.955   1.051 -1.5317 -1.9141  0.8746
  108DMF     H4 1782   2.543   1.646   1.212  0.7436  0.4370 -0.7663
  108DMF     H5 1783   2.365   1.641   1.174 -2.3303  2.1774  0.7091
  108DMF     H6 1784   2.416   1.765   1.276  0.7038  0.8470 -0.6548
  108DMF     H7 1785   2.518   1.624   0.957 -0.5328  0.1495  2.6529
  109DMF     C1 1786   0.273   2.367   1.315  0.2549 -0.3341  0.1423
  109DMF     N1 1787   0.370   2.295   1.399  0.4928  0.4065 -0.2733
  109DMF     C2 1788   0.365   2.304   1.545  0.5030  0.0412 -0.0350
  109DMF     C3 1789   0.460   2.209   1.341 -0.4529  0.0532  0.0888
  109DMF     O1 1790   0.463   2.180   1.223 -0.0472 -0.0383  0.8310
  109DMF     H1 1791   0.321   2.462   1.290 -1.4348  1.2176  2.5988
  109DMF     H2 1792   0.180   2.379   1.371 -1.5540 -1.8423 -2.4671
  109DMF     H3 1793   0.250   2.315   1.221  0.3356  1.0767 -0.6720
  109DMF     H4 1794   0.439   2.382   1.566  0.4636 -0.1230  0.7281
  109DMF     H5 1795   0.388   2.208   1.593  0.2045  1.1644  2.4236
  109DMF     H6 1796   0.266   2.335   1.580  0.3714  0.6786 -0.9393
  109DMF     H7 1797   0.529   2.160   1.412  1.4901  0.1778 -1.6371
  110DMF     C1 1798   3.192   0.083   0.039  0.1480 -0.3138 -0.6082
  110DMF     N1 1799   3.256   0.045   0.163 -0.6951  0.0612  0.4250
  110DMF     C2 1800   3.204   0.105   0.286  0.2227 -1.4031  0.2790
  110DMF     C3 1801   3.374  -0.032   0.165 -0.0461  0.7567  0.8279
  110DMF     O1 1802   3.426  -0.079   0.064  0.0380  0.3058  0.3792
  110DMF     H1 1803   3.103   0.142   0.065  1.3762  1.6782 -0.7523
  110DMF     H2 1804   3.167  -0.011  -0.011  1.8373 -0.8346 -0.4951
  110DMF     H3 1805   3.257   0.145  -0.025 -1.3461  2.6334  0.6262
  110DMF     H4 1806   3.144   0.196   0.273  1.1444 -0.9769 -1.0172
  110DMF     H5 1807   3.285   0.123   0.358  0.2347  0.9728 -0.2797
  110DMF     H6 1808   3.132   0.034   0.328 -0.7810 -0.2630  0.5373
  110DMF     H7 1809   3.409  -0.063   0.266 -0.7727  0.0639  0.8751
  111DMF     C1 1810   0.501   2.032   3.796 -0.0561  0.0575  0.4253
  111DMF     N1 1811   0.425   2.124   3.709  0.3199 -0.0083 -0.0042
  111DMF     C2 1812   0.307   2.191   3.771 -0.1917  0.0222  0.2549
  111DMF     C3 1813   0.469   2.152   3.576 -0.4131 -0.0806  0.6052
  111DMF     O1 1814   0.567   2.098   3.534 -0.2587 -0.5690  0.1938
  111DMF     H1 1815   0.509   1.938   3.739 -0.4605 -0.8441  1.8544
  111DMF     H2 1816   0.451   2.023   3.893  2.3232  0.8229  1.7782
  111DMF     H3 1817   0.605   2.066   3.808  0.4541 -0.1325 -2.9554
  111DMF     H4 1818   0.251   2.242   3.692 -2.0841 -1.1325  0.7925
  111DMF     H5 1819   0.337   2.252   3.857 -1.2400  4.0730 -2.1129
  111DMF     H6 1820   0.240   2.117   3.817 -1.5557  0.3710 -1.1346
  111DMF     H7 1821   0.388   2.203   3.520  0.5963  0.9900  0.1136
  112DMF     C1 1822   1.338   2.584   2.685  0.2704 -0.1970  0.3860
  112DMF     N1 1823   1.425   2.704   2.693 -0.3847  0.2336 -0.0017
  112DMF     C2 1824   1.395   2.810   2.590 -0.0649  0.1814  0.7088
  112DMF     C3 1825   1.487   2.729   2.813 -0.7262 -0.0536  0.2031
  112DMF     O1 1826   1.509   2.644   2.902  0.1091 -0.3294  0.2482
  112DMF     H1 1827   1.240   2.623   2.716 -0.0285  0.6124 -1.4905
  112DMF     H2 1828   1.366   2.502   2.751  0.7945  0.6445  1.2282
  112DMF     H3 1829   1.340   2.559   2.578  1.2911  0.9875  0.1098
  112DMF     H4 1830   1.445   2.775   2.499  0.0833  0.4493  0.6882
  112DMF     H5 1831   1.424   2.904   2.639 -0.7334 -0.6274  2.7059
  112DMF     H6 1832   1.288   2.815   2.567  0.6090  1.6579 -2.3623
  112DMF     H7 1833   1.525   2.832   2.825  2.2001 -1.2301  1.5316
  113DMF     C1 1834   0.115   1.802   0.704  0.0933  0.2289 -0.4580
  113DMF     N1 1835   0.207   1.714   0.781 -0.1715 -0.4831  0.1332
  113DMF     C2 1836   0.335   1.771   0.818  0.7152 -0.0290  0.0990
  113DMF     C3 1837   0.171   1.582   0.801  0.6233 -0.0337 -0.4232
  113DMF     O1 1838   0.060   1.544   0.770 -0.4502  0.8500 -0.4596
  113DMF     H1 1839   0.139   1.780   0.599 -1.5233 -3.6668 -0.0874
  113DMF     H2 1840   0.134   1.907   0.730 -0.1216 -0.2608  1.7418
  113DMF     H3 1841   0.012   1.777   0.730 -0.1354  2.6610  1.0592
  113DMF     H4 1842   0.326   1.821   0.915 -1.4788  0.6763 -0.4227
  113DMF     H5 1843   0.371   1.846   0.746 -0.8192  0.4296 -0.2190
  113DMF     H6 1844   0.409   1.690   0.816 -0.8479 -1.4822  0.2347
  113DMF     H7 1845   0.254   1.521   0.841 -0.1334 -1.3108 -0.7837
  114DMF     C1 1846   2.469   2.483   1.559 -0.1862  0.5554 -0.0797
  114DMF     N1 1847   2.387   2.607   1.560  0.4029  0.5659 -0.0057
  114DMF     C2 1848   2.244   2.582   1.533 -0.3617  0.4444 -0.4328
  114DMF     C3 1849   2.438   2.735   1.576 -0.3033  0.0872  0.8527
  114DMF     O1 1850   2.556   2.763   1.588 -0.2469 -0.3942  0.7279
  114DMF     H1 1851   2.568   2.489   1.607  0.0682  0.4243 -0.5869
  114DMF     H2 1852   2.492   2.453   1.456 -0.2711  1.3155 -0.3201
  114DMF     H3 1853   2.407   2.406   1.607 -0.6422 -0.1541 -1.7877
  114DMF     H4 1854   2.232   2.477   1.506  0.2665  0.1655  0.3675
  114DMF     H5 1855   2.200   2.637   1.448  1.5298  2.1798 -0.3196
  114DMF     H6 1856   2.195   2.615   1.625  0.2892  1.3847 -0.4071
  114DMF     H7 1857   2.360   2.813   1.575  0.6164  1.0365  1.6081
  115DMF     C1 1858   1.157   2.956   1.547  0.2234 -0.2066  0.2720
  115DMF     N1 1859   1.119   2.818   1.560  0.2963 -0.6743 -0.3643
  115DMF     C2 1860   0.976   2.779   1.540 -0.3415 -0.0590 -0.2379
  115DMF     C3 1861   1.218   2.728   1.599  0.2139  0.1113  0.4807
  115DMF     O1 1862   1.339   2.754   1.600 -0.3660  0.3877  0.1788
  115DMF     H1 1863   1.150   2.985   1.441 -0.4159  3.7680  1.3231
  115DMF     H2 1864   1.252   2.984   1.595  0.1535 -1.3195  1.0799
  115DMF     H3 1865   1.081   3.016   1.599  0.0436  0.4439 -0.7337
  115DMF     H4 1866   0.943   2.720   1.627 -3.6864 -1.1673 -2.1973
  115DMF     H5 1867   0.960   2.736   1.441  0.0149  1.5721 -1.0153
  115DMF     H6 1868   0.907   2.864   1.545  0.7143  0.7102  3.5801
  115DMF     H7 1869   1.178   2.634   1.641  0.5335 -0.4764 -0.5297
  116DMF     C1 1870   1.161   2.721   0.171 -0.0878 -0.1768  0.3654
  116DMF     N1 1871   1.118   2.700   0.309 -0.1547 -0.2237  0.1699
  116DMF     C2 1872   1.003   2.609   0.341  0.0044  0.1298 -0.2919
  116DMF     C3 1873   1.207   2.740   0.404  0.2525  0.3767  0.6268
  116DMF     O1 1874   1.306   2.803   0.383  0.7572 -0.5331  0.2941
  116DMF     H1 1875   1.146   2.826   0.145  1.0005  0.0855  0.7742
  116DMF     H2 1876   1.100   2.658   0.105 -0.8355 -1.9792  2.6587
  116DMF     H3 1877   1.268   2.699   0.161 -0.5576 -2.3573 -0.2570
  116DMF     H4 1878   1.042   2.507   0.354  2.4569  1.1847  1.0532
  116DMF     H5 1879   0.930   2.599   0.259  1.0337 -1.4143 -1.0628
  116DMF     H6 1880   0.956   2.651   0.430  1.3603 -1.2552  1.1154
  116DMF     H7 1881   1.171   2.716   0.506 -1.1149  1.6731  0.4638
  117DMF     C1 1882   3.267   0.864   1.531 -0.3491 -0.5153  0.0450
  117DMF     N1 1883   3.367   0.767   1.487 -0.3713  0.1261  0.0891
  117DMF     C2 1884   3.478   0.736   1.576 -0.4143  0.2234  0.1950
  117DMF     C3 1885   3.366   0.727   1.354  0.2668  0.6906 -0.4619
  117DMF     O1 1886   3.271   0.745   1.281 -1.2737  0.4805 -0.0659
  117DMF     H1 1887   3.251   0.937   1.450  3.1006 -1.4154 -1.5227
  117DMF     H2 1888   3.295   0.901   1.630 -0.6880  1.3017 -0.5226
  117DMF     H3 1889   3.170   0.813   1.538 -1.0985  0.8689  0.0246
  117DMF     H4 1890   3.495   0.825   1.638 -0.9868  0.8079 -0.4806
  117DMF     H5 1891   3.572   0.714   1.524 -0.5721  1.1785 -0.5145
  117DMF     H6 1892   3.452   0.652   1.641  0.8799 -2.1101 -2.1828
  117DMF     H7 1893   3.456   0.665   1.334  0.0051 -0.2331  1.0676
  118DMF     C1 1894   2.568   2.569   1.038  0.0519  0.4210  0.0439
  118DMF     N1 1895   2.522   2.692   1.100  0.7096 -0.3630 -0.3788
  118DMF     C2 1896   2.559   2.702   1.239 -0.1321 -0.4912  0.4118
  118DMF     C3 1897   2.465   2.803   1.038 -0.3658 -0.3305  0.1476
  118DMF     O1 1898   2.445   2.807   0.922 -0.4639  0.3334 -0.4278
  118DMF     H1 1899   2.507   2.544   0.950 -0.5589  0.4927  0.4509
  118DMF     H2 1900   2.576   2.481   1.103  1.1562  0.0574 -0.5676
  118DMF     H3 1901   2.669   2.584   0.997  0.3255 -1.7884 -0.1696
  118DMF     H4 1902   2.529   2.609   1.288  0.1642 -1.5197 -1.3066
  118DMF     H5 1903   2.501   2.786   1.279 -0.9049 -0.9313  0.2157
  118DMF     H6 1904   2.664   2.734   1.241 -0.0590 -0.7428  0.6903
  118DMF     H7 1905   2.444   2.886   1.108  0.8921 -0.6944  0.9693
  119DMF     C1 1906   0.693   0.923   1.081  0.9396  0.0983 -0.3917
  119DMF     N1 1907   0.776   1.048   1.080 -0.1303 -0.3708 -0.2447
  119DMF     C2 1908   0.877   1.076   1.184  0.4028  0.9192  0.8369
  119DMF     C3 1909   0.754   1.136   0.970 -0.1712  0.1898 -0.2381
  119DMF     O1 1910   0.664   1.117   0.891 -0.0999 -0.3251 -0.0585
  119DMF     H1 1911   0.673   0.888   0.979  1.6403  0.5485 -0.6894
  119DMF     H2 1912   0.600   0.942   1.136  0.1411 -1.8630 -1.0289
  119DMF     H3 1913   0.759   0.851   1.132  1.6612  0.0268 -1.3982
  119DMF     H4 1914   0.938   0.986   1.201 -1.5793 -0.5028  0.6916
  119DMF     H5 1915   0.832   1.102   1.280  0.6532  0.6086  1.0382
  119DMF     H6 1916   0.938   1.157   1.144 -0.0065 -0.2644 -2.3504
  119DMF     H7 1917   0.827   1.219   0.963 -0.8312  0.7028 -1.1118
  120DMF     C1 1918   3.132   1.532   1.517 -0.3464  0.0201  0.0963
  120DMF     N1 1919   3.079   1.671   1.518  0.4149  0.5564 -0.3670
  120DMF     C2 1920   3.176   1.785   1.513  0.3892 -0.7793 -0.6824
  120DMF     C3 1921   2.940   1.688   1.559 -0.1980 -0.3217 -0.2802
  120DMF     O1 1922   2.852   1.610   1.555  0.4817 -0.5463 -0.2573
  120DMF     H1 1923   3.056   1.456   1.539 -0.0277 -0.2455  0.2915
  120DMF     H2 1924   3.201   1.535   1.603  1.0581 -0.7601 -0.9751
  120DMF     H3 1925   3.191   1.517   1.426  0.6232 -1.7446  0.9800
  120DMF     H4 1926   3.160   1.851   1.599 -1.7943  0.1129 -1.7071
  120DMF     H5 1927   3.178   1.847   1.422 -1.0760  1.6223  0.8594
  120DMF     H6 1928   3.277   1.743   1.511  1.4164  1.4989  1.0773
  120DMF     H7 1929   2.925   1.794   1.586 -1.6936 -0.4579 -0.5617
  121DMF     C1 1930   2.800   3.060   0.933 -0.1124 -0.3125  0.1481
  121DMF     N1 1931   2.839   2.943   0.851  0.2728 -0.3461  0.4816
  121DMF     C2 1932   2.889   2.818   0.915 -0.2524 -1.0234  0.0610
  121DMF     C3 1933   2.806   2.947   0.717 -0.3944  0.5307  0.9606
  121DMF     O1 1934   2.761   3.043   0.659 -0.1000  0.1555  0.5190
  121DMF     H1 1935   2.693   3.070   0.911  0.2648  1.3688 -1.0018
  121DMF     H2 1936   2.842   3.152   0.890 -0.0465 -0.8166 -0.8854
  121DMF     H3 1937   2.825   3.049   1.040 -1.7219 -0.2683  0.5326
  121DMF     H4 1938   2.812   2.779   0.982  0.0605  0.8713  1.5684
  121DMF     H5 1939   2.975   2.837   0.982  1.8161 -0.9021 -2.5363
  121DMF     H6 1940   2.933   2.751   0.840 -0.2986 -1.2192  0.2104
  121DMF     H7 1941   2.836   2.850   0.672 -1.0853  0.1865  1.2503
  122DMF     C1 1942   0.710   1.859   1.579 -0.3662  0.7453 -0.5368
  122DMF     N1 1943   0.793   1.952   1.502 -0.9169  0.0659  0.4043
  122DMF     C2 1944   0.820   2.088   1.560  0.4223  0.2401 -0.0615
  122DMF     C3 1945   0.857   1.914   1.382  0.1965  0.0333 -0.0150
  122DMF     O1 1946   0.836   1.801   1.335 -0.0713 -0.0829 -0.0137
  122DMF     H1 1947   0.651   1.788   1.519  0.2109 -0.2832  0.0974
  122DMF     H2 1948   0.640   1.922   1.635 -1.4303 -0.4479 -0.4990
  122DMF     H3 1949   0.781   1.790   1.626  0.7195  0.5443 -2.4056
  122DMF     H4 1950   0.729   2.125   1.610  0.1885 -0.0023 -0.3048
  122DMF     H5 1951   0.835   2.159   1.478  0.4609  2.7450  2.0405
  122DMF     H6 1952   0.903   2.089   1.632  0.4545  2.5215 -0.0973
  122DMF     H7 1953   0.917   1.995   1.336  1.3223 -0.0178  1.3201
  123DMF     C1 1954   3.280   1.402   3.646  0.2540  0.1828  0.0184
  123DMF     N1 1955   3.269   1.461   3.783 -0.2010  0.2454 -0.2738
  123DMF     C2 1956   3.304   1.608   3.805 -0.2962  0.1857  0.1473
  123DMF     C3 1957   3.252   1.380   3.893 -0.0590  0.6454 -0.7363
  123DMF     O1 1958   3.251   1.257   3.876 -0.0023 -0.4387 -0.1422
  123DMF     H1 1959   3.351   1.319   3.643 -0.4060 -0.3564 -0.5264
  123DMF     H2 1960   3.288   1.489   3.579  0.2633  0.6546  0.6233
  123DMF     H3 1961   3.182   1.355   3.633  0.6028 -0.9288  1.3040
  123DMF     H4 1962   3.214   1.656   3.847 -0.7799 -1.1508  0.6611
  123DMF     H5 1963   3.328   1.656   3.709  0.1098 -0.1669  0.0732
  123DMF     H6 1964   3.386   1.604   3.878  0.2479 -0.0575 -0.4727
  123DMF     H7 1965   3.237   1.437   3.987 -0.6146  0.6515 -0.8282
  124DMF     C1 1966   3.334   0.313   0.848 -0.3392 -0.7039 -0.2139
  124DMF     N1 1967   3.225   0.265   0.935 -0.4229 -0.2017 -0.0792
  124DMF     C2 1968   3.088   0.300   0.901 -0.2284  0.0477 -0.0489
  124DMF     C3 1969   3.246   0.216   1.067  0.3857  0.4766  0.3200
  124DMF     O1 1970   3.359   0.182   1.098  0.9842  0.2588  0.0220
  124DMF     H1 1971   3.351   0.243   0.764  2.2279 -0.6557  0.2323
  124DMF     H2 1972   3.430   0.335   0.895 -0.1342 -2.1946  0.0820
  124DMF     H3 1973   3.309   0.410   0.803  1.9742  0.9122  1.8712
  124DMF     H4 1974   3.079   0.281   0.793  0.7300 -1.6462  0.1470
  124DMF     H5 1975   3.067   0.405   0.923 -3.0804 -0.1068 -1.8341
  124DMF     H6 1976   3.014   0.245   0.959 -1.1843  1.0530 -0.3042
  124DMF     H7 1977   3.149   0.211   1.121 -0.6389  0.6398 -1.4671
  125DMF     C1 1978   2.167   3.075   3.434  0.4827  0.2666 -0.5627
  125DMF     N1 1979   2.251   3.006   3.545 -0.5967  0.0199  0.1252
  125DMF     C2 1980   2.292   2.871   3.521 -0.4105  0.3253 -0.1946
  125DMF     C3 1981   2.328   3.085   3.635 -0.0360 -0.3175 -0.2464
  125DMF     O1 1982   2.315   3.208   3.641 -0.3166 -0.4554 -0.4532
  125DMF     H1 1983   2.094   3.001   3.401 -0.9344  1.8767 -1.0621
  125DMF     H2 1984   2.247   3.095   3.362  1.5712  1.9335  1.0508
  125DMF     H3 1985   2.123   3.168   3.472  0.6321  0.6064 -1.2214
  125DMF     H4 1986   2.360   2.870   3.435  0.0104  0.3483  0.1395
  125DMF     H5 1987   2.201   2.811   3.509 -0.5418  0.3396  0.7115
  125DMF     H6 1988   2.348   2.826   3.604  0.7594 -1.4368 -1.8928
  125DMF     H7 1989   2.387   3.016   3.699  0.4816  2.5542  2.5264
  126DMF     C1 1990   0.758   3.299   1.035  0.0931  0.2360  0.1326
  126DMF     N1 1991   0.834   3.325   0.912 -0.5467  0.7667 -0.2362
  126DMF     C2 1992   0.848   3.230   0.814 -0.1723  0.3866 -0.4589
  126DMF     C3 1993   0.948   3.408   0.923  0.2171 -1.5914 -0.0523
  126DMF     O1 1994   0.964   3.489   1.014  0.1031 -0.7529  0.6093
  126DMF     H1 1995   0.791   3.358   1.121  0.0287  0.5879 -0.0856
  126DMF     H2 1996   0.755   3.193   1.065  0.2609  0.7566  2.0525
  126DMF     H3 1997   0.655   3.322   1.006 -0.0538 -1.2170 -0.5771
  126DMF     H4 1998   0.927   3.260   0.745  1.0110  2.0512  1.5906
  126DMF     H5 1999   0.758   3.224   0.751 -0.2869 -1.7668 -0.1457
  126DMF     H6 2000   0.885   3.143   0.869  0.4500  1.6383  1.1245
  126DMF     H7 2001   1.022   3.399   0.841  2.5896  1.6236  1.6235
  127DMF     C1 2002   0.833   0.743   0.238 -0.5151 -0.4783  0.0471
  127DMF     N1 2003   0.699   0.692   0.198 -0.2677  0.2696 -0.7319
  127DMF     C2 2004   0.605   0.642   0.296  0.3627 -0.3056  0.1595
  127DMF     C3 2005   0.662   0.688   0.064 -0.5221  0.1902 -0.0530
  127DMF     O1 2006   0.734   0.719  -0.029  0.0187 -0.0529 -0.1931
  127DMF     H1 2007   0.816   0.800   0.330 -1.1441  0.6672 -0.7608
  127DMF     H2 2008   0.874   0.806   0.158 -0.0871  1.2167  1.5865
  127DMF     H3 2009   0.911   0.667   0.249 -1.4706 -1.9606 -2.7395
  127DMF     H4 2010   0.504   0.670   0.265  0.6480  1.4057  0.6988
  127DMF     H5 2011   0.629   0.687   0.393  2.4334 -1.1085  0.0455
  127DMF     H6 2012   0.612   0.533   0.303  1.8454 -0.1634  1.1546
  127DMF     H7 2013   0.557   0.655   0.050 -0.4792 -0.4834  1.0943
  128DMF     C1 2014   1.591   0.237   1.468  0.0030 -0.0148 -0.4396
  128DMF     N1 2015   1.563   0.379   1.526 -0.6705  0.1952  0.1278
  128DMF     C2 2016   1.427   0.440   1.496 -0.6063 -0.6572 -0.1794
  128DMF     C3 2017   1.661   0.456   1.588  0.4765  0.3055 -0.1620
  128DMF     O1 2018   1.772   0.415   1.614 -0.0869  0.0438  0.4436
  128DMF     H1 2019   1.497   0.197   1.430 -0.7317 -0.0077  1.3335
  128DMF     H2 2020   1.629   0.175   1.550 -1.8456 -0.7581 -0.1312
  128DMF     H3 2021   1.678   0.237   1.401 -0.1650  0.2939 -0.6580
  128DMF     H4 2022   1.429   0.492   1.400 -0.8268  2.7240  1.5804
  128DMF     H5 2023   1.400   0.514   1.572  1.6615 -0.7466  0.7425
  128DMF     H6 2024   1.352   0.360   1.484  2.0040 -3.1845 -0.1611
  128DMF     H7 2025   1.620   0.550   1.628  2.2010  1.7047 -1.5760
  129DMF     C1 2026   0.257   2.168   0.898  0.4857  0.4791  0.4636
  129DMF     N1 2027   0.194   2.200   0.765  0.1483  0.2419  1.0224
  129DMF     C2 2028   0.280   2.220   0.650 -0.9751  0.1259 -0.5836
  129DMF     C3 2029   0.063   2.252   0.754 -0.1729 -0.7518 -0.1272
  129DMF     O1 2030  -0.011   2.241   0.851 -0.2567 -1.0115  0.2383
  129DMF     H1 2031   0.229   2.246   0.970 -3.5936 -0.4386 -0.0249
  129DMF     H2 2032   0.366   2.176   0.888  0.1741  0.7286 -3.1400
  129DMF     H3 2033   0.219   2.068   0.924 -0.0452  0.6436  0.3166
  129DMF     H4 2034   0.339   2.312   0.666 -1.0845  0.1954 -0.5797
  129DMF     H5 2035   0.225   2.227   0.556  0.2673 -1.5137 -1.4617
  129DMF     H6 2036   0.360   2.146   0.640  0.6398  1.7255  0.0396
  129DMF     H7 2037   0.033   2.305   0.662  2.3522  0.9555 -0.0489
  130DMF     C1 2038   2.911   0.068   0.642  0.5336 -0.2540  0.1879
  130DMF     N1 2039   2.846  -0.059   0.601 -0.2656  0.0076  0.0311
  130DMF     C2 2040   2.893  -0.134   0.481 -0.6185  0.6818  0.0929
  130DMF     C3 2041   2.722  -0.094   0.658  0.2735  0.0215  0.1772
  130DMF     O1 2042   2.664  -0.033   0.748  0.3118 -0.4289  0.1012
  130DMF     H1 2043   2.970   0.056   0.734  0.5085  1.4653  0.4511
  130DMF     H2 2044   2.841   0.148   0.671  2.7016  3.3950 -4.1399
  130DMF     H3 2045   2.977   0.112   0.566  0.7818  2.1110  1.7219
  130DMF     H4 2046   2.834  -0.226   0.474  0.5790 -0.0627 -0.4725
  130DMF     H5 2047   3.001  -0.146   0.498 -0.5759  0.0123 -0.6233
  130DMF     H6 2048   2.878  -0.067   0.396 -1.3387  0.9521  0.4347
  130DMF     H7 2049   2.666  -0.176   0.609 -0.8167  0.1770  1.1281
  131DMF     C1 2050   0.121   0.940   0.281  0.1227 -0.2235  0.1733
  131DMF     N1 2051   0.018   0.874   0.202  0.2207  0.2067 -0.1190
  131DMF     C2 2052  -0.088   0.951   0.148 -0.3572  0.0919 -0.1752
  131DMF     C3 2053   0.019   0.737   0.182  0.2542  0.5912 -0.4737
  131DMF     O1 2054   0.122   0.672   0.202 -0.0783  0.5498  0.1511
  131DMF     H1 2055   0.183   0.871   0.341 -0.4140 -1.4060 -0.6272
  131DMF     H2 2056   0.083   1.032   0.327  1.4703  0.4738 -0.0677
  131DMF     H3 2057   0.199   0.986   0.218  1.1953 -1.2463  0.7290
  131DMF     H4 2058  -0.071   1.057   0.167  3.1134 -0.4438  0.0792
  131DMF     H5 2059  -0.185   0.911   0.182 -0.6762  0.0019 -1.1532
  131DMF     H6 2060  -0.078   0.944   0.039 -0.6602  0.9929 -0.2580
  131DMF     H7 2061  -0.064   0.691   0.125  0.4612  1.6991 -1.6827
  132DMF     C1 2062   0.832   1.143   1.581  0.4271 -0.2834 -0.0389
  132DMF     N1 2063   0.879   1.001   1.567  0.0783  0.3155  0.3099
  132DMF     C2 2064   0.789   0.896   1.531 -0.8170 -0.0478  0.1444
  132DMF     C3 2065   1.017   0.973   1.580  0.5798 -0.0899  0.0640
  132DMF     O1 2066   1.094   1.065   1.584  0.2136 -0.1541  0.8256
  132DMF     H1 2067   0.908   1.209   1.625  1.4159 -1.0949 -0.4751
  132DMF     H2 2068   0.752   1.160   1.654  0.3118 -0.7272 -0.0613
  132DMF     H3 2069   0.798   1.176   1.482  1.4045 -1.2319 -0.7109
  132DMF     H4 2070   0.811   0.811   1.597 -0.2469 -1.0505 -1.3055
  132DMF     H5 2071   0.809   0.865   1.428  0.2437 -1.1337  0.6617
  132DMF     H6 2072   0.684   0.920   1.552 -0.6142 -1.2652  2.7695
  132DMF     H7 2073   1.048   0.868   1.563  1.0294 -0.7018  4.2291
  133DMF     C1 2074   1.715   0.492   3.280  0.5071 -0.9050  0.5304
  133DMF     N1 2075   1.635   0.373   3.255 -0.6077 -0.3503  0.1658
  133DMF     C2 2076   1.490   0.393   3.275  0.3229  0.5706  0.1503
  133DMF     C3 2077   1.688   0.248   3.210 -0.3531 -0.4152 -0.0517
  133DMF     O1 2078   1.804   0.230   3.181  0.3120 -0.0837 -0.8847
  133DMF     H1 2079   1.750   0.532   3.184  0.5950  1.0728  1.3497
  133DMF     H2 2080   1.811   0.464   3.325  0.7340 -1.1716 -0.1097
  133DMF     H3 2081   1.658   0.564   3.341  0.2266 -0.6340 -0.0488
  133DMF     H4 2082   1.447   0.461   3.200  0.0502  1.9194  1.4985
  133DMF     H5 2083   1.474   0.435   3.375  1.1444  0.9304  0.1324
  133DMF     H6 2084   1.435   0.301   3.254 -1.2524  1.2860  1.0284
  133DMF     H7 2085   1.607   0.172   3.206 -1.6423  0.7210  3.0547
  134DMF     C1 2086   0.170   0.345   1.537 -1.3260 -0.4211 -0.3920
  134DMF     N1 2087   0.124   0.295   1.414 -0.1278  0.5310 -0.2006
  134DMF     C2 2088   0.089   0.150   1.394  0.2307 -0.1435  0.8703
  134DMF     C3 2089   0.161   0.353   1.287 -0.1128  0.2980  0.3647
  134DMF     O1 2090   0.222   0.452   1.282  0.1174  0.1863  0.0171
  134DMF     H1 2091   0.105   0.429   1.567  0.5714  0.4405  1.3851
  134DMF     H2 2092   0.273   0.377   1.520 -1.3588 -1.1156 -1.9535
  134DMF     H3 2093   0.170   0.274   1.621  0.1531  0.3038  0.2256
  134DMF     H4 2094  -0.008   0.132   1.346  1.0743 -1.7116 -0.2717
  134DMF     H5 2095   0.086   0.096   1.489 -2.7315  0.6754  1.3251
  134DMF     H6 2096   0.157   0.101   1.324  0.3923  1.1215  0.1104
  134DMF     H7 2097   0.136   0.290   1.200 -0.4399  0.9119  0.0096
  135DMF     C1 2098   0.098   0.963   3.040  0.2521  0.5800 -0.2469
  135DMF     N1 2099   0.107   1.096   2.966 -0.0789 -0.0864 -0.2774
  135DMF     C2 2100   0.056   1.212   3.044  0.3598  0.6754 -0.7811
  135DMF     C3 2101   0.155   1.110   2.835 -0.0222  0.2916 -0.3269
  135DMF     O1 2102   0.205   1.019   2.771 -0.6827 -0.6338  0.0365
  135DMF     H1 2103   0.194   0.912   3.060 -0.7077 -2.0162 -1.9893
  135DMF     H2 2104   0.030   0.896   2.986 -0.5621 -0.1823  1.6723
  135DMF     H3 2105   0.047   0.981   3.136  0.8587 -1.5814  0.5243
  135DMF     H4 2106   0.072   1.197   3.151  2.4452  1.2466 -0.9798
  135DMF     H5 2107  -0.045   1.240   3.014 -0.6285 -0.9929  0.8924
  135DMF     H6 2108   0.132   1.289   3.025  0.7088  0.6710  0.5381
  135DMF     H7 2109   0.120   1.205   2.793 -0.0387  0.9035  1.0574
  136DMF     C1 2110   3.029   0.488   0.225 -0.4439  0.0836 -0.1912
  136DMF     N1 2111   3.027   0.515   0.368 -0.2788  0.0324  0.0901
  136DMF     C2 2112   2.978   0.406   0.455  0.0308  0.0661 -0.2819
  136DMF     C3 2113   3.081   0.635   0.419  0.0019 -0.7484  0.2842
  136DMF     O1 2114   3.138   0.715   0.342 -0.1021  0.0745 -0.1814
  136DMF     H1 2115   2.959   0.409   0.195  0.3989 -0.7901  0.1459
  136DMF     H2 2116   3.130   0.453   0.201 -0.0066  1.9528 -1.2098
  136DMF     H3 2117   3.013   0.585   0.177 -1.2370 -0.6715 -1.4694
  136DMF     H4 2118   2.876   0.437   0.481 -0.4652 -1.3787 -0.4402
  136DMF     H5 2119   3.037   0.392   0.546  0.9260  1.1084 -0.6870
  136DMF     H6 2120   2.977   0.313   0.396  1.1523  0.3932 -0.8239
  136DMF     H7 2121   3.087   0.649   0.529  0.1894 -0.0886  0.1919
  137DMF     C1 2122   2.462   2.338   0.669 -0.5450 -0.0517  0.2332
  137DMF     N1 2123   2.538   2.227   0.741  0.2914 -0.6466  0.2428
  137DMF     C2 2124   2.583   2.250   0.878 -0.2056  0.0255 -0.3975
  137DMF     C3 2125   2.555   2.100   0.679  0.4035 -0.2711  0.7584
  137DMF     O1 2126   2.511   2.076   0.567  0.6921 -0.2741  0.1195
  137DMF     H1 2127   2.499   2.434   0.707 -1.1969 -0.5961  2.2906
  137DMF     H2 2128   2.360   2.324   0.707 -0.4629  0.7510  0.7584
  137DMF     H3 2129   2.475   2.325   0.561  0.8466 -1.0717  0.5156
  137DMF     H4 2130   2.673   2.310   0.898  0.5050 -1.1520 -0.0146
  137DMF     H5 2131   2.603   2.153   0.925 -0.0773 -0.0150 -0.5343
  137DMF     H6 2132   2.495   2.297   0.923  1.1685  1.2914  1.0733
  137DMF     H7 2133   2.613   2.021   0.729  1.9458  0.8519  0.7628
  138DMF     C1 2134   2.834   0.402   2.877 -0.0564 -0.3283  0.5432
  138DMF     N1 2135   2.808   0.419   3.027  0.0496  0.3244 -0.4481
  138DMF     C2 2136   2.905   0.390   3.131 -0.5867  0.3272 -0.0240
  138DMF     C3 2137   2.671   0.452   3.076 -0.3894 -0.1469 -0.0517
  138DMF     O1 2138   2.578   0.454   3.005 -0.0455  0.6362  0.1837
  138DMF     H1 2139   2.930   0.448   2.848 -0.0790 -0.5995  0.0363
  138DMF     H2 2140   2.755   0.448   2.816 -0.3744 -2.8058 -0.9597
  138DMF     H3 2141   2.838   0.295   2.856 -2.4770 -0.3757  0.2443
  138DMF     H4 2142   2.998   0.440   3.102 -0.0240 -0.9223 -0.4123
  138DMF     H5 2143   2.926   0.283   3.136 -0.0879  0.4641  0.7848
  138DMF     H6 2144   2.870   0.430   3.227  1.3487  0.8874  0.4612
  138DMF     H7 2145   2.669   0.461   3.186 -0.9141 -1.3311  0.0417
  139DMF     C1 2146   1.666   3.193   1.535  0.5907 -0.5648 -0.6389
  139DMF     N1 2147   1.727   3.069   1.487 -0.7028 -0.1731  0.0258
  139DMF     C2 2148   1.675   2.935   1.544  0.0125  0.2869  0.3008
  139DMF     C3 2149   1.836   3.084   1.393 -0.4164 -0.0033 -0.8355
  139DMF     O1 2150   1.881   3.190   1.363 -0.4603  0.2600  0.4980
  139DMF     H1 2151   1.729   3.235   1.615  0.4315  1.6701 -1.6422
  139DMF     H2 2152   1.566   3.171   1.573  0.9965 -0.9046  0.2447
  139DMF     H3 2153   1.643   3.264   1.455 -0.0633  0.5652  0.5379
  139DMF     H4 2154   1.701   2.926   1.650  1.6826  3.9288  0.2601
  139DMF     H5 2155   1.708   2.850   1.482 -0.5519  1.4995 -1.7311
  139DMF     H6 2156   1.566   2.927   1.545  0.1071 -1.4687  3.4105
  139DMF     H7 2157   1.875   2.996   1.340  0.4142  0.4915 -1.0675
  140DMF     C1 2158   0.324   3.255   0.133 -0.0239  0.4068  0.5629
  140DMF     N1 2159   0.384   3.298   0.008  0.3081 -0.3582 -0.2813
  140DMF     C2 2160   0.432   3.438   0.008  0.1570 -0.1873  0.1722
  140DMF     C3 2161   0.417   3.195  -0.092  0.0239 -1.3346 -0.2861
  140DMF     O1 2162   0.360   3.087  -0.099 -0.2149  0.4144 -0.0174
  140DMF     H1 2163   0.384   3.310   0.206 -0.5125 -1.5954  2.5058
  140DMF     H2 2164   0.337   3.147   0.146  1.0741  0.1169 -2.3791
  140DMF     H3 2165   0.224   3.294   0.152  0.3555  1.1723  1.0040
  140DMF     H4 2166   0.538   3.446  -0.018 -0.0999 -1.7190 -1.4744
  140DMF     H5 2167   0.410   3.485   0.105 -1.5415 -2.2792  0.8461
  140DMF     H6 2168   0.380   3.493  -0.071  0.8605  0.1684 -0.0467
  140DMF     H7 2169   0.499   3.228  -0.159  1.0941 -1.5885  0.8772
  141DMF     C1 2170   1.860   1.675   1.231  0.1712  0.2484 -0.1285
  141DMF     N1 2171   1.985   1.647   1.164 -0.5771  0.1745 -0.0790
  141DMF     C2 2172   2.069   1.537   1.218 -0.5189 -0.8270 -0.3968
  141DMF     C3 2173   2.017   1.705   1.042 -0.0327 -0.9593  0.1088
  141DMF     O1 2174   1.943   1.778   0.983 -0.3257  0.2885 -0.3363
  141DMF     H1 2175   1.843   1.612   1.319 -3.2950 -1.7221 -2.0654
  141DMF     H2 2176   1.777   1.655   1.162  0.8341  0.6280 -1.0458
  141DMF     H3 2177   1.854   1.781   1.258  0.1390  0.0102  0.8012
  141DMF     H4 2178   2.134   1.576   1.298 -1.6768 -1.7033  0.9961
  141DMF     H5 2179   2.129   1.488   1.140 -0.9570  0.3721 -1.5088
  141DMF     H6 2180   2.009   1.454   1.255  0.1792 -2.5400 -2.9727
  141DMF     H7 2181   2.111   1.662   1.003 -0.0472 -1.5525  0.7147
  142DMF     C1 2182   0.044   2.635   1.515 -0.1593  0.0709 -0.5671
  142DMF     N1 2183   0.149   2.744   1.532  0.0577 -0.3366  0.3726
  142DMF     C2 2184   0.107   2.881   1.501  0.8316  0.1553  0.1807
  142DMF     C3 2185   0.280   2.704   1.564  1.2655  0.1637  0.0633
  142DMF     O1 2186   0.318   2.591   1.586  0.2356  0.3384 -0.3137
  142DMF     H1 2187   0.005   2.608   1.614 -0.4672 -0.7169 -0.8993
  142DMF     H2 2188   0.100   2.553   1.469  1.8584  2.2392 -2.0436
  142DMF     H3 2189  -0.028   2.667   1.439 -1.0193 -2.0710 -0.6804
  142DMF     H4 2190   0.189   2.934   1.452 -0.1231 -0.2441 -1.8818
  142DMF     H5 2191   0.073   2.937   1.590 -0.3373 -0.1846 -0.0358
  142DMF     H6 2192   0.018   2.880   1.436  2.1530 -0.5019 -1.6393
  142DMF     H7 2193   0.353   2.787   1.560  1.2856  0.0893 -1.3783
  143DMF     C1 2194   1.858   2.594   1.511 -0.1289 -0.0735  0.0604
  143DMF     N1 2195   1.735   2.513   1.545 -0.4517  0.0834 -0.4599
  143DMF     C2 2196   1.612   2.589   1.537  0.1816  0.8438  0.6192
  143DMF     C3 2197   1.741   2.380   1.573  0.3734  0.0943 -0.0451
  143DMF     O1 2198   1.846   2.325   1.596 -0.1331  0.1481  0.0520
  143DMF     H1 2199   1.853   2.655   1.420  1.1522  0.5522  0.3887
  143DMF     H2 2200   1.948   2.531   1.503 -1.1939 -1.7451  1.0917
  143DMF     H3 2201   1.889   2.658   1.595 -1.2183 -1.4876  1.5774
  143DMF     H4 2202   1.637   2.678   1.596 -1.4974  1.1705  0.8546
  143DMF     H5 2203   1.528   2.528   1.571  1.4523 -2.3705 -1.7112
  143DMF     H6 2204   1.585   2.607   1.432  0.5033 -2.2957 -0.0460
  143DMF     H7 2205   1.645   2.336   1.606  2.0048 -3.3484  0.3132
  144DMF     C1 2206   1.277   0.084   1.493 -0.4616  0.2352 -0.1416
  144DMF     N1 2207   1.168   0.000   1.545  0.2430 -0.1781 -0.0563
  144DMF     C2 2208   1.029   0.066   1.551  0.0368 -0.4045  0.4822
  144DMF     C3 2209   1.194  -0.127   1.597 -0.8480  0.7384  0.3329
  144DMF     O1 2210   1.304  -0.189   1.580 -0.6472  0.2206 -0.5235
  144DMF     H1 2211   1.325   0.131   1.580  1.7185 -1.0679 -0.5931
  144DMF     H2 2212   1.250   0.161   1.420 -1.9858 -1.0728 -0.9773
  144DMF     H3 2213   1.348   0.020   1.440  1.2756  1.6615  0.4102
  144DMF     H4 2214   0.952  -0.011   1.544 -0.4203  0.0417  0.5349
  144DMF     H5 2215   1.019   0.129   1.461  0.6767  0.6010  1.0980
  144DMF     H6 2216   1.013   0.132   1.637  0.3447  1.8427 -1.1358
  144DMF     H7 2217   1.101  -0.175   1.634 -1.6375  1.1014 -1.1594
  145DMF     C1 2218   0.653   0.231   0.845 -0.1461 -0.4215 -0.2314
  145DMF     N1 2219   0.711   0.341   0.757 -0.1775  0.5662  0.0604
  145DMF     C2 2220   0.701   0.335   0.609 -0.4234  0.1692 -0.0172
  145DMF     C3 2221   0.777   0.448   0.818 -0.0213 -0.2707 -0.0745
  145DMF     O1 2222   0.795   0.459   0.936 -0.1505 -0.7631  0.1251
  145DMF     H1 2223   0.616   0.154   0.775 -0.4086 -0.5931  0.0953
  145DMF     H2 2224   0.566   0.263   0.902 -1.1865 -0.5722 -1.7126
  145DMF     H3 2225   0.723   0.175   0.908  0.8225 -0.3460 -1.2185
  145DMF     H4 2226   0.633   0.414   0.574 -1.4728  0.3000  2.2180
  145DMF     H5 2227   0.668   0.243   0.557 -0.3048  0.0734  0.0770
  145DMF     H6 2228   0.796   0.363   0.562 -1.0427  0.3408 -1.1956
  145DMF     H7 2229   0.820   0.516   0.743 -0.4384 -2.2689 -2.1557
  146DMF     C1 2230   2.234   3.032   0.448  0.1350 -0.0240  0.0360
  146DMF     N1 2231   2.163   3.163   0.457 -0.0371  0.3214  0.2728
  146DMF     C2 2232   2.018   3.165   0.460 -0.2330  0.8632 -0.2988
  146DMF     C3 2233   2.235   3.277   0.481  0.3221 -0.3269  0.1489
  146DMF     O1 2234   2.352   3.273   0.491 -0.9106 -0.0123 -0.2502
  146DMF     H1 2235   2.177   2.955   0.395  0.4641  0.5051 -1.1086
  146DMF     H2 2236   2.258   2.983   0.543  1.6211 -0.7208 -0.6711
  146DMF     H3 2237   2.322   3.053   0.386  1.0665  3.7534  2.4849
  146DMF     H4 2238   1.982   3.176   0.357 -0.3024 -1.0031 -0.4773
  146DMF     H5 2239   1.980   3.241   0.530  1.2842  1.0090  0.3661
  146DMF     H6 2240   1.990   3.064   0.491 -0.8329  1.2130  0.3109
  146DMF     H7 2241   2.166   3.360   0.503  0.2326 -0.9573  2.4232
  147DMF     C1 2242   2.415   0.252   1.264 -0.7808  0.0892  0.1521
  147DMF     N1 2243   2.319   0.192   1.174  0.6030 -0.1297 -0.1877
  147DMF     C2 2244   2.221   0.274   1.108 -0.2433  0.1497 -0.7688
  147DMF     C3 2245   2.300   0.055   1.156  0.3394 -0.5013 -0.1053
  147DMF     O1 2246   2.379  -0.026   1.206 -0.3819 -0.1509 -0.5151
  147DMF     H1 2247   2.483   0.320   1.211 -0.0924  0.1129  1.0494
  147DMF     H2 2248   2.481   0.177   1.310  0.9357  1.2693 -0.3255
  147DMF     H3 2249   2.359   0.297   1.347  2.7518  3.2692  0.9555
  147DMF     H4 2250   2.245   0.379   1.129  0.3908  0.1559 -1.4879
  147DMF     H5 2251   2.119   0.251   1.141 -0.0554 -2.1882 -1.7096
  147DMF     H6 2252   2.219   0.249   1.001 -0.4790  1.5311 -1.0921
  147DMF     H7 2253   2.220   0.025   1.086 -0.0853  2.2330 -0.8417
  148DMF     C1 2254   2.875   1.493   1.199 -0.3071  0.5415 -0.3246
  148DMF     N1 2255   2.886   1.423   1.069 -0.1138  0.3345 -0.5897
  148DMF     C2 2256   2.912   1.507   0.938  0.2295  0.3300 -0.1436
  148DMF     C3 2257   2.871   1.284   1.058  0.0860  0.8918 -0.0252
  148DMF     O1 2258   2.832   1.211   1.144  0.1534 -0.5458 -0.1189
  148DMF     H1 2259   2.799   1.442   1.260 -0.1240  2.4861  1.5719
  148DMF     H2 2260   2.841   1.596   1.185  1.9040  1.6878  2.3080
  148DMF     H3 2261   2.968   1.502   1.257 -0.6725  0.3706  0.3056
  148DMF     H4 2262   2.892   1.443   0.851  2.2978 -0.0254 -0.3717
  148DMF     H5 2263   3.017   1.539   0.943  1.2120 -2.6170 -1.3546
  148DMF     H6 2264   2.848   1.597   0.930  0.4693  0.4195 -1.1717
  148DMF     H7 2265   2.912   1.249   0.961  0.9707  0.9191  0.3400
  149DMF     C1 2266   2.332   1.656   1.561  0.5177 -0.8229 -0.5299
  149DMF     N1 2267   2.401   1.526   1.540  0.8886  1.0315  0.3926
  149DMF     C2 2268   2.547   1.526   1.562 -0.2771  0.1691 -0.7690
  149DMF     C3 2269   2.329   1.413   1.501  0.0767  0.1896 -0.1512
  149DMF     O1 2270   2.209   1.401   1.489  0.2493 -0.0785  0.5291
  149DMF     H1 2271   2.225   1.646   1.581  0.0071  0.4469 -2.5367
  149DMF     H2 2272   2.353   1.716   1.472  0.6519 -1.2911 -0.8203
  149DMF     H3 2273   2.388   1.706   1.641 -3.3642  3.2533 -0.1796
  149DMF     H4 2274   2.585   1.607   1.625  0.2074  0.1701 -1.0584
  149DMF     H5 2275   2.598   1.525   1.464 -1.1818  0.5535 -1.2503
  149DMF     H6 2276   2.564   1.430   1.612  0.3036  2.1773  3.0206
  149DMF     H7 2277   2.395   1.325   1.492  1.2795  0.9178  1.2129
  150DMF     C1 2278   2.306   0.174   0.424 -0.4280 -0.2408 -0.4157
  150DMF     N1 2279   2.265   0.245   0.299  0.4537  0.0749 -0.1774
  150DMF     C2 2280   2.328   0.199   0.171  0.4982  0.3182 -0.1332
  150DMF     C3 2281   2.173   0.351   0.299  0.6350  0.1434  0.3673
  150DMF     O1 2282   2.132   0.396   0.400  0.0652  0.0342  0.2254
  150DMF     H1 2283   2.222   0.122   0.472  0.4724  1.1520  2.8443
  150DMF     H2 2284   2.339   0.250   0.496  1.5334  0.0618 -1.6088
  150DMF     H3 2285   2.387   0.102   0.417 -0.1924 -0.1256  1.0544
  150DMF     H4 2286   2.426   0.149   0.176  0.1941 -0.5018 -2.1427
  150DMF     H5 2287   2.321   0.283   0.101 -3.8587 -0.1215 -0.3797
  150DMF     H6 2288   2.260   0.136   0.113  2.6485 -2.2344 -0.0166
  150DMF     H7 2289   2.169   0.397   0.199 -0.8412 -2.8430 -1.0000
  151DMF     C1 2290   0.326   1.493   1.146  0.4210 -0.0129 -0.6644
  151DMF     N1 2291   0.354   1.355   1.109 -0.3764  0.0299 -0.5938
  151DMF     C2 2292   0.290   1.248   1.192 -0.2371  0.7119 -0.4396
  151DMF     C3 2293   0.434   1.327   1.004 -0.2120 -0.4054  0.5467
  151DMF     O1 2294   0.486   1.423   0.943 -0.4958  0.2773  0.3532
  151DMF     H1 2295   0.323   1.562   1.060 -0.8778 -0.9133 -1.3603
  151DMF     H2 2296   0.409   1.519   1.212 -1.2800 -2.1958  2.4338
  151DMF     H3 2297   0.230   1.502   1.198  1.4109  1.2403  0.9963
  151DMF     H4 2298   0.359   1.163   1.194 -1.9003 -0.6526  0.1400
  151DMF     H5 2299   0.190   1.220   1.156 -0.4565 -0.4456  1.0411
  151DMF     H6 2300   0.289   1.289   1.293 -0.9133 -2.0620  0.7315
  151DMF     H7 2301   0.430   1.222   0.968 -0.8733  0.6555 -2.7153
  152DMF     C1 2302   0.865   1.805   0.331  0.5360  0.1005 -0.7207
  152DMF     N1 2303   0.819   1.862   0.461 -0.6640 -0.3517  0.0296
  152DMF     C2 2304   0.674   1.850   0.497 -0.4619  0.4349  0.0687
  152DMF     C3 2305   0.916   1.928   0.547  0.1967 -0.4452 -0.4935
  152DMF     O1 2306   1.032   1.940   0.518 -0.3578  0.1772  0.1645
  152DMF     H1 2307   0.788   1.821   0.254 -0.7742 -1.0991  0.3179
  152DMF     H2 2308   0.869   1.696   0.344  0.5342 -0.0406 -1.7937
  152DMF     H3 2309   0.968   1.831   0.301  0.6506  1.7217  1.0616
  152DMF     H4 2310   0.611   1.920   0.440 -0.8694  1.0349  1.2488
  152DMF     H5 2311   0.653   1.867   0.603  0.2204  2.3722 -0.0902
  152DMF     H6 2312   0.643   1.746   0.479 -1.9002  1.0219 -0.9213
  152DMF     H7 2313   0.874   1.959   0.645 -0.7812  1.9989 -1.6306
  153DMF     C1 2314   0.919   0.270   3.156  0.1955  0.0632 -0.0815
  153DMF     N1 2315   0.902   0.405   3.209  0.1623  0.0662 -0.3693
  153DMF     C2 2316   0.877   0.523   3.122  0.3411  0.0611  0.1842
  153DMF     C3 2317   0.915   0.418   3.346  0.1634  0.7773  0.0234
  153DMF     O1 2318   0.947   0.324   3.417 -0.2609 -0.3603 -0.1343
  153DMF     H1 2319   0.821   0.220   3.163 -0.8868  1.7845 -2.1065
  153DMF     H2 2320   0.982   0.209   3.221 -0.1351  0.6749  0.8258
  153DMF     H3 2321   0.961   0.267   3.055  0.5337 -0.1928  0.0644
  153DMF     H4 2322   0.969   0.539   3.065  0.5315 -2.0046 -0.1410
  153DMF     H5 2323   0.861   0.617   3.176 -1.6810 -0.8324  1.1898
  153DMF     H6 2324   0.795   0.494   3.055  2.4337  0.2363 -2.5356
  153DMF     H7 2325   0.894   0.518   3.389 -0.4123  1.2775 -1.4243
  154DMF     C1 2326   3.126   0.543   3.670 -0.4053  0.4354  0.8572
  154DMF     N1 2327   3.097   0.619   3.545 -0.3138  0.1904  0.0430
  154DMF     C2 2328   3.047   0.556   3.423 -0.2841 -0.0911  0.1131
  154DMF     C3 2329   3.123   0.758   3.529  0.3926  0.1570  0.2682
  154DMF     O1 2330   3.156   0.835   3.617 -0.3348 -0.2365 -0.4935
  154DMF     H1 2331   3.227   0.568   3.704 -0.4083  0.8312  0.5737
  154DMF     H2 2332   3.129   0.436   3.647 -3.7251  0.7363 -1.2948
  154DMF     H3 2333   3.045   0.564   3.741 -1.5435 -3.0802  0.6909
  154DMF     H4 2334   3.118   0.583   3.344  0.1188  2.7235  1.3688
  154DMF     H5 2335   2.947   0.592   3.397  0.2852  1.4065 -0.0806
  154DMF     H6 2336   3.055   0.447   3.430 -1.4069 -0.1716  0.1845
  154DMF     H7 2337   3.122   0.787   3.423 -1.5796 -0.7761 -0.0038
  155DMF     C1 2338   0.201   1.762   0.266  0.3439  0.4498  0.0719
  155DMF     N1 2339   0.287   1.789   0.388 -0.2655 -0.4105 -0.5885
  155DMF     C2 2340   0.359   1.672   0.447 -0.5900 -0.9063  0.5724
  155DMF     C3 2341   0.305   1.926   0.436 -0.1791 -0.6106  0.1157
  155DMF     O1 2342   0.243   2.018   0.389  0.8104 -0.2465 -0.7107
  155DMF     H1 2343   0.096   1.769   0.295 -0.0710 -0.5861 -1.1458
  155DMF     H2 2344   0.229   1.665   0.223  0.2987 -0.4833  2.0982
  155DMF     H3 2345   0.221   1.839   0.191  0.9846  1.3893  1.1928
  155DMF     H4 2346   0.451   1.652   0.391  0.1393 -0.3023  1.5394
  155DMF     H5 2347   0.298   1.581   0.444 -1.4969 -0.3039  0.3805
  155DMF     H6 2348   0.392   1.684   0.551 -0.1791  0.0390  0.3358
  155DMF     H7 2349   0.376   1.930   0.520  1.1009 -0.4803 -0.9544
  156DMF     C1 2350   2.915   0.712   0.945  0.0846 -0.5200 -0.1236
  156DMF     N1 2351   2.919   0.751   1.088  0.1582 -0.3454  0.0138
  156DMF     C2 2352   2.929   0.899   1.125  0.1216 -0.2178  0.1805
  156DMF     C3 2353   2.946   0.653   1.191  1.2992 -0.4149  0.9936
  156DMF     O1 2354   2.939   0.531   1.177  0.6725  0.4472 -0.2941
  156DMF     H1 2355   2.993   0.771   0.895  1.2901  1.5469  3.9991
  156DMF     H2 2356   2.816   0.732   0.902  0.8796 -0.2549 -1.8903
  156DMF     H3 2357   2.940   0.606   0.931 -1.9518 -0.9243 -0.8592
  156DMF     H4 2358   2.887   0.913   1.225 -0.9639 -0.2555 -0.2641
  156DMF     H5 2359   2.873   0.957   1.050  0.2003 -0.1694  0.1587
  156DMF     H6 2360   3.031   0.937   1.126 -0.3641  1.0803  0.3985
  156DMF     H7 2361   2.962   0.703   1.288  2.0345  3.2630 -0.9593
  157DMF     C1 2362   1.307   1.280   0.928 -0.5847 -0.9231 -0.5718
  157DMF     N1 2363   1.279   1.142   0.916  0.3345 -0.2623  0.1889
  157DMF     C2 2364   1.393   1.049   0.931  0.2849  0.0942  0.3944
  157DMF     C3 2365   1.147   1.094   0.896 -0.5551 -0.2473 -0.0311
  157DMF     O1 2366   1.046   1.163   0.900 -0.1242  0.9071  0.0727
  157DMF     H1 2367   1.348   1.323   0.836 -0.0771  2.7406  1.3117
  157DMF     H2 2368   1.390   1.298   0.997  0.7079 -0.8412 -2.1318
  157DMF     H3 2369   1.216   1.321   0.974 -1.2395 -2.1084 -0.7684
  157DMF     H4 2370   1.384   0.974   0.851 -2.2575 -0.2040  0.9051
  157DMF     H5 2371   1.392   0.999   1.029  0.6052 -1.3326 -0.3080
  157DMF     H6 2372   1.493   1.092   0.925  0.1651  0.5250  1.5024
  157DMF     H7 2373   1.139   0.984   0.887  0.9793 -0.0275 -5.1359
  158DMF     C1 2374   2.472   1.274   2.270 -0.3892  0.2569 -0.2603
  158DMF     N1 2375   2.421   1.383   2.368  0.2474  0.3060  0.1210
  158DMF     C2 2376   2.512   1.498   2.409  0.4544  0.1004 -0.1086
  158DMF     C3 2377   2.290   1.389   2.406  0.6960 -0.0895  0.8077
  158DMF     O1 2378   2.207   1.299   2.374 -0.1744 -0.5138 -0.2782
  158DMF     H1 2379   2.573   1.303   2.238 -0.3236  0.0289 -0.2626
  158DMF     H2 2380   2.405   1.280   2.184 -1.3170  0.4299  0.4587
  158DMF     H3 2381   2.465   1.173   2.312 -0.0252  0.8199  1.1856
  158DMF     H4 2382   2.490   1.524   2.513 -2.3358 -0.0135 -0.6286
  158DMF     H5 2383   2.497   1.578   2.335 -1.7844 -0.4722 -0.3135
  158DMF     H6 2384   2.615   1.463   2.400  0.7354  0.1873  2.4261
  158DMF     H7 2385   2.273   1.483   2.461  1.1550  0.7277 -0.4305
  159DMF     C1 2386   1.939   2.632   0.211 -0.3237  0.1879  0.3284
  159DMF     N1 2387   1.969   2.638   0.066  0.0565 -0.7885 -0.6511
  159DMF     C2 2388   2.089   2.707   0.021 -0.0363 -0.5889  0.0487
  159DMF     C3 2389   1.907   2.561  -0.023  0.9913 -0.9183  0.8683
  159DMF     O1 2390   1.803   2.501  -0.008 -0.4404 -0.2874 -0.7014
  159DMF     H1 2391   1.879   2.719   0.241  0.3010  0.8282 -0.2740
  159DMF     H2 2392   2.032   2.626   0.269 -0.6661 -1.0842  0.7561
  159DMF     H3 2393   1.884   2.540   0.232  1.7329 -1.2327 -0.3742
  159DMF     H4 2394   2.074   2.747  -0.080 -0.7732  1.0538  0.7905
  159DMF     H5 2395   2.169   2.632   0.017 -1.4117 -1.9792 -2.7793
  159DMF     H6 2396   2.128   2.772   0.100  1.3075 -1.0282 -0.2392
  159DMF     H7 2397   1.951   2.548  -0.123 -1.8703 -2.9783 -0.2057
  160DMF     C1 2398   0.479   1.497   2.904  0.2943  0.6031 -0.0705
  160DMF     N1 2399   0.394   1.608   2.937 -0.3460 -0.7845 -0.1586
  160DMF     C2 2400   0.365   1.713   2.836  0.3387 -0.1118 -0.3531
  160DMF     C3 2401   0.307   1.580   3.030  0.7376 -0.0552  0.5190
  160DMF     O1 2402   0.305   1.476   3.100 -0.5449  0.2346 -0.3288
  160DMF     H1 2403   0.430   1.400   2.899  1.8951 -0.2446  0.3890
  160DMF     H2 2404   0.538   1.470   2.992  0.8535  2.2115  0.0658
  160DMF     H3 2405   0.535   1.529   2.815 -0.5192  1.9488 -0.1220
  160DMF     H4 2406   0.310   1.668   2.753 -0.8430  0.2848  0.2023
  160DMF     H5 2407   0.462   1.740   2.792  1.1563  0.4747  1.7380
  160DMF     H6 2408   0.314   1.796   2.888 -1.7219 -0.7446 -1.3035
  160DMF     H7 2409   0.236   1.663   3.049  1.1761  0.0985  1.5308
  161DMF     C1 2410   0.050   1.882   2.358 -0.1060  0.3058  0.7827
  161DMF     N1 2411   0.007   2.012   2.408 -0.1452 -0.4418 -0.1046
  161DMF     C2 2412  -0.085   2.095   2.322 -0.0335 -0.3509  0.4242
  161DMF     C3 2413   0.055   2.070   2.526  0.3167  0.7425 -0.3710
  161DMF     O1 2414   0.147   2.020   2.590 -0.0535  0.5546  0.1157
  161DMF     H1 2415   0.130   1.899   2.284  0.7296  0.9542  1.8164
  161DMF     H2 2416  -0.032   1.825   2.312  1.2706 -1.3421  0.2909
  161DMF     H3 2417   0.095   1.828   2.442  1.1406 -0.4295 -0.3157
  161DMF     H4 2418  -0.179   2.040   2.313 -0.3280  0.0027  1.3477
  161DMF     H5 2419  -0.051   2.105   2.217  0.0876 -0.2359  0.4737
  161DMF     H6 2420  -0.109   2.191   2.368  1.7779  0.1792  0.3025
  161DMF     H7 2421   0.019   2.172   2.545  1.3080  1.4456 -2.1723
  162DMF     C1 2422   2.492   2.619   2.537  0.9056  0.7440  0.3985
  162DMF     N1 2423   2.634   2.581   2.575  0.6777  0.3625 -0.3045
  162DMF     C2 2424   2.667   2.448   2.598 -0.3007  0.0906 -0.3615
  162DMF     C3 2425   2.736   2.679   2.595 -0.1822  0.1147 -0.4467
  162DMF     O1 2426   2.721   2.797   2.615 -0.2074  0.4222  0.0553
  162DMF     H1 2427   2.458   2.541   2.468 -0.4727  0.9102  0.8742
  162DMF     H2 2428   2.494   2.717   2.487 -3.4236  0.3448 -0.7692
  162DMF     H3 2429   2.422   2.634   2.620 -1.9640 -1.9488 -1.3927
  162DMF     H4 2430   2.589   2.373   2.578  0.8443 -1.1706 -0.1711
  162DMF     H5 2431   2.683   2.432   2.705  2.0270  0.4170 -0.6340
  162DMF     H6 2432   2.757   2.415   2.546 -0.5412 -0.6172 -0.3405
  162DMF     H7 2433   2.838   2.636   2.599 -0.7448 -1.3814 -1.7348
  163DMF     C1 2434   1.357   2.581   3.430 -0.5223  0.8478 -0.2434
  163DMF     N1 2435   1.325   2.656   3.301 -0.7771 -0.4580  0.0210
  163DMF     C2 2436   1.296   2.576   3.184  0.5440  1.1128 -0.8310
  163DMF     C3 2437   1.351   2.788   3.290  0.1380  0.5323 -1.2753
  163DMF     O1 2438   1.361   2.856   3.389  0.3258  0.6794  0.5244
  163DMF     H1 2439   1.278   2.512   3.462  0.4642  1.1105  2.8479
  163DMF     H2 2440   1.369   2.652   3.512 -0.8329  0.7286 -0.0943
  163DMF     H3 2441   1.449   2.524   3.418 -0.2278  1.4149 -0.7371
  163DMF     H4 2442   1.266   2.648   3.106 -2.4871  0.0656 -0.6959
  163DMF     H5 2443   1.207   2.514   3.199  1.9461 -0.5517  0.7618
  163DMF     H6 2444   1.383   2.517   3.154  0.5209  1.3087 -1.3004
  163DMF     H7 2445   1.365   2.830   3.189 -0.3707  0.1130 -1.5201
  164DMF     C1 2446   1.857   0.832   2.251  0.1471  0.4385 -0.0220
  164DMF     N1 2447   1.969   0.929   2.244  0.1143  0.1854  0.0474
  164DMF     C2 2448   1.947   1.074   2.248  0.0143  0.3126  0.0356
  164DMF     C3 2449   2.106   0.884   2.233 -0.1707  0.4456 -0.0713
  164DMF     O1 2450   2.136   0.766   2.216 -0.3831  0.1359 -0.3211
  164DMF     H1 2451   1.864   0.794   2.354 -0.6597 -0.7307 -0.3937
  164DMF     H2 2452   1.863   0.748   2.181  0.8628 -0.0461  0.6071
  164DMF     H3 2453   1.762   0.885   2.242 -0.8990 -1.5686 -1.1037
  164DMF     H4 2454   1.895   1.097   2.342  0.1873 -1.4842  0.5908
  164DMF     H5 2455   1.897   1.110   2.158  2.5641 -0.2043 -1.6348
  164DMF     H6 2456   2.039   1.131   2.266 -0.4433  0.7027  1.2406
  164DMF     H7 2457   2.192   0.953   2.231  0.0280  0.2388  0.9093
  165DMF     C1 2458   3.166   0.804   3.038  0.5917  0.1186 -0.3925
  165DMF     N1 2459   3.196   0.848   2.903  0.1764  0.4613 -0.0797
  165DMF     C2 2460   3.204   0.749   2.792 -0.3436 -0.1651 -0.3430
  165DMF     C3 2461   3.183   0.980   2.868  0.0023 -0.7105 -0.2905
  165DMF     O1 2462   3.155   1.065   2.956  0.4776 -0.3939  0.4969
  165DMF     H1 2463   3.076   0.741   3.047  0.7656  0.0326  0.7840
  165DMF     H2 2464   3.160   0.886   3.111  0.1632  0.0172 -0.3129
  165DMF     H3 2465   3.252   0.747   3.074 -1.6588 -1.2451  3.0676
  165DMF     H4 2466   3.137   0.780   2.712 -3.3286 -1.0785  1.7223
  165DMF     H5 2467   3.192   0.643   2.818  1.3868  0.1424  1.8232
  165DMF     H6 2468   3.301   0.762   2.742 -1.2275  0.2907 -1.9801
  165DMF     H7 2469   3.197   0.996   2.760  1.1968 -0.8206 -0.1582
  166DMF     C1 2470   2.553   0.321   2.641  0.7125 -0.1492 -0.1582
  166DMF     N1 2471   2.676   0.253   2.618 -0.3899 -0.1512 -0.2663
  166DMF     C2 2472   2.774   0.300   2.516 -0.4353 -0.4896  0.7197
  166DMF     C3 2473   2.707   0.127   2.680  0.0126  0.0399 -0.8584
  166DMF     O1 2474   2.641   0.071   2.766 -0.3064  0.2596  0.5612
  166DMF     H1 2475   2.477   0.249   2.673  0.2867  0.5064  0.3104
  166DMF     H2 2476   2.519   0.359   2.544  1.5204 -1.7847 -1.1179
  166DMF     H3 2477   2.563   0.398   2.718 -1.4392  0.5372 -0.5483
  166DMF     H4 2478   2.866   0.323   2.572 -0.0322  1.3666 -0.6550
  166DMF     H5 2479   2.745   0.385   2.453  1.5131 -0.2099  0.1564
  166DMF     H6 2480   2.798   0.218   2.447  1.5857  1.4599 -0.9827
  166DMF     H7 2481   2.796   0.081   2.634  1.0061  0.1476  0.9067
  167DMF     C1 2482   1.248   1.336   3.188 -0.0207  0.3694  0.1724
  167DMF     N1 2483   1.167   1.378   3.299 -0.1533  0.1630  0.2493
  167DMF     C2 2484   1.101   1.273   3.378  0.0995  0.0252 -0.0287
  167DMF     C3 2485   1.170   1.510   3.346  0.6330 -0.5609 -0.1577
  167DMF     O1 2486   1.223   1.604   3.287  0.4420  0.3552 -0.1642
  167DMF     H1 2487   1.351   1.366   3.214 -0.5069 -0.1001  2.8529
  167DMF     H2 2488   1.209   1.390   3.101  0.3802 -0.4107 -0.4996
  167DMF     H3 2489   1.240   1.228   3.172 -2.5104  0.6171 -0.4969
  167DMF     H4 2490   1.005   1.298   3.425  0.3989 -0.5669  0.9125
  167DMF     H5 2491   1.169   1.245   3.459 -0.6143  0.4680  0.7339
  167DMF     H6 2492   1.089   1.183   3.316  0.4476  0.9095 -1.3846
  167DMF     H7 2493   1.127   1.519   3.447 -1.2626 -0.9250 -0.9210
  168DMF     C1 2494   2.406   2.432   3.726  0.4533 -0.0625 -0.0008
  168DMF     N1 2495   2.389   2.313   3.637 -0.9414 -0.1385 -0.0363
  168DMF     C2 2496   2.513   2.233   3.593 -0.2577 -0.2441 -0.5356
  168DMF     C3 2497   2.268   2.299   3.577  0.0732 -0.9451  0.3585
  168DMF     O1 2498   2.172   2.357   3.617 -0.1989  0.1065 -0.2749
  168DMF     H1 2499   2.503   2.433   3.777 -0.3623 -0.5502  1.5976
  168DMF     H2 2500   2.332   2.421   3.806 -1.1183  1.3908 -1.2349
  168DMF     H3 2501   2.386   2.527   3.675 -0.3267 -0.1009  0.2256
  168DMF     H4 2502   2.561   2.286   3.510 -0.6457  2.0938  0.6949
  168DMF     H5 2503   2.471   2.144   3.544  3.8368 -2.2760 -0.5011
  168DMF     H6 2504   2.582   2.212   3.676 -0.3004 -2.7499 -1.0914
  168DMF     H7 2505   2.268   2.227   3.493 -0.4442  0.1354 -0.5729
  169DMF     C1 2506   1.518   0.543   0.638 -0.4192 -0.7557 -0.4492
  169DMF     N1 2507   1.559   0.676   0.681  0.3389 -0.0671 -0.0812
  169DMF     C2 2508   1.654   0.757   0.601 -0.2792 -0.9520 -0.8170
  169DMF     C3 2509   1.525   0.735   0.802  0.8754  0.0850 -0.9069
  169DMF     O1 2510   1.437   0.683   0.873  0.1830 -0.0695 -0.1868
  169DMF     H1 2511   1.486   0.487   0.726 -0.3566  3.7145  2.6091
  169DMF     H2 2512   1.609   0.504   0.592  0.2541  1.1348 -0.7868
  169DMF     H3 2513   1.433   0.557   0.569 -2.0160 -0.8485  1.4579
  169DMF     H4 2514   1.747   0.754   0.658 -0.8408 -0.6640  0.1242
  169DMF     H5 2515   1.618   0.860   0.594 -0.6091 -1.0269 -0.2728
  169DMF     H6 2516   1.660   0.716   0.499 -0.1647 -0.9512 -0.8104
  169DMF     H7 2517   1.565   0.838   0.812  0.4221  0.2676 -0.9534
  170DMF     C1 2518   2.109   1.985   3.664 -0.6536 -0.8900 -0.4326
  170DMF     N1 2519   2.150   1.937   3.525 -0.2377 -0.6333 -0.0404
  170DMF     C2 2520   2.045   1.903   3.433 -0.1313  0.1658  0.5941
  170DMF     C3 2521   2.273   1.877   3.508 -0.6858 -1.6419  1.0565
  170DMF     O1 2522   2.367   1.891   3.583 -0.1648 -0.1917  0.1709
  170DMF     H1 2523   2.110   1.900   3.733  0.4103  0.1385  0.8415
  170DMF     H2 2524   2.010   2.032   3.657 -0.8236 -1.1166  0.3880
  170DMF     H3 2525   2.176   2.062   3.703 -0.0558 -3.2390  3.4836
  170DMF     H4 2526   2.035   1.794   3.430  0.4479  0.0159  3.5181
  170DMF     H5 2527   2.069   1.947   3.335 -0.8092 -1.4485 -0.3319
  170DMF     H6 2528   1.951   1.943   3.474  1.0349  0.4595  3.0580
  170DMF     H7 2529   2.283   1.835   3.406  0.3220  0.5105  0.2301
  171DMF     C1 2530   1.223   3.302   3.218 -0.0744  0.1466 -0.1127
  171DMF     N1 2531   1.095   3.244   3.256  0.2226  0.4226  0.2881
  171DMF     C2 2532   1.098   3.130   3.333  0.2124  0.5991 -0.2981
  171DMF     C3 2533   0.979   3.302   3.206 -0.1559  0.2565  0.0533
  171DMF     O1 2534   0.978   3.412   3.145  0.4786  0.4605 -0.8858
  171DMF     H1 2535   1.244   3.395   3.272 -0.1566 -0.9898  1.9102
  171DMF     H2 2536   1.220   3.320   3.110 -0.1576 -3.9007 -0.8754
  171DMF     H3 2537   1.309   3.236   3.235 -0.6136 -0.2809  0.9599
  171DMF     H4 2538   1.026   3.138   3.415  2.1100 -0.7785  1.5701
  171DMF     H5 2539   1.197   3.104   3.373 -0.3494 -0.9642  0.1206
  171DMF     H6 2540   1.073   3.048   3.265  2.1067  0.7392 -1.2162
  171DMF     H7 2541   0.884   3.250   3.227  0.1620  0.8236  3.1857
  172DMF     C1 2542   1.993   1.969   0.693  0.0117 -0.8982  0.3255
  172DMF     N1 2543   2.128   2.004   0.742 -0.1372  0.4510  0.0331
  172DMF     C2 2544   2.217   1.891   0.756  0.0919  0.4091  0.8570
  172DMF     C3 2545   2.174   2.136   0.759  0.1205 -0.0114 -0.2365
  172DMF     O1 2546   2.101   2.227   0.732  0.7083  0.1696  0.3707
  172DMF     H1 2547   1.914   2.044   0.700  1.5940  0.9651 -1.1780
  172DMF     H2 2548   1.962   1.871   0.733 -0.2173 -0.7359  0.5493
  172DMF     H3 2549   2.014   1.948   0.587 -0.2329 -0.7003  0.2372
  172DMF     H4 2550   2.195   1.846   0.853 -3.1424 -0.1296 -0.0731
  172DMF     H5 2551   2.322   1.920   0.746  0.9780 -2.3875  1.5172
  172DMF     H6 2552   2.196   1.810   0.685  0.1707 -1.9375  3.4461
  172DMF     H7 2553   2.272   2.148   0.809 -0.7923  0.6475  1.4215
  173DMF     C1 2554   1.883   2.495   3.190  0.1212  0.5275 -0.7336
  173DMF     N1 2555   1.741   2.534   3.192 -0.4271 -0.1689 -0.1027
  173DMF     C2 2556   1.636   2.438   3.153  0.2451 -0.2543  0.3210
  173DMF     C3 2557   1.713   2.675   3.193  0.3357 -0.1847 -0.7299
  173DMF     O1 2558   1.795   2.753   3.235 -0.3364 -0.0403  0.3564
  173DMF     H1 2559   1.921   2.481   3.292 -0.6327  0.2687 -0.4851
  173DMF     H2 2560   1.947   2.567   3.136  1.1099 -0.4296 -0.8621
  173DMF     H3 2561   1.892   2.398   3.139 -1.9008  1.1261 -2.3189
  173DMF     H4 2562   1.549   2.455   3.218 -0.2995  2.2212 -1.0369
  173DMF     H5 2563   1.680   2.337   3.164  0.3053 -0.3939 -1.1081
  173DMF     H6 2564   1.621   2.452   3.046  1.5697 -0.1195  0.1399
  173DMF     H7 2565   1.607   2.698   3.171 -0.4232 -0.0198  2.8504
  174DMF     C1 2566   1.173   1.023   2.938  0.2461 -0.4272 -0.1548
  174DMF     N1 2567   1.156   0.873   2.917  0.0727 -0.1908  0.2436
  174DMF     C2 2568   1.025   0.819   2.947 -0.1330 -0.0218 -0.0637
  174DMF     C3 2569   1.245   0.786   2.855 -0.1379  0.3107 -0.1137
  174DMF     O1 2570   1.352   0.823   2.805  0.1516 -0.4010  0.2925
  174DMF     H1 2571   1.110   1.073   2.863  0.1154  0.1355  0.3265
  174DMF     H2 2572   1.278   1.054   2.939 -0.2725  1.3548 -0.4207
  174DMF     H3 2573   1.127   1.052   3.033  0.7960 -1.5481  0.4744
  174DMF     H4 2574   0.978   0.829   2.848  2.4419 -1.3895 -1.4902
  174DMF     H5 2575   0.969   0.883   3.016 -2.0616  1.1655 -2.6458
  174DMF     H6 2576   1.035   0.711   2.967 -0.7616 -0.0002  0.3700
  174DMF     H7 2577   1.212   0.681   2.850  2.2779 -0.5166  0.4730
  175DMF     C1 2578   1.840   0.711   2.904 -0.0794  0.6504  0.1988
  175DMF     N1 2579   1.703   0.676   2.904 -0.7366 -0.1663 -0.1144
  175DMF     C2 2580   1.653   0.590   2.796  0.6599 -0.2586 -0.1629
  175DMF     C3 2581   1.617   0.734   2.995  0.3455 -0.0977 -0.5035
  175DMF     O1 2582   1.651   0.781   3.103 -0.3081  0.2565 -0.7852
  175DMF     H1 2583   1.892   0.701   3.000  0.0396 -1.4138 -0.0588
  175DMF     H2 2584   1.838   0.820   2.893 -0.8826  0.6674  0.4821
  175DMF     H3 2585   1.895   0.666   2.820 -0.8895  1.1185 -0.5919
  175DMF     H4 2586   1.568   0.529   2.831  1.2529 -0.3757  1.1032
  175DMF     H5 2587   1.730   0.513   2.782  0.4571 -0.5498  0.2851
  175DMF     H6 2588   1.629   0.643   2.703 -1.9090 -0.4954  0.3191
  175DMF     H7 2589   1.512   0.717   2.965  0.8490  1.2312 -3.1734
  176DMF     C1 2590   2.680   1.311   3.075 -0.1882 -0.1341 -0.2094
  176DMF     N1 2591   2.757   1.191   3.081 -0.1331  0.0884  0.2502
  176DMF     C2 2592   2.760   1.134   3.214  0.1485 -0.3360 -0.6304
  176DMF     C3 2593   2.802   1.115   2.973  0.8978  0.0295  0.1338
  176DMF     O1 2594   2.760   1.136   2.859 -0.0893  0.3298 -0.3851
  176DMF     H1 2595   2.588   1.301   3.133  1.0490  1.7254  2.1819
  176DMF     H2 2596   2.662   1.337   2.970 -0.7612 -2.0725 -0.6005
  176DMF     H3 2597   2.733   1.396   3.120 -1.1191 -0.5680  1.7587
  176DMF     H4 2598   2.661   1.088   3.229 -0.2350  1.2054  1.9453
  176DMF     H5 2599   2.770   1.217   3.285  1.7703  0.0711 -1.3128
  176DMF     H6 2600   2.841   1.062   3.222  2.1462  1.8592 -0.5570
  176DMF     H7 2601   2.870   1.033   3.004  0.7903 -0.3542 -0.6354
  177DMF     C1 2602   2.689   0.766   2.249  0.0006 -0.4559  0.4977
  177DMF     N1 2603   2.585   0.666   2.272  0.6666  0.4867  0.5455
  177DMF     C2 2604   2.441   0.701   2.286  0.6892 -0.1744 -0.0976
  177DMF     C3 2605   2.609   0.535   2.237 -0.4970 -0.1475  0.4237
  177DMF     O1 2606   2.720   0.500   2.211  0.7218 -0.4587 -0.3936
  177DMF     H1 2607   2.685   0.818   2.346  0.5877 -0.2713  0.4276
  177DMF     H2 2608   2.674   0.832   2.163 -0.8169 -0.5063  0.6058
  177DMF     H3 2609   2.786   0.715   2.261  0.4960  0.7518  1.8222
  177DMF     H4 2610   2.404   0.702   2.183  0.2526 -0.9875  0.0551
  177DMF     H5 2611   2.432   0.800   2.333  2.1006 -0.7866  1.5409
  177DMF     H6 2612   2.392   0.620   2.340  1.0589 -0.5418 -0.3119
  177DMF     H7 2613   2.522   0.472   2.213  0.7470 -2.0832  0.9438
  178DMF     C1 2614   2.387   2.351   2.262 -0.4166  0.2703 -0.4818
  178DMF     N1 2615   2.421   2.245   2.364 -0.9509  0.0499 -0.3809
  178DMF     C2 2616   2.351   2.253   2.503  0.5799  0.3447 -0.6953
  178DMF     C3 2617   2.526   2.162   2.346  0.4370 -0.5008  0.1871
  178DMF     O1 2618   2.590   2.154   2.238  0.8543  0.6454  0.2257
  178DMF     H1 2619   2.359   2.289   2.176  2.3105 -2.3664  0.4422
  178DMF     H2 2620   2.487   2.392   2.243 -0.1737  0.1479  0.4936
  178DMF     H3 2621   2.311   2.423   2.296 -2.0191  0.1509 -3.6599
  178DMF     H4 2622   2.426   2.253   2.583 -0.3135 -0.4448  0.1581
  178DMF     H5 2623   2.280   2.169   2.504  0.2172  0.6565  1.5539
  178DMF     H6 2624   2.291   2.344   2.497  0.2905  0.1213 -1.2230
  178DMF     H7 2625   2.547   2.101   2.436 -0.0015 -0.6661  0.1802
  179DMF     C1 2626   0.801   1.415   2.344 -0.0422  0.5322 -0.3984
  179DMF     N1 2627   0.778   1.283   2.277  0.3087  0.1688 -0.1156
  179DMF     C2 2628   0.900   1.206   2.237  0.2521  0.3628  0.8882
  179DMF     C3 2629   0.652   1.245   2.243 -0.1811 -0.0734  0.3582
  179DMF     O1 2630   0.551   1.307   2.268 -0.0550 -0.5940 -0.0818
  179DMF     H1 2631   0.906   1.446   2.342  1.2033 -3.4532 -0.0779
  179DMF     H2 2632   0.770   1.408   2.449  0.7631 -0.5993 -0.2325
  179DMF     H3 2633   0.734   1.491   2.301  0.9905  0.8056 -1.5683
  179DMF     H4 2634   0.875   1.112   2.187  0.4347  1.8691 -2.1243
  179DMF     H5 2635   0.954   1.180   2.330  2.2326 -0.3376 -0.4104
  179DMF     H6 2636   0.966   1.273   2.180  1.9233  0.8999  3.3498
  179DMF     H7 2637   0.654   1.147   2.193  0.1589 -0.0849  0.3941
  180DMF     C1 2638   2.704   0.175   0.317  0.0321 -0.7068 -0.3703
  180DMF     N1 2639   2.716   0.042   0.253 -0.1807  0.3451  0.1228
  180DMF     C2 2640   2.614  -0.062   0.301  0.1989  0.1437  0.6148
  180DMF     C3 2641   2.804   0.017   0.146  0.4736  0.1449 -0.3275
  180DMF     O1 2642   2.865   0.104   0.083 -0.6668  0.2872  0.4775
  180DMF     H1 2643   2.619   0.169   0.386  0.6463  1.6333  0.6279
  180DMF     H2 2644   2.693   0.259   0.247  0.8740  0.2550  0.6264
  180DMF     H3 2645   2.791   0.209   0.374 -0.5028  1.0472 -0.5584
  180DMF     H4 2646   2.616  -0.160   0.251  1.7774  0.0644  0.8233
  180DMF     H5 2647   2.514  -0.018   0.289  0.1275 -0.4073 -1.0162
  180DMF     H6 2648   2.627  -0.077   0.409  1.2161  1.1951  0.6446
  180DMF     H7 2649   2.806  -0.087   0.107  1.0181  0.4908 -1.2398
  181DMF     C1 2650   2.202   2.597   2.961 -0.7962 -0.2377 -0.7662
  181DMF     N1 2651   2.117   2.536   2.855  0.0542 -0.0902 -0.2597
  181DMF     C2 2652   2.088   2.632   2.740  0.3861  0.3596 -0.3276
  181DMF     C3 2653   2.067   2.402   2.866 -0.2712 -0.2228  0.2699
  181DMF     O1 2654   2.095   2.330   2.964  0.4038 -0.2240  0.0619
  181DMF     H1 2655   2.276   2.666   2.918  0.2906  1.0922  3.0848
  181DMF     H2 2656   2.257   2.516   3.009 -0.6408  1.0640  1.2927
  181DMF     H3 2657   2.149   2.648   3.042 -0.7116  1.5117 -1.7685
  181DMF     H4 2658   2.138   2.597   2.649 -0.0214  2.0510 -1.2140
  181DMF     H5 2659   2.123   2.732   2.767 -0.9685  0.6142  0.5866
  181DMF     H6 2660   1.980   2.635   2.721  0.4692  1.0103 -0.7017
  181DMF     H7 2661   2.011   2.381   2.773  0.3399  1.6974 -0.5697
  182DMF     C1 2662   1.676   1.357   1.181  0.0425 -0.1447 -0.1519
  182DMF     N1 2663   1.540   1.338   1.213 -0.6940 -0.6907 -0.3468
  182DMF     C2 2664   1.456   1.458   1.217 -1.1186  0.2889  0.6005
  182DMF     C3 2665   1.489   1.206   1.236  0.9990 -0.4503  0.1793
  182DMF     O1 2666   1.556   1.108   1.233 -0.0780 -0.3760  0.2826
  182DMF     H1 2667   1.740   1.311   1.257 -0.3328  1.3344  1.0734
  182DMF     H2 2668   1.701   1.459   1.211 -0.4010  0.1022 -0.6134
  182DMF     H3 2669   1.691   1.333   1.075 -1.5061 -1.3229 -0.1230
  182DMF     H4 2670   1.503   1.531   1.151  0.2891 -2.2284 -1.2822
  182DMF     H5 2671   1.440   1.503   1.316 -1.3290  1.0079  0.2396
  182DMF     H6 2672   1.358   1.436   1.171 -1.2376  2.3296 -0.1423
  182DMF     H7 2673   1.387   1.215   1.279  1.3160 -0.8501  1.0116
  183DMF     C1 2674   1.584   3.107   3.283 -0.1279 -0.1752 -0.2285
  183DMF     N1 2675   1.576   3.182   3.162 -0.0950 -0.5474 -0.3698
  183DMF     C2 2676   1.598   3.326   3.169  0.5003 -0.0990  0.8718
  183DMF     C3 2677   1.551   3.124   3.039  0.7983 -0.5097  0.8207
  183DMF     O1 2678   1.512   3.011   3.018  0.3819  0.4640  0.3095
  183DMF     H1 2679   1.687   3.081   3.308  0.5029  0.9247 -1.6122
  183DMF     H2 2680   1.528   3.014   3.264  1.6261 -0.9860 -1.5994
  183DMF     H3 2681   1.529   3.148   3.369 -0.2604  1.6017 -1.1373
  183DMF     H4 2682   1.509   3.387   3.148 -1.2330 -2.6547  0.5371
  183DMF     H5 2683   1.677   3.369   3.107  0.0573  0.8714  0.9703
  183DMF     H6 2684   1.628   3.360   3.269  1.1587 -0.1551  0.6953
  183DMF     H7 2685   1.559   3.196   2.956 -0.7556  0.6915  1.6849
  184DMF     C1 2686   3.371   2.342   3.743  0.1798  0.0816 -0.2204
  184DMF     N1 2687   3.314   2.472   3.738  0.3189 -0.1762  0.5179
  184DMF     C2 2688   3.277   2.535   3.861 -0.2955  0.4226 -0.0691
  184DMF     C3 2689   3.274   2.525   3.613  0.3039  0.7026 -0.8390
  184DMF     O1 2690   3.301   2.466   3.509 -0.0894  0.2704  0.4925
  184DMF     H1 2691   3.459   2.345   3.679  0.6627 -2.3002  0.3071
  184DMF     H2 2692   3.304   2.265   3.704 -1.0222  1.6789 -1.3981
  184DMF     H3 2693   3.392   2.305   3.844  0.4928  0.1347 -0.2650
  184DMF     H4 2694   3.196   2.475   3.905  0.6412  0.7088  2.1102
  184DMF     H5 2695   3.241   2.636   3.838  0.6570  1.3310  2.2869
  184DMF     H6 2696   3.366   2.538   3.924 -0.7059  3.1553  0.4138
  184DMF     H7 2697   3.223   2.623   3.620  0.8240  0.9729 -0.7543
  185DMF     C1 2698   0.453   1.139   3.087 -0.4381 -0.0381 -0.4372
  185DMF     N1 2699   0.543   1.033   3.127 -0.4794  0.4634 -0.3393
  185DMF     C2 2700   0.685   1.040   3.089 -0.4739 -0.8185  0.1210
  185DMF     C3 2701   0.505   0.935   3.223 -0.0596 -0.7602  0.6023
  185DMF     O1 2702   0.403   0.935   3.289  0.4015  0.2257 -0.3358
  185DMF     H1 2703   0.361   1.138   3.146 -0.3474  0.4453 -0.2849
  185DMF     H2 2704   0.442   1.127   2.978 -0.6091  0.0285 -0.4270
  185DMF     H3 2705   0.499   1.238   3.093  0.8103 -0.7237  1.9282
  185DMF     H4 2706   0.727   1.132   3.132 -0.1670  0.0565 -1.9934
  185DMF     H5 2707   0.687   1.038   2.979  0.8204  0.9849  0.0759
  185DMF     H6 2708   0.728   0.952   3.138  1.4640  0.1350  0.1853
  185DMF     H7 2709   0.577   0.852   3.229  1.3525  0.2756 -1.4632
  186DMF     C1 2710   2.794   0.881   2.649 -0.3681 -0.0250  0.6191
  186DMF     N1 2711   2.762   0.749   2.607 -0.4490  0.5741 -0.3069
  186DMF     C2 2712   2.876   0.656   2.580  0.0887  0.2300  0.4032
  186DMF     C3 2713   2.633   0.709   2.588 -0.0070 -0.8789  0.4445
  186DMF     O1 2714   2.533   0.773   2.609 -0.2874 -0.1111  0.8780
  186DMF     H1 2715   2.871   0.927   2.586 -1.2865  0.2998 -0.2763
  186DMF     H2 2716   2.828   0.873   2.753  0.8275  2.0743  0.4292
  186DMF     H3 2717   2.707   0.948   2.650 -0.2256  0.1592  0.7379
  186DMF     H4 2718   2.911   0.670   2.477  0.3629 -1.8412  0.1865
  186DMF     H5 2719   2.840   0.553   2.590  0.5168  0.0803  0.4541
  186DMF     H6 2720   2.955   0.677   2.654  0.3564  1.7869 -0.3053
  186DMF     H7 2721   2.627   0.601   2.563 -2.1557 -0.7147  0.1888
  187DMF     C1 2722   0.366   0.369   2.657 -0.0081 -0.7868  0.3482
  187DMF     N1 2723   0.401   0.233   2.700 -0.3733 -0.1768  0.3555
  187DMF     C2 2724   0.348   0.181   2.826  0.1597  0.0952 -0.3662
  187DMF     C3 2725   0.484   0.151   2.620  0.2918 -0.9489 -0.4627
  187DMF     O1 2726   0.540   0.200   2.525 -0.3104 -0.3509 -0.2263
  187DMF     H1 2727   0.426   0.396   2.568 -0.5530  1.7275  0.6952
  187DMF     H2 2728   0.381   0.443   2.736 -0.8224 -0.6706  0.3949
  187DMF     H3 2729   0.262   0.367   2.624  0.0521 -0.1267  0.0968
  187DMF     H4 2730   0.303   0.257   2.890  0.0680  1.5989 -2.1704
  187DMF     H5 2731   0.436   0.138   2.875 -0.1449  0.2947  0.3585
  187DMF     H6 2732   0.283   0.094   2.808 -0.0924  0.2362 -0.1336
  187DMF     H7 2733   0.501   0.050   2.662  2.5513 -0.4903 -0.1908
  188DMF     C1 2734   0.124   0.269   3.731 -0.8655  0.8830  0.3267
  188DMF     N1 2735   0.118   0.336   3.868  0.1247 -1.2121  0.7082
  188DMF     C2 2736  -0.010   0.358   3.939 -0.0616  0.4460 -0.6226
  188DMF     C3 2737   0.234   0.404   3.913 -0.4193  0.3536  0.4149
  188DMF     O1 2738   0.328   0.424   3.837 -0.0485 -0.0685 -0.5705
  188DMF     H1 2739   0.185   0.323   3.658  0.0504 -0.5710 -0.0219
  188DMF     H2 2740   0.023   0.267   3.689  0.4122 -0.4570 -2.8559
  188DMF     H3 2741   0.174   0.172   3.745  1.1274  2.1535  2.4457
  188DMF     H4 2742  -0.019   0.264   3.994 -0.1774 -0.1437 -1.6326
  188DMF     H5 2743  -0.094   0.365   3.869  1.8411  2.3404 -2.8459
  188DMF     H6 2744  -0.010   0.431   4.021 -0.5042 -0.6752  0.3871
  188DMF     H7 2745   0.232   0.448   4.014 -0.5489  0.2990  0.4366
  189DMF     C1 2746   3.028   3.139   3.403 -0.1982 -0.1110 -0.1596
  189DMF     N1 2747   3.086   3.144   3.268  0.2433  0.0105 -0.2131
  189DMF     C2 2748   3.215   3.224   3.245  0.1787  0.6740  0.1130
  189DMF     C3 2749   3.023   3.086   3.163  0.0502  0.5393  0.1131
  189DMF     O1 2750   2.903   3.051   3.158  0.3368  0.1969  0.3405
  189DMF     H1 2751   2.975   3.046   3.424 -1.9361  0.8756 -0.1023
  189DMF     H2 2752   2.958   3.221   3.423  1.4336  1.1277  0.6189
  189DMF     H3 2753   3.115   3.148   3.469  0.2401  1.2254 -0.9027
  189DMF     H4 2754   3.301   3.169   3.288  0.2592  1.1186  0.5188
  189DMF     H5 2755   3.214   3.322   3.294 -2.1799  0.3353  0.7767
  189DMF     H6 2756   3.240   3.238   3.139 -2.4901 -0.6998 -0.7396
  189DMF     H7 2757   3.084   3.081   3.071  1.1230  1.4846  0.7489
  190DMF     C1 2758   0.158  -0.011   3.300  0.1979 -0.7775  0.4564
  190DMF     N1 2759   0.185  -0.090   3.414  0.0906 -0.3923  0.1227
  190DMF     C2 2760   0.141  -0.038   3.551 -0.1771  0.3516 -0.3340
  190DMF     C3 2761   0.256  -0.210   3.407 -0.3604  0.3503 -0.0602
  190DMF     O1 2762   0.291  -0.254   3.303  0.0382 -0.0136  0.6955
  190DMF     H1 2763   0.050   0.006   3.309  0.0988 -0.1234 -1.6836
  190DMF     H2 2764   0.192  -0.051   3.203  0.5188 -1.4639  0.8491
  190DMF     H3 2765   0.206   0.086   3.318 -0.4478 -0.3160 -0.2311
  190DMF     H4 2766   0.126  -0.129   3.611 -2.2026  0.7421 -0.2108
  190DMF     H5 2767   0.055   0.030   3.540  0.4997  1.4031  0.7877
  190DMF     H6 2768   0.219   0.022   3.599 -0.4511  1.3147 -1.0609
  190DMF     H7 2769   0.248  -0.263   3.504  1.0805 -0.6227 -0.4617
  191DMF     C1 2770   0.919   0.052   2.240 -0.1124  0.0759  0.0278
  191DMF     N1 2771   0.777   0.056   2.229  0.4406 -0.5291 -0.1230
  191DMF     C2 2772   0.711  -0.078   2.233  0.4365  0.3470  0.7455
  191DMF     C3 2773   0.691   0.170   2.228 -0.5463 -0.3095  0.0765
  191DMF     O1 2774   0.741   0.283   2.244  0.0041 -0.3969  0.2081
  191DMF     H1 2775   0.958   0.040   2.342  1.7570  1.3805 -0.4999
  191DMF     H2 2776   0.962   0.143   2.197  1.5196  0.6802  2.8377
  191DMF     H3 2777   0.956  -0.033   2.179 -2.6944 -1.0598 -0.0001
  191DMF     H4 2778   0.716  -0.124   2.333  1.0857 -1.3760 -0.0647
  191DMF     H5 2779   0.764  -0.144   2.164  0.4069  0.0477  1.0089
  191DMF     H6 2780   0.605  -0.082   2.205  0.8540 -1.4968 -0.6420
  191DMF     H7 2781   0.585   0.146   2.211 -0.4984  0.5268 -1.5356
  192DMF     C1 2782   0.972   3.042   0.534  0.9708 -1.0135 -0.1012
  192DMF     N1 2783   0.916   2.932   0.614  0.0764  0.1015  0.2927
  192DMF     C2 2784   0.777   2.892   0.588 -0.3465 -0.2345 -0.3727
  192DMF     C3 2785   0.998   2.876   0.710  0.1513 -0.1092  0.0064
  192DMF     O1 2786   1.092   2.932   0.758 -0.0658 -0.3269 -0.0890
  192DMF     H1 2787   0.924   3.052   0.436  0.9480  0.3287  0.0310
  192DMF     H2 2788   1.072   3.008   0.504  1.4195 -0.3042  0.5383
  192DMF     H3 2789   0.973   3.140   0.585 -1.1990 -1.2518  0.4471
  192DMF     H4 2790   0.729   2.989   0.570  0.2366  0.0002 -0.6831
  192DMF     H5 2791   0.728   2.833   0.666  1.8898 -0.9626  0.4845
  192DMF     H6 2792   0.762   2.850   0.487 -1.2621  0.2722 -0.4581
  192DMF     H7 2793   0.962   2.780   0.751  3.1100 -1.2744  0.0565
  193DMF     C1 2794   0.897   2.639   2.262  0.0884  0.1902  0.3670
  193DMF     N1 2795   0.778   2.728   2.261  0.0114 -0.2194 -0.3204
  193DMF     C2 2796   0.808   2.872   2.243 -0.4501 -0.0759  0.3351
  193DMF     C3 2797   0.646   2.678   2.265 -0.1442 -0.2427 -0.4721
  193DMF     O1 2798   0.620   2.569   2.310 -0.6211 -0.1161 -0.0676
  193DMF     H1 2799   0.971   2.670   2.187 -1.6783 -0.8910 -1.8666
  193DMF     H2 2800   0.859   2.540   2.236  1.4924 -0.1522 -0.4307
  193DMF     H3 2801   0.939   2.627   2.363 -1.8996 -0.8030  1.0972
  193DMF     H4 2802   0.825   2.921   2.339 -1.4834  1.1346 -0.0904
  193DMF     H5 2803   0.723   2.922   2.196 -0.5369  0.7673  1.3900
  193DMF     H6 2804   0.899   2.879   2.181  0.4934 -0.9145  1.5932
  193DMF     H7 2805   0.570   2.741   2.215  1.1931  1.7168 -0.0475
  194DMF     C1 2806   1.936   2.218   0.085 -0.6469  0.2765  0.0324
  194DMF     N1 2807   2.033   2.223   0.194  0.0527  0.1206  0.4961
  194DMF     C2 2808   2.136   2.328   0.187 -0.5953  0.2285 -0.3633
  194DMF     C3 2809   2.009   2.156   0.314  0.5743  0.0253  0.4591
  194DMF     O1 2810   1.907   2.087   0.319 -0.0841 -0.1051 -0.4333
  194DMF     H1 2811   1.859   2.289   0.116 -0.6062 -0.7973  2.6875
  194DMF     H2 2812   1.899   2.115   0.075  0.8086  0.0182 -3.6140
  194DMF     H3 2813   1.978   2.232  -0.015 -1.8696 -0.0419 -0.5382
  194DMF     H4 2814   2.128   2.391   0.098 -0.9737  0.0475 -0.4587
  194DMF     H5 2815   2.237   2.285   0.179 -1.6332 -2.0529 -2.0046
  194DMF     H6 2816   2.134   2.380   0.283 -1.0297  0.5907 -0.5675
  194DMF     H7 2817   2.068   2.196   0.398 -0.5807  2.1478  0.3013
  195DMF     C1 2818   2.037   3.065   2.853 -0.7163  0.2228 -0.3288
  195DMF     N1 2819   1.959   2.976   2.942 -0.4166  0.4963 -0.5669
  195DMF     C2 2820   2.003   2.958   3.086  0.4953  0.7569 -0.3428
  195DMF     C3 2821   1.851   2.900   2.892  0.3866 -0.5111  0.6286
  195DMF     O1 2822   1.800   2.915   2.780  0.3142 -0.5013 -0.0695
  195DMF     H1 2823   1.993   3.165   2.869 -1.0054  0.2791 -1.4153
  195DMF     H2 2824   2.037   3.033   2.748 -0.5854  0.6787 -0.4689
  195DMF     H3 2825   2.140   3.068   2.890 -0.5306  3.9029 -0.9663
  195DMF     H4 2826   2.080   2.882   3.104 -0.0087  0.3460  0.0768
  195DMF     H5 2827   1.915   2.944   3.150 -0.7998  1.3968 -1.9634
  195DMF     H6 2828   2.056   3.051   3.112  2.2908 -0.3317  0.0194
  195DMF     H7 2829   1.813   2.822   2.961 -3.2661  1.0027  0.4714
  196DMF     C1 2830   1.222   1.541   0.514  0.2414 -0.2002  0.5604
  196DMF     N1 2831   1.350   1.583   0.451 -0.3382  0.4101 -0.5764
  196DMF     C2 2832   1.351   1.599   0.304 -0.0407  0.4099 -0.5148
  196DMF     C3 2833   1.463   1.604   0.531 -0.3370  0.1345 -0.4825
  196DMF     O1 2834   1.461   1.591   0.654 -0.0037 -0.3965  0.0108
  196DMF     H1 2835   1.139   1.548   0.442  0.3169 -0.9711  0.3973
  196DMF     H2 2836   1.197   1.603   0.601  0.7381 -0.1448  0.6670
  196DMF     H3 2837   1.219   1.436   0.544 -1.3054 -0.2571  0.2337
  196DMF     H4 2838   1.273   1.664   0.262 -1.4990 -0.6781  0.4803
  196DMF     H5 2839   1.345   1.503   0.250  1.7645  0.9275 -1.6942
  196DMF     H6 2840   1.453   1.634   0.284  0.3962  0.0407  1.0241
  196DMF     H7 2841   1.556   1.610   0.472  0.2079  0.1270  0.3745
  197DMF     C1 2842   2.660   0.798   3.013  0.4584  0.1448  0.1312
  197DMF     N1 2843   2.642   0.779   3.157  0.3283  0.0253  0.0258
  197DMF     C2 2844   2.505   0.778   3.214 -0.2079 -0.3245  0.2242
  197DMF     C3 2845   2.754   0.763   3.240 -0.9910 -0.1775 -0.0253
  197DMF     O1 2846   2.868   0.743   3.198  0.0620 -0.0441 -0.3371
  197DMF     H1 2847   2.570   0.762   2.962  0.8153 -0.3585 -0.1402
  197DMF     H2 2848   2.740   0.729   2.984  1.0415  1.1923 -0.7955
  197DMF     H3 2849   2.686   0.900   2.980  0.0041  0.0713 -0.4577
  197DMF     H4 2850   2.487   0.880   3.251  0.3863 -0.0908 -0.1389
  197DMF     H5 2851   2.489   0.707   3.297 -3.1849  1.3190  1.1274
  197DMF     H6 2852   2.426   0.757   3.141  1.0916  1.3503 -1.6952
  197DMF     H7 2853   2.722   0.765   3.346 -1.3619  1.8140 -0.1688
  198DMF     C1 2854   3.085   1.641   2.315  0.1347 -0.1303  0.0990
  198DMF     N1 2855   2.959   1.691   2.259 -0.4515 -0.0972 -0.5347
  198DMF     C2 2856   2.941   1.833   2.278  0.0767  0.3288 -0.1529
  198DMF     C3 2857   2.842   1.602   2.244  1.0278 -0.5726  0.0555
  198DMF     O1 2858   2.839   1.482   2.275 -0.1423  0.3411 -0.7110
  198DMF     H1 2859   3.105   1.538   2.283 -1.3997 -0.4547  0.1769
  198DMF     H2 2860   3.095   1.661   2.423 -1.1505  1.4807 -0.0565
  198DMF     H3 2861   3.160   1.701   2.261 -0.6671 -0.5995 -1.5580
  198DMF     H4 2862   2.952   1.883   2.180  1.7999 -1.1115 -0.7150
  198DMF     H5 2863   3.016   1.878   2.344 -0.1191  3.0331 -1.6871
  198DMF     H6 2864   2.840   1.855   2.314 -0.4892 -0.7723 -1.0409
  198DMF     H7 2865   2.753   1.663   2.223 -0.7861 -3.6480 -1.5082
  199DMF     C1 2866   2.181   3.086   2.292 -0.3648  0.2462 -0.1646
  199DMF     N1 2867   2.050   3.163   2.268 -0.0366  0.0908  0.0028
  199DMF     C2 2868   1.931   3.082   2.242  0.1099 -0.1209  0.2741
  199DMF     C3 2869   2.051   3.304   2.248 -0.2452 -0.4490 -0.0965
  199DMF     O1 2870   2.153   3.374   2.247 -0.3838  0.2750  0.3901
  199DMF     H1 2871   2.263   3.156   2.311 -1.7122  1.2068  2.3516
  199DMF     H2 2872   2.220   3.037   2.201  3.0867  4.5903 -1.2084
  199DMF     H3 2873   2.174   3.004   2.364  3.3706  0.1939  0.2270
  199DMF     H4 2874   1.868   3.092   2.331 -0.1484 -0.0235  0.0794
  199DMF     H5 2875   1.964   2.981   2.215 -0.9639  0.0195 -1.6512
  199DMF     H6 2876   1.859   3.118   2.168 -0.0538  0.3596  0.6642
  199DMF     H7 2877   1.948   3.342   2.233 -1.1114 -2.8263 -0.3028
  200DMF     C1 2878   2.055   3.078   0.094  0.1251  0.1179  0.2413
  200DMF     N1 2879   2.113   3.213   0.098 -0.6036 -0.1183  0.4086
  200DMF     C2 2880   2.040   3.325   0.028  0.3939 -0.2830 -0.2651
  200DMF     C3 2881   2.251   3.233   0.110 -0.5882  0.1569 -0.0558
  200DMF     O1 2882   2.323   3.145   0.149  0.3929 -0.4573  0.2852
  200DMF     H1 2883   1.951   3.087   0.061  0.5941 -0.8728 -1.5500
  200DMF     H2 2884   2.052   3.046   0.199 -2.5130 -1.0788 -0.1786
  200DMF     H3 2885   2.114   3.010   0.031 -0.0907  1.0382 -0.9585
  200DMF     H4 2886   2.058   3.415   0.089  0.3591 -1.4081  1.4332
  200DMF     H5 2887   1.932   3.305   0.026  0.6076 -1.9423  2.0672
  200DMF     H6 2888   2.079   3.342  -0.073 -1.8223 -0.9900 -1.2654
  200DMF     H7 2889   2.281   3.336   0.084  0.2981 -0.6722 -2.3547
  201DMF     C1 2890   2.621   0.196   3.475 -0.0307  0.3000 -0.6148
  201DMF     N1 2891   2.658   0.248   3.603  0.2909 -0.4698 -0.7322
  201DMF     C2 2892   2.556   0.248   3.713  0.1798 -0.2133  0.1418
  201DMF     C3 2893   2.792   0.299   3.632  0.4722 -0.0105 -0.0451
  201DMF     O1 2894   2.876   0.289   3.548  0.2849  1.0779 -0.3256
  201DMF     H1 2895   2.704   0.143   3.427  1.6814  0.0048  2.5356
  201DMF     H2 2896   2.602   0.280   3.407 -1.5435 -1.3279 -2.2522
  201DMF     H3 2897   2.535   0.128   3.477 -1.6334  2.2808  2.4296
  201DMF     H4 2898   2.469   0.304   3.676  0.0776 -1.4879 -1.6105
  201DMF     H5 2899   2.589   0.284   3.811  1.7774 -2.3498  0.4371
  201DMF     H6 2900   2.504   0.152   3.729 -0.1091  0.0236  0.6241
  201DMF     H7 2901   2.814   0.323   3.737 -3.2663 -0.1053  0.8326
  202DMF     C1 2902   3.207   1.219   0.520 -0.0681  0.8702 -0.0749
  202DMF     N1 2903   3.215   1.091   0.598 -0.1367  0.3894  0.3736
  202DMF     C2 2904   3.283   0.978   0.538 -0.1258 -0.4929 -0.6926
  202DMF     C3 2905   3.140   1.069   0.719  0.1778 -0.1158 -0.2622
  202DMF     O1 2906   3.066   1.153   0.766  0.6695 -0.6422  0.5014
  202DMF     H1 2907   3.203   1.297   0.598  1.1757  1.8182 -0.9407
  202DMF     H2 2908   3.114   1.223   0.461  0.4290  1.4687 -0.8167
  202DMF     H3 2909   3.301   1.236   0.466 -0.8337  0.2407 -1.6353
  202DMF     H4 2910   3.391   0.987   0.554  0.0283 -2.8917 -0.3147
  202DMF     H5 2911   3.263   0.968   0.430 -2.2638  0.0505 -0.3678
  202DMF     H6 2912   3.256   0.887   0.593 -1.7961  1.1416  1.2772
  202DMF     H7 2913   3.148   0.971   0.770  1.5056  0.2850  0.3133
  203DMF     C1 2914   2.694   3.350   3.233  0.3077 -0.4088 -0.0803
  203DMF     N1 2915   2.715   3.422   3.102 -0.2914 -0.5107 -0.4585
  203DMF     C2 2916   2.818   3.368   3.014  0.4890 -0.6996  0.1112
  203DMF     C3 2917   2.651   3.535   3.074  0.1511 -0.1322  0.2519
  203DMF     O1 2918   2.567   3.585   3.141 -0.2438  0.4938 -0.5256
  203DMF     H1 2919   2.631   3.260   3.230  1.7506 -1.4186 -0.6415
  203DMF     H2 2920   2.644   3.413   3.307 -2.2920 -1.8971 -0.5255
  203DMF     H3 2921   2.786   3.327   3.288  0.6272 -0.5775 -0.6809
  203DMF     H4 2922   2.781   3.377   2.911 -0.5819  1.4124  0.6466
  203DMF     H5 2923   2.843   3.265   3.041 -0.3278 -1.6512 -2.6440
  203DMF     H6 2924   2.905   3.435   3.018  0.6583 -0.7617 -2.1466
  203DMF     H7 2925   2.688   3.584   2.982  0.3236  0.6651  0.7325
  204DMF     C1 2926   0.894   3.277   3.637 -0.0826 -0.4466  0.3390
  204DMF     N1 2927   0.924   3.399   3.565  0.8434 -0.2276  0.4938
  204DMF     C2 2928   1.059   3.438   3.551 -0.0833 -0.1541  0.0754
  204DMF     C3 2929   0.816   3.468   3.506  0.4095 -0.4500  0.0635
  204DMF     O1 2930   0.699   3.457   3.549 -0.1876 -0.7667 -0.2291
  204DMF     H1 2931   0.807   3.286   3.703  0.8055  0.1353  1.4332
  204DMF     H2 2932   0.986   3.246   3.689  0.3174 -0.3895 -0.3322
  204DMF     H3 2933   0.862   3.203   3.562  1.1524  0.4819 -1.1203
  204DMF     H4 2934   1.111   3.459   3.645 -0.8133 -1.6669  0.8462
  204DMF     H5 2935   1.071   3.524   3.484 -0.5756  1.2786  1.7943
  204DMF     H6 2936   1.115   3.359   3.500  2.5675  0.0032  2.6230
  204DMF     H7 2937   0.845   3.550   3.439  1.2987 -0.9165 -0.1382
  205DMF     C1 2938   0.478   0.604   2.985  0.4856 -0.3490  0.2724
  205DMF     N1 2939   0.405   0.705   2.904 -0.0076 -0.4184  0.3650
  205DMF     C2 2940   0.477   0.816   2.845 -0.6374  0.5007 -0.0354
  205DMF     C3 2941   0.270   0.687   2.866 -0.1739 -0.5980  0.4848
  205DMF     O1 2942   0.197   0.589   2.896  0.0737  0.5555 -0.1142
  205DMF     H1 2943   0.446   0.507   2.944 -0.4916  0.6347 -1.3600
  205DMF     H2 2944   0.438   0.627   3.084 -1.1198 -0.6739 -0.2860
  205DMF     H3 2945   0.588   0.605   2.988  0.5533  0.2590 -1.4588
  205DMF     H4 2946   0.462   0.818   2.737  0.0864  0.0012 -0.1442
  205DMF     H5 2947   0.586   0.816   2.858 -0.7402  3.4076  1.1922
  205DMF     H6 2948   0.442   0.911   2.888  0.0288  0.6614  0.1599
  205DMF     H7 2949   0.227   0.761   2.796 -1.5368 -1.1747  0.7028
  206DMF     C1 2950   1.659   2.824   3.535 -0.5210  0.5570 -0.3638
  206DMF     N1 2951   1.697   2.823   3.679 -0.3916  0.3106  0.0433
  206DMF     C2 2952   1.788   2.928   3.720  0.1738 -0.3970  0.3572
  206DMF     C3 2953   1.635   2.735   3.763  0.5905 -0.0026 -0.2614
  206DMF     O1 2954   1.540   2.659   3.736 -0.5311  0.0343  0.6555
  206DMF     H1 2955   1.747   2.852   3.476  0.2402 -0.0135  0.4812
  206DMF     H2 2956   1.584   2.903   3.521 -0.1797  0.9877  0.1729
  206DMF     H3 2957   1.635   2.721   3.507  1.7568  0.4103 -1.8947
  206DMF     H4 2958   1.742   3.025   3.740 -1.6497 -0.9706 -0.9684
  206DMF     H5 2959   1.876   2.937   3.655 -1.3303  1.3988 -1.4719
  206DMF     H6 2960   1.822   2.905   3.822 -0.2057 -1.3153  0.2821
  206DMF     H7 2961   1.681   2.730   3.863 -1.0782 -0.4261  0.5067
  207DMF     C1 2962   0.476   3.094   2.584  0.0688 -0.1633 -0.1247
  207DMF     N1 2963   0.421   2.957   2.555 -0.3684  0.2935  0.4962
  207DMF     C2 2964   0.519   2.869   2.500  0.0281 -0.1936  0.8877
  207DMF     C3 2965   0.293   2.914   2.599 -0.0619  0.6057  0.4824
  207DMF     O1 2966   0.203   2.986   2.629 -0.2360 -0.4576 -0.4681
  207DMF     H1 2967   0.446   3.163   2.504  2.3485  1.9068  0.7419
  207DMF     H2 2968   0.584   3.110   2.598  0.3819 -0.7690 -1.7539
  207DMF     H3 2969   0.424   3.133   2.672  1.6608 -0.3296  0.9204
  207DMF     H4 2970   0.595   2.849   2.577  1.2832  0.0844 -0.2395
  207DMF     H5 2971   0.557   2.915   2.408 -0.3293 -0.8597  0.4071
  207DMF     H6 2972   0.463   2.782   2.465 -1.4099  1.5789 -1.3749
  207DMF     H7 2973   0.289   2.804   2.597  2.0010  0.5136 -0.8245
  208DMF     C1 2974   0.496   2.216   0.326 -0.3359 -0.6320  0.2112
  208DMF     N1 2975   0.636   2.260   0.357  0.0099  0.4135  0.3152
  208DMF     C2 2976   0.695   2.372   0.273  0.3282  0.3523 -0.6158
  208DMF     C3 2977   0.708   2.211   0.462  0.0029 -0.0811 -0.4630
  208DMF     O1 2978   0.663   2.140   0.552  0.1925 -0.8411 -0.2060
  208DMF     H1 2979   0.421   2.258   0.394 -0.5142 -1.3079  0.4309
  208DMF     H2 2980   0.486   2.107   0.326  0.8286 -0.7591  1.6088
  208DMF     H3 2981   0.466   2.252   0.227  0.7079  0.3651  0.2449
  208DMF     H4 2982   0.791   2.410   0.312 -0.5294  0.0197  1.9152
  208DMF     H5 2983   0.628   2.458   0.266  2.3678  2.1448  1.1805
  208DMF     H6 2984   0.713   2.337   0.170  0.7270  1.8298 -1.0605
  208DMF     H7 2985   0.814   2.243   0.464 -0.1406  0.4262 -0.9892
  209DMF     C1 2986   1.719   2.358   2.809 -0.2722 -0.1654 -0.5853
  209DMF     N1 2987   1.703   2.364   2.666 -0.7304 -0.6562  0.6296
  209DMF     C2 2988   1.701   2.499   2.607 -0.1699 -0.3698 -0.3051
  209DMF     C3 2989   1.660   2.260   2.585 -0.2996  0.4447 -0.4302
  209DMF     O1 2990   1.660   2.142   2.624  0.6842  0.2238 -0.4868
  209DMF     H1 2991   1.793   2.285   2.842  1.5150  1.8653  0.0326
  209DMF     H2 2992   1.622   2.364   2.861  0.3842 -0.7860  0.7428
  209DMF     H3 2993   1.751   2.456   2.847  1.7227 -1.1564  0.3341
  209DMF     H4 2994   1.616   2.555   2.647 -0.1784 -0.0330 -0.7909
  209DMF     H5 2995   1.690   2.487   2.499  0.1647 -0.0257 -0.3780
  209DMF     H6 2996   1.798   2.548   2.620  0.6103 -1.7337 -0.9039
  209DMF     H7 2997   1.632   2.279   2.479  0.6193 -0.3894 -0.8252
  210DMF     C1 2998   3.019   0.077   3.325  0.0247  0.2702 -0.5414
  210DMF     N1 2999   3.152   0.141   3.301  0.3262 -0.8037 -0.1658
  210DMF     C2 3000   3.216   0.220   3.415 -0.5106  0.4853 -0.3291
  210DMF     C3 3001   3.223   0.122   3.185 -0.5540 -0.5325 -0.3342
  210DMF     O1 3002   3.176   0.070   3.080  0.0462  0.7233  0.1875
  210DMF     H1 3003   3.031   0.020   3.418 -0.1788 -0.4722 -0.9659
  210DMF     H2 3004   2.998   0.009   3.241  1.5246  1.0001 -1.5324
  210DMF     H3 3005   2.941   0.148   3.353 -1.1265 -1.2820  0.2463
  210DMF     H4 3006   3.245   0.322   3.388  0.0313  0.8365  1.5274
  210DMF     H5 3007   3.317   0.186   3.443  0.7644  0.3278 -4.7698
  210DMF     H6 3008   3.140   0.235   3.493  0.0260 -1.0700  0.5225
  210DMF     H7 3009   3.323   0.168   3.188 -1.0806  0.5734  0.3168
  211DMF     C1 3010   0.068   1.489   2.753 -0.0163  0.3947  0.0498
  211DMF     N1 3011  -0.021   1.589   2.801 -0.0105  0.1851  0.0852
  211DMF     C2 3012  -0.027   1.621   2.943  0.0342  0.0617  0.2800
  211DMF     C3 3013  -0.098   1.674   2.716  0.5391  0.0600  0.7418
  211DMF     O1 3014  -0.105   1.661   2.595  0.1142 -0.6672 -0.2121
  211DMF     H1 3015   0.028   1.406   2.693 -0.3491  0.9878 -0.5480
  211DMF     H2 3016   0.108   1.445   2.845 -2.8845 -3.1824 -0.2884
  211DMF     H3 3017   0.153   1.527   2.695 -0.2006  2.0161  0.8266
  211DMF     H4 3018   0.045   1.697   2.975 -1.1786  1.0310  0.7864
  211DMF     H5 3019  -0.015   1.530   3.003  0.1666  0.0706  0.2673
  211DMF     H6 3020  -0.124   1.669   2.965  1.3695  2.7574  0.4985
  211DMF     H7 3021  -0.142   1.764   2.761  3.5430  1.5966  0.7291
  212DMF     C1 3022   1.029   2.363   2.713 -0.3072 -0.1826  0.3396
  212DMF     N1 3023   1.003   2.367   2.859  0.6249  0.3612  0.1893
  212DMF     C2 3024   1.015   2.499   2.922 -0.3366 -0.2705 -0.3180
  212DMF     C3 3025   0.968   2.256   2.929  0.3296 -0.5020 -0.1776
  212DMF     O1 3026   0.959   2.147   2.880  0.4476  0.3717 -0.2710
  212DMF     H1 3027   1.067   2.270   2.669  1.0308  0.5049  0.0253
  212DMF     H2 3028   1.122   2.419   2.700 -0.4019 -0.1813 -0.3283
  212DMF     H3 3029   0.956   2.414   2.650  1.2906  0.4112 -1.0527
  212DMF     H4 3030   0.922   2.557   2.930 -0.0431  0.2348 -0.5336
  212DMF     H5 3031   1.100   2.556   2.885 -0.4347 -0.3596 -0.6748
  212DMF     H6 3032   1.042   2.474   3.026  3.0960 -0.2126 -1.1419
  212DMF     H7 3033   0.952   2.264   3.039  0.2682 -2.4200 -0.0334
  213DMF     C1 3034   1.936   0.887   3.547 -0.7790  0.0943 -0.0476
  213DMF     N1 3035   2.014   0.806   3.452 -0.2100 -0.7061 -0.7224
  213DMF     C2 3036   2.021   0.834   3.315  0.2703 -0.5716  0.5016
  213DMF     C3 3037   2.061   0.680   3.495  0.0516  0.8021 -0.5608
  213DMF     O1 3038   2.027   0.635   3.602  0.3132 -0.5792  0.2088
  213DMF     H1 3039   1.995   0.905   3.638 -0.4311 -2.4187  0.2501
  213DMF     H2 3040   1.844   0.833   3.572 -0.4833  0.0403  0.9610
  213DMF     H3 3041   1.904   0.981   3.500 -1.0239 -0.5490 -1.1796
  213DMF     H4 3042   2.119   0.801   3.277  0.0291 -1.2767  0.4841
  213DMF     H5 3043   2.025   0.941   3.294  0.3765 -0.9979 -1.8254
  213DMF     H6 3044   1.947   0.777   3.257  0.1086 -0.9139  1.0421
  213DMF     H7 3045   2.116   0.625   3.416 -1.7277 -1.1302 -0.4812
  214DMF     C1 3046   1.464   1.038   0.410 -0.7218 -0.0739 -0.8287
  214DMF     N1 3047   1.565   1.148   0.441 -0.6118 -0.2047  0.0544
  214DMF     C2 3048   1.650   1.138   0.559  0.5286  0.4178  0.4598
  214DMF     C3 3049   1.565   1.269   0.372 -0.3248 -0.4723  0.0471
  214DMF     O1 3050   1.486   1.293   0.286  0.3749 -0.1094  0.3246
  214DMF     H1 3051   1.436   0.985   0.502  3.8367 -0.2888  0.5862
  214DMF     H2 3052   1.515   0.972   0.339 -1.4925  1.8434 -3.2337
  214DMF     H3 3053   1.382   1.078   0.350 -1.5835 -0.1095  0.3115
  214DMF     H4 3054   1.750   1.094   0.544  1.0360  1.7947 -0.3554
  214DMF     H5 3055   1.600   1.102   0.649  0.6527 -0.1384  0.3042
  214DMF     H6 3056   1.682   1.242   0.576  1.3259  0.1067  0.9014
  214DMF     H7 3057   1.647   1.333   0.408  0.7359 -1.7703 -0.0437
  215DMF     C1 3058   2.280   3.277   2.609  0.6714  0.1841 -0.1531
  215DMF     N1 3059   2.396   3.187   2.603 -0.2677 -0.1858  0.2127
  215DMF     C2 3060   2.533   3.247   2.607  0.6755  0.0150  1.1026
  215DMF     C3 3061   2.389   3.050   2.627  0.2487  0.5775  0.1594
  215DMF     O1 3062   2.281   2.990   2.650 -0.3038  0.1793  0.0307
  215DMF     H1 3063   2.200   3.223   2.557  1.8049  0.6417 -2.4688
  215DMF     H2 3064   2.317   3.361   2.548 -1.0106  0.0387 -1.4334
  215DMF     H3 3065   2.249   3.312   2.708  2.7120 -0.8241  0.8748
  215DMF     H4 3066   2.604   3.219   2.528  0.7178  0.4009  1.0039
  215DMF     H5 3067   2.589   3.219   2.697  1.5818 -0.9333  0.2546
  215DMF     H6 3068   2.539   3.354   2.582  0.5249 -0.5024 -1.2321
  215DMF     H7 3069   2.491   3.007   2.628 -0.6777 -1.6549  0.8913
  216DMF     C1 3070   1.247   3.104   0.125  0.2161  0.7159  0.0181
  216DMF     N1 3071   1.299   3.040   0.004  0.7319  0.5088  0.3098
  216DMF     C2 3072   1.444   3.035  -0.012  0.2949 -0.3629 -0.7010
  216DMF     C3 3073   1.214   2.964  -0.079  0.2404 -0.1218 -0.5167
  216DMF     O1 3074   1.092   2.959  -0.074 -0.2467 -0.3092  0.2031
  216DMF     H1 3075   1.148   3.147   0.104  0.2503  1.0767  0.5945
  216DMF     H2 3076   1.320   3.174   0.167  0.5933  0.4175 -0.1425
  216DMF     H3 3077   1.237   3.028   0.203 -0.7406 -0.1666 -0.9534
  216DMF     H4 3078   1.487   2.972   0.066 -0.1152 -0.3528 -0.4665
  216DMF     H5 3079   1.490   3.134  -0.001 -0.7036  0.1434 -1.0153
  216DMF     H6 3080   1.470   2.992  -0.110  0.8671 -1.3522 -0.1236
  216DMF     H7 3081   1.276   2.899  -0.143  1.6807 -0.2680  0.9633
  217DMF     C1 3082   0.431   1.639   2.256 -0.3430 -0.2535 -0.3767
  217DMF     N1 3083   0.470   1.700   2.385  1.2023 -0.2354  0.1491
  217DMF     C2 3084   0.545   1.621   2.485  0.5007  0.0588  0.2983
  217DMF     C3 3085   0.440   1.828   2.412 -0.0522 -0.4744  0.4082
  217DMF     O1 3086   0.379   1.897   2.331 -0.5255  0.2838 -0.3014
  217DMF     H1 3087   0.335   1.686   2.233  1.4487  4.0436  0.3546
  217DMF     H2 3088   0.402   1.535   2.276 -0.5074 -0.1542 -0.0820
  217DMF     H3 3089   0.515   1.651   2.187  0.9396  0.8091  1.3378
  217DMF     H4 3090   0.540   1.514   2.465 -1.6302 -0.4765  3.4587
  217DMF     H5 3091   0.519   1.654   2.586 -2.0911  0.3289 -0.4228
  217DMF     H6 3092   0.650   1.648   2.465  0.6372 -0.1340  0.7428
  217DMF     H7 3093   0.473   1.862   2.511  0.5899 -0.0183  0.0434
  218DMF     C1 3094   0.232   0.685   2.278  0.3688 -0.2452 -0.2822
  218DMF     N1 3095   0.122   0.747   2.357 -0.8117  0.3261 -0.2693
  218DMF     C2 3096   0.077   0.883   2.315  0.4249  0.2644  0.0850
  218DMF     C3 3097   0.068   0.691   2.470  0.2516 -0.0363  0.2815
  218DMF     O1 3098   0.082   0.578   2.512  0.5800 -0.0950 -0.2644
  218DMF     H1 3099   0.327   0.660   2.326 -1.1580 -1.8792  1.9784
  218DMF     H2 3100   0.257   0.757   2.199 -1.0141  0.3985 -0.1483
  218DMF     H3 3101   0.199   0.592   2.229 -0.3082 -0.0732 -0.1572
  218DMF     H4 3102   0.139   0.922   2.234 -1.4576  2.4151 -0.3709
  218DMF     H5 3103   0.074   0.943   2.407  2.5392 -2.1990  1.8302
  218DMF     H6 3104  -0.025   0.879   2.274 -0.5407  0.3924  2.4169
  218DMF     H7 3105   0.002   0.761   2.525 -0.3651  1.8040 -2.7268
  219DMF     C1 3106   2.865   0.097   1.221 -0.5296 -0.3025  0.9496
  219DMF     N1 3107   2.823   0.050   1.085  0.0511  0.4193 -0.4887
  219DMF     C2 3108   2.678   0.078   1.039  0.2258 -0.4232  0.1123
  219DMF     C3 3109   2.916  -0.009   0.998  0.4747  0.1553 -1.0620
  219DMF     O1 3110   3.034  -0.032   1.030  0.5197 -0.3746 -0.1321
  219DMF     H1 3111   2.910   0.195   1.202 -3.3822  0.2408 -4.0682
  219DMF     H2 3112   2.935   0.025   1.267 -1.2510  0.0009  2.5304
  219DMF     H3 3113   2.771   0.110   1.275 -0.0924 -1.5817  2.0491
  219DMF     H4 3114   2.680   0.144   0.951 -0.8277 -0.2701  0.1942
  219DMF     H5 3115   2.625   0.130   1.119 -0.6784 -2.2837  0.7687
  219DMF     H6 3116   2.628  -0.016   1.010  2.4175 -1.1574 -1.4313
  219DMF     H7 3117   2.880  -0.035   0.896  1.8181  0.0486 -1.5211
  220DMF     C1 3118   1.827   1.759   3.007  0.4477 -0.1774  0.3613
  220DMF     N1 3119   1.847   1.878   2.926  0.6016  0.4979  0.2655
  220DMF     C2 3120   1.956   1.966   2.979  1.0109  0.2160  0.7158
  220DMF     C3 3121   1.788   1.894   2.795 -0.4836  0.6613  0.0267
  220DMF     O1 3122   1.703   1.821   2.748 -0.0937 -0.1342 -0.3388
  220DMF     H1 3123   1.817   1.676   2.936 -1.0305 -0.4522  0.8691
  220DMF     H2 3124   1.734   1.781   3.061 -0.1917  1.1663 -1.2488
  220DMF     H3 3125   1.914   1.737   3.071  0.4963 -0.1300  0.3113
  220DMF     H4 3126   1.947   1.995   3.085  2.0715  1.2375  0.5434
  220DMF     H5 3127   1.936   2.057   2.921 -0.8054 -0.7705 -0.2499
  220DMF     H6 3128   2.054   1.930   2.947  0.5946 -0.3135  0.0314
  220DMF     H7 3129   1.828   1.981   2.739 -2.9691 -0.1675 -3.1753
  221DMF     C1 3130   1.088   1.986   3.422 -0.4962 -0.6650 -0.0947
  221DMF     N1 3131   1.161   2.110   3.420 -0.1660  0.4660 -0.5578
  221DMF     C2 3132   1.233   2.139   3.296  0.5341  0.3647 -0.1930
  221DMF     C3 3133   1.146   2.200   3.530 -0.3068 -0.7522  0.6322
  221DMF     O1 3134   1.063   2.181   3.616  0.2795  0.5971 -0.7580
  221DMF     H1 3135   0.995   2.004   3.476 -1.1742 -1.3592 -1.0227
  221DMF     H2 3136   1.143   1.903   3.467 -2.2759 -1.3604  0.8133
  221DMF     H3 3137   1.043   1.960   3.325  0.8126 -1.3985 -0.5170
  221DMF     H4 3138   1.170   2.175   3.213 -2.3312  1.9398  2.5596
  221DMF     H5 3139   1.285   2.048   3.262  1.7886  1.1863 -0.5215
  221DMF     H6 3140   1.310   2.215   3.314  0.6575  0.1889  0.0185
  221DMF     H7 3141   1.215   2.286   3.529  0.4480 -1.3528 -1.0775
  222DMF     C1 3142   3.068   2.309   3.367 -0.2318  0.4728 -1.5118
  222DMF     N1 3143   3.069   2.169   3.342  0.2535  0.7066 -0.7480
  222DMF     C2 3144   3.190   2.091   3.294 -0.2276 -0.6057 -0.5480
  222DMF     C3 3145   2.952   2.099   3.332  0.1249 -0.2903  0.1932
  222DMF     O1 3146   2.845   2.146   3.362 -1.0477  0.4706 -0.8046
  222DMF     H1 3147   2.979   2.357   3.323 -0.8713 -0.0966 -0.8693
  222DMF     H2 3148   3.160   2.356   3.333  1.2305 -2.3210 -1.6072
  222DMF     H3 3149   3.063   2.326   3.475 -1.3023 -2.5438 -1.0316
  222DMF     H4 3150   3.191   1.999   3.354 -2.0946 -0.2938  0.0208
  222DMF     H5 3151   3.277   2.150   3.325 -0.8236 -1.0007  1.9828
  222DMF     H6 3152   3.189   2.060   3.189 -0.3814 -2.0503 -0.1289
  222DMF     H7 3153   2.971   1.997   3.295 -1.1819 -0.2424 -0.6545
  223DMF     C1 3154   3.288   3.352   2.754 -0.6643  0.0814 -0.0119
  223DMF     N1 3155   3.387   3.344   2.643 -0.1002  0.5671  0.1304
  223DMF     C2 3156   3.476   3.459   2.621  0.2030 -0.5369  0.4238
  223DMF     C3 3157   3.404   3.233   2.556  0.0005 -0.4040 -0.2629
  223DMF     O1 3158   3.326   3.140   2.555  0.2671 -0.0956  0.0236
  223DMF     H1 3159   3.253   3.455   2.765  0.0067  0.4855 -1.5056
  223DMF     H2 3160   3.333   3.317   2.848 -0.1624 -1.0118 -0.6481
  223DMF     H3 3161   3.207   3.285   2.726 -0.8323  0.9971 -1.7608
  223DMF     H4 3162   3.486   3.486   2.515 -0.2162 -1.2051  0.2121
  223DMF     H5 3163   3.571   3.442   2.674  1.8464  2.5036 -1.3784
  223DMF     H6 3164   3.434   3.550   2.664  1.6724 -0.0945  0.9815
  223DMF     H7 3165   3.490   3.240   2.486 -1.0433 -2.0518 -1.7605
  224DMF     C1 3166   1.812   1.157   0.118  0.3311 -0.3743  0.2672
  224DMF     N1 3167   1.919   1.224   0.044  0.0563  0.2328  0.8685
  224DMF     C2 3168   1.913   1.371   0.032 -0.0243 -0.3758  0.7315
  224DMF     C3 3169   2.044   1.159   0.028 -0.4220 -0.3230 -0.5692
  224DMF     O1 3170   2.058   1.041   0.055 -0.2149  0.1651 -0.0960
  224DMF     H1 3171   1.718   1.213   0.112 -0.5964 -1.7250  1.6999
  224DMF     H2 3172   1.835   1.162   0.225  1.5753  0.0434 -0.0083
  224DMF     H3 3173   1.794   1.057   0.076  1.2458 -0.5744  0.3278
  224DMF     H4 3174   1.988   1.418   0.096  1.4353 -0.9107 -0.5429
  224DMF     H5 3175   1.813   1.410   0.055 -0.6284 -2.1563  1.1791
  224DMF     H6 3176   1.924   1.407  -0.071 -0.5760  0.5563  0.9980
  224DMF     H7 3177   2.131   1.215  -0.011 -1.6983  0.1451 -2.8357
  225DMF     C1 3178   0.674   3.003   3.539 -0.3241 -0.0639 -0.1294
  225DMF     N1 3179   0.627   2.924   3.424  0.0707  0.3557 -0.0737
  225DMF     C2 3180   0.507   2.833   3.438  0.0842 -0.1364 -0.4767
  225DMF     C3 3181   0.679   2.951   3.298 -0.0314  0.3124  0.8641
  225DMF     O1 3182   0.769   3.028   3.275  0.3195  0.0950 -0.0737
  225DMF     H1 3183   0.618   2.980   3.630  0.0921 -1.0970 -0.1323
  225DMF     H2 3184   0.653   3.109   3.517 -1.7609  0.0195  1.5237
  225DMF     H3 3185   0.779   2.980   3.561 -0.2439 -0.4353 -0.8926
  225DMF     H4 3186   0.420   2.894   3.465  0.9745  0.8256  0.2802
  225DMF     H5 3187   0.528   2.751   3.509 -2.9536  0.8354  1.6362
  225DMF     H6 3188   0.475   2.794   3.341 -0.0512  0.8602 -0.8313
  225DMF     H7 3189   0.613   2.905   3.223 -1.4511  2.3794  0.7826
  226DMF     C1 3190   2.628   0.592   3.748 -0.6391  0.3005 -0.1880
  226DMF     N1 3191   2.491   0.638   3.721  0.2588 -0.0959 -0.0181
  226DMF     C2 3192   2.482   0.726   3.608  0.3520  0.8512 -0.1777
  226DMF     C3 3193   2.378   0.592   3.796  0.2891  0.3273  0.4914
  226DMF     O1 3194   2.378   0.527   3.902 -0.2259 -0.3853 -0.2208
  226DMF     H1 3195   2.650   0.592   3.855 -0.5749 -0.3772 -0.2018
  226DMF     H2 3196   2.709   0.641   3.693 -1.6137  1.8024 -0.3347
  226DMF     H3 3197   2.646   0.488   3.717 -1.1082  0.1886 -0.0924
  226DMF     H4 3198   2.534   0.822   3.622 -3.0467  2.3326  3.2373
  226DMF     H5 3199   2.377   0.743   3.580  0.6103  0.9030 -1.1353
  226DMF     H6 3200   2.524   0.677   3.520  0.2038  1.1434 -0.4127
  226DMF     H7 3201   2.284   0.623   3.748 -1.7553 -0.7328  3.5987
  227DMF     C1 3202   0.997   3.397   2.807 -0.2853  0.3915 -0.1791
  227DMF     N1 3203   1.026   3.345   2.670  0.2213 -0.3472 -0.0541
  227DMF     C2 3204   1.133   3.399   2.584 -0.7055 -0.4260  0.4898
  227DMF     C3 3205   0.955   3.234   2.617  0.4575 -0.2742  0.2349
  227DMF     O1 3206   0.884   3.162   2.682  0.0706  0.4035 -0.4381
  227DMF     H1 3207   0.918   3.347   2.863 -0.0501  1.1764  0.8799
  227DMF     H2 3208   0.968   3.503   2.811  0.0087  0.4681 -0.0359
  227DMF     H3 3209   1.089   3.394   2.867  1.2997  1.5295 -2.4903
  227DMF     H4 3210   1.218   3.330   2.585  1.2700  1.9348  0.7613
  227DMF     H5 3211   1.174   3.494   2.619 -0.6800  0.4322 -1.7869
  227DMF     H6 3212   1.093   3.428   2.486  1.4520 -1.9949 -0.8998
  227DMF     H7 3213   0.978   3.204   2.512  0.7509  1.0145 -0.0697
  228DMF     C1 3214   0.303   2.584   0.077  0.1210 -0.0995 -0.3694
  228DMF     N1 3215   0.272   2.720   0.035  0.0529  0.0701 -0.2136
  228DMF     C2 3216   0.350   2.779  -0.076 -0.3348  0.3473  0.2910
  228DMF     C3 3217   0.172   2.797   0.099  0.0025 -0.0685  0.3801
  228DMF     O1 3218   0.113   2.770   0.197 -0.5507  0.0343  0.4462
  228DMF     H1 3219   0.257   2.500   0.025  1.7741 -0.9017 -0.5605
  228DMF     H2 3220   0.267   2.582   0.181 -1.4164  0.7922 -0.8705
  228DMF     H3 3221   0.412   2.575   0.068  0.1348  1.4102 -1.9700
  228DMF     H4 3222   0.288   2.843  -0.141 -0.2170  0.0282 -0.1403
  228DMF     H5 3223   0.377   2.698  -0.145  0.0937  1.1446 -0.4884
  228DMF     H6 3224   0.435   2.840  -0.042 -0.7689  2.1796 -1.7261
  228DMF     H7 3225   0.159   2.893   0.045  0.9085  0.1141  0.4927
  229DMF     C1 3226   2.285   2.218   3.220  0.1006 -0.3667  0.0419
  229DMF     N1 3227   2.428   2.242   3.237 -0.2364  0.2000  0.3242
  229DMF     C2 3228   2.470   2.382   3.259 -0.5670 -0.0886  0.2816
  229DMF     C3 3229   2.518   2.137   3.216  0.7107 -0.0539  0.6677
  229DMF     O1 3230   2.475   2.024   3.182 -0.2900  0.2862 -0.0603
  229DMF     H1 3231   2.248   2.142   3.289 -0.8552  0.1567  0.1004
  229DMF     H2 3232   2.250   2.198   3.118 -1.2787 -0.7408  0.5767
  229DMF     H3 3233   2.236   2.307   3.259 -0.5656 -1.2057  1.1503
  229DMF     H4 3234   2.437   2.428   3.353  0.9997  3.2468 -0.7254
  229DMF     H5 3235   2.424   2.447   3.183 -0.5590  0.6186  0.8818
  229DMF     H6 3236   2.577   2.392   3.242 -0.6006 -1.1909 -0.6017
  229DMF     H7 3237   2.625   2.159   3.236  1.4527 -0.4349 -2.6048
  230DMF     C1 3238   1.656   2.115   3.477 -0.4036  0.4389  0.4298
  230DMF     N1 3239   1.687   2.249   3.521 -0.3681 -0.0715 -0.3413
  230DMF     C2 3240   1.823   2.289   3.510 -0.2535 -0.1206 -0.3235
  230DMF     C3 3241   1.584   2.333   3.572 -0.2470 -0.2806 -0.3709
  230DMF     O1 3242   1.470   2.279   3.590 -0.1588  0.3901 -0.2425
  230DMF     H1 3243   1.671   2.101   3.370  1.5085 -1.8413  0.9649
  230DMF     H2 3244   1.550   2.092   3.496 -0.2341  1.2525  2.5503
  230DMF     H3 3245   1.734   2.055   3.526  0.4714  1.3638  0.1734
  230DMF     H4 3246   1.885   2.213   3.559 -0.3240  0.8673  1.3286
  230DMF     H5 3247   1.840   2.383   3.563  1.4347  0.0337 -1.1144
  230DMF     H6 3248   1.855   2.300   3.406  2.3386  0.5732  0.5191
  230DMF     H7 3249   1.624   2.426   3.617 -0.5287  0.3573 -1.4268
  231DMF     C1 3250   2.372   1.859   2.481  0.4937  0.2175  0.3797
  231DMF     N1 3251   2.354   1.900   2.346  0.2350  0.3055 -0.1189
  231DMF     C2 3252   2.224   1.964   2.313 -0.3251  0.0939 -0.1218
  231DMF     C3 3253   2.458   1.887   2.253  0.3120 -0.3889  1.3407
  231DMF     O1 3254   2.559   1.821   2.269  0.2081 -0.6828  0.1587
  231DMF     H1 3255   2.376   1.750   2.493 -0.3043 -0.1918 -2.6688
  231DMF     H2 3256   2.287   1.880   2.547  0.4410  1.2927 -0.0168
  231DMF     H3 3257   2.463   1.901   2.525  0.3632  0.7013  0.1959
  231DMF     H4 3258   2.233   2.070   2.286 -1.9241  0.1653 -0.4583
  231DMF     H5 3259   2.144   1.952   2.387 -1.2648 -0.3297 -1.1717
  231DMF     H6 3260   2.191   1.915   2.220 -0.5882  0.8995 -0.4567
  231DMF     H7 3261   2.433   1.934   2.156  1.2240 -1.8155  0.3928
  232DMF     C1 3262   3.134   0.409   2.470  0.5152 -0.7300  0.6212
  232DMF     N1 3263   3.070   0.456   2.348 -0.2584  0.2858 -0.2133
  232DMF     C2 3264   3.096   0.595   2.311 -0.1740 -0.6666  0.0775
  232DMF     C3 3265   3.012   0.367   2.250 -0.5717  0.4161 -0.0321
  232DMF     O1 3266   3.015   0.248   2.266  0.0019  0.2507  0.3564
  232DMF     H1 3267   3.204   0.332   2.436  1.6370  0.9308 -0.9665
  232DMF     H2 3268   3.065   0.357   2.537  1.2568  0.7743  2.5996
  232DMF     H3 3269   3.181   0.489   2.528  0.2386  0.5398 -0.8527
  232DMF     H4 3270   3.090   0.665   2.394  1.8513  1.2063 -1.3031
  232DMF     H5 3271   3.030   0.621   2.227 -0.3102 -0.2537  0.3138
  232DMF     H6 3272   3.200   0.594   2.274 -0.0232  0.6154  0.4473
  232DMF     H7 3273   2.970   0.422   2.164 -0.8052 -0.6141 -0.5753
  233DMF     C1 3274   0.818   2.670   3.571 -0.2715 -1.0229  0.1385
  233DMF     N1 3275   0.925   2.586   3.620  0.0726  0.4588 -0.5233
  233DMF     C2 3276   1.056   2.601   3.559  0.0551 -0.0718 -0.3131
  233DMF     C3 3277   0.912   2.511   3.740  0.1851 -0.6419  0.2853
  233DMF     O1 3278   0.824   2.533   3.822 -0.3834 -0.4057 -0.3541
  233DMF     H1 3279   0.720   2.628   3.594  1.4086 -4.2922  1.6203
  233DMF     H2 3280   0.843   2.703   3.469 -0.7532 -0.8692  0.0715
  233DMF     H3 3281   0.820   2.767   3.622 -1.2170 -0.1785 -1.3937
  233DMF     H4 3282   1.099   2.504   3.585  0.9120 -0.3720 -2.7563
  233DMF     H5 3283   1.111   2.677   3.616  1.3654 -1.4854  0.3440
  233DMF     H6 3284   1.049   2.623   3.452 -3.3417  2.3717  0.3349
  233DMF     H7 3285   0.995   2.440   3.758  1.9420  1.4334  0.5658
  234DMF     C1 3286   0.262   2.862   2.221  0.4595  0.3610 -0.4711
  234DMF     N1 3287   0.237   3.003   2.211  0.1084 -0.2147 -0.4765
  234DMF     C2 3288   0.103   3.052   2.236  0.0082  0.1812  0.3228
  234DMF     C3 3289   0.341   3.096   2.211  0.0502 -0.3774  0.3499
  234DMF     O1 3290   0.456   3.068   2.209 -0.1140 -0.6539  0.0042
  234DMF     H1 3291   0.166   2.818   2.190  0.0552  1.4516 -0.7941
  234DMF     H2 3292   0.291   2.840   2.324  0.8934  1.2220 -0.4039
  234DMF     H3 3293   0.340   2.830   2.151 -1.1738  0.0782 -2.2109
  234DMF     H4 3294   0.113   3.127   2.315 -0.9288  2.2917 -1.5041
  234DMF     H5 3295   0.027   2.974   2.254 -0.3577 -0.0856 -2.2829
  234DMF     H6 3296   0.061   3.105   2.150  0.5150 -2.3239 -1.5538
  234DMF     H7 3297   0.307   3.201   2.197 -0.1747 -0.6856 -1.5129
  235DMF     C1 3298   1.167   2.199   0.170 -0.3272 -0.7936 -0.0451
  235DMF     N1 3299   1.270   2.208   0.074  0.1808 -0.3181 -0.2885
  235DMF     C2 3300   1.343   2.338   0.060 -0.1677 -0.1627 -0.0375
  235DMF     C3 3301   1.321   2.092   0.009 -0.4617  0.0837 -0.2649
  235DMF     O1 3302   1.279   1.977   0.036  0.3648  0.3361  0.2279
  235DMF     H1 3303   1.070   2.222   0.125  0.7978  2.1249 -1.1370
  235DMF     H2 3304   1.185   2.277   0.244  0.9272 -0.0697 -1.0874
  235DMF     H3 3305   1.164   2.096   0.207  0.1500 -0.6159  0.5071
  235DMF     H4 3306   1.311   2.407   0.139 -0.2606 -0.2497  0.0009
  235DMF     H5 3307   1.316   2.383  -0.037  1.0437 -2.2898 -1.4013
  235DMF     H6 3308   1.452   2.326   0.067  0.0893  0.2865 -2.6607
  235DMF     H7 3309   1.407   2.114  -0.056 -0.4275  2.7299  0.5914
  236DMF     C1 3310   0.294   2.850   0.508  0.3079  0.0124 -0.0628
  236DMF     N1 3311   0.279   2.995   0.519 -0.4624  0.2434  0.6297
  236DMF     C2 3312   0.374   3.087   0.454 -0.4739  0.3836  0.3446
  236DMF     C3 3313   0.178   3.054   0.596 -0.0962 -0.0252 -0.6058
  236DMF     O1 3314   0.102   2.991   0.664 -0.1589 -0.6742  0.1657
  236DMF     H1 3315   0.363   2.817   0.585 -2.5819 -1.4749  1.9984
  236DMF     H2 3316   0.326   2.810   0.411  1.0005 -1.5225  0.7862
  236DMF     H3 3317   0.196   2.808   0.535 -0.1502  1.3148  0.3354
  236DMF     H4 3318   0.374   3.184   0.506  0.0853  0.9385 -0.6644
  236DMF     H5 3319   0.335   3.105   0.353 -1.6203 -0.3351  0.6509
  236DMF     H6 3320   0.474   3.042   0.454 -1.2499 -1.3603  0.7427
  236DMF     H7 3321   0.185   3.164   0.593 -1.5184  0.0830 -0.5121
  237DMF     C1 3322   1.572   1.948   0.494  0.4493 -0.4256 -0.4704
  237DMF     N1 3323   1.427   1.941   0.516  0.0054 -0.0159 -0.0335
  237DMF     C2 3324   1.339   1.942   0.399 -0.2878  0.5485 -0.3622
  237DMF     C3 3325   1.375   1.908   0.645  0.4436  0.1453 -0.5674
  237DMF     O1 3326   1.446   1.905   0.741  0.2531 -0.2783  0.3577
  237DMF     H1 3327   1.611   1.854   0.533 -1.4975 -0.7659  0.7579
  237DMF     H2 3328   1.615   2.024   0.561 -1.2471 -1.2556  1.6393
  237DMF     H3 3329   1.594   1.965   0.388 -0.9349 -0.5205 -0.7932
  237DMF     H4 3330   1.270   1.857   0.406 -0.9657  1.0992 -0.3079
  237DMF     H5 3331   1.395   1.931   0.305  0.4897  1.4077 -0.0072
  237DMF     H6 3332   1.280   2.035   0.403 -2.9734 -1.0561 -1.0743
  237DMF     H7 3333   1.267   1.881   0.644  1.1364 -2.7415 -0.0547
  238DMF     C1 3334   2.390   2.854   3.128 -0.0024  0.1646  0.7884
  238DMF     N1 3335   2.510   2.847   3.048 -0.2014  0.1635 -0.4309
  238DMF     C2 3336   2.522   2.925   2.930 -0.2534 -0.4560  0.0196
  238DMF     C3 3337   2.618   2.772   3.092 -0.0046  0.2535  0.6524
  238DMF     O1 3338   2.614   2.721   3.204 -0.1347 -0.5419 -0.1668
  238DMF     H1 3339   2.320   2.907   3.064  0.1513 -1.9509 -1.2109
  238DMF     H2 3340   2.415   2.907   3.221  0.5572 -0.8053  1.2084
  238DMF     H3 3341   2.361   2.752   3.157  1.0150 -0.8134 -1.5122
  238DMF     H4 3342   2.565   3.025   2.945  0.4741 -0.8236  0.3677
  238DMF     H5 3343   2.420   2.944   2.894 -1.1496 -3.0715  1.0472
  238DMF     H6 3344   2.581   2.882   2.848 -1.3581  0.0606 -1.0786
  238DMF     H7 3345   2.710   2.767   3.030 -1.0729 -0.2377 -0.9526
  239DMF     C1 3346   3.115   3.113   2.245  0.5914  0.5613  0.6289
  239DMF     N1 3347   3.106   3.263   2.233  0.6554 -0.3148  0.4447
  239DMF     C2 3348   3.232   3.342   2.235 -0.6853 -0.1498  0.1099
  239DMF     C3 3349   2.979   3.324   2.261 -0.6059  0.8925  0.3529
  239DMF     O1 3350   2.877   3.261   2.265  0.4432 -0.3854 -0.7544
  239DMF     H1 3351   3.021   3.064   2.217  1.4219 -0.9478  0.4467
  239DMF     H2 3352   3.137   3.088   2.350  0.3746  1.5788  0.9246
  239DMF     H3 3353   3.201   3.075   2.189  1.3810  2.1764  0.7163
  239DMF     H4 3354   3.312   3.289   2.182 -0.5801  0.3076 -0.1955
  239DMF     H5 3355   3.266   3.367   2.336 -0.9207 -3.2000  0.9793
  239DMF     H6 3356   3.225   3.439   2.184  0.4089 -0.2163 -0.1783
  239DMF     H7 3357   2.984   3.434   2.271 -0.7611  0.9636 -0.3394
  240DMF     C1 3358   3.373   0.355   2.732 -0.6392 -0.4371 -1.0586
  240DMF     N1 3359   3.288   0.343   2.854 -0.5127 -1.0448  0.1493
  240DMF     C2 3360   3.322   0.417   2.979 -0.0046  0.2730 -0.4949
  240DMF     C3 3361   3.163   0.278   2.840  0.0730 -0.0545  0.1088
  240DMF     O1 3362   3.117   0.225   2.741  0.4798 -0.0174 -0.1665
  240DMF     H1 3363   3.466   0.297   2.736 -0.8084 -0.6280  0.4551
  240DMF     H2 3364   3.417   0.455   2.722 -2.5237  0.6085  0.7709
  240DMF     H3 3365   3.332   0.322   2.636  0.7209 -2.7116 -0.8987
  240DMF     H4 3366   3.428   0.433   3.000  0.5732 -0.5620 -2.6729
  240DMF     H5 3367   3.290   0.359   3.066  2.1319 -3.3524 -2.0391
  240DMF     H6 3368   3.269   0.513   2.981 -0.1911  0.1494  0.9487
  240DMF     H7 3369   3.114   0.275   2.940  1.5741 -1.0439  0.8375
  241DMF     C1 3370   0.588   1.239   2.610  0.3453 -0.3276  0.0642
  241DMF     N1 3371   0.448   1.211   2.572 -0.7147  0.4175  0.5808
  241DMF     C2 3372   0.419   1.085   2.500 -0.0999  0.4431 -1.0427
  241DMF     C3 3373   0.351   1.303   2.602  0.4879 -0.0357  0.0424
  241DMF     O1 3374   0.375   1.421   2.638  0.2881  0.4028 -0.2472
  241DMF     H1 3375   0.602   1.342   2.647 -1.2327 -0.3465  0.7232
  241DMF     H2 3376   0.654   1.213   2.527 -1.1975  1.9342 -1.9342
  241DMF     H3 3377   0.605   1.172   2.695 -3.0720 -0.0193  1.0396
  241DMF     H4 3378   0.334   1.025   2.535 -0.5437  0.6605 -1.7390
  241DMF     H5 3379   0.504   1.016   2.507 -0.7786 -0.2037  1.0327
  241DMF     H6 3380   0.413   1.106   2.392 -0.5831 -1.6380 -1.4410
  241DMF     H7 3381   0.250   1.265   2.579  1.1599 -1.4304 -0.6450
  242DMF     C1 3382   0.714   1.487   3.497  0.1316  0.0194  0.1956
  242DMF     N1 3383   0.596   1.492   3.413  0.6187 -0.2100 -0.2945
  242DMF     C2 3384   0.462   1.534   3.467  1.2204 -0.4078 -0.0400
  242DMF     C3 3385   0.606   1.461   3.279  0.1724  0.1976  0.3500
  242DMF     O1 3386   0.711   1.424   3.229 -0.5236  0.3995  0.1524
  242DMF     H1 3387   0.784   1.407   3.472 -0.2111  0.1214 -1.1417
  242DMF     H2 3388   0.681   1.463   3.599  0.0421  1.6003  0.5592
  242DMF     H3 3389   0.765   1.584   3.507  0.2926 -0.1370  0.9081
  242DMF     H4 3390   0.472   1.628   3.521 -1.4564 -0.3873  0.4928
  242DMF     H5 3391   0.425   1.461   3.540 -1.1846  0.7653 -0.0369
  242DMF     H6 3392   0.390   1.548   3.385 -0.1013 -0.0224  1.1564
  242DMF     H7 3393   0.512   1.469   3.221  0.2612 -0.5801  0.0849
  243DMF     C1 3394   2.203   0.756   2.884  0.4169  0.1342  0.0876
  243DMF     N1 3395   2.278   0.628   2.899 -0.3689  0.4160 -0.0074
  243DMF     C2 3396   2.338   0.564   2.783  0.4103  0.2895  0.2309
  243DMF     C3 3397   2.288   0.565   3.027 -0.1134  0.7213 -0.2589
  243DMF     O1 3398   2.236   0.608   3.129  0.0867 -0.1379  0.5636
  243DMF     H1 3399   2.248   0.803   2.796  0.6382 -1.1436 -0.4889
  243DMF     H2 3400   2.209   0.811   2.978 -2.2361 -0.0303  0.4083
  243DMF     H3 3401   2.096   0.733   2.877  0.6230 -1.4780  1.6703
  243DMF     H4 3402   2.286   0.604   2.695 -0.4712  0.7388  0.9539
  243DMF     H5 3403   2.336   0.455   2.787 -0.1932  0.2173 -1.6676
  243DMF     H6 3404   2.441   0.604   2.786  0.8902 -0.9949  3.4919
  243DMF     H7 3405   2.354   0.477   3.027 -0.8087  0.1894 -0.8242
  244DMF     C1 3406   2.666   0.691   0.512 -0.0262 -0.6903 -0.5340
  244DMF     N1 3407   2.554   0.631   0.439 -0.6120 -0.4457  0.5163
  244DMF     C2 3408   2.410   0.670   0.469  0.4207 -0.2948  0.6012
  244DMF     C3 3409   2.577   0.528   0.346  0.0624  0.2016 -0.1327
  244DMF     O1 3410   2.685   0.483   0.324 -0.0846 -0.2280 -0.2125
  244DMF     H1 3411   2.633   0.795   0.525  3.0767  0.7700 -3.6071
  244DMF     H2 3412   2.754   0.686   0.447  0.5558 -0.0108  0.1961
  244DMF     H3 3413   2.677   0.646   0.612  0.9752 -1.9004 -1.1704
  244DMF     H4 3414   2.335   0.617   0.409  1.4982 -0.7898 -0.3237
  244DMF     H5 3415   2.393   0.777   0.449  0.7330 -0.6202 -1.4645
  244DMF     H6 3416   2.399   0.643   0.575 -0.6335 -0.4311  0.4656
  244DMF     H7 3417   2.487   0.473   0.311  0.2337  0.7039 -1.3855
  245DMF     C1 3418   3.358   2.924   3.529 -0.2314  0.5459  0.0227
  245DMF     N1 3419   3.296   3.006   3.626 -0.3044  0.0103 -0.1543
  245DMF     C2 3420   3.341   3.147   3.636 -0.0154 -0.5919  0.2963
  245DMF     C3 3421   3.196   2.955   3.712  0.2673  0.0108 -0.0854
  245DMF     O1 3422   3.148   2.847   3.692 -0.3245 -1.0485  0.2937
  245DMF     H1 3423   3.411   2.843   3.581 -2.1874 -0.5124  0.3995
  245DMF     H2 3424   3.435   2.972   3.468  0.0095 -0.5557 -0.5608
  245DMF     H3 3425   3.279   2.880   3.466  0.9179  0.0139 -1.0760
  245DMF     H4 3426   3.411   3.157   3.719  1.3506  0.1825 -0.9209
  245DMF     H5 3427   3.255   3.215   3.643  1.6514  1.6667 -0.5011
  245DMF     H6 3428   3.398   3.178   3.547 -0.2377  0.5135  0.5354
  245DMF     H7 3429   3.160   3.014   3.798 -0.2683 -4.0115  2.5834
  246DMF     C1 3430   3.167   1.721   0.324  0.3792 -0.3564  0.0545
  246DMF     N1 3431   3.165   1.614   0.437 -0.1944 -0.5662 -0.1218
  246DMF     C2 3432   3.264   1.621   0.546  0.5585 -0.0343 -0.6505
  246DMF     C3 3433   3.065   1.517   0.441 -0.6092  0.1963 -0.3816
  246DMF     O1 3434   2.980   1.510   0.350  0.0445 -0.1875  0.3269
  246DMF     H1 3435   3.088   1.702   0.251  1.0064  1.6232 -1.1603
  246DMF     H2 3436   3.269   1.717   0.283  0.4601 -0.5193  0.2680
  246DMF     H3 3437   3.148   1.819   0.370  1.5451 -1.0700  2.1218
  246DMF     H4 3438   3.335   1.700   0.521 -1.1643  1.9624  0.5223
  246DMF     H5 3439   3.307   1.520   0.550  2.0169  0.6536  3.0994
  246DMF     H6 3440   3.218   1.642   0.643  0.2095 -1.5583 -0.4677
  246DMF     H7 3441   3.064   1.459   0.536  0.3455 -0.1539 -0.5820
  247DMF     C1 3442   0.172   1.283   2.259  1.0403 -0.0882 -0.5135
  247DMF     N1 3443   0.082   1.390   2.315 -0.3689  0.0723  0.4183
  247DMF     C2 3444   0.092   1.526   2.259  0.1395  0.0026 -0.1233
  247DMF     C3 3445  -0.004   1.371   2.419 -0.3814 -0.7835 -0.7781
  247DMF     O1 3446  -0.018   1.257   2.469  0.0145  0.6093 -0.3865
  247DMF     H1 3447   0.250   1.315   2.189  0.2365 -0.1725 -1.4447
  247DMF     H2 3448   0.117   1.204   2.207  1.3392 -0.8949  0.3709
  247DMF     H3 3449   0.218   1.230   2.343 -1.4345 -0.4648  0.6544
  247DMF     H4 3450  -0.002   1.551   2.209  0.5941  0.9129 -0.5298
  247DMF     H5 3451   0.169   1.527   2.182  0.3776 -0.5647  0.1048
  247DMF     H6 3452   0.110   1.599   2.339  0.5588 -0.2646  0.0225
  247DMF     H7 3453  -0.056   1.463   2.452  0.9310 -0.5323  0.6119
  248DMF     C1 3454   0.750   2.507   3.234 -0.1654 -0.1970  0.0359
  248DMF     N1 3455   0.787   2.398   3.330  0.0959 -0.4253 -0.2032
  248DMF     C2 3456   0.680   2.353   3.417 -0.0645  0.0698 -0.0668
  248DMF     C3 3457   0.910   2.340   3.335 -0.3663  0.9901  0.0980
  248DMF     O1 3458   1.001   2.367   3.263 -0.0585  0.3158 -0.1674
  248DMF     H1 3459   0.823   2.588   3.249  0.4204 -1.1300  2.4749
  248DMF     H2 3460   0.652   2.554   3.250  0.4858  1.3773 -0.5305
  248DMF     H3 3461   0.743   2.462   3.134 -0.2149 -1.5098  0.6121
  248DMF     H4 3462   0.650   2.437   3.482 -3.0317 -0.1563 -1.1072
  248DMF     H5 3463   0.726   2.273   3.477  2.0792  0.5680 -0.9731
  248DMF     H6 3464   0.589   2.336   3.359  0.2395 -0.0212 -0.5194
  248DMF     H7 3465   0.921   2.272   3.421 -2.3401 -0.3989 -0.7213
  249DMF     C1 3466   3.015   2.456   2.837 -0.0914  0.4709  0.0007
  249DMF     N1 3467   3.045   2.575   2.922 -0.0305 -0.2244 -0.0676
  249DMF     C2 3468   2.940   2.616   3.025  0.1981  0.5051  0.0580
  249DMF     C3 3469   3.164   2.655   2.912  0.0563 -0.3781 -0.4986
  249DMF     O1 3470   3.254   2.618   2.834 -0.1536 -0.4987 -0.2253
  249DMF     H1 3471   3.095   2.451   2.762  0.0382  0.2267  0.1560
  249DMF     H2 3472   2.917   2.460   2.789 -0.3642  1.4318  0.6162
  249DMF     H3 3473   3.027   2.367   2.899  0.3700 -0.9805 -2.1101
  249DMF     H4 3474   2.983   2.687   3.096  0.9784 -0.6572  0.7585
  249DMF     H5 3475   2.892   2.530   3.073  0.9844 -1.5491 -2.7309
  249DMF     H6 3476   2.856   2.664   2.974 -1.7310 -1.0744  1.6783
  249DMF     H7 3477   3.174   2.740   2.982  1.3774 -0.0274 -1.1129
  250DMF     C1 3478   1.960   2.306   2.252  0.0738 -0.0399 -0.2361
  250DMF     N1 3479   1.947   2.197   2.350  0.0035  0.2173 -0.3298
  250DMF     C2 3480   1.888   2.069   2.309 -1.0392  0.4756  0.1528
  250DMF     C3 3481   1.984   2.215   2.482 -0.1523  0.3957 -0.1503
  250DMF     O1 3482   2.034   2.317   2.531 -0.3830 -0.4893 -0.3174
  250DMF     H1 3483   1.982   2.404   2.297  0.6943  0.4974 -1.6685
  250DMF     H2 3484   1.872   2.320   2.189 -0.3311  0.0254  0.3381
  250DMF     H3 3485   2.048   2.288   2.189 -0.3377 -0.4700 -0.6975
  250DMF     H4 3486   1.923   2.044   2.208 -0.0414  2.1821  0.0664
  250DMF     H5 3487   1.778   2.073   2.301 -1.0360  0.7764  0.2742
  250DMF     H6 3488   1.912   1.990   2.382 -0.1610  0.6829  0.0914
  250DMF     H7 3489   1.955   2.132   2.549  0.2600  1.8620  1.8766
  251DMF     C1 3490   0.031   0.232   2.315 -0.2806 -0.1387 -0.6986
  251DMF     N1 3491   0.178   0.201   2.313  0.0881  0.2393  0.2558
  251DMF     C2 3492   0.283   0.304   2.317 -0.3206  0.3152 -0.1362
  251DMF     C3 3493   0.220   0.074   2.285 -0.4452 -0.0839  0.6297
  251DMF     O1 3494   0.150  -0.017   2.247  0.6395 -0.0663 -0.3486
  251DMF     H1 3495  -0.012   0.191   2.407  0.5607 -0.2830 -0.3661
  251DMF     H2 3496  -0.027   0.201   2.226  0.2064 -0.9591 -0.7364
  251DMF     H3 3497   0.036   0.340   2.329  1.1306 -0.1079 -1.3137
  251DMF     H4 3498   0.305   0.330   2.212  1.3760 -1.1680 -0.1760
  251DMF     H5 3499   0.370   0.271   2.375 -1.0751  0.8471  1.3042
  251DMF     H6 3500   0.249   0.392   2.372  1.2653  0.6247  0.3752
  251DMF     H7 3501   0.328   0.052   2.295 -0.7735 -1.8735  0.4615
  252DMF     C1 3502   1.852   0.588   0.237  0.3594 -0.0290  0.2437
  252DMF     N1 3503   1.926   0.713   0.224 -0.4651 -0.3735 -0.2695
  252DMF     C2 3504   2.071   0.700   0.184  0.4115 -0.4464 -0.5591
  252DMF     C3 3505   1.871   0.841   0.243 -0.3219 -0.4221  0.1111
  252DMF     O1 3506   1.755   0.854   0.274  0.5065  0.3293  0.0879
  252DMF     H1 3507   1.801   0.577   0.140  2.3080  2.8553 -1.1748
  252DMF     H2 3508   1.788   0.588   0.326  1.3025 -1.9517  0.9615
  252DMF     H3 3509   1.917   0.499   0.243  1.4084  0.5772 -1.6862
  252DMF     H4 3510   2.091   0.766   0.099  3.9021 -2.9468 -1.7923
  252DMF     H5 3511   2.079   0.592   0.168  1.2767 -0.5736  0.6909
  252DMF     H6 3512   2.133   0.730   0.269  2.3850  0.1645 -2.1643
  252DMF     H7 3513   1.943   0.924   0.228 -0.2640  0.3515  4.0844
  253DMF     C1 3514   0.759   0.327   2.766  0.4350  0.0412  0.0902
  253DMF     N1 3515   0.883   0.317   2.684  0.2316 -0.3224 -0.7313
  253DMF     C2 3516   0.887   0.228   2.564  0.0478 -0.1929 -0.4402
  253DMF     C3 3517   0.997   0.404   2.715  0.5752 -0.7829  0.8207
  253DMF     O1 3518   1.004   0.480   2.814  0.2914  0.3736  0.2964
  253DMF     H1 3519   0.689   0.242   2.756  0.9945 -0.6815  2.0954
  253DMF     H2 3520   0.715   0.417   2.722  1.5396  0.7614  0.4471
  253DMF     H3 3521   0.791   0.327   2.871 -1.2306 -3.3891  0.6797
  253DMF     H4 3522   0.790   0.204   2.518  0.3760  0.6280 -1.5961
  253DMF     H5 3523   0.931   0.131   2.590 -1.8238 -1.4794 -1.8402
  253DMF     H6 3524   0.957   0.267   2.490 -0.4756  0.9240 -0.3588
  253DMF     H7 3525   1.075   0.400   2.637 -0.7757 -1.5361 -0.5347
  254DMF     C1 3526   0.600   1.966   0.925 -0.2368  0.2955 -0.1622
  254DMF     N1 3527   0.653   1.842   0.981 -0.0674  0.5520  0.3035
  254DMF     C2 3528   0.572   1.769   1.081  0.0107 -0.3040 -0.2834
  254DMF     C3 3529   0.790   1.814   0.972 -0.3635  0.0400  1.5974
  254DMF     O1 3530   0.860   1.875   0.896 -0.2544  0.2359 -0.1422
  254DMF     H1 3531   0.635   1.984   0.823  0.0321  1.7120  0.1722
  254DMF     H2 3532   0.633   2.058   0.975  1.9807  0.0011 -1.0551
  254DMF     H3 3533   0.490   1.955   0.924  0.1673 -4.9839 -0.1112
  254DMF     H4 3534   0.605   1.790   1.184 -1.2239  1.8774 -0.2982
  254DMF     H5 3535   0.574   1.659   1.084 -3.8090 -0.4367 -0.6263
  254DMF     H6 3536   0.470   1.806   1.068  0.0919 -0.9655 -3.1187
  254DMF     H7 3537   0.827   1.742   1.047 -1.3497 -1.9948  0.1709
  255DMF     C1 3538   1.118   0.569   3.693  0.1354 -0.4828 -0.1804
  255DMF     N1 3539   1.167   0.487   3.586 -0.5198  0.4076  1.0852
  255DMF     C2 3540   1.234   0.557   3.471  0.8273  0.9080 -0.1333
  255DMF     C3 3541   1.177   0.347   3.598  0.4250  0.6788  0.8836
  255DMF     O1 3542   1.132   0.292   3.701 -0.7607 -0.0998 -0.1882
  255DMF     H1 3543   1.171   0.664   3.705  0.4195 -0.7435  0.6241
  255DMF     H2 3544   1.123   0.517   3.790 -0.1847  0.1819  0.1944
  255DMF     H3 3545   1.014   0.592   3.666  0.0109 -1.9951 -1.0726
  255DMF     H4 3546   1.163   0.608   3.403  0.2530 -1.4718 -1.3609
  255DMF     H5 3547   1.280   0.487   3.401  0.9605  0.6819  0.1830
  255DMF     H6 3548   1.302   0.636   3.505  0.3080  1.5030 -0.4498
  255DMF     H7 3549   1.229   0.300   3.513 -0.3245  1.0251  0.2230
  256DMF     C1 3550   1.143   2.984   2.353 -0.4781  0.4896 -0.4096
  256DMF     N1 3551   1.247   3.045   2.269 -0.1634 -0.6089 -0.0876
  256DMF     C2 3552   1.367   2.972   2.244 -0.3878 -0.7397  0.1510
  256DMF     C3 3553   1.247   3.181   2.246  0.3435 -0.2372 -0.4556
  256DMF     O1 3554   1.157   3.257   2.272  0.5660 -0.4387  0.1298
  256DMF     H1 3555   1.159   2.876   2.351 -1.3756  0.3047  1.1789
  256DMF     H2 3556   1.044   3.001   2.309 -0.0874  0.8189 -1.1739
  256DMF     H3 3557   1.147   3.018   2.457 -1.0203 -3.7082  1.0874
  256DMF     H4 3558   1.337   2.870   2.217 -0.6182 -0.9956  1.3329
  256DMF     H5 3559   1.440   2.968   2.326  0.0531 -2.0559 -0.2902
  256DMF     H6 3560   1.418   3.013   2.156 -0.2358  1.0304  1.0604
  256DMF     H7 3561   1.338   3.213   2.193 -0.0093  0.5165 -0.6172
  257DMF     C1 3562   0.562   3.173   2.899 -0.1822 -0.2908  0.3103
  257DMF     N1 3563   0.561   3.274   3.009  0.9016 -0.0156 -0.1739
  257DMF     C2 3564   0.540   3.235   3.146  0.0881 -0.6689 -0.4082
  257DMF     C3 3565   0.585   3.404   2.981  0.3010 -0.4194 -0.3949
  257DMF     O1 3566   0.621   3.445   2.874  0.0999 -0.6247  1.0297
  257DMF     H1 3567   0.573   3.225   2.802 -1.7614 -0.9034 -0.2166
  257DMF     H2 3568   0.471   3.112   2.908  0.2394 -0.8900  0.5144
  257DMF     H3 3569   0.647   3.108   2.920 -0.5359  0.2376  3.6734
  257DMF     H4 3570   0.503   3.132   3.145  0.6801 -0.8803 -1.5212
  257DMF     H5 3571   0.473   3.310   3.190  1.5351 -0.9220  2.3489
  257DMF     H6 3572   0.640   3.247   3.188 -0.5421 -0.8575  1.1908
  257DMF     H7 3573   0.564   3.474   3.065 -0.5246 -1.8678  0.6240
  258DMF     C1 3574   1.772   1.811   0.193 -0.1884  0.2251 -0.0400
  258DMF     N1 3575   1.871   1.718   0.249 -0.5550 -0.9300 -0.2494
  258DMF     C2 3576   2.015   1.758   0.249  0.0322  0.8198 -0.6591
  258DMF     C3 3577   1.830   1.593   0.299  0.2292  0.7121 -0.4895
  258DMF     O1 3578   1.716   1.558   0.317  0.8042  0.3194 -0.9066
  258DMF     H1 3579   1.805   1.861   0.101 -1.0541  2.8619  1.0072
  258DMF     H2 3580   1.745   1.876   0.277  1.3598 -0.6778  1.1784
  258DMF     H3 3581   1.685   1.755   0.158 -0.0852  0.0196  0.0292
  258DMF     H4 3582   2.051   1.736   0.148  0.6193  2.0007 -0.7089
  258DMF     H5 3583   2.073   1.700   0.322 -0.6824  0.6241 -0.2434
  258DMF     H6 3584   2.024   1.863   0.278 -0.8577  1.1924 -1.6808
  258DMF     H7 3585   1.915   1.535   0.339 -0.4738 -1.0529 -1.4474
  259DMF     C1 3586   1.150   2.872   2.840 -0.3746  0.2662  0.4342
  259DMF     N1 3587   1.008   2.833   2.863  0.0874 -0.0593 -0.5460
  259DMF     C2 3588   0.940   2.863   2.989 -0.1898 -0.0813 -0.1516
  259DMF     C3 3589   0.923   2.813   2.760  0.4735  0.2269 -0.0816
  259DMF     O1 3590   0.965   2.794   2.651 -0.2244  0.0130  0.3675
  259DMF     H1 3591   1.222   2.811   2.894  1.2316  1.8374  0.1082
  259DMF     H2 3592   1.171   2.974   2.875  1.2838 -0.6689  2.2442
  259DMF     H3 3593   1.176   2.871   2.733 -1.7796 -0.2394  0.0744
  259DMF     H4 3594   1.000   2.925   3.057 -0.9425 -1.5794  1.9373
  259DMF     H5 3595   0.907   2.779   3.051  3.0780 -0.6539  0.9314
  259DMF     H6 3596   0.852   2.924   2.964 -0.6050 -0.2488  0.8427
  259DMF     H7 3597   0.817   2.799   2.788  0.3380  0.5614 -0.4367
  260DMF     C1 3598   1.388   3.333   3.599  0.3001 -0.3079 -0.4360
  260DMF     N1 3599   1.435   3.465   3.623  0.8388  0.2292  0.1602
  260DMF     C2 3600   1.520   3.471   3.740  0.8363  0.2636 -0.2855
  260DMF     C3 3601   1.479   3.545   3.516 -0.1322  0.5837 -0.5034
  260DMF     O1 3602   1.442   3.547   3.398  0.4580  0.2094 -0.3116
  260DMF     H1 3603   1.325   3.330   3.509 -0.4327  1.6070 -0.0100
  260DMF     H2 3604   1.328   3.296   3.683  1.0020  1.8725  1.0580
  260DMF     H3 3605   1.469   3.260   3.585 -0.1519 -0.8733 -0.1385
  260DMF     H4 3606   1.501   3.399   3.820  2.1458  0.5440  0.2894
  260DMF     H5 3607   1.525   3.570   3.788  1.5897  0.2206 -0.2630
  260DMF     H6 3608   1.623   3.443   3.713  0.3062 -1.8868 -0.0992
  260DMF     H7 3609   1.562   3.613   3.542  2.1251 -1.2362 -2.6538
  261DMF     C1 3610   1.218   1.542   2.250  0.3321  0.2789  0.0787
  261DMF     N1 3611   1.276   1.407   2.299 -0.4855  0.1068  0.2164
  261DMF     C2 3612   1.411   1.363   2.247  0.1987  0.2760 -0.5102
  261DMF     C3 3613   1.205   1.333   2.395  0.0660 -0.0197 -0.1792
  261DMF     O1 3614   1.102   1.361   2.445  0.2736  0.1124  0.4297
  261DMF     H1 3615   1.140   1.579   2.319 -0.0039 -0.2674 -0.0026
  261DMF     H2 3616   1.172   1.525   2.152  1.2450 -0.3169 -0.2504
  261DMF     H3 3617   1.291   1.624   2.249  0.2824  0.3457  1.0739
  261DMF     H4 3618   1.394   1.319   2.148  1.4399  0.5301 -0.8421
  261DMF     H5 3619   1.449   1.278   2.306  2.1587  1.1906 -0.4127
  261DMF     H6 3620   1.486   1.442   2.256 -0.8592  1.1940  0.4225
  261DMF     H7 3621   1.267   1.246   2.422 -0.1322 -0.2060 -0.3243
  262DMF     C1 3622   1.296   3.209   0.565 -0.2177 -0.3651 -0.2072
  262DMF     N1 3623   1.341   3.349   0.569 -0.1552 -0.2063 -0.3488
  262DMF     C2 3624   1.372   3.427   0.447  0.2723 -0.2964  0.2208
  262DMF     C3 3625   1.365   3.408   0.696  0.1585 -0.0703 -0.6651
  262DMF     O1 3626   1.359   3.345   0.801  0.4505  0.1386 -0.2351
  262DMF     H1 3627   1.208   3.210   0.630  0.6390  4.7295  1.0819
  262DMF     H2 3628   1.374   3.147   0.609  0.2865  0.2321 -0.2574
  262DMF     H3 3629   1.271   3.186   0.460 -0.8996 -0.5738 -0.0031
  262DMF     H4 3630   1.295   3.405   0.372 -0.4129  3.0960 -0.1402
  262DMF     H5 3631   1.467   3.396   0.403 -0.4968 -1.0978 -0.9135
  262DMF     H6 3632   1.362   3.535   0.465 -0.1763 -0.6045  1.9252
  262DMF     H7 3633   1.392   3.514   0.685 -0.4839  0.2087  0.4575
  263DMF     C1 3634   0.007   2.343   2.916  0.1715  0.3083  0.2644
  263DMF     N1 3635   0.010   2.196   2.910  0.1929 -0.4596 -0.1637
  263DMF     C2 3636   0.068   2.107   3.015  0.4131 -0.6589 -0.5701
  263DMF     C3 3637  -0.068   2.133   2.813  0.2268  0.0463  0.0861
  263DMF     O1 3638  -0.136   2.189   2.730  0.3609  0.2324 -0.3610
  263DMF     H1 3639   0.098   2.375   2.968  0.1635 -0.8032  0.9976
  263DMF     H2 3640  -0.081   2.375   2.973  0.2487  0.6768  0.1742
  263DMF     H3 3641   0.006   2.386   2.816 -2.3263 -0.8567 -0.2635
  263DMF     H4 3642   0.123   2.035   2.953 -0.4326 -0.9546 -0.9791
  263DMF     H5 3643  -0.009   2.063   3.079  0.8404  0.6361  0.8747
  263DMF     H6 3644   0.146   2.163   3.069 -0.9981  1.9038 -1.1408
  263DMF     H7 3645  -0.062   2.022   2.815  0.9630  0.1016  1.2907
  264DMF     C1 3646   1.966   0.464   2.229 -0.5012  0.0299  0.3404
  264DMF     N1 3647   2.084   0.377   2.216 -0.1099 -0.0984  0.3483
  264DMF     C2 3648   2.209   0.437   2.230  0.0495 -0.3049  0.0305
  264DMF     C3 3649   2.065   0.235   2.206 -0.4517  0.2429 -1.2238
  264DMF     O1 3650   1.960   0.178   2.188  0.2186  0.0577 -0.7647
  264DMF     H1 3651   1.988   0.568   2.203  0.5358  0.1064  1.4808
  264DMF     H2 3652   1.943   0.481   2.335 -0.8134  0.8898  0.1349
  264DMF     H3 3653   1.886   0.416   2.172  1.5298 -1.4631 -1.3384
  264DMF     H4 3654   2.207   0.541   2.195  1.0846 -0.4414 -0.4528
  264DMF     H5 3655   2.286   0.378   2.179 -0.1082 -0.9540  0.5391
  264DMF     H6 3656   2.240   0.437   2.335 -0.8719 -0.7353  0.3038
  264DMF     H7 3657   2.164   0.185   2.203  0.1796  1.5305 -3.7840
  265DMF     C1 3658   0.264   2.463   3.200  0.2014  0.1450 -0.0971
  265DMF     N1 3659   0.175   2.535   3.285  0.9622  0.3412  0.5929
  265DMF     C2 3660   0.068   2.607   3.216  0.3446 -0.4279 -0.0622
  265DMF     C3 3661   0.188   2.542   3.426  0.0185  0.1080  0.4947
  265DMF     O1 3662   0.280   2.493   3.485  0.3731 -0.4446  0.2891
  265DMF     H1 3663   0.221   2.424   3.107  1.8943  0.0794 -0.8666
  265DMF     H2 3664   0.302   2.380   3.261 -1.8232  0.3570  1.5429
  265DMF     H3 3665   0.352   2.523   3.174  0.5964 -0.4381 -0.1110
  265DMF     H4 3666   0.109   2.703   3.182 -0.2575 -0.9039 -2.2318
  265DMF     H5 3667  -0.023   2.618   3.277 -0.5683 -0.8939 -1.2948
  265DMF     H6 3668   0.039   2.557   3.122 -1.2302 -2.0127  1.2298
  265DMF     H7 3669   0.111   2.605   3.472 -1.5829  0.4008 -2.4517
  266DMF     C1 3670   0.152   2.434   2.251  0.8419 -0.7577  0.0739
  266DMF     N1 3671   0.273   2.380   2.323 -0.1572 -0.1516 -0.2110
  266DMF     C2 3672   0.305   2.237   2.303 -0.1006  0.3514  0.2348
  266DMF     C3 3673   0.354   2.462   2.404 -0.3469 -0.3993  0.2051
  266DMF     O1 3674   0.345   2.581   2.420 -0.0431  0.2930 -0.1370
  266DMF     H1 3675   0.110   2.512   2.315  0.9988 -2.6071  2.5082
  266DMF     H2 3676   0.075   2.358   2.228 -0.2888 -0.1234  1.6502
  266DMF     H3 3677   0.183   2.479   2.156 -2.1387  0.4248 -0.4127
  266DMF     H4 3678   0.408   2.213   2.333  0.2309  1.2770 -0.1491
  266DMF     H5 3679   0.285   2.219   2.197 -1.5469 -0.5756  0.6458
  266DMF     H6 3680   0.243   2.173   2.368  0.7454 -0.7014  0.0260
  266DMF     H7 3681   0.437   2.401   2.444  1.0716  1.3782  0.0371
  267DMF     C1 3682   1.726   1.090   3.236 -0.5247  0.1785 -0.1869
  267DMF     N1 3683   1.727   1.099   3.086 -0.0731 -0.5519  0.3900
  267DMF     C2 3684   1.601   1.104   3.023  0.0242  0.1156  0.1359
  267DMF     C3 3685   1.838   1.069   3.006  0.6731  0.0269  0.2338
  267DMF     O1 3686   1.947   1.049   3.059 -0.6428 -0.1942 -0.8058
  267DMF     H1 3687   1.627   1.117   3.274 -0.9155 -0.5177 -0.7083
  267DMF     H2 3688   1.810   1.151   3.273  1.1219 -3.1857  1.8609
  267DMF     H3 3689   1.743   0.985   3.262 -1.5946  0.3358  1.2192
  267DMF     H4 3690   1.565   1.005   2.992 -1.3032  0.8160 -0.6044
  267DMF     H5 3691   1.623   1.176   2.944 -0.1725  0.6768  0.5837
  267DMF     H6 3692   1.525   1.151   3.087 -2.1070 -1.3486 -1.2565
  267DMF     H7 3693   1.814   1.071   2.898 -1.3474 -1.2837  0.6426
  268DMF     C1 3694   1.277   1.930   2.268  0.6185  0.2244  0.4844
  268DMF     N1 3695   1.391   1.927   2.353  0.0037  0.7640 -0.9514
  268DMF     C2 3696   1.495   1.822   2.347 -0.0633  0.0217  0.6398
  268DMF     C3 3697   1.402   2.009   2.467 -0.0593  1.0266  0.7996
  268DMF     O1 3698   1.309   2.079   2.495  0.4220  0.1025  0.1805
  268DMF     H1 3699   1.207   1.859   2.314  0.8454  0.4367  1.1653
  268DMF     H2 3700   1.303   1.913   2.163  4.6506  0.7055  1.3154
  268DMF     H3 3701   1.233   2.031   2.268 -2.0226 -0.8757  2.1504
  268DMF     H4 3702   1.597   1.862   2.351  0.3605 -0.9653 -0.1033
  268DMF     H5 3703   1.491   1.776   2.247  0.2866 -0.8281  1.0075
  268DMF     H6 3704   1.486   1.740   2.419  1.0148 -0.5087  0.1923
  268DMF     H7 3705   1.491   1.989   2.529 -0.4680  2.5030  1.8967
  269DMF     C1 3706   1.301   2.425   0.541  0.2592 -0.3107  0.3300
  269DMF     N1 3707   1.194   2.349   0.608  0.3363 -0.2808  0.3012
  269DMF     C2 3708   1.212   2.203   0.621  0.1584 -0.0325 -0.0505
  269DMF     C3 3709   1.075   2.413   0.656  0.2029  0.6146 -0.3098
  269DMF     O1 3710   1.046   2.529   0.629 -0.9468 -0.1843  0.1842
  269DMF     H1 3711   1.392   2.364   0.529  1.2711  1.2383  0.0380
  269DMF     H2 3712   1.316   2.508   0.611  2.0928  1.6063 -2.2645
  269DMF     H3 3713   1.272   2.468   0.445  2.8396 -2.2313 -1.4009
  269DMF     H4 3714   1.129   2.171   0.685 -2.3874 -1.7723 -4.0527
  269DMF     H5 3715   1.308   2.186   0.672  0.3350  1.6075  0.2124
  269DMF     H6 3716   1.200   2.154   0.524 -1.0179  2.7065 -1.3682
  269DMF     H7 3717   1.008   2.339   0.704  0.3550 -0.5976 -1.8983
  270DMF     C1 3718   0.872   0.890   2.605 -0.6506  0.1972  0.2694
  270DMF     N1 3719   1.013   0.908   2.559  0.1847  0.5292  0.1923
  270DMF     C2 3720   1.078   1.038   2.545 -0.0419  0.3931 -0.3902
  270DMF     C3 3721   1.099   0.797   2.566 -0.5320 -0.6384  0.4465
  270DMF     O1 3722   1.057   0.682   2.563  0.1774 -0.2559 -0.0674
  270DMF     H1 3723   0.810   0.938   2.528  1.7187  0.4450 -1.5528
  270DMF     H2 3724   0.860   0.955   2.691 -2.1356 -0.9243  0.9370
  270DMF     H3 3725   0.845   0.787   2.634  3.0670 -1.3635 -1.3958
  270DMF     H4 3726   1.090   1.075   2.442  3.0308 -1.0042 -0.5810
  270DMF     H5 3727   1.164   1.051   2.611 -0.7748 -0.8992  0.8408
  270DMF     H6 3728   1.007   1.115   2.579 -0.6776  0.4028 -1.7090
  270DMF     H7 3729   1.205   0.815   2.542 -1.0883  2.2136 -0.1238
  271DMF     C1 3730   1.287   0.974   3.471  0.0527  0.5666  0.1565
  271DMF     N1 3731   1.379   0.902   3.376 -0.2403 -0.1260  0.3605
  271DMF     C2 3732   1.336   0.889   3.230  0.3992 -0.3124  0.2258
  271DMF     C3 3733   1.512   0.866   3.407 -0.5606  0.0113 -0.1874
  271DMF     O1 3734   1.584   0.922   3.494 -0.4887 -0.4262  0.1510
  271DMF     H1 3735   1.183   0.974   3.439 -1.0360  0.4649  3.5108
  271DMF     H2 3736   1.316   1.079   3.477  0.3596  0.3007  4.6978
  271DMF     H3 3737   1.302   0.927   3.569 -1.4106 -3.5437 -1.4525
  271DMF     H4 3738   1.265   0.806   3.223  0.4887 -0.2199 -2.0914
  271DMF     H5 3739   1.416   0.853   3.164  0.4508  1.0661 -0.4730
  271DMF     H6 3740   1.295   0.984   3.193 -2.5088 -2.3069 -1.8351
  271DMF     H7 3741   1.551   0.786   3.342  2.4262  0.6163  0.8043
  272DMF     C1 3742   3.251   2.744   2.273  0.2497  0.2423 -0.4062
  272DMF     N1 3743   3.221   2.764   2.415 -0.0111  0.4193  0.0912
  272DMF     C2 3744   3.325   2.832   2.502 -0.0397  0.1151 -0.0318
  272DMF     C3 3745   3.101   2.713   2.475  0.2241 -0.0629 -0.2456
  272DMF     O1 3746   3.004   2.677   2.413  0.2813  0.0509 -0.6863
  272DMF     H1 3747   3.286   2.642   2.252 -1.6187 -0.7569  1.1185
  272DMF     H2 3748   3.337   2.797   2.231 -0.2770  0.0257 -1.7773
  272DMF     H3 3749   3.164   2.759   2.208  0.6107 -0.7742 -1.1327
  272DMF     H4 3750   3.290   2.865   2.601 -0.6959 -1.2384  0.1999
  272DMF     H5 3751   3.380   2.914   2.455  2.9836 -0.5372  2.1750
  272DMF     H6 3752   3.394   2.748   2.522  1.0802  1.3116  1.2977
  272DMF     H7 3753   3.099   2.709   2.586  0.4550  0.6038 -0.2150
  273DMF     C1 3754   0.941   1.730   2.488 -0.4052  0.0459  0.2741
  273DMF     N1 3755   0.912   1.818   2.604 -0.2007  0.0113  0.2127
  273DMF     C2 3756   1.021   1.841   2.702  0.0905  0.8581 -0.2833
  273DMF     C3 3757   0.792   1.891   2.622 -0.5357 -0.0496  0.5668
  273DMF     O1 3758   0.693   1.891   2.550 -0.7751 -0.1663 -0.2523
  273DMF     H1 3759   1.016   1.653   2.508  0.4197  1.3652  2.3361
  273DMF     H2 3760   0.983   1.781   2.400  0.3146  0.6524  0.9684
  273DMF     H3 3761   0.844   1.691   2.454 -0.6499 -0.0685  1.1107
  273DMF     H4 3762   1.043   1.737   2.733  0.8743  0.9619 -0.4802
  273DMF     H5 3763   0.983   1.906   2.782  0.1215 -1.1641  1.4474
  273DMF     H6 3764   1.107   1.883   2.649  0.5719 -1.4482 -1.4195
  273DMF     H7 3765   0.787   1.940   2.721 -0.4153  1.3547 -0.1216
  274DMF     C1 3766   1.360   2.573   2.247  1.1290  0.2399  0.4362
  274DMF     N1 3767   1.320   2.427   2.264 -0.0777  0.3961  0.5028
  274DMF     C2 3768   1.179   2.400   2.288  0.0759 -0.0841  0.2008
  274DMF     C3 3769   1.424   2.331   2.272 -0.5843  0.6964  0.0349
  274DMF     O1 3770   1.541   2.357   2.273  0.0015  0.0877  0.4078
  274DMF     H1 3771   1.274   2.635   2.218  0.2315 -1.6320 -1.1136
  274DMF     H2 3772   1.425   2.588   2.160  0.7120  1.3568  0.3160
  274DMF     H3 3773   1.397   2.616   2.340  0.9531  1.2537  0.0467
  274DMF     H4 3774   1.142   2.468   2.365 -1.2644  1.6310 -1.9154
  274DMF     H5 3775   1.177   2.294   2.318  1.6257 -0.6144 -1.4596
  274DMF     H6 3776   1.123   2.413   2.194 -2.1747 -2.9560  1.0612
  274DMF     H7 3777   1.392   2.227   2.286 -1.1113  0.8310 -0.1813
  275DMF     C1 3778   2.341   1.513   3.097 -0.4167 -0.4362  0.4699
  275DMF     N1 3779   2.349   1.661   3.102  0.2949 -0.4534  0.1166
  275DMF     C2 3780   2.225   1.738   3.109  1.0288 -0.9160 -0.3382
  275DMF     C3 3781   2.459   1.727   3.052 -0.2184 -0.4775 -0.3147
  275DMF     O1 3782   2.569   1.673   3.044  0.2708 -0.4095  0.0730
  275DMF     H1 3783   2.235   1.484   3.095 -0.6082  0.2610  0.1122
  275DMF     H2 3784   2.390   1.477   3.188 -0.2336 -0.6674  0.2800
  275DMF     H3 3785   2.392   1.476   3.007 -0.8734  0.8913 -0.3533
  275DMF     H4 3786   2.203   1.770   3.006 -0.6742  2.6191  1.0259
  275DMF     H5 3787   2.242   1.831   3.165 -2.5159  1.2622 -2.6535
  275DMF     H6 3788   2.133   1.691   3.144 -0.2038  1.5084 -0.2193
  275DMF     H7 3789   2.437   1.831   3.020 -1.0075 -0.0720  1.5245
  276DMF     C1 3790   0.446   2.548   2.854  1.2780 -0.3052 -0.2462
  276DMF     N1 3791   0.349   2.660   2.867  0.2253 -0.3163  0.4485
  276DMF     C2 3792   0.218   2.635   2.812 -0.8634 -0.0914  0.4096
  276DMF     C3 3793   0.367   2.776   2.942  0.0035 -0.3925 -0.7450
  276DMF     O1 3794   0.468   2.803   2.999 -0.7041  0.1685  0.4365
  276DMF     H1 3795   0.484   2.513   2.951 -3.0256  2.0964  2.4826
  276DMF     H2 3796   0.531   2.586   2.797 -1.3606  0.6347 -3.7574
  276DMF     H3 3797   0.402   2.462   2.802  1.6018  0.7975 -2.4059
  276DMF     H4 3798   0.179   2.716   2.749 -1.1718  0.5292  1.3893
  276DMF     H5 3799   0.150   2.627   2.899  1.0237  1.0227  2.0273
  276DMF     H6 3800   0.210   2.542   2.754 -1.0891 -1.0850  1.9898
  276DMF     H7 3801   0.271   2.830   2.947  0.1131 -0.2792  0.2867
  277DMF     C1 3802   2.974   2.081   2.946 -0.4622 -0.3387 -0.7026
  277DMF     N1 3803   2.975   1.946   3.007 -0.3037  0.6525 -0.0587
  277DMF     C2 3804   2.850   1.904   3.073 -0.1732  0.2365  0.1360
  277DMF     C3 3805   3.085   1.859   3.008  0.9315 -0.3192  0.1543
  277DMF     O1 3806   3.183   1.891   2.941  0.1126 -0.0148  0.2205
  277DMF     H1 3807   2.952   2.071   2.839  0.7925 -1.2025 -0.8917
  277DMF     H2 3808   3.070   2.132   2.960 -1.6501  1.3359  1.6650
  277DMF     H3 3809   2.899   2.137   3.002  0.0650 -1.6941  1.4420
  277DMF     H4 3810   2.783   1.987   3.099  1.5656  1.8190 -0.3115
  277DMF     H5 3811   2.866   1.847   3.165 -1.8234  0.7274  0.7425
  277DMF     H6 3812   2.797   1.842   3.000 -0.8514 -0.3323  1.0876
  277DMF     H7 3813   3.067   1.765   3.063  0.7158  0.4962  1.4989
  278DMF     C1 3814   0.857   1.887   3.068 -0.5461  0.5120  0.2770
  278DMF     N1 3815   0.725   1.907   3.132 -0.0416 -0.2338  0.4651
  278DMF     C2 3816   0.721   1.988   3.257  0.0633  0.4466 -0.9797
  278DMF     C3 3817   0.609   1.874   3.053  0.4144 -0.1395 -0.4604
  278DMF     O1 3818   0.619   1.807   2.952 -0.1182 -0.0676 -0.6570
  278DMF     H1 3819   0.928   1.948   3.126  1.6409  0.4054 -2.1872
  278DMF     H2 3820   0.854   1.927   2.966 -2.0998 -0.6165 -0.1442
  278DMF     H3 3821   0.885   1.781   3.074 -1.1650  0.4222  2.1177
  278DMF     H4 3822   0.786   1.948   3.335 -1.3805  0.8322  0.4655
  278DMF     H5 3823   0.619   1.990   3.299  0.2991 -0.3214 -0.3594
  278DMF     H6 3824   0.749   2.091   3.232 -3.1025  1.2869 -1.3914
  278DMF     H7 3825   0.514   1.906   3.099  0.6629 -0.4333  0.2631
  279DMF     C1 3826   2.077   1.664   2.255  0.4145  0.0918 -0.1741
  279DMF     N1 3827   1.953   1.574   2.256 -0.1700  0.2696  0.0557
  279DMF     C2 3828   1.968   1.429   2.247  0.2620  0.1787  0.3253
  279DMF     C3 3829   1.824   1.631   2.233 -0.0910  0.3189  0.1513
  279DMF     O1 3830   1.797   1.746   2.240  0.1063 -0.3202 -0.1693
  279DMF     H1 3831   2.120   1.664   2.356 -1.6680 -1.8694  0.7890
  279DMF     H2 3832   2.051   1.765   2.223 -0.2146 -0.4221 -1.3257
  279DMF     H3 3833   2.150   1.623   2.184  1.3214 -0.2779  0.9625
  279DMF     H4 3834   1.887   1.385   2.187 -2.4328  1.2503  3.0565
  279DMF     H5 3835   1.958   1.382   2.346 -0.3391  0.6400  0.4888
  279DMF     H6 3836   2.064   1.397   2.205  0.7523  0.3005  1.3333
  279DMF     H7 3837   1.753   1.550   2.208 -0.2131  0.6668 -0.6544
  280DMF     C1 3838   1.649   1.476   2.922 -0.3011  0.1721 -1.0945
  280DMF     N1 3839   1.738   1.450   3.037  0.5345  0.0735  0.0716
  280DMF     C2 3840   1.882   1.429   3.012  0.6328 -0.8103  0.0434
  280DMF     C3 3841   1.689   1.447   3.171  0.0056  1.0265 -0.1304
  280DMF     O1 3842   1.573   1.458   3.207  0.1880 -0.1757 -0.0163
  280DMF     H1 3843   1.695   1.431   2.833  1.2087 -1.2620  0.3633
  280DMF     H2 3844   1.624   1.582   2.917 -1.3741 -0.0938 -1.8421
  280DMF     H3 3845   1.551   1.429   2.938 -0.5546  0.9406 -0.4072
  280DMF     H4 3846   1.907   1.323   3.023 -0.3331 -1.1456 -0.9329
  280DMF     H5 3847   1.942   1.477   3.091 -1.0988  1.9917 -0.2615
  280DMF     H6 3848   1.900   1.473   2.913 -3.6218  1.3100  0.0968
  280DMF     H7 3849   1.773   1.414   3.235 -1.4811 -4.0390 -0.5164
  281DMF     C1 3850   3.398   3.026   2.880 -0.7933 -0.1374 -0.8567
  281DMF     N1 3851   3.480   3.063   2.996  0.3766  0.2862  0.4247
  281DMF     C2 3852   3.582   3.160   2.973 -0.8921  0.4467  0.7326
  281DMF     C3 3853   3.491   2.975   3.110 -0.2036 -0.4128 -0.0844
  281DMF     O1 3854   3.399   2.901   3.142  0.2707 -0.5942 -0.0428
  281DMF     H1 3855   3.442   3.073   2.792  1.0295 -0.4868 -0.1494
  281DMF     H2 3856   3.297   3.070   2.885 -1.2279 -1.3357  2.1938
  281DMF     H3 3857   3.399   2.917   2.868 -0.0079 -0.1737 -0.4661
  281DMF     H4 3858   3.634   3.184   3.067  2.5981 -2.1096 -0.4546
  281DMF     H5 3859   3.528   3.248   2.934  2.0744  1.6961 -0.6732
  281DMF     H6 3860   3.654   3.127   2.898 -1.8980  1.0364 -0.5032
  281DMF     H7 3861   3.585   2.989   3.166  0.3817  0.7549 -1.3184
  282DMF     C1 3862   2.207   1.199   2.880  0.1930  0.5056  0.2534
  282DMF     N1 3863   2.355   1.160   2.860  0.6400 -0.3110 -0.2699
  282DMF     C2 3864   2.407   1.045   2.912 -0.3352 -0.7857 -0.9163
  282DMF     C3 3865   2.438   1.249   2.785 -0.1779  0.5264  0.5784
  282DMF     O1 3866   2.391   1.351   2.741  0.1081 -0.4616  0.6503
  282DMF     H1 3867   2.200   1.293   2.936  0.9368  0.2283  0.8246
  282DMF     H2 3868   2.147   1.130   2.941 -1.7134  1.7006 -0.2279
  282DMF     H3 3869   2.159   1.216   2.783  1.2849  1.8055 -0.0894
  282DMF     H4 3870   2.358   1.013   3.004  1.2289  0.8008  0.5221
  282DMF     H5 3871   2.514   1.054   2.937 -0.7419  1.4804  0.1322
  282DMF     H6 3872   2.390   0.962   2.842  0.0779 -0.8354 -0.9572
  282DMF     H7 3873   2.544   1.218   2.777 -1.0559 -2.3740 -0.5661
  283DMF     C1 3874   1.765   2.637   2.288  0.3070 -1.0623 -0.3393
  283DMF     N1 3875   1.860   2.718   2.371  0.0616  0.5369 -0.0917
  283DMF     C2 3876   2.009   2.688   2.363  0.8808 -0.1455 -0.1639
  283DMF     C3 3877   1.814   2.816   2.462  0.3522  0.0580  0.1546
  283DMF     O1 3878   1.696   2.857   2.458  0.5039  0.4143  0.5030
  283DMF     H1 3879   1.664   2.680   2.301  1.4582  1.7652 -0.2779
  283DMF     H2 3880   1.770   2.533   2.323  0.9695 -0.9112  0.0180
  283DMF     H3 3881   1.800   2.640   2.184 -0.8427 -0.2238 -0.7193
  283DMF     H4 3882   2.014   2.640   2.265 -1.4715  0.3528 -0.5675
  283DMF     H5 3883   2.049   2.616   2.435  0.2886 -0.4343 -0.1178
  283DMF     H6 3884   2.083   2.768   2.352  0.7668 -0.3270 -2.5323
  283DMF     H7 3885   1.886   2.845   2.540 -1.3292  1.8489  1.0833
  284DMF     C1 3886   2.973   2.965   0.362  0.5138  1.1824 -0.7482
  284DMF     N1 3887   3.088   3.012   0.290  0.3629  0.1968 -0.7326
  284DMF     C2 3888   3.213   2.934   0.301  0.0697 -0.5775  0.0179
  284DMF     C3 3889   3.088   3.130   0.221 -0.4895 -0.2145 -0.2432
  284DMF     O1 3890   2.992   3.200   0.205  0.9928  0.2456 -0.0442
  284DMF     H1 3891   2.876   2.982   0.312  0.5770  0.5232 -1.1015
  284DMF     H2 3892   2.966   3.004   0.464 -1.4355 -1.6389  0.2629
  284DMF     H3 3893   2.988   2.858   0.379 -0.9099  0.8497 -1.4685
  284DMF     H4 3894   3.299   3.002   0.303  0.8453 -1.4905 -1.4182
  284DMF     H5 3895   3.230   2.878   0.208  0.3098 -0.1912 -0.1727
  284DMF     H6 3896   3.209   2.861   0.382  0.1855  0.1640  0.7001
  284DMF     H7 3897   3.189   3.150   0.180 -0.7560  0.5322 -0.5400
  285DMF     C1 3898   1.444   0.782   2.306 -0.5953 -0.8384  0.2273
  285DMF     N1 3899   1.311   0.809   2.257  0.1723  0.1446 -0.5769
  285DMF     C2 3900   1.224   0.696   2.223 -0.5161 -0.1636 -0.8080
  285DMF     C3 3901   1.269   0.940   2.229  0.0952  0.1988 -0.2592
  285DMF     O1 3902   1.339   1.034   2.263  0.0671 -0.5832  0.1976
  285DMF     H1 3903   1.521   0.804   2.230  0.1776 -0.8668  0.9897
  285DMF     H2 3904   1.457   0.676   2.330  0.3029 -0.7890 -0.0076
  285DMF     H3 3905   1.468   0.835   2.399  0.2888  0.7266 -0.8667
  285DMF     H4 3906   1.163   0.714   2.134  0.2455 -0.8854 -1.4961
  285DMF     H5 3907   1.151   0.669   2.300 -0.4697  2.4858  0.2258
  285DMF     H6 3908   1.293   0.612   2.203 -0.4957 -0.1142 -0.9465
  285DMF     H7 3909   1.169   0.957   2.186 -1.1899 -1.7570  1.8467
  286DMF     C1 3910   0.373   2.175   2.827 -0.3725 -0.9292 -0.5402
  286DMF     N1 3911   0.519   2.175   2.788  0.1827 -0.1759 -0.9883
  286DMF     C2 3912   0.547   2.147   2.645 -0.4454  0.1920 -0.6666
  286DMF     C3 3913   0.618   2.194   2.884 -0.0621 -0.1137  0.3705
  286DMF     O1 3914   0.595   2.231   2.998  0.2153 -0.2759 -0.0212
  286DMF     H1 3915   0.363   2.197   2.934  2.2652 -0.2657 -0.4058
  286DMF     H2 3916   0.329   2.080   2.795  0.9798 -1.4082 -1.0056
  286DMF     H3 3917   0.317   2.255   2.777  1.0458  0.3191 -0.1767
  286DMF     H4 3918   0.645   2.106   2.619  0.7822  1.1247  2.2688
  286DMF     H5 3919   0.543   2.240   2.586 -1.5444 -0.8010 -2.1713
  286DMF     H6 3920   0.478   2.070   2.610 -0.2244  0.2161 -1.1703
  286DMF     H7 3921   0.719   2.167   2.847  1.6785  2.7789  2.7842
  287DMF     C1 3922   2.794   3.122   3.691 -0.7805 -0.4134 -0.0784
  287DMF     N1 3923   2.759   3.265   3.639  0.0277  0.0827 -0.0422
  287DMF     C2 3924   2.617   3.304   3.609  0.3951  0.9090 -0.6922
  287DMF     C3 3925   2.858   3.367   3.638 -0.1254  0.2719 -0.5951
  287DMF     O1 3926   2.968   3.345   3.687  0.0425  0.5969 -0.5248
  287DMF     H1 3927   2.883   3.095   3.633 -0.9691  0.2276 -0.6746
  287DMF     H2 3928   2.721   3.047   3.658 -0.5997 -1.0972  1.0517
  287DMF     H3 3929   2.813   3.123   3.799 -0.1183  3.9986 -0.1383
  287DMF     H4 3930   2.566   3.362   3.688 -0.9418 -1.2095  0.0210
  287DMF     H5 3931   2.556   3.217   3.583  0.6591  0.0066  1.5892
  287DMF     H6 3932   2.613   3.374   3.524 -2.4928  2.4223  0.6290
  287DMF     H7 3933   2.828   3.464   3.595  0.1715  0.5757 -0.1163
  288DMF     C1 3934   3.093   2.396   2.258 -0.3664  0.8897 -0.2118
  288DMF     N1 3935   2.955   2.346   2.232 -0.3093  0.5145 -0.0440
  288DMF     C2 3936   2.850   2.442   2.222 -0.4404 -0.2686  0.4124
  288DMF     C3 3937   2.927   2.204   2.236  0.2772 -0.2686 -0.2792
  288DMF     O1 3938   3.017   2.124   2.222 -0.1014  0.0481  0.4444
  288DMF     H1 3939   3.116   2.387   2.365 -1.7303  2.2364  0.2070
  288DMF     H2 3940   3.107   2.500   2.227  0.2324  1.3468  1.5426
  288DMF     H3 3941   3.165   2.335   2.202 -1.5638 -0.4659 -0.2779
  288DMF     H4 3942   2.820   2.481   2.320 -1.2619  0.0253  0.0542
  288DMF     H5 3943   2.763   2.400   2.170 -0.2857 -0.8426  0.6206
  288DMF     H6 3944   2.882   2.531   2.167  0.0812 -1.5734 -1.4432
  288DMF     H7 3945   2.819   2.184   2.230  0.3478 -0.1526 -2.7244
  289DMF     C1 3946   1.613   1.222   2.599 -0.0471 -1.0454  0.0708
  289DMF     N1 3947   1.531   1.347   2.604 -0.0220  0.6189 -0.0520
  289DMF     C2 3948   1.408   1.353   2.686  0.0506 -0.1909  0.6464
  289DMF     C3 3949   1.575   1.469   2.555 -0.4258  0.2698  0.6791
  289DMF     O1 3950   1.669   1.479   2.473  0.2736 -0.8084 -0.0923
  289DMF     H1 3951   1.556   1.139   2.556  1.4978 -1.8735 -0.3970
  289DMF     H2 3952   1.662   1.188   2.692  2.6181  0.3419 -0.7677
  289DMF     H3 3953   1.693   1.238   2.525 -0.6062  3.6609  0.3268
  289DMF     H4 3954   1.324   1.314   2.627 -0.0433 -0.0164  0.6633
  289DMF     H5 3955   1.388   1.458   2.710 -0.2472 -0.3187  0.9627
  289DMF     H6 3956   1.437   1.301   2.778 -1.2391 -0.7944  0.7294
  289DMF     H7 3957   1.523   1.559   2.594 -1.4073  0.1012 -0.2365
  290DMF     C1 3958   2.653   2.706   3.555 -0.2574  0.2615 -0.0170
  290DMF     N1 3959   2.762   2.775   3.485  0.3510 -0.7278  0.0103
  290DMF     C2 3960   2.901   2.725   3.499  0.3758  0.4684  0.0420
  290DMF     C3 3961   2.730   2.886   3.405  0.5855  0.1709 -0.5988
  290DMF     O1 3962   2.618   2.940   3.395  0.3967  0.0098  0.1947
  290DMF     H1 3963   2.586   2.648   3.491 -2.5673 -0.3947  2.8792
  290DMF     H2 3964   2.591   2.784   3.602  0.3691  0.5804  0.2966
  290DMF     H3 3965   2.694   2.644   3.636 -2.5991 -1.9482 -0.4754
  290DMF     H4 3966   2.927   2.702   3.603  0.8658  0.4301 -0.0865
  290DMF     H5 3967   2.977   2.792   3.456  0.5943 -1.6430 -3.0136
  290DMF     H6 3968   2.928   2.641   3.434 -2.5120  1.3823 -2.4887
  290DMF     H7 3969   2.820   2.926   3.354  0.8625 -0.0398 -0.2796
  291DMF     C1 3970   2.371   3.277   2.969  0.1770  0.3281  0.2657
  291DMF     N1 3971   2.294   3.399   3.006 -0.0912  0.4693 -0.2112
  291DMF     C2 3972   2.341   3.520   2.939 -0.4842 -0.9130  0.5713
  291DMF     C3 3973   2.191   3.398   3.099 -0.7744  0.4258 -0.2332
  291DMF     O1 3974   2.172   3.299   3.169 -0.1310 -0.3247  0.5818
  291DMF     H1 3975   2.423   3.233   3.055  1.4011  0.4936 -0.3866
  291DMF     H2 3976   2.454   3.311   2.906  0.5670  0.5648  0.8939
  291DMF     H3 3977   2.307   3.203   2.920 -1.4302  2.2642 -0.6395
  291DMF     H4 3978   2.450   3.524   2.932 -0.3967 -1.0774  1.7900
  291DMF     H5 3979   2.314   3.615   2.986  1.2984  0.3773 -0.9086
  291DMF     H6 3980   2.297   3.524   2.839  1.0148 -1.6170 -0.1304
  291DMF     H7 3981   2.145   3.499   3.104  0.7759  1.2248 -1.3938
  292DMF     C1 3982   1.537   0.432   3.762  0.3690 -0.4078  0.8650
  292DMF     N1 3983   1.652   0.488   3.695  0.2960 -0.2887 -0.0191
  292DMF     C2 3984   1.673   0.633   3.686 -0.1881  0.6339  0.0714
  292DMF     C3 3985   1.760   0.406   3.646 -0.3540  0.0532  0.2398
  292DMF     O1 3986   1.748   0.286   3.643 -0.1303 -0.0401  0.2986
  292DMF     H1 3987   1.480   0.360   3.703 -2.1068  1.4836  0.8657
  292DMF     H2 3988   1.468   0.513   3.788 -3.1059 -2.1741 -2.2095
  292DMF     H3 3989   1.575   0.392   3.856  0.2928  0.8930  1.4577
  292DMF     H4 3990   1.773   0.662   3.721  0.5245 -2.0505  0.3747
  292DMF     H5 3991   1.605   0.677   3.760  0.8285  1.1909  0.6866
  292DMF     H6 3992   1.656   0.658   3.581  2.3970 -0.3544 -0.6360
  292DMF     H7 3993   1.845   0.464   3.605 -0.1793 -0.2138  0.2188
  293DMF     C1 3994   0.889   1.441   2.722 -0.2193 -0.0119  0.3954
  293DMF     N1 3995   0.855   1.418   2.867  0.1830 -0.4435  0.6746
  293DMF     C2 3996   0.830   1.540   2.948 -0.3018 -0.5056 -0.4600
  293DMF     C3 3997   0.868   1.293   2.923 -0.1449 -0.8041  0.1533
  293DMF     O1 3998   0.865   1.185   2.870  0.0835 -0.6351  0.0603
  293DMF     H1 3999   0.841   1.534   2.687  1.2710  0.7537  0.3659
  293DMF     H2 4000   0.853   1.358   2.661 -1.9839  0.3361  0.9330
  293DMF     H3 4001   0.995   1.457   2.699 -1.2028  2.0644 -3.2095
  293DMF     H4 4002   0.728   1.577   2.934  0.1115  0.2654 -1.5167
  293DMF     H5 4003   0.898   1.623   2.924 -0.6587  0.3931  1.5406
  293DMF     H6 4004   0.849   1.529   3.056 -0.0594  0.1211 -0.4342
  293DMF     H7 4005   0.865   1.305   3.033 -0.2719 -2.5456  0.3510
  294DMF     C1 4006   0.316   0.852   3.786  0.2959 -0.7093 -0.1709
  294DMF     N1 4007   0.422   0.817   3.692  0.4483  0.0057 -0.0711
  294DMF     C2 4008   0.387   0.698   3.607 -0.0131 -0.0340 -0.0563
  294DMF     C3 4009   0.527   0.899   3.663  0.0003  0.1693  0.3117
  294DMF     O1 4010   0.532   1.007   3.716 -0.0798  0.1443  0.4912
  294DMF     H1 4011   0.311   0.790   3.876 -1.5218 -0.2335  0.0823
  294DMF     H2 4012   0.220   0.847   3.733 -1.0526 -1.1234  2.2589
  294DMF     H3 4013   0.331   0.956   3.819  2.1730 -1.1253  0.3428
  294DMF     H4 4014   0.327   0.731   3.522 -2.3975 -1.4766  1.0176
  294DMF     H5 4015   0.348   0.612   3.664 -0.2820  1.0232  1.3895
  294DMF     H6 4016   0.478   0.653   3.564  0.3898 -0.5393  1.2891
  294DMF     H7 4017   0.592   0.852   3.588  0.1399  1.1486 -0.1901
  295DMF     C1 4018   3.062   1.417   2.655  1.2889 -0.1041 -1.0581
  295DMF     N1 4019   2.944   1.465   2.729  1.0189 -0.3684  0.7516
  295DMF     C2 4020   2.809   1.461   2.656 -0.3596 -0.1862  0.7287
  295DMF     C3 4021   2.956   1.538   2.849  0.3640  0.4136  0.3266
  295DMF     O1 4022   3.054   1.552   2.911 -0.3892  1.0399 -0.1858
  295DMF     H1 4023   3.086   1.493   2.579 -0.5007  0.7810 -0.7643
  295DMF     H2 4024   3.030   1.322   2.611 -0.7662  0.0822 -0.0076
  295DMF     H3 4025   3.145   1.397   2.725  1.0266  1.0543 -0.4090
  295DMF     H4 4026   2.728   1.437   2.726 -0.1260 -2.7141  0.1846
  295DMF     H5 4027   2.799   1.390   2.573 -0.6257 -0.5055  1.0334
  295DMF     H6 4028   2.785   1.555   2.606 -0.7598 -0.1406  1.0105
  295DMF     H7 4029   2.863   1.586   2.884 -1.3968 -2.1297 -0.6592
  296DMF     C1 4030   2.143   1.615   2.751 -0.6074  0.8298 -0.3795
  296DMF     N1 4031   2.029   1.611   2.656  0.6162 -0.3465  0.3854
  296DMF     C2 4032   1.973   1.481   2.622 -0.0994  0.8676 -0.2809
  296DMF     C3 4033   1.969   1.734   2.605  0.3231  0.2676  0.2907
  296DMF     O1 4034   2.017   1.843   2.625 -0.5868  0.3111  0.2098
  296DMF     H1 4035   2.189   1.520   2.783  1.5329  1.5001 -1.4415
  296DMF     H2 4036   2.094   1.658   2.840  3.2352 -0.9738  2.7817
  296DMF     H3 4037   2.212   1.684   2.702  0.2951  0.5445  0.4656
  296DMF     H4 4038   1.872   1.484   2.579 -0.3783  0.2407  0.3272
  296DMF     H5 4039   1.950   1.411   2.704 -1.6565  0.2136 -1.2656
  296DMF     H6 4040   2.036   1.420   2.557 -3.5472 -4.0172  0.6660
  296DMF     H7 4041   1.883   1.717   2.537 -0.0645  0.4375  0.7379
  297DMF     C1 4042   0.879   2.035   2.264 -0.6292  0.3083  0.3707
  297DMF     N1 4043   0.765   2.127   2.270 -0.1052  0.4626  0.0899
  297DMF     C2 4044   0.629   2.064   2.272  0.3228  0.0730 -0.0910
  297DMF     C3 4045   0.779   2.255   2.280  0.4324 -0.6346  0.5580
  297DMF     O1 4046   0.886   2.315   2.283  0.1590 -0.2514  0.2480
  297DMF     H1 4047   0.954   2.047   2.343  0.2449 -0.8030 -0.2952
  297DMF     H2 4048   0.932   2.049   2.169 -0.3985 -0.7712  0.3429
  297DMF     H3 4049   0.841   1.933   2.273 -0.4126  0.3377  1.7630
  297DMF     H4 4050   0.632   1.960   2.238  0.2325 -0.7866  2.4059
  297DMF     H5 4051   0.556   2.114   2.208  0.7229  1.9634  0.8794
  297DMF     H6 4052   0.582   2.073   2.371  1.4575  2.4380  0.2540
  297DMF     H7 4053   0.679   2.302   2.291  1.4202  1.2266  1.7556
  298DMF     C1 4054   2.821   1.887   2.618 -0.5662  0.1525  0.0127
  298DMF     N1 4055   2.943   1.959   2.581 -0.3304  0.7312 -0.1069
  298DMF     C2 4056   3.072   1.890   2.617 -0.0154  0.1778  0.0682
  298DMF     C3 4057   2.935   2.098   2.550 -0.3237  0.5996  0.8570
  298DMF     O1 4058   2.829   2.159   2.554  0.6791  0.3031 -0.1866
  298DMF     H1 4059   2.740   1.954   2.648 -0.9102  0.1571 -0.9233
  298DMF     H2 4060   2.843   1.824   2.706  0.7362  0.0548 -0.3647
  298DMF     H3 4061   2.794   1.825   2.532  2.0727  2.1321 -2.3437
  298DMF     H4 4062   3.078   1.782   2.604  2.2334  0.2364  0.3766
  298DMF     H5 4063   3.096   1.910   2.722  0.4189 -2.6320  0.5372
  298DMF     H6 4064   3.148   1.932   2.550  1.4800 -0.3219  1.4159
  298DMF     H7 4065   3.033   2.149   2.551 -0.5881  1.1064  2.2033
  299DMF     C1 4066   2.964   1.557   3.292 -0.3259 -0.2212 -0.0871
  299DMF     N1 4067   3.116   1.541   3.282  0.0640  0.4941  0.6021
  299DMF     C2 4068   3.165   1.420   3.203 -0.5368  0.1618 -0.4793
  299DMF     C3 4069   3.209   1.631   3.332  0.0809 -0.7685 -0.5902
  299DMF     O1 4070   3.177   1.733   3.383 -0.0952 -0.2031  0.5102
  299DMF     H1 4071   2.938   1.611   3.384  0.0043 -1.2444  0.6166
  299DMF     H2 4072   2.917   1.458   3.291 -0.2791 -0.2718  1.1065
  299DMF     H3 4073   2.926   1.607   3.202  1.2467 -0.3731 -0.8525
  299DMF     H4 4074   3.275   1.420   3.204 -0.5383 -0.2553  0.2753
  299DMF     H5 4075   3.137   1.429   3.097  0.0042 -1.0592 -0.7450
  299DMF     H6 4076   3.121   1.323   3.231 -0.3928  0.1234 -0.3810
  299DMF     H7 4077   3.314   1.598   3.319 -0.5204 -3.2082  0.3637
  300DMF     C1 4078   0.808   0.621   2.296 -0.0779 -0.6180 -0.2561
  300DMF     N1 4079   0.670   0.642   2.344  0.5982  0.0016  0.1611
  300DMF     C2 4080   0.621   0.546   2.443 -0.5674  0.5442 -0.4969
  300DMF     C3 4081   0.606   0.764   2.309  0.0324  0.7672 -0.5996
  300DMF     O1 4082   0.641   0.845   2.225 -0.3207  0.1751  0.5820
  300DMF     H1 4083   0.876   0.559   2.355  0.6720  0.1265 -0.3325
  300DMF     H2 4084   0.861   0.717   2.298 -0.0584 -0.6173 -0.8313
  300DMF     H3 4085   0.802   0.579   2.195  3.6038 -1.9133  0.0006
  300DMF     H4 4086   0.558   0.474   2.389 -0.9893 -0.5052  1.3677
  300DMF     H5 4087   0.552   0.594   2.513 -1.6768 -0.5816 -0.7979
  300DMF     H6 4088   0.698   0.502   2.507 -0.4581  1.1109 -0.2333
  300DMF     H7 4089   0.524   0.780   2.382  1.6795  0.8870  1.2475
  301DMF     C1 4090   1.836   0.036   3.514  0.2929 -0.3121 -1.2120
  301DMF     N1 4091   1.858  -0.093   3.446 -0.2190 -0.7872 -0.1659
  301DMF     C2 4092   1.921  -0.088   3.310 -0.3441  0.7874 -0.6155
  301DMF     C3 4093   1.835  -0.209   3.516 -0.7280  0.5168  0.5836
  301DMF     O1 4094   1.778  -0.213   3.621 -0.5075  0.3545 -0.8392
  301DMF     H1 4095   1.799   0.035   3.617 -1.1438  0.1849 -1.7124
  301DMF     H2 4096   1.758   0.087   3.456 -1.4100  0.4905  1.6825
  301DMF     H3 4097   1.931   0.090   3.512 -0.1621  0.4992 -0.9365
  301DMF     H4 4098   1.856  -0.146   3.242  0.5312 -1.6624  0.5911
  301DMF     H5 4099   2.014  -0.142   3.329 -0.0028  1.1890 -1.1083
  301DMF     H6 4100   1.942   0.016   3.280 -0.9579  1.3510  0.8770
  301DMF     H7 4101   1.879  -0.302   3.475 -1.2552  0.4706  0.1273
  302DMF     C1 4102   2.527   2.936   2.313 -0.2525  1.0159  0.0900
  302DMF     N1 4103   2.596   2.830   2.241 -0.0870  0.1347 -0.9636
  302DMF     C2 4104   2.743   2.836   2.263 -0.1556 -0.1829 -0.4601
  302DMF     C3 4105   2.534   2.705   2.207 -0.3783  0.0170  0.2875
  302DMF     O1 4106   2.420   2.678   2.231 -0.2685 -0.4861  0.6046
  302DMF     H1 4107   2.590   3.025   2.319 -1.3669  2.2464 -4.3755
  302DMF     H2 4108   2.492   2.886   2.404 -0.0569 -0.6238 -0.7129
  302DMF     H3 4109   2.431   2.961   2.267 -1.6343 -0.0450  2.3354
  302DMF     H4 4110   2.770   2.879   2.360  0.6332  2.6904 -1.8770
  302DMF     H5 4111   2.789   2.907   2.193 -2.2587  1.1857 -0.5236
  302DMF     H6 4112   2.798   2.742   2.267 -1.0215 -0.6610  0.2966
  302DMF     H7 4113   2.606   2.634   2.163 -2.1699 -0.0143 -2.7447
  303DMF     C1 4114   3.052   2.424   0.857 -0.1536 -0.4057 -1.1573
  303DMF     N1 4115   2.975   2.402   0.727  0.0876  0.6015  0.0864
  303DMF     C2 4116   2.960   2.515   0.633  0.0111  0.0532  0.0218
  303DMF     C3 4117   2.908   2.287   0.697  0.2477  0.6715 -0.4572
  303DMF     O1 4118   2.923   2.184   0.764 -0.5224 -0.7941  0.2789
  303DMF     H1 4119   3.008   2.367   0.940  0.3154 -1.3719 -1.5646
  303DMF     H2 4120   3.053   2.531   0.883  0.6822 -0.6337 -0.2108
  303DMF     H3 4121   3.158   2.400   0.838  0.3040  0.4472  0.1977
  303DMF     H4 4122   2.867   2.508   0.574 -0.2506  2.1508  0.1614
  303DMF     H5 4123   3.030   2.502   0.550  0.1550 -1.0569  0.3052
  303DMF     H6 4124   2.976   2.612   0.680  1.0792  1.5487 -3.2951
  303DMF     H7 4125   2.845   2.295   0.607 -3.4357 -1.9464  1.7375
  304DMF     C1 4126   1.417   1.794   2.876  0.2758 -0.7127 -0.2909
  304DMF     N1 4127   1.305   1.748   2.965  0.2405 -0.1761  0.3408
  304DMF     C2 4128   1.320   1.813   3.101 -0.2628  0.0152  0.6378
  304DMF     C3 4129   1.216   1.640   2.941 -0.1656  0.5667  0.6872
  304DMF     O1 4130   1.224   1.581   2.836  0.7217  0.1051  0.1034
  304DMF     H1 4131   1.499   1.819   2.944 -2.0222 -1.3109  2.7829
  304DMF     H2 4132   1.385   1.879   2.814  1.0116  0.0995  0.4452
  304DMF     H3 4133   1.464   1.714   2.817  0.7207 -1.4575  1.0524
  304DMF     H4 4134   1.374   1.742   3.166  0.1875  0.8114  1.1368
  304DMF     H5 4135   1.225   1.826   3.154  0.6167 -2.7016  3.0143
  304DMF     H6 4136   1.380   1.904   3.101  0.8290 -0.6708 -1.4939
  304DMF     H7 4137   1.153   1.610   3.028 -1.6133  1.2116 -0.1228
  305DMF     C1 4138   2.899   3.106   2.801  0.8390 -0.1127  0.3521
  305DMF     N1 4139   2.968   3.086   2.676  0.2036  0.8002  0.2879
  305DMF     C2 4140   2.955   3.188   2.566  0.6527 -0.3977 -0.1446
  305DMF     C3 4141   3.066   2.985   2.660  0.0908  0.3824 -0.1694
  305DMF     O1 4142   3.095   2.902   2.746  0.5910  0.4817  0.2851
  305DMF     H1 4143   2.790   3.114   2.797  0.6867 -1.9743  0.1248
  305DMF     H2 4144   2.937   3.205   2.830  0.7275  0.9296 -2.8589
  305DMF     H3 4145   2.926   3.027   2.872 -0.1243 -0.3083  0.5079
  305DMF     H4 4146   2.932   3.139   2.471  1.7522 -3.2530  1.0172
  305DMF     H5 4147   3.053   3.236   2.551 -0.2723  1.4716 -0.3582
  305DMF     H6 4148   2.874   3.257   2.592  1.0177  0.1986 -0.5532
  305DMF     H7 4149   3.111   2.989   2.559  0.2418 -0.7062 -0.1517
  306DMF     C1 4150   2.679   0.059   2.234  0.2642 -1.0012 -0.4094
  306DMF     N1 4151   2.538   0.028   2.271 -0.3159  0.0660 -0.1427
  306DMF     C2 4152   2.488  -0.110   2.258 -0.0906 -0.7433  0.0531
  306DMF     C3 4153   2.455   0.127   2.311  0.1322  0.2357  0.0590
  306DMF     O1 4154   2.483   0.243   2.332 -0.3956 -0.5089  0.9806
  306DMF     H1 4155   2.726  -0.019   2.174 -1.0676 -2.3317  0.2288
  306DMF     H2 4156   2.728   0.077   2.331 -2.0538 -0.4232  0.6995
  306DMF     H3 4157   2.668   0.153   2.179  1.0802 -0.7886 -0.2154
  306DMF     H4 4158   2.411  -0.115   2.180 -1.0420  2.1797  0.7236
  306DMF     H5 4159   2.451  -0.144   2.355  1.9068 -1.5875  0.5572
  306DMF     H6 4160   2.575  -0.172   2.233  0.8226  1.5533 -2.8139
  306DMF     H7 4161   2.352   0.089   2.327  1.5400 -2.4681  3.3272
  307DMF     C1 4162   1.392   2.268   3.028 -0.2433  0.2977  0.3622
  307DMF     N1 4163   1.424   2.160   2.925  0.8438 -0.0880 -0.0124
  307DMF     C2 4164   1.331   2.150   2.817 -0.2383 -0.4008  0.1823
  307DMF     C3 4165   1.533   2.078   2.937 -0.8160 -0.6860 -0.1596
  307DMF     O1 4166   1.588   2.063   3.045  0.1494 -0.0138 -0.2840
  307DMF     H1 4167   1.390   2.363   2.972 -1.2559 -0.6363 -1.2071
  307DMF     H2 4168   1.456   2.257   3.116 -0.9331  1.5490  1.0420
  307DMF     H3 4169   1.288   2.250   3.056 -0.7078  0.3927 -1.2611
  307DMF     H4 4170   1.332   2.231   2.743 -0.1575 -2.7241 -2.4856
  307DMF     H5 4171   1.228   2.140   2.854  0.0162  0.6322  1.1666
  307DMF     H6 4172   1.352   2.064   2.752  0.1972 -0.8480  0.9099
  307DMF     H7 4173   1.565   2.027   2.844 -1.3380 -2.6306  0.6951
   3.40320   3.43847   3.80000
