HFIP comparator n4
 3225
    1GR      C1    1   0.000   0.000   1.900  0.0000  0.0000  0.0000
    1GR      C2    2   0.142   0.000   1.900  0.0000  0.0000  0.0000
    1GR      C3    3   0.213   0.123   1.900  0.0000  0.0000  0.0000
    1GR      C4    4   0.354   0.123   1.900  0.0000  0.0000  0.0000
    1GR      C5    5   0.000   0.246   1.900  0.0000  0.0000  0.0000
    1GR      C6    6   0.142   0.246   1.900  0.0000  0.0000  0.0000
    1GR      C7    7   0.213   0.368   1.900  0.0000  0.0000  0.0000
    1GR      C8    8   0.354   0.368   1.900  0.0000  0.0000  0.0000
    1GR      C9    9   0.000   0.491   1.900  0.0000  0.0000  0.0000
    1GR     C10   10   0.142   0.491   1.900  0.0000  0.0000  0.0000
    1GR     C11   11   0.213   0.614   1.900  0.0000  0.0000  0.0000
    1GR     C12   12   0.354   0.614   1.900  0.0000  0.0000  0.0000
    1GR     C13   13   0.000   0.737   1.900  0.0000  0.0000  0.0000
    1GR     C14   14   0.142   0.737   1.900  0.0000  0.0000  0.0000
    1GR     C15   15   0.213   0.860   1.900  0.0000  0.0000  0.0000
    1GR     C16   16   0.354   0.860   1.900  0.0000  0.0000  0.0000
    1GR     C17   17   0.000   0.982   1.900  0.0000  0.0000  0.0000
    1GR     C18   18   0.142   0.982   1.900  0.0000  0.0000  0.0000
    1GR     C19   19   0.213   1.105   1.900  0.0000  0.0000  0.0000
    1GR     C20   20   0.354   1.105   1.900  0.0000  0.0000  0.0000
    1GR     C21   21   0.000   1.228   1.900  0.0000  0.0000  0.0000
    1GR     C22   22   0.142   1.228   1.900  0.0000  0.0000  0.0000
    1GR     C23   23   0.213   1.351   1.900  0.0000  0.0000  0.0000
    1GR     C24   24   0.354   1.351   1.900  0.0000  0.0000  0.0000
    1GR     C25   25   0.000   1.474   1.900  0.0000  0.0000  0.0000
    1GR     C26   26   0.142   1.474   1.900  0.0000  0.0000  0.0000
    1GR     C27   27   0.213   1.596   1.900  0.0000  0.0000  0.0000
    1GR     C28   28   0.354   1.596   1.900  0.0000  0.0000  0.0000
    1GR     C29   29   0.000   1.719   1.900  0.0000  0.0000  0.0000
    1GR     C30   30   0.142   1.719   1.900  0.0000  0.0000  0.0000
    1GR     C31   31   0.213   1.842   1.900  0.0000  0.0000  0.0000
    1GR     C32   32   0.354   1.842   1.900  0.0000  0.0000  0.0000
    1GR     C33   33   0.000   1.965   1.900  0.0000  0.0000  0.0000
    1GR     C34   34   0.142   1.965   1.900  0.0000  0.0000  0.0000
    1GR     C35   35   0.213   2.088   1.900  0.0000  0.0000  0.0000
    1GR     C36   36   0.354   2.088   1.900  0.0000  0.0000  0.0000
    1GR     C37   37   0.000   2.210   1.900  0.0000  0.0000  0.0000
    1GR     C38   38   0.142   2.210   1.900  0.0000  0.0000  0.0000
    1GR     C39   39   0.213   2.333   1.900  0.0000  0.0000  0.0000
    1GR     C40   40   0.354   2.333   1.900  0.0000  0.0000  0.0000
    1GR     C41   41   0.000   2.456   1.900  0.0000  0.0000  0.0000
    1GR     C42   42   0.142   2.456   1.900  0.0000  0.0000  0.0000
    1GR     C43   43   0.213   2.579   1.900  0.0000  0.0000  0.0000
    1GR     C44   44   0.354   2.579   1.900  0.0000  0.0000  0.0000
    1GR     C45   45   0.000   2.702   1.900  0.0000  0.0000  0.0000
    1GR     C46   46   0.142   2.702   1.900  0.0000  0.0000  0.0000
    1GR     C47   47   0.213   2.824   1.900  0.0000  0.0000  0.0000
    1GR     C48   48   0.354   2.824   1.900  0.0000  0.0000  0.0000
    1GR     C49   49   0.000   2.947   1.900  0.0000  0.0000  0.0000
    1GR     C50   50   0.142   2.947   1.900  0.0000  0.0000  0.0000
    1GR     C51   51   0.213   3.070   1.900  0.0000  0.0000  0.0000
    1GR     C52   52   0.354   3.070   1.900  0.0000  0.0000  0.0000
    1GR     C53   53   0.000   3.193   1.900  0.0000  0.0000  0.0000
    1GR     C54   54   0.142   3.193   1.900  0.0000  0.0000  0.0000
    1GR     C55   55   0.213   3.316   1.900  0.0000  0.0000  0.0000
    1GR     C56   56   0.354   3.316   1.900  0.0000  0.0000  0.0000
    1GR     C57   57   0.425   0.000   1.900  0.0000  0.0000  0.0000
    1GR     C58   58   0.567   0.000   1.900  0.0000  0.0000  0.0000
    1GR     C59   59   0.638   0.123   1.900  0.0000  0.0000  0.0000
    1GR     C60   60   0.780   0.123   1.900  0.0000  0.0000  0.0000
    1GR     C61   61   0.425   0.246   1.900  0.0000  0.0000  0.0000
    1GR     C62   62   0.567   0.246   1.900  0.0000  0.0000  0.0000
    1GR     C63   63   0.638   0.368   1.900  0.0000  0.0000  0.0000
    1GR     C64   64   0.780   0.368   1.900  0.0000  0.0000  0.0000
    1GR     C65   65   0.425   0.491   1.900  0.0000  0.0000  0.0000
    1GR     C66   66   0.567   0.491   1.900  0.0000  0.0000  0.0000
    1GR     C67   67   0.638   0.614   1.900  0.0000  0.0000  0.0000
    1GR     C68   68   0.780   0.614   1.900  0.0000  0.0000  0.0000
    1GR     C69   69   0.425   0.737   1.900  0.0000  0.0000  0.0000
    1GR     C70   70   0.567   0.737   1.900  0.0000  0.0000  0.0000
    1GR     C71   71   0.638   0.860   1.900  0.0000  0.0000  0.0000
    1GR     C72   72   0.780   0.860   1.900  0.0000  0.0000  0.0000
    1GR     C73   73   0.425   0.982   1.900  0.0000  0.0000  0.0000
    1GR     C74   74   0.567   0.982   1.900  0.0000  0.0000  0.0000
    1GR     C75   75   0.638   1.105   1.900  0.0000  0.0000  0.0000
    1GR     C76   76   0.780   1.105   1.900  0.0000  0.0000  0.0000
    1GR     C77   77   0.425   1.228   1.900  0.0000  0.0000  0.0000
    1GR     C78   78   0.567   1.228   1.900  0.0000  0.0000  0.0000
    1GR     C79   79   0.638   1.351   1.900  0.0000  0.0000  0.0000
    1GR     C80   80   0.780   1.351   1.900  0.0000  0.0000  0.0000
    1GR     C81   81   0.425   1.474   1.900  0.0000  0.0000  0.0000
    1GR     C82   82   0.567   1.474   1.900  0.0000  0.0000  0.0000
    1GR     C83   83   0.638   1.596   1.900  0.0000  0.0000  0.0000
    1GR     C84   84   0.780   1.596   1.900  0.0000  0.0000  0.0000
    1GR     C85   85   0.425   1.719   1.900  0.0000  0.0000  0.0000
    1GR     C86   86   0.567   1.719   1.900  0.0000  0.0000  0.0000
    1GR     C87   87   0.638   1.842   1.900  0.0000  0.0000  0.0000
    1GR     C88   88   0.780   1.842   1.900  0.0000  0.0000  0.0000
    1GR     C89   89   0.425   1.965   1.900  0.0000  0.0000  0.0000
    1GR     C90   90   0.567   1.965   1.900  0.0000  0.0000  0.0000
    1GR     C91   91   0.638   2.088   1.900  0.0000  0.0000  0.0000
    1GR     C92   92   0.780   2.088   1.900  0.0000  0.0000  0.0000
    1GR     C93   93   0.425   2.210   1.900  0.0000  0.0000  0.0000
    1GR     C94   94   0.567   2.210   1.900  0.0000  0.0000  0.0000
    1GR     C95   95   0.638   2.333   1.900  0.0000  0.0000  0.0000
    1GR     C96   96   0.780   2.333   1.900  0.0000  0.0000  0.0000
    1GR     C97   97   0.425   2.456   1.900  0.0000  0.0000  0.0000
    1GR     C98   98   0.567   2.456   1.900  0.0000  0.0000  0.0000
    1GR     C99   99   0.638   2.579   1.900  0.0000  0.0000  0.0000
    1GR    C100  100   0.780   2.579   1.900  0.0000  0.0000  0.0000
    1GR    C101  101   0.425   2.702   1.900  0.0000  0.0000  0.0000
    1GR    C102  102   0.567   2.702   1.900  0.0000  0.0000  0.0000
    1GR    C103  103   0.638   2.824   1.900  0.0000  0.0000  0.0000
    1GR    C104  104   0.780   2.824   1.900  0.0000  0.0000  0.0000
    1GR    C105  105   0.425   2.947   1.900  0.0000  0.0000  0.0000
    1GR    C106  106   0.567   2.947   1.900  0.0000  0.0000  0.0000
    1GR    C107  107   0.638   3.070   1.900  0.0000  0.0000  0.0000
    1GR    C108  108   0.780   3.070   1.900  0.0000  0.0000  0.0000
    1GR    C109  109   0.425   3.193   1.900  0.0000  0.0000  0.0000
    1GR    C110  110   0.567   3.193   1.900  0.0000  0.0000  0.0000
    1GR    C111  111   0.638   3.316   1.900  0.0000  0.0000  0.0000
    1GR    C112  112   0.780   3.316   1.900  0.0000  0.0000  0.0000
    1GR    C113  113   0.851   0.000   1.900  0.0000  0.0000  0.0000
    1GR    C114  114   0.993   0.000   1.900  0.0000  0.0000  0.0000
    1GR    C115  115   1.064   0.123   1.900  0.0000  0.0000  0.0000
    1GR    C116  116   1.205   0.123   1.900  0.0000  0.0000  0.0000
    1GR    C117  117   0.851   0.246   1.900  0.0000  0.0000  0.0000
    1GR    C118  118   0.993   0.246   1.900  0.0000  0.0000  0.0000
    1GR    C119  119   1.064   0.368   1.900  0.0000  0.0000  0.0000
    1GR    C120  120   1.205   0.368   1.900  0.0000  0.0000  0.0000
    1GR    C121  121   0.851   0.491   1.900  0.0000  0.0000  0.0000
    1GR    C122  122   0.993   0.491   1.900  0.0000  0.0000  0.0000
    1GR    C123  123   1.064   0.614   1.900  0.0000  0.0000  0.0000
    1GR    C124  124   1.205   0.614   1.900  0.0000  0.0000  0.0000
    1GR    C125  125   0.851   0.737   1.900  0.0000  0.0000  0.0000
    1GR    C126  126   0.993   0.737   1.900  0.0000  0.0000  0.0000
    1GR    C127  127   1.064   0.860   1.900  0.0000  0.0000  0.0000
    1GR    C128  128   1.205   0.860   1.900  0.0000  0.0000  0.0000
    1GR    C129  129   0.851   0.982   1.900  0.0000  0.0000  0.0000
    1GR    C130  130   0.993   0.982   1.900  0.0000  0.0000  0.0000
    1GR    C131  131   1.064   1.105   1.900  0.0000  0.0000  0.0000
    1GR    C132  132   1.205   1.105   1.900  0.0000  0.0000  0.0000
    1GR    C133  133   0.851   1.228   1.900  0.0000  0.0000  0.0000
    1GR    C134  134   0.993   1.228   1.900  0.0000  0.0000  0.0000
    1GR    C135  135   1.064   1.351   1.900  0.0000  0.0000  0.0000
    1GR    C136  136   1.205   1.351   1.900  0.0000  0.0000  0.0000
    1GR    C137  137   0.851   1.474   1.900  0.0000  0.0000  0.0000
    1GR    C138  138   0.993   1.474   1.900  0.0000  0.0000  0.0000
    1GR    C139  139   1.064   1.596   1.900  0.0000  0.0000  0.0000
    1GR    C140  140   1.205   1.596   1.900  0.0000  0.0000  0.0000
    1GR    C141  141   0.851   1.719   1.900  0.0000  0.0000  0.0000
    1GR    C142  142   0.993   1.719   1.900  0.0000  0.0000  0.0000
    1GR    C143  143   1.064   1.842   1.900  0.0000  0.0000  0.0000
    1GR    C144  144   1.205   1.842   1.900  0.0000  0.0000  0.0000
    1GR    C145  145   0.851   1.965   1.900  0.0000  0.0000  0.0000
    1GR    C146  146   0.993   1.965   1.900  0.0000  0.0000  0.0000
    1GR    C147  147   1.064   2.088   1.900  0.0000  0.0000  0.0000
    1GR    C148  148   1.205   2.088   1.900  0.0000  0.0000  0.0000
    1GR    C149  149   0.851   2.210   1.900  0.0000  0.0000  0.0000
    1GR    C150  150   0.993   2.210   1.900  0.0000  0.0000  0.0000
    1GR    C151  151   1.064   2.333   1.900  0.0000  0.0000  0.0000
    1GR    C152  152   1.205   2.333   1.900  0.0000  0.0000  0.0000
    1GR    C153  153   0.851   2.456   1.900  0.0000  0.0000  0.0000
    1GR    C154  154   0.993   2.456   1.900  0.0000  0.0000  0.0000
    1GR    C155  155   1.064   2.579   1.900  0.0000  0.0000  0.0000
    1GR    C156  156   1.205   2.579   1.900  0.0000  0.0000  0.0000
    1GR    C157  157   0.851   2.702   1.900  0.0000  0.0000  0.0000
    1GR    C158  158   0.993   2.702   1.900  0.0000  0.0000  0.0000
    1GR    C159  159   1.064   2.824   1.900  0.0000  0.0000  0.0000
    1GR    C160  160   1.205   2.824   1.900  0.0000  0.0000  0.0000
    1GR    C161  161   0.851   2.947   1.900  0.0000  0.0000  0.0000
    1GR    C162  162   0.993   2.947   1.900  0.0000  0.0000  0.0000
    1GR    C163  163   1.064   3.070   1.900  0.0000  0.0000  0.0000
    1GR    C164  164   1.205   3.070   1.900  0.0000  0.0000  0.0000
    1GR    C165  165   0.851   3.193   1.900  0.0000  0.0000  0.0000
    1GR    C166  166   0.993   3.193   1.900  0.0000  0.0000  0.0000
    1GR    C167  167   1.064   3.316   1.900  0.0000  0.0000  0.0000
    1GR    C168  168   1.205   3.316   1.900  0.0000  0.0000  0.0000
    1GR    C169  169   1.276   0.000   1.900  0.0000  0.0000  0.0000
    1GR    C170  170   1.418   0.000   1.900  0.0000  0.0000  0.0000
    1GR    C171  171   1.489   0.123   1.900  0.0000  0.0000  0.0000
    1GR    C172  172   1.631   0.123   1.900  0.0000  0.0000  0.0000
    1GR    C173  173   1.276   0.246   1.900  0.0000  0.0000  0.0000
    1GR    C174  174   1.418   0.246   1.900  0.0000  0.0000  0.0000
    1GR    C175  175   1.489   0.368   1.900  0.0000  0.0000  0.0000
    1GR    C176  176   1.631   0.368   1.900  0.0000  0.0000  0.0000
    1GR    C177  177   1.276   0.491   1.900  0.0000  0.0000  0.0000
    1GR    C178  178   1.418   0.491   1.900  0.0000  0.0000  0.0000
    1GR    C179  179   1.489   0.614   1.900  0.0000  0.0000  0.0000
    1GR    C180  180   1.631   0.614   1.900  0.0000  0.0000  0.0000
    1GR    C181  181   1.276   0.737   1.900  0.0000  0.0000  0.0000
    1GR    C182  182   1.418   0.737   1.900  0.0000  0.0000  0.0000
    1GR    C183  183   1.489   0.860   1.900  0.0000  0.0000  0.0000
    1GR    C184  184   1.631   0.860   1.900  0.0000  0.0000  0.0000
    1GR    C185  185   1.276   0.982   1.900  0.0000  0.0000  0.0000
    1GR    C186  186   1.418   0.982   1.900  0.0000  0.0000  0.0000
    1GR    C187  187   1.489   1.105   1.900  0.0000  0.0000  0.0000
    1GR    C188  188   1.631   1.105   1.900  0.0000  0.0000  0.0000
    1GR    C189  189   1.276   1.228   1.900  0.0000  0.0000  0.0000
    1GR    C190  190   1.418   1.228   1.900  0.0000  0.0000  0.0000
    1GR    C191  191   1.489   1.351   1.900  0.0000  0.0000  0.0000
    1GR    C192  192   1.631   1.351   1.900  0.0000  0.0000  0.0000
    1GR    C193  193   1.276   1.474   1.900  0.0000  0.0000  0.0000
    1GR    C194  194   1.418   1.474   1.900  0.0000  0.0000  0.0000
    1GR    C195  195   1.489   1.596   1.900  0.0000  0.0000  0.0000
    1GR    C196  196   1.631   1.596   1.900  0.0000  0.0000  0.0000
    1GR    C197  197   1.276   1.719   1.900  0.0000  0.0000  0.0000
    1GR    C198  198   1.418   1.719   1.900  0.0000  0.0000  0.0000
    1GR    C199  199   1.489   1.842   1.900  0.0000  0.0000  0.0000
    1GR    C200  200   1.631   1.842   1.900  0.0000  0.0000  0.0000
    1GR    C201  201   1.276   1.965   1.900  0.0000  0.0000  0.0000
    1GR    C202  202   1.418   1.965   1.900  0.0000  0.0000  0.0000
    1GR    C203  203   1.489   2.088   1.900  0.0000  0.0000  0.0000
    1GR    C204  204   1.631   2.088   1.900  0.0000  0.0000  0.0000
    1GR    C205  205   1.276   2.210   1.900  0.0000  0.0000  0.0000
    1GR    C206  206   1.418   2.210   1.900  0.0000  0.0000  0.0000
    1GR    C207  207   1.489   2.333   1.900  0.0000  0.0000  0.0000
    1GR    C208  208   1.631   2.333   1.900  0.0000  0.0000  0.0000
    1GR    C209  209   1.276   2.456   1.900  0.0000  0.0000  0.0000
    1GR    C210  210   1.418   2.456   1.900  0.0000  0.0000  0.0000
    1GR    C211  211   1.489   2.579   1.900  0.0000  0.0000  0.0000
    1GR    C212  212   1.631   2.579   1.900  0.0000  0.0000  0.0000
    1GR    C213  213   1.276   2.702   1.900  0.0000  0.0000  0.0000
    1GR    C214  214   1.418   2.702   1.900  0.0000  0.0000  0.0000
    1GR    C215  215   1.489   2.824   1.900  0.0000  0.0000  0.0000
    1GR    C216  216   1.631   2.824   1.900  0.0000  0.0000  0.0000
    1GR    C217  217   1.276   2.947   1.900  0.0000  0.0000  0.0000
    1GR    C218  218   1.418   2.947   1.900  0.0000  0.0000  0.0000
    1GR    C219  219   1.489   3.070   1.900  0.0000  0.0000  0.0000
    1GR    C220  220   1.631   3.070   1.900  0.0000  0.0000  0.0000
    1GR    C221  221   1.276   3.193   1.900  0.0000  0.0000  0.0000
    1GR    C222  222   1.418   3.193   1.900  0.0000  0.0000  0.0000
    1GR    C223  223   1.489   3.316   1.900  0.0000  0.0000  0.0000
    1GR    C224  224   1.631   3.316   1.900  0.0000  0.0000  0.0000
    1GR    C225  225   1.702   0.000   1.900  0.0000  0.0000  0.0000
    1GR    C226  226   1.843   0.000   1.900  0.0000  0.0000  0.0000
    1GR    C227  227   1.914   0.123   1.900  0.0000  0.0000  0.0000
    1GR    C228  228   2.056   0.123   1.900  0.0000  0.0000  0.0000
    1GR    C229  229   1.702   0.246   1.900  0.0000  0.0000  0.0000
    1GR    C230  230   1.843   0.246   1.900  0.0000  0.0000  0.0000
    1GR    C231  231   1.914   0.368   1.900  0.0000  0.0000  0.0000
    1GR    C232  232   2.056   0.368   1.900  0.0000  0.0000  0.0000
    1GR    C233  233   1.702   0.491   1.900  0.0000  0.0000  0.0000
    1GR    C234  234   1.843   0.491   1.900  0.0000  0.0000  0.0000
    1GR    C235  235   1.914   0.614   1.900  0.0000  0.0000  0.0000
    1GR    C236  236   2.056   0.614   1.900  0.0000  0.0000  0.0000
    1GR    C237  237   1.702   0.737   1.900  0.0000  0.0000  0.0000
    1GR    C238  238   1.843   0.737   1.900  0.0000  0.0000  0.0000
    1GR    C239  239   1.914   0.860   1.900  0.0000  0.0000  0.0000
    1GR    C240  240   2.056   0.860   1.900  0.0000  0.0000  0.0000
    1GR    C241  241   1.702   0.982   1.900  0.0000  0.0000  0.0000
    1GR    C242  242   1.843   0.982   1.900  0.0000  0.0000  0.0000
    1GR    C243  243   1.914   1.105   1.900  0.0000  0.0000  0.0000
    1GR    C244  244   2.056   1.105   1.900  0.0000  0.0000  0.0000
    1GR    C245  245   1.702   1.228   1.900  0.0000  0.0000  0.0000
    1GR    C246  246   1.843   1.228   1.900  0.0000  0.0000  0.0000
    1GR    C247  247   1.914   1.351   1.900  0.0000  0.0000  0.0000
    1GR    C248  248   2.056   1.351   1.900  0.0000  0.0000  0.0000
    1GR    C249  249   1.702   1.474   1.900  0.0000  0.0000  0.0000
    1GR    C250  250   1.843   1.474   1.900  0.0000  0.0000  0.0000
    1GR    C251  251   1.914   1.596   1.900  0.0000  0.0000  0.0000
    1GR    C252  252   2.056   1.596   1.900  0.0000  0.0000  0.0000
    1GR    C253  253   1.702   1.719   1.900  0.0000  0.0000  0.0000
    1GR    C254  254   1.843   1.719   1.900  0.0000  0.0000  0.0000
    1GR    C255  255   1.914   1.842   1.900  0.0000  0.0000  0.0000
    1GR    C256  256   2.056   1.842   1.900  0.0000  0.0000  0.0000
    1GR    C257  257   1.702   1.965   1.900  0.0000  0.0000  0.0000
    1GR    C258  258   1.843   1.965   1.900  0.0000  0.0000  0.0000
    1GR    C259  259   1.914   2.088   1.900  0.0000  0.0000  0.0000
    1GR    C260  260   2.056   2.088   1.900  0.0000  0.0000  0.0000
    1GR    C261  261   1.702   2.210   1.900  0.0000  0.0000  0.0000
    1GR    C262  262   1.843   2.210   1.900  0.0000  0.0000  0.0000
    1GR    C263  263   1.914   2.333   1.900  0.0000  0.0000  0.0000
    1GR    C264  264   2.056   2.333   1.900  0.0000  0.0000  0.0000
    1GR    C265  265   1.702   2.456   1.900  0.0000  0.0000  0.0000
    1GR    C266  266   1.843   2.456   1.900  0.0000  0.0000  0.0000
    1GR    C267  267   1.914   2.579   1.900  0.0000  0.0000  0.0000
    1GR    C268  268   2.056   2.579   1.900  0.0000  0.0000  0.0000
    1GR    C269  269   1.702   2.702   1.900  0.0000  0.0000  0.0000
    1GR    C270  270   1.843   2.702   1.900  0.0000  0.0000  0.0000
    1GR    C271  271   1.914   2.824   1.900  0.0000  0.0000  0.0000
    1GR    C272  272   2.056   2.824   1.900  0.0000  0.0000  0.0000
    1GR    C273  273   1.702   2.947   1.900  0.0000  0.0000  0.0000
    1GR    C274  274   1.843   2.947   1.900  0.0000  0.0000  0.0000
    1GR    C275  275   1.914   3.070   1.900  0.0000  0.0000  0.0000
    1GR    C276  276   2.056   3.070   1.900  0.0000  0.0000  0.0000
    1GR    C277  277   1.702   3.193   1.900  0.0000  0.0000  0.0000
    1GR    C278  278   1.843   3.193   1.900  0.0000  0.0000  0.0000
    1GR    C279  279   1.914   3.316   1.900  0.0000  0.0000  0.0000
    1GR    C280  280   2.056   3.316   1.900  0.0000  0.0000  0.0000
    1GR    C281  281   2.127   0.000   1.900  0.0000  0.0000  0.0000
    1GR    C282  282   2.269   0.000   1.900  0.0000  0.0000  0.0000
    1GR    C283  283   2.340   0.123   1.900  0.0000  0.0000  0.0000
    1GR    C284  284   2.481   0.123   1.900  0.0000  0.0000  0.0000
    1GR    C285  285   2.127   0.246   1.900  0.0000  0.0000  0.0000
    1GR    C286  286   2.269   0.246   1.900  0.0000  0.0000  0.0000
    1GR    C287  287   2.340   0.368   1.900  0.0000  0.0000  0.0000
    1GR    C288  288   2.481   0.368   1.900  0.0000  0.0000  0.0000
    1GR    C289  289   2.127   0.491   1.900  0.0000  0.0000  0.0000
    1GR    C290  290   2.269   0.491   1.900  0.0000  0.0000  0.0000
    1GR    C291  291   2.340   0.614   1.900  0.0000  0.0000  0.0000
    1GR    C292  292   2.481   0.614   1.900  0.0000  0.0000  0.0000
    1GR    C293  293   2.127   0.737   1.900  0.0000  0.0000  0.0000
    1GR    C294  294   2.269   0.737   1.900  0.0000  0.0000  0.0000
    1GR    C295  295   2.340   0.860   1.900  0.0000  0.0000  0.0000
    1GR    C296  296   2.481   0.860   1.900  0.0000  0.0000  0.0000
    1GR    C297  297   2.127   0.982   1.900  0.0000  0.0000  0.0000
    1GR    C298  298   2.269   0.982   1.900  0.0000  0.0000  0.0000
    1GR    C299  299   2.340   1.105   1.900  0.0000  0.0000  0.0000
    1GR    C300  300   2.481   1.105   1.900  0.0000  0.0000  0.0000
    1GR    C301  301   2.127   1.228   1.900  0.0000  0.0000  0.0000
    1GR    C302  302   2.269   1.228   1.900  0.0000  0.0000  0.0000
    1GR    C303  303   2.340   1.351   1.900  0.0000  0.0000  0.0000
    1GR    C304  304   2.481   1.351   1.900  0.0000  0.0000  0.0000
    1GR    C305  305   2.127   1.474   1.900  0.0000  0.0000  0.0000
    1GR    C306  306   2.269   1.474   1.900  0.0000  0.0000  0.0000
    1GR    C307  307   2.340   1.596   1.900  0.0000  0.0000  0.0000
    1GR    C308  308   2.481   1.596   1.900  0.0000  0.0000  0.0000
    1GR    C309  309   2.127   1.719   1.900  0.0000  0.0000  0.0000
    1GR    C310  310   2.269   1.719   1.900  0.0000  0.0000  0.0000
    1GR    C311  311   2.340   1.842   1.900  0.0000  0.0000  0.0000
    1GR    C312  312   2.481   1.842   1.900  0.0000  0.0000  0.0000
    1GR    C313  313   2.127   1.965   1.900  0.0000  0.0000  0.0000
    1GR    C314  314   2.269   1.965   1.900  0.0000  0.0000  0.0000
    1GR    C315  315   2.340   2.088   1.900  0.0000  0.0000  0.0000
    1GR    C316  316   2.481   2.088   1.900  0.0000  0.0000  0.0000
    1GR    C317  317   2.127   2.210   1.900  0.0000  0.0000  0.0000
    1GR    C318  318   2.269   2.210   1.900  0.0000  0.0000  0.0000
    1GR    C319  319   2.340   2.333   1.900  0.0000  0.0000  0.0000
    1GR    C320  320   2.481   2.333   1.900  0.0000  0.0000  0.0000
    1GR    C321  321   2.127   2.456   1.900  0.0000  0.0000  0.0000
    1GR    C322  322   2.269   2.456   1.900  0.0000  0.0000  0.0000
    1GR    C323  323   2.340   2.579   1.900  0.0000  0.0000  0.0000
    1GR    C324  324   2.481   2.579   1.900  0.0000  0.0000  0.0000
    1GR    C325  325   2.127   2.702   1.900  0.0000  0.0000  0.0000
    1GR    C326  326   2.269   2.702   1.900  0.0000  0.0000  0.0000
    1GR    C327  327   2.340   2.824   1.900  0.0000  0.0000  0.0000
    1GR    C328  328   2.481   2.824   1.900  0.0000  0.0000  0.0000
    1GR    C329  329   2.127   2.947   1.900  0.0000  0.0000  0.0000
    1GR    C330  330   2.269   2.947   1.900  0.0000  0.0000  0.0000
    1GR    C331  331   2.340   3.070   1.900  0.0000  0.0000  0.0000
    1GR    C332  332   2.481   3.070   1.900  0.0000  0.0000  0.0000
    1GR    C333  333   2.127   3.193   1.900  0.0000  0.0000  0.0000
    1GR    C334  334   2.269   3.193   1.900  0.0000  0.0000  0.0000
    1GR    C335  335   2.340   3.316   1.900  0.0000  0.0000  0.0000
    1GR    C336  336   2.481   3.316   1.900  0.0000  0.0000  0.0000
    1GR    C337  337   2.552   0.000   1.900  0.0000  0.0000  0.0000
    1GR    C338  338   2.694   0.000   1.900  0.0000  0.0000  0.0000
    1GR    C339  339   2.765   0.123   1.900  0.0000  0.0000  0.0000
    1GR    C340  340   2.907   0.123   1.900  0.0000  0.0000  0.0000
    1GR    C341  341   2.552   0.246   1.900  0.0000  0.0000  0.0000
    1GR    C342  342   2.694   0.246   1.900  0.0000  0.0000  0.0000
    1GR    C343  343   2.765   0.368   1.900  0.0000  0.0000  0.0000
    1GR    C344  344   2.907   0.368   1.900  0.0000  0.0000  0.0000
    1GR    C345  345   2.552   0.491   1.900  0.0000  0.0000  0.0000
    1GR    C346  346   2.694   0.491   1.900  0.0000  0.0000  0.0000
    1GR    C347  347   2.765   0.614   1.900  0.0000  0.0000  0.0000
    1GR    C348  348   2.907   0.614   1.900  0.0000  0.0000  0.0000
    1GR    C349  349   2.552   0.737   1.900  0.0000  0.0000  0.0000
    1GR    C350  350   2.694   0.737   1.900  0.0000  0.0000  0.0000
    1GR    C351  351   2.765   0.860   1.900  0.0000  0.0000  0.0000
    1GR    C352  352   2.907   0.860   1.900  0.0000  0.0000  0.0000
    1GR    C353  353   2.552   0.982   1.900  0.0000  0.0000  0.0000
    1GR    C354  354   2.694   0.982   1.900  0.0000  0.0000  0.0000
    1GR    C355  355   2.765   1.105   1.900  0.0000  0.0000  0.0000
    1GR    C356  356   2.907   1.105   1.900  0.0000  0.0000  0.0000
    1GR    C357  357   2.552   1.228   1.900  0.0000  0.0000  0.0000
    1GR    C358  358   2.694   1.228   1.900  0.0000  0.0000  0.0000
    1GR    C359  359   2.765   1.351   1.900  0.0000  0.0000  0.0000
    1GR    C360  360   2.907   1.351   1.900  0.0000  0.0000  0.0000
    1GR    C361  361   2.552   1.474   1.900  0.0000  0.0000  0.0000
    1GR    C362  362   2.694   1.474   1.900  0.0000  0.0000  0.0000
    1GR    C363  363   2.765   1.596   1.900  0.0000  0.0000  0.0000
    1GR    C364  364   2.907   1.596   1.900  0.0000  0.0000  0.0000
    1GR    C365  365   2.552   1.719   1.900  0.0000  0.0000  0.0000
    1GR    C366  366   2.694   1.719   1.900  0.0000  0.0000  0.0000
    1GR    C367  367   2.765   1.842   1.900  0.0000  0.0000  0.0000
    1GR    C368  368   2.907   1.842   1.900  0.0000  0.0000  0.0000
    1GR    C369  369   2.552   1.965   1.900  0.0000  0.0000  0.0000
    1GR    C370  370   2.694   1.965   1.900  0.0000  0.0000  0.0000
    1GR    C371  371   2.765   2.088   1.900  0.0000  0.0000  0.0000
    1GR    C372  372   2.907   2.088   1.900  0.0000  0.0000  0.0000
    1GR    C373  373   2.552   2.210   1.900  0.0000  0.0000  0.0000
    1GR    C374  374   2.694   2.210   1.900  0.0000  0.0000  0.0000
    1GR    C375  375   2.765   2.333   1.900  0.0000  0.0000  0.0000
    1GR    C376  376   2.907   2.333   1.900  0.0000  0.0000  0.0000
    1GR    C377  377   2.552   2.456   1.900  0.0000  0.0000  0.0000
    1GR    C378  378   2.694   2.456   1.900  0.0000  0.0000  0.0000
    1GR    C379  379   2.765   2.579   1.900  0.0000  0.0000  0.0000
    1GR    C380  380   2.907   2.579   1.900  0.0000  0.0000  0.0000
    1GR    C381  381   2.552   2.702   1.900  0.0000  0.0000  0.0000
    1GR    C382  382   2.694   2.702   1.900  0.0000  0.0000  0.0000
    1GR    C383  383   2.765   2.824   1.900  0.0000  0.0000  0.0000
    1GR    C384  384   2.907   2.824   1.900  0.0000  0.0000  0.0000
    1GR    C385  385   2.552   2.947   1.900  0.0000  0.0000  0.0000
    1GR    C386  386   2.694   2.947   1.900  0.0000  0.0000  0.0000
    1GR    C387  387   2.765   3.070   1.900  0.0000  0.0000  0.0000
    1GR    C388  388   2.907   3.070   1.900  0.0000  0.0000  0.0000
    1GR    C389  389   2.552   3.193   1.900  0.0000  0.0000  0.0000
    1GR    C390  390   2.694   3.193   1.900  0.0000  0.0000  0.0000
    1GR    C391  391   2.765   3.316   1.900  0.0000  0.0000  0.0000
    1GR    C392  392   2.907   3.316   1.900  0.0000  0.0000  0.0000
    1GR    C393  393   2.978   0.000   1.900  0.0000  0.0000  0.0000
    1GR    C394  394   3.120   0.000   1.900  0.0000  0.0000  0.0000
    1GR    C395  395   3.191   0.123   1.900  0.0000  0.0000  0.0000
    1GR    C396  396   3.332   0.123   1.900  0.0000  0.0000  0.0000
    1GR    C397  397   2.978   0.246   1.900  0.0000  0.0000  0.0000
    1GR    C398  398   3.120   0.246   1.900  0.0000  0.0000  0.0000
    1GR    C399  399   3.191   0.368   1.900  0.0000  0.0000  0.0000
    1GR    C400  400   3.332   0.368   1.900  0.0000  0.0000  0.0000
    1GR    C401  401   2.978   0.491   1.900  0.0000  0.0000  0.0000
    1GR    C402  402   3.120   0.491   1.900  0.0000  0.0000  0.0000
    1GR    C403  403   3.191   0.614   1.900  0.0000  0.0000  0.0000
    1GR    C404  404   3.332   0.614   1.900  0.0000  0.0000  0.0000
    1GR    C405  405   2.978   0.737   1.900  0.0000  0.0000  0.0000
    1GR    C406  406   3.120   0.737   1.900  0.0000  0.0000  0.0000
    1GR    C407  407   3.191   0.860   1.900  0.0000  0.0000  0.0000
    1GR    C408  408   3.332   0.860   1.900  0.0000  0.0000  0.0000
    1GR    C409  409   2.978   0.982   1.900  0.0000  0.0000  0.0000
    1GR    C410  410   3.120   0.982   1.900  0.0000  0.0000  0.0000
    1GR    C411  411   3.191   1.105   1.900  0.0000  0.0000  0.0000
    1GR    C412  412   3.332   1.105   1.900  0.0000  0.0000  0.0000
    1GR    C413  413   2.978   1.228   1.900  0.0000  0.0000  0.0000
    1GR    C414  414   3.120   1.228   1.900  0.0000  0.0000  0.0000
    1GR    C415  415   3.191   1.351   1.900  0.0000  0.0000  0.0000
    1GR    C416  416   3.332   1.351   1.900  0.0000  0.0000  0.0000
    1GR    C417  417   2.978   1.474   1.900  0.0000  0.0000  0.0000
    1GR    C418  418   3.120   1.474   1.900  0.0000  0.0000  0.0000
    1GR    C419  419   3.191   1.596   1.900  0.0000  0.0000  0.0000
    1GR    C420  420   3.332   1.596   1.900  0.0000  0.0000  0.0000
    1GR    C421  421   2.978   1.719   1.900  0.0000  0.0000  0.0000
    1GR    C422  422   3.120   1.719   1.900  0.0000  0.0000  0.0000
    1GR    C423  423   3.191   1.842   1.900  0.0000  0.0000  0.0000
    1GR    C424  424   3.332   1.842   1.900  0.0000  0.0000  0.0000
    1GR    C425  425   2.978   1.965   1.900  0.0000  0.0000  0.0000
    1GR    C426  426   3.120   1.965   1.900  0.0000  0.0000  0.0000
    1GR    C427  427   3.191   2.088   1.900  0.0000  0.0000  0.0000
    1GR    C428  428   3.332   2.088   1.900  0.0000  0.0000  0.0000
    1GR    C429  429   2.978   2.210   1.900  0.0000  0.0000  0.0000
    1GR    C430  430   3.120   2.210   1.900  0.0000  0.0000  0.0000
    1GR    C431  431   3.191   2.333   1.900  0.0000  0.0000  0.0000
    1GR    C432  432   3.332   2.333   1.900  0.0000  0.0000  0.0000
    1GR    C433  433   2.978   2.456   1.900  0.0000  0.0000  0.0000
    1GR    C434  434   3.120   2.456   1.900  0.0000  0.0000  0.0000
    1GR    C435  435   3.191   2.579   1.900  0.0000  0.0000  0.0000
    1GR    C436  436   3.332   2.579   1.900  0.0000  0.0000  0.0000
    1GR    C437  437   2.978   2.702   1.900  0.0000  0.0000  0.0000
    1GR    C438  438   3.120   2.702   1.900  0.0000  0.0000  0.0000
    1GR    C439  439   3.191   2.824   1.900  0.0000  0.0000  0.0000
    1GR    C440  440   3.332   2.824   1.900  0.0000  0.0000  0.0000
    1GR    C441  441   2.978   2.947   1.900  0.0000  0.0000  0.0000
    1GR    C442  442   3.120   2.947   1.900  0.0000  0.0000  0.0000
    1GR    C443  443   3.191   3.070   1.900  0.0000  0.0000  0.0000
    1GR    C444  444   3.332   3.070   1.900  0.0000  0.0000  0.0000
    1GR    C445  445   2.978   3.193   1.900  0.0000  0.0000  0.0000
    1GR    C446  446   3.120   3.193   1.900  0.0000  0.0000  0.0000
    1GR    C447  447   3.191   3.316   1.900  0.0000  0.0000  0.0000
    1GR    C448  448   3.332   3.316   1.900  0.0000  0.0000  0.0000
    2PMMA   CX1  449   0.582   0.690   2.302 -0.9381 -0.6313 -0.2691
    2PMMA   CA2  450   0.703   0.690   2.400  0.3218 -0.3304  0.3221
    2PMMA   CX3  451   0.813   0.772   2.327 -0.3119 -0.1560  0.3069
    2PMMA    C4  452   0.639   0.748   2.526  0.1569  0.5654 -1.1527
    2PMMA    O5  453   0.543   0.701   2.583 -0.0650 -0.4568  0.7354
    2PMMA   OS6  454   0.705   0.861   2.573 -0.2837  0.2936 -0.1547
    2PMMA   CE7  455   0.660   0.926   2.688 -0.1296  0.0039  0.4629
    2PMMA   CX8  456   0.747   0.540   2.416  0.0003 -0.0634 -0.5731
    2PMMA   CA9  457   0.875   0.503   2.498  0.1828  0.0190 -0.5972
    2PMMA  CX10  458   0.997   0.510   2.399  0.8281  0.7165 -0.3283
    2PMMA   C11  459   0.855   0.356   2.533 -0.1538  0.1350 -0.1791
    2PMMA   O12  460   0.893   0.259   2.472 -0.3057  0.0013  0.3335
    2PMMA  OS13  461   0.763   0.340   2.629 -0.1440 -0.4319  0.3504
    2PMMA  CE14  462   0.710   0.221   2.678 -0.1022 -0.4377  0.5796
    2PMMA  CX15  463   0.886   0.587   2.628 -0.0001  0.1545 -0.8750
    2PMMA  CA16  464   0.994   0.577   2.756  0.1217  0.4535  0.1804
    2PMMA  CX17  465   0.933   0.670   2.861 -1.0813 -0.5491  0.2873
    2PMMA   C18  466   0.996   0.425   2.793  0.4493  0.3318  0.4045
    2PMMA   O19  467   0.947   0.380   2.894  1.1590  0.2931 -0.2365
    2PMMA  OS20  468   1.072   0.342   2.714  0.9301 -1.4171  0.3126
    2PMMA  CE21  469   1.101   0.210   2.752  0.0869  0.2577  0.0237
    2PMMA  CX22  470   1.133   0.632   2.700  0.2078 -0.1399 -0.3390
    2PMMA  CA23  471   1.252   0.672   2.798  0.7778  0.1704 -0.3166
    2PMMA  CX24  472   1.283   0.558   2.891 -0.1817 -0.0717 -0.4210
    2PMMA   C25  473   1.226   0.814   2.858 -0.5709 -0.2415 -1.2274
    2PMMA   O26  474   1.214   0.913   2.791  0.1179 -0.6039  0.0727
    2PMMA  OS27  475   1.191   0.807   2.989 -0.7068  0.0438  0.1780
    2PMMA  CE28  476   1.132   0.915   3.057  0.2016  0.2184  0.0557
    2PMMA  CX29  477   1.381   0.690   2.709  0.6191 -1.2795 -0.0764
    2PMMA  HC30  478   0.516   0.778   2.300  0.5976  0.5138 -1.6705
    2PMMA  HC31  479   0.619   0.673   2.200  1.4952 -1.8128  0.7758
    2PMMA  HC32  480   0.522   0.600   2.321  1.4233 -2.3931 -1.0000
    2PMMA  HC33  481   0.898   0.792   2.394  1.7927 -2.6154 -1.5245
    2PMMA  HC34  482   0.764   0.866   2.303  2.0063  1.2543  0.9313
    2PMMA  HC35  483   0.844   0.723   2.234  2.3387  1.6826  0.1853
    2PMMA  H136  484   0.698   1.026   2.667  1.2022 -1.2306 -3.6052
    2PMMA  H137  485   0.707   0.886   2.778 -0.0266  0.4429  0.6023
    2PMMA  H138  486   0.552   0.922   2.705 -0.4279 -2.0341 -1.6448
    2PMMA  HC39  487   0.662   0.491   2.462  0.7125 -0.0076  0.8177
    2PMMA  HC40  488   0.744   0.495   2.316 -1.6286  0.2463 -0.6651
    2PMMA  HC41  489   0.981   0.462   2.302  0.6977 -0.6296  0.3538
    2PMMA  HC42  490   1.027   0.614   2.386  2.0452  0.3214 -0.7364
    2PMMA  HC43  491   1.077   0.452   2.447  1.0650  1.4585  0.1853
    2PMMA  H144  492   0.607   0.238   2.711  0.5889 -1.0298  3.2147
    2PMMA  H145  493   0.782   0.181   2.750  0.6944  2.6476  1.5672
    2PMMA  H146  494   0.710   0.151   2.594  1.3230  3.3150 -2.6908
    2PMMA  HC47  495   0.900   0.686   2.584 -2.0155 -0.4379 -2.9461
    2PMMA  HC48  496   0.787   0.606   2.671 -0.5966  1.5267 -2.7806
    2PMMA  HC49  497   0.939   0.773   2.825  0.3066 -1.2122 -1.4341
    2PMMA  HC50  498   0.979   0.669   2.960  1.1183  3.1460 -0.6289
    2PMMA  HC51  499   0.825   0.651   2.872 -0.6329 -2.6150  1.4487
    2PMMA  H152  500   1.141   0.204   2.853 -1.2585  0.8231  0.6120
    2PMMA  H153  501   1.167   0.166   2.677  0.2641 -0.4541  0.5852
    2PMMA  H154  502   1.010   0.151   2.764  1.6489 -2.0832  0.6757
    2PMMA  HC55  503   1.164   0.552   2.632 -1.7025 -1.8683  0.7497
    2PMMA  HC56  504   1.104   0.714   2.633 -2.3154 -0.7049 -0.0227
    2PMMA  HC57  505   1.297   0.465   2.834  1.9318  0.3874 -0.6647
    2PMMA  HC58  506   1.370   0.575   2.955 -1.9067 -0.6982  2.1737
    2PMMA  HC59  507   1.197   0.544   2.958  1.0722  1.9604  1.6622
    2PMMA  H160  508   1.125   0.885   3.162  1.2566 -0.2849 -0.0129
    2PMMA  H161  509   1.033   0.945   3.020 -0.7489  0.0785  2.3714
    2PMMA  H162  510   1.196   1.004   3.050 -1.8271  1.6563 -0.8771
    2PMMA  HC63  511   1.370   0.752   2.619  0.3207 -0.0033  0.8274
    2PMMA  HC64  512   1.461   0.735   2.768 -0.6704  3.3281 -1.5862
    2PMMA  HC65  513   1.422   0.595   2.673 -0.7073 -1.6208 -0.7221
    3HFI     O1  514   0.665   1.015   0.941 -0.4450 -0.2501  0.1848
    3HFI     C1  515   0.544   0.940   0.907 -1.0064 -0.4407  0.4577
    3HFI     C2  516   0.498   0.867   1.039 -0.5511  0.0323 -1.1220
    3HFI     F1  517   0.579   0.760   1.066  0.4726 -0.3445 -0.0775
    3HFI     F2  518   0.368   0.822   1.038 -0.3146  0.3554 -0.2484
    3HFI     F3  519   0.503   0.951   1.141 -0.3327  0.1231 -0.3409
    3HFI     C3  520   0.565   0.846   0.785 -0.5379  0.2384 -0.6274
    3HFI     F4  521   0.681   0.778   0.787  0.0187 -0.3664 -0.0157
    3HFI     F5  522   0.562   0.925   0.669  0.5702 -0.0523 -0.1950
    3HFI     F6  523   0.464   0.755   0.778 -0.1829  0.1418  0.2285
    3HFI     H1  524   0.743   0.959   0.956  0.3597  0.1862 -2.1746
    3HFI     H2  525   0.459   1.009   0.898  0.1440  0.8006 -1.1344
    4HFI     O1  526   2.895   3.141   1.441  0.3749  0.1371  0.1518
    4HFI     C1  527   2.844   3.039   1.530  0.0295 -0.4716  0.2475
    4HFI     C2  528   2.907   2.904   1.473  0.5568 -0.2563 -0.7637
    4HFI     F1  529   2.878   2.801   1.560  0.3228  0.5226 -0.5099
    4HFI     F2  530   3.041   2.911   1.463 -0.5013 -0.5955 -0.1097
    4HFI     F3  531   2.866   2.877   1.353 -0.4204 -0.2224 -0.3540
    4HFI     C3  532   2.695   3.037   1.540  0.0266 -0.3492 -0.3234
    4HFI     F4  533   2.641   3.036   1.418 -0.3835 -0.1142  0.2313
    4HFI     F5  534   2.652   3.159   1.589 -0.0158 -0.3691  0.4525
    4HFI     F6  535   2.647   2.936   1.611  0.3938  0.6709  0.7317
    4HFI     H1  536   2.832   3.212   1.422  1.5977  0.6554 -2.0973
    4HFI     H2  537   2.889   3.035   1.630  0.3364  1.8244  0.2275
    5HFI     O1  538   1.650   0.871   0.169  0.1262 -0.1519  0.6211
    5HFI     C1  539   1.553   0.951   0.119  0.3938  0.7786  0.2093
    5HFI     C2  540   1.435   0.860   0.067 -1.3087 -0.6529 -0.5579
    5HFI     F1  541   1.318   0.926   0.044 -0.1174  0.3062 -0.0217
    5HFI     F2  542   1.403   0.761   0.154  0.3548  0.4491 -0.0435
    5HFI     F3  543   1.473   0.790  -0.042 -0.4157  0.4160 -0.0946
    5HFI     C3  544   1.609   1.047   0.005  1.1851  0.0308 -1.2579
    5HFI     F4  545   1.516   1.132  -0.041 -0.2097  0.7116  0.3427
    5HFI     F5  546   1.662   0.975  -0.102 -0.1434  0.0329 -0.2270
    5HFI     F6  547   1.711   1.128   0.053  0.0992 -0.0319  0.1577
    5HFI     H1  548   1.709   0.835   0.100  0.5431  0.6151  0.5780
    5HFI     H2  549   1.523   1.012   0.205 -0.8505 -1.4984  1.4450
    6HFI     O1  550   0.176   0.474   0.234 -0.1082 -0.2288  0.2472
    6HFI     C1  551   0.275   0.441   0.337 -0.3649 -0.7850  0.1219
    6HFI     C2  552   0.284   0.560   0.441 -0.5044  0.5513 -0.4739
    6HFI     F1  553   0.361   0.661   0.406 -0.2557 -0.3385 -0.0075
    6HFI     F2  554   0.334   0.514   0.559 -0.2857 -0.2855 -0.1152
    6HFI     F3  555   0.159   0.609   0.477  0.0934  0.0290 -0.6461
    6HFI     C3  556   0.421   0.392   0.298 -0.2395 -0.1224  0.5713
    6HFI     F4  557   0.492   0.492   0.242  0.3252  0.7349 -0.1185
    6HFI     F5  558   0.422   0.294   0.200 -0.0915  0.0360 -0.0105
    6HFI     F6  559   0.489   0.357   0.406 -0.2987  0.1210 -0.0109
    6HFI     H1  560   0.092   0.499   0.276 -0.8432 -3.4767  0.8916
    6HFI     H2  561   0.230   0.360   0.397 -0.1195  0.2578  1.7502
    7HFI     O1  562   0.218   3.337   3.454 -0.4337  0.1160  0.2808
    7HFI     C1  563   0.356   3.378   3.404 -0.2630  0.2089  0.2976
    7HFI     C2  564   0.430   3.272   3.310  0.1355 -0.1188  0.6836
    7HFI     F1  565   0.456   3.156   3.369 -0.4762  0.4146  0.3773
    7HFI     F2  566   0.543   3.319   3.265  0.2003 -0.4318  0.1595
    7HFI     F3  567   0.353   3.246   3.204  0.1994 -0.5676 -0.1217
    7HFI     C3  568   0.448   3.413   3.534  0.4574 -0.5259 -0.2229
    7HFI     F4  569   0.474   3.306   3.606  0.1361 -0.0392  0.1059
    7HFI     F5  570   0.376   3.501   3.610 -0.3065  0.6346 -0.1132
    7HFI     F6  571   0.571   3.469   3.498  0.0142 -0.4806 -0.2364
    7HFI     H1  572   0.234   3.317   3.547  0.7246 -1.3023 -0.2080
    7HFI     H2  573   0.345   3.473   3.352 -3.1059  0.1510  0.7505
    8HFI     O1  574   2.654   0.231   0.230  0.9320  0.5835  0.1781
    8HFI     C1  575   2.788   0.196   0.187 -0.3210 -0.0383  0.0708
    8HFI     C2  576   2.887   0.295   0.242  0.1273 -0.8401  1.0337
    8HFI     F1  577   2.842   0.424   0.210  0.0611 -0.2206  0.4573
    8HFI     F2  578   3.010   0.284   0.196  0.1252  0.0816  0.1911
    8HFI     F3  579   2.901   0.287   0.368  0.2988  0.1339 -0.7312
    8HFI     C3  580   2.788   0.173   0.031 -0.1900  0.2359 -0.1023
    8HFI     F4  581   2.869   0.073   0.001 -0.1912  0.0276 -0.5614
    8HFI     F5  582   2.833   0.279  -0.041  0.0939 -0.2065  0.5591
    8HFI     F6  583   2.667   0.126  -0.012  0.2321  0.7104 -0.3393
    8HFI     H1  584   2.596   0.272   0.163 -0.9313 -1.8282  0.2583
    8HFI     H2  585   2.825   0.102   0.229 -0.4895  0.1025  0.5326
    9HFI     O1  586   0.150   3.342   3.748  0.2593  0.4239 -0.4059
    9HFI     C1  587   0.160   3.423   3.869 -0.3875  1.1527 -0.5663
    9HFI     C2  588   0.182   3.333   3.995  0.2360 -0.2461 -0.9466
    9HFI     F1  589   0.202   3.402   4.109 -0.1479 -0.3797 -0.8308
    9HFI     F2  590   0.285   3.247   3.973 -0.3268 -0.2149  0.1692
    9HFI     F3  591   0.069   3.252   4.002 -0.4420 -0.0582  0.1635
    9HFI     C3  592   0.058   3.527   3.886 -0.3833  0.1357  0.0673
    9HFI     F4  593   0.059   3.601   3.775  0.0083  0.3923 -0.2744
    9HFI     F5  594   0.080   3.613   3.989 -0.2816 -0.1172  0.0392
    9HFI     F6  595  -0.062   3.475   3.909  0.7657  0.0204 -0.6100
    9HFI     H1  596   0.077   3.281   3.768  1.1815 -1.1287 -1.6167
    9HFI     H2  597   0.254   3.480   3.872  0.7846 -0.7678  0.2842
   10HFI     O1  598   0.487   0.986   3.075 -0.1297 -0.4931 -0.2534
   10HFI     C1  599   0.599   0.989   3.166 -0.2024  0.4928  0.7374
   10HFI     C2  600   0.732   1.049   3.105  0.5897 -0.2754  0.2061
   10HFI     F1  601   0.708   1.164   3.050 -0.2092 -0.2585  0.3831
   10HFI     F2  602   0.773   0.960   3.007 -0.7173 -0.2076  0.0625
   10HFI     F3  603   0.833   1.064   3.198 -0.9319 -0.2210 -0.8061
   10HFI     C3  604   0.616   0.853   3.234 -0.0385 -0.8419  0.2551
   10HFI     F4  605   0.635   0.752   3.139 -0.1558 -0.1664 -0.4943
   10HFI     F5  606   0.500   0.829   3.307 -0.2781  0.4548  0.4076
   10HFI     F6  607   0.723   0.848   3.317 -0.3007 -0.4321 -0.5167
   10HFI     H1  608   0.437   0.903   3.082 -1.6817  0.6229  3.7568
   10HFI     H2  609   0.589   1.061   3.247 -0.1264  0.9104  0.3779
   11HFI     O1  610   1.116   2.784   3.580 -0.3459 -0.1378 -1.2690
   11HFI     C1  611   1.017   2.884   3.624  0.6530  0.6049  0.7258
   11HFI     C2  612   1.033   3.019   3.558  0.3029  0.1529  0.0157
   11HFI     F1  613   0.922   3.096   3.560 -0.2032  0.5180 -0.6568
   11HFI     F2  614   1.054   2.982   3.425  0.2962  0.3086 -0.2140
   11HFI     F3  615   1.133   3.094   3.611  0.1550  0.0550  0.0952
   11HFI     C3  616   1.000   2.889   3.780 -0.2430  0.0965  0.5759
   11HFI     F4  617   0.899   2.968   3.824  0.6178 -0.0594  0.6615
   11HFI     F5  618   1.122   2.920   3.840  0.4005 -0.1106  0.0620
   11HFI     F6  619   0.966   2.767   3.822 -0.2654  0.2039 -0.3252
   11HFI     H1  620   1.100   2.775   3.484  0.8618 -1.5705 -1.3624
   11HFI     H2  621   0.917   2.846   3.596  1.0235  0.3362 -0.2693
   12HFI     O1  622   1.065   1.661   3.262  0.4388 -0.6994  0.7586
   12HFI     C1  623   1.119   1.526   3.278  0.2903  0.1011 -0.7227
   12HFI     C2  624   1.247   1.513   3.364 -0.1396 -0.4896  0.0519
   12HFI     F1  625   1.247   1.594   3.476  0.1098 -0.2260  0.4484
   12HFI     F2  626   1.358   1.546   3.302 -0.1797 -0.0698  0.2384
   12HFI     F3  627   1.254   1.390   3.417  0.0603  0.1644 -0.6875
   12HFI     C3  628   1.132   1.464   3.138 -0.7449  0.4203  0.1520
   12HFI     F4  629   1.188   1.343   3.143 -0.2165 -0.0259  0.4174
   12HFI     F5  630   1.214   1.541   3.061 -0.7937  0.4729  0.5554
   12HFI     F6  631   1.009   1.447   3.073 -0.6697 -0.6190 -0.1486
   12HFI     H1  632   1.069   1.712   3.344  1.0537  0.2192  0.1648
   12HFI     H2  633   1.043   1.461   3.324 -0.5538  0.7913 -1.1229
   13HFI     O1  634   2.787   2.755   3.251 -0.0994 -0.4739  0.0846
   13HFI     C1  635   2.877   2.846   3.319  0.1272  0.0374 -0.5009
   13HFI     C2  636   2.955   2.774   3.421 -0.0980 -0.5768 -0.9170
   13HFI     F1  637   3.058   2.851   3.457  0.0663 -0.3781 -0.2287
   13HFI     F2  638   3.008   2.655   3.374  0.3454 -0.3809 -0.8191
   13HFI     F3  639   2.893   2.761   3.536 -0.2538  0.0800 -0.1235
   13HFI     C3  640   2.801   2.969   3.371  0.1535 -0.1577  0.2316
   13HFI     F4  641   2.685   2.931   3.436 -0.1599  0.3096  0.2022
   13HFI     F5  642   2.771   3.039   3.262  0.0820 -0.2867 -0.5129
   13HFI     F6  643   2.880   3.042   3.458  0.1426  0.6738  0.3404
   13HFI     H1  644   2.702   2.745   3.297 -0.7514  1.1567 -0.7399
   13HFI     H2  645   2.948   2.885   3.245 -1.3881  3.3628 -0.2677
   14HFI     O1  646   1.462   1.001   0.758 -0.1785 -0.0986  0.2137
   14HFI     C1  647   1.425   0.892   0.675 -0.4502 -0.4230 -0.0360
   14HFI     C2  648   1.520   0.883   0.549  0.2430 -0.2596 -0.6490
   14HFI     F1  649   1.650   0.873   0.585 -0.7760  0.4248  0.3525
   14HFI     F2  650   1.521   0.998   0.476  0.2906  0.8111  0.1203
   14HFI     F3  651   1.487   0.780   0.465 -0.5628  0.5275 -0.1945
   14HFI     C3  652   1.276   0.893   0.630  0.6611 -0.5628 -0.3211
   14HFI     F4  653   1.237   0.785   0.553  0.1209 -0.2160  0.5906
   14HFI     F5  654   1.252   1.004   0.562  0.4937  0.3668  0.0328
   14HFI     F6  655   1.200   0.892   0.737  0.0947 -0.1253 -0.0011
   14HFI     H1  656   1.490   1.072   0.698 -0.1003 -1.6718 -1.6716
   14HFI     H2  657   1.439   0.793   0.720  1.1366 -0.1063  0.2112
   15HFI     O1  658   3.035   1.500   1.563  0.5940  0.2474  0.1596
   15HFI     C1  659   2.992   1.637   1.538 -1.4050  0.0955 -0.0863
   15HFI     C2  660   2.866   1.635   1.444  0.2051  0.3600  0.2702
   15HFI     F1  661   2.757   1.588   1.512 -0.0410 -0.5576  0.0807
   15HFI     F2  662   2.881   1.558   1.337  0.1288 -0.1158  0.6784
   15HFI     F3  663   2.829   1.756   1.398  0.4198 -0.0540  0.0837
   15HFI     C3  664   3.101   1.732   1.493 -0.6810  0.0899 -0.2331
   15HFI     F4  665   3.130   1.708   1.362 -0.2274 -0.1206 -0.3936
   15HFI     F5  666   3.217   1.725   1.565  0.0599  0.3328 -0.2451
   15HFI     F6  667   3.058   1.863   1.493 -0.3483 -0.0690  0.1561
   15HFI     H1  668   3.110   1.472   1.508  1.4307  1.3038  0.7351
   15HFI     H2  669   2.948   1.673   1.632 -1.4522  0.3247 -0.1964
   16HFI     O1  670   3.082   2.625   0.474  0.0733 -0.0637  0.1121
   16HFI     C1  671   2.967   2.645   0.566 -0.1044  0.3492  0.1015
   16HFI     C2  672   2.859   2.532   0.543 -0.1471  0.5349  0.0184
   16HFI     F1  673   2.879   2.431   0.633  0.7929  0.0478 -0.6846
   16HFI     F2  674   2.872   2.478   0.416 -0.3376 -0.3147  0.5447
   16HFI     F3  675   2.730   2.565   0.564 -0.5116  0.5046  0.4408
   16HFI     C3  676   2.914   2.790   0.552 -0.2278 -0.3497 -0.2137
   16HFI     F4  677   2.883   2.834   0.675  0.0893 -0.0055 -0.0723
   16HFI     F5  678   2.812   2.802   0.474 -0.2310 -0.3534  0.3636
   16HFI     F6  679   3.010   2.876   0.508  0.3656  0.4377 -0.3366
   16HFI     H1  680   3.056   2.583   0.391 -1.6571  3.1457 -1.0459
   16HFI     H2  681   3.003   2.631   0.669 -1.0785 -2.1455  0.1356
   17HFI     O1  682   1.787   1.425   1.098  0.1257 -0.4519  0.4089
   17HFI     C1  683   1.786   1.315   1.005  0.2867  0.2634 -0.2019
   17HFI     C2  684   1.733   1.360   0.869 -0.7471  0.7993 -0.4109
   17HFI     F1  685   1.763   1.260   0.780  0.4291  0.3888 -0.4179
   17HFI     F2  686   1.789   1.468   0.819 -0.0444 -0.0271  0.1239
   17HFI     F3  687   1.596   1.388   0.859 -0.4644 -0.7530  0.6400
   17HFI     C3  688   1.708   1.193   1.068  1.2277 -0.3885  0.1916
   17HFI     F4  689   1.794   1.133   1.149 -0.0707  0.1806  0.1314
   17HFI     F5  690   1.666   1.105   0.968 -0.6920 -0.0917  0.1374
   17HFI     F6  691   1.604   1.232   1.140  0.3029 -0.0229  0.3611
   17HFI     H1  692   1.714   1.408   1.160  1.3598 -1.1408  1.7006
   17HFI     H2  693   1.887   1.276   0.985 -0.1981 -0.2272 -1.7401
   18HFI     O1  694   2.645   0.013   3.157  0.4380 -0.1940  0.3449
   18HFI     C1  695   2.698  -0.058   3.273 -0.5752  1.1417 -0.1554
   18HFI     C2  696   2.621  -0.015   3.401  0.6639  0.2395  0.5708
   18HFI     F1  697   2.659   0.110   3.449 -0.1994  0.3907 -0.2611
   18HFI     F2  698   2.640  -0.106   3.495 -0.1434  0.1708  0.1668
   18HFI     F3  699   2.488  -0.005   3.371  0.0348  0.1918 -0.2977
   18HFI     C3  700   2.859  -0.048   3.278  0.6092  0.5602 -0.1132
   18HFI     F4  701   2.922  -0.111   3.176 -0.3291  0.9412 -0.0428
   18HFI     F5  702   2.909  -0.102   3.386 -0.1998 -0.2803  0.0787
   18HFI     F6  703   2.889   0.084   3.271  0.1899 -0.3668 -0.1131
   18HFI     H1  704   2.558  -0.024   3.131  1.1432 -1.5750 -0.1177
   18HFI     H2  705   2.670  -0.164   3.263 -1.0721  1.3264 -0.7518
   19HFI     O1  706   1.714   0.192   0.507  0.6785  0.0433  0.5849
   19HFI     C1  707   1.831   0.271   0.489 -0.0858  0.5768 -0.2495
   19HFI     C2  708   1.930   0.195   0.399 -0.7601  0.1285  0.3501
   19HFI     F1  709   1.860   0.155   0.292 -1.1030 -0.1188  0.4451
   19HFI     F2  710   1.983   0.085   0.459 -0.2276  0.3552 -0.0306
   19HFI     F3  711   2.030   0.281   0.361  0.3463  0.8943  0.6588
   19HFI     C3  712   1.901   0.311   0.629 -0.4509 -0.4593  0.8877
   19HFI     F4  713   2.017   0.372   0.601  0.7496 -0.2666  0.1151
   19HFI     F5  714   1.927   0.200   0.701 -0.3600  0.3917 -0.5886
   19HFI     F6  715   1.826   0.401   0.700 -0.7205  0.2571 -0.3562
   19HFI     H1  716   1.691   0.148   0.423  0.4436  0.1411  0.5964
   19HFI     H2  717   1.799   0.365   0.443 -1.4463 -0.0876 -0.7020
   20HFI     O1  718   3.245   1.448   1.362 -0.4869  0.6145  0.2115
   20HFI     C1  719   3.377   1.386   1.399 -0.3549 -0.0467  0.3767
   20HFI     C2  720   3.398   1.249   1.325  0.0082 -0.1058 -0.4253
   20HFI     F1  721   3.286   1.180   1.317  1.1596 -0.3608 -0.1123
   20HFI     F2  722   3.503   1.178   1.382  0.1397  0.1029  0.0312
   20HFI     F3  723   3.441   1.283   1.203  0.1755 -0.1624 -0.7666
   20HFI     C3  724   3.391   1.382   1.553  0.3285 -0.7089 -0.0553
   20HFI     F4  725   3.511   1.335   1.597  0.2013 -0.4047 -0.5071
   20HFI     F5  726   3.289   1.305   1.593  0.3521 -0.2188 -0.1389
   20HFI     F6  727   3.371   1.503   1.606  0.6602 -0.2944 -0.0355
   20HFI     H1  728   3.237   1.468   1.267 -0.8021 -0.2732  0.0480
   20HFI     H2  729   3.456   1.456   1.370 -0.2195  0.5719  2.1846
   21HFI     O1  730   0.554   2.228   1.084 -0.5482  0.3785  0.1939
   21HFI     C1  731   0.508   2.128   0.984 -0.3902 -0.4717 -0.1711
   21HFI     C2  732   0.626   2.046   0.924  0.2877 -1.0634  0.0537
   21HFI     F1  733   0.581   1.925   0.880  0.2661  0.3591  0.0070
   21HFI     F2  734   0.726   2.020   1.017  0.1920  0.4191 -0.4682
   21HFI     F3  735   0.683   2.101   0.819  0.1104 -0.6172  0.0326
   21HFI     C3  736   0.419   2.206   0.876  0.5916  0.4420  0.1046
   21HFI     F4  737   0.367   2.122   0.785  0.0549  0.0739 -0.3290
   21HFI     F5  738   0.486   2.300   0.813 -0.3522  0.4671 -0.2679
   21HFI     F6  739   0.320   2.271   0.940  0.8865 -0.1868  0.0511
   21HFI     H1  740   0.505   2.311   1.074  0.5747  0.8427 -1.6788
   21HFI     H2  741   0.441   2.058   1.034 -0.9286  0.2668  0.1594
   22HFI     O1  742   3.366   2.551   0.594  0.0555  0.5533 -0.2565
   22HFI     C1  743   3.414   2.408   0.569 -0.1370  0.3853  0.0809
   22HFI     C2  744   3.293   2.309   0.571  0.5149  0.7558 -0.1263
   22HFI     F1  745   3.216   2.320   0.684  0.3336  0.5609  0.4022
   22HFI     F2  746   3.324   2.172   0.547 -0.0397 -0.2709  0.1434
   22HFI     F3  747   3.219   2.344   0.468  0.0162  0.2297  0.0838
   22HFI     C3  748   3.521   2.379   0.672 -0.2224 -0.0557  0.4167
   22HFI     F4  749   3.625   2.466   0.657 -0.0836  0.1319  0.2096
   22HFI     F5  750   3.581   2.258   0.655 -0.0428 -0.3133 -0.1529
   22HFI     F6  751   3.475   2.385   0.806 -0.0719 -0.1991 -0.1700
   22HFI     H1  752   3.287   2.551   0.537  0.1692  0.2113 -0.4183
   22HFI     H2  753   3.451   2.406   0.466 -2.3274  1.6649 -0.7794
   23HFI     O1  754   2.481   1.117   1.189  0.6042 -0.4403 -0.1361
   23HFI     C1  755   2.478   1.151   1.041  0.1576 -0.0644 -0.4588
   23HFI     C2  756   2.341   1.213   1.003  0.3987  0.1351  0.0721
   23HFI     F1  757   2.336   1.334   1.071  0.0378  0.0354  0.2147
   23HFI     F2  758   2.243   1.135   1.052  0.6357 -0.1474 -0.5870
   23HFI     F3  759   2.321   1.242   0.870  0.6090 -0.2038 -0.6537
   23HFI     C3  760   2.515   1.024   0.963  0.1177  0.1096  0.6355
   23HFI     F4  761   2.424   0.933   0.980  0.3100 -0.0317  0.0389
   23HFI     F5  762   2.627   0.962   1.012  0.0247 -0.5381 -0.0055
   23HFI     F6  763   2.530   1.057   0.833  0.5091 -0.0384 -0.1333
   23HFI     H1  764   2.412   1.161   1.241  1.1086 -1.7111  1.6326
   23HFI     H2  765   2.565   1.216   1.025 -0.3824  0.6457 -0.4704
   24HFI     O1  766   1.855   0.552   1.044  0.1420 -0.0048  0.1919
   24HFI     C1  767   1.740   0.606   0.968  0.5749  0.1148 -0.3817
   24HFI     C2  768   1.718   0.763   0.994 -0.1696 -0.0445 -0.4353
   24HFI     F1  769   1.836   0.838   0.979  0.0040 -0.4610 -0.4008
   24HFI     F2  770   1.683   0.786   1.124 -0.4277  0.7827 -0.1799
   24HFI     F3  771   1.634   0.814   0.911  0.5332 -0.0704 -0.1182
   24HFI     C3  772   1.614   0.520   0.979  0.7241 -0.0939 -0.2559
   24HFI     F4  773   1.636   0.390   1.015 -0.1869 -0.1760  0.3988
   24HFI     F5  774   1.532   0.520   0.872 -0.0461 -0.0295 -0.3895
   24HFI     F6  775   1.539   0.572   1.087  0.1208 -0.2631  0.1662
   24HFI     H1  776   1.814   0.502   1.117  0.5265  0.1900  0.5435
   24HFI     H2  777   1.768   0.617   0.863 -0.0536 -1.6151 -0.7463
   25HFI     O1  778   0.698   1.987   3.674 -0.7709 -0.5673  0.1758
   25HFI     C1  779   0.811   1.959   3.582  0.0200 -0.0384 -0.5914
   25HFI     C2  780   0.782   2.023   3.444  0.5728  0.2779  0.4845
   25HFI     F1  781   0.794   2.154   3.447 -0.3965 -0.5847 -0.0532
   25HFI     F2  782   0.657   1.990   3.394 -0.2909 -0.2172 -0.1858
   25HFI     F3  783   0.873   1.988   3.356 -0.3471  0.0083 -0.0409
   25HFI     C3  784   0.827   1.804   3.572 -0.4481 -0.4963 -0.4432
   25HFI     F4  785   0.713   1.754   3.517 -0.0646 -0.5125  0.1833
   25HFI     F5  786   0.838   1.754   3.691 -0.7586 -0.0575  0.0420
   25HFI     F6  787   0.934   1.767   3.503 -0.5746  0.4527 -0.4643
   25HFI     H1  788   0.634   1.913   3.670 -1.6743  0.2048  0.0561
   25HFI     H2  789   0.902   2.004   3.621 -1.2101  2.6184 -0.7279
   26HFI     O1  790   0.202   0.591   3.532  0.3379  0.4821 -0.5473
   26HFI     C1  791   0.299   0.508   3.475 -0.6363  0.5352 -0.2311
   26HFI     C2  792   0.246   0.366   3.434 -0.2121  0.1596  0.2077
   26HFI     F1  793   0.344   0.292   3.382 -0.0974 -0.1694 -0.5502
   26HFI     F2  794   0.137   0.373   3.352 -0.3180  0.2583  0.1348
   26HFI     F3  795   0.207   0.289   3.538 -0.1642 -0.3449 -0.0128
   26HFI     C3  796   0.434   0.500   3.565  0.6310 -0.1881 -0.8006
   26HFI     F4  797   0.525   0.426   3.504 -0.2171  0.1407 -0.4097
   26HFI     F5  798   0.404   0.435   3.682  0.1097 -0.4148 -0.5596
   26HFI     F6  799   0.486   0.619   3.605  0.2623 -0.0080  0.0517
   26HFI     H1  800   0.135   0.533   3.572 -0.2471  0.0452 -2.1143
   26HFI     H2  801   0.329   0.554   3.380 -0.0586 -1.0740 -0.8443
   27HFI     O1  802   1.207   0.507   0.500 -0.0157 -0.4839 -0.0227
   27HFI     C1  803   1.299   0.507   0.391 -0.5734 -0.5872  0.0485
   27HFI     C2  804   1.242   0.429   0.267 -0.3522  0.1513 -0.4203
   27HFI     F1  805   1.189   0.304   0.298 -0.1129  0.1735  0.3078
   27HFI     F2  806   1.324   0.416   0.158 -0.6812 -0.1464 -0.2572
   27HFI     F3  807   1.136   0.502   0.225 -0.1410  0.8036 -0.6024
   27HFI     C3  808   1.431   0.436   0.421 -0.8321  0.5431  0.3760
   27HFI     F4  809   1.427   0.304   0.408  0.0886  0.1224 -0.0029
   27HFI     F5  810   1.464   0.471   0.545  0.1675 -0.2189 -0.2945
   27HFI     F6  811   1.523   0.481   0.341 -0.6498 -0.2852  0.2463
   27HFI     H1  812   1.253   0.492   0.584 -1.7404  0.7280  1.1623
   27HFI     H2  813   1.326   0.606   0.354 -0.9452 -0.7214 -0.5987
   28HFI     O1  814   2.596   1.098   3.393  0.2934  0.3377 -0.1896
   28HFI     C1  815   2.608   1.142   3.259  0.7318  0.2183 -0.0927
   28HFI     C2  816   2.753   1.193   3.239 -0.1437  0.9631  0.9335
   28HFI     F1  817   2.772   1.304   3.321  1.0714 -0.0846  0.0020
   28HFI     F2  818   2.786   1.215   3.108  0.0568 -0.3656  0.0851
   28HFI     F3  819   2.839   1.099   3.280  0.2033 -0.0107  0.1647
   28HFI     C3  820   2.495   1.240   3.204  1.0157 -0.6431  0.2611
   28HFI     F4  821   2.505   1.350   3.279  0.2560  0.4781  0.0408
   28HFI     F5  822   2.372   1.186   3.218  0.3211 -0.1517  0.2405
   28HFI     F6  823   2.513   1.277   3.079  0.0069 -0.7355 -0.1284
   28HFI     H1  824   2.614   1.170   3.457  0.4309  0.1860 -0.0558
   28HFI     H2  825   2.591   1.055   3.193 -3.0755  1.4470 -0.8346
   29HFI     O1  826   0.288   1.516   1.395 -0.1676  0.2897  0.1994
   29HFI     C1  827   0.351   1.616   1.475  0.5719  0.6981 -0.5375
   29HFI     C2  828   0.338   1.751   1.403  0.3475 -0.5780  0.5957
   29HFI     F1  829   0.370   1.862   1.468  0.4517  0.0575 -0.0264
   29HFI     F2  830   0.209   1.769   1.370 -0.2667 -0.7549  0.0180
   29HFI     F3  831   0.410   1.746   1.279  0.3565  0.0928  0.1299
   29HFI     C3  832   0.495   1.574   1.508  0.2923 -0.7013 -0.1086
   29HFI     F4  833   0.563   1.678   1.544  0.4312  0.1431 -0.0192
   29HFI     F5  834   0.564   1.517   1.404  0.0500  0.4179 -0.0320
   29HFI     F6  835   0.491   1.491   1.615 -0.6217  0.7908 -0.4024
   29HFI     H1  836   0.344   1.505   1.317 -0.2089 -1.5957  0.4243
   29HFI     H2  837   0.288   1.622   1.565  0.8171 -3.4557  0.0187
   30HFI     O1  838   1.908   0.653   0.556 -0.0894  0.5941 -0.5116
   30HFI     C1  839   1.944   0.743   0.444  0.3880 -0.1502 -0.6635
   30HFI     C2  840   1.965   0.662   0.312 -0.5233  0.5391 -0.0610
   30HFI     F1  841   2.081   0.584   0.314  0.2770  0.0200  0.1408
   30HFI     F2  842   1.977   0.746   0.203 -0.0215  0.3527  0.1178
   30HFI     F3  843   1.864   0.580   0.295 -0.4282 -0.2337 -0.2728
   30HFI     C3  844   2.061   0.837   0.476  0.1052  0.2507  0.3920
   30HFI     F4  845   2.042   0.902   0.595 -0.4623  0.0757 -0.5421
   30HFI     F5  846   2.079   0.933   0.378 -0.0693 -0.1339 -0.1135
   30HFI     F6  847   2.181   0.768   0.475 -0.2840  0.3678 -0.7230
   30HFI     H1  848   1.983   0.628   0.613 -2.0147  0.5309  2.0848
   30HFI     H2  849   1.864   0.814   0.420  2.3199  1.4831 -2.5422
   31HFI     O1  850   0.932   1.660   0.876  0.7114  0.6081 -0.0029
   31HFI     C1  851   0.996   1.786   0.892  0.7648  0.1501 -0.3737
   31HFI     C2  852   0.991   1.875   0.757  0.1897  0.0313 -0.6366
   31HFI     F1  853   0.871   1.881   0.693 -0.1038 -0.2990  0.6796
   31HFI     F2  854   1.070   1.817   0.659  0.3001 -0.1942 -0.1430
   31HFI     F3  855   1.022   1.999   0.784 -0.1086  0.2224  0.2757
   31HFI     C3  856   1.150   1.767   0.939  0.5139  0.2656  0.6861
   31HFI     F4  857   1.206   1.891   0.944 -0.2447  0.0462  0.2395
   31HFI     F5  858   1.217   1.693   0.841  0.1131 -0.1490 -0.3674
   31HFI     F6  859   1.165   1.707   1.056 -0.3766 -0.1991 -0.1808
   31HFI     H1  860   0.848   1.674   0.828  1.8638  0.4136 -2.1213
   31HFI     H2  861   0.941   1.838   0.972  4.4725 -0.2092  2.5653
   32HFI     O1  862   0.939   0.175   0.822 -0.3772  0.1469 -0.4737
   32HFI     C1  863   0.991   0.269   0.922 -0.3258 -0.0930  0.0159
   32HFI     C2  864   1.144   0.305   0.889  0.2871 -0.0502  0.5413
   32HFI     F1  865   1.231   0.221   0.944  0.5882 -0.6297  0.0642
   32HFI     F2  866   1.169   0.426   0.941 -0.1063 -0.5068 -0.1383
   32HFI     F3  867   1.167   0.314   0.754 -0.3127 -0.4443  0.4008
   32HFI     C3  868   0.970   0.224   1.065  0.1928 -0.2499 -0.1362
   32HFI     F4  869   0.965   0.331   1.144  0.0235 -0.1427 -0.1981
   32HFI     F5  870   1.075   0.150   1.121 -0.3598 -0.2831  0.6843
   32HFI     F6  871   0.859   0.146   1.095  0.2061  0.4299  0.1032
   32HFI     H1  872   0.948   0.226   0.740  0.4285 -1.0050 -1.1220
   32HFI     H2  873   0.937   0.363   0.912 -2.3981 -1.0796  1.4177
   33HFI     O1  874   1.298   2.354   1.521 -0.5737  0.5685 -0.1949
   33HFI     C1  875   1.374   2.296   1.409 -0.1182  0.4513  0.3139
   33HFI     C2  876   1.301   2.161   1.378 -0.0891  0.2214 -0.6856
   33HFI     F1  877   1.350   2.091   1.274  0.5129  0.0596  0.0364
   33HFI     F2  878   1.169   2.188   1.361  0.4144 -0.1437 -0.3850
   33HFI     F3  879   1.304   2.080   1.480 -0.4131  0.0117  0.1042
   33HFI     C3  880   1.523   2.259   1.446 -0.1872  0.4490 -0.1713
   33HFI     F4  881   1.534   2.211   1.571  0.1842 -0.4407  0.2072
   33HFI     F5  882   1.596   2.370   1.459 -0.1616 -0.4538 -0.5959
   33HFI     F6  883   1.584   2.184   1.363 -0.1470 -0.3588  0.3355
   33HFI     H1  884   1.219   2.297   1.528 -0.0559 -0.0759  0.6806
   33HFI     H2  885   1.364   2.361   1.321  0.1594 -2.5051 -1.9640
   34HFI     O1  886   0.549   2.971   1.329 -0.4735  0.3397  0.0386
   34HFI     C1  887   0.677   2.905   1.373  0.4557  0.0054 -0.6089
   34HFI     C2  888   0.724   2.793   1.283 -0.0703 -0.2073 -0.2364
   34HFI     F1  889   0.649   2.676   1.303 -0.5597 -0.0937 -0.6335
   34HFI     F2  890   0.854   2.756   1.316 -0.5170  0.5822 -0.4326
   34HFI     F3  891   0.724   2.832   1.156  0.0427  0.1341  0.0236
   34HFI     C3  892   0.664   2.871   1.528  0.1767 -0.1968  0.6960
   34HFI     F4  893   0.779   2.820   1.574 -0.5373 -0.4297  0.2818
   34HFI     F5  894   0.566   2.789   1.546 -0.0731  0.2607  0.7886
   34HFI     F6  895   0.636   2.987   1.584  0.2338  0.4104 -0.1748
   34HFI     H1  896   0.485   2.957   1.401  1.5055  0.1106  1.8095
   34HFI     H2  897   0.751   2.985   1.367  2.8259 -2.0218  0.4448
   35HFI     O1  898   2.289   1.879   3.070  0.2859 -0.0096 -0.0127
   35HFI     C1  899   2.333   1.832   3.201 -0.1659 -0.4921  0.3856
   35HFI     C2  900   2.299   1.681   3.225 -0.0246  0.5127  0.1558
   35HFI     F1  901   2.357   1.589   3.143  0.3451  0.3913  0.6060
   35HFI     F2  902   2.167   1.665   3.208  0.0462  0.3048  0.0544
   35HFI     F3  903   2.327   1.646   3.351 -0.0185 -0.3170  0.2435
   35HFI     C3  904   2.287   1.931   3.318 -0.1280 -0.1813  0.0711
   35HFI     F4  905   2.319   2.065   3.286  0.1255  0.0023  0.0764
   35HFI     F5  906   2.347   1.904   3.438 -0.0027  0.0002 -0.5228
   35HFI     F6  907   2.152   1.933   3.335 -0.1876  0.4725 -0.9337
   35HFI     H1  908   2.330   1.823   3.002 -1.1261  0.6126 -1.3989
   35HFI     H2  909   2.443   1.841   3.202 -0.0994 -1.3568  3.0039
   36HFI     O1  910   3.163   3.282   0.324  0.0006 -0.4317  0.6154
   36HFI     C1  911   3.131   3.329   0.455 -0.5247  0.3307  0.0372
   36HFI     C2  912   2.975   3.331   0.477  0.2369 -0.5041  0.1200
   36HFI     F1  913   2.921   3.216   0.436 -0.1356 -0.0984 -0.3283
   36HFI     F2  914   2.917   3.430   0.410 -0.8120 -0.4953  0.3031
   36HFI     F3  915   2.946   3.350   0.606 -0.0766 -0.0442 -0.5129
   36HFI     C3  916   3.194   3.462   0.489 -0.3457  0.4071  1.0923
   36HFI     F4  917   3.202   3.490   0.621  0.8006  0.1032 -0.1888
   36HFI     F5  918   3.149   3.570   0.422  0.0200 -0.1638 -0.1411
   36HFI     F6  919   3.324   3.455   0.455 -0.0805  0.7970 -0.2197
   36HFI     H1  920   3.259   3.271   0.317 -0.2271 -1.3213 -1.6771
   36HFI     H2  921   3.183   3.265   0.527 -2.2175 -0.0587  0.9378
   37HFI     O1  922   1.462   2.038   0.951 -0.0819 -0.2409  0.1835
   37HFI     C1  923   1.579   1.961   0.938  0.0962  0.4912  0.1027
   37HFI     C2  924   1.597   1.905   0.796  0.5333  0.0325  0.1150
   37HFI     F1  925   1.708   1.829   0.789 -0.3384  0.3090 -0.2192
   37HFI     F2  926   1.615   2.009   0.715  0.3501 -0.7587  0.3625
   37HFI     F3  927   1.492   1.833   0.751  0.5089  0.5157  0.0008
   37HFI     C3  928   1.591   1.852   1.049  0.0643 -0.1177  0.2651
   37HFI     F4  929   1.548   1.901   1.169 -0.3195 -0.1535 -0.2425
   37HFI     F5  930   1.718   1.808   1.071  0.5255 -0.1652 -0.0657
   37HFI     F6  931   1.508   1.751   1.014  0.1924 -0.4430 -0.6665
   37HFI     H1  932   1.396   1.977   0.912  0.1009  0.9566 -2.0947
   37HFI     H2  933   1.672   2.019   0.949 -0.6522  1.1058  3.7795
   38HFI     O1  934   2.924   2.468   1.435 -0.5198 -0.2518 -0.0015
   38HFI     C1  935   2.980   2.365   1.518  0.5376  0.4986 -0.0227
   38HFI     C2  936   3.130   2.354   1.497 -0.3702 -0.4511 -0.4617
   38HFI     F1  937   3.182   2.479   1.498 -0.1003 -0.2516  0.2098
   38HFI     F2  938   3.166   2.294   1.378  0.1991 -0.2228  0.2069
   38HFI     F3  939   3.195   2.289   1.595 -0.1648 -0.5128  0.5930
   38HFI     C3  940   2.912   2.227   1.513 -0.2500  0.3473 -0.1251
   38HFI     F4  941   2.782   2.251   1.547 -0.3721 -0.1265  0.1304
   38HFI     F5  942   2.957   2.144   1.598  0.1430  0.1271  0.2691
   38HFI     F6  943   2.918   2.168   1.398 -0.1645 -0.0365  0.1517
   38HFI     H1  944   2.997   2.526   1.407 -0.9736  1.2852  1.8460
   38HFI     H2  945   2.974   2.401   1.621 -1.0893  2.2215 -0.6873
   39HFI     O1  946   3.270   1.518   3.353  0.0957  0.3189 -0.0446
   39HFI     C1  947   3.236   1.433   3.241  0.0853  0.5016 -0.2655
   39HFI     C2  948   3.247   1.526   3.105  0.0649  0.7918 -0.8557
   39HFI     F1  949   3.239   1.456   2.984 -0.2082  0.0929 -0.0982
   39HFI     F2  950   3.377   1.576   3.101  0.3380 -0.2826 -0.0138
   39HFI     F3  951   3.154   1.624   3.104  0.1029 -0.0027  0.1083
   39HFI     C3  952   3.101   1.369   3.255  0.3301  0.2729  0.1023
   39HFI     F4  953   3.007   1.458   3.282  0.4118 -0.5122 -0.3147
   39HFI     F5  954   3.110   1.277   3.357 -0.2735  0.7694  0.5167
   39HFI     F6  955   3.068   1.297   3.135  0.5099 -0.3656 -0.0597
   39HFI     H1  956   3.188   1.530   3.405  1.0760  1.3534  1.3002
   39HFI     H2  957   3.308   1.351   3.229  0.6610  0.7858  1.2221
   40HFI     O1  958   0.393   1.181   3.305  0.1879 -0.0199 -0.5367
   40HFI     C1  959   0.409   1.311   3.362  0.4634  0.2853  0.1258
   40HFI     C2  960   0.293   1.409   3.325 -0.4376 -0.3121 -0.0274
   40HFI     F1  961   0.312   1.469   3.200  0.1772  0.1334 -0.1385
   40HFI     F2  962   0.261   1.501   3.423 -0.0618  0.2083  0.2908
   40HFI     F3  963   0.176   1.348   3.318  0.4429  0.1562  0.6025
   40HFI     C3  964   0.549   1.370   3.338  0.2874 -0.6849  0.2219
   40HFI     F4  965   0.555   1.498   3.379 -0.6578 -0.1839 -0.3843
   40HFI     F5  966   0.586   1.365   3.211 -0.1701  0.0781 -0.0584
   40HFI     F6  967   0.644   1.307   3.411 -0.1781  0.0154  0.5648
   40HFI     H1  968   0.299   1.166   3.285 -0.2220  1.7922 -0.0429
   40HFI     H2  969   0.407   1.302   3.471 -0.8931 -1.5351 -0.0279
   41HFI     O1  970   3.326   3.251   0.756  0.3304  0.7234 -0.2482
   41HFI     C1  971   3.237   3.219   0.873  0.2925 -0.3589  0.0062
   41HFI     C2  972   3.317   3.182   0.993  0.4957  0.0318 -1.4111
   41HFI     F1  973   3.418   3.270   1.003  0.2386 -0.4849  0.7523
   41HFI     F2  974   3.372   3.059   0.993 -0.5596  0.2653  0.1847
   41HFI     F3  975   3.241   3.202   1.103  0.4787  0.6799  0.2993
   41HFI     C3  976   3.126   3.118   0.833 -0.4037 -1.0184 -0.6915
   41HFI     F4  977   3.076   3.152   0.715 -0.2891 -0.4014  0.1093
   41HFI     F5  978   3.029   3.113   0.928 -0.1602 -0.1312  0.1162
   41HFI     F6  979   3.178   2.994   0.819  0.9817 -0.3436 -0.2828
   41HFI     H1  980   3.389   3.319   0.786 -3.1865  3.4601  1.3153
   41HFI     H2  981   3.189   3.313   0.904 -0.1005 -0.8269  0.8490
   42HFI     O1  982   2.348   2.368   3.366 -0.4483 -0.0470  0.4024
   42HFI     C1  983   2.306   2.501   3.409  0.0175 -0.4871 -1.0533
   42HFI     C2  984   2.177   2.550   3.340 -1.2055 -1.0456  0.0455
   42HFI     F1  985   2.188   2.539   3.202 -0.4626 -0.5478 -0.4876
   42HFI     F2  986   2.148   2.675   3.375 -0.2569 -0.0509 -0.1278
   42HFI     F3  987   2.072   2.476   3.388 -0.2287 -0.0740 -0.3871
   42HFI     C3  988   2.422   2.602   3.416 -0.2730 -0.2245 -1.0317
   42HFI     F4  989   2.420   2.694   3.316 -0.6080 -0.6097 -0.3939
   42HFI     F5  990   2.545   2.556   3.412 -0.1122 -0.2272 -0.1831
   42HFI     F6  991   2.415   2.669   3.531 -0.2491  0.0611 -0.3643
   42HFI     H1  992   2.320   2.367   3.273  2.7595  0.0869 -0.6471
   42HFI     H2  993   2.269   2.489   3.511 -0.4558 -0.3133 -1.2011
   43HFI     O1  994   0.523   2.553   1.044  0.2279  0.2927  0.1556
   43HFI     C1  995   0.475   2.624   0.931  0.1559  0.3244 -0.1592
   43HFI     C2  996   0.582   2.651   0.820 -0.2274 -0.0641  0.2459
   43HFI     F1  997   0.666   2.548   0.799  0.1645 -0.2000 -0.4052
   43HFI     F2  998   0.660   2.762   0.855 -0.0745  0.1304  0.2427
   43HFI     F3  999   0.523   2.677   0.699  0.6109 -0.0239  0.2224
   43HFI     C3 1000   0.392   2.746   0.961 -0.1707  0.2462  0.2925
   43HFI     F4 1001   0.450   2.831   1.050 -0.3583  0.0549 -0.3531
   43HFI     F5 1002   0.281   2.702   1.021  0.3867  0.0447  0.3938
   43HFI     F6 1003   0.344   2.803   0.843  0.5217  0.2179 -0.2474
   43HFI     H1 1004   0.570   2.618   1.100 -0.7366  0.4764  0.7589
   43HFI     H2 1005   0.397   2.563   0.884  0.8195  0.7034 -1.7753
   44HFI     O1 1006   0.141   2.317   2.694 -0.4257  0.3857  0.2958
   44HFI     C1 1007   0.259   2.330   2.782  0.0730  0.0655  0.2677
   44HFI     C2 1008   0.281   2.204   2.864 -0.0544  0.9198  0.1616
   44HFI     F1 1009   0.405   2.194   2.922  0.3405  0.2304 -0.0119
   44HFI     F2 1010   0.269   2.099   2.779 -0.2358 -1.0236 -0.9118
   44HFI     F3 1011   0.181   2.196   2.951  0.3075  0.1173 -0.7880
   44HFI     C3 1012   0.279   2.458   2.861  0.5574 -0.2426 -0.5924
   44HFI     F4 1013   0.387   2.444   2.938 -0.0516 -0.1536 -0.0238
   44HFI     F5 1014   0.172   2.492   2.946  0.0468 -0.4045 -0.0426
   44HFI     F6 1015   0.305   2.556   2.773  0.2890  0.3106  0.3053
   44HFI     H1 1016   0.071   2.278   2.749  2.4264 -4.2794  0.8911
   44HFI     H2 1017   0.341   2.324   2.708  0.3010  1.3702  0.4029
   45HFI     O1 1018   3.135   0.863   1.322  0.0643  0.8241 -0.1122
   45HFI     C1 1019   3.070   0.736   1.326 -0.2712 -0.1648 -0.2357
   45HFI     C2 1020   2.965   0.726   1.208 -0.2991  0.2028 -0.0176
   45HFI     F1 1021   3.019   0.726   1.086 -0.0110 -0.1864  0.0636
   45HFI     F2 1022   2.879   0.832   1.220 -0.4776  0.4122 -0.3890
   45HFI     F3 1023   2.883   0.621   1.218 -0.0215  0.2080 -0.3737
   45HFI     C3 1024   3.010   0.712   1.470  0.0725  0.1206  0.3989
   45HFI     F4 1025   3.108   0.714   1.565  0.6033  0.6080  0.1719
   45HFI     F5 1026   2.941   0.590   1.478  0.0823  0.2210 -0.1033
   45HFI     F6 1027   2.929   0.815   1.497  0.5589  0.1313 -0.1028
   45HFI     H1 1028   3.070   0.931   1.349 -1.4174 -1.0156  1.1092
   45HFI     H2 1029   3.144   0.656   1.311 -1.5222 -1.2221 -0.9412
   46HFI     O1 1030   1.211   2.321   0.457  0.1353 -0.5912  0.4708
   46HFI     C1 1031   1.303   2.216   0.481  0.5242  0.8127 -0.4315
   46HFI     C2 1032   1.352   2.145   0.354  0.1865  0.7432  1.4509
   46HFI     F1 1033   1.399   2.231   0.252  0.3814 -0.1810 -0.3605
   46HFI     F2 1034   1.259   2.074   0.296 -0.2295  1.0536 -0.6893
   46HFI     F3 1035   1.451   2.052   0.379 -0.4266  0.1401 -0.3832
   46HFI     C3 1036   1.243   2.109   0.580 -0.4362  0.1752 -0.1714
   46HFI     F4 1037   1.328   2.022   0.628  0.0164 -0.1694  0.6832
   46HFI     F5 1038   1.140   2.045   0.526 -0.4224  0.4016  0.3828
   46HFI     F6 1039   1.200   2.170   0.692  0.4759  0.0214  0.2584
   46HFI     H1 1040   1.127   2.273   0.445 -0.1748 -0.6798  2.8070
   46HFI     H2 1041   1.392   2.257   0.530 -1.7552  0.5015  4.1623
   47HFI     O1 1042   2.505   0.459   0.126 -0.2310 -0.4654 -0.2286
   47HFI     C1 1043   2.470   0.564   0.025 -0.0746 -0.7654  0.2610
   47HFI     C2 1044   2.317   0.565  -0.002  0.1752  0.5673  0.0277
   47HFI     F1 1045   2.283   0.512  -0.118  0.4784 -0.2102  0.3949
   47HFI     F2 1046   2.274   0.699   0.009 -0.4941 -0.1910  0.6182
   47HFI     F3 1047   2.249   0.502   0.096  0.1635  0.1938 -0.6384
   47HFI     C3 1048   2.554   0.566  -0.102  0.1449  0.5773  0.6966
   47HFI     F4 1049   2.686   0.592  -0.078  0.0234 -0.1055  0.3128
   47HFI     F5 1050   2.511   0.667  -0.189  0.1751 -0.0336  0.4019
   47HFI     F6 1051   2.536   0.443  -0.168 -0.2440 -0.4264 -0.0964
   47HFI     H1 1052   2.459   0.471   0.211  2.6441 -0.8358  1.4234
   47HFI     H2 1053   2.488   0.662   0.071  1.8491 -1.0251  0.0956
   48HFI     O1 1054   1.066   1.222   1.562  0.8226  0.7344 -0.7691
   48HFI     C1 1055   0.929   1.210   1.506  0.4361 -1.0622  0.5342
   48HFI     C2 1056   0.920   1.092   1.409  0.3133  0.4233 -0.3175
   48HFI     F1 1057   0.972   0.980   1.467  0.3360 -0.1178  0.0973
   48HFI     F2 1058   0.990   1.109   1.296 -0.1933  0.1236  0.0063
   48HFI     F3 1059   0.792   1.063   1.372  0.2953  0.2123  0.3791
   48HFI     C3 1060   0.904   1.340   1.427  0.1004 -1.0208 -0.4221
   48HFI     F4 1061   0.797   1.331   1.341 -0.4982 -0.4917  0.4969
   48HFI     F5 1062   1.017   1.373   1.361 -0.5057  0.2002  0.1107
   48HFI     F6 1063   0.877   1.442   1.511  0.1952  0.0190 -0.6898
   48HFI     H1 1064   1.132   1.235   1.491  0.5302 -1.4908 -1.4779
   48HFI     H2 1065   0.854   1.190   1.584 -0.0405  2.0033  0.8958
   49HFI     O1 1066   0.324   3.316   1.455  0.1705 -0.2112 -0.2753
   49HFI     C1 1067   0.333   3.442   1.528  0.2151 -0.4080 -0.3415
   49HFI     C2 1068   0.210   3.534   1.479  0.4268  0.5522 -0.2354
   49HFI     F1 1069   0.235   3.589   1.357  0.2970  0.5983 -0.4836
   49HFI     F2 1070   0.182   3.636   1.566 -0.2130 -0.0240  0.2122
   49HFI     F3 1071   0.098   3.460   1.468 -0.0438 -0.1355 -0.0688
   49HFI     C3 1072   0.472   3.509   1.504 -0.1950 -0.0770  0.6286
   49HFI     F4 1073   0.486   3.631   1.571  0.8782  0.0700  0.3675
   49HFI     F5 1074   0.489   3.526   1.367 -0.5071  0.1804 -0.2516
   49HFI     F6 1075   0.575   3.429   1.554  0.1675  0.5252 -0.1307
   49HFI     H1 1076   0.306   3.319   1.359  1.7581 -0.6156 -0.5975
   49HFI     H2 1077   0.326   3.410   1.632  1.0683  1.3135  0.2549
   50HFI     O1 1078   1.980   1.908   1.332  0.8727 -0.3774  0.2181
   50HFI     C1 1079   1.889   2.002   1.399  0.8012 -0.3513 -0.3886
   50HFI     C2 1080   1.969   2.113   1.486 -0.0789  0.1366 -0.5620
   50HFI     F1 1081   2.044   2.061   1.588  0.4789  0.4823 -0.6121
   50HFI     F2 1082   1.888   2.197   1.546 -0.2150 -0.5786 -0.4271
   50HFI     F3 1083   2.058   2.176   1.405  0.0305 -0.4285  0.3547
   50HFI     C3 1084   1.807   1.914   1.490  0.3663  1.4115  0.1584
   50HFI     F4 1085   1.723   1.984   1.576 -0.3374 -0.2121 -0.0375
   50HFI     F5 1086   1.874   1.830   1.575 -0.7555 -0.2189  0.3647
   50HFI     F6 1087   1.721   1.836   1.418  0.2937  0.1904  0.1801
   50HFI     H1 1088   2.024   1.851   1.397  0.9037  0.4205  0.9087
   50HFI     H2 1089   1.833   2.053   1.320  2.0852  0.0426 -1.0425
   51HFI     O1 1090   1.861   2.630   2.660 -0.3220 -0.2977 -0.3836
   51HFI     C1 1091   1.885   2.686   2.793  0.9986  0.2825  0.2013
   51HFI     C2 1092   1.830   2.830   2.805 -0.4463 -0.3798  0.6727
   51HFI     F1 1093   1.706   2.837   2.746  0.4087  0.4891 -0.0065
   51HFI     F2 1094   1.910   2.916   2.734 -0.2834 -0.2960  0.1093
   51HFI     F3 1095   1.818   2.881   2.929 -0.5792 -0.2037  0.0543
   51HFI     C3 1096   2.034   2.661   2.830 -0.0339  0.0040 -0.4647
   51HFI     F4 1097   2.075   2.536   2.809  0.0971  0.0211  0.0152
   51HFI     F5 1098   2.048   2.688   2.963  0.5448  0.4063  0.6115
   51HFI     F6 1099   2.129   2.734   2.760 -0.1560 -0.0258  0.1733
   51HFI     H1 1100   1.789   2.679   2.617  0.0428  3.1496  2.6705
   51HFI     H2 1101   1.834   2.633   2.875 -0.3788  0.6495 -0.4068
   52HFI     O1 1102   0.663   3.170   0.703 -0.2103  0.9519  0.8105
   52HFI     C1 1103   0.683   3.279   0.615 -0.1075  0.2536 -0.5140
   52HFI     C2 1104   0.575   3.386   0.640 -0.4957 -0.7865  0.7835
   52HFI     F1 1105   0.442   3.342   0.641  0.0308  0.2555 -0.0897
   52HFI     F2 1106   0.582   3.498   0.555  0.2326  0.1007  0.5523
   52HFI     F3 1107   0.594   3.429   0.770  0.5097  0.3327 -0.0475
   52HFI     C3 1108   0.679   3.230   0.471  0.3695  0.4013  0.1553
   52HFI     F4 1109   0.705   3.337   0.384 -0.0715 -0.0683 -0.2420
   52HFI     F5 1110   0.552   3.191   0.446  0.7172 -0.1299  0.5836
   52HFI     F6 1111   0.757   3.128   0.456  0.3074 -0.0169 -0.0109
   52HFI     H1 1112   0.620   3.098   0.655  1.1232  0.1957  0.7266
   52HFI     H2 1113   0.781   3.322   0.639 -0.2107  0.6916 -0.8488
   53HFI     O1 1114   3.319   0.594   0.268 -0.0316  0.2087  0.3305
   53HFI     C1 1115   3.199   0.562   0.344 -0.2815 -0.4981 -0.2516
   53HFI     C2 1116   3.112   0.688   0.362 -0.2120 -0.0888 -0.8658
   53HFI     F1 1117   3.067   0.743   0.243 -0.1929  0.2892  0.1655
   53HFI     F2 1118   3.178   0.790   0.427  0.0921 -0.4506  0.0585
   53HFI     F3 1119   2.997   0.667   0.435 -0.5331  0.2350 -0.1168
   53HFI     C3 1120   3.231   0.498   0.486  1.2136  0.1392  0.2391
   53HFI     F4 1121   3.256   0.582   0.592 -0.4706 -0.4180 -0.1920
   53HFI     F5 1122   3.331   0.405   0.477  0.7534 -0.2092 -0.2622
   53HFI     F6 1123   3.116   0.432   0.515  0.0956 -0.0977 -0.0294
   53HFI     H1 1124   3.298   0.662   0.202 -1.0553 -0.3934  0.0183
   53HFI     H2 1125   3.134   0.490   0.293 -0.1694 -0.0153 -1.0985
   54HFI     O1 1126   0.550   2.911   0.517 -0.0106  0.3355 -0.0618
   54HFI     C1 1127   0.607   2.866   0.388 -0.3973  0.2821  0.3424
   54HFI     C2 1128   0.493   2.784   0.312  0.0568  0.2795  0.5276
   54HFI     F1 1129   0.543   2.760   0.192  0.1845 -0.1576  0.1246
   54HFI     F2 1130   0.380   2.854   0.296  0.0693  0.1009  0.0758
   54HFI     F3 1131   0.465   2.665   0.360 -0.0586 -0.3270  0.0031
   54HFI     C3 1132   0.745   2.797   0.413 -0.3186 -0.2108  0.6820
   54HFI     F4 1133   0.724   2.685   0.483  0.4013 -0.1102  0.8503
   54HFI     F5 1134   0.832   2.871   0.490  0.2101  0.5176 -0.2050
   54HFI     F6 1135   0.803   2.760   0.300 -0.1054 -0.4739 -0.6109
   54HFI     H1 1136   0.456   2.933   0.512 -0.2998 -0.5364  1.2538
   54HFI     H2 1137   0.631   2.943   0.314 -0.7242 -0.0255 -0.0855
   55HFI     O1 1138   1.253   2.485   3.718  0.8741  0.5309  0.3027
   55HFI     C1 1139   1.328   2.526   3.841  0.4948  0.2318  0.1066
   55HFI     C2 1140   1.235   2.524   3.967 -0.2979 -0.4777  0.2927
   55HFI     F1 1141   1.174   2.406   3.980  0.1041  0.3377 -0.2299
   55HFI     F2 1142   1.140   2.613   3.951 -0.1297 -0.5271  0.1994
   55HFI     F3 1143   1.301   2.559   4.073 -0.0777 -0.1060 -0.2084
   55HFI     C3 1144   1.421   2.648   3.817  0.6041 -0.4063 -0.4128
   55HFI     F4 1145   1.509   2.669   3.914  0.5644 -0.1814 -0.0139
   55HFI     F5 1146   1.338   2.760   3.816 -0.4577  0.0870  0.4937
   55HFI     F6 1147   1.484   2.647   3.697  0.1678  0.0553 -0.2439
   55HFI     H1 1148   1.156   2.494   3.727  1.2441  1.7537  3.6538
   55HFI     H2 1149   1.397   2.443   3.858 -0.1710 -0.2228  0.6201
   56HFI     O1 1150   0.840   2.239   0.589  0.0698  0.3496  0.2606
   56HFI     C1 1151   0.764   2.218   0.465  0.3244  0.0217 -0.2406
   56HFI     C2 1152   0.635   2.303   0.457 -0.0115 -0.5202 -0.1908
   56HFI     F1 1153   0.528   2.249   0.515  0.4488  0.0775 -0.3956
   56HFI     F2 1154   0.595   2.338   0.329  0.4286 -0.0514  0.3401
   56HFI     F3 1155   0.655   2.422   0.511  0.1219 -0.5816  0.0597
   56HFI     C3 1156   0.755   2.066   0.425 -0.4710 -0.2623  0.2279
   56HFI     F4 1157   0.873   2.005   0.459  0.1387  0.5731  0.6457
   56HFI     F5 1158   0.737   2.051   0.293  0.5077  0.4650 -0.4359
   56HFI     F6 1159   0.658   1.998   0.498  0.1588 -0.2620  0.4751
   56HFI     H1 1160   0.808   2.170   0.649 -0.7264  0.9759  0.5684
   56HFI     H2 1161   0.818   2.266   0.382 -3.1146  2.4214 -1.1948
   57HFI     O1 1162   2.843   2.192   2.928  0.2301  0.7624  0.3496
   57HFI     C1 1163   2.810   2.169   3.064  0.0887  0.2438  0.0847
   57HFI     C2 1164   2.903   2.259   3.151 -0.7672  0.0791 -0.5926
   57HFI     F1 1165   2.843   2.266   3.272 -0.2005  0.6425  0.0726
   57HFI     F2 1166   2.919   2.387   3.100 -0.2626 -0.4119  0.1411
   57HFI     F3 1167   3.030   2.205   3.173  0.1650  0.0752  0.0465
   57HFI     C3 1168   2.824   2.023   3.110 -0.0872  0.5870 -0.1442
   57HFI     F4 1169   2.725   1.944   3.066  0.2988  0.1118  0.3095
   57HFI     F5 1170   2.823   2.006   3.248  0.1448 -0.0409  0.4915
   57HFI     F6 1171   2.937   1.968   3.067  0.2858  0.0066  0.0253
   57HFI     H1 1172   2.916   2.255   2.918  0.9170  0.0447  0.7399
   57HFI     H2 1173   2.707   2.203   3.080  0.4682  1.2047  0.5639
   58HFI     O1 1174   1.895   2.031   0.618 -1.0004 -0.5311 -0.2354
   58HFI     C1 1175   1.962   1.917   0.568 -0.8315 -0.3853  0.0413
   58HFI     C2 1176   2.111   1.942   0.519  0.3236 -0.0267  0.2167
   58HFI     F1 1177   2.175   1.830   0.479 -0.0909  0.2810 -0.4777
   58HFI     F2 1178   2.178   1.998   0.619 -0.4225  0.3003 -0.0843
   58HFI     F3 1179   2.120   2.037   0.424  0.1517 -0.6388 -0.5861
   58HFI     C3 1180   1.870   1.855   0.460  0.7790 -0.5554 -0.0762
   58HFI     F4 1181   1.861   1.938   0.355  0.8611  0.2727  0.2013
   58HFI     F5 1182   1.748   1.834   0.504 -0.4065  0.1941  0.1126
   58HFI     F6 1183   1.915   1.728   0.412 -0.1509  0.2116 -0.0011
   58HFI     H1 1184   1.894   2.091   0.541 -0.2125 -2.7439 -2.0217
   58HFI     H2 1185   1.963   1.844   0.650 -2.1999  0.2365  0.6264
   59HFI     O1 1186   2.779   1.860   1.075 -0.2087  0.3431 -0.1076
   59HFI     C1 1187   2.784   1.952   0.962  0.1603 -0.1315  0.3703
   59HFI     C2 1188   2.923   1.942   0.892  0.3766 -0.2594  0.9859
   59HFI     F1 1189   2.932   2.043   0.799  0.4387  0.2188  0.6341
   59HFI     F2 1190   2.945   1.818   0.836  0.3398 -0.5774 -0.2578
   59HFI     F3 1191   3.021   1.969   0.981  0.2146  0.2554 -0.7743
   59HFI     C3 1192   2.746   2.100   1.006 -0.1217  0.4378  0.9634
   59HFI     F4 1193   2.744   2.178   0.906 -0.5116 -0.6022  0.2563
   59HFI     F5 1194   2.833   2.146   1.088 -0.6431 -0.2949 -0.2532
   59HFI     F6 1195   2.627   2.118   1.058  0.1756  0.2152  0.0161
   59HFI     H1 1196   2.736   1.900   1.152 -1.6619 -0.6732 -0.3806
   59HFI     H2 1197   2.706   1.917   0.894 -0.3626 -0.4481  1.1179
   60HFI     O1 1198   1.066   2.077   2.330 -0.3099 -0.0735 -0.2072
   60HFI     C1 1199   1.143   2.195   2.273  0.1474  0.2152 -0.2503
   60HFI     C2 1200   1.272   2.225   2.359 -0.0916 -0.1273  0.4001
   60HFI     F1 1201   1.358   2.126   2.361 -0.1350  0.7698  0.0963
   60HFI     F2 1202   1.242   2.261   2.491  0.1792  0.1657 -0.2417
   60HFI     F3 1203   1.344   2.328   2.305  0.2595  0.0121 -0.1523
   60HFI     C3 1204   1.051   2.324   2.260  0.7518 -0.5315 -0.0024
   60HFI     F4 1205   1.121   2.432   2.205  0.0216  0.3282  0.0829
   60HFI     F5 1206   1.003   2.370   2.378  0.2022  0.6713  0.6166
   60HFI     F6 1207   0.951   2.298   2.177  0.2229  0.3241 -0.1055
   60HFI     H1 1208   0.972   2.103   2.333 -0.6269 -1.1890  0.0102
   60HFI     H2 1209   1.189   2.180   2.175 -1.2701 -0.9275 -0.7553
   61HFI     O1 1210   0.318   2.305   3.775 -0.0318 -0.5249  0.9371
   61HFI     C1 1211   0.281   2.348   3.911  0.2023 -0.0113  0.3209
   61HFI     C2 1212   0.183   2.243   3.968 -0.3255 -0.1989  0.1571
   61HFI     F1 1213   0.081   2.214   3.883 -0.4785 -0.3182 -0.0136
   61HFI     F2 1214   0.126   2.285   4.088  0.3602 -0.5687  0.1067
   61HFI     F3 1215   0.255   2.137   3.995 -0.1173  0.1485  0.2138
   61HFI     C3 1216   0.224   2.495   3.921 -0.0015 -0.1298  0.0131
   61HFI     F4 1217   0.109   2.508   3.873  0.4600  0.5634  0.0466
   61HFI     F5 1218   0.301   2.581   3.857 -0.3338 -0.3467  0.4039
   61HFI     F6 1219   0.223   2.538   4.050 -0.0888 -0.5315 -0.0935
   61HFI     H1 1220   0.411   2.277   3.769 -0.0575 -0.2033 -1.3408
   61HFI     H2 1221   0.374   2.349   3.969 -0.5002  0.4649  1.4594
   62HFI     O1 1222   0.333   0.940   1.417 -0.1320  0.0025 -0.2507
   62HFI     C1 1223   0.427   0.980   1.528 -0.3424  0.2988 -0.2817
   62HFI     C2 1224   0.466   1.129   1.510 -0.6396  0.6485 -0.2862
   62HFI     F1 1225   0.572   1.166   1.582  0.2787  0.4899 -0.8687
   62HFI     F2 1226   0.364   1.218   1.535 -0.0989 -0.3104  0.4614
   62HFI     F3 1227   0.500   1.149   1.383 -0.3502  0.2140  0.3076
   62HFI     C3 1228   0.544   0.870   1.550  0.0635  0.2118 -0.0934
   62HFI     F4 1229   0.655   0.922   1.609 -0.0035  0.1295  0.1497
   62HFI     F5 1230   0.586   0.818   1.433 -0.0533  0.2920 -0.3002
   62HFI     F6 1231   0.497   0.775   1.623 -0.2457  0.0023  0.3180
   62HFI     H1 1232   0.377   0.945   1.330 -1.5462 -2.0159 -1.1263
   62HFI     H2 1233   0.373   0.985   1.624  0.8037 -0.6632  0.4223
   63HFI     O1 1234   0.577   1.729   3.770 -0.5582  0.2477 -0.0888
   63HFI     C1 1235   0.490   1.623   3.735 -0.6207 -0.4527  0.2701
   63HFI     C2 1236   0.353   1.640   3.802  1.5522 -0.3009 -0.2307
   63HFI     F1 1237   0.262   1.582   3.721  0.1183 -0.0464  0.2547
   63HFI     F2 1238   0.311   1.768   3.811 -0.1083  0.5913 -0.4349
   63HFI     F3 1239   0.336   1.589   3.922  0.0751 -0.0057 -0.0752
   63HFI     C3 1240   0.556   1.487   3.773  0.4557 -0.0665  0.0041
   63HFI     F4 1241   0.481   1.379   3.724  0.1177  0.2800 -0.1160
   63HFI     F5 1242   0.569   1.465   3.903 -0.3225  0.1325 -0.4958
   63HFI     F6 1243   0.677   1.476   3.714  1.0377 -0.0595  0.3318
   63HFI     H1 1244   0.582   1.735   3.867 -0.5505  0.3968 -0.0976
   63HFI     H2 1245   0.475   1.627   3.626  0.6034 -1.5846  0.0450
   64HFI     O1 1246   3.303   1.865   1.016 -0.3756  0.0714 -0.4018
   64HFI     C1 1247   3.373   1.975   1.090 -0.1939 -0.0932  0.0322
   64HFI     C2 1248   3.313   1.979   1.238 -0.2306  0.5398 -0.2320
   64HFI     F1 1249   3.350   2.099   1.297 -0.2779 -0.1637  0.5144
   64HFI     F2 1250   3.343   1.866   1.308  0.0660 -0.0487  0.2993
   64HFI     F3 1251   3.178   1.982   1.233 -0.4843 -0.1279 -0.3573
   64HFI     C3 1252   3.360   2.112   1.015  0.2078 -0.7047 -0.0564
   64HFI     F4 1253   3.241   2.157   1.028 -0.7320 -0.1002  0.4442
   64HFI     F5 1254   3.390   2.091   0.884  0.0462 -0.0214 -0.2163
   64HFI     F6 1255   3.452   2.199   1.062  0.2073  0.0950  0.2323
   64HFI     H1 1256   3.225   1.902   0.971 -0.2317 -0.8061 -1.3917
   64HFI     H2 1257   3.479   1.951   1.101 -0.4203 -2.1571 -1.9516
   65HFI     O1 1258   2.685   2.691   1.176 -0.3703  0.4428  0.0786
   65HFI     C1 1259   2.612   2.809   1.126 -0.3128 -0.2030 -0.3624
   65HFI     C2 1260   2.474   2.766   1.057  0.0125  0.0369 -0.1448
   65HFI     F1 1261   2.493   2.704   0.947  0.3906  0.3791  0.2303
   65HFI     F2 1262   2.391   2.871   1.045 -0.3718 -0.2071 -0.1919
   65HFI     F3 1263   2.406   2.683   1.140  0.2884 -0.2839  0.6770
   65HFI     C3 1264   2.698   2.908   1.042 -0.4218  0.0524 -0.1740
   65HFI     F4 1265   2.797   2.959   1.114 -0.1340  0.1696  0.4472
   65HFI     F5 1266   2.617   3.010   1.002 -0.1714  0.6275  0.2055
   65HFI     F6 1267   2.757   2.851   0.937 -0.4500 -0.4762 -0.5338
   65HFI     H1 1268   2.617   2.631   1.211 -0.7705  0.3254 -0.8733
   65HFI     H2 1269   2.574   2.872   1.207 -1.8913 -2.5696  0.7731
   66HFI     O1 1270   2.135   0.723   1.088  0.2482  0.3809 -0.8492
   66HFI     C1 1271   2.230   0.689   0.985 -0.2648 -0.7258 -0.2024
   66HFI     C2 1272   2.178   0.733   0.845  0.3293  0.2673 -0.3496
   66HFI     F1 1273   2.265   0.710   0.756 -0.2040  0.0312 -0.4806
   66HFI     F2 1274   2.151   0.866   0.843  0.0091  0.1418 -0.2556
   66HFI     F3 1275   2.057   0.666   0.812  0.8310  0.3471 -0.1885
   66HFI     C3 1276   2.260   0.539   0.990 -0.5585  0.3846 -0.5370
   66HFI     F4 1277   2.162   0.457   0.967  0.0368  0.3960  0.2777
   66HFI     F5 1278   2.298   0.508   1.117  0.1066  0.3725  0.0518
   66HFI     F6 1279   2.366   0.506   0.909  0.3253  0.5183  0.2970
   66HFI     H1 1280   2.055   0.670   1.071  1.2821 -0.9720 -1.5919
   66HFI     H2 1281   2.328   0.734   1.002 -0.4493 -0.7755  1.0302
   67HFI     O1 1282   2.859   2.525   3.789  0.4042 -0.0511 -0.1020
   67HFI     C1 1283   2.971   2.487   3.711 -1.0823  0.1740 -0.3447
   67HFI     C2 1284   2.920   2.393   3.601  0.1244  0.0722 -0.5213
   67HFI     F1 1285   3.011   2.364   3.501 -0.6608  0.6150 -0.1663
   67HFI     F2 1286   2.813   2.449   3.543 -0.5138 -0.0856 -0.6136
   67HFI     F3 1287   2.870   2.273   3.657  0.1737  0.1990  0.8019
   67HFI     C3 1288   3.089   2.436   3.803  0.6249 -0.1882  0.2691
   67HFI     F4 1289   3.048   2.336   3.876 -0.1872  0.0651 -0.0872
   67HFI     F5 1290   3.133   2.530   3.893  0.2005  0.0342  0.6461
   67HFI     F6 1291   3.198   2.403   3.737 -0.0506  0.0960 -0.4433
   67HFI     H1 1292   2.814   2.441   3.809  3.6341 -1.6432  0.7597
   67HFI     H2 1293   3.014   2.575   3.661 -0.1359  0.3528  0.7503
   68HFI     O1 1294   1.520   0.440   3.664  1.1429 -0.2920 -0.8897
   68HFI     C1 1295   1.667   0.433   3.682 -0.8016 -0.2419 -0.0392
   68HFI     C2 1296   1.689   0.415   3.835  0.0959 -0.0618  0.2618
   68HFI     F1 1297   1.599   0.329   3.891 -0.2262  0.0093  0.2799
   68HFI     F2 1298   1.673   0.542   3.897 -0.3539 -0.1654 -0.3133
   68HFI     F3 1299   1.808   0.373   3.862 -0.5895  0.0267  0.0624
   68HFI     C3 1300   1.744   0.553   3.615 -0.4302 -0.2308 -0.2393
   68HFI     F4 1301   1.876   0.557   3.659 -0.2230 -0.0943  0.0612
   68HFI     F5 1302   1.685   0.668   3.644 -0.7259 -0.0881  0.3226
   68HFI     F6 1303   1.743   0.538   3.486 -0.1353 -0.2481 -0.1334
   68HFI     H1 1304   1.477   0.506   3.722  3.6612  0.5323  0.0692
   68HFI     H2 1305   1.696   0.339   3.634  0.1182 -0.0411  0.1194
   69HFI     O1 1306   1.696   1.907   2.563 -0.1787 -0.1141  0.1984
   69HFI     C1 1307   1.655   2.016   2.472  0.0982 -0.8681 -0.1182
   69HFI     C2 1308   1.721   2.014   2.326 -1.0606 -0.3525  0.9120
   69HFI     F1 1309   1.721   1.897   2.268  0.0423  0.2487  0.0689
   69HFI     F2 1310   1.845   2.053   2.341  0.5184  0.2704  0.3709
   69HFI     F3 1311   1.662   2.100   2.245  0.0059 -0.3171  0.0081
   69HFI     C3 1312   1.669   2.162   2.536  0.6355 -0.1518 -0.1796
   69HFI     F4 1313   1.577   2.182   2.628  0.0178 -1.4213  0.1879
   69HFI     F5 1314   1.652   2.264   2.446 -0.1224 -0.3944 -0.0758
   69HFI     F6 1315   1.795   2.179   2.591  0.2913  0.1702  0.1687
   69HFI     H1 1316   1.691   1.825   2.511 -0.8704 -0.7261  1.2189
   69HFI     H2 1317   1.549   2.003   2.448 -0.0504 -0.0427  0.0789
   70HFI     O1 1318   2.454   0.446   1.333 -0.0851 -0.2287  0.2163
   70HFI     C1 1319   2.523   0.561   1.390 -0.2299  0.5708 -0.0109
   70HFI     C2 1320   2.482   0.586   1.544 -0.6017 -0.0615 -0.9047
   70HFI     F1 1321   2.364   0.648   1.550  0.4603 -0.2040  0.2763
   70HFI     F2 1322   2.577   0.669   1.598  0.2966  0.3646  0.0007
   70HFI     F3 1323   2.476   0.466   1.614 -0.3513 -0.7767  0.8255
   70HFI     C3 1324   2.513   0.694   1.306 -0.5121 -0.8773  0.0554
   70HFI     F4 1325   2.383   0.731   1.284  0.2937  0.4102 -0.4358
   70HFI     F5 1326   2.570   0.668   1.188  0.0560 -0.4045  0.1886
   70HFI     F6 1327   2.577   0.794   1.363 -0.7342 -0.2740 -0.2621
   70HFI     H1 1328   2.358   0.457   1.344 -0.0075  0.1569  0.5163
   70HFI     H2 1329   2.630   0.543   1.406  0.0603  1.3692 -0.9977
   71HFI     O1 1330   1.916   3.167   0.443 -0.7945  0.0268  0.0901
   71HFI     C1 1331   1.835   3.131   0.557 -0.5592 -0.1055 -0.2145
   71HFI     C2 1332   1.690   3.155   0.536 -0.4266 -0.8669 -0.6523
   71HFI     F1 1333   1.665   3.273   0.485  0.1231 -0.4859  0.9381
   71HFI     F2 1334   1.617   3.150   0.650  0.2143  0.0694 -0.8518
   71HFI     F3 1335   1.640   3.060   0.457 -0.6160 -0.6833 -0.7346
   71HFI     C3 1336   1.898   3.185   0.688 -0.8370 -0.0303 -0.4948
   71HFI     F4 1337   2.034   3.189   0.681 -0.0013 -0.1371  0.2135
   71HFI     F5 1338   1.857   3.118   0.803 -0.2161 -0.3204 -0.2903
   71HFI     F6 1339   1.854   3.315   0.710  0.0635 -0.4810 -0.0441
   71HFI     H1 1340   1.950   3.256   0.464 -2.9254  0.8742  0.0694
   71HFI     H2 1341   1.847   3.022   0.570 -0.3153 -0.1617 -0.9255
   72HFI     O1 1342   3.339   0.264   1.159  0.0626 -0.1268  0.4794
   72HFI     C1 1343   3.271   0.306   1.037  0.0445 -0.0579 -0.2801
   72HFI     C2 1344   3.152   0.398   1.077  0.3678 -0.0249  0.3089
   72HFI     F1 1345   3.077   0.433   0.975 -0.4779  0.0304  0.2329
   72HFI     F2 1346   3.198   0.518   1.125  0.0442  0.0353 -0.5676
   72HFI     F3 1347   3.075   0.344   1.171  0.2884  0.0221  0.2695
   72HFI     C3 1348   3.229   0.186   0.949  0.1437 -0.0962  0.6739
   72HFI     F4 1349   3.184   0.224   0.836 -0.2142  0.0098  0.6413
   72HFI     F5 1350   3.136   0.115   1.011  0.2425 -0.1432  0.1257
   72HFI     F6 1351   3.335   0.104   0.918  0.4151  0.4263 -0.3435
   72HFI     H1 1352   3.271   0.224   1.215 -1.0376 -1.2631 -1.5959
   72HFI     H2 1353   3.341   0.367   0.978 -3.0985  3.7750 -0.2859
   73HFI     O1 1354   0.021   2.155   2.476  0.0138  0.0077 -0.8368
   73HFI     C1 1355  -0.013   2.027   2.417 -0.9013 -0.2962  0.5019
   73HFI     C2 1356   0.110   1.961   2.354  0.2588 -0.6799  0.3586
   73HFI     F1 1357   0.093   1.838   2.322  0.4441  0.3145  0.7291
   73HFI     F2 1358   0.213   1.968   2.449  0.1831  0.6193 -0.3041
   73HFI     F3 1359   0.148   2.024   2.239 -0.0761  0.2912 -0.1562
   73HFI     C3 1360  -0.124   2.046   2.313 -0.6254 -0.4454 -0.1181
   73HFI     F4 1361  -0.149   1.927   2.248 -0.0927 -0.2608 -0.4283
   73HFI     F5 1362  -0.106   2.141   2.220  0.6101  0.1914  0.3711
   73HFI     F6 1363  -0.240   2.078   2.381  1.0772  0.2930  0.0589
   73HFI     H1 1364   0.099   2.150   2.534 -0.3272 -0.1672 -0.3830
   73HFI     H2 1365  -0.038   1.950   2.491  2.7268  0.1541  2.3097
   74HFI     O1 1366   1.976   2.780   0.671 -0.4954 -0.0000 -0.1396
   74HFI     C1 1367   2.010   2.692   0.782  0.2606 -0.1225 -0.0432
   74HFI     C2 1368   2.099   2.767   0.891 -0.0883 -0.7852 -0.1042
   74HFI     F1 1369   2.153   2.690   0.993  0.1137  0.3167  0.4657
   74HFI     F2 1370   2.036   2.869   0.950  0.3178 -0.1006  0.7995
   74HFI     F3 1371   2.205   2.824   0.832  0.4823  0.1233 -0.1262
   74HFI     C3 1372   2.084   2.560   0.740  0.5498 -0.1644  0.0700
   74HFI     F4 1373   2.199   2.590   0.672  0.4615 -0.2226  0.2356
   74HFI     F5 1374   2.002   2.488   0.661 -0.5606 -0.2482  0.3316
   74HFI     F6 1375   2.125   2.481   0.838  0.3088 -0.1948 -0.2503
   74HFI     H1 1376   2.054   2.794   0.615  0.3668 -2.8416  0.2466
   74HFI     H2 1377   1.918   2.668   0.837 -0.2992 -1.9830 -1.7385
   75HFI     O1 1378   1.569   0.375   1.395 -0.3423  1.3165  0.0893
   75HFI     C1 1379   1.432   0.430   1.374 -0.4766 -0.2163  0.2791
   75HFI     C2 1380   1.367   0.434   1.515 -0.2935  0.0992  0.2154
   75HFI     F1 1381   1.419   0.541   1.586 -0.2621 -0.1611 -0.6498
   75HFI     F2 1382   1.388   0.318   1.581  0.3561  0.0166  0.3128
   75HFI     F3 1383   1.237   0.459   1.500 -0.2096  0.1856 -0.1169
   75HFI     C3 1384   1.355   0.339   1.276 -0.1940 -0.8822 -0.2012
   75HFI     F4 1385   1.421   0.327   1.161 -0.5025  0.3492  0.4733
   75HFI     F5 1386   1.240   0.404   1.243  0.0041  0.5923 -0.2990
   75HFI     F6 1387   1.329   0.216   1.329 -0.0263 -0.8190 -0.5733
   75HFI     H1 1388   1.574   0.290   1.348 -0.1764  1.6256 -0.4553
   75HFI     H2 1389   1.441   0.530   1.331 -1.1515 -0.9208 -1.5564
   76HFI     O1 1390   2.833   1.794   2.710  0.1876 -0.0085  0.1209
   76HFI     C1 1391   2.796   1.716   2.825  0.8690  0.5134 -0.7412
   76HFI     C2 1392   2.881   1.591   2.858  0.6541  0.1176 -0.2433
   76HFI     F1 1393   2.851   1.548   2.989 -0.4555  0.1445  0.7180
   76HFI     F2 1394   3.013   1.622   2.856  0.0412  0.1610 -0.2550
   76HFI     F3 1395   2.851   1.496   2.769  0.6490 -0.6043 -0.0538
   76HFI     C3 1396   2.644   1.683   2.837 -0.1648  0.2882 -0.3173
   76HFI     F4 1397   2.604   1.641   2.964 -0.2169  0.1307  0.4843
   76HFI     F5 1398   2.594   1.602   2.748  0.3867  0.7961  0.5301
   76HFI     F6 1399   2.579   1.798   2.822  0.3617  0.2011  0.2497
   76HFI     H1 1400   2.781   1.755   2.637  0.5686 -0.6025  0.1613
   76HFI     H2 1401   2.813   1.775   2.915 -0.1698 -1.0894  0.5212
   77HFI     O1 1402   0.053   2.521   1.364  0.1522 -0.4392 -0.3186
   77HFI     C1 1403   0.134   2.404   1.400  0.2345  1.0219  0.6069
   77HFI     C2 1404   0.181   2.403   1.542  0.0995  0.4112 -0.7439
   77HFI     F1 1405   0.239   2.522   1.580 -0.7616  0.6763  0.3443
   77HFI     F2 1406   0.268   2.305   1.564 -0.1586 -0.7897 -0.0259
   77HFI     F3 1407   0.081   2.369   1.626 -0.1593 -0.0645 -0.0459
   77HFI     C3 1408   0.255   2.378   1.299 -0.0329  0.1026 -0.6279
   77HFI     F4 1409   0.294   2.245   1.292 -0.1780 -0.3782  0.2142
   77HFI     F5 1410   0.363   2.454   1.339  0.6414  0.1200 -0.3761
   77HFI     F6 1411   0.222   2.412   1.174  0.3957  0.6898 -0.0263
   77HFI     H1 1412   0.080   2.602   1.410 -2.7398  0.1649  0.4370
   77HFI     H2 1413   0.076   2.312   1.391  0.6396  1.1031 -4.0895
   78HFI     O1 1414   0.845   1.260   0.011 -0.5806 -0.0710  0.5286
   78HFI     C1 1415   0.962   1.256  -0.077  0.1255 -0.8904  0.6024
   78HFI     C2 1416   1.055   1.381  -0.055 -0.5611  0.6551 -0.1367
   78HFI     F1 1417   1.174   1.362  -0.109 -0.7835  0.5736  0.4347
   78HFI     F2 1418   1.077   1.385   0.077 -0.0438 -0.4778  0.9097
   78HFI     F3 1419   1.000   1.494  -0.108  0.4496  0.1220 -0.1782
   78HFI     C3 1420   0.933   1.220  -0.226 -0.0635  0.4428 -0.1578
   78HFI     F4 1421   1.043   1.158  -0.273 -0.5761  0.0102  0.1227
   78HFI     F5 1422   0.896   1.327  -0.315  0.0572  0.4810 -0.7248
   78HFI     F6 1423   0.825   1.139  -0.232 -0.2880  0.3817 -0.7088
   78HFI     H1 1424   0.766   1.273  -0.044  0.1943 -0.6819 -0.7421
   78HFI     H2 1425   1.029   1.177  -0.040  1.6381  0.7137  1.4009
   79HFI     O1 1426   0.496   1.161   2.837  0.4589  0.0324 -0.0105
   79HFI     C1 1427   0.362   1.199   2.792  0.3716 -0.3673 -0.3114
   79HFI     C2 1428   0.297   1.285   2.903 -0.0685  0.7246 -0.2564
   79HFI     F1 1429   0.278   1.228   3.021 -0.2520  0.4502  0.4471
   79HFI     F2 1430   0.173   1.334   2.865  0.2836 -0.1210  0.4679
   79HFI     F3 1431   0.368   1.395   2.922 -0.1877 -0.0426  0.1129
   79HFI     C3 1432   0.270   1.087   2.751  1.2316  0.6615 -0.5244
   79HFI     F4 1433   0.328   1.005   2.663  0.3377  0.3802 -0.2291
   79HFI     F5 1434   0.160   1.138   2.692 -0.1541 -0.2100  0.2828
   79HFI     F6 1435   0.229   1.018   2.860 -0.6165  0.6490  0.2188
   79HFI     H1 1436   0.493   1.155   2.934 -0.3732  0.4620 -0.0069
   79HFI     H2 1437   0.375   1.266   2.706 -0.9937  1.7711  1.0944
   80HFI     O1 1438   1.988   1.411   2.756  0.4614  0.1550 -0.1095
   80HFI     C1 1439   2.056   1.526   2.808  0.4886  1.3203 -0.5297
   80HFI     C2 1440   1.955   1.645   2.819 -0.3023 -0.0607  1.1958
   80HFI     F1 1441   1.922   1.676   2.687  0.0221  0.0187 -0.4705
   80HFI     F2 1442   2.017   1.753   2.879 -0.3936 -0.6803 -0.3447
   80HFI     F3 1443   1.837   1.611   2.890 -0.3723 -0.6011 -0.0334
   80HFI     C3 1444   2.198   1.543   2.747  0.1729 -0.9615 -0.2057
   80HFI     F4 1445   2.184   1.548   2.614 -0.1541  0.2855 -0.0882
   80HFI     F5 1446   2.271   1.432   2.781  0.1102 -0.3972 -1.0628
   80HFI     F6 1447   2.256   1.654   2.792 -0.2130 -0.0543 -0.5514
   80HFI     H1 1448   1.935   1.437   2.679  0.8783  0.9035 -0.1468
   80HFI     H2 1449   2.082   1.503   2.912  1.3673 -0.0653 -1.0428
   81HFI     O1 1450   0.324   3.042   1.489 -0.1597 -0.4864  0.1270
   81HFI     C1 1451   0.191   2.983   1.516  0.9987 -0.4736  0.8838
   81HFI     C2 1452   0.166   2.855   1.437  0.0112  0.3117  0.1172
   81HFI     F1 1453   0.072   2.776   1.491  0.2086 -0.1285  0.4778
   81HFI     F2 1454   0.281   2.786   1.444 -0.3803  0.1151  0.4832
   81HFI     F3 1455   0.130   2.880   1.308  0.1519 -0.0333 -0.1956
   81HFI     C3 1456   0.071   3.082   1.488 -0.0141 -0.0723  0.6474
   81HFI     F4 1457  -0.051   3.025   1.520  0.3793  0.8856  0.0423
   81HFI     F5 1458   0.073   3.131   1.366  0.6590 -0.0940 -0.2002
   81HFI     F6 1459   0.079   3.184   1.576  0.1523  0.3148 -0.1553
   81HFI     H1 1460   0.302   3.136   1.478  1.4314 -0.0121  0.8735
   81HFI     H2 1461   0.172   2.959   1.621 -3.4968 -0.1337  0.2384
   82HFI     O1 1462   1.799   1.553   3.675 -0.2116 -0.0062 -0.2865
   82HFI     C1 1463   1.703   1.473   3.757 -0.0094 -0.7053 -0.4386
   82HFI     C2 1464   1.562   1.476   3.698  0.1368 -0.6125 -0.1843
   82HFI     F1 1465   1.544   1.382   3.607  0.4353  0.3856  0.1731
   82HFI     F2 1466   1.541   1.592   3.641  0.3506  0.0186 -0.3401
   82HFI     F3 1467   1.473   1.463   3.799  0.7155  0.1484  0.3569
   82HFI     C3 1468   1.731   1.494   3.907 -0.2424  0.5200  0.4616
   82HFI     F4 1469   1.713   1.627   3.934  0.5846 -0.0480 -0.3096
   82HFI     F5 1470   1.856   1.460   3.939 -0.2486 -0.2143 -0.0079
   82HFI     F6 1471   1.648   1.428   3.992  0.0961 -0.3602  0.3820
   82HFI     H1 1472   1.834   1.629   3.725 -2.0510 -0.4556  1.7450
   82HFI     H2 1473   1.732   1.369   3.739  1.3183 -0.3581 -0.4276
   83HFI     O1 1474   1.777   1.046   2.989 -0.3925 -0.3630 -0.2126
   83HFI     C1 1475   1.705   1.141   2.906 -0.8717  0.3765  0.1737
   83HFI     C2 1476   1.569   1.178   2.968 -0.0098 -0.3840 -0.1274
   83HFI     F1 1477   1.514   1.288   2.909  0.2448 -0.4626  0.0133
   83HFI     F2 1478   1.590   1.196   3.096 -0.0757  0.6047  0.1648
   83HFI     F3 1479   1.480   1.074   2.960 -0.1987  0.0733  0.7635
   83HFI     C3 1480   1.700   1.092   2.757 -0.7798 -0.0361 -0.0815
   83HFI     F4 1481   1.822   1.141   2.701  0.2053 -0.3517 -0.0158
   83HFI     F5 1482   1.607   1.151   2.678  0.7926 -0.0481  0.1085
   83HFI     F6 1483   1.700   0.956   2.742 -0.1497 -0.2772 -0.4682
   83HFI     H1 1484   1.735   1.049   3.077  1.9368  2.6598  0.8816
   83HFI     H2 1485   1.766   1.232   2.902  1.1258 -0.9416 -0.2599
   84HFI     O1 1486   2.248   3.235   3.182 -0.3470  0.2442  0.0305
   84HFI     C1 1487   2.202   3.157   3.293 -0.0764 -0.4090 -0.4150
   84HFI     C2 1488   2.280   3.027   3.297 -0.1710  0.8690 -0.6935
   84HFI     F1 1489   2.275   2.965   3.417  0.8865  0.0563 -0.0267
   84HFI     F2 1490   2.409   3.044   3.262 -0.0235  0.0124  0.2726
   84HFI     F3 1491   2.237   2.940   3.209  0.1213 -0.3425 -0.1869
   84HFI     C3 1492   2.056   3.141   3.307  1.0628 -0.3818 -0.2114
   84HFI     F4 1493   2.002   3.101   3.191  0.2556  0.5001 -0.4398
   84HFI     F5 1494   1.994   3.256   3.331  0.1938  0.3392 -0.1251
   84HFI     F6 1495   2.018   3.054   3.405  0.3532 -0.1493  0.4112
   84HFI     H1 1496   2.202   3.205   3.102  0.8583 -1.6420  0.0128
   84HFI     H2 1497   2.241   3.203   3.385  0.8612 -0.5012 -0.7593
   85HFI     O1 1498   0.970   1.660   1.264 -0.1026  0.4091 -0.0029
   85HFI     C1 1499   0.909   1.750   1.356  0.1379  0.4211 -0.4055
   85HFI     C2 1500   0.828   1.870   1.296  0.4517 -0.1860 -0.4693
   85HFI     F1 1501   0.907   1.964   1.241 -0.3368 -0.4659  0.4076
   85HFI     F2 1502   0.747   1.937   1.383 -0.0637  0.7972 -0.1955
   85HFI     F3 1503   0.753   1.824   1.193 -0.2060 -0.4022  0.0059
   85HFI     C3 1504   1.006   1.814   1.463 -0.3581  0.2876 -0.1482
   85HFI     F4 1505   1.068   1.724   1.549 -0.0689 -0.0350 -0.5209
   85HFI     F5 1506   0.952   1.907   1.537 -0.0299  0.0491  0.4165
   85HFI     F6 1507   1.108   1.874   1.393  0.2750 -0.3466  0.2869
   85HFI     H1 1508   1.066   1.675   1.254 -0.6721  2.7402 -2.5580
   85HFI     H2 1509   0.836   1.704   1.424  3.3047 -1.9449  1.5404
   86HFI     O1 1510   1.527   0.830   1.370  0.1325  0.6963  0.3141
   86HFI     C1 1511   1.450   0.885   1.484  0.4891 -0.2165  0.2936
   86HFI     C2 1512   1.290   0.858   1.474 -0.0679  0.2603 -0.0066
   86HFI     F1 1513   1.238   0.940   1.374  0.0720 -0.3078  0.8213
   86HFI     F2 1514   1.226   0.886   1.596 -0.2380  0.2602 -0.2146
   86HFI     F3 1515   1.263   0.726   1.431 -0.1589  0.0933  0.0834
   86HFI     C3 1516   1.483   1.040   1.510 -0.4663 -0.1578  0.2814
   86HFI     F4 1517   1.611   1.059   1.517 -0.0811 -0.1745 -0.8695
   86HFI     F5 1518   1.429   1.074   1.630  0.5517 -0.4790 -0.4047
   86HFI     F6 1519   1.438   1.112   1.403  0.4449 -0.1364  0.4570
   86HFI     H1 1520   1.618   0.864   1.370  0.2080  0.5143 -0.2389
   86HFI     H2 1521   1.486   0.840   1.577  0.9494  1.6049  1.0331
   87HFI     O1 1522   0.832   0.375   1.593  0.6816  0.0848 -0.8713
   87HFI     C1 1523   0.851   0.464   1.481  0.0788 -0.3669  0.3332
   87HFI     C2 1524   0.906   0.603   1.520 -0.4455  0.4060  0.0530
   87HFI     F1 1525   1.004   0.606   1.613  0.2385  0.4065  0.2467
   87HFI     F2 1526   0.822   0.695   1.558 -0.1338  0.6074  0.7213
   87HFI     F3 1527   0.964   0.656   1.404  0.2687 -0.4092  0.2748
   87HFI     C3 1528   0.727   0.467   1.396  0.2520 -0.1700  0.3189
   87HFI     F4 1529   0.613   0.498   1.462  0.2011 -0.2350  0.0073
   87HFI     F5 1530   0.707   0.344   1.344  0.0506 -0.1058  0.3565
   87HFI     F6 1531   0.730   0.542   1.284 -0.0195 -0.4928  0.1567
   87HFI     H1 1532   0.821   0.282   1.567  1.0371 -0.7677  1.8854
   87HFI     H2 1533   0.932   0.416   1.425  0.1046 -0.3829  0.3845
   88HFI     O1 1534   1.697   1.613   3.380  0.2187 -0.1097 -0.2582
   88HFI     C1 1535   1.687   1.757   3.366  0.3161  0.3414  0.5095
   88HFI     C2 1536   1.559   1.816   3.316  0.7216  0.0328 -0.3635
   88HFI     F1 1537   1.531   1.779   3.190 -0.0690  0.2565  0.1141
   88HFI     F2 1538   1.564   1.949   3.327  0.1225  0.0287 -0.0783
   88HFI     F3 1539   1.451   1.788   3.389  0.6383  0.0291 -0.4136
   88HFI     C3 1540   1.817   1.810   3.293 -0.5209 -1.1714 -0.4205
   88HFI     F4 1541   1.830   1.749   3.169 -0.2407 -0.4687  0.3196
   88HFI     F5 1542   1.925   1.770   3.364  0.1812 -0.1600  0.0855
   88HFI     F6 1543   1.819   1.942   3.270  0.3937 -0.1462  0.2097
   88HFI     H1 1544   1.613   1.570   3.404  1.4474 -2.1400  0.6244
   88HFI     H2 1545   1.700   1.804   3.464 -0.1696  0.7427  0.3869
   89HFI     O1 1546   1.555   1.505   1.259  0.3891 -0.1331  0.3366
   89HFI     C1 1547   1.496   1.457   1.389  0.0687 -0.1827  0.4248
   89HFI     C2 1548   1.382   1.547   1.446  0.1055 -0.7847  0.0498
   89HFI     F1 1549   1.331   1.496   1.553  0.2879 -0.3974 -0.2880
   89HFI     F2 1550   1.281   1.554   1.352 -0.6667  0.2830 -0.7832
   89HFI     F3 1551   1.424   1.671   1.478 -0.0274  0.1358 -0.5056
   89HFI     C3 1552   1.609   1.434   1.495 -0.3311  0.5921  0.3099
   89HFI     F4 1553   1.648   1.546   1.553 -0.3962 -0.1346  0.2888
   89HFI     F5 1554   1.726   1.383   1.442 -0.0584 -0.4061 -0.6362
   89HFI     F6 1555   1.563   1.345   1.595 -0.4684  0.3400  0.8626
   89HFI     H1 1556   1.482   1.552   1.213  1.4319  1.5437  0.3346
   89HFI     H2 1557   1.462   1.354   1.371 -1.9736  0.3284  1.1494
   90HFI     O1 1558   0.901   2.286   1.325 -0.0950  0.0361  0.4469
   90HFI     C1 1559   0.834   2.384   1.420 -0.3774 -0.6232 -0.0646
   90HFI     C2 1560   0.946   2.451   1.521  0.2590 -0.3727 -0.1400
   90HFI     F1 1561   0.895   2.535   1.614  0.1943  0.9195  0.3010
   90HFI     F2 1562   1.027   2.523   1.445  0.8690 -0.2613  0.0062
   90HFI     F3 1563   1.027   2.357   1.576 -0.1824 -0.1507  0.7532
   90HFI     C3 1564   0.712   2.321   1.493  0.0013 -0.1077 -0.2489
   90HFI     F4 1565   0.636   2.262   1.399 -0.3890 -0.3328  0.8708
   90HFI     F5 1566   0.636   2.411   1.558  0.3971 -0.0659  0.4842
   90HFI     F6 1567   0.751   2.216   1.580 -0.3453 -0.5965  0.0783
   90HFI     H1 1568   0.848   2.206   1.311 -0.4898  0.7191 -2.1791
   90HFI     H2 1569   0.813   2.469   1.354  1.3051 -0.8158 -0.8661
   91HFI     O1 1570   0.510   1.613   0.384 -0.0800  0.0064  1.0194
   91HFI     C1 1571   0.444   1.725   0.457 -0.1446  0.3182  0.1683
   91HFI     C2 1572   0.349   1.681   0.569 -0.5710 -0.4258 -0.4832
   91HFI     F1 1573   0.281   1.567   0.539  0.0751  0.1929  0.5374
   91HFI     F2 1574   0.260   1.783   0.609  0.6207  0.6175  0.4884
   91HFI     F3 1575   0.423   1.655   0.679  0.0383  0.3102 -0.2115
   91HFI     C3 1576   0.386   1.836   0.366  0.0708 -0.0080  0.0325
   91HFI     F4 1577   0.474   1.868   0.271  0.2244 -0.0037 -0.1015
   91HFI     F5 1578   0.356   1.951   0.441 -0.1295 -0.3202  0.2973
   91HFI     F6 1579   0.273   1.787   0.304  0.1164 -0.8009 -0.7092
   91HFI     H1 1580   0.578   1.582   0.447  2.2833  3.1865  0.1558
   91HFI     H2 1581   0.518   1.776   0.520  0.2132 -0.7593  0.6459
   92HFI     O1 1582   3.133   0.098   1.310  0.0388  0.4430 -0.1934
   92HFI     C1 1583   3.051   0.164   1.413  0.5192  0.7124 -0.0988
   92HFI     C2 1584   3.134   0.262   1.491 -0.0952 -0.4165 -0.4456
   92HFI     F1 1585   3.207   0.194   1.582  0.0902 -0.2799  0.2098
   92HFI     F2 1586   3.055   0.346   1.561  0.4121 -0.3045  0.0700
   92HFI     F3 1587   3.221   0.333   1.421  0.0173 -0.4942 -0.3002
   92HFI     C3 1588   2.954   0.064   1.486  1.3176  0.0517 -0.5275
   92HFI     F4 1589   2.868   0.003   1.398 -0.2839 -0.5215  0.4624
   92HFI     F5 1590   2.884   0.140   1.568 -0.0358 -0.0688 -0.0628
   92HFI     F6 1591   3.017  -0.036   1.560  0.3950  0.1982  0.2128
   92HFI     H1 1592   3.157   0.009   1.342 -3.8875  0.5898  3.5790
   92HFI     H2 1593   2.987   0.233   1.357 -3.7490 -1.3055  2.0597
   93HFI     O1 1594   1.908   2.250   0.418 -0.1184  0.2894  0.2917
   93HFI     C1 1595   1.853   2.258   0.282 -0.5182 -0.3212 -0.2759
   93HFI     C2 1596   1.956   2.314   0.181  0.6739  0.5275 -0.6332
   93HFI     F1 1597   2.009   2.438   0.226 -0.3619  0.4689  0.1635
   93HFI     F2 1598   1.905   2.332   0.051  0.2148 -0.2765  0.2686
   93HFI     F3 1599   2.063   2.229   0.178  0.2726  0.1130 -0.2730
   93HFI     C3 1600   1.731   2.341   0.283 -0.0487  0.0743  0.4400
   93HFI     F4 1601   1.670   2.362   0.165 -0.2598  0.3786  0.0617
   93HFI     F5 1602   1.754   2.463   0.333  0.1955  0.0929 -0.1206
   93HFI     F6 1603   1.640   2.293   0.367 -0.0366 -0.1672  0.3946
   93HFI     H1 1604   1.958   2.332   0.431  0.1877  0.4216 -1.5273
   93HFI     H2 1605   1.820   2.157   0.255 -1.3058  0.3792 -1.9767
   94HFI     O1 1606   0.799   1.253   0.308  0.0844  0.7923  0.0549
   94HFI     C1 1607   0.840   1.128   0.374  0.3843 -0.2253  0.5608
   94HFI     C2 1608   0.875   1.150   0.521 -0.1675  0.7624 -0.0804
   94HFI     F1 1609   0.775   1.205   0.582  0.0026  0.4608 -0.4058
   94HFI     F2 1610   0.981   1.232   0.528  0.1322 -0.2128 -0.3820
   94HFI     F3 1611   0.897   1.030   0.586 -0.1558 -0.0948  0.5072
   94HFI     C3 1612   0.968   1.057   0.301 -0.1456 -0.3943  0.4950
   94HFI     F4 1613   1.084   1.128   0.303 -0.1639  0.6335 -0.8373
   94HFI     F5 1614   0.948   1.022   0.168 -0.0705 -0.3776 -0.3562
   94HFI     F6 1615   0.992   0.940   0.363 -0.5393 -0.5345 -0.2942
   94HFI     H1 1616   0.825   1.254   0.214 -0.2880  0.7370 -0.0485
   94HFI     H2 1617   0.756   1.057   0.373  0.0337  0.1769  1.5865
   95HFI     O1 1618   0.008   0.028   2.247  0.1395 -0.0268 -0.2998
   95HFI     C1 1619  -0.090  -0.019   2.342  0.3736 -0.0658  0.0064
   95HFI     C2 1620  -0.048  -0.007   2.493 -0.4571 -0.2977  0.3388
   95HFI     F1 1621   0.061  -0.076   2.522 -0.1460  0.2185 -0.2143
   95HFI     F2 1622  -0.149  -0.039   2.575 -0.2051  0.2558 -0.0377
   95HFI     F3 1623  -0.020   0.124   2.509 -0.0337 -0.2671  0.6165
   95HFI     C3 1624  -0.121  -0.171   2.301  0.5467  0.5436 -0.3160
   95HFI     F4 1625  -0.217  -0.169   2.206  0.3772  0.0977 -0.1409
   95HFI     F5 1626  -0.155  -0.260   2.408 -0.0376  0.3938 -0.3831
   95HFI     F6 1627  -0.020  -0.230   2.239  0.3991  0.0408  0.1842
   95HFI     H1 1628   0.081   0.076   2.291  0.2494  0.3680 -0.9151
   95HFI     H2 1629  -0.187   0.033   2.331  0.5358  0.2330 -0.0061
   96HFI     O1 1630   2.351   1.771   0.144 -0.7009 -1.1276 -0.1230
   96HFI     C1 1631   2.253   1.743   0.038  0.0161 -0.0004 -0.5615
   96HFI     C2 1632   2.115   1.709   0.107  0.4160 -0.1158  0.3128
   96HFI     F1 1633   2.078   1.811   0.182 -0.1948 -0.2291 -0.1690
   96HFI     F2 1634   2.135   1.597   0.179  0.4828 -0.3985 -0.4464
   96HFI     F3 1635   2.031   1.678   0.011 -0.4991 -0.0436  0.0562
   96HFI     C3 1636   2.292   1.634  -0.066  0.5555 -0.1607  0.6771
   96HFI     F4 1637   2.414   1.668  -0.117 -0.2458  0.1053 -0.1718
   96HFI     F5 1638   2.212   1.636  -0.177  0.2765 -0.2131 -0.5287
   96HFI     F6 1639   2.303   1.509  -0.014 -0.2552  0.6801 -0.0387
   96HFI     H1 1640   2.357   1.697   0.207 -0.0670 -1.6147 -0.7473
   96HFI     H2 1641   2.227   1.833  -0.020 -0.2943 -2.1833 -3.9155
   97HFI     O1 1642   0.839   0.573   0.681  0.1909 -0.0359 -0.1313
   97HFI     C1 1643   0.882   0.562   0.544  0.4325 -0.4062  1.0976
   97HFI     C2 1644   0.804   0.656   0.440  0.1087 -0.0108 -0.0033
   97HFI     F1 1645   0.856   0.642   0.317 -0.3055 -0.5107  0.2543
   97HFI     F2 1646   0.813   0.783   0.483 -0.1775  0.0853  0.1185
   97HFI     F3 1647   0.677   0.622   0.434  0.0445  0.2031  0.4335
   97HFI     C3 1648   0.880   0.412   0.498 -0.7817 -0.4494 -0.1762
   97HFI     F4 1649   0.754   0.370   0.512 -0.1332 -0.4388  0.3031
   97HFI     F5 1650   0.946   0.338   0.588 -0.3159 -0.3033 -0.0770
   97HFI     F6 1651   0.915   0.379   0.374 -0.6612  0.4389 -0.1856
   97HFI     H1 1652   0.801   0.662   0.691  0.5296  0.1320 -0.2938
   97HFI     H2 1653   0.986   0.597   0.542  0.2247  0.2936  1.9723
   98HFI     O1 1654   0.815   0.037   1.393  0.1384  0.1471 -0.6475
   98HFI     C1 1655   0.931  -0.030   1.440  0.1853  0.2809 -0.6834
   98HFI     C2 1656   0.890  -0.162   1.515 -0.0411 -1.1379  0.2018
   98HFI     F1 1657   0.787  -0.148   1.601  0.1851 -0.3195 -0.4566
   98HFI     F2 1658   0.986  -0.221   1.582  0.0385 -0.1098  0.0748
   98HFI     F3 1659   0.843  -0.245   1.427 -0.1739 -0.0460  0.0708
   98HFI     C3 1660   1.018   0.067   1.517 -0.4233 -0.3174  0.1558
   98HFI     F4 1661   1.128   0.013   1.572  0.0493  0.1497  0.4737
   98HFI     F5 1662   0.954   0.110   1.629  0.2758 -0.5025  0.0220
   98HFI     F6 1663   1.058   0.175   1.452 -0.0400  0.1873  0.1978
   98HFI     H1 1664   0.738  -0.023   1.395  0.9605 -0.9441 -0.9021
   98HFI     H2 1665   0.987  -0.059   1.351  0.5379 -0.8555 -0.0924
   99HFI     O1 1666   0.872   2.496   1.119 -0.1429 -0.0589  0.6323
   99HFI     C1 1667   0.968   2.487   1.007  0.1916 -0.1926 -0.3014
   99HFI     C2 1668   0.974   2.352   0.936 -0.3014 -0.0910  0.1752
   99HFI     F1 1669   0.849   2.300   0.922  0.0861 -0.1827 -0.5203
   99HFI     F2 1670   1.060   2.271   0.998 -0.1799  0.0297 -0.2600
   99HFI     F3 1671   1.020   2.373   0.810 -0.6541 -0.4715  0.4418
   99HFI     C3 1672   1.097   2.529   1.071  0.3688  0.2468  0.5502
   99HFI     F4 1673   1.201   2.531   0.978 -0.3896  0.3711 -0.1243
   99HFI     F5 1674   1.124   2.455   1.176  0.2498 -0.0914 -0.2587
   99HFI     F6 1675   1.089   2.656   1.118  0.4210 -0.0753 -0.2365
   99HFI     H1 1676   0.873   2.412   1.168  0.0890  0.4508  1.5062
   99HFI     H2 1677   0.942   2.565   0.934 -0.3966 -1.0829 -1.0514
  100HFI     O1 1678   1.232   3.206   0.171  0.0411 -0.3282 -0.0752
  100HFI     C1 1679   1.145   3.247   0.283 -0.3075 -0.0421  0.3302
  100HFI     C2 1680   1.150   3.390   0.348 -0.1719 -0.5508  0.1800
  100HFI     F1 1681   1.244   3.415   0.440 -0.3041  0.3568  0.2457
  100HFI     F2 1682   1.031   3.421   0.404 -0.4662  0.0792  0.7009
  100HFI     F3 1683   1.169   3.474   0.243 -0.0225  0.3621 -0.2135
  100HFI     C3 1684   1.129   3.129   0.383 -0.0171 -0.2456 -0.0043
  100HFI     F4 1685   1.061   3.168   0.494  0.3651 -0.2501  0.0176
  100HFI     F5 1686   1.254   3.096   0.424 -0.5189 -0.4351  0.1875
  100HFI     F6 1687   1.073   3.019   0.328  0.1871  0.3732 -0.7052
  100HFI     H1 1688   1.238   3.109   0.167 -2.2997 -0.6330  2.1844
  100HFI     H2 1689   1.042   3.238   0.247  0.5377 -0.0026 -2.1880
  101HFI     O1 1690   1.511   3.189   3.195  0.1682 -0.3360 -0.0842
  101HFI     C1 1691   1.616   3.124   3.276 -0.5828  0.4918 -0.0077
  101HFI     C2 1692   1.599   2.969   3.257  0.5467  0.2681  0.2938
  101HFI     F1 1693   1.703   2.907   3.312  0.1651  0.0064  0.1783
  101HFI     F2 1694   1.601   2.938   3.130  0.3007  0.6901 -0.7506
  101HFI     F3 1695   1.489   2.915   3.318 -0.3431  0.1379 -0.4722
  101HFI     C3 1696   1.626   3.176   3.420  0.1477 -0.2910  0.1345
  101HFI     F4 1697   1.617   3.311   3.424  0.2106 -0.0700  0.1021
  101HFI     F5 1698   1.737   3.138   3.484  0.0106 -0.4145 -0.1670
  101HFI     F6 1699   1.519   3.126   3.485  0.3428 -0.1381 -0.6001
  101HFI     H1 1700   1.456   3.227   3.265  0.2892  0.2255 -0.2906
  101HFI     H2 1701   1.713   3.150   3.233  0.5113 -0.2843  1.9576
  102HFI     O1 1702   0.111   0.903   3.128 -0.1923  0.1952  0.1932
  102HFI     C1 1703  -0.006   0.872   3.210 -0.3571 -0.1089 -0.4898
  102HFI     C2 1704  -0.074   0.737   3.189  0.4650 -0.2135 -0.6631
  102HFI     F1 1705   0.012   0.638   3.214 -0.0394 -0.0739 -0.1087
  102HFI     F2 1706  -0.119   0.715   3.066 -0.0787  0.2884  0.5857
  102HFI     F3 1707  -0.176   0.716   3.282  0.0393 -0.5158  0.2255
  102HFI     C3 1708  -0.102   0.991   3.221 -0.1630 -0.2484  0.1978
  102HFI     F4 1709  -0.176   0.994   3.110  0.3658  0.1348 -0.3236
  102HFI     F5 1710  -0.034   1.106   3.225 -0.1733 -0.0870  0.1094
  102HFI     F6 1711  -0.180   0.984   3.333 -0.5831 -0.0888 -0.1891
  102HFI     H1 1712   0.108   0.858   3.041  2.0810 -0.1840  0.2839
  102HFI     H2 1713   0.039   0.865   3.310  1.6142  1.5467 -1.2440
  103HFI     O1 1714   1.850   2.528   1.565  0.2549  0.1038 -0.4592
  103HFI     C1 1715   1.871   2.597   1.441 -0.3276 -0.2488 -0.6922
  103HFI     C2 1716   1.972   2.524   1.351  0.6927  0.3836 -0.2233
  103HFI     F1 1717   2.092   2.503   1.405 -0.6807 -0.4420 -0.2926
  103HFI     F2 1718   1.985   2.601   1.236 -0.2408  0.2003 -0.4952
  103HFI     F3 1719   1.920   2.406   1.317 -0.3775  0.1086  0.4920
  103HFI     C3 1720   1.922   2.733   1.476 -0.3974  0.3755 -0.2931
  103HFI     F4 1721   2.041   2.732   1.534  0.1110  0.0480 -0.4799
  103HFI     F5 1722   1.842   2.799   1.566  0.0233 -0.4132 -0.2980
  103HFI     F6 1723   1.935   2.818   1.369 -0.2896 -0.1491 -0.5173
  103HFI     H1 1724   1.800   2.444   1.558  0.1563  0.1706 -0.5630
  103HFI     H2 1725   1.774   2.612   1.391 -2.7245 -1.7434  3.2674
  104HFI     O1 1726   1.627   0.077   1.336 -0.3529  0.0416  0.0796
  104HFI     C1 1727   1.693  -0.013   1.429  0.5929 -0.1694  0.3010
  104HFI     C2 1728   1.591  -0.093   1.510  0.6283 -0.1649 -0.8090
  104HFI     F1 1729   1.498  -0.143   1.422 -0.2728  0.0768 -0.0992
  104HFI     F2 1730   1.522  -0.028   1.611  0.1532  0.2048 -0.0672
  104HFI     F3 1731   1.652  -0.188   1.576  0.3407 -0.3055  0.1028
  104HFI     C3 1732   1.796   0.058   1.509  1.1242 -0.5925  0.0700
  104HFI     F4 1733   1.738   0.155   1.585 -0.1796  0.1926 -0.0335
  104HFI     F5 1734   1.886   0.113   1.423 -0.4988 -0.1937 -0.3335
  104HFI     F6 1735   1.868  -0.025   1.592 -0.5118  0.0592 -0.2755
  104HFI     H1 1736   1.632   0.031   1.250  0.5773  0.9660 -0.3758
  104HFI     H2 1737   1.751  -0.086   1.370 -0.6736  0.2381 -1.5049
  105HFI     O1 1738   2.303   0.340   2.992 -0.5145  0.0228  0.1390
  105HFI     C1 1739   2.358   0.376   2.853 -0.3018 -0.5182  0.7844
  105HFI     C2 1740   2.365   0.254   2.757 -0.2003  0.2278 -0.4228
  105HFI     F1 1741   2.430   0.144   2.805  0.3098  0.3553 -0.2006
  105HFI     F2 1742   2.427   0.282   2.639 -0.5942  0.2957 -0.4495
  105HFI     F3 1743   2.239   0.220   2.725  0.0602 -0.0348  0.2981
  105HFI     C3 1744   2.486   0.452   2.868  0.1147  0.7714  0.1018
  105HFI     F4 1745   2.591   0.374   2.924  0.3885  0.0336  0.3157
  105HFI     F5 1746   2.463   0.556   2.946  0.5109 -0.2055 -0.1721
  105HFI     F6 1747   2.531   0.504   2.752 -0.5912 -0.0293  0.1435
  105HFI     H1 1748   2.376   0.290   3.034  1.4208  1.7484 -1.0466
  105HFI     H2 1749   2.289   0.448   2.809 -0.4155 -0.5982  0.8323
  106HFI     O1 1750   2.396   1.543   0.310 -0.3152 -0.2614  1.0234
  106HFI     C1 1751   2.514   1.574   0.395 -0.0615 -0.4204  0.4425
  106HFI     C2 1752   2.582   1.442   0.449 -0.0420  0.5129  0.2381
  106HFI     F1 1753   2.691   1.457   0.524 -0.4219 -0.0376  0.1087
  106HFI     F2 1754   2.617   1.363   0.351  0.3596 -0.2039 -0.3429
  106HFI     F3 1755   2.492   1.365   0.518 -0.4949  0.0338 -0.3726
  106HFI     C3 1756   2.489   1.694   0.495  0.0140  0.1662 -0.0191
  106HFI     F4 1757   2.419   1.660   0.601  0.4790  0.5895 -0.0654
  106HFI     F5 1758   2.428   1.795   0.438 -0.1562  0.3018  0.1219
  106HFI     F6 1759   2.612   1.745   0.529  0.0705  0.4825 -0.5896
  106HFI     H1 1760   2.335   1.481   0.355 -0.5972 -0.1295  0.8293
  106HFI     H2 1761   2.590   1.617   0.328 -0.8400  0.0608 -0.1326
  107HFI     O1 1762   2.008   1.815   1.031 -0.2273 -0.0819  0.3162
  107HFI     C1 1763   2.030   1.677   1.006  0.2609  0.1500 -0.4988
  107HFI     C2 1764   2.060   1.597   1.131 -0.0423 -0.0791  0.4030
  107HFI     F1 1765   1.966   1.609   1.226 -0.3167  0.0279 -0.2792
  107HFI     F2 1766   2.167   1.643   1.188  0.2576  0.0144 -0.0445
  107HFI     F3 1767   2.083   1.463   1.103 -0.1758  0.7460  0.0714
  107HFI     C3 1768   2.145   1.664   0.899 -0.6523 -0.0444  0.2874
  107HFI     F4 1769   2.119   1.734   0.777  0.0770  0.0054  0.5345
  107HFI     F5 1770   2.167   1.533   0.871 -0.1315 -0.2999 -0.7653
  107HFI     F6 1771   2.261   1.708   0.944 -0.1779 -0.0297  0.1754
  107HFI     H1 1772   1.990   1.830   1.125 -2.3581  0.0184 -0.0793
  107HFI     H2 1773   1.938   1.640   0.960 -0.3001  0.4485  0.3765
  108HFI     O1 1774   2.183   3.192   0.127 -0.0272  0.0751  0.0866
  108HFI     C1 1775   2.195   3.304   0.038  0.9480  0.4519  0.3188
  108HFI     C2 1776   2.297   3.268  -0.084  0.4134  0.1920  0.5225
  108HFI     F1 1777   2.411   3.218  -0.033  0.2178 -0.1167  0.2726
  108HFI     F2 1778   2.335   3.371  -0.161 -0.2861  0.2788  0.2710
  108HFI     F3 1779   2.251   3.169  -0.158 -0.3524  0.2085 -0.4444
  108HFI     C3 1780   2.222   3.430   0.123 -0.1640 -0.0831 -0.3647
  108HFI     F4 1781   2.236   3.546   0.050  0.1722 -0.1211  0.3595
  108HFI     F5 1782   2.342   3.411   0.187 -0.0913  0.1332  0.0120
  108HFI     F6 1783   2.128   3.451   0.220  0.5624 -0.7221 -0.0620
  108HFI     H1 1784   2.273   3.168   0.157 -1.0955 -4.2957  0.0245
  108HFI     H2 1785   2.100   3.318  -0.014  1.6690  2.4501 -0.5036
  109HFI     O1 1786   2.350   0.912   3.227 -0.3768 -0.4483  0.5729
  109HFI     C1 1787   2.219   0.837   3.221  0.1118 -0.6169  0.0278
  109HFI     C2 1788   2.101   0.932   3.216 -0.1239  0.7003  0.1498
  109HFI     F1 1789   1.979   0.869   3.191 -0.0468  0.0473 -0.4201
  109HFI     F2 1790   2.121   1.018   3.114  0.1153 -0.9890  0.1942
  109HFI     F3 1791   2.096   0.997   3.335  0.3243  0.4731 -0.2503
  109HFI     C3 1792   2.210   0.718   3.325  0.3375  0.4781  0.3125
  109HFI     F4 1793   2.096   0.648   3.320 -0.1195  0.5723  0.2281
  109HFI     F5 1794   2.233   0.745   3.456  0.2094  0.3058  0.5046
  109HFI     F6 1795   2.306   0.626   3.300  0.1793  0.3621  0.4747
  109HFI     H1 1796   2.352   0.961   3.311 -0.1233  1.1582 -0.3425
  109HFI     H2 1797   2.213   0.780   3.128  1.7759  0.1410 -0.5454
  110HFI     O1 1798   2.675   2.449   2.869  0.4228 -0.6486 -0.1855
  110HFI     C1 1799   2.534   2.493   2.890 -0.0010 -0.0182 -1.2743
  110HFI     C2 1800   2.524   2.624   2.981  0.0244 -1.0165  0.0083
  110HFI     F1 1801   2.633   2.697   2.949  0.0879  0.0377  0.4140
  110HFI     F2 1802   2.537   2.588   3.109  0.3190 -0.1520 -0.0602
  110HFI     F3 1803   2.414   2.698   2.957 -0.1836  0.0053 -0.1339
  110HFI     C3 1804   2.444   2.382   2.929  0.5260  0.7261 -0.6512
  110HFI     F4 1805   2.313   2.408   2.912  0.5062 -0.0988 -0.0182
  110HFI     F5 1806   2.465   2.341   3.052  0.6699 -0.0121  0.1248
  110HFI     F6 1807   2.472   2.272   2.853  0.2365  0.3955  0.1262
  110HFI     H1 1808   2.737   2.513   2.909 -0.5023  0.1669 -0.0504
  110HFI     H2 1809   2.491   2.512   2.791 -1.2235  0.0001 -0.7482
  111HFI     O1 1810   3.292   1.580   1.075 -0.2926  0.3390  0.4288
  111HFI     C1 1811   3.375   1.527   0.968  0.2222 -0.0203  0.3121
  111HFI     C2 1812   3.524   1.552   0.996  0.3022  0.7096 -0.1919
  111HFI     F1 1813   3.563   1.683   0.972 -0.0593  0.1198 -0.1398
  111HFI     F2 1814   3.600   1.480   0.917  0.0624 -0.1395  0.5349
  111HFI     F3 1815   3.560   1.533   1.125  0.3299 -0.2297  0.2243
  111HFI     C3 1816   3.321   1.554   0.827  1.0371 -0.4882 -0.4469
  111HFI     F4 1817   3.301   1.683   0.801  0.1776  0.1298  0.0181
  111HFI     F5 1818   3.204   1.485   0.812 -0.0649 -0.1336  0.8988
  111HFI     F6 1819   3.403   1.510   0.730 -0.2295  0.2710 -0.2214
  111HFI     H1 1820   3.271   1.671   1.049 -0.4262 -0.2124 -1.4894
  111HFI     H2 1821   3.358   1.419   0.964  1.5299 -0.2329  0.1771
  112HFI     O1 1822   0.647   3.080   2.243 -0.0126 -0.3607 -0.2965
  112HFI     C1 1823   0.532   3.165   2.279 -0.3432  0.1753 -0.0483
  112HFI     C2 1824   0.563   3.282   2.380  0.2280 -0.4344 -0.4934
  112HFI     F1 1825   0.454   3.339   2.435  0.5667  0.4102  0.1501
  112HFI     F2 1826   0.621   3.386   2.311  0.4082  0.3160  0.1033
  112HFI     F3 1827   0.653   3.248   2.479  0.0753 -0.7370  0.1262
  112HFI     C3 1828   0.415   3.080   2.330 -0.6254  0.1736  0.2736
  112HFI     F4 1829   0.306   3.154   2.315  0.1426 -0.1313 -0.3175
  112HFI     F5 1830   0.432   3.047   2.459 -0.3316  0.1964 -0.6502
  112HFI     F6 1831   0.396   2.970   2.249  0.1173  0.5843  0.1666
  112HFI     H1 1832   0.719   3.083   2.308 -0.9296 -2.9482  0.8934
  112HFI     H2 1833   0.495   3.212   2.187 -0.3507  1.6037  0.6690
  113HFI     O1 1834   3.014   0.952   0.640 -0.1938  0.0066  0.1868
  113HFI     C1 1835   3.036   1.069   0.555  1.0637 -0.1189 -1.0157
  113HFI     C2 1836   3.178   1.141   0.570 -0.4630  0.3925 -0.3678
  113HFI     F1 1837   3.272   1.044   0.590 -0.4515 -0.9357  0.8338
  113HFI     F2 1838   3.175   1.215   0.689 -0.2506  0.5512  0.1412
  113HFI     F3 1839   3.213   1.214   0.460  0.0494  0.0602 -0.4321
  113HFI     C3 1840   2.921   1.174   0.578  0.5425 -0.0976  0.0604
  113HFI     F4 1841   2.799   1.127   0.542  0.0734  0.1553 -0.2604
  113HFI     F5 1842   2.945   1.284   0.503 -0.0523 -0.2415 -0.1434
  113HFI     F6 1843   2.910   1.212   0.705 -0.4463 -0.3332 -0.0440
  113HFI     H1 1844   3.097   0.910   0.667 -1.0904 -1.7348  0.2743
  113HFI     H2 1845   3.027   1.036   0.451  0.2831 -1.1299 -0.6308
  114HFI     O1 1846   1.482   1.326   0.608  0.0316 -0.2350  0.2500
  114HFI     C1 1847   1.470   1.406   0.481 -0.4928  0.1982  0.7646
  114HFI     C2 1848   1.470   1.557   0.495  0.3862  0.3907 -0.2842
  114HFI     F1 1849   1.350   1.610   0.524  0.8003 -0.0409 -0.4842
  114HFI     F2 1850   1.513   1.626   0.392 -0.1736 -0.4544 -0.3473
  114HFI     F3 1851   1.555   1.588   0.594  0.0488 -0.2146  0.1486
  114HFI     C3 1852   1.350   1.350   0.390 -0.0910 -0.2521  0.5620
  114HFI     F4 1853   1.376   1.223   0.354 -0.1666 -0.2765  0.3692
  114HFI     F5 1854   1.331   1.422   0.272  0.1961  0.2898  0.2339
  114HFI     F6 1855   1.230   1.342   0.449  0.0436 -0.1871  0.4696
  114HFI     H1 1856   1.451   1.374   0.686 -1.0801 -0.8157  0.1700
  114HFI     H2 1857   1.558   1.375   0.423 -1.0546 -2.2537  1.1566
  115HFI     O1 1858   0.332   0.605   1.363  0.4502  0.2394 -0.2282
  115HFI     C1 1859   0.204   0.543   1.358  0.3156 -0.2185  0.1507
  115HFI     C2 1860   0.094   0.639   1.290 -0.4426 -0.2984  0.1804
  115HFI     F1 1861   0.116   0.645   1.156  0.7920  0.7046 -0.6023
  115HFI     F2 1862   0.105   0.770   1.338 -0.0583 -0.6308 -0.1415
  115HFI     F3 1863  -0.030   0.603   1.317 -0.3151  0.4363 -0.4773
  115HFI     C3 1864   0.164   0.514   1.506 -0.1491 -0.2063 -0.3177
  115HFI     F4 1865   0.063   0.430   1.503  0.4122  0.4370 -0.8159
  115HFI     F5 1866   0.127   0.632   1.573 -0.5493 -0.2382  0.0481
  115HFI     F6 1867   0.262   0.458   1.576 -0.0577  0.4466 -0.1126
  115HFI     H1 1868   0.329   0.666   1.439 -0.0307  0.6874 -0.5967
  115HFI     H2 1869   0.208   0.446   1.308 -0.4143 -1.5234  2.5357
  116HFI     O1 1870   0.939   3.041   1.132  0.0863  0.3576 -0.5174
  116HFI     C1 1871   0.910   3.102   1.008  0.6785 -0.5231 -0.4708
  116HFI     C2 1872   0.996   3.045   0.888  0.1299  0.9543  0.3753
  116HFI     F1 1873   0.973   3.099   0.763  0.1727  0.1509  0.0321
  116HFI     F2 1874   0.964   2.911   0.884  0.0367 -0.0582  0.2790
  116HFI     F3 1875   1.126   3.056   0.912 -0.4725  0.4589 -0.3239
  116HFI     C3 1876   0.916   3.264   1.031  0.1048  0.1662  0.1066
  116HFI     F4 1877   1.050   3.290   1.042  0.3544 -0.2857  0.3680
  116HFI     F5 1878   0.860   3.297   1.150 -0.0476 -0.1944  0.2762
  116HFI     F6 1879   0.855   3.334   0.928  0.0355  0.1637 -0.2292
  116HFI     H1 1880   1.016   2.983   1.118  0.4751  0.3086  1.6592
  116HFI     H2 1881   0.811   3.065   0.979 -1.7240  2.3318  3.5821
  117HFI     O1 1882   1.191   2.702   1.540  0.4459 -0.3715  0.4441
  117HFI     C1 1883   1.313   2.778   1.537  0.0465  0.3721 -0.2738
  117HFI     C2 1884   1.303   2.914   1.467  0.0863  0.7260 -0.3829
  117HFI     F1 1885   1.417   2.989   1.492 -0.0231 -0.4490 -0.0683
  117HFI     F2 1886   1.199   2.986   1.516  0.0110 -0.5261 -0.0356
  117HFI     F3 1887   1.282   2.891   1.339 -0.6491 -0.3705  0.3278
  117HFI     C3 1888   1.438   2.693   1.508  0.3127  0.1762  0.6342
  117HFI     F4 1889   1.412   2.637   1.387  0.3422  0.2670 -0.2965
  117HFI     F5 1890   1.460   2.592   1.590  0.1647 -0.1877  0.4630
  117HFI     F6 1891   1.553   2.765   1.490 -0.6856 -0.3998  0.5921
  117HFI     H1 1892   1.202   2.618   1.493  1.7138 -0.0859  0.2173
  117HFI     H2 1893   1.336   2.811   1.640 -1.1188  1.0302 -0.2103
  118HFI     O1 1894   2.803   0.087   2.224  0.0661 -0.9289 -0.1979
  118HFI     C1 1895   2.811   0.217   2.294 -0.6802  0.8210  0.1501
  118HFI     C2 1896   2.957   0.243   2.333 -0.5847 -0.8131  0.0390
  118HFI     F1 1897   3.000   0.165   2.442  0.2801 -0.1511  0.1604
  118HFI     F2 1898   2.983   0.375   2.363  0.6651  0.3931 -0.4466
  118HFI     F3 1899   3.037   0.218   2.233 -0.1887  0.0611  0.0659
  118HFI     C3 1900   2.719   0.220   2.419  0.1990 -0.0668 -0.0728
  118HFI     F4 1901   2.771   0.309   2.515 -0.3342  0.8161 -0.1639
  118HFI     F5 1902   2.714   0.096   2.480 -0.3383  0.0879  0.0991
  118HFI     F6 1903   2.591   0.257   2.388 -0.4645 -0.1028  0.3554
  118HFI     H1 1904   2.859   0.026   2.274 -1.0526 -1.0947  0.8747
  118HFI     H2 1905   2.771   0.299   2.233  0.3892  0.7506 -0.6489
  119HFI     O1 1906   3.096   1.902   0.401  0.1835  0.4239 -0.2697
  119HFI     C1 1907   2.979   1.966   0.343 -0.6797 -0.5762 -0.2265
  119HFI     C2 1908   2.975   2.120   0.355 -0.3345  0.1940  0.1854
  119HFI     F1 1909   2.975   2.174   0.481 -0.1630 -0.2529 -0.2772
  119HFI     F2 1910   2.871   2.176   0.285 -0.6155 -0.2291 -0.1151
  119HFI     F3 1911   3.091   2.161   0.298 -0.1292 -0.1302 -0.1837
  119HFI     C3 1912   2.843   1.900   0.397  0.7372 -0.0844  0.6228
  119HFI     F4 1913   2.735   1.937   0.313 -0.5274  0.3099 -0.0198
  119HFI     F5 1914   2.816   1.943   0.517  0.4389  0.1691  0.0655
  119HFI     F6 1915   2.845   1.767   0.396 -0.3746  0.6274  0.1523
  119HFI     H1 1916   3.175   1.942   0.362 -0.0991  1.6479  0.4169
  119HFI     H2 1917   2.979   1.954   0.234 -1.9662  1.6505 -0.5077
  120HFI     O1 1918   1.380   0.377   3.427 -0.0442  0.3864 -0.4840
  120HFI     C1 1919   1.383   0.276   3.328 -0.2863 -0.0118  0.0128
  120HFI     C2 1920   1.527   0.211   3.325  0.1156 -0.3162  0.1523
  120HFI     F1 1921   1.541   0.157   3.456  0.2421 -0.0062  0.1900
  120HFI     F2 1922   1.625   0.298   3.307 -0.1956 -0.0497  0.4111
  120HFI     F3 1923   1.542   0.122   3.233  0.1189 -0.1407 -0.6653
  120HFI     C3 1924   1.334   0.324   3.186 -0.2580  0.2133  0.2005
  120HFI     F4 1925   1.319   0.226   3.099 -0.0458  0.5667  0.0211
  120HFI     F5 1926   1.429   0.405   3.127  0.3749  0.0808  0.3189
  120HFI     F6 1927   1.216   0.389   3.193 -0.4202 -0.5837 -0.2355
  120HFI     H1 1928   1.453   0.373   3.491 -0.0405  1.1482 -0.4353
  120HFI     H2 1929   1.315   0.197   3.364  0.9927 -0.7071  0.9471
  121HFI     O1 1930   2.303   0.222   3.542  0.7072  0.1990  0.6600
  121HFI     C1 1931   2.171   0.268   3.486 -0.2661  0.5818 -0.2019
  121HFI     C2 1932   2.045   0.225   3.573 -0.3336 -0.2554 -0.5919
  121HFI     F1 1933   2.043   0.281   3.689  0.3349  0.0189  0.4525
  121HFI     F2 1934   2.042   0.092   3.604  0.2633  1.0701 -0.1696
  121HFI     F3 1935   1.930   0.254   3.517 -0.4912 -0.0574  0.5906
  121HFI     C3 1936   2.170   0.229   3.328 -0.0026 -0.6630 -0.8433
  121HFI     F4 1937   2.297   0.244   3.287 -0.0732  0.0506  0.2876
  121HFI     F5 1938   2.096   0.317   3.255 -0.2539 -0.6288  0.0110
  121HFI     F6 1939   2.134   0.102   3.298 -0.2763  0.4037 -0.6586
  121HFI     H1 1940   2.368   0.232   3.471  0.6361 -2.9902  0.0653
  121HFI     H2 1941   2.155   0.376   3.495 -0.7450  0.5429 -0.5941
  122HFI     O1 1942   3.249   2.408   2.437  0.1849 -0.4665 -0.3787
  122HFI     C1 1943   3.102   2.414   2.446 -0.2992  0.2726 -1.1610
  122HFI     C2 1944   3.043   2.457   2.311 -0.3706 -0.2199  0.4392
  122HFI     F1 1945   3.054   2.591   2.286  0.1043 -0.1047 -0.5026
  122HFI     F2 1946   2.915   2.422   2.306 -0.0893 -0.1588  0.1527
  122HFI     F3 1947   3.107   2.395   2.218 -0.4340 -0.4080  0.1680
  122HFI     C3 1948   3.062   2.500   2.563 -0.3730  0.3713  0.1603
  122HFI     F4 1949   2.926   2.507   2.576  0.2986  0.3257 -0.3872
  122HFI     F5 1950   3.107   2.631   2.562 -0.1738  0.4194  0.1905
  122HFI     F6 1951   3.119   2.439   2.670  0.2866  0.4233  0.1889
  122HFI     H1 1952   3.278   2.323   2.400 -1.8781 -0.6409 -1.6737
  122HFI     H2 1953   3.063   2.313   2.461  1.8538 -0.4841 -0.4196
  123HFI     O1 1954   2.868   1.435   3.615 -0.6806 -0.7737  0.2412
  123HFI     C1 1955   2.793   1.552   3.658  0.5788 -0.7242 -0.1849
  123HFI     C2 1956   2.685   1.519   3.767 -0.0208 -0.1715  0.3403
  123HFI     F1 1957   2.580   1.453   3.704 -0.3952 -0.1478 -0.8075
  123HFI     F2 1958   2.639   1.631   3.822 -0.9301 -0.8082 -0.5719
  123HFI     F3 1959   2.728   1.437   3.869 -0.0286 -0.1780  0.3964
  123HFI     C3 1960   2.746   1.641   3.534 -0.3428 -0.2112  0.7049
  123HFI     F4 1961   2.849   1.652   3.446  0.0101 -0.1635  0.0622
  123HFI     F5 1962   2.703   1.760   3.568  0.2934 -0.0544  0.5539
  123HFI     F6 1963   2.644   1.584   3.458 -0.4159 -0.2733  0.3372
  123HFI     H1 1964   2.798   1.386   3.567  0.6471 -0.0245 -2.5212
  123HFI     H2 1965   2.861   1.625   3.704 -0.1682  0.7591 -1.3576
  124HFI     O1 1966   1.696   0.449   2.932  0.2350 -0.2070 -0.1269
  124HFI     C1 1967   1.830   0.492   2.909 -0.2131  0.5292  0.6560
  124HFI     C2 1968   1.886   0.582   3.030  0.1496  0.4465 -0.5162
  124HFI     F1 1969   1.812   0.686   3.048 -0.4495 -0.0421  0.3592
  124HFI     F2 1970   2.013   0.623   3.006  0.3404  0.4999 -0.5379
  124HFI     F3 1971   1.885   0.513   3.148  0.1567  0.0589 -0.6706
  124HFI     C3 1972   1.834   0.562   2.766 -0.2297  0.1624 -0.6128
  124HFI     F4 1973   1.957   0.601   2.736  0.1288 -0.7496 -0.1972
  124HFI     F5 1974   1.755   0.673   2.763 -0.1092  0.4164 -0.5528
  124HFI     F6 1975   1.789   0.474   2.671 -0.0650 -0.4058  0.3149
  124HFI     H1 1976   1.683   0.423   3.024 -0.9504  1.8600  0.3146
  124HFI     H2 1977   1.892   0.401   2.906 -0.1519  0.5224  1.8499
  125HFI     O1 1978   2.274   0.988   1.540  0.0189 -0.1253  0.1573
  125HFI     C1 1979   2.136   1.000   1.500 -0.1393 -0.7582 -0.4546
  125HFI     C2 1980   2.108   0.919   1.370  0.2692  0.2487  0.8980
  125HFI     F1 1981   2.181   0.961   1.267  0.8321 -0.0424  0.4367
  125HFI     F2 1982   1.978   0.926   1.332  0.7825 -0.1829 -0.4824
  125HFI     F3 1983   2.140   0.785   1.395 -0.3240 -0.5449  0.4100
  125HFI     C3 1984   2.096   1.149   1.477  0.0327  0.2280  0.0414
  125HFI     F4 1985   1.964   1.154   1.477 -0.2248 -0.3824  0.2035
  125HFI     F5 1986   2.147   1.202   1.363 -0.2859  0.0780 -0.4877
  125HFI     F6 1987   2.127   1.229   1.581  0.8160 -0.3058 -0.2563
  125HFI     H1 1988   2.331   0.951   1.471  1.9503  4.2083 -0.7509
  125HFI     H2 1989   2.072   0.967   1.582  1.1970 -0.1486  0.8706
  126HFI     O1 1990   1.080   1.041   2.342  0.9912 -0.4644  0.2952
  126HFI     C1 1991   1.198   1.012   2.258 -0.7436  0.1903  0.1001
  126HFI     C2 1992   1.230   0.856   2.268  0.0180 -0.2732  0.3541
  126HFI     F1 1993   1.260   0.816   2.398 -0.1083 -0.1722  0.2348
  126HFI     F2 1994   1.336   0.816   2.190 -0.1710 -0.0020  0.4591
  126HFI     F3 1995   1.121   0.784   2.229 -0.5145  0.0369  0.0304
  126HFI     C3 1996   1.325   1.092   2.287 -0.2559 -0.1748  0.3422
  126HFI     F4 1997   1.368   1.072   2.409 -0.2103  0.0806  0.1453
  126HFI     F5 1998   1.289   1.221   2.287  0.0505 -0.1753 -0.3608
  126HFI     F6 1999   1.424   1.072   2.196 -0.0617  0.4753  0.0438
  126HFI     H1 2000   1.074   1.137   2.351  0.0847 -0.5011  0.1413
  126HFI     H2 2001   1.157   1.034   2.158 -0.1229 -1.3259 -0.5151
  127HFI     O1 2002   2.108   1.372   3.373 -0.4864 -0.3939 -0.3155
  127HFI     C1 2003   1.968   1.395   3.335  0.4847 -0.0649  0.4607
  127HFI     C2 2004   1.877   1.291   3.408 -0.0411 -0.2470 -0.1256
  127HFI     F1 2005   1.887   1.161   3.357 -0.0899  0.5280 -0.2763
  127HFI     F2 2006   1.747   1.326   3.402  0.3697  0.0314  0.1127
  127HFI     F3 2007   1.902   1.288   3.539  0.3291  0.5030 -0.3303
  127HFI     C3 2008   1.941   1.396   3.181 -0.0963 -0.1296 -0.8016
  127HFI     F4 2009   1.969   1.280   3.127 -0.2146 -0.2646  0.5021
  127HFI     F5 2010   2.016   1.492   3.122  0.0175 -0.2157  0.5540
  127HFI     F6 2011   1.817   1.419   3.140 -0.2334 -0.3529 -0.3773
  127HFI     H1 2012   2.170   1.388   3.300  0.5399 -1.1155  0.3866
  127HFI     H2 2013   1.929   1.491   3.372  1.0771  0.3677 -0.0236
  128HFI     O1 2014   1.169   1.548   2.317  0.3297  0.2428  0.0927
  128HFI     C1 2015   1.236   1.651   2.398 -0.3450 -0.2439 -0.0545
  128HFI     C2 2016   1.134   1.746   2.468  0.8563  0.1614  0.7747
  128HFI     F1 2017   1.189   1.858   2.517 -0.8944  0.1451  0.4453
  128HFI     F2 2018   1.068   1.684   2.562  0.3066  0.2256  0.3719
  128HFI     F3 2019   1.042   1.794   2.381  0.6602 -0.5203  0.0988
  128HFI     C3 2020   1.343   1.722   2.307  0.4692  0.3677 -0.7518
  128HFI     F4 2021   1.291   1.795   2.210 -0.2532 -0.4913  0.3474
  128HFI     F5 2022   1.426   1.638   2.244  0.1146 -0.4009  0.1638
  128HFI     F6 2023   1.425   1.792   2.388 -0.2384  0.3969  0.4301
  128HFI     H1 2024   1.237   1.518   2.255  0.7962 -2.7593  1.9250
  128HFI     H2 2025   1.295   1.613   2.483 -1.4943  0.9332  1.2932
  129HFI     O1 2026   0.792   1.670   2.916 -0.6113 -0.4107 -0.4687
  129HFI     C1 2027   0.792   1.816   2.910  0.0424  0.5471  0.5376
  129HFI     C2 2028   0.710   1.861   2.781  0.4114  0.6314 -0.9291
  129HFI     F1 2029   0.686   1.996   2.784  0.2531 -0.5051 -0.0032
  129HFI     F2 2030   0.587   1.809   2.779 -0.3930  0.4487  0.5466
  129HFI     F3 2031   0.770   1.837   2.664  0.0105  0.1817  0.3257
  129HFI     C3 2032   0.935   1.879   2.922  0.6274  0.2030 -0.0821
  129HFI     F4 2033   0.924   2.007   2.899  0.0580 -0.0636  0.2394
  129HFI     F5 2034   1.018   1.825   2.833  0.8772  0.0169  0.3141
  129HFI     F6 2035   0.970   1.854   3.045  0.1713  0.4972 -0.5321
  129HFI     H1 2036   0.887   1.649   2.908 -0.3894  0.9082 -1.5122
  129HFI     H2 2037   0.729   1.836   2.997 -1.6194 -0.3117 -0.4590
  130HFI     O1 2038   1.936   3.340   1.139  0.6343  0.1053 -0.2385
  130HFI     C1 2039   1.981   3.428   1.040 -0.0100 -0.1706  0.2681
  130HFI     C2 2040   2.109   3.378   0.966 -0.5938  0.2648 -0.2317
  130HFI     F1 2041   2.214   3.389   1.048  0.1159 -0.0047 -0.1800
  130HFI     F2 2042   2.130   3.444   0.847 -0.2212 -0.0680  0.0957
  130HFI     F3 2043   2.099   3.249   0.933 -0.0073 -0.0289 -0.2263
  130HFI     C3 2044   1.990   3.580   1.094  0.4346 -0.1298 -0.3927
  130HFI     F4 2045   1.867   3.631   1.116 -0.3214  0.1138 -0.0464
  130HFI     F5 2046   2.052   3.661   1.004  0.1273 -0.2156 -0.1139
  130HFI     F6 2047   2.062   3.576   1.219 -0.2755 -0.8795  0.2627
  130HFI     H1 2048   2.012   3.312   1.194  0.3343  2.1928  1.3050
  130HFI     H2 2049   1.900   3.436   0.966 -1.4849  2.2251  2.0603
  131HFI     O1 2050   1.430   2.307   0.984 -0.1101 -0.3066  0.5905
  131HFI     C1 2051   1.551   2.390   0.964  0.3530  0.2514  0.1687
  131HFI     C2 2052   1.630   2.357   0.828  0.3396  0.2667  0.5768
  131HFI     F1 2053   1.544   2.315   0.733  0.4390 -0.3591 -0.0615
  131HFI     F2 2054   1.721   2.260   0.850  0.0576 -0.7354  0.2845
  131HFI     F3 2055   1.694   2.466   0.778 -0.1683 -0.3602  0.2721
  131HFI     C3 2056   1.653   2.389   1.082 -0.3337  0.4433 -0.5511
  131HFI     F4 2057   1.597   2.454   1.185 -0.2186 -0.4084  0.7271
  131HFI     F5 2058   1.772   2.455   1.039  0.5559  0.2147 -0.9327
  131HFI     F6 2059   1.676   2.269   1.131 -0.0146  0.2002  0.1229
  131HFI     H1 2060   1.446   2.212   0.971  0.0107 -0.6197  2.8250
  131HFI     H2 2061   1.529   2.497   0.954  1.0399  0.4929  1.1569
  132HFI     O1 2062   3.255   0.904   0.998  0.5899  0.2357 -0.3791
  132HFI     C1 2063   3.389   0.866   0.962 -0.1565  0.9022  0.7071
  132HFI     C2 2064   3.479   0.983   0.926 -0.3036  0.2353 -0.6634
  132HFI     F1 2065   3.531   1.032   1.040  0.6722 -0.0428  0.4107
  132HFI     F2 2066   3.412   1.077   0.864  0.1943  0.9292 -0.6067
  132HFI     F3 2067   3.576   0.938   0.847 -0.0405 -0.1056  0.0657
  132HFI     C3 2068   3.392   0.756   0.862 -0.8027 -0.0861 -0.4252
  132HFI     F4 2069   3.306   0.657   0.897  0.4573 -0.2426 -0.1492
  132HFI     F5 2070   3.509   0.698   0.844 -0.0013  0.2236 -0.0577
  132HFI     F6 2071   3.347   0.793   0.743  0.0634 -0.5048 -0.1379
  132HFI     H1 2072   3.200   0.831   1.031  1.1520  0.3405  0.7836
  132HFI     H2 2073   3.437   0.821   1.050  0.1620 -1.1565 -0.5014
  133HFI     O1 2074   0.002   2.763   3.639 -0.0226 -0.5056  0.1316
  133HFI     C1 2075   0.119   2.838   3.587  0.3200 -0.2524  0.2979
  133HFI     C2 2076   0.177   2.921   3.706  0.5505  0.7979  0.3050
  133HFI     F1 2077   0.224   2.842   3.802  0.1716 -0.0566  0.6177
  133HFI     F2 2078   0.074   2.999   3.750 -0.3543 -0.5320 -0.4033
  133HFI     F3 2079   0.272   3.003   3.658  0.1526  0.1218  0.9700
  133HFI     C3 2080   0.078   2.923   3.467 -0.3613  0.0496  0.8560
  133HFI     F4 2081   0.034   2.849   3.366 -0.0679  0.0302  0.0967
  133HFI     F5 2082   0.169   3.006   3.414 -0.6810 -0.6649 -0.6196
  133HFI     F6 2083  -0.032   2.999   3.497  0.4855  0.1233 -0.1104
  133HFI     H1 2084  -0.050   2.803   3.710 -1.3437 -0.5870 -0.7646
  133HFI     H2 2085   0.197   2.770   3.550 -0.5760 -1.6531  0.9000
  134HFI     O1 2086   1.555   2.272   3.132 -0.4124 -0.1863  0.4732
  134HFI     C1 2087   1.647   2.395   3.130 -1.1264  0.0350 -0.1810
  134HFI     C2 2088   1.690   2.427   3.271 -0.5979  0.2942  0.2111
  134HFI     F1 2089   1.808   2.494   3.274  0.4045 -0.2990 -0.1106
  134HFI     F2 2090   1.712   2.308   3.338 -0.1885 -0.1531 -0.0463
  134HFI     F3 2091   1.606   2.496   3.352 -0.2507  0.3655  0.2741
  134HFI     C3 2092   1.583   2.527   3.079  0.4120 -0.8969 -1.0515
  134HFI     F4 2093   1.568   2.516   2.952 -0.4197 -0.1035 -0.1322
  134HFI     F5 2094   1.645   2.644   3.113 -0.0496 -0.5017 -0.5168
  134HFI     F6 2095   1.454   2.532   3.124  0.7949  0.0028  0.3630
  134HFI     H1 2096   1.501   2.274   3.051  1.3414 -0.1058 -0.7236
  134HFI     H2 2097   1.733   2.370   3.067  0.0712 -1.0687  1.8138
  135HFI     O1 2098   2.916   3.250   2.333 -0.3068 -0.2181 -0.1098
  135HFI     C1 2099   2.830   3.141   2.279 -0.8804  0.2970 -0.9317
  135HFI     C2 2100   2.681   3.150   2.335  0.0388 -0.2559 -0.8094
  135HFI     F1 2101   2.651   3.278   2.380  0.2212 -0.1424  0.1390
  135HFI     F2 2102   2.670   3.071   2.446  0.1136  0.4746  0.3320
  135HFI     F3 2103   2.586   3.115   2.239 -0.1779 -0.1683 -0.5962
  135HFI     C3 2104   2.894   3.001   2.289  0.2056 -0.4655 -0.4356
  135HFI     F4 2105   2.810   2.894   2.253 -0.4787  0.1001 -0.5518
  135HFI     F5 2106   2.941   2.972   2.413 -0.6061  0.0709 -0.3330
  135HFI     F6 2107   3.001   2.998   2.203 -0.1432 -0.3400  0.2001
  135HFI     H1 2108   2.906   3.252   2.430  0.1788 -1.2604 -0.0421
  135HFI     H2 2109   2.825   3.163   2.172  2.1486 -0.0648 -1.1928
  136HFI     O1 2110   2.370   2.562   2.459 -0.4983  0.5462  0.4335
  136HFI     C1 2111   2.510   2.573   2.417 -0.6061 -0.1466 -0.4256
  136HFI     C2 2112   2.576   2.704   2.490  0.7415 -0.3901  0.5825
  136HFI     F1 2113   2.547   2.700   2.617 -0.0071 -0.0584  0.4251
  136HFI     F2 2114   2.528   2.820   2.434 -0.2797 -0.0905  0.2592
  136HFI     F3 2115   2.708   2.693   2.484 -0.3984 -0.0336 -0.2006
  136HFI     C3 2116   2.535   2.585   2.259  0.2655 -0.0926  0.2769
  136HFI     F4 2117   2.452   2.681   2.203  0.0750  0.3856 -0.0711
  136HFI     F5 2118   2.491   2.465   2.213 -0.1599  0.4509  0.1560
  136HFI     F6 2119   2.658   2.602   2.211 -0.1225  0.1440 -0.1067
  136HFI     H1 2120   2.321   2.615   2.394 -3.2118 -3.6992 -1.1998
  136HFI     H2 2121   2.565   2.484   2.451  2.7024  2.6534  1.8102
  137HFI     O1 2122   0.515   2.018   2.460 -0.3361  0.3127 -0.3023
  137HFI     C1 2123   0.604   1.946   2.372 -0.8990 -0.1568 -0.3053
  137HFI     C2 2124   0.695   2.037   2.286  0.2600 -0.0587 -0.2406
  137HFI     F1 2125   0.632   2.117   2.206  0.0940  0.0623  0.2156
  137HFI     F2 2126   0.772   1.957   2.201  0.7374 -0.6020  0.3209
  137HFI     F3 2127   0.791   2.105   2.355  0.0986  0.1533 -0.4526
  137HFI     C3 2128   0.530   1.838   2.297 -0.4706 -0.1571 -0.1814
  137HFI     F4 2129   0.445   1.894   2.204 -0.1083  0.5160 -0.6012
  137HFI     F5 2130   0.445   1.774   2.377 -0.5790 -0.3068  0.2654
  137HFI     F6 2131   0.610   1.743   2.225  0.0989  0.2011 -0.2193
  137HFI     H1 2132   0.434   1.967   2.479  1.6434 -2.8606 -0.1855
  137HFI     H2 2133   0.672   1.887   2.436 -0.5981  0.5672  0.0505
  138HFI     O1 2134   2.077   2.484   2.499  0.1077 -0.2955 -0.1502
  138HFI     C1 2135   2.070   2.346   2.438 -0.4387  0.1064 -0.2129
  138HFI     C2 2136   2.194   2.259   2.475  0.7333 -0.5719  0.1983
  138HFI     F1 2137   2.241   2.286   2.602 -0.3751  0.6307  0.1809
  138HFI     F2 2138   2.296   2.269   2.386 -0.0177  0.3781 -0.3571
  138HFI     F3 2139   2.160   2.124   2.486  0.0143  0.4558 -0.1540
  138HFI     C3 2140   2.052   2.350   2.286  0.3858  0.2631 -0.3073
  138HFI     F4 2141   2.073   2.228   2.231  0.7149 -0.0242  0.1490
  138HFI     F5 2142   2.136   2.441   2.223  0.3298  0.1906 -0.2175
  138HFI     F6 2143   1.927   2.386   2.253 -0.4510  0.2829  0.2866
  138HFI     H1 2144   2.068   2.479   2.596 -1.0304  2.8701 -0.0336
  138HFI     H2 2145   1.984   2.290   2.477 -0.2658 -0.1617 -0.2218
  139HFI     O1 2146   1.637   3.017   2.431  0.6396 -0.0448  0.1694
  139HFI     C1 2147   1.625   3.115   2.319  0.8801  0.5440 -0.2007
  139HFI     C2 2148   1.748   3.218   2.327  0.5741  0.0748 -0.8364
  139HFI     F1 2149   1.711   3.340   2.357 -0.2451 -0.6168 -0.4172
  139HFI     F2 2150   1.814   3.218   2.201 -0.0933 -0.1753  0.2870
  139HFI     F3 2151   1.828   3.177   2.430  0.1891  0.1886 -0.3009
  139HFI     C3 2152   1.488   3.180   2.306  0.4949 -1.1076 -0.2769
  139HFI     F4 2153   1.402   3.082   2.288 -0.3046 -0.0798  0.2552
  139HFI     F5 2154   1.476   3.262   2.201 -0.3052 -0.2093  0.8638
  139HFI     F6 2155   1.445   3.244   2.423 -0.0680  0.0167 -0.0388
  139HFI     H1 2156   1.666   3.065   2.511  0.0162 -0.7844  0.8479
  139HFI     H2 2157   1.642   3.060   2.225  1.7500  1.9850 -0.9081
  140HFI     O1 2158   1.708   2.888   3.687 -0.4404 -0.2198 -0.2215
  140HFI     C1 2159   1.845   2.846   3.718 -0.2803  0.1310 -0.7330
  140HFI     C2 2160   1.852   2.692   3.743 -0.1165 -0.1311  0.5944
  140HFI     F1 2161   1.810   2.625   3.634 -0.0152  0.4507 -0.2879
  140HFI     F2 2162   1.781   2.647   3.853  0.1714 -0.2894  0.5341
  140HFI     F3 2163   1.979   2.650   3.762  0.0763  0.5276  0.1219
  140HFI     C3 2164   1.917   2.935   3.824 -0.9105  0.3049  0.4236
  140HFI     F4 2165   1.917   3.066   3.788  0.4458  0.4111  0.3856
  140HFI     F5 2166   2.048   2.899   3.843  0.5555  0.8030 -0.2232
  140HFI     F6 2167   1.852   2.926   3.944  0.0488  0.2051 -0.0377
  140HFI     H1 2168   1.655   2.869   3.766 -0.9493  0.5156 -0.3819
  140HFI     H2 2169   1.913   2.861   3.634  1.5499  0.9566  0.8489
  141HFI     O1 2170   2.116   3.261   1.324 -0.3865 -0.3489 -0.1292
  141HFI     C1 2171   2.129   3.119   1.374 -0.7387 -0.8863 -0.8326
  141HFI     C2 2172   2.107   3.120   1.524 -0.1861 -0.3679 -0.3020
  141HFI     F1 2173   2.192   3.207   1.585 -0.3329 -0.0403  0.0238
  141HFI     F2 2174   2.129   2.995   1.578  0.2098 -0.5891  0.5440
  141HFI     F3 2175   1.975   3.156   1.554  0.2007  0.4758 -0.3442
  141HFI     C3 2176   2.246   3.045   1.318 -0.7140 -0.2830  0.3727
  141HFI     F4 2177   2.284   3.096   1.191  0.7043 -0.3343  0.0383
  141HFI     F5 2178   2.235   2.914   1.312 -0.4270  0.2535  0.0981
  141HFI     F6 2179   2.351   3.067   1.402 -0.2955 -0.0661  0.7113
  141HFI     H1 2180   2.195   3.306   1.358 -1.2118  1.6079 -0.7663
  141HFI     H2 2181   2.040   3.058   1.352 -0.8253 -0.9273 -0.3806
  142HFI     O1 2182   1.817   0.495   1.332  0.2234 -0.1228  0.1045
  142HFI     C1 2183   1.920   0.564   1.414 -0.2764  0.9597 -0.0735
  142HFI     C2 2184   2.002   0.462   1.501  0.1670  0.2342 -0.3395
  142HFI     F1 2185   1.916   0.361   1.549 -0.1263  0.3262 -0.1805
  142HFI     F2 2186   2.067   0.519   1.602 -0.3153  0.1982  0.6609
  142HFI     F3 2187   2.093   0.409   1.416 -0.0113  0.3206 -0.1790
  142HFI     C3 2188   1.843   0.667   1.500 -0.0507 -0.0024  0.4801
  142HFI     F4 2189   1.747   0.600   1.575  0.1428 -0.2612  0.0695
  142HFI     F5 2190   1.770   0.750   1.422 -0.0233  0.0766  0.2006
  142HFI     F6 2191   1.919   0.737   1.588 -0.0966  0.0297 -0.3243
  142HFI     H1 2192   1.763   0.447   1.397  0.5293 -2.7483 -1.4987
  142HFI     H2 2193   1.996   0.619   1.358  1.4405 -1.4476 -0.1986
  143HFI     O1 2194   1.228   2.851   2.833 -0.4143 -0.3921 -0.0493
  143HFI     C1 2195   1.173   2.810   2.959  0.1543  0.1951  0.0613
  143HFI     C2 2196   1.029   2.869   2.989 -0.5726 -0.1443  1.1049
  143HFI     F1 2197   0.933   2.818   2.910  0.1006  0.3384 -0.4524
  143HFI     F2 2198   1.016   3.002   2.972  0.2677  0.0069 -0.3274
  143HFI     F3 2199   0.995   2.844   3.117  0.3213 -0.1708 -0.2066
  143HFI     C3 2200   1.274   2.845   3.073  0.1037 -0.0194 -0.1728
  143HFI     F4 2201   1.249   2.787   3.191 -0.0127  0.5040 -0.4534
  143HFI     F5 2202   1.286   2.979   3.081 -0.2619 -0.0029  0.0997
  143HFI     F6 2203   1.395   2.797   3.036 -0.5588  0.1263 -0.7340
  143HFI     H1 2204   1.300   2.913   2.850 -0.6368 -0.5739  1.6445
  143HFI     H2 2205   1.171   2.701   2.972 -2.4504  0.3301  1.2031
  144HFI     O1 2206   2.310   0.921   2.592 -0.2285 -0.3366  0.5551
  144HFI     C1 2207   2.202   0.918   2.689 -0.3532  0.3923  0.2940
  144HFI     C2 2208   2.180   1.058   2.739  0.1978  0.6623  0.1415
  144HFI     F1 2209   2.084   1.068   2.827  0.3726  0.3505 -0.2133
  144HFI     F2 2210   2.135   1.128   2.632  0.6072 -0.2740 -0.5252
  144HFI     F3 2211   2.290   1.121   2.775  0.0547  0.3250  0.4342
  144HFI     C3 2212   2.237   0.823   2.805 -0.0264 -0.5995 -0.0320
  144HFI     F4 2213   2.253   0.693   2.767 -0.1764 -0.1137 -0.3798
  144HFI     F5 2214   2.136   0.818   2.896 -0.5872  0.4526  0.5302
  144HFI     F6 2215   2.355   0.858   2.860  0.3320 -0.5716 -0.8581
  144HFI     H1 2216   2.389   0.950   2.641 -0.3684 -1.6159  1.5486
  144HFI     H2 2217   2.107   0.889   2.641  0.3730  2.2381 -2.3672
  145HFI     O1 2218   1.003   0.302   0.054 -0.2606 -0.3284 -0.0616
  145HFI     C1 2219   0.918   0.210  -0.004 -0.0049 -0.5119 -0.2921
  145HFI     C2 2220   0.924   0.203  -0.165  0.0511 -0.0721 -0.3516
  145HFI     F1 2221   0.844   0.107  -0.211 -0.1445 -0.1832  0.3754
  145HFI     F2 2222   1.048   0.168  -0.199  0.2216 -0.0296  0.3715
  145HFI     F3 2223   0.891   0.323  -0.212 -0.1545 -0.6831  0.0983
  145HFI     C3 2224   0.778   0.215   0.048 -0.4987  0.1834 -0.5372
  145HFI     F4 2225   0.712   0.316  -0.012 -0.0613 -0.2411 -0.0545
  145HFI     F5 2226   0.780   0.234   0.176 -0.2951 -0.3271  0.0133
  145HFI     F6 2227   0.705   0.101   0.033 -0.1566  0.1264  0.1609
  145HFI     H1 2228   0.953   0.354   0.119  1.4889  2.2854 -0.7097
  145HFI     H2 2229   0.951   0.113   0.035 -1.9390  0.3056  3.6650
  146HFI     O1 2230   0.424   0.321   1.173  0.2139  0.5708  0.1442
  146HFI     C1 2231   0.441   0.293   1.031  0.2783 -0.0961  0.1165
  146HFI     C2 2232   0.486   0.414   0.949 -0.2734  0.3982 -0.4708
  146HFI     F1 2233   0.404   0.520   0.968  0.1160  0.4011 -0.1880
  146HFI     F2 2234   0.501   0.393   0.817 -0.0849  0.3778 -0.0016
  146HFI     F3 2235   0.613   0.446   0.996  0.3467 -0.0491 -0.2866
  146HFI     C3 2236   0.307   0.236   0.978 -0.3799 -0.4935  0.3937
  146HFI     F4 2237   0.317   0.194   0.852 -0.1776  0.0483 -0.4904
  146HFI     F5 2238   0.204   0.330   0.970  0.5185 -0.3586  0.0313
  146HFI     F6 2239   0.263   0.132   1.056  0.0769 -0.6398 -0.1586
  146HFI     H1 2240   0.468   0.405   1.198  0.9985  0.0856  0.4121
  146HFI     H2 2241   0.511   0.209   1.034 -0.6880 -0.9088  0.1501
  147HFI     O1 2242   1.021   0.022   3.038  0.1018  0.3394 -0.4737
  147HFI     C1 2243   1.034  -0.093   3.134  0.2203 -0.4344  0.3018
  147HFI     C2 2244   0.894  -0.137   3.190 -0.8974  0.2305  0.0738
  147HFI     F1 2245   0.903  -0.252   3.263  0.6066  0.4225  0.0508
  147HFI     F2 2246   0.812  -0.170   3.092  0.0960  0.8493  0.5993
  147HFI     F3 2247   0.837  -0.045   3.261 -0.0416 -0.4077 -0.2654
  147HFI     C3 2248   1.138  -0.058   3.246  0.6574 -0.5020 -0.2509
  147HFI     F4 2249   1.099   0.054   3.313 -0.1402 -0.2705  0.3530
  147HFI     F5 2250   1.263  -0.026   3.192 -0.1490  0.4667  0.4516
  147HFI     F6 2251   1.151  -0.163   3.344  0.2043  0.2888  0.6581
  147HFI     H1 2252   1.011   0.104   3.090 -0.0122 -0.1453  0.2721
  147HFI     H2 2253   1.078  -0.176   3.078  0.1583  0.5966 -1.2927
  148HFI     O1 2254   0.845   1.496   2.286  0.1586 -0.2721 -0.0705
  148HFI     C1 2255   0.798   1.383   2.362  0.2848 -0.0880  0.9274
  148HFI     C2 2256   0.795   1.259   2.277 -0.6102 -0.4286  0.9548
  148HFI     F1 2257   0.786   1.152   2.357  0.0791  0.0187  0.5665
  148HFI     F2 2258   0.910   1.240   2.213  0.3985  0.2272  0.4382
  148HFI     F3 2259   0.697   1.258   2.184 -0.0572  0.4951 -0.0142
  148HFI     C3 2260   0.666   1.425   2.428  0.6507 -0.6836  0.0891
  148HFI     F4 2261   0.607   1.331   2.503  0.1380 -0.0609 -0.1661
  148HFI     F5 2262   0.575   1.453   2.326 -0.7281  0.1737 -0.5871
  148HFI     F6 2263   0.683   1.541   2.506 -0.0412  0.2059 -0.4649
  148HFI     H1 2264   0.910   1.550   2.335  0.4873 -0.0627 -0.7366
  148HFI     H2 2265   0.863   1.360   2.448  1.4381 -1.1634 -0.2284
  149HFI     O1 2266   3.379   1.082   3.635 -0.1060  0.0884 -0.4487
  149HFI     C1 2267   3.418   1.145   3.762 -0.2191 -0.0684 -0.0359
  149HFI     C2 2268   3.311   1.136   3.864  0.2151 -0.2768 -0.7369
  149HFI     F1 2269   3.212   1.221   3.840  0.0349  0.2245 -0.2837
  149HFI     F2 2270   3.367   1.172   3.981  0.4989  0.0199  0.6762
  149HFI     F3 2271   3.258   1.007   3.884  0.1414  0.0260  0.1930
  149HFI     C3 2272   3.482   1.282   3.730  0.0560  0.1627  0.1792
  149HFI     F4 2273   3.563   1.307   3.835  0.2960 -0.5626  0.0993
  149HFI     F5 2274   3.399   1.391   3.709 -0.7290  0.0819  0.0145
  149HFI     F6 2275   3.570   1.269   3.630 -0.1391 -0.5846 -0.2843
  149HFI     H1 2276   3.283   1.065   3.634 -0.1541 -0.7610  4.8884
  149HFI     H2 2277   3.499   1.085   3.804  1.2428  0.6940 -1.6710
  150HFI     O1 2278   3.150   1.865   2.692 -0.6200 -0.3208  0.3201
  150HFI     C1 2279   3.217   1.892   2.809  0.0668 -0.0011 -0.6907
  150HFI     C2 2280   3.241   2.048   2.834  0.1639  0.1247  0.1803
  150HFI     F1 2281   3.331   2.101   2.742 -0.2632  0.0172 -0.2203
  150HFI     F2 2282   3.293   2.076   2.954 -0.5791 -0.6365  0.2768
  150HFI     F3 2283   3.126   2.111   2.822 -0.0719  0.3186  0.1681
  150HFI     C3 2284   3.346   1.808   2.822 -0.6059  0.1915  0.0493
  150HFI     F4 2285   3.404   1.832   2.939 -0.3598 -0.5100  0.2387
  150HFI     F5 2286   3.434   1.842   2.726 -0.1194 -0.0807  0.1151
  150HFI     F6 2287   3.323   1.671   2.824  0.5235  0.2406 -0.1947
  150HFI     H1 2288   3.061   1.904   2.691 -0.6549 -0.3501  1.3322
  150HFI     H2 2289   3.157   1.864   2.897 -0.4970  4.5256  0.5292
  151HFI     O1 2290   2.049   1.374   0.381  0.1282  0.1358 -0.4457
  151HFI     C1 2291   2.037   1.259   0.459 -0.2241  0.3504 -0.6397
  151HFI     C2 2292   1.893   1.195   0.449 -0.0183  0.7888  0.6691
  151HFI     F1 2293   1.860   1.152   0.322  0.4530 -0.3767 -0.5274
  151HFI     F2 2294   1.799   1.284   0.484  0.3293 -0.7053 -0.2406
  151HFI     F3 2295   1.885   1.086   0.529 -0.1420 -0.0368 -0.3313
  151HFI     C3 2296   2.081   1.292   0.606  0.0827  0.0563 -0.5086
  151HFI     F4 2297   2.018   1.408   0.652 -0.0966 -0.0831 -0.5129
  151HFI     F5 2298   2.217   1.318   0.607  0.2036  0.0660 -0.0567
  151HFI     F6 2299   2.064   1.194   0.698 -0.4806 -0.1036  0.1926
  151HFI     H1 2300   1.960   1.410   0.363 -1.4903 -2.3919  2.1518
  151HFI     H2 2301   2.105   1.180   0.426  1.1183  0.7551  1.0794
  152HFI     O1 2302   2.608   3.297   0.399  0.5352  0.5279 -0.1836
  152HFI     C1 2303   2.600   3.156   0.441  0.3275  0.4033 -0.5659
  152HFI     C2 2304   2.489   3.075   0.366 -0.1477 -0.2108  0.0150
  152HFI     F1 2305   2.475   3.113   0.240 -0.2228  0.1109 -0.0840
  152HFI     F2 2306   2.371   3.108   0.426 -0.4696 -0.1099 -0.7055
  152HFI     F3 2307   2.500   2.938   0.364  0.3703 -0.0257  0.2475
  152HFI     C3 2308   2.586   3.147   0.602  0.9660 -0.0961 -0.0760
  152HFI     F4 2309   2.561   3.018   0.640  0.1591 -0.6098  0.0245
  152HFI     F5 2310   2.487   3.228   0.660  0.9292 -0.3277 -0.1659
  152HFI     F6 2311   2.699   3.177   0.660  0.3379  0.8358  0.4817
  152HFI     H1 2312   2.537   3.355   0.432  0.1902 -0.6181  1.1113
  152HFI     H2 2313   2.697   3.107   0.426  1.5372  2.1077  1.4314
  153HFI     O1 2314   0.967   0.001   2.413 -0.4189 -0.2397 -0.5532
  153HFI     C1 2315   1.067  -0.015   2.311 -0.1854 -0.6066 -0.1792
  153HFI     C2 2316   1.112  -0.170   2.294 -0.1929 -0.4885 -0.7348
  153HFI     F1 2317   0.998  -0.239   2.272  0.2315 -0.7481 -0.3140
  153HFI     F2 2318   1.165  -0.208   2.408  0.1943 -0.2280 -0.4891
  153HFI     F3 2319   1.191  -0.191   2.190  0.2307  0.1214 -0.0931
  153HFI     C3 2320   1.186   0.089   2.324  0.6948  1.0957  0.0707
  153HFI     F4 2321   1.285   0.073   2.234  0.1585 -0.2982  0.2449
  153HFI     F5 2322   1.234   0.085   2.452 -0.0551  0.0198 -0.1149
  153HFI     F6 2323   1.141   0.213   2.305 -0.5257  0.5116  0.0250
  153HFI     H1 2324   0.935   0.093   2.413 -0.2637 -0.1660  1.1336
  153HFI     H2 2325   1.026   0.009   2.212 -0.7687 -0.9202 -0.0209
  154HFI     O1 2326   2.604   2.268   0.011  0.1875  0.1713 -0.0282
  154HFI     C1 2327   2.544   2.196  -0.102 -0.0775 -0.0076  0.4086
  154HFI     C2 2328   2.391   2.211  -0.107 -1.0447 -0.2008 -0.1830
  154HFI     F1 2329   2.359   2.339  -0.103 -0.5439  0.0253  0.0353
  154HFI     F2 2330   2.336   2.151  -0.001 -0.1040  0.1139  0.3852
  154HFI     F3 2331   2.326   2.168  -0.214 -0.1063 -0.2421  0.1811
  154HFI     C3 2332   2.590   2.045  -0.109 -0.9326  0.2843 -0.3104
  154HFI     F4 2333   2.530   1.978  -0.014 -0.5044  0.3932 -0.0542
  154HFI     F5 2334   2.719   2.028  -0.098  0.0233  0.1021 -0.0997
  154HFI     F6 2335   2.557   1.989  -0.227  0.4367 -0.2962  0.3015
  154HFI     H1 2336   2.572   2.236   0.097 -3.8198  1.3165 -0.9744
  154HFI     H2 2337   2.587   2.243  -0.191  0.1523 -0.2122  0.4136
  155HFI     O1 2338   2.208   0.732   2.246  0.2951 -0.2226 -0.3916
  155HFI     C1 2339   2.206   0.591   2.288 -0.1886 -0.7972  0.5128
  155HFI     C2 2340   2.085   0.567   2.386  0.2596  0.4263  0.3580
  155HFI     F1 2341   2.071   0.441   2.423 -0.2999  0.2571 -0.6432
  155HFI     F2 2342   1.966   0.601   2.323 -0.0193 -0.1040 -0.0053
  155HFI     F3 2343   2.098   0.641   2.498 -0.8496 -0.4398  0.3171
  155HFI     C3 2344   2.343   0.553   2.358 -0.2966  0.3421 -0.6833
  155HFI     F4 2345   2.444   0.577   2.274 -0.7020 -0.4096 -0.3770
  155HFI     F5 2346   2.342   0.420   2.387 -0.6882 -0.8184  0.0641
  155HFI     F6 2347   2.368   0.628   2.467  0.0876  0.6967  0.4614
  155HFI     H1 2348   2.216   0.794   2.320 -1.5913  0.9874 -1.1633
  155HFI     H2 2349   2.196   0.520   2.206 -1.6609 -1.0386  0.8886
  156HFI     O1 2350   0.934   0.256   3.135  0.0802  0.2821  0.0938
  156HFI     C1 2351   0.814   0.299   3.213  0.0473  0.4109 -0.1587
  156HFI     C2 2352   0.689   0.290   3.119 -0.1041  0.0402  0.1746
  156HFI     F1 2353   0.666   0.158   3.085 -0.6536 -0.4737 -0.2310
  156HFI     F2 2354   0.700   0.367   3.011 -0.4675 -0.3811 -0.2354
  156HFI     F3 2355   0.579   0.331   3.186 -0.1503 -0.0685  0.4736
  156HFI     C3 2356   0.834   0.440   3.268  0.3983 -0.4444  0.0137
  156HFI     F4 2357   0.930   0.455   3.359 -0.2947 -0.1154  0.0325
  156HFI     F5 2358   0.723   0.493   3.325 -0.2736  0.2053  0.0006
  156HFI     F6 2359   0.859   0.528   3.168  0.2628  0.2173 -0.2787
  156HFI     H1 2360   0.938   0.311   3.055 -1.6895 -0.6020 -0.6386
  156HFI     H2 2361   0.796   0.238   3.302  1.0235 -1.4934 -1.2459
  157HFI     O1 2362   2.555   1.056   1.452  0.1139  0.4056 -0.2046
  157HFI     C1 2363   2.620   1.158   1.543  0.0076  0.3340  0.6029
  157HFI     C2 2364   2.578   1.303   1.496  0.0763  0.6750 -0.4965
  157HFI     F1 2365   2.615   1.397   1.589 -0.0366  0.1202 -0.1334
  157HFI     F2 2366   2.443   1.311   1.477  0.2843 -0.3312 -0.1741
  157HFI     F3 2367   2.629   1.333   1.382  0.0710 -0.3609  0.0684
  157HFI     C3 2368   2.773   1.135   1.550  0.2688  0.3423  0.9600
  157HFI     F4 2369   2.800   1.024   1.623  0.0011  0.0404  0.4038
  157HFI     F5 2370   2.837   1.231   1.621  0.3060 -0.1512 -0.3610
  157HFI     F6 2371   2.831   1.121   1.427 -0.6838 -0.0372  0.0816
  157HFI     H1 2372   2.575   1.080   1.360 -1.8287 -2.5347 -1.4719
  157HFI     H2 2373   2.577   1.145   1.643  0.3053 -0.3235  0.6433
  158HFI     O1 2374   0.554   1.302   0.792 -0.2251 -0.3262  0.1614
  158HFI     C1 2375   0.512   1.395   0.904  0.0056 -0.1918  0.2280
  158HFI     C2 2376   0.621   1.512   0.927  0.5727  0.2628 -0.2220
  158HFI     F1 2377   0.651   1.565   0.811  0.0961  0.8960 -0.0099
  158HFI     F2 2378   0.735   1.450   0.974 -0.5356 -0.2519 -0.0054
  158HFI     F3 2379   0.567   1.602   1.007 -0.1891 -0.0786  0.0995
  158HFI     C3 2380   0.468   1.324   1.035  0.7184 -0.4956  0.8089
  158HFI     F4 2381   0.399   1.407   1.113  0.2158  0.5369  0.0979
  158HFI     F5 2382   0.571   1.280   1.107  0.1347 -0.2753 -0.1991
  158HFI     F6 2383   0.396   1.216   1.002  0.1409 -0.2473 -1.1605
  158HFI     H1 2384   0.619   1.239   0.827  1.1283 -0.1035 -1.8651
  158HFI     H2 2385   0.424   1.451   0.869 -1.3500 -2.5227 -0.1557
  159HFI     O1 2386   1.300   2.525   0.717 -0.6407 -0.4928  0.3877
  159HFI     C1 2387   1.257   2.629   0.621 -0.3959 -0.0945 -0.0599
  159HFI     C2 2388   1.375   2.721   0.571  1.0189  0.4740  0.4647
  159HFI     F1 2389   1.480   2.643   0.551  0.0127 -0.0697 -0.1212
  159HFI     F2 2390   1.416   2.819   0.663 -0.1737 -0.3298  0.2756
  159HFI     F3 2391   1.344   2.786   0.459 -0.2928 -0.3428 -0.5638
  159HFI     C3 2392   1.142   2.713   0.686  0.0322 -0.0924  0.1832
  159HFI     F4 2393   1.169   2.737   0.819 -0.1854 -0.2457 -0.0796
  159HFI     F5 2394   1.030   2.644   0.685 -0.1513  0.1236 -0.1446
  159HFI     F6 2395   1.120   2.833   0.626 -0.8214 -0.6102 -0.1320
  159HFI     H1 2396   1.222   2.467   0.728  0.1774 -1.7947 -0.5603
  159HFI     H2 2397   1.210   2.576   0.536 -1.1454 -0.3056  0.4797
  160HFI     O1 2398   1.036   0.720   3.475  0.2663  0.0814  0.4160
  160HFI     C1 2399   1.001   0.670   3.612 -0.1088  0.5534 -0.6150
  160HFI     C2 2400   0.845   0.661   3.651  0.5988  0.5646  0.2967
  160HFI     F1 2401   0.824   0.571   3.750 -0.1428 -0.2605  0.0111
  160HFI     F2 2402   0.773   0.621   3.545  0.1620  1.1087  0.2803
  160HFI     F3 2403   0.793   0.786   3.691  0.6465 -0.3197  0.2862
  160HFI     C3 2404   1.080   0.749   3.723 -0.0043 -0.1541  0.0276
  160HFI     F4 2405   1.084   0.879   3.693  0.0606 -0.1190 -0.1679
  160HFI     F5 2406   1.208   0.697   3.728 -0.0625  0.0707 -0.3076
  160HFI     F6 2407   1.024   0.739   3.843  0.1140 -0.4160  0.0087
  160HFI     H1 2408   1.119   0.678   3.445  0.7656  1.3110  0.0556
  160HFI     H2 2409   1.025   0.563   3.618 -1.3357  0.3243  0.2468
  161HFI     O1 2410   1.354   3.415   1.062 -0.2124  0.7041 -0.0234
  161HFI     C1 2411   1.433   3.397   0.939  0.0517  0.1494 -0.6409
  161HFI     C2 2412   1.544   3.509   0.936  0.5889 -0.0674 -0.4639
  161HFI     F1 2413   1.574   3.540   1.063  0.5773  0.1965  0.6521
  161HFI     F2 2414   1.493   3.619   0.873 -0.1312  0.2132 -0.6740
  161HFI     F3 2415   1.662   3.479   0.870  0.3285  0.0720 -0.0857
  161HFI     C3 2416   1.355   3.380   0.807  0.7099  0.1214  0.3612
  161HFI     F4 2417   1.433   3.394   0.701  0.0946  0.2391 -0.4481
  161HFI     F5 2418   1.251   3.472   0.785  0.1082  0.1443 -0.0441
  161HFI     F6 2419   1.302   3.254   0.803 -0.0471  0.5370 -0.0101
  161HFI     H1 2420   1.299   3.492   1.040 -1.7720  0.1058  1.6515
  161HFI     H2 2421   1.487   3.301   0.937 -0.1725  0.0375 -1.4517
  162HFI     O1 2422   3.364   3.294   3.498  0.1981 -0.2486  0.0210
  162HFI     C1 2423   3.250   3.361   3.435 -0.3981  0.7287 -0.5251
  162HFI     C2 2424   3.272   3.379   3.282  0.3381 -0.7513 -0.2775
  162HFI     F1 2425   3.182   3.454   3.220  0.1919 -0.1727  0.2003
  162HFI     F2 2426   3.287   3.264   3.219 -0.6478 -0.2043  0.3373
  162HFI     F3 2427   3.379   3.449   3.259 -0.4109  0.4462  0.2092
  162HFI     C3 2428   3.240   3.504   3.507  0.1439  0.5624 -0.1747
  162HFI     F4 2429   3.222   3.499   3.642 -0.2032 -0.3989  0.0148
  162HFI     F5 2430   3.132   3.565   3.452  0.1182 -0.4121  0.3523
  162HFI     F6 2431   3.346   3.586   3.482 -0.3895 -0.2724  0.4145
  162HFI     H1 2432   3.439   3.305   3.437 -0.5953  0.5928 -0.8111
  162HFI     H2 2433   3.159   3.304   3.455  0.2675  0.6180  2.3324
  163HFI     O1 2434   1.171   2.892   2.469 -0.3579 -0.2961  0.1408
  163HFI     C1 2435   1.048   2.828   2.430  0.1876  0.7365  0.8824
  163HFI     C2 2436   1.037   2.821   2.274  0.0855  1.0257  0.2230
  163HFI     F1 2437   1.110   2.718   2.214  0.0647 -0.2739  0.0752
  163HFI     F2 2438   1.083   2.941   2.217  0.1788  0.3844  0.0307
  163HFI     F3 2439   0.904   2.804   2.234  0.2133  0.3106 -0.6278
  163HFI     C3 2440   0.928   2.893   2.506  0.4678  0.5385  0.6755
  163HFI     F4 2441   0.869   2.998   2.437 -0.1620  0.6849 -0.0429
  163HFI     F5 2442   0.974   2.938   2.628  0.3945  0.2934 -0.6800
  163HFI     F6 2443   0.832   2.801   2.538  0.1964  0.3470  0.0849
  163HFI     H1 2444   1.171   2.885   2.566  1.0541 -3.8217 -0.0427
  163HFI     H2 2445   1.041   2.724   2.464  2.0180  0.5087  0.6270
  164HFI     O1 2446   2.715   1.925   2.478 -0.4433  0.3556  0.4747
  164HFI     C1 2447   2.686   2.052   2.549 -0.8340  0.1854  0.3833
  164HFI     C2 2448   2.568   2.132   2.492  1.0304  0.4999  0.3837
  164HFI     F1 2449   2.581   2.162   2.364 -0.2135 -0.3000  0.2149
  164HFI     F2 2450   2.546   2.245   2.564  0.4935 -0.2605 -0.8453
  164HFI     F3 2451   2.459   2.048   2.493 -0.4420  0.3247  0.4693
  164HFI     C3 2452   2.813   2.137   2.560  0.3270 -0.0503  0.9084
  164HFI     F4 2453   2.799   2.249   2.640 -0.2415 -0.3800 -0.2730
  164HFI     F5 2454   2.851   2.188   2.440 -0.2964  0.4457 -0.3590
  164HFI     F6 2455   2.917   2.068   2.610  0.2193 -0.5295 -0.7283
  164HFI     H1 2456   2.776   1.944   2.405  0.5136 -0.7492  0.9860
  164HFI     H2 2457   2.664   2.022   2.653  0.1220 -2.7521 -0.2247
  165HFI     O1 2458   3.024   2.993   0.228 -0.0321  0.0251 -0.2608
  165HFI     C1 2459   3.002   3.020   0.085  0.6954  0.4264  0.4893
  165HFI     C2 2460   3.140   3.042   0.019 -0.0952  0.1080  0.1237
  165HFI     F1 2461   3.122   3.072  -0.107 -0.5258  0.0612 -0.3766
  165HFI     F2 2462   3.209   2.923   0.026 -0.0955 -0.2856  0.2534
  165HFI     F3 2463   3.209   3.145   0.075  0.0127  0.3411 -0.8157
  165HFI     C3 2464   2.909   3.146   0.059  0.5673  0.2685  0.0005
  165HFI     F4 2465   2.799   3.124   0.134  0.3354 -0.1609  0.2279
  165HFI     F5 2466   2.867   3.151  -0.065  0.4302 -0.6484  0.2770
  165HFI     F6 2467   2.960   3.266   0.098  0.0688  0.0142 -0.1825
  165HFI     H1 2468   3.082   3.067   0.253  0.0516  0.0137 -0.4212
  165HFI     H2 2469   2.945   2.940   0.036 -0.5658  0.8914  1.1856
  166HFI     O1 2470   1.466   3.020   1.101  0.7676 -0.1523  0.1464
  166HFI     C1 2471   1.604   2.990   1.068 -0.5905  0.0456 -0.0455
  166HFI     C2 2472   1.618   2.841   1.058  0.1564 -0.2549 -0.6136
  166HFI     F1 2473   1.543   2.778   0.963  0.4412 -0.3820 -1.1778
  166HFI     F2 2474   1.572   2.787   1.174  0.3063 -0.2294  0.4206
  166HFI     F3 2475   1.744   2.790   1.046  0.2906 -0.2961  0.1556
  166HFI     C3 2476   1.707   3.052   1.167  0.4905 -0.3611  0.3045
  166HFI     F4 2477   1.830   3.044   1.124 -0.1997  0.5447  0.2205
  166HFI     F5 2478   1.689   3.013   1.296 -0.4753 -0.2167 -0.0986
  166HFI     F6 2479   1.684   3.181   1.169 -0.1522 -0.8879 -0.1835
  166HFI     H1 2480   1.445   3.016   1.196  0.8270 -1.7128  0.1145
  166HFI     H2 2481   1.624   3.029   0.967  0.1005 -0.0219  0.0692
  167HFI     O1 2482   0.366   0.521   2.657 -0.0442 -0.1950 -0.4583
  167HFI     C1 2483   0.343   0.519   2.802  0.0459  0.0184  0.1218
  167HFI     C2 2484   0.211   0.601   2.825  0.3082  0.6217 -0.0698
  167HFI     F1 2485   0.208   0.719   2.759 -0.0279 -0.1254 -0.8254
  167HFI     F2 2486   0.194   0.642   2.951 -0.2224  0.2772  0.1206
  167HFI     F3 2487   0.100   0.533   2.792  0.0275  0.9029  0.1639
  167HFI     C3 2488   0.461   0.573   2.885  0.0325 -0.7628 -0.5951
  167HFI     F4 2489   0.480   0.703   2.871 -0.1143 -0.2352  0.2533
  167HFI     F5 2490   0.578   0.519   2.843 -0.1535 -0.1148  0.2215
  167HFI     F6 2491   0.442   0.554   3.018 -0.4004 -0.2195  0.4691
  167HFI     H1 2492   0.434   0.591   2.648  0.8578 -0.8308  1.0911
  167HFI     H2 2493   0.336   0.413   2.829 -1.9933 -0.5865 -2.5494
  168HFI     O1 2494   0.281   0.382   2.280  0.3981 -0.1577 -0.1798
  168HFI     C1 2495   0.390   0.332   2.359 -0.0842  0.3294 -0.2331
  168HFI     C2 2496   0.507   0.291   2.263  0.4072 -0.3263  0.0877
  168HFI     F1 2497   0.613   0.266   2.345 -0.5222 -0.0822  0.2425
  168HFI     F2 2498   0.548   0.388   2.183 -0.1355  0.0872  0.2040
  168HFI     F3 2499   0.485   0.177   2.193  0.2747  0.5285 -0.0630
  168HFI     C3 2500   0.338   0.218   2.455  0.1537  0.4975  0.7245
  168HFI     F4 2501   0.256   0.266   2.547 -0.5839 -0.0176  0.3739
  168HFI     F5 2502   0.443   0.150   2.513  0.1748  0.0951 -0.7867
  168HFI     F6 2503   0.269   0.124   2.386  0.6258 -0.6044  0.6686
  168HFI     H1 2504   0.200   0.378   2.332  0.1888 -0.3842 -0.5252
  168HFI     H2 2505   0.425   0.413   2.424  0.3528 -1.3684  1.7190
  169HFI     O1 2506   0.549   0.886   0.167  0.3908  0.6787  0.5228
  169HFI     C1 2507   0.488   0.879   0.039 -0.2179 -0.2999 -0.7791
  169HFI     C2 2508   0.482   1.015  -0.035  0.5167 -0.5390 -0.1043
  169HFI     F1 2509   0.586   1.094   0.005  0.3610  0.2449 -0.3522
  169HFI     F2 2510   0.371   1.081  -0.007  0.0501 -0.4870  0.1082
  169HFI     F3 2511   0.488   0.994  -0.169 -0.1676  0.4062  0.1239
  169HFI     C3 2512   0.348   0.808   0.053  0.1184 -0.0716  0.5648
  169HFI     F4 2513   0.279   0.845   0.162 -0.5062 -0.0089 -0.2890
  169HFI     F5 2514   0.365   0.673   0.063 -0.0863 -0.6012 -0.8499
  169HFI     F6 2515   0.268   0.832  -0.051 -0.2596  0.3820 -0.1679
  169HFI     H1 2516   0.498   0.829   0.227  1.3560 -1.8626 -0.9604
  169HFI     H2 2517   0.558   0.825  -0.026 -0.1293  0.0760 -0.9993
  170HFI     O1 2518   0.189   0.081   3.058 -0.1016  0.4653  0.4316
  170HFI     C1 2519   0.209  -0.006   2.948 -0.5451 -1.1557 -0.0006
  170HFI     C2 2520   0.307   0.061   2.854 -0.2563 -0.2744  1.1209
  170HFI     F1 2521   0.316  -0.012   2.744  0.0430  0.5137  0.8660
  170HFI     F2 2522   0.431   0.082   2.904  0.0402 -0.0754 -0.1049
  170HFI     F3 2523   0.255   0.184   2.828 -0.0426 -0.0242 -0.1757
  170HFI     C3 2524   0.078  -0.045   2.877  0.4447  0.2345 -0.1686
  170HFI     F4 2525   0.008   0.053   2.816 -0.1169 -0.2609 -0.1307
  170HFI     F5 2526   0.000  -0.099   2.972  0.0467  0.0238 -0.0728
  170HFI     F6 2527   0.094  -0.141   2.784 -0.0867  0.0785  0.6167
  170HFI     H1 2528   0.131   0.030   3.118 -0.7034 -2.5047 -2.5304
  170HFI     H2 2529   0.252  -0.102   2.982  0.3500 -0.5928  0.4986
  171HFI     O1 2530   3.311   1.193   2.836  0.3549  0.2574 -0.3808
  171HFI     C1 2531   3.252   1.145   2.706 -0.1384  0.3297  0.3842
  171HFI     C2 2532   3.116   1.213   2.684  0.5920 -0.4707 -0.0192
  171HFI     F1 2533   3.137   1.343   2.704  0.5359 -0.6014 -0.2129
  171HFI     F2 2534   3.016   1.184   2.772  0.5232 -0.2678 -0.4000
  171HFI     F3 2535   3.083   1.201   2.556  0.1749  0.0839  0.0488
  171HFI     C3 2536   3.240   0.988   2.707  0.2295 -0.5544  0.0527
  171HFI     F4 2537   3.164   0.941   2.809 -0.6021 -0.3140  0.6729
  171HFI     F5 2538   3.362   0.937   2.722 -0.0123 -0.0527 -0.0560
  171HFI     F6 2539   3.189   0.936   2.590  0.3070 -0.3697  0.4692
  171HFI     H1 2540   3.329   1.289   2.831  0.4637  0.2320 -0.4813
  171HFI     H2 2541   3.327   1.166   2.628  2.6717 -1.9718  2.3631
  172HFI     O1 2542   2.943   1.541   1.053 -0.8021  0.5764 -0.3650
  172HFI     C1 2543   2.885   1.438   0.967 -0.3970  0.6800 -0.0384
  172HFI     C2 2544   2.728   1.458   0.959 -0.1053  0.5327 -0.3761
  172HFI     F1 2545   2.674   1.382   0.867 -0.5516 -0.2739 -0.0165
  172HFI     F2 2546   2.695   1.582   0.918  0.5474  0.1979 -0.5944
  172HFI     F3 2547   2.658   1.437   1.075  0.0621 -0.3509  0.2705
  172HFI     C3 2548   2.941   1.299   1.017  0.3330 -0.6418 -0.5755
  172HFI     F4 2549   3.071   1.280   0.990  0.6196 -0.4529 -0.2317
  172HFI     F5 2550   2.862   1.199   0.985  0.0516  0.2423  0.0483
  172HFI     F6 2551   2.939   1.292   1.154 -0.8067  0.5115  0.3393
  172HFI     H1 2552   2.905   1.544   1.142  0.3544  0.4721  0.1371
  172HFI     H2 2553   2.922   1.431   0.865  0.3318 -2.2688  0.3766
  173HFI     O1 2554   1.818   2.133   2.977 -0.6524 -0.1989  0.1242
  173HFI     C1 2555   1.961   2.107   2.992  0.0433 -0.2125  0.2010
  173HFI     C2 2556   2.033   2.207   3.089  0.6074 -0.1928 -0.7965
  173HFI     F1 2557   1.983   2.335   3.077 -0.9780  0.5003 -0.6979
  173HFI     F2 2558   2.171   2.221   3.082 -0.0606 -0.2433  0.5671
  173HFI     F3 2559   2.004   2.176   3.212  0.4571 -0.2370  0.8965
  173HFI     C3 2560   2.025   2.113   2.850 -0.4470 -0.3552 -0.2944
  173HFI     F4 2561   2.003   2.227   2.777 -0.1479  0.3352 -0.4952
  173HFI     F5 2562   1.969   2.021   2.778  0.6751 -0.1602 -0.6419
  173HFI     F6 2563   2.155   2.088   2.852  0.1074  0.0642 -0.3256
  173HFI     H1 2564   1.792   2.081   2.899 -0.9975  1.1221 -0.6574
  173HFI     H2 2565   1.979   2.004   3.024 -0.0394 -0.5107 -0.7062
  174HFI     O1 2566   3.381   0.442   3.607  0.8562  0.1073  0.0766
  174HFI     C1 2567   3.249   0.504   3.597  0.5594  1.3126  0.1829
  174HFI     C2 2568   3.255   0.655   3.605  0.4043 -0.4996  0.4114
  174HFI     F1 2569   3.135   0.717   3.563  0.2074  0.1887 -0.2436
  174HFI     F2 2570   3.349   0.693   3.517  0.2251 -0.2113 -0.4921
  174HFI     F3 2571   3.292   0.701   3.722 -0.2380  0.6842  0.0523
  174HFI     C3 2572   3.155   0.445   3.707 -0.1415  0.1504 -0.1758
  174HFI     F4 2573   3.033   0.491   3.702  0.1412  0.3824  0.3579
  174HFI     F5 2574   3.200   0.463   3.831 -0.3371  0.2729 -0.3368
  174HFI     F6 2575   3.139   0.318   3.687  0.3575  0.1620 -0.6186
  174HFI     H1 2576   3.372   0.352   3.643 -0.5119  0.6131  1.0519
  174HFI     H2 2577   3.206   0.483   3.499  0.3203  1.7837  0.1852
  175HFI     O1 2578   0.489   1.347   0.520 -0.2606  0.5152 -0.1021
  175HFI     C1 2579   0.364   1.282   0.464 -0.8380 -0.5723 -0.2670
  175HFI     C2 2580   0.270   1.239   0.573 -0.1744 -0.1618 -0.0465
  175HFI     F1 2581   0.295   1.119   0.629 -0.5180  0.2897 -0.3594
  175HFI     F2 2582   0.138   1.239   0.537  0.1192 -0.0667 -0.0067
  175HFI     F3 2583   0.277   1.326   0.678 -0.6437 -0.2502 -0.1733
  175HFI     C3 2584   0.400   1.179   0.348 -0.4239  0.0199 -0.5505
  175HFI     F4 2585   0.293   1.156   0.268  0.0486  0.5269 -0.9135
  175HFI     F5 2586   0.433   1.059   0.396  0.1717 -0.1724  0.4656
  175HFI     F6 2587   0.501   1.214   0.264  0.0759  0.1806 -0.3386
  175HFI     H1 2588   0.499   1.315   0.612  0.9612 -2.3862 -1.1881
  175HFI     H2 2589   0.307   1.362   0.414 -1.1285 -1.4265 -1.3393
  176HFI     O1 2590   2.756   1.638   2.498 -0.4424 -0.1438 -0.0388
  176HFI     C1 2591   2.861   1.590   2.416 -0.2258  1.5507 -0.0671
  176HFI     C2 2592   2.913   1.700   2.320  0.8670  0.2919  0.4398
  176HFI     F1 2593   2.992   1.652   2.224  0.1815  0.4220 -0.4374
  176HFI     F2 2594   2.965   1.803   2.380 -0.0787 -0.1317 -0.3128
  176HFI     F3 2595   2.800   1.749   2.257 -0.6533  0.4965 -0.0301
  176HFI     C3 2596   2.807   1.458   2.343 -0.0050  0.1487 -0.2797
  176HFI     F4 2597   2.697   1.477   2.263 -0.2697 -0.4507  0.0850
  176HFI     F5 2598   2.763   1.371   2.432  0.0081 -0.8751  0.7691
  176HFI     F6 2599   2.907   1.402   2.269  0.2547 -0.3377  0.5105
  176HFI     H1 2600   2.677   1.646   2.442 -1.0359 -0.9106  0.6904
  176HFI     H2 2601   2.948   1.561   2.475 -0.5757  0.0949 -0.2663
  177HFI     O1 2602   2.494   0.106   1.137 -0.7484 -0.2150  0.1435
  177HFI     C1 2603   2.610   0.082   1.047  0.0333 -0.4381 -0.0727
  177HFI     C2 2604   2.659  -0.068   1.073 -0.3803 -0.5417 -0.2907
  177HFI     F1 2605   2.548  -0.142   1.055  0.6059  0.4819 -0.0548
  177HFI     F2 2606   2.710  -0.096   1.200  0.2749  0.3568  0.3250
  177HFI     F3 2607   2.755  -0.109   0.981 -0.2149  0.5330  0.2562
  177HFI     C3 2608   2.721   0.190   1.071 -0.1542 -0.9979 -0.2099
  177HFI     F4 2609   2.802   0.197   0.963  0.0758 -0.3378 -0.1332
  177HFI     F5 2610   2.797   0.168   1.181  0.4581 -0.4443 -0.1892
  177HFI     F6 2611   2.664   0.314   1.077 -0.2700 -0.1983  0.1622
  177HFI     H1 2612   2.499   0.191   1.184 -0.0570 -0.3116  0.2553
  177HFI     H2 2613   2.579   0.089   0.943  1.5798 -1.7902 -0.6487
  178HFI     O1 2614   3.107   1.577   0.476  0.5293 -0.1648  0.5895
  178HFI     C1 2615   3.156   1.528   0.346  0.2353  0.2543 -0.1933
  178HFI     C2 2616   3.290   1.586   0.303 -0.0215  0.3270  0.1024
  178HFI     F1 2617   3.331   1.553   0.183 -0.3330 -0.0936  0.6090
  178HFI     F2 2618   3.394   1.539   0.384 -0.4415  0.0214 -0.3035
  178HFI     F3 2619   3.291   1.725   0.301 -0.0106  0.3649  0.5158
  178HFI     C3 2620   3.047   1.561   0.245  0.2067 -0.3209 -0.5441
  178HFI     F4 2621   2.923   1.527   0.295  0.0257  0.0228  0.2585
  178HFI     F5 2622   3.064   1.489   0.129 -0.4166  0.0143  0.1499
  178HFI     F6 2623   3.042   1.691   0.217 -0.1543  0.1425  0.0737
  178HFI     H1 2624   3.068   1.665   0.467 -1.1217 -1.0065 -0.8881
  178HFI     H2 2625   3.183   1.422   0.346  0.3839  0.2925 -0.3821
  179HFI     O1 2626   0.545   2.335   2.435  0.1087 -0.3911 -0.4010
  179HFI     C1 2627   0.437   2.421   2.377 -0.2580  0.6078 -0.0222
  179HFI     C2 2628   0.306   2.354   2.323  0.1098 -0.0531 -0.1341
  179HFI     F1 2629   0.294   2.238   2.400 -0.1838 -0.0612  0.1650
  179HFI     F2 2630   0.312   2.315   2.197 -0.0908 -0.4003  0.1169
  179HFI     F3 2631   0.196   2.433   2.345 -0.5083  0.0887 -0.6103
  179HFI     C3 2632   0.500   2.527   2.278  0.0723 -0.5146 -0.0979
  179HFI     F4 2633   0.407   2.585   2.198 -0.0280  0.5769 -0.4066
  179HFI     F5 2634   0.590   2.472   2.193 -0.5553 -0.0978  0.1491
  179HFI     F6 2635   0.559   2.623   2.348  0.3350 -0.2911 -0.4595
  179HFI     H1 2636   0.613   2.312   2.370  0.2629  0.6932 -0.6328
  179HFI     H2 2637   0.400   2.489   2.455 -1.3699  0.7915 -0.7041
  180HFI     O1 2638   1.888   0.888   2.537  0.4459  0.3030  0.0758
  180HFI     C1 2639   1.858   0.901   2.400 -0.4959 -0.4987 -0.4527
  180HFI     C2 2640   1.946   1.012   2.342  0.2512 -0.2227 -0.2145
  180HFI     F1 2641   1.916   1.035   2.212  0.2945  0.0475 -0.0578
  180HFI     F2 2642   2.072   0.989   2.352  0.3112 -0.5679  0.3285
  180HFI     F3 2643   1.924   1.130   2.407 -0.3794 -0.3113  0.1344
  180HFI     C3 2644   1.700   0.914   2.382  0.9278 -0.0962 -0.1825
  180HFI     F4 2645   1.633   0.821   2.460  0.2399  0.1477  0.0953
  180HFI     F5 2646   1.666   0.878   2.255 -0.3060 -0.3049  0.2646
  180HFI     F6 2647   1.657   1.037   2.412  0.2075 -0.1241  0.0028
  180HFI     H1 2648   1.805   0.891   2.587 -1.1095  2.4678 -2.5244
  180HFI     H2 2649   1.884   0.805   2.354 -0.7237 -1.1454  0.7578
  181HFI     O1 2650   3.193   2.114   3.651 -0.5793  0.5859  0.2238
  181HFI     C1 2651   3.199   1.971   3.670 -0.3211  0.2523  0.1828
  181HFI     C2 2652   3.055   1.917   3.667 -0.8130 -0.2768  0.4115
  181HFI     F1 2653   3.045   1.786   3.632 -0.5324  0.1909  0.2273
  181HFI     F2 2654   2.981   1.983   3.576  0.1995 -0.3527 -0.3149
  181HFI     F3 2655   2.986   1.933   3.781  0.5117  0.7817  0.0760
  181HFI     C3 2656   3.275   1.924   3.796 -0.2223 -0.2141  0.0024
  181HFI     F4 2657   3.277   1.790   3.800 -0.3108 -0.1089  0.2014
  181HFI     F5 2658   3.222   1.975   3.906 -0.5081 -0.7294  0.0274
  181HFI     F6 2659   3.404   1.963   3.797  0.3799  0.2912  0.0454
  181HFI     H1 2660   3.280   2.156   3.649  0.9179 -2.3205  1.4223
  181HFI     H2 2661   3.253   1.928   3.585  0.8223  2.5066 -0.2671
  182HFI     O1 2662   1.366   2.158   3.341 -0.1957  0.1654 -0.3623
  182HFI     C1 2663   1.276   2.261   3.399 -0.4808 -0.4045  0.5010
  182HFI     C2 2664   1.202   2.200   3.523  0.3677  0.0875  0.3086
  182HFI     F1 2665   1.087   2.265   3.556  0.1123  0.2851 -0.2838
  182HFI     F2 2666   1.277   2.193   3.633 -0.3746 -0.3005 -0.2819
  182HFI     F3 2667   1.163   2.069   3.493  0.5862 -0.2744  0.1666
  182HFI     C3 2668   1.177   2.312   3.287  0.9125 -0.2629 -0.4814
  182HFI     F4 2669   1.069   2.226   3.271 -0.0379  0.5758  0.8895
  182HFI     F5 2670   1.246   2.308   3.166 -0.4979 -0.4410 -0.7258
  182HFI     F6 2671   1.133   2.440   3.314 -0.2182  0.2373  0.2575
  182HFI     H1 2672   1.430   2.195   3.279 -1.2026  1.4748 -0.6463
  182HFI     H2 2673   1.339   2.343   3.434 -1.5262  1.1615 -1.2157
  183HFI     O1 2674   2.452   2.156   0.275 -0.5556 -0.3601  0.3138
  183HFI     C1 2675   2.403   2.257   0.385  0.1243  0.8348  0.1260
  183HFI     C2 2676   2.380   2.402   0.315  0.4658  0.4510 -0.7057
  183HFI     F1 2677   2.494   2.449   0.257 -0.3750 -0.0229 -0.1086
  183HFI     F2 2678   2.336   2.483   0.416  0.0463  0.4207 -0.6634
  183HFI     F3 2679   2.280   2.397   0.226  0.7067  0.8611 -0.3029
  183HFI     C3 2680   2.493   2.256   0.512 -0.1710 -0.2737  0.6483
  183HFI     F4 2681   2.439   2.311   0.614 -0.1333 -0.3223  0.1767
  183HFI     F5 2682   2.609   2.315   0.489  0.8831  0.6064 -0.1334
  183HFI     F6 2683   2.518   2.129   0.547  0.1955 -0.1886  0.3810
  183HFI     H1 2684   2.501   2.087   0.324 -0.2055 -0.8936 -0.7672
  183HFI     H2 2685   2.303   2.227   0.417 -0.6242  1.2559 -1.7600
  184HFI     O1 2686   1.663   2.736   2.473  0.0683 -0.5978  0.2402
  184HFI     C1 2687   1.569   2.649   2.415  0.0253  0.2368 -0.3233
  184HFI     C2 2688   1.514   2.697   2.277  0.7692 -0.2148  0.4447
  184HFI     F1 2689   1.416   2.784   2.301 -0.6494  0.1244 -0.1974
  184HFI     F2 2690   1.468   2.594   2.207  0.2738  0.4741 -0.0559
  184HFI     F3 2691   1.605   2.769   2.207 -0.2572 -0.1324  0.2256
  184HFI     C3 2692   1.454   2.610   2.511 -0.2728  0.1786 -0.3922
  184HFI     F4 2693   1.500   2.525   2.608  0.1818 -0.2268 -0.2161
  184HFI     F5 2694   1.350   2.549   2.448 -0.3866 -0.3091 -0.1896
  184HFI     F6 2695   1.402   2.717   2.577 -0.2289 -0.0262  0.0460
  184HFI     H1 2696   1.637   2.826   2.444  1.6275 -0.6227 -1.3550
  184HFI     H2 2697   1.627   2.560   2.386 -1.0091 -1.1662  1.7658
  185HFI     O1 2698   2.621   0.842   3.010  0.3458 -0.0274 -0.3167
  185HFI     C1 2699   2.716   0.883   2.904  0.2208 -0.3193  0.1446
  185HFI     C2 2700   2.645   0.963   2.788 -0.8126  0.1363  0.1392
  185HFI     F1 2701   2.557   1.051   2.844  0.6775 -0.3042 -0.0685
  185HFI     F2 2702   2.577   0.897   2.697 -0.4002  0.4221  0.2063
  185HFI     F3 2703   2.738   1.039   2.725 -0.0254  0.4581  0.0241
  185HFI     C3 2704   2.810   0.770   2.863 -0.4802 -0.4485 -0.6864
  185HFI     F4 2705   2.898   0.727   2.958  0.6979  0.3473 -0.2904
  185HFI     F5 2706   2.876   0.798   2.749  0.2516 -0.4316  0.3127
  185HFI     F6 2707   2.727   0.670   2.845  0.0625 -0.2634 -1.0440
  185HFI     H1 2708   2.621   0.745   3.011 -3.2427 -0.2367 -4.5605
  185HFI     H2 2709   2.792   0.947   2.950 -0.4362  1.0493 -0.6672
  186HFI     O1 2710   1.691   0.271   2.263 -0.0525 -0.0968  0.1153
  186HFI     C1 2711   1.558   0.311   2.306 -0.3686 -0.3387 -0.1662
  186HFI     C2 2712   1.542   0.462   2.303 -0.3284 -0.3688  0.1551
  186HFI     F1 2713   1.571   0.523   2.424 -0.3038  0.2020  0.1027
  186HFI     F2 2714   1.409   0.488   2.287  0.4735  0.0552 -0.1600
  186HFI     F3 2715   1.616   0.525   2.206  0.1908 -0.7448 -0.1055
  186HFI     C3 2716   1.523   0.250   2.442 -0.1254  0.7616 -0.1265
  186HFI     F4 2717   1.405   0.296   2.489  0.8199 -0.3983  0.1264
  186HFI     F5 2718   1.613   0.276   2.538 -0.6311 -0.2517 -0.0519
  186HFI     F6 2719   1.511   0.116   2.436 -0.2883  0.1153  0.1094
  186HFI     H1 2720   1.753   0.263   2.338  1.3003  0.2827 -0.9361
  186HFI     H2 2721   1.483   0.277   2.234 -1.6560 -2.3891  2.0553
  187HFI     O1 2722   1.140   1.119   2.600 -0.5796  0.3711  0.1965
  187HFI     C1 2723   1.132   1.203   2.723 -0.0572 -0.2758 -0.3674
  187HFI     C2 2724   0.993   1.187   2.790  0.1093 -0.1316  0.1098
  187HFI     F1 2725   0.942   1.063   2.785  0.0445  0.2628 -0.0207
  187HFI     F2 2726   0.902   1.267   2.730  0.5542 -0.4941  0.2860
  187HFI     F3 2727   1.006   1.216   2.922 -0.5162  0.4497 -0.1375
  187HFI     C3 2728   1.166   1.347   2.692 -0.5552  0.2747 -0.0284
  187HFI     F4 2729   1.301   1.361   2.673  0.5131  0.1300 -0.6559
  187HFI     F5 2730   1.138   1.430   2.795  0.2775  0.6459 -0.1906
  187HFI     F6 2731   1.104   1.389   2.583  0.0933 -0.0119  0.5007
  187HFI     H1 2732   1.171   1.033   2.633  1.4246  0.3933 -1.4722
  187HFI     H2 2733   1.210   1.170   2.793  0.8387  0.5524 -0.9626
  188HFI     O1 2734   0.156   2.846   0.597 -0.4335 -0.2483 -0.5113
  188HFI     C1 2735   0.061   2.961   0.573  0.1723  0.6692 -0.8972
  188HFI     C2 2736  -0.035   2.923   0.460  0.8830 -0.3115  0.1892
  188HFI     F1 2737  -0.150   3.000   0.444 -0.3117  0.5210  0.7169
  188HFI     F2 2738  -0.083   2.802   0.487  0.2526 -0.2088 -0.1543
  188HFI     F3 2739   0.018   2.912   0.338  0.2629  0.0479  0.0382
  188HFI     C3 2740   0.128   3.089   0.555 -0.3752 -0.2774  0.1946
  188HFI     F4 2741   0.043   3.182   0.504  0.2866 -0.1142  0.0304
  188HFI     F5 2742   0.227   3.084   0.462  0.0950  0.5486  0.3904
  188HFI     F6 2743   0.178   3.139   0.673  0.4103 -0.3234 -0.1787
  188HFI     H1 2744   0.105   2.765   0.612 -0.4132 -0.2520 -0.4599
  188HFI     H2 2745  -0.005   2.973   0.660 -1.3345  0.8617 -2.0617
  189HFI     O1 2746   1.868   1.391   2.469  0.0484 -0.3899  0.0938
  189HFI     C1 2747   1.724   1.385   2.437  0.3106  0.2681 -0.2825
  189HFI     C2 2748   1.703   1.415   2.288 -0.2125 -0.0921 -0.1312
  189HFI     F1 2749   1.724   1.552   2.256  0.2359 -0.0623  0.1126
  189HFI     F2 2750   1.582   1.375   2.246  0.3137  0.1686  0.3300
  189HFI     F3 2751   1.795   1.345   2.220  0.0101  0.3760 -1.0796
  189HFI     C3 2752   1.639   1.481   2.531 -0.1851 -0.1127  0.2736
  189HFI     F4 2753   1.639   1.437   2.656 -0.8639 -0.1469 -0.3056
  189HFI     F5 2754   1.513   1.487   2.490  0.0274  0.2026 -0.1693
  189HFI     F6 2755   1.690   1.611   2.536 -0.1697  0.1197 -0.3016
  189HFI     H1 2756   1.917   1.322   2.423  0.7149  0.9770 -1.2876
  189HFI     H2 2757   1.694   1.281   2.450  2.4976  0.0290  3.4694
  190HFI     O1 2758   2.960   0.540   3.382  0.0580  0.2412  0.3131
  190HFI     C1 2759   2.814   0.580   3.378  0.2492  0.6157  0.9143
  190HFI     C2 2760   2.718   0.483   3.305 -0.2456  0.6833  0.0411
  190HFI     F1 2761   2.714   0.500   3.167  0.2686 -0.8053  0.1499
  190HFI     F2 2762   2.585   0.494   3.351  0.0822  0.2972  0.7328
  190HFI     F3 2763   2.760   0.354   3.338  0.0762 -0.0460  0.3648
  190HFI     C3 2764   2.796   0.735   3.337 -0.1809  0.3201  0.3362
  190HFI     F4 2765   2.668   0.762   3.333 -0.0458 -0.0251 -0.4728
  190HFI     F5 2766   2.858   0.757   3.221  0.1371 -0.4062 -0.2123
  190HFI     F6 2767   2.850   0.813   3.427 -0.3076 -0.2854 -0.1540
  190HFI     H1 2768   2.983   0.503   3.295 -0.0825  4.1086 -1.4865
  190HFI     H2 2769   2.771   0.576   3.479  1.7610  0.4357  1.5698
  191HFI     O1 2770   0.626   2.250   3.738 -0.1186 -0.5330 -0.4904
  191HFI     C1 2771   0.728   2.359   3.728 -0.7620  1.0263  0.5970
  191HFI     C2 2772   0.862   2.335   3.802 -0.9757 -0.1468  0.1734
  191HFI     F1 2773   0.957   2.422   3.760 -0.3922  0.3592 -0.2079
  191HFI     F2 2774   0.913   2.212   3.789  0.5956  0.6745  0.7229
  191HFI     F3 2775   0.844   2.368   3.931 -0.0013 -0.0989 -0.1903
  191HFI     C3 2776   0.661   2.500   3.752 -0.0427 -0.3044 -0.1037
  191HFI     F4 2777   0.629   2.523   3.883 -0.2748 -0.1532  0.1783
  191HFI     F5 2778   0.547   2.514   3.676 -0.3489 -0.3045  0.3089
  191HFI     F6 2779   0.745   2.605   3.713 -0.1661 -0.3229 -0.4361
  191HFI     H1 2780   0.661   2.165   3.705 -0.3830 -1.2951  1.1686
  191HFI     H2 2781   0.751   2.366   3.621 -2.0722  0.6219  0.2692
  192HFI     O1 2782   2.458   1.807   1.335 -0.2724 -0.3793  0.1254
  192HFI     C1 2783   2.406   1.885   1.446 -0.0235  0.2866  0.1998
  192HFI     C2 2784   2.526   1.954   1.533 -0.0713  0.0346  0.7940
  192HFI     F1 2785   2.618   2.013   1.454 -0.2633 -0.2713  0.3934
  192HFI     F2 2786   2.585   1.855   1.598  0.0243  0.0705  0.3568
  192HFI     F3 2787   2.488   2.049   1.616  0.1315 -0.1284  0.2179
  192HFI     C3 2788   2.292   1.810   1.527  0.2571  0.7913  0.1890
  192HFI     F4 2789   2.333   1.694   1.576  0.2312 -0.3409 -0.4448
  192HFI     F5 2790   2.195   1.783   1.439 -0.0657 -0.5180  0.2351
  192HFI     F6 2791   2.235   1.885   1.625 -0.4812  0.1014 -0.0034
  192HFI     H1 2792   2.425   1.716   1.343  2.1998 -1.4165 -0.8410
  192HFI     H2 2793   2.356   1.971   1.399 -0.3866 -0.6243 -1.1273
  193HFI     O1 2794   2.163   3.422   2.516  0.3363  0.2021 -0.1289
  193HFI     C1 2795   2.184   3.523   2.407  0.4954  0.3325  0.4919
  193HFI     C2 2796   2.054   3.552   2.334  0.2640 -0.0217  0.7235
  193HFI     F1 2797   2.004   3.455   2.252 -0.2771 -0.3015 -0.2102
  193HFI     F2 2798   2.068   3.656   2.258  0.0368  0.2691  0.3341
  193HFI     F3 2799   1.955   3.595   2.418 -0.3700  0.5155  0.1221
  193HFI     C3 2800   2.298   3.470   2.321  0.2923 -0.0638  0.4339
  193HFI     F4 2801   2.329   3.565   2.231  0.6781 -0.5136 -0.2296
  193HFI     F5 2802   2.260   3.363   2.256  0.1140 -0.0207 -0.2904
  193HFI     F6 2803   2.410   3.446   2.392  0.2266  0.0437  0.2612
  193HFI     H1 2804   2.165   3.335   2.472 -1.9736 -0.8286  1.7366
  193HFI     H2 2805   2.224   3.613   2.455 -0.0483  0.8050  0.0711
  194HFI     O1 2806   2.859   3.274   2.634 -0.0628  0.6051  0.1490
  194HFI     C1 2807   2.952   3.336   2.727 -0.1150 -0.4728 -0.1432
  194HFI     C2 2808   3.031   3.220   2.791 -0.2499  1.2166  0.0019
  194HFI     F1 2809   2.953   3.134   2.852 -0.2409 -0.1113 -0.0166
  194HFI     F2 2810   3.122   3.279   2.879 -0.5441  0.4237  0.4940
  194HFI     F3 2811   3.106   3.149   2.703 -0.2296 -0.3027 -0.8366
  194HFI     C3 2812   2.876   3.421   2.839 -0.2965 -0.1540  0.4590
  194HFI     F4 2813   2.793   3.346   2.918  0.6894  0.4031  0.0570
  194HFI     F5 2814   2.796   3.519   2.792  0.3144 -0.0865  0.9045
  194HFI     F6 2815   2.963   3.485   2.919 -0.7703 -0.6144  0.2410
  194HFI     H1 2816   2.785   3.239   2.686  0.1297 -1.0786 -0.6653
  194HFI     H2 2817   3.020   3.407   2.680 -0.8314  0.8021  0.7282
  195HFI     O1 2818   2.500   0.133   0.481  0.0354  0.3164  0.2324
  195HFI     C1 2819   2.384   0.209   0.520  0.0457  0.1949 -0.6332
  195HFI     C2 2820   2.384   0.343   0.447 -0.0237 -0.2045 -0.3613
  195HFI     F1 2821   2.362   0.321   0.314 -0.0974  0.2122 -0.2020
  195HFI     F2 2822   2.510   0.389   0.458  0.1647 -0.1851 -0.3896
  195HFI     F3 2823   2.297   0.436   0.493 -0.0550  0.1435  0.2225
  195HFI     C3 2824   2.388   0.229   0.681  0.1674 -1.1040  0.2760
  195HFI     F4 2825   2.372   0.107   0.742 -0.3636 -0.0944 -1.0367
  195HFI     F5 2826   2.285   0.312   0.718 -0.0894  0.1423 -0.2260
  195HFI     F6 2827   2.505   0.282   0.732 -0.2919 -0.5639  0.0311
  195HFI     H1 2828   2.560   0.183   0.423 -0.1588 -1.1654 -1.2875
  195HFI     H2 2829   2.292   0.154   0.496  0.2048  0.6449 -2.3714
  196HFI     O1 2830   2.566   0.956   0.556 -0.2585  0.1574 -0.0276
  196HFI     C1 2831   2.513   0.883   0.446  0.0660  0.3011  0.0943
  196HFI     C2 2832   2.619   0.777   0.407 -0.7016 -0.0302  0.3594
  196HFI     F1 2833   2.744   0.827   0.378  0.3353  0.2247 -0.3478
  196HFI     F2 2834   2.572   0.707   0.299  0.5778  0.2640  0.0914
  196HFI     F3 2835   2.637   0.680   0.506  0.3709 -0.2537  0.2904
  196HFI     C3 2836   2.472   0.979   0.332  0.1716  0.6160  0.1257
  196HFI     F4 2837   2.579   1.039   0.281  0.6102 -0.3299  0.4577
  196HFI     F5 2838   2.398   1.075   0.376 -0.4840 -0.5134 -0.2155
  196HFI     F6 2839   2.397   0.913   0.238  0.1671  0.3578 -0.3923
  196HFI     H1 2840   2.656   0.988   0.538  0.3570 -0.2129  2.2530
  196HFI     H2 2841   2.422   0.831   0.477  0.1155 -0.8014 -1.6076
  197HFI     O1 2842   2.403   3.356   1.402  0.4044  0.0928  0.4568
  197HFI     C1 2843   2.402   3.462   1.505 -0.6368 -0.0174  0.2343
  197HFI     C2 2844   2.289   3.563   1.483 -0.2490 -0.3359 -0.0145
  197HFI     F1 2845   2.292   3.655   1.588  0.4268  0.0621  0.0560
  197HFI     F2 2846   2.171   3.500   1.489  0.1613  0.2355 -0.1857
  197HFI     F3 2847   2.299   3.627   1.366  0.2182 -0.2852 -0.0766
  197HFI     C3 2848   2.550   3.521   1.515 -0.0216 -0.6000 -0.7221
  197HFI     F4 2849   2.629   3.430   1.572 -0.3039  0.1665 -0.1295
  197HFI     F5 2850   2.561   3.623   1.604  0.1277  0.1526 -0.2552
  197HFI     F6 2851   2.605   3.553   1.398  0.4968 -0.5018 -0.5826
  197HFI     H1 2852   2.478   3.377   1.343  0.4148 -0.5462  0.2358
  197HFI     H2 2853   2.376   3.418   1.602  1.6593 -1.1267  0.3737
  198HFI     O1 2854   2.557   2.493   1.332 -0.3182  0.2533 -0.2427
  198HFI     C1 2855   2.438   2.496   1.412 -0.3726 -0.5231  0.9987
  198HFI     C2 2856   2.444   2.615   1.509  0.1763  0.3396  0.3778
  198HFI     F1 2857   2.486   2.729   1.454  0.1250 -0.2763  0.5073
  198HFI     F2 2858   2.525   2.599   1.619 -0.0603 -0.3543 -0.0547
  198HFI     F3 2859   2.327   2.642   1.560  0.1568 -0.3799  0.1121
  198HFI     C3 2860   2.413   2.364   1.479 -0.0551  0.0877  0.0908
  198HFI     F4 2861   2.300   2.367   1.552  0.1936  0.3819  0.3496
  198HFI     F5 2862   2.511   2.328   1.561 -0.2837 -0.2611 -0.4653
  198HFI     F6 2863   2.405   2.274   1.378  0.3086 -0.1188  0.2217
  198HFI     H1 2864   2.633   2.473   1.390 -1.4218 -1.9690  0.5166
  198HFI     H2 2865   2.348   2.515   1.352  0.6350 -0.9090 -0.6593
  199HFI     O1 2866   1.117   1.605   0.353 -0.1323 -0.2036 -0.1775
  199HFI     C1 2867   1.044   1.713   0.292 -0.7316  0.1223  0.8810
  199HFI     C2 2868   0.901   1.680   0.260 -0.5190  0.6015 -0.3827
  199HFI     F1 2869   0.890   1.568   0.183 -0.4330  0.0568 -0.1966
  199HFI     F2 2870   0.846   1.782   0.205  0.7621  0.1657 -0.0527
  199HFI     F3 2871   0.832   1.664   0.375  0.3216  0.3919 -0.4198
  199HFI     C3 2872   1.120   1.770   0.168 -0.9371 -0.0999 -0.9895
  199HFI     F4 2873   1.109   1.683   0.072  0.3772  0.3723  0.4123
  199HFI     F5 2874   1.250   1.787   0.191 -0.7279 -0.0788 -0.1267
  199HFI     F6 2875   1.065   1.888   0.123 -0.2385 -0.1498 -0.2506
  199HFI     H1 2876   1.104   1.533   0.289  0.5898 -0.2505 -0.2785
  199HFI     H2 2877   1.028   1.800   0.357 -3.1212 -0.0869  0.6344
  200HFI     O1 2878   1.282   3.264   2.710  0.0317  0.6992 -0.2385
  200HFI     C1 2879   1.387   3.266   2.814 -0.2706 -0.3872 -1.1543
  200HFI     C2 2880   1.465   3.402   2.813  0.4325  0.2495 -0.0375
  200HFI     F1 2881   1.549   3.412   2.702 -0.2013 -0.3383  0.1008
  200HFI     F2 2882   1.546   3.421   2.916 -0.2211  0.0391  0.4416
  200HFI     F3 2883   1.376   3.506   2.810 -1.0640  0.3688 -0.2987
  200HFI     C3 2884   1.486   3.142   2.817  0.5181 -0.4731  0.4447
  200HFI     F4 2885   1.417   3.031   2.794 -0.3256 -0.1343  0.3222
  200HFI     F5 2886   1.551   3.130   2.930  0.0281  0.3321 -0.1295
  200HFI     F6 2887   1.584   3.146   2.725  0.2460  0.0792 -0.5305
  200HFI     H1 2888   1.311   3.307   2.628  0.9034 -1.5409 -1.1397
  200HFI     H2 2889   1.339   3.273   2.912  3.0105  3.1492  0.3707
  201HFI     O1 2890   0.018   1.847   3.258  0.0494  0.0165  0.1417
  201HFI     C1 2891   0.149   1.847   3.334  0.0285  0.0758 -0.0714
  201HFI     C2 2892   0.145   1.903   3.482 -0.4648  0.8860  0.1826
  201HFI     F1 2893   0.089   1.811   3.566 -0.2218  0.5577  0.3997
  201HFI     F2 2894   0.078   2.017   3.486 -0.2829  0.1425  0.4847
  201HFI     F3 2895   0.268   1.939   3.528 -0.0203 -0.7257 -0.2667
  201HFI     C3 2896   0.257   1.916   3.237  0.4641 -1.3731 -0.4829
  201HFI     F4 2897   0.230   1.905   3.106  0.6367  0.2547  0.5857
  201HFI     F5 2898   0.382   1.874   3.272  0.1125 -0.1611  0.3362
  201HFI     F6 2899   0.249   2.047   3.265 -0.4119  0.3048 -0.0820
  201HFI     H1 2900   0.040   1.894   3.175  0.9207 -0.2629  0.2038
  201HFI     H2 2901   0.179   1.742   3.343  2.5099  0.9131  2.0074
  202HFI     O1 2902   2.078   3.277   2.915  0.7721 -0.1751  0.0420
  202HFI     C1 2903   2.031   3.390   2.836 -0.0759  0.3025 -0.1322
  202HFI     C2 2904   1.997   3.518   2.916  0.3522 -0.6649 -0.5619
  202HFI     F1 2905   1.975   3.630   2.847 -0.3649 -0.2171  0.4996
  202HFI     F2 2906   2.098   3.550   3.001  0.0357 -0.7724 -0.2496
  202HFI     F3 2907   1.891   3.500   2.998 -0.2535 -0.0876  0.0186
  202HFI     C3 2908   1.918   3.348   2.741 -0.1066  0.4226 -0.1569
  202HFI     F4 2909   1.872   3.449   2.658 -0.2234 -0.1337 -0.2170
  202HFI     F5 2910   1.822   3.294   2.811  0.3327  0.4500  0.0325
  202HFI     F6 2911   1.965   3.246   2.657  0.2608  0.0481 -0.1974
  202HFI     H1 2912   2.025   3.202   2.882 -2.2388  1.1092  1.7860
  202HFI     H2 2913   2.106   3.414   2.760 -0.9693 -0.5310 -1.2854
  203HFI     O1 2914   1.588   0.024   0.195  0.2290 -0.5608 -0.2849
  203HFI     C1 2915   1.491  -0.050   0.120 -0.9055 -0.0048  0.5361
  203HFI     C2 2916   1.567  -0.177   0.065  0.1242  0.0107  0.0551
  203HFI     F1 2917   1.619  -0.243   0.172  0.2251 -0.6913  0.0738
  203HFI     F2 2918   1.670  -0.149  -0.017  0.7779 -0.4767 -0.4230
  203HFI     F3 2919   1.489  -0.258   0.004  0.3356 -0.7530  0.2449
  203HFI     C3 2920   1.416   0.038   0.011 -0.1935 -0.1539 -0.1148
  203HFI     F4 2921   1.327  -0.033  -0.058  0.3066 -0.2482  0.7878
  203HFI     F5 2922   1.508   0.100  -0.067  0.6830  0.2871  0.0327
  203HFI     F6 2923   1.342   0.138   0.068 -0.1514  0.3051  0.2071
  203HFI     H1 2924   1.640   0.071   0.128  0.3010  0.5953  0.5682
  203HFI     H2 2925   1.410  -0.069   0.191 -0.7991 -0.6575  0.4870
  204HFI     O1 2926   0.411   3.165   2.828 -0.2931 -0.2564  0.3898
  204HFI     C1 2927   0.368   3.024   2.817  0.1331 -0.1177  0.0608
  204HFI     C2 2928   0.255   2.990   2.921 -1.1271  0.2414 -0.5415
  204HFI     F1 2929   0.299   2.993   3.053  0.0628 -0.0290 -0.2235
  204HFI     F2 2930   0.202   2.872   2.893 -0.0215  1.0261  0.5080
  204HFI     F3 2931   0.158   3.075   2.918  0.5457 -0.0449  0.2457
  204HFI     C3 2932   0.494   2.934   2.827  0.1029 -0.6271 -0.2685
  204HFI     F4 2933   0.468   2.800   2.821  0.3806  0.3355 -0.1293
  204HFI     F5 2934   0.557   2.960   2.943 -0.1765 -0.5742 -0.4666
  204HFI     F6 2935   0.573   2.962   2.726 -0.1963  0.8061 -0.3125
  204HFI     H1 2936   0.482   3.173   2.763 -0.2729 -0.5644  0.3743
  204HFI     H2 2937   0.324   3.000   2.719 -1.0970  0.0945  0.5559
  205HFI     O1 2938   2.600   3.194   2.703 -0.1279  0.0113 -0.7827
  205HFI     C1 2939   2.494   3.109   2.756  0.3489 -0.4376  0.0637
  205HFI     C2 2940   2.355   3.134   2.683  0.4707  0.1115 -0.4929
  205HFI     F1 2941   2.379   3.136   2.551 -0.3971  0.0390 -0.1542
  205HFI     F2 2942   2.303   3.254   2.709 -0.0911 -0.1227  0.1252
  205HFI     F3 2943   2.269   3.042   2.722 -0.2900  0.5809  0.4975
  205HFI     C3 2944   2.489   3.110   2.917  0.0780 -0.0346  0.4124
  205HFI     F4 2945   2.610   3.069   2.976 -0.1753  0.0783 -0.0312
  205HFI     F5 2946   2.392   3.036   2.981  0.3510 -0.5710 -0.0727
  205HFI     F6 2947   2.478   3.240   2.962 -0.0487 -0.0169  0.1683
  205HFI     H1 2948   2.559   3.226   2.621 -1.3228 -1.1459 -0.6507
  205HFI     H2 2949   2.521   3.006   2.729 -1.6038 -0.8636 -0.3663
  206HFI     O1 2950   0.791   2.312   2.963 -0.0723  0.0101  0.4751
  206HFI     C1 2951   0.845   2.413   2.871 -0.1103 -0.5722  0.4725
  206HFI     C2 2952   0.795   2.388   2.731 -0.3449 -0.2762  0.5354
  206HFI     F1 2953   0.870   2.285   2.665  0.2818 -0.0914  0.0494
  206HFI     F2 2954   0.814   2.499   2.661  0.1161  0.0237  0.2067
  206HFI     F3 2955   0.671   2.356   2.728  0.4468  0.1366  0.2908
  206HFI     C3 2956   1.006   2.425   2.877  0.4625 -0.6756 -0.4538
  206HFI     F4 2957   1.068   2.306   2.867  0.0053 -0.1549  0.3467
  206HFI     F5 2958   1.033   2.473   2.998 -0.3560 -0.0740  0.1450
  206HFI     F6 2959   1.063   2.512   2.797 -0.3204  0.0267 -0.5489
  206HFI     H1 2960   0.834   2.228   2.938  0.9043  0.3388  1.0174
  206HFI     H2 2961   0.804   2.510   2.904  3.2133  0.8232  0.7135
  207HFI     O1 2962   1.061   1.442   1.056  0.3328  0.6506 -0.0683
  207HFI     C1 2963   1.132   1.322   1.004 -0.3355 -0.8299 -0.2531
  207HFI     C2 2964   1.288   1.315   1.041 -0.4045  0.9251  0.3679
  207HFI     F1 2965   1.344   1.216   0.971 -0.3000 -0.2359  0.6133
  207HFI     F2 2966   1.312   1.289   1.168 -0.6170 -0.5029 -0.0947
  207HFI     F3 2967   1.348   1.428   1.012  0.3950  0.8566  0.4230
  207HFI     C3 2968   1.099   1.300   0.853  0.5775 -0.2851  0.4554
  207HFI     F4 2969   1.155   1.390   0.768 -0.0243  0.0761  0.1546
  207HFI     F5 2970   0.964   1.314   0.836 -0.0490  0.3215 -0.0738
  207HFI     F6 2971   1.145   1.171   0.804  0.2399  0.1704 -0.1196
  207HFI     H1 2972   1.024   1.483   0.976 -1.0807  0.4486  0.4736
  207HFI     H2 2973   1.096   1.234   1.059 -0.1156  0.0013  1.2499
  208HFI     O1 2974   3.075   0.810   2.371  0.1176  0.2863 -0.1705
  208HFI     C1 2975   2.968   0.851   2.282 -0.1511 -0.9746 -0.0508
  208HFI     C2 2976   2.928   0.995   2.291 -0.7127 -0.7460 -0.0422
  208HFI     F1 2977   2.865   1.015   2.405  0.5289  0.5589 -0.1391
  208HFI     F2 2978   2.850   1.026   2.190 -0.2102 -0.0643 -0.3258
  208HFI     F3 2979   3.043   1.068   2.298  0.3538  0.0649  0.0342
  208HFI     C3 2980   2.843   0.755   2.290  0.7089 -0.2525  0.0190
  208HFI     F4 2981   2.822   0.699   2.413 -0.1794 -0.4765 -0.1133
  208HFI     F5 2982   2.869   0.649   2.205  0.0769  0.0205 -0.8969
  208HFI     F6 2983   2.727   0.811   2.249  0.1298 -0.4273  0.2574
  208HFI     H1 2984   3.048   0.856   2.453  1.9037  1.8393 -0.4357
  208HFI     H2 2985   3.006   0.830   2.181 -1.1021  1.1621 -0.8948
  209HFI     O1 2986   0.269   0.905   2.339 -0.3929 -0.0733 -0.2136
  209HFI     C1 2987   0.262   1.041   2.268 -0.3225  0.4445  0.2557
  209HFI     C2 2988   0.372   1.136   2.322 -0.7355  0.1521  0.8035
  209HFI     F1 2989   0.377   1.245   2.244  0.1265 -0.2498  0.2991
  209HFI     F2 2990   0.491   1.081   2.309  0.4272 -0.4063  0.3926
  209HFI     F3 2991   0.357   1.168   2.446 -0.0945 -0.1714 -0.2768
  209HFI     C3 2992   0.117   1.080   2.282 -0.2601 -0.1045  0.4125
  209HFI     F4 2993   0.090   1.110   2.411  0.0889  0.0371 -0.0687
  209HFI     F5 2994   0.028   0.983   2.246 -0.3254  0.5265 -0.1820
  209HFI     F6 2995   0.093   1.183   2.205 -0.2583  0.1359 -0.0861
  209HFI     H1 2996   0.199   0.907   2.407 -0.6831 -0.4695 -0.4914
  209HFI     H2 2997   0.282   1.029   2.161  0.4133  2.4730  0.1418
  210HFI     O1 2998   0.060   0.456   2.489 -0.6822 -0.2328  0.2831
  210HFI     C1 2999  -0.054   0.510   2.407 -0.0840  0.0561 -0.3662
  210HFI     C2 3000  -0.097   0.402   2.299 -0.1798 -0.6297 -0.4343
  210HFI     F1 3001  -0.157   0.297   2.354  0.3211 -0.0333 -0.1996
  210HFI     F2 3002   0.017   0.365   2.229 -0.3283 -0.5599 -0.5616
  210HFI     F3 3003  -0.191   0.430   2.201  0.3337  0.4400 -0.0626
  210HFI     C3 3004  -0.016   0.644   2.333  0.2230 -0.3240  0.0239
  210HFI     F4 3005   0.078   0.631   2.241  0.0506  0.2165 -0.5229
  210HFI     F5 3006   0.023   0.734   2.420 -0.0068 -0.2077  0.4577
  210HFI     F6 3007  -0.124   0.690   2.264  0.2370  0.1337 -0.3927
  210HFI     H1 3008   0.037   0.465   2.583  1.2447 -0.3280  0.8023
  210HFI     H2 3009  -0.145   0.535   2.464 -0.4723 -1.5124 -0.2649
  211HFI     O1 3010   0.124   1.579   2.265 -0.2298 -0.2855  0.0850
  211HFI     C1 3011   0.096   1.489   2.373  0.1714 -0.2844 -0.2684
  211HFI     C2 3012  -0.052   1.486   2.414  0.1137  0.4671 -0.3025
  211HFI     F1 3013  -0.132   1.501   2.302  0.0508  0.7023 -0.2221
  211HFI     F2 3014  -0.078   1.584   2.499 -0.3321 -0.3070  0.0933
  211HFI     F3 3015  -0.079   1.366   2.463 -0.6449  0.0077  0.0155
  211HFI     C3 3016   0.197   1.507   2.494  0.3167 -0.4013  0.1218
  211HFI     F4 3017   0.320   1.528   2.456 -0.3455  0.3225  0.8305
  211HFI     F5 3018   0.197   1.403   2.576 -0.0000  0.0036 -0.3676
  211HFI     F6 3019   0.180   1.618   2.571 -0.0091 -0.1113 -0.5973
  211HFI     H1 3020   0.205   1.629   2.284 -0.7031  0.0284  1.3258
  211HFI     H2 3021   0.126   1.387   2.346  0.3192 -0.1586 -0.5818
  212HFI     O1 3022   3.276   2.503   3.428 -0.2825 -0.0572 -0.7629
  212HFI     C1 3023   3.383   2.425   3.368 -0.7392  0.0953  0.4174
  212HFI     C2 3024   3.333   2.315   3.263 -0.1088 -0.1348  0.0939
  212HFI     F1 3025   3.430   2.283   3.176 -0.1605 -0.4005  0.2565
  212HFI     F2 3026   3.231   2.368   3.190  0.2531  0.0705 -0.3281
  212HFI     F3 3027   3.291   2.197   3.320  0.3506  0.4248 -0.8062
  212HFI     C3 3028   3.478   2.373   3.478  0.3976  0.0291 -1.1303
  212HFI     F4 3029   3.413   2.304   3.577 -0.6441  0.2238 -0.4585
  212HFI     F5 3030   3.540   2.478   3.527 -0.0268 -0.2531 -0.0942
  212HFI     F6 3031   3.568   2.293   3.425 -0.5153 -0.0907  0.1973
  212HFI     H1 3032   3.197   2.493   3.373  0.2222  0.4428 -1.5852
  212HFI     H2 3033   3.447   2.492   3.310 -0.0019  0.4641  1.6295
  213HFI     O1 3034   2.706   1.117   3.711  0.4340 -0.1933  0.1117
  213HFI     C1 3035   2.816   1.031   3.669 -0.0590  0.3481 -0.5078
  213HFI     C2 3036   2.832   0.919   3.783  0.0580 -0.2557  0.0465
  213HFI     F1 3037   2.921   0.827   3.747 -0.4509 -0.0525 -0.1924
  213HFI     F2 3038   2.716   0.854   3.804  0.5134 -0.3163  0.4884
  213HFI     F3 3039   2.868   0.974   3.902  0.1427  0.3516  0.2703
  213HFI     C3 3040   2.949   1.112   3.653  0.3768 -0.5338 -0.1263
  213HFI     F4 3041   3.063   1.039   3.660 -0.0766  0.2279  0.1015
  213HFI     F5 3042   2.954   1.209   3.749 -0.1444 -0.0659 -0.1081
  213HFI     F6 3043   2.949   1.168   3.534 -0.5366 -0.2412 -0.1960
  213HFI     H1 3044   2.669   1.094   3.798  4.8694  0.0294  2.1976
  213HFI     H2 3045   2.794   0.981   3.573 -0.2790 -0.0956 -0.2283
  214HFI     O1 3046   1.095   0.961   1.006 -0.0744  0.5281 -0.0525
  214HFI     C1 3047   1.104   0.834   1.083 -0.0948  0.5919 -0.7701
  214HFI     C2 3048   1.241   0.765   1.075 -0.1862 -0.3778  0.2399
  214HFI     F1 3049   1.269   0.719   0.949 -0.1159  0.1140  0.0645
  214HFI     F2 3050   1.256   0.664   1.158  0.4683  0.2001 -0.4695
  214HFI     F3 3051   1.336   0.855   1.109  0.1923  0.0571 -0.6095
  214HFI     C3 3052   0.989   0.750   1.035  0.1949  0.5377  0.4083
  214HFI     F4 3053   1.009   0.706   0.911  0.5175  0.2586 -0.0466
  214HFI     F5 3054   0.872   0.816   1.036 -0.3916 -0.4419 -0.4438
  214HFI     F6 3055   0.960   0.641   1.105  0.2268  0.1094  0.5355
  214HFI     H1 3056   1.139   0.946   0.921 -0.2384 -1.2463  0.1672
  214HFI     H2 3057   1.072   0.862   1.184 -2.1791 -1.8470 -0.7150
  215HFI     O1 3058   0.659   2.446   3.327  0.4359  0.3260  0.8522
  215HFI     C1 3059   0.600   2.582   3.333  0.7190  0.3480  0.0030
  215HFI     C2 3060   0.449   2.589   3.290  0.4948 -0.5167  0.2646
  215HFI     F1 3061   0.435   2.607   3.156 -0.0304  0.2128  0.2489
  215HFI     F2 3062   0.377   2.694   3.342 -0.2225  0.1959 -0.4198
  215HFI     F3 3063   0.389   2.468   3.319  0.3447  0.2409  0.4557
  215HFI     C3 3064   0.689   2.695   3.253  0.9119 -0.1425 -0.3971
  215HFI     F4 3065   0.624   2.811   3.240  0.0486 -0.4862  0.0235
  215HFI     F5 3066   0.735   2.646   3.130  0.4579  0.6340  0.0756
  215HFI     F6 3067   0.796   2.722   3.326 -0.6337  0.4487 -0.1703
  215HFI     H1 3068   0.607   2.405   3.256 -0.4096 -0.8965  2.1670
  215HFI     H2 3069   0.594   2.608   3.439  1.4797  0.3038  0.0639
  216HFI     O1 3070   2.944   0.423   3.031  0.4302  0.3694 -0.0029
  216HFI     C1 3071   3.074   0.444   2.973 -0.0849 -0.1458  0.0926
  216HFI     C2 3072   3.070   0.406   2.816  0.1634 -0.0827  0.5306
  216HFI     F1 3073   3.178   0.460   2.743  0.2658  0.4035  0.3596
  216HFI     F2 3074   2.957   0.455   2.766  0.3108 -0.3141 -0.4214
  216HFI     F3 3075   3.069   0.272   2.790  0.3829 -0.4509  0.2376
  216HFI     C3 3076   3.191   0.379   3.053 -0.4709  0.4825  1.4732
  216HFI     F4 3077   3.181   0.240   3.049  0.0597 -0.2860 -0.0796
  216HFI     F5 3078   3.197   0.424   3.181 -0.3667  0.9971 -0.1199
  216HFI     F6 3079   3.306   0.398   2.990 -0.1081  0.1605  0.0554
  216HFI     H1 3080   2.899   0.349   2.986  0.3447  0.4615 -0.0704
  216HFI     H2 3081   3.092   0.551   2.983 -3.9820  0.5121  0.7276
  217HFI     O1 3082   3.243   2.879   2.921 -0.6566 -0.0540  0.6554
  217HFI     C1 3083   3.175   2.749   2.892 -0.2779  0.4318 -0.3267
  217HFI     C2 3084   3.023   2.777   2.885 -0.3556 -0.7603  0.3154
  217HFI     F1 3085   2.989   2.857   2.775  0.1215 -0.1012 -0.5538
  217HFI     F2 3086   2.974   2.834   2.999  0.0472 -0.0765  0.0028
  217HFI     F3 3087   2.952   2.665   2.856  0.1162 -0.2288 -0.4184
  217HFI     C3 3088   3.212   2.643   3.000 -0.8501  0.6543  0.0997
  217HFI     F4 3089   3.346   2.620   3.002 -0.2002  0.5977 -0.6360
  217HFI     F5 3090   3.158   2.519   2.971 -0.1572 -0.3726  0.5480
  217HFI     F6 3091   3.169   2.672   3.125 -0.3095 -0.1242 -0.1316
  217HFI     H1 3092   3.329   2.900   2.881 -0.5080  1.5452  1.7306
  217HFI     H2 3093   3.200   2.708   2.793 -0.0383  0.2097 -0.1750
  218HFI     O1 3094   3.002   2.642   1.212 -0.6613  0.1864 -0.3503
  218HFI     C1 3095   3.122   2.605   1.134 -0.2740 -0.1367  0.3019
  218HFI     C2 3096   3.211   2.731   1.106 -0.0020 -0.3015  0.7689
  218HFI     F1 3097   3.131   2.831   1.063  0.1969 -0.2780  0.5394
  218HFI     F2 3098   3.309   2.711   1.016 -0.1547 -0.2506  0.0793
  218HFI     F3 3099   3.264   2.769   1.226  0.2558  0.0290 -0.4516
  218HFI     C3 3100   3.089   2.512   1.010 -0.2008  0.6026 -0.1380
  218HFI     F4 3101   3.203   2.456   0.962 -0.2633  0.7211 -0.4721
  218HFI     F5 3102   3.025   2.583   0.916 -0.4947  0.5746  1.0308
  218HFI     F6 3103   3.008   2.405   1.051 -0.6996 -0.2647 -0.9948
  218HFI     H1 3104   2.937   2.682   1.152  0.5086  1.7966 -0.6007
  218HFI     H2 3105   3.186   2.554   1.207 -0.4474 -1.8406 -0.7051
  219HFI     O1 3106   0.293   3.284   1.175  0.3147  0.6706 -0.1247
  219HFI     C1 3107   0.389   3.184   1.122 -0.0794 -0.3073 -0.0348
  219HFI     C2 3108   0.534   3.245   1.140 -0.1767  0.1881 -0.1281
  219HFI     F1 3109   0.541   3.361   1.076 -0.3110  0.3388  0.4364
  219HFI     F2 3110   0.631   3.164   1.092 -0.3919  0.2643 -0.1309
  219HFI     F3 3111   0.560   3.265   1.270  0.1102 -0.2948 -0.0916
  219HFI     C3 3112   0.349   3.147   0.978  0.0303 -0.8052 -0.4555
  219HFI     F4 3113   0.445   3.097   0.901 -0.6725  0.1390 -0.2371
  219HFI     F5 3114   0.308   3.265   0.911  0.2938 -0.5095  0.4046
  219HFI     F6 3115   0.242   3.067   0.973  0.0937  0.4196  0.0643
  219HFI     H1 3116   0.273   3.350   1.107  0.2216  2.7326  1.8088
  219HFI     H2 3117   0.381   3.091   1.179  2.6048 -0.3654  0.3092
  220HFI     O1 3118   2.266   1.963   2.281 -0.2712  0.1147  0.2100
  220HFI     C1 3119   2.270   1.815   2.265 -0.2200 -0.3469  0.7209
  220HFI     C2 3120   2.119   1.757   2.282 -0.0862  0.4116 -0.8148
  220HFI     F1 3121   2.021   1.838   2.224  0.0237 -0.1287 -0.7612
  220HFI     F2 3122   2.086   1.752   2.415 -0.5687 -0.1957  0.1294
  220HFI     F3 3123   2.095   1.638   2.223  0.4554 -0.6131  0.1164
  220HFI     C3 3124   2.383   1.751   2.356  0.1420 -0.3693 -0.4447
  220HFI     F4 3125   2.506   1.796   2.326  0.1119  0.3775 -0.1762
  220HFI     F5 3126   2.370   1.621   2.329  0.0974  0.0065 -0.5475
  220HFI     F6 3127   2.365   1.766   2.489  0.4197 -0.4939 -0.2705
  220HFI     H1 3128   2.175   1.994   2.265 -1.4430 -2.0481  2.3796
  220HFI     H2 3129   2.298   1.789   2.163 -2.0665 -1.1153  0.3880
  221HFI     O1 3130   1.619   1.950   2.835 -0.1432 -0.0987 -0.0208
  221HFI     C1 3131   1.498   1.878   2.872 -0.8328 -0.2519  0.4836
  221HFI     C2 3132   1.479   1.751   2.789  0.5027  0.1413 -0.5854
  221HFI     F1 3133   1.590   1.677   2.794 -0.2880  0.4139  0.3417
  221HFI     F2 3134   1.461   1.777   2.655 -0.1454 -0.3687  0.0687
  221HFI     F3 3135   1.375   1.675   2.840  0.0120 -0.5514 -0.7134
  221HFI     C3 3136   1.372   1.962   2.873  0.2176 -1.0477 -0.4914
  221HFI     F4 3137   1.390   2.086   2.930 -0.6043 -0.1264 -0.2431
  221HFI     F5 3138   1.259   1.905   2.930 -0.4892 -0.2132 -0.3622
  221HFI     F6 3139   1.336   2.003   2.747 -0.3414  0.1457  0.2072
  221HFI     H1 3140   1.646   1.908   2.751  0.0091 -2.5411  1.1982
  221HFI     H2 3141   1.502   1.857   2.979 -1.0722  2.6190  1.0908
  222HFI     O1 3142   2.148   2.703   2.339  0.1018 -0.5239 -0.1423
  222HFI     C1 3143   2.083   2.809   2.266  0.5048  0.3719 -0.7782
  222HFI     C2 3144   2.163   2.946   2.276 -0.5012 -1.4665  0.2939
  222HFI     F1 3145   2.096   3.046   2.216 -0.9792  0.5100  0.1142
  222HFI     F2 3146   2.268   2.917   2.204 -0.0591  0.5756 -0.2711
  222HFI     F3 3147   2.195   2.984   2.402 -0.2824 -0.0921  0.4120
  222HFI     C3 3148   1.932   2.817   2.311  0.5297  0.2748  0.3969
  222HFI     F4 3149   1.863   2.903   2.230  0.0080 -0.1306 -0.1529
  222HFI     F5 3150   1.920   2.868   2.434  0.2805  0.1995 -0.2057
  222HFI     F6 3151   1.874   2.695   2.310  0.4873  0.2997 -0.2561
  222HFI     H1 3152   2.077   2.638   2.357 -0.1733 -0.3713 -0.6669
  222HFI     H2 3153   2.075   2.771   2.164 -1.1402 -1.5520  0.0145
  223HFI     O1 3154   1.806   2.076   3.536  0.0171 -0.8049 -0.6847
  223HFI     C1 3155   1.765   2.073   3.685  0.2048 -0.3759  0.0270
  223HFI     C2 3156   1.834   1.945   3.756  0.3940 -0.3873  0.1089
  223HFI     F1 3157   1.805   1.836   3.681 -0.5379 -1.0394 -0.0739
  223HFI     F2 3158   1.786   1.925   3.886  0.1873  0.4243  0.0587
  223HFI     F3 3159   1.967   1.965   3.765  0.4758 -0.4780  0.2963
  223HFI     C3 3160   1.609   2.075   3.691  0.0458 -0.1307  0.3417
  223HFI     F4 3161   1.559   2.170   3.616  0.2317 -0.4771  0.0315
  223HFI     F5 3162   1.582   2.113   3.820  0.0817  0.4998 -0.0123
  223HFI     F6 3163   1.543   1.957   3.668  0.1398  0.0881  0.1485
  223HFI     H1 3164   1.771   2.154   3.489  0.2875 -0.9405 -1.1091
  223HFI     H2 3165   1.791   2.163   3.743  1.4132  0.5351 -1.8545
  224HFI     O1 3166   2.278   2.193   0.881 -0.0519  0.4347  0.2004
  224HFI     C1 3167   2.198   2.123   0.978 -0.8884  0.0956  0.1964
  224HFI     C2 3168   2.073   2.213   1.022  0.3579 -0.0720  0.5316
  224HFI     F1 3169   2.001   2.254   0.914  0.3207 -0.4162 -0.1878
  224HFI     F2 3170   2.118   2.327   1.079 -0.3548  0.5806 -0.3833
  224HFI     F3 3171   1.987   2.143   1.102  0.8703  0.2902 -0.2489
  224HFI     C3 3172   2.291   2.076   1.092 -0.8471 -0.5003  0.1240
  224HFI     F4 3173   2.361   2.180   1.144 -0.4116 -0.6667  0.2251
  224HFI     F5 3174   2.376   1.974   1.054  0.4966  0.0679  0.3722
  224HFI     F6 3175   2.213   2.027   1.192  0.1567  0.0796 -0.0274
  224HFI     H1 3176   2.302   2.283   0.907  2.3978 -0.7506  2.3634
  224HFI     H2 3177   2.163   2.027   0.939 -1.3535  0.1038  0.5850
  225HFI     O1 3178   2.336   1.245   3.605 -0.6367 -0.5300 -0.5668
  225HFI     C1 3179   2.221   1.157   3.629 -0.5143  0.4614 -0.4901
  225HFI     C2 3180   2.144   1.195   3.762 -0.1267  0.0734 -0.1975
  225HFI     F1 3181   2.082   1.320   3.749  0.0926  0.0972 -0.2361
  225HFI     F2 3182   2.224   1.203   3.867  0.0722  0.0112 -0.0226
  225HFI     F3 3183   2.044   1.106   3.790  0.0939 -0.2753  0.4856
  225HFI     C3 3184   2.267   1.012   3.626  0.1350  0.3952 -0.0861
  225HFI     F4 3185   2.328   0.984   3.510  0.0169 -0.4566  0.1854
  225HFI     F5 3186   2.166   0.931   3.643  0.9325 -0.7945 -0.5471
  225HFI     F6 3187   2.360   0.989   3.725  0.2550  0.0505  0.1274
  225HFI     H1 3188   2.306   1.338   3.602 -1.7159 -0.8398  0.2517
  225HFI     H2 3189   2.153   1.171   3.544 -0.6218 -1.9848 -0.8584
  226HFI     O1 3190   0.263   2.753   2.463  0.2904  0.5745  0.1528
  226HFI     C1 3191   0.114   2.761   2.428  0.2283 -0.0543 -0.2081
  226HFI     C2 3192   0.081   2.774   2.276  1.0827 -0.1805 -0.3190
  226HFI     F1 3193   0.113   2.663   2.214  0.6491  0.1294  0.0820
  226HFI     F2 3194   0.150   2.868   2.221 -0.5641 -0.6192 -0.1687
  226HFI     F3 3195  -0.051   2.794   2.254 -0.1332 -0.0595 -0.7595
  226HFI     C3 3196   0.050   2.872   2.517  0.0573 -0.6949 -0.9344
  226HFI     F4 3197  -0.073   2.904   2.474 -0.2582 -0.1169 -0.5119
  226HFI     F5 3198   0.129   2.976   2.504 -0.0693 -0.2266 -0.3554
  226HFI     F6 3199   0.031   2.842   2.650  0.0493  0.5302  0.3245
  226HFI     H1 3200   0.300   2.843   2.454 -0.8132  0.9503 -0.8365
  226HFI     H2 3201   0.083   2.664   2.471  2.6981 -0.8915 -0.2229
  227HFI     O1 3202   1.409   0.863   3.489  0.1939 -0.5890 -0.3504
  227HFI     C1 3203   1.452   0.869   3.351 -0.5106  0.8927  0.6337
  227HFI     C2 3204   1.436   0.727   3.296  0.6096  0.2919  1.0417
  227HFI     F1 3205   1.519   0.640   3.347 -0.0285  0.2200 -0.6497
  227HFI     F2 3206   1.445   0.721   3.160  0.1062 -0.2999 -0.2931
  227HFI     F3 3207   1.312   0.688   3.319 -0.0007 -0.0455  0.3002
  227HFI     C3 3208   1.587   0.925   3.330  0.4629  0.5305 -0.3615
  227HFI     F4 3209   1.682   0.851   3.380 -0.3738  0.0985 -0.3532
  227HFI     F5 3210   1.599   1.048   3.391  0.5947  0.7289  0.1872
  227HFI     F6 3211   1.604   0.940   3.203 -0.0586  0.4197  0.3989
  227HFI     H1 3212   1.438   0.775   3.519 -0.2490 -0.2020  1.2793
  227HFI     H2 3213   1.380   0.934   3.300 -0.3472  1.7091  1.4221
  228HFI     O1 3214   2.417   1.346   2.498 -0.0861 -0.6460  0.6935
  228HFI     C1 3215   2.370   1.242   2.403 -0.3964  0.0703  0.4810
  228HFI     C2 3216   2.480   1.156   2.339  0.1828  0.5264 -0.0026
  228HFI     F1 3217   2.576   1.113   2.420 -0.4419 -0.2499 -0.2187
  228HFI     F2 3218   2.546   1.228   2.244 -0.4322 -0.0014 -0.1355
  228HFI     F3 3219   2.429   1.050   2.287 -0.6929  0.3843 -0.2905
  228HFI     C3 3220   2.264   1.297   2.301  0.8752  0.1176  0.5404
  228HFI     F4 3221   2.154   1.343   2.356 -0.6068 -0.0893 -0.2259
  228HFI     F5 3222   2.215   1.194   2.227  0.3325 -0.3611 -0.2766
  228HFI     F6 3223   2.320   1.392   2.219 -0.1524 -0.5616  0.0267
  228HFI     H1 3224   2.482   1.398   2.448 -0.0011 -2.2319 -0.9003
  228HFI     H2 3225   2.313   1.174   2.468 -0.4286  0.6154  1.0306
   3.40320   3.43847   3.80000
