HFIP comparator n4
 3225
    1GR      C1    1   0.000   0.000   1.900  0.0000  0.0000  0.0000
    1GR      C2    2   0.142   0.000   1.900  0.0000  0.0000  0.0000
    1GR      C3    3   0.213   0.123   1.900  0.0000  0.0000  0.0000
    1GR      C4    4   0.354   0.123   1.900  0.0000  0.0000  0.0000
    1GR      C5    5   0.000   0.246   1.900  0.0000  0.0000  0.0000
    1GR      C6    6   0.142   0.246   1.900  0.0000  0.0000  0.0000
    1GR      C7    7   0.213   0.368   1.900  0.0000  0.0000  0.0000
    1GR      C8    8   0.354   0.368   1.900  0.0000  0.0000  0.0000
    1GR      C9    9   0.000   0.491   1.900  0.0000  0.0000  0.0000
    1GR     C10   10   0.142   0.491   1.900  0.0000  0.0000  0.0000
    1GR     C11   11   0.213   0.614   1.900  0.0000  0.0000  0.0000
    1GR     C12   12   0.354   0.614   1.900  0.0000  0.0000  0.0000
    1GR     C13   13   0.000   0.737   1.900  0.0000  0.0000  0.0000
    1GR     C14   14   0.142   0.737   1.900  0.0000  0.0000  0.0000
    1GR     C15   15   0.213   0.860   1.900  0.0000  0.0000  0.0000
    1GR     C16   16   0.354   0.860   1.900  0.0000  0.0000  0.0000
    1GR     C17   17   0.000   0.982   1.900  0.0000  0.0000  0.0000
    1GR     C18   18   0.142   0.982   1.900  0.0000  0.0000  0.0000
    1GR     C19   19   0.213   1.105   1.900  0.0000  0.0000  0.0000
    1GR     C20   20   0.354   1.105   1.900  0.0000  0.0000  0.0000
    1GR     C21   21   0.000   1.228   1.900  0.0000  0.0000  0.0000
    1GR     C22   22   0.142   1.228   1.900  0.0000  0.0000  0.0000
    1GR     C23   23   0.213   1.351   1.900  0.0000  0.0000  0.0000
    1GR     C24   24   0.354   1.351   1.900  0.0000  0.0000  0.0000
    1GR     C25   25   0.000   1.474   1.900  0.0000  0.0000  0.0000
    1GR     C26   26   0.142   1.474   1.900  0.0000  0.0000  0.0000
    1GR     C27   27   0.213   1.596   1.900  0.0000  0.0000  0.0000
    1GR     C28   28   0.354   1.596   1.900  0.0000  0.0000  0.0000
    1GR     C29   29   0.000   1.719   1.900  0.0000  0.0000  0.0000
    1GR     C30   30   0.142   1.719   1.900  0.0000  0.0000  0.0000
    1GR     C31   31   0.213   1.842   1.900  0.0000  0.0000  0.0000
    1GR     C32   32   0.354   1.842   1.900  0.0000  0.0000  0.0000
    1GR     C33   33   0.000   1.965   1.900  0.0000  0.0000  0.0000
    1GR     C34   34   0.142   1.965   1.900  0.0000  0.0000  0.0000
    1GR     C35   35   0.213   2.088   1.900  0.0000  0.0000  0.0000
    1GR     C36   36   0.354   2.088   1.900  0.0000  0.0000  0.0000
    1GR     C37   37   0.000   2.210   1.900  0.0000  0.0000  0.0000
    1GR     C38   38   0.142   2.210   1.900  0.0000  0.0000  0.0000
    1GR     C39   39   0.213   2.333   1.900  0.0000  0.0000  0.0000
    1GR     C40   40   0.354   2.333   1.900  0.0000  0.0000  0.0000
    1GR     C41   41   0.000   2.456   1.900  0.0000  0.0000  0.0000
    1GR     C42   42   0.142   2.456   1.900  0.0000  0.0000  0.0000
    1GR     C43   43   0.213   2.579   1.900  0.0000  0.0000  0.0000
    1GR     C44   44   0.354   2.579   1.900  0.0000  0.0000  0.0000
    1GR     C45   45   0.000   2.702   1.900  0.0000  0.0000  0.0000
    1GR     C46   46   0.142   2.702   1.900  0.0000  0.0000  0.0000
    1GR     C47   47   0.213   2.824   1.900  0.0000  0.0000  0.0000
    1GR     C48   48   0.354   2.824   1.900  0.0000  0.0000  0.0000
    1GR     C49   49   0.000   2.947   1.900  0.0000  0.0000  0.0000
    1GR     C50   50   0.142   2.947   1.900  0.0000  0.0000  0.0000
    1GR     C51   51   0.213   3.070   1.900  0.0000  0.0000  0.0000
    1GR     C52   52   0.354   3.070   1.900  0.0000  0.0000  0.0000
    1GR     C53   53   0.000   3.193   1.900  0.0000  0.0000  0.0000
    1GR     C54   54   0.142   3.193   1.900  0.0000  0.0000  0.0000
    1GR     C55   55   0.213   3.316   1.900  0.0000  0.0000  0.0000
    1GR     C56   56   0.354   3.316   1.900  0.0000  0.0000  0.0000
    1GR     C57   57   0.425   0.000   1.900  0.0000  0.0000  0.0000
    1GR     C58   58   0.567   0.000   1.900  0.0000  0.0000  0.0000
    1GR     C59   59   0.638   0.123   1.900  0.0000  0.0000  0.0000
    1GR     C60   60   0.780   0.123   1.900  0.0000  0.0000  0.0000
    1GR     C61   61   0.425   0.246   1.900  0.0000  0.0000  0.0000
    1GR     C62   62   0.567   0.246   1.900  0.0000  0.0000  0.0000
    1GR     C63   63   0.638   0.368   1.900  0.0000  0.0000  0.0000
    1GR     C64   64   0.780   0.368   1.900  0.0000  0.0000  0.0000
    1GR     C65   65   0.425   0.491   1.900  0.0000  0.0000  0.0000
    1GR     C66   66   0.567   0.491   1.900  0.0000  0.0000  0.0000
    1GR     C67   67   0.638   0.614   1.900  0.0000  0.0000  0.0000
    1GR     C68   68   0.780   0.614   1.900  0.0000  0.0000  0.0000
    1GR     C69   69   0.425   0.737   1.900  0.0000  0.0000  0.0000
    1GR     C70   70   0.567   0.737   1.900  0.0000  0.0000  0.0000
    1GR     C71   71   0.638   0.860   1.900  0.0000  0.0000  0.0000
    1GR     C72   72   0.780   0.860   1.900  0.0000  0.0000  0.0000
    1GR     C73   73   0.425   0.982   1.900  0.0000  0.0000  0.0000
    1GR     C74   74   0.567   0.982   1.900  0.0000  0.0000  0.0000
    1GR     C75   75   0.638   1.105   1.900  0.0000  0.0000  0.0000
    1GR     C76   76   0.780   1.105   1.900  0.0000  0.0000  0.0000
    1GR     C77   77   0.425   1.228   1.900  0.0000  0.0000  0.0000
    1GR     C78   78   0.567   1.228   1.900  0.0000  0.0000  0.0000
    1GR     C79   79   0.638   1.351   1.900  0.0000  0.0000  0.0000
    1GR     C80   80   0.780   1.351   1.900  0.0000  0.0000  0.0000
    1GR     C81   81   0.425   1.474   1.900  0.0000  0.0000  0.0000
    1GR     C82   82   0.567   1.474   1.900  0.0000  0.0000  0.0000
    1GR     C83   83   0.638   1.596   1.900  0.0000  0.0000  0.0000
    1GR     C84   84   0.780   1.596   1.900  0.0000  0.0000  0.0000
    1GR     C85   85   0.425   1.719   1.900  0.0000  0.0000  0.0000
    1GR     C86   86   0.567   1.719   1.900  0.0000  0.0000  0.0000
    1GR     C87   87   0.638   1.842   1.900  0.0000  0.0000  0.0000
    1GR     C88   88   0.780   1.842   1.900  0.0000  0.0000  0.0000
    1GR     C89   89   0.425   1.965   1.900  0.0000  0.0000  0.0000
    1GR     C90   90   0.567   1.965   1.900  0.0000  0.0000  0.0000
    1GR     C91   91   0.638   2.088   1.900  0.0000  0.0000  0.0000
    1GR     C92   92   0.780   2.088   1.900  0.0000  0.0000  0.0000
    1GR     C93   93   0.425   2.210   1.900  0.0000  0.0000  0.0000
    1GR     C94   94   0.567   2.210   1.900  0.0000  0.0000  0.0000
    1GR     C95   95   0.638   2.333   1.900  0.0000  0.0000  0.0000
    1GR     C96   96   0.780   2.333   1.900  0.0000  0.0000  0.0000
    1GR     C97   97   0.425   2.456   1.900  0.0000  0.0000  0.0000
    1GR     C98   98   0.567   2.456   1.900  0.0000  0.0000  0.0000
    1GR     C99   99   0.638   2.579   1.900  0.0000  0.0000  0.0000
    1GR    C100  100   0.780   2.579   1.900  0.0000  0.0000  0.0000
    1GR    C101  101   0.425   2.702   1.900  0.0000  0.0000  0.0000
    1GR    C102  102   0.567   2.702   1.900  0.0000  0.0000  0.0000
    1GR    C103  103   0.638   2.824   1.900  0.0000  0.0000  0.0000
    1GR    C104  104   0.780   2.824   1.900  0.0000  0.0000  0.0000
    1GR    C105  105   0.425   2.947   1.900  0.0000  0.0000  0.0000
    1GR    C106  106   0.567   2.947   1.900  0.0000  0.0000  0.0000
    1GR    C107  107   0.638   3.070   1.900  0.0000  0.0000  0.0000
    1GR    C108  108   0.780   3.070   1.900  0.0000  0.0000  0.0000
    1GR    C109  109   0.425   3.193   1.900  0.0000  0.0000  0.0000
    1GR    C110  110   0.567   3.193   1.900  0.0000  0.0000  0.0000
    1GR    C111  111   0.638   3.316   1.900  0.0000  0.0000  0.0000
    1GR    C112  112   0.780   3.316   1.900  0.0000  0.0000  0.0000
    1GR    C113  113   0.851   0.000   1.900  0.0000  0.0000  0.0000
    1GR    C114  114   0.993   0.000   1.900  0.0000  0.0000  0.0000
    1GR    C115  115   1.064   0.123   1.900  0.0000  0.0000  0.0000
    1GR    C116  116   1.205   0.123   1.900  0.0000  0.0000  0.0000
    1GR    C117  117   0.851   0.246   1.900  0.0000  0.0000  0.0000
    1GR    C118  118   0.993   0.246   1.900  0.0000  0.0000  0.0000
    1GR    C119  119   1.064   0.368   1.900  0.0000  0.0000  0.0000
    1GR    C120  120   1.205   0.368   1.900  0.0000  0.0000  0.0000
    1GR    C121  121   0.851   0.491   1.900  0.0000  0.0000  0.0000
    1GR    C122  122   0.993   0.491   1.900  0.0000  0.0000  0.0000
    1GR    C123  123   1.064   0.614   1.900  0.0000  0.0000  0.0000
    1GR    C124  124   1.205   0.614   1.900  0.0000  0.0000  0.0000
    1GR    C125  125   0.851   0.737   1.900  0.0000  0.0000  0.0000
    1GR    C126  126   0.993   0.737   1.900  0.0000  0.0000  0.0000
    1GR    C127  127   1.064   0.860   1.900  0.0000  0.0000  0.0000
    1GR    C128  128   1.205   0.860   1.900  0.0000  0.0000  0.0000
    1GR    C129  129   0.851   0.982   1.900  0.0000  0.0000  0.0000
    1GR    C130  130   0.993   0.982   1.900  0.0000  0.0000  0.0000
    1GR    C131  131   1.064   1.105   1.900  0.0000  0.0000  0.0000
    1GR    C132  132   1.205   1.105   1.900  0.0000  0.0000  0.0000
    1GR    C133  133   0.851   1.228   1.900  0.0000  0.0000  0.0000
    1GR    C134  134   0.993   1.228   1.900  0.0000  0.0000  0.0000
    1GR    C135  135   1.064   1.351   1.900  0.0000  0.0000  0.0000
    1GR    C136  136   1.205   1.351   1.900  0.0000  0.0000  0.0000
    1GR    C137  137   0.851   1.474   1.900  0.0000  0.0000  0.0000
    1GR    C138  138   0.993   1.474   1.900  0.0000  0.0000  0.0000
    1GR    C139  139   1.064   1.596   1.900  0.0000  0.0000  0.0000
    1GR    C140  140   1.205   1.596   1.900  0.0000  0.0000  0.0000
    1GR    C141  141   0.851   1.719   1.900  0.0000  0.0000  0.0000
    1GR    C142  142   0.993   1.719   1.900  0.0000  0.0000  0.0000
    1GR    C143  143   1.064   1.842   1.900  0.0000  0.0000  0.0000
    1GR    C144  144   1.205   1.842   1.900  0.0000  0.0000  0.0000
    1GR    C145  145   0.851   1.965   1.900  0.0000  0.0000  0.0000
    1GR    C146  146   0.993   1.965   1.900  0.0000  0.0000  0.0000
    1GR    C147  147   1.064   2.088   1.900  0.0000  0.0000  0.0000
    1GR    C148  148   1.205   2.088   1.900  0.0000  0.0000  0.0000
    1GR    C149  149   0.851   2.210   1.900  0.0000  0.0000  0.0000
    1GR    C150  150   0.993   2.210   1.900  0.0000  0.0000  0.0000
    1GR    C151  151   1.064   2.333   1.900  0.0000  0.0000  0.0000
    1GR    C152  152   1.205   2.333   1.900  0.0000  0.0000  0.0000
    1GR    C153  153   0.851   2.456   1.900  0.0000  0.0000  0.0000
    1GR    C154  154   0.993   2.456   1.900  0.0000  0.0000  0.0000
    1GR    C155  155   1.064   2.579   1.900  0.0000  0.0000  0.0000
    1GR    C156  156   1.205   2.579   1.900  0.0000  0.0000  0.0000
    1GR    C157  157   0.851   2.702   1.900  0.0000  0.0000  0.0000
    1GR    C158  158   0.993   2.702   1.900  0.0000  0.0000  0.0000
    1GR    C159  159   1.064   2.824   1.900  0.0000  0.0000  0.0000
    1GR    C160  160   1.205   2.824   1.900  0.0000  0.0000  0.0000
    1GR    C161  161   0.851   2.947   1.900  0.0000  0.0000  0.0000
    1GR    C162  162   0.993   2.947   1.900  0.0000  0.0000  0.0000
    1GR    C163  163   1.064   3.070   1.900  0.0000  0.0000  0.0000
    1GR    C164  164   1.205   3.070   1.900  0.0000  0.0000  0.0000
    1GR    C165  165   0.851   3.193   1.900  0.0000  0.0000  0.0000
    1GR    C166  166   0.993   3.193   1.900  0.0000  0.0000  0.0000
    1GR    C167  167   1.064   3.316   1.900  0.0000  0.0000  0.0000
    1GR    C168  168   1.205   3.316   1.900  0.0000  0.0000  0.0000
    1GR    C169  169   1.276   0.000   1.900  0.0000  0.0000  0.0000
    1GR    C170  170   1.418   0.000   1.900  0.0000  0.0000  0.0000
    1GR    C171  171   1.489   0.123   1.900  0.0000  0.0000  0.0000
    1GR    C172  172   1.631   0.123   1.900  0.0000  0.0000  0.0000
    1GR    C173  173   1.276   0.246   1.900  0.0000  0.0000  0.0000
    1GR    C174  174   1.418   0.246   1.900  0.0000  0.0000  0.0000
    1GR    C175  175   1.489   0.368   1.900  0.0000  0.0000  0.0000
    1GR    C176  176   1.631   0.368   1.900  0.0000  0.0000  0.0000
    1GR    C177  177   1.276   0.491   1.900  0.0000  0.0000  0.0000
    1GR    C178  178   1.418   0.491   1.900  0.0000  0.0000  0.0000
    1GR    C179  179   1.489   0.614   1.900  0.0000  0.0000  0.0000
    1GR    C180  180   1.631   0.614   1.900  0.0000  0.0000  0.0000
    1GR    C181  181   1.276   0.737   1.900  0.0000  0.0000  0.0000
    1GR    C182  182   1.418   0.737   1.900  0.0000  0.0000  0.0000
    1GR    C183  183   1.489   0.860   1.900  0.0000  0.0000  0.0000
    1GR    C184  184   1.631   0.860   1.900  0.0000  0.0000  0.0000
    1GR    C185  185   1.276   0.982   1.900  0.0000  0.0000  0.0000
    1GR    C186  186   1.418   0.982   1.900  0.0000  0.0000  0.0000
    1GR    C187  187   1.489   1.105   1.900  0.0000  0.0000  0.0000
    1GR    C188  188   1.631   1.105   1.900  0.0000  0.0000  0.0000
    1GR    C189  189   1.276   1.228   1.900  0.0000  0.0000  0.0000
    1GR    C190  190   1.418   1.228   1.900  0.0000  0.0000  0.0000
    1GR    C191  191   1.489   1.351   1.900  0.0000  0.0000  0.0000
    1GR    C192  192   1.631   1.351   1.900  0.0000  0.0000  0.0000
    1GR    C193  193   1.276   1.474   1.900  0.0000  0.0000  0.0000
    1GR    C194  194   1.418   1.474   1.900  0.0000  0.0000  0.0000
    1GR    C195  195   1.489   1.596   1.900  0.0000  0.0000  0.0000
    1GR    C196  196   1.631   1.596   1.900  0.0000  0.0000  0.0000
    1GR    C197  197   1.276   1.719   1.900  0.0000  0.0000  0.0000
    1GR    C198  198   1.418   1.719   1.900  0.0000  0.0000  0.0000
    1GR    C199  199   1.489   1.842   1.900  0.0000  0.0000  0.0000
    1GR    C200  200   1.631   1.842   1.900  0.0000  0.0000  0.0000
    1GR    C201  201   1.276   1.965   1.900  0.0000  0.0000  0.0000
    1GR    C202  202   1.418   1.965   1.900  0.0000  0.0000  0.0000
    1GR    C203  203   1.489   2.088   1.900  0.0000  0.0000  0.0000
    1GR    C204  204   1.631   2.088   1.900  0.0000  0.0000  0.0000
    1GR    C205  205   1.276   2.210   1.900  0.0000  0.0000  0.0000
    1GR    C206  206   1.418   2.210   1.900  0.0000  0.0000  0.0000
    1GR    C207  207   1.489   2.333   1.900  0.0000  0.0000  0.0000
    1GR    C208  208   1.631   2.333   1.900  0.0000  0.0000  0.0000
    1GR    C209  209   1.276   2.456   1.900  0.0000  0.0000  0.0000
    1GR    C210  210   1.418   2.456   1.900  0.0000  0.0000  0.0000
    1GR    C211  211   1.489   2.579   1.900  0.0000  0.0000  0.0000
    1GR    C212  212   1.631   2.579   1.900  0.0000  0.0000  0.0000
    1GR    C213  213   1.276   2.702   1.900  0.0000  0.0000  0.0000
    1GR    C214  214   1.418   2.702   1.900  0.0000  0.0000  0.0000
    1GR    C215  215   1.489   2.824   1.900  0.0000  0.0000  0.0000
    1GR    C216  216   1.631   2.824   1.900  0.0000  0.0000  0.0000
    1GR    C217  217   1.276   2.947   1.900  0.0000  0.0000  0.0000
    1GR    C218  218   1.418   2.947   1.900  0.0000  0.0000  0.0000
    1GR    C219  219   1.489   3.070   1.900  0.0000  0.0000  0.0000
    1GR    C220  220   1.631   3.070   1.900  0.0000  0.0000  0.0000
    1GR    C221  221   1.276   3.193   1.900  0.0000  0.0000  0.0000
    1GR    C222  222   1.418   3.193   1.900  0.0000  0.0000  0.0000
    1GR    C223  223   1.489   3.316   1.900  0.0000  0.0000  0.0000
    1GR    C224  224   1.631   3.316   1.900  0.0000  0.0000  0.0000
    1GR    C225  225   1.702   0.000   1.900  0.0000  0.0000  0.0000
    1GR    C226  226   1.843   0.000   1.900  0.0000  0.0000  0.0000
    1GR    C227  227   1.914   0.123   1.900  0.0000  0.0000  0.0000
    1GR    C228  228   2.056   0.123   1.900  0.0000  0.0000  0.0000
    1GR    C229  229   1.702   0.246   1.900  0.0000  0.0000  0.0000
    1GR    C230  230   1.843   0.246   1.900  0.0000  0.0000  0.0000
    1GR    C231  231   1.914   0.368   1.900  0.0000  0.0000  0.0000
    1GR    C232  232   2.056   0.368   1.900  0.0000  0.0000  0.0000
    1GR    C233  233   1.702   0.491   1.900  0.0000  0.0000  0.0000
    1GR    C234  234   1.843   0.491   1.900  0.0000  0.0000  0.0000
    1GR    C235  235   1.914   0.614   1.900  0.0000  0.0000  0.0000
    1GR    C236  236   2.056   0.614   1.900  0.0000  0.0000  0.0000
    1GR    C237  237   1.702   0.737   1.900  0.0000  0.0000  0.0000
    1GR    C238  238   1.843   0.737   1.900  0.0000  0.0000  0.0000
    1GR    C239  239   1.914   0.860   1.900  0.0000  0.0000  0.0000
    1GR    C240  240   2.056   0.860   1.900  0.0000  0.0000  0.0000
    1GR    C241  241   1.702   0.982   1.900  0.0000  0.0000  0.0000
    1GR    C242  242   1.843   0.982   1.900  0.0000  0.0000  0.0000
    1GR    C243  243   1.914   1.105   1.900  0.0000  0.0000  0.0000
    1GR    C244  244   2.056   1.105   1.900  0.0000  0.0000  0.0000
    1GR    C245  245   1.702   1.228   1.900  0.0000  0.0000  0.0000
    1GR    C246  246   1.843   1.228   1.900  0.0000  0.0000  0.0000
    1GR    C247  247   1.914   1.351   1.900  0.0000  0.0000  0.0000
    1GR    C248  248   2.056   1.351   1.900  0.0000  0.0000  0.0000
    1GR    C249  249   1.702   1.474   1.900  0.0000  0.0000  0.0000
    1GR    C250  250   1.843   1.474   1.900  0.0000  0.0000  0.0000
    1GR    C251  251   1.914   1.596   1.900  0.0000  0.0000  0.0000
    1GR    C252  252   2.056   1.596   1.900  0.0000  0.0000  0.0000
    1GR    C253  253   1.702   1.719   1.900  0.0000  0.0000  0.0000
    1GR    C254  254   1.843   1.719   1.900  0.0000  0.0000  0.0000
    1GR    C255  255   1.914   1.842   1.900  0.0000  0.0000  0.0000
    1GR    C256  256   2.056   1.842   1.900  0.0000  0.0000  0.0000
    1GR    C257  257   1.702   1.965   1.900  0.0000  0.0000  0.0000
    1GR    C258  258   1.843   1.965   1.900  0.0000  0.0000  0.0000
    1GR    C259  259   1.914   2.088   1.900  0.0000  0.0000  0.0000
    1GR    C260  260   2.056   2.088   1.900  0.0000  0.0000  0.0000
    1GR    C261  261   1.702   2.210   1.900  0.0000  0.0000  0.0000
    1GR    C262  262   1.843   2.210   1.900  0.0000  0.0000  0.0000
    1GR    C263  263   1.914   2.333   1.900  0.0000  0.0000  0.0000
    1GR    C264  264   2.056   2.333   1.900  0.0000  0.0000  0.0000
    1GR    C265  265   1.702   2.456   1.900  0.0000  0.0000  0.0000
    1GR    C266  266   1.843   2.456   1.900  0.0000  0.0000  0.0000
    1GR    C267  267   1.914   2.579   1.900  0.0000  0.0000  0.0000
    1GR    C268  268   2.056   2.579   1.900  0.0000  0.0000  0.0000
    1GR    C269  269   1.702   2.702   1.900  0.0000  0.0000  0.0000
    1GR    C270  270   1.843   2.702   1.900  0.0000  0.0000  0.0000
    1GR    C271  271   1.914   2.824   1.900  0.0000  0.0000  0.0000
    1GR    C272  272   2.056   2.824   1.900  0.0000  0.0000  0.0000
    1GR    C273  273   1.702   2.947   1.900  0.0000  0.0000  0.0000
    1GR    C274  274   1.843   2.947   1.900  0.0000  0.0000  0.0000
    1GR    C275  275   1.914   3.070   1.900  0.0000  0.0000  0.0000
    1GR    C276  276   2.056   3.070   1.900  0.0000  0.0000  0.0000
    1GR    C277  277   1.702   3.193   1.900  0.0000  0.0000  0.0000
    1GR    C278  278   1.843   3.193   1.900  0.0000  0.0000  0.0000
    1GR    C279  279   1.914   3.316   1.900  0.0000  0.0000  0.0000
    1GR    C280  280   2.056   3.316   1.900  0.0000  0.0000  0.0000
    1GR    C281  281   2.127   0.000   1.900  0.0000  0.0000  0.0000
    1GR    C282  282   2.269   0.000   1.900  0.0000  0.0000  0.0000
    1GR    C283  283   2.340   0.123   1.900  0.0000  0.0000  0.0000
    1GR    C284  284   2.481   0.123   1.900  0.0000  0.0000  0.0000
    1GR    C285  285   2.127   0.246   1.900  0.0000  0.0000  0.0000
    1GR    C286  286   2.269   0.246   1.900  0.0000  0.0000  0.0000
    1GR    C287  287   2.340   0.368   1.900  0.0000  0.0000  0.0000
    1GR    C288  288   2.481   0.368   1.900  0.0000  0.0000  0.0000
    1GR    C289  289   2.127   0.491   1.900  0.0000  0.0000  0.0000
    1GR    C290  290   2.269   0.491   1.900  0.0000  0.0000  0.0000
    1GR    C291  291   2.340   0.614   1.900  0.0000  0.0000  0.0000
    1GR    C292  292   2.481   0.614   1.900  0.0000  0.0000  0.0000
    1GR    C293  293   2.127   0.737   1.900  0.0000  0.0000  0.0000
    1GR    C294  294   2.269   0.737   1.900  0.0000  0.0000  0.0000
    1GR    C295  295   2.340   0.860   1.900  0.0000  0.0000  0.0000
    1GR    C296  296   2.481   0.860   1.900  0.0000  0.0000  0.0000
    1GR    C297  297   2.127   0.982   1.900  0.0000  0.0000  0.0000
    1GR    C298  298   2.269   0.982   1.900  0.0000  0.0000  0.0000
    1GR    C299  299   2.340   1.105   1.900  0.0000  0.0000  0.0000
    1GR    C300  300   2.481   1.105   1.900  0.0000  0.0000  0.0000
    1GR    C301  301   2.127   1.228   1.900  0.0000  0.0000  0.0000
    1GR    C302  302   2.269   1.228   1.900  0.0000  0.0000  0.0000
    1GR    C303  303   2.340   1.351   1.900  0.0000  0.0000  0.0000
    1GR    C304  304   2.481   1.351   1.900  0.0000  0.0000  0.0000
    1GR    C305  305   2.127   1.474   1.900  0.0000  0.0000  0.0000
    1GR    C306  306   2.269   1.474   1.900  0.0000  0.0000  0.0000
    1GR    C307  307   2.340   1.596   1.900  0.0000  0.0000  0.0000
    1GR    C308  308   2.481   1.596   1.900  0.0000  0.0000  0.0000
    1GR    C309  309   2.127   1.719   1.900  0.0000  0.0000  0.0000
    1GR    C310  310   2.269   1.719   1.900  0.0000  0.0000  0.0000
    1GR    C311  311   2.340   1.842   1.900  0.0000  0.0000  0.0000
    1GR    C312  312   2.481   1.842   1.900  0.0000  0.0000  0.0000
    1GR    C313  313   2.127   1.965   1.900  0.0000  0.0000  0.0000
    1GR    C314  314   2.269   1.965   1.900  0.0000  0.0000  0.0000
    1GR    C315  315   2.340   2.088   1.900  0.0000  0.0000  0.0000
    1GR    C316  316   2.481   2.088   1.900  0.0000  0.0000  0.0000
    1GR    C317  317   2.127   2.210   1.900  0.0000  0.0000  0.0000
    1GR    C318  318   2.269   2.210   1.900  0.0000  0.0000  0.0000
    1GR    C319  319   2.340   2.333   1.900  0.0000  0.0000  0.0000
    1GR    C320  320   2.481   2.333   1.900  0.0000  0.0000  0.0000
    1GR    C321  321   2.127   2.456   1.900  0.0000  0.0000  0.0000
    1GR    C322  322   2.269   2.456   1.900  0.0000  0.0000  0.0000
    1GR    C323  323   2.340   2.579   1.900  0.0000  0.0000  0.0000
    1GR    C324  324   2.481   2.579   1.900  0.0000  0.0000  0.0000
    1GR    C325  325   2.127   2.702   1.900  0.0000  0.0000  0.0000
    1GR    C326  326   2.269   2.702   1.900  0.0000  0.0000  0.0000
    1GR    C327  327   2.340   2.824   1.900  0.0000  0.0000  0.0000
    1GR    C328  328   2.481   2.824   1.900  0.0000  0.0000  0.0000
    1GR    C329  329   2.127   2.947   1.900  0.0000  0.0000  0.0000
    1GR    C330  330   2.269   2.947   1.900  0.0000  0.0000  0.0000
    1GR    C331  331   2.340   3.070   1.900  0.0000  0.0000  0.0000
    1GR    C332  332   2.481   3.070   1.900  0.0000  0.0000  0.0000
    1GR    C333  333   2.127   3.193   1.900  0.0000  0.0000  0.0000
    1GR    C334  334   2.269   3.193   1.900  0.0000  0.0000  0.0000
    1GR    C335  335   2.340   3.316   1.900  0.0000  0.0000  0.0000
    1GR    C336  336   2.481   3.316   1.900  0.0000  0.0000  0.0000
    1GR    C337  337   2.552   0.000   1.900  0.0000  0.0000  0.0000
    1GR    C338  338   2.694   0.000   1.900  0.0000  0.0000  0.0000
    1GR    C339  339   2.765   0.123   1.900  0.0000  0.0000  0.0000
    1GR    C340  340   2.907   0.123   1.900  0.0000  0.0000  0.0000
    1GR    C341  341   2.552   0.246   1.900  0.0000  0.0000  0.0000
    1GR    C342  342   2.694   0.246   1.900  0.0000  0.0000  0.0000
    1GR    C343  343   2.765   0.368   1.900  0.0000  0.0000  0.0000
    1GR    C344  344   2.907   0.368   1.900  0.0000  0.0000  0.0000
    1GR    C345  345   2.552   0.491   1.900  0.0000  0.0000  0.0000
    1GR    C346  346   2.694   0.491   1.900  0.0000  0.0000  0.0000
    1GR    C347  347   2.765   0.614   1.900  0.0000  0.0000  0.0000
    1GR    C348  348   2.907   0.614   1.900  0.0000  0.0000  0.0000
    1GR    C349  349   2.552   0.737   1.900  0.0000  0.0000  0.0000
    1GR    C350  350   2.694   0.737   1.900  0.0000  0.0000  0.0000
    1GR    C351  351   2.765   0.860   1.900  0.0000  0.0000  0.0000
    1GR    C352  352   2.907   0.860   1.900  0.0000  0.0000  0.0000
    1GR    C353  353   2.552   0.982   1.900  0.0000  0.0000  0.0000
    1GR    C354  354   2.694   0.982   1.900  0.0000  0.0000  0.0000
    1GR    C355  355   2.765   1.105   1.900  0.0000  0.0000  0.0000
    1GR    C356  356   2.907   1.105   1.900  0.0000  0.0000  0.0000
    1GR    C357  357   2.552   1.228   1.900  0.0000  0.0000  0.0000
    1GR    C358  358   2.694   1.228   1.900  0.0000  0.0000  0.0000
    1GR    C359  359   2.765   1.351   1.900  0.0000  0.0000  0.0000
    1GR    C360  360   2.907   1.351   1.900  0.0000  0.0000  0.0000
    1GR    C361  361   2.552   1.474   1.900  0.0000  0.0000  0.0000
    1GR    C362  362   2.694   1.474   1.900  0.0000  0.0000  0.0000
    1GR    C363  363   2.765   1.596   1.900  0.0000  0.0000  0.0000
    1GR    C364  364   2.907   1.596   1.900  0.0000  0.0000  0.0000
    1GR    C365  365   2.552   1.719   1.900  0.0000  0.0000  0.0000
    1GR    C366  366   2.694   1.719   1.900  0.0000  0.0000  0.0000
    1GR    C367  367   2.765   1.842   1.900  0.0000  0.0000  0.0000
    1GR    C368  368   2.907   1.842   1.900  0.0000  0.0000  0.0000
    1GR    C369  369   2.552   1.965   1.900  0.0000  0.0000  0.0000
    1GR    C370  370   2.694   1.965   1.900  0.0000  0.0000  0.0000
    1GR    C371  371   2.765   2.088   1.900  0.0000  0.0000  0.0000
    1GR    C372  372   2.907   2.088   1.900  0.0000  0.0000  0.0000
    1GR    C373  373   2.552   2.210   1.900  0.0000  0.0000  0.0000
    1GR    C374  374   2.694   2.210   1.900  0.0000  0.0000  0.0000
    1GR    C375  375   2.765   2.333   1.900  0.0000  0.0000  0.0000
    1GR    C376  376   2.907   2.333   1.900  0.0000  0.0000  0.0000
    1GR    C377  377   2.552   2.456   1.900  0.0000  0.0000  0.0000
    1GR    C378  378   2.694   2.456   1.900  0.0000  0.0000  0.0000
    1GR    C379  379   2.765   2.579   1.900  0.0000  0.0000  0.0000
    1GR    C380  380   2.907   2.579   1.900  0.0000  0.0000  0.0000
    1GR    C381  381   2.552   2.702   1.900  0.0000  0.0000  0.0000
    1GR    C382  382   2.694   2.702   1.900  0.0000  0.0000  0.0000
    1GR    C383  383   2.765   2.824   1.900  0.0000  0.0000  0.0000
    1GR    C384  384   2.907   2.824   1.900  0.0000  0.0000  0.0000
    1GR    C385  385   2.552   2.947   1.900  0.0000  0.0000  0.0000
    1GR    C386  386   2.694   2.947   1.900  0.0000  0.0000  0.0000
    1GR    C387  387   2.765   3.070   1.900  0.0000  0.0000  0.0000
    1GR    C388  388   2.907   3.070   1.900  0.0000  0.0000  0.0000
    1GR    C389  389   2.552   3.193   1.900  0.0000  0.0000  0.0000
    1GR    C390  390   2.694   3.193   1.900  0.0000  0.0000  0.0000
    1GR    C391  391   2.765   3.316   1.900  0.0000  0.0000  0.0000
    1GR    C392  392   2.907   3.316   1.900  0.0000  0.0000  0.0000
    1GR    C393  393   2.978   0.000   1.900  0.0000  0.0000  0.0000
    1GR    C394  394   3.120   0.000   1.900  0.0000  0.0000  0.0000
    1GR    C395  395   3.191   0.123   1.900  0.0000  0.0000  0.0000
    1GR    C396  396   3.332   0.123   1.900  0.0000  0.0000  0.0000
    1GR    C397  397   2.978   0.246   1.900  0.0000  0.0000  0.0000
    1GR    C398  398   3.120   0.246   1.900  0.0000  0.0000  0.0000
    1GR    C399  399   3.191   0.368   1.900  0.0000  0.0000  0.0000
    1GR    C400  400   3.332   0.368   1.900  0.0000  0.0000  0.0000
    1GR    C401  401   2.978   0.491   1.900  0.0000  0.0000  0.0000
    1GR    C402  402   3.120   0.491   1.900  0.0000  0.0000  0.0000
    1GR    C403  403   3.191   0.614   1.900  0.0000  0.0000  0.0000
    1GR    C404  404   3.332   0.614   1.900  0.0000  0.0000  0.0000
    1GR    C405  405   2.978   0.737   1.900  0.0000  0.0000  0.0000
    1GR    C406  406   3.120   0.737   1.900  0.0000  0.0000  0.0000
    1GR    C407  407   3.191   0.860   1.900  0.0000  0.0000  0.0000
    1GR    C408  408   3.332   0.860   1.900  0.0000  0.0000  0.0000
    1GR    C409  409   2.978   0.982   1.900  0.0000  0.0000  0.0000
    1GR    C410  410   3.120   0.982   1.900  0.0000  0.0000  0.0000
    1GR    C411  411   3.191   1.105   1.900  0.0000  0.0000  0.0000
    1GR    C412  412   3.332   1.105   1.900  0.0000  0.0000  0.0000
    1GR    C413  413   2.978   1.228   1.900  0.0000  0.0000  0.0000
    1GR    C414  414   3.120   1.228   1.900  0.0000  0.0000  0.0000
    1GR    C415  415   3.191   1.351   1.900  0.0000  0.0000  0.0000
    1GR    C416  416   3.332   1.351   1.900  0.0000  0.0000  0.0000
    1GR    C417  417   2.978   1.474   1.900  0.0000  0.0000  0.0000
    1GR    C418  418   3.120   1.474   1.900  0.0000  0.0000  0.0000
    1GR    C419  419   3.191   1.596   1.900  0.0000  0.0000  0.0000
    1GR    C420  420   3.332   1.596   1.900  0.0000  0.0000  0.0000
    1GR    C421  421   2.978   1.719   1.900  0.0000  0.0000  0.0000
    1GR    C422  422   3.120   1.719   1.900  0.0000  0.0000  0.0000
    1GR    C423  423   3.191   1.842   1.900  0.0000  0.0000  0.0000
    1GR    C424  424   3.332   1.842   1.900  0.0000  0.0000  0.0000
    1GR    C425  425   2.978   1.965   1.900  0.0000  0.0000  0.0000
    1GR    C426  426   3.120   1.965   1.900  0.0000  0.0000  0.0000
    1GR    C427  427   3.191   2.088   1.900  0.0000  0.0000  0.0000
    1GR    C428  428   3.332   2.088   1.900  0.0000  0.0000  0.0000
    1GR    C429  429   2.978   2.210   1.900  0.0000  0.0000  0.0000
    1GR    C430  430   3.120   2.210   1.900  0.0000  0.0000  0.0000
    1GR    C431  431   3.191   2.333   1.900  0.0000  0.0000  0.0000
    1GR    C432  432   3.332   2.333   1.900  0.0000  0.0000  0.0000
    1GR    C433  433   2.978   2.456   1.900  0.0000  0.0000  0.0000
    1GR    C434  434   3.120   2.456   1.900  0.0000  0.0000  0.0000
    1GR    C435  435   3.191   2.579   1.900  0.0000  0.0000  0.0000
    1GR    C436  436   3.332   2.579   1.900  0.0000  0.0000  0.0000
    1GR    C437  437   2.978   2.702   1.900  0.0000  0.0000  0.0000
    1GR    C438  438   3.120   2.702   1.900  0.0000  0.0000  0.0000
    1GR    C439  439   3.191   2.824   1.900  0.0000  0.0000  0.0000
    1GR    C440  440   3.332   2.824   1.900  0.0000  0.0000  0.0000
    1GR    C441  441   2.978   2.947   1.900  0.0000  0.0000  0.0000
    1GR    C442  442   3.120   2.947   1.900  0.0000  0.0000  0.0000
    1GR    C443  443   3.191   3.070   1.900  0.0000  0.0000  0.0000
    1GR    C444  444   3.332   3.070   1.900  0.0000  0.0000  0.0000
    1GR    C445  445   2.978   3.193   1.900  0.0000  0.0000  0.0000
    1GR    C446  446   3.120   3.193   1.900  0.0000  0.0000  0.0000
    1GR    C447  447   3.191   3.316   1.900  0.0000  0.0000  0.0000
    1GR    C448  448   3.332   3.316   1.900  0.0000  0.0000  0.0000
    2PMMA   CX1  449   2.244   3.160   3.240  0.0174  0.1002 -0.0750
    2PMMA   CA2  450   2.175   3.297   3.279 -0.7331  0.9040 -0.4350
    2PMMA   CX3  451   2.087   3.261   3.402  0.2762  0.2886 -0.1616
    2PMMA    C4  452   2.286   3.392   3.311  0.7143  0.2457  0.1660
    2PMMA    O5  453   2.300   3.450   3.417 -0.4215  0.4745  0.0777
    2PMMA   OS6  454   2.364   3.424   3.205 -0.1005  0.0522 -0.4417
    2PMMA   CE7  455   2.455   3.530   3.209  0.9491  0.4970  0.4108
    2PMMA   CX8  456   2.098   3.345   3.150  0.1368  0.1004  0.3817
    2PMMA   CA9  457   2.014   3.482   3.131 -0.3303  0.3727  1.0510
    2PMMA  CX10  458   1.882   3.463   3.209 -0.5089 -0.0160 -0.2134
    2PMMA   C11  459   1.993   3.485   2.973  0.2761 -0.3976 -0.2392
    2PMMA   O12  460   1.903   3.438   2.909 -0.3215 -0.0419  0.1087
    2PMMA  OS13  461   2.095   3.549   2.908  0.7680 -0.0828  0.8639
    2PMMA  CE14  462   2.097   3.564   2.772 -0.3986 -1.2969  0.3481
    2PMMA  CX15  463   2.114   3.602   3.173  0.5272 -0.0147 -0.1231
    2PMMA  CA16  464   2.069   3.752   3.172 -0.4682  0.1018  0.0649
    2PMMA  CX17  465   2.192   3.836   3.209  0.4713 -0.0278  0.1367
    2PMMA   C18  466   2.022   3.792   3.027 -0.3975 -0.3123 -0.2338
    2PMMA   O19  467   2.087   3.873   2.961 -0.5157  0.0821 -0.8050
    2PMMA  OS20  468   1.902   3.747   2.992 -0.0554  0.0710 -0.1976
    2PMMA  CE21  469   1.837   3.817   2.888 -0.2758  0.0643  0.3902
    2PMMA  CX22  470   1.953   3.780   3.279 -0.0791  0.0145  0.0136
    2PMMA  CA23  471   1.910   3.927   3.320 -0.1599 -0.1287 -0.2189
    2PMMA  CX24  472   1.884   4.018   3.202  0.6493 -0.1360  0.1501
    2PMMA   C25  473   2.006   3.995   3.422 -0.4506 -0.1619 -0.0226
    2PMMA   O26  474   2.072   3.931   3.496  0.1442  0.4834 -0.5428
    2PMMA  OS27  475   2.050   4.113   3.382 -0.0143 -0.0418 -0.3470
    2PMMA  CE28  476   2.165   4.182   3.435 -0.1341 -0.0922 -0.3351
    2PMMA  CX29  477   1.772   3.915   3.393  0.1600  0.2159 -0.6661
    2PMMA  HC30  478   2.180   3.098   3.177 -0.0526  0.0428  0.0528
    2PMMA  HC31  479   2.334   3.171   3.178 -0.0730  0.1614 -0.1939
    2PMMA  HC32  480   2.286   3.108   3.327  0.3198 -0.1958 -0.3968
    2PMMA  HC33  481   2.021   3.176   3.385  0.3057  0.1512  0.3979
    2PMMA  HC34  482   2.026   3.344   3.439 -1.4096 -1.1894  0.4045
    2PMMA  HC35  483   2.145   3.232   3.490 -0.3798  2.6045  1.0560
    2PMMA  H136  484   2.392   3.619   3.224  1.7977  1.4453 -1.3848
    2PMMA  H137  485   2.517   3.541   3.120  1.0421 -1.1535  0.2638
    2PMMA  H138  486   2.521   3.527   3.295 -0.1678 -2.2357  1.1996
    2PMMA  HC39  487   2.173   3.340   3.070 -0.6896  1.3622 -0.5001
    2PMMA  HC40  488   2.040   3.258   3.119  0.0868  0.4227 -0.4686
    2PMMA  HC41  489   1.856   3.357   3.216  0.5807 -0.1953  1.3818
    2PMMA  HC42  490   1.899   3.494   3.313  0.3909 -1.3514  0.0440
    2PMMA  HC43  491   1.803   3.531   3.174  2.2633  1.7395 -3.4134
    2PMMA  H144  492   2.033   3.646   2.737  2.6396  0.5705 -1.0777
    2PMMA  H145  493   2.071   3.470   2.724  0.4849 -0.7524 -1.2468
    2PMMA  H146  494   2.199   3.585   2.738 -1.0388  2.3260  0.4839
    2PMMA  HC47  495   2.141   3.585   3.278  2.4771 -0.9984 -0.7489
    2PMMA  HC48  496   2.214   3.594   3.129  0.6477 -1.7898  0.4486
    2PMMA  HC49  497   2.223   3.821   3.313  1.7276 -0.1786 -0.2455
    2PMMA  HC50  498   2.174   3.942   3.190  0.9691 -0.2612 -1.6905
    2PMMA  HC51  499   2.279   3.811   3.146 -1.9149  0.7730 -3.6092
    2PMMA  H152  500   1.879   3.791   2.790 -1.4815  1.0328 -0.3973
    2PMMA  H153  501   1.837   3.923   2.911 -2.2209  0.0274  0.6338
    2PMMA  H154  502   1.731   3.793   2.891 -0.4265  0.5745 -0.7847
    2PMMA  HC55  503   1.859   3.733   3.247 -0.3620  0.5267  0.0938
    2PMMA  HC56  504   1.995   3.726   3.364  1.3106  0.2324 -0.5252
    2PMMA  HC57  505   1.969   4.039   3.137  2.0135 -0.8562  1.6900
    2PMMA  HC58  506   1.808   3.974   3.136  0.1978  0.1979  0.4395
    2PMMA  HC59  507   1.839   4.115   3.227  1.4701 -0.0375  1.2583
    2PMMA  H160  508   2.253   4.117   3.443  0.1485  0.3549  0.2695
    2PMMA  H161  509   2.147   4.220   3.536  0.2190  1.2509 -0.7716
    2PMMA  H162  510   2.185   4.265   3.368 -1.0625 -1.8917 -2.8984
    2PMMA  HC63  511   1.699   3.877   3.321 -1.2253  1.8575 -0.1433
    2PMMA  HC64  512   1.775   3.848   3.480  1.2830 -1.5286 -2.0099
    2PMMA  HC65  513   1.741   4.011   3.434  0.4350  0.1184 -0.2187
    3HFI     O1  514   1.926   2.684   3.606 -0.0356 -0.4012  1.0384
    3HFI     C1  515   1.923   2.824   3.591 -0.0146 -0.2225 -0.7759
    3HFI     C2  516   1.860   2.869   3.459 -0.2839  0.3120  0.5998
    3HFI     F1  517   1.724   2.848   3.468  0.5837 -0.0306 -0.1392
    3HFI     F2  518   1.909   2.803   3.354  0.3027 -0.2648  0.0678
    3HFI     F3  519   1.866   3.006   3.442 -0.3361 -0.0172 -0.8547
    3HFI     C3  520   2.066   2.881   3.610 -0.3528 -0.7371 -0.0269
    3HFI     F4  521   2.146   2.859   3.506 -0.0892 -0.3345 -0.3570
    3HFI     F5  522   2.130   2.839   3.722 -0.2506  0.8752 -0.4617
    3HFI     F6  523   2.058   3.014   3.624  0.1255 -0.3033  0.1937
    3HFI     H1  524   1.954   2.649   3.520 -1.1095  2.5394 -0.5529
    3HFI     H2  525   1.865   2.871   3.671  1.1884 -1.3926  0.8086
    4HFI     O1  526   1.778   3.365   2.691  0.0649 -0.0087  0.2758
    4HFI     C1  527   1.633   3.395   2.691 -0.0557  0.3978  0.0760
    4HFI     C2  528   1.597   3.519   2.780 -0.1911  0.1363  0.2316
    4HFI     F1  529   1.464   3.517   2.791 -0.2765 -0.2000 -0.2637
    4HFI     F2  530   1.634   3.633   2.714 -0.6323  0.4614  0.0515
    4HFI     F3  531   1.646   3.516   2.902 -0.2739  0.0105 -0.4567
    4HFI     C3  532   1.556   3.271   2.733  0.5855  0.3586  0.2112
    4HFI     F4  533   1.596   3.163   2.662 -0.0353 -0.2241  0.4368
    4HFI     F5  534   1.425   3.284   2.699  0.1769  0.0170 -0.7459
    4HFI     F6  535   1.572   3.246   2.862  0.2223 -0.0847 -0.1124
    4HFI     H1  536   1.806   3.372   2.784 -0.3699  0.1402  0.3994
    4HFI     H2  537   1.603   3.416   2.588 -0.9609 -0.2071  0.2095
    5HFI     O1  538   2.911   2.789   0.598  0.0760 -0.2443  0.0156
    5HFI     C1  539   2.905   2.660   0.549  0.0437  0.3689  0.5153
    5HFI     C2  540   2.843   2.560   0.657 -0.1338 -0.4788 -0.4926
    5HFI     F1  541   2.850   2.432   0.608 -0.3837  0.3578  0.1604
    5HFI     F2  542   2.715   2.590   0.687 -0.2212 -0.7517  0.4568
    5HFI     F3  543   2.914   2.560   0.773 -0.1825 -0.3675 -0.3699
    5HFI     C3  544   3.044   2.622   0.490  0.3970 -0.1271 -0.6059
    5HFI     F4  545   3.095   2.725   0.411 -0.1279  0.3775 -0.5079
    5HFI     F5  546   3.026   2.509   0.412 -0.1518  0.0221 -0.3145
    5HFI     F6  547   3.138   2.596   0.585  0.1171 -0.0462 -0.8114
    5HFI     H1  548   2.954   2.785   0.685 -0.3290 -0.8084  0.1871
    5HFI     H2  549   2.839   2.660   0.461  0.1285  2.4394  0.4170
    6HFI     O1  550   1.490   0.860   1.471  0.0888 -0.2614  0.0494
    6HFI     C1  551   1.623   0.825   1.523  0.1086  0.0549 -0.6540
    6HFI     C2  552   1.706   0.946   1.551 -0.5613  0.0103 -0.0672
    6HFI     F1  553   1.632   1.049   1.597  0.2089  0.6634 -0.0003
    6HFI     F2  554   1.747   1.000   1.433 -0.1235  0.2299 -0.2918
    6HFI     F3  555   1.814   0.926   1.624 -0.3407  0.1151  0.2387
    6HFI     C3  556   1.691   0.716   1.433 -0.7103 -0.0944  0.5889
    6HFI     F4  557   1.602   0.616   1.433  0.0215 -0.2146  0.4644
    6HFI     F5  558   1.814   0.682   1.479 -0.6934 -0.7257 -0.0512
    6HFI     F6  559   1.696   0.746   1.302  0.1686  0.3918 -0.5486
    6HFI     H1  560   1.469   0.951   1.496 -0.7879 -0.1963 -0.8423
    6HFI     H2  561   1.594   0.775   1.617 -1.5679  1.2736 -0.4939
    7HFI     O1  562   1.412   0.072   1.176 -0.0576 -0.0821  0.0115
    7HFI     C1  563   1.495   0.102   1.055  0.7146 -0.0878  0.3062
    7HFI     C2  564   1.533   0.249   1.042  0.1036 -0.9555  0.0640
    7HFI     F1  565   1.456   0.329   0.967  0.1862  0.5896 -0.5299
    7HFI     F2  566   1.660   0.248   0.991 -0.1968 -0.1490  0.2806
    7HFI     F3  567   1.545   0.304   1.166  0.3333  0.6202 -0.0865
    7HFI     C3  568   1.441   0.047   0.923  0.2026  0.1617  0.4541
    7HFI     F4  569   1.424  -0.088   0.933 -0.0328  0.2971 -0.2705
    7HFI     F5  570   1.537   0.059   0.824  0.3303  0.0379 -0.1165
    7HFI     F6  571   1.328   0.109   0.876  0.8827 -0.5063  0.4418
    7HFI     H1  572   1.396   0.157   1.219 -0.1993 -0.2569  0.3033
    7HFI     H2  573   1.592   0.054   1.071 -0.4908 -2.4756  0.7250
    8HFI     O1  574   3.009   0.304   1.318  0.4049 -0.2217  0.1671
    8HFI     C1  575   3.080   0.196   1.386  0.0473 -0.2865 -1.1139
    8HFI     C2  576   3.147   0.093   1.288  0.7131 -0.3501 -0.1723
    8HFI     F1  577   3.252   0.146   1.216 -0.0193  0.2741 -0.1490
    8HFI     F2  578   3.049   0.063   1.203  0.4565  0.2485  0.2136
    8HFI     F3  579   3.187  -0.024   1.343  0.1693  0.5711 -0.1283
    8HFI     C3  580   2.978   0.125   1.483 -0.2921 -0.1128  0.1735
    8HFI     F4  581   3.035   0.023   1.554  0.2048 -0.2241  0.3053
    8HFI     F5  582   2.876   0.071   1.412  0.6859 -0.6719  0.0551
    8HFI     F6  583   2.918   0.212   1.567 -0.2346  0.7438  0.1967
    8HFI     H1  584   2.971   0.267   1.236  0.8783  1.3303 -0.7886
    8HFI     H2  585   3.157   0.245   1.447 -2.3388  1.2232  0.7951
    9HFI     O1  586   1.750   1.393   1.337  0.5657 -0.5308  0.2445
    9HFI     C1  587   1.850   1.463   1.410  0.5233  0.1582 -0.7308
    9HFI     C2  588   1.957   1.535   1.325 -0.1206 -0.9089  0.1347
    9HFI     F1  589   2.040   1.448   1.275 -0.3862  0.4870 -0.1381
    9HFI     F2  590   2.034   1.623   1.390 -0.4392  0.0699  0.2696
    9HFI     F3  591   1.900   1.600   1.224 -0.2398 -0.0539 -0.1172
    9HFI     C3  592   1.896   1.379   1.522  0.2313 -0.9123  0.1260
    9HFI     F4  593   1.796   1.357   1.607  0.1347  0.1660  0.0937
    9HFI     F5  594   1.998   1.434   1.588  0.2647  0.0236  0.2335
    9HFI     F6  595   1.938   1.261   1.484 -0.0775 -0.3077  0.1082
    9HFI     H1  596   1.800   1.316   1.305  1.3283 -0.1511  0.4888
    9HFI     H2  597   1.800   1.542   1.466 -2.6173 -1.9604 -0.3830
   10HFI     O1  598   0.321   0.510   0.973  0.0592  0.6597 -0.3737
   10HFI     C1  599   0.218   0.613   0.963  0.2112 -0.7710 -0.3084
   10HFI     C2  600   0.230   0.716   1.073  0.9840  0.2364 -0.2438
   10HFI     F1  601   0.233   0.656   1.194 -0.2098 -0.5108 -0.2324
   10HFI     F2  602   0.131   0.807   1.066  0.1519 -0.0394  0.3790
   10HFI     F3  603   0.348   0.780   1.060  0.0298  0.1198  0.5415
   10HFI     C3  604   0.079   0.550   0.950  0.0214  0.0589 -0.7278
   10HFI     F4  605   0.035   0.518   1.074  0.2494 -0.4402  0.6873
   10HFI     F5  606   0.097   0.429   0.878  0.3467 -0.6594 -0.1606
   10HFI     F6  607  -0.013   0.632   0.891  0.4496  0.0686 -0.3007
   10HFI     H1  608   0.275   0.424   0.981  1.3090 -0.0063 -0.2653
   10HFI     H2  609   0.234   0.675   0.874  1.1010  1.2015  1.1961
   11HFI     O1  610   0.666   2.648   2.795 -0.3035 -0.0704  0.0261
   11HFI     C1  611   0.578   2.675   2.913  0.7142 -0.7916 -0.2251
   11HFI     C2  612   0.646   2.623   3.042  0.4307  0.1230 -0.4494
   11HFI     F1  613   0.659   2.489   3.053 -0.4512 -0.2186 -0.0868
   11HFI     F2  614   0.569   2.665   3.146  0.0120 -0.0977  0.2110
   11HFI     F3  615   0.767   2.678   3.046 -0.3410  0.3453  0.0521
   11HFI     C3  616   0.432   2.621   2.892  0.6853  0.3282  0.0883
   11HFI     F4  617   0.382   2.665   2.774  0.4050  0.0087 -0.4651
   11HFI     F5  618   0.350   2.658   2.983  0.5698 -0.4468  0.5306
   11HFI     F6  619   0.438   2.486   2.884 -0.0252  0.0286  0.7310
   11HFI     H1  620   0.757   2.667   2.823  0.2175 -0.7923 -1.1222
   11HFI     H2  621   0.562   2.784   2.922 -1.1145 -1.3261  4.1921
   12HFI     O1  622   2.248   0.428   2.753  0.4208 -0.3519  0.3697
   12HFI     C1  623   2.372   0.466   2.816 -0.2283 -0.1488  0.2794
   12HFI     C2  624   2.400   0.616   2.781 -0.4704 -0.3020  0.1721
   12HFI     F1  625   2.293   0.700   2.815 -0.3896  0.0276  0.6544
   12HFI     F2  626   2.421   0.637   2.643 -0.7014  0.3100  0.5190
   12HFI     F3  627   2.510   0.671   2.835 -0.4844 -0.4960  0.1099
   12HFI     C3  628   2.491   0.367   2.791 -0.1755 -0.0989 -0.4469
   12HFI     F4  629   2.612   0.421   2.796  0.2357  0.6464 -0.4110
   12HFI     F5  630   2.478   0.305   2.669 -0.3690 -0.0237 -1.0815
   12HFI     F6  631   2.487   0.266   2.882 -0.2033 -0.1836  0.4096
   12HFI     H1  632   2.169   0.447   2.808  2.1996 -0.6600  3.1240
   12HFI     H2  633   2.353   0.463   2.924 -1.7091  1.0645  0.0739
   13HFI     O1  634   2.839   2.200   1.302  0.2522 -0.5996  0.1386
   13HFI     C1  635   2.871   2.090   1.390  0.6401  0.9826 -1.0875
   13HFI     C2  636   2.755   2.047   1.481 -0.3134 -0.1977 -0.0410
   13HFI     F1  637   2.642   2.039   1.418 -0.0161  0.0190  0.2647
   13HFI     F2  638   2.741   2.132   1.591  0.1371  0.0208 -0.0122
   13HFI     F3  639   2.771   1.921   1.531 -0.2888 -0.6182  0.1436
   13HFI     C3  640   3.011   2.098   1.470  0.4359 -0.3848 -0.3288
   13HFI     F4  641   3.023   2.215   1.544 -0.6035 -0.5976  0.0353
   13HFI     F5  642   3.108   2.092   1.381  0.2082 -0.8252  0.1239
   13HFI     F6  643   3.024   1.996   1.555 -0.6804  0.2547  0.0809
   13HFI     H1  644   2.838   2.284   1.350  0.1602 -0.5030 -0.0313
   13HFI     H2  645   2.891   2.000   1.330 -2.1472 -1.1400  1.0287
   14HFI     O1  646   1.537   1.011   3.477 -0.5216  0.5836  0.0126
   14HFI     C1  647   1.553   1.006   3.334  0.5118  0.6007  0.1979
   14HFI     C2  648   1.543   0.853   3.274  0.6358  0.5731  0.1427
   14HFI     F1  649   1.579   0.845   3.144 -0.6885 -0.2787 -0.5541
   14HFI     F2  650   1.420   0.800   3.282 -0.2437 -0.9468 -0.0013
   14HFI     F3  651   1.618   0.773   3.351 -0.6336  0.7237 -0.1988
   14HFI     C3  652   1.683   1.083   3.292  0.4041  0.0332  0.4372
   14HFI     F4  653   1.695   1.192   3.368 -0.4261  0.3726 -0.5296
   14HFI     F5  654   1.675   1.130   3.165  0.1290  1.0140  0.4167
   14HFI     F6  655   1.789   1.008   3.316 -0.3791 -0.0488 -0.3456
   14HFI     H1  656   1.626   1.036   3.508  0.5222 -3.3483  0.3906
   14HFI     H2  657   1.467   1.057   3.289 -0.5267  0.1891  1.6655
   15HFI     O1  658   1.402   2.431   1.531  0.7943  0.2562  0.6494
   15HFI     C1  659   1.538   2.468   1.561 -0.0901 -0.7556 -0.6518
   15HFI     C2  660   1.574   2.613   1.503  0.5807 -0.4451  0.3646
   15HFI     F1  661   1.703   2.650   1.508 -0.1048  0.0699 -0.0004
   15HFI     F2  662   1.497   2.707   1.561  0.3972  0.0663  0.2345
   15HFI     F3  663   1.546   2.608   1.374  1.0294  0.0352  0.1760
   15HFI     C3  664   1.639   2.351   1.529  0.6789 -0.3164  0.7129
   15HFI     F4  665   1.646   2.334   1.391  0.3666  0.6553  0.1886
   15HFI     F5  666   1.590   2.240   1.587  0.1620  0.3986  0.0908
   15HFI     F6  667   1.763   2.369   1.576 -0.0119 -0.0971 -0.2811
   15HFI     H1  668   1.365   2.502   1.476  0.7234  0.9387  1.5520
   15HFI     H2  669   1.550   2.490   1.668 -0.5305  2.7198 -1.2796
   16HFI     O1  670   2.733   0.368   2.204 -0.3557 -0.4541 -0.8511
   16HFI     C1  671   2.851   0.367   2.290  0.0197 -0.7147 -0.1742
   16HFI     C2  672   2.861   0.232   2.365 -0.0732  0.4662  0.4785
   16HFI     F1  673   2.904   0.133   2.286 -0.7558  0.0606 -0.1963
   16HFI     F2  674   2.735   0.191   2.404 -0.4535 -0.7158 -0.0674
   16HFI     F3  675   2.945   0.241   2.474  0.2470  0.1679  0.1247
   16HFI     C3  676   2.840   0.494   2.377  0.0002  0.4487 -0.0307
   16HFI     F4  677   2.761   0.475   2.486  0.2242  0.9138  0.1229
   16HFI     F5  678   2.801   0.595   2.307  0.1465  0.2154  0.4549
   16HFI     F6  679   2.966   0.516   2.424 -0.7232  0.2939 -0.3796
   16HFI     H1  680   2.668   0.309   2.247  1.6515 -0.2594  2.6916
   16HFI     H2  681   2.940   0.367   2.225  1.3168 -1.3471  1.5567
   17HFI     O1  682   0.050   0.814   0.329  0.3626 -0.1194 -0.0679
   17HFI     C1  683  -0.079   0.750   0.360  0.0748 -0.1556 -0.0849
   17HFI     C2  684  -0.172   0.860   0.424  0.2538 -0.2847  0.3354
   17HFI     F1  685  -0.129   0.909   0.548  0.1117  0.2545  0.2629
   17HFI     F2  686  -0.302   0.819   0.438  0.5412  0.1300 -0.4127
   17HFI     F3  687  -0.180   0.968   0.342 -0.2492 -0.1212 -0.7960
   17HFI     C3  688  -0.064   0.617   0.438  0.2618  0.6669 -0.0053
   17HFI     F4  689   0.008   0.628   0.558  0.1100  0.3084  0.2724
   17HFI     F5  690  -0.016   0.517   0.362  0.2165  0.2980  0.1166
   17HFI     F6  691  -0.182   0.570   0.477  0.1296 -0.6733 -0.5276
   17HFI     H1  692   0.076   0.881   0.394  2.8175 -1.3095  0.2370
   17HFI     H2  693  -0.127   0.718   0.266  1.6523 -0.2682 -0.8588
   18HFI     O1  694   1.673   1.874   0.309 -0.1345  0.2366  0.4316
   18HFI     C1  695   1.665   1.977   0.406  0.9081  0.0505 -0.8325
   18HFI     C2  696   1.699   1.927   0.549  0.1439 -0.7989  0.5425
   18HFI     F1  697   1.620   1.823   0.580 -0.4614 -0.1777  0.3542
   18HFI     F2  698   1.689   2.015   0.649 -0.2126  0.2279 -0.2706
   18HFI     F3  699   1.827   1.889   0.546  0.2260  0.1281  0.1521
   18HFI     C3  700   1.523   2.046   0.412  0.5144  0.2306  0.2009
   18HFI     F4  701   1.428   1.993   0.497  0.0076  0.1116  0.7528
   18HFI     F5  702   1.466   2.029   0.291  0.2361 -0.0814 -0.2503
   18HFI     F6  703   1.535   2.182   0.439 -0.4861  0.1795  0.1687
   18HFI     H1  704   1.589   1.825   0.310 -0.9956  1.6133 -1.6136
   18HFI     H2  705   1.746   2.046   0.378  1.3147 -1.0848 -2.4925
   19HFI     O1  706   0.020   1.191   2.461  0.0138  0.0768 -0.0984
   19HFI     C1  707  -0.011   1.327   2.431  1.0022 -0.9353  0.0110
   19HFI     C2  708  -0.145   1.360   2.498 -0.6470 -0.6914 -0.3358
   19HFI     F1  709  -0.188   1.483   2.463  0.3806 -0.0697 -0.3709
   19HFI     F2  710  -0.131   1.361   2.632  0.1877  0.1700  0.2410
   19HFI     F3  711  -0.243   1.261   2.474 -0.6678 -0.2915  0.6616
   19HFI     C3  712  -0.020   1.339   2.270 -0.2514 -0.4217 -0.0635
   19HFI     F4  713   0.095   1.301   2.205  0.2794  0.0461  0.1336
   19HFI     F5  714  -0.048   1.464   2.231 -0.3496 -0.1320 -0.1798
   19HFI     F6  715  -0.121   1.257   2.233 -0.6806  0.2615  0.4959
   19HFI     H1  716   0.008   1.135   2.383 -0.2479 -1.3808  0.9587
   19HFI     H2  717   0.072   1.385   2.472  2.3277 -1.9256 -1.2122
   20HFI     O1  718   0.819   1.030   1.528  0.2125  0.2751  0.2025
   20HFI     C1  719   0.936   1.058   1.444 -0.3520 -0.3932  0.4112
   20HFI     C2  720   1.061   0.970   1.485 -0.6348  0.3602  0.2009
   20HFI     F1  721   1.011   0.844   1.509  0.1581  0.4371 -0.0730
   20HFI     F2  722   1.121   1.011   1.599 -0.4637  0.1008  0.4339
   20HFI     F3  723   1.147   0.963   1.380 -0.2330 -0.2500  0.1043
   20HFI     C3  724   0.977   1.216   1.446  0.2193 -0.2583  0.4317
   20HFI     F4  725   0.953   1.264   1.573 -0.6315 -0.5345 -0.0945
   20HFI     F5  726   0.902   1.286   1.363  0.1436 -0.8347  0.5540
   20HFI     F6  727   1.103   1.247   1.415  0.5073 -0.3107 -0.4288
   20HFI     H1  728   0.794   0.936   1.521  1.7031 -0.2583  1.7592
   20HFI     H2  729   0.920   1.026   1.340  2.9409 -0.5621 -0.0874
   21HFI     O1  730   1.055   2.973   3.421  0.0549  0.4000  0.4748
   21HFI     C1  731   1.029   2.844   3.487  0.1463 -0.1935 -0.5093
   21HFI     C2  732   0.966   2.744   3.382 -0.2696  0.0346 -0.4165
   21HFI     F1  733   0.951   2.621   3.436  0.5930 -0.5214  0.7972
   21HFI     F2  734   1.045   2.731   3.271 -0.2871 -0.4493 -0.3065
   21HFI     F3  735   0.845   2.793   3.338  0.1691 -0.2413 -0.0872
   21HFI     C3  736   0.956   2.861   3.613  0.3939  0.2799 -0.1708
   21HFI     F4  737   0.931   2.741   3.668  0.6716 -0.9579 -0.3006
   21HFI     F5  738   0.841   2.932   3.593 -0.2074  0.2039 -0.1211
   21HFI     F6  739   1.032   2.936   3.697  0.6543  0.4679 -0.0985
   21HFI     H1  740   1.105   3.032   3.480  0.0906  0.4007  0.4432
   21HFI     H2  741   1.121   2.792   3.517 -0.7987 -0.1188  2.6092
   22HFI     O1  742   2.273   3.104   1.346  0.0059 -0.2479  0.4011
   22HFI     C1  743   2.396   3.182   1.381  0.6861 -0.0761 -0.1819
   22HFI     C2  744   2.513   3.138   1.296 -0.2229 -0.4517  0.0007
   22HFI     F1  745   2.620   3.211   1.317 -0.2826  0.0105  0.1966
   22HFI     F2  746   2.489   3.127   1.163  0.0483 -0.2457  0.0794
   22HFI     F3  747   2.552   3.013   1.332  0.1894  0.4966  0.1539
   22HFI     C3  748   2.421   3.183   1.537  0.7441 -0.2236  0.8750
   22HFI     F4  749   2.321   3.259   1.596  0.2945  0.0241 -0.0918
   22HFI     F5  750   2.536   3.247   1.579  0.4691  0.7910  0.0189
   22HFI     F6  751   2.419   3.064   1.594  0.5485  0.3278 -0.2150
   22HFI     H1  752   2.290   3.012   1.372  1.1122 -0.7034 -1.7916
   22HFI     H2  753   2.392   3.289   1.359  2.4460  0.2790  1.1741
   23HFI     O1  754   1.922   0.534   0.093 -0.0999 -0.2097 -0.1852
   23HFI     C1  755   1.913   0.631  -0.023 -0.2869  0.3430  0.0533
   23HFI     C2  756   2.007   0.750  -0.009 -0.5114  0.5546  0.5003
   23HFI     F1  757   1.988   0.839  -0.103 -0.0327  0.0711 -0.0355
   23HFI     F2  758   2.136   0.705  -0.010 -0.1017 -0.4458  0.3232
   23HFI     F3  759   1.990   0.817   0.109  0.7602 -0.3881 -0.1970
   23HFI     C3  760   1.767   0.675  -0.038 -0.3163 -0.3554 -0.3435
   23HFI     F4  761   1.741   0.768  -0.137 -0.4127 -0.4152 -0.1961
   23HFI     F5  762   1.724   0.732   0.083  0.1076 -0.2771  0.5624
   23HFI     F6  763   1.694   0.561  -0.062  0.1259  0.0717 -0.1345
   23HFI     H1  764   1.891   0.574   0.176  0.5442 -0.8459  0.3655
   23HFI     H2  765   1.941   0.575  -0.113  0.1370 -1.6125  1.3507
   24HFI     O1  766   0.359   2.710   1.360  0.3816 -0.9163 -0.4841
   24HFI     C1  767   0.489   2.661   1.395  0.4426 -0.3206 -0.4289
   24HFI     C2  768   0.509   2.530   1.315  0.6609 -0.0808  0.4552
   24HFI     F1  769   0.619   2.464   1.361  0.4134  0.0507  0.4632
   24HFI     F2  770   0.532   2.563   1.186 -0.0909 -0.5634  0.2354
   24HFI     F3  771   0.403   2.442   1.328 -0.2422 -0.0727  0.3645
   24HFI     C3  772   0.510   2.639   1.548  0.0035  0.0051 -0.1129
   24HFI     F4  773   0.638   2.602   1.573  0.0807 -0.2065  0.3255
   24HFI     F5  774   0.433   2.539   1.591  0.0368 -0.4972  0.4675
   24HFI     F6  775   0.478   2.753   1.617 -0.4505  0.3919  0.5093
   24HFI     H1  776   0.364   2.783   1.296  0.8275  0.0439  0.6329
   24HFI     H2  777   0.560   2.739   1.365  1.1524 -0.8670 -0.1785
   25HFI     O1  778   3.104   0.676   2.198  0.3565 -0.4694  0.3180
   25HFI     C1  779   3.152   0.722   2.326 -0.5115 -0.0071 -0.2095
   25HFI     C2  780   3.072   0.849   2.373  0.0659  0.3025 -0.3880
   25HFI     F1  781   3.111   0.890   2.499  0.1111  0.3706 -0.3638
   25HFI     F2  782   2.936   0.836   2.375 -0.2197 -0.3361 -0.0659
   25HFI     F3  783   3.093   0.944   2.281  0.8054  0.2749  0.2935
   25HFI     C3  784   3.309   0.752   2.319  0.0679 -0.4551  0.3585
   25HFI     F4  785   3.392   0.640   2.339 -0.1923  0.7825 -0.2996
   25HFI     F5  786   3.348   0.833   2.418  0.0756  0.2156 -0.0161
   25HFI     F6  787   3.339   0.811   2.207 -0.7050 -0.0888  0.2169
   25HFI     H1  788   3.082   0.751   2.139  2.4333  1.1946  1.5902
   25HFI     H2  789   3.142   0.642   2.401  0.2719 -0.6022 -0.7398
   26HFI     O1  790   0.060   0.005   3.585  0.5693  0.2123 -0.0605
   26HFI     C1  791   0.132  -0.106   3.529  0.8553 -0.6641 -0.3551
   26HFI     C2  792   0.279  -0.063   3.506 -1.0488 -0.8860 -0.2654
   26HFI     F1  793   0.280   0.021   3.399  0.2408 -0.6335 -0.1207
   26HFI     F2  794   0.353  -0.169   3.477  0.5804 -0.1831  0.3167
   26HFI     F3  795   0.350  -0.012   3.616  0.1711 -0.2025  0.0676
   26HFI     C3  796   0.069  -0.166   3.404 -0.7064 -0.3413  0.1593
   26HFI     F4  797  -0.029  -0.249   3.435 -0.4638  0.4155  0.2386
   26HFI     F5  798   0.151  -0.235   3.319  0.3105 -0.2471  0.1221
   26HFI     F6  799   0.010  -0.070   3.320 -0.4719 -0.1611 -0.3548
   26HFI     H1  800  -0.003   0.040   3.519  2.0686  2.3329 -0.4249
   26HFI     H2  801   0.128  -0.184   3.606  0.8697  0.6972  1.0463
   27HFI     O1  802   0.115   0.053   2.729 -0.5159  0.8271 -0.0344
   27HFI     C1  803   0.080   0.058   2.871  0.5825 -0.2460 -0.2439
   27HFI     C2  804   0.196  -0.003   2.953 -0.2176  0.0878 -0.1450
   27HFI     F1  805   0.194  -0.136   2.964 -0.4470 -0.5431 -0.1219
   27HFI     F2  806   0.200   0.052   3.075 -0.1322 -0.3061  0.1573
   27HFI     F3  807   0.317   0.029   2.898  0.1224 -1.0751  0.1372
   27HFI     C3  808  -0.049   0.002   2.906  0.2251 -0.1301 -1.3456
   27HFI     F4  809  -0.147   0.078   2.856  0.0240 -0.3855  0.5502
   27HFI     F5  810  -0.070  -0.008   3.039  0.2592  0.5328  0.1850
   27HFI     F6  811  -0.063  -0.119   2.847 -0.0013 -0.0761 -0.8120
   27HFI     H1  812   0.187  -0.010   2.712  1.0406  2.2799  1.0564
   27HFI     H2  813   0.082   0.161   2.907 -0.1397 -0.2365 -0.2309
   28HFI     O1  814   2.950   0.828   3.274 -0.1101 -0.6606 -0.1500
   28HFI     C1  815   3.070   0.914   3.300  0.0735  0.2404 -0.2716
   28HFI     C2  816   3.195   0.888   3.206  0.4825  0.0543  0.3084
   28HFI     F1  817   3.266   0.783   3.240  0.2654 -0.3541  0.3866
   28HFI     F2  818   3.283   0.996   3.209 -0.4637 -0.5324  0.2836
   28HFI     F3  819   3.161   0.874   3.074 -0.3916 -0.2902 -0.1287
   28HFI     C3  820   3.101   0.934   3.452  0.6024 -0.4156  0.2705
   28HFI     F4  821   3.179   1.043   3.475 -0.1335 -0.2249  0.2915
   28HFI     F5  822   3.165   0.823   3.495  0.4801  0.0084 -0.0577
   28HFI     F6  823   2.991   0.960   3.530  0.1647 -0.1299 -0.4885
   28HFI     H1  824   2.952   0.811   3.178  2.3656 -0.3305 -0.1725
   28HFI     H2  825   3.037   1.016   3.277 -2.8546 -0.3925  0.9245
   29HFI     O1  826   1.988   3.308   1.487 -0.3045  0.6439  0.2010
   29HFI     C1  827   1.873   3.238   1.542  0.0252 -0.2604 -0.2194
   29HFI     C2  828   1.855   3.088   1.495  0.1483 -0.3466 -0.1539
   29HFI     F1  829   1.981   3.032   1.477 -0.3149  0.3109  0.3242
   29HFI     F2  830   1.796   3.077   1.371  0.0536  0.1338 -0.3424
   29HFI     F3  831   1.777   3.012   1.580  0.0955  0.0958 -0.1354
   29HFI     C3  832   1.746   3.327   1.534 -0.0193 -0.6482  1.0662
   29HFI     F4  833   1.719   3.371   1.408  0.3744  0.3365  0.3544
   29HFI     F5  834   1.751   3.437   1.617  0.1617 -0.4611 -0.2930
   29HFI     F6  835   1.645   3.262   1.584 -0.6449  0.2025 -0.2944
   29HFI     H1  836   2.058   3.244   1.464 -0.1779  0.6035  0.6832
   29HFI     H2  837   1.901   3.232   1.648  1.4932  1.5911 -0.4741
   30HFI     O1  838   0.362   1.983   0.751  0.4554 -0.0724  0.8768
   30HFI     C1  839   0.426   1.928   0.632  0.8204  0.5275  0.0179
   30HFI     C2  840   0.580   1.896   0.652  0.2193 -0.5510 -0.3145
   30HFI     F1  841   0.624   1.816   0.550  0.0974 -0.1033 -0.5249
   30HFI     F2  842   0.604   1.818   0.762  0.9291 -0.0714 -0.1715
   30HFI     F3  843   0.656   2.007   0.665 -0.2161 -0.2872 -0.4349
   30HFI     C3  844   0.399   2.017   0.498 -0.1954  0.2060  0.2510
   30HFI     F4  845   0.466   2.135   0.505 -0.3624 -0.1693  0.3909
   30HFI     F5  846   0.267   2.049   0.484  0.5340 -0.2308  0.3279
   30HFI     F6  847   0.446   1.958   0.386  0.0423 -0.1353  0.1766
   30HFI     H1  848   0.354   1.907   0.812  1.0794 -0.2157  0.7858
   30HFI     H2  849   0.376   1.833   0.610  0.3233  0.8370 -0.2006
   31HFI     O1  850   1.129   3.288   0.401  0.4977 -0.3013 -0.0678
   31HFI     C1  851   1.271   3.288   0.431 -0.3346  0.6458  1.0380
   31HFI     C2  852   1.307   3.358   0.564 -0.1936  0.6398  0.3784
   31HFI     F1  853   1.416   3.301   0.615  0.1266 -0.1517 -0.1899
   31HFI     F2  854   1.209   3.351   0.655  0.0638  0.3325  0.3689
   31HFI     F3  855   1.334   3.491   0.542  0.7966 -0.1726  0.1815
   31HFI     C3  856   1.357   3.338   0.317 -0.0305  0.7740  0.5950
   31HFI     F4  857   1.357   3.255   0.219 -0.3725 -0.0093  0.2210
   31HFI     F5  858   1.482   3.363   0.346  0.1757  0.2209  0.1010
   31HFI     F6  859   1.295   3.445   0.279 -0.2089  0.3985  0.4292
   31HFI     H1  860   1.110   3.312   0.308  3.8159  1.5934 -0.3327
   31HFI     H2  861   1.301   3.184   0.448 -0.4373  0.8758  2.7039
   32HFI     O1  862   1.490   3.204   3.690 -0.2303 -0.3145  0.3456
   32HFI     C1  863   1.556   3.072   3.723  0.1997  0.0852 -0.5172
   32HFI     C2  864   1.453   2.956   3.753 -0.4460  0.5445 -0.8086
   32HFI     F1  865   1.510   2.832   3.744 -0.0457 -0.2353 -0.2967
   32HFI     F2  866   1.360   2.955   3.649 -0.0900 -0.0789 -0.8168
   32HFI     F3  867   1.383   2.957   3.873  0.0702  0.3074 -0.5430
   32HFI     C3  868   1.659   3.086   3.845  1.1441 -0.0062  0.0076
   32HFI     F4  869   1.750   3.178   3.825 -0.2437  0.3267 -0.3856
   32HFI     F5  870   1.717   2.972   3.868  0.3264  0.5015  0.9579
   32HFI     F6  871   1.593   3.114   3.959 -0.1465 -0.2384  0.7179
   32HFI     H1  872   1.499   3.264   3.766  4.4196 -1.0628  0.5244
   32HFI     H2  873   1.614   3.040   3.635  0.3219 -0.5559 -0.2006
   33HFI     O1  874   1.530   1.887   1.084 -0.0982 -0.1682 -0.3854
   33HFI     C1  875   1.478   1.833   0.962  0.1663 -0.4284 -0.2500
   33HFI     C2  876   1.336   1.881   0.919 -0.5249 -0.8318  0.6105
   33HFI     F1  877   1.240   1.845   1.001  0.3980 -0.0581 -0.1807
   33HFI     F2  878   1.306   1.826   0.801  0.2837  0.1702 -0.1645
   33HFI     F3  879   1.338   2.012   0.908  0.2954  0.2747 -0.5829
   33HFI     C3  880   1.483   1.673   0.965  0.0749 -0.2959 -0.8743
   33HFI     F4  881   1.370   1.620   1.015  0.1439  0.0436 -0.0672
   33HFI     F5  882   1.583   1.624   1.040  0.0394  0.5257  0.0679
   33HFI     F6  883   1.497   1.622   0.837  0.1575  0.2078 -0.2510
   33HFI     H1  884   1.508   1.832   1.161  0.4263 -2.1642 -1.6266
   33HFI     H2  885   1.549   1.865   0.886  2.8742  1.8952  3.0925
   34HFI     O1  886   2.051   2.126   3.146 -0.2776  0.6143 -0.0017
   34HFI     C1  887   2.001   2.177   3.273  0.3504 -0.2346  0.2832
   34HFI     C2  888   2.054   2.320   3.306  0.0268 -0.1951  0.1943
   34HFI     F1  889   1.989   2.379   3.404 -0.7600 -0.0129  0.3323
   34HFI     F2  890   2.039   2.396   3.192  0.5932 -0.7690  0.0939
   34HFI     F3  891   2.184   2.315   3.342  0.7273 -0.0558 -0.4182
   34HFI     C3  892   2.022   2.080   3.394  0.2029  0.6260  1.0773
   34HFI     F4  893   2.145   2.046   3.418 -0.0282 -0.2110 -0.2845
   34HFI     F5  894   1.953   1.960   3.373  0.3860 -0.3208 -0.5244
   34HFI     F6  895   1.982   2.136   3.513  0.1010 -0.4225 -0.0942
   34HFI     H1  896   2.147   2.142   3.143 -0.3061  0.6971 -0.5192
   34HFI     H2  897   1.892   2.176   3.268  0.3705 -1.4625 -0.3384
   35HFI     O1  898   0.599   3.179   1.536  0.0275 -0.0239  0.0628
   35HFI     C1  899   0.704   3.207   1.442 -0.2742  0.1417 -0.7084
   35HFI     C2  900   0.817   3.095   1.444  0.6489  0.1292  0.3657
   35HFI     F1  901   0.918   3.109   1.531  0.4583  0.1021  0.0848
   35HFI     F2  902   0.872   3.081   1.328  0.1370  0.1739  0.1022
   35HFI     F3  903   0.760   2.974   1.473  0.3419  0.2736 -0.3022
   35HFI     C3  904   0.751   3.351   1.460 -0.5884 -0.2890 -0.8478
   35HFI     F4  905   0.796   3.365   1.590 -0.1332  0.2702  0.1504
   35HFI     F5  906   0.646   3.439   1.434 -0.1236  0.1585  0.0894
   35HFI     F6  907   0.856   3.383   1.383 -0.2443 -0.2622  0.5920
   35HFI     H1  908   0.627   3.131   1.615  0.1432  1.0485  0.6820
   35HFI     H2  909   0.661   3.202   1.341 -0.3417 -1.7770 -0.6022
   36HFI     O1  910   0.106   0.187   1.067 -0.2642  0.2659 -0.2938
   36HFI     C1  911   0.198   0.067   1.042  0.2948  0.0833 -0.1368
   36HFI     C2  912   0.298   0.087   0.917 -0.0457  0.1319  0.3182
   36HFI     F1  913   0.381   0.190   0.933 -0.6467 -0.5038 -0.4538
   36HFI     F2  914   0.228   0.114   0.808 -0.2039  0.1471  0.1059
   36HFI     F3  915   0.371  -0.023   0.887  0.5183 -0.2069 -0.1366
   36HFI     C3  916   0.113  -0.070   1.033  0.5020  0.1825 -0.1838
   36HFI     F4  917   0.033  -0.092   1.137 -0.0948  0.5900 -0.3341
   36HFI     F5  918   0.188  -0.177   1.027  0.3856 -0.2751 -0.1943
   36HFI     F6  919   0.026  -0.075   0.925  0.3036 -0.1306 -0.1606
   36HFI     H1  920   0.035   0.170   1.131 -0.2913  1.6982  0.0563
   36HFI     H2  921   0.264   0.054   1.128 -0.3682 -1.4187  0.1575
   37HFI     O1  922   2.149   0.098   1.569  0.2583 -0.1329 -0.2787
   37HFI     C1  923   2.163   0.211   1.475 -0.4405 -0.0932 -0.2666
   37HFI     C2  924   2.049   0.310   1.476  0.2059 -0.0749  0.1099
   37HFI     F1  925   1.929   0.246   1.469 -0.4332 -0.0604  0.5261
   37HFI     F2  926   2.048   0.412   1.389  0.0215 -0.2967 -0.5468
   37HFI     F3  927   2.029   0.371   1.601 -0.0731  0.1959  0.1269
   37HFI     C3  928   2.202   0.161   1.334  0.2631  0.1777  0.1550
   37HFI     F4  929   2.091   0.096   1.274 -0.2752 -0.2611 -0.2186
   37HFI     F5  930   2.308   0.079   1.353  0.0767 -0.4075 -0.5448
   37HFI     F6  931   2.246   0.270   1.256  0.1151 -0.1547 -0.0501
   37HFI     H1  932   2.061   0.059   1.557 -1.2183  2.4248  1.5978
   37HFI     H2  933   2.242   0.279   1.509  0.1553 -1.5843  1.3929
   38HFI     O1  934   1.452   0.354   3.618 -0.3089 -0.0726  0.2579
   38HFI     C1  935   1.383   0.395   3.740 -0.3329  0.3123  0.1343
   38HFI     C2  936   1.392   0.294   3.851  0.1901 -0.3414 -0.8043
   38HFI     F1  937   1.398   0.170   3.800  0.4012 -0.6384  0.0098
   38HFI     F2  938   1.292   0.300   3.939  0.3551 -0.2252 -0.2452
   38HFI     F3  939   1.506   0.320   3.920 -0.3638 -0.4631  0.2078
   38HFI     C3  940   1.230   0.422   3.701  0.7160  0.1858  0.1720
   38HFI     F4  941   1.155   0.309   3.678  0.3390 -0.7123  0.0525
   38HFI     F5  942   1.227   0.494   3.585 -0.1616 -0.1159  0.1718
   38HFI     F6  943   1.175   0.500   3.797 -0.4551  0.3593  0.1280
   38HFI     H1  944   1.394   0.340   3.541  0.6687  0.8233 -0.6603
   38HFI     H2  945   1.424   0.490   3.775 -1.7375 -0.1322  3.1781
   39HFI     O1  946   3.007   2.970   2.674  0.2349  0.1142  0.1445
   39HFI     C1  947   2.938   2.842   2.662 -0.5503  0.5786 -0.1274
   39HFI     C2  948   2.813   2.828   2.754 -0.1126  0.9000  0.2072
   39HFI     F1  949   2.740   2.719   2.729  0.3277 -0.7953  0.7675
   39HFI     F2  950   2.734   2.936   2.743  0.4220 -0.1045  0.2914
   39HFI     F3  951   2.851   2.822   2.881 -0.4702 -0.1635 -0.4720
   39HFI     C3  952   3.033   2.724   2.673  0.5624  0.3168 -0.3249
   39HFI     F4  953   3.128   2.738   2.576 -0.2374  0.5101 -0.0979
   39HFI     F5  954   2.976   2.605   2.657 -0.2624 -0.5146  0.1226
   39HFI     F6  955   3.093   2.722   2.796 -0.4495  0.1953 -0.2416
   39HFI     H1  956   3.066   2.963   2.751 -0.4281 -0.4468  0.6147
   39HFI     H2  957   2.885   2.829   2.567 -3.1699 -0.2786  1.3842
   40HFI     O1  958   1.121   1.565   0.773  0.1465 -0.3441  0.6394
   40HFI     C1  959   1.044   1.568   0.894 -0.0111  0.2113  0.1755
   40HFI     C2  960   1.008   1.423   0.945  0.0175  0.5720  0.0502
   40HFI     F1  961   0.929   1.436   1.057  0.0879  0.1082 -0.0449
   40HFI     F2  962   1.120   1.349   0.974 -0.1507 -0.2143  0.1737
   40HFI     F3  963   0.945   1.358   0.850 -0.3843  0.3105 -0.0526
   40HFI     C3  964   0.934   1.675   0.887  0.0745 -0.1506  0.0155
   40HFI     F4  965   0.877   1.694   1.003 -0.0900 -0.7556 -0.4068
   40HFI     F5  966   0.843   1.638   0.798 -0.5648  0.6077  0.2180
   40HFI     F6  967   0.983   1.788   0.848 -0.4997  0.5536  0.4663
   40HFI     H1  968   1.073   1.520   0.702 -1.8840  0.8749  1.1987
   40HFI     H2  969   1.114   1.613   0.965 -1.8844 -0.6194  2.5927
   41HFI     O1  970   0.395   3.243   2.710 -0.2567  0.1916 -0.2797
   41HFI     C1  971   0.503   3.209   2.795  0.4066  0.5022  0.6453
   41HFI     C2  972   0.647   3.250   2.753 -0.1504  0.0608 -0.0478
   41HFI     F1  973   0.652   3.372   2.708  0.2552 -0.1919 -0.5783
   41HFI     F2  974   0.681   3.168   2.650  0.3515 -0.0716  0.4728
   41HFI     F3  975   0.739   3.230   2.848  0.1365  0.2805  0.1909
   41HFI     C3  976   0.479   3.077   2.868  0.2076  0.2779  0.2308
   41HFI     F4  977   0.534   3.071   2.995  0.0462  0.1920 -0.2008
   41HFI     F5  978   0.525   2.973   2.797  0.7074 -0.1853 -0.0101
   41HFI     F6  979   0.346   3.046   2.893 -0.1769  0.0328  0.4200
   41HFI     H1  980   0.342   3.165   2.687 -1.0256  0.1159  1.6610
   41HFI     H2  981   0.496   3.287   2.872 -2.4932  0.0429  0.9057
   42HFI     O1  982   2.006   0.159   0.330 -0.2217 -0.1213  0.5760
   42HFI     C1  983   2.025   0.194   0.468  0.3822 -0.4548  0.4570
   42HFI     C2  984   1.934   0.310   0.499  0.2679 -0.1836  0.1007
   42HFI     F1  985   1.928   0.400   0.399  0.4606 -0.0950  0.0275
   42HFI     F2  986   1.955   0.386   0.610  0.3654  0.0792 -0.5257
   42HFI     F3  987   1.810   0.262   0.523  0.1172 -0.0882 -0.3234
   42HFI     C3  988   2.169   0.225   0.514 -0.6309 -0.2006  0.0006
   42HFI     F4  989   2.260   0.126   0.477 -0.0118  0.2742  0.1099
   42HFI     F5  990   2.174   0.228   0.650 -0.0762 -0.0687  0.1669
   42HFI     F6  991   2.223   0.341   0.456  0.1266  0.0394 -0.0864
   42HFI     H1  992   2.028   0.238   0.277 -0.3047 -0.0481  0.6517
   42HFI     H2  993   2.000   0.107   0.529  0.8541 -2.0642 -1.6103
   43HFI     O1  994   1.459   2.064   2.247 -0.4432 -0.7118 -0.0086
   43HFI     C1  995   1.498   2.161   2.356 -0.2705 -0.5301 -0.2544
   43HFI     C2  996   1.372   2.188   2.440 -0.5933  0.3899 -0.1444
   43HFI     F1  997   1.274   2.250   2.363  0.0705  0.4056  0.4071
   43HFI     F2  998   1.403   2.281   2.534 -0.6173 -0.0778 -0.2813
   43HFI     F3  999   1.315   2.080   2.491  0.2606  0.5748  0.1851
   43HFI     C3 1000   1.573   2.295   2.295  0.4615  0.1676  0.5083
   43HFI     F4 1001   1.487   2.386   2.249  0.7150  0.4515 -0.2304
   43HFI     F5 1002   1.656   2.259   2.197  0.1399  0.4655 -0.1741
   43HFI     F6 1003   1.647   2.351   2.399 -0.2029  0.5173  0.1629
   43HFI     H1 1004   1.383   2.096   2.196  0.2720  1.2294  0.0929
   43HFI     H2 1005   1.569   2.108   2.421  1.9925  0.0938 -2.1681
   44HFI     O1 1006   0.579   3.225   2.225 -0.2471 -0.2321  0.1289
   44HFI     C1 1007   0.449   3.271   2.238  0.9563  0.0112 -0.0488
   44HFI     C2 1008   0.444   3.415   2.274  0.2069 -0.5234  0.1673
   44HFI     F1 1009   0.330   3.487   2.274  0.0738  0.2000 -0.1312
   44HFI     F2 1010   0.537   3.486   2.199 -0.1804 -0.1534  0.5241
   44HFI     F3 1011   0.495   3.424   2.394  0.5345  0.0979  0.2910
   44HFI     C3 1012   0.356   3.181   2.330 -0.5762  0.2046  0.7005
   44HFI     F4 1013   0.308   3.078   2.261 -0.5735 -0.3969  0.1404
   44HFI     F5 1014   0.247   3.255   2.373 -0.0821  0.2625 -0.2966
   44HFI     F6 1015   0.423   3.140   2.439 -0.0855  0.0676  0.0532
   44HFI     H1 1016   0.599   3.185   2.311  0.4828  2.4663  1.2425
   44HFI     H2 1017   0.406   3.271   2.137 -0.0731 -2.4574  0.3457
   45HFI     O1 1018   2.957   1.388   1.320 -0.1050 -0.4336  0.6952
   45HFI     C1 1019   3.043   1.456   1.413 -0.1232  0.3262 -0.2180
   45HFI     C2 1020   3.124   1.359   1.501  0.7600 -0.5665 -0.7860
   45HFI     F1 1021   3.138   1.241   1.441  0.2114  0.3048 -0.2747
   45HFI     F2 1022   3.059   1.333   1.616 -0.0109  0.2197  0.0159
   45HFI     F3 1023   3.244   1.420   1.528  0.1675 -0.0973 -0.2976
   45HFI     C3 1024   2.965   1.570   1.486 -0.8280  0.5751  0.5276
   45HFI     F4 1025   2.887   1.527   1.585 -0.1808  0.0722  0.4274
   45HFI     F5 1026   2.887   1.639   1.396 -0.3514  0.2272 -0.3125
   45HFI     F6 1027   3.056   1.657   1.539  0.2924 -0.3104  0.9450
   45HFI     H1 1028   2.897   1.316   1.347 -0.8546 -0.7541 -1.6873
   45HFI     H2 1029   3.119   1.519   1.366 -1.0202  0.8405 -0.9847
   46HFI     O1 1030   0.726   2.791   1.186 -0.2409  0.1579 -0.3827
   46HFI     C1 1031   0.672   2.844   1.064  0.0726 -0.4375 -0.3281
   46HFI     C2 1032   0.790   2.889   0.976  0.7283 -0.9340 -0.5599
   46HFI     F1 1033   0.883   2.793   0.976  0.1924 -0.4307 -0.1329
   46HFI     F2 1034   0.848   2.996   1.018  0.8375 -0.4137  0.2914
   46HFI     F3 1035   0.748   2.911   0.843 -0.3094 -0.3162  0.2437
   46HFI     C3 1036   0.561   2.948   1.108  0.0463 -0.1171  0.4549
   46HFI     F4 1037   0.470   2.891   1.181  0.1243 -0.0693  0.0052
   46HFI     F5 1038   0.492   3.001   0.999 -0.0274  0.0672  0.0207
   46HFI     F6 1039   0.610   3.053   1.172 -0.1057 -0.6567  0.8738
   46HFI     H1 1040   0.804   2.735   1.174 -0.8911 -0.8336 -0.0706
   46HFI     H2 1041   0.622   2.764   1.009  0.3310 -1.1527  0.4722
   47HFI     O1 1042   2.149   0.267   3.617 -0.2252  0.1063  0.5186
   47HFI     C1 1043   2.278   0.230   3.673  0.3495  0.2538 -0.1905
   47HFI     C2 1044   2.276   0.230   3.828 -0.1275  0.2489  0.0720
   47HFI     F1 1045   2.226   0.345   3.881 -0.1929 -0.4663  0.3123
   47HFI     F2 1046   2.394   0.221   3.882 -0.0897  0.4919 -0.1775
   47HFI     F3 1047   2.204   0.124   3.867  0.2179 -0.1520 -0.1424
   47HFI     C3 1048   2.399   0.313   3.607  0.5104 -0.0384 -0.5156
   47HFI     F4 1049   2.378   0.445   3.638  0.1692 -0.3167  0.7371
   47HFI     F5 1050   2.393   0.305   3.474  0.0674  0.4520  0.5488
   47HFI     F6 1051   2.520   0.275   3.645  0.2038  0.4361 -0.1102
   47HFI     H1 1052   2.150   0.356   3.578  0.2581 -0.3604 -0.5499
   47HFI     H2 1053   2.286   0.123   3.650  0.1141  0.2565 -0.2876
   48HFI     O1 1054   0.305   1.975   1.031 -0.2215  0.9434  0.1398
   48HFI     C1 1055   0.258   2.112   1.054  0.1415  0.4155 -0.0902
   48HFI     C2 1056   0.113   2.129   1.011 -0.1983  0.3309 -0.8255
   48HFI     F1 1057   0.039   2.042   1.071 -0.2472 -0.5613  0.0603
   48HFI     F2 1058   0.091   2.120   0.879 -0.0606  0.0524  0.0903
   48HFI     F3 1059   0.066   2.250   1.054 -0.4183  0.4642  0.1241
   48HFI     C3 1060   0.354   2.220   0.985 -0.3239  0.6707 -0.3237
   48HFI     F4 1061   0.487   2.183   0.970  0.4106  0.2574 -0.1703
   48HFI     F5 1062   0.354   2.334   1.065 -0.8184  0.1166 -0.4286
   48HFI     F6 1063   0.310   2.261   0.869  0.0948 -0.1337  0.2928
   48HFI     H1 1064   0.274   1.916   1.101  1.0544 -0.8605 -0.7882
   48HFI     H2 1065   0.268   2.134   1.161  0.9917  2.1230 -0.4968
   49HFI     O1 1066   2.008   2.608   1.497 -0.1302  0.3912 -0.0388
   49HFI     C1 1067   2.145   2.579   1.531  0.2097 -0.6566  0.8704
   49HFI     C2 1068   2.244   2.675   1.458 -0.6344 -0.5570 -0.3728
   49HFI     F1 1069   2.366   2.666   1.516 -0.2854 -0.6323  0.1880
   49HFI     F2 1070   2.203   2.804   1.456 -0.2764 -0.2975 -0.0819
   49HFI     F3 1071   2.267   2.637   1.329 -0.3615  0.1325 -0.5438
   49HFI     C3 1072   2.183   2.438   1.527 -0.1709 -0.4226 -0.7726
   49HFI     F4 1073   2.192   2.391   1.404 -0.3100  0.1347 -0.4354
   49HFI     F5 1074   2.109   2.350   1.602  0.0482 -0.0295 -0.0864
   49HFI     F6 1075   2.309   2.424   1.574 -0.0484  0.1521  0.1131
   49HFI     H1 1076   1.995   2.632   1.404  1.1103 -5.4693 -1.9488
   49HFI     H2 1077   2.143   2.616   1.634 -0.2872  1.7225  0.0335
   50HFI     O1 1078   1.197   1.110   2.836 -0.1600  0.4935 -0.6968
   50HFI     C1 1079   1.285   1.002   2.801 -0.7707  0.9209 -0.0401
   50HFI     C2 1080   1.209   0.859   2.780 -0.0576  0.7914 -0.2602
   50HFI     F1 1081   1.151   0.819   2.901  0.0825  0.2123 -0.0037
   50HFI     F2 1082   1.297   0.761   2.733  0.1765 -0.4036  0.0982
   50HFI     F3 1083   1.113   0.870   2.693  0.1195 -0.0267  0.5880
   50HFI     C3 1084   1.402   0.990   2.902  0.0310  0.4478  0.3843
   50HFI     F4 1085   1.468   0.874   2.881  0.1213 -0.0738  0.1676
   50HFI     F5 1086   1.356   0.979   3.031 -0.2171  0.0183 -0.5010
   50HFI     F6 1087   1.482   1.101   2.896  0.5341 -0.1088  0.0617
   50HFI     H1 1088   1.129   1.062   2.887 -0.6479  0.1589 -1.6602
   50HFI     H2 1089   1.322   1.033   2.702 -2.6995 -0.4488 -1.2253
   51HFI     O1 1090   0.133   1.870   2.460 -0.5894 -0.5631  0.4242
   51HFI     C1 1091   0.242   1.964   2.436 -0.3349 -1.1007  0.0170
   51HFI     C2 1092   0.259   2.004   2.278 -0.0236  0.4081  0.7410
   51HFI     F1 1093   0.285   1.896   2.197 -0.3577 -0.1719  0.2541
   51HFI     F2 1094   0.350   2.098   2.264 -0.2233  0.5941 -0.0636
   51HFI     F3 1095   0.155   2.060   2.232  0.0961 -0.4395 -0.1141
   51HFI     C3 1096   0.375   1.901   2.487  0.0204  0.0124 -0.5022
   51HFI     F4 1097   0.372   1.897   2.618  0.1642  0.1812 -0.1027
   51HFI     F5 1098   0.489   1.966   2.443 -0.0126  0.1036 -1.0398
   51HFI     F6 1099   0.384   1.772   2.450 -0.2821  0.4938 -0.1408
   51HFI     H1 1100   0.065   1.880   2.392 -0.0572 -0.4957 -0.1061
   51HFI     H2 1101   0.219   2.058   2.487 -2.8890 -2.3061  1.1800
   52HFI     O1 1102   1.501   2.259   2.876  0.3938 -0.2858  0.2932
   52HFI     C1 1103   1.636   2.319   2.860  0.8203 -0.7148  0.0078
   52HFI     C2 1104   1.730   2.223   2.772  0.6833  0.2228  0.5846
   52HFI     F1 1105   1.664   2.199   2.657 -0.1319 -0.5153  0.3063
   52HFI     F2 1106   1.757   2.110   2.829  0.1112  0.2940  0.2867
   52HFI     F3 1107   1.849   2.275   2.740 -0.0825 -0.0063 -0.2720
   52HFI     C3 1108   1.703   2.360   2.997  0.7880  1.1775 -0.4024
   52HFI     F4 1109   1.694   2.258   3.085 -0.4592 -0.0558  0.0761
   52HFI     F5 1110   1.632   2.466   3.047  0.1784  0.1663 -0.2916
   52HFI     F6 1111   1.828   2.391   2.988  0.3611 -0.2250  0.2583
   52HFI     H1 1112   1.478   2.231   2.785  3.1640  1.1052 -0.9111
   52HFI     H2 1113   1.629   2.414   2.807  1.7441 -0.0170  1.1244
   53HFI     O1 1114   0.857   0.969   0.977  0.6788 -0.0973  0.3745
   53HFI     C1 1115   0.715   0.956   0.970 -0.0335 -0.7679 -0.1278
   53HFI     C2 1116   0.653   0.971   0.831 -0.4190 -0.1342  0.2909
   53HFI     F1 1117   0.619   1.096   0.801  0.1050 -0.4026  0.5188
   53HFI     F2 1118   0.554   0.890   0.812  0.0595 -0.4984 -0.1684
   53HFI     F3 1119   0.743   0.931   0.734 -0.3598 -0.1261 -0.4678
   53HFI     C3 1120   0.644   1.052   1.065 -0.2240 -0.1815 -0.1523
   53HFI     F4 1121   0.513   1.043   1.059  0.2275  0.2212  0.2095
   53HFI     F5 1122   0.674   1.181   1.041 -0.0622 -0.1387  0.8830
   53HFI     F6 1123   0.685   1.032   1.196 -0.2687  0.1566 -0.1711
   53HFI     H1 1124   0.899   0.942   0.894  1.0839  0.5753  0.3611
   53HFI     H2 1125   0.696   0.857   1.012 -1.7316 -1.3417 -2.1836
   54HFI     O1 1126   2.194   1.168   0.612 -0.3173 -0.6303 -0.1703
   54HFI     C1 1127   2.159   1.276   0.516 -0.7090  0.5251 -0.2116
   54HFI     C2 1128   2.272   1.387   0.519  0.1594 -0.0233  0.2437
   54HFI     F1 1129   2.262   1.455   0.641 -0.6530 -0.6049 -0.1193
   54HFI     F2 1130   2.264   1.469   0.414 -0.0949 -0.0517  0.5527
   54HFI     F3 1131   2.388   1.323   0.511  0.0354  0.0432  0.2380
   54HFI     C3 1132   2.013   1.336   0.534 -0.1746  0.1780 -0.4262
   54HFI     F4 1133   1.982   1.430   0.431 -0.4630 -0.9088  0.0002
   54HFI     F5 1134   1.990   1.404   0.648 -0.7900 -0.5706 -0.2887
   54HFI     F6 1135   1.921   1.238   0.515  0.5685 -0.3734  0.5947
   54HFI     H1 1136   2.289   1.152   0.605  0.3705  0.4032  4.5832
   54HFI     H2 1137   2.162   1.229   0.417  2.2006 -0.4450  0.2826
   55HFI     O1 1138   1.930   3.112   0.876 -0.1642 -0.6417  0.0185
   55HFI     C1 1139   2.035   3.205   0.902 -0.5885 -0.2497  0.4854
   55HFI     C2 1140   2.118   3.167   1.021 -0.1133 -0.2834 -0.1781
   55HFI     F1 1141   2.159   3.040   1.009 -0.5612 -0.5743  0.0037
   55HFI     F2 1142   2.040   3.187   1.137 -0.4484 -0.0948  0.4477
   55HFI     F3 1143   2.229   3.250   1.025  0.3880  0.2539 -0.4206
   55HFI     C3 1144   1.992   3.353   0.875  0.5008 -0.4471 -0.6954
   55HFI     F4 1145   1.883   3.356   0.796 -0.2782 -0.0126 -0.0163
   55HFI     F5 1146   2.088   3.422   0.814 -0.0290  0.1458 -0.5072
   55HFI     F6 1147   1.956   3.413   0.987  0.2134 -0.0988  0.2341
   55HFI     H1 1148   1.888   3.084   0.959  0.6078 -1.1680  0.2342
   55HFI     H2 1149   2.110   3.180   0.826  0.6201  0.1109  1.5434
   56HFI     O1 1150   1.453   0.974   0.909  0.1312 -0.2519  0.6430
   56HFI     C1 1151   1.384   1.047   1.020 -1.1412 -0.1696  0.5554
   56HFI     C2 1152   1.485   1.083   1.142 -0.4830 -0.0917  0.7598
   56HFI     F1 1153   1.540   0.968   1.189 -0.4128  0.1257  0.2100
   56HFI     F2 1154   1.414   1.147   1.240 -0.3756  0.3521  0.3811
   56HFI     F3 1155   1.592   1.162   1.107  0.1749  0.4425 -0.1934
   56HFI     C3 1156   1.258   0.975   1.069 -0.2169 -0.0477 -0.1162
   56HFI     F4 1157   1.174   1.066   1.133  0.7010 -0.1892  0.2645
   56HFI     F5 1158   1.283   0.878   1.155  0.1918  0.2805  0.0757
   56HFI     F6 1159   1.187   0.917   0.970 -0.0805 -0.0379  0.1580
   56HFI     H1 1160   1.544   0.951   0.935 -0.8383 -4.1563  0.8767
   56HFI     H2 1161   1.351   1.144   0.983  0.2786  0.6131  1.3010
   57HFI     O1 1162   0.710   1.051   3.003  0.6690 -0.4243  0.0633
   57HFI     C1 1163   0.641   0.977   2.896  0.0688  0.5409  0.2239
   57HFI     C2 1164   0.725   0.968   2.768  0.3230 -0.7719 -0.3700
   57HFI     F1 1165   0.835   0.887   2.797  0.0122  0.0581 -0.6468
   57HFI     F2 1166   0.776   1.090   2.732  0.1201  0.5478 -0.0259
   57HFI     F3 1167   0.658   0.918   2.658 -0.1747  0.3805  0.3804
   57HFI     C3 1168   0.495   1.014   2.888  0.3496  0.0140 -0.2201
   57HFI     F4 1169   0.433   0.902   2.840  0.1229 -0.7150  0.1176
   57HFI     F5 1170   0.473   1.122   2.806  0.2003  0.4307 -0.4520
   57HFI     F6 1171   0.450   1.037   3.013  0.3799 -0.7184  0.1290
   57HFI     H1 1172   0.697   1.146   2.984  1.2289 -0.3257  0.1483
   57HFI     H2 1173   0.637   0.873   2.932  0.2218  0.5346  0.2223
   58HFI     O1 1174   0.233   0.442   1.510  0.3408 -0.1941  0.4152
   58HFI     C1 1175   0.206   0.301   1.532 -0.3541  0.2830 -0.0057
   58HFI     C2 1176   0.329   0.214   1.496 -0.4016 -0.2476  0.2593
   58HFI     F1 1177   0.295   0.083   1.464  0.2273 -0.0491  0.3612
   58HFI     F2 1178   0.415   0.217   1.594  0.1288 -0.1001 -0.2643
   58HFI     F3 1179   0.383   0.268   1.385 -0.5263  0.1493  0.2240
   58HFI     C3 1180   0.080   0.267   1.459  0.2793 -0.4209  0.1633
   58HFI     F4 1181   0.032   0.140   1.488 -0.1860  0.0494  1.1251
   58HFI     F5 1182   0.090   0.279   1.330  0.3547  0.3876 -0.1718
   58HFI     F6 1183  -0.017   0.355   1.495  0.1265  0.0441 -0.0139
   58HFI     H1 1184   0.154   0.492   1.537  0.7937  0.3113  0.7948
   58HFI     H2 1185   0.190   0.283   1.639 -1.0810 -0.8788 -0.3003
   59HFI     O1 1186   3.386   1.856   1.433 -0.2439  0.2442  0.4738
   59HFI     C1 1187   3.503   1.923   1.492  0.4039  0.5790 -0.0605
   59HFI     C2 1188   3.504   2.083   1.483 -0.3152 -0.2990 -0.7003
   59HFI     F1 1189   3.401   2.153   1.536 -0.1782 -0.5637  0.3858
   59HFI     F2 1190   3.531   2.124   1.355 -0.0182  0.1427 -0.6440
   59HFI     F3 1191   3.607   2.129   1.551 -0.1281 -0.6963 -0.0512
   59HFI     C3 1192   3.642   1.859   1.435 -0.3553 -0.3027 -0.7274
   59HFI     F4 1193   3.644   1.716   1.436 -0.0008  0.1516  0.0509
   59HFI     F5 1194   3.749   1.903   1.512  0.2640  0.6548  0.0121
   59HFI     F6 1195   3.675   1.885   1.306 -0.0597  0.2463 -0.1934
   59HFI     H1 1196   3.315   1.847   1.499 -0.5412  0.7126  0.2242
   59HFI     H2 1197   3.491   1.900   1.599 -2.1466  0.2487 -0.4011
   60HFI     O1 1198   1.006   3.355   0.157  0.1570 -0.0302 -0.2098
   60HFI     C1 1199   0.961   3.292   0.034  0.4869  0.5033  0.3317
   60HFI     C2 1200   1.084   3.273  -0.046  0.0740 -0.2925  0.0785
   60HFI     F1 1201   1.059   3.209  -0.165  0.0189 -0.0535 -0.3775
   60HFI     F2 1202   1.166   3.188   0.023  0.1119  0.8960  0.2322
   60HFI     F3 1203   1.145   3.389  -0.075  0.6516 -0.0408  0.2201
   60HFI     C3 1204   0.843   3.357  -0.049 -0.0054 -0.6256 -0.6226
   60HFI     F4 1205   0.880   3.471  -0.110 -0.2013  0.1580  0.3032
   60HFI     F5 1206   0.737   3.388   0.028  0.0162  0.4142 -0.4146
   60HFI     F6 1207   0.795   3.268  -0.137  0.4851  0.0690 -0.2281
   60HFI     H1 1208   0.949   3.433   0.172  1.2085  0.8665 -0.8073
   60HFI     H2 1209   0.929   3.192   0.069 -0.7165  1.0917  0.9401
   61HFI     O1 1210   1.271   1.584   0.165  0.1309 -0.0372 -0.7173
   61HFI     C1 1211   1.244   1.633   0.301 -0.6437  0.4203  0.1351
   61HFI     C2 1212   1.367   1.642   0.398 -0.2412  0.3858  0.1001
   61HFI     F1 1213   1.446   1.739   0.362 -0.2263  0.3593  0.2232
   61HFI     F2 1214   1.435   1.528   0.390  0.1886 -0.3625 -0.9959
   61HFI     F3 1215   1.339   1.656   0.528  0.0123 -0.2350 -0.1020
   61HFI     C3 1216   1.119   1.570   0.360  0.0499  0.7771  0.1706
   61HFI     F4 1217   1.017   1.589   0.266 -0.5607 -0.2931 -0.2316
   61HFI     F5 1218   1.070   1.641   0.476  0.2598  0.4805 -0.6515
   61HFI     F6 1219   1.129   1.441   0.389  0.0815  0.1915 -0.2967
   61HFI     H1 1220   1.265   1.487   0.175 -0.8341 -0.0371 -1.2985
   61HFI     H2 1221   1.213   1.738   0.292 -1.1599  0.5250  2.7450
   62HFI     O1 1222   0.131   3.256   0.656  0.8746 -0.8395 -0.2429
   62HFI     C1 1223   0.153   3.118   0.612  0.3259 -0.0147  0.4556
   62HFI     C2 1224   0.305   3.083   0.620 -0.1653  0.4765  0.0604
   62HFI     F1 1225   0.320   2.962   0.574  0.5241  0.5166 -0.3401
   62HFI     F2 1226   0.354   3.080   0.750  0.2043  0.7182  0.0599
   62HFI     F3 1227   0.380   3.167   0.552 -0.3302 -0.1338  0.4368
   62HFI     C3 1228   0.093   3.100   0.470 -0.7435  0.4432 -0.5536
   62HFI     F4 1229   0.152   3.175   0.375 -0.6743  0.4052 -0.2498
   62HFI     F5 1230  -0.039   3.126   0.467  0.0583  0.2200  0.4456
   62HFI     F6 1231   0.097   2.962   0.436 -0.0383 -0.4910  0.4290
   62HFI     H1 1232   0.089   3.297   0.578  2.4534  0.8967 -0.2213
   62HFI     H2 1233   0.098   3.050   0.679  0.5233 -1.8832 -1.2163
   63HFI     O1 1234   3.390   2.333   3.012  0.0035 -1.2969 -0.7106
   63HFI     C1 1235   3.479   2.318   2.894  0.3361 -0.0651  0.1406
   63HFI     C2 1236   3.456   2.448   2.796  0.3731 -0.3350  0.0311
   63HFI     F1 1237   3.345   2.440   2.724  0.0672  0.7566  0.5819
   63HFI     F2 1238   3.557   2.462   2.708  0.2016 -0.3484 -0.1147
   63HFI     F3 1239   3.451   2.563   2.873  0.4322 -0.0600  0.0336
   63HFI     C3 1240   3.455   2.177   2.826  0.1148 -0.6966  0.8603
   63HFI     F4 1241   3.536   2.159   2.719 -0.0777 -0.3535  0.1203
   63HFI     F5 1242   3.330   2.165   2.778  0.2941 -0.2170  0.0313
   63HFI     F6 1243   3.481   2.076   2.915  0.1143  0.3034  0.2017
   63HFI     H1 1244   3.441   2.331   3.096  0.9033 -2.3555 -1.2736
   63HFI     H2 1245   3.586   2.317   2.917  1.3798 -0.1180 -4.2617
   64HFI     O1 1246   1.094   2.012   3.658  0.5346  0.4045  0.8815
   64HFI     C1 1247   1.137   1.871   3.652 -0.0470  0.0126 -0.5649
   64HFI     C2 1248   1.048   1.789   3.746 -0.0419 -0.0660  0.1222
   64HFI     F1 1249   0.921   1.829   3.729 -0.0969  0.1009 -0.8726
   64HFI     F2 1250   1.067   1.800   3.880  0.3175  0.4540 -0.6535
   64HFI     F3 1251   1.052   1.658   3.703 -0.1822 -0.0002 -0.6512
   64HFI     C3 1252   1.285   1.863   3.691  0.2209  0.1026 -0.1129
   64HFI     F4 1253   1.361   1.931   3.607 -0.1713  0.2333 -0.2625
   64HFI     F5 1254   1.336   1.743   3.690  0.0661 -0.5074  0.0825
   64HFI     F6 1255   1.297   1.916   3.818  0.0758 -0.2472 -0.0122
   64HFI     H1 1256   0.997   2.020   3.663  0.6503  1.4847  1.6077
   64HFI     H2 1257   1.128   1.843   3.547  1.0216 -1.0718 -0.3700
   65HFI     O1 1258   0.601   0.614   1.004  0.1156  0.0709 -0.2797
   65HFI     C1 1259   0.677   0.503   0.938 -0.1392  0.1838  1.1705
   65HFI     C2 1260   0.828   0.531   0.959  0.3554 -0.3447  0.3158
   65HFI     F1 1261   0.908   0.445   0.893 -0.0208  0.4746  0.1359
   65HFI     F2 1262   0.857   0.514   1.085 -0.1523 -0.3166 -0.2424
   65HFI     F3 1263   0.865   0.657   0.934 -0.1475  0.1618  0.2099
   65HFI     C3 1264   0.645   0.484   0.789 -0.1929  1.0559  0.0553
   65HFI     F4 1265   0.519   0.461   0.768 -0.1012 -0.8811 -0.3136
   65HFI     F5 1266   0.708   0.381   0.738  0.7806  0.0274  0.2063
   65HFI     F6 1267   0.672   0.595   0.717  0.1282  0.2471 -0.3920
   65HFI     H1 1268   0.504   0.607   1.002  0.0674  0.7970 -0.7075
   65HFI     H2 1269   0.661   0.413   0.999  1.0636 -1.3325 -0.6774
   66HFI     O1 1270   1.944   2.680   0.941 -0.7088 -0.0103 -0.4132
   66HFI     C1 1271   1.861   2.674   1.061 -0.1254 -0.3564 -0.7318
   66HFI     C2 1272   1.864   2.812   1.143 -0.1090 -0.0123 -0.3306
   66HFI     F1 1273   1.969   2.817   1.223 -0.0617  0.2432  0.6116
   66HFI     F2 1274   1.751   2.825   1.223 -0.1755 -0.2848 -0.7946
   66HFI     F3 1275   1.870   2.913   1.052 -0.0146 -0.0694  0.0471
   66HFI     C3 1276   1.897   2.558   1.155 -0.5429 -0.0019  0.0688
   66HFI     F4 1277   1.830   2.535   1.263  0.2450 -0.2852 -0.1556
   66HFI     F5 1278   2.028   2.572   1.191  0.3062  0.0074  0.2900
   66HFI     F6 1279   1.908   2.442   1.091 -0.3662  0.4590 -0.7258
   66HFI     H1 1280   2.036   2.690   0.968 -0.7627 -0.7260  0.0495
   66HFI     H2 1281   1.757   2.664   1.029 -0.7719  1.3138  0.7922
   67HFI     O1 1282   1.365   2.439   3.375 -0.4828 -0.4075 -0.1113
   67HFI     C1 1283   1.467   2.542   3.325 -0.3959  0.4905 -0.0396
   67HFI     C2 1284   1.612   2.510   3.390 -0.6330  0.1445 -1.0745
   67HFI     F1 1285   1.646   2.386   3.355 -0.0633 -0.0838  0.3494
   67HFI     F2 1286   1.614   2.517   3.524 -0.0899  0.2906 -0.3315
   67HFI     F3 1287   1.700   2.588   3.338  0.2547  0.0144  0.1886
   67HFI     C3 1288   1.420   2.686   3.355 -0.2325  0.0117 -0.4715
   67HFI     F4 1289   1.497   2.783   3.296 -0.6903 -0.3175 -0.6115
   67HFI     F5 1290   1.404   2.719   3.490 -0.2372  0.6986 -0.0529
   67HFI     F6 1291   1.297   2.702   3.302 -0.5263  0.1961 -0.2595
   67HFI     H1 1292   1.289   2.476   3.424 -2.5959 -0.9373 -2.9319
   67HFI     H2 1293   1.475   2.540   3.215 -1.1305  1.5103 -0.1232
   68HFI     O1 1294   1.194   1.532   3.330 -0.4505 -0.3489 -0.5443
   68HFI     C1 1295   1.315   1.511   3.403 -0.2606 -0.6003 -0.4441
   68HFI     C2 1296   1.433   1.464   3.312  0.3415  0.4277  0.7111
   68HFI     F1 1297   1.397   1.359   3.229  0.2144 -0.0686  0.4177
   68HFI     F2 1298   1.534   1.423   3.391  0.5189 -0.3627 -0.4963
   68HFI     F3 1299   1.471   1.565   3.235 -0.1959 -0.4837  0.4056
   68HFI     C3 1300   1.295   1.413   3.522 -0.3911 -0.7372  0.2711
   68HFI     F4 1301   1.181   1.437   3.593  0.1239  0.1385 -0.0217
   68HFI     F5 1302   1.397   1.430   3.617  0.4202  0.2750  0.4245
   68HFI     F6 1303   1.296   1.288   3.487  0.3380  0.2783  0.3579
   68HFI     H1 1304   1.220   1.540   3.237 -0.4361  1.4617 -0.4174
   68HFI     H2 1305   1.343   1.606   3.449 -0.9917 -1.3528  1.6042
   69HFI     O1 1306   1.962   2.875   0.319 -0.8400 -0.1725 -0.6976
   69HFI     C1 1307   1.912   2.797   0.433  0.1516 -0.5102 -0.0211
   69HFI     C2 1308   1.840   2.886   0.545  0.6431 -1.5839  0.2606
   69HFI     F1 1309   1.807   2.821   0.651 -0.0385  0.2665  0.0357
   69HFI     F2 1310   1.724   2.936   0.499 -0.0898 -0.0968 -0.3401
   69HFI     F3 1311   1.918   2.985   0.590  0.2971 -0.1470 -0.7865
   69HFI     C3 1312   2.031   2.710   0.483 -0.0617 -0.4200  0.3042
   69HFI     F4 1313   1.999   2.617   0.573 -0.0792 -0.1232  0.2047
   69HFI     F5 1314   2.130   2.780   0.541 -0.0625 -0.3883  0.4066
   69HFI     F6 1315   2.087   2.643   0.379 -0.2452  0.6398  0.1499
   69HFI     H1 1316   1.997   2.815   0.251 -1.6306 -1.2549 -0.1724
   69HFI     H2 1317   1.837   2.722   0.404 -0.9261 -0.1978  1.8664
   70HFI     O1 1318   0.491   0.300   0.112  0.7467 -0.0533 -0.1493
   70HFI     C1 1319   0.359   0.342   0.174 -0.6893 -0.8601 -0.1466
   70HFI     C2 1320   0.257   0.393   0.064  0.1023 -0.3795 -0.1775
   70HFI     F1 1321   0.303   0.502   0.003  0.4118 -0.1541  0.3765
   70HFI     F2 1322   0.135   0.419   0.128  0.0232 -0.1480  0.2564
   70HFI     F3 1323   0.243   0.287  -0.024 -0.2901  0.5942 -0.6048
   70HFI     C3 1324   0.378   0.435   0.300 -0.7111  0.5853 -0.1696
   70HFI     F4 1325   0.475   0.396   0.386  0.1500 -0.3764 -0.5174
   70HFI     F5 1326   0.262   0.444   0.374  0.0029 -0.8588 -0.4263
   70HFI     F6 1327   0.404   0.563   0.269 -0.5081  0.1803 -0.5196
   70HFI     H1 1328   0.561   0.286   0.178 -0.4439  1.3937  1.4466
   70HFI     H2 1329   0.310   0.252   0.214  1.0193 -1.8470 -0.2263
   71HFI     O1 1330   3.037   1.097   2.709 -0.0450 -0.3332  0.7389
   71HFI     C1 1331   2.903   1.120   2.747  0.6182  0.4414  0.0329
   71HFI     C2 1332   2.878   1.118   2.899  0.2822 -0.0944 -0.2161
   71HFI     F1 1333   2.950   1.220   2.949 -0.4894  0.2304 -0.1819
   71HFI     F2 1334   2.922   1.002   2.958  0.2897  0.4546 -0.1375
   71HFI     F3 1335   2.749   1.147   2.930  0.2765  0.3776 -0.0054
   71HFI     C3 1336   2.814   1.014   2.676  0.3214 -0.2431 -0.1788
   71HFI     F4 1337   2.806   1.029   2.547  0.4219  0.0404 -0.3346
   71HFI     F5 1338   2.681   1.015   2.717  0.0198  0.3745 -0.2703
   71HFI     F6 1339   2.866   0.889   2.704  0.1762 -0.2985 -0.2245
   71HFI     H1 1340   3.060   1.011   2.748 -0.0529 -0.4861  0.4075
   71HFI     H2 1341   2.873   1.219   2.711  0.9475  1.0630  1.4613
   72HFI     O1 1342   2.304   1.692   1.382  0.2485  0.2260  0.6212
   72HFI     C1 1343   2.386   1.641   1.488 -0.5993 -0.2782  0.0196
   72HFI     C2 1344   2.495   1.743   1.519  0.0909 -0.3853 -0.1987
   72HFI     F1 1345   2.563   1.775   1.407 -0.0513 -0.6874 -0.3439
   72HFI     F2 1346   2.582   1.689   1.603  0.6587  0.2883 -0.0789
   72HFI     F3 1347   2.447   1.853   1.577 -0.1502 -0.2765 -0.4400
   72HFI     C3 1348   2.433   1.491   1.459  0.9297  0.1516  0.0990
   72HFI     F4 1349   2.535   1.489   1.372  0.3899 -0.4262 -0.5160
   72HFI     F5 1350   2.330   1.419   1.402 -0.1450  0.2420  0.8282
   72HFI     F6 1351   2.472   1.436   1.575  0.3967  0.1072 -0.8409
   72HFI     H1 1352   2.344   1.777   1.356 -1.2902  1.7715  3.0468
   72HFI     H2 1353   2.331   1.630   1.583 -1.2177  5.1097  0.4127
   73HFI     O1 1354   0.751   2.442   0.579  0.1692  0.4711 -0.2224
   73HFI     C1 1355   0.622   2.504   0.594 -0.4841  0.0742 -0.1751
   73HFI     C2 1356   0.618   2.633   0.517 -0.7909 -0.2570  0.2163
   73HFI     F1 1357   0.698   2.632   0.409  0.0602  0.3848  0.4237
   73HFI     F2 1358   0.657   2.743   0.586 -0.2142  0.0473  0.1683
   73HFI     F3 1359   0.492   2.661   0.467  0.4748  0.2822  0.1610
   73HFI     C3 1360   0.585   2.525   0.740 -0.1772  0.4541 -0.5136
   73HFI     F4 1361   0.668   2.596   0.815 -0.7799  0.7972  0.2882
   73HFI     F5 1362   0.570   2.405   0.806  0.2728 -0.5367 -0.1557
   73HFI     F6 1363   0.466   2.586   0.747 -0.1611  0.1958 -0.1388
   73HFI     H1 1364   0.820   2.482   0.634  0.3219 -0.0745 -0.0131
   73HFI     H2 1365   0.549   2.440   0.544 -1.8394  1.4955 -0.0673
   74HFI     O1 1366   2.605   2.497   2.446  0.0875 -0.4591  0.8304
   74HFI     C1 1367   2.723   2.482   2.362  0.8104 -0.0126  0.1283
   74HFI     C2 1368   2.752   2.608   2.277  0.1588  0.4247  0.1532
   74HFI     F1 1369   2.785   2.720   2.345  0.1991  0.1066 -0.6180
   74HFI     F2 1370   2.643   2.639   2.203 -0.4943 -0.2451  0.5050
   74HFI     F3 1371   2.860   2.579   2.199 -0.1181  0.1117 -0.8017
   74HFI     C3 1372   2.713   2.343   2.272  0.1694  0.8443  0.0505
   74HFI     F4 1373   2.610   2.342   2.185 -0.1149 -0.0626  0.0954
   74HFI     F5 1374   2.702   2.243   2.361 -0.1888  0.4612  0.5480
   74HFI     F6 1375   2.824   2.313   2.203  0.3599 -0.1802 -0.6637
   74HFI     H1 1376   2.553   2.575   2.420  2.5884  1.9563  2.7852
   74HFI     H2 1377   2.808   2.458   2.427 -0.5915  0.2458  2.0655
   75HFI     O1 1378   1.218   3.217   1.205  0.3803  0.4581 -0.1224
   75HFI     C1 1379   1.222   3.192   1.349 -0.4524 -0.5582 -0.8575
   75HFI     C2 1380   1.226   3.318   1.441  0.1595 -0.6081  0.0039
   75HFI     F1 1381   1.356   3.362   1.453  0.3195 -0.5679 -0.5113
   75HFI     F2 1382   1.197   3.296   1.564 -0.4541 -0.3424  0.1091
   75HFI     F3 1383   1.151   3.420   1.396 -0.5159 -0.0916 -0.0018
   75HFI     C3 1384   1.326   3.088   1.393  0.4142 -0.7225 -0.8050
   75HFI     F4 1385   1.349   3.067   1.528  0.0868  0.4455  0.4184
   75HFI     F5 1386   1.443   3.115   1.340  0.1839 -0.5674  0.2796
   75HFI     F6 1387   1.296   2.973   1.343 -0.2828 -0.4094  0.2826
   75HFI     H1 1388   1.274   3.293   1.184  0.6616  1.0136  2.4190
   75HFI     H2 1389   1.132   3.141   1.384 -0.0267  0.2864  1.5725
   76HFI     O1 1390   0.603   1.321   0.606 -0.6254 -0.2531  0.1115
   76HFI     C1 1391   0.652   1.346   0.469 -0.0689 -0.1589  0.2306
   76HFI     C2 1392   0.796   1.298   0.435 -0.5241  0.5677  0.0286
   76HFI     F1 1393   0.814   1.176   0.460 -0.3210 -0.0579  0.3229
   76HFI     F2 1394   0.888   1.368   0.507  0.1007  0.0024  0.4386
   76HFI     F3 1395   0.824   1.312   0.300 -0.3938 -0.0847 -0.4804
   76HFI     C3 1396   0.635   1.494   0.439 -0.1910 -0.4934 -0.1378
   76HFI     F4 1397   0.736   1.574   0.485  0.6165 -0.1545 -0.3581
   76HFI     F5 1398   0.520   1.539   0.491  0.5850 -0.2932 -0.8004
   76HFI     F6 1399   0.625   1.516   0.309 -0.2839 -0.2367  0.6465
   76HFI     H1 1400   0.592   1.409   0.646  1.2192  0.6074 -1.1842
   76HFI     H2 1401   0.579   1.301   0.401 -1.5492  0.1087  1.6066
   77HFI     O1 1402   1.919   0.909   3.031 -0.1779 -0.2568 -0.6162
   77HFI     C1 1403   1.947   0.943   2.892  0.5202  0.7155  0.0551
   77HFI     C2 1404   1.868   1.063   2.835  0.3811  0.0053 -0.1958
   77HFI     F1 1405   1.840   1.155   2.934 -0.1999 -0.2680  0.2604
   77HFI     F2 1406   1.749   1.030   2.787  0.5914 -0.0468  0.5492
   77HFI     F3 1407   1.936   1.129   2.739 -0.4257  0.2061  0.2837
   77HFI     C3 1408   1.943   0.819   2.800 -0.8865  0.3199  0.1172
   77HFI     F4 1409   2.010   0.712   2.858  0.3660  0.2434 -0.3761
   77HFI     F5 1410   2.007   0.849   2.678  0.1011 -0.1807 -0.5735
   77HFI     F6 1411   1.814   0.782   2.775 -0.6751  0.0900  0.0142
   77HFI     H1 1412   1.983   0.843   3.063  0.2601  0.6860  0.4538
   77HFI     H2 1413   2.053   0.969   2.884  0.1434  2.2713 -0.0373
   78HFI     O1 1414   0.099   2.664   0.461 -0.1472 -0.2080  0.6064
   78HFI     C1 1415   0.086   2.547   0.383 -0.1619 -0.7362 -0.4974
   78HFI     C2 1416   0.140   2.413   0.454 -0.2304 -0.3610  0.1573
   78HFI     F1 1417   0.077   2.374   0.565 -0.1217  0.2253  0.3279
   78HFI     F2 1418   0.270   2.426   0.481  0.3980 -0.0185 -0.0232
   78HFI     F3 1419   0.131   2.306   0.371  0.7720  0.2937 -0.1988
   78HFI     C3 1420   0.149   2.572   0.236  0.5580 -0.5141 -0.1154
   78HFI     F4 1421   0.075   2.503   0.146 -0.4443  0.0544 -0.6567
   78HFI     F5 1422   0.271   2.519   0.232 -0.4984 -0.2944  0.3131
   78HFI     F6 1423   0.147   2.701   0.199 -0.1352 -0.1053 -0.3739
   78HFI     H1 1424   0.112   2.739   0.401 -4.2067  0.4376  0.3697
   78HFI     H2 1425  -0.021   2.532   0.361 -0.4629  1.2032 -0.4168
   79HFI     O1 1426   0.942   2.112   1.072  0.1490  0.1601 -0.0332
   79HFI     C1 1427   0.917   2.223   0.981  0.0752 -0.0038  0.0921
   79HFI     C2 1428   1.018   2.223   0.846  0.2481 -0.7403 -1.5414
   79HFI     F1 1429   1.026   2.104   0.780 -0.2449 -0.4222 -0.1954
   79HFI     F2 1430   1.140   2.256   0.893 -0.2393  0.3676  0.0269
   79HFI     F3 1431   1.000   2.314   0.753  0.7306 -0.2697 -0.1598
   79HFI     C3 1432   0.928   2.363   1.043  0.5159 -0.1521  0.4149
   79HFI     F4 1433   1.047   2.380   1.110  0.2612 -0.0699 -0.0559
   79HFI     F5 1434   0.827   2.371   1.135  0.0066 -0.0571 -0.3520
   79HFI     F6 1435   0.910   2.461   0.948 -0.3016  0.0611  0.0052
   79HFI     H1 1436   1.033   2.080   1.058 -0.5586 -1.1534 -1.9110
   79HFI     H2 1437   0.812   2.219   0.950 -0.0470 -0.2179  0.5258
   80HFI     O1 1438   0.820   2.060   1.375  0.1065 -0.2288  0.1371
   80HFI     C1 1439   0.690   2.120   1.371  0.1964  0.2102 -0.0747
   80HFI     C2 1440   0.658   2.153   1.517 -0.0642 -0.4271  0.2333
   80HFI     F1 1441   0.645   2.041   1.593  0.2060  0.0495 -0.0343
   80HFI     F2 1442   0.536   2.214   1.533  0.8809 -0.1000  0.2871
   80HFI     F3 1443   0.759   2.225   1.568  0.1013 -0.2916 -0.2162
   80HFI     C3 1444   0.586   2.031   1.299 -0.1812  0.4414 -0.1749
   80HFI     F4 1445   0.456   2.082   1.324 -0.3987  0.5441  0.0878
   80HFI     F5 1446   0.590   1.900   1.336 -0.0918 -0.3004  0.4482
   80HFI     F6 1447   0.612   2.020   1.168  0.1032 -0.3568  0.7160
   80HFI     H1 1448   0.834   2.035   1.468 -1.2207 -1.2723  0.0661
   80HFI     H2 1449   0.703   2.211   1.312  0.0865 -0.8757 -1.7837
   81HFI     O1 1450   0.586   3.359   0.697 -0.2435  0.1296  0.2249
   81HFI     C1 1451   0.673   3.451   0.622  0.6395 -0.0835 -0.0100
   81HFI     C2 1452   0.594   3.563   0.535 -0.6680  0.2327  0.3267
   81HFI     F1 1453   0.493   3.507   0.463 -0.3173  0.2067  0.1462
   81HFI     F2 1454   0.668   3.637   0.446  0.2948  0.4892  0.1115
   81HFI     F3 1455   0.530   3.651   0.615  0.0870 -0.1511 -0.0191
   81HFI     C3 1456   0.794   3.382   0.552 -0.1186 -0.4788  0.4314
   81HFI     F4 1457   0.749   3.308   0.441  0.4122  0.1382 -0.5357
   81HFI     F5 1458   0.857   3.301   0.636 -0.0435  0.7046  0.3226
   81HFI     F6 1459   0.882   3.471   0.504  0.2674 -0.4977 -0.0650
   81HFI     H1 1460   0.515   3.338   0.635 -0.5534  0.6281  0.4123
   81HFI     H2 1461   0.734   3.514   0.688  2.6954 -0.9436 -1.0500
   82HFI     O1 1462   2.982   0.463   0.734 -0.1842 -0.2778 -0.0419
   82HFI     C1 1463   3.072   0.534   0.815 -0.0153 -0.0307 -0.4180
   82HFI     C2 1464   3.054   0.464   0.960 -0.3758 -0.0759  0.8612
   82HFI     F1 1465   3.134   0.525   1.055  0.2313  0.2040  0.2559
   82HFI     F2 1466   3.103   0.335   0.951  0.2026 -0.3586 -0.3865
   82HFI     F3 1467   2.925   0.458   1.000  0.1930  0.2573 -0.0423
   82HFI     C3 1468   3.040   0.681   0.824  0.2898  0.1846 -0.9220
   82HFI     F4 1469   3.140   0.743   0.884 -0.2052  0.3018  0.2145
   82HFI     F5 1470   2.924   0.712   0.892  0.0496 -0.0603  0.0148
   82HFI     F6 1471   3.037   0.726   0.701 -0.5814 -0.0933 -0.2420
   82HFI     H1 1472   2.898   0.450   0.782 -0.2047  1.2443  0.3705
   82HFI     H2 1473   3.172   0.526   0.770 -0.0223 -0.1835 -0.4045
   83HFI     O1 1474   0.764   3.301   1.014  0.2542 -0.0761 -0.1202
   83HFI     C1 1475   0.865   3.403   1.047  0.2714  0.6523  0.0192
   83HFI     C2 1476   0.796   3.540   1.061 -0.2102  0.9190 -0.3736
   83HFI     F1 1477   0.882   3.652   1.069  0.2402 -0.0862  0.0552
   83HFI     F2 1478   0.722   3.541   1.166  0.5094  0.2997 -0.0142
   83HFI     F3 1479   0.714   3.558   0.954  0.0909  0.0105 -0.6203
   83HFI     C3 1480   0.979   3.403   0.951  0.1625 -0.4240  0.4114
   83HFI     F4 1481   1.016   3.277   0.919  0.1984  0.1417 -0.4588
   83HFI     F5 1482   1.092   3.450   1.009 -0.1878 -0.2619 -0.2440
   83HFI     F6 1483   0.957   3.473   0.834 -0.2201  0.1657 -0.1869
   83HFI     H1 1484   0.764   3.298   0.917  1.3889 -0.0445 -0.1244
   83HFI     H2 1485   0.902   3.376   1.146 -1.0942 -2.5977 -0.2973
   84HFI     O1 1486   0.926   1.466   3.428 -0.6288  0.0978 -0.3719
   84HFI     C1 1487   0.831   1.534   3.334  0.8049  0.2782 -0.2592
   84HFI     C2 1488   0.837   1.466   3.190 -0.4545  0.6472  0.2710
   84HFI     F1 1489   0.807   1.332   3.209  0.1990 -0.0169  0.2317
   84HFI     F2 1490   0.955   1.470   3.125 -0.1389  0.5319  0.7616
   84HFI     F3 1491   0.750   1.516   3.112  0.4102  0.0875  0.2525
   84HFI     C3 1492   0.844   1.688   3.339 -0.4593  0.3733 -0.5980
   84HFI     F4 1493   0.855   1.735   3.467  0.1924 -0.3555  0.2194
   84HFI     F5 1494   0.742   1.738   3.287  0.0112 -0.3761  0.6113
   84HFI     F6 1495   0.953   1.729   3.267 -0.1834 -0.6766 -0.2494
   84HFI     H1 1496   1.019   1.478   3.402 -0.6246 -0.3887 -0.5927
   84HFI     H2 1497   0.732   1.524   3.381  0.9908  0.8347  0.2614
   85HFI     O1 1498   1.851   2.584   0.119  0.5732 -0.2113 -0.2064
   85HFI     C1 1499   1.828   2.437   0.145 -0.2665  0.4350  0.0183
   85HFI     C2 1500   1.781   2.363   0.028  0.1186  0.6449  0.2107
   85HFI     F1 1501   1.667   2.412  -0.014 -0.6672 -0.3853 -0.2356
   85HFI     F2 1502   1.765   2.231   0.061 -0.1955  0.0236 -0.3212
   85HFI     F3 1503   1.867   2.372  -0.075  0.5697 -0.2874  0.2390
   85HFI     C3 1504   1.748   2.412   0.272 -0.3465  0.3267  0.1071
   85HFI     F4 1505   1.621   2.440   0.260 -0.1920  0.3467  0.0661
   85HFI     F5 1506   1.812   2.485   0.364 -0.3388 -0.2519  0.1410
   85HFI     F6 1507   1.760   2.284   0.313 -0.3846  0.6982 -0.0889
   85HFI     H1 1508   1.862   2.593   0.023  0.0601  0.0852 -0.2371
   85HFI     H2 1509   1.926   2.390   0.161  0.0186  1.0466  0.1032
   86HFI     O1 1510   0.314   1.420   1.085 -0.0201  0.0130 -0.4058
   86HFI     C1 1511   0.459   1.451   1.068 -0.8935 -0.4157 -0.1461
   86HFI     C2 1512   0.480   1.596   1.131 -0.1534 -0.2786  0.0242
   86HFI     F1 1513   0.408   1.694   1.071 -0.3832  0.1569  0.4565
   86HFI     F2 1514   0.613   1.625   1.130  0.0197 -0.2112  0.0011
   86HFI     F3 1515   0.436   1.596   1.257 -0.0277  0.6834  0.3012
   86HFI     C3 1516   0.503   1.428   0.917  0.7062  0.6008  0.2610
   86HFI     F4 1517   0.447   1.518   0.833  0.8092 -0.6020  0.3321
   86HFI     F5 1518   0.466   1.305   0.874 -0.5322  0.1984  0.6218
   86HFI     F6 1519   0.635   1.434   0.901 -0.5829 -0.3727 -0.3311
   86HFI     H1 1520   0.289   1.428   1.179  0.8149  1.8528 -0.3138
   86HFI     H2 1521   0.520   1.385   1.131 -0.6950 -0.2470 -0.1621
   87HFI     O1 1522   0.900   1.350   0.057  0.2223  0.1833  0.4680
   87HFI     C1 1523   0.836   1.396  -0.072  0.5571  0.1146 -0.3239
   87HFI     C2 1524   0.731   1.514  -0.050  0.5990 -0.2412 -0.2165
   87HFI     F1 1525   0.606   1.482   0.005  0.0030  0.0089  0.0267
   87HFI     F2 1526   0.713   1.583  -0.168 -0.2723 -0.0468 -0.0015
   87HFI     F3 1527   0.783   1.605   0.032 -0.0707  0.0814 -0.1291
   87HFI     C3 1528   0.763   1.272  -0.136  0.7591  0.0461 -0.5705
   87HFI     F4 1529   0.676   1.209  -0.046 -0.5617  0.4898 -0.0358
   87HFI     F5 1530   0.855   1.185  -0.170 -0.0929 -0.0358  0.1052
   87HFI     F6 1531   0.705   1.305  -0.254 -0.5092  0.1247  0.6346
   87HFI     H1 1532   0.851   1.375   0.137 -0.8530 -0.5987  0.0675
   87HFI     H2 1533   0.912   1.430  -0.143  2.2777 -4.4219 -0.8280
   88HFI     O1 1534   1.657   0.015   0.008 -0.1577  0.7798  0.2023
   88HFI     C1 1535   1.700   0.111  -0.093 -0.1204  0.0456 -0.3330
   88HFI     C2 1536   1.668   0.073  -0.240 -0.4462  0.3508  0.9195
   88HFI     F1 1537   1.692   0.177  -0.321  0.3442  0.1658  0.1084
   88HFI     F2 1538   1.535   0.044  -0.246 -0.0608  0.5129  0.0513
   88HFI     F3 1539   1.730  -0.043  -0.286  0.0335 -0.4399  0.5005
   88HFI     C3 1540   1.843   0.158  -0.063 -0.7259  0.5044 -0.1646
   88HFI     F4 1541   1.879   0.267  -0.134  0.2118 -0.5914 -0.2185
   88HFI     F5 1542   1.930   0.057  -0.083 -0.3937  0.1256 -0.5901
   88HFI     F6 1543   1.842   0.195   0.067  0.0710  0.1551  0.0475
   88HFI     H1 1544   1.707   0.028   0.090  1.1078 -1.1508 -0.2487
   88HFI     H2 1545   1.640   0.202  -0.083 -3.1174 -1.5681 -2.8805
   89HFI     O1 1546   1.282   3.254   3.461  0.4925  0.8223 -0.3592
   89HFI     C1 1547   1.296   3.236   3.315  0.1560  0.1689  0.4481
   89HFI     C2 1548   1.415   3.152   3.283 -0.8511 -0.4249  0.6259
   89HFI     F1 1549   1.387   3.028   3.316  0.1003 -0.0163  0.0262
   89HFI     F2 1550   1.521   3.189   3.369  0.2342  0.2032 -0.4705
   89HFI     F3 1551   1.455   3.159   3.161  0.3009  0.2178  0.2693
   89HFI     C3 1552   1.307   3.374   3.243 -0.3832 -0.1830 -0.0871
   89HFI     F4 1553   1.201   3.449   3.277 -0.4600  0.1118  0.3417
   89HFI     F5 1554   1.312   3.372   3.111 -0.4636 -0.1557  0.4828
   89HFI     F6 1555   1.412   3.446   3.293 -0.0023  0.6000 -0.1461
   89HFI     H1 1556   1.370   3.231   3.497  0.0336  0.3609  0.4966
   89HFI     H2 1557   1.208   3.188   3.270  0.6527 -0.5239  0.2101
   90HFI     O1 1558   1.363   2.372   0.553 -0.1397  0.4271 -0.5543
   90HFI     C1 1559   1.384   2.494   0.475  0.5902  0.6008 -0.6593
   90HFI     C2 1560   1.503   2.578   0.530  0.8192 -0.2709 -0.2411
   90HFI     F1 1561   1.606   2.499   0.568 -0.4996 -0.3470 -0.0612
   90HFI     F2 1562   1.465   2.663   0.630  0.4318  0.3747 -0.1855
   90HFI     F3 1563   1.551   2.658   0.429  0.1574  0.5892  0.4343
   90HFI     C3 1564   1.255   2.581   0.462 -0.5179 -0.6773 -0.1621
   90HFI     F4 1565   1.153   2.511   0.400  0.0470  0.1002 -0.3091
   90HFI     F5 1566   1.283   2.692   0.385 -0.0735  0.3447 -0.3900
   90HFI     F6 1567   1.212   2.627   0.587  0.2408 -0.5642  0.1879
   90HFI     H1 1568   1.441   2.318   0.534  0.1112  0.3087  0.7282
   90HFI     H2 1569   1.421   2.467   0.376 -0.3643  1.3239 -1.2176
   91HFI     O1 1570   2.092   1.601   3.149 -0.1890  0.4389  0.0100
   91HFI     C1 1571   1.954   1.569   3.107 -0.2412  0.1428  0.3943
   91HFI     C2 1572   1.941   1.588   2.950 -0.9454  0.4047 -0.0844
   91HFI     F1 1573   1.835   1.525   2.902  0.2669 -0.0123 -0.0564
   91HFI     F2 1574   2.042   1.529   2.880 -0.0810  0.1136  0.0867
   91HFI     F3 1575   1.942   1.721   2.925 -0.4637  0.6180  0.7772
   91HFI     C3 1576   1.849   1.647   3.187  0.6493  0.2249  0.5113
   91HFI     F4 1577   1.867   1.618   3.317 -0.0450  0.3970 -0.0752
   91HFI     F5 1578   1.721   1.607   3.155 -0.0556  0.4521 -0.3559
   91HFI     F6 1579   1.856   1.780   3.169  0.0232 -0.9171 -0.5022
   91HFI     H1 1580   2.102   1.695   3.171 -0.0925  0.3431  0.3954
   91HFI     H2 1581   1.926   1.467   3.136  0.6504  0.3249  1.9197
   92HFI     O1 1582   2.555   0.680   1.519 -0.1423  0.2861  0.3675
   92HFI     C1 1583   2.602   0.577   1.420  0.1609  0.0092  0.8039
   92HFI     C2 1584   2.634   0.442   1.492 -0.1620  0.5513  0.0136
   92HFI     F1 1585   2.679   0.349   1.405 -0.5629 -0.6382 -0.1163
   92HFI     F2 1586   2.519   0.395   1.554 -0.3448 -0.6006  0.3539
   92HFI     F3 1587   2.730   0.455   1.591 -0.2242  0.0908 -0.3206
   92HFI     C3 1588   2.723   0.634   1.338  0.1738 -0.4190 -0.1604
   92HFI     F4 1589   2.826   0.646   1.422 -0.1452  0.6076  0.3994
   92HFI     F5 1590   2.694   0.758   1.290  0.1070  0.2705 -0.3483
   92HFI     F6 1591   2.749   0.553   1.227  0.1014  0.0277 -0.0336
   92HFI     H1 1592   2.632   0.702   1.573  0.3004 -1.0292  0.2803
   92HFI     H2 1593   2.529   0.564   1.339 -0.7203  0.3866  1.5185
   93HFI     O1 1594   1.123   2.880   2.687  0.2447  0.4874 -0.0838
   93HFI     C1 1595   1.099   2.983   2.792  0.5010  0.2214 -0.2037
   93HFI     C2 1596   1.213   2.997   2.889 -0.9523 -0.3533 -0.2516
   93HFI     F1 1597   1.328   3.017   2.822 -0.4345 -0.3571 -0.1227
   93HFI     F2 1598   1.236   2.887   2.963 -0.6056  0.1594  0.0388
   93HFI     F3 1599   1.198   3.107   2.977 -0.0694  0.0208 -0.5089
   93HFI     C3 1600   0.967   2.945   2.875 -0.1727  0.6070 -0.1836
   93HFI     F4 1601   0.940   3.043   2.968  0.0599 -0.3926  0.2502
   93HFI     F5 1602   0.971   2.828   2.935 -0.2214 -0.0109  0.1441
   93HFI     F6 1603   0.855   2.948   2.798 -0.8083 -0.3850  0.2816
   93HFI     H1 1604   1.203   2.833   2.716 -0.6037 -1.4268 -0.7127
   93HFI     H2 1605   1.082   3.082   2.749  2.3042 -0.7612 -3.3046
   94HFI     O1 1606   2.365   2.840   0.191  0.6488 -0.2530 -0.4585
   94HFI     C1 1607   2.485   2.865   0.258 -0.5162  0.5823 -0.5734
   94HFI     C2 1608   2.601   2.790   0.183  0.2746  0.2439 -0.2852
   94HFI     F1 1609   2.717   2.811   0.247  0.5481 -0.5945  0.0403
   94HFI     F2 1610   2.610   2.838   0.060 -0.0353 -0.2647 -0.1584
   94HFI     F3 1611   2.589   2.653   0.177 -0.7781 -0.9881  0.2690
   94HFI     C3 1612   2.466   2.811   0.405 -0.7955  0.1793 -0.3242
   94HFI     F4 1613   2.377   2.881   0.468 -0.1402 -0.0218  0.0524
   94HFI     F5 1614   2.579   2.828   0.481 -0.2961  0.3292  0.3242
   94HFI     F6 1615   2.429   2.685   0.405 -0.7131 -0.4962 -0.2758
   94HFI     H1 1616   2.381   2.756   0.144  1.2989 -1.9915  2.7558
   94HFI     H2 1617   2.513   2.971   0.253  2.2998 -0.0386  1.0245
   95HFI     O1 1618   3.124   1.342   0.454 -0.5093 -0.0058  0.4110
   95HFI     C1 1619   3.052   1.352   0.579  0.0479 -0.4632  0.1451
   95HFI     C2 1620   3.127   1.449   0.679 -0.2573 -0.5400 -0.0593
   95HFI     F1 1621   3.057   1.469   0.790  0.2956 -0.7138 -0.3496
   95HFI     F2 1622   3.143   1.571   0.623 -0.0077  0.4710 -0.3674
   95HFI     F3 1623   3.248   1.407   0.714  0.2277 -0.2268 -0.4854
   95HFI     C3 1624   3.003   1.215   0.634  0.1455 -0.1434 -0.0549
   95HFI     F4 1625   2.948   1.218   0.757  0.3754  0.9587  0.4175
   95HFI     F5 1626   3.112   1.139   0.650  0.0693  0.3170 -0.2322
   95HFI     F6 1627   2.919   1.150   0.551 -0.1167 -0.5021  0.6669
   95HFI     H1 1628   3.216   1.321   0.479 -0.0556  1.1333 -0.2675
   95HFI     H2 1629   2.957   1.401   0.555 -0.2820  0.7828  3.6860
   96HFI     O1 1630   2.916   0.251   3.382  0.0777 -0.1854  0.4612
   96HFI     C1 1631   2.943   0.144   3.480 -0.1646 -0.3751  0.2306
   96HFI     C2 1632   2.956   0.013   3.399 -0.2298 -0.6173  0.3903
   96HFI     F1 1633   3.062   0.028   3.319 -0.2523 -0.0291 -0.4836
   96HFI     F2 1634   2.854  -0.009   3.312 -0.5937 -0.5681  1.0440
   96HFI     F3 1635   2.963  -0.099   3.479 -0.0083 -0.3216 -0.0472
   96HFI     C3 1636   2.835   0.143   3.586 -0.8101  0.0299 -0.4224
   96HFI     F4 1637   2.803   0.273   3.620 -0.4755 -0.1686  0.5016
   96HFI     F5 1638   2.866   0.083   3.703 -0.3507 -0.5725  0.3894
   96HFI     F6 1639   2.721   0.083   3.540  0.2557 -0.0262 -0.2774
   96HFI     H1 1640   2.883   0.212   3.299 -0.4121 -1.8301  1.4005
   96HFI     H2 1641   3.032   0.173   3.538  1.4645 -3.8806 -0.3782
   97HFI     O1 1642   3.284   0.986   1.122  0.2032 -0.0994 -0.2082
   97HFI     C1 1643   3.193   1.099   1.130  0.1086  0.2982 -0.6396
   97HFI     C2 1644   3.084   1.083   1.022 -0.2848  0.3512  0.4460
   97HFI     F1 1645   3.132   1.083   0.903 -0.3281  0.0845  0.5336
   97HFI     F2 1646   2.996   1.179   1.035  0.1126 -0.4571 -0.3046
   97HFI     F3 1647   3.012   0.970   1.031 -0.1803  0.4211  0.1394
   97HFI     C3 1648   3.271   1.230   1.127  0.0136  0.1428 -0.2456
   97HFI     F4 1649   3.362   1.223   1.227  0.1939 -0.0060 -0.2681
   97HFI     F5 1650   3.200   1.343   1.152 -0.2853  0.4757  0.2143
   97HFI     F6 1651   3.351   1.253   1.018 -0.4625 -0.1886 -0.2782
   97HFI     H1 1652   3.258   0.940   1.041 -2.5952  2.0909 -0.6151
   97HFI     H2 1653   3.133   1.090   1.222 -0.9372  0.4692 -1.2934
   98HFI     O1 1654   3.346   2.976   1.313 -0.2384  0.1688 -0.4282
   98HFI     C1 1655   3.351   3.070   1.420 -0.6549  0.1342  0.0278
   98HFI     C2 1656   3.492   3.088   1.484  0.0720  0.4224 -0.9110
   98HFI     F1 1657   3.529   2.980   1.559  0.2909  0.1395  0.1731
   98HFI     F2 1658   3.497   3.190   1.575 -0.6050 -0.3904 -0.0425
   98HFI     F3 1659   3.586   3.116   1.396 -0.5276 -0.0664 -0.1177
   98HFI     C3 1660   3.230   3.047   1.519  0.6984  0.6809 -0.4436
   98HFI     F4 1661   3.109   3.030   1.453  0.1843  0.0667 -0.0886
   98HFI     F5 1662   3.208   3.144   1.609  0.1819 -0.6173  0.4093
   98HFI     F6 1663   3.248   2.939   1.582 -0.1430  0.4494  0.0558
   98HFI     H1 1664   3.370   2.888   1.348 -1.6241 -0.3071 -0.6296
   98HFI     H2 1665   3.338   3.169   1.374  0.3780  0.0193 -0.5342
   99HFI     O1 1666   0.123   2.614   3.232 -0.0086 -0.8392 -0.4416
   99HFI     C1 1667   0.175   2.541   3.354  0.7082  0.5081  0.2849
   99HFI     C2 1668   0.256   2.417   3.310  0.7566 -0.0978 -1.0094
   99HFI     F1 1669   0.301   2.341   3.414 -0.1103 -0.4836  0.0864
   99HFI     F2 1670   0.351   2.467   3.237 -0.3728 -0.4319 -0.1878
   99HFI     F3 1671   0.175   2.333   3.227  1.1366  0.0361  0.1058
   99HFI     C3 1672   0.056   2.490   3.440 -0.0380  0.5079 -0.3724
   99HFI     F4 1673  -0.034   2.418   3.370 -0.6941 -0.6700 -0.5409
   99HFI     F5 1674  -0.012   2.592   3.493  0.2727 -0.2175  0.4969
   99HFI     F6 1675   0.091   2.404   3.544  0.1780 -0.2297 -0.0260
   99HFI     H1 1676   0.187   2.684   3.212  1.4705 -1.9566  0.2575
   99HFI     H2 1677   0.237   2.602   3.421 -0.2754  1.8914 -0.0351
  100HFI     O1 1678   3.373   2.725   1.447  0.0104 -0.5075 -0.8154
  100HFI     C1 1679   3.437   2.601   1.416 -0.9406 -0.0782  0.3685
  100HFI     C2 1680   3.342   2.511   1.331  0.1754  0.3673 -0.4957
  100HFI     F1 1681   3.306   2.582   1.220 -0.4551  0.1594 -0.5309
  100HFI     F2 1682   3.235   2.484   1.409  0.1226 -0.5036 -0.1087
  100HFI     F3 1683   3.397   2.392   1.292 -0.0508 -0.5784 -0.4730
  100HFI     C3 1684   3.493   2.524   1.537  0.1594 -0.1020  0.7424
  100HFI     F4 1685   3.392   2.485   1.624 -0.4984  0.0656  0.5272
  100HFI     F5 1686   3.570   2.612   1.607 -0.3551  0.1304 -0.5987
  100HFI     F6 1687   3.572   2.416   1.515 -0.5444 -0.4352 -0.3095
  100HFI     H1 1688   3.336   2.718   1.537 -1.4348 -0.9836 -1.4257
  100HFI     H2 1689   3.523   2.621   1.351 -2.4098  0.6430 -1.3952
  101HFI     O1 1690   2.403   1.964   2.442 -0.0347 -0.3172 -0.2806
  101HFI     C1 1691   2.498   1.862   2.400  0.3134  0.7747 -0.0004
  101HFI     C2 1692   2.624   1.872   2.483 -0.4459  0.0529  0.4502
  101HFI     F1 1693   2.706   1.771   2.447  0.0465  0.8895 -0.2070
  101HFI     F2 1694   2.593   1.846   2.611 -0.1722  0.5288  0.3233
  101HFI     F3 1695   2.690   1.990   2.469  0.1047 -0.5663 -0.2329
  101HFI     C3 1696   2.515   1.866   2.249 -0.3996 -0.2327  0.3896
  101HFI     F4 1697   2.602   1.766   2.211 -0.2571 -0.3373 -0.2590
  101HFI     F5 1698   2.559   1.983   2.203  0.9499 -0.3786  0.0926
  101HFI     F6 1699   2.396   1.850   2.186 -0.3381 -0.2420 -0.1536
  101HFI     H1 1700   2.323   1.955   2.387 -0.5696  2.1538  0.0273
  101HFI     H2 1701   2.454   1.762   2.409 -2.9097  2.0989 -0.4493
  102HFI     O1 1702   0.998   0.995   3.052 -0.2457 -0.3451 -0.4992
  102HFI     C1 1703   1.041   0.943   3.175 -0.1640 -0.7179  0.3933
  102HFI     C2 1704   0.953   0.817   3.225  1.1634  0.3955  0.0736
  102HFI     F1 1705   1.011   0.757   3.331 -0.2424 -0.5162 -0.4794
  102HFI     F2 1706   0.934   0.725   3.125  0.3032 -0.1018 -0.3211
  102HFI     F3 1707   0.824   0.856   3.265 -0.0994 -0.2809  0.0944
  102HFI     C3 1708   1.059   1.057   3.278 -0.3154 -0.1437  0.3619
  102HFI     F4 1709   1.133   1.156   3.224  0.4459  0.2809  0.1529
  102HFI     F5 1710   1.133   1.009   3.384 -0.6554  0.0478 -0.1861
  102HFI     F6 1711   0.941   1.108   3.325 -0.1767 -0.3424 -0.0416
  102HFI     H1 1712   0.904   0.984   3.032 -0.0663 -2.8770 -0.0740
  102HFI     H2 1713   1.145   0.909   3.159 -0.4841 -1.9422  0.8895
  103HFI     O1 1714   1.363   3.068   0.765  0.9574 -0.8468 -0.0181
  103HFI     C1 1715   1.372   3.036   0.908  0.0184  0.1450 -0.2235
  103HFI     C2 1716   1.514   2.985   0.952  0.1220 -0.0247  0.1102
  103HFI     F1 1717   1.520   2.956   1.079  0.4907 -0.3077  0.1683
  103HFI     F2 1718   1.611   3.080   0.940 -0.2509  0.2259 -0.4448
  103HFI     F3 1719   1.554   2.876   0.887 -0.2116  0.8024 -0.0199
  103HFI     C3 1720   1.251   2.945   0.952 -0.6803 -0.1111 -0.2977
  103HFI     F4 1721   1.137   3.003   0.910  0.1712  0.4239  0.7643
  103HFI     F5 1722   1.253   2.919   1.083  0.5654 -0.2726  0.0949
  103HFI     F6 1723   1.256   2.825   0.897  0.1050  0.1744  0.3659
  103HFI     H1 1724   1.268   3.069   0.746  1.0723 -3.0385 -0.8473
  103HFI     H2 1725   1.350   3.122   0.972 -1.9626  0.8511 -1.7950
  104HFI     O1 1726   0.770   0.516   3.370  0.3300 -0.1903  0.6658
  104HFI     C1 1727   0.884   0.426   3.315  0.2513 -0.0707 -0.2742
  104HFI     C2 1728   0.847   0.360   3.166 -0.4399 -0.6897 -0.5151
  104HFI     F1 1729   0.727   0.298   3.164 -0.0481  0.3802 -0.6458
  104HFI     F2 1730   0.942   0.267   3.139 -0.3567  0.6730  0.0852
  104HFI     F3 1731   0.855   0.451   3.071  0.3787 -0.2083  0.1303
  104HFI     C3 1732   0.929   0.320   3.421  0.0546 -0.6791 -0.3486
  104HFI     F4 1733   0.834   0.222   3.426  0.0078  0.0998 -0.5607
  104HFI     F5 1734   0.923   0.378   3.543 -0.0596 -0.7156  0.3890
  104HFI     F6 1735   1.051   0.267   3.395 -0.3421 -0.3139 -0.1231
  104HFI     H1 1736   0.709   0.463   3.424  0.9593  0.8024  2.3868
  104HFI     H2 1737   0.965   0.498   3.296 -2.3710  3.0548 -0.1921
  105HFI     O1 1738   0.544   0.483   1.279  0.5666 -0.1500 -0.4027
  105HFI     C1 1739   0.619   0.569   1.365  0.3722 -0.0854 -0.5251
  105HFI     C2 1740   0.641   0.488   1.500 -0.6281 -0.0452  0.0609
  105HFI     F1 1741   0.530   0.484   1.577  0.2145 -0.0778 -0.4220
  105HFI     F2 1742   0.740   0.547   1.567  0.2665  0.1820 -0.1899
  105HFI     F3 1743   0.674   0.355   1.478  0.2168 -0.1030  0.0452
  105HFI     C3 1744   0.560   0.717   1.383 -0.4509 -0.4882  0.1809
  105HFI     F4 1745   0.640   0.786   1.465  0.1387  0.3432  0.2041
  105HFI     F5 1746   0.435   0.716   1.432 -0.4115 -0.7124 -0.0584
  105HFI     F6 1747   0.557   0.793   1.268  0.2190 -0.1237 -0.1593
  105HFI     H1 1748   0.487   0.422   1.327  0.8496 -0.5858 -0.6165
  105HFI     H2 1749   0.720   0.579   1.323  0.5568  0.8989  0.1326
  106HFI     O1 1750   0.203   1.284   0.783  0.2470 -0.3244 -0.1292
  106HFI     C1 1751   0.229   1.171   0.700  0.2390  0.4411 -0.4355
  106HFI     C2 1752   0.175   1.195   0.554  0.3531  0.0106 -0.0532
  106HFI     F1 1753   0.259   1.281   0.501  0.4457  0.4842 -0.1429
  106HFI     F2 1754   0.047   1.248   0.553  0.3289 -0.3403  0.2758
  106HFI     F3 1755   0.174   1.091   0.470 -0.4679  0.0909  0.5707
  106HFI     C3 1756   0.159   1.044   0.760 -0.4763 -0.2663 -0.0614
  106HFI     F4 1757   0.019   1.060   0.759  1.1753  0.2114 -0.1598
  106HFI     F5 1758   0.194   1.030   0.883 -0.8886 -0.0780 -0.8723
  106HFI     F6 1759   0.198   0.930   0.689 -0.2758  0.2196 -0.0791
  106HFI     H1 1760   0.244   1.266   0.870 -1.0147  1.5229  0.8928
  106HFI     H2 1761   0.337   1.153   0.695 -0.0284 -1.5615  0.3940
  107HFI     O1 1762   1.288   0.394   1.257  0.6901 -0.0352 -0.1923
  107HFI     C1 1763   1.220   0.387   1.384 -0.3457 -0.1028  0.7452
  107HFI     C2 1764   1.145   0.520   1.420  0.4637  0.0969 -0.7318
  107HFI     F1 1765   1.220   0.631   1.400  0.6932 -0.0900 -0.0486
  107HFI     F2 1766   1.109   0.514   1.549 -0.1549 -0.1718  0.2721
  107HFI     F3 1767   1.033   0.534   1.345  0.0676 -0.1165 -0.5654
  107HFI     C3 1768   1.327   0.350   1.492  0.1383  0.0262 -0.0190
  107HFI     F4 1769   1.264   0.298   1.600  0.0130  0.3617  0.0483
  107HFI     F5 1770   1.385   0.459   1.530  0.6067  0.4476  0.1815
  107HFI     F6 1771   1.421   0.257   1.451 -0.0379 -0.1098 -0.1779
  107HFI     H1 1772   1.362   0.456   1.263  0.6988  0.0377 -1.0004
  107HFI     H2 1773   1.142   0.310   1.376  0.2798 -0.6452 -0.2428
  108HFI     O1 1774   3.386   0.006   0.507  0.2193  0.2037 -0.1913
  108HFI     C1 1775   3.391   0.132   0.580 -0.7016  0.5070  0.1647
  108HFI     C2 1776   3.252   0.182   0.607 -0.1332  0.5233  0.6188
  108HFI     F1 1777   3.178   0.097   0.675 -0.4839 -0.6286 -0.3699
  108HFI     F2 1778   3.184   0.217   0.493 -0.1167  0.0211 -0.1248
  108HFI     F3 1779   3.261   0.292   0.687  0.7800  0.0906  0.1647
  108HFI     C3 1780   3.484   0.231   0.500  0.1552 -0.3222 -0.1860
  108HFI     F4 1781   3.598   0.162   0.486 -0.3814  0.1586  0.1339
  108HFI     F5 1782   3.498   0.335   0.584  0.0876  0.6919 -0.5318
  108HFI     F6 1783   3.442   0.258   0.376 -0.2964 -0.2686 -0.3792
  108HFI     H1 1784   3.327   0.020   0.432 -0.7431  0.1777  0.5569
  108HFI     H2 1785   3.442   0.115   0.676  0.1144  1.2025 -0.1388
  109HFI     O1 1786   0.550   0.285   2.905  0.3422  0.5328 -0.1469
  109HFI     C1 1787   0.479   0.401   2.868  0.3048 -0.8972  0.5073
  109HFI     C2 1788   0.427   0.386   2.721 -0.0573 -0.3654 -0.0343
  109HFI     F1 1789   0.337   0.285   2.696 -0.0697  0.5018  0.1120
  109HFI     F2 1790   0.524   0.355   2.639  0.8030  0.2177 -0.6732
  109HFI     F3 1791   0.374   0.504   2.684  0.2261 -0.2862  0.5282
  109HFI     C3 1792   0.557   0.526   2.899  0.3362 -0.2224 -0.1103
  109HFI     F4 1793   0.669   0.530   2.826  0.3162 -0.9571 -0.0845
  109HFI     F5 1794   0.589   0.529   3.031 -0.5059 -0.1735 -0.6670
  109HFI     F6 1795   0.488   0.641   2.867  0.1513 -0.0082 -0.0784
  109HFI     H1 1796   0.570   0.286   3.000  1.3418 -0.1660 -0.3479
  109HFI     H2 1797   0.387   0.413   2.926 -0.2677  0.9467 -0.7409
  110HFI     O1 1798   1.299   0.483   0.414  0.3157 -0.0451 -0.3870
  110HFI     C1 1799   1.388   0.600   0.447  0.0990  0.2781 -0.7264
  110HFI     C2 1800   1.491   0.636   0.333  0.2470 -0.3388 -0.6392
  110HFI     F1 1801   1.419   0.636   0.219  0.3439 -0.0065 -0.2212
  110HFI     F2 1802   1.586   0.546   0.320 -0.2941  0.0097 -0.3555
  110HFI     F3 1803   1.546   0.758   0.349 -0.0918 -0.5538  0.1476
  110HFI     C3 1804   1.469   0.577   0.580 -0.0912 -0.1335  0.2276
  110HFI     F4 1805   1.385   0.556   0.691  0.8184  0.1316 -0.2877
  110HFI     F5 1806   1.547   0.685   0.613  0.1207 -0.8248  0.2850
  110HFI     F6 1807   1.536   0.460   0.574 -0.2616 -0.2861 -0.4196
  110HFI     H1 1808   1.349   0.402   0.434  1.1499  0.4332 -0.5557
  110HFI     H2 1809   1.323   0.685   0.471  0.9626  1.2414 -1.7908
  111HFI     O1 1810   2.920   2.499   1.360  0.6483 -0.3779 -0.3682
  111HFI     C1 1811   2.856   2.559   1.472  0.1056  0.0303 -0.4708
  111HFI     C2 1812   2.702   2.544   1.461  0.5414  0.1774  0.6043
  111HFI     F1 1813   2.671   2.416   1.435 -0.2655 -0.1445  0.0952
  111HFI     F2 1814   2.649   2.626   1.361 -0.0815  0.3739 -0.3207
  111HFI     F3 1815   2.645   2.577   1.576 -0.0531 -0.2706 -0.3211
  111HFI     C3 1816   2.909   2.701   1.490 -0.4452 -0.4097  0.4723
  111HFI     F4 1817   2.900   2.766   1.378 -0.0823 -0.0178  0.3426
  111HFI     F5 1818   3.039   2.702   1.526  0.1355  0.5492 -0.1980
  111HFI     F6 1819   2.843   2.775   1.581  0.2264 -0.1423  0.1152
  111HFI     H1 1820   2.921   2.567   1.289 -1.7877  1.4396  1.2519
  111HFI     H2 1821   2.890   2.507   1.562  2.2351 -0.6103 -1.6127
  112HFI     O1 1822   2.408   1.102   3.799  0.0447  0.0897 -0.1616
  112HFI     C1 1823   2.488   1.166   3.895 -0.1705 -0.3704  0.3176
  112HFI     C2 1824   2.493   1.073   4.018 -0.0741  0.0071  0.7555
  112HFI     F1 1825   2.388   1.092   4.094  0.3292 -0.3791 -0.3922
  112HFI     F2 1826   2.608   1.089   4.091 -0.3815  0.2046  0.0214
  112HFI     F3 1827   2.492   0.939   3.982 -0.4357 -0.3414 -0.0974
  112HFI     C3 1828   2.455   1.309   3.928 -0.1984  0.0832  0.3969
  112HFI     F4 1829   2.332   1.317   3.965 -0.8089 -0.0067 -0.8578
  112HFI     F5 1830   2.458   1.379   3.815  0.0026 -0.2800  0.1777
  112HFI     F6 1831   2.533   1.363   4.017 -0.3837 -0.7349 -0.1681
  112HFI     H1 1832   2.318   1.130   3.820  0.0902  1.4419 -1.7708
  112HFI     H2 1833   2.593   1.179   3.866 -0.1837 -0.1300  0.3745
  113HFI     O1 1834   2.737   1.272   1.467 -0.1612  0.2644  0.4377
  113HFI     C1 1835   2.643   1.188   1.388 -0.2338 -0.2926  0.2420
  113HFI     C2 1836   2.622   1.060   1.469 -0.7140 -0.2661 -0.5961
  113HFI     F1 1837   2.507   0.998   1.447 -0.1289 -0.1533  0.0657
  113HFI     F2 1838   2.625   1.085   1.604  0.5503  0.3629 -0.3706
  113HFI     F3 1839   2.720   0.976   1.443 -0.4473 -0.2562 -0.6032
  113HFI     C3 1840   2.688   1.159   1.246  0.2330  0.1160  0.7919
  113HFI     F4 1841   2.808   1.109   1.242 -0.2714 -0.1417  0.4672
  113HFI     F5 1842   2.681   1.276   1.170 -0.0535  0.1523 -0.3913
  113HFI     F6 1843   2.603   1.065   1.187 -0.1238  0.0541  1.0099
  113HFI     H1 1844   2.685   1.337   1.517 -0.5319 -0.4935  1.0511
  113HFI     H2 1845   2.538   1.221   1.381 -0.7456 -0.9224  4.2232
  114HFI     O1 1846   3.173   2.948   2.946  0.2601  0.0665  0.0398
  114HFI     C1 1847   3.304   2.893   2.975  0.2921 -0.4152  0.7498
  114HFI     C2 1848   3.362   2.942   3.110 -0.4258  0.2421 -0.3598
  114HFI     F1 1849   3.363   3.077   3.128  0.5251  0.3616 -0.7848
  114HFI     F2 1850   3.490   2.908   3.116 -0.2137 -0.3815  0.0924
  114HFI     F3 1851   3.298   2.886   3.214  0.3717 -0.2010  0.2522
  114HFI     C3 1852   3.400   2.929   2.858  0.4057  0.2260 -0.0289
  114HFI     F4 1853   3.346   2.921   2.734 -0.1948  0.3771 -0.2482
  114HFI     F5 1854   3.519   2.855   2.853 -0.0801 -0.2780 -0.5884
  114HFI     F6 1855   3.440   3.062   2.865  0.9343 -0.5430 -0.2841
  114HFI     H1 1856   3.157   3.024   3.004  2.5689  0.5002  0.1702
  114HFI     H2 1857   3.301   2.783   2.982  1.4075 -0.4941 -0.0314
  115HFI     O1 1858   3.229   0.741   1.313  0.0892  0.1700  0.2110
  115HFI     C1 1859   3.267   0.846   1.411 -0.1901  0.9514  0.0397
  115HFI     C2 1860   3.373   0.790   1.506 -0.2091  0.1470 -0.6580
  115HFI     F1 1861   3.415   0.884   1.593 -0.1622  0.0733  0.3919
  115HFI     F2 1862   3.479   0.759   1.436  0.1329 -0.0804 -0.6026
  115HFI     F3 1863   3.332   0.675   1.568  0.2094 -0.0838 -0.2019
  115HFI     C3 1864   3.139   0.909   1.486 -0.2333  0.6587  0.3333
  115HFI     F4 1865   3.185   0.999   1.573  0.5816 -0.8063 -0.2321
  115HFI     F5 1866   3.068   0.829   1.571 -0.8587 -0.2261  0.1555
  115HFI     F6 1867   3.049   0.967   1.401  0.0542 -0.0076 -0.3855
  115HFI     H1 1868   3.195   0.659   1.354  0.9170 -0.1875  0.2064
  115HFI     H2 1869   3.311   0.933   1.361 -1.8723  1.5955 -0.3334
  116HFI     O1 1870   3.401   0.273   3.381 -0.3636  0.1651 -0.3062
  116HFI     C1 1871   3.279   0.335   3.325  0.8016  0.0198 -0.2433
  116HFI     C2 1872   3.318   0.397   3.189  0.9431  0.1976 -0.4692
  116HFI     F1 1873   3.205   0.415   3.115  0.1620  0.0652 -0.1573
  116HFI     F2 1874   3.401   0.315   3.118 -0.3624  0.4245 -0.0009
  116HFI     F3 1875   3.380   0.514   3.189  0.4021 -0.4865 -0.2224
  116HFI     C3 1876   3.221   0.439   3.426  0.9311  0.6548  0.4079
  116HFI     F4 1877   3.112   0.509   3.379 -0.1870 -0.3946  0.1263
  116HFI     F5 1878   3.316   0.526   3.457 -0.0737 -0.2082 -0.2080
  116HFI     F6 1879   3.191   0.375   3.540  0.2575  0.1097  0.3685
  116HFI     H1 1880   3.464   0.347   3.385  0.0333 -0.2160  0.7679
  116HFI     H2 1881   3.197   0.264   3.311 -1.0406  1.7074  1.7413
  117HFI     O1 1882   0.724   2.064   3.227 -0.2622 -0.1141 -0.3311
  117HFI     C1 1883   0.769   2.191   3.281 -0.0575 -0.4249 -0.3360
  117HFI     C2 1884   0.871   2.174   3.391  0.3629 -0.1510 -0.2712
  117HFI     F1 1885   0.831   2.093   3.488  0.0759  0.3077  0.1672
  117HFI     F2 1886   0.919   2.289   3.447  0.4484 -0.2357  0.1787
  117HFI     F3 1887   0.970   2.103   3.331 -0.3734 -0.4168 -0.4097
  117HFI     C3 1888   0.650   2.285   3.322 -0.4162  0.0418 -0.1463
  117HFI     F4 1889   0.586   2.223   3.421  0.4473  0.0339 -0.0423
  117HFI     F5 1890   0.566   2.291   3.218 -0.1335  0.0182  0.0033
  117HFI     F6 1891   0.679   2.414   3.354 -0.1489  0.2508  0.2165
  117HFI     H1 1892   0.709   2.014   3.309 -0.3092 -1.3179 -1.0544
  117HFI     H2 1893   0.817   2.247   3.200 -0.1412 -2.5186 -1.8788
  118HFI     O1 1894   3.403   1.947   0.665 -0.1565 -0.1251  0.0793
  118HFI     C1 1895   3.312   1.902   0.566 -0.3392 -0.2114  0.6719
  118HFI     C2 1896   3.391   1.835   0.448 -0.5149  0.0044  0.0096
  118HFI     F1 1897   3.457   1.924   0.372 -0.3967 -0.1826 -0.4021
  118HFI     F2 1898   3.324   1.752   0.365  0.1087 -0.1633  0.1476
  118HFI     F3 1899   3.481   1.756   0.504  0.0358  0.0169  0.6157
  118HFI     C3 1900   3.203   2.009   0.515  0.1003 -0.7316  0.0862
  118HFI     F4 1901   3.268   2.126   0.486 -0.4532 -0.3038 -0.0863
  118HFI     F5 1902   3.105   2.040   0.605 -0.0149  0.6933 -0.1031
  118HFI     F6 1903   3.139   1.977   0.401  0.1121  0.1838 -0.6029
  118HFI     H1 1904   3.433   2.035   0.638 -0.0235 -0.3540 -0.5435
  118HFI     H2 1905   3.260   1.816   0.609 -0.1735 -0.7563 -0.1963
  119HFI     O1 1906   3.298   1.744   0.024  0.3220  0.0987  0.2093
  119HFI     C1 1907   3.218   1.826  -0.057 -0.7184 -0.1088 -0.1446
  119HFI     C2 1908   3.169   1.762  -0.190 -0.6581  0.0184 -0.4684
  119HFI     F1 1909   3.265   1.685  -0.241 -0.1956 -0.0774 -0.4345
  119HFI     F2 1910   3.121   1.841  -0.286 -0.4473  0.4026 -0.5364
  119HFI     F3 1911   3.071   1.680  -0.152 -0.6631  0.3265  0.1315
  119HFI     C3 1912   3.283   1.974  -0.079 -0.4495  0.0853 -0.4444
  119HFI     F4 1913   3.377   1.965  -0.175  0.1814 -0.2952  0.0489
  119HFI     F5 1914   3.337   2.022   0.031  0.4694  0.0353 -0.1572
  119HFI     F6 1915   3.190   2.060  -0.122 -0.4095 -0.0780 -0.7052
  119HFI     H1 1916   3.279   1.649   0.011 -0.6667  0.3940 -0.5635
  119HFI     H2 1917   3.133   1.853   0.006 -0.5504  1.0611 -0.4164
  120HFI     O1 1918   2.369   0.974   2.555 -0.2067 -0.0268 -0.5453
  120HFI     C1 1919   2.334   0.941   2.421 -0.1852 -0.8307  0.4381
  120HFI     C2 1920   2.464   0.910   2.337  0.0363  0.0434  0.2026
  120HFI     F1 1921   2.525   0.804   2.388 -0.1057 -0.6741 -0.0756
  120HFI     F2 1922   2.542   1.019   2.331 -0.5988 -0.1173  0.3044
  120HFI     F3 1923   2.434   0.872   2.206  0.3771 -0.2632  0.0848
  120HFI     C3 1924   2.239   1.047   2.358 -0.8322 -0.1182  0.4522
  120HFI     F4 1925   2.258   1.063   2.226  0.4807  0.3784  0.1596
  120HFI     F5 1926   2.268   1.161   2.413  0.1661  0.4678 -0.1051
  120HFI     F6 1927   2.106   1.033   2.380 -0.3132 -0.5579 -0.2542
  120HFI     H1 1928   2.390   0.890   2.599 -1.8709  0.2901  0.9123
  120HFI     H2 1929   2.279   0.847   2.411 -1.8142 -0.0034  1.3876
  121HFI     O1 1930   3.174   2.269   2.293  0.1663 -0.2514  0.1960
  121HFI     C1 1931   3.254   2.351   2.383 -1.0343 -0.6438  0.2740
  121HFI     C2 1932   3.248   2.505   2.351 -0.6052  0.1317  0.3465
  121HFI     F1 1933   3.121   2.563   2.348 -0.0010 -0.1154 -0.3487
  121HFI     F2 1934   3.282   2.521   2.222  0.4160 -0.3344 -0.1794
  121HFI     F3 1935   3.331   2.586   2.428 -0.0113  0.3602 -0.3487
  121HFI     C3 1936   3.399   2.293   2.393 -0.4918  0.7585  0.0683
  121HFI     F4 1937   3.459   2.297   2.280  0.3145 -0.6286  0.2837
  121HFI     F5 1938   3.384   2.161   2.434 -0.1613  0.0278  0.2019
  121HFI     F6 1939   3.480   2.353   2.480 -0.3238 -0.2019  0.4939
  121HFI     H1 1940   3.196   2.299   2.203 -0.3479  0.3016  0.2513
  121HFI     H2 1941   3.220   2.352   2.487 -0.7708  1.2474  0.3702
  122HFI     O1 1942   2.524   0.290   1.091 -0.1869 -0.2560  0.1223
  122HFI     C1 1943   2.526   0.202   0.974 -0.6240  0.1131 -0.2759
  122HFI     C2 1944   2.665   0.207   0.902  0.1635  0.3351  0.3906
  122HFI     F1 1945   2.714   0.331   0.872 -0.7507 -0.3563  0.2587
  122HFI     F2 1946   2.668   0.126   0.794  0.0507  0.0328  0.5168
  122HFI     F3 1947   2.751   0.157   0.990  0.3537  0.3801 -0.0670
  122HFI     C3 1948   2.401   0.217   0.887  0.0495  0.4738  0.6434
  122HFI     F4 1949   2.398   0.332   0.822 -0.3264 -0.0619 -0.0551
  122HFI     F5 1950   2.290   0.215   0.958  0.0746 -0.0852 -0.1431
  122HFI     F6 1951   2.393   0.112   0.794 -0.1650 -0.3053  0.1188
  122HFI     H1 1952   2.611   0.297   1.133 -0.6107  2.0696  0.6580
  122HFI     H2 1953   2.520   0.101   1.015 -2.2592  1.3865  2.7654
  123HFI     O1 1954   2.473   0.220   2.227 -0.6933  0.3819  0.9639
  123HFI     C1 1955   2.399   0.256   2.342  0.4836 -0.0548 -0.1208
  123HFI     C2 1956   2.262   0.179   2.349 -0.1044  0.0649 -0.1018
  123HFI     F1 1957   2.168   0.238   2.278 -0.2441 -0.1647 -0.0157
  123HFI     F2 1958   2.223   0.160   2.477  0.6191  0.4974 -0.0531
  123HFI     F3 1959   2.281   0.051   2.296 -0.1111  0.0757 -0.1137
  123HFI     C3 1960   2.394   0.405   2.360 -0.6281 -0.2746 -0.1398
  123HFI     F4 1961   2.311   0.440   2.456 -0.7183  0.5758 -0.5630
  123HFI     F5 1962   2.361   0.476   2.244  0.4091 -0.3940  0.4575
  123HFI     F6 1963   2.515   0.455   2.394 -0.3806 -0.3468 -0.5181
  123HFI     H1 1964   2.452   0.128   2.205 -1.1941  0.8829 -0.7661
  123HFI     H2 1965   2.447   0.231   2.438 -1.9692  1.2381  1.4849
  124HFI     O1 1966   2.546   0.192   0.352 -0.0645 -0.0533 -0.1899
  124HFI     C1 1967   2.662   0.220   0.435  0.6247  0.0523  0.1249
  124HFI     C2 1968   2.659   0.369   0.478 -1.0616 -0.1091  0.0064
  124HFI     F1 1969   2.736   0.386   0.589  0.3164 -0.1801 -0.6850
  124HFI     F2 1970   2.537   0.419   0.510  0.6547 -0.4390  0.0310
  124HFI     F3 1971   2.712   0.453   0.379  0.0180  0.0160  0.5420
  124HFI     C3 1972   2.797   0.172   0.382 -0.7369  0.1113 -0.0416
  124HFI     F4 1973   2.792   0.046   0.343  0.0480 -0.4986  0.1046
  124HFI     F5 1974   2.895   0.187   0.476 -0.1493  0.3892  0.0677
  124HFI     F6 1975   2.825   0.232   0.267 -0.0287 -0.4052 -0.4664
  124HFI     H1 1976   2.566   0.216   0.261  1.1373  0.9631  0.3261
  124HFI     H2 1977   2.646   0.173   0.533 -1.7329  2.1649  0.8174
  125HFI     O1 1978   2.798   0.096   2.729  0.0118  0.1953 -0.4909
  125HFI     C1 1979   2.906   0.005   2.768 -0.1838  0.2980  0.6012
  125HFI     C2 1980   2.920  -0.103   2.661  0.0092 -0.8162  0.3639
  125HFI     F1 1981   2.810  -0.184   2.641  0.1327  0.0261 -0.0257
  125HFI     F2 1982   3.024  -0.183   2.691 -0.5780  0.3366  0.2427
  125HFI     F3 1983   2.951  -0.047   2.541 -0.4578  0.3249 -0.0491
  125HFI     C3 1984   2.882  -0.041   2.916  0.4908 -0.8374 -0.2713
  125HFI     F4 1985   2.787   0.035   2.974  0.6752  0.1258 -0.3129
  125HFI     F5 1986   2.993  -0.035   2.997 -0.0564  0.1532  0.3610
  125HFI     F6 1987   2.841  -0.164   2.934 -0.1732 -0.1752 -0.3362
  125HFI     H1 1988   2.713   0.061   2.758  0.0079  0.1348 -0.5764
  125HFI     H2 1989   3.003   0.056   2.764  0.3139 -0.6411  0.5315
  126HFI     O1 1990   0.653   3.154   0.205  0.3536 -0.3212 -0.3400
  126HFI     C1 1991   0.533   3.119   0.133 -0.0793  0.1707 -0.3032
  126HFI     C2 1992   0.426   3.235   0.139 -0.3294 -0.1933 -0.1340
  126HFI     F1 1993   0.468   3.350   0.069 -0.3778 -0.2807  0.0132
  126HFI     F2 1994   0.414   3.274   0.268 -0.2531  0.2200 -0.0958
  126HFI     F3 1995   0.308   3.207   0.089  0.2821 -0.8098  0.3145
  126HFI     C3 1996   0.485   2.974   0.179 -0.6177 -0.0782 -0.4593
  126HFI     F4 1997   0.384   2.920   0.107  0.5352  0.3898  0.1620
  126HFI     F5 1998   0.452   2.981   0.306 -0.2389  0.3043 -0.3511
  126HFI     F6 1999   0.591   2.888   0.182 -0.1979  0.4162  0.1528
  126HFI     H1 2000   0.635   3.127   0.296 -3.1486 -2.7850 -1.6558
  126HFI     H2 2001   0.559   3.110   0.027  0.3612  0.4652 -0.2208
  127HFI     O1 2002   3.155   3.111   2.458  0.7857 -0.1538  0.4700
  127HFI     C1 2003   3.198   3.007   2.363  0.3093 -0.2862 -0.5109
  127HFI     C2 2004   3.317   3.066   2.281 -0.2254 -0.1564  0.3377
  127HFI     F1 2005   3.291   3.181   2.216  0.3211 -0.0066 -0.5573
  127HFI     F2 2006   3.370   2.985   2.186 -0.1142 -0.6828 -0.3836
  127HFI     F3 2007   3.416   3.098   2.365  0.8158  0.1236 -0.3805
  127HFI     C3 2008   3.083   2.940   2.281  0.2782  1.0876 -0.3799
  127HFI     F4 2009   2.982   2.894   2.360 -0.0680 -0.1442 -0.8051
  127HFI     F5 2010   3.121   2.829   2.218 -0.4549 -0.7123 -0.0901
  127HFI     F6 2011   3.035   3.026   2.190 -0.0955 -0.1683 -0.3117
  127HFI     H1 2012   3.116   3.184   2.406  2.1178 -0.7151 -1.3779
  127HFI     H2 2013   3.244   2.925   2.419  0.9255 -0.3124 -1.0428
  128HFI     O1 2014   2.101   1.623   0.160 -0.2100  0.3984 -0.2998
  128HFI     C1 2015   2.218   1.708   0.159 -0.0751 -0.8283  0.6736
  128HFI     C2 2016   2.221   1.818   0.265 -0.4458  0.7089 -0.4950
  128HFI     F1 2017   2.109   1.891   0.252 -0.2370 -0.0476 -0.1104
  128HFI     F2 2018   2.328   1.907   0.257 -0.3108  0.3184 -0.5167
  128HFI     F3 2019   2.227   1.762   0.384  0.1208 -0.4634 -0.1944
  128HFI     C3 2020   2.244   1.762   0.017 -0.9704 -0.2289  1.2749
  128HFI     F4 2021   2.239   1.659  -0.072  0.3693 -0.1863 -0.1891
  128HFI     F5 2022   2.359   1.829   0.012 -0.5395 -0.1897 -0.0095
  128HFI     F6 2023   2.149   1.843  -0.024 -0.0469  0.2297 -0.3801
  128HFI     H1 2024   2.028   1.662   0.109  0.8215  1.8679 -0.6524
  128HFI     H2 2025   2.301   1.640   0.181  0.5929 -0.9187 -1.9842
  129HFI     O1 2026   1.263   3.332   2.468  0.3647 -0.6562 -0.8875
  129HFI     C1 2027   1.250   3.289   2.330  0.0933 -0.0490 -0.3176
  129HFI     C2 2028   1.132   3.188   2.317 -0.1357 -0.1556 -0.3510
  129HFI     F1 2029   1.032   3.219   2.395  0.1161 -0.3440 -0.4189
  129HFI     F2 2030   1.176   3.075   2.356 -0.0377  0.2061 -0.1496
  129HFI     F3 2031   1.086   3.176   2.188  0.1493  0.3648  0.1101
  129HFI     C3 2032   1.390   3.231   2.280  0.3812 -0.2820 -0.6805
  129HFI     F4 2033   1.481   3.335   2.263 -0.1231 -0.5540  0.2402
  129HFI     F5 2034   1.382   3.146   2.173  0.0974 -0.2149 -0.3233
  129HFI     F6 2035   1.444   3.158   2.387  0.2772  0.7177  0.3861
  129HFI     H1 2036   1.194   3.399   2.483 -1.3878 -2.4248 -0.8267
  129HFI     H2 2037   1.220   3.374   2.267  1.6335 -0.0780 -1.1146
  130HFI     O1 2038   2.275   3.326   2.566 -0.2053  0.7462  0.2003
  130HFI     C1 2039   2.375   3.240   2.632 -0.0810 -0.1839 -0.0813
  130HFI     C2 2040   2.320   3.101   2.664  0.3984  0.1192  0.1722
  130HFI     F1 2041   2.414   3.017   2.705  0.0035 -0.3876  0.3567
  130HFI     F2 2042   2.268   3.050   2.554  0.2128  0.0675 -0.1030
  130HFI     F3 2043   2.223   3.099   2.754  0.5482  0.0703 -0.4245
  130HFI     C3 2044   2.434   3.317   2.751 -0.9361  0.0850  0.8045
  130HFI     F4 2045   2.339   3.369   2.827 -0.0761  0.4391  0.2099
  130HFI     F5 2046   2.509   3.417   2.701  0.0878 -0.4062 -0.0315
  130HFI     F6 2047   2.518   3.246   2.831 -0.1612 -0.4740  0.0909
  130HFI     H1 2048   2.189   3.285   2.584  0.2973 -1.1726 -1.5882
  130HFI     H2 2049   2.454   3.234   2.556 -1.2178 -0.5856 -1.2646
  131HFI     O1 2050   2.463   3.392   3.620 -0.0681 -0.5445 -0.7715
  131HFI     C1 2051   2.468   3.268   3.695 -0.5142 -0.3227  0.2072
  131HFI     C2 2052   2.542   3.281   3.826 -0.7697  0.9997  0.3550
  131HFI     F1 2053   2.509   3.175   3.899  0.0960  0.0914  0.1158
  131HFI     F2 2054   2.494   3.387   3.884  0.7515 -0.4386  0.4873
  131HFI     F3 2055   2.680   3.282   3.830 -0.1207  0.0575 -0.3241
  131HFI     C3 2056   2.517   3.154   3.603 -0.0864  0.0484  0.0077
  131HFI     F4 2057   2.461   3.169   3.480  0.2903 -0.0650  0.2867
  131HFI     F5 2058   2.470   3.038   3.650 -0.3700 -0.4766  0.6670
  131HFI     F6 2059   2.648   3.147   3.591  0.2706 -0.4255  0.0296
  131HFI     H1 2060   2.412   3.379   3.539 -0.9484 -0.0356 -0.3108
  131HFI     H2 2061   2.367   3.241   3.730 -0.2116 -0.4378  1.0179
  132HFI     O1 2062   1.093   0.124   2.589  1.1082  0.1317 -0.0053
  132HFI     C1 2063   1.137   0.136   2.723  0.0237  0.0740 -0.4952
  132HFI     C2 2064   1.067   0.030   2.811  0.2500  0.1000  0.0874
  132HFI     F1 2065   1.081  -0.098   2.763  0.2069 -0.0067 -0.2142
  132HFI     F2 2066   0.934   0.054   2.807 -0.0673 -0.3341  0.0378
  132HFI     F3 2067   1.104   0.029   2.939  0.6477 -0.0484 -0.1812
  132HFI     C3 2068   1.110   0.282   2.769 -0.0118 -0.2701  0.4756
  132HFI     F4 2069   1.157   0.302   2.896 -0.0770 -0.4258  0.5162
  132HFI     F5 2070   0.981   0.310   2.769 -0.4759 -0.3257  0.6790
  132HFI     F6 2071   1.171   0.367   2.683 -0.1224  0.4952  0.1153
  132HFI     H1 2072   1.003   0.156   2.573  0.5947 -1.3057 -0.0668
  132HFI     H2 2073   1.243   0.109   2.730  0.1729  0.8665  0.3681
  133HFI     O1 2074   0.034   0.038   2.203 -1.3318  0.7832 -0.1920
  133HFI     C1 2075   0.018   0.107   2.329  0.5507  0.0024 -0.6685
  133HFI     C2 2076  -0.114   0.056   2.405 -0.3872 -0.6576  0.1290
  133HFI     F1 2077  -0.213   0.047   2.311 -0.2525 -0.3592  0.9714
  133HFI     F2 2078  -0.149   0.142   2.502  0.2275 -0.3992 -0.5007
  133HFI     F3 2079  -0.093  -0.068   2.459 -0.4563  0.3460 -0.2166
  133HFI     C3 2080   0.018   0.264   2.302  0.0356  0.7209  0.3494
  133HFI     F4 2081  -0.092   0.297   2.240 -0.1602  0.0945  0.0859
  133HFI     F5 2082   0.121   0.300   2.216  0.1823 -0.5261 -0.2666
  133HFI     F6 2083   0.028   0.335   2.414 -0.4375  0.6503  0.2170
  133HFI     H1 2084  -0.049  -0.010   2.190 -0.9235  0.1037 -0.3391
  133HFI     H2 2085   0.098   0.080   2.399  0.2808  0.2727 -0.2524
  134HFI     O1 2086   0.470   3.007   3.593  0.1262 -0.1586 -0.0315
  134HFI     C1 2087   0.390   2.904   3.543  0.3636  0.0331 -0.3792
  134HFI     C2 2088   0.423   2.884   3.389  0.1920  0.4020 -1.0521
  134HFI     F1 2089   0.353   2.785   3.330  0.4260  0.3021  0.8892
  134HFI     F2 2090   0.560   2.863   3.381  0.1564  0.0834 -0.2988
  134HFI     F3 2091   0.402   2.998   3.318  0.2175 -0.4292  0.0912
  134HFI     C3 2092   0.238   2.907   3.579 -0.1342  0.4436  0.3195
  134HFI     F4 2093   0.224   2.914   3.710  0.0035 -0.3517 -0.3446
  134HFI     F5 2094   0.179   2.792   3.548  0.0219  0.3198 -0.0616
  134HFI     F6 2095   0.162   3.007   3.527 -0.3848 -0.1135  0.0892
  134HFI     H1 2096   0.523   3.048   3.521 -1.4474 -0.0915 -1.1746
  134HFI     H2 2097   0.433   2.809   3.578 -2.1592 -1.2110 -0.5638
  135HFI     O1 2098   0.805   2.990   0.401  0.1832  0.1465 -0.2532
  135HFI     C1 2099   0.948   3.006   0.416 -0.3454  0.1993 -0.4851
  135HFI     C2 2100   1.020   2.945   0.293  0.1253 -0.9998  0.2484
  135HFI     F1 2101   1.148   2.990   0.291  0.1705 -0.0213 -0.0213
  135HFI     F2 2102   0.957   2.981   0.176 -0.2566  0.0911 -0.0660
  135HFI     F3 2103   1.022   2.811   0.293 -0.0159  0.8319 -0.0395
  135HFI     C3 2104   0.991   2.944   0.555  0.6258  0.0777  0.0454
  135HFI     F4 2105   1.123   2.921   0.572 -0.2249 -0.0715 -1.1138
  135HFI     F5 2106   0.933   2.820   0.559 -0.5323 -0.7208 -0.3815
  135HFI     F6 2107   0.942   3.018   0.651 -0.0598 -0.4430 -0.4971
  135HFI     H1 2108   0.781   2.896   0.409  0.8792 -0.0919 -0.8288
  135HFI     H2 2109   0.976   3.112   0.406 -0.6207  0.2782 -0.4065
  136HFI     O1 2110   1.346   2.566   2.456  0.3231  0.2265 -0.1160
  136HFI     C1 2111   1.460   2.650   2.449  0.5469 -0.1253  0.0029
  136HFI     C2 2112   1.513   2.688   2.596  0.1122  0.3600 -0.4907
  136HFI     F1 2113   1.556   2.580   2.667 -0.3840  0.4378  0.4335
  136HFI     F2 2114   1.420   2.749   2.667  0.0301  0.2041  0.3816
  136HFI     F3 2115   1.618   2.775   2.589  0.4389 -0.3973  0.3135
  136HFI     C3 2116   1.457   2.768   2.349  0.7224  0.0538 -0.2808
  136HFI     F4 2117   1.376   2.733   2.248 -0.1057  0.2962  0.0895
  136HFI     F5 2118   1.576   2.796   2.290 -0.2452  0.2344 -0.2213
  136HFI     F6 2119   1.414   2.880   2.410  0.1945  0.5915 -0.1520
  136HFI     H1 2120   1.287   2.609   2.391 -1.0815 -1.6452 -0.1203
  136HFI     H2 2121   1.543   2.586   2.416 -0.5279 -1.0950 -0.8584
  137HFI     O1 2122   0.176   1.992   3.200 -0.5289  0.3745 -0.6972
  137HFI     C1 2123   0.230   1.869   3.149  0.2631  0.1288 -0.1011
  137HFI     C2 2124   0.130   1.753   3.171 -0.4490 -0.0533  1.4732
  137HFI     F1 2125   0.030   1.758   3.081 -0.1916  0.2565 -0.5886
  137HFI     F2 2126   0.069   1.741   3.291  0.1514 -0.1692 -0.3253
  137HFI     F3 2127   0.193   1.636   3.144 -0.1207  0.8753  0.0287
  137HFI     C3 2128   0.374   1.843   3.202 -0.1717 -0.3772 -0.2218
  137HFI     F4 2129   0.438   1.964   3.226 -0.4100  0.0871 -0.3409
  137HFI     F5 2130   0.447   1.776   3.111  0.5539 -0.0551  0.0146
  137HFI     F6 2131   0.375   1.775   3.318  0.1602 -0.2363 -0.7006
  137HFI     H1 2132   0.219   2.008   3.285 -1.6717 -2.3572  0.4660
  137HFI     H2 2133   0.236   1.873   3.039 -0.3526 -0.9616 -0.1857
  138HFI     O1 2134   2.011   1.843   1.074 -0.7133 -0.2559 -0.2491
  138HFI     C1 2135   2.021   1.739   0.973 -0.2242  0.0578  0.1080
  138HFI     C2 2136   2.156   1.665   0.948  1.2857 -0.5426 -0.5568
  138HFI     F1 2137   2.130   1.559   0.867 -0.3950  0.2444  0.4869
  138HFI     F2 2138   2.192   1.612   1.066 -0.8365  0.0866  0.0362
  138HFI     F3 2139   2.252   1.745   0.902  0.2687  0.2574  0.0373
  138HFI     C3 2140   1.950   1.797   0.843  0.2949  0.1672  0.1758
  138HFI     F4 2141   1.907   1.705   0.755  0.2639 -0.1916 -0.3864
  138HFI     F5 2142   2.032   1.881   0.782 -0.3987 -0.1222 -0.4165
  138HFI     F6 2143   1.854   1.873   0.881 -0.3456 -0.2320 -0.1834
  138HFI     H1 2144   2.096   1.889   1.082  0.3715 -2.0955 -0.8643
  138HFI     H2 2145   1.960   1.653   1.005  1.8320 -1.8415 -0.9503
  139HFI     O1 2146   1.011   2.264   1.374 -0.4341 -0.1569 -0.6556
  139HFI     C1 2147   1.148   2.223   1.407 -0.6088  0.5834 -0.2160
  139HFI     C2 2148   1.212   2.129   1.297  0.1635 -0.5652  0.7694
  139HFI     F1 2149   1.144   2.014   1.284  0.6096 -0.2738 -0.3629
  139HFI     F2 2150   1.340   2.101   1.315 -0.1494  0.4327 -0.3044
  139HFI     F3 2151   1.209   2.192   1.174 -0.3696 -0.0631 -0.1015
  139HFI     C3 2152   1.151   2.144   1.546  0.3234 -0.2515  0.8366
  139HFI     F4 2153   1.040   2.057   1.560 -0.0399 -0.7053 -0.2097
  139HFI     F5 2154   1.132   2.235   1.641  0.1355  0.2506 -0.2673
  139HFI     F6 2155   1.268   2.087   1.582  0.3220  0.0971 -0.6383
  139HFI     H1 2156   0.953   2.186   1.375  0.1575 -0.6885  4.3055
  139HFI     H2 2157   1.209   2.314   1.415  0.7675 -0.4950  2.3466
  140HFI     O1 2158   1.150   1.431   2.452  0.3083  0.0234  0.1908
  140HFI     C1 2159   1.061   1.317   2.414 -0.3250  0.1511 -0.8317
  140HFI     C2 2160   1.049   1.203   2.513 -0.3016 -0.1517  0.0023
  140HFI     F1 2161   1.007   1.260   2.624  0.4366  0.1921 -0.6310
  140HFI     F2 2162   1.167   1.136   2.532 -0.0850  0.3406  0.1223
  140HFI     F3 2163   0.948   1.116   2.484 -0.2096  0.2387 -0.2930
  140HFI     C3 2164   1.087   1.267   2.266  0.0426  0.2062  0.1969
  140HFI     F4 2165   0.985   1.187   2.209  0.1913 -0.6089 -0.2914
  140HFI     F5 2166   1.195   1.190   2.249 -0.0962  0.3153 -0.1265
  140HFI     F6 2167   1.115   1.376   2.191 -0.4010  0.2030 -0.1641
  140HFI     H1 2168   1.207   1.445   2.374 -0.7685  0.6743 -0.5044
  140HFI     H2 2169   0.961   1.361   2.421 -0.4557 -0.2403 -0.1641
  141HFI     O1 2170   2.417   2.362   0.122  0.4893  0.0376 -0.0195
  141HFI     C1 2171   2.335   2.386   0.005 -0.1126  0.3852  0.4970
  141HFI     C2 2172   2.264   2.522   0.009  0.0143 -0.3287  0.0673
  141HFI     F1 2173   2.209   2.545  -0.115  0.2485  0.1936  0.7353
  141HFI     F2 2174   2.354   2.620   0.034 -0.2540  0.5101 -0.1519
  141HFI     F3 2175   2.164   2.537   0.105 -0.2172  0.1252 -0.1656
  141HFI     C3 2176   2.241   2.263  -0.017  0.5317  0.1857  0.5811
  141HFI     F4 2177   2.142   2.244   0.069  0.0832  0.1214 -0.5982
  141HFI     F5 2178   2.306   2.148  -0.020  0.0102 -0.0988 -0.5723
  141HFI     F6 2179   2.179   2.278  -0.134  0.0434  0.4630  0.0437
  141HFI     H1 2180   2.361   2.388   0.198  2.3241 -0.2628  1.4676
  141HFI     H2 2181   2.399   2.387  -0.085 -0.0786 -2.8001  0.4226
  142HFI     O1 2182   2.207   2.767   1.012  0.1829 -0.6332 -0.1510
  142HFI     C1 2183   2.322   2.687   0.964 -0.2207 -0.4279 -0.1683
  142HFI     C2 2184   2.461   2.735   1.020  0.9647 -0.1202 -0.0406
  142HFI     F1 2185   2.456   2.735   1.154 -0.1657 -0.1838 -0.2058
  142HFI     F2 2186   2.485   2.859   0.976 -0.6297  0.1801  0.7220
  142HFI     F3 2187   2.567   2.654   0.990  0.4690 -0.2292  0.1315
  142HFI     C3 2188   2.322   2.674   0.808  0.0951  0.5795  0.0217
  142HFI     F4 2189   2.201   2.626   0.768 -0.2963  0.3125 -0.0539
  142HFI     F5 2190   2.419   2.589   0.771 -0.1372  0.1012 -0.1312
  142HFI     F6 2191   2.341   2.793   0.753 -0.3771 -0.1377  0.4942
  142HFI     H1 2192   2.230   2.861   1.008  0.5938 -0.6317  1.8743
  142HFI     H2 2193   2.315   2.588   1.010 -1.2079 -0.9903 -1.4858
  143HFI     O1 2194   1.314   1.492   1.288 -0.4427 -0.0143  0.1305
  143HFI     C1 2195   1.420   1.492   1.392  0.7078 -0.3268  0.0493
  143HFI     C2 2196   1.396   1.413   1.533 -0.4160 -0.0551 -0.0135
  143HFI     F1 2197   1.361   1.281   1.523 -0.1773  0.5270 -0.0488
  143HFI     F2 2198   1.289   1.471   1.599 -0.0271 -0.2683 -0.2122
  143HFI     F3 2199   1.499   1.433   1.616  0.4535  0.0112  0.1164
  143HFI     C3 2200   1.474   1.636   1.418  0.7188  0.4495 -0.3567
  143HFI     F4 2201   1.380   1.711   1.480  0.2428  0.3895  0.0009
  143HFI     F5 2202   1.507   1.699   1.297 -0.3209 -0.0396 -0.2546
  143HFI     F6 2203   1.581   1.645   1.494 -0.3938 -0.0949 -0.2075
  143HFI     H1 2204   1.252   1.432   1.334  0.6115 -1.2798 -0.0777
  143HFI     H2 2205   1.506   1.439   1.348  0.5508 -0.9053  0.4294
  144HFI     O1 2206   1.915   2.274   0.584  0.0104  0.0432 -0.1773
  144HFI     C1 2207   2.031   2.189   0.581 -0.5033 -0.2480  0.5134
  144HFI     C2 2208   2.133   2.225   0.693 -0.4004 -0.2211 -0.5087
  144HFI     F1 2209   2.081   2.240   0.816  0.0362 -0.3515  0.2974
  144HFI     F2 2210   2.195   2.341   0.659  0.0621 -0.0300 -0.3018
  144HFI     F3 2211   2.226   2.125   0.693 -0.0365  0.3023 -0.1235
  144HFI     C3 2212   2.078   2.193   0.432  0.9728  0.3127  0.0624
  144HFI     F4 2213   2.195   2.139   0.417  0.3903 -0.4090  0.2164
  144HFI     F5 2214   2.092   2.321   0.379  0.0160 -0.2638 -0.1869
  144HFI     F6 2215   1.994   2.122   0.345 -0.2015 -0.0230  0.0271
  144HFI     H1 2216   1.937   2.369   0.577  2.2825 -0.5051 -1.1097
  144HFI     H2 2217   2.001   2.087   0.606  1.6764 -0.3693  2.8004
  145HFI     O1 2218   0.244   1.944   0.141 -0.0468 -0.1525 -0.0931
  145HFI     C1 2219   0.351   1.994   0.054 -0.0373 -0.7901  0.3693
  145HFI     C2 2220   0.325   2.145   0.003  0.2026  0.3866  0.1884
  145HFI     F1 2221   0.318   2.221   0.114  0.0586  0.0858 -0.0005
  145HFI     F2 2222   0.211   2.158  -0.073  0.0234  0.7026 -0.0888
  145HFI     F3 2223   0.423   2.191  -0.079  0.0543 -0.1060 -0.1534
  145HFI     C3 2224   0.377   1.896  -0.063 -0.2814 -0.3624 -0.6109
  145HFI     F4 2225   0.395   1.770  -0.024  0.3011 -0.3145  0.0531
  145HFI     F5 2226   0.487   1.932  -0.140 -0.3517 -0.4415 -0.3922
  145HFI     F6 2227   0.275   1.884  -0.141  0.2982  0.5373  0.2482
  145HFI     H1 2228   0.169   2.005   0.141 -0.4170 -0.5762  1.2305
  145HFI     H2 2229   0.446   2.005   0.106 -0.9046  1.5781  1.5132
  146HFI     O1 2230   1.860   1.776   0.102  0.2453  0.5540 -0.0262
  146HFI     C1 2231   1.773   1.718   0.004  0.2922 -0.0233  0.1702
  146HFI     C2 2232   1.709   1.830  -0.078  0.8443 -0.4970 -0.2693
  146HFI     F1 2233   1.626   1.917  -0.012 -0.0031 -0.4963  0.1835
  146HFI     F2 2234   1.639   1.773  -0.184  0.3206 -0.1162  0.1915
  146HFI     F3 2235   1.806   1.908  -0.136 -0.4085  0.2693  0.4997
  146HFI     C3 2236   1.659   1.627   0.060  0.4508 -0.0778 -0.3768
  146HFI     F4 2237   1.614   1.545  -0.040 -0.0473 -0.4693 -0.5490
  146HFI     F5 2238   1.556   1.695   0.106 -0.2021 -0.3272  0.1964
  146HFI     F6 2239   1.703   1.544   0.149  0.6794  0.0476  0.0952
  146HFI     H1 2240   1.811   1.826   0.169  1.2262 -1.4527  2.2493
  146HFI     H2 2241   1.826   1.659  -0.072  0.1971 -1.5703  1.2713
  147HFI     O1 2242   2.415   3.171   2.297 -0.2555 -0.2326  0.1019
  147HFI     C1 2243   2.554   3.152   2.259 -0.3530 -0.8818  0.0373
  147HFI     C2 2244   2.623   3.035   2.331 -0.2549  0.5496  0.6461
  147HFI     F1 2245   2.733   3.009   2.253 -0.0856  0.6481 -0.5384
  147HFI     F2 2246   2.542   2.924   2.319  0.4742 -0.1883 -0.2576
  147HFI     F3 2247   2.660   3.054   2.458 -0.0212  0.3673  0.8112
  147HFI     C3 2248   2.623   3.293   2.274  0.9001 -0.4886 -0.3930
  147HFI     F4 2249   2.550   3.391   2.220 -0.2194  0.3491 -0.2757
  147HFI     F5 2250   2.744   3.298   2.220 -0.8029  0.4274 -0.3953
  147HFI     F6 2251   2.634   3.332   2.400  0.6730 -0.3800 -0.7323
  147HFI     H1 2252   2.372   3.084   2.304 -0.1167 -0.3696 -0.7611
  147HFI     H2 2253   2.563   3.137   2.151  3.9513 -3.2914  0.6379
  148HFI     O1 2254   0.635   1.687   2.683 -0.8944 -0.0066  0.0516
  148HFI     C1 2255   0.575   1.593   2.780  0.2899 -0.0194 -0.7716
  148HFI     C2 2256   0.650   1.454   2.768  0.7243 -0.2005 -0.9308
  148HFI     F1 2257   0.607   1.377   2.870 -0.3990  0.6525  0.2006
  148HFI     F2 2258   0.781   1.467   2.767  0.2152  0.1361  0.0299
  148HFI     F3 2259   0.617   1.394   2.649  0.1927 -0.1273  0.5989
  148HFI     C3 2260   0.423   1.577   2.767 -0.1797 -0.1213  0.3614
  148HFI     F4 2261   0.375   1.560   2.644  0.1145 -0.2006 -0.2516
  148HFI     F5 2262   0.364   1.683   2.830  0.1360 -0.0945  0.1975
  148HFI     F6 2263   0.376   1.471   2.833  0.2081 -0.2033 -0.6753
  148HFI     H1 2264   0.597   1.672   2.595 -1.6226 -1.5007  0.6131
  148HFI     H2 2265   0.589   1.624   2.884 -1.5414 -2.2950  0.1943
  149HFI     O1 2266   1.955   0.933   0.669 -0.6832  0.2478  0.6444
  149HFI     C1 2267   1.986   0.818   0.588  0.3743  0.5527 -0.3681
  149HFI     C2 2268   2.138   0.803   0.569  0.5062  0.1720 -0.5976
  149HFI     F1 2269   2.202   0.862   0.672  0.1403  0.1915  0.0966
  149HFI     F2 2270   2.189   0.858   0.454 -0.3980 -0.3096  0.3410
  149HFI     F3 2271   2.175   0.670   0.567 -0.4916 -0.7537  0.0230
  149HFI     C3 2272   1.914   0.825   0.450 -0.1189 -0.1580 -0.6560
  149HFI     F4 2273   1.931   0.712   0.373 -0.3347 -0.0351  0.0361
  149HFI     F5 2274   1.953   0.933   0.384 -0.0310  0.3413 -0.0242
  149HFI     F6 2275   1.781   0.835   0.476  0.5733 -0.6479 -0.2092
  149HFI     H1 2276   2.033   0.957   0.722 -0.1665 -0.5160  0.2276
  149HFI     H2 2277   1.936   0.732   0.635 -3.3703  1.1741 -2.9201
  150HFI     O1 2278   0.247   0.865   2.515  0.2732 -0.5144  0.3701
  150HFI     C1 2279   0.341   0.899   2.408  0.2869  0.5716  0.6037
  150HFI     C2 2280   0.268   0.931   2.276 -0.3012 -0.1655 -0.1954
  150HFI     F1 2281   0.351   0.990   2.190 -0.0785 -0.0149 -0.0119
  150HFI     F2 2282   0.168   1.011   2.299 -0.0893 -0.5350 -0.3032
  150HFI     F3 2283   0.212   0.821   2.211 -0.7284 -0.0606  0.1146
  150HFI     C3 2284   0.443   0.780   2.382  0.1026 -0.6805  0.1999
  150HFI     F4 2285   0.384   0.662   2.348 -0.2177 -0.5853  0.0452
  150HFI     F5 2286   0.510   0.744   2.498  0.2513  0.2127  0.5623
  150HFI     F6 2287   0.530   0.811   2.288  0.1814  0.2269 -0.7155
  150HFI     H1 2288   0.254   0.770   2.534 -1.1640 -1.0348 -1.4621
  150HFI     H2 2289   0.401   0.987   2.433 -1.0046  0.8550  2.8668
  151HFI     O1 2290   1.182   2.504   3.595 -0.3721  0.4360 -0.2876
  151HFI     C1 2291   1.281   2.493   3.708  0.2705  0.4814  0.5812
  151HFI     C2 2292   1.283   2.342   3.762  0.8675 -0.7599 -0.5063
  151HFI     F1 2293   1.376   2.322   3.860  0.4420 -0.1506  0.6268
  151HFI     F2 2294   1.309   2.265   3.655  0.3017 -0.6157 -0.0972
  151HFI     F3 2295   1.163   2.304   3.813 -0.2331 -0.0726 -0.0272
  151HFI     C3 2296   1.260   2.598   3.820 -0.2807 -0.0893 -0.4747
  151HFI     F4 2297   1.155   2.569   3.895  0.0458  0.7948  0.3666
  151HFI     F5 2298   1.237   2.725   3.769 -0.0196 -0.2060  0.0504
  151HFI     F6 2299   1.365   2.601   3.900 -0.1828 -0.4276  0.4104
  151HFI     H1 2300   1.098   2.462   3.620 -1.5149  1.7565 -1.8436
  151HFI     H2 2301   1.385   2.512   3.678  0.0025  0.5066 -0.3558
  152HFI     O1 2302   2.149   0.730   1.562  0.5274  0.0286 -0.8530
  152HFI     C1 2303   2.242   0.808   1.481 -0.0049  0.3736  0.4972
  152HFI     C2 2304   2.189   0.951   1.456  0.0289  0.7904 -0.0864
  152HFI     F1 2305   2.267   1.029   1.373  0.3085 -0.0101  0.3526
  152HFI     F2 2306   2.186   1.011   1.574 -0.0555 -0.1294 -0.1649
  152HFI     F3 2307   2.055   0.948   1.423 -0.1425  0.0637  0.4487
  152HFI     C3 2308   2.260   0.736   1.349 -0.6884  0.5183  0.0162
  152HFI     F4 2309   2.146   0.717   1.278 -0.4009  0.1477 -0.0476
  152HFI     F5 2310   2.316   0.615   1.377  0.1930 -0.0163  0.0969
  152HFI     F6 2311   2.338   0.797   1.262 -0.4545  0.4942 -0.2409
  152HFI     H1 2312   2.078   0.691   1.509 -0.8405  1.8554 -0.4269
  152HFI     H2 2313   2.342   0.814   1.526  1.7310 -0.0304 -3.1409
  153HFI     O1 2314   1.345   0.316   3.361  0.0234 -0.5428  0.2947
  153HFI     C1 2315   1.403   0.400   3.249  0.9156  0.3948 -0.3081
  153HFI     C2 2316   1.296   0.501   3.195  0.2058  0.7294  0.0483
  153HFI     F1 2317   1.332   0.569   3.080 -0.4884  0.5347  0.2745
  153HFI     F2 2318   1.265   0.594   3.287  0.3326 -0.4719 -0.3777
  153HFI     F3 2319   1.180   0.432   3.168 -0.3308 -0.0697  0.2335
  153HFI     C3 2320   1.479   0.319   3.140  0.2112 -0.4471  0.0010
  153HFI     F4 2321   1.570   0.238   3.193  0.6893  0.4619  0.3949
  153HFI     F5 2322   1.549   0.398   3.054  0.6818  0.3472  0.4500
  153HFI     F6 2323   1.399   0.248   3.067 -0.2207  0.1046  0.0418
  153HFI     H1 2324   1.274   0.259   3.326  0.7190  0.1637 -2.4035
  153HFI     H2 2325   1.479   0.468   3.289  1.3979  0.6587 -1.6221
  154HFI     O1 2326   1.899   1.177   1.193  0.3181 -0.7436  0.5974
  154HFI     C1 2327   1.980   1.171   1.074  0.3764  0.3047  0.0054
  154HFI     C2 2328   1.953   1.272   0.961 -0.0107 -0.0231 -0.1377
  154HFI     F1 2329   1.848   1.236   0.876 -0.3774  0.1253  0.0156
  154HFI     F2 2330   2.057   1.295   0.884  0.1886 -0.2222  0.0931
  154HFI     F3 2331   1.922   1.394   1.022 -0.3721  0.1217 -0.3217
  154HFI     C3 2332   1.997   1.032   1.013  0.0583  0.0111 -0.3151
  154HFI     F4 2333   1.881   0.966   0.980  0.1384 -0.4688 -0.1175
  154HFI     F5 2334   2.065   0.951   1.107  0.1049  0.2079  0.3698
  154HFI     F6 2335   2.085   1.032   0.909  0.0176 -0.0865 -0.4735
  154HFI     H1 2336   1.844   1.097   1.185 -0.3738 -0.0278 -2.4406
  154HFI     H2 2337   2.082   1.197   1.104  0.1825 -0.4703  1.3384
  155HFI     O1 2338   2.473   2.468   2.925  0.7956 -0.6511  0.0106
  155HFI     C1 2339   2.349   2.535   2.902  0.1073  0.4586  0.0282
  155HFI     C2 2340   2.229   2.440   2.846 -0.8608 -0.3092 -0.2969
  155HFI     F1 2341   2.225   2.329   2.922 -1.0549  0.2232  0.7104
  155HFI     F2 2342   2.255   2.402   2.721  0.2272 -0.0109 -0.2745
  155HFI     F3 2343   2.104   2.503   2.849 -0.0668 -0.3500 -0.1216
  155HFI     C3 2344   2.358   2.672   2.828  0.1048  0.3200  0.6378
  155HFI     F4 2345   2.395   2.647   2.701  0.4748  0.0655  0.1157
  155HFI     F5 2346   2.456   2.740   2.884 -0.3973 -0.1909 -0.1514
  155HFI     F6 2347   2.245   2.744   2.835  0.0114  0.3458  0.1531
  155HFI     H1 2348   2.521   2.455   2.842 -0.8405 -0.0115 -1.0536
  155HFI     H2 2349   2.318   2.562   3.004  1.1425  3.1068 -0.3226
  156HFI     O1 2350   0.868   3.409   3.194  0.5140  0.2086 -0.5861
  156HFI     C1 2351   0.748   3.325   3.200  0.4236  0.1490 -0.4012
  156HFI     C2 2352   0.620   3.407   3.148  0.1211 -0.2974  0.0813
  156HFI     F1 2353   0.637   3.459   3.024  0.2106  0.4270 -0.0180
  156HFI     F2 2354   0.583   3.506   3.221  0.5512 -0.3194  0.1155
  156HFI     F3 2355   0.505   3.326   3.140  0.6767  0.4298 -0.0508
  156HFI     C3 2356   0.728   3.266   3.344 -0.4201  0.8548 -0.5039
  156HFI     F4 2357   0.700   3.360   3.438 -0.1503  0.2175 -0.2145
  156HFI     F5 2358   0.840   3.208   3.382 -0.0677  0.5885  0.6102
  156HFI     F6 2359   0.628   3.174   3.336  0.0031  0.5535 -0.0221
  156HFI     H1 2360   0.871   3.469   3.270 -0.0166 -0.9279  0.3404
  156HFI     H2 2361   0.765   3.239   3.135 -1.9385 -0.4167 -0.3248
  157HFI     O1 2362   2.966   2.413   3.635  0.0109 -0.1583 -0.0146
  157HFI     C1 2363   3.015   2.494   3.742  0.3376 -0.5000 -0.5181
  157HFI     C2 2364   3.091   2.409   3.849  0.5126 -0.1372 -0.0617
  157HFI     F1 2365   3.014   2.299   3.887  0.1959 -0.9175  0.0274
  157HFI     F2 2366   3.134   2.473   3.961  0.1254 -0.2214 -0.0534
  157HFI     F3 2367   3.201   2.352   3.790  0.2414  0.0677  0.0834
  157HFI     C3 2368   2.901   2.569   3.808 -0.0526  0.0099  0.3970
  157HFI     F4 2369   2.814   2.488   3.870  0.0037 -0.6568 -0.0034
  157HFI     F5 2370   2.833   2.641   3.720 -0.0658 -0.4310  0.5385
  157HFI     F6 2371   2.954   2.660   3.903  0.5637 -0.0207  0.1139
  157HFI     H1 2372   2.932   2.329   3.669 -3.1693  1.6958  1.5339
  157HFI     H2 2373   3.097   2.559   3.709  2.0468 -2.1356  0.4349
  158HFI     O1 2374   0.612   2.290   2.468 -0.0655 -0.8336  0.4947
  158HFI     C1 2375   0.750   2.297   2.420 -0.0405  0.6008 -0.4190
  158HFI     C2 2376   0.827   2.400   2.510 -0.9383  0.2943  0.1257
  158HFI     F1 2377   0.777   2.400   2.634  0.7691  0.5157  0.3487
  158HFI     F2 2378   0.818   2.528   2.459  0.7747  0.0897  0.0657
  158HFI     F3 2379   0.962   2.372   2.513 -0.3594  0.5908 -0.6461
  158HFI     C3 2380   0.773   2.328   2.262 -0.2852 -1.2556  1.0604
  158HFI     F4 2381   0.731   2.439   2.220  0.4421 -0.1530  0.1817
  158HFI     F5 2382   0.716   2.229   2.194  0.1391 -0.3594 -0.5245
  158HFI     F6 2383   0.905   2.324   2.239 -0.4421  0.4464 -0.4937
  158HFI     H1 2384   0.554   2.272   2.393 -1.1461  1.0311  0.8538
  158HFI     H2 2385   0.799   2.200   2.438 -1.7961  0.0794  1.8284
  159HFI     O1 2386   3.063   2.295   1.147  0.0868 -0.5046 -0.9309
  159HFI     C1 2387   3.142   2.211   1.059 -1.0140 -0.3758  0.6266
  159HFI     C2 2388   3.156   2.295   0.928 -0.8959  1.2231  0.2649
  159HFI     F1 2389   3.209   2.416   0.962  0.2041 -0.1060  0.4540
  159HFI     F2 2390   3.039   2.325   0.867 -0.3873  0.3996 -0.0931
  159HFI     F3 2391   3.229   2.232   0.839  0.1699 -0.0900 -0.4928
  159HFI     C3 2392   3.089   2.063   1.029  0.7942  0.2772 -0.5793
  159HFI     F4 2393   3.013   2.014   1.132  0.0576 -0.5174  0.4345
  159HFI     F5 2394   3.193   1.977   1.009  0.0663  0.8969 -0.0023
  159HFI     F6 2395   3.013   2.059   0.927  0.2434 -0.5326 -0.1075
  159HFI     H1 2396   2.975   2.256   1.158  0.7461 -2.0531 -1.1001
  159HFI     H2 2397   3.241   2.208   1.107 -1.3084  0.5919  1.3075
  160HFI     O1 2398   1.170   1.112   3.788 -0.4656 -0.1198 -0.5904
  160HFI     C1 2399   1.239   0.988   3.754  0.5018  0.2348  0.1105
  160HFI     C2 2400   1.142   0.868   3.745 -0.2111  0.5175  0.2594
  160HFI     F1 2401   1.022   0.919   3.712 -0.1197 -0.0531 -0.2618
  160HFI     F2 2402   1.129   0.805   3.863  0.2052 -0.0138 -0.0962
  160HFI     F3 2403   1.180   0.776   3.659 -0.5756  0.7315  0.2831
  160HFI     C3 2404   1.355   0.963   3.855 -0.1215  0.0909 -0.7685
  160HFI     F4 2405   1.422   0.844   3.843  0.3844 -0.4777  0.4232
  160HFI     F5 2406   1.316   0.992   3.981  0.2780  0.1715 -0.8015
  160HFI     F6 2407   1.444   1.051   3.825  0.3160 -0.2082 -0.1346
  160HFI     H1 2408   1.082   1.110   3.748 -0.8672  0.6949  0.2349
  160HFI     H2 2409   1.273   0.986   3.650 -0.0119  1.9407 -0.0981
  161HFI     O1 2410   2.304   1.428   3.039 -0.1774 -0.4307  0.0662
  161HFI     C1 2411   2.366   1.329   2.951  0.1006  0.9112  0.1996
  161HFI     C2 2412   2.397   1.388   2.814 -0.2268  0.5154  0.1579
  161HFI     F1 2413   2.490   1.482   2.824  0.0788 -0.3435 -0.0958
  161HFI     F2 2414   2.287   1.436   2.745 -0.1173  0.3236 -0.4432
  161HFI     F3 2415   2.448   1.295   2.733 -0.0020  0.2237  0.2527
  161HFI     C3 2416   2.282   1.191   2.965 -0.0824 -0.5007 -0.1428
  161HFI     F4 2417   2.329   1.095   2.884  0.1826 -0.0109  0.0210
  161HFI     F5 2418   2.151   1.209   2.944  0.0461  0.4016  0.0455
  161HFI     F6 2419   2.291   1.153   3.091 -0.2267  0.1361  0.2481
  161HFI     H1 2420   2.249   1.493   2.992 -0.7139  0.0105  1.3102
  161HFI     H2 2421   2.463   1.304   2.996 -0.6278 -1.1507  0.7017
  162HFI     O1 2422   1.338   0.372   2.447 -0.0854 -0.6189  0.5583
  162HFI     C1 2423   1.459   0.357   2.361  0.1427  0.1734 -0.7425
  162HFI     C2 2424   1.471   0.475   2.259 -0.2409  0.5239  0.3800
  162HFI     F1 2425   1.359   0.468   2.173 -0.0933  0.0268 -0.1989
  162HFI     F2 2426   1.581   0.466   2.183  0.6531  0.0424 -0.2997
  162HFI     F3 2427   1.477   0.590   2.317  0.0523 -0.2517  0.2754
  162HFI     C3 2428   1.451   0.215   2.306 -0.5940 -0.4335 -0.1008
  162HFI     F4 2429   1.344   0.201   2.226 -0.1521 -0.1437 -0.3023
  162HFI     F5 2430   1.441   0.133   2.411  0.5009  0.1225  0.3660
  162HFI     F6 2431   1.561   0.184   2.235 -0.2396 -0.5612 -0.1054
  162HFI     H1 2432   1.286   0.452   2.430 -1.3069 -1.2766  1.1414
  162HFI     H2 2433   1.554   0.369   2.414 -0.5401 -0.2561  0.5997
  163HFI     O1 2434   2.638   1.314   3.539 -0.8948 -0.0743 -0.3204
  163HFI     C1 2435   2.714   1.418   3.479 -0.0815  0.4516  0.3662
  163HFI     C2 2436   2.687   1.546   3.554 -0.0883 -1.3040 -0.6926
  163HFI     F1 2437   2.789   1.631   3.541 -0.3550 -0.0395 -0.1439
  163HFI     F2 2438   2.676   1.520   3.684 -0.0682  0.2389  0.3056
  163HFI     F3 2439   2.578   1.612   3.511 -0.2704 -0.1640  0.3828
  163HFI     C3 2440   2.692   1.436   3.324 -1.4622  0.5872 -0.3812
  163HFI     F4 2441   2.770   1.346   3.257 -0.0922 -0.6996 -0.0218
  163HFI     F5 2442   2.724   1.560   3.284 -0.3008  0.3226  0.0814
  163HFI     F6 2443   2.569   1.407   3.286  0.0147  0.1037 -0.5980
  163HFI     H1 2444   2.542   1.324   3.527 -1.2297 -1.5176  0.9863
  163HFI     H2 2445   2.819   1.393   3.501 -0.3726  1.0757  2.5020
  164HFI     O1 2446   0.597   2.336   0.097 -0.0462 -0.3187  0.2729
  164HFI     C1 2447   0.660   2.443   0.019 -0.1879 -0.1818  0.0382
  164HFI     C2 2448   0.566   2.524  -0.081  0.8249  0.6965  0.3420
  164HFI     F1 2449   0.447   2.541  -0.022 -0.1577 -0.5164 -0.0847
  164HFI     F2 2450   0.548   2.448  -0.191 -0.0640  0.9593  0.1604
  164HFI     F3 2451   0.611   2.647  -0.110 -0.3316  0.0069 -0.1930
  164HFI     C3 2452   0.793   2.389  -0.041  0.5302 -0.5415 -0.0761
  164HFI     F4 2453   0.867   2.330   0.052  0.1037 -0.0524 -0.1476
  164HFI     F5 2454   0.866   2.491  -0.096 -0.0133  0.3009  0.0073
  164HFI     F6 2455   0.767   2.301  -0.143  0.2576 -0.3362 -0.0761
  164HFI     H1 2456   0.659   2.272   0.137 -0.3919  0.1541  1.5908
  164HFI     H2 2457   0.693   2.522   0.089 -0.9210 -1.2060  1.5718
  165HFI     O1 2458   3.181   2.773   0.009 -0.5290  0.4823 -0.1416
  165HFI     C1 2459   3.142   2.911  -0.003  0.4620  0.4236 -0.4260
  165HFI     C2 2460   3.099   2.939  -0.143 -0.2381  0.2565  0.0519
  165HFI     F1 2461   3.003   2.858  -0.182 -0.2585  0.4266 -0.4223
  165HFI     F2 2462   3.196   2.932  -0.241  0.1888 -0.4705  0.0790
  165HFI     F3 2463   3.049   3.069  -0.152  0.5198  0.1652  0.1352
  165HFI     C3 2464   3.257   3.004   0.049  0.2274 -0.5532  0.1870
  165HFI     F4 2465   3.306   2.988   0.179 -0.3297  0.1357  0.5047
  165HFI     F5 2466   3.226   3.134   0.054 -0.2290 -0.0538 -0.2071
  165HFI     F6 2467   3.363   2.986  -0.034 -0.1585  0.0148 -0.6887
  165HFI     H1 2468   3.273   2.763  -0.021 -0.1911  1.9096  0.4059
  165HFI     H2 2469   3.055   2.927   0.062 -0.1438  1.6392 -1.5285
  166HFI     O1 2470   0.144   0.660   3.352  0.2162 -0.1234  0.2220
  166HFI     C1 2471   0.281   0.641   3.312 -0.1485 -0.2073 -0.1739
  166HFI     C2 2472   0.318   0.729   3.185 -0.3810 -0.4492 -0.4161
  166HFI     F1 2473   0.450   0.731   3.159 -0.3865 -0.2591 -0.2262
  166HFI     F2 2474   0.286   0.858   3.225  0.2532 -0.1821  0.1708
  166HFI     F3 2475   0.249   0.700   3.075 -0.3572  0.2841  0.0647
  166HFI     C3 2476   0.315   0.488   3.283  0.2595 -0.3903  0.3741
  166HFI     F4 2477   0.449   0.459   3.282 -0.1691  0.5176 -0.1757
  166HFI     F5 2478   0.267   0.446   3.167 -0.5468  0.1528  0.0301
  166HFI     F6 2479   0.254   0.415   3.381 -0.6327 -0.2078  0.6298
  166HFI     H1 2480   0.122   0.751   3.327  1.4146  0.8942  2.7698
  166HFI     H2 2481   0.345   0.679   3.393  0.8746 -0.5169 -0.8331
  167HFI     O1 2482   2.331   2.070   2.901  0.2476  0.5028 -0.4787
  167HFI     C1 2483   2.286   1.950   2.827  0.0992 -0.9859 -0.5822
  167HFI     C2 2484   2.146   1.968   2.769 -0.4599 -0.6243 -0.3592
  167HFI     F1 2485   2.139   2.090   2.705  0.3160 -0.0160 -0.1229
  167HFI     F2 2486   2.045   1.956   2.870  0.2160 -0.5025 -0.6003
  167HFI     F3 2487   2.120   1.872   2.675 -0.2104 -0.0594  0.0620
  167HFI     C3 2488   2.300   1.817   2.900  0.3097  0.5739 -0.4159
  167HFI     F4 2489   2.231   1.805   3.017  0.6357  0.3649 -0.1214
  167HFI     F5 2490   2.432   1.810   2.927  0.3251  0.1566  0.4053
  167HFI     F6 2491   2.278   1.710   2.823 -0.5953  0.0352 -0.5375
  167HFI     H1 2492   2.397   2.042   2.967  0.4703 -1.2362 -1.3890
  167HFI     H2 2493   2.343   1.954   2.733  0.3391  0.3573 -0.3904
  168HFI     O1 2494   3.143   1.294   3.771  1.2438  0.4960  0.6269
  168HFI     C1 2495   3.068   1.268   3.893  0.7691 -0.0834 -0.0306
  168HFI     C2 2496   2.970   1.146   3.882  0.5628  0.7370  0.4834
  168HFI     F1 2497   3.049   1.043   3.858  0.8615 -0.1576  0.3154
  168HFI     F2 2498   2.875   1.159   3.790  0.0608 -0.5195  0.4449
  168HFI     F3 2499   2.907   1.116   3.997  0.7218 -0.4584 -0.2674
  168HFI     C3 2500   2.995   1.407   3.932 -0.4469 -0.3438 -0.0808
  168HFI     F4 2501   3.080   1.501   3.969 -0.2313 -0.0473  0.2304
  168HFI     F5 2502   2.904   1.398   4.041 -0.4627  0.1221 -0.0442
  168HFI     F6 2503   2.918   1.450   3.829 -0.3637 -0.4820 -0.3801
  168HFI     H1 2504   3.177   1.208   3.741  1.4254  1.0661 -0.8260
  168HFI     H2 2505   3.129   1.247   3.982  1.8950  0.9284 -0.5495
  169HFI     O1 2506   3.003   0.637   2.694  0.0726  0.2622  0.1852
  169HFI     C1 2507   3.019   0.552   2.813 -0.3172 -0.4091  0.7702
  169HFI     C2 2508   3.022   0.400   2.782 -0.1673 -0.3296  0.0527
  169HFI     F1 2509   2.899   0.355   2.742 -0.0388  0.2184 -0.1782
  169HFI     F2 2510   3.057   0.333   2.892 -0.1275  0.2843  0.1805
  169HFI     F3 2511   3.116   0.367   2.687  0.3984  0.1013  0.1002
  169HFI     C3 2512   2.922   0.588   2.929  0.2406 -0.7370  0.0248
  169HFI     F4 2513   2.930   0.495   3.032 -0.2801  0.1786  0.5190
  169HFI     F5 2514   2.801   0.588   2.879  0.0729  0.5989  0.0018
  169HFI     F6 2515   2.936   0.717   2.969 -0.1462 -0.6418  0.4977
  169HFI     H1 2516   2.912   0.630   2.660  0.1045  2.0250 -0.3177
  169HFI     H2 2517   3.122   0.576   2.842 -0.5184  2.9789 -0.9527
  170HFI     O1 2518   1.807   1.040   0.129  0.3366 -0.6352  0.1586
  170HFI     C1 2519   1.852   1.157   0.065  0.0549 -0.1742 -0.1946
  170HFI     C2 2520   1.813   1.166  -0.082 -0.0575  0.3927 -0.1409
  170HFI     F1 2521   1.688   1.135  -0.100  0.3777  0.3575 -0.2964
  170HFI     F2 2522   1.883   1.078  -0.157  0.2405 -0.3849 -0.1068
  170HFI     F3 2523   1.832   1.290  -0.131  0.2746  0.0473  0.1370
  170HFI     C3 2524   2.005   1.175   0.087 -0.1669  0.6547 -0.1187
  170HFI     F4 2525   2.035   1.301   0.065 -0.1140  0.2404  0.1086
  170HFI     F5 2526   2.079   1.094   0.016  0.2088 -0.1291  0.2027
  170HFI     F6 2527   2.033   1.149   0.217  0.1703  0.1703 -0.0221
  170HFI     H1 2528   1.711   1.036   0.139 -0.1069  2.6897 -2.1796
  170HFI     H2 2529   1.812   1.244   0.118 -0.2894 -1.4534  1.6861
  171HFI     O1 2530   0.494   2.774   2.530 -0.2035 -0.3405  0.3434
  171HFI     C1 2531   0.398   2.761   2.421 -0.4316 -0.1839 -0.1781
  171HFI     C2 2532   0.251   2.802   2.459  0.2019 -0.2129  0.1551
  171HFI     F1 2533   0.177   2.707   2.526  0.0010 -0.0173 -0.4166
  171HFI     F2 2534   0.182   2.839   2.343  0.6035 -0.2852  0.3336
  171HFI     F3 2535   0.256   2.910   2.539  0.8201  0.3975 -0.4412
  171HFI     C3 2536   0.399   2.628   2.342  0.0238  0.2380 -0.4094
  171HFI     F4 2537   0.306   2.621   2.246  0.2464 -0.5602 -0.6307
  171HFI     F5 2538   0.363   2.536   2.434  0.5795 -0.1207 -0.1481
  171HFI     F6 2539   0.521   2.598   2.287 -0.0960  0.4698  0.2077
  171HFI     H1 2540   0.478   2.724   2.612  0.9467 -0.5945  0.4197
  171HFI     H2 2541   0.429   2.831   2.343  0.0213  0.2338  0.3722
  172HFI     O1 2542   1.439   1.506   2.469  0.2684  0.3894 -0.5103
  172HFI     C1 2543   1.524   1.599   2.396  0.8935 -0.3825 -0.7570
  172HFI     C2 2544   1.534   1.727   2.469  0.4080  0.1082 -0.8799
  172HFI     F1 2545   1.639   1.800   2.425 -0.6267  0.1528  0.1042
  172HFI     F2 2546   1.554   1.693   2.599  0.5955 -0.3792  0.0011
  172HFI     F3 2547   1.425   1.811   2.466 -0.2545 -0.1803  0.1191
  172HFI     C3 2548   1.467   1.622   2.256  0.2247  0.4998  0.9463
  172HFI     F4 2549   1.471   1.512   2.181  0.3105  0.3534  0.6693
  172HFI     F5 2550   1.535   1.719   2.192 -0.4920  0.0954  0.3322
  172HFI     F6 2551   1.336   1.663   2.255 -0.4310  0.3775 -0.5107
  172HFI     H1 2552   1.480   1.481   2.554 -2.1006 -0.6752  0.3564
  172HFI     H2 2553   1.629   1.570   2.384  0.6799 -1.8587  0.8483
  173HFI     O1 2554   1.228   2.547   1.338  0.4189 -0.1738 -0.0442
  173HFI     C1 2555   1.154   2.657   1.396  0.3682  0.5776 -0.4490
  173HFI     C2 2556   1.110   2.629   1.541 -0.1753 -0.1179 -0.3447
  173HFI     F1 2557   1.043   2.517   1.553 -0.3718 -0.0101 -0.4006
  173HFI     F2 2558   1.041   2.736   1.587 -0.5840  0.1903  0.1387
  173HFI     F3 2559   1.207   2.614   1.625 -0.1443 -0.2049  0.4587
  173HFI     C3 2560   1.031   2.693   1.299  0.3699  0.7079  0.6086
  173HFI     F4 2561   0.963   2.799   1.337 -0.1702 -0.3275  0.3992
  173HFI     F5 2562   0.946   2.588   1.289 -0.0929 -0.2411 -0.1476
  173HFI     F6 2563   1.076   2.710   1.175  0.1262  0.3345 -0.3439
  173HFI     H1 2564   1.239   2.558   1.242  0.8205  0.8225  0.1083
  173HFI     H2 2565   1.222   2.742   1.392 -1.9558  2.5656  0.8741
  174HFI     O1 2566   2.072   2.762   2.490 -0.2211 -0.0227 -0.1580
  174HFI     C1 2567   2.070   2.676   2.373 -0.3583  0.1586 -0.2823
  174HFI     C2 2568   2.191   2.696   2.281 -0.1049  0.6064  0.0684
  174HFI     F1 2569   2.180   2.608   2.179  0.1021  0.3098  0.0804
  174HFI     F2 2570   2.316   2.676   2.340  0.1295 -0.0379  0.0557
  174HFI     F3 2571   2.200   2.813   2.228  0.1380  0.0425  0.5591
  174HFI     C3 2572   1.933   2.692   2.301  0.4861 -0.1096  0.2255
  174HFI     F4 2573   1.919   2.814   2.251  0.0885 -1.0822  0.3871
  174HFI     F5 2574   1.834   2.670   2.394  0.2047  0.0137  0.7704
  174HFI     F6 2575   1.919   2.600   2.203 -0.2866  0.2037 -0.3533
  174HFI     H1 2576   2.051   2.854   2.466 -0.6041  0.4322  1.8551
  174HFI     H2 2577   2.076   2.571   2.403 -2.5980 -0.6284 -2.3889
  175HFI     O1 2578   2.056   1.344   2.236 -0.7524  0.2968 -0.3550
  175HFI     C1 2579   2.094   1.428   2.354 -0.8765 -0.0896  0.1831
  175HFI     C2 2580   1.976   1.430   2.457 -0.1408  0.6207 -0.0375
  175HFI     F1 2581   2.021   1.497   2.571 -0.0061  0.2444  0.1256
  175HFI     F2 2582   1.950   1.300   2.489 -0.1592 -0.0590  0.0576
  175HFI     F3 2583   1.859   1.480   2.418  0.2319  0.0855 -0.1741
  175HFI     C3 2584   2.145   1.559   2.308 -0.2720 -0.1824  0.2209
  175HFI     F4 2585   2.055   1.624   2.244 -0.0271  0.2383 -0.0421
  175HFI     F5 2586   2.257   1.542   2.228  0.2447  0.0691  0.1564
  175HFI     F6 2587   2.175   1.638   2.413 -0.0038  0.0389  0.2548
  175HFI     H1 2588   1.968   1.305   2.255  0.2515 -1.8936 -0.0602
  175HFI     H2 2589   2.173   1.374   2.406  0.3248  2.1817  0.7934
  176HFI     O1 2590   1.942   2.918   2.751  0.1169  0.3361  0.3547
  176HFI     C1 2591   1.826   2.930   2.844  0.5478 -0.3806  0.1901
  176HFI     C2 2592   1.843   3.045   2.947  0.0818  0.1038 -0.2969
  176HFI     F1 2593   1.822   3.164   2.892 -0.0104  0.6001 -0.0210
  176HFI     F2 2594   1.969   3.044   3.004 -0.3788  0.4161  0.0239
  176HFI     F3 2595   1.745   3.034   3.043  0.2425  0.0537 -0.0746
  176HFI     C3 2596   1.778   2.789   2.901 -0.5987  0.0888  0.6452
  176HFI     F4 2597   1.802   2.686   2.824 -0.1769 -0.1819  0.0490
  176HFI     F5 2598   1.645   2.783   2.930 -0.3153 -0.4121  0.0110
  176HFI     F6 2599   1.840   2.758   3.017 -0.2434 -0.2163 -0.4250
  176HFI     H1 2600   2.007   2.854   2.784 -0.8440 -1.2145 -0.6899
  176HFI     H2 2601   1.737   2.963   2.790  1.4256  0.1337 -0.9783
  177HFI     O1 2602   0.911   2.926   2.501 -0.1735  0.1801  0.3197
  177HFI     C1 2603   0.846   2.849   2.395  0.1752  0.3521  0.3092
  177HFI     C2 2604   0.954   2.769   2.316  0.0617 -0.2025 -0.3190
  177HFI     F1 2605   0.901   2.682   2.229 -0.2404  0.3568 -0.2092
  177HFI     F2 2606   1.045   2.703   2.393  1.0170 -0.2086 -0.0779
  177HFI     F3 2607   1.034   2.844   2.239  0.1077 -0.3244 -0.4892
  177HFI     C3 2608   0.752   2.936   2.311  0.0942 -0.0143 -0.5122
  177HFI     F4 2609   0.655   2.979   2.397 -0.0950  0.4767 -0.2173
  177HFI     F5 2610   0.693   2.875   2.206 -0.0319  0.4878  0.0840
  177HFI     F6 2611   0.815   3.042   2.269 -0.1105 -0.1258 -0.0658
  177HFI     H1 2612   1.008   2.914   2.494 -0.2274 -0.0395 -0.0799
  177HFI     H2 2613   0.779   2.776   2.441 -1.0620  1.0531 -0.3412
  178HFI     O1 2614   3.225   1.696   0.902 -0.1860 -0.5058  0.1444
  178HFI     C1 2615   3.340   1.634   0.964 -0.4266  0.3502 -0.1609
  178HFI     C2 2616   3.344   1.670   1.117  0.1290 -0.4350  0.3861
  178HFI     F1 2617   3.219   1.673   1.163  0.0724 -0.3144 -0.2049
  178HFI     F2 2618   3.399   1.795   1.142  1.1536 -0.5115  0.5254
  178HFI     F3 2619   3.407   1.578   1.183  0.9402 -0.8668  0.0754
  178HFI     C3 2620   3.467   1.660   0.886 -0.0667  0.5569 -0.2384
  178HFI     F4 2621   3.491   1.793   0.880  0.5922 -0.0257 -0.2881
  178HFI     F5 2622   3.460   1.611   0.759 -0.3335  0.3300  0.2171
  178HFI     F6 2623   3.569   1.598   0.947 -0.5014 -0.1158  0.0007
  178HFI     H1 2624   3.236   1.792   0.910 -1.3440 -0.3954  0.4571
  178HFI     H2 2625   3.316   1.527   0.969  0.5531  0.1325 -0.1240
  179HFI     O1 2626   2.354   2.169   1.349  0.0005  0.6532 -0.1842
  179HFI     C1 2627   2.414   2.163   1.213  0.1248 -0.6112 -1.2450
  179HFI     C2 2628   2.407   2.294   1.124  0.4009 -0.3111  0.1065
  179HFI     F1 2629   2.479   2.299   1.016 -0.1907 -0.1453  0.7256
  179HFI     F2 2630   2.458   2.404   1.197 -0.3830  0.1475  0.2834
  179HFI     F3 2631   2.285   2.321   1.089 -0.0021 -0.0749 -0.1013
  179HFI     C3 2632   2.379   2.022   1.141 -0.0706 -0.1018 -0.1357
  179HFI     F4 2633   2.381   1.915   1.222 -0.0730  0.1213 -0.3595
  179HFI     F5 2634   2.468   1.997   1.053 -0.1014  0.0649  0.7103
  179HFI     F6 2635   2.259   2.024   1.089  0.2070 -0.0614 -0.2917
  179HFI     H1 2636   2.318   2.258   1.361 -0.0858  0.6048 -0.0811
  179HFI     H2 2637   2.522   2.156   1.230 -0.1962 -0.6180  0.9247
  180HFI     O1 2638   2.126   3.152   0.393  0.6516 -0.3586 -0.1552
  180HFI     C1 2639   2.058   3.248   0.301  0.5498  0.2949  0.5495
  180HFI     C2 2640   1.900   3.250   0.320 -1.5131  0.0785 -0.1823
  180HFI     F1 2641   1.853   3.129   0.295 -0.4847  0.2932 -0.0572
  180HFI     F2 2642   1.842   3.339   0.236  0.0750  0.4325  0.0816
  180HFI     F3 2643   1.872   3.280   0.443 -0.1849  0.1372 -0.4747
  180HFI     C3 2644   2.093   3.208   0.151 -0.1780  0.1589  0.3669
  180HFI     F4 2645   2.022   3.268   0.051  0.0069 -0.1114  0.1828
  180HFI     F5 2646   2.086   3.074   0.138 -0.1110 -0.2972  0.0487
  180HFI     F6 2647   2.219   3.250   0.128 -0.1151 -0.6778  0.2139
  180HFI     H1 2648   2.073   3.071   0.405  0.3573 -0.4763 -2.0533
  180HFI     H2 2649   2.101   3.347   0.316  0.2265  0.5229 -0.0094
  181HFI     O1 2650   2.633   2.638   3.243 -0.1505  0.8360  0.2126
  181HFI     C1 2651   2.513   2.580   3.300 -0.2979 -0.5020  0.2751
  181HFI     C2 2652   2.392   2.689   3.299 -0.7654 -0.2741  0.1279
  181HFI     F1 2653   2.361   2.728   3.175 -0.1747 -0.7174 -0.1601
  181HFI     F2 2654   2.422   2.797   3.373 -0.1535 -0.0778  0.0655
  181HFI     F3 2655   2.284   2.624   3.349 -0.4721  0.1387  0.1915
  181HFI     C3 2656   2.542   2.530   3.445 -0.2433 -0.5852 -0.2757
  181HFI     F4 2657   2.546   2.632   3.535  0.3136 -0.3634  0.1679
  181HFI     F5 2658   2.655   2.461   3.452  0.1034 -0.4916 -0.2175
  181HFI     F6 2659   2.442   2.443   3.479  0.1711 -0.5178 -0.4086
  181HFI     H1 2660   2.693   2.680   3.309  0.8923  1.0155 -0.8347
  181HFI     H2 2661   2.480   2.498   3.236 -1.8651  0.3110  0.0200
  182HFI     O1 2662   1.529   0.998   0.553  0.5206 -0.3907 -0.0071
  182HFI     C1 2663   1.603   1.126   0.536 -0.8641 -0.0431 -0.6781
  182HFI     C2 2664   1.565   1.234   0.635  0.1320 -0.3495 -0.5037
  182HFI     F1 2665   1.626   1.350   0.615  0.0060 -0.0214  0.0314
  182HFI     F2 2666   1.584   1.197   0.767  0.7252  0.0183  0.5373
  182HFI     F3 2667   1.435   1.253   0.626 -0.1602  0.1434 -0.4045
  182HFI     C3 2668   1.585   1.178   0.390 -0.9582  0.9886  0.9949
  182HFI     F4 2669   1.462   1.218   0.354 -0.0539 -0.8443 -0.0277
  182HFI     F5 2670   1.607   1.069   0.312  0.2523 -0.4037  0.0309
  182HFI     F6 2671   1.666   1.273   0.341 -0.2589 -0.2772  0.2536
  182HFI     H1 2672   1.541   0.931   0.483  1.2621 -0.1724 -0.0953
  182HFI     H2 2673   1.712   1.119   0.547 -0.9032  0.2352 -0.0948
  183HFI     O1 2674   1.958   0.375   1.088 -0.6775  0.1681  0.0449
  183HFI     C1 2675   1.951   0.514   1.053  0.6311 -0.7885 -0.1974
  183HFI     C2 2676   1.820   0.549   0.985  0.3457 -0.0736  0.2345
  183HFI     F1 2677   1.719   0.540   1.077 -0.1454  0.2937  0.0812
  183HFI     F2 2678   1.796   0.467   0.877 -0.2355 -0.2839 -0.1306
  183HFI     F3 2679   1.816   0.680   0.940 -0.2843 -0.1959 -0.3034
  183HFI     C3 2680   2.078   0.543   0.966  0.1115  0.5525  0.1010
  183HFI     F4 2681   2.074   0.489   0.844  0.8558 -0.3852 -0.0610
  183HFI     F5 2682   2.177   0.490   1.031 -0.3825 -0.2220  0.0867
  183HFI     F6 2683   2.091   0.676   0.947 -0.2373 -0.1612  0.1798
  183HFI     H1 2684   1.918   0.324   1.015  0.4436  1.5472 -1.5536
  183HFI     H2 2685   1.971   0.571   1.145  0.4952 -0.4912 -0.3487
  184HFI     O1 2686   2.779   1.364   2.494 -0.2140 -0.3639  0.4443
  184HFI     C1 2687   2.707   1.320   2.383  0.1535  0.1120  0.8262
  184HFI     C2 2688   2.792   1.325   2.260 -0.2402 -0.4800  0.1813
  184HFI     F1 2689   2.770   1.231   2.160  0.2349 -0.3188 -0.0533
  184HFI     F2 2690   2.917   1.291   2.298 -0.4917 -0.2427  0.3522
  184HFI     F3 2691   2.820   1.449   2.205  0.2233  0.0716 -0.2374
  184HFI     C3 2692   2.569   1.379   2.350  0.6395  0.1758 -0.3066
  184HFI     F4 2693   2.571   1.511   2.304  0.4171  0.1661  0.3237
  184HFI     F5 2694   2.488   1.374   2.460  0.1262 -0.4114 -0.3398
  184HFI     F6 2695   2.512   1.305   2.254 -0.2912 -0.0391  0.0430
  184HFI     H1 2696   2.872   1.345   2.470 -0.3506  2.7786 -2.9118
  184HFI     H2 2697   2.688   1.213   2.396 -3.7305  0.5836 -0.2150
  185HFI     O1 2698   1.342   2.348   3.095  0.2628 -0.1734 -0.8629
  185HFI     C1 2699   1.234   2.430   3.044  0.6232  0.3093 -0.0795
  185HFI     C2 2700   1.110   2.343   2.999  0.2928 -0.3964  0.2138
  185HFI     F1 2701   1.137   2.253   2.904 -0.2245 -0.2792 -0.2072
  185HFI     F2 2702   1.012   2.418   2.949 -0.0117 -0.4950  0.0832
  185HFI     F3 2703   1.067   2.280   3.108 -0.2859  0.0256  0.2500
  185HFI     C3 2704   1.278   2.526   2.937 -0.1037  0.5084  0.1674
  185HFI     F4 2705   1.376   2.598   2.991  0.0821 -0.5373 -0.3348
  185HFI     F5 2706   1.186   2.611   2.893 -0.0775 -0.1892 -0.0251
  185HFI     F6 2707   1.323   2.459   2.828  0.5571 -0.2540  0.1381
  185HFI     H1 2708   1.386   2.308   3.018 -2.5037 -1.6232 -1.7626
  185HFI     H2 2709   1.198   2.483   3.133 -0.9887 -0.7814 -0.0680
  186HFI     O1 2710   2.987   1.681   2.327 -0.1617 -0.2246  0.4971
  186HFI     C1 2711   3.065   1.794   2.274 -0.0439  0.6947  0.0676
  186HFI     C2 2712   3.206   1.812   2.349  0.4767 -0.2653  0.1918
  186HFI     F1 2713   3.292   1.896   2.277  0.6033  0.2310  0.1203
  186HFI     F2 2714   3.270   1.696   2.355  0.0670  0.2909  0.0613
  186HFI     F3 2715   3.202   1.857   2.473 -0.2290  0.2740  0.4276
  186HFI     C3 2716   3.005   1.932   2.280  0.6798 -0.5184 -0.1461
  186HFI     F4 2717   2.874   1.921   2.238 -0.1707 -0.4017  0.7714
  186HFI     F5 2718   3.067   2.024   2.199  0.6834 -0.2468  0.6719
  186HFI     F6 2719   2.995   1.997   2.403  0.1810 -0.1618 -0.0017
  186HFI     H1 2720   2.897   1.709   2.352  0.6504  2.3668  0.6491
  186HFI     H2 2721   3.075   1.776   2.166 -1.9261 -2.0096  0.2964
  187HFI     O1 2722   0.846   0.251   2.507 -0.2660  0.1659 -0.1210
  187HFI     C1 2723   0.774   0.214   2.390 -0.1744  0.4651  0.7327
  187HFI     C2 2724   0.855   0.108   2.306 -0.3100  0.3110  0.8638
  187HFI     F1 2725   0.879  -0.000   2.365 -0.1359  0.3279  0.0520
  187HFI     F2 2726   0.973   0.162   2.268 -0.2123  0.1691 -0.6436
  187HFI     F3 2727   0.804   0.059   2.190 -0.7602  0.0347  0.2260
  187HFI     C3 2728   0.722   0.334   2.308 -0.2275 -0.5701  0.5330
  187HFI     F4 2729   0.631   0.296   2.219 -0.6282  0.2226  0.0746
  187HFI     F5 2730   0.812   0.410   2.240 -0.3619 -0.3243  0.0321
  187HFI     F6 2731   0.654   0.418   2.392 -0.2706 -0.0609  0.6280
  187HFI     H1 2732   0.873   0.343   2.496  0.3126  0.2335  1.6983
  187HFI     H2 2733   0.684   0.160   2.422  1.1540 -1.9320  0.5416
  188HFI     O1 2734   1.026   1.687   2.225 -0.7117  0.3562 -0.0843
  188HFI     C1 2735   0.964   1.771   2.329  0.1399  0.0685  0.4530
  188HFI     C2 2736   0.824   1.724   2.373 -0.5273  0.4586 -0.1047
  188HFI     F1 2737   0.818   1.594   2.408 -0.0535 -0.7608  0.2922
  188HFI     F2 2738   0.739   1.727   2.274 -0.1048  0.0225 -0.3433
  188HFI     F3 2739   0.768   1.796   2.469 -0.0799 -0.1713 -0.3267
  188HFI     C3 2740   0.980   1.922   2.293  0.1673 -0.1218  0.1619
  188HFI     F4 2741   0.947   2.006   2.397 -0.0900  0.1054 -0.1527
  188HFI     F5 2742   0.902   1.947   2.186  0.0160 -0.7132  0.0954
  188HFI     F6 2743   1.109   1.958   2.257 -0.6928  0.3221  0.4055
  188HFI     H1 2744   1.108   1.729   2.193 -0.3444 -1.2496 -1.3451
  188HFI     H2 2745   1.016   1.767   2.426  0.5282 -1.0352  0.2107
  189HFI     O1 2746   0.688   1.923   2.978  0.3332  0.0619 -0.2984
  189HFI     C1 2747   0.674   1.981   2.849 -0.4426  0.1808  0.2729
  189HFI     C2 2748   0.814   2.036   2.788  0.4264 -1.0955 -1.2987
  189HFI     F1 2749   0.802   2.119   2.686  0.1563 -0.7558 -0.1985
  189HFI     F2 2750   0.880   1.932   2.740  0.2967 -0.2492 -0.0727
  189HFI     F3 2751   0.890   2.094   2.884  0.2711  0.3403 -0.0586
  189HFI     C3 2752   0.571   2.099   2.858  0.2641 -0.5449 -0.4509
  189HFI     F4 2753   0.461   2.058   2.931  0.1194  0.1221 -0.3270
  189HFI     F5 2754   0.532   2.138   2.732 -0.1234  0.0884  0.1729
  189HFI     F6 2755   0.625   2.211   2.908  0.0075 -0.1891 -0.1022
  189HFI     H1 2756   0.651   1.992   3.036 -0.6516 -1.8694  1.4327
  189HFI     H2 2757   0.632   1.907   2.780 -0.5049  0.8866 -0.4581
  190HFI     O1 2758   2.468   0.855   3.419  0.6341 -0.4770 -0.0621
  190HFI     C1 2759   2.550   0.823   3.304 -0.5412 -0.8173  0.6364
  190HFI     C2 2760   2.593   0.959   3.243 -1.2584  0.3134  0.3366
  190HFI     F1 2761   2.666   0.946   3.139 -0.3063  0.1334  0.3992
  190HFI     F2 2762   2.667   1.035   3.334 -0.3610  0.4720 -0.3299
  190HFI     F3 2763   2.491   1.036   3.201  0.9181  0.2863 -0.3110
  190HFI     C3 2764   2.483   0.717   3.214 -1.3451  0.1621  0.3034
  190HFI     F4 2765   2.375   0.760   3.156 -0.5338 -0.2210  0.1648
  190HFI     F5 2766   2.441   0.609   3.285 -0.1991  0.3867  0.6432
  190HFI     F6 2767   2.574   0.670   3.123 -0.1042  0.1579  0.2865
  190HFI     H1 2768   2.520   0.918   3.473 -0.5150 -0.2276  0.7830
  190HFI     H2 2769   2.647   0.780   3.331  1.9268  2.9634 -1.7364
  191HFI     O1 2770   2.274   3.287   0.596 -0.0881  0.6275 -0.0655
  191HFI     C1 2771   2.416   3.300   0.585  0.4816  0.4606  0.0993
  191HFI     C2 2772   2.467   3.270   0.442 -0.1839  0.1730 -0.7322
  191HFI     F1 2773   2.380   3.304   0.348 -0.5813  0.4052  0.3209
  191HFI     F2 2774   2.495   3.145   0.417  0.2132 -0.3897  0.1042
  191HFI     F3 2775   2.581   3.334   0.424 -0.0433 -0.2542 -0.5405
  191HFI     C3 2776   2.489   3.213   0.694 -0.0118 -0.0491  0.2055
  191HFI     F4 2777   2.623   3.208   0.669 -0.3299 -0.2703 -0.1638
  191HFI     F5 2778   2.434   3.094   0.701 -0.1205 -0.3737 -0.0141
  191HFI     F6 2779   2.468   3.273   0.813 -0.6242 -0.1079  0.1265
  191HFI     H1 2780   2.248   3.271   0.503 -0.8784 -2.5721  0.6407
  191HFI     H2 2781   2.441   3.405   0.607  1.2461  0.4274 -0.6137
  192HFI     O1 2782   0.873   1.845   1.514  0.1300 -0.8114 -0.0798
  192HFI     C1 2783   0.862   1.723   1.434  0.7249  0.9673 -0.0162
  192HFI     C2 2784   0.794   1.612   1.520 -0.6923  0.3343  0.5738
  192HFI     F1 2785   0.875   1.561   1.614  0.4095 -0.5880 -0.5193
  192HFI     F2 2786   0.746   1.514   1.443 -0.2064  0.4589  0.1041
  192HFI     F3 2787   0.686   1.666   1.580  0.1136 -0.7482  0.0773
  192HFI     C3 2788   1.000   1.677   1.379  0.0122 -0.4625 -0.0340
  192HFI     F4 2789   1.098   1.727   1.465  0.7154 -0.2858 -0.8668
  192HFI     F5 2790   1.033   1.719   1.253  0.6931  0.4565 -0.1463
  192HFI     F6 2791   1.015   1.543   1.382 -0.1597 -0.4677 -0.0261
  192HFI     H1 2792   0.955   1.836   1.566  1.7336  0.0673 -2.3751
  192HFI     H2 2793   0.797   1.731   1.346  0.2255 -0.9695  0.1598
  193HFI     O1 2794   0.841   0.738   3.551  0.5994  0.4248 -0.2197
  193HFI     C1 2795   0.726   0.792   3.627  0.0692  0.3510  0.6641
  193HFI     C2 2796   0.638   0.679   3.688  0.4213  0.7875  0.4239
  193HFI     F1 2797   0.522   0.727   3.738  0.1181 -0.2612  0.1052
  193HFI     F2 2798   0.704   0.617   3.786 -0.2402  0.6839  0.2520
  193HFI     F3 2799   0.611   0.592   3.593  0.1035 -0.0258  0.2740
  193HFI     C3 2800   0.637   0.885   3.537  0.3379  0.1595  0.0799
  193HFI     F4 2801   0.551   0.949   3.616 -0.2747  0.7336 -0.0469
  193HFI     F5 2802   0.572   0.812   3.441  0.1913 -0.6419 -0.2442
  193HFI     F6 2803   0.718   0.971   3.472 -0.1517 -0.1527 -0.0207
  193HFI     H1 2804   0.818   0.679   3.478 -0.0120  1.2466 -0.7025
  193HFI     H2 2805   0.752   0.861   3.708  0.2005  0.6700  0.3521
  194HFI     O1 2806   0.894   0.594   0.196  0.1713 -0.0442 -0.2974
  194HFI     C1 2807   0.946   0.471   0.257  0.0574  0.0769 -0.4359
  194HFI     C2 2808   0.897   0.348   0.186 -0.0328 -0.3934  0.1459
  194HFI     F1 2809   0.962   0.241   0.229  0.6837  0.3612 -0.3605
  194HFI     F2 2810   0.919   0.362   0.057  0.0204 -0.2607  0.1842
  194HFI     F3 2811   0.769   0.326   0.198 -0.6147  0.3044 -0.1301
  194HFI     C3 2812   0.927   0.472   0.416  0.3315 -0.7085 -0.1608
  194HFI     F4 2813   0.977   0.587   0.465  0.5206  0.3021 -0.6161
  194HFI     F5 2814   0.996   0.373   0.481  0.2631  0.1184 -0.1651
  194HFI     F6 2815   0.794   0.464   0.444 -0.1056 -0.4368 -0.9365
  194HFI     H1 2816   0.818   0.625   0.248 -0.8420 -2.3532 -0.3495
  194HFI     H2 2817   1.055   0.477   0.248  0.1293  2.2268  1.4640
  195HFI     O1 2818   2.740   2.890   3.358 -0.1998  0.4177 -0.0582
  195HFI     C1 2819   2.773   2.937   3.220  0.8112  0.1875 -0.1968
  195HFI     C2 2820   2.910   3.011   3.217  0.1265  0.5929 -0.2091
  195HFI     F1 2821   2.937   3.064   3.094  0.5606  0.0079 -0.1041
  195HFI     F2 2822   3.004   2.915   3.240 -0.5098 -0.0691  0.0091
  195HFI     F3 2823   2.925   3.102   3.312  0.0974  0.0594  0.3954
  195HFI     C3 2824   2.655   3.023   3.169 -0.5697 -0.0483  1.0175
  195HFI     F4 2825   2.644   3.144   3.224  0.4516 -0.4016 -0.1897
  195HFI     F5 2826   2.534   2.961   3.184 -0.0123 -0.5201  0.0313
  195HFI     F6 2827   2.668   3.037   3.031  0.0722  0.0448 -1.0523
  195HFI     H1 2828   2.816   2.909   3.416  1.0869 -0.0773 -1.5439
  195HFI     H2 2829   2.780   2.860   3.142  1.7304  2.1881 -2.1422
  196HFI     O1 2830   1.993   2.240   2.512  0.2978  0.5513  0.6714
  196HFI     C1 2831   1.992   2.183   2.372 -0.4932  0.0981  0.5891
  196HFI     C2 2832   1.928   2.039   2.350  0.2702 -0.7325 -0.4458
  196HFI     F1 2833   1.800   2.053   2.387  0.0182  0.3478 -0.5663
  196HFI     F2 2834   1.986   1.948   2.432  0.6527 -0.6262  0.1956
  196HFI     F3 2835   1.936   1.989   2.228  0.3175  0.3959 -0.0322
  196HFI     C3 2836   2.135   2.206   2.311  0.1885 -0.2354 -0.2865
  196HFI     F4 2837   2.169   2.112   2.223  0.4847  0.1208  0.0082
  196HFI     F5 2838   2.220   2.193   2.413  0.0905 -0.5611 -0.3146
  196HFI     F6 2839   2.140   2.328   2.251  0.1537  0.3082 -0.6384
  196HFI     H1 2840   2.055   2.189   2.567 -1.5381 -0.4294  1.8859
  196HFI     H2 2841   1.936   2.250   2.305 -1.6770 -1.6172 -0.1658
  197HFI     O1 2842   2.946   2.560   3.399  0.3166  0.4098 -0.1291
  197HFI     C1 2843   2.993   2.479   3.294 -0.6368  0.3017 -0.0053
  197HFI     C2 2844   3.035   2.563   3.175 -0.0428 -0.1239  0.2270
  197HFI     F1 2845   3.119   2.657   3.214 -0.1438  0.1826  0.6019
  197HFI     F2 2846   2.925   2.613   3.113 -0.4101  0.0776  0.1415
  197HFI     F3 2847   3.101   2.490   3.081  0.0090  0.2490 -0.3332
  197HFI     C3 2848   2.913   2.353   3.264 -0.2890 -0.3142 -0.4273
  197HFI     F4 2849   2.896   2.289   3.381 -0.0370 -0.2435 -0.1608
  197HFI     F5 2850   2.974   2.268   3.180 -0.2206  0.2380  0.7012
  197HFI     F6 2851   2.789   2.383   3.216  0.0916  0.2169 -0.3328
  197HFI     H1 2852   2.922   2.505   3.476  0.7180  2.6753  1.6645
  197HFI     H2 2853   3.093   2.439   3.319  0.6507  1.7637 -2.6082
  198HFI     O1 2854   2.806   3.003   0.464  0.6313  0.0481  0.0930
  198HFI     C1 2855   2.889   3.125   0.474 -0.1222 -0.1877  0.3162
  198HFI     C2 2856   2.982   3.152   0.346 -0.0492  0.2730  0.2235
  198HFI     F1 2857   2.895   3.196   0.252  0.1729  0.6243  0.0254
  198HFI     F2 2858   3.040   3.035   0.299 -0.4234  0.0891  0.1948
  198HFI     F3 2859   3.076   3.243   0.369 -0.2039  0.2385 -0.4816
  198HFI     C3 2860   2.954   3.147   0.609 -0.0552 -0.1580  0.0571
  198HFI     F4 2861   2.875   3.105   0.715  0.1521  0.1441  0.2296
  198HFI     F5 2862   2.988   3.276   0.631  0.1798 -0.3556 -0.6497
  198HFI     F6 2863   3.071   3.080   0.621  0.0831  0.1000 -0.2034
  198HFI     H1 2864   2.834   2.934   0.526  1.7533 -0.9808 -1.5122
  198HFI     H2 2865   2.812   3.204   0.478  0.0520  0.1309 -2.0078
  199HFI     O1 2866   1.429   1.959   3.071  0.1221  0.2057  0.4623
  199HFI     C1 2867   1.424   2.002   3.211 -0.8732  0.0505  0.2874
  199HFI     C2 2868   1.539   1.963   3.293  0.0893 -0.3621 -0.0426
  199HFI     F1 2869   1.653   1.971   3.222  0.6196  0.1854  0.1434
  199HFI     F2 2870   1.530   1.836   3.339  0.2254  0.5420 -0.0359
  199HFI     F3 2871   1.562   2.042   3.400  0.0034  0.4401 -0.4963
  199HFI     C3 2872   1.277   1.990   3.270 -0.1904  0.1371  0.2450
  199HFI     F4 2873   1.194   2.052   3.188  0.3906 -0.0849  0.3493
  199HFI     F5 2874   1.270   2.048   3.389 -0.2934 -0.0044  0.2060
  199HFI     F6 2875   1.246   1.854   3.277 -0.3530 -0.0768 -0.2429
  199HFI     H1 2876   1.498   1.892   3.061 -0.0250  0.3124 -1.4893
  199HFI     H2 2877   1.430   2.111   3.201 -1.6304  0.2701  2.0653
  200HFI     O1 2878   1.999   3.251   2.552 -0.1514 -0.4564 -0.3848
  200HFI     C1 2879   1.978   3.277   2.406 -0.1369 -0.9370  0.5903
  200HFI     C2 2880   1.904   3.413   2.379 -1.0666  0.0140 -0.1808
  200HFI     F1 2881   1.953   3.515   2.452  0.0326 -0.4769 -0.7128
  200HFI     F2 2882   1.776   3.413   2.404  0.0361  0.3252  0.0092
  200HFI     F3 2883   1.919   3.450   2.253  0.0425 -0.0085 -0.2811
  200HFI     C3 2884   1.920   3.157   2.330  0.0344  0.8314 -0.1195
  200HFI     F4 2885   1.917   3.186   2.197  0.1086 -0.3248  0.0432
  200HFI     F5 2886   1.800   3.103   2.372 -0.1810  0.0649  0.0549
  200HFI     F6 2887   2.012   3.061   2.346  0.2150 -0.8327 -0.1412
  200HFI     H1 2888   1.919   3.282   2.598 -0.2794 -1.0015 -0.2293
  200HFI     H2 2889   2.078   3.299   2.367 -0.6677  0.1089 -0.2191
  201HFI     O1 2890   0.188   1.595   0.020  0.2744  0.3468 -0.9859
  201HFI     C1 2891   0.166   1.568   0.162  0.8619  0.4887 -0.0562
  201HFI     C2 2892   0.292   1.536   0.248 -0.0765 -0.1216 -0.4021
  201HFI     F1 2893   0.264   1.541   0.385 -0.4587 -0.1491  0.5319
  201HFI     F2 2894   0.400   1.608   0.218 -0.1441 -0.1958  0.0923
  201HFI     F3 2895   0.332   1.408   0.226 -0.6491 -0.1032 -0.0179
  201HFI     C3 2896   0.054   1.462   0.182  1.4474  0.8123  0.3275
  201HFI     F4 2897   0.015   1.448   0.313  0.3385 -0.9997 -0.7041
  201HFI     F5 2898   0.084   1.341   0.135 -0.3548  0.0888  0.2005
  201HFI     F6 2899  -0.054   1.502   0.109  0.5696 -0.2949 -0.1405
  201HFI     H1 2900   0.277   1.634   0.010  0.2344  0.7176 -0.0055
  201HFI     H2 2901   0.126   1.663   0.199  0.0893  0.2731 -0.3123
  202HFI     O1 2902   2.620   1.960   3.630 -0.6012 -0.4514  0.2246
  202HFI     C1 2903   2.648   2.013   3.763  0.1178  0.1797 -0.1571
  202HFI     C2 2904   2.709   2.153   3.761  0.1068  0.0461  0.9004
  202HFI     F1 2905   2.647   2.238   3.682  0.0269 -0.1804  0.0159
  202HFI     F2 2906   2.831   2.151   3.719  0.1548 -0.4949  0.0532
  202HFI     F3 2907   2.702   2.211   3.877 -0.6089 -0.1497 -0.8315
  202HFI     C3 2908   2.719   1.906   3.858  1.4062 -0.0858 -0.2199
  202HFI     F4 2909   2.725   1.951   3.983  0.0599  0.4058 -0.0419
  202HFI     F5 2910   2.837   1.874   3.818 -0.3691 -0.9540 -0.2685
  202HFI     F6 2911   2.656   1.791   3.865  0.0374  0.0598  0.1024
  202HFI     H1 2912   2.695   1.918   3.584 -1.5592 -1.0602 -0.8196
  202HFI     H2 2913   2.546   2.029   3.799  0.5746 -1.1776  1.8916
  203HFI     O1 2914   1.843   1.883   1.283 -0.0207 -0.5210 -0.0106
  203HFI     C1 2915   1.874   1.997   1.364 -0.2511 -0.4327 -0.2059
  203HFI     C2 2916   1.889   2.127   1.277 -0.2146  0.1390  0.1849
  203HFI     F1 2917   1.911   2.237   1.351 -0.2474 -0.1701 -0.1583
  203HFI     F2 2918   1.775   2.145   1.210  0.3619  0.3691 -0.8364
  203HFI     F3 2919   1.990   2.107   1.192 -0.2336 -0.4300 -0.0252
  203HFI     C3 2920   1.988   1.978   1.459 -0.1444 -0.1415  0.6006
  203HFI     F4 2921   1.964   1.882   1.552 -0.0296  0.0367  0.0028
  203HFI     F5 2922   2.015   2.086   1.523 -0.4195  0.1991 -0.4427
  203HFI     F6 2923   2.109   1.938   1.401  0.1265 -0.4025  0.4843
  203HFI     H1 2924   1.908   1.873   1.212 -1.2490 -1.0368 -1.0795
  203HFI     H2 2925   1.787   2.017   1.427  1.2294  0.1026  1.7008
  204HFI     O1 2926   0.881   2.257   0.326  0.1154 -0.3234  0.0236
  204HFI     C1 2927   0.911   2.111   0.348 -0.4147  0.0935 -0.7452
  204HFI     C2 2928   1.062   2.082   0.390  0.0758  0.0840  0.6903
  204HFI     F1 2929   1.149   2.089   0.287  0.4103 -0.0103  0.2554
  204HFI     F2 2930   1.077   1.964   0.460  0.0085  0.3309 -0.3410
  204HFI     F3 2931   1.091   2.180   0.480  0.0118 -0.2418 -0.1960
  204HFI     C3 2932   0.872   2.018   0.231  0.2255 -0.3691  0.3759
  204HFI     F4 2933   0.746   2.038   0.190 -0.0995  0.3401 -0.1419
  204HFI     F5 2934   0.881   1.889   0.260  0.0801 -0.3567 -0.1103
  204HFI     F6 2935   0.954   2.042   0.122 -0.3038  0.4462 -0.2256
  204HFI     H1 2936   0.928   2.310   0.392 -2.6981  1.2066  0.8629
  204HFI     H2 2937   0.856   2.074   0.435 -2.7244  0.0849 -2.1620
  205HFI     O1 2938   1.803   0.614   2.506 -0.0800 -0.1080  0.1157
  205HFI     C1 2939   1.857   0.588   2.370 -1.0616 -0.6501  0.1689
  205HFI     C2 2940   1.892   0.444   2.351  0.0864  0.0539 -0.1708
  205HFI     F1 2941   1.995   0.400   2.424 -0.0427  0.7326 -0.2858
  205HFI     F2 2942   1.934   0.428   2.221  0.3682  0.1386 -0.0890
  205HFI     F3 2943   1.785   0.365   2.369 -0.1628  0.1245  0.1339
  205HFI     C3 2944   1.978   0.681   2.343 -0.1409  0.4230 -1.4142
  205HFI     F4 2945   2.022   0.682   2.214 -0.0471 -0.1996  0.0687
  205HFI     F5 2946   2.089   0.648   2.415 -0.2040  0.3474 -0.2080
  205HFI     F6 2947   1.953   0.806   2.374  0.3872  0.6881  0.3192
  205HFI     H1 2948   1.762   0.702   2.504  0.1840 -0.0033 -1.0772
  205HFI     H2 2949   1.795   0.600   2.280  1.9856  0.2723 -1.8945
  206HFI     O1 2950   2.973   2.275   2.592  0.0857 -0.5082  0.1698
  206HFI     C1 2951   2.960   2.241   2.738 -0.7460  0.2855 -0.6668
  206HFI     C2 2952   2.976   2.090   2.757  0.0426  0.2871 -0.4826
  206HFI     F1 2953   3.025   2.064   2.885 -0.1084  0.0182 -0.1472
  206HFI     F2 2954   3.067   2.038   2.672 -0.2231  0.3275 -0.0616
  206HFI     F3 2955   2.852   2.025   2.744 -0.5419 -0.1457 -0.5683
  206HFI     C3 2956   2.833   2.293   2.801 -0.3932 -0.2706  0.7040
  206HFI     F4 2957   2.824   2.264   2.934 -0.1065  0.1054  0.0106
  206HFI     F5 2958   2.721   2.252   2.738 -0.6663  0.0319  0.0745
  206HFI     F6 2959   2.827   2.431   2.786  0.1050  0.3323 -0.2850
  206HFI     H1 2960   2.956   2.197   2.537  0.5770 -0.0683 -0.6275
  206HFI     H2 2961   3.030   2.303   2.795 -0.8428 -0.6200  0.4480
  207HFI     O1 2962   2.379   1.416   3.522  0.2108 -0.2245 -0.3401
  207HFI     C1 2963   2.266   1.369   3.447 -0.5095  0.0195 -0.1733
  207HFI     C2 2964   2.133   1.439   3.493  0.2221 -0.0724  0.5239
  207HFI     F1 2965   2.028   1.385   3.427  0.1450  0.0492 -0.8964
  207HFI     F2 2966   2.139   1.569   3.460 -0.5754  0.1256  0.2284
  207HFI     F3 2967   2.106   1.433   3.625  0.8375 -0.3092  0.1697
  207HFI     C3 2968   2.256   1.213   3.462  1.0559  0.0334  1.2995
  207HFI     F4 2969   2.379   1.166   3.457  0.7617 -0.1765  0.0032
  207HFI     F5 2970   2.169   1.155   3.367 -0.2981  0.0217  0.1142
  207HFI     F6 2971   2.198   1.187   3.585 -0.0682  0.5847  0.0845
  207HFI     H1 2972   2.342   1.485   3.580  1.1335 -0.3146  0.3534
  207HFI     H2 2973   2.281   1.397   3.342 -0.3099 -1.6993 -0.6298
  208HFI     O1 2974   0.425   1.227   2.466 -0.4086 -0.0244  0.5136
  208HFI     C1 2975   0.479   1.269   2.341  0.2715 -0.0519 -0.1615
  208HFI     C2 2976   0.628   1.224   2.332  0.4930 -0.0914  0.5828
  208HFI     F1 2977   0.711   1.275   2.428 -0.1492  0.0800 -0.4056
  208HFI     F2 2978   0.681   1.267   2.207 -0.0916  0.1374 -0.0482
  208HFI     F3 2979   0.639   1.090   2.332  0.0852  0.3919  0.2729
  208HFI     C3 2980   0.454   1.423   2.326  0.3715 -0.4442 -0.2913
  208HFI     F4 2981   0.451   1.456   2.195 -0.1338 -0.3001 -0.8112
  208HFI     F5 2982   0.547   1.503   2.387  0.6058 -0.3453 -0.1431
  208HFI     F6 2983   0.334   1.462   2.373  0.5151  0.0414  0.2899
  208HFI     H1 2984   0.468   1.282   2.533 -0.6627  2.4562 -1.2821
  208HFI     H2 2985   0.420   1.224   2.260 -0.1768  1.8723 -0.9413
  209HFI     O1 2986   0.652   0.690   0.267  0.6107 -0.0006 -0.0942
  209HFI     C1 2987   0.658   0.831   0.317 -0.1716 -0.3758  0.4472
  209HFI     C2 2988   0.544   0.848   0.423  0.4242 -0.0300  0.0776
  209HFI     F1 2989   0.572   0.951   0.509  0.1699  0.3325 -0.0463
  209HFI     F2 2990   0.523   0.734   0.483 -0.2672  0.3491 -0.0935
  209HFI     F3 2991   0.426   0.881   0.365  0.4482 -0.1258 -0.0387
  209HFI     C3 2992   0.653   0.936   0.201  0.0470  0.1635 -0.1885
  209HFI     F4 2993   0.633   1.059   0.257  0.2965  0.2819  0.4155
  209HFI     F5 2994   0.560   0.924   0.104 -0.1986 -0.2459  0.4171
  209HFI     F6 2995   0.777   0.932   0.137 -0.2075 -0.4126 -0.9018
  209HFI     H1 2996   0.562   0.665   0.241 -0.9916  4.8691  0.1695
  209HFI     H2 2997   0.748   0.860   0.372 -0.9429  0.4694  1.2633
  210HFI     O1 2998   0.327   1.245   3.137 -0.4692  0.3573 -0.2899
  210HFI     C1 2999   0.317   1.289   3.282 -0.2234 -0.1898 -0.0696
  210HFI     C2 3000   0.441   1.355   3.327  0.8456 -0.8801  0.0621
  210HFI     F1 3001   0.461   1.464   3.246  0.4152 -0.1036 -0.0541
  210HFI     F2 3002   0.537   1.274   3.327  0.1983 -0.2499  0.0487
  210HFI     F3 3003   0.429   1.402   3.460 -0.0868 -0.3099 -0.2958
  210HFI     C3 3004   0.285   1.167   3.373  0.3501  0.2356 -0.1361
  210HFI     F4 3005   0.163   1.117   3.335  0.0245  0.2685  0.2653
  210HFI     F5 3006   0.271   1.201   3.500 -0.0081 -0.1793  0.2215
  210HFI     F6 3007   0.375   1.072   3.352 -0.5926 -0.8086 -0.4271
  210HFI     H1 3008   0.318   1.148   3.135 -0.5248  0.3584 -0.0450
  210HFI     H2 3009   0.234   1.359   3.295 -0.7281 -0.9927  1.1700
  211HFI     O1 3010   2.568   0.698   0.622 -0.3978  0.3272  0.3744
  211HFI     C1 3011   2.641   0.788   0.712  0.4280  0.7737  0.9286
  211HFI     C2 3012   2.583   0.773   0.855  0.3042  0.5031  0.5314
  211HFI     F1 3013   2.449   0.790   0.868  0.1337 -0.3696 -0.6802
  211HFI     F2 3014   2.645   0.854   0.947  0.2748  0.1926 -0.2180
  211HFI     F3 3015   2.618   0.650   0.896  0.2403  0.0445  0.0072
  211HFI     C3 3016   2.628   0.930   0.656 -0.0488  0.0672 -0.2175
  211HFI     F4 3017   2.694   1.019   0.728 -0.1613  0.3135  0.1766
  211HFI     F5 3018   2.501   0.974   0.643 -0.2630 -0.1376 -0.5968
  211HFI     F6 3019   2.686   0.925   0.535 -0.5551  0.0329 -0.2077
  211HFI     H1 3020   2.505   0.643   0.672 -0.1752  0.9422  1.3538
  211HFI     H2 3021   2.750   0.772   0.718  0.4062  0.4401  0.4385
  212HFI     O1 3022   0.466   1.421   1.530 -0.3273 -0.1652 -0.2851
  212HFI     C1 3023   0.402   1.291   1.548 -0.0817 -0.6761 -0.1201
  212HFI     C2 3024   0.489   1.171   1.534  0.6776  0.5456  0.5257
  212HFI     F1 3025   0.426   1.055   1.576 -0.2230 -0.3313  0.1915
  212HFI     F2 3026   0.604   1.191   1.608 -0.3751 -0.0952 -0.3079
  212HFI     F3 3027   0.529   1.154   1.402  0.1925  0.2136 -0.8386
  212HFI     C3 3028   0.273   1.277   1.463  0.6690 -0.3011  0.2311
  212HFI     F4 3029   0.189   1.372   1.496 -0.3025 -0.4535  0.2824
  212HFI     F5 3030   0.198   1.159   1.497 -0.4627  0.2281 -0.6154
  212HFI     F6 3031   0.291   1.287   1.330 -0.4310  0.1023  0.3804
  212HFI     H1 3032   0.559   1.416   1.559  0.1101  4.1766 -0.4995
  212HFI     H2 3033   0.362   1.288   1.650  1.6445 -1.0076  0.5561
  213HFI     O1 3034   1.271   0.879   0.602 -1.1773  0.1667  0.0242
  213HFI     C1 3035   1.203   0.986   0.525 -0.1416 -0.1633  0.1976
  213HFI     C2 3036   1.146   1.087   0.624 -0.4616  0.0677 -1.2390
  213HFI     F1 3037   1.232   1.128   0.721  0.4415  0.1112 -0.2464
  213HFI     F2 3038   1.038   1.042   0.690  0.4964  0.3858 -0.3664
  213HFI     F3 3039   1.117   1.203   0.559  0.2457  0.0432 -0.2949
  213HFI     C3 3040   1.095   0.931   0.418  0.4333 -0.4654  0.2062
  213HFI     F4 3041   1.156   0.844   0.336 -0.3529  0.8436 -0.5561
  213HFI     F5 3042   1.046   1.028   0.337  0.0996 -0.1824  0.1074
  213HFI     F6 3043   0.988   0.870   0.473  0.5096 -0.0424  0.2757
  213HFI     H1 3044   1.314   0.912   0.683  1.5073 -2.2595 -0.3424
  213HFI     H2 3045   1.276   1.046   0.470  0.1899 -1.5607 -0.9273
  214HFI     O1 3046   2.788   1.581   0.600  0.1817  0.8985 -0.1167
  214HFI     C1 3047   2.748   1.710   0.556  0.3308 -0.1763 -0.0053
  214HFI     C2 3048   2.638   1.688   0.443  0.1417 -0.4425 -0.2092
  214HFI     F1 3049   2.681   1.595   0.349  0.0861 -0.8362  0.1014
  214HFI     F2 3050   2.603   1.802   0.379  0.7471 -0.2545  0.0673
  214HFI     F3 3051   2.526   1.645   0.509  0.2507 -0.2525  0.3539
  214HFI     C3 3052   2.876   1.785   0.507 -0.0423 -0.3160  0.0620
  214HFI     F4 3053   2.957   1.721   0.418 -0.6925  0.2996  0.2356
  214HFI     F5 3054   2.945   1.820   0.613 -0.0269  0.1156 -0.2942
  214HFI     F6 3055   2.839   1.900   0.447 -0.0019  0.9642  0.3017
  214HFI     H1 3056   2.726   1.552   0.669 -0.3827 -2.1332 -1.8148
  214HFI     H2 3057   2.697   1.769   0.633  0.6873  0.6946 -0.4352
  215HFI     O1 3058   3.036   1.429   2.770  0.2891  0.6528  0.6906
  215HFI     C1 3059   2.975   1.546   2.833 -0.0102  0.3660  0.3809
  215HFI     C2 3060   2.818   1.543   2.830  0.7714  0.2269  0.0459
  215HFI     F1 3061   2.775   1.620   2.936  0.6746  0.1342 -0.1180
  215HFI     F2 3062   2.770   1.419   2.846 -0.1673  0.8850  0.0023
  215HFI     F3 3063   2.762   1.579   2.712 -0.3066 -0.1815  0.1448
  215HFI     C3 3064   3.031   1.679   2.772  0.2356 -0.5268 -0.1795
  215HFI     F4 3065   3.000   1.690   2.641 -0.2981 -0.1059  0.0095
  215HFI     F5 3066   3.168   1.689   2.796 -0.6127 -0.3454  0.4011
  215HFI     F6 3067   2.970   1.785   2.817 -0.5442  0.1300  0.0693
  215HFI     H1 3068   3.126   1.451   2.740 -0.5168 -0.3611 -2.6836
  215HFI     H2 3069   2.996   1.542   2.941  2.2405  0.5703 -0.0175
  216HFI     O1 3070   1.732   0.933   2.268 -0.6199 -0.1791 -0.0395
  216HFI     C1 3071   1.671   1.029   2.360  0.0215  0.9334 -0.4196
  216HFI     C2 3072   1.562   0.960   2.439  0.2256 -0.3621 -0.3336
  216HFI     F1 3073   1.596   0.842   2.496 -0.0917 -0.1828 -0.2970
  216HFI     F2 3074   1.456   0.930   2.363 -0.1371 -0.5199  0.0992
  216HFI     F3 3075   1.523   1.045   2.534 -0.0811  0.0249  0.2467
  216HFI     C3 3076   1.636   1.166   2.298  0.2231  0.3443 -0.1633
  216HFI     F4 3077   1.511   1.157   2.238  0.0996 -0.4944  0.4954
  216HFI     F5 3078   1.727   1.218   2.208 -0.1413  0.1588 -0.0334
  216HFI     F6 3079   1.618   1.262   2.394 -0.2898 -0.1316  0.1505
  216HFI     H1 3080   1.660   0.889   2.219 -1.5898  0.8398  0.4357
  216HFI     H2 3081   1.747   1.052   2.435  0.4032 -0.7768 -0.2561
  217HFI     O1 3082   2.890   3.003   1.172  0.0682  0.0942 -0.3086
  217HFI     C1 3083   2.965   3.007   1.043  0.1390  0.3631  0.3718
  217HFI     C2 3084   2.998   2.860   1.003  0.6256  0.0060 -0.0490
  217HFI     F1 3085   3.067   2.798   1.093 -0.1587 -0.0574  0.2441
  217HFI     F2 3086   3.068   2.846   0.884  0.3111  0.2948 -0.0588
  217HFI     F3 3087   2.883   2.782   1.001 -0.2078  0.0184  0.0920
  217HFI     C3 3088   3.073   3.114   1.049 -0.3608  0.0614  0.4075
  217HFI     F4 3089   3.012   3.231   1.040  0.0633 -0.4563 -0.2765
  217HFI     F5 3090   3.161   3.097   0.949 -0.3519  0.3092  0.7654
  217HFI     F6 3091   3.137   3.109   1.165 -0.2891 -0.4253 -0.8979
  217HFI     H1 3092   2.949   3.000   1.250  1.1871  0.7640 -1.1162
  217HFI     H2 3093   2.902   3.032   0.957 -0.0072  0.3587  0.4773
  218HFI     O1 3094   2.808   1.515   0.893  0.4090  0.4020 -0.4771
  218HFI     C1 3095   2.746   1.596   1.004  0.0885 -0.4424  0.2281
  218HFI     C2 3096   2.592   1.602   0.984  0.5892 -0.0852  0.3139
  218HFI     F1 3097   2.536   1.477   0.988  0.2865  0.5801  0.4118
  218HFI     F2 3098   2.561   1.641   0.853 -0.3971  0.0498 -0.1496
  218HFI     F3 3099   2.525   1.687   1.067 -0.2928 -0.3643  0.1711
  218HFI     C3 3100   2.822   1.734   1.019  0.0070 -0.5422  0.0836
  218HFI     F4 3101   2.953   1.717   1.015 -0.6765 -0.2290  0.1579
  218HFI     F5 3102   2.799   1.790   1.138 -0.4118 -0.1332  1.1128
  218HFI     F6 3103   2.784   1.828   0.923 -0.6267  0.5556 -0.3101
  218HFI     H1 3104   2.899   1.489   0.915  0.1441  0.4384  0.7185
  218HFI     H2 3105   2.757   1.547   1.102 -0.2256 -0.1528  0.4082
  219HFI     O1 3106   0.074   2.779   0.779 -0.9891  0.3830  0.4119
  219HFI     C1 3107   0.062   2.721   0.911 -1.1907  0.5646 -0.0713
  219HFI     C2 3108   0.074   2.841   1.012 -0.2329 -0.8108 -0.6169
  219HFI     F1 3109  -0.037   2.917   1.005  0.2209  0.4504  0.1328
  219HFI     F2 3110   0.175   2.929   0.998 -0.1220  0.6271  0.5826
  219HFI     F3 3111   0.073   2.799   1.138  0.1299 -0.1226  0.4388
  219HFI     C3 3112   0.173   2.612   0.942  0.6400  0.5589 -0.1277
  219HFI     F4 3113   0.153   2.535   1.056 -0.2145  0.7440 -0.9415
  219HFI     F5 3114   0.295   2.672   0.946 -0.2474  0.3452  0.3024
  219HFI     F6 3115   0.172   2.523   0.840  0.1086 -0.0008 -0.3134
  219HFI     H1 3116   0.102   2.715   0.712 -1.2539 -0.2977  0.9496
  219HFI     H2 3117  -0.036   2.674   0.929 -0.8036  0.7002  2.6721
  220HFI     O1 3118   3.314   0.965   2.694 -0.3687 -0.2202  0.1715
  220HFI     C1 3119   3.381   0.988   2.826 -0.0377 -0.6772  0.4822
  220HFI     C2 3120   3.501   1.099   2.824 -0.1183 -0.0366  0.0944
  220HFI     F1 3121   3.578   1.098   2.936 -0.2933  0.0571 -0.1532
  220HFI     F2 3122   3.440   1.221   2.816 -0.1705 -0.1800  0.1564
  220HFI     F3 3123   3.582   1.092   2.716 -0.1288  0.5849 -0.6505
  220HFI     C3 3124   3.433   0.856   2.885  0.2721  0.0354  0.3212
  220HFI     F4 3125   3.547   0.820   2.824  0.5923 -0.7701 -0.2998
  220HFI     F5 3126   3.339   0.756   2.879  0.4800 -0.2843  0.1637
  220HFI     F6 3127   3.470   0.874   3.017  0.3346  0.1509  0.1819
  220HFI     H1 3128   3.374   0.986   2.620  1.4600 -1.0559  1.3719
  220HFI     H2 3129   3.301   1.032   2.886 -2.5233 -2.8426 -1.1656
  221HFI     O1 3130   2.615   2.010   3.022  0.2266 -0.0457 -0.0481
  221HFI     C1 3131   2.631   2.054   3.159 -0.0405  0.2638  1.0356
  221HFI     C2 3132   2.650   1.929   3.248  0.2047 -0.4007 -0.7574
  221HFI     F1 3133   2.688   1.961   3.376  0.2448  0.2235  0.0147
  221HFI     F2 3134   2.746   1.855   3.191 -0.1263  0.0846 -0.1096
  221HFI     F3 3135   2.536   1.863   3.257 -0.3256 -0.4805 -0.3220
  221HFI     C3 3136   2.520   2.147   3.218  0.0894 -0.3157 -0.0937
  221HFI     F4 3137   2.535   2.184   3.347  0.4330  0.1138 -0.0790
  221HFI     F5 3138   2.393   2.091   3.212  0.0664 -0.5236 -0.3727
  221HFI     F6 3139   2.500   2.254   3.137 -0.1922  0.3130  0.4550
  221HFI     H1 3140   2.699   1.973   2.989  0.4553  1.3777 -1.0993
  221HFI     H2 3141   2.718   2.121   3.157  0.4018 -0.3340  0.0923
  222HFI     O1 3142   0.215   0.877   0.074  0.0421 -0.2187 -0.2361
  222HFI     C1 3143   0.132   0.939  -0.033  0.3824 -0.0415  0.4401
  222HFI     C2 3144  -0.005   0.972   0.010  0.0979 -0.2205  0.2167
  222HFI     F1 3145  -0.087   0.865   0.048 -0.3127 -0.0890  0.2773
  222HFI     F2 3146  -0.073   1.038  -0.081 -0.1063  0.1633 -0.1019
  222HFI     F3 3147   0.013   1.048   0.121  0.0427 -0.3264 -0.4379
  222HFI     C3 3148   0.137   0.845  -0.158  0.5119 -0.1661  0.8169
  222HFI     F4 3149   0.050   0.861  -0.258  0.3521  0.1358 -0.2409
  222HFI     F5 3150   0.119   0.724  -0.115  0.7822 -0.1647 -0.2368
  222HFI     F6 3151   0.252   0.850  -0.219 -0.4194  0.5371  0.0406
  222HFI     H1 3152   0.156   0.824   0.130  1.3460  0.5795  1.9619
  222HFI     H2 3153   0.180   1.034  -0.057  0.6846 -0.4176 -0.4840
  223HFI     O1 3154   2.720   0.492   3.782 -0.1107  0.2801  0.0046
  223HFI     C1 3155   2.765   0.626   3.825  0.4671 -0.5147 -0.3659
  223HFI     C2 3156   2.695   0.738   3.737  0.0911  0.0149  0.0702
  223HFI     F1 3157   2.731   0.872   3.760 -0.0275  0.2733  0.3701
  223HFI     F2 3158   2.570   0.728   3.762  0.1560 -0.3482  0.2627
  223HFI     F3 3159   2.720   0.709   3.603  0.5132 -0.1171  0.1908
  223HFI     C3 3160   2.929   0.632   3.832 -0.2084  0.4085 -0.5926
  223HFI     F4 3161   2.977   0.587   3.717 -0.5555  0.3120 -0.0142
  223HFI     F5 3162   2.982   0.552   3.927  0.4859 -0.1971  0.2999
  223HFI     F6 3163   2.964   0.760   3.853  0.0868 -0.7647  0.1185
  223HFI     H1 3164   2.754   0.461   3.696  1.9351 -1.3845  1.3754
  223HFI     H2 3165   2.736   0.660   3.925  2.8152  2.8975 -0.7234
  224HFI     O1 3166   2.539   2.321   0.720  0.5026  0.9044 -0.4429
  224HFI     C1 3167   2.550   2.204   0.634 -0.0722 -0.4022 -0.3099
  224HFI     C2 3168   2.660   2.111   0.687  0.8280  0.2325  0.7295
  224HFI     F1 3169   2.654   1.985   0.635 -0.6286 -0.0985 -0.6900
  224HFI     F2 3170   2.653   2.100   0.825 -0.1330 -0.0125  0.1625
  224HFI     F3 3171   2.783   2.160   0.664 -0.0524 -0.0051 -0.3168
  224HFI     C3 3172   2.559   2.248   0.488 -0.0407  0.6095 -0.5525
  224HFI     F4 3173   2.465   2.338   0.465  0.6052  0.3429 -0.5723
  224HFI     F5 3174   2.551   2.148   0.397 -0.3501 -0.2210 -0.1657
  224HFI     F6 3175   2.671   2.310   0.455 -0.3645  0.0183  0.5938
  224HFI     H1 3176   2.614   2.379   0.698 -0.5611  3.2231  1.6892
  224HFI     H2 3177   2.454   2.151   0.647 -1.9398  2.5184 -1.7190
  225HFI     O1 3178   1.247   1.677   3.072  0.5867 -0.2759 -0.7592
  225HFI     C1 3179   1.180   1.652   2.949 -0.0978 -0.7206  0.6052
  225HFI     C2 3180   1.195   1.506   2.897  0.0362  0.5082 -0.1765
  225HFI     F1 3181   1.092   1.481   2.820 -0.0130 -0.0482  0.2700
  225HFI     F2 3182   1.187   1.407   2.996 -0.2935  0.2235  0.5192
  225HFI     F3 3183   1.309   1.481   2.832  0.0115 -0.3367  0.3364
  225HFI     C3 3184   1.208   1.761   2.844 -0.1908 -0.3603 -0.0772
  225HFI     F4 3185   1.151   1.876   2.889  0.1174  0.1211  0.5922
  225HFI     F5 3186   1.153   1.733   2.718 -0.1513 -0.3655  0.1249
  225HFI     F6 3187   1.342   1.780   2.816 -0.1040 -0.0858 -0.0858
  225HFI     H1 3188   1.257   1.773   3.084  0.6147 -0.4803  0.9648
  225HFI     H2 3189   1.075   1.668   2.976 -0.3278 -0.3562 -0.4810
  226HFI     O1 3190   1.512   2.241   1.102  0.6440  0.3953 -0.4535
  226HFI     C1 3191   1.496   2.283   0.963 -0.3541 -0.7365  0.2754
  226HFI     C2 3192   1.617   2.236   0.873  0.1081 -0.1262 -0.5589
  226HFI     F1 3193   1.736   2.296   0.910  0.2477  0.3538  0.0704
  226HFI     F2 3194   1.592   2.254   0.743  0.3712  0.5595  0.4265
  226HFI     F3 3195   1.636   2.103   0.899 -0.3911  0.0073 -0.1170
  226HFI     C3 3196   1.463   2.431   0.955 -0.7957 -0.0648  0.1042
  226HFI     F4 3197   1.348   2.458   1.022 -0.4708 -0.0807 -0.3041
  226HFI     F5 3198   1.446   2.457   0.829 -0.2327 -0.5943 -0.1664
  226HFI     F6 3199   1.550   2.509   1.011  0.0923 -0.2938  0.1635
  226HFI     H1 3200   1.590   2.182   1.102 -1.2890 -2.2493  0.2217
  226HFI     H2 3201   1.411   2.229   0.919 -1.2288 -0.0254  1.0644
  227HFI     O1 3202   0.818   0.692   2.330  0.2206  0.3284 -0.1456
  227HFI     C1 3203   0.958   0.724   2.364  0.2595 -0.3437 -0.2339
  227HFI     C2 3204   1.017   0.831   2.263 -0.3991  0.1375  0.0574
  227HFI     F1 3205   1.125   0.777   2.200 -0.1651 -0.1047  0.0559
  227HFI     F2 3206   1.051   0.942   2.326 -0.2006 -0.5535 -0.2876
  227HFI     F3 3207   0.933   0.858   2.162 -0.4747 -0.4615 -0.3890
  227HFI     C3 3208   1.049   0.596   2.370  0.2136 -0.7971 -0.2144
  227HFI     F4 3209   1.173   0.618   2.424  0.4860 -0.7920 -0.0719
  227HFI     F5 3210   1.078   0.527   2.255 -0.7224 -0.2080  1.0464
  227HFI     F6 3211   1.003   0.501   2.452 -0.0856 -0.0990  0.5829
  227HFI     H1 3212   0.806   0.710   2.235 -0.6419 -0.7852 -0.2567
  227HFI     H2 3213   0.961   0.760   2.467  1.0903 -1.3293  0.0999
  228HFI     O1 3214   3.393   0.190   3.773 -0.4691  0.1988 -0.0708
  228HFI     C1 3215   3.343   0.142   3.898  0.5190 -0.2565 -0.3552
  228HFI     C2 3216   3.425   0.020   3.955  0.1656 -0.2902  0.0688
  228HFI     F1 3217   3.541   0.069   3.994 -0.0521 -0.1423  0.2585
  228HFI     F2 3218   3.443  -0.087   3.870  0.1798 -0.4753  0.2040
  228HFI     F3 3219   3.367  -0.031   4.062 -0.0325 -0.5225 -0.7033
  228HFI     C3 3220   3.193   0.110   3.882  0.7198  0.1903  0.1870
  228HFI     F4 3221   3.133   0.108   4.004  0.7262 -0.2547 -0.0100
  228HFI     F5 3222   3.172  -0.013   3.830 -0.9007 -0.1414  0.2776
  228HFI     F6 3223   3.124   0.191   3.802  0.3147  0.0557  0.1372
  228HFI     H1 3224   3.409   0.115   3.712 -2.9575 -0.5712  0.1412
  228HFI     H2 3225   3.335   0.224   3.970 -0.9193 -0.1383 -0.6246
   3.40320   3.43847   3.80000
