DMF comparator n4
 4173
    1GR      C1    1   0.000   0.000   1.900  0.0000  0.0000  0.0000
    1GR      C2    2   0.142   0.000   1.900  0.0000  0.0000  0.0000
    1GR      C3    3   0.213   0.123   1.900  0.0000  0.0000  0.0000
    1GR      C4    4   0.354   0.123   1.900  0.0000  0.0000  0.0000
    1GR      C5    5   0.000   0.246   1.900  0.0000  0.0000  0.0000
    1GR      C6    6   0.142   0.246   1.900  0.0000  0.0000  0.0000
    1GR      C7    7   0.213   0.368   1.900  0.0000  0.0000  0.0000
    1GR      C8    8   0.354   0.368   1.900  0.0000  0.0000  0.0000
    1GR      C9    9   0.000   0.491   1.900  0.0000  0.0000  0.0000
    1GR     C10   10   0.142   0.491   1.900  0.0000  0.0000  0.0000
    1GR     C11   11   0.213   0.614   1.900  0.0000  0.0000  0.0000
    1GR     C12   12   0.354   0.614   1.900  0.0000  0.0000  0.0000
    1GR     C13   13   0.000   0.737   1.900  0.0000  0.0000  0.0000
    1GR     C14   14   0.142   0.737   1.900  0.0000  0.0000  0.0000
    1GR     C15   15   0.213   0.860   1.900  0.0000  0.0000  0.0000
    1GR     C16   16   0.354   0.860   1.900  0.0000  0.0000  0.0000
    1GR     C17   17   0.000   0.982   1.900  0.0000  0.0000  0.0000
    1GR     C18   18   0.142   0.982   1.900  0.0000  0.0000  0.0000
    1GR     C19   19   0.213   1.105   1.900  0.0000  0.0000  0.0000
    1GR     C20   20   0.354   1.105   1.900  0.0000  0.0000  0.0000
    1GR     C21   21   0.000   1.228   1.900  0.0000  0.0000  0.0000
    1GR     C22   22   0.142   1.228   1.900  0.0000  0.0000  0.0000
    1GR     C23   23   0.213   1.351   1.900  0.0000  0.0000  0.0000
    1GR     C24   24   0.354   1.351   1.900  0.0000  0.0000  0.0000
    1GR     C25   25   0.000   1.474   1.900  0.0000  0.0000  0.0000
    1GR     C26   26   0.142   1.474   1.900  0.0000  0.0000  0.0000
    1GR     C27   27   0.213   1.596   1.900  0.0000  0.0000  0.0000
    1GR     C28   28   0.354   1.596   1.900  0.0000  0.0000  0.0000
    1GR     C29   29   0.000   1.719   1.900  0.0000  0.0000  0.0000
    1GR     C30   30   0.142   1.719   1.900  0.0000  0.0000  0.0000
    1GR     C31   31   0.213   1.842   1.900  0.0000  0.0000  0.0000
    1GR     C32   32   0.354   1.842   1.900  0.0000  0.0000  0.0000
    1GR     C33   33   0.000   1.965   1.900  0.0000  0.0000  0.0000
    1GR     C34   34   0.142   1.965   1.900  0.0000  0.0000  0.0000
    1GR     C35   35   0.213   2.088   1.900  0.0000  0.0000  0.0000
    1GR     C36   36   0.354   2.088   1.900  0.0000  0.0000  0.0000
    1GR     C37   37   0.000   2.210   1.900  0.0000  0.0000  0.0000
    1GR     C38   38   0.142   2.210   1.900  0.0000  0.0000  0.0000
    1GR     C39   39   0.213   2.333   1.900  0.0000  0.0000  0.0000
    1GR     C40   40   0.354   2.333   1.900  0.0000  0.0000  0.0000
    1GR     C41   41   0.000   2.456   1.900  0.0000  0.0000  0.0000
    1GR     C42   42   0.142   2.456   1.900  0.0000  0.0000  0.0000
    1GR     C43   43   0.213   2.579   1.900  0.0000  0.0000  0.0000
    1GR     C44   44   0.354   2.579   1.900  0.0000  0.0000  0.0000
    1GR     C45   45   0.000   2.702   1.900  0.0000  0.0000  0.0000
    1GR     C46   46   0.142   2.702   1.900  0.0000  0.0000  0.0000
    1GR     C47   47   0.213   2.824   1.900  0.0000  0.0000  0.0000
    1GR     C48   48   0.354   2.824   1.900  0.0000  0.0000  0.0000
    1GR     C49   49   0.000   2.947   1.900  0.0000  0.0000  0.0000
    1GR     C50   50   0.142   2.947   1.900  0.0000  0.0000  0.0000
    1GR     C51   51   0.213   3.070   1.900  0.0000  0.0000  0.0000
    1GR     C52   52   0.354   3.070   1.900  0.0000  0.0000  0.0000
    1GR     C53   53   0.000   3.193   1.900  0.0000  0.0000  0.0000
    1GR     C54   54   0.142   3.193   1.900  0.0000  0.0000  0.0000
    1GR     C55   55   0.213   3.316   1.900  0.0000  0.0000  0.0000
    1GR     C56   56   0.354   3.316   1.900  0.0000  0.0000  0.0000
    1GR     C57   57   0.425   0.000   1.900  0.0000  0.0000  0.0000
    1GR     C58   58   0.567   0.000   1.900  0.0000  0.0000  0.0000
    1GR     C59   59   0.638   0.123   1.900  0.0000  0.0000  0.0000
    1GR     C60   60   0.780   0.123   1.900  0.0000  0.0000  0.0000
    1GR     C61   61   0.425   0.246   1.900  0.0000  0.0000  0.0000
    1GR     C62   62   0.567   0.246   1.900  0.0000  0.0000  0.0000
    1GR     C63   63   0.638   0.368   1.900  0.0000  0.0000  0.0000
    1GR     C64   64   0.780   0.368   1.900  0.0000  0.0000  0.0000
    1GR     C65   65   0.425   0.491   1.900  0.0000  0.0000  0.0000
    1GR     C66   66   0.567   0.491   1.900  0.0000  0.0000  0.0000
    1GR     C67   67   0.638   0.614   1.900  0.0000  0.0000  0.0000
    1GR     C68   68   0.780   0.614   1.900  0.0000  0.0000  0.0000
    1GR     C69   69   0.425   0.737   1.900  0.0000  0.0000  0.0000
    1GR     C70   70   0.567   0.737   1.900  0.0000  0.0000  0.0000
    1GR     C71   71   0.638   0.860   1.900  0.0000  0.0000  0.0000
    1GR     C72   72   0.780   0.860   1.900  0.0000  0.0000  0.0000
    1GR     C73   73   0.425   0.982   1.900  0.0000  0.0000  0.0000
    1GR     C74   74   0.567   0.982   1.900  0.0000  0.0000  0.0000
    1GR     C75   75   0.638   1.105   1.900  0.0000  0.0000  0.0000
    1GR     C76   76   0.780   1.105   1.900  0.0000  0.0000  0.0000
    1GR     C77   77   0.425   1.228   1.900  0.0000  0.0000  0.0000
    1GR     C78   78   0.567   1.228   1.900  0.0000  0.0000  0.0000
    1GR     C79   79   0.638   1.351   1.900  0.0000  0.0000  0.0000
    1GR     C80   80   0.780   1.351   1.900  0.0000  0.0000  0.0000
    1GR     C81   81   0.425   1.474   1.900  0.0000  0.0000  0.0000
    1GR     C82   82   0.567   1.474   1.900  0.0000  0.0000  0.0000
    1GR     C83   83   0.638   1.596   1.900  0.0000  0.0000  0.0000
    1GR     C84   84   0.780   1.596   1.900  0.0000  0.0000  0.0000
    1GR     C85   85   0.425   1.719   1.900  0.0000  0.0000  0.0000
    1GR     C86   86   0.567   1.719   1.900  0.0000  0.0000  0.0000
    1GR     C87   87   0.638   1.842   1.900  0.0000  0.0000  0.0000
    1GR     C88   88   0.780   1.842   1.900  0.0000  0.0000  0.0000
    1GR     C89   89   0.425   1.965   1.900  0.0000  0.0000  0.0000
    1GR     C90   90   0.567   1.965   1.900  0.0000  0.0000  0.0000
    1GR     C91   91   0.638   2.088   1.900  0.0000  0.0000  0.0000
    1GR     C92   92   0.780   2.088   1.900  0.0000  0.0000  0.0000
    1GR     C93   93   0.425   2.210   1.900  0.0000  0.0000  0.0000
    1GR     C94   94   0.567   2.210   1.900  0.0000  0.0000  0.0000
    1GR     C95   95   0.638   2.333   1.900  0.0000  0.0000  0.0000
    1GR     C96   96   0.780   2.333   1.900  0.0000  0.0000  0.0000
    1GR     C97   97   0.425   2.456   1.900  0.0000  0.0000  0.0000
    1GR     C98   98   0.567   2.456   1.900  0.0000  0.0000  0.0000
    1GR     C99   99   0.638   2.579   1.900  0.0000  0.0000  0.0000
    1GR    C100  100   0.780   2.579   1.900  0.0000  0.0000  0.0000
    1GR    C101  101   0.425   2.702   1.900  0.0000  0.0000  0.0000
    1GR    C102  102   0.567   2.702   1.900  0.0000  0.0000  0.0000
    1GR    C103  103   0.638   2.824   1.900  0.0000  0.0000  0.0000
    1GR    C104  104   0.780   2.824   1.900  0.0000  0.0000  0.0000
    1GR    C105  105   0.425   2.947   1.900  0.0000  0.0000  0.0000
    1GR    C106  106   0.567   2.947   1.900  0.0000  0.0000  0.0000
    1GR    C107  107   0.638   3.070   1.900  0.0000  0.0000  0.0000
    1GR    C108  108   0.780   3.070   1.900  0.0000  0.0000  0.0000
    1GR    C109  109   0.425   3.193   1.900  0.0000  0.0000  0.0000
    1GR    C110  110   0.567   3.193   1.900  0.0000  0.0000  0.0000
    1GR    C111  111   0.638   3.316   1.900  0.0000  0.0000  0.0000
    1GR    C112  112   0.780   3.316   1.900  0.0000  0.0000  0.0000
    1GR    C113  113   0.851   0.000   1.900  0.0000  0.0000  0.0000
    1GR    C114  114   0.993   0.000   1.900  0.0000  0.0000  0.0000
    1GR    C115  115   1.064   0.123   1.900  0.0000  0.0000  0.0000
    1GR    C116  116   1.205   0.123   1.900  0.0000  0.0000  0.0000
    1GR    C117  117   0.851   0.246   1.900  0.0000  0.0000  0.0000
    1GR    C118  118   0.993   0.246   1.900  0.0000  0.0000  0.0000
    1GR    C119  119   1.064   0.368   1.900  0.0000  0.0000  0.0000
    1GR    C120  120   1.205   0.368   1.900  0.0000  0.0000  0.0000
    1GR    C121  121   0.851   0.491   1.900  0.0000  0.0000  0.0000
    1GR    C122  122   0.993   0.491   1.900  0.0000  0.0000  0.0000
    1GR    C123  123   1.064   0.614   1.900  0.0000  0.0000  0.0000
    1GR    C124  124   1.205   0.614   1.900  0.0000  0.0000  0.0000
    1GR    C125  125   0.851   0.737   1.900  0.0000  0.0000  0.0000
    1GR    C126  126   0.993   0.737   1.900  0.0000  0.0000  0.0000
    1GR    C127  127   1.064   0.860   1.900  0.0000  0.0000  0.0000
    1GR    C128  128   1.205   0.860   1.900  0.0000  0.0000  0.0000
    1GR    C129  129   0.851   0.982   1.900  0.0000  0.0000  0.0000
    1GR    C130  130   0.993   0.982   1.900  0.0000  0.0000  0.0000
    1GR    C131  131   1.064   1.105   1.900  0.0000  0.0000  0.0000
    1GR    C132  132   1.205   1.105   1.900  0.0000  0.0000  0.0000
    1GR    C133  133   0.851   1.228   1.900  0.0000  0.0000  0.0000
    1GR    C134  134   0.993   1.228   1.900  0.0000  0.0000  0.0000
    1GR    C135  135   1.064   1.351   1.900  0.0000  0.0000  0.0000
    1GR    C136  136   1.205   1.351   1.900  0.0000  0.0000  0.0000
    1GR    C137  137   0.851   1.474   1.900  0.0000  0.0000  0.0000
    1GR    C138  138   0.993   1.474   1.900  0.0000  0.0000  0.0000
    1GR    C139  139   1.064   1.596   1.900  0.0000  0.0000  0.0000
    1GR    C140  140   1.205   1.596   1.900  0.0000  0.0000  0.0000
    1GR    C141  141   0.851   1.719   1.900  0.0000  0.0000  0.0000
    1GR    C142  142   0.993   1.719   1.900  0.0000  0.0000  0.0000
    1GR    C143  143   1.064   1.842   1.900  0.0000  0.0000  0.0000
    1GR    C144  144   1.205   1.842   1.900  0.0000  0.0000  0.0000
    1GR    C145  145   0.851   1.965   1.900  0.0000  0.0000  0.0000
    1GR    C146  146   0.993   1.965   1.900  0.0000  0.0000  0.0000
    1GR    C147  147   1.064   2.088   1.900  0.0000  0.0000  0.0000
    1GR    C148  148   1.205   2.088   1.900  0.0000  0.0000  0.0000
    1GR    C149  149   0.851   2.210   1.900  0.0000  0.0000  0.0000
    1GR    C150  150   0.993   2.210   1.900  0.0000  0.0000  0.0000
    1GR    C151  151   1.064   2.333   1.900  0.0000  0.0000  0.0000
    1GR    C152  152   1.205   2.333   1.900  0.0000  0.0000  0.0000
    1GR    C153  153   0.851   2.456   1.900  0.0000  0.0000  0.0000
    1GR    C154  154   0.993   2.456   1.900  0.0000  0.0000  0.0000
    1GR    C155  155   1.064   2.579   1.900  0.0000  0.0000  0.0000
    1GR    C156  156   1.205   2.579   1.900  0.0000  0.0000  0.0000
    1GR    C157  157   0.851   2.702   1.900  0.0000  0.0000  0.0000
    1GR    C158  158   0.993   2.702   1.900  0.0000  0.0000  0.0000
    1GR    C159  159   1.064   2.824   1.900  0.0000  0.0000  0.0000
    1GR    C160  160   1.205   2.824   1.900  0.0000  0.0000  0.0000
    1GR    C161  161   0.851   2.947   1.900  0.0000  0.0000  0.0000
    1GR    C162  162   0.993   2.947   1.900  0.0000  0.0000  0.0000
    1GR    C163  163   1.064   3.070   1.900  0.0000  0.0000  0.0000
    1GR    C164  164   1.205   3.070   1.900  0.0000  0.0000  0.0000
    1GR    C165  165   0.851   3.193   1.900  0.0000  0.0000  0.0000
    1GR    C166  166   0.993   3.193   1.900  0.0000  0.0000  0.0000
    1GR    C167  167   1.064   3.316   1.900  0.0000  0.0000  0.0000
    1GR    C168  168   1.205   3.316   1.900  0.0000  0.0000  0.0000
    1GR    C169  169   1.276   0.000   1.900  0.0000  0.0000  0.0000
    1GR    C170  170   1.418   0.000   1.900  0.0000  0.0000  0.0000
    1GR    C171  171   1.489   0.123   1.900  0.0000  0.0000  0.0000
    1GR    C172  172   1.631   0.123   1.900  0.0000  0.0000  0.0000
    1GR    C173  173   1.276   0.246   1.900  0.0000  0.0000  0.0000
    1GR    C174  174   1.418   0.246   1.900  0.0000  0.0000  0.0000
    1GR    C175  175   1.489   0.368   1.900  0.0000  0.0000  0.0000
    1GR    C176  176   1.631   0.368   1.900  0.0000  0.0000  0.0000
    1GR    C177  177   1.276   0.491   1.900  0.0000  0.0000  0.0000
    1GR    C178  178   1.418   0.491   1.900  0.0000  0.0000  0.0000
    1GR    C179  179   1.489   0.614   1.900  0.0000  0.0000  0.0000
    1GR    C180  180   1.631   0.614   1.900  0.0000  0.0000  0.0000
    1GR    C181  181   1.276   0.737   1.900  0.0000  0.0000  0.0000
    1GR    C182  182   1.418   0.737   1.900  0.0000  0.0000  0.0000
    1GR    C183  183   1.489   0.860   1.900  0.0000  0.0000  0.0000
    1GR    C184  184   1.631   0.860   1.900  0.0000  0.0000  0.0000
    1GR    C185  185   1.276   0.982   1.900  0.0000  0.0000  0.0000
    1GR    C186  186   1.418   0.982   1.900  0.0000  0.0000  0.0000
    1GR    C187  187   1.489   1.105   1.900  0.0000  0.0000  0.0000
    1GR    C188  188   1.631   1.105   1.900  0.0000  0.0000  0.0000
    1GR    C189  189   1.276   1.228   1.900  0.0000  0.0000  0.0000
    1GR    C190  190   1.418   1.228   1.900  0.0000  0.0000  0.0000
    1GR    C191  191   1.489   1.351   1.900  0.0000  0.0000  0.0000
    1GR    C192  192   1.631   1.351   1.900  0.0000  0.0000  0.0000
    1GR    C193  193   1.276   1.474   1.900  0.0000  0.0000  0.0000
    1GR    C194  194   1.418   1.474   1.900  0.0000  0.0000  0.0000
    1GR    C195  195   1.489   1.596   1.900  0.0000  0.0000  0.0000
    1GR    C196  196   1.631   1.596   1.900  0.0000  0.0000  0.0000
    1GR    C197  197   1.276   1.719   1.900  0.0000  0.0000  0.0000
    1GR    C198  198   1.418   1.719   1.900  0.0000  0.0000  0.0000
    1GR    C199  199   1.489   1.842   1.900  0.0000  0.0000  0.0000
    1GR    C200  200   1.631   1.842   1.900  0.0000  0.0000  0.0000
    1GR    C201  201   1.276   1.965   1.900  0.0000  0.0000  0.0000
    1GR    C202  202   1.418   1.965   1.900  0.0000  0.0000  0.0000
    1GR    C203  203   1.489   2.088   1.900  0.0000  0.0000  0.0000
    1GR    C204  204   1.631   2.088   1.900  0.0000  0.0000  0.0000
    1GR    C205  205   1.276   2.210   1.900  0.0000  0.0000  0.0000
    1GR    C206  206   1.418   2.210   1.900  0.0000  0.0000  0.0000
    1GR    C207  207   1.489   2.333   1.900  0.0000  0.0000  0.0000
    1GR    C208  208   1.631   2.333   1.900  0.0000  0.0000  0.0000
    1GR    C209  209   1.276   2.456   1.900  0.0000  0.0000  0.0000
    1GR    C210  210   1.418   2.456   1.900  0.0000  0.0000  0.0000
    1GR    C211  211   1.489   2.579   1.900  0.0000  0.0000  0.0000
    1GR    C212  212   1.631   2.579   1.900  0.0000  0.0000  0.0000
    1GR    C213  213   1.276   2.702   1.900  0.0000  0.0000  0.0000
    1GR    C214  214   1.418   2.702   1.900  0.0000  0.0000  0.0000
    1GR    C215  215   1.489   2.824   1.900  0.0000  0.0000  0.0000
    1GR    C216  216   1.631   2.824   1.900  0.0000  0.0000  0.0000
    1GR    C217  217   1.276   2.947   1.900  0.0000  0.0000  0.0000
    1GR    C218  218   1.418   2.947   1.900  0.0000  0.0000  0.0000
    1GR    C219  219   1.489   3.070   1.900  0.0000  0.0000  0.0000
    1GR    C220  220   1.631   3.070   1.900  0.0000  0.0000  0.0000
    1GR    C221  221   1.276   3.193   1.900  0.0000  0.0000  0.0000
    1GR    C222  222   1.418   3.193   1.900  0.0000  0.0000  0.0000
    1GR    C223  223   1.489   3.316   1.900  0.0000  0.0000  0.0000
    1GR    C224  224   1.631   3.316   1.900  0.0000  0.0000  0.0000
    1GR    C225  225   1.702   0.000   1.900  0.0000  0.0000  0.0000
    1GR    C226  226   1.843   0.000   1.900  0.0000  0.0000  0.0000
    1GR    C227  227   1.914   0.123   1.900  0.0000  0.0000  0.0000
    1GR    C228  228   2.056   0.123   1.900  0.0000  0.0000  0.0000
    1GR    C229  229   1.702   0.246   1.900  0.0000  0.0000  0.0000
    1GR    C230  230   1.843   0.246   1.900  0.0000  0.0000  0.0000
    1GR    C231  231   1.914   0.368   1.900  0.0000  0.0000  0.0000
    1GR    C232  232   2.056   0.368   1.900  0.0000  0.0000  0.0000
    1GR    C233  233   1.702   0.491   1.900  0.0000  0.0000  0.0000
    1GR    C234  234   1.843   0.491   1.900  0.0000  0.0000  0.0000
    1GR    C235  235   1.914   0.614   1.900  0.0000  0.0000  0.0000
    1GR    C236  236   2.056   0.614   1.900  0.0000  0.0000  0.0000
    1GR    C237  237   1.702   0.737   1.900  0.0000  0.0000  0.0000
    1GR    C238  238   1.843   0.737   1.900  0.0000  0.0000  0.0000
    1GR    C239  239   1.914   0.860   1.900  0.0000  0.0000  0.0000
    1GR    C240  240   2.056   0.860   1.900  0.0000  0.0000  0.0000
    1GR    C241  241   1.702   0.982   1.900  0.0000  0.0000  0.0000
    1GR    C242  242   1.843   0.982   1.900  0.0000  0.0000  0.0000
    1GR    C243  243   1.914   1.105   1.900  0.0000  0.0000  0.0000
    1GR    C244  244   2.056   1.105   1.900  0.0000  0.0000  0.0000
    1GR    C245  245   1.702   1.228   1.900  0.0000  0.0000  0.0000
    1GR    C246  246   1.843   1.228   1.900  0.0000  0.0000  0.0000
    1GR    C247  247   1.914   1.351   1.900  0.0000  0.0000  0.0000
    1GR    C248  248   2.056   1.351   1.900  0.0000  0.0000  0.0000
    1GR    C249  249   1.702   1.474   1.900  0.0000  0.0000  0.0000
    1GR    C250  250   1.843   1.474   1.900  0.0000  0.0000  0.0000
    1GR    C251  251   1.914   1.596   1.900  0.0000  0.0000  0.0000
    1GR    C252  252   2.056   1.596   1.900  0.0000  0.0000  0.0000
    1GR    C253  253   1.702   1.719   1.900  0.0000  0.0000  0.0000
    1GR    C254  254   1.843   1.719   1.900  0.0000  0.0000  0.0000
    1GR    C255  255   1.914   1.842   1.900  0.0000  0.0000  0.0000
    1GR    C256  256   2.056   1.842   1.900  0.0000  0.0000  0.0000
    1GR    C257  257   1.702   1.965   1.900  0.0000  0.0000  0.0000
    1GR    C258  258   1.843   1.965   1.900  0.0000  0.0000  0.0000
    1GR    C259  259   1.914   2.088   1.900  0.0000  0.0000  0.0000
    1GR    C260  260   2.056   2.088   1.900  0.0000  0.0000  0.0000
    1GR    C261  261   1.702   2.210   1.900  0.0000  0.0000  0.0000
    1GR    C262  262   1.843   2.210   1.900  0.0000  0.0000  0.0000
    1GR    C263  263   1.914   2.333   1.900  0.0000  0.0000  0.0000
    1GR    C264  264   2.056   2.333   1.900  0.0000  0.0000  0.0000
    1GR    C265  265   1.702   2.456   1.900  0.0000  0.0000  0.0000
    1GR    C266  266   1.843   2.456   1.900  0.0000  0.0000  0.0000
    1GR    C267  267   1.914   2.579   1.900  0.0000  0.0000  0.0000
    1GR    C268  268   2.056   2.579   1.900  0.0000  0.0000  0.0000
    1GR    C269  269   1.702   2.702   1.900  0.0000  0.0000  0.0000
    1GR    C270  270   1.843   2.702   1.900  0.0000  0.0000  0.0000
    1GR    C271  271   1.914   2.824   1.900  0.0000  0.0000  0.0000
    1GR    C272  272   2.056   2.824   1.900  0.0000  0.0000  0.0000
    1GR    C273  273   1.702   2.947   1.900  0.0000  0.0000  0.0000
    1GR    C274  274   1.843   2.947   1.900  0.0000  0.0000  0.0000
    1GR    C275  275   1.914   3.070   1.900  0.0000  0.0000  0.0000
    1GR    C276  276   2.056   3.070   1.900  0.0000  0.0000  0.0000
    1GR    C277  277   1.702   3.193   1.900  0.0000  0.0000  0.0000
    1GR    C278  278   1.843   3.193   1.900  0.0000  0.0000  0.0000
    1GR    C279  279   1.914   3.316   1.900  0.0000  0.0000  0.0000
    1GR    C280  280   2.056   3.316   1.900  0.0000  0.0000  0.0000
    1GR    C281  281   2.127   0.000   1.900  0.0000  0.0000  0.0000
    1GR    C282  282   2.269   0.000   1.900  0.0000  0.0000  0.0000
    1GR    C283  283   2.340   0.123   1.900  0.0000  0.0000  0.0000
    1GR    C284  284   2.481   0.123   1.900  0.0000  0.0000  0.0000
    1GR    C285  285   2.127   0.246   1.900  0.0000  0.0000  0.0000
    1GR    C286  286   2.269   0.246   1.900  0.0000  0.0000  0.0000
    1GR    C287  287   2.340   0.368   1.900  0.0000  0.0000  0.0000
    1GR    C288  288   2.481   0.368   1.900  0.0000  0.0000  0.0000
    1GR    C289  289   2.127   0.491   1.900  0.0000  0.0000  0.0000
    1GR    C290  290   2.269   0.491   1.900  0.0000  0.0000  0.0000
    1GR    C291  291   2.340   0.614   1.900  0.0000  0.0000  0.0000
    1GR    C292  292   2.481   0.614   1.900  0.0000  0.0000  0.0000
    1GR    C293  293   2.127   0.737   1.900  0.0000  0.0000  0.0000
    1GR    C294  294   2.269   0.737   1.900  0.0000  0.0000  0.0000
    1GR    C295  295   2.340   0.860   1.900  0.0000  0.0000  0.0000
    1GR    C296  296   2.481   0.860   1.900  0.0000  0.0000  0.0000
    1GR    C297  297   2.127   0.982   1.900  0.0000  0.0000  0.0000
    1GR    C298  298   2.269   0.982   1.900  0.0000  0.0000  0.0000
    1GR    C299  299   2.340   1.105   1.900  0.0000  0.0000  0.0000
    1GR    C300  300   2.481   1.105   1.900  0.0000  0.0000  0.0000
    1GR    C301  301   2.127   1.228   1.900  0.0000  0.0000  0.0000
    1GR    C302  302   2.269   1.228   1.900  0.0000  0.0000  0.0000
    1GR    C303  303   2.340   1.351   1.900  0.0000  0.0000  0.0000
    1GR    C304  304   2.481   1.351   1.900  0.0000  0.0000  0.0000
    1GR    C305  305   2.127   1.474   1.900  0.0000  0.0000  0.0000
    1GR    C306  306   2.269   1.474   1.900  0.0000  0.0000  0.0000
    1GR    C307  307   2.340   1.596   1.900  0.0000  0.0000  0.0000
    1GR    C308  308   2.481   1.596   1.900  0.0000  0.0000  0.0000
    1GR    C309  309   2.127   1.719   1.900  0.0000  0.0000  0.0000
    1GR    C310  310   2.269   1.719   1.900  0.0000  0.0000  0.0000
    1GR    C311  311   2.340   1.842   1.900  0.0000  0.0000  0.0000
    1GR    C312  312   2.481   1.842   1.900  0.0000  0.0000  0.0000
    1GR    C313  313   2.127   1.965   1.900  0.0000  0.0000  0.0000
    1GR    C314  314   2.269   1.965   1.900  0.0000  0.0000  0.0000
    1GR    C315  315   2.340   2.088   1.900  0.0000  0.0000  0.0000
    1GR    C316  316   2.481   2.088   1.900  0.0000  0.0000  0.0000
    1GR    C317  317   2.127   2.210   1.900  0.0000  0.0000  0.0000
    1GR    C318  318   2.269   2.210   1.900  0.0000  0.0000  0.0000
    1GR    C319  319   2.340   2.333   1.900  0.0000  0.0000  0.0000
    1GR    C320  320   2.481   2.333   1.900  0.0000  0.0000  0.0000
    1GR    C321  321   2.127   2.456   1.900  0.0000  0.0000  0.0000
    1GR    C322  322   2.269   2.456   1.900  0.0000  0.0000  0.0000
    1GR    C323  323   2.340   2.579   1.900  0.0000  0.0000  0.0000
    1GR    C324  324   2.481   2.579   1.900  0.0000  0.0000  0.0000
    1GR    C325  325   2.127   2.702   1.900  0.0000  0.0000  0.0000
    1GR    C326  326   2.269   2.702   1.900  0.0000  0.0000  0.0000
    1GR    C327  327   2.340   2.824   1.900  0.0000  0.0000  0.0000
    1GR    C328  328   2.481   2.824   1.900  0.0000  0.0000  0.0000
    1GR    C329  329   2.127   2.947   1.900  0.0000  0.0000  0.0000
    1GR    C330  330   2.269   2.947   1.900  0.0000  0.0000  0.0000
    1GR    C331  331   2.340   3.070   1.900  0.0000  0.0000  0.0000
    1GR    C332  332   2.481   3.070   1.900  0.0000  0.0000  0.0000
    1GR    C333  333   2.127   3.193   1.900  0.0000  0.0000  0.0000
    1GR    C334  334   2.269   3.193   1.900  0.0000  0.0000  0.0000
    1GR    C335  335   2.340   3.316   1.900  0.0000  0.0000  0.0000
    1GR    C336  336   2.481   3.316   1.900  0.0000  0.0000  0.0000
    1GR    C337  337   2.552   0.000   1.900  0.0000  0.0000  0.0000
    1GR    C338  338   2.694   0.000   1.900  0.0000  0.0000  0.0000
    1GR    C339  339   2.765   0.123   1.900  0.0000  0.0000  0.0000
    1GR    C340  340   2.907   0.123   1.900  0.0000  0.0000  0.0000
    1GR    C341  341   2.552   0.246   1.900  0.0000  0.0000  0.0000
    1GR    C342  342   2.694   0.246   1.900  0.0000  0.0000  0.0000
    1GR    C343  343   2.765   0.368   1.900  0.0000  0.0000  0.0000
    1GR    C344  344   2.907   0.368   1.900  0.0000  0.0000  0.0000
    1GR    C345  345   2.552   0.491   1.900  0.0000  0.0000  0.0000
    1GR    C346  346   2.694   0.491   1.900  0.0000  0.0000  0.0000
    1GR    C347  347   2.765   0.614   1.900  0.0000  0.0000  0.0000
    1GR    C348  348   2.907   0.614   1.900  0.0000  0.0000  0.0000
    1GR    C349  349   2.552   0.737   1.900  0.0000  0.0000  0.0000
    1GR    C350  350   2.694   0.737   1.900  0.0000  0.0000  0.0000
    1GR    C351  351   2.765   0.860   1.900  0.0000  0.0000  0.0000
    1GR    C352  352   2.907   0.860   1.900  0.0000  0.0000  0.0000
    1GR    C353  353   2.552   0.982   1.900  0.0000  0.0000  0.0000
    1GR    C354  354   2.694   0.982   1.900  0.0000  0.0000  0.0000
    1GR    C355  355   2.765   1.105   1.900  0.0000  0.0000  0.0000
    1GR    C356  356   2.907   1.105   1.900  0.0000  0.0000  0.0000
    1GR    C357  357   2.552   1.228   1.900  0.0000  0.0000  0.0000
    1GR    C358  358   2.694   1.228   1.900  0.0000  0.0000  0.0000
    1GR    C359  359   2.765   1.351   1.900  0.0000  0.0000  0.0000
    1GR    C360  360   2.907   1.351   1.900  0.0000  0.0000  0.0000
    1GR    C361  361   2.552   1.474   1.900  0.0000  0.0000  0.0000
    1GR    C362  362   2.694   1.474   1.900  0.0000  0.0000  0.0000
    1GR    C363  363   2.765   1.596   1.900  0.0000  0.0000  0.0000
    1GR    C364  364   2.907   1.596   1.900  0.0000  0.0000  0.0000
    1GR    C365  365   2.552   1.719   1.900  0.0000  0.0000  0.0000
    1GR    C366  366   2.694   1.719   1.900  0.0000  0.0000  0.0000
    1GR    C367  367   2.765   1.842   1.900  0.0000  0.0000  0.0000
    1GR    C368  368   2.907   1.842   1.900  0.0000  0.0000  0.0000
    1GR    C369  369   2.552   1.965   1.900  0.0000  0.0000  0.0000
    1GR    C370  370   2.694   1.965   1.900  0.0000  0.0000  0.0000
    1GR    C371  371   2.765   2.088   1.900  0.0000  0.0000  0.0000
    1GR    C372  372   2.907   2.088   1.900  0.0000  0.0000  0.0000
    1GR    C373  373   2.552   2.210   1.900  0.0000  0.0000  0.0000
    1GR    C374  374   2.694   2.210   1.900  0.0000  0.0000  0.0000
    1GR    C375  375   2.765   2.333   1.900  0.0000  0.0000  0.0000
    1GR    C376  376   2.907   2.333   1.900  0.0000  0.0000  0.0000
    1GR    C377  377   2.552   2.456   1.900  0.0000  0.0000  0.0000
    1GR    C378  378   2.694   2.456   1.900  0.0000  0.0000  0.0000
    1GR    C379  379   2.765   2.579   1.900  0.0000  0.0000  0.0000
    1GR    C380  380   2.907   2.579   1.900  0.0000  0.0000  0.0000
    1GR    C381  381   2.552   2.702   1.900  0.0000  0.0000  0.0000
    1GR    C382  382   2.694   2.702   1.900  0.0000  0.0000  0.0000
    1GR    C383  383   2.765   2.824   1.900  0.0000  0.0000  0.0000
    1GR    C384  384   2.907   2.824   1.900  0.0000  0.0000  0.0000
    1GR    C385  385   2.552   2.947   1.900  0.0000  0.0000  0.0000
    1GR    C386  386   2.694   2.947   1.900  0.0000  0.0000  0.0000
    1GR    C387  387   2.765   3.070   1.900  0.0000  0.0000  0.0000
    1GR    C388  388   2.907   3.070   1.900  0.0000  0.0000  0.0000
    1GR    C389  389   2.552   3.193   1.900  0.0000  0.0000  0.0000
    1GR    C390  390   2.694   3.193   1.900  0.0000  0.0000  0.0000
    1GR    C391  391   2.765   3.316   1.900  0.0000  0.0000  0.0000
    1GR    C392  392   2.907   3.316   1.900  0.0000  0.0000  0.0000
    1GR    C393  393   2.978   0.000   1.900  0.0000  0.0000  0.0000
    1GR    C394  394   3.120   0.000   1.900  0.0000  0.0000  0.0000
    1GR    C395  395   3.191   0.123   1.900  0.0000  0.0000  0.0000
    1GR    C396  396   3.332   0.123   1.900  0.0000  0.0000  0.0000
    1GR    C397  397   2.978   0.246   1.900  0.0000  0.0000  0.0000
    1GR    C398  398   3.120   0.246   1.900  0.0000  0.0000  0.0000
    1GR    C399  399   3.191   0.368   1.900  0.0000  0.0000  0.0000
    1GR    C400  400   3.332   0.368   1.900  0.0000  0.0000  0.0000
    1GR    C401  401   2.978   0.491   1.900  0.0000  0.0000  0.0000
    1GR    C402  402   3.120   0.491   1.900  0.0000  0.0000  0.0000
    1GR    C403  403   3.191   0.614   1.900  0.0000  0.0000  0.0000
    1GR    C404  404   3.332   0.614   1.900  0.0000  0.0000  0.0000
    1GR    C405  405   2.978   0.737   1.900  0.0000  0.0000  0.0000
    1GR    C406  406   3.120   0.737   1.900  0.0000  0.0000  0.0000
    1GR    C407  407   3.191   0.860   1.900  0.0000  0.0000  0.0000
    1GR    C408  408   3.332   0.860   1.900  0.0000  0.0000  0.0000
    1GR    C409  409   2.978   0.982   1.900  0.0000  0.0000  0.0000
    1GR    C410  410   3.120   0.982   1.900  0.0000  0.0000  0.0000
    1GR    C411  411   3.191   1.105   1.900  0.0000  0.0000  0.0000
    1GR    C412  412   3.332   1.105   1.900  0.0000  0.0000  0.0000
    1GR    C413  413   2.978   1.228   1.900  0.0000  0.0000  0.0000
    1GR    C414  414   3.120   1.228   1.900  0.0000  0.0000  0.0000
    1GR    C415  415   3.191   1.351   1.900  0.0000  0.0000  0.0000
    1GR    C416  416   3.332   1.351   1.900  0.0000  0.0000  0.0000
    1GR    C417  417   2.978   1.474   1.900  0.0000  0.0000  0.0000
    1GR    C418  418   3.120   1.474   1.900  0.0000  0.0000  0.0000
    1GR    C419  419   3.191   1.596   1.900  0.0000  0.0000  0.0000
    1GR    C420  420   3.332   1.596   1.900  0.0000  0.0000  0.0000
    1GR    C421  421   2.978   1.719   1.900  0.0000  0.0000  0.0000
    1GR    C422  422   3.120   1.719   1.900  0.0000  0.0000  0.0000
    1GR    C423  423   3.191   1.842   1.900  0.0000  0.0000  0.0000
    1GR    C424  424   3.332   1.842   1.900  0.0000  0.0000  0.0000
    1GR    C425  425   2.978   1.965   1.900  0.0000  0.0000  0.0000
    1GR    C426  426   3.120   1.965   1.900  0.0000  0.0000  0.0000
    1GR    C427  427   3.191   2.088   1.900  0.0000  0.0000  0.0000
    1GR    C428  428   3.332   2.088   1.900  0.0000  0.0000  0.0000
    1GR    C429  429   2.978   2.210   1.900  0.0000  0.0000  0.0000
    1GR    C430  430   3.120   2.210   1.900  0.0000  0.0000  0.0000
    1GR    C431  431   3.191   2.333   1.900  0.0000  0.0000  0.0000
    1GR    C432  432   3.332   2.333   1.900  0.0000  0.0000  0.0000
    1GR    C433  433   2.978   2.456   1.900  0.0000  0.0000  0.0000
    1GR    C434  434   3.120   2.456   1.900  0.0000  0.0000  0.0000
    1GR    C435  435   3.191   2.579   1.900  0.0000  0.0000  0.0000
    1GR    C436  436   3.332   2.579   1.900  0.0000  0.0000  0.0000
    1GR    C437  437   2.978   2.702   1.900  0.0000  0.0000  0.0000
    1GR    C438  438   3.120   2.702   1.900  0.0000  0.0000  0.0000
    1GR    C439  439   3.191   2.824   1.900  0.0000  0.0000  0.0000
    1GR    C440  440   3.332   2.824   1.900  0.0000  0.0000  0.0000
    1GR    C441  441   2.978   2.947   1.900  0.0000  0.0000  0.0000
    1GR    C442  442   3.120   2.947   1.900  0.0000  0.0000  0.0000
    1GR    C443  443   3.191   3.070   1.900  0.0000  0.0000  0.0000
    1GR    C444  444   3.332   3.070   1.900  0.0000  0.0000  0.0000
    1GR    C445  445   2.978   3.193   1.900  0.0000  0.0000  0.0000
    1GR    C446  446   3.120   3.193   1.900  0.0000  0.0000  0.0000
    1GR    C447  447   3.191   3.316   1.900  0.0000  0.0000  0.0000
    1GR    C448  448   3.332   3.316   1.900  0.0000  0.0000  0.0000
    2PMMA   CX1  449   0.546   1.436   3.114 -0.2518 -0.3256 -0.3717
    2PMMA   CA2  450   0.463   1.317   3.163 -0.3110 -0.2181 -0.0676
    2PMMA   CX3  451   0.368   1.375   3.274  0.2159  0.3759  0.0941
    2PMMA    C4  452   0.391   1.274   3.036  0.0631 -0.0022 -0.2535
    2PMMA    O5  453   0.443   1.212   2.947  0.1925  0.7856  0.0636
    2PMMA   OS6  454   0.265   1.327   3.019 -0.1400 -1.0179 -0.4525
    2PMMA   CE7  455   0.205   1.321   2.893  0.2537  0.2040 -0.0064
    2PMMA   CX8  456   0.556   1.205   3.221 -0.3124 -0.7809  0.2233
    2PMMA   CA9  457   0.518   1.059   3.271  0.3239  0.0262 -0.0711
    2PMMA  CX10  458   0.479   0.979   3.147  0.5017 -0.5083 -0.0290
    2PMMA   C11  459   0.402   1.088   3.373  0.8355  0.0876 -0.0530
    2PMMA   O12  460   0.289   1.062   3.342 -0.0881 -0.1638 -0.0622
    2PMMA  OS13  461   0.440   1.132   3.496  0.0665 -0.2641  0.8214
    2PMMA  CE14  462   0.344   1.158   3.599  0.2922 -0.3248  0.4060
    2PMMA  CX15  463   0.649   1.001   3.338  0.4308 -0.0075 -0.3242
    2PMMA  CA16  464   0.657   0.852   3.383 -0.4500  0.2360  0.3575
    2PMMA  CX17  465   0.527   0.810   3.460 -0.6051  0.5220 -0.2550
    2PMMA   C18  466   0.684   0.763   3.268  0.4967  0.6099 -0.2645
    2PMMA   O19  467   0.618   0.668   3.237  0.3034  0.3984 -0.1250
    2PMMA  OS20  468   0.798   0.802   3.202 -0.5186 -0.2421 -0.9350
    2PMMA  CE21  469   0.844   0.724   3.093  0.8860  0.6781  0.1496
    2PMMA  CX22  470   0.777   0.842   3.481  0.3882  0.5578 -0.0073
    2PMMA  CA23  471   0.797   0.717   3.580 -0.0130 -0.0178  0.2505
    2PMMA  CX24  472   0.790   0.577   3.501 -0.8950 -0.1928 -0.0036
    2PMMA   C25  473   0.705   0.705   3.706  1.1901  0.0552 -0.0446
    2PMMA   O26  474   0.697   0.607   3.775 -0.4956  0.0307  0.2506
    2PMMA  OS27  475   0.643   0.818   3.743  0.4680 -0.4373 -0.3212
    2PMMA  CE28  476   0.544   0.827   3.848  0.1073 -0.0138  0.5174
    2PMMA  CX29  477   0.934   0.728   3.638  0.2393  0.2446 -0.6084
    2PMMA  HC30  478   0.606   1.482   3.193 -0.1472  0.8583 -1.1160
    2PMMA  HC31  479   0.610   1.415   3.027  0.0423  1.9833 -0.7570
    2PMMA  HC32  480   0.476   1.509   3.072  0.1476 -0.4476 -1.2541
    2PMMA  HC33  481   0.323   1.470   3.245  1.3582  0.4448 -1.5269
    2PMMA  HC34  482   0.412   1.396   3.373 -1.4796 -1.1715  1.2152
    2PMMA  HC35  483   0.280   1.311   3.287 -0.0578  0.3839 -1.6682
    2PMMA  H136  484   0.164   1.221   2.872  0.3648  0.3593 -0.9967
    2PMMA  H137  485   0.271   1.358   2.813  2.3089 -1.0775  1.0392
    2PMMA  H138  486   0.120   1.389   2.897 -1.2446 -1.6232  0.2003
    2PMMA  HC39  487   0.632   1.190   3.143 -0.3717 -0.8119  0.1711
    2PMMA  HC40  488   0.615   1.264   3.292  0.8712  1.3847 -2.4512
    2PMMA  HC41  489   0.456   0.875   3.170  2.8441 -0.2907  3.7672
    2PMMA  HC42  490   0.386   1.012   3.099  1.7452  1.0124 -1.4795
    2PMMA  HC43  491   0.553   0.982   3.066 -1.2010 -0.1212 -1.5816
    2PMMA  H144  492   0.388   1.146   3.698  0.6780  0.1109  0.2882
    2PMMA  H145  493   0.257   1.092   3.596  0.0323 -0.0278  1.1745
    2PMMA  H146  494   0.303   1.259   3.589  0.8182  0.0965  2.3187
    2PMMA  HC47  495   0.729   1.024   3.268  0.4385 -1.7899 -0.9420
    2PMMA  HC48  496   0.674   1.063   3.425  0.8539 -0.4441 -0.1327
    2PMMA  HC49  497   0.518   0.880   3.544 -1.1385 -2.3290  2.1756
    2PMMA  HC50  498   0.526   0.706   3.496 -0.7585  0.9874  1.1244
    2PMMA  HC51  499   0.437   0.821   3.399 -3.8512 -0.5666  4.0319
    2PMMA  H152  500   0.918   0.791   3.047 -0.9446  4.0248  1.9043
    2PMMA  H153  501   0.763   0.714   3.020  1.6570 -1.8328 -0.4188
    2PMMA  H154  502   0.884   0.625   3.117  0.5084  0.2372 -0.9911
    2PMMA  HC55  503   0.870   0.887   3.445 -0.0947  0.6838 -1.1270
    2PMMA  HC56  504   0.765   0.924   3.553  0.6963  0.5829  0.0190
    2PMMA  HC57  505   0.834   0.574   3.400  0.1858  1.8316  0.3687
    2PMMA  HC58  506   0.837   0.501   3.564  1.3958  0.6211 -0.6590
    2PMMA  HC59  507   0.685   0.555   3.478 -1.2526  0.0621  1.3487
    2PMMA  H160  508   0.472   0.744   3.854  0.9659 -0.8404 -0.3572
    2PMMA  H161  509   0.483   0.915   3.827 -1.0916 -0.7307  0.9023
    2PMMA  H162  510   0.585   0.845   3.947 -0.5912  0.0644  0.7950
    2PMMA  HC63  511   0.964   0.646   3.704  0.1640  0.8759  0.2054
    2PMMA  HC64  512   1.010   0.710   3.561  0.2772  0.3512 -0.5956
    2PMMA  HC65  513   0.963   0.817   3.695  0.4638  0.5661 -1.2189
    3DMF     C1  514   1.755   0.935   2.859 -0.3035  0.4029 -0.5454
    3DMF     N1  515   1.735   0.935   2.718 -0.6140 -0.1570 -0.2241
    3DMF     C2  516   1.595   0.932   2.665  0.2002  0.9454  0.3784
    3DMF     C3  517   1.840   0.973   2.630  0.4831  0.3967  0.3268
    3DMF     O1  518   1.958   0.979   2.664 -0.0899 -0.1900 -0.4027
    3DMF     H1  519   1.695   1.013   2.908 -0.2382  0.8602 -1.1927
    3DMF     H2  520   1.855   0.970   2.887 -0.2521 -0.3053  0.1866
    3DMF     H3  521   1.736   0.832   2.892  1.2774 -0.0284 -0.9346
    3DMF     H4  522   1.582   1.005   2.585  0.7123 -0.9569 -1.4926
    3DMF     H5  523   1.527   0.952   2.749 -0.7963  0.3922 -0.2935
    3DMF     H6  524   1.571   0.831   2.628 -1.1689  0.1418  3.3079
    3DMF     H7  525   1.810   0.995   2.525 -1.6148  0.2814  0.8791
    4DMF     C1  526   1.010   0.944   0.204  0.6265  0.3730 -0.1605
    4DMF     N1  527   1.135   0.995   0.152  0.0259 -0.1283 -0.0063
    4DMF     C2  528   1.181   1.125   0.198 -0.1276  0.4967 -0.3621
    4DMF     C3  529   1.224   0.909   0.079  0.1542 -0.2753 -0.2289
    4DMF     O1  530   1.195   0.788   0.066  0.6468 -0.2450 -0.6430
    4DMF     H1  531   1.021   0.911   0.308 -1.6715 -1.3149 -0.4124
    4DMF     H2  532   0.977   0.853   0.152  0.2036  0.7458 -0.5546
    4DMF     H3  533   0.938   1.026   0.217  0.7676  0.6467 -1.0820
    4DMF     H4  534   1.201   1.124   0.305 -0.3103  3.1075 -0.2739
    4DMF     H5  535   1.108   1.206   0.181  1.8020  2.2141 -0.6548
    4DMF     H6  536   1.280   1.147   0.157  0.1743 -0.0327  0.0778
    4DMF     H7  537   1.322   0.947   0.044 -0.4078 -1.4703 -3.2616
    5DMF     C1  538   2.727   0.066   0.899  1.0356  0.5087  0.0990
    5DMF     N1  539   2.663   0.190   0.941  0.0399 -0.0719 -0.1522
    5DMF     C2  540   2.734   0.267   1.051  0.0417 -0.3544 -0.4631
    5DMF     C3  541   2.534   0.227   0.892 -0.5094 -0.4912 -0.1301
    5DMF     O1  542   2.476   0.166   0.807  0.5470  0.2449 -0.5398
    5DMF     H1  543   2.652  -0.014   0.906  0.8348  0.9160  3.2075
    5DMF     H2  544   2.806   0.034   0.968 -0.9783 -2.1081  1.3086
    5DMF     H3  545   2.761   0.078   0.795 -0.8785  0.9317 -0.4990
    5DMF     H4  546   2.656   0.319   1.108 -2.3914 -1.7243 -2.4166
    5DMF     H5  547   2.808   0.340   1.017 -0.3727  1.1057  1.7156
    5DMF     H6  548   2.789   0.206   1.123  2.1256  1.2544 -0.6539
    5DMF     H7  549   2.489   0.311   0.948 -1.1414 -0.9391  0.0397
    6DMF     C1  550   1.867   0.487   2.937 -0.1827 -0.0382  0.3186
    6DMF     N1  551   1.801   0.530   2.813  0.0591 -0.4253  0.1324
    6DMF     C2  552   1.887   0.616   2.725  0.5306 -0.4924 -0.5465
    6DMF     C3  553   1.667   0.517   2.788 -0.2934 -0.2506 -0.2979
    6DMF     O1  554   1.577   0.479   2.866 -0.3832 -0.2303 -0.2496
    6DMF     H1  555   1.971   0.520   2.942  0.3445 -1.4684 -0.5710
    6DMF     H2  556   1.868   0.377   2.939  0.3414 -0.0247  3.2981
    6DMF     H3  557   1.808   0.529   3.019  0.9695 -0.5934  1.4548
    6DMF     H4  558   1.966   0.557   2.678  0.4031 -1.0070 -0.1109
    6DMF     H5  559   1.939   0.686   2.791 -0.0825 -0.2756 -0.2895
    6DMF     H6  560   1.831   0.679   2.654 -1.2958 -0.1291  1.1907
    6DMF     H7  561   1.642   0.548   2.685 -0.8642  0.9403  0.1931
    7DMF     C1  562   0.292   0.374   3.499 -0.1982 -0.3602  0.1773
    7DMF     N1  563   0.361   0.380   3.629 -0.2561  0.4565  0.3090
    7DMF     C2  564   0.361   0.506   3.705 -0.2894 -0.1359 -0.6038
    7DMF     C3  565   0.453   0.283   3.664 -0.2267  0.2481 -0.2193
    7DMF     O1  566   0.495   0.199   3.583  0.7867  0.1827 -0.2611
    7DMF     H1  567   0.364   0.386   3.417 -1.9793  2.3934 -1.0586
    7DMF     H2  568   0.212   0.449   3.499  1.5239  1.6128 -3.8687
    7DMF     H3  569   0.245   0.275   3.489 -1.2004 -0.2125  3.0152
    7DMF     H4  570   0.416   0.581   3.648  0.2246  0.6812  0.9548
    7DMF     H5  571   0.408   0.492   3.803 -0.4406  0.2155 -0.4797
    7DMF     H6  572   0.263   0.554   3.716 -0.0862 -0.0414  0.8112
    7DMF     H7  573   0.481   0.302   3.770 -0.0593  0.6506 -0.3344
    8DMF     C1  574   2.815   2.752   3.626  0.4624  0.2346 -0.2808
    8DMF     N1  575   2.776   2.881   3.566 -0.2317 -0.1991 -0.1669
    8DMF     C2  576   2.888   2.971   3.545  0.4617 -0.0005 -0.1220
    8DMF     C3  577   2.649   2.912   3.539  0.4018 -0.7028 -0.0070
    8DMF     O1  578   2.561   2.836   3.567  0.2327  0.1921 -0.6193
    8DMF     H1  579   2.734   2.694   3.670  1.0497 -1.3804 -1.2935
    8DMF     H2  580   2.897   2.757   3.700  0.0268 -1.4027  0.3212
    8DMF     H3  581   2.854   2.699   3.539  0.1778  1.3472 -1.0935
    8DMF     H4  582   2.862   3.038   3.461 -2.7137  0.8173  1.4379
    8DMF     H5  583   2.977   2.910   3.531  0.3278 -0.5765  1.4791
    8DMF     H6  584   2.912   3.024   3.638  0.9807 -0.7274  0.1577
    8DMF     H7  585   2.628   3.013   3.497  0.8184 -1.5626 -2.3875
    9DMF     C1  586   2.578   0.416   3.038 -0.4002 -0.0392 -0.4944
    9DMF     N1  587   2.539   0.513   3.137 -0.4186  0.5534  0.0513
    9DMF     C2  588   2.616   0.640   3.157 -0.4547  0.5137 -0.3822
    9DMF     C3  589   2.457   0.478   3.244 -0.2057 -0.2966 -0.1851
    9DMF     O1  590   2.400   0.369   3.248  0.3690 -0.4607 -0.0001
    9DMF     H1  591   2.577   0.318   3.087  1.0604  1.2991  2.3347
    9DMF     H2  592   2.680   0.445   3.009 -1.9078  1.7782 -4.4311
    9DMF     H3  593   2.512   0.417   2.951 -0.6947 -0.9145 -0.2800
    9DMF     H4  594   2.706   0.611   3.213 -0.4503 -0.0524 -0.6723
    9DMF     H5  595   2.564   0.715   3.218 -0.1678  2.8993 -2.9908
    9DMF     H6  596   2.624   0.690   3.060 -0.1832 -1.0555 -1.1841
    9DMF     H7  597   2.444   0.560   3.317 -0.4744  0.3087 -0.8974
   10DMF     C1  598   0.235   3.262   1.131  0.4808 -0.6186  0.2660
   10DMF     N1  599   0.337   3.355   1.080  0.4398 -0.2341 -0.0401
   10DMF     C2  600   0.296   3.473   0.999  0.2020 -0.1374 -0.0901
   10DMF     C3  601   0.476   3.333   1.100  0.4797  0.7295 -0.6464
   10DMF     O1  602   0.511   3.237   1.169  0.1153  0.1401  0.4756
   10DMF     H1  603   0.280   3.170   1.169 -2.1514 -1.4653  1.4569
   10DMF     H2  604   0.169   3.234   1.048 -2.6568 -1.9669  3.0604
   10DMF     H3  605   0.171   3.306   1.210 -1.7997 -1.8009 -0.8580
   10DMF     H4  606   0.232   3.543   1.054  1.0669  0.6739 -0.1065
   10DMF     H5  607   0.237   3.430   0.917  0.4395 -1.9224  0.6525
   10DMF     H6  608   0.385   3.522   0.956  0.1916 -0.1139 -0.0843
   10DMF     H7  609   0.544   3.400   1.044  0.9721  1.0001  0.2618
   11DMF     C1  610   0.655   1.843   3.222 -0.9879  0.0198 -0.2375
   11DMF     N1  611   0.633   1.821   3.075  0.2676 -0.2526 -0.3719
   11DMF     C2  612   0.535   1.901   3.009 -0.5512 -0.2286 -0.1478
   11DMF     C3  613   0.729   1.750   3.004  0.4993 -0.1304 -0.0748
   11DMF     O1  614   0.822   1.699   3.057 -0.7368 -0.1466  0.9661
   11DMF     H1  615   0.725   1.768   3.260 -0.0135  0.8780 -0.2939
   11DMF     H2  616   0.558   1.835   3.273 -1.4249  0.5672 -0.9801
   11DMF     H3  617   0.705   1.939   3.243 -1.1779  0.3462 -1.2453
   11DMF     H4  618   0.458   1.833   2.970 -2.3975  0.9094  1.4429
   11DMF     H5  619   0.580   1.962   2.930  0.2574  0.4588  0.8224
   11DMF     H6  620   0.482   1.959   3.085  0.0832 -0.7066  0.6769
   11DMF     H7  621   0.706   1.759   2.896 -0.6532  1.5412  0.2991
   12DMF     C1  622   0.552   2.904   1.538  0.4029 -0.2397 -0.0065
   12DMF     N1  623   0.458   3.001   1.470 -0.3257 -0.4402  0.7168
   12DMF     C2  624   0.440   3.140   1.519  0.3098  0.0461  0.2010
   12DMF     C3  625   0.404   2.972   1.346 -0.7250  0.9091 -0.0579
   12DMF     O1  626   0.426   2.869   1.282 -0.3010 -0.7571 -0.0982
   12DMF     H1  627   0.585   2.836   1.458  0.3668  1.0963 -1.1878
   12DMF     H2  628   0.510   2.854   1.625 -0.1761 -0.1280 -0.2200
   12DMF     H3  629   0.634   2.957   1.588 -0.4942  0.2971  0.8913
   12DMF     H4  630   0.540   3.183   1.537  0.7585 -0.5893 -0.7250
   12DMF     H5  631   0.385   3.141   1.614  0.7341  0.2839  0.4467
   12DMF     H6  632   0.403   3.209   1.442  2.1729  2.0071  1.0018
   12DMF     H7  633   0.336   3.043   1.297  0.1604  0.7394 -1.5849
   13DMF     C1  634   0.925   2.561   3.061  0.1330  0.6974  0.3189
   13DMF     N1  635   0.923   2.469   2.945  0.0111 -0.2326 -0.7566
   13DMF     C2  636   0.824   2.499   2.841  0.0169  0.1260  0.2634
   13DMF     C3  637   1.004   2.358   2.937 -0.1820 -0.8914  0.3934
   13DMF     O1  638   1.068   2.307   3.027 -0.0115  0.1385 -0.4330
   13DMF     H1  639   0.871   2.515   3.144 -1.0017  0.3191 -0.6056
   13DMF     H2  640   0.869   2.655   3.046  0.3958  0.6871 -0.8226
   13DMF     H3  641   1.028   2.583   3.092  0.9476 -1.0049 -1.1030
   13DMF     H4  642   0.852   2.451   2.746 -2.3298 -2.5704  0.8775
   13DMF     H5  643   0.807   2.605   2.818  0.5606  0.5683  1.8611
   13DMF     H6  644   0.724   2.469   2.874  0.0894  0.8978  1.2169
   13DMF     H7  645   0.999   2.306   2.840 -0.6384 -1.2393  0.6054
   14DMF     C1  646   2.829   1.315   0.309 -0.5726 -0.0418 -0.2568
   14DMF     N1  647   2.752   1.375   0.193 -0.2117 -0.0728 -0.9882
   14DMF     C2  648   2.727   1.295   0.077 -0.1901 -0.1381 -0.7447
   14DMF     C3  649   2.698   1.505   0.199  0.1331 -0.1784 -0.3312
   14DMF     O1  650   2.709   1.575   0.300  0.0027  0.5127  0.2664
   14DMF     H1  651   2.934   1.343   0.292 -0.4904 -0.6856 -0.8132
   14DMF     H2  652   2.819   1.206   0.301 -0.0770 -0.1001 -0.1256
   14DMF     H3  653   2.784   1.344   0.405 -1.7302  0.0676 -0.8232
   14DMF     H4  654   2.665   1.208   0.102  1.3675 -0.9210  0.4729
   14DMF     H5  655   2.821   1.253   0.039  0.5547  0.0843  0.8124
   14DMF     H6  656   2.671   1.359   0.008  0.9144  0.2331 -1.3070
   14DMF     H7  657   2.651   1.543   0.106 -1.2957  1.8881  1.1648
   15DMF     C1  658   3.221   2.872   0.599 -0.1544 -0.0437  1.0740
   15DMF     N1  659   3.236   2.721   0.624 -0.4091  0.4509 -0.4142
   15DMF     C2  660   3.169   2.668   0.739 -0.7523 -0.3741 -0.2653
   15DMF     C3  661   3.274   2.637   0.517 -0.4541  0.1975  0.3458
   15DMF     O1  662   3.313   2.689   0.409  0.2466 -0.2571  0.4819
   15DMF     H1  663   3.116   2.902   0.604  0.1421  1.1187  0.3045
   15DMF     H2  664   3.250   2.898   0.497 -0.8607 -0.0177  0.8752
   15DMF     H3  665   3.279   2.935   0.667  1.1178 -2.6101  2.4352
   15DMF     H4  666   3.224   2.579   0.771 -2.7328 -0.7489  2.2394
   15DMF     H5  667   3.063   2.650   0.719 -0.4823 -2.0011 -0.2408
   15DMF     H6  668   3.168   2.752   0.810 -0.4553  0.4231 -1.1936
   15DMF     H7  669   3.272   2.530   0.541 -0.9610 -0.1131 -1.0489
   16DMF     C1  670   1.250   1.842   2.298  0.1168 -0.0149 -0.1817
   16DMF     N1  671   1.388   1.802   2.267  0.2394  0.7453 -0.5424
   16DMF     C2  672   1.420   1.658   2.269 -0.1369  0.1779 -0.0156
   16DMF     C3  673   1.488   1.897   2.232 -0.2802  0.8415 -0.4250
   16DMF     O1  674   1.477   2.019   2.243 -0.2648 -0.1651  0.3679
   16DMF     H1  675   1.251   1.899   2.391  2.0325 -3.1200  1.7744
   16DMF     H2  676   1.176   1.761   2.296  1.1597 -1.0277  1.2850
   16DMF     H3  677   1.212   1.910   2.220  1.8919 -0.5133 -1.5188
   16DMF     H4  678   1.367   1.591   2.200 -0.0271 -0.0832  0.1519
   16DMF     H5  679   1.410   1.605   2.365  1.0265 -1.7731 -0.9467
   16DMF     H6  680   1.519   1.643   2.226  1.0432  1.2341  2.2343
   16DMF     H7  681   1.582   1.846   2.203 -1.0018 -0.4832 -0.4798
   17DMF     C1  682   0.278   2.634   3.774  0.8714  0.1237 -0.0595
   17DMF     N1  683   0.273   2.649   3.626 -0.0488  0.6528  0.2189
   17DMF     C2  684   0.156   2.718   3.574 -0.2183 -0.2616  0.0585
   17DMF     C3  685   0.360   2.575   3.542 -0.0723  0.1344  1.0863
   17DMF     O1  686   0.460   2.515   3.578  0.0269  0.3838 -0.8970
   17DMF     H1  687   0.248   2.734   3.807 -0.6644 -0.0371 -0.9296
   17DMF     H2  688   0.380   2.627   3.813  0.7377 -0.0521  0.2533
   17DMF     H3  689   0.210   2.555   3.808  1.0372  0.3517  0.8167
   17DMF     H4  690   0.092   2.640   3.530  0.3545 -0.1540 -0.9676
   17DMF     H5  691   0.189   2.803   3.514 -1.8157  1.3959  1.4883
   17DMF     H6  692   0.101   2.766   3.656 -1.7342 -0.7242 -0.6761
   17DMF     H7  693   0.326   2.570   3.436 -0.6404 -2.7087  1.3608
   18DMF     C1  694   0.804   3.288   0.780  0.8316  0.3979  0.4560
   18DMF     N1  695   0.860   3.385   0.677  0.5274  0.5683  0.0292
   18DMF     C2  696   0.776   3.430   0.567  0.4985 -0.0509 -0.1983
   18DMF     C3  697   0.986   3.440   0.693 -0.9076 -0.2187  0.1310
   18DMF     O1  698   1.055   3.407   0.783 -0.1830  0.3766  0.2002
   18DMF     H1  699   0.740   3.326   0.860 -0.1473 -0.6855  0.1987
   18DMF     H2  700   0.889   3.238   0.828  0.8686  1.6486  1.7337
   18DMF     H3  701   0.746   3.211   0.728 -2.3725  1.7368  1.9509
   18DMF     H4  702   0.795   3.356   0.488  2.7236 -1.2157  1.3825
   18DMF     H5  703   0.811   3.528   0.533  0.8810 -1.3324 -3.6772
   18DMF     H6  704   0.671   3.439   0.598  0.2874  0.6982 -1.0848
   18DMF     H7  705   1.013   3.506   0.609 -0.1187 -2.0232 -1.0508
   19DMF     C1  706   0.743   0.444   0.642 -0.5397  0.3693  0.9050
   19DMF     N1  707   0.770   0.322   0.717 -0.5232 -0.7968 -0.6520
   19DMF     C2  708   0.897   0.308   0.787  0.3605  0.2649  0.7194
   19DMF     C3  709   0.659   0.241   0.757  0.1812  0.0109 -0.0119
   19DMF     O1  710   0.547   0.234   0.707  0.3492 -0.2015 -0.2247
   19DMF     H1  711   0.800   0.533   0.671  2.7752 -1.0829 -0.8966
   19DMF     H2  712   0.634   0.456   0.651 -0.5412  0.3160  0.9583
   19DMF     H3  713   0.765   0.424   0.536  0.1566 -1.9654  1.4576
   19DMF     H4  714   0.941   0.404   0.816 -1.7990  1.2161  0.9085
   19DMF     H5  715   0.960   0.247   0.720 -0.2473  1.5260 -1.0303
   19DMF     H6  716   0.884   0.261   0.885  3.4839  2.2058  2.1418
   19DMF     H7  717   0.694   0.179   0.842 -1.0012 -1.8344 -0.8354
   20DMF     C1  718   0.124   1.115   0.086 -0.1662 -0.0110  0.3564
   20DMF     N1  719   0.072   1.240   0.142 -0.4384  0.1626 -0.5333
   20DMF     C2  720   0.115   1.367   0.077  0.3453 -0.0047 -0.2137
   20DMF     C3  721  -0.010   1.253   0.253  0.4352  0.1806 -0.5861
   20DMF     O1  722  -0.046   1.157   0.322  0.1653  0.1667 -0.0674
   20DMF     H1  723   0.080   1.108  -0.014 -1.8347  0.1941  1.0526
   20DMF     H2  724   0.084   1.029   0.142  3.1638 -0.3572  2.3433
   20DMF     H3  725   0.233   1.110   0.101  0.7437  1.0944 -4.9845
   20DMF     H4  726   0.158   1.352  -0.023  1.9461 -1.4355  0.6552
   20DMF     H5  727   0.196   1.413   0.135 -0.7119 -0.1305  1.3966
   20DMF     H6  728   0.038   1.441   0.054  0.3227 -0.0813 -0.3870
   20DMF     H7  729  -0.030   1.359   0.278 -0.3297 -0.4484  1.5045
   21DMF     C1  730   1.888   2.991   2.483 -0.5824  0.1293 -0.5281
   21DMF     N1  731   1.862   2.917   2.356  0.0922 -0.5320  0.3602
   21DMF     C2  732   1.767   2.978   2.260 -1.4048 -0.2725  0.2023
   21DMF     C3  733   1.901   2.782   2.336  0.5244  0.2286 -0.4742
   21DMF     O1  734   1.956   2.719   2.429 -0.0189 -0.2872 -0.1213
   21DMF     H1  735   1.977   3.055   2.480  0.9472 -1.9873 -2.1378
   21DMF     H2  736   1.902   2.912   2.557  0.9753  0.0691 -0.8585
   21DMF     H3  737   1.809   3.057   2.521 -0.2300  0.1226  0.2280
   21DMF     H4  738   1.668   2.932   2.250 -1.5318 -0.2092  1.0745
   21DMF     H5  739   1.816   2.978   2.162 -0.1096  0.8501  0.8226
   21DMF     H6  740   1.755   3.084   2.288 -2.8708 -0.5859  0.8017
   21DMF     H7  741   1.872   2.731   2.243 -0.4884  0.5628 -0.3441
   22DMF     C1  742   0.398   2.647   0.492  0.1894  0.1992  0.1505
   22DMF     N1  743   0.282   2.736   0.499 -0.1847 -0.0603  0.1434
   22DMF     C2  744   0.257   2.822   0.609 -0.9310  0.1072 -0.2622
   22DMF     C3  745   0.209   2.758   0.381 -0.2513 -0.2450 -0.6981
   22DMF     O1  746   0.241   2.710   0.274  0.6361 -0.3271  0.4912
   22DMF     H1  747   0.488   2.709   0.484  1.8310 -1.8153  2.0806
   22DMF     H2  748   0.390   2.570   0.413 -1.9922 -2.1704  2.5556
   22DMF     H3  749   0.415   2.593   0.586  1.5213  1.1713  0.4774
   22DMF     H4  750   0.343   2.891   0.602 -0.5691 -0.3601 -0.4707
   22DMF     H5  751   0.261   2.765   0.702  2.2863  0.3588 -0.1671
   22DMF     H6  752   0.163   2.878   0.611 -1.0603 -0.0593 -1.3078
   22DMF     H7  753   0.125   2.829   0.390  0.5811  0.9672 -2.2045
   23DMF     C1  754   0.732   2.704   3.577 -0.3812 -0.3294  0.2561
   23DMF     N1  755   0.851   2.792   3.551 -0.1362 -0.3386 -0.4038
   23DMF     C2  756   0.933   2.757   3.437 -0.6863  0.3960  0.2367
   23DMF     C3  757   0.874   2.906   3.630 -0.4707  0.7589  0.7410
   23DMF     O1  758   0.811   2.933   3.733  0.5878  0.1092 -0.2137
   23DMF     H1  759   0.691   2.727   3.676 -2.3476 -1.8531 -0.1536
   23DMF     H2  760   0.761   2.598   3.582  1.2379  0.1558  1.7902
   23DMF     H3  761   0.662   2.726   3.495  2.2045  0.7009 -1.7402
   23DMF     H4  762   0.947   2.650   3.418 -0.5737  0.6014 -0.9043
   23DMF     H5  763   1.033   2.801   3.444 -1.1853  1.6663 -0.4882
   23DMF     H6  764   0.886   2.802   3.349 -0.5585 -0.9996 -0.5588
   23DMF     H7  765   0.959   2.971   3.600  0.2000 -0.4440  0.0167
   24DMF     C1  766   2.249   0.725   0.904 -0.4513 -0.0542 -0.0159
   24DMF     N1  767   2.161   0.774   0.794  0.1553 -0.4652  0.0590
   24DMF     C2  768   2.184   0.896   0.725  0.1846  0.3036  0.5927
   24DMF     C3  769   2.065   0.682   0.751  0.1579 -0.7809  0.4925
   24DMF     O1  770   2.071   0.569   0.792  0.5120  0.4866  0.2194
   24DMF     H1  771   2.312   0.647   0.860 -2.6443 -0.6779 -2.1780
   24DMF     H2  772   2.189   0.682   0.985  1.9724 -0.5977  1.5584
   24DMF     H3  773   2.312   0.806   0.943  0.0201 -0.5558  0.2798
   24DMF     H4  774   2.121   0.979   0.760  0.2202  0.8935 -0.7052
   24DMF     H5  775   2.159   0.883   0.619 -0.8230  0.9097  0.7559
   24DMF     H6  776   2.288   0.932   0.733 -0.0344  1.1421 -0.2227
   24DMF     H7  777   1.983   0.712   0.683 -1.5875 -0.4054  2.7090
   25DMF     C1  778   0.859   1.211   2.909  0.0048  0.7869 -0.6626
   25DMF     N1  779   0.919   1.310   2.997 -0.5185 -0.7511  0.3247
   25DMF     C2  780   0.951   1.270   3.137 -0.4852  0.2756  0.2955
   25DMF     C3  781   0.951   1.440   2.950 -0.5334 -0.4638 -0.2889
   25DMF     O1  782   0.935   1.469   2.831 -0.2419  0.0731  0.2609
   25DMF     H1  783   0.919   1.138   2.853 -0.1091  0.7887 -0.7895
   25DMF     H2  784   0.801   1.270   2.835 -0.5719 -1.5326 -2.1033
   25DMF     H3  785   0.776   1.156   2.955  0.9948 -0.3231 -0.1755
   25DMF     H4  786   0.924   1.360   3.194 -0.8923  0.6449 -0.4738
   25DMF     H5  787   1.052   1.228   3.146  0.1018  1.1655 -1.9808
   25DMF     H6  788   0.869   1.207   3.174 -1.0197  1.1125  0.5529
   25DMF     H7  789   0.989   1.515   3.022  1.0401 -0.4704 -1.0952
   26DMF     C1  790   1.906   2.424   2.267  0.3604  0.2661 -0.0200
   26DMF     N1  791   1.909   2.272   2.288 -0.7428 -0.7437  0.2534
   26DMF     C2  792   1.793   2.193   2.230  0.4941 -0.0298  0.6345
   26DMF     C3  793   2.023   2.209   2.344 -0.2866  0.4941  0.1756
   26DMF     O1  794   2.128   2.273   2.375  0.1694 -0.0945 -0.4354
   26DMF     H1  795   2.008   2.465   2.257  0.6066 -0.1093  0.9021
   26DMF     H2  796   1.858   2.468   2.355 -0.4176  1.4347 -1.0158
   26DMF     H3  797   1.856   2.456   2.174 -0.8648  2.8198  1.4502
   26DMF     H4  798   1.833   2.114   2.165  1.8688  0.3792  0.9699
   26DMF     H5  799   1.727   2.254   2.167 -0.0675 -0.7927  0.4658
   26DMF     H6  800   1.735   2.147   2.312 -0.6696 -1.2143 -0.8274
   26DMF     H7  801   2.010   2.099   2.347  0.7284  0.4132  1.8841
   27DMF     C1  802   0.557   2.309   0.953 -0.6958  0.0442 -0.2982
   27DMF     N1  803   0.630   2.254   0.838  0.1577  0.2302  0.0102
   27DMF     C2  804   0.686   2.120   0.857 -0.0033 -0.1800  0.5757
   27DMF     C3  805   0.668   2.333   0.727 -0.8960  0.0198 -0.1681
   27DMF     O1  806   0.637   2.453   0.715  0.4901  0.3034  1.1409
   27DMF     H1  807   0.459   2.261   0.950 -1.2266  1.2038 -2.2334
   27DMF     H2  808   0.551   2.418   0.939 -2.2449  0.1854  1.2891
   27DMF     H3  809   0.595   2.292   1.055  0.2664  0.3445 -0.5953
   27DMF     H4  810   0.602   2.051   0.843 -0.3686  0.0247  1.7184
   27DMF     H5  811   0.730   2.113   0.957  0.5287 -2.7151  0.2062
   27DMF     H6  812   0.766   2.094   0.787 -0.0640 -1.1184  0.8480
   27DMF     H7  813   0.718   2.273   0.649 -0.9842  0.6160 -0.6851
   28DMF     C1  814   1.716   0.231   3.785 -0.1970 -0.2253  0.0574
   28DMF     N1  815   1.620   0.140   3.705  0.3662 -0.5324 -0.0195
   28DMF     C2  816   1.562   0.193   3.581 -0.1173 -0.0618 -0.6191
   28DMF     C3  817   1.600   0.008   3.747  0.3515  0.0638  0.4705
   28DMF     O1  818   1.653  -0.031   3.851  0.0701  0.8192 -0.0349
   28DMF     H1  819   1.686   0.334   3.761 -1.5203 -0.7745 -0.7168
   28DMF     H2  820   1.819   0.227   3.750 -0.0633  2.2760  0.0726
   28DMF     H3  821   1.696   0.209   3.891  0.5357 -0.4868  0.1432
   28DMF     H4  822   1.475   0.255   3.604 -1.0495 -1.6434  0.1971
   28DMF     H5  823   1.525   0.112   3.516 -1.6653  0.5832 -0.5573
   28DMF     H6  824   1.639   0.249   3.527 -0.0623 -0.7650 -1.2791
   28DMF     H7  825   1.532  -0.045   3.678 -0.7634  1.4520  0.4816
   29DMF     C1  826   3.305   1.262   2.825 -0.4689  0.5189 -0.2925
   29DMF     N1  827   3.182   1.242   2.752  0.7727 -0.2091  0.0069
   29DMF     C2  828   3.178   1.274   2.603  0.1548  0.0621  0.0836
   29DMF     C3  829   3.058   1.230   2.823  0.7519  0.4948 -0.7464
   29DMF     O1  830   3.056   1.205   2.942  0.1230 -0.0098  0.3482
   29DMF     H1  831   3.344   1.364   2.816  0.1674  0.3001 -0.0550
   29DMF     H2  832   3.383   1.199   2.782  0.5707  0.3717  1.7379
   29DMF     H3  833   3.296   1.224   2.928  1.8826 -1.2573 -0.6951
   29DMF     H4  834   3.247   1.356   2.580  0.4632 -0.6519 -1.6645
   29DMF     H5  835   3.080   1.296   2.558 -0.5268  1.2414  2.0956
   29DMF     H6  836   3.226   1.190   2.552  0.2263 -1.2913  2.3661
   29DMF     H7  837   2.959   1.234   2.774  0.2035  0.7093  0.3586
   30DMF     C1  838   2.722   0.031   2.634 -0.2218  0.3662  0.4444
   30DMF     N1  839   2.790   0.114   2.731  0.2037  0.4113 -0.3089
   30DMF     C2  840   2.930   0.078   2.785 -0.1464  0.0266  0.0852
   30DMF     C3  841   2.733   0.250   2.755  0.0497  0.2602  0.3095
   30DMF     O1  842   2.626   0.294   2.725  0.4326  0.3008  0.1894
   30DMF     H1  843   2.787   0.040   2.545 -3.4425  0.5719 -1.9728
   30DMF     H2  844   2.627   0.075   2.601  0.1697  2.7752  2.4026
   30DMF     H3  845   2.699  -0.071   2.668  0.7687  0.0622  0.2430
   30DMF     H4  846   2.922  -0.018   2.838  1.6680  0.1677  0.6641
   30DMF     H5  847   2.977   0.157   2.846  1.3645 -0.6126 -0.2549
   30DMF     H6  848   3.001   0.066   2.703 -0.9653 -1.6192 -0.3955
   30DMF     H7  849   2.799   0.306   2.824  0.4738  0.5648 -0.3389
   31DMF     C1  850   0.722   1.568   2.236 -0.1115  0.1393 -0.1754
   31DMF     N1  851   0.606   1.499   2.297  0.7094  0.7675  0.0296
   31DMF     C2  852   0.615   1.354   2.323 -0.1394  0.3786 -0.8728
   31DMF     C3  853   0.481   1.568   2.309  0.6602 -0.3898 -0.3609
   31DMF     O1  854   0.468   1.684   2.272  0.2929  0.1026  0.6642
   31DMF     H1  855   0.790   1.498   2.187 -0.0371  1.1245 -1.5105
   31DMF     H2  856   0.781   1.626   2.308  2.5992 -0.1036 -2.1684
   31DMF     H3  857   0.678   1.638   2.163 -2.3353  0.7678  1.6804
   31DMF     H4  858   0.597   1.296   2.232 -0.2044 -0.2937 -0.4346
   31DMF     H5  859   0.539   1.323   2.396  0.8612 -0.3531 -0.1187
   31DMF     H6  860   0.716   1.322   2.353  1.1193  3.2004 -1.9274
   31DMF     H7  861   0.395   1.510   2.344 -0.6205  0.5102 -1.9759
   32DMF     C1  862   2.023   2.465   3.359 -0.3284  0.0265 -0.3813
   32DMF     N1  863   2.158   2.456   3.419 -0.1235  0.2861  0.0566
   32DMF     C2  864   2.269   2.538   3.360  0.2750 -1.1770 -0.0432
   32DMF     C3  865   2.188   2.362   3.512 -0.2511  1.1588  1.0327
   32DMF     O1  866   2.092   2.299   3.561 -0.4443  0.1880 -0.6348
   32DMF     H1  867   2.020   2.532   3.272  3.1831  0.0723 -0.5590
   32DMF     H2  868   1.953   2.503   3.434 -0.2766  1.0070 -0.8262
   32DMF     H3  869   2.001   2.361   3.329  0.2491 -0.7127  1.6744
   32DMF     H4  870   2.316   2.489   3.274  2.2324  1.8308 -0.7983
   32DMF     H5  871   2.348   2.558   3.434  0.1071 -1.1860  0.1387
   32DMF     H6  872   2.233   2.636   3.326  0.4564 -1.3439 -0.7172
   32DMF     H7  873   2.291   2.356   3.552  0.0627  1.4867  0.2641
   33DMF     C1  874   0.726   0.127   2.243 -0.5857 -0.0086  0.4030
   33DMF     N1  875   0.739   0.273   2.254  0.2548 -0.3974  0.1714
   33DMF     C2  876   0.615   0.355   2.259  0.7004 -0.9355  0.0994
   33DMF     C3  877   0.859   0.344   2.233 -0.4205  0.2013 -0.4133
   33DMF     O1  878   0.960   0.295   2.190  0.0368 -0.2920  0.2411
   33DMF     H1  879   0.638   0.106   2.181 -0.0851 -0.4681 -0.1610
   33DMF     H2  880   0.711   0.081   2.342  0.3566  0.4571  0.7661
   33DMF     H3  881   0.815   0.084   2.196 -0.5489  2.4144 -1.8482
   33DMF     H4  882   0.605   0.424   2.174  1.9219 -0.2154  0.5205
   33DMF     H5  883   0.607   0.415   2.351  0.9479  0.1110 -0.5506
   33DMF     H6  884   0.526   0.293   2.244 -1.2529  1.3180  1.9637
   33DMF     H7  885   0.849   0.453   2.249  1.2686  0.3360 -0.2860
   34DMF     C1  886   0.382   0.751   0.897  0.5468 -0.1723  0.6498
   34DMF     N1  887   0.404   0.687   0.763 -0.7588 -0.3303  0.1471
   34DMF     C2  888   0.289   0.612   0.710 -0.0063  0.4434 -0.6062
   34DMF     C3  889   0.520   0.701   0.685 -0.4192 -0.0960  0.1697
   34DMF     O1  890   0.621   0.747   0.723  0.0880  0.1976  0.0145
   34DMF     H1  891   0.282   0.793   0.911  0.6715  0.7955 -1.2252
   34DMF     H2  892   0.454   0.832   0.911  0.9642 -0.5506  0.7381
   34DMF     H3  893   0.397   0.671   0.971 -0.5303  0.2133  1.2865
   34DMF     H4  894   0.304   0.504   0.704 -1.1657  0.1368  1.6458
   34DMF     H5  895   0.268   0.647   0.608 -0.0028  2.0129 -0.0892
   34DMF     H6  896   0.204   0.618   0.779  0.2983  2.1653 -0.3571
   34DMF     H7  897   0.512   0.668   0.580  0.9339  0.0612  0.0130
   35DMF     C1  898   1.394   3.068   2.241 -0.4204 -0.1466 -0.7529
   35DMF     N1  899   1.453   3.149   2.351  0.2867 -0.2307  0.2460
   35DMF     C2  900   1.467   3.088   2.490 -0.0493 -1.0233 -0.2671
   35DMF     C3  901   1.518   3.269   2.328 -0.2715  0.5907  0.8117
   35DMF     O1  902   1.524   3.326   2.215 -0.1773  0.4148 -0.3188
   35DMF     H1  903   1.472   3.044   2.168  2.4135  3.2978  1.0211
   35DMF     H2  904   1.315   3.126   2.191 -2.7653 -0.4992  2.3573
   35DMF     H3  905   1.366   2.972   2.286 -1.5316 -0.1525 -1.4256
   35DMF     H4  906   1.574   3.070   2.508  0.0274 -0.0978  0.2000
   35DMF     H5  907   1.422   2.988   2.500  0.7289 -1.4073 -0.5768
   35DMF     H6  908   1.431   3.163   2.561 -1.3289 -1.2751 -0.6324
   35DMF     H7  909   1.556   3.307   2.424 -0.8036  2.1718  0.4079
   36DMF     C1  910   0.059   1.935   0.284  0.1741 -0.4458  0.6151
   36DMF     N1  911  -0.034   1.821   0.312  0.0425 -0.6550 -0.1643
   36DMF     C2  912  -0.175   1.848   0.346  0.3800 -0.3994 -0.2372
   36DMF     C3  913   0.018   1.695   0.333 -0.1137 -0.6210  0.1062
   36DMF     O1  914   0.134   1.661   0.325 -0.2239 -0.2847 -0.0960
   36DMF     H1  915   0.101   1.915   0.185 -2.2604  1.2277 -0.7944
   36DMF     H2  916   0.140   1.946   0.357 -0.5214  4.5125  0.7517
   36DMF     H3  917   0.008   2.031   0.288  2.6861  0.8766  2.5599
   36DMF     H4  918  -0.217   1.760   0.395 -2.1130  1.3218  0.7822
   36DMF     H5  919  -0.214   1.888   0.252  1.7146  1.8259  0.0904
   36DMF     H6  920  -0.169   1.938   0.410 -1.0872 -0.7802  0.4378
   36DMF     H7  921  -0.060   1.623   0.365 -2.0472  1.0222 -0.8526
   37DMF     C1  922   1.924   0.241   0.857 -0.2380  0.3230  0.2077
   37DMF     N1  923   2.047   0.181   0.809  0.2394  0.1539 -1.1994
   37DMF     C2  924   2.073   0.200   0.665 -0.3762 -0.1233  0.5259
   37DMF     C3  925   2.138   0.128   0.896  0.5553  0.1353  0.2074
   37DMF     O1  926   2.121   0.119   1.016  0.0364 -0.4524 -0.1039
   37DMF     H1  927   1.905   0.194   0.954  1.1965 -0.2732  0.2046
   37DMF     H2  928   1.837   0.246   0.790 -1.2251  1.8306  1.5759
   37DMF     H3  929   1.949   0.347   0.875 -2.7394  1.0737 -0.5102
   37DMF     H4  930   2.018   0.115   0.621 -1.5105  1.0813 -0.4506
   37DMF     H5  931   2.180   0.184   0.649 -0.2715  2.0877 -1.3444
   37DMF     H6  932   2.046   0.299   0.627  2.3388 -0.4703 -2.4983
   37DMF     H7  933   2.237   0.106   0.852  0.2129 -1.5240  0.2392
   38DMF     C1  934   1.113   0.172   0.036  0.5168 -0.5588 -0.6922
   38DMF     N1  935   1.001   0.237   0.110  0.3922 -0.3074 -0.1216
   38DMF     C2  936   0.896   0.296   0.027 -0.2632  1.0087  0.4421
   38DMF     C3  937   0.994   0.234   0.249 -0.1650  0.3853 -0.4399
   38DMF     O1  938   1.067   0.176   0.329  0.0615  0.2179 -0.3891
   38DMF     H1  939   1.072   0.085  -0.018 -1.5123 -0.0504 -0.0297
   38DMF     H2  940   1.195   0.137   0.100  0.9107  0.1585 -0.8029
   38DMF     H3  941   1.160   0.243  -0.034  1.7425 -1.1772 -0.5128
   38DMF     H4  942   0.925   0.384  -0.033 -0.6140  1.9789  1.6642
   38DMF     H5  943   0.805   0.313   0.087 -0.5053  3.1192 -0.4780
   38DMF     H6  944   0.865   0.226  -0.051  1.0509  1.6105 -0.6462
   38DMF     H7  945   0.904   0.292   0.279 -1.4696 -1.2957 -1.0094
   39DMF     C1  946   2.922   3.115   1.374  0.1043 -0.3440 -0.1150
   39DMF     N1  947   2.855   3.000   1.435  0.1337 -0.7431 -0.5948
   39DMF     C2  948   2.868   2.989   1.583 -0.1015  0.0091 -0.8179
   39DMF     C3  949   2.742   2.934   1.375 -1.0208  1.1473 -0.2030
   39DMF     O1  950   2.723   2.944   1.256  0.2346 -0.1430  0.4768
   39DMF     H1  951   2.931   3.198   1.445  1.4174 -0.8419  0.3120
   39DMF     H2  952   2.861   3.143   1.286 -2.6176 -0.4983  1.6745
   39DMF     H3  953   3.020   3.079   1.340 -0.8096 -1.3367 -1.7579
   39DMF     H4  954   2.772   2.954   1.622 -0.9477 -0.2743 -3.0370
   39DMF     H5  955   2.890   3.084   1.632 -0.4903 -0.3688  0.0925
   39DMF     H6  956   2.944   2.913   1.604  0.9239  0.5962 -2.2433
   39DMF     H7  957   2.679   2.875   1.444  2.1130  0.4570  2.2134
   40DMF     C1  958   2.568   1.427   2.443 -0.0142  0.6332 -0.2929
   40DMF     N1  959   2.531   1.384   2.306 -0.6243 -0.6131 -0.6770
   40DMF     C2  960   2.625   1.290   2.244 -0.6177  0.9528 -0.7477
   40DMF     C3  961   2.401   1.396   2.265 -0.5317 -0.3073 -0.3758
   40DMF     O1  962   2.308   1.432   2.329 -0.0620  0.0597  0.0109
   40DMF     H1  963   2.529   1.526   2.468  0.0221  0.8488 -1.0644
   40DMF     H2  964   2.677   1.431   2.444  0.0266 -0.3729 -0.3177
   40DMF     H3  965   2.532   1.357   2.519 -0.0971  1.4016  0.3776
   40DMF     H4  966   2.697   1.259   2.321 -0.0482 -2.5296 -2.5441
   40DMF     H5  967   2.669   1.350   2.163 -1.0038  1.0844 -0.8638
   40DMF     H6  968   2.572   1.203   2.202 -1.3018  1.0914 -0.1835
   40DMF     H7  969   2.387   1.350   2.166 -0.0310 -1.9274  0.2721
   41DMF     C1  970   0.958   0.364   2.584  0.6328  0.1410 -0.2118
   41DMF     N1  971   0.927   0.494   2.639  0.3667 -0.5524  0.5149
   41DMF     C2  972   0.935   0.507   2.781 -0.0268 -0.3985  0.3742
   41DMF     C3  973   0.865   0.593   2.556 -0.2822  0.8038  0.0628
   41DMF     O1  974   0.868   0.573   2.436  0.2785 -0.8039  0.1382
   41DMF     H1  975   0.975   0.291   2.664 -0.8964  0.5454  0.4965
   41DMF     H2  976   1.051   0.373   2.527  0.2262  1.6929 -0.6628
   41DMF     H3  977   0.875   0.330   2.521 -2.3173  2.9127  1.9701
   41DMF     H4  978   0.976   0.417   2.827 -0.8684 -0.0829  1.7756
   41DMF     H5  979   0.832   0.516   2.818  0.7569 -0.5337  2.6506
   41DMF     H6  980   0.992   0.596   2.810  2.5643 -1.8514 -0.0901
   41DMF     H7  981   0.835   0.684   2.611  1.2469 -0.0906  2.4680
   42DMF     C1  982   0.982   0.847   2.252  0.4855 -0.2379 -0.0718
   42DMF     N1  983   0.900   0.949   2.317  0.8786 -0.2145  0.6019
   42DMF     C2  984   0.833   1.047   2.227  0.2279  0.2102 -0.2927
   42DMF     C3  985   0.889   0.958   2.459  0.6073 -0.5049 -0.0857
   42DMF     O1  986   0.956   0.889   2.538 -0.0824  0.2388 -0.2720
   42DMF     H1  987   1.086   0.882   2.249  0.0584  1.1606  1.4777
   42DMF     H2  988   0.929   0.831   2.157  1.8829  1.2404 -1.1299
   42DMF     H3  989   0.989   0.767   2.327 -1.4605 -0.4113 -0.0472
   42DMF     H4  990   0.788   1.130   2.284  1.5171 -0.0129  1.0637
   42DMF     H5  991   0.755   0.999   2.166  0.4564  0.0179 -0.4325
   42DMF     H6  992   0.903   1.088   2.153  0.0752  0.1236 -0.4863
   42DMF     H7  993   0.832   1.049   2.486 -0.5775 -1.6890  1.4638
   43DMF     C1  994   1.789   1.619   2.261 -0.4242  0.0772  0.1227
   43DMF     N1  995   1.926   1.689   2.252 -0.0966 -0.1762 -0.0014
   43DMF     C2  996   2.059   1.625   2.301  0.7975  0.4079 -0.2232
   43DMF     C3  997   1.927   1.823   2.214 -0.4963  0.2457 -0.0680
   43DMF     O1  998   1.821   1.884   2.215  0.1843 -0.4210  0.3745
   43DMF     H1  999   1.724   1.664   2.337  0.3217 -1.6391  1.8123
   43DMF     H2 1000   1.803   1.511   2.271 -1.2023 -0.0483 -0.0855
   43DMF     H3 1001   1.727   1.623   2.170 -0.2117 -1.9782 -0.1400
   43DMF     H4 1002   2.085   1.675   2.395  1.1449 -0.6680  0.2485
   43DMF     H5 1003   2.129   1.643   2.219  1.1528  1.0193  0.2085
   43DMF     H6 1004   2.045   1.517   2.311  1.4820  0.2720 -0.6979
   43DMF     H7 1005   2.026   1.867   2.190 -1.9558  3.4154 -0.5751
   44DMF     C1 1006   1.925   3.155   2.824 -0.1401  0.4180  0.2718
   44DMF     N1 1007   1.882   3.029   2.880 -0.1173  0.1720  0.2491
   44DMF     C2 1008   1.988   2.947   2.923 -0.7061  0.4437  0.0192
   44DMF     C3 1009   1.757   2.975   2.831 -0.3700  0.2453 -0.0807
   44DMF     O1 1010   1.682   3.043   2.766 -0.0978 -0.5136 -0.3621
   44DMF     H1 1011   1.953   3.141   2.719  0.8520  1.3669  0.3995
   44DMF     H2 1012   2.012   3.192   2.880  1.3990 -1.1199 -1.0197
   44DMF     H3 1013   1.849   3.233   2.828  1.0455  1.5157  2.0269
   44DMF     H4 1014   1.947   2.858   2.971  0.3544 -0.3481 -0.5325
   44DMF     H5 1015   2.053   3.002   2.993  0.1578  0.1973 -0.5870
   44DMF     H6 1016   2.047   2.926   2.833 -2.5953  1.7673 -1.5511
   44DMF     H7 1017   1.745   2.867   2.851  0.5675 -0.0655 -1.1434
   45DMF     C1 1018   1.316   0.803   3.530 -0.4573 -0.0170 -0.0540
   45DMF     N1 1019   1.441   0.719   3.515  0.1026 -0.4802 -0.0554
   45DMF     C2 1020   1.468   0.612   3.612 -0.3494  0.0488 -0.1240
   45DMF     C3 1021   1.544   0.758   3.425  0.1363 -0.0715  0.2950
   45DMF     O1 1022   1.526   0.846   3.335 -0.0939  0.7878  0.3894
   45DMF     H1 1023   1.353   0.906   3.542 -0.1878 -0.3128  1.6457
   45DMF     H2 1024   1.267   0.774   3.623  1.2942  1.0565  1.2156
   45DMF     H3 1025   1.253   0.783   3.442  2.4214 -0.9698 -1.9771
   45DMF     H4 1026   1.370   0.573   3.640 -0.3475 -0.1206 -0.3510
   45DMF     H5 1027   1.509   0.659   3.702 -1.1927  3.0589 -1.2331
   45DMF     H6 1028   1.528   0.533   3.565  0.2154 -0.2419  1.0592
   45DMF     H7 1029   1.640   0.708   3.447  0.5081  0.6258  0.2561
   46DMF     C1 1030   0.553   2.476   3.214 -0.8040  0.5225  0.7889
   46DMF     N1 1031   0.640   2.362   3.249 -0.0167 -0.1686  0.1298
   46DMF     C2 1032   0.701   2.371   3.381  0.6424  0.0441 -0.9249
   46DMF     C3 1033   0.688   2.267   3.157 -0.2934 -0.3676  0.1650
   46DMF     O1 1034   0.645   2.244   3.049  0.2597  0.6236  0.3351
   46DMF     H1 1035   0.490   2.496   3.301  0.7132  0.6383  1.8791
   46DMF     H2 1036   0.494   2.456   3.124 -0.6793  0.1883  0.7802
   46DMF     H3 1037   0.620   2.560   3.191  1.8670 -1.9749 -0.8833
   46DMF     H4 1038   0.765   2.461   3.383 -0.8012  1.0833  1.6322
   46DMF     H5 1039   0.768   2.287   3.401  2.0335  1.2663 -0.3054
   46DMF     H6 1040   0.632   2.387   3.465  2.7205  0.6179  0.7104
   46DMF     H7 1041   0.776   2.214   3.199  0.1751 -0.3516 -0.7950
   47DMF     C1 1042   1.735   2.650   3.238  0.0595  0.4338 -0.7934
   47DMF     N1 1043   1.766   2.787   3.284 -0.4204  0.2279 -0.2393
   47DMF     C2 1044   1.661   2.854   3.369 -0.4059  0.5676 -0.4434
   47DMF     C3 1045   1.887   2.853   3.269  0.8999 -0.5389  0.2249
   47DMF     O1 1046   1.991   2.811   3.214  0.6684 -0.1423 -0.1838
   47DMF     H1 1047   1.638   2.667   3.190 -0.1857  1.7699  0.1273
   47DMF     H2 1048   1.733   2.583   3.325  0.0903  1.2806 -0.1276
   47DMF     H3 1049   1.820   2.630   3.172  0.8047  1.3103 -0.1270
   47DMF     H4 1050   1.702   2.879   3.468 -1.2065 -0.8181  0.2649
   47DMF     H5 1051   1.580   2.781   3.380  0.0547  0.0691 -0.3333
   47DMF     H6 1052   1.641   2.954   3.329 -0.1260 -0.4213 -3.1958
   47DMF     H7 1053   1.881   2.955   3.310  0.2887 -0.0670 -1.0206
   48DMF     C1 1054   1.258   0.423   0.397 -0.4784 -0.1749  0.1207
   48DMF     N1 1055   1.311   0.502   0.282  0.3762  0.4629  0.0166
   48DMF     C2 1056   1.356   0.440   0.162 -0.1651  0.0937  1.0876
   48DMF     C3 1057   1.330   0.645   0.292 -0.1502 -0.3844 -1.4300
   48DMF     O1 1058   1.287   0.715   0.384  0.0320  0.0868  0.3981
   48DMF     H1 1059   1.149   0.432   0.404 -0.5210  0.2625 -0.9629
   48DMF     H2 1060   1.294   0.446   0.498  0.4095  1.6069 -0.5721
   48DMF     H3 1061   1.276   0.316   0.378  1.8276  0.4124 -1.2013
   48DMF     H4 1062   1.275   0.428   0.089 -0.9432  1.5000  1.6979
   48DMF     H5 1063   1.394   0.339   0.181  1.9341  0.6671  0.0676
   48DMF     H6 1064   1.442   0.496   0.123 -0.6063  1.2049  1.6789
   48DMF     H7 1065   1.398   0.681   0.212 -0.5550 -1.8362 -2.4594
   49DMF     C1 1066   2.887   1.559   2.302 -0.3119  0.0126  0.5659
   49DMF     N1 1067   3.002   1.644   2.283  0.0030 -0.1191 -0.3290
   49DMF     C2 1068   2.985   1.791   2.306  0.3962  0.6851 -0.6375
   49DMF     C3 1069   3.129   1.597   2.264  0.0387  0.7123  0.6520
   49DMF     O1 1070   3.154   1.482   2.248 -0.0680  0.8639  0.1165
   49DMF     H1 1071   2.803   1.600   2.360 -0.7455 -1.1421  0.7861
   49DMF     H2 1072   2.923   1.468   2.353  0.5323  0.2256  0.3553
   49DMF     H3 1073   2.848   1.529   2.204  1.3561  2.0619 -0.7389
   49DMF     H4 1074   2.981   1.844   2.210  1.4440 -3.5503 -3.1042
   49DMF     H5 1075   3.055   1.825   2.383 -0.4250  1.2775 -0.1396
   49DMF     H6 1076   2.881   1.793   2.341  0.0683 -1.3254 -1.4646
   49DMF     H7 1077   3.204   1.676   2.244 -1.3116  1.9181  0.2184
   50DMF     C1 1078   1.349   3.239   1.542 -0.0604 -0.1565  0.6227
   50DMF     N1 1079   1.269   3.278   1.428  0.0038  0.4906  0.6121
   50DMF     C2 1080   1.260   3.180   1.319 -0.7583 -0.3364 -0.1917
   50DMF     C3 1081   1.174   3.374   1.439 -0.1340 -0.5851  0.8921
   50DMF     O1 1082   1.147   3.430   1.541 -0.3469  0.2785 -0.2515
   50DMF     H1 1083   1.299   3.258   1.637  2.8243  1.5227  1.8607
   50DMF     H2 1084   1.446   3.291   1.536 -0.4755  0.5968  0.4356
   50DMF     H3 1085   1.368   3.130   1.538 -1.6476 -0.4898  1.7810
   50DMF     H4 1086   1.326   3.095   1.339  1.8457  1.6879 -0.0132
   50DMF     H5 1087   1.291   3.234   1.229 -4.5065  1.3288 -0.5836
   50DMF     H6 1088   1.162   3.132   1.304  0.0541 -1.9214 -0.5729
   50DMF     H7 1089   1.119   3.395   1.345  1.6461  1.1686  0.2027
   51DMF     C1 1090   1.246   1.436   3.345  0.3440 -0.6273 -0.4669
   51DMF     N1 1091   1.302   1.556   3.414  0.1704 -0.8090 -0.1129
   51DMF     C2 1092   1.308   1.543   3.560  0.2913  0.3196  0.3238
   51DMF     C3 1093   1.371   1.660   3.346 -0.4764  0.0834 -0.1334
   51DMF     O1 1094   1.365   1.667   3.221 -0.1975 -0.8639 -0.2471
   51DMF     H1 1095   1.303   1.346   3.372  2.1613  0.8180  0.6313
   51DMF     H2 1096   1.253   1.453   3.237  0.7668  0.6112 -0.2555
   51DMF     H3 1097   1.140   1.424   3.369  0.1155 -0.7278 -1.4948
   51DMF     H4 1098   1.294   1.640   3.610  0.6954 -0.0907  1.2305
   51DMF     H5 1099   1.401   1.497   3.593  1.4852  2.3768 -0.0549
   51DMF     H6 1100   1.226   1.479   3.594 -0.1104  0.2644 -0.7143
   51DMF     H7 1101   1.420   1.730   3.415  1.2449 -1.5001  0.2907
   52DMF     C1 1102   1.882   1.160   0.818 -0.8643  0.2338  0.6029
   52DMF     N1 1103   1.810   1.036   0.765  0.4825  0.1079 -0.6336
   52DMF     C2 1104   1.842   0.989   0.630  0.0910 -0.3643  0.3016
   52DMF     C3 1105   1.726   0.962   0.850 -0.3553  0.9137 -0.2849
   52DMF     O1 1106   1.712   0.993   0.967  0.4353 -0.0119 -0.5185
   52DMF     H1 1107   1.922   1.216   0.733 -1.4376  0.1128  0.2492
   52DMF     H2 1108   1.963   1.135   0.888 -0.6492  2.3601  1.1420
   52DMF     H3 1109   1.813   1.228   0.870 -0.6172  0.4706  0.6199
   52DMF     H4 1110   1.863   0.881   0.624 -2.3987 -0.8602 -0.3447
   52DMF     H5 1111   1.920   1.050   0.585  0.5095 -1.4454 -0.4687
   52DMF     H6 1112   1.758   1.006   0.562 -0.9351  0.0116  1.6357
   52DMF     H7 1113   1.673   0.878   0.803 -2.4412  1.2729  1.3315
   53DMF     C1 1114   0.012   0.101   0.663 -0.0063 -0.0585  0.9347
   53DMF     N1 1115  -0.047   0.168   0.534 -0.1037 -0.2090  0.1782
   53DMF     C2 1116   0.031   0.292   0.484  0.2824 -0.1745 -0.2672
   53DMF     C3 1117  -0.177   0.149   0.501  0.3292 -0.0225 -0.0255
   53DMF     O1 1118  -0.253   0.086   0.571 -0.5434 -0.7636 -0.3558
   53DMF     H1 1119  -0.051   0.128   0.749  0.8135  0.5433  1.3656
   53DMF     H2 1120   0.107   0.151   0.686 -0.0922 -0.1708  1.5534
   53DMF     H3 1121   0.023  -0.007   0.648  3.4116  0.2680  0.6406
   53DMF     H4 1122   0.126   0.258   0.441  1.4198  2.2294  0.2804
   53DMF     H5 1123   0.045   0.359   0.569  2.9495  2.2208 -2.4983
   53DMF     H6 1124  -0.024   0.340   0.402 -0.0598  0.9757  0.6335
   53DMF     H7 1125  -0.208   0.214   0.417  1.2589 -1.2060 -1.2899
   54DMF     C1 1126   2.117   1.609   1.277 -0.7454  0.1695  0.9753
   54DMF     N1 1127   2.118   1.497   1.178  0.3026 -0.3548 -0.0777
   54DMF     C2 1128   2.242   1.466   1.113  1.1331 -0.2208  0.0686
   54DMF     C3 1129   2.008   1.428   1.133  0.2627  0.4288  0.3533
   54DMF     O1 1130   1.896   1.461   1.163  0.7306  1.1277  0.2464
   54DMF     H1 1131   2.031   1.597   1.344 -1.1699 -0.3588  0.3427
   54DMF     H2 1132   2.101   1.702   1.220  0.2335  1.8311  3.3675
   54DMF     H3 1133   2.210   1.612   1.334 -0.8370 -0.5441  1.1657
   54DMF     H4 1134   2.323   1.456   1.186  1.4478  3.0905  0.2113
   54DMF     H5 1135   2.277   1.553   1.056  1.7504 -0.1431  0.5623
   54DMF     H6 1136   2.227   1.371   1.060  0.7567  0.2085 -0.5962
   54DMF     H7 1137   2.032   1.335   1.078  2.5571  0.8847  0.5655
   55DMF     C1 1138   1.905   0.864   3.272 -0.2604 -0.2269 -0.1489
   55DMF     N1 1139   2.032   0.827   3.336 -0.0128  0.0584  0.2198
   55DMF     C2 1140   2.151   0.804   3.247  0.1087  0.1210 -0.8218
   55DMF     C3 1141   2.040   0.802   3.477 -0.1478  0.5988 -0.5555
   55DMF     O1 1142   1.952   0.828   3.560  0.2801 -0.5623 -0.0285
   55DMF     H1 1143   1.858   0.768   3.250  0.7279 -1.3597  2.5032
   55DMF     H2 1144   1.921   0.913   3.175  3.3729  0.0597  0.5390
   55DMF     H3 1145   1.850   0.937   3.333 -0.6539 -0.2823 -0.4373
   55DMF     H4 1146   2.197   0.899   3.216  1.3128  0.6582  2.4328
   55DMF     H5 1147   2.106   0.745   3.166 -0.6614 -0.2002 -0.1695
   55DMF     H6 1148   2.218   0.731   3.293 -1.3044 -0.5085  0.2808
   55DMF     H7 1149   2.135   0.758   3.514 -1.1584 -1.0293  0.1524
   56DMF     C1 1150   2.778   0.622   2.645  0.2593  0.1440  0.2709
   56DMF     N1 1151   2.918   0.614   2.604 -0.2884  0.2704  0.6450
   56DMF     C2 1152   2.976   0.744   2.550 -1.0002  0.2233  0.7532
   56DMF     C3 1153   2.988   0.500   2.580 -0.0960  0.4686 -0.0643
   56DMF     O1 1154   2.934   0.392   2.608  0.5396  0.2579 -0.3933
   56DMF     H1 1155   2.727   0.535   2.601  0.9047 -0.6870  1.1429
   56DMF     H2 1156   2.731   0.703   2.588  1.4567  1.3229  0.9401
   56DMF     H3 1157   2.755   0.631   2.752 -1.6323  1.8580 -0.2460
   56DMF     H4 1158   2.948   0.757   2.445 -0.0196  0.6904  0.5361
   56DMF     H5 1159   3.086   0.750   2.559 -0.7538  0.0619 -1.9689
   56DMF     H6 1160   2.941   0.829   2.610 -1.5423 -0.0794  0.8639
   56DMF     H7 1161   3.086   0.518   2.533  0.8386  1.8836  2.3381
   57DMF     C1 1162   2.964   1.933   0.642 -0.3743 -0.3102  0.4713
   57DMF     N1 1163   2.986   2.074   0.605  0.2820 -0.7017 -0.4722
   57DMF     C2 1164   2.994   2.122   0.470 -0.5396  0.0107  0.6349
   57DMF     C3 1165   3.048   2.152   0.706  0.0649 -0.1555  0.6745
   57DMF     O1 1166   3.079   2.107   0.818  0.7386  1.0317 -0.0293
   57DMF     H1 1167   2.887   1.917   0.718 -1.1244  0.2574 -0.1614
   57DMF     H2 1168   3.062   1.899   0.678 -0.2819  0.2599  0.7634
   57DMF     H3 1169   2.934   1.871   0.557  1.0817  0.4958 -0.6630
   57DMF     H4 1170   2.949   2.064   0.389  2.0232  0.7809 -1.4135
   57DMF     H5 1171   3.097   2.150   0.446  1.0065 -4.7898  1.1846
   57DMF     H6 1172   2.945   2.219   0.457 -0.3678  0.2196  1.5278
   57DMF     H7 1173   3.071   2.254   0.672 -0.6715 -0.1818  0.0839
   58DMF     C1 1174   1.458   1.210   1.096  0.4155 -0.1925 -0.6640
   58DMF     N1 1175   1.415   1.105   1.188 -0.1883  0.3108  0.2213
   58DMF     C2 1176   1.525   1.024   1.245 -0.6572 -0.6489  0.5471
   58DMF     C3 1177   1.279   1.087   1.225  0.2911 -0.0019  0.3328
   58DMF     O1 1178   1.189   1.160   1.180 -0.2687  0.3853 -0.0769
   58DMF     H1 1179   1.544   1.267   1.132 -0.5157  0.2563  0.9153
   58DMF     H2 1180   1.373   1.269   1.058  0.8058  1.0614  0.4130
   58DMF     H3 1181   1.483   1.155   1.004  1.5344 -3.4560  1.5237
   58DMF     H4 1182   1.518   0.996   1.351  1.3974 -2.8574  0.1365
   58DMF     H5 1183   1.615   1.086   1.241 -0.1384 -1.2772  2.2202
   58DMF     H6 1184   1.548   0.935   1.186  2.5501 -0.5458  1.5622
   58DMF     H7 1185   1.266   1.019   1.311  1.1848  0.7891  1.1069
   59DMF     C1 1186   3.032   1.204   2.271  0.2561 -1.1378 -0.3420
   59DMF     N1 1187   3.064   1.068   2.241 -0.2807  0.2353  0.1944
   59DMF     C2 1188   3.209   1.017   2.249 -0.2650  0.4433 -0.3821
   59DMF     C3 1189   2.957   0.984   2.200  0.0738  0.0140 -0.7965
   59DMF     O1 1190   2.837   1.016   2.204 -0.1970  0.1647 -0.0496
   59DMF     H1 1191   3.065   1.266   2.187 -1.4725 -0.6240 -0.6727
   59DMF     H2 1192   3.068   1.227   2.371 -0.5163 -1.7644  0.0835
   59DMF     H3 1193   2.923   1.222   2.275  0.7487  1.7548  1.5533
   59DMF     H4 1194   3.276   1.100   2.224  0.9198 -0.4182 -0.1109
   59DMF     H5 1195   3.231   0.930   2.187 -0.6541 -0.7947  1.1811
   59DMF     H6 1196   3.217   1.000   2.357  1.7954  1.2427 -0.3781
   59DMF     H7 1197   2.984   0.881   2.170 -2.1785 -1.4581  1.9284
   60DMF     C1 1198   0.141   1.870   3.040  0.2392  0.0599  0.1951
   60DMF     N1 1199   0.032   1.848   3.147 -0.1795  0.2583  0.4141
   60DMF     C2 1200  -0.051   1.957   3.206  0.2633 -0.2080 -1.0140
   60DMF     C3 1201   0.018   1.714   3.186  0.2058  0.0542 -0.3312
   60DMF     O1 1202   0.081   1.619   3.131  0.5067  0.8469  0.3504
   60DMF     H1 1203   0.232   1.824   3.082  1.6632  2.4043 -0.2487
   60DMF     H2 1204   0.154   1.978   3.034  3.9401 -0.4127 -2.5374
   60DMF     H3 1205   0.102   1.837   2.943 -0.3174 -0.3594  0.5546
   60DMF     H4 1206  -0.151   1.922   3.232 -0.3288  0.7873 -1.9558
   60DMF     H5 1207  -0.068   2.033   3.129  0.2074  0.0181 -0.7801
   60DMF     H6 1208  -0.018   1.998   3.303  1.0841 -3.9957  0.4181
   60DMF     H7 1209  -0.069   1.696   3.251  0.2453  0.1279 -0.2577
   61DMF     C1 1210   3.074   2.995   3.050 -1.2101  0.0108 -0.1310
   61DMF     N1 1211   3.141   3.101   3.128 -0.8080 -0.3305 -0.1511
   61DMF     C2 1212   3.207   3.068   3.254  0.5258 -1.0377 -0.4111
   61DMF     C3 1213   3.132   3.236   3.096 -0.0217  0.1877  0.4968
   61DMF     O1 1214   3.058   3.267   2.999 -0.1128  0.3767 -0.0302
   61DMF     H1 1215   3.149   2.967   2.974  0.1384  0.4371  1.0143
   61DMF     H2 1216   2.987   3.026   2.991 -1.9720  0.1127  1.0330
   61DMF     H3 1217   3.055   2.902   3.105  0.5177 -1.4767 -1.9700
   61DMF     H4 1218   3.146   3.100   3.339 -2.8021 -2.1167 -2.2986
   61DMF     H5 1219   3.307   3.109   3.267  0.5109 -1.3996  0.9099
   61DMF     H6 1220   3.207   2.958   3.261  0.0765 -1.1350 -1.6662
   61DMF     H7 1221   3.188   3.299   3.167  0.5718  0.7257 -0.4428
   62DMF     C1 1222   3.086   3.342   0.127  0.4193  0.8755 -0.6896
   62DMF     N1 1223   3.134   3.288   0.257 -0.4485  0.1790 -0.0223
   62DMF     C2 1224   3.272   3.274   0.279 -0.1286 -0.0048 -0.5549
   62DMF     C3 1225   3.039   3.263   0.364  0.3299 -0.4459 -0.0365
   62DMF     O1 1226   2.917   3.271   0.344 -0.0095 -0.1754 -0.0339
   62DMF     H1 1227   3.062   3.251   0.071  1.0775 -0.1467  0.6663
   62DMF     H2 1228   3.165   3.395   0.073  0.4820 -0.7054 -2.1900
   62DMF     H3 1229   2.989   3.392   0.136  0.5809  1.2456 -1.0125
   62DMF     H4 1230   3.307   3.183   0.229 -1.0357 -1.0854  0.7210
   62DMF     H5 1231   3.295   3.274   0.387  0.5798  2.1853 -0.6735
   62DMF     H6 1232   3.326   3.364   0.247 -1.4915  1.7680  1.8766
   62DMF     H7 1233   3.084   3.227   0.459 -1.8537 -1.6817  0.5682
   63DMF     C1 1234   0.008   0.561   3.223 -0.0818  0.3318 -0.2729
   63DMF     N1 1235   0.142   0.621   3.201 -0.0539  0.1416 -0.5611
   63DMF     C2 1236   0.153   0.763   3.225  0.1836  0.1795 -0.6138
   63DMF     C3 1237   0.234   0.554   3.120 -0.6649  0.3611 -0.5190
   63DMF     O1 1238   0.234   0.438   3.097 -0.1027  0.5073  0.6459
   63DMF     H1 1239   0.013   0.483   3.299 -0.8278  0.1157 -0.4486
   63DMF     H2 1240  -0.033   0.534   3.125 -2.6368  0.8598  0.6242
   63DMF     H3 1241  -0.060   0.636   3.264 -3.4246 -2.0700 -1.2846
   63DMF     H4 1242   0.251   0.807   3.202  0.4066  0.7912  1.4098
   63DMF     H5 1243   0.132   0.770   3.332  0.5272  1.1892 -0.6067
   63DMF     H6 1244   0.082   0.821   3.164  0.5101  0.3148 -0.8725
   63DMF     H7 1245   0.319   0.619   3.092 -1.7350  1.5372 -1.0417
   64DMF     C1 1246   2.599   1.093   3.391  0.4120 -0.0560 -0.1961
   64DMF     N1 1247   2.739   1.119   3.417 -0.3091 -1.1817 -0.5948
   64DMF     C2 1248   2.813   1.197   3.326 -0.0198  0.1071 -0.2580
   64DMF     C3 1249   2.801   1.092   3.542 -0.0694  0.0374  0.1799
   64DMF     O1 1250   2.746   1.035   3.638 -0.3299  0.1765  0.3865
   64DMF     H1 1251   2.568   1.139   3.297 -0.3613 -1.2316 -0.5268
   64DMF     H2 1252   2.539   1.130   3.475  0.3730  1.0232 -0.6940
   64DMF     H3 1253   2.583   0.984   3.382 -1.5643  0.2901 -1.0089
   64DMF     H4 1254   2.836   1.297   3.365 -1.7972  0.9758 -1.3482
   64DMF     H5 1255   2.761   1.214   3.230 -0.3580 -3.1624 -0.7229
   64DMF     H6 1256   2.908   1.149   3.301 -0.1834 -1.7837  2.5739
   64DMF     H7 1257   2.903   1.129   3.564  0.4132 -0.4988 -1.0927
   65DMF     C1 1258   1.570   0.331   2.466 -0.3167 -0.2971 -0.5941
   65DMF     N1 1259   1.568   0.240   2.351  0.5532 -0.2368 -0.1343
   65DMF     C2 1260   1.453   0.231   2.265  0.1345  0.0929 -0.3215
   65DMF     C3 1261   1.683   0.188   2.295  0.7933 -0.1945  0.8265
   65DMF     O1 1262   1.797   0.194   2.341  0.0292 -0.4915 -0.6181
   65DMF     H1 1263   1.672   0.357   2.497 -1.2865  2.2176  0.5494
   65DMF     H2 1264   1.521   0.284   2.552 -0.8636 -2.9665 -2.3110
   65DMF     H3 1265   1.515   0.424   2.449 -1.1514 -0.4297  1.2634
   65DMF     H4 1266   1.360   0.256   2.316 -0.4348 -1.9089 -0.3228
   65DMF     H5 1267   1.445   0.126   2.233  1.4823 -0.2659  0.4839
   65DMF     H6 1268   1.483   0.300   2.185 -1.4910 -1.9452 -2.7785
   65DMF     H7 1269   1.662   0.118   2.213 -1.0316 -0.8039  1.8036
   66DMF     C1 1270   3.299   1.960   2.382  0.0592  0.8094 -0.5487
   66DMF     N1 1271   3.433   1.903   2.346 -0.4926  0.0868 -0.7011
   66DMF     C2 1272   3.522   1.974   2.264 -0.0705  0.6884  0.0703
   66DMF     C3 1273   3.469   1.773   2.393 -0.7415  0.7199 -0.1087
   66DMF     O1 1274   3.388   1.707   2.452 -0.5801  0.3538  0.2146
   66DMF     H1 1275   3.263   1.906   2.470  1.7813  1.3258  0.5018
   66DMF     H2 1276   3.238   1.940   2.293  2.2095 -0.3754 -1.8260
   66DMF     H3 1277   3.310   2.067   2.405  2.2429  0.4974  0.0338
   66DMF     H4 1278   3.617   1.988   2.317 -0.3370  0.7671  0.5265
   66DMF     H5 1279   3.485   2.074   2.236  0.2906  1.1892  1.3433
   66DMF     H6 1280   3.534   1.923   2.168 -2.6904  0.8023 -0.3480
   66DMF     H7 1281   3.577   1.750   2.382 -0.5309  1.9070 -0.6935
   67DMF     C1 1282   0.032   2.340   1.192 -0.6494  0.3759  0.1718
   67DMF     N1 1283   0.026   2.232   1.087  0.5492 -0.7924 -0.4408
   67DMF     C2 1284  -0.105   2.235   1.014  0.3271 -0.3650 -0.0672
   67DMF     C3 1285   0.131   2.147   1.061  0.2981  1.4305 -0.0598
   67DMF     O1 1286   0.235   2.157   1.126 -0.0372 -0.0157 -0.0735
   67DMF     H1 1287   0.131   2.341   1.238 -1.7655 -4.0951  3.0125
   67DMF     H2 1288  -0.041   2.333   1.274  0.2797 -0.1541  0.9538
   67DMF     H3 1289   0.020   2.440   1.147  1.7736  1.9295  2.8432
   67DMF     H4 1290  -0.175   2.301   1.065  0.0251 -0.4877 -0.3229
   67DMF     H5 1291  -0.147   2.134   1.000 -1.1332  0.3210 -0.7423
   67DMF     H6 1292  -0.086   2.293   0.923 -1.8497  0.5299  0.0298
   67DMF     H7 1293   0.110   2.071   0.984  0.4729  0.6922  0.6185
   68DMF     C1 1294   1.035   3.055   1.048 -0.1345  0.6327  0.2226
   68DMF     N1 1295   0.899   3.110   1.063  0.5712 -0.6990 -0.3128
   68DMF     C2 1296   0.792   3.023   1.017  0.4415 -0.0863  0.2151
   68DMF     C3 1297   0.863   3.228   1.131 -0.1407 -0.4354 -0.0791
   68DMF     O1 1298   0.942   3.296   1.195  0.3610 -0.1749 -0.1090
   68DMF     H1 1299   1.056   3.029   0.944  2.2363  0.7162  0.6640
   68DMF     H2 1300   1.069   2.977   1.117  3.8477  0.9686 -1.2199
   68DMF     H3 1301   1.112   3.130   1.072  2.6547 -1.9380 -0.4348
   68DMF     H4 1302   0.833   2.945   0.952  1.6298 -0.8954  1.8781
   68DMF     H5 1303   0.711   3.069   0.960 -0.1138 -1.2610  0.0431
   68DMF     H6 1304   0.737   2.983   1.103  1.4624 -0.2623  0.7989
   68DMF     H7 1305   0.757   3.257   1.133  0.0092  0.1555 -0.6075
   69DMF     C1 1306   1.903   0.633   1.529 -0.0171 -0.3448  0.0704
   69DMF     N1 1307   1.758   0.610   1.515  0.2792 -0.1968  0.3605
   69DMF     C2 1308   1.706   0.475   1.545  0.1966  0.0319 -0.1273
   69DMF     C3 1309   1.670   0.710   1.489  0.2292 -0.9804  0.4610
   69DMF     O1 1310   1.705   0.818   1.453 -0.8275 -0.7132 -0.3465
   69DMF     H1 1311   1.950   0.603   1.434 -2.5293  1.6241 -1.8861
   69DMF     H2 1312   1.947   0.583   1.615  1.5705  2.0896  0.7133
   69DMF     H3 1313   1.919   0.742   1.535  0.8781 -0.5593  1.7337
   69DMF     H4 1314   1.694   0.434   1.444 -2.0014  1.3138 -0.4418
   69DMF     H5 1315   1.601   0.480   1.578 -0.4648 -0.0931 -2.1395
   69DMF     H6 1316   1.777   0.409   1.596  1.1415  0.4214 -0.9307
   69DMF     H7 1317   1.565   0.688   1.516 -0.3114  0.0361 -0.7713
   70DMF     C1 1318   0.902   0.704   1.524 -0.0668 -0.0229 -0.3767
   70DMF     N1 1319   0.759   0.737   1.543 -0.4957  0.2231  0.6878
   70DMF     C2 1320   0.659   0.626   1.532 -0.4604  0.0372  0.2987
   70DMF     C3 1321   0.728   0.867   1.578  0.2030 -0.2240 -0.4725
   70DMF     O1 1322   0.810   0.955   1.585 -0.2356  0.0665  0.1514
   70DMF     H1 1323   0.953   0.658   1.609 -2.0367 -1.6555 -0.0213
   70DMF     H2 1324   0.956   0.784   1.473  1.7422 -0.8517  0.1939
   70DMF     H3 1325   0.908   0.632   1.441 -2.2000 -1.3292  0.5624
   70DMF     H4 1326   0.573   0.655   1.471  0.3837 -0.1196 -0.9704
   70DMF     H5 1327   0.631   0.597   1.634  0.2340  1.9420  1.0541
   70DMF     H6 1328   0.708   0.542   1.482  0.8846  1.7577 -1.3082
   70DMF     H7 1329   0.623   0.884   1.608  1.2549  1.2737  2.6380
   71DMF     C1 1330   2.407   2.375   0.087  0.8253  0.1687  1.0198
   71DMF     N1 1331   2.400   2.510   0.034 -0.9197  0.0808 -0.0043
   71DMF     C2 1332   2.344   2.609   0.123 -0.2078  0.3421  0.1176
   71DMF     C3 1333   2.458   2.552  -0.089 -0.5394  0.1500 -0.4326
   71DMF     O1 1334   2.507   2.470  -0.159 -0.1630  0.0665 -0.0192
   71DMF     H1 1335   2.441   2.375   0.191 -1.4689 -0.1909  1.7993
   71DMF     H2 1336   2.469   2.307   0.028  2.3035  3.1051 -0.9509
   71DMF     H3 1337   2.302   2.342   0.081  1.2404 -1.1111  0.6747
   71DMF     H4 1338   2.311   2.567   0.219 -0.9632 -0.0510 -0.3101
   71DMF     H5 1339   2.264   2.657   0.066  0.9355  0.8646 -1.0857
   71DMF     H6 1340   2.426   2.680   0.138  2.1378 -1.3198 -3.8524
   71DMF     H7 1341   2.464   2.662  -0.092 -2.1878  0.3034  0.8267
   72DMF     C1 1342   2.158   2.900   1.401  0.5138 -0.5914 -0.7952
   72DMF     N1 1343   2.254   2.950   1.501 -0.3385  0.0155 -0.3133
   72DMF     C2 1344   2.357   2.852   1.544 -0.2105 -0.3084 -0.7547
   72DMF     C3 1345   2.235   3.080   1.562 -0.2423 -0.1272  0.4340
   72DMF     O1 1346   2.143   3.157   1.541 -0.1771 -0.0234  0.3029
   72DMF     H1 1347   2.079   2.975   1.388  0.0509 -0.9275  0.0065
   72DMF     H2 1348   2.115   2.801   1.420  2.3719 -1.1877  0.5152
   72DMF     H3 1349   2.208   2.894   1.304 -0.3664 -1.0382 -1.2225
   72DMF     H4 1350   2.444   2.860   1.478 -0.2416  1.5215 -0.6029
   72DMF     H5 1351   2.317   2.751   1.534  0.7860 -1.1692  2.9936
   72DMF     H6 1352   2.385   2.878   1.647 -1.4858 -0.1160 -0.4524
   72DMF     H7 1353   2.306   3.103   1.644 -0.5876  2.0940  0.1384
   73DMF     C1 1354   0.038   0.672   1.558 -0.2001 -0.0467 -0.0972
   73DMF     N1 1355  -0.094   0.672   1.490 -0.3039 -0.2164 -0.1249
   73DMF     C2 1356  -0.176   0.788   1.530 -0.0587 -0.2399 -0.3633
   73DMF     C3 1357  -0.124   0.590   1.385  0.4986 -0.3600  0.0507
   73DMF     O1 1358  -0.036   0.526   1.334 -0.1775  0.7250 -0.1833
   73DMF     H1 1359   0.048   0.769   1.608 -0.7207  0.2806 -0.6237
   73DMF     H2 1360   0.121   0.656   1.487 -0.1859 -1.5570  0.2596
   73DMF     H3 1361   0.048   0.595   1.635 -1.2436  1.5215  1.6417
   73DMF     H4 1362  -0.175   0.793   1.639  0.9711 -1.7283 -0.3018
   73DMF     H5 1363  -0.284   0.775   1.510 -0.5397  0.3421  1.7428
   73DMF     H6 1364  -0.132   0.882   1.495 -1.5752  1.0411  1.1157
   73DMF     H7 1365  -0.231   0.598   1.358  0.0134  1.5193  2.3941
   74DMF     C1 1366   1.275   0.432   1.089 -0.4878  0.2804 -0.1373
   74DMF     N1 1367   1.305   0.299   1.035 -0.0161  0.5016  0.1327
   74DMF     C2 1368   1.404   0.285   0.924 -0.0773  0.8269 -0.4409
   74DMF     C3 1369   1.241   0.177   1.075  0.0440  0.5187 -0.3546
   74DMF     O1 1370   1.184   0.161   1.182 -0.3559  0.8501  0.1246
   74DMF     H1 1371   1.214   0.482   1.013 -1.2539 -1.4956 -0.7053
   74DMF     H2 1372   1.362   0.497   1.108  0.8188 -0.5763 -2.9814
   74DMF     H3 1373   1.212   0.431   1.179  1.4583 -2.1376  1.2672
   74DMF     H4 1374   1.387   0.351   0.838  0.0155  0.8078 -0.4745
   74DMF     H5 1375   1.422   0.181   0.894 -1.3867  0.7445 -0.9791
   74DMF     H6 1376   1.500   0.318   0.965 -0.4774  2.4371 -0.7725
   74DMF     H7 1377   1.254   0.094   1.003  1.3047 -0.4203  0.9326
   75DMF     C1 1378   3.114   0.385   2.247  0.1364  0.5622  0.1220
   75DMF     N1 1379   2.971   0.414   2.213  0.2540  0.0957 -0.2946
   75DMF     C2 1380   2.871   0.307   2.229 -0.3718 -0.6440  0.0504
   75DMF     C3 1381   2.922   0.544   2.213  0.4037  0.0825  0.2318
   75DMF     O1 1382   3.002   0.635   2.228  0.2011 -0.1444  0.0763
   75DMF     H1 1383   3.122   0.393   2.356  0.2332 -0.2365  0.1749
   75DMF     H2 1384   3.178   0.461   2.201  0.6543  0.7374  1.1243
   75DMF     H3 1385   3.136   0.285   2.206  1.1566  0.8846 -0.1375
   75DMF     H4 1386   2.868   0.254   2.326 -2.6548 -0.0965  0.3262
   75DMF     H5 1387   2.867   0.238   2.143 -0.7002 -1.5166  0.7509
   75DMF     H6 1388   2.767   0.343   2.221 -0.2397 -0.8884 -3.3505
   75DMF     H7 1389   2.813   0.551   2.200  0.2063 -1.1301  1.1371
   76DMF     C1 1390   2.584   0.280   3.498  0.4785 -0.4565 -0.1901
   76DMF     N1 1391   2.550   0.210   3.622  0.2147  0.1214 -0.7539
   76DMF     C2 1392   2.500   0.068   3.618 -0.0618  0.0087  0.0545
   76DMF     C3 1393   2.580   0.270   3.745 -0.1432 -0.0215 -0.2365
   76DMF     O1 1394   2.633   0.379   3.761  0.1429 -0.4332  0.2782
   76DMF     H1 1395   2.555   0.216   3.414  1.7134 -1.0242 -0.2037
   76DMF     H2 1396   2.693   0.297   3.504  0.2994  0.4446  0.5899
   76DMF     H3 1397   2.530   0.375   3.488 -1.4118 -1.3968  0.9035
   76DMF     H4 1398   2.455   0.036   3.713 -0.1322  1.7081  0.6178
   76DMF     H5 1399   2.592   0.012   3.595  0.6652  0.7219  1.1504
   76DMF     H6 1400   2.426   0.057   3.538  1.5053  2.1034 -1.7279
   76DMF     H7 1401   2.528   0.206   3.819  1.5797  0.0217  1.0132
   77DMF     C1 1402   1.433   1.860   1.294 -0.6139 -0.1466  0.2652
   77DMF     N1 1403   1.304   1.873   1.371  0.3483 -0.7773  0.2245
   77DMF     C2 1404   1.315   1.899   1.516  0.2635  0.1661  0.5253
   77DMF     C3 1405   1.173   1.875   1.307 -0.6253  0.7536 -0.7351
   77DMF     O1 1406   1.157   1.845   1.185 -0.2294  0.7987  0.0007
   77DMF     H1 1407   1.509   1.920   1.345  1.4331 -0.5768 -2.1242
   77DMF     H2 1408   1.431   1.898   1.191  0.5378 -1.5360 -0.2906
   77DMF     H3 1409   1.462   1.754   1.290 -0.8043 -0.1644 -1.0570
   77DMF     H4 1410   1.250   1.987   1.531  1.8577  1.3087  0.8944
   77DMF     H5 1411   1.417   1.919   1.552  0.6958  0.1049 -0.6535
   77DMF     H6 1412   1.278   1.815   1.576  1.1295 -2.2614 -2.2219
   77DMF     H7 1413   1.089   1.909   1.370 -0.5755  2.1121 -1.3888
   78DMF     C1 1414   0.271   0.231   2.401  0.6169  0.2341 -0.3482
   78DMF     N1 1415   0.190   0.144   2.315  0.1355  0.3441 -0.0473
   78DMF     C2 1416   0.239   0.008   2.265 -0.0987 -0.1196  0.1773
   78DMF     C3 1417   0.054   0.176   2.298 -0.0397  0.1374 -0.0460
   78DMF     O1 1418   0.002   0.277   2.337 -0.0223 -0.4089  0.2262
   78DMF     H1 1419   0.345   0.282   2.338  0.7815  1.6424  0.9512
   78DMF     H2 1420   0.314   0.165   2.478  0.4174  1.7852  1.1248
   78DMF     H3 1421   0.206   0.302   2.454  0.5420  1.0163 -1.4710
   78DMF     H4 1422   0.232  -0.065   2.346 -1.0488 -0.7903 -0.4977
   78DMF     H5 1423   0.339   0.005   2.220  0.3189 -2.2214  1.1984
   78DMF     H6 1424   0.167  -0.028   2.190  2.3234  0.6327 -2.6031
   78DMF     H7 1425   0.007   0.092   2.244 -0.3375 -0.6589  1.4348
   79DMF     C1 1426   2.061   0.096   0.234 -0.2664 -0.2446  0.8271
   79DMF     N1 1427   2.106   0.180   0.123 -0.3278 -0.1679  0.0713
   79DMF     C2 1428   2.208   0.129   0.037 -0.5507 -0.1588  0.1667
   79DMF     C3 1429   2.067   0.311   0.101 -0.3750 -0.1736 -0.1179
   79DMF     O1 1430   1.971   0.362   0.153 -0.1149 -0.2116 -0.1628
   79DMF     H1 1431   2.077  -0.012   0.219  1.4308  0.1020  0.0933
   79DMF     H2 1432   1.952   0.105   0.233 -0.1535  1.0898 -1.2498
   79DMF     H3 1433   2.111   0.126   0.328 -0.5558  0.2803  0.8128
   79DMF     H4 1434   2.268   0.059   0.097 -1.9046 -2.2328 -0.8538
   79DMF     H5 1435   2.267   0.211  -0.007  1.0562 -1.1420  0.4174
   79DMF     H6 1436   2.169   0.070  -0.047  1.8301 -1.5168 -0.0352
   79DMF     H7 1437   2.131   0.362   0.027  0.7038 -0.2813  0.7317
   80DMF     C1 1438   2.444   1.587   0.711 -0.1108  0.4988 -0.5577
   80DMF     N1 1439   2.574   1.614   0.632  0.6083 -0.2992  0.2807
   80DMF     C2 1440   2.687   1.528   0.656  0.4501  0.3694 -0.7122
   80DMF     C3 1441   2.592   1.727   0.555 -0.3537 -0.0006  0.4640
   80DMF     O1 1442   2.502   1.809   0.535 -0.4430  0.2992 -0.5853
   80DMF     H1 1443   2.452   1.504   0.783  1.8446  0.9851 -0.1887
   80DMF     H2 1444   2.353   1.582   0.650 -1.4033 -0.4514  1.3953
   80DMF     H3 1445   2.424   1.676   0.772  3.7523 -0.2268  1.9738
   80DMF     H4 1446   2.782   1.582   0.649 -0.8133  3.1739  2.3016
   80DMF     H5 1447   2.670   1.445   0.587 -1.1126 -1.8410  2.2026
   80DMF     H6 1448   2.677   1.493   0.760  0.3801  1.0200 -0.4982
   80DMF     H7 1449   2.694   1.735   0.513 -0.9053  0.1476 -0.8760
   81DMF     C1 1450   0.128   2.403   2.722 -0.0084 -0.2122 -0.1333
   81DMF     N1 1451   0.071   2.264   2.748 -0.2439 -0.4983  0.5676
   81DMF     C2 1452   0.020   2.183   2.630 -0.3904 -0.5067 -0.0794
   81DMF     C3 1453   0.082   2.204   2.871 -0.4097 -0.4495 -0.5643
   81DMF     O1 1454   0.125   2.265   2.969 -0.0793  0.2369  0.0707
   81DMF     H1 1455   0.161   2.418   2.619  0.1077 -1.6413 -0.3212
   81DMF     H2 1456   0.227   2.405   2.770 -0.9619  1.4675  1.8634
   81DMF     H3 1457   0.059   2.478   2.763  0.1478 -1.2147  2.0327
   81DMF     H4 1458   0.055   2.080   2.615 -0.1940 -0.6475  1.2177
   81DMF     H5 1459   0.027   2.241   2.538 -0.6697  1.2957  0.9975
   81DMF     H6 1460  -0.087   2.182   2.654 -0.5499 -0.0933 -0.7715
   81DMF     H7 1461   0.046   2.100   2.864  0.4746 -0.8721  0.9293
   82DMF     C1 1462   1.313   2.427   0.870 -0.2604  0.0865 -0.2257
   82DMF     N1 1463   1.189   2.499   0.873  0.1021 -0.1892 -0.2441
   82DMF     C2 1464   1.186   2.646   0.861  0.6140 -0.1253  0.3120
   82DMF     C3 1465   1.071   2.430   0.874  0.1578  0.0347  0.1433
   82DMF     O1 1466   1.062   2.310   0.893  0.0628  0.1550 -0.5677
   82DMF     H1 1467   1.399   2.489   0.897  1.0580 -2.2829  1.2487
   82DMF     H2 1468   1.319   2.388   0.767 -0.5104  0.4230 -0.3678
   82DMF     H3 1469   1.303   2.343   0.940 -1.4901 -0.3708 -0.9327
   82DMF     H4 1470   1.256   2.691   0.932  1.7483 -0.1230 -0.8013
   82DMF     H5 1471   1.085   2.685   0.879 -0.1407 -0.0736 -3.4663
   82DMF     H6 1472   1.216   2.679   0.761  0.6296 -1.4400 -0.1244
   82DMF     H7 1473   0.984   2.497   0.861 -0.3137 -0.5983  0.0533
   83DMF     C1 1474   0.131   3.070   1.516  0.4467  0.2738 -0.2232
   83DMF     N1 1475  -0.014   3.083   1.536 -1.1577  0.2820 -0.2087
   83DMF     C2 1476  -0.068   3.214   1.532  0.1221 -0.6342 -0.4674
   83DMF     C3 1477  -0.098   2.972   1.548 -0.7941  0.2306  0.6054
   83DMF     O1 1478  -0.058   2.857   1.564  0.3059  0.0884  0.1296
   83DMF     H1 1479   0.183   3.152   1.567  0.9502 -0.9902  1.3178
   83DMF     H2 1480   0.155   3.071   1.408 -0.5708  3.4217 -0.4561
   83DMF     H3 1481   0.180   2.979   1.553  0.7166  0.7901  0.6982
   83DMF     H4 1482  -0.177   3.216   1.527  0.1637  0.6357 -1.1026
   83DMF     H5 1483  -0.027   3.283   1.456 -1.8833  1.0912 -0.0373
   83DMF     H6 1484  -0.033   3.259   1.626  2.1534  1.6389 -2.2355
   83DMF     H7 1485  -0.203   3.002   1.530 -0.3369  2.6625  1.8273
   84DMF     C1 1486   3.188   2.204   1.561  0.2052 -0.5849 -0.2575
   84DMF     N1 1487   3.156   2.122   1.442  0.3635 -0.1615 -0.2245
   84DMF     C2 1488   3.265   2.038   1.380 -0.2779 -0.2387 -0.0977
   84DMF     C3 1489   3.036   2.134   1.374 -0.0950  0.4650  0.0465
   84DMF     O1 1490   2.958   2.226   1.392 -0.0797  0.1920 -0.3427
   84DMF     H1 1491   3.241   2.295   1.531  0.1250 -1.0870 -1.9852
   84DMF     H2 1492   3.243   2.141   1.632 -1.9054 -0.8089  1.2304
   84DMF     H3 1493   3.096   2.233   1.613  1.1665 -0.2980  1.2863
   84DMF     H4 1494   3.337   2.095   1.319  0.6459 -1.4944 -0.2103
   84DMF     H5 1495   3.238   1.953   1.317 -0.1547  0.6772 -1.4243
   84DMF     H6 1496   3.323   2.008   1.468 -0.1037  1.9707  0.5911
   84DMF     H7 1497   3.028   2.060   1.292 -0.6754  1.7659 -1.0814
   85DMF     C1 1498   2.672   2.543   0.877  0.1953 -0.2432  0.2126
   85DMF     N1 1499   2.791   2.544   0.953  0.1510 -0.0849  0.6993
   85DMF     C2 1500   2.797   2.635   1.071  0.0361  0.2520  0.2559
   85DMF     C3 1501   2.902   2.454   0.916 -1.2103  0.5147 -0.4927
   85DMF     O1 1502   2.901   2.384   0.819  0.0938 -0.2006 -0.5587
   85DMF     H1 1503   2.616   2.635   0.897  1.4287  0.3672  0.9247
   85DMF     H2 1504   2.619   2.451   0.903 -0.6940  0.0658 -0.4496
   85DMF     H3 1505   2.695   2.543   0.770 -0.6821  0.0069  0.0182
   85DMF     H4 1506   2.701   2.688   1.080 -0.1592  0.1122 -0.9606
   85DMF     H5 1507   2.885   2.701   1.066  0.6372 -0.4757  0.9556
   85DMF     H6 1508   2.800   2.586   1.169  1.3550  2.3104  1.2942
   85DMF     H7 1509   2.984   2.448   0.989  1.9970 -1.8227 -4.1206
   86DMF     C1 1510   1.020   1.597   1.518  0.3362 -1.0258  0.1225
   86DMF     N1 1511   0.900   1.675   1.549  0.1861  0.2251 -0.4817
   86DMF     C2 1512   0.771   1.610   1.536 -0.1046 -0.2996 -0.5256
   86DMF     C3 1513   0.903   1.814   1.574  0.2228 -0.4386  0.4094
   86DMF     O1 1514   1.003   1.883   1.581  0.3058  0.0340 -0.0814
   86DMF     H1 1515   1.021   1.503   1.575  1.8478 -0.5902  0.8686
   86DMF     H2 1516   1.105   1.661   1.548 -0.1701 -0.3410  0.1021
   86DMF     H3 1517   1.024   1.566   1.413 -2.0204  1.7870 -0.8521
   86DMF     H4 1518   0.683   1.665   1.500 -0.5087  0.7699  2.0227
   86DMF     H5 1519   0.740   1.587   1.639 -0.4243 -0.1819 -0.5940
   86DMF     H6 1520   0.763   1.520   1.473  0.7425 -0.6424 -0.1425
   86DMF     H7 1521   0.800   1.853   1.587  1.1315  1.6459  1.6511
   87DMF     C1 1522   2.399   1.410   1.513 -0.2252 -1.6117 -0.0751
   87DMF     N1 1523   2.485   1.299   1.553  0.0865 -0.0979  0.2889
   87DMF     C2 1524   2.438   1.162   1.556  0.1822  0.2561  0.0133
   87DMF     C3 1525   2.625   1.328   1.564 -0.8677 -0.4834 -0.2481
   87DMF     O1 1526   2.662   1.445   1.579 -0.0424  0.0012  0.4378
   87DMF     H1 1527   2.295   1.381   1.493 -0.8819 -0.0426  0.9492
   87DMF     H2 1528   2.436   1.453   1.420  0.4238 -1.3211  0.3149
   87DMF     H3 1529   2.406   1.491   1.586 -2.4211 -0.8150 -0.7286
   87DMF     H4 1530   2.460   1.127   1.658  4.0080  1.4553 -0.3312
   87DMF     H5 1531   2.493   1.092   1.492  0.6566  0.2757  0.3928
   87DMF     H6 1532   2.329   1.145   1.554  0.3567 -1.3235  1.9921
   87DMF     H7 1533   2.682   1.234   1.577 -0.8999 -0.4859 -0.1246
   88DMF     C1 1534   1.895   1.558   3.402  0.3187  0.1714 -0.2314
   88DMF     N1 1535   1.864   1.623   3.536  0.0463  0.3953  0.0151
   88DMF     C2 1536   1.976   1.684   3.605 -0.6199  0.5790 -0.1141
   88DMF     C3 1537   1.737   1.646   3.579  0.0029  0.2950 -0.4179
   88DMF     O1 1538   1.644   1.613   3.507  0.3504 -0.0016  0.0699
   88DMF     H1 1539   1.883   1.449   3.405  1.1649  0.0835  0.1094
   88DMF     H2 1540   1.992   1.593   3.365  1.2698 -1.0979  1.0168
   88DMF     H3 1541   1.822   1.592   3.327 -0.8782  2.3040  1.8589
   88DMF     H4 1542   1.997   1.775   3.548 -0.3516  0.4268 -0.2585
   88DMF     H5 1543   2.070   1.627   3.602 -0.7096  0.4993 -1.4664
   88DMF     H6 1544   1.951   1.704   3.710 -0.6705 -0.9566  0.1814
   88DMF     H7 1545   1.729   1.689   3.680 -1.5550 -0.8229 -0.0420
   89DMF     C1 1546   2.758   0.194   0.284  0.1957 -0.5604  0.0878
   89DMF     N1 1547   2.696   0.073   0.341 -0.2906 -0.4454 -1.1195
   89DMF     C2 1548   2.716   0.044   0.486 -0.2950  1.0264 -0.9036
   89DMF     C3 1549   2.650  -0.026   0.258 -0.3529 -0.4345  0.2594
   89DMF     O1 1550   2.640  -0.007   0.137  0.7237  0.3047 -0.1427
   89DMF     H1 1551   2.676   0.267   0.282  0.6119 -0.0902  0.0764
   89DMF     H2 1552   2.793   0.187   0.180  0.9773 -0.1916  0.3238
   89DMF     H3 1553   2.841   0.227   0.347  0.0007 -2.1494  1.2148
   89DMF     H4 1554   2.630   0.088   0.539 -3.4230 -1.6833 -3.4907
   89DMF     H5 1555   2.811   0.082   0.527 -0.1037 -2.9605  2.7227
   89DMF     H6 1556   2.710  -0.065   0.492 -0.7669  1.0491 -0.9223
   89DMF     H7 1557   2.623  -0.120   0.310  3.2552  0.1690  3.4382
   90DMF     C1 1558   1.396   1.504   1.552 -0.0394 -0.2756  0.0852
   90DMF     N1 1559   1.423   1.515   1.403  0.0084 -0.1289 -0.6246
   90DMF     C2 1560   1.306   1.528   1.312 -0.0661 -0.6812 -0.7975
   90DMF     C3 1561   1.555   1.486   1.346  0.5294  0.4905  0.0324
   90DMF     O1 1562   1.651   1.475   1.415  0.0805 -0.2388  0.3517
   90DMF     H1 1563   1.467   1.443   1.608  1.2508 -0.0076 -1.2224
   90DMF     H2 1564   1.291   1.475   1.565 -0.3926  1.0646  0.2662
   90DMF     H3 1565   1.411   1.600   1.602  0.3834  0.5539 -1.5885
   90DMF     H4 1566   1.250   1.433   1.312  1.6869 -1.7810  1.5811
   90DMF     H5 1567   1.335   1.553   1.210  0.7811  2.3208  0.1454
   90DMF     H6 1568   1.245   1.612   1.347  1.4363  0.0482  0.1301
   90DMF     H7 1569   1.541   1.472   1.238 -2.2224  1.0999  0.2581
   91DMF     C1 1570   1.290   0.195   2.758  0.4819 -0.2649 -0.2524
   91DMF     N1 1571   1.180   0.108   2.780 -0.3679 -0.5412 -0.2286
   91DMF     C2 1572   1.079   0.143   2.875 -0.3529 -0.1976  0.0374
   91DMF     C3 1573   1.158  -0.011   2.701 -0.2325  0.0773 -0.2738
   91DMF     O1 1574   1.240  -0.060   2.621 -0.6280  0.2120 -0.4601
   91DMF     H1 1575   1.313   0.259   2.845 -1.5362 -1.1548  0.9714
   91DMF     H2 1576   1.267   0.258   2.671 -1.4990  1.3900  1.4042
   91DMF     H3 1577   1.376   0.135   2.726  0.9833  0.9162 -1.1543
   91DMF     H4 1578   1.060   0.061   2.945 -2.1103  0.0942 -0.0781
   91DMF     H5 1579   0.983   0.151   2.821 -0.7040  0.1872  0.7185
   91DMF     H6 1580   1.101   0.237   2.928  1.0272 -0.3592 -0.2309
   91DMF     H7 1581   1.068  -0.066   2.734  0.5975 -0.1615  1.6255
   92DMF     C1 1582   3.034   0.902   1.110 -0.5697 -0.1913  0.0636
   92DMF     N1 1583   3.010   1.038   1.153 -0.0008  0.7273  0.1691
   92DMF     C2 1584   2.944   1.128   1.069 -0.1868  0.2744 -0.6387
   92DMF     C3 1585   3.056   1.090   1.276 -0.9693  0.6232  0.4571
   92DMF     O1 1586   3.122   1.026   1.352 -0.0435 -0.2612 -0.3614
   92DMF     H1 1587   3.114   0.899   1.036 -0.9161  3.3295 -0.5177
   92DMF     H2 1588   2.941   0.849   1.083 -2.1590  2.2938  0.5108
   92DMF     H3 1589   3.063   0.843   1.199 -0.0713 -0.2584 -0.1447
   92DMF     H4 1590   2.844   1.146   1.108 -0.4941 -1.4464 -0.5710
   92DMF     H5 1591   2.918   1.083   0.972  0.4647 -1.8647  0.1547
   92DMF     H6 1592   2.996   1.223   1.054 -0.9847  0.6316 -1.2005
   92DMF     H7 1593   3.024   1.193   1.303 -0.9084  0.7594  0.0110
   93DMF     C1 1594   0.718   1.985   1.187 -0.1459  0.3800 -0.5801
   93DMF     N1 1595   0.857   2.025   1.220  0.0707  0.0440  0.2306
   93DMF     C2 1596   0.883   2.098   1.348 -0.2681  0.2277  0.0630
   93DMF     C3 1597   0.952   2.007   1.115  0.6316  0.3833 -0.1429
   93DMF     O1 1598   0.927   1.949   1.008 -0.4440 -0.6659  0.3852
   93DMF     H1 1599   0.719   1.911   1.106 -0.6709 -0.7032  0.3952
   93DMF     H2 1600   0.651   2.069   1.164 -2.7903 -1.6024 -0.1783
   93DMF     H3 1601   0.683   1.930   1.275 -1.7863  0.1999 -1.3261
   93DMF     H4 1602   0.838   2.198   1.347 -1.4186 -0.2789 -1.5220
   93DMF     H5 1603   0.988   2.104   1.377 -0.5937  1.4161  1.0296
   93DMF     H6 1604   0.836   2.038   1.428  2.3228  0.7057  2.0186
   93DMF     H7 1605   1.048   2.060   1.130  1.5315 -0.1383 -3.4668
   94DMF     C1 1606   3.059   0.309   3.639  0.0973 -0.3293 -0.4502
   94DMF     N1 1607   3.209   0.282   3.608 -0.2520 -0.2941 -0.8180
   94DMF     C2 1608   3.273   0.150   3.643  0.0317 -0.7877 -0.1250
   94DMF     C3 1609   3.288   0.380   3.541  0.3674  0.1066  0.1216
   94DMF     O1 1610   3.242   0.491   3.509 -0.0667 -0.2464 -0.2412
   94DMF     H1 1611   3.001   0.225   3.681  1.0991 -0.2315  1.1644
   94DMF     H2 1612   3.017   0.312   3.538 -2.2401 -0.6434  0.4624
   94DMF     H3 1613   3.038   0.403   3.691 -2.7132 -1.5439  0.7400
   94DMF     H4 1614   3.380   0.154   3.622 -0.2691 -2.9896 -2.2547
   94DMF     H5 1615   3.231   0.066   3.586  0.1296 -1.8063  1.2579
   94DMF     H6 1616   3.259   0.147   3.752 -1.1936 -2.9297 -0.3102
   94DMF     H7 1617   3.396   0.355   3.536  0.2921 -0.0360 -1.0193
   95DMF     C1 1618   2.107   1.783   0.798 -0.4725  0.3314  0.0953
   95DMF     N1 1619   2.207   1.877   0.729 -0.0583 -0.3280 -0.5060
   95DMF     C2 1620   2.293   1.960   0.817  0.1524  0.6797  0.3669
   95DMF     C3 1621   2.220   1.870   0.586 -0.3331  0.2004  0.3805
   95DMF     O1 1622   2.150   1.804   0.506  0.2060 -0.2692 -0.3069
   95DMF     H1 1623   2.008   1.829   0.807 -1.4435 -1.6752 -0.0480
   95DMF     H2 1624   2.138   1.766   0.902 -0.0132  0.3576 -0.0363
   95DMF     H3 1625   2.099   1.684   0.752  3.0158 -1.1110  2.4034
   95DMF     H4 1626   2.356   1.905   0.888  1.0626 -0.0189 -0.9531
   95DMF     H5 1627   2.234   2.032   0.875 -0.9366 -0.0765  0.2163
   95DMF     H6 1628   2.362   2.027   0.764  1.2518  0.3984  1.4280
   95DMF     H7 1629   2.299   1.937   0.548  1.6528 -2.7637 -0.8955
   96DMF     C1 1630   0.814   1.677   0.775 -0.8728  0.7418 -0.0365
   96DMF     N1 1631   0.693   1.632   0.841 -0.2216  0.3084  0.1173
   96DMF     C2 1632   0.606   1.736   0.896 -0.4212 -0.8245  0.0540
   96DMF     C3 1633   0.681   1.499   0.895 -0.0276 -0.0097  0.2000
   96DMF     O1 1634   0.750   1.405   0.851  0.2986  0.3827 -0.4603
   96DMF     H1 1635   0.820   1.787   0.779 -0.3756  0.6583  2.5645
   96DMF     H2 1636   0.809   1.651   0.669 -0.9950 -0.2642  0.2090
   96DMF     H3 1637   0.907   1.638   0.818 -1.0823  0.3818  0.0932
   96DMF     H4 1638   0.637   1.750   1.001  0.1078  3.0636 -0.5332
   96DMF     H5 1639   0.500   1.710   0.897 -0.4714 -0.6452  1.7907
   96DMF     H6 1640   0.627   1.829   0.842  1.0162 -0.8593  0.5178
   96DMF     H7 1641   0.602   1.491   0.971 -3.7134 -0.9328 -3.5182
   97DMF     C1 1642   0.531   1.246   1.452 -0.4208  0.6494  0.8459
   97DMF     N1 1643   0.408   1.292   1.528 -0.4068 -0.1599 -0.2146
   97DMF     C2 1644   0.307   1.185   1.552 -0.3896 -0.1846 -0.2599
   97DMF     C3 1645   0.371   1.425   1.540 -0.2088 -0.4312  0.0914
   97DMF     O1 1646   0.449   1.511   1.514  0.1665  0.2804  0.0086
   97DMF     H1 1647   0.620   1.275   1.509  0.5537 -1.0887  0.2379
   97DMF     H2 1648   0.527   1.304   1.358  1.1869 -0.7793 -0.1223
   97DMF     H3 1649   0.535   1.139   1.430  0.3094  0.6693  0.8914
   97DMF     H4 1650   0.234   1.202   1.632 -0.3852 -0.5122 -0.1843
   97DMF     H5 1651   0.369   1.103   1.591  0.8160 -0.2445 -2.2062
   97DMF     H6 1652   0.256   1.154   1.460 -1.1476 -0.9247  0.4081
   97DMF     H7 1653   0.264   1.436   1.566 -0.3224 -0.2970 -0.4245
   98DMF     C1 1654   0.713   2.328   1.563  0.5694 -0.1109 -0.8400
   98DMF     N1 1655   0.830   2.406   1.581  0.6643 -0.1932  0.0282
   98DMF     C2 1656   0.963   2.341   1.584 -0.7969  0.6116 -1.2705
   98DMF     C3 1657   0.814   2.542   1.580  0.3999 -0.3048 -0.6059
   98DMF     O1 1658   0.707   2.601   1.558 -0.1636  0.0290  0.0181
   98DMF     H1 1659   0.679   2.338   1.459 -1.7335  0.8566 -0.0312
   98DMF     H2 1660   0.636   2.382   1.619  0.5856 -1.5719  0.6069
   98DMF     H3 1661   0.724   2.233   1.616  0.4003  0.1071 -0.4039
   98DMF     H4 1662   1.004   2.308   1.488  1.7325 -0.5885  0.1642
   98DMF     H5 1663   0.946   2.253   1.647 -1.7685  1.0931 -0.8465
   98DMF     H6 1664   1.036   2.412   1.627 -1.5808  0.9231 -0.4344
   98DMF     H7 1665   0.904   2.598   1.612 -0.7379 -0.5750  3.3833
   99DMF     C1 1666   2.959   0.557   0.840  0.4739  0.7371 -0.2951
   99DMF     N1 1667   3.052   0.445   0.864  0.1573  0.1644 -0.3874
   99DMF     C2 1668   3.090   0.364   0.746  0.0293 -0.4639  0.4720
   99DMF     C3 1669   3.105   0.425   0.993 -0.3204  0.3288  0.6814
   99DMF     O1 1670   3.066   0.489   1.088  0.2447 -0.2719  0.4781
   99DMF     H1 1671   2.889   0.581   0.921  0.6685 -1.1851  0.4521
   99DMF     H2 1672   2.886   0.529   0.763 -0.0123 -1.5740  0.9705
   99DMF     H3 1673   3.008   0.647   0.801  2.1665  0.4911  1.2025
   99DMF     H4 1674   3.051   0.418   0.658 -0.5861  1.1240  1.6933
   99DMF     H5 1675   3.044   0.265   0.745 -0.0356 -0.4343 -1.7009
   99DMF     H6 1676   3.197   0.343   0.739 -0.2867 -1.2569 -3.1073
   99DMF     H7 1677   3.175   0.340   1.001 -0.6595 -0.1075 -0.8558
  100DMF     C1 1678   1.704   1.020   3.634  0.2973 -0.5325  0.5659
  100DMF     N1 1679   1.682   1.129   3.724 -0.6842 -1.0150  0.5497
  100DMF     C2 1680   1.747   1.257   3.694 -0.0207  0.1278 -0.0238
  100DMF     C3 1681   1.625   1.116   3.853 -0.0818 -0.0061 -0.0285
  100DMF     O1 1682   1.575   1.013   3.899 -0.3982  0.2735  0.1062
  100DMF     H1 1683   1.760   0.943   3.688  0.0202 -0.1886  1.3483
  100DMF     H2 1684   1.768   1.053   3.552  0.2187 -0.2854  0.6046
  100DMF     H3 1685   1.602   0.993   3.603 -0.1492  1.0145  0.6446
  100DMF     H4 1686   1.853   1.242   3.669  0.0568 -1.2290  1.0466
  100DMF     H5 1687   1.756   1.319   3.785  2.2988  0.9931 -0.8169
  100DMF     H6 1688   1.698   1.302   3.607  1.1900 -0.2157 -0.8963
  100DMF     H7 1689   1.625   1.212   3.908  3.2423 -1.4282  2.5439
  101DMF     C1 1690   1.366   0.443   3.287 -0.6557 -0.0196 -1.0798
  101DMF     N1 1691   1.472   0.376   3.216  1.1512  0.0081 -0.5025
  101DMF     C2 1692   1.437   0.244   3.167 -0.2083 -0.0435  1.0237
  101DMF     C3 1693   1.599   0.434   3.196  0.1563 -0.9887  0.0880
  101DMF     O1 1694   1.628   0.541   3.241 -0.2598  0.4877 -0.1214
  101DMF     H1 1695   1.370   0.550   3.263 -2.8645  0.8875  2.2538
  101DMF     H2 1696   1.374   0.424   3.395  0.6023 -0.0153 -1.1737
  101DMF     H3 1697   1.274   0.404   3.242 -0.2289 -0.7274 -1.3417
  101DMF     H4 1698   1.414   0.257   3.060  0.7861 -1.3595  0.6377
  101DMF     H5 1699   1.353   0.196   3.219  0.5589 -0.0007  2.3220
  101DMF     H6 1700   1.529   0.184   3.170 -1.3665 -1.8630  0.6516
  101DMF     H7 1701   1.658   0.383   3.117 -0.0633  0.6330 -1.1415
  102DMF     C1 1702   2.826   1.861   1.332 -0.1137 -0.6136  0.4570
  102DMF     N1 1703   2.844   1.919   1.469  0.2450  0.3014  0.0963
  102DMF     C2 1704   2.952   1.858   1.544 -0.4979  0.5446  0.3754
  102DMF     C3 1705   2.762   2.019   1.522 -0.0389 -0.0873 -0.3518
  102DMF     O1 1706   2.668   2.058   1.455  0.2296 -0.1363  0.5372
  102DMF     H1 1707   2.857   1.756   1.326  1.4911 -0.1213 -0.0294
  102DMF     H2 1708   2.879   1.914   1.251  0.9188 -0.1100  1.4512
  102DMF     H3 1709   2.718   1.852   1.316 -0.0706 -0.0918 -0.1658
  102DMF     H4 1710   2.928   1.756   1.577  0.6222  0.3504  0.5826
  102DMF     H5 1711   2.967   1.917   1.636  0.7059 -1.2346  1.3406
  102DMF     H6 1712   3.039   1.854   1.478 -0.3085  1.2553  0.5775
  102DMF     H7 1713   2.777   2.051   1.627 -1.9609 -0.5330  0.0800
  103DMF     C1 1714   3.319   3.340   2.767  0.0399 -0.0145 -0.7654
  103DMF     N1 1715   3.447   3.360   2.707  0.3433  0.9257  0.5399
  103DMF     C2 1716   3.564   3.390   2.794 -0.0694 -0.2148 -0.1032
  103DMF     C3 1717   3.461   3.386   2.569  0.2967 -0.1369  0.4860
  103DMF     O1 1718   3.364   3.396   2.491  0.0191 -0.1481 -0.2695
  103DMF     H1 1719   3.351   3.311   2.868 -0.3588 -0.8855 -0.8785
  103DMF     H2 1720   3.261   3.257   2.723 -0.4996 -0.6781  1.1573
  103DMF     H3 1721   3.268   3.437   2.768  0.7547  0.3601 -0.7778
  103DMF     H4 1722   3.611   3.485   2.767 -0.3351 -0.8523 -2.9744
  103DMF     H5 1723   3.639   3.310   2.784 -1.1468 -1.2416 -0.0572
  103DMF     H6 1724   3.528   3.393   2.897 -0.3374  0.8913 -0.2226
  103DMF     H7 1725   3.566   3.396   2.539  0.4673  0.5949  1.3250
  104DMF     C1 1726   3.220   0.179   3.039 -0.0342 -0.6156  0.1862
  104DMF     N1 1727   3.122   0.251   3.118 -0.1605 -0.1443 -1.0484
  104DMF     C2 1728   3.043   0.358   3.062 -0.6965 -0.1537 -0.4471
  104DMF     C3 1729   3.100   0.212   3.245 -0.1431  0.1462 -0.2735
  104DMF     O1 1730   3.179   0.129   3.300  0.2307 -0.0259  0.0292
  104DMF     H1 1731   3.205   0.072   3.057 -0.6592 -0.4304  0.7613
  104DMF     H2 1732   3.321   0.206   3.070  0.5363 -1.4109 -0.9382
  104DMF     H3 1733   3.207   0.205   2.933  0.3278 -0.0699  0.2735
  104DMF     H4 1734   3.069   0.446   3.121  2.3557 -1.1946 -0.1402
  104DMF     H5 1735   2.936   0.339   3.078 -0.3216 -0.4995  1.7590
  104DMF     H6 1736   3.070   0.371   2.957  0.2739 -3.2314 -0.6308
  104DMF     H7 1737   3.019   0.264   3.299 -0.2586  0.6022 -0.8821
  105DMF     C1 1738   3.395   1.942   0.640  0.0118  0.0508  0.2923
  105DMF     N1 1739   3.525   1.870   0.633 -0.8143 -0.0047 -0.2314
  105DMF     C2 1740   3.646   1.956   0.625  0.7393  0.0766 -0.7983
  105DMF     C3 1741   3.537   1.725   0.638  0.0634 -0.2185  0.5032
  105DMF     O1 1742   3.442   1.656   0.674  0.5385 -0.3022  0.2650
  105DMF     H1 1743   3.307   1.877   0.645 -0.8845  1.2933  0.8111
  105DMF     H2 1744   3.373   2.007   0.554 -2.0268  0.3124  0.9836
  105DMF     H3 1745   3.406   2.006   0.728  3.3333  1.7291 -1.2427
  105DMF     H4 1746   3.692   1.957   0.724  0.5617 -0.2218 -0.7112
  105DMF     H5 1747   3.616   2.056   0.593 -0.2179  0.0264 -0.0842
  105DMF     H6 1748   3.717   1.923   0.547 -0.2699 -1.1489 -1.2172
  105DMF     H7 1749   3.640   1.692   0.617 -0.0643 -1.5625  1.8555
  106DMF     C1 1750   1.920   0.940   0.286 -0.4619  0.1498  0.3514
  106DMF     N1 1751   1.939   0.795   0.249  0.0612  0.3258 -0.6764
  106DMF     C2 1752   1.872   0.747   0.127  0.0328  0.0559 -0.4762
  106DMF     C3 1753   2.003   0.704   0.337  0.3430 -0.1901  0.3137
  106DMF     O1 1754   2.046   0.737   0.451 -0.3305 -0.2800 -0.1345
  106DMF     H1 1755   1.997   0.974   0.357  1.0743 -2.7914  0.2049
  106DMF     H2 1756   1.819   0.953   0.327 -1.1613 -1.2138 -0.8805
  106DMF     H3 1757   1.931   1.008   0.201 -1.3704 -2.1053 -1.6262
  106DMF     H4 1758   1.869   0.638   0.110 -1.6640  0.3438 -2.2942
  106DMF     H5 1759   1.926   0.781   0.037  3.2035 -1.9661  0.5793
  106DMF     H6 1760   1.764   0.768   0.133  0.3286  1.0974  1.4542
  106DMF     H7 1761   2.003   0.598   0.308  0.6177  0.1773 -1.0326
  107DMF     C1 1762   1.191   2.359   2.279 -0.0421 -0.3561 -0.4819
  107DMF     N1 1763   1.281   2.282   2.375  0.0869  0.4031 -0.0726
  107DMF     C2 1764   1.412   2.333   2.398  0.3582 -0.2084  1.3246
  107DMF     C3 1765   1.240   2.163   2.427 -0.4644  0.1100 -0.5591
  107DMF     O1 1766   1.121   2.137   2.425 -0.1499  0.1083 -0.1425
  107DMF     H1 1767   1.094   2.371   2.328 -0.3303 -1.9096 -0.6407
  107DMF     H2 1768   1.180   2.283   2.200 -0.3089 -1.2303  0.3795
  107DMF     H3 1769   1.242   2.447   2.239  0.2870  0.1157  0.9488
  107DMF     H4 1770   1.432   2.335   2.506  1.5786  1.4009  1.0682
  107DMF     H5 1771   1.431   2.426   2.344  1.8861 -0.6274  1.1084
  107DMF     H6 1772   1.481   2.256   2.362  0.3610  0.5699 -0.3368
  107DMF     H7 1773   1.321   2.099   2.466 -1.0414 -1.0025 -1.1651
  108DMF     C1 1774   0.458   0.983   1.164 -0.3777 -0.2132  0.4889
  108DMF     N1 1775   0.460   1.124   1.118 -0.2992 -0.3434 -0.3561
  108DMF     C2 1776   0.573   1.183   1.048  0.7692  0.4829  0.2906
  108DMF     C3 1777   0.352   1.207   1.143  0.7520  0.6158 -0.1727
  108DMF     O1 1778   0.249   1.163   1.195  0.2815  0.4696 -0.5933
  108DMF     H1 1779   0.363   0.939   1.131 -0.9415  1.0081  0.4457
  108DMF     H2 1780   0.447   0.975   1.273 -0.8885 -0.5756  0.4141
  108DMF     H3 1781   0.541   0.926   1.119  0.4398  0.0697  1.5972
  108DMF     H4 1782   0.602   1.110   0.972  0.5260  2.1228 -1.3998
  108DMF     H5 1783   0.652   1.205   1.121  0.7033 -0.3447  0.6190
  108DMF     H6 1784   0.546   1.271   0.988 -1.6300  1.6825  3.0130
  108DMF     H7 1785   0.366   1.310   1.106  1.0690 -0.2475 -2.5554
  109DMF     C1 1786   1.283   0.838   0.911 -0.2505 -0.1197  0.4027
  109DMF     N1 1787   1.299   0.760   0.784  0.5604 -0.0662  0.4093
  109DMF     C2 1788   1.404   0.786   0.679 -0.0848  0.3692  0.0512
  109DMF     C3 1789   1.191   0.684   0.739  0.0582 -0.4522  0.7005
  109DMF     O1 1790   1.091   0.665   0.802 -0.6243 -0.2464  0.3735
  109DMF     H1 1791   1.321   0.788   1.000  1.7858  0.1257 -0.3010
  109DMF     H2 1792   1.182   0.879   0.920  0.1421  0.8177  0.6370
  109DMF     H3 1793   1.343   0.930   0.904 -1.3018  0.4465 -1.6144
  109DMF     H4 1794   1.379   0.886   0.641  1.6698  0.9219  0.3116
  109DMF     H5 1795   1.406   0.721   0.591 -3.0826  2.6062 -1.7932
  109DMF     H6 1796   1.500   0.785   0.733  1.1017 -1.9782 -2.0123
  109DMF     H7 1797   1.204   0.641   0.638  1.3830 -0.2453  0.7775
  110DMF     C1 1798   0.340   1.848   1.136  0.0660  0.2800 -0.7984
  110DMF     N1 1799   0.354   1.701   1.156 -0.1330 -0.0191 -0.9843
  110DMF     C2 1800   0.426   1.653   1.278  0.0889 -0.0838 -0.3858
  110DMF     C3 1801   0.292   1.612   1.067  0.1576 -0.5028 -0.8690
  110DMF     O1 1802   0.240   1.658   0.967  0.5286 -0.3421 -0.2354
  110DMF     H1 1803   0.384   1.884   1.042 -0.4702 -1.2657 -1.6545
  110DMF     H2 1804   0.385   1.892   1.227 -2.0785 -2.2566  1.5923
  110DMF     H3 1805   0.235   1.881   1.143  0.5812  2.0932 -1.3376
  110DMF     H4 1806   0.496   1.569   1.262 -0.1351 -0.0428 -1.6851
  110DMF     H5 1807   0.344   1.617   1.341 -0.5145 -2.2727 -2.3259
  110DMF     H6 1808   0.491   1.733   1.314 -1.9391  1.0301  0.9309
  110DMF     H7 1809   0.296   1.504   1.091  0.7277 -0.4056 -0.5404
  111DMF     C1 1810   2.007   3.034   1.134  0.1574  0.1279 -0.4323
  111DMF     N1 1811   1.973   3.060   0.998  0.0334  0.0282  0.3907
  111DMF     C2 1812   1.981   3.192   0.937 -0.0076 -1.0399  0.2862
  111DMF     C3 1813   1.961   2.946   0.913  0.1959  0.3125 -0.0595
  111DMF     O1 1814   1.952   2.832   0.955 -0.1120  0.0906  0.2369
  111DMF     H1 1815   2.096   2.970   1.141  0.7124  0.6765 -2.2562
  111DMF     H2 1816   1.928   2.982   1.190 -1.3211  1.9990 -0.7417
  111DMF     H3 1817   2.034   3.127   1.185 -0.5336  0.3189 -0.4173
  111DMF     H4 1818   1.881   3.225   0.907  0.4169 -0.1582 -0.1682
  111DMF     H5 1819   2.036   3.188   0.842 -0.4027 -0.8580  0.0503
  111DMF     H6 1820   2.016   3.276   0.997 -1.3158  0.6044 -1.2105
  111DMF     H7 1821   1.959   2.974   0.806 -1.9384 -0.7396 -0.3278
  112DMF     C1 1822   3.289   1.267   1.547  0.0769  0.0015  0.1047
  112DMF     N1 1823   3.232   1.401   1.521  0.2433  0.2198 -0.5238
  112DMF     C2 1824   3.085   1.416   1.500 -0.3155  0.5510 -0.6451
  112DMF     C3 1825   3.306   1.516   1.549 -0.2956 -0.1169  0.3011
  112DMF     O1 1826   3.425   1.519   1.568 -0.6949 -0.0720  0.4434
  112DMF     H1 1827   3.230   1.204   1.614 -1.6770  0.6451 -0.8179
  112DMF     H2 1828   3.394   1.285   1.572  0.0248 -0.8541  0.9983
  112DMF     H3 1829   3.296   1.211   1.453  1.2591  0.8384 -0.3140
  112DMF     H4 1830   3.042   1.505   1.548 -1.9049  0.1364 -1.2594
  112DMF     H5 1831   3.035   1.323   1.529 -1.0596  0.7714 -1.1925
  112DMF     H6 1832   3.077   1.432   1.392 -0.2998 -0.8655 -0.8636
  112DMF     H7 1833   3.246   1.609   1.547 -0.4842 -0.1834  1.9924
  113DMF     C1 1834   2.186   2.316   3.031  0.4199  0.1538 -0.1203
  113DMF     N1 1835   2.265   2.440   3.007  0.6908 -0.0699 -0.4641
  113DMF     C2 1836   2.200   2.572   3.000  0.1656  0.4930 -0.7382
  113DMF     C3 1837   2.405   2.427   3.025 -0.3832 -0.6878 -0.0369
  113DMF     O1 1838   2.464   2.327   3.057 -0.0351  0.3905 -0.1369
  113DMF     H1 1839   2.206   2.281   3.133 -2.7408 -3.6058 -0.6862
  113DMF     H2 1840   2.226   2.234   2.971  2.9047 -0.4455  2.2861
  113DMF     H3 1841   2.077   2.328   3.019  0.1393  1.0017  2.9170
  113DMF     H4 1842   2.091   2.570   3.014  0.1179 -0.4902 -1.1729
  113DMF     H5 1843   2.204   2.614   2.899  0.4878 -2.6605 -2.0917
  113DMF     H6 1844   2.247   2.645   3.067 -0.0657  0.3639 -0.4327
  113DMF     H7 1845   2.471   2.511   2.998  0.8560 -1.4165  0.6513
  114DMF     C1 1846   3.222   1.113   3.213 -0.1631  0.0187 -0.1139
  114DMF     N1 1847   3.274   1.223   3.301  0.2449 -0.4445 -0.3852
  114DMF     C2 1848   3.386   1.300   3.248 -0.4455 -0.0349  0.9828
  114DMF     C3 1849   3.234   1.238   3.438  0.4961 -0.1883  0.3491
  114DMF     O1 1850   3.129   1.185   3.475 -0.7055  0.0012  0.1387
  114DMF     H1 1851   3.122   1.096   3.254 -0.9720  2.6267 -0.9465
  114DMF     H2 1852   3.279   1.020   3.229 -1.2962 -1.3772 -3.6736
  114DMF     H3 1853   3.233   1.120   3.105  0.7684 -0.0740 -0.0281
  114DMF     H4 1854   3.473   1.262   3.303  1.1404 -1.0957 -2.1362
  114DMF     H5 1855   3.374   1.407   3.271 -2.5995 -0.0376 -0.0126
  114DMF     H6 1856   3.394   1.293   3.139 -0.6099 -0.2007  0.9821
  114DMF     H7 1857   3.308   1.292   3.500  1.4132 -1.1298  0.0903
  115DMF     C1 1858   0.408   2.168   2.782  0.1518 -0.9131  0.1174
  115DMF     N1 1859   0.408   2.104   2.650 -0.1578  0.7098  0.1691
  115DMF     C2 1860   0.490   2.165   2.543  0.0367  0.5948 -0.2223
  115DMF     C3 1861   0.355   1.973   2.636 -0.4326  0.5984  0.4208
  115DMF     O1 1862   0.278   1.930   2.721  0.2589  0.3031  0.2801
  115DMF     H1 1863   0.335   2.128   2.853  1.2486 -1.0737  1.1795
  115DMF     H2 1864   0.392   2.276   2.772 -1.4456 -0.9343  2.1773
  115DMF     H3 1865   0.504   2.146   2.831  0.0865 -0.1877  0.5849
  115DMF     H4 1866   0.491   2.104   2.452  0.1711 -0.6703  0.5986
  115DMF     H5 1867   0.596   2.170   2.574 -0.2895 -1.0928  1.2789
  115DMF     H6 1868   0.464   2.270   2.529  1.0674  1.0564  1.1304
  115DMF     H7 1869   0.383   1.924   2.541  0.2050 -0.9155  1.3805
  116DMF     C1 1870   0.322   3.201   0.629  0.2012 -0.2178 -0.7025
  116DMF     N1 1871   0.342   3.148   0.492 -0.2492  0.3377 -0.6033
  116DMF     C2 1872   0.481   3.134   0.450 -0.0517  0.2972 -0.4142
  116DMF     C3 1873   0.239   3.113   0.412  0.1413  0.1798 -0.4386
  116DMF     O1 1874   0.122   3.142   0.448 -0.0721  0.5480 -0.1345
  116DMF     H1 1875   0.241   3.275   0.633 -0.1541 -0.6734  0.8626
  116DMF     H2 1876   0.414   3.252   0.659  0.3003 -1.1799  0.6961
  116DMF     H3 1877   0.295   3.129   0.707 -0.7468 -0.7443 -1.5038
  116DMF     H4 1878   0.554   3.162   0.526 -2.0902  0.9668  1.3436
  116DMF     H5 1879   0.486   3.200   0.362  0.4978 -0.3974 -0.9036
  116DMF     H6 1880   0.513   3.034   0.419  0.2213 -0.2136  1.4724
  116DMF     H7 1881   0.272   3.058   0.322 -1.1677 -2.8496  0.8581
  117DMF     C1 1882   1.944   2.629   2.747 -0.3416  0.4169  0.4303
  117DMF     N1 1883   1.845   2.516   2.732 -0.6080 -0.3689  0.1171
  117DMF     C2 1884   1.890   2.385   2.669 -0.4937 -0.7011 -0.1324
  117DMF     C3 1885   1.717   2.530   2.787 -0.0631 -0.8051 -0.4373
  117DMF     O1 1886   1.676   2.642   2.830 -0.2436  0.0966 -0.3399
  117DMF     H1 1887   2.036   2.626   2.687 -0.2617  0.4748  0.5490
  117DMF     H2 1888   1.974   2.635   2.852 -0.6877  0.6681  0.5170
  117DMF     H3 1889   1.900   2.729   2.732  0.2848  0.8767  1.5461
  117DMF     H4 1890   1.795   2.330   2.674 -2.5246  2.4451 -1.9616
  117DMF     H5 1891   1.976   2.347   2.725 -0.2780 -1.8526 -1.2257
  117DMF     H6 1892   1.914   2.412   2.565 -1.7063  0.1707 -0.2100
  117DMF     H7 1893   1.652   2.441   2.783  0.1161 -0.8455 -3.9286
  118DMF     C1 1894   3.364   1.731   1.109  0.0410 -0.1394 -0.1672
  118DMF     N1 1895   3.222   1.765   1.075 -1.2074  0.0950  0.5037
  118DMF     C2 1896   3.206   1.833   0.947  0.7225  0.2499  0.4965
  118DMF     C3 1897   3.120   1.757   1.168 -0.0840 -0.0565 -0.0083
  118DMF     O1 1898   3.131   1.729   1.288  0.1180 -0.5025  0.5297
  118DMF     H1 1899   3.430   1.819   1.110  0.6294 -0.5859  0.5467
  118DMF     H2 1900   3.398   1.666   1.028 -3.0012  0.7979 -2.2805
  118DMF     H3 1901   3.361   1.690   1.210 -0.3270  1.7550  0.6156
  118DMF     H4 1902   3.100   1.839   0.917  1.0881 -0.0410 -0.8746
  118DMF     H5 1903   3.268   1.786   0.870 -1.3705 -0.5703 -0.7312
  118DMF     H6 1904   3.235   1.938   0.958 -3.6919  1.6304  0.1690
  118DMF     H7 1905   3.022   1.772   1.119 -0.2695 -0.2701  0.2992
  119DMF     C1 1906   2.973   2.692   1.362  0.3864 -0.0983 -0.4955
  119DMF     N1 1907   3.041   2.568   1.405 -0.3116  0.2929  0.5097
  119DMF     C2 1908   3.036   2.524   1.549 -0.3170  0.3344 -0.1526
  119DMF     C3 1909   3.096   2.478   1.313  0.4522  0.0711  1.1388
  119DMF     O1 1910   3.094   2.502   1.189 -0.0591 -0.1143 -0.6845
  119DMF     H1 1911   3.009   2.721   1.263  1.8855  0.3583  0.1565
  119DMF     H2 1912   3.003   2.777   1.425 -0.4618 -0.4294  0.3700
  119DMF     H3 1913   2.865   2.674   1.365  0.4356 -0.6755 -2.1533
  119DMF     H4 1914   3.130   2.478   1.582 -0.2449  0.7829  0.2830
  119DMF     H5 1915   2.961   2.447   1.567  0.2439  0.0678  1.1023
  119DMF     H6 1916   3.028   2.615   1.611  1.7051 -0.3431  1.1604
  119DMF     H7 1917   3.134   2.385   1.359  0.1541 -0.8176 -0.3541
  120DMF     C1 1918   2.411   3.368   1.045 -0.2583  0.2419  0.2546
  120DMF     N1 1919   2.412   3.269   1.149  0.0087  0.4707  0.5386
  120DMF     C2 1920   2.286   3.193   1.163 -0.0210 -0.4583  0.4124
  120DMF     C3 1921   2.530   3.240   1.217  0.0671 -0.0225  0.0470
  120DMF     O1 1922   2.626   3.307   1.200 -0.1348 -0.2645 -0.3983
  120DMF     H1 1923   2.360   3.458   1.082  0.5385  0.6916  0.2871
  120DMF     H2 1924   2.357   3.329   0.959  1.7718 -1.5243 -0.2647
  120DMF     H3 1925   2.514   3.396   1.020  0.0292 -2.3257 -1.5642
  120DMF     H4 1926   2.263   3.185   1.269  0.6657  2.2874  0.8223
  120DMF     H5 1927   2.306   3.090   1.130  0.2745  0.0759 -1.1610
  120DMF     H6 1928   2.202   3.238   1.107 -0.2857  0.3086  1.4176
  120DMF     H7 1929   2.515   3.166   1.298  3.6326  0.6280  1.4160
  121DMF     C1 1930   0.234   2.540   2.307  0.3086  0.3070 -0.0848
  121DMF     N1 1931   0.364   2.465   2.281  0.1536  0.2569  0.4751
  121DMF     C2 1932   0.355   2.317   2.251  0.0307 -0.1900 -0.3831
  121DMF     C3 1933   0.481   2.527   2.243  0.2361  0.5659 -0.1501
  121DMF     O1 1934   0.496   2.643   2.218 -0.4309 -0.4658 -0.4684
  121DMF     H1 1935   0.221   2.616   2.228 -1.6903  1.6046  1.4415
  121DMF     H2 1936   0.239   2.581   2.409 -0.0525 -1.2766  0.5829
  121DMF     H3 1937   0.143   2.479   2.304  0.6063 -0.1149 -0.6591
  121DMF     H4 1938   0.335   2.303   2.144 -0.0831 -2.1946 -0.1208
  121DMF     H5 1939   0.277   2.279   2.318 -0.9392  0.7760 -0.9393
  121DMF     H6 1940   0.450   2.269   2.277  1.5935  3.4870  0.9911
  121DMF     H7 1941   0.559   2.452   2.222 -1.3373 -1.4141  0.9514
  122DMF     C1 1942   2.003   2.655   0.655  0.1424 -1.0433  0.7599
  122DMF     N1 1943   2.074   2.629   0.526 -0.1709 -0.4588 -0.4777
  122DMF     C2 1944   2.223   2.628   0.510  0.4057  0.3797 -0.5160
  122DMF     C3 1945   2.004   2.638   0.400 -0.3121 -0.3819  0.9868
  122DMF     O1 1946   1.886   2.671   0.386  1.2876 -0.5475  0.5056
  122DMF     H1 1947   2.024   2.578   0.730 -1.4476 -0.8895  1.4039
  122DMF     H2 1948   1.894   2.656   0.641  0.2508  0.6632 -0.1292
  122DMF     H3 1949   2.033   2.750   0.701 -0.6420 -1.0807  1.3620
  122DMF     H4 1950   2.246   2.556   0.431  0.7007  0.2765 -0.3369
  122DMF     H5 1951   2.268   2.600   0.606 -0.6350 -1.4273 -0.5473
  122DMF     H6 1952   2.266   2.720   0.469  2.0698 -0.0851  0.1503
  122DMF     H7 1953   2.067   2.621   0.311 -0.6891 -0.0624  0.6574
  123DMF     C1 1954   0.853   0.306   3.192  0.2787  1.3202  0.3477
  123DMF     N1 1955   0.734   0.218   3.200 -0.8018  0.3592  0.5419
  123DMF     C2 1956   0.630   0.261   3.301  1.0437 -0.1908 -0.0242
  123DMF     C3 1957   0.709   0.110   3.109 -0.2911 -0.3512  0.7013
  123DMF     O1 1958   0.783   0.082   3.018 -0.1446 -0.2041  0.2488
  123DMF     H1 1959   0.863   0.371   3.280  2.3778 -0.1183  1.2076
  123DMF     H2 1960   0.859   0.365   3.100  1.6394 -2.8732 -2.4026
  123DMF     H3 1961   0.941   0.241   3.199 -0.0603  0.8876  0.6165
  123DMF     H4 1962   0.666   0.264   3.405 -0.7264 -0.1138  0.5989
  123DMF     H5 1963   0.546   0.191   3.303  2.0962 -1.4499  0.9741
  123DMF     H6 1964   0.599   0.361   3.269  1.3534 -0.0954 -0.0252
  123DMF     H7 1965   0.618   0.053   3.136 -0.0391 -0.9414  0.3025
  124DMF     C1 1966   2.136   1.368   3.588 -0.0398  0.0982  0.4088
  124DMF     N1 1967   2.108   1.224   3.584  0.3562  0.6867 -0.2636
  124DMF     C2 1968   2.139   1.150   3.705 -0.9167 -0.2153 -0.1773
  124DMF     C3 1969   2.052   1.162   3.472  0.5857  0.2550 -0.3401
  124DMF     O1 1970   2.014   1.230   3.379  0.2394  0.5105  0.4249
  124DMF     H1 1971   2.158   1.408   3.488 -1.2796 -1.0308 -0.3512
  124DMF     H2 1972   2.223   1.391   3.650  0.3123 -1.1951  0.4161
  124DMF     H3 1973   2.054   1.414   3.645 -0.0105  0.7552 -0.0666
  124DMF     H4 1974   2.214   1.074   3.680 -0.5396  0.5386 -1.3424
  124DMF     H5 1975   2.043   1.111   3.742 -0.9770  1.3743  1.4103
  124DMF     H6 1976   2.179   1.213   3.786  2.8000 -0.7960 -1.4478
  124DMF     H7 1977   2.039   1.053   3.483  2.8526  0.1541  1.6431
  125DMF     C1 1978   2.767   2.140   0.150 -0.1864 -0.0101  0.1550
  125DMF     N1 1979   2.727   2.023   0.221 -0.2053  1.0422 -0.0720
  125DMF     C2 1980   2.585   2.002   0.263  0.5016 -0.7049  0.1884
  125DMF     C3 1981   2.810   1.913   0.237 -0.3538  0.2708 -0.0026
  125DMF     O1 1982   2.929   1.908   0.198  0.5570  0.5269  0.1706
  125DMF     H1 1983   2.825   2.108   0.063  1.0152 -0.3583  1.0759
  125DMF     H2 1984   2.840   2.189   0.215  0.0608  0.3394 -0.3801
  125DMF     H3 1985   2.683   2.207   0.127  0.6708  1.6519  1.7395
  125DMF     H4 1986   2.528   2.095   0.278 -0.8410 -1.2750 -1.1948
  125DMF     H5 1987   2.584   1.939   0.352 -0.9085  1.0913  1.4809
  125DMF     H6 1988   2.548   1.945   0.177  1.9754  0.2463 -1.0935
  125DMF     H7 1989   2.763   1.821   0.278 -3.6483  1.5177 -0.7907
  126DMF     C1 1990   0.933   2.899   1.494  0.0282  0.4001  0.4553
  126DMF     N1 1991   0.957   3.038   1.541 -0.1681 -0.2231 -0.1738
  126DMF     C2 1992   0.840   3.137   1.536  0.3581 -0.1974  0.1288
  126DMF     C3 1993   1.080   3.072   1.596 -0.5749 -0.1036 -0.2141
  126DMF     O1 1994   1.169   2.990   1.602 -0.0889  0.0709 -0.0529
  126DMF     H1 1995   0.918   2.826   1.575  0.7146  0.0769  0.3053
  126DMF     H2 1996   1.018   2.860   1.437 -0.0123  1.0554 -0.0472
  126DMF     H3 1997   0.840   2.897   1.437  0.2973 -0.5962  0.0309
  126DMF     H4 1998   0.842   3.203   1.624  0.5537 -0.2174  0.1397
  126DMF     H5 1999   0.740   3.094   1.520 -0.5084  1.9754 -0.4464
  126DMF     H6 2000   0.852   3.206   1.451 -0.7812 -0.1327  0.0188
  126DMF     H7 2001   1.090   3.177   1.629 -0.1170 -0.0352 -0.5665
  127DMF     C1 2002   0.126   2.949   2.527  0.5304 -0.4382  0.7410
  127DMF     N1 2003   0.031   2.919   2.639 -0.1977 -0.2248 -0.0446
  127DMF     C2 2004  -0.091   2.992   2.657  0.0978  0.7173 -0.3531
  127DMF     C3 2005   0.060   2.803   2.716 -0.5751 -0.5335  0.1832
  127DMF     O1 2006   0.157   2.731   2.706 -0.6501 -0.1673 -0.7346
  127DMF     H1 2007   0.166   2.855   2.486  1.4841  0.9357 -1.5936
  127DMF     H2 2008   0.207   3.009   2.571 -0.1496  0.5395  0.6750
  127DMF     H3 2009   0.074   2.998   2.444 -1.0965 -0.1914  1.8686
  127DMF     H4 2010  -0.092   3.076   2.586 -0.4845  0.5459 -0.5552
  127DMF     H5 2011  -0.108   3.032   2.758 -0.1304 -3.2216  1.2734
  127DMF     H6 2012  -0.181   2.933   2.636  1.3817 -0.3084 -3.3016
  127DMF     H7 2013  -0.020   2.781   2.790  0.3175 -0.6377  1.1291
  128DMF     C1 2014   1.351   1.136   1.571  0.5660 -0.1034 -0.1229
  128DMF     N1 2015   1.229   1.053   1.574  0.0464  0.2656 -0.2570
  128DMF     C2 2016   1.100   1.123   1.547  0.2727 -0.2309  0.8658
  128DMF     C3 2017   1.240   0.915   1.591  0.3446  0.1265 -0.1515
  128DMF     O1 2018   1.351   0.864   1.603 -0.5268  0.5275 -0.6296
  128DMF     H1 2019   1.381   1.169   1.671  1.3510 -0.9507 -0.0737
  128DMF     H2 2020   1.325   1.218   1.502 -2.2583 -0.8771 -0.0595
  128DMF     H3 2021   1.435   1.088   1.520  0.9399  0.7739 -0.3370
  128DMF     H4 2022   1.027   1.061   1.600  0.1552 -0.1463  0.8045
  128DMF     H5 2023   1.072   1.126   1.441 -0.8500 -0.6609  1.1386
  128DMF     H6 2024   1.095   1.224   1.588 -0.6484  0.5999 -1.1966
  128DMF     H7 2025   1.146   0.859   1.576  0.1403  0.7930 -1.3848
  129DMF     C1 2026   2.598   0.824   2.295  0.1391 -0.9988  0.3926
  129DMF     N1 2027   2.476   0.755   2.256 -0.1879  0.3647 -0.5283
  129DMF     C2 2028   2.350   0.829   2.261  0.2288 -0.0282  0.0669
  129DMF     C3 2029   2.482   0.619   2.211 -0.8216  0.2778 -0.5951
  129DMF     O1 2030   2.583   0.553   2.213 -0.1670  1.0421 -0.3312
  129DMF     H1 2031   2.638   0.788   2.391  0.4064 -1.0474  0.2633
  129DMF     H2 2032   2.579   0.928   2.324  0.1040 -1.1606  0.9622
  129DMF     H3 2033   2.677   0.819   2.219  0.9355  0.4893  1.0851
  129DMF     H4 2034   2.358   0.929   2.217 -0.9130 -0.9204 -2.2427
  129DMF     H5 2035   2.301   0.841   2.359  1.0203  1.3305  0.3162
  129DMF     H6 2036   2.270   0.774   2.210 -2.3288  1.4352  2.3425
  129DMF     H7 2037   2.381   0.586   2.179 -1.1579 -1.2694  1.8790
  130DMF     C1 2038   0.636   0.867   2.799  0.3389  0.3034  0.7973
  130DMF     N1 2039   0.542   0.970   2.767  0.7149 -0.4827  0.3387
  130DMF     C2 2040   0.398   0.932   2.790 -0.1938 -0.5589  0.2486
  130DMF     C3 2041   0.572   1.091   2.712  0.1336 -0.0547  0.6883
  130DMF     O1 2042   0.685   1.110   2.664  0.0265  0.9017  0.2606
  130DMF     H1 2043   0.608   0.778   2.740  0.6295  0.1383  0.9052
  130DMF     H2 2044   0.643   0.841   2.906 -0.8545 -0.6850  0.6490
  130DMF     H3 2045   0.736   0.897   2.763 -0.6437  2.5992 -0.0854
  130DMF     H4 2046   0.346   0.940   2.694  2.6891  0.3191 -1.3185
  130DMF     H5 2047   0.360   0.988   2.877 -0.4565 -0.5663  0.1373
  130DMF     H6 2048   0.398   0.826   2.818  1.2665 -1.1806 -1.9766
  130DMF     H7 2049   0.486   1.160   2.715 -0.0285 -0.2490  0.5135
  131DMF     C1 2050   2.153   3.231   2.285  0.5800  0.1328 -0.6230
  131DMF     N1 2051   2.017   3.293   2.331  0.0533  0.1180  0.9186
  131DMF     C2 2052   1.910   3.317   2.235  0.2044 -0.2401 -0.6871
  131DMF     C3 2053   2.012   3.344   2.465  0.3765  0.3042  0.2233
  131DMF     O1 2054   2.095   3.324   2.550 -0.3833 -0.2218 -0.0311
  131DMF     H1 2055   2.178   3.252   2.181  1.8991  0.2222 -0.3020
  131DMF     H2 2056   2.149   3.122   2.288 -1.1262  0.1865 -0.2322
  131DMF     H3 2057   2.233   3.275   2.347 -0.1948  1.0024 -0.2271
  131DMF     H4 2058   1.916   3.422   2.205 -2.4984  0.2042  0.1717
  131DMF     H5 2059   1.813   3.289   2.278  0.7411 -1.7638 -0.4145
  131DMF     H6 2060   1.920   3.250   2.149 -1.5877  0.0897 -1.1874
  131DMF     H7 2061   1.931   3.417   2.479  1.0048  1.2284 -0.8840
  132DMF     C1 2062   2.612   2.595   3.326  0.2076 -0.1230 -0.2163
  132DMF     N1 2063   2.684   2.678   3.223  0.2850 -0.0522 -0.4850
  132DMF     C2 2064   2.833   2.681   3.212 -0.2911 -0.7383  0.2173
  132DMF     C3 2065   2.615   2.790   3.159  0.2357  0.4345  0.2369
  132DMF     O1 2066   2.494   2.796   3.166 -0.0419  0.3176  0.2775
  132DMF     H1 2067   2.680   2.560   3.404 -0.7663 -0.2733  0.5766
  132DMF     H2 2068   2.576   2.505   3.274 -0.5268 -0.5899  1.0934
  132DMF     H3 2069   2.526   2.652   3.363  0.8682  1.2643 -0.7590
  132DMF     H4 2070   2.867   2.784   3.226  2.4431 -1.5272 -0.3064
  132DMF     H5 2071   2.866   2.653   3.111 -0.8039  1.2515 -0.5289
  132DMF     H6 2072   2.866   2.604   3.283 -0.1494 -0.5061  0.4020
  132DMF     H7 2073   2.676   2.856   3.094  1.2528 -0.0046  0.7436
  133DMF     C1 2074   1.356   3.225   3.190 -0.7162 -0.3240  0.0358
  133DMF     N1 2075   1.428   3.236   3.068 -0.0276  1.1119  0.3527
  133DMF     C2 2076   1.407   3.353   2.983  0.5069 -0.1432  0.7378
  133DMF     C3 2077   1.548   3.157   3.044  0.3890  0.8617 -0.3583
  133DMF     O1 2078   1.597   3.075   3.126  0.3349 -0.8722 -0.1872
  133DMF     H1 2079   1.358   3.132   3.248 -2.2928  0.0991  0.8053
  133DMF     H2 2080   1.251   3.251   3.168 -1.0349 -0.0435  1.7782
  133DMF     H3 2081   1.398   3.304   3.254 -0.8364 -1.0133  0.9598
  133DMF     H4 2082   1.427   3.322   2.879  0.5961  1.3124  0.3119
  133DMF     H5 2083   1.478   3.431   3.011 -0.2743  0.7626  0.2165
  133DMF     H6 2084   1.302   3.382   2.989  0.3246 -0.3871 -0.8787
  133DMF     H7 2085   1.587   3.162   2.940  0.3809 -1.5328 -0.5095
  134DMF     C1 2086   1.997   2.113   1.230 -0.4158  0.1140  0.1243
  134DMF     N1 2087   1.881   2.036   1.179  0.0449  0.5105 -0.1403
  134DMF     C2 2088   1.907   1.944   1.072 -0.3238  0.4586  0.7940
  134DMF     C3 2089   1.750   2.059   1.215 -0.3499  0.3601  0.0522
  134DMF     O1 2090   1.714   2.110   1.322  0.4297  0.1987  0.3985
  134DMF     H1 2091   1.975   2.178   1.316  1.8469  1.1031 -0.0130
  134DMF     H2 2092   2.050   2.162   1.148 -3.2913  0.4273 -1.6318
  134DMF     H3 2093   2.066   2.036   1.266 -0.1155 -0.3833 -1.4605
  134DMF     H4 2094   1.982   1.866   1.093 -0.5146 -0.3375 -1.3413
  134DMF     H5 2095   1.935   2.007   0.986 -3.0679 -0.0098 -0.5028
  134DMF     H6 2096   1.817   1.901   1.026 -1.6499  3.2726  0.6832
  134DMF     H7 2097   1.670   2.012   1.156  1.5164  0.3585 -2.5517
  135DMF     C1 2098   1.897   0.794   2.295 -0.3086 -0.3816 -0.3609
  135DMF     N1 2099   1.886   0.647   2.277  0.2455 -0.0001 -1.0117
  135DMF     C2 2100   1.750   0.590   2.288  0.6555 -0.2136 -0.3622
  135DMF     C3 2101   1.999   0.566   2.265  0.0460 -0.2471 -0.1479
  135DMF     O1 2102   2.110   0.614   2.286  0.0412  0.5876  0.0866
  135DMF     H1 2103   1.824   0.842   2.229 -0.9289  1.8253  1.8657
  135DMF     H2 2104   1.993   0.841   2.271 -1.5508  1.7917 -1.1660
  135DMF     H3 2105   1.869   0.824   2.397  1.0395 -3.5868  1.0358
  135DMF     H4 2106   1.712   0.534   2.201 -1.4680  0.3112  0.1908
  135DMF     H5 2107   1.679   0.663   2.328 -1.1759 -2.4947  0.6636
  135DMF     H6 2108   1.737   0.518   2.370  1.3281  0.2985  0.1913
  135DMF     H7 2109   1.979   0.461   2.235 -2.5763 -0.0615  0.8996
  136DMF     C1 2110   2.767   0.601   3.596  0.0047 -0.3754 -0.6337
  136DMF     N1 2111   2.903   0.635   3.539 -0.4032  0.2140  0.8383
  136DMF     C2 2112   2.991   0.715   3.626 -0.0418 -0.4433  0.1154
  136DMF     C3 2113   2.943   0.583   3.413  0.2846  0.3647 -0.0174
  136DMF     O1 2114   2.882   0.513   3.338 -0.2392 -0.0749 -0.2790
  136DMF     H1 2115   2.689   0.627   3.524  0.7014  1.4274 -0.7694
  136DMF     H2 2116   2.750   0.641   3.697 -2.6101 -1.5588 -0.5790
  136DMF     H3 2117   2.771   0.492   3.608 -1.0741 -0.6287 -2.5670
  136DMF     H4 2118   3.034   0.649   3.702  0.8452 -0.6563 -0.5548
  136DMF     H5 2119   2.929   0.791   3.675 -0.9672 -1.3341  0.3223
  136DMF     H6 2120   3.070   0.753   3.559 -1.5513  0.6592 -1.0576
  136DMF     H7 2121   3.032   0.631   3.371  0.4009  0.6536  0.5574
  137DMF     C1 2122   0.209   3.032   2.895  0.0597 -0.1316  0.4500
  137DMF     N1 2123   0.273   3.111   3.003  0.4050 -1.0020  0.2905
  137DMF     C2 2124   0.421   3.094   3.018 -0.5389 -0.0628 -0.1623
  137DMF     C3 2125   0.214   3.184   3.100  0.3648 -0.0391  0.2906
  137DMF     O1 2126   0.095   3.214   3.094  0.0153  0.4179  0.8989
  137DMF     H1 2127   0.223   2.926   2.919 -0.7811 -0.5916 -1.0043
  137DMF     H2 2128   0.264   3.049   2.801 -1.7895 -3.4780 -1.3459
  137DMF     H3 2129   0.102   3.052   2.880 -0.5790 -3.9331 -0.7423
  137DMF     H4 2130   0.457   3.022   2.943  0.2763 -2.0092  2.0228
  137DMF     H5 2131   0.432   3.045   3.116  1.1332  0.2587 -0.1869
  137DMF     H6 2132   0.468   3.192   3.015  0.1607 -0.4254 -1.1782
  137DMF     H7 2133   0.274   3.199   3.191 -1.2577 -0.1404  1.4120
  138DMF     C1 2134   2.311   0.192   2.281  0.3360  1.1319  0.3868
  138DMF     N1 2135   2.399   0.271   2.366 -0.1290 -0.1685  0.4522
  138DMF     C2 2136   2.337   0.365   2.459 -0.6860  0.1206  0.4271
  138DMF     C3 2137   2.538   0.257   2.360 -0.5944  0.0875  0.1297
  138DMF     O1 2138   2.597   0.163   2.306 -0.7135 -0.2483 -0.7619
  138DMF     H1 2139   2.287   0.243   2.187  1.2703  0.5156 -0.1863
  138DMF     H2 2140   2.214   0.178   2.331 -0.5243 -0.5196 -1.6418
  138DMF     H3 2141   2.354   0.095   2.253 -0.0105  1.0634  0.0793
  138DMF     H4 2142   2.307   0.452   2.400 -0.0936 -1.1555 -1.7949
  138DMF     H5 2143   2.413   0.396   2.532 -1.4136  1.0004  0.8208
  138DMF     H6 2144   2.259   0.315   2.518 -0.0164 -0.1746  1.0807
  138DMF     H7 2145   2.597   0.332   2.415 -1.1395  0.3280  0.3971
  139DMF     C1 2146   2.764   3.297   3.347  0.3170 -0.5201  0.0723
  139DMF     N1 2147   2.765   3.287   3.199  0.1743 -0.3272 -0.1389
  139DMF     C2 2148   2.780   3.416   3.125  0.8719  0.4472 -0.0916
  139DMF     C3 2149   2.780   3.162   3.129 -0.5594 -0.6768  0.5467
  139DMF     O1 2150   2.773   3.058   3.196 -0.4093  0.3136 -0.5954
  139DMF     H1 2151   2.864   3.326   3.382  0.6239 -0.0790 -1.1708
  139DMF     H2 2152   2.726   3.206   3.395 -1.4359 -0.1282 -0.5299
  139DMF     H3 2153   2.689   3.369   3.382 -0.3110 -1.0555 -0.1696
  139DMF     H4 2154   2.884   3.450   3.120  1.2361 -0.8029 -1.0030
  139DMF     H5 2155   2.720   3.490   3.180 -0.4891 -0.2254 -0.6631
  139DMF     H6 2156   2.748   3.401   3.021  1.9214  1.9061 -0.6489
  139DMF     H7 2157   2.795   3.163   3.020 -2.9761 -0.4756  0.1783
  140DMF     C1 2158   3.285   0.306   2.645 -0.5563  0.3688  0.1125
  140DMF     N1 2159   3.357   0.377   2.755  0.3955 -0.0964 -0.2001
  140DMF     C2 2160   3.468   0.307   2.816 -1.0497  0.2044 -0.3376
  140DMF     C3 2161   3.313   0.499   2.808 -0.1069  0.3143 -0.2680
  140DMF     O1 2162   3.220   0.558   2.765  0.1090 -0.0895  0.2732
  140DMF     H1 2163   3.177   0.296   2.662 -0.3800 -0.6050  0.7254
  140DMF     H2 2164   3.326   0.204   2.635 -0.3449  0.1155  3.1140
  140DMF     H3 2165   3.301   0.356   2.549 -0.8316  0.7825  0.2846
  140DMF     H4 2166   3.491   0.218   2.756 -0.7815 -1.8131  2.6403
  140DMF     H5 2167   3.439   0.273   2.917 -2.9133 -1.4448 -1.4031
  140DMF     H6 2168   3.559   0.368   2.826 -1.5238  0.8138  0.3188
  140DMF     H7 2169   3.378   0.534   2.891 -1.4603  0.7061  0.6459
  141DMF     C1 2170   1.910   1.905   1.553  0.7590  0.4342 -0.0478
  141DMF     N1 2171   1.845   1.775   1.560  0.2527  0.4618 -0.0431
  141DMF     C2 2172   1.696   1.770   1.551  0.2446 -0.2421  0.4213
  141DMF     C3 2173   1.916   1.649   1.573  0.6027  0.3217  0.2071
  141DMF     O1 2174   2.037   1.646   1.578  0.2112  0.0997  0.1376
  141DMF     H1 2175   1.943   1.938   1.454  2.4425  0.4168  0.4828
  141DMF     H2 2176   1.995   1.908   1.622  0.7206 -1.8424  0.1424
  141DMF     H3 2177   1.846   1.983   1.597 -1.3287 -1.2559 -0.0159
  141DMF     H4 2178   1.669   1.711   1.463  1.1679  0.6514 -0.4713
  141DMF     H5 2179   1.653   1.870   1.538  0.1623 -0.5097 -1.4374
  141DMF     H6 2180   1.654   1.710   1.633  1.5190 -0.9466  0.5606
  141DMF     H7 2181   1.847   1.563   1.565  1.1548 -0.1937  0.8622
  142DMF     C1 2182   1.294   2.734   1.494  0.5338 -0.2704  0.0483
  142DMF     N1 2183   1.261   2.698   1.357  0.5798  0.4952  0.3490
  142DMF     C2 2184   1.336   2.748   1.246  0.1700  0.3516  0.5497
  142DMF     C3 2185   1.158   2.602   1.343 -0.1651  0.7318  0.0234
  142DMF     O1 2186   1.097   2.553   1.433 -0.2024  0.0272 -0.6472
  142DMF     H1 2187   1.201   2.749   1.549  1.1501  2.9136  0.3428
  142DMF     H2 2188   1.346   2.831   1.498 -1.9587  1.1010  0.1537
  142DMF     H3 2189   1.351   2.653   1.542 -0.5172  0.1948  2.1331
  142DMF     H4 2190   1.389   2.838   1.280 -0.8031  0.2061  2.5277
  142DMF     H5 2191   1.264   2.788   1.173  0.2722  0.5031  0.5307
  142DMF     H6 2192   1.412   2.677   1.213  0.0047  0.3059  0.2704
  142DMF     H7 2193   1.128   2.585   1.238  1.4160  2.7011 -0.7801
  143DMF     C1 2194   2.419   1.598   2.805  0.6480 -0.5630 -0.1016
  143DMF     N1 2195   2.351   1.574   2.675  0.0290 -0.2066 -0.6703
  143DMF     C2 2196   2.313   1.690   2.598  0.5252 -0.2341 -0.5252
  143DMF     C3 2197   2.314   1.440   2.641  0.0208 -1.0450  0.2154
  143DMF     O1 2198   2.360   1.342   2.700  0.2598  0.2738 -0.0113
  143DMF     H1 2199   2.510   1.658   2.790  2.2501 -2.5003  1.6266
  143DMF     H2 2200   2.455   1.505   2.852  0.9126 -1.2025 -1.5250
  143DMF     H3 2201   2.353   1.637   2.883  0.0182  1.0726 -1.4287
  143DMF     H4 2202   2.396   1.760   2.583 -0.8679  1.2747 -1.2511
  143DMF     H5 2203   2.238   1.738   2.662 -0.0616 -1.1572 -0.5136
  143DMF     H6 2204   2.283   1.661   2.497  0.4704  0.5707 -0.7372
  143DMF     H7 2205   2.242   1.422   2.559 -0.6550 -1.4265  0.8824
  144DMF     C1 2206   2.032   2.278   0.749  0.2944  0.3614 -0.1232
  144DMF     N1 2207   1.972   2.183   0.658  0.1295 -0.0768  0.4181
  144DMF     C2 2208   2.029   2.169   0.524 -0.2872  0.6634 -0.1999
  144DMF     C3 2209   1.868   2.106   0.698 -0.0563 -0.1512 -0.2957
  144DMF     O1 2210   1.803   2.124   0.797 -0.6664 -0.1665  0.3161
  144DMF     H1 2211   2.126   2.315   0.708 -0.7863  1.9818 -1.1777
  144DMF     H2 2212   2.060   2.223   0.840  2.8863  0.5884 -0.7538
  144DMF     H3 2213   1.963   2.360   0.771  1.0476  0.7047  0.9534
  144DMF     H4 2214   2.067   2.266   0.490  3.1623 -0.2606  0.8987
  144DMF     H5 2215   1.971   2.121   0.443 -0.8436  0.8521  0.0806
  144DMF     H6 2216   2.125   2.117   0.523 -0.5676  0.1399 -1.0774
  144DMF     H7 2217   1.839   2.029   0.624 -3.0137  0.5440  0.0647
  145DMF     C1 2218   2.417   0.283   0.438  0.2019 -0.0958  0.2247
  145DMF     N1 2219   2.364   0.401   0.504  0.2894 -0.1949 -0.1309
  145DMF     C2 2220   2.396   0.429   0.640 -0.3423  0.2347 -0.3516
  145DMF     C3 2221   2.282   0.491   0.436  0.4269  0.0615  0.4965
  145DMF     O1 2222   2.263   0.486   0.310 -0.6927 -0.1208  0.3763
  145DMF     H1 2223   2.382   0.188   0.480  0.1479 -0.7075 -1.1927
  145DMF     H2 2224   2.526   0.290   0.436  0.1430  0.9490 -3.6208
  145DMF     H3 2225   2.382   0.277   0.334  0.8836 -1.0151  0.0364
  145DMF     H4 2226   2.488   0.375   0.665 -1.8870 -1.9657  0.7979
  145DMF     H5 2227   2.321   0.390   0.711 -0.8561  2.1059  0.1483
  145DMF     H6 2228   2.398   0.533   0.675 -1.5768  0.5966 -1.3177
  145DMF     H7 2229   2.251   0.579   0.495  0.6113  1.2481 -1.1318
  146DMF     C1 2230   0.971   3.264   2.447 -0.2919  0.2437  0.5597
  146DMF     N1 2231   1.022   3.389   2.388  0.4814 -0.4268  0.2565
  146DMF     C2 2232   1.117   3.381   2.277  0.1186  0.5206 -0.1227
  146DMF     C3 2233   0.983   3.514   2.433 -0.0856 -0.4642  0.0337
  146DMF     O1 2234   0.906   3.517   2.526  0.5044 -0.2671  0.1317
  146DMF     H1 2235   0.870   3.245   2.408 -0.1836 -0.5815  0.6660
  146DMF     H2 2236   0.969   3.270   2.556  2.3278  0.8191  0.6096
  146DMF     H3 2237   1.043   3.184   2.425  0.4192  1.0576 -0.1099
  146DMF     H4 2238   1.216   3.387   2.324 -0.4597  0.6348  1.1199
  146DMF     H5 2239   1.110   3.462   2.203  1.3158  0.6697 -0.0745
  146DMF     H6 2240   1.104   3.286   2.224  0.7618  0.5895 -0.4131
  146DMF     H7 2241   1.029   3.599   2.380  2.5166 -4.2946 -4.1170
  147DMF     C1 2242   2.660   0.728   0.692  0.0668  0.4381  0.8353
  147DMF     N1 2243   2.648   0.769   0.831  0.6873 -0.1971 -0.0151
  147DMF     C2 2244   2.717   0.894   0.872 -0.1326 -0.1717  0.3168
  147DMF     C3 2245   2.612   0.679   0.925  0.2020  0.5067 -0.4847
  147DMF     O1 2246   2.552   0.571   0.908 -0.5899 -0.2081 -0.5069
  147DMF     H1 2247   2.595   0.788   0.627 -0.5783 -0.5430  0.5782
  147DMF     H2 2248   2.635   0.622   0.681 -0.3505  0.9442 -3.7917
  147DMF     H3 2249   2.764   0.743   0.659  0.1417 -0.8874  0.4662
  147DMF     H4 2250   2.708   0.920   0.978 -0.7729  0.0955  0.1996
  147DMF     H5 2251   2.676   0.978   0.814  0.6716 -0.5880 -0.8754
  147DMF     H6 2252   2.824   0.887   0.847 -0.0891 -0.3483  0.5570
  147DMF     H7 2253   2.636   0.714   1.028 -1.9782 -0.6649  0.4412
  148DMF     C1 2254   1.628   0.583   0.501 -0.4080  0.5413  0.2607
  148DMF     N1 2255   1.742   0.478   0.467 -0.8264  0.1850 -0.3741
  148DMF     C2 2256   1.828   0.453   0.582 -0.0190  0.1267 -0.0655
  148DMF     C3 2257   1.757   0.404   0.351  0.0827 -0.6793 -0.1040
  148DMF     O1 2258   1.689   0.427   0.249  0.4061 -0.1091  0.0166
  148DMF     H1 2259   1.638   0.608   0.607  3.5793  2.0334 -0.3698
  148DMF     H2 2260   1.531   0.539   0.474 -0.2598  1.8194 -2.6085
  148DMF     H3 2261   1.658   0.672   0.443 -1.1469  0.2185 -0.6383
  148DMF     H4 2262   1.774   0.472   0.675 -0.3264 -0.2077 -0.1732
  148DMF     H5 2263   1.916   0.518   0.580  0.9425 -0.9869  3.1318
  148DMF     H6 2264   1.861   0.349   0.595  2.2854  0.9236  0.7158
  148DMF     H7 2265   1.827   0.319   0.353  0.7216 -0.1471  0.3321
  149DMF     C1 2266   2.288   0.563   2.822  0.0126  0.6278 -0.1935
  149DMF     N1 2267   2.248   0.685   2.752 -0.1937  0.4205 -0.1407
  149DMF     C2 2268   2.291   0.695   2.606  0.3043  0.4714 -0.3065
  149DMF     C3 2269   2.215   0.795   2.830  0.1816 -0.5273 -0.3538
  149DMF     O1 2270   2.208   0.785   2.954 -0.0101 -0.4958 -0.5069
  149DMF     H1 2271   2.193   0.521   2.856  0.9735 -0.1499  1.6160
  149DMF     H2 2272   2.353   0.585   2.908 -1.5342  0.1029  1.1323
  149DMF     H3 2273   2.342   0.487   2.763 -1.6052  0.1155 -1.0392
  149DMF     H4 2274   2.352   0.607   2.585 -0.9246 -0.1603 -1.3418
  149DMF     H5 2275   2.351   0.786   2.599  3.5546 -1.6491 -1.0057
  149DMF     H6 2276   2.201   0.700   2.543  0.1069 -0.2479 -0.0860
  149DMF     H7 2277   2.188   0.886   2.773 -0.9235 -0.4713  0.2405
  150DMF     C1 2278   1.154   2.419   2.661  0.0427  0.0750  0.1106
  150DMF     N1 2279   1.249   2.489   2.749 -0.9692  0.2338 -0.8898
  150DMF     C2 2280   1.352   2.412   2.815  0.1846 -0.4477  0.3708
  150DMF     C3 2281   1.262   2.621   2.739  0.3719  0.3686  0.3997
  150DMF     O1 2282   1.183   2.696   2.684 -0.2643 -0.6032 -0.1100
  150DMF     H1 2283   1.175   2.439   2.555  0.3871 -2.6578 -0.3733
  150DMF     H2 2284   1.051   2.454   2.671  0.0515  0.2091 -0.2762
  150DMF     H3 2285   1.153   2.310   2.673 -2.4416  0.1626  0.9342
  150DMF     H4 2286   1.448   2.417   2.761  1.0316  0.7397  1.9132
  150DMF     H5 2287   1.319   2.310   2.837 -1.4521  0.4815  2.2765
  150DMF     H6 2288   1.372   2.455   2.914 -2.6912  0.2380  0.6958
  150DMF     H7 2289   1.362   2.645   2.780  0.1995  0.3175  0.8451
  151DMF     C1 2290   1.258   0.537   1.533 -0.0693 -0.0305  0.5189
  151DMF     N1 2291   1.238   0.391   1.544 -0.2557  0.1768  0.0514
  151DMF     C2 2292   1.351   0.296   1.518  0.3089 -0.4161 -0.5046
  151DMF     C3 2293   1.118   0.336   1.588  0.0845 -0.3040 -0.3975
  151DMF     O1 2294   1.019   0.410   1.592 -0.4046  0.3364  0.2029
  151DMF     H1 2295   1.234   0.582   1.630 -0.2411 -0.5617  0.7258
  151DMF     H2 2296   1.200   0.576   1.448 -0.0715 -0.0139  0.5283
  151DMF     H3 2297   1.363   0.562   1.516 -0.2457 -0.2059 -0.8629
  151DMF     H4 2298   1.440   0.359   1.511 -0.5420  0.7864 -0.6693
  151DMF     H5 2299   1.344   0.237   1.425  0.6778 -1.0105 -0.1560
  151DMF     H6 2300   1.356   0.217   1.593  2.1242  0.3221  0.1673
  151DMF     H7 2301   1.120   0.231   1.623 -2.5257  0.4350  2.1243
  152DMF     C1 2302   0.912   1.369   1.184  0.0820  0.0348  0.0162
  152DMF     N1 2303   0.948   1.502   1.138  0.0465 -0.1140 -0.1519
  152DMF     C2 2304   1.064   1.508   1.048 -0.2378  0.2255 -0.2751
  152DMF     C3 2305   0.871   1.621   1.155  0.0592  0.1778  0.0443
  152DMF     O1 2306   0.766   1.621   1.218  0.1239  0.0242  0.1319
  152DMF     H1 2307   0.833   1.364   1.259 -0.4865  1.9896 -0.4315
  152DMF     H2 2308   0.993   1.315   1.234 -0.1025  2.0842  2.6499
  152DMF     H3 2309   0.876   1.303   1.103  1.0540 -0.5982  0.0925
  152DMF     H4 2310   1.098   1.612   1.049  0.6701 -0.0298 -1.8627
  152DMF     H5 2311   1.038   1.483   0.944  0.3259  1.4495 -0.7192
  152DMF     H6 2312   1.141   1.430   1.052  0.3522  0.7221 -1.5028
  152DMF     H7 2313   0.919   1.709   1.108 -0.5520  1.4599  1.7514
  153DMF     C1 2314   3.081   1.588   0.712 -0.1563 -0.6176 -0.5509
  153DMF     N1 2315   3.106   1.460   0.662 -0.1583  0.1566  0.2406
  153DMF     C2 2316   3.190   1.457   0.537 -1.5097 -0.2244  0.6944
  153DMF     C3 2317   3.012   1.362   0.672 -0.1487 -0.3216 -0.0942
  153DMF     O1 2318   2.935   1.352   0.767 -0.3404  0.0837  0.4018
  153DMF     H1 2319   3.069   1.575   0.820 -0.1271  0.6624 -0.3877
  153DMF     H2 2320   2.993   1.632   0.665 -1.4126 -1.5756  0.8824
  153DMF     H3 2321   3.167   1.655   0.700 -0.0945 -0.4440  0.8415
  153DMF     H4 2322   3.293   1.431   0.561 -1.0711 -0.0795 -1.0158
  153DMF     H5 2323   3.201   1.551   0.481 -0.6616 -0.0866  1.0906
  153DMF     H6 2324   3.155   1.382   0.466  0.3704  1.2350 -1.8574
  153DMF     H7 2325   3.013   1.284   0.594 -2.1801  0.1685 -0.6201
  154DMF     C1 2326   1.055   1.016   0.661  0.4083  1.0484 -0.1840
  154DMF     N1 2327   1.024   1.138   0.744 -0.3962  0.4342  0.5175
  154DMF     C2 2328   0.896   1.126   0.821 -1.0717 -0.2874  0.5609
  154DMF     C3 2329   1.093   1.255   0.739  0.0800  0.4090  0.4127
  154DMF     O1 2330   1.187   1.272   0.663 -0.8994 -0.3327 -0.5121
  154DMF     H1 2331   0.982   1.014   0.579  1.6337 -0.8545 -1.2593
  154DMF     H2 2332   1.038   0.930   0.727 -0.7520  1.4048 -0.0098
  154DMF     H3 2333   1.162   1.014   0.638  0.8500  2.0738  1.6227
  154DMF     H4 2334   0.819   1.183   0.769 -0.4611  0.7497  0.7540
  154DMF     H5 2335   0.915   1.170   0.920 -1.2477 -2.0915  1.4100
  154DMF     H6 2336   0.860   1.023   0.827 -2.6126  0.1904 -0.3746
  154DMF     H7 2337   1.052   1.335   0.803  2.0874  2.6755 -1.0058
  155DMF     C1 2338   0.336   3.112   3.574  0.0915  0.4874  0.2544
  155DMF     N1 2339   0.419   3.225   3.621  0.3688  1.0671  0.5339
  155DMF     C2 2340   0.557   3.242   3.569  1.3092 -1.1317 -0.6794
  155DMF     C3 2341   0.385   3.296   3.742 -0.1575 -1.0207 -0.2115
  155DMF     O1 2342   0.292   3.270   3.817 -0.3249  0.2952  0.7778
  155DMF     H1 2343   0.362   3.024   3.634 -0.2373 -1.4020 -2.3069
  155DMF     H2 2344   0.349   3.083   3.469 -0.1571  0.5886  0.1935
  155DMF     H3 2345   0.230   3.137   3.589  0.2365  1.8546 -0.8760
  155DMF     H4 2346   0.596   3.152   3.520  0.0676  0.1291 -4.1730
  155DMF     H5 2347   0.610   3.285   3.655 -0.0083 -0.6760 -0.0905
  155DMF     H6 2348   0.548   3.318   3.490 -0.5410 -0.4692  0.1409
  155DMF     H7 2349   0.465   3.366   3.771 -0.1509 -1.4555  0.8194
  156DMF     C1 2350   2.878   0.539   0.407 -0.6693 -0.4368 -0.2547
  156DMF     N1 2351   2.800   0.512   0.284 -0.2081  0.1196 -0.2281
  156DMF     C2 2352   2.655   0.525   0.302  0.6940 -0.1295  0.3547
  156DMF     C3 2353   2.862   0.537   0.160 -0.4705 -0.7197  0.9949
  156DMF     O1 2354   2.981   0.570   0.151 -0.0240 -0.2849 -0.2301
  156DMF     H1 2355   2.985   0.517   0.395 -0.6909 -1.1715  0.8605
  156DMF     H2 2356   2.844   0.481   0.493 -2.1362  1.2975  0.3565
  156DMF     H3 2357   2.878   0.648   0.423 -0.3056 -0.4966  0.1630
  156DMF     H4 2358   2.593   0.450   0.251  1.5245 -1.0235  0.6460
  156DMF     H5 2359   2.628   0.624   0.261 -0.8379 -0.9306 -0.6393
  156DMF     H6 2360   2.623   0.512   0.406 -1.3407 -0.8565 -0.3328
  156DMF     H7 2361   2.784   0.550   0.082 -0.0987  1.9999  1.0298
  157DMF     C1 2362   2.330   0.202   2.942 -0.4964  0.1993 -0.1629
  157DMF     N1 2363   2.283   0.097   2.846  0.1035 -0.1740 -0.1546
  157DMF     C2 2364   2.366   0.071   2.723  0.1021  0.4055  1.0455
  157DMF     C3 2365   2.172   0.016   2.873 -0.7788 -0.3029  0.1458
  157DMF     O1 2366   2.109   0.037   2.980 -0.4845  0.2818 -0.1319
  157DMF     H1 2367   2.320   0.298   2.890 -0.4094  0.3183  0.0413
  157DMF     H2 2368   2.435   0.183   2.967 -0.3300  0.4578 -0.6657
  157DMF     H3 2369   2.264   0.197   3.030 -0.2832  0.3990  0.0080
  157DMF     H4 2370   2.457   0.026   2.763  0.6952 -0.9003 -1.6657
  157DMF     H5 2371   2.377   0.167   2.671  0.7649  0.4865  1.3291
  157DMF     H6 2372   2.318  -0.005   2.661 -2.7826  2.4368  0.6637
  157DMF     H7 2373   2.140  -0.053   2.793 -0.9432 -3.4847  2.8120
  158DMF     C1 2374   2.982   2.142   2.588  0.0766  0.2245  0.6555
  158DMF     N1 2375   2.878   2.183   2.499 -0.4751 -0.5715 -0.4721
  158DMF     C2 2376   2.766   2.253   2.560  0.3859  0.1039 -0.3596
  158DMF     C3 2377   2.884   2.168   2.360 -0.5482 -0.2381 -0.1503
  158DMF     O1 2378   2.970   2.102   2.302 -0.2169 -0.3864  0.1199
  158DMF     H1 2379   2.976   2.183   2.690  0.7575 -1.1372  1.2540
  158DMF     H2 2380   3.081   2.170   2.551 -0.8620  1.8741 -0.6572
  158DMF     H3 2381   2.959   2.035   2.597 -0.0904  0.0141 -1.8138
  158DMF     H4 2382   2.757   2.343   2.498 -2.8876 -0.4083 -0.7558
  158DMF     H5 2383   2.776   2.270   2.668  0.2565  0.5281 -0.4142
  158DMF     H6 2384   2.669   2.203   2.542 -0.0447  0.1316  1.7292
  158DMF     H7 2385   2.809   2.227   2.304 -0.4383  1.2548  1.2493
  159DMF     C1 2386   2.126   1.187   2.222  0.0753 -0.8736  0.2483
  159DMF     N1 2387   2.108   1.201   2.361 -0.2669 -0.4290 -0.0803
  159DMF     C2 2388   1.985   1.270   2.404  0.5361 -0.4092  0.1731
  159DMF     C3 2389   2.212   1.163   2.449 -0.2276 -0.4376  0.0410
  159DMF     O1 2390   2.308   1.100   2.409  0.4473  0.8319 -0.6313
  159DMF     H1 2391   2.034   1.170   2.164  0.2305  1.7120 -0.8114
  159DMF     H2 2392   2.194   1.104   2.199  0.9093 -0.3802  0.9175
  159DMF     H3 2393   2.163   1.280   2.177 -1.3714  0.0182  0.8654
  159DMF     H4 2394   2.001   1.318   2.501 -1.3790  2.5977 -0.9313
  159DMF     H5 2395   1.895   1.208   2.392 -0.5390  1.1786 -0.2290
  159DMF     H6 2396   1.963   1.355   2.339 -3.4901 -1.8745 -0.5575
  159DMF     H7 2397   2.195   1.199   2.552 -0.3886 -0.5362  0.0473
  160DMF     C1 2398   2.100   0.956   1.124  0.8699 -0.3001 -0.0773
  160DMF     N1 2399   2.060   1.068   1.212  0.3809  0.4902  0.1376
  160DMF     C2 2400   1.912   1.078   1.240  0.1644  0.2629  0.2088
  160DMF     C3 2401   2.156   1.160   1.266 -0.8868  0.5193 -0.2230
  160DMF     O1 2402   2.278   1.150   1.240 -0.2354  0.0330  0.3857
  160DMF     H1 2403   2.085   0.864   1.182  0.8799 -0.7606 -0.8052
  160DMF     H2 2404   2.202   0.962   1.084  0.7404  1.5678 -0.1951
  160DMF     H3 2405   2.039   0.960   1.033  0.2186  0.9376  0.3975
  160DMF     H4 2406   1.877   0.982   1.276  0.0843  0.0446 -0.4405
  160DMF     H5 2407   1.860   1.100   1.146  0.6264  0.1694 -0.0716
  160DMF     H6 2408   1.891   1.153   1.317 -0.5616 -1.1850  1.4358
  160DMF     H7 2409   2.125   1.242   1.334 -0.0652 -0.6097  1.5531
  161DMF     C1 2410   1.742   0.464   1.055  1.1597  0.4080  0.3864
  161DMF     N1 2411   1.781   0.602   1.101  0.2740 -0.1632  0.2658
  161DMF     C2 2412   1.913   0.650   1.071 -0.2676 -0.5205 -0.2873
  161DMF     C3 2413   1.693   0.686   1.165 -0.2134 -0.6754 -0.2355
  161DMF     O1 2414   1.581   0.649   1.182 -0.4243  0.6612  0.1650
  161DMF     H1 2415   1.830   0.399   1.044  0.8520  0.2680 -1.4391
  161DMF     H2 2416   1.690   0.473   0.958  2.4955 -3.3342 -0.7535
  161DMF     H3 2417   1.662   0.432   1.124  0.3843 -1.9441 -1.5341
  161DMF     H4 2418   1.950   0.709   1.155  1.3707 -0.9892 -0.6588
  161DMF     H5 2419   1.907   0.707   0.977 -0.8467 -0.1254 -0.0120
  161DMF     H6 2420   1.984   0.569   1.052 -1.0499 -1.2627 -0.0479
  161DMF     H7 2421   1.735   0.779   1.208 -4.4492  1.2586  0.0556
  162DMF     C1 2422   1.516   1.076   0.429 -0.3851 -0.1307 -0.4349
  162DMF     N1 2423   1.595   1.201   0.470 -0.6619 -0.5768 -0.3921
  162DMF     C2 2424   1.540   1.257   0.597  0.1646  0.5636 -0.5544
  162DMF     C3 2425   1.710   1.250   0.407 -0.8724 -0.0447 -0.5622
  162DMF     O1 2426   1.748   1.194   0.305 -0.5347  0.4565 -0.4739
  162DMF     H1 2427   1.510   1.005   0.512 -0.6536  0.7415  0.2935
  162DMF     H2 2428   1.561   1.030   0.340  0.9902  0.4211 -0.0322
  162DMF     H3 2429   1.415   1.111   0.404 -2.1382 -2.9445  2.3924
  162DMF     H4 2430   1.617   1.290   0.668 -1.1840  0.8143  0.8203
  162DMF     H5 2431   1.480   1.192   0.662  1.5061  0.1716  0.3307
  162DMF     H6 2432   1.478   1.341   0.565 -0.4927  0.2032 -0.2471
  162DMF     H7 2433   1.748   1.347   0.442  1.6364 -1.3593  0.4527
  163DMF     C1 2434   0.866   2.007   0.136  0.4129  0.5908  1.0947
  163DMF     N1 2435   0.822   2.088   0.249 -0.2857  0.4062 -0.5554
  163DMF     C2 2436   0.701   2.042   0.312 -0.4776  0.0892 -0.4555
  163DMF     C3 2437   0.916   2.165   0.320 -0.1926  0.1224  0.1362
  163DMF     O1 2438   1.031   2.174   0.287  0.0033  0.8616 -0.1065
  163DMF     H1 2439   0.964   2.044   0.103  1.3470 -3.4630 -0.9807
  163DMF     H2 2440   0.797   2.015   0.051  1.6243 -0.9339 -0.0570
  163DMF     H3 2441   0.878   1.901   0.161  0.1381  0.3984  0.4238
  163DMF     H4 2442   0.603   2.067   0.268 -0.3894 -0.9969 -1.2730
  163DMF     H5 2443   0.699   2.075   0.417 -2.3171  1.9513 -1.0318
  163DMF     H6 2444   0.712   1.933   0.308  2.7753  0.3836 -1.2298
  163DMF     H7 2445   0.872   2.218   0.407  1.3745  1.3315  0.2126
  164DMF     C1 2446   3.361   1.814   3.653  0.5016 -0.3481  0.0428
  164DMF     N1 2447   3.218   1.853   3.628  0.1324 -0.4924 -0.3560
  164DMF     C2 2448   3.160   1.950   3.725 -0.5321 -0.1369 -1.1855
  164DMF     C3 2449   3.142   1.802   3.521  0.8446  0.1448  0.7683
  164DMF     O1 2450   3.179   1.709   3.454  0.6018 -0.6918  0.2761
  164DMF     H1 2451   3.425   1.898   3.623 -0.6564  0.5504  0.0240
  164DMF     H2 2452   3.388   1.732   3.585 -1.2299 -0.5407 -0.4662
  164DMF     H3 2453   3.382   1.787   3.757  0.6039 -2.7601 -0.5812
  164DMF     H4 2454   3.186   1.913   3.825 -2.9252 -0.8731 -0.7769
  164DMF     H5 2455   3.050   1.947   3.714 -0.5166  0.8145 -1.5944
  164DMF     H6 2456   3.198   2.048   3.698  0.1609  0.0732  0.4845
  164DMF     H7 2457   3.045   1.852   3.505 -0.5981 -2.1976  1.9225
  165DMF     C1 2458   2.217   2.290   2.671 -0.1284  0.4087  0.7790
  165DMF     N1 2459   2.356   2.309   2.706  0.4521  0.0509 -0.4227
  165DMF     C2 2460   2.416   2.432   2.676  0.0430 -0.4279  0.5178
  165DMF     C3 2461   2.433   2.209   2.768 -0.1570  0.6041 -0.5806
  165DMF     O1 2462   2.389   2.101   2.801  0.5539 -0.0744 -0.6756
  165DMF     H1 2463   2.181   2.378   2.618 -3.1814 -1.0612  0.2401
  165DMF     H2 2464   2.154   2.258   2.756  0.3566 -0.2037  0.9161
  165DMF     H3 2465   2.225   2.197   2.613  0.2477 -0.2505  1.8603
  165DMF     H4 2466   2.366   2.480   2.591 -0.4470 -0.6800  0.6632
  165DMF     H5 2467   2.524   2.417   2.660 -0.2895 -1.6929 -0.7187
  165DMF     H6 2468   2.397   2.504   2.756 -1.0930 -0.9901  0.7653
  165DMF     H7 2469   2.543   2.222   2.774 -0.3812  1.2806  2.5705
  166DMF     C1 2470   0.084   0.814   0.405 -0.0003  0.6943 -0.6427
  166DMF     N1 2471   0.216   0.770   0.351 -0.3409 -0.4070 -0.3555
  166DMF     C2 2472   0.305   0.885   0.307  0.4516  0.5802 -0.3670
  166DMF     C3 2473   0.248   0.631   0.329 -0.0017  0.2964 -0.5935
  166DMF     O1 2474   0.174   0.542   0.369 -0.0547 -0.3329 -0.1180
  166DMF     H1 2475   0.069   0.921   0.388 -2.0088  0.4062 -0.8309
  166DMF     H2 2476   0.080   0.798   0.513  0.2599  2.0928 -0.4223
  166DMF     H3 2477  -0.002   0.763   0.359 -1.1898  0.9200  1.2642
  166DMF     H4 2478   0.262   0.923   0.214 -2.6087  0.6832  1.0480
  166DMF     H5 2479   0.410   0.859   0.286 -0.4474 -2.6285 -1.0842
  166DMF     H6 2480   0.299   0.968   0.379  1.0909  0.6300 -0.3655
  166DMF     H7 2481   0.341   0.611   0.272 -0.3893  0.5653 -1.3280
  167DMF     C1 2482   2.719   2.387   1.566  0.5453  0.5162 -0.0086
  167DMF     N1 2483   2.585   2.433   1.527 -0.7038 -0.4762 -0.6886
  167DMF     C2 2484   2.470   2.340   1.540  0.0381 -0.0071 -0.2372
  167DMF     C3 2485   2.565   2.568   1.523 -0.2149  0.1780 -0.2993
  167DMF     O1 2486   2.655   2.648   1.553 -0.1197 -0.7920 -0.1654
  167DMF     H1 2487   2.760   2.443   1.651  2.9358 -1.5446  0.2596
  167DMF     H2 2488   2.788   2.405   1.482  0.6311 -1.3470 -0.3693
  167DMF     H3 2489   2.721   2.279   1.586  0.4786 -0.1997 -3.5198
  167DMF     H4 2490   2.439   2.310   1.439 -0.3500 -0.6885  0.0828
  167DMF     H5 2491   2.398   2.395   1.602  0.6941 -0.6210  1.0688
  167DMF     H6 2492   2.500   2.250   1.594  1.2097  1.4104  1.5507
  167DMF     H7 2493   2.464   2.603   1.495 -0.6240  0.5006  1.5073
  168DMF     C1 2494   1.736   2.454   0.109 -0.4764  0.3226  0.5077
  168DMF     N1 2495   1.682   2.590   0.121 -0.3722  0.0916  0.4156
  168DMF     C2 2496   1.754   2.705   0.064 -0.2614 -0.0080  0.2316
  168DMF     C3 2497   1.552   2.612   0.182  0.4267  0.5733 -0.4509
  168DMF     O1 2498   1.482   2.519   0.233  0.4650 -0.3157  0.6172
  168DMF     H1 2499   1.828   2.451   0.048 -0.0819 -2.0099  1.1507
  168DMF     H2 2500   1.659   2.392   0.061  0.5969 -0.3376 -0.4120
  168DMF     H3 2501   1.754   2.418   0.211 -0.3350  1.3693  0.8517
  168DMF     H4 2502   1.782   2.782   0.137  0.4015  0.3154 -0.3564
  168DMF     H5 2503   1.688   2.747  -0.013  0.3051 -0.9746 -0.8036
  168DMF     H6 2504   1.842   2.671   0.007 -0.5769 -1.0319  0.3524
  168DMF     H7 2505   1.529   2.719   0.169 -0.2111  0.5203  0.1835
  169DMF     C1 2506   1.909   3.438   3.433 -0.1007  0.3239  0.0003
  169DMF     N1 2507   1.878   3.362   3.307 -0.2815 -0.5321  0.2163
  169DMF     C2 2508   1.983   3.272   3.251 -0.0559  0.1134 -0.2132
  169DMF     C3 2509   1.746   3.377   3.255  0.1477 -0.0644 -0.1004
  169DMF     O1 2510   1.671   3.454   3.308 -0.2429 -0.4411  0.6673
  169DMF     H1 2511   2.015   3.464   3.434  0.4597 -1.8461 -0.1690
  169DMF     H2 2512   1.899   3.375   3.522  3.0883 -1.6810 -0.9526
  169DMF     H3 2513   1.845   3.527   3.441 -0.5101  0.2249 -1.7762
  169DMF     H4 2514   1.943   3.228   3.159 -2.0308 -0.4142  0.8507
  169DMF     H5 2515   2.006   3.193   3.323  2.6926  1.3364  0.3228
  169DMF     H6 2516   2.063   3.340   3.220  0.5720  0.5843  2.3200
  169DMF     H7 2517   1.716   3.301   3.180 -1.1785  0.7763 -0.4520
  170DMF     C1 2518   2.033   1.527   0.376 -0.2792 -0.2106  0.3014
  170DMF     N1 2519   2.003   1.418   0.284 -0.1617  0.2904  1.1292
  170DMF     C2 2520   1.944   1.444   0.147  0.4219 -0.1324 -0.0904
  170DMF     C3 2521   2.026   1.284   0.321  0.8897  0.9243 -0.4953
  170DMF     O1 2522   2.073   1.250   0.425  0.1187 -0.7244 -0.6772
  170DMF     H1 2523   2.138   1.541   0.406 -0.4766  0.0946  0.8621
  170DMF     H2 2524   1.991   1.512   0.476 -0.0075  1.2573  0.6399
  170DMF     H3 2525   1.984   1.617   0.337  1.5895  0.4833 -0.5027
  170DMF     H4 2526   1.971   1.541   0.102  1.3554 -0.3338  0.0111
  170DMF     H5 2527   1.835   1.432   0.148  0.3245  0.5397 -1.4093
  170DMF     H6 2528   1.983   1.366   0.080  3.4414 -1.6020  3.2345
  170DMF     H7 2529   2.002   1.211   0.241  0.1020  1.2928 -0.5984
  171DMF     C1 2530   2.379   1.192   0.877 -0.1358  0.6131 -0.1347
  171DMF     N1 2531   2.324   1.236   0.744 -0.0428 -0.7400  0.0044
  171DMF     C2 2532   2.420   1.213   0.622  0.3349 -0.4216  1.0879
  171DMF     C3 2533   2.217   1.319   0.728  0.3371 -0.3611 -0.4717
  171DMF     O1 2534   2.147   1.351   0.823 -0.4353 -0.0406  0.9812
  171DMF     H1 2535   2.449   1.112   0.852 -1.5305 -1.6644  2.8445
  171DMF     H2 2536   2.297   1.148   0.936  2.2582 -1.8235  1.4492
  171DMF     H3 2537   2.423   1.277   0.932 -1.3421  0.6290  0.8414
  171DMF     H4 2538   2.389   1.122   0.570  0.4577 -0.4984  1.1469
  171DMF     H5 2539   2.519   1.188   0.662  0.6447  0.6498  0.9972
  171DMF     H6 2540   2.430   1.296   0.551 -0.0716  0.1915  1.7466
  171DMF     H7 2541   2.197   1.348   0.623  0.9691 -0.7093 -0.6895
  172DMF     C1 2542   1.594   0.218   1.263  0.7271 -0.5882  0.5262
  172DMF     N1 2543   1.656   0.092   1.316  0.2825 -0.0375 -1.1141
  172DMF     C2 2544   1.684  -0.021   1.221  0.4993  0.0218 -0.2445
  172DMF     C3 2545   1.693   0.080   1.454  0.0484  0.0814  0.2802
  172DMF     O1 2546   1.680   0.168   1.532 -0.0958 -0.2808 -0.6459
  172DMF     H1 2547   1.518   0.257   1.332 -0.0747 -0.5044 -0.4027
  172DMF     H2 2548   1.555   0.210   1.161  2.2596 -0.1268 -0.1008
  172DMF     H3 2549   1.673   0.293   1.270  0.5166  0.0045 -2.6765
  172DMF     H4 2550   1.780   0.006   1.174  0.8553  1.7881  1.4783
  172DMF     H5 2551   1.601  -0.033   1.151 -0.7731 -0.1279  1.2643
  172DMF     H6 2552   1.704  -0.106   1.289  3.1615 -1.0928 -2.3028
  172DMF     H7 2553   1.736  -0.018   1.482 -1.1055 -0.4043  0.3999
  173DMF     C1 2554   2.481   1.408   3.212 -0.6823 -0.6793 -0.2608
  173DMF     N1 2555   2.380   1.518   3.207 -0.0243 -0.4012  0.0583
  173DMF     C2 2556   2.240   1.497   3.247 -0.2061 -0.3118 -0.2431
  173DMF     C3 2557   2.414   1.647   3.148 -0.4071 -0.9294 -0.2462
  173DMF     O1 2558   2.533   1.685   3.131 -0.2008 -0.2298  0.3055
  173DMF     H1 2559   2.546   1.416   3.300 -2.7798  0.3085  1.2426
  173DMF     H2 2560   2.537   1.398   3.118 -1.0273  0.1333 -0.5620
  173DMF     H3 2561   2.428   1.314   3.227  1.2157 -1.7474 -0.1383
  173DMF     H4 2562   2.168   1.535   3.174  0.0035  0.9491  0.1949
  173DMF     H5 2563   2.216   1.553   3.338 -0.8354  0.2881 -0.7735
  173DMF     H6 2564   2.228   1.391   3.273  0.3367  0.1117  1.8459
  173DMF     H7 2565   2.325   1.702   3.113  0.5379  0.9294  0.1902
  174DMF     C1 2566   1.917   1.307   1.555 -0.3464  0.1013  0.1632
  174DMF     N1 2567   1.880   1.164   1.557 -0.0585  0.4540 -0.3402
  174DMF     C2 2568   1.739   1.121   1.560 -0.1674  0.0090  0.3149
  174DMF     C3 2569   1.979   1.062   1.544 -0.1120  0.0689 -0.2912
  174DMF     O1 2570   2.094   1.094   1.532  0.2459 -0.1362  0.1312
  174DMF     H1 2571   1.845   1.365   1.613  1.5003  1.4100  1.2133
  174DMF     H2 2572   1.920   1.336   1.449  0.6433 -0.3731  0.0508
  174DMF     H3 2573   2.020   1.326   1.590  0.5721 -1.9100 -1.3707
  174DMF     H4 2574   1.717   1.020   1.598  2.4493 -1.6006 -2.1749
  174DMF     H5 2575   1.687   1.122   1.464 -0.9914 -3.0564  0.6439
  174DMF     H6 2576   1.684   1.187   1.628 -0.5139 -0.4314  0.4672
  174DMF     H7 2577   1.934   0.961   1.550 -0.3992 -0.1266 -4.4003
  175DMF     C1 2578   3.054   3.372   0.983  0.0538 -0.1784 -0.3851
  175DMF     N1 2579   3.167   3.281   0.955 -0.4659 -0.1357 -0.7860
  175DMF     C2 2580   3.201   3.254   0.815 -0.3966 -0.1954 -0.1189
  175DMF     C3 2581   3.230   3.216   1.061 -0.5033  0.9747 -0.2694
  175DMF     O1 2582   3.189   3.231   1.178 -0.5547  0.5697 -0.0872
  175DMF     H1 2583   2.975   3.313   1.032 -0.9684  1.8441  0.4624
  175DMF     H2 2584   3.010   3.423   0.897  0.3563 -2.8908 -2.1816
  175DMF     H3 2585   3.072   3.442   1.066 -0.8718  0.7122 -0.9310
  175DMF     H4 2586   3.195   3.348   0.759  1.0891 -0.5969 -0.9900
  175DMF     H5 2587   3.133   3.173   0.786 -0.7736 -0.0583  0.3832
  175DMF     H6 2588   3.306   3.224   0.806  0.4788  2.8196 -0.4858
  175DMF     H7 2589   3.320   3.158   1.035  0.2409  2.4727 -1.1054
  176DMF     C1 2590   1.231   0.830   3.132  0.4860 -0.2096  0.9256
  176DMF     N1 2591   1.303   0.759   3.016  0.3756 -0.2267 -0.5762
  176DMF     C2 2592   1.445   0.797   2.985  0.0859  0.2553  0.6494
  176DMF     C3 2593   1.248   0.639   2.967  0.6588  0.1027  0.0961
  176DMF     O1 2594   1.145   0.585   3.007 -0.0636  0.0925 -0.1516
  176DMF     H1 2595   1.133   0.870   3.106  0.7177  1.1281  2.1031
  176DMF     H2 2596   1.298   0.900   3.183  0.6427 -1.3006  2.2420
  176DMF     H3 2597   1.201   0.757   3.209  0.3042 -0.5143  0.5712
  176DMF     H4 2598   1.496   0.721   2.926 -0.7722  0.6045 -0.5765
  176DMF     H5 2599   1.499   0.803   3.080  0.9650  1.2994  0.0866
  176DMF     H6 2600   1.455   0.892   2.931  1.7094 -1.5161 -2.2153
  176DMF     H7 2601   1.309   0.593   2.887 -0.8128 -0.0734 -0.9450
  177DMF     C1 2602   1.399   0.641   2.266  0.3038 -0.5537  0.3337
  177DMF     N1 2603   1.283   0.587   2.342  0.0308  0.2753 -0.4108
  177DMF     C2 2604   1.185   0.510   2.267  0.1410  0.0835  0.8369
  177DMF     C3 2605   1.246   0.627   2.471 -0.1062  0.6861 -0.2405
  177DMF     O1 2606   1.321   0.696   2.533  0.1857 -0.0711  0.0886
  177DMF     H1 2607   1.370   0.707   2.183  1.0734 -2.0715 -1.1957
  177DMF     H2 2608   1.454   0.554   2.227  0.7634 -0.1726  0.1222
  177DMF     H3 2609   1.470   0.696   2.329  0.0427 -2.1611  2.0782
  177DMF     H4 2610   1.169   0.405   2.293 -2.5358  0.3856  0.5404
  177DMF     H5 2611   1.201   0.513   2.158  0.2191 -0.1289  0.8422
  177DMF     H6 2612   1.088   0.554   2.293  1.2269  2.6101  0.7568
  177DMF     H7 2613   1.146   0.592   2.500  0.2227 -0.6052 -0.6283
  178DMF     C1 2614   2.904   0.895   0.130  0.2448  0.1359  0.0816
  178DMF     N1 2615   2.959   0.922   0.256 -0.0701 -0.4650 -0.0729
  178DMF     C2 2616   3.109   0.948   0.265  0.3037  0.4586  0.0313
  178DMF     C3 2617   2.886   0.908   0.379 -0.0022 -0.2896  0.0075
  178DMF     O1 2618   2.767   0.877   0.382 -0.3139  0.5165 -0.2152
  178DMF     H1 2619   2.939   0.796   0.098  0.5908  0.0126  0.8420
  178DMF     H2 2620   2.928   0.972   0.056  0.8402  0.0669  0.2068
  178DMF     H3 2621   2.795   0.889   0.140  0.1852  1.1839  0.0462
  178DMF     H4 2622   3.136   1.017   0.184  1.0879 -0.8178 -0.8070
  178DMF     H5 2623   3.180   0.865   0.267  0.9095  0.9767  3.6847
  178DMF     H6 2624   3.127   1.009   0.354  0.8564  1.6454 -0.8823
  178DMF     H7 2625   2.949   0.915   0.469  1.2373 -1.2121 -0.7776
  179DMF     C1 2626   3.014   2.535   2.357  0.1476  0.3902 -0.7229
  179DMF     N1 2627   3.161   2.529   2.357  0.2486 -0.3238 -1.1510
  179DMF     C2 2628   3.228   2.435   2.263  0.3466  0.2294  0.5198
  179DMF     C3 2629   3.226   2.613   2.449  0.5258  0.2094 -0.1186
  179DMF     O1 2630   3.162   2.656   2.542  0.9042  0.4939  0.1127
  179DMF     H1 2631   2.982   2.632   2.398  0.4515  0.7319 -1.2823
  179DMF     H2 2632   2.957   2.463   2.416  1.4714  0.0177  0.1186
  179DMF     H3 2633   2.979   2.521   2.254  1.3832  0.1318 -1.1151
  179DMF     H4 2634   3.313   2.391   2.316  0.7088  0.0314 -0.2110
  179DMF     H5 2635   3.265   2.483   2.172  0.6300 -2.0611 -0.6110
  179DMF     H6 2636   3.164   2.348   2.244  1.9221 -0.7517 -0.3596
  179DMF     H7 2637   3.335   2.630   2.439  0.4065 -0.0309 -1.9789
  180DMF     C1 2638   2.436   3.383   3.233  0.4570 -0.0718  0.0525
  180DMF     N1 2639   2.447   3.245   3.194 -0.2086 -0.7599  0.0950
  180DMF     C2 2640   2.451   3.210   3.049 -0.0813  0.0186  0.0901
  180DMF     C3 2641   2.463   3.150   3.290 -0.4901  0.1481  0.0064
  180DMF     O1 2642   2.457   3.173   3.407  0.2575  0.6592 -0.3604
  180DMF     H1 2643   2.330   3.409   3.244  0.5802  0.8427 -0.8542
  180DMF     H2 2644   2.485   3.456   3.167  1.0340 -1.8016 -1.5010
  180DMF     H3 2645   2.490   3.404   3.326  0.5911 -0.0054 -0.0406
  180DMF     H4 2646   2.448   3.301   2.988 -0.9805  0.1522  0.3158
  180DMF     H5 2647   2.364   3.149   3.022 -1.2272  1.3588  0.6755
  180DMF     H6 2648   2.545   3.160   3.023 -0.7776 -1.1502 -0.1933
  180DMF     H7 2649   2.472   3.047   3.252  1.1722  0.4771 -0.5156
  181DMF     C1 2650   2.726   2.821   2.782  0.5116  0.3899 -0.1891
  181DMF     N1 2651   2.763   2.905   2.670 -0.0853  0.1836 -0.2877
  181DMF     C2 2652   2.866   2.848   2.577 -0.0803 -0.0519 -0.1748
  181DMF     C3 2653   2.720   3.034   2.663 -0.3194 -0.6609 -0.5631
  181DMF     O1 2654   2.630   3.077   2.736 -0.2321 -0.5854 -0.0016
  181DMF     H1 2655   2.653   2.753   2.739  2.0085 -0.0378 -2.1271
  181DMF     H2 2656   2.686   2.883   2.864  3.6975  1.5013  0.6112
  181DMF     H3 2657   2.814   2.765   2.816 -0.3380 -0.7373  0.1844
  181DMF     H4 2658   2.868   2.903   2.482  1.2436 -0.6670 -0.5184
  181DMF     H5 2659   2.851   2.742   2.555 -1.2779  0.3163 -1.2003
  181DMF     H6 2660   2.964   2.857   2.626 -0.1244  0.2991 -0.1456
  181DMF     H7 2661   2.773   3.097   2.589  2.2731  0.7583  2.3602
  182DMF     C1 2662   0.689   2.736   2.623  0.0598 -0.5957 -0.1506
  182DMF     N1 2663   0.547   2.693   2.621 -0.1999 -0.2963  0.5276
  182DMF     C2 2664   0.496   2.580   2.696 -0.0608 -0.6398  0.7453
  182DMF     C3 2665   0.453   2.788   2.571  0.0574  0.2155  0.4020
  182DMF     O1 2666   0.485   2.902   2.542 -0.4095  0.1066  0.2085
  182DMF     H1 2667   0.756   2.655   2.592 -1.4368 -0.7274 -3.2907
  182DMF     H2 2668   0.706   2.772   2.725  0.9459 -1.6877  0.0980
  182DMF     H3 2669   0.709   2.813   2.547  0.1813 -1.3180 -0.8493
  182DMF     H4 2670   0.574   2.503   2.689 -0.9873 -1.7952  2.5666
  182DMF     H5 2671   0.408   2.535   2.650  0.1423  0.0361 -0.3298
  182DMF     H6 2672   0.466   2.598   2.800  0.1360 -0.9285  0.8546
  182DMF     H7 2673   0.348   2.755   2.583 -0.1484  1.4919  2.3449
  183DMF     C1 2674   1.469   1.141   3.140 -0.6504  0.2914 -0.1520
  183DMF     N1 2675   1.533   1.258   3.191  0.5798 -0.6230 -0.4005
  183DMF     C2 2676   1.618   1.240   3.316 -0.2502  0.8046  0.4002
  183DMF     C3 2677   1.526   1.384   3.129 -0.4242  0.4149 -0.1665
  183DMF     O1 2678   1.489   1.399   3.015 -0.2678 -0.2997  0.5082
  183DMF     H1 2679   1.521   1.053   3.179 -1.5277 -0.3135 -0.3337
  183DMF     H2 2680   1.465   1.137   3.030  0.2393 -3.1098 -0.0976
  183DMF     H3 2681   1.366   1.138   3.177 -1.2040  2.3436 -1.3969
  183DMF     H4 2682   1.605   1.140   3.360  1.5678  0.6334  0.5832
  183DMF     H5 2683   1.581   1.311   3.391  0.1480 -1.1737  2.5281
  183DMF     H6 2684   1.725   1.256   3.299  0.0117 -0.5573  0.6745
  183DMF     H7 2685   1.569   1.465   3.192 -0.6086  0.8916 -0.6535
  184DMF     C1 2686   1.003   3.146   0.509  0.0406  0.4403 -0.1116
  184DMF     N1 2687   1.110   3.046   0.505 -0.0959  0.8430 -0.0629
  184DMF     C2 2688   1.236   3.070   0.438 -0.2159  0.4057  0.1652
  184DMF     C3 2689   1.077   2.917   0.553  0.1347  0.1097  0.2551
  184DMF     O1 2690   0.975   2.898   0.615  1.1880 -0.4142 -0.5741
  184DMF     H1 2691   1.038   3.243   0.472 -0.5427  0.4939 -0.5294
  184DMF     H2 2692   0.968   3.145   0.613  1.1365 -1.2865  0.2619
  184DMF     H3 2693   0.924   3.102   0.447  2.4113 -1.2931 -1.9986
  184DMF     H4 2694   1.228   3.087   0.330  0.4429 -0.1797  0.0258
  184DMF     H5 2695   1.298   2.980   0.449 -0.2123 -0.0269 -3.0000
  184DMF     H6 2696   1.285   3.157   0.485 -0.8031  0.0575  1.4640
  184DMF     H7 2697   1.147   2.836   0.525 -0.1225 -0.9612  2.6136
  185DMF     C1 2698   2.278   1.869   1.545  0.0447 -0.1968 -0.1367
  185DMF     N1 2699   2.384   1.857   1.442 -0.0908  0.3556  0.5951
  185DMF     C2 2700   2.492   1.764   1.474  0.6610  0.0728  0.6798
  185DMF     C3 2701   2.394   1.945   1.337 -1.2797  0.4345  0.0394
  185DMF     O1 2702   2.313   2.028   1.310  0.5778 -0.0355 -0.3832
  185DMF     H1 2703   2.185   1.827   1.503  0.8605 -0.5159 -1.6767
  185DMF     H2 2704   2.258   1.972   1.578 -0.7074 -0.9137  1.6937
  185DMF     H3 2705   2.308   1.807   1.630  2.8784 -0.3390 -1.1883
  185DMF     H4 2706   2.465   1.709   1.565 -1.6629  0.8554  0.4791
  185DMF     H5 2707   2.585   1.820   1.489  2.2558 -2.3219  0.0907
  185DMF     H6 2708   2.503   1.694   1.391 -0.9447 -0.5490  0.9737
  185DMF     H7 2709   2.489   1.929   1.282 -1.8413 -0.2488 -0.7421
  186DMF     C1 2710   0.813   0.756   0.453  0.4473  0.1981  0.9619
  186DMF     N1 2711   0.821   0.662   0.342  0.4285 -0.1364 -0.0973
  186DMF     C2 2712   0.954   0.612   0.293 -0.3893 -0.0789 -0.1010
  186DMF     C3 2713   0.710   0.605   0.273  0.8616 -0.5731  0.2177
  186DMF     O1 2714   0.603   0.642   0.303  0.9612 -0.2034 -0.4548
  186DMF     H1 2715   0.837   0.702   0.545 -0.2491 -1.3830  0.2367
  186DMF     H2 2716   0.713   0.799   0.466  1.0109  2.0194 -0.3803
  186DMF     H3 2717   0.870   0.847   0.431  0.6135 -0.0820  0.2135
  186DMF     H4 2718   1.029   0.683   0.331  0.9537 -0.0772 -2.6300
  186DMF     H5 2719   0.959   0.605   0.183  3.4828  1.3708 -0.1223
  186DMF     H6 2720   0.966   0.514   0.339  0.9371 -0.4769 -1.2389
  186DMF     H7 2721   0.731   0.526   0.198 -0.9246  0.2847 -1.2328
  187DMF     C1 2722   2.737   1.065   2.630 -0.2389 -0.2278  0.1941
  187DMF     N1 2723   2.626   1.091   2.722  1.0344  0.2391  0.2976
  187DMF     C2 2724   2.498   1.018   2.705 -0.0626 -0.5891 -0.2786
  187DMF     C3 2725   2.624   1.197   2.813 -0.4328 -0.4670  0.5462
  187DMF     O1 2726   2.704   1.284   2.807 -0.4135 -0.1267  0.3432
  187DMF     H1 2727   2.802   0.989   2.674 -0.3283  0.0309  0.7702
  187DMF     H2 2728   2.774   1.168   2.618  0.2872 -0.1123  2.5829
  187DMF     H3 2729   2.708   1.037   2.528  4.5340  0.0256 -1.3960
  187DMF     H4 2730   2.419   1.048   2.775  0.9917 -0.2956  0.7891
  187DMF     H5 2731   2.509   0.909   2.707  0.2412 -0.5502  0.7872
  187DMF     H6 2732   2.468   1.055   2.607 -1.3820  0.4283  0.4916
  187DMF     H7 2733   2.532   1.198   2.874 -0.6731 -1.4629  0.2138
  188DMF     C1 2734   0.896   2.547   0.517  0.2936  0.2180  0.6159
  188DMF     N1 2735   1.016   2.498   0.447 -0.2345  0.2576  0.0605
  188DMF     C2 2736   1.144   2.503   0.519  0.3969  0.6176 -0.9275
  188DMF     C3 2737   1.016   2.490   0.308  0.6125 -0.1887 -0.4087
  188DMF     O1 2738   0.917   2.474   0.239 -0.0387  0.0126 -0.4121
  188DMF     H1 2739   0.918   2.625   0.591  1.8300 -0.7399  1.1870
  188DMF     H2 2740   0.850   2.465   0.573 -0.5979  0.3544  0.0990
  188DMF     H3 2741   0.825   2.594   0.447  1.7793 -1.7475 -2.3267
  188DMF     H4 2742   1.126   2.465   0.620 -1.1466  0.3465 -1.2968
  188DMF     H5 2743   1.184   2.604   0.532  0.4360  0.3866  0.8240
  188DMF     H6 2744   1.227   2.453   0.467  0.1242 -1.7534  0.8440
  188DMF     H7 2745   1.118   2.493   0.266  0.7233 -1.3924 -0.2650
  189DMF     C1 2746   0.388   1.622   2.689  0.8095  0.2874  0.2261
  189DMF     N1 2747   0.525   1.583   2.683 -0.7630 -0.3902  0.1533
  189DMF     C2 2748   0.551   1.437   2.716 -0.1032 -0.4821 -0.6049
  189DMF     C3 2749   0.627   1.668   2.636 -0.1436 -0.1537 -0.2194
  189DMF     O1 2750   0.606   1.787   2.617 -0.0164 -0.0320  0.1822
  189DMF     H1 2751   0.328   1.536   2.656  0.6281 -0.2510  1.8926
  189DMF     H2 2752   0.370   1.702   2.617 -0.7255  0.0202  0.3059
  189DMF     H3 2753   0.367   1.650   2.793  0.9177 -4.0972  1.5061
  189DMF     H4 2754   0.625   1.414   2.639 -0.1078  2.4449 -1.5404
  189DMF     H5 2755   0.459   1.377   2.703  0.8437 -1.8432 -1.1075
  189DMF     H6 2756   0.603   1.424   2.812 -0.7279 -0.0139 -0.1956
  189DMF     H7 2757   0.729   1.626   2.634  0.5760  1.5498 -1.1617
  190DMF     C1 2758   1.031   1.322   2.301 -0.0597  0.5797 -0.3199
  190DMF     N1 2759   1.067   1.341   2.444 -0.2937  0.1692 -0.8143
  190DMF     C2 2760   1.120   1.228   2.524 -0.6202 -0.3396  0.1450
  190DMF     C3 2761   1.028   1.457   2.511 -0.0197 -0.3930  0.0663
  190DMF     O1 2762   0.967   1.549   2.461 -0.3271  0.7333 -0.2806
  190DMF     H1 2763   1.101   1.368   2.231  0.3360  0.3812 -0.0556
  190DMF     H2 2764   0.926   1.344   2.279 -0.2960 -0.7625 -0.5658
  190DMF     H3 2765   1.042   1.213   2.291  0.8943  0.6018  0.4493
  190DMF     H4 2766   1.059   1.224   2.615  0.8965 -0.1285  1.1947
  190DMF     H5 2767   1.219   1.264   2.555 -2.2575  2.6930  2.1635
  190DMF     H6 2768   1.127   1.130   2.476 -2.6472  0.3134 -1.5439
  190DMF     H7 2769   1.059   1.453   2.617 -3.2528 -1.6603  1.0416
  191DMF     C1 2770   1.574   2.678   2.461 -0.2394 -0.0235 -0.3470
  191DMF     N1 2771   1.491   2.685   2.341 -0.0850 -0.2137  0.4734
  191DMF     C2 2772   1.348   2.711   2.355 -0.7460 -0.0947 -0.7680
  191DMF     C3 2773   1.548   2.656   2.214  0.6982 -0.6636  0.1984
  191DMF     O1 2774   1.662   2.616   2.198  0.6769 -0.0962 -0.1747
  191DMF     H1 2775   1.682   2.682   2.440 -0.3528  0.3883 -0.8821
  191DMF     H2 2776   1.561   2.578   2.505  1.2885  0.1240  0.4802
  191DMF     H3 2777   1.543   2.750   2.536  0.5960 -1.2425  1.1956
  191DMF     H4 2778   1.324   2.753   2.453  0.9578  0.9467 -0.7886
  191DMF     H5 2779   1.296   2.615   2.350  1.7180 -1.4835 -0.3576
  191DMF     H6 2780   1.310   2.786   2.283  0.3403  1.5791  0.3662
  191DMF     H7 2781   1.471   2.662   2.135  0.0208 -1.2511  0.7984
  192DMF     C1 2782   2.375   2.465   2.285 -0.0854 -0.3343  0.7158
  192DMF     N1 2783   2.491   2.545   2.240 -0.0743 -0.0044 -0.0006
  192DMF     C2 2784   2.481   2.694   2.234 -0.2224 -0.6534  0.3384
  192DMF     C3 2785   2.624   2.489   2.221  0.0118  0.0268  0.2793
  192DMF     O1 2786   2.639   2.365   2.221  0.2115  0.0873  0.2389
  192DMF     H1 2787   2.381   2.477   2.394 -0.8869 -0.0924  0.7414
  192DMF     H2 2788   2.388   2.361   2.251  0.4250 -0.3193  0.8669
  192DMF     H3 2789   2.280   2.485   2.233 -0.4451 -1.4803  0.9221
  192DMF     H4 2790   2.455   2.742   2.329 -2.5970  0.7988 -1.0022
  192DMF     H5 2791   2.406   2.719   2.157  0.9710 -0.7724 -0.8810
  192DMF     H6 2792   2.568   2.744   2.189 -2.1366  2.7144  0.1432
  192DMF     H7 2793   2.704   2.564   2.210 -1.0925  1.3022  0.9186
  193DMF     C1 2794   1.436   1.923   3.688 -0.3342 -0.4995 -0.1103
  193DMF     N1 2795   1.351   1.846   3.788  0.0794  0.1987  0.0986
  193DMF     C2 2796   1.418   1.755   3.878  0.6739  0.4029  0.0805
  193DMF     C3 2797   1.215   1.876   3.796 -0.5634  0.6077  0.5593
  193DMF     O1 2798   1.165   1.935   3.703 -0.3733 -0.1229  0.1918
  193DMF     H1 2799   1.409   2.029   3.692  0.1840 -0.3773  0.2078
  193DMF     H2 2800   1.413   1.889   3.586 -2.4818 -3.5355  1.2909
  193DMF     H3 2801   1.544   1.919   3.703 -0.2553  0.1947 -0.4869
  193DMF     H4 2802   1.495   1.818   3.924  0.0406  1.7002 -0.6026
  193DMF     H5 2803   1.471   1.678   3.821 -1.0394 -0.7977  0.0795
  193DMF     H6 2804   1.358   1.721   3.963  0.8945  0.7644  0.3829
  193DMF     H7 2805   1.169   1.833   3.887  0.3353  0.9697  1.1900
  194DMF     C1 2806   1.714   1.772   0.407 -0.2514 -0.3722  0.0679
  194DMF     N1 2807   1.573   1.777   0.440  0.2331  0.0211  0.2678
  194DMF     C2 2808   1.509   1.903   0.467  0.1026 -0.4614  0.1922
  194DMF     C3 2809   1.502   1.660   0.458 -0.2101  1.0730 -0.3832
  194DMF     O1 2810   1.550   1.546   0.447  0.5154 -0.5948 -0.1214
  194DMF     H1 2811   1.754   1.696   0.476 -2.2319 -1.5920 -0.1002
  194DMF     H2 2812   1.764   1.868   0.430 -0.6027 -0.4895  1.3874
  194DMF     H3 2813   1.730   1.736   0.305  1.6994 -1.6950  0.8078
  194DMF     H4 2814   1.592   1.973   0.481 -0.7346  0.7466 -0.8105
  194DMF     H5 2815   1.453   1.908   0.562  2.2797 -0.1417  1.4899
  194DMF     H6 2816   1.449   1.933   0.381 -1.4944  1.3227  1.8770
  194DMF     H7 2817   1.394   1.676   0.476 -0.2442 -0.4200  0.9036
  195DMF     C1 2818   0.175   2.619   1.450 -0.3164 -0.2365 -0.3793
  195DMF     N1 2819   0.253   2.513   1.511  0.2865  0.0261 -0.0469
  195DMF     C2 2820   0.398   2.532   1.530  0.0206  0.2600 -0.1387
  195DMF     C3 2821   0.186   2.404   1.559 -0.0817  0.7681  0.3317
  195DMF     O1 2822   0.066   2.388   1.549  0.9703 -0.2015 -0.3397
  195DMF     H1 2823   0.119   2.662   1.534  2.2540  1.3620  0.5684
  195DMF     H2 2824   0.105   2.573   1.379 -0.4368 -1.5171  0.5461
  195DMF     H3 2825   0.229   2.695   1.393  0.3541 -0.9914 -0.7612
  195DMF     H4 2826   0.454   2.441   1.508  2.2840  1.1712  1.6102
  195DMF     H5 2827   0.418   2.569   1.631  1.1399 -1.9836  0.4915
  195DMF     H6 2828   0.444   2.605   1.463  0.0587  0.7424  0.4122
  195DMF     H7 2829   0.249   2.331   1.612 -3.2418 -0.8446  2.0170
  196DMF     C1 2830   1.716   1.765   0.773  0.5355  0.2455 -0.6510
  196DMF     N1 2831   1.719   1.660   0.881 -0.6082  0.4258  0.5435
  196DMF     C2 2832   1.782   1.525   0.849 -0.1943 -0.5866 -0.2674
  196DMF     C3 2833   1.661   1.685   1.005  0.4392 -0.0100 -0.0147
  196DMF     O1 2834   1.603   1.791   1.032  0.6580  0.3754 -0.2281
  196DMF     H1 2835   1.613   1.774   0.738  0.1611 -1.6998 -0.1513
  196DMF     H2 2836   1.790   1.753   0.693  0.0891 -0.7965 -0.9259
  196DMF     H3 2837   1.747   1.863   0.811 -1.9999  1.9757 -2.9134
  196DMF     H4 2838   1.850   1.538   0.764  0.4476 -1.4616  0.1050
  196DMF     H5 2839   1.702   1.458   0.817  1.0950 -2.3225  0.0992
  196DMF     H6 2840   1.854   1.485   0.921  0.6997  0.3913 -0.5910
  196DMF     H7 2841   1.649   1.593   1.065  1.5152 -1.8634 -2.5666
  197DMF     C1 2842   3.377   0.864   3.769  0.1169  0.4201  0.1795
  197DMF     N1 2843   3.427   0.864   3.635 -0.5936 -0.9356  0.5953
  197DMF     C2 2844   3.332   0.894   3.528 -0.2530 -0.2955  0.6083
  197DMF     C3 2845   3.563   0.848   3.601 -0.0723  0.3243 -0.1868
  197DMF     O1 2846   3.649   0.808   3.676  0.1916  0.0366 -0.5759
  197DMF     H1 2847   3.466   0.850   3.832  0.5823 -0.8637 -0.7425
  197DMF     H2 2848   3.300   0.786   3.778  1.0011 -0.8118 -2.3913
  197DMF     H3 2849   3.336   0.962   3.796 -0.7276  0.1036  0.0409
  197DMF     H4 2850   3.291   0.795   3.506  0.4461 -0.4093 -0.2191
  197DMF     H5 2851   3.381   0.936   3.439 -0.0704  2.9828  2.1783
  197DMF     H6 2852   3.255   0.969   3.551  2.2310  2.7587 -0.5692
  197DMF     H7 2853   3.583   0.876   3.496 -0.6550 -1.1936 -0.7156
  198DMF     C1 2854   0.633   2.395   0.319  0.7302 -0.4057 -0.8606
  198DMF     N1 2855   0.495   2.345   0.285 -0.2957  0.1824  0.0620
  198DMF     C2 2856   0.453   2.377   0.149 -0.1759  0.5312  0.3009
  198DMF     C3 2857   0.431   2.249   0.367 -0.0236  0.2512  0.5603
  198DMF     O1 2858   0.481   2.217   0.475 -0.0358  0.2575 -0.3549
  198DMF     H1 2859   0.702   2.340   0.254  1.0558 -1.6815  0.5391
  198DMF     H2 2860   0.660   2.387   0.425 -1.5695  0.8956 -0.1459
  198DMF     H3 2861   0.643   2.502   0.299 -0.8318  0.1117  0.9598
  198DMF     H4 2862   0.344   2.371   0.155 -0.2764 -0.3750 -1.7172
  198DMF     H5 2863   0.492   2.290   0.095 -2.8577 -1.0610  0.8434
  198DMF     H6 2864   0.492   2.471   0.107 -1.1316  0.8091  0.0165
  198DMF     H7 2865   0.335   2.211   0.329  0.9617 -1.5293 -0.1743
  199DMF     C1 2866   1.307   1.723   0.902 -0.3739  0.1133 -0.3746
  199DMF     N1 2867   1.307   1.613   0.807  0.0912  0.0480 -0.0340
  199DMF     C2 2868   1.231   1.629   0.686  0.5377  0.2020 -0.0435
  199DMF     C3 2869   1.376   1.489   0.838  0.2657  0.0592  0.5222
  199DMF     O1 2870   1.444   1.472   0.938 -0.2542  0.2676 -0.2705
  199DMF     H1 2871   1.407   1.768   0.905 -0.3738  0.0728  0.2019
  199DMF     H2 2872   1.277   1.694   1.003 -2.3790  1.6950 -0.4927
  199DMF     H3 2873   1.245   1.807   0.870 -1.7095 -0.9143 -0.5322
  199DMF     H4 2874   1.282   1.570   0.609  0.5481  0.0917  0.0477
  199DMF     H5 2875   1.222   1.737   0.669  1.0485  0.0154 -1.6057
  199DMF     H6 2876   1.131   1.589   0.706  0.1034  1.9413  1.4559
  199DMF     H7 2877   1.358   1.413   0.760  0.4653  0.6374 -0.0957
  200DMF     C1 2878   1.078   3.093   2.885 -0.3472  0.4027  0.2490
  200DMF     N1 2879   1.063   3.029   2.750 -0.0793 -0.2165  0.2603
  200DMF     C2 2880   1.174   3.056   2.652 -0.0426  0.7165  0.2378
  200DMF     C3 2881   0.952   2.951   2.707  0.1479 -0.2901  0.1425
  200DMF     O1 2882   0.869   2.927   2.783 -0.0879 -0.1615 -0.1259
  200DMF     H1 2883   0.982   3.109   2.935 -0.8654 -0.9887 -0.2725
  200DMF     H2 2884   1.137   3.185   2.873 -1.6111  1.2686  0.6687
  200DMF     H3 2885   1.141   3.020   2.937  0.2890 -1.2253 -2.6866
  200DMF     H4 2886   1.143   3.120   2.569  2.0233  1.2771 -0.1153
  200DMF     H5 2887   1.215   2.961   2.617 -1.7833  0.0367  0.0124
  200DMF     H6 2888   1.257   3.105   2.705 -0.6294  1.8506  0.1359
  200DMF     H7 2889   0.963   2.909   2.606 -2.0960  0.1602 -0.3249
  201DMF     C1 2890   0.610   1.039   0.459 -0.3836 -0.1373 -0.1217
  201DMF     N1 2891   0.667   1.152   0.381  0.5718 -0.7552 -0.0613
  201DMF     C2 2892   0.781   1.230   0.430 -0.5796 -0.2633 -0.2133
  201DMF     C3 2893   0.589   1.208   0.279  0.4585 -0.1958  0.2859
  201DMF     O1 2894   0.500   1.149   0.227  0.4487 -0.9205 -0.1646
  201DMF     H1 2895   0.572   0.954   0.400  1.2574  0.0663 -1.5099
  201DMF     H2 2896   0.521   1.078   0.510  0.8501  0.7184  1.4207
  201DMF     H3 2897   0.688   1.002   0.526  0.7473  0.4587 -1.0835
  201DMF     H4 2898   0.745   1.332   0.444  2.2363  1.0493 -2.1288
  201DMF     H5 2899   0.859   1.228   0.353 -1.5541 -1.1013 -1.1780
  201DMF     H6 2900   0.813   1.192   0.528 -0.6623  0.4332  0.0841
  201DMF     H7 2901   0.622   1.307   0.243  1.2862  0.0583  1.7183
  202DMF     C1 2902   1.634   3.229   0.787  0.3847  0.2284 -0.1139
  202DMF     N1 2903   1.490   3.192   0.804 -0.1337 -0.6273  0.3596
  202DMF     C2 2904   1.427   3.078   0.743 -0.9420  0.0336 -0.3012
  202DMF     C3 2905   1.406   3.265   0.891  0.0500  0.5421  0.7992
  202DMF     O1 2906   1.447   3.363   0.949  0.4073 -0.2796 -0.1357
  202DMF     H1 2907   1.678   3.290   0.866  0.4052  0.8301 -0.5882
  202DMF     H2 2908   1.637   3.290   0.695 -1.2201  1.5012  0.6604
  202DMF     H3 2909   1.678   3.129   0.773 -0.2006  0.0110 -0.4522
  202DMF     H4 2910   1.456   3.072   0.637  1.2805  1.0363  0.2369
  202DMF     H5 2911   1.318   3.084   0.758 -0.7815 -2.9724  2.5341
  202DMF     H6 2912   1.459   2.987   0.795  1.9099  3.2810  3.9633
  202DMF     H7 2913   1.299   3.245   0.877  0.1603  0.0022  0.7381
  203DMF     C1 2914   0.703   2.272   3.723  0.6898 -0.3145  0.5217
  203DMF     N1 2915   0.833   2.216   3.671  0.1524 -0.1007 -0.2260
  203DMF     C2 2916   0.953   2.293   3.718 -0.5838  0.1514 -0.7527
  203DMF     C3 2917   0.840   2.110   3.581 -0.6011 -0.5992 -0.6844
  203DMF     O1 2918   0.743   2.056   3.537 -0.5300  0.2329 -0.0815
  203DMF     H1 2919   0.701   2.264   3.833 -0.0919 -0.3215  0.5105
  203DMF     H2 2920   0.616   2.216   3.685  0.3983 -0.1127  0.8837
  203DMF     H3 2921   0.682   2.372   3.684 -0.7354 -0.0625  1.8575
  203DMF     H4 2922   1.001   2.336   3.628  1.3979 -0.5719 -0.0657
  203DMF     H5 2923   1.024   2.221   3.761  1.3868  2.3619 -0.1715
  203DMF     H6 2924   0.923   2.368   3.791 -0.4753  0.4254 -0.9861
  203DMF     H7 2925   0.942   2.076   3.557 -0.6414 -0.6457 -0.7895
  204DMF     C1 2926   2.866   0.681   1.487 -0.1537  1.2071 -0.4258
  204DMF     N1 2927   2.838   0.555   1.420 -0.0081 -0.4144 -0.7671
  204DMF     C2 2928   2.840   0.436   1.512  0.3629 -0.8114  0.8663
  204DMF     C3 2929   2.803   0.554   1.283  0.6296 -0.5999 -0.3878
  204DMF     O1 2930   2.784   0.653   1.217  0.3646  0.2591 -0.2307
  204DMF     H1 2931   2.771   0.733   1.503 -0.8857  0.1980 -1.4123
  204DMF     H2 2932   2.936   0.745   1.431 -0.4055 -0.1924 -2.3930
  204DMF     H3 2933   2.908   0.657   1.586  0.5350  0.4934 -0.8861
  204DMF     H4 2934   2.873   0.340   1.470 -2.2349 -0.8850 -1.1157
  204DMF     H5 2935   2.743   0.425   1.562  0.5745 -0.3057  1.3847
  204DMF     H6 2936   2.929   0.457   1.573  1.0248  1.5069 -0.8483
  204DMF     H7 2937   2.790   0.453   1.239 -2.0099 -1.0229  1.2292
  205DMF     C1 2938   0.632   3.416   2.746 -0.1319 -0.2659 -0.5396
  205DMF     N1 2939   0.588   3.288   2.695  0.1710  0.0646 -0.1953
  205DMF     C2 2940   0.657   3.173   2.743 -0.1668  0.3903 -0.0792
  205DMF     C3 2941   0.472   3.272   2.621  0.8818 -0.3598 -0.7019
  205DMF     O1 2942   0.411   3.364   2.573  0.1789 -0.4519  0.0178
  205DMF     H1 2943   0.553   3.450   2.815  1.7778  1.1102  1.0281
  205DMF     H2 2944   0.664   3.486   2.668  0.7102 -0.0316  0.0092
  205DMF     H3 2945   0.726   3.392   2.797  0.2504 -0.2016 -1.1999
  205DMF     H4 2946   0.709   3.184   2.839  3.5540 -2.4901 -1.6401
  205DMF     H5 2947   0.748   3.159   2.683  0.1372 -0.6563  0.6193
  205DMF     H6 2948   0.605   3.077   2.738 -0.9057  0.7916 -0.1907
  205DMF     H7 2949   0.436   3.170   2.601  0.8491 -0.7100  1.1099
  206DMF     C1 2950   2.766   1.632   2.676  0.5332  0.0758 -0.7293
  206DMF     N1 2951   2.718   1.764   2.724 -0.9776 -0.2457 -0.3102
  206DMF     C2 2952   2.713   1.785   2.873  0.4230  0.2910  0.3666
  206DMF     C3 2953   2.673   1.863   2.636 -0.5395  0.3309 -0.5352
  206DMF     O1 2954   2.683   1.835   2.518  0.2835  0.7965  0.2225
  206DMF     H1 2955   2.852   1.638   2.608  2.0769 -1.7110  0.9852
  206DMF     H2 2956   2.683   1.593   2.616 -0.4541 -0.7022  1.0941
  206DMF     H3 2957   2.782   1.559   2.757  2.8076  1.8002  0.4316
  206DMF     H4 2958   2.637   1.723   2.923 -0.5366 -0.3917 -1.8921
  206DMF     H5 2959   2.700   1.890   2.903  0.5806  0.2474  0.5885
  206DMF     H6 2960   2.815   1.764   2.905  1.0928  0.5506 -1.5886
  206DMF     H7 2961   2.636   1.956   2.683  0.8726  0.2147  0.8489
  207DMF     C1 2962   2.480   3.044   2.309 -0.6837  0.0704  0.4746
  207DMF     N1 2963   2.605   3.110   2.273  0.2051 -0.9021 -0.1963
  207DMF     C2 2964   2.603   3.255   2.245 -0.3770  0.0764 -0.4259
  207DMF     C3 2965   2.720   3.031   2.249 -0.2895  0.2417 -0.3812
  207DMF     O1 2966   2.717   2.910   2.256 -0.0628 -0.2614  0.5806
  207DMF     H1 2967   2.504   2.961   2.377  1.0969 -0.3430 -0.6254
  207DMF     H2 2968   2.431   3.006   2.219 -0.2912  1.3365 -0.2814
  207DMF     H3 2969   2.408   3.108   2.362  0.5282  0.0347  2.1866
  207DMF     H4 2970   2.675   3.282   2.166 -0.5763 -0.1661 -0.6913
  207DMF     H5 2971   2.623   3.315   2.334  0.7325  1.7450 -1.7611
  207DMF     H6 2972   2.505   3.279   2.202 -0.5069  0.5270  0.1154
  207DMF     H7 2973   2.806   3.089   2.212 -1.7063  1.6934 -1.4521
  208DMF     C1 2974   0.867   1.559   3.374  0.1016 -0.5794  0.0072
  208DMF     N1 2975   0.966   1.666   3.412  0.0348  0.2309  0.6646
  208DMF     C2 2976   1.026   1.750   3.305  0.9117 -0.4199  0.0980
  208DMF     C3 2977   1.004   1.690   3.546 -0.3802  0.2471 -0.2790
  208DMF     O1 2978   0.970   1.624   3.638  0.4062 -0.0935 -0.1747
  208DMF     H1 2979   0.910   1.461   3.399  2.2983  0.1256 -0.8643
  208DMF     H2 2980   0.848   1.553   3.266  0.5296  1.3776 -0.1845
  208DMF     H3 2981   0.766   1.585   3.410  0.2053  0.7879 -0.6685
  208DMF     H4 2982   1.026   1.682   3.219 -1.5736  0.0193 -0.2834
  208DMF     H5 2983   1.130   1.774   3.334 -0.0727  2.9346  1.0761
  208DMF     H6 2984   0.971   1.844   3.289  1.1828 -0.1738  0.5838
  208DMF     H7 2985   1.066   1.782   3.551 -1.9525  1.3964 -1.6416
  209DMF     C1 2986   2.269   2.546   0.900 -0.0410 -0.9304  0.3528
  209DMF     N1 2987   2.316   2.500   1.039 -0.1323  0.6125 -0.3027
  209DMF     C2 2988   2.305   2.588   1.153 -0.0485 -0.3591  0.2730
  209DMF     C3 2989   2.338   2.358   1.066  0.1922  0.4391  0.2505
  209DMF     O1 2990   2.324   2.274   0.986 -0.0961  0.0248  0.0435
  209DMF     H1 2991   2.282   2.655   0.896  0.8533 -1.0433  0.1484
  209DMF     H2 2992   2.163   2.529   0.880 -0.2839  0.2335  0.6115
  209DMF     H3 2993   2.328   2.499   0.820 -0.2297 -2.0837  0.8710
  209DMF     H4 2994   2.253   2.672   1.106  0.0560  0.6356  1.9050
  209DMF     H5 2995   2.406   2.613   1.184 -0.3563 -0.5571  1.4497
  209DMF     H6 2996   2.248   2.545   1.237 -0.4063 -1.3550 -0.4606
  209DMF     H7 2997   2.384   2.347   1.166 -0.6513  1.8968  0.8109
  210DMF     C1 2998   0.300   2.032   1.541 -0.7475 -0.3111 -0.6286
  210DMF     N1 2999   0.340   1.892   1.552  0.1764  0.2149  0.4874
  210DMF     C2 3000   0.234   1.790   1.545 -0.1825 -0.5225  0.9580
  210DMF     C3 3001   0.476   1.858   1.555 -0.5883  0.2098 -0.2918
  210DMF     O1 3002   0.567   1.937   1.559  0.1902 -0.3251  1.1285
  210DMF     H1 3003   0.225   2.054   1.618  0.6027 -1.8014  1.1600
  210DMF     H2 3004   0.266   2.050   1.438 -1.1030 -2.1474 -0.8459
  210DMF     H3 3005   0.385   2.092   1.576  0.5887 -1.5187 -1.7445
  210DMF     H4 3006   0.144   1.822   1.600  0.0509 -0.7336  1.4668
  210DMF     H5 3007   0.258   1.692   1.588  3.1128 -1.5061 -2.7962
  210DMF     H6 3008   0.204   1.774   1.441  0.4510  1.6733  0.4170
  210DMF     H7 3009   0.484   1.748   1.549 -0.1774  0.2724 -1.0397
  211DMF     C1 3010   1.501   1.336   2.694  0.0309  0.1997  0.5118
  211DMF     N1 3011   1.643   1.354   2.677  0.4456 -0.1757  0.1009
  211DMF     C2 3012   1.736   1.331   2.791  0.3345  0.0529  0.0538
  211DMF     C3 3013   1.701   1.374   2.552  0.2267  0.6332  0.6248
  211DMF     O1 3014   1.646   1.360   2.443 -0.4027 -0.4802 -0.4980
  211DMF     H1 3015   1.459   1.300   2.599  1.6913  0.8956 -0.5036
  211DMF     H2 3016   1.443   1.424   2.724 -0.9230  0.1679 -1.1421
  211DMF     H3 3017   1.494   1.251   2.763  0.5784 -0.8567 -0.6948
  211DMF     H4 3018   1.839   1.307   2.763 -0.0236 -0.8389 -0.5316
  211DMF     H5 3019   1.710   1.244   2.852 -1.3482  0.8677  0.5257
  211DMF     H6 3020   1.733   1.419   2.857 -1.1669 -0.9337  1.3594
  211DMF     H7 3021   1.803   1.414   2.571 -0.1062  1.0646  1.5239
  212DMF     C1 3022   1.500   2.103   0.802 -0.4896  0.2177 -0.3911
  212DMF     N1 3023   1.357   2.096   0.821 -0.3856 -0.1282 -0.1150
  212DMF     C2 3024   1.306   2.069   0.954 -0.2396 -1.0704  0.1926
  212DMF     C3 3025   1.271   2.112   0.713 -0.7177  0.4509  0.2772
  212DMF     O1 3026   1.311   2.159   0.605  0.0721  0.4878  0.0277
  212DMF     H1 3027   1.555   2.101   0.897  0.0301  0.1594 -0.6910
  212DMF     H2 3028   1.522   2.188   0.736  1.2016 -1.7333 -2.4018
  212DMF     H3 3029   1.535   2.013   0.750 -1.8739  0.4427 -1.7214
  212DMF     H4 3030   1.362   1.982   0.990  1.6227 -0.5481 -1.3986
  212DMF     H5 3031   1.202   2.033   0.952 -0.6229 -0.0038  0.3746
  212DMF     H6 3032   1.321   2.158   1.016  0.0878 -1.0409  0.0707
  212DMF     H7 3033   1.168   2.076   0.728 -1.0999  1.0316 -0.8609
  213DMF     C1 3034   3.149   1.482   3.728  0.0748  0.4089  0.5730
  213DMF     N1 3035   3.056   1.559   3.812  0.4276 -0.0860 -0.3454
  213DMF     C2 3036   2.947   1.635   3.742  0.2934  0.3428 -0.5031
  213DMF     C3 3037   3.077   1.583   3.950 -0.2796  0.0131  0.6008
  213DMF     O1 3038   3.173   1.536   4.004 -0.3117 -0.0535  0.3798
  213DMF     H1 3039   3.125   1.480   3.621  1.1738  1.6639  0.2808
  213DMF     H2 3040   3.151   1.381   3.769 -0.7177  0.0228 -0.3193
  213DMF     H3 3041   3.251   1.521   3.739  0.4643  0.0676 -1.7025
  213DMF     H4 3042   2.856   1.629   3.803  0.0983 -3.6771 -1.0721
  213DMF     H5 3043   2.916   1.587   3.648  0.8587  1.2633 -1.1735
  213DMF     H6 3044   2.969   1.741   3.723  0.7071  0.5415  1.0557
  213DMF     H7 3045   3.007   1.652   4.000  1.2995  2.5323 -0.5983
  214DMF     C1 3046   2.934   2.069   3.118 -0.4807 -0.2796  0.2914
  214DMF     N1 3047   2.794   2.040   3.134 -0.5567 -0.4795 -0.3218
  214DMF     C2 3048   2.752   1.934   3.223 -0.3746  0.4900 -0.2308
  214DMF     C3 3049   2.694   2.117   3.070  0.5348  0.4895  0.7733
  214DMF     O1 3050   2.722   2.201   2.983  0.1938  0.1560 -0.1781
  214DMF     H1 3051   2.976   2.028   3.026  0.5153 -2.1039  1.5242
  214DMF     H2 3052   2.988   2.010   3.194  0.4301  0.5704  0.3149
  214DMF     H3 3053   2.953   2.177   3.124  0.8644 -0.5664  1.7393
  214DMF     H4 3054   2.648   1.907   3.203 -0.0970 -0.1564 -0.8230
  214DMF     H5 3055   2.771   1.950   3.330 -0.3097  0.7104 -0.2744
  214DMF     H6 3056   2.810   1.843   3.203  1.5418  1.3242  1.2774
  214DMF     H7 3057   2.592   2.098   3.108 -0.2455 -0.5351 -1.7291
  215DMF     C1 3058   1.275   3.286   0.045 -0.2648 -0.7284 -0.1608
  215DMF     N1 3059   1.148   3.239   0.088 -0.0222  0.2717 -0.1552
  215DMF     C2 3060   1.079   3.297   0.200  0.2606  0.4945  0.7729
  215DMF     C3 3061   1.086   3.131   0.024  0.2470 -1.0878  0.4465
  215DMF     O1 3062   1.121   3.090  -0.082 -0.4307 -0.0460  0.4076
  215DMF     H1 3063   1.259   3.373  -0.021  1.8659 -0.1597  0.0291
  215DMF     H2 3064   1.326   3.203  -0.005 -0.1991  0.5691 -2.3486
  215DMF     H3 3065   1.339   3.319   0.128 -0.6842  0.3662 -0.2674
  215DMF     H4 3066   1.015   3.227   0.253 -1.0293  0.7921 -0.3590
  215DMF     H5 3067   1.024   3.382   0.158  0.9774  1.5050  1.8243
  215DMF     H6 3068   1.152   3.346   0.265  0.4481  0.7522  0.3749
  215DMF     H7 3069   0.988   3.097   0.063  0.2050 -1.9661 -0.4055
  216DMF     C1 3070   2.861   3.097   0.755 -0.2903  0.1382 -0.5506
  216DMF     N1 3071   2.849   3.063   0.903  0.0507  0.0452  0.4203
  216DMF     C2 3072   2.718   3.102   0.962  0.1022  0.3842 -0.1821
  216DMF     C3 3073   2.949   3.001   0.977  0.2857 -0.2287  0.0728
  216DMF     O1 3074   3.055   2.955   0.928  0.0252 -0.2094  0.0893
  216DMF     H1 3075   2.959   3.074   0.712  0.3098  1.0253  0.2971
  216DMF     H2 3076   2.853   3.207   0.754  1.9382  0.3499 -2.8964
  216DMF     H3 3077   2.779   3.041   0.708 -0.0661  0.4976 -1.3874
  216DMF     H4 3078   2.721   3.199   1.014 -2.4130  1.2521 -1.5910
  216DMF     H5 3079   2.681   3.026   1.031  0.6521  0.2977  0.0157
  216DMF     H6 3080   2.639   3.108   0.886 -1.6415  2.3994  1.6841
  216DMF     H7 3081   2.920   2.989   1.083  1.6092 -0.1301  0.4631
  217DMF     C1 3082   0.103   0.343   0.105 -0.7781  0.2596 -0.4774
  217DMF     N1 3083  -0.030   0.405   0.096 -0.0004  0.2066  0.0036
  217DMF     C2 3084  -0.053   0.543   0.053 -1.0632 -0.3024  0.0283
  217DMF     C3 3085  -0.145   0.328   0.144 -0.7258  0.4916 -0.7437
  217DMF     O1 3086  -0.128   0.216   0.183 -0.1419 -0.3084  0.5843
  217DMF     H1 3087   0.179   0.408   0.150  0.6560 -2.0739  0.5765
  217DMF     H2 3088   0.143   0.293   0.016 -0.3633 -0.9908  0.3988
  217DMF     H3 3089   0.104   0.275   0.190  0.8973  0.7128 -0.1160
  217DMF     H4 3090  -0.125   0.544  -0.030 -1.1219  3.3218  0.0304
  217DMF     H5 3091   0.046   0.580   0.022 -0.5276  0.8961  2.9784
  217DMF     H6 3092  -0.094   0.597   0.139 -2.6587 -1.1133 -0.2092
  217DMF     H7 3093  -0.249   0.365   0.133 -1.0491 -0.1297  0.1687
  218DMF     C1 3094   1.001   2.656   2.425 -0.5746 -0.0538  0.4120
  218DMF     N1 3095   0.940   2.742   2.323  0.3517 -0.0501 -0.1368
  218DMF     C2 3096   0.825   2.696   2.250 -0.7087  0.3358  0.5708
  218DMF     C3 3097   1.003   2.866   2.302  0.3452  0.5036 -0.0237
  218DMF     O1 3098   1.090   2.915   2.372 -0.8715 -0.3429 -0.0393
  218DMF     H1 3099   0.959   2.682   2.523  0.4058  0.4421  0.7004
  218DMF     H2 3100   1.109   2.675   2.429 -0.4208 -0.8110  0.0519
  218DMF     H3 3101   0.981   2.549   2.411 -0.3757  0.2385 -2.4670
  218DMF     H4 3102   0.844   2.604   2.193 -1.4360  1.6403 -1.8363
  218DMF     H5 3103   0.789   2.765   2.173 -0.5189  1.3160  1.3507
  218DMF     H6 3104   0.734   2.685   2.310 -1.7648 -2.1952 -1.3756
  218DMF     H7 3105   0.948   2.930   2.231  0.2525  1.2367  0.7012
  219DMF     C1 3106   3.094   1.789   2.942 -0.2844  0.4717 -0.0392
  219DMF     N1 3107   3.190   1.778   2.838 -1.0387  0.2214  0.4301
  219DMF     C2 3108   3.229   1.649   2.778 -0.1473 -0.1837 -0.8159
  219DMF     C3 3109   3.255   1.894   2.787  0.6004 -0.3122 -0.2012
  219DMF     O1 3110   3.222   2.006   2.825 -0.3348  0.2052  0.0572
  219DMF     H1 3111   3.063   1.691   2.980  1.8601  0.3347  1.4425
  219DMF     H2 3112   3.001   1.839   2.912  0.2805  1.4726 -0.1426
  219DMF     H3 3113   3.140   1.844   3.025 -0.1754  0.0247  0.1999
  219DMF     H4 3114   3.175   1.566   2.826 -1.0725 -0.6840 -2.6737
  219DMF     H5 3115   3.335   1.627   2.795 -0.3866 -1.5347 -0.9983
  219DMF     H6 3116   3.198   1.646   2.673 -0.4022 -0.7123 -0.7295
  219DMF     H7 3117   3.330   1.869   2.710  1.8635 -0.1573  0.9672
  220DMF     C1 3118   1.811   2.204   2.949  0.4681  0.4130 -0.0620
  220DMF     N1 3119   1.722   2.088   2.920  0.8326  0.0672  0.4171
  220DMF     C2 3120   1.759   1.955   2.973 -0.1794 -0.5240  0.1117
  220DMF     C3 3121   1.610   2.103   2.842 -0.0739 -0.5330 -0.4073
  220DMF     O1 3122   1.581   2.205   2.778 -0.6486  0.0673 -0.0180
  220DMF     H1 3123   1.866   2.186   3.043 -2.2707 -2.3301  1.0931
  220DMF     H2 3124   1.756   2.299   2.942 -2.8658 -1.3861  0.9708
  220DMF     H3 3125   1.882   2.214   2.866  0.1292 -1.0133 -0.5210
  220DMF     H4 3126   1.767   1.882   2.892 -1.3666  0.4491 -0.8894
  220DMF     H5 3127   1.691   1.905   3.044 -0.2880 -1.3920 -0.5980
  220DMF     H6 3128   1.866   1.965   2.996  0.5329 -0.9845 -2.8423
  220DMF     H7 3129   1.544   2.015   2.844 -0.1554 -0.4702 -0.3204
  221DMF     C1 3130   0.765   1.186   3.779  1.0464 -0.5017 -0.3591
  221DMF     N1 3131   0.747   1.337   3.770  0.3593  0.2549  0.5520
  221DMF     C2 3132   0.633   1.386   3.691 -0.1748  0.7476 -0.4075
  221DMF     C3 3133   0.819   1.423   3.855 -0.2168  0.4455 -0.1080
  221DMF     O1 3134   0.904   1.382   3.933 -0.8672  0.0231  0.0122
  221DMF     H1 3135   0.853   1.158   3.838  0.9608  0.0670  0.0366
  221DMF     H2 3136   0.786   1.154   3.676  0.3406 -1.0819 -0.3326
  221DMF     H3 3137   0.672   1.135   3.807  1.0809 -0.1477  0.4025
  221DMF     H4 3138   0.614   1.323   3.603 -1.1543 -1.1289  1.1087
  221DMF     H5 3139   0.646   1.488   3.653  3.3187  0.8486  0.8172
  221DMF     H6 3140   0.547   1.398   3.758  0.0670 -0.9636  0.2308
  221DMF     H7 3141   0.790   1.529   3.844  0.1502  0.4737 -0.7969
  222DMF     C1 3142   0.321   1.165   0.762  0.0029 -0.6503  0.0918
  222DMF     N1 3143   0.242   1.286   0.751 -0.1077  0.7799 -1.0502
  222DMF     C2 3144   0.133   1.278   0.658  0.0926  0.2297  0.3723
  222DMF     C3 3145   0.291   1.408   0.798  0.3762 -0.2286  0.2395
  222DMF     O1 3146   0.403   1.415   0.851 -0.4144 -0.2718  0.8031
  222DMF     H1 3147   0.356   1.131   0.664 -0.7840 -2.9226  0.5708
  222DMF     H2 3148   0.265   1.081   0.805 -0.4327 -0.6873 -0.5383
  222DMF     H3 3149   0.412   1.182   0.821  0.3672  0.9298 -0.9064
  222DMF     H4 3150   0.076   1.185   0.673  1.5513 -0.5274  1.2450
  222DMF     H5 3151   0.164   1.296   0.554 -1.3879  1.1272  0.0698
  222DMF     H6 3152   0.070   1.364   0.682  0.1136  0.4885 -0.4762
  222DMF     H7 3153   0.229   1.496   0.772  0.2367 -0.2218  0.5854
  223DMF     C1 3154   0.839   2.457   1.199  0.1007 -0.8667 -0.8924
  223DMF     N1 3155   0.743   2.577   1.206 -0.1846  0.0459 -0.4966
  223DMF     C2 3156   0.593   2.545   1.210 -0.0148  0.7337 -0.0905
  223DMF     C3 3157   0.783   2.702   1.242 -0.0382  0.3737 -0.6198
  223DMF     O1 3158   0.900   2.734   1.250 -0.2500 -0.7253  0.6216
  223DMF     H1 3159   0.915   2.463   1.278  1.0683 -0.2304 -1.8525
  223DMF     H2 3160   0.894   2.461   1.104  1.1447  0.0489 -0.2640
  223DMF     H3 3161   0.789   2.360   1.203 -2.6414  0.5557  0.5170
  223DMF     H4 3162   0.579   2.448   1.258  0.6003  0.5702 -0.2308
  223DMF     H5 3163   0.546   2.534   1.111  1.8405 -1.0839 -0.8059
  223DMF     H6 3164   0.543   2.619   1.273  0.0782 -0.2455  1.1543
  223DMF     H7 3165   0.694   2.760   1.273 -2.0196 -2.9444  0.1105
  224DMF     C1 3166   3.359   1.145   1.083  0.0078  0.1417  0.7278
  224DMF     N1 3167   3.292   1.272   1.055 -0.4218  0.2083 -0.2610
  224DMF     C2 3168   3.254   1.354   1.169  0.4325 -0.0942  0.4255
  224DMF     C3 3169   3.252   1.298   0.926 -0.6868 -0.5327 -0.5875
  224DMF     O1 3170   3.278   1.234   0.831  0.2776  0.5915 -0.0495
  224DMF     H1 3171   3.451   1.145   1.024 -0.9110  2.3900 -0.7517
  224DMF     H2 3172   3.304   1.055   1.051 -1.1833  1.0630  0.1607
  224DMF     H3 3173   3.391   1.132   1.188  5.8687  0.0450 -0.9010
  224DMF     H4 3174   3.243   1.461   1.148 -1.6401 -0.6494 -1.4809
  224DMF     H5 3175   3.342   1.349   1.234  0.0495 -1.4171  0.8659
  224DMF     H6 3176   3.166   1.309   1.217  0.3607 -0.4602 -0.0424
  224DMF     H7 3177   3.197   1.393   0.913  0.6969  0.4686  0.7012
  225DMF     C1 3178   2.584   2.954   0.106  0.1757  0.2002  0.1203
  225DMF     N1 3179   2.657   3.076   0.062  0.1528  0.8608 -0.3499
  225DMF     C2 3180   2.802   3.095   0.093 -0.1346  0.0919 -0.4267
  225DMF     C3 3181   2.591   3.175  -0.007 -0.3673  0.2890 -0.5615
  225DMF     O1 3182   2.471   3.181  -0.022  0.0903  0.0756  0.1763
  225DMF     H1 3183   2.509   2.987   0.179 -0.9307 -3.0019  0.5227
  225DMF     H2 3184   2.642   2.874   0.154 -0.8644 -1.3892 -1.2209
  225DMF     H3 3185   2.536   2.913   0.016 -1.0808  2.1029 -0.1034
  225DMF     H4 3186   2.805   3.107   0.202  2.5567  2.4240 -0.6766
  225DMF     H5 3187   2.847   3.179   0.039 -1.0899  0.2649 -0.9519
  225DMF     H6 3188   2.852   3.007   0.050  1.1925  0.9412 -0.6715
  225DMF     H7 3189   2.660   3.254  -0.042  0.7144 -0.0145  0.8588
  226DMF     C1 3190   1.690   0.057   2.664 -0.1754 -0.5506  0.8674
  226DMF     N1 3191   1.792   0.127   2.746 -0.5455  0.0720 -0.2551
  226DMF     C2 3192   1.903   0.185   2.683  0.2454  0.3412 -0.2115
  226DMF     C3 3193   1.794   0.091   2.882  0.0480  0.3741 -0.4338
  226DMF     O1 3194   1.715   0.019   2.926  0.1761  0.7943  0.3535
  226DMF     H1 3195   1.599   0.055   2.726 -0.8880  1.5800 -0.0374
  226DMF     H2 3196   1.731  -0.040   2.634 -0.1342  0.1367 -1.3966
  226DMF     H3 3197   1.667   0.095   2.564  0.7842  0.7628  1.1196
  226DMF     H4 3198   1.873   0.202   2.578  2.3719 -0.7939 -1.0282
  226DMF     H5 3199   1.998   0.131   2.680  0.5773  1.0122 -2.9959
  226DMF     H6 3200   1.911   0.286   2.723 -1.1465  0.8264 -1.1192
  226DMF     H7 3201   1.879   0.141   2.933 -0.6224  1.0754  0.0093
  227DMF     C1 3202   0.281   0.009   3.381  0.3145 -0.4510  0.6114
  227DMF     N1 3203   0.205   0.077   3.267  0.1129  0.0765 -0.0653
  227DMF     C2 3204   0.070   0.117   3.292  0.4273 -0.3526  0.1358
  227DMF     C3 3205   0.255   0.080   3.133  0.3164 -0.2740  0.6318
  227DMF     O1 3206   0.363   0.037   3.106  0.1266  0.5729  0.0920
  227DMF     H1 3207   0.389   0.016   3.362 -0.2466  1.5663 -2.0309
  227DMF     H2 3208   0.267  -0.100   3.389  0.1844 -0.3588  1.6379
  227DMF     H3 3209   0.270   0.051   3.481  1.4046  0.9591  0.1468
  227DMF     H4 3210   0.027   0.080   3.386 -0.7796  0.4445 -0.0838
  227DMF     H5 3211   0.012   0.082   3.205 -1.2466  0.2734  0.9794
  227DMF     H6 3212   0.067   0.227   3.298 -1.3125 -0.3881  0.2132
  227DMF     H7 3213   0.193   0.138   3.062  0.9666 -0.2326  0.0956
  228DMF     C1 3214   1.183   1.485   0.085  0.3108 -0.7506  0.3710
  228DMF     N1 3215   1.279   1.439   0.191 -0.6439 -0.2644  0.3864
  228DMF     C2 3216   1.234   1.451   0.330 -0.1579 -0.0295  0.5271
  228DMF     C3 3217   1.415   1.422   0.159  0.2700  0.2621  0.7547
  228DMF     O1 3218   1.463   1.419   0.045 -0.6932  0.7610 -0.3202
  228DMF     H1 3219   1.156   1.392   0.033  0.1860  0.3995 -1.6706
  228DMF     H2 3220   1.231   1.559   0.019  0.8126  0.5884  2.1803
  228DMF     H3 3221   1.101   1.541   0.132 -0.5453  0.7330 -2.7544
  228DMF     H4 3222   1.185   1.548   0.343 -0.9141 -0.4562  0.8695
  228DMF     H5 3223   1.315   1.447   0.404 -0.8315  1.4546  1.3698
  228DMF     H6 3224   1.162   1.371   0.352 -0.0360 -0.3272 -0.1276
  228DMF     H7 3225   1.475   1.391   0.246  0.5043  0.0848  0.5307
  229DMF     C1 3226   0.843   0.976   1.245 -0.1737 -0.6156  0.0228
  229DMF     N1 3227   0.889   0.864   1.154 -0.4392 -0.4104 -0.0809
  229DMF     C2 3228   0.802   0.833   1.042  0.0657  0.3515 -0.1943
  229DMF     C3 3229   1.009   0.796   1.171  0.5683  0.4403 -0.2247
  229DMF     O1 3230   1.097   0.819   1.255  0.2734 -0.4143 -0.5311
  229DMF     H1 3231   0.735   0.972   1.260 -0.4232  2.1266 -0.8439
  229DMF     H2 3232   0.880   1.078   1.227  0.6105 -0.5066  2.1274
  229DMF     H3 3233   0.889   0.959   1.343  0.6954  0.6383 -0.1612
  229DMF     H4 3234   0.866   0.773   0.977  0.3998  1.7233 -1.1462
  229DMF     H5 3235   0.751   0.923   1.005 -1.2581 -0.0213  0.6879
  229DMF     H6 3236   0.726   0.767   1.086 -2.1493  0.3370 -3.8960
  229DMF     H7 3237   1.029   0.721   1.092 -1.4370  0.1194 -0.4475
  230DMF     C1 3238   2.704   0.989   1.367  0.4517  0.0045  0.1816
  230DMF     N1 3239   2.599   0.986   1.258  0.2729 -0.1327 -0.0046
  230DMF     C2 3240   2.500   0.879   1.268 -0.1813  1.1374  0.5202
  230DMF     C3 3241   2.569   1.101   1.179  0.3592 -0.3873 -0.0838
  230DMF     O1 3242   2.633   1.204   1.197 -0.2841 -0.2930  0.4773
  230DMF     H1 3243   2.796   0.944   1.329  1.1307  0.4670  1.2634
  230DMF     H2 3244   2.676   0.930   1.455  1.4144 -0.2654  0.3133
  230DMF     H3 3245   2.735   1.086   1.407  0.8944 -0.8692  2.0349
  230DMF     H4 3246   2.540   0.778   1.279 -0.7158  0.9023  0.2842
  230DMF     H5 3247   2.456   0.875   1.167  0.5323 -0.3453  0.2519
  230DMF     H6 3248   2.414   0.912   1.327 -2.2267 -3.2354  0.1783
  230DMF     H7 3249   2.489   1.081   1.106  0.9262 -0.9174 -0.5626
  231DMF     C1 3250   1.306   2.028   3.341 -0.6396 -0.0683 -0.4232
  231DMF     N1 3251   1.276   2.075   3.203 -0.0689 -0.5976  0.7002
  231DMF     C2 3252   1.175   1.997   3.125 -0.0667  0.2107 -0.3167
  231DMF     C3 3253   1.360   2.170   3.138  0.4510  0.4837 -0.1205
  231DMF     O1 3254   1.464   2.220   3.185 -0.0501  0.1671  0.1715
  231DMF     H1 3255   1.341   1.924   3.334 -2.7322 -0.8424  0.1447
  231DMF     H2 3256   1.212   2.027   3.396 -2.2472 -1.5808 -3.0535
  231DMF     H3 3257   1.384   2.083   3.394 -0.9162  0.4309 -0.5322
  231DMF     H4 3258   1.072   1.996   3.163 -0.6596  2.7030 -1.7222
  231DMF     H5 3259   1.207   1.893   3.136  0.9990  0.6212  0.6531
  231DMF     H6 3260   1.185   2.028   3.021 -0.0278  0.3992 -0.2583
  231DMF     H7 3261   1.326   2.190   3.035 -2.7520 -0.0021  0.8049
  232DMF     C1 3262   2.779   2.150   3.583  0.0136  0.6365 -0.2533
  232DMF     N1 3263   2.753   2.220   3.451 -0.0495  0.1849 -0.1283
  232DMF     C2 3264   2.616   2.222   3.408  0.5068  0.4310  0.4241
  232DMF     C3 3265   2.851   2.266   3.369 -0.4091 -0.1491  0.1681
  232DMF     O1 3266   2.972   2.242   3.390 -0.3460 -0.1420  0.3513
  232DMF     H1 3267   2.800   2.044   3.564 -0.0636  0.5415  0.1773
  232DMF     H2 3268   2.690   2.148   3.647  0.3682  1.5082  0.2699
  232DMF     H3 3269   2.860   2.195   3.643 -1.8128  1.0325  1.9946
  232DMF     H4 3270   2.588   2.116   3.408  0.0105  0.4961  4.1429
  232DMF     H5 3271   2.612   2.255   3.303  0.1312  0.7110  0.5216
  232DMF     H6 3272   2.552   2.269   3.484  0.1581 -0.4880  0.6994
  232DMF     H7 3273   2.820   2.331   3.285  1.0110  0.5645  0.1855
  233DMF     C1 3274   1.638   2.888   1.445 -0.3605 -0.8320  0.1092
  233DMF     N1 3275   1.762   2.924   1.523  0.2337  0.2781  0.3475
  233DMF     C2 3276   1.854   2.807   1.546 -0.1021 -0.4753 -0.5160
  233DMF     C3 3277   1.788   3.059   1.559  0.2499 -0.4252  0.1723
  233DMF     O1 3278   1.710   3.146   1.548 -0.3235  0.3367  0.2640
  233DMF     H1 3279   1.660   2.821   1.361  2.0197 -2.3708  1.8919
  233DMF     H2 3280   1.582   2.976   1.411 -0.5046 -0.7597  0.5166
  233DMF     H3 3281   1.571   2.823   1.503  2.4834 -3.2192  0.8001
  233DMF     H4 3282   1.889   2.758   1.454 -1.4031 -1.2458 -0.6113
  233DMF     H5 3283   1.806   2.738   1.617  1.1250 -0.8274 -0.0108
  233DMF     H6 3284   1.947   2.843   1.591  0.7523  0.3777 -2.9394
  233DMF     H7 3285   1.887   3.082   1.603  1.3455  1.4368 -3.1465
  234DMF     C1 3286   1.096   1.186   3.622 -0.6039  0.1403  0.3612
  234DMF     N1 3287   1.218   1.166   3.542 -0.1477 -0.2838  0.1956
  234DMF     C2 3288   1.347   1.158   3.612 -0.2936 -0.5409 -0.1669
  234DMF     C3 3289   1.213   1.116   3.413 -0.0484 -0.2788 -0.3807
  234DMF     O1 3290   1.100   1.107   3.363  0.2455 -0.2760  0.0255
  234DMF     H1 3291   1.060   1.092   3.665  0.7232 -1.1930 -1.3541
  234DMF     H2 3292   1.012   1.230   3.566  1.7368  1.3271 -2.3976
  234DMF     H3 3293   1.120   1.243   3.712  0.9180  0.6820 -0.3625
  234DMF     H4 3294   1.438   1.164   3.551 -0.5342 -1.7371 -0.6709
  234DMF     H5 3295   1.342   1.075   3.684 -0.9023  0.4468  0.9436
  234DMF     H6 3296   1.342   1.253   3.667 -2.5294  1.3453 -3.4218
  234DMF     H7 3297   1.311   1.094   3.367 -0.2917 -1.1302 -0.4951
  235DMF     C1 3298   0.877   2.054   2.836 -0.3424 -0.5475 -0.7078
  235DMF     N1 3299   0.906   2.029   2.698  0.1048  0.8795  0.5455
  235DMF     C2 3300   0.919   1.885   2.657 -0.1106 -0.2918  0.3274
  235DMF     C3 3301   0.899   2.124   2.597  0.5292 -0.4394  0.6098
  235DMF     O1 3302   0.878   2.241   2.623  0.3464  0.4148 -0.2933
  235DMF     H1 3303   0.787   2.115   2.853 -0.5598 -1.4799  1.6345
  235DMF     H2 3304   0.966   2.099   2.881 -0.5811 -0.5110 -0.2659
  235DMF     H3 3305   0.861   1.961   2.892 -1.8852  0.4620  0.5712
  235DMF     H4 3306   0.899   1.815   2.740  0.1261  1.7008  2.1076
  235DMF     H5 3307   1.017   1.869   2.611  0.1235  0.4958  0.5521
  235DMF     H6 3308   0.846   1.866   2.577  1.9654 -1.7559 -1.2555
  235DMF     H7 3309   0.900   2.081   2.495 -0.5173  1.0143 -0.0267
  236DMF     C1 3310   2.977   2.440   2.941 -0.2144  0.4007 -0.4006
  236DMF     N1 3311   3.059   2.511   2.841 -0.1863 -0.5103 -0.0052
  236DMF     C2 3312   3.138   2.428   2.745 -0.0386  0.0322 -0.0226
  236DMF     C3 3313   3.094   2.641   2.862 -0.7896 -0.5875  0.4674
  236DMF     O1 3314   3.059   2.717   2.956 -0.3795 -0.0834 -0.4239
  236DMF     H1 3315   2.873   2.475   2.940  0.0583  1.2015 -0.4305
  236DMF     H2 3316   3.018   2.438   3.042 -0.3220 -0.2427 -0.3666
  236DMF     H3 3317   2.971   2.336   2.906 -0.8371  0.8297 -1.6170
  236DMF     H4 3318   3.241   2.462   2.726 -0.6043  2.2752  0.7183
  236DMF     H5 3319   3.081   2.403   2.655  1.3625 -1.0827 -0.6135
  236DMF     H6 3320   3.159   2.332   2.793  0.4775  1.1074  1.9323
  236DMF     H7 3321   3.167   2.683   2.790 -2.9577  1.1484 -0.7910
  237DMF     C1 3322   0.347   2.173   3.490  0.0817  0.4146  0.2927
  237DMF     N1 3323   0.292   2.174   3.353  0.2380 -0.1292  0.0878
  237DMF     C2 3324   0.354   2.080   3.255 -0.3007 -0.1745 -0.4879
  237DMF     C3 3325   0.196   2.266   3.313  0.4921 -0.4178  0.8726
  237DMF     O1 3326   0.142   2.347   3.396  0.2432  0.2341 -0.6789
  237DMF     H1 3327   0.448   2.215   3.484  0.3119 -0.1122  0.4774
  237DMF     H2 3328   0.353   2.071   3.528 -1.2567 -0.2776 -1.2953
  237DMF     H3 3329   0.279   2.221   3.561 -0.6597  2.5647 -1.8125
  237DMF     H4 3330   0.321   1.978   3.276 -2.8167  0.7420  0.2361
  237DMF     H5 3331   0.463   2.096   3.258 -0.3664  0.0997  0.6493
  237DMF     H6 3332   0.318   2.114   3.157 -0.6694 -1.2485 -0.7304
  237DMF     H7 3333   0.176   2.258   3.205 -0.0942  1.3362  0.8283
  238DMF     C1 3334   2.425   2.272   0.558  0.3380 -0.2139 -0.2799
  238DMF     N1 3335   2.551   2.276   0.623 -0.2792 -0.6386 -0.2103
  238DMF     C2 3336   2.575   2.203   0.745  0.5287 -0.0969  0.2097
  238DMF     C3 3337   2.660   2.341   0.559 -0.1316  0.1023  0.7518
  238DMF     O1 3338   2.655   2.394   0.451  0.1844 -0.0975  0.3970
  238DMF     H1 3339   2.438   2.259   0.450  0.5824 -2.3639 -0.0117
  238DMF     H2 3340   2.357   2.355   0.583 -0.3819 -0.3385 -1.7529
  238DMF     H3 3341   2.379   2.175   0.582 -0.6200  0.8556  2.4054
  238DMF     H4 3342   2.582   2.099   0.711 -0.4322  0.1596 -0.8543
  238DMF     H5 3343   2.490   2.215   0.814 -0.5140  1.3690 -1.2695
  238DMF     H6 3344   2.669   2.224   0.797  0.5749  0.3766 -0.0638
  238DMF     H7 3345   2.746   2.355   0.628 -0.1658  2.3489  0.3607
  239DMF     C1 3346   0.744   0.441   1.190 -1.0337 -0.2038 -0.2715
  239DMF     N1 3347   0.822   0.315   1.212  0.4057  0.2904 -0.2503
  239DMF     C2 3348   0.929   0.315   1.308  0.7249 -0.0377  0.1244
  239DMF     C3 3349   0.797   0.194   1.142  0.8815  0.1603  0.1995
  239DMF     O1 3350   0.703   0.186   1.062 -0.0964  0.2232  0.0400
  239DMF     H1 3351   0.757   0.485   1.090  0.3775 -0.3449 -0.1534
  239DMF     H2 3352   0.785   0.511   1.264 -0.9107  0.9246 -1.3866
  239DMF     H3 3353   0.637   0.422   1.204 -0.3350 -3.4581  1.0424
  239DMF     H4 3354   0.901   0.372   1.397  1.9766  2.0393 -0.7846
  239DMF     H5 3355   1.020   0.362   1.268  0.3987  0.7236  0.2812
  239DMF     H6 3356   0.964   0.213   1.327 -0.8674 -0.4756  0.7974
  239DMF     H7 3357   0.864   0.110   1.169  4.1676  2.4464 -0.5238
  240DMF     C1 3358   0.001   0.645   2.276  0.2040 -0.5178 -0.3610
  240DMF     N1 3359   0.124   0.696   2.347 -0.8134  0.3771  0.0759
  240DMF     C2 3360   0.222   0.601   2.415 -0.2348 -0.1608  0.4715
  240DMF     C3 3361   0.175   0.823   2.315 -0.2216  0.3049 -0.2138
  240DMF     O1 3362   0.120   0.893   2.234 -0.9787  0.1119 -0.0210
  240DMF     H1 3363   0.006   0.694   2.178 -0.1004  1.5762  0.6417
  240DMF     H2 3364  -0.089   0.668   2.336  1.4524 -0.5271  1.5423
  240DMF     H3 3365   0.017   0.538   2.260  1.1811 -0.4241 -0.0251
  240DMF     H4 3366   0.266   0.643   2.506  1.7687 -0.1573 -0.4643
  240DMF     H5 3367   0.294   0.568   2.339 -0.6777  1.4310 -0.6594
  240DMF     H6 3368   0.168   0.511   2.448 -1.7175  0.7748  0.6625
  240DMF     H7 3369   0.268   0.850   2.368 -0.0889 -1.3644  0.4186
  241DMF     C1 3370   2.379   0.574   1.220  0.1886 -0.0508  0.5295
  241DMF     N1 3371   2.322   0.438   1.232 -0.6773 -0.2959  0.5300
  241DMF     C2 3372   2.232   0.392   1.120  0.1208 -0.5324 -0.5137
  241DMF     C3 3373   2.371   0.338   1.311 -0.5037  0.5303  0.6180
  241DMF     O1 3374   2.447   0.359   1.405  0.4554 -0.3061  0.9227
  241DMF     H1 3375   2.489   0.568   1.220  0.3158  1.9545  0.2844
  241DMF     H2 3376   2.324   0.636   1.292 -1.6597 -1.9188  0.7813
  241DMF     H3 3377   2.364   0.626   1.125  0.4040  0.4067  0.7430
  241DMF     H4 3378   2.126   0.389   1.148 -0.0194 -0.7722 -1.0565
  241DMF     H5 3379   2.269   0.293   1.090  1.8834  0.1333 -0.6242
  241DMF     H6 3380   2.255   0.449   1.029  0.8146 -1.1764 -0.7542
  241DMF     H7 3381   2.342   0.235   1.282  0.2008 -0.5720  3.6840
  242DMF     C1 3382   0.463   1.844   3.608 -0.7144 -0.2108 -0.3235
  242DMF     N1 3383   0.421   1.871   3.751 -0.1824 -0.7811  0.0688
  242DMF     C2 3384   0.480   1.980   3.821  0.3691 -0.0965 -0.2750
  242DMF     C3 3385   0.343   1.778   3.813 -1.0256  0.1563  0.3929
  242DMF     O1 3386   0.297   1.677   3.763  0.0623 -0.3748  0.1292
  242DMF     H1 3387   0.494   1.931   3.549 -0.1339 -0.6329 -0.6606
  242DMF     H2 3388   0.375   1.807   3.555  0.4209 -1.3963 -1.4323
  242DMF     H3 3389   0.539   1.765   3.593  0.3081  1.0856 -2.2277
  242DMF     H4 3390   0.552   1.943   3.894  1.6620  1.3414 -0.7882
  242DMF     H5 3391   0.406   2.043   3.873 -0.5714  0.2825 -2.0146
  242DMF     H6 3392   0.540   2.039   3.750  1.4215 -0.2052  0.5180
  242DMF     H7 3393   0.323   1.806   3.918 -0.9342  1.0218  0.1843
  243DMF     C1 3394   1.901   0.390   3.444 -0.5867 -0.2443 -0.3924
  243DMF     N1 3395   2.033   0.339   3.387 -0.0444  0.0789  0.6615
  243DMF     C2 3396   2.044   0.279   3.254  0.0583 -0.5363 -0.4382
  243DMF     C3 3397   2.144   0.326   3.476 -0.1652  0.5663  0.2090
  243DMF     O1 3398   2.151   0.369   3.588  0.1316  0.3196 -1.0259
  243DMF     H1 3399   1.828   0.309   3.431 -0.3459 -0.3582 -1.0487
  243DMF     H2 3400   1.871   0.485   3.399  1.8689  1.0097  0.5383
  243DMF     H3 3401   1.908   0.401   3.553  1.6490 -2.5032 -0.2592
  243DMF     H4 3402   2.003   0.344   3.175  1.2702  0.5106 -0.2182
  243DMF     H5 3403   1.989   0.184   3.256 -0.9609  0.0542 -0.2185
  243DMF     H6 3404   2.146   0.243   3.235  0.0974 -0.5982 -0.1110
  243DMF     H7 3405   2.233   0.290   3.422  0.0646 -2.7791  2.6284
  244DMF     C1 3406   1.755   3.175   0.434  0.2202  0.1944  0.6175
  244DMF     N1 3407   1.707   3.032   0.434  0.1761  0.2662  0.2091
  244DMF     C2 3408   1.596   3.001   0.340  0.6221 -0.5620 -0.6463
  244DMF     C3 3409   1.722   2.950   0.542 -0.5900 -0.6084 -0.7939
  244DMF     O1 3410   1.817   2.964   0.620 -0.1112 -0.2821 -0.6737
  244DMF     H1 3411   1.790   3.204   0.534 -1.6919  3.5530  0.3987
  244DMF     H2 3412   1.682   3.246   0.392  0.6805  1.7857  2.4239
  244DMF     H3 3413   1.833   3.184   0.358 -1.1662  0.0488 -0.8410
  244DMF     H4 3414   1.627   3.001   0.235  1.6761  0.1320 -0.3501
  244DMF     H5 3415   1.512   3.070   0.352  2.4341  1.7526 -0.7372
  244DMF     H6 3416   1.559   2.902   0.367 -0.7734 -0.3852 -1.8489
  244DMF     H7 3417   1.643   2.873   0.537 -1.3194 -0.1257  2.2202
  245DMF     C1 3418   2.403   3.419   1.522 -0.6541 -0.0028 -0.1205
  245DMF     N1 3419   2.556   3.407   1.545  0.2149 -0.0749 -0.5315
  245DMF     C2 3420   2.631   3.531   1.558  0.8640 -0.2232 -0.0186
  245DMF     C3 3421   2.627   3.284   1.544 -0.3270  0.1714 -0.3689
  245DMF     O1 3422   2.566   3.180   1.523  0.0529  0.4587  0.2092
  245DMF     H1 3423   2.372   3.520   1.492 -0.4863  0.2634  0.6064
  245DMF     H2 3424   2.356   3.396   1.619 -2.3592 -1.1983 -1.2019
  245DMF     H3 3425   2.367   3.343   1.452 -0.8712  1.4549 -1.6262
  245DMF     H4 3426   2.735   3.505   1.531  0.2631 -1.9336 -0.7673
  245DMF     H5 3427   2.624   3.581   1.655  1.4184  0.2942 -0.2428
  245DMF     H6 3428   2.586   3.602   1.488  0.1549 -0.4982  0.1547
  245DMF     H7 3429   2.736   3.298   1.549 -0.5723  1.6882  1.8556
  246DMF     C1 3430   2.008   2.807   3.604 -0.5582 -0.2118 -0.0930
  246DMF     N1 3431   2.107   2.916   3.598  0.1629 -0.5056 -0.4499
  246DMF     C2 3432   2.255   2.880   3.615  0.5396 -0.2027 -0.1144
  246DMF     C3 3433   2.079   3.055   3.586  0.1704 -0.7189 -0.3126
  246DMF     O1 3434   1.964   3.092   3.576 -0.1961  0.6157  0.4878
  246DMF     H1 3435   1.945   2.826   3.692  0.5635  1.5479  0.3524
  246DMF     H2 3436   2.060   2.712   3.618 -1.1404 -0.6151 -0.6648
  246DMF     H3 3437   1.942   2.820   3.517 -1.5181 -0.5937  0.5697
  246DMF     H4 3438   2.284   2.798   3.547  2.7864  2.1297 -2.0977
  246DMF     H5 3439   2.270   2.838   3.715 -0.0241  1.3689  0.6303
  246DMF     H6 3440   2.325   2.961   3.589 -1.0152  0.2439 -3.2020
  246DMF     H7 3441   2.169   3.119   3.586 -0.0024 -0.4317  2.0873
  247DMF     C1 3442   2.843   1.511   1.065  0.1554  0.0821  0.5659
  247DMF     N1 3443   2.728   1.606   1.053 -1.0682 -0.4376 -0.5862
  247DMF     C2 3444   2.603   1.565   1.119  0.2232 -0.3131 -0.2888
  247DMF     C3 3445   2.734   1.716   0.968  0.6870  0.0604  0.5752
  247DMF     O1 3446   2.847   1.751   0.936 -0.3552  0.0113  0.1043
  247DMF     H1 3447   2.817   1.417   1.014 -1.8775 -0.0212  1.7894
  247DMF     H2 3448   2.866   1.486   1.169 -1.5904  0.2924  1.0091
  247DMF     H3 3449   2.929   1.549   1.007 -0.3518 -0.1131 -0.3335
  247DMF     H4 3450   2.562   1.647   1.180 -0.3702  0.3447 -1.5548
  247DMF     H5 3451   2.601   1.479   1.188  1.0818  0.0222  0.1610
  247DMF     H6 3452   2.524   1.542   1.047  0.8733 -0.4130 -0.9760
  247DMF     H7 3453   2.639   1.752   0.923  1.2406  0.8944  0.0604
  248DMF     C1 3454   2.152   2.275   1.515 -0.5158 -0.5025  0.4845
  248DMF     N1 3455   2.028   2.356   1.530 -0.1587 -0.0491 -1.0081
  248DMF     C2 3456   1.892   2.293   1.568 -0.4838  0.8154  0.1682
  248DMF     C3 3457   2.020   2.494   1.512 -0.4875  0.0265  0.7544
  248DMF     O1 3458   2.118   2.556   1.473  0.0606 -0.1380  0.2336
  248DMF     H1 3459   2.139   2.169   1.491 -0.0384 -0.5163  0.2648
  248DMF     H2 3460   2.211   2.283   1.607 -1.1074  4.0319  0.6308
  248DMF     H3 3461   2.202   2.310   1.423 -0.6462 -0.9968  0.2288
  248DMF     H4 3462   1.832   2.285   1.476 -1.0046 -0.0872  0.5847
  248DMF     H5 3463   1.831   2.360   1.629 -1.3991  0.8825 -0.7959
  248DMF     H6 3464   1.899   2.201   1.628 -1.9564 -0.0511 -0.9560
  248DMF     H7 3465   1.917   2.534   1.515  0.3271  2.2862 -0.5402
  249DMF     C1 3466   1.944   1.970   2.606 -0.1814 -0.8814 -0.0635
  249DMF     N1 3467   1.829   1.877   2.584  0.1834 -1.0076 -0.6543
  249DMF     C2 3468   1.706   1.940   2.527 -0.6099  0.3330  0.4348
  249DMF     C3 3469   1.828   1.744   2.638  0.2133  0.7614 -0.4226
  249DMF     O1 3470   1.928   1.701   2.698  0.1515  0.1010 -0.7959
  249DMF     H1 3471   1.951   1.981   2.715 -0.7296 -0.7753 -0.0393
  249DMF     H2 3472   1.925   2.072   2.570 -0.9298 -0.5401  1.2770
  249DMF     H3 3473   2.041   1.927   2.579 -0.0267 -0.3873 -0.3023
  249DMF     H4 3474   1.668   2.014   2.599  0.6970  1.4843 -0.0342
  249DMF     H5 3475   1.626   1.870   2.501 -0.4038 -0.2298  1.2738
  249DMF     H6 3476   1.739   1.994   2.438 -1.6194 -0.8728 -0.6863
  249DMF     H7 3477   1.737   1.684   2.622  1.0499 -1.8052  3.7405
  250DMF     C1 3478   1.302   2.600   3.172  0.4422  0.0743  0.5558
  250DMF     N1 3479   1.343   2.741   3.176 -0.4407 -0.2902  0.1297
  250DMF     C2 3480   1.401   2.788   3.050 -0.1094 -0.1060  0.4335
  250DMF     C3 3481   1.333   2.818   3.292 -0.0021  0.2836  0.1538
  250DMF     O1 3482   1.287   2.777   3.398 -0.1875 -0.0975 -0.3464
  250DMF     H1 3483   1.240   2.601   3.081 -0.8763  1.4631  1.4497
  250DMF     H2 3484   1.233   2.589   3.256 -1.5163  1.2886 -0.8382
  250DMF     H3 3485   1.383   2.528   3.187 -0.8852 -0.8115  3.6396
  250DMF     H4 3486   1.464   2.878   3.062  1.6895 -1.2641 -0.2064
  250DMF     H5 3487   1.316   2.811   2.984 -0.8827  3.1531  2.3924
  250DMF     H6 3488   1.464   2.707   3.012  1.0042  1.4727 -1.1736
  250DMF     H7 3489   1.372   2.920   3.270  0.3874 -0.6357 -3.7621
  251DMF     C1 3490   1.471   3.437   0.567 -0.2591 -0.3252 -0.0027
  251DMF     N1 3491   1.551   3.460   0.449  0.2003  0.1942 -0.0768
  251DMF     C2 3492   1.492   3.449   0.315 -0.1227  0.7417  0.0692
  251DMF     C3 3493   1.683   3.502   0.453  0.7349 -0.0954 -0.0504
  251DMF     O1 3494   1.751   3.521   0.553 -0.3917 -0.2999 -0.2141
  251DMF     H1 3495   1.447   3.331   0.557 -0.3078 -0.2510 -0.7091
  251DMF     H2 3496   1.376   3.492   0.570 -0.9132 -1.3448 -1.5012
  251DMF     H3 3497   1.520   3.451   0.664  1.7971 -1.2367 -0.9024
  251DMF     H4 3498   1.393   3.405   0.335  1.5822 -3.2054  0.3819
  251DMF     H5 3499   1.545   3.369   0.260  0.2812  0.6041  0.6525
  251DMF     H6 3500   1.498   3.545   0.263 -1.9884  1.8819  1.8632
  251DMF     H7 3501   1.729   3.512   0.353  1.4917 -1.5802  0.1400
  252DMF     C1 3502   1.256   2.752   0.059 -0.2199 -0.9506  0.0865
  252DMF     N1 3503   1.108   2.708   0.063 -0.3369  0.0562  0.8040
  252DMF     C2 3504   1.067   2.595  -0.016  0.3260 -0.2950 -0.4458
  252DMF     C3 3505   1.015   2.792   0.128 -0.5778 -1.0422 -1.2203
  252DMF     O1 3506   1.046   2.882   0.202  0.1621 -0.2785 -0.3699
  252DMF     H1 3507   1.299   2.759   0.160 -0.4636 -0.9460  0.1906
  252DMF     H2 3508   1.260   2.852   0.014 -0.2571 -1.4894 -1.1198
  252DMF     H3 3509   1.316   2.677   0.007  1.0616 -0.3612  0.6855
  252DMF     H4 3510   1.122   2.510   0.025  0.1641  0.0290  0.4461
  252DMF     H5 3511   1.102   2.608  -0.119  0.7517 -1.4252 -0.4479
  252DMF     H6 3512   0.959   2.579  -0.009  0.6263 -2.0349  0.4330
  252DMF     H7 3513   0.916   2.750   0.099 -1.4080  0.8833 -1.2393
  253DMF     C1 3514   1.387   1.010   2.310  0.1926 -0.2502 -0.0818
  253DMF     N1 3515   1.462   1.133   2.271  0.1795 -0.4368  0.2706
  253DMF     C2 3516   1.393   1.261   2.250 -0.3490  0.7243 -0.2130
  253DMF     C3 3517   1.596   1.127   2.238  0.0308 -0.5728  0.7420
  253DMF     O1 3518   1.656   1.024   2.257  0.3932 -0.4158 -0.1291
  253DMF     H1 3519   1.281   1.027   2.331 -0.1820 -0.6123 -1.6157
  253DMF     H2 3520   1.427   0.959   2.399  0.0743 -1.2415 -0.5957
  253DMF     H3 3521   1.384   0.943   2.224 -1.7784  0.6351 -0.7203
  253DMF     H4 3522   1.352   1.282   2.350 -0.7973  0.6644 -0.3859
  253DMF     H5 3523   1.316   1.245   2.174 -1.9241 -0.3035  1.5482
  253DMF     H6 3524   1.459   1.341   2.213  0.1144  0.9691  1.0890
  253DMF     H7 3525   1.639   1.222   2.203 -1.9481  0.5440  1.2698
  254DMF     C1 3526   1.697   1.923   3.358  0.1324 -0.3302 -0.3646
  254DMF     N1 3527   1.774   2.032   3.422  0.2450 -0.0738 -0.2206
  254DMF     C2 3528   1.819   2.146   3.336  1.0393  0.2349  0.2195
  254DMF     C3 3529   1.810   2.028   3.559  0.3275 -0.7704  0.5211
  254DMF     O1 3530   1.789   1.930   3.634  0.2642  0.0496 -0.1895
  254DMF     H1 3531   1.682   1.932   3.250  0.0698  1.3236 -0.2245
  254DMF     H2 3532   1.600   1.918   3.409 -1.2398 -0.2021 -2.8985
  254DMF     H3 3533   1.749   1.828   3.373 -0.2146 -0.7272 -1.5979
  254DMF     H4 3534   1.894   2.106   3.266 -0.2992 -2.5318  0.2919
  254DMF     H5 3535   1.841   2.240   3.388  0.5754  0.1387  0.5951
  254DMF     H6 3536   1.732   2.155   3.269  1.8958 -1.4327 -1.1502
  254DMF     H7 3537   1.857   2.124   3.587 -0.7050 -0.7393  2.2310
  255DMF     C1 3538   0.180   1.367   2.480 -0.6441  0.2051  0.5921
  255DMF     N1 3539   0.199   1.279   2.365  0.6836  0.8691 -0.5280
  255DMF     C2 3540   0.202   1.337   2.226 -0.3025  0.2563  0.2801
  255DMF     C3 3541   0.235   1.148   2.389  0.3907  0.9258  0.9582
  255DMF     O1 3542   0.242   1.096   2.499 -0.1539 -0.6369  0.0860
  255DMF     H1 3543   0.097   1.321   2.536 -0.5382  0.1664  0.7171
  255DMF     H2 3544   0.164   1.469   2.443 -0.2715  0.5540  1.3903
  255DMF     H3 3545   0.267   1.355   2.546 -0.4188  1.7635  0.5889
  255DMF     H4 3546   0.171   1.442   2.234 -1.5557 -0.2077  1.8937
  255DMF     H5 3547   0.128   1.277   2.173  0.1961  0.1131 -0.2513
  255DMF     H6 3548   0.304   1.319   2.192 -0.6987  0.2076 -0.8839
  255DMF     H7 3549   0.260   1.089   2.299 -0.7610  1.8448  0.0261
  256DMF     C1 3550   3.264   0.961   0.608 -0.4431  0.1583 -0.4931
  256DMF     N1 3551   3.319   0.856   0.697 -1.0553  0.7283 -0.1068
  256DMF     C2 3552   3.431   0.889   0.788  0.5767  0.2933  0.5417
  256DMF     C3 3553   3.279   0.721   0.695  0.8633 -0.1651  0.4152
  256DMF     O1 3554   3.187   0.681   0.625  0.3673 -0.1809  0.2090
  256DMF     H1 3555   3.320   1.055   0.622  0.2728 -0.4204  0.6180
  256DMF     H2 3556   3.162   0.984   0.639 -0.8661  1.3288 -2.6849
  256DMF     H3 3557   3.259   0.936   0.502  1.9662 -2.1038 -0.1530
  256DMF     H4 3558   3.411   0.990   0.825  2.1681  0.9078 -0.2547
  256DMF     H5 3559   3.524   0.896   0.730  1.1023  0.1839  1.3604
  256DMF     H6 3560   3.432   0.812   0.867  2.6808 -0.4525 -0.1797
  256DMF     H7 3561   3.330   0.656   0.769 -0.2670  1.0735  2.3070
  257DMF     C1 3562   3.229   3.048   3.718  0.8516 -0.2915  1.1395
  257DMF     N1 3563   3.300   2.990   3.830 -0.3640  0.4547  0.7395
  257DMF     C2 3564   3.449   3.000   3.837  0.2745 -0.3033 -0.4329
  257DMF     C3 3565   3.237   2.937   3.939 -0.3497  0.5634  0.2583
  257DMF     O1 3566   3.117   2.921   3.940 -0.0095  0.1649 -0.2751
  257DMF     H1 3567   3.183   2.970   3.656 -1.6006  1.5726  0.5233
  257DMF     H2 3568   3.304   3.108   3.664 -0.8575  2.5031  1.7713
  257DMF     H3 3569   3.140   3.104   3.751  0.6739 -1.1123  2.0835
  257DMF     H4 3570   3.481   3.081   3.904  3.3827  0.6297 -2.9394
  257DMF     H5 3571   3.481   3.021   3.734  0.8990  2.6030  0.3014
  257DMF     H6 3572   3.495   2.907   3.875 -0.3012  0.0239  1.1279
  257DMF     H7 3573   3.310   2.902   4.015  0.2974 -0.0155 -0.6162
  258DMF     C1 3574   2.008   2.902   0.236 -0.2321  1.3133 -0.4414
  258DMF     N1 3575   2.100   3.009   0.186  0.2174  0.0912 -1.2314
  258DMF     C2 3576   2.046   3.144   0.156 -0.0533 -0.3586  0.3603
  258DMF     C3 3577   2.241   2.975   0.170 -0.7672 -0.2436 -0.4059
  258DMF     O1 3578   2.285   2.868   0.199  0.3749 -0.1278  0.3566
  258DMF     H1 3579   1.910   2.930   0.195 -0.8229 -0.4497 -0.2488
  258DMF     H2 3580   2.006   2.895   0.346 -1.2472 -0.4811 -0.5682
  258DMF     H3 3581   2.041   2.805   0.199 -0.5521  0.9544  0.1930
  258DMF     H4 3582   2.019   3.194   0.251 -0.4904  1.6889 -0.8132
  258DMF     H5 3583   1.956   3.147   0.094  0.4522  2.7366 -0.3301
  258DMF     H6 3584   2.122   3.206   0.106  1.2520 -1.4162  0.9982
  258DMF     H7 3585   2.301   3.061   0.136 -1.9494  1.1478  0.9358
  259DMF     C1 3586   0.431   0.531   2.824  0.1646 -0.0919 -0.2077
  259DMF     N1 3587   0.544   0.441   2.789  0.3725 -0.1805 -0.0197
  259DMF     C2 3588   0.566   0.333   2.881  0.1214  0.2951 -0.3041
  259DMF     C3 3589   0.585   0.431   2.650 -0.2540 -0.5883 -1.1724
  259DMF     O1 3590   0.530   0.499   2.562  0.0085  0.0804 -0.4228
  259DMF     H1 3591   0.465   0.602   2.900 -1.5596  0.1793  0.3297
  259DMF     H2 3592   0.354   0.466   2.867 -1.9955  3.3379  1.3429
  259DMF     H3 3593   0.395   0.585   2.735 -4.0001  0.9719  1.9749
  259DMF     H4 3594   0.675   0.325   2.890 -0.1065 -0.3411  2.1818
  259DMF     H5 3595   0.518   0.240   2.847  2.0842 -1.0039  0.3161
  259DMF     H6 3596   0.539   0.361   2.983  0.9650  0.0034  0.0028
  259DMF     H7 3597   0.663   0.356   2.626 -0.0735 -1.2789  1.4776
  260DMF     C1 3598   0.038   2.923   1.210  0.6037  0.0755 -0.0277
  260DMF     N1 3599  -0.029   2.863   1.096  0.3266  0.1441 -0.2257
  260DMF     C2 3600  -0.130   2.757   1.138 -0.0570  0.4028  0.2569
  260DMF     C3 3601   0.042   2.856   0.973 -0.2869 -0.1551 -0.2263
  260DMF     O1 3602   0.128   2.938   0.952  0.4758 -0.2456  0.1629
  260DMF     H1 3603  -0.021   2.912   1.302  2.3629 -0.1162  1.0968
  260DMF     H2 3604   0.060   3.029   1.194  0.7152 -0.0376 -0.6487
  260DMF     H3 3605   0.134   2.874   1.234  1.4186  2.3052  1.4205
  260DMF     H4 3606  -0.219   2.803   1.182 -0.2627 -0.0748  0.3445
  260DMF     H5 3607  -0.094   2.692   1.219 -1.7510 -0.9841 -0.0857
  260DMF     H6 3608  -0.167   2.697   1.055 -1.4554 -0.8580  1.7501
  260DMF     H7 3609   0.009   2.776   0.904 -0.0526  0.5259 -1.1454
  261DMF     C1 3610   1.595   2.682   0.785 -0.3680  0.4013 -0.7913
  261DMF     N1 3611   1.591   2.590   0.677 -0.1108 -0.5128 -0.2085
  261DMF     C2 3612   1.672   2.469   0.689 -0.3486 -0.5763  0.0115
  261DMF     C3 3613   1.502   2.609   0.570 -0.0206 -0.3241  0.6858
  261DMF     O1 3614   1.426   2.704   0.560 -0.3011  0.4412  0.7141
  261DMF     H1 3615   1.590   2.787   0.753  0.4411  1.3830  2.1822
  261DMF     H2 3616   1.685   2.665   0.846  0.6196  0.0617 -2.2994
  261DMF     H3 3617   1.507   2.665   0.847 -1.4514 -1.7310 -2.8353
  261DMF     H4 3618   1.733   2.464   0.598  1.4891  1.0936  1.0874
  261DMF     H5 3619   1.604   2.384   0.699  0.1158 -0.6841  2.9409
  261DMF     H6 3620   1.742   2.474   0.774 -0.6890 -2.0966  0.4004
  261DMF     H7 3621   1.524   2.536   0.490 -1.8393  0.3077 -0.3855
  262DMF     C1 3622   0.569   2.893   0.761 -0.0154  0.2605 -0.4167
  262DMF     N1 3623   0.492   2.869   0.879 -0.2591  0.5524 -0.0228
  262DMF     C2 3624   0.458   2.739   0.930  0.1448  0.5901  0.3738
  262DMF     C3 3625   0.445   2.985   0.940  0.1744 -0.0621  0.1692
  262DMF     O1 3626   0.467   3.095   0.898 -0.0376 -0.1496 -0.1661
  262DMF     H1 3627   0.574   2.797   0.709  1.2996 -0.0942  0.3303
  262DMF     H2 3628   0.672   2.932   0.769 -0.4999  1.0351  2.9956
  262DMF     H3 3629   0.516   2.958   0.690 -1.6551  1.2806  1.6968
  262DMF     H4 3630   0.487   2.659   0.861 -2.8686 -1.2087  1.1244
  262DMF     H5 3631   0.350   2.734   0.949  0.2604  1.6290  1.3434
  262DMF     H6 3632   0.512   2.724   1.024  1.3506 -1.8058 -0.6446
  262DMF     H7 3633   0.377   2.968   1.026 -1.1620 -0.7206 -0.9938
  263DMF     C1 3634   0.780   2.171   2.239  0.3568 -0.5392 -0.1567
  263DMF     N1 3635   0.748   2.026   2.221  0.5245 -0.1854  0.5245
  263DMF     C2 3636   0.857   1.928   2.242 -0.3584 -0.0556  0.3357
  263DMF     C3 3637   0.611   1.980   2.201 -0.0764  0.5057  1.1848
  263DMF     O1 3638   0.515   2.049   2.186  0.5918  0.3382  0.0533
  263DMF     H1 3639   0.885   2.183   2.208  0.4417  0.8257  0.6203
  263DMF     H2 3640   0.781   2.189   2.347  0.7733  1.4024 -0.4587
  263DMF     H3 3641   0.713   2.236   2.182  1.5289 -1.9315 -3.2833
  263DMF     H4 3642   0.907   1.890   2.151 -2.6810 -2.3479 -0.0559
  263DMF     H5 3643   0.825   1.853   2.314 -1.4955  0.6680  0.5867
  263DMF     H6 3644   0.937   1.974   2.301 -0.6066 -0.7240  1.1985
  263DMF     H7 3645   0.609   1.870   2.188  0.7626  0.8510 -2.3518
  264DMF     C1 3646   2.303   2.997   0.869 -0.6486 -0.9136  0.1928
  264DMF     N1 3647   2.311   2.938   0.734 -0.0554  0.8075  0.3061
  264DMF     C2 3648   2.203   2.958   0.631 -0.2422 -0.1170 -0.0044
  264DMF     C3 3649   2.417   2.846   0.708 -0.6597 -0.4270 -0.0255
  264DMF     O1 3650   2.501   2.823   0.794  0.3044 -0.2749  0.4408
  264DMF     H1 3651   2.400   2.985   0.920 -0.4100 -0.5784 -0.1838
  264DMF     H2 3652   2.233   2.936   0.927 -0.5422 -1.7146 -0.5118
  264DMF     H3 3653   2.263   3.099   0.862 -0.4916 -0.8349  0.4216
  264DMF     H4 3654   2.232   3.031   0.554  0.4963 -2.5721 -2.1456
  264DMF     H5 3655   2.112   3.001   0.675  0.1134 -0.0890  0.7115
  264DMF     H6 3656   2.177   2.864   0.580 -1.3602 -1.3296  2.7341
  264DMF     H7 3657   2.428   2.814   0.603  1.4660 -0.0027  0.0406
  265DMF     C1 3658   2.808   2.135   1.070  0.2516  0.3492 -0.0353
  265DMF     N1 3659   2.668   2.164   1.099  0.1947 -0.1869 -0.0103
  265DMF     C2 3660   2.642   2.273   1.203  0.0237  0.0109  0.1008
  265DMF     C3 3661   2.560   2.084   1.068 -0.2224 -0.2833  0.5397
  265DMF     O1 3662   2.560   1.977   1.012 -0.9503  0.1379  0.3487
  265DMF     H1 3663   2.837   2.032   1.096  1.0204  0.3856 -0.7420
  265DMF     H2 3664   2.866   2.210   1.126  0.7272 -0.8635  1.1352
  265DMF     H3 3665   2.823   2.151   0.963 -2.6232  1.4351 -0.2977
  265DMF     H4 3666   2.554   2.247   1.262  0.4563  0.5834  0.9986
  265DMF     H5 3667   2.626   2.370   1.154  1.1633 -0.1588 -0.6157
  265DMF     H6 3668   2.730   2.264   1.268  1.1114  2.2513 -1.0073
  265DMF     H7 3669   2.467   2.126   1.111  1.5847  2.1286  2.1694
  266DMF     C1 3670   0.290   0.707   1.296  0.3252 -0.2066  0.1462
  266DMF     N1 3671   0.205   0.823   1.304  0.3447  1.1013  0.4335
  266DMF     C2 3672   0.112   0.852   1.197  0.3175  0.0007 -0.2553
  266DMF     C3 3673   0.209   0.908   1.418 -0.1419 -0.1717 -0.0633
  266DMF     O1 3674   0.282   0.897   1.516 -0.1298  0.8022  0.1821
  266DMF     H1 3675   0.242   0.617   1.338 -1.7373  0.9505  0.3340
  266DMF     H2 3676   0.387   0.716   1.346  0.2567  0.8308  0.1013
  266DMF     H3 3677   0.322   0.683   1.194 -0.1997 -2.5864  0.5102
  266DMF     H4 3678   0.123   0.790   1.107  1.2913 -0.2702  0.0391
  266DMF     H5 3679   0.132   0.954   1.163 -1.0728  0.2822 -0.2307
  266DMF     H6 3680   0.011   0.839   1.238  0.2419 -2.7123 -1.1754
  266DMF     H7 3681   0.138   0.992   1.410 -3.7485 -3.1806 -1.0852
  267DMF     C1 3682   2.090   3.296   0.502 -0.0462  0.1181  0.3072
  267DMF     N1 3683   2.233   3.319   0.521  0.3352 -0.1484  0.3281
  267DMF     C2 3684   2.321   3.308   0.407 -0.2470 -0.3491  0.2165
  267DMF     C3 3685   2.291   3.345   0.650 -0.5443 -0.1922  0.0605
  267DMF     O1 3686   2.224   3.334   0.751 -0.0985 -0.5543  0.5448
  267DMF     H1 3687   2.053   3.359   0.420 -0.8306  0.2471  0.7531
  267DMF     H2 3688   2.046   3.328   0.597  0.2178  0.7946  0.2108
  267DMF     H3 3689   2.076   3.189   0.484 -1.3960  0.0523  1.6678
  267DMF     H4 3690   2.284   3.227   0.344  0.9569 -2.4572  2.1618
  267DMF     H5 3691   2.426   3.283   0.426 -0.9645 -2.6611  1.2159
  267DMF     H6 3692   2.322   3.403   0.352  2.3689  0.4168  1.4831
  267DMF     H7 3693   2.398   3.372   0.641 -0.2203 -1.8611 -1.3748
  268DMF     C1 3694   0.031   2.814   3.118  0.0314  0.1455  0.9110
  268DMF     N1 3695   0.093   2.680   3.092  0.4075  0.1188 -0.1201
  268DMF     C2 3696  -0.010   2.560   3.088 -0.4286  0.3463  0.6722
  268DMF     C3 3697   0.224   2.650   3.113 -0.6354 -0.3697  0.1973
  268DMF     O1 3698   0.299   2.737   3.150 -0.3840  0.1690 -0.0012
  268DMF     H1 3699   0.001   2.864   3.024 -1.0271  1.2505  1.8221
  268DMF     H2 3700   0.108   2.873   3.168 -0.3735  1.2794  0.2340
  268DMF     H3 3701  -0.048   2.806   3.193  1.7741  0.1360  2.7651
  268DMF     H4 3702  -0.005   2.517   2.988  1.6693 -1.0938  1.3602
  268DMF     H5 3703  -0.110   2.595   3.118 -0.5758  1.6115 -1.2084
  268DMF     H6 3704   0.017   2.486   3.164 -0.7865 -1.3511 -0.8287
  268DMF     H7 3705   0.245   2.542   3.097  0.6745 -0.4956  2.6064
  269DMF     C1 3706   1.497   2.295   1.522  0.3264  0.1822  0.1296
  269DMF     N1 3707   1.490   2.374   1.399  0.5333 -0.1841  0.4488
  269DMF     C2 3708   1.398   2.333   1.287  0.1656 -0.1178  0.0527
  269DMF     C3 3709   1.559   2.496   1.391  0.0520  0.0920 -0.5735
  269DMF     O1 3710   1.635   2.545   1.473 -0.8136  0.3340 -0.2635
  269DMF     H1 3711   1.446   2.200   1.502  0.0061  0.0266  1.6479
  269DMF     H2 3712   1.441   2.350   1.599 -2.4866  0.9066 -2.3462
  269DMF     H3 3713   1.598   2.268   1.555  0.8171  2.5375  0.6236
  269DMF     H4 3714   1.345   2.244   1.325 -0.1315  0.8278  1.8853
  269DMF     H5 3715   1.454   2.296   1.200 -0.3696 -0.4059 -0.1738
  269DMF     H6 3716   1.334   2.417   1.257 -2.1904 -0.7735  3.0008
  269DMF     H7 3717   1.545   2.550   1.296  0.4827  0.2317 -0.5579
  270DMF     C1 3718   0.615   0.020   0.231  0.2280  0.3044  0.1950
  270DMF     N1 3719   0.535   0.097   0.332  0.1918  0.8818  0.3621
  270DMF     C2 3720   0.411   0.034   0.382  0.6972  0.2402 -0.0018
  270DMF     C3 3721   0.575   0.227   0.374  0.1142 -0.2696  0.1044
  270DMF     O1 3722   0.674   0.285   0.332  0.2863 -0.3659 -0.2478
  270DMF     H1 3723   0.554   0.001   0.142 -1.6434 -0.2581  1.5885
  270DMF     H2 3724   0.640  -0.077   0.275 -1.0343  0.6509  1.7178
  270DMF     H3 3725   0.709   0.069   0.202  1.4306 -0.3338  2.8115
  270DMF     H4 3726   0.360  -0.039   0.318 -0.3579  1.7710 -0.9382
  270DMF     H5 3727   0.332   0.107   0.401  0.2375 -0.1921 -0.2367
  270DMF     H6 3728   0.442  -0.026   0.469  0.8472  3.1533  2.0372
  270DMF     H7 3729   0.513   0.268   0.456  2.4470  0.5587  1.4983
  271DMF     C1 3730   2.184   1.972   3.154  0.0533  0.0071  0.1476
  271DMF     N1 3731   2.092   1.866   3.096 -1.1375 -0.4508  0.2635
  271DMF     C2 3732   2.120   1.832   2.957 -1.3087  0.1755  0.5327
  271DMF     C3 3733   2.004   1.799   3.183 -0.5983 -0.4365  0.0622
  271DMF     O1 3734   1.985   1.826   3.297  0.2526 -0.8039 -0.2017
  271DMF     H1 3735   2.122   2.041   3.213  2.2271  0.8740  1.4993
  271DMF     H2 3736   2.241   2.026   3.077  0.5268 -2.3722 -1.2335
  271DMF     H3 3737   2.265   1.922   3.209 -1.3191  0.7510  2.9066
  271DMF     H4 3738   2.044   1.873   2.889 -0.3678  0.3644 -0.4280
  271DMF     H5 3739   2.129   1.723   2.950 -0.9408  0.0997  2.1078
  271DMF     H6 3740   2.220   1.871   2.932  0.1580 -2.9742  1.2462
  271DMF     H7 3741   1.949   1.712   3.142 -0.5040 -1.4741  2.0894
  272DMF     C1 3742   2.485   1.796   2.228  0.2291 -0.8460  0.1545
  272DMF     N1 3743   2.483   1.946   2.226 -0.6953  0.0637  0.1476
  272DMF     C2 3744   2.615   2.019   2.252  0.4548  0.0164 -0.7497
  272DMF     C3 3745   2.360   2.016   2.237 -0.1269  0.2995  0.4643
  272DMF     O1 3746   2.257   1.957   2.247  0.1512 -0.0027  0.2948
  272DMF     H1 3747   2.581   1.774   2.178  0.0350 -2.4994  0.4671
  272DMF     H2 3748   2.396   1.746   2.190  0.1795 -0.4357 -0.2756
  272DMF     H3 3749   2.492   1.768   2.334  0.5879  0.9934  0.6303
  272DMF     H4 3750   2.615   2.060   2.353  1.1582  1.2557 -1.2477
  272DMF     H5 3751   2.618   2.103   2.182  0.5269  1.5505  1.0571
  272DMF     H6 3752   2.707   1.959   2.240  1.2346  0.6618  1.7981
  272DMF     H7 3753   2.360   2.127   2.240 -5.1451  0.5241 -1.8730
  273DMF     C1 3754   3.183   2.634   3.656  0.4270 -0.7546 -0.0052
  273DMF     N1 3755   3.199   2.618   3.512  0.4376  0.0186 -0.5150
  273DMF     C2 3756   3.184   2.481   3.444  0.3697  0.2926 -0.1018
  273DMF     C3 3757   3.236   2.723   3.429  0.8074  0.2846  0.3744
  273DMF     O1 3758   3.284   2.831   3.460  0.8779 -0.5414 -0.8555
  273DMF     H1 3759   3.182   2.537   3.709 -0.7058 -0.5240  0.4177
  273DMF     H2 3760   3.085   2.677   3.681 -0.0996 -2.0798  0.2698
  273DMF     H3 3761   3.265   2.692   3.699 -0.5659  0.5316  0.1628
  273DMF     H4 3762   3.146   2.413   3.521 -0.0790 -0.6212 -1.1124
  273DMF     H5 3763   3.284   2.453   3.410  1.1411  1.8582  0.8268
  273DMF     H6 3764   3.110   2.480   3.363 -0.4964  2.8146  0.6050
  273DMF     H7 3765   3.231   2.689   3.324 -2.9016  1.5975  0.0429
  274DMF     C1 3766   0.558   0.839   2.449 -0.0737  1.4250 -0.4822
  274DMF     N1 3767   0.559   0.826   2.302  0.0636  0.0873  0.1609
  274DMF     C2 3768   0.562   0.697   2.249  0.3335  0.2086 -0.0681
  274DMF     C3 3769   0.520   0.931   2.222  0.3147  0.4847 -0.1331
  274DMF     O1 3770   0.491   1.043   2.267  0.5859  0.0820  0.1180
  274DMF     H1 3771   0.483   0.774   2.495  1.2902  0.6696  0.7342
  274DMF     H2 3772   0.525   0.940   2.478 -1.7292  0.9106 -0.5187
  274DMF     H3 3773   0.655   0.819   2.497 -0.5988  1.4150  0.5984
  274DMF     H4 3774   0.561   0.631   2.336  0.3922 -0.2236 -0.3923
  274DMF     H5 3775   0.658   0.693   2.196 -1.1667 -1.7624 -2.8041
  274DMF     H6 3776   0.473   0.680   2.186  2.3554 -1.0591 -2.7029
  274DMF     H7 3777   0.523   0.902   2.115 -0.6675  0.6885 -0.2159
  275DMF     C1 3778   0.130   2.509   0.823 -0.2603 -0.1361  0.3789
  275DMF     N1 3779   0.149   2.397   0.722 -0.0589 -0.3153 -0.0724
  275DMF     C2 3780   0.288   2.372   0.682 -0.4800 -0.3093  0.3930
  275DMF     C3 3781   0.039   2.319   0.679 -0.0085  0.7206 -0.3135
  275DMF     O1 3782  -0.078   2.344   0.699  0.0004 -0.0813  0.1641
  275DMF     H1 3783   0.021   2.521   0.826 -0.4790 -2.0408  0.6145
  275DMF     H2 3784   0.179   2.602   0.791  1.4539  0.5885  4.7464
  275DMF     H3 3785   0.159   2.487   0.927 -0.6998 -0.1049  0.5086
  275DMF     H4 3786   0.315   2.266   0.668  2.5787  0.4605  0.0546
  275DMF     H5 3787   0.356   2.426   0.749 -1.3111  0.0304  0.9675
  275DMF     H6 3788   0.294   2.417   0.582 -0.7586 -0.1183  0.4609
  275DMF     H7 3789   0.075   2.228   0.628 -0.0767  0.7447 -0.4043
  276DMF     C1 3790   0.061   0.133   1.373 -0.7374  0.1348  0.0616
  276DMF     N1 3791   0.167   0.182   1.468 -0.4226 -0.0055  0.3545
  276DMF     C2 3792   0.159   0.321   1.528  0.6290 -0.2497 -0.0522
  276DMF     C3 3793   0.263   0.086   1.516 -0.0694  0.1614  0.5213
  276DMF     O1 3794   0.262  -0.026   1.471 -0.2116 -0.0656  0.1061
  276DMF     H1 3795   0.088   0.080   1.281 -2.4357  1.6924 -1.3644
  276DMF     H2 3796  -0.003   0.216   1.342 -0.4338 -0.3657 -1.9380
  276DMF     H3 3797  -0.005   0.066   1.430 -1.9997  0.2184 -1.2743
  276DMF     H4 3798   0.082   0.327   1.605  1.2468 -0.1459  0.5650
  276DMF     H5 3799   0.121   0.378   1.443 -1.5181 -3.6252 -1.4655
  276DMF     H6 3800   0.256   0.354   1.568  1.4712 -0.3234 -1.9281
  276DMF     H7 3801   0.332   0.126   1.592  0.6730 -0.5095  0.2133
  277DMF     C1 3802   2.291   2.804   2.577 -0.0130  0.2718 -0.2810
  277DMF     N1 3803   2.340   2.908   2.670 -0.1102  0.2617  0.5325
  277DMF     C2 3804   2.294   3.044   2.641 -0.0979 -0.3832  0.3223
  277DMF     C3 3805   2.408   2.863   2.793  0.0131 -0.4877 -0.5672
  277DMF     O1 3806   2.422   2.744   2.820  0.3250 -0.0697  0.2274
  277DMF     H1 3807   2.268   2.842   2.477 -2.4630  0.1743  0.2094
  277DMF     H2 3808   2.196   2.765   2.616  0.2823 -1.1400 -0.9384
  277DMF     H3 3809   2.359   2.717   2.580 -0.2467  0.1004  0.1648
  277DMF     H4 3810   2.184   3.048   2.647 -0.1661  1.3409 -1.3523
  277DMF     H5 3811   2.331   3.091   2.549  0.6414 -0.4468  0.5842
  277DMF     H6 3812   2.342   3.109   2.715 -1.5284  1.3314 -0.1969
  277DMF     H7 3813   2.427   2.944   2.866  0.4760  0.0700 -1.3079
  278DMF     C1 3814   2.393   0.575   3.655  0.3083 -0.1077 -0.4503
  278DMF     N1 3815   2.405   0.720   3.687 -0.0913  0.2646 -0.1702
  278DMF     C2 3816   2.407   0.770   3.828  0.8358 -0.1167 -0.1798
  278DMF     C3 3817   2.425   0.809   3.582  0.1534 -0.1759 -0.1537
  278DMF     O1 3818   2.421   0.778   3.467  0.0195  0.2540 -0.2880
  278DMF     H1 3819   2.343   0.566   3.558  2.0406 -3.0815 -1.1300
  278DMF     H2 3820   2.334   0.515   3.725  1.9032  0.4086  1.3919
  278DMF     H3 3821   2.498   0.542   3.645  0.1575 -0.3249 -1.3809
  278DMF     H4 3822   2.311   0.737   3.869  1.2501  0.1522  1.0386
  278DMF     H5 3823   2.411   0.879   3.838 -0.7271 -0.0145 -0.5122
  278DMF     H6 3824   2.490   0.722   3.883  1.7675 -0.7994 -2.1317
  278DMF     H7 3825   2.448   0.911   3.620  0.1325  0.6902 -2.3916
  279DMF     C1 3826   0.906   0.071   3.490  0.2463  0.4016  0.7024
  279DMF     N1 3827   0.985  -0.051   3.498 -0.4528 -0.3097  0.2642
  279DMF     C2 3828   0.926  -0.177   3.446 -0.3086 -0.1793 -0.3243
  279DMF     C3 3829   1.125  -0.054   3.519  0.1841  0.0541  0.1494
  279DMF     O1 3830   1.180   0.050   3.544  0.4123  0.0521 -0.6767
  279DMF     H1 3831   0.920   0.114   3.390 -3.8508  1.6354  0.5481
  279DMF     H2 3832   0.938   0.138   3.571 -1.1677 -0.8718  2.3545
  279DMF     H3 3833   0.804   0.034   3.510  0.6852  0.0248  2.3002
  279DMF     H4 3834   1.002  -0.239   3.398  1.0282  0.7542  0.5330
  279DMF     H5 3835   0.837  -0.159   3.385  0.8146 -1.8699 -2.4990
  279DMF     H6 3836   0.885  -0.226   3.535 -1.8808 -2.0716 -2.0373
  279DMF     H7 3837   1.167  -0.155   3.508  0.3825  0.1769 -0.2190
  280DMF     C1 3838   2.478   1.764   3.487 -0.1443 -0.4580  0.3041
  280DMF     N1 3839   2.435   1.863   3.584  0.1959  0.1437 -0.9109
  280DMF     C2 3840   2.322   1.957   3.559  0.1006  0.1355  0.2922
  280DMF     C3 3841   2.487   1.861   3.723 -0.0187  0.2964  0.2371
  280DMF     O1 3842   2.565   1.776   3.765  0.2171 -0.3476  0.1921
  280DMF     H1 3843   2.573   1.737   3.534  1.1245  1.1027 -1.2934
  280DMF     H2 3844   2.501   1.794   3.384  0.3403 -2.1725 -0.1076
  280DMF     H3 3845   2.412   1.676   3.485  0.2410 -0.8060  1.9524
  280DMF     H4 3846   2.264   1.916   3.475  0.1634 -0.4415  0.5246
  280DMF     H5 3847   2.365   2.053   3.531  0.1369 -0.8638 -3.3375
  280DMF     H6 3848   2.253   1.967   3.644  1.1251 -0.5377  1.2115
  280DMF     H7 3849   2.460   1.950   3.783  0.6457 -0.1951  1.2737
  281DMF     C1 3850   0.553   3.232   2.294 -0.7512  0.0153 -0.5067
  281DMF     N1 3851   0.548   3.092   2.283  0.9310  0.3575 -0.7444
  281DMF     C2 3852   0.682   3.021   2.262  0.2528 -0.0654 -0.2945
  281DMF     C3 3853   0.428   3.016   2.257 -0.0462 -0.3130  0.7971
  281DMF     O1 3854   0.316   3.068   2.257 -0.2648 -0.1220  0.2540
  281DMF     H1 3855   0.574   3.273   2.195 -0.4665  1.6761  0.2316
  281DMF     H2 3856   0.632   3.253   2.367 -1.0881 -2.8576  0.7754
  281DMF     H3 3857   0.453   3.258   2.330 -0.9114  0.8955 -1.5784
  281DMF     H4 3858   0.693   2.930   2.322 -1.2521 -0.5195 -0.6922
  281DMF     H5 3859   0.766   3.086   2.293  0.8712 -1.4982  1.0802
  281DMF     H6 3860   0.700   2.996   2.156 -1.2523 -0.3951 -0.4720
  281DMF     H7 3861   0.449   2.911   2.230 -1.8490 -0.3130 -0.7358
  282DMF     C1 3862   0.607   0.042   1.494  0.4530 -0.7673 -0.2633
  282DMF     N1 3863   0.716   0.119   1.545 -0.0160 -0.7192  0.6399
  282DMF     C2 3864   0.854   0.060   1.533  0.0080  0.0113 -0.5697
  282DMF     C3 3865   0.694   0.254   1.574  0.6170 -0.2652  0.4825
  282DMF     O1 3866   0.584   0.306   1.570 -0.6595 -0.2388  0.0970
  282DMF     H1 3867   0.526   0.039   1.568 -1.0676 -1.2617 -1.8857
  282DMF     H2 3868   0.633  -0.064   1.491  2.0171 -0.4673  1.6988
  282DMF     H3 3869   0.575   0.083   1.397 -4.4021 -1.5838  0.8500
  282DMF     H4 3870   0.876   0.026   1.431  0.6179  0.8942 -0.7371
  282DMF     H5 3871   0.861  -0.026   1.600  2.5074  0.3547 -0.3549
  282DMF     H6 3872   0.930   0.132   1.563 -0.6362  0.2318  0.5722
  282DMF     H7 3873   0.793   0.304   1.585 -0.1050  1.0165  1.3022
  283DMF     C1 3874   0.953   1.733   0.438  0.0585 -0.3841  0.0379
  283DMF     N1 3875   1.012   1.852   0.498  0.3868  0.6447  1.3289
  283DMF     C2 3876   0.925   1.943   0.574  0.1164 -0.4064  0.2900
  283DMF     C3 3877   1.147   1.896   0.458 -0.2546  0.2034 -0.3583
  283DMF     O1 3878   1.221   1.824   0.398 -0.2724  0.5408  0.0302
  283DMF     H1 3879   1.000   1.643   0.480 -0.1418  0.0051  1.1226
  283DMF     H2 3880   0.982   1.736   0.332 -2.0522  2.0937 -0.5317
  283DMF     H3 3881   0.844   1.727   0.445 -0.1508 -0.6487 -3.0061
  283DMF     H4 3882   0.817   1.924   0.576  0.5043 -2.8039 -0.3339
  283DMF     H5 3883   0.944   2.047   0.546 -1.3602 -0.0322  0.6432
  283DMF     H6 3884   0.963   1.949   0.677  0.4363 -0.3517  0.1709
  283DMF     H7 3885   1.172   1.996   0.498 -0.1880  0.2092 -0.4137
  284DMF     C1 3886   0.468   2.939   0.122  0.1562  0.2855 -0.0989
  284DMF     N1 3887   0.587   2.922   0.201 -0.2222  0.7233  0.4159
  284DMF     C2 3888   0.634   2.791   0.238  0.0798  0.2712  0.1631
  284DMF     C3 3889   0.683   3.022   0.202 -0.7576  0.5407  0.3143
  284DMF     O1 3890   0.662   3.133   0.159  0.0038  0.5219  0.2057
  284DMF     H1 3891   0.459   2.852   0.055 -1.7877  1.5637 -1.5619
  284DMF     H2 3892   0.483   3.020   0.050  0.4908  0.3331  0.0215
  284DMF     H3 3893   0.373   2.944   0.177 -0.8595  0.5159 -1.8418
  284DMF     H4 3894   0.559   2.717   0.207  0.2397  0.4081 -0.5486
  284DMF     H5 3895   0.655   2.775   0.345 -1.9933 -1.3217  0.3586
  284DMF     H6 3896   0.724   2.763   0.183  0.5776 -0.5842  1.3821
  284DMF     H7 3897   0.776   2.983   0.247 -2.1189 -2.2821  0.8311
  285DMF     C1 3898   3.085   2.484   0.265  0.5624  0.0227  0.6468
  285DMF     N1 3899   2.978   2.439   0.168 -0.6943  0.0129  0.8052
  285DMF     C2 3900   2.835   2.476   0.196  0.4379 -0.1923  0.5974
  285DMF     C3 3901   2.997   2.345   0.067  0.1324 -0.2755  0.5760
  285DMF     O1 3902   3.107   2.316   0.025 -0.6864  0.1333  0.7328
  285DMF     H1 3903   3.145   2.394   0.281  1.7263  0.6162 -0.2962
  285DMF     H2 3904   3.042   2.547   0.344 -1.8940 -2.2971  1.2251
  285DMF     H3 3905   3.160   2.545   0.213  2.9047 -1.6664  1.9660
  285DMF     H4 3906   2.766   2.488   0.112  0.7263  2.3861  0.7103
  285DMF     H5 3907   2.840   2.573   0.246 -2.1184  1.0493 -1.4541
  285DMF     H6 3908   2.801   2.398   0.266 -0.5283  1.1411  1.6297
  285DMF     H7 3909   2.904   2.322   0.012  0.0212 -0.2315  0.7477
  286DMF     C1 3910   0.778   3.004   3.093  0.1708 -1.1462 -0.0563
  286DMF     N1 3911   0.660   2.915   3.111 -0.1300 -0.3701  0.4170
  286DMF     C2 3912   0.629   2.826   2.992  0.9154 -0.7795  0.8492
  286DMF     C3 3913   0.605   2.891   3.237 -0.5442 -0.3205 -0.2876
  286DMF     O1 3914   0.636   2.952   3.340 -0.1189  0.0244  0.2147
  286DMF     H1 3915   0.786   3.083   3.169 -1.1483 -2.1959  1.2113
  286DMF     H2 3916   0.763   3.050   2.994 -2.3044  2.4789  1.8830
  286DMF     H3 3917   0.871   2.948   3.081  0.9561 -0.3784  2.3221
  286DMF     H4 3918   0.717   2.764   2.969  1.6537  0.7008 -0.3753
  286DMF     H5 3919   0.605   2.888   2.906  2.0359 -0.3638  0.8211
  286DMF     H6 3920   0.550   2.755   3.021 -0.0105 -0.8148 -1.6267
  286DMF     H7 3921   0.542   2.800   3.231  1.5856 -1.8191 -0.5284
  287DMF     C1 3922   2.093   1.351   2.895  0.1656 -0.3514 -0.3713
  287DMF     N1 3923   2.017   1.283   3.003  0.0143  0.3263 -0.0070
  287DMF     C2 3924   2.040   1.135   3.016 -0.9248  0.1695 -0.0614
  287DMF     C3 3925   1.954   1.356   3.103 -0.3372 -0.9820 -0.5848
  287DMF     O1 3926   1.947   1.474   3.107 -0.3057  0.0380 -0.0826
  287DMF     H1 3927   2.041   1.432   2.842 -0.3157 -0.3086  0.1664
  287DMF     H2 3928   2.107   1.271   2.822  0.1965  1.2114 -2.1341
  287DMF     H3 3929   2.191   1.390   2.926  0.4751 -2.2171  1.0853
  287DMF     H4 3930   2.105   1.120   3.103  0.7690  1.3880 -1.0822
  287DMF     H5 3931   2.100   1.093   2.934  2.6139 -0.1383  2.5547
  287DMF     H6 3932   1.944   1.083   3.021 -0.2345 -1.4160 -2.3140
  287DMF     H7 3933   1.892   1.298   3.174 -1.8339 -1.1137 -1.9643
  288DMF     C1 3934   1.512   2.322   3.500 -0.8978  0.4995 -0.0808
  288DMF     N1 3935   1.446   2.446   3.541  0.4943  0.4436  0.2294
  288DMF     C2 3936   1.532   2.559   3.586  0.2624  0.5772 -0.4010
  288DMF     C3 3937   1.310   2.470   3.529  0.0140  0.1562 -0.7812
  288DMF     O1 3938   1.222   2.394   3.494  0.6476 -0.4165 -0.7591
  288DMF     H1 3939   1.581   2.283   3.577 -1.0838 -2.7090 -1.4714
  288DMF     H2 3940   1.554   2.327   3.399 -0.6491 -0.4779 -0.0402
  288DMF     H3 3941   1.440   2.239   3.492 -1.5891  1.2563 -1.6738
  288DMF     H4 3942   1.623   2.554   3.526 -2.1299 -0.1514 -4.1232
  288DMF     H5 3943   1.552   2.558   3.694 -0.5446 -1.2643 -0.2496
  288DMF     H6 3944   1.480   2.654   3.569 -0.4051  0.6406  1.8812
  288DMF     H7 3945   1.284   2.576   3.547 -0.9929 -0.2499  0.2633
  289DMF     C1 3946   2.515   1.035   0.226 -0.0029  0.3322  0.0972
  289DMF     N1 3947   2.405   0.983   0.311  0.0136  0.1066  0.1056
  289DMF     C2 3948   2.435   0.884   0.413  1.2652 -0.3399  0.2051
  289DMF     C3 3949   2.274   1.043   0.290 -0.9137 -0.8432  0.0431
  289DMF     O1 3950   2.251   1.124   0.205 -0.2273  0.3535 -0.2541
  289DMF     H1 3951   2.486   1.099   0.143  2.5924  2.2310  0.5988
  289DMF     H2 3952   2.564   0.950   0.178  0.9097  0.1086  1.4150
  289DMF     H3 3953   2.586   1.081   0.295  0.9529  2.0846 -2.0132
  289DMF     H4 3954   2.533   0.893   0.462  0.8331  0.6628  0.9093
  289DMF     H5 3955   2.449   0.790   0.358 -2.1043 -0.7562 -0.0240
  289DMF     H6 3956   2.356   0.874   0.488  0.5753 -1.8614 -0.7118
  289DMF     H7 3957   2.198   1.000   0.357 -1.7008 -0.6941 -0.7394
  290DMF     C1 3958   0.523   1.640   0.546  0.2292 -0.9607 -0.2094
  290DMF     N1 3959   0.455   1.593   0.422  0.1443 -0.0738  0.8746
  290DMF     C2 3960   0.367   1.470   0.438 -0.1197  0.0099  0.7227
  290DMF     C3 3961   0.467   1.648   0.294  0.2534  0.4611 -0.1918
  290DMF     O1 3962   0.532   1.745   0.276  0.0893 -0.7950 -0.6184
  290DMF     H1 3963   0.560   1.742   0.533 -1.6510 -0.3110 -0.5038
  290DMF     H2 3964   0.599   1.567   0.577  1.7058  0.5249 -0.2827
  290DMF     H3 3965   0.449   1.643   0.627  1.9966 -1.0591  1.4624
  290DMF     H4 3966   0.372   1.454   0.546  1.6845  1.0296  0.8126
  290DMF     H5 3967   0.426   1.390   0.390 -1.0194 -0.6166  0.6611
  290DMF     H6 3968   0.268   1.485   0.393  1.1625  1.3477 -1.8020
  290DMF     H7 3969   0.423   1.585   0.215 -0.5233  0.3863  0.3062
  291DMF     C1 3970   0.011   0.923   2.921 -0.4824 -0.1396  0.0061
  291DMF     N1 3971   0.015   0.855   2.794 -0.2865 -0.4986 -0.2484
  291DMF     C2 3972  -0.079   0.883   2.682 -0.1798 -0.7029  0.0199
  291DMF     C3 3973   0.103   0.751   2.772  0.4071  0.5055 -0.0168
  291DMF     O1 3974   0.175   0.707   2.861  0.5765 -0.0013  0.6855
  291DMF     H1 3975  -0.026   1.026   2.916  0.1499  0.1409  1.0960
  291DMF     H2 3976   0.105   0.928   2.976 -0.1526  0.4153 -0.6045
  291DMF     H3 3977  -0.059   0.874   2.990  1.6235 -2.0955  0.8209
  291DMF     H4 3978  -0.019   0.907   2.593 -1.3942 -2.0071 -1.1995
  291DMF     H5 3979  -0.143   0.972   2.690  3.0449  1.5979  1.3221
  291DMF     H6 3980  -0.138   0.792   2.669 -1.3458 -0.1275  1.2496
  291DMF     H7 3981   0.092   0.709   2.671 -1.8495  1.6167 -0.2593
  292DMF     C1 3982   1.993   2.184   0.116  0.2137  0.5317 -0.4194
  292DMF     N1 3983   2.054   2.064   0.184  0.0981  0.2131  0.1279
  292DMF     C2 3984   1.982   1.942   0.181 -0.2092  0.6501 -0.2983
  292DMF     C3 3985   2.181   2.082   0.236  1.2721 -0.0412  0.8046
  292DMF     O1 3986   2.230   2.194   0.260  0.1434  0.0545 -0.1594
  292DMF     H1 3987   1.930   2.233   0.192  2.4775  1.6441  0.7939
  292DMF     H2 3988   1.928   2.143   0.038 -1.0622  0.8821  0.4317
  292DMF     H3 3989   2.066   2.256   0.077  0.3500  1.2139  1.0501
  292DMF     H4 3990   1.907   1.943   0.261 -0.5077 -0.1212 -0.5681
  292DMF     H5 3991   2.054   1.862   0.202 -0.1603  0.2221 -2.0342
  292DMF     H6 3992   1.911   1.929   0.099 -0.0094 -2.3401 -0.0349
  292DMF     H7 3993   2.223   1.981   0.254 -0.4762 -1.0495 -0.5802
  293DMF     C1 3994   1.216   1.128   2.896  0.8323 -0.0703  0.1679
  293DMF     N1 3995   1.177   1.015   2.814  0.6898 -0.1844 -0.0475
  293DMF     C2 3996   1.062   0.944   2.861  0.1336 -0.3555 -0.3698
  293DMF     C3 3997   1.229   0.991   2.685  1.7001  0.1937  0.3315
  293DMF     O1 3998   1.309   1.064   2.635  0.4493  0.1599 -0.3094
  293DMF     H1 3999   1.154   1.212   2.864 -0.7372 -1.5318 -0.6599
  293DMF     H2 4000   1.317   1.160   2.867  0.4535  0.3331 -0.7305
  293DMF     H3 4001   1.206   1.107   3.003  3.3136  1.6293  0.7778
  293DMF     H4 4002   0.984   0.961   2.787 -0.0984 -2.0691 -0.5418
  293DMF     H5 4003   1.025   0.982   2.957  0.2044 -1.4397  0.1018
  293DMF     H6 4004   1.078   0.836   2.876 -0.7392 -0.5843 -1.0670
  293DMF     H7 4005   1.185   0.902   2.636 -1.0270  2.4518 -1.4566
  294DMF     C1 4006   3.135   0.244   1.527 -0.7978 -0.0045 -0.3517
  294DMF     N1 4007   3.069   0.174   1.420 -0.1531  0.1256 -0.1765
  294DMF     C2 4008   3.069   0.240   1.292 -0.4524 -0.4447  0.4671
  294DMF     C3 4009   3.025   0.040   1.433 -0.2253  0.0505 -0.2572
  294DMF     O1 4010   3.023  -0.018   1.539 -0.2338  0.1343  0.1834
  294DMF     H1 4011   3.186   0.334   1.492  0.8729  0.7178  3.6886
  294DMF     H2 4012   3.205   0.181   1.584 -0.7502  0.0354 -0.3660
  294DMF     H3 4013   3.066   0.284   1.603 -0.7784 -0.0690 -0.3000
  294DMF     H4 4014   3.002   0.326   1.293  2.9922  2.4138 -1.7972
  294DMF     H5 4015   3.036   0.171   1.213 -0.8621 -0.0766  0.3175
  294DMF     H6 4016   3.173   0.267   1.271 -0.2387 -0.9725  0.8249
  294DMF     H7 4017   2.983  -0.012   1.345  1.4029 -1.5344 -0.1161
  295DMF     C1 4018   3.157   2.914   2.238 -0.0309  0.4725 -0.1754
  295DMF     N1 4019   3.294   2.962   2.254  0.2519 -0.3648  0.4475
  295DMF     C2 4020   3.323   3.112   2.254 -0.7421  0.4883  0.3209
  295DMF     C3 4021   3.399   2.870   2.232 -0.1627 -0.5545 -0.0879
  295DMF     O1 4022   3.374   2.751   2.225  0.3350  0.2893  0.9059
  295DMF     H1 4023   3.094   2.998   2.207 -0.8535  0.5066  1.5347
  295DMF     H2 4024   3.120   2.878   2.335  0.5644 -1.0183 -0.4830
  295DMF     H3 4025   3.142   2.846   2.153  2.3437  0.1618 -0.3694
  295DMF     H4 4026   3.280   3.147   2.348 -1.3767 -1.6616  0.8551
  295DMF     H5 4027   3.273   3.166   2.172 -0.0610  0.9085  0.1796
  295DMF     H6 4028   3.426   3.146   2.237 -0.4283 -0.1832  0.8117
  295DMF     H7 4029   3.501   2.911   2.232 -0.4678  0.3841  3.3886
  296DMF     C1 4030   2.106   0.138   1.577 -0.1689 -0.1798  0.5044
  296DMF     N1 4031   2.060   0.144   1.434  0.5040 -0.3759  0.8092
  296DMF     C2 4032   2.049   0.019   1.356  0.1936 -0.5739 -0.3797
  296DMF     C3 4033   2.015   0.266   1.384  0.1449  0.9177  0.0440
  296DMF     O1 4034   2.022   0.372   1.447 -0.3629  0.9717 -0.2455
  296DMF     H1 4035   2.209   0.176   1.580 -0.1678 -0.2161  0.9534
  296DMF     H2 4036   2.090   0.032   1.604 -0.5886 -0.5859 -1.2543
  296DMF     H3 4037   2.039   0.204   1.632 -1.4732  1.7106 -3.1813
  296DMF     H4 4038   2.038  -0.071   1.417 -1.6858  0.1108  0.3254
  296DMF     H5 4039   2.125   0.008   1.277 -1.6231 -0.3710 -2.1954
  296DMF     H6 4040   1.954   0.031   1.303 -0.1829  0.1523  0.4436
  296DMF     H7 4041   1.975   0.257   1.282  0.8041 -0.1763 -0.1295
  297DMF     C1 4042   3.038   0.739   2.985 -0.1213 -0.0003 -0.7975
  297DMF     N1 4043   2.940   0.847   3.020 -0.2966  0.3559 -0.5641
  297DMF     C2 4044   2.846   0.901   2.920 -0.2202 -1.1737 -0.1831
  297DMF     C3 4045   2.926   0.886   3.150 -0.0957  0.4795 -0.0761
  297DMF     O1 4046   3.000   0.860   3.245  0.4274  0.0458  0.5910
  297DMF     H1 4047   2.991   0.640   2.982  0.7123 -0.3960 -0.9617
  297DMF     H2 4048   3.115   0.739   3.063 -1.8415 -2.1200  0.9298
  297DMF     H3 4049   3.079   0.763   2.886 -0.2325  0.3859 -0.7489
  297DMF     H4 4050   2.771   0.970   2.960  2.3744  1.6440 -0.0042
  297DMF     H5 4051   2.788   0.827   2.864  0.1975 -0.7707 -1.1600
  297DMF     H6 4052   2.908   0.967   2.858 -0.6981  0.3288  0.9055
  297DMF     H7 4053   2.846   0.961   3.164  0.9229  1.4576  0.5852
  298DMF     C1 4054   0.431   0.405   1.031  0.0455 -0.5352 -0.2107
  298DMF     N1 4055   0.332   0.359   1.132  0.4816 -0.3323  0.9174
  298DMF     C2 4056   0.378   0.273   1.240 -0.0614 -0.3002 -0.0817
  298DMF     C3 4057   0.194   0.408   1.139 -0.0805  0.8420  0.4847
  298DMF     O1 4058   0.162   0.498   1.061 -0.5173  0.1376  0.3438
  298DMF     H1 4059   0.386   0.392   0.932 -1.5215 -0.8965  0.5365
  298DMF     H2 4060   0.517   0.337   1.031 -0.2868 -0.9625  0.7014
  298DMF     H3 4061   0.462   0.510   1.045 -0.6107 -0.3735  0.0473
  298DMF     H4 4062   0.481   0.236   1.230 -0.2102 -0.4444 -1.1047
  298DMF     H5 4063   0.317   0.183   1.245 -1.2513  0.4490 -1.0111
  298DMF     H6 4064   0.379   0.338   1.329 -0.3053  1.6864 -1.4955
  298DMF     H7 4065   0.131   0.361   1.217 -1.4777  1.5068 -0.2162
  299DMF     C1 4066   1.453   3.025   3.624 -0.7570 -0.3704  0.0572
  299DMF     N1 4067   1.568   3.116   3.621 -0.3581  0.1782  0.1397
  299DMF     C2 4068   1.572   3.214   3.502  0.2088 -0.3205 -0.3852
  299DMF     C3 4069   1.659   3.111   3.726  0.3785  0.2207 -0.3230
  299DMF     O1 4070   1.661   3.021   3.807 -0.1683  0.5392  0.5594
  299DMF     H1 4071   1.361   3.064   3.579  0.4034  0.2975 -1.7914
  299DMF     H2 4072   1.425   3.013   3.729 -1.2215 -2.2354 -0.2753
  299DMF     H3 4073   1.477   2.929   3.577 -0.7475 -0.6343  0.6059
  299DMF     H4 4074   1.649   3.289   3.523 -1.4745  0.6856  2.6608
  299DMF     H5 4075   1.472   3.260   3.495  0.1399 -0.6367 -1.4499
  299DMF     H6 4076   1.596   3.164   3.408  1.6108  2.7932 -1.7509
  299DMF     H7 4077   1.735   3.191   3.725  0.6603 -0.0512 -0.5760
  300DMF     C1 4078   2.237   0.800   1.598  0.3435 -0.2303 -1.0129
  300DMF     N1 4079   2.321   0.680   1.583  0.4413 -0.0692 -0.1568
  300DMF     C2 4080   2.237   0.557   1.571  0.1341 -0.5729 -0.2616
  300DMF     C3 4081   2.456   0.690   1.570  0.7848 -0.3510  0.3584
  300DMF     O1 4082   2.511   0.798   1.576 -0.8305  0.3664  0.1133
  300DMF     H1 4083   2.153   0.778   1.665  2.0384 -0.3519  1.1179
  300DMF     H2 4084   2.193   0.823   1.500 -1.3027 -1.0271 -0.4838
  300DMF     H3 4085   2.294   0.882   1.643  2.1970 -2.7191  1.4187
  300DMF     H4 4086   2.190   0.543   1.473 -0.2829 -0.6801 -0.0478
  300DMF     H5 4087   2.156   0.552   1.644  1.2921 -0.7567  1.0269
  300DMF     H6 4088   2.291   0.464   1.592 -0.6011 -0.8990  0.2164
  300DMF     H7 4089   2.513   0.596   1.554  1.4513  0.1352 -0.1852
  301DMF     C1 4090   2.309   1.565   0.031 -0.3986  0.9296  0.4579
  301DMF     N1 4091   2.365   1.565   0.169 -0.1563  0.0886  0.0580
  301DMF     C2 4092   2.390   1.431   0.231  0.4060 -0.4483  0.2390
  301DMF     C3 4093   2.378   1.678   0.242  0.7515  0.3412 -0.3452
  301DMF     O1 4094   2.344   1.784   0.189  0.1369  0.4107 -0.2141
  301DMF     H1 4095   2.274   1.665  -0.000 -2.4020 -0.4916 -1.9666
  301DMF     H2 4096   2.225   1.498   0.052 -0.3529  0.8150  0.2745
  301DMF     H3 4097   2.388   1.525  -0.032 -0.0434  3.0111 -0.4782
  301DMF     H4 4098   2.455   1.367   0.170 -0.1826  0.3791 -1.2841
  301DMF     H5 4099   2.294   1.378   0.231 -1.8039  3.3979 -1.0390
  301DMF     H6 4100   2.406   1.437   0.339 -1.4578 -1.7933  0.6162
  301DMF     H7 4101   2.413   1.668   0.346  0.1507  1.6747 -0.0116
  302DMF     C1 4102   1.586   2.114   0.177  0.2689 -0.8138  0.0249
  302DMF     N1 4103   1.484   2.184   0.259  0.0785 -0.3261 -0.2288
  302DMF     C2 4104   1.357   2.226   0.193  0.1291 -0.0595 -0.1243
  302DMF     C3 4105   1.509   2.219   0.400  0.1743  0.3591  0.3563
  302DMF     O1 4106   1.619   2.195   0.448  0.6923  0.8375  0.3776
  302DMF     H1 4107   1.678   2.172   0.193  1.6332 -2.9393  0.1282
  302DMF     H2 4108   1.566   2.106   0.070  0.6611  2.7035 -0.3889
  302DMF     H3 4109   1.606   2.016   0.223 -0.3748 -0.7391  0.4789
  302DMF     H4 4110   1.314   2.315   0.241 -0.9610 -0.3727 -0.5088
  302DMF     H5 4111   1.287   2.141   0.199  0.3318 -0.3813 -2.2024
  302DMF     H6 4112   1.372   2.248   0.087 -1.4714 -0.4607 -0.4445
  302DMF     H7 4113   1.438   2.290   0.447 -2.3985 -1.5947 -0.5168
  303DMF     C1 4114   1.691   2.417   1.040 -0.3437  0.5057 -0.6215
  303DMF     N1 4115   1.790   2.513   1.085 -1.1044 -0.5287  0.1561
  303DMF     C2 4116   1.930   2.471   1.072 -0.3877 -0.5917  0.4317
  303DMF     C3 4117   1.755   2.651   1.108  0.8966 -0.6260 -0.5012
  303DMF     O1 4118   1.644   2.695   1.120 -0.4107  0.1332  0.6895
  303DMF     H1 4119   1.625   2.393   1.124 -1.8950  0.6822 -1.7805
  303DMF     H2 4120   1.748   2.331   1.003 -1.5391  0.1594 -1.6735
  303DMF     H3 4121   1.630   2.466   0.964 -1.9296  2.3669  1.7751
  303DMF     H4 4122   1.998   2.545   1.117  0.3007 -2.0793  1.9346
  303DMF     H5 4123   1.952   2.445   0.968 -1.0717  5.1308 -1.2867
  303DMF     H6 4124   1.934   2.384   1.139  3.2430 -0.7938  0.0544
  303DMF     H7 4125   1.841   2.719   1.125  1.2125 -1.4854  1.5165
  304DMF     C1 4126   1.334   1.715   2.638 -0.5388 -0.0649  0.5669
  304DMF     N1 4127   1.351   1.712   2.787 -0.0262  0.9865  0.0263
  304DMF     C2 4128   1.233   1.673   2.865  0.2574 -0.3630 -0.8890
  304DMF     C3 4129   1.473   1.745   2.849  0.6588 -0.0969  0.0908
  304DMF     O1 4130   1.564   1.787   2.774 -0.2530  0.2237 -0.1155
  304DMF     H1 4131   1.386   1.633   2.587  0.6183  0.5204  0.7814
  304DMF     H2 4132   1.359   1.814   2.596 -0.7122 -1.4258 -2.9068
  304DMF     H3 4133   1.226   1.713   2.620 -0.2491  1.0345 -1.4722
  304DMF     H4 4134   1.155   1.620   2.809 -0.9414  0.1807  0.2221
  304DMF     H5 4135   1.178   1.758   2.908 -1.0944 -1.7276  0.1168
  304DMF     H6 4136   1.271   1.608   2.944 -1.5033 -0.5294 -0.1370
  304DMF     H7 4137   1.481   1.735   2.959  0.5465 -0.0495  0.1025
  305DMF     C1 4138   2.937   3.430   2.253 -0.2475  0.1467 -0.1496
  305DMF     N1 4139   3.021   3.420   2.383  0.2720  0.5271  0.3261
  305DMF     C2 4140   3.098   3.535   2.435  0.1386  0.0536 -0.7377
  305DMF     C3 4141   3.036   3.291   2.449 -0.1267  1.0361  0.4766
  305DMF     O1 4142   2.983   3.189   2.407 -0.2148 -0.1602  0.2596
  305DMF     H1 4143   2.839   3.474   2.277 -0.9220 -0.9864 -0.7424
  305DMF     H2 4144   2.921   3.325   2.223  1.0767 -0.7904  2.2265
  305DMF     H3 4145   2.985   3.482   2.170  1.5452 -3.4948 -1.5269
  305DMF     H4 4146   3.151   3.514   2.528 -2.3590 -1.9392  0.2728
  305DMF     H5 4147   3.036   3.625   2.443  1.2286  0.9123 -1.7160
  305DMF     H6 4148   3.178   3.547   2.361  1.3764 -2.2158  0.1974
  305DMF     H7 4149   3.086   3.292   2.548  0.1231 -0.0143  0.3621
  306DMF     C1 4150   0.134   2.151   0.013 -0.4498  0.1115  0.4363
  306DMF     N1 4151   0.063   2.272   0.035 -0.5336 -0.0242 -0.6109
  306DMF     C2 4152   0.003   2.335  -0.084 -0.1770 -0.4235 -0.0205
  306DMF     C3 4153   0.028   2.320   0.164  0.3122  0.1874 -0.1106
  306DMF     O1 4154   0.074   2.273   0.265  0.0230 -0.0448  0.0005
  306DMF     H1 4155   0.200   2.155  -0.074 -1.2220 -1.3957 -0.2384
  306DMF     H2 4156   0.072   2.061   0.018 -1.1839  0.6326  0.7998
  306DMF     H3 4157   0.210   2.148   0.093 -0.3492 -0.1537  0.3297
  306DMF     H4 4158  -0.073   2.274  -0.133 -0.5179  0.3550 -0.4757
  306DMF     H5 4159   0.087   2.353  -0.153 -0.9358  0.3911 -0.7399
  306DMF     H6 4160  -0.042   2.432  -0.059 -1.3833 -0.5263 -1.6967
  306DMF     H7 4161  -0.049   2.397   0.149  1.3209  1.2678  0.1874
  307DMF     C1 4162   3.082   1.535   3.206 -0.2819 -0.2059 -0.1034
  307DMF     N1 4163   2.935   1.552   3.190  0.1772 -0.0750  0.5547
  307DMF     C2 4164   2.869   1.499   3.067 -0.2384 -0.2156  0.1135
  307DMF     C3 4165   2.851   1.596   3.294 -0.0695 -0.2732  0.3324
  307DMF     O1 4166   2.882   1.612   3.411  0.2146  0.0516 -0.4724
  307DMF     H1 4167   3.129   1.632   3.227 -0.5049 -0.4933  1.8050
  307DMF     H2 4168   3.124   1.497   3.112 -2.2423 -1.0130 -0.6821
  307DMF     H3 4169   3.113   1.467   3.285 -1.9523 -1.0875 -0.1764
  307DMF     H4 4170   2.763   1.474   3.072  0.0025 -1.7028 -1.5459
  307DMF     H5 4171   2.919   1.403   3.047  0.6196  0.4386 -0.9773
  307DMF     H6 4172   2.886   1.568   2.983  1.7095 -1.0895 -0.2577
  307DMF     H7 4173   2.745   1.595   3.262  0.1459 -0.1242 -0.3889
   3.40320   3.43847   3.80000
