TITLE
HFIP published-force-field qualification t= 1000.00000 step= 1000000
END
POSITION
    1 HFIP  O1         1    1.157799959    0.755800009    2.490200043
    1 HFIP  C2         2    1.236699939    0.685999990    2.400199890
    1 HFIP  C3         3    1.223500013    0.532599986    2.435499907
    1 HFIP  F4         4    1.273499966    0.460699975    2.330499887
    1 HFIP  F5         5    1.090999961    0.496499985    2.460799932
    1 HFIP  F6         6    1.289999962    0.504999995    2.547199965
    1 HFIP  C7         7    1.386699915    0.734200001    2.402799845
    1 HFIP  F8         8    1.382099986    0.844199955    2.326400042
    1 HFIP  F9         9    1.481599927    0.654100001    2.361700058
    1 HFIP  F10       10    1.435499907    0.776099980    2.523000002
    1 HFIP  H11       11    1.173300028    0.708499968    2.576900005
    1 HFIP  H12       12    1.195699930    0.709299982    2.301899910
    2 HFIP  O1        13    1.577199936    0.842700005    0.641099989
    2 HFIP  C2        14    1.703799963    0.788399994    0.648999989
    2 HFIP  C3        15    1.804199934    0.850399971    0.541899979
    2 HFIP  F4        16    1.934299946    0.832799971    0.576799989
    2 HFIP  F5        17    1.793099999    0.981999993    0.504799962
    2 HFIP  F6        18    1.788499951    0.779100001    0.423999995
    2 HFIP  C7        19    1.676399946    0.637299955    0.643799961
    2 HFIP  F8        20    1.582199931    0.590099990    0.553999960
    2 HFIP  F9        21    1.639299989    0.582399964    0.760599971
    2 HFIP  F10       22    1.792400002    0.573599994    0.602800012
    2 HFIP  H11       23    1.549399972    0.838699996    0.545099974
    2 HFIP  H12       24    1.755199909    0.806299984    0.743399978
    3 HFIP  O1        25    0.164999992    0.456699997    1.758499980
    3 HFIP  C2        26    0.111699998    0.352999985    1.680599928
    3 HFIP  C3        27    0.221199989    0.269099981    1.610799909
    3 HFIP  F4        28    0.302699983    0.206399992    1.701900005
    3 HFIP  F5        29    0.301200002    0.351599991    1.537499905
    3 HFIP  F6        30    0.164499998    0.177499995    1.535499930
    3 HFIP  C7        31   -0.002696514    0.398699999    1.582899928
    3 HFIP  F8        32   -0.113796473    0.323100001    1.592399955
    3 HFIP  F9        33    0.032299999    0.414299995    1.455799937
    3 HFIP  F10       34   -0.058796406    0.515500009    1.622299910
    3 HFIP  H11       35    0.179799989    0.527099967    1.689000010
    3 HFIP  H12       36    0.061600000    0.284099996    1.748600006
    4 HFIP  O1        37    1.764599919    0.826999962    2.011999846
    4 HFIP  C2        38    1.691999912    0.810199976    1.893499970
    4 HFIP  C3        39    1.755699992    0.892499983    1.781199932
    4 HFIP  F4        40    1.695899963    0.863799989    1.663199902
    4 HFIP  F5        41    1.882200003    0.851399958    1.767300010
    4 HFIP  F6        42    1.757399917    1.026799917    1.805799961
    4 HFIP  C7        43    1.537999988    0.836899996    1.910099983
    4 HFIP  F8        44    1.515399933    0.853100002    2.043200016
    4 HFIP  F9        45    1.457700014    0.739099979    1.861400008
    4 HFIP  F10       46    1.485700011    0.957199991    1.871699929
    4 HFIP  H11       47    1.775999904    0.925499976    2.024600029
    4 HFIP  H12       48    1.707999945    0.706099987    1.865599990
    5 HFIP  O1        49    1.283599973    2.228899956    0.566599965
    5 HFIP  C2        50    1.159099936    2.285699844    0.571599960
    5 HFIP  C3        51    1.060899973    2.189599991    0.646799982
    5 HFIP  F4        52    1.108899951    2.162799835    0.769400001
    5 HFIP  F5        53    1.061999917    2.070199966    0.584599972
    5 HFIP  F6        54    0.934099972    2.240299940    0.644699991
    5 HFIP  C7        55    1.099599957    2.349699974    0.436199993
    5 HFIP  F8        56    0.994899988    2.436399937    0.454599977
    5 HFIP  F9        57    1.036700010    2.256199837    0.356099993
    5 HFIP  F10       58    1.191399932    2.411499977    0.358599991
    5 HFIP  H11       59    1.281799912    2.128999949    0.569099963
    5 HFIP  H12       60    1.172299981    2.362699986    0.647700012
    6 HFIP  O1        61    1.532599926    2.805799961    2.665099859
    6 HFIP  C2        62    1.404799938    2.854096413    2.654299974
    6 HFIP  C3        63    1.349599957    2.840796232    2.510099888
    6 HFIP  F4        64    1.320999980    2.955196381    2.441099882
    6 HFIP  F5        65    1.229799986    2.771999836    2.506899834
    6 HFIP  F6        66    1.432500005    2.769399881    2.427700043
    6 HFIP  C7        67    1.383299947    2.998196363    2.706799984
    6 HFIP  F8        68    1.447499990    3.096196413    2.641299963
    6 HFIP  F9        69    1.419399977    3.005096436    2.835596323
    6 HFIP  F10       70    1.251899958    3.035996437    2.701400042
    6 HFIP  H11       71    1.580699921    2.868396282    2.603799820
    6 HFIP  H12       72    1.344599962    2.786200047    2.714699984
    7 HFIP  O1        73    0.651399970    2.624300003    2.012199879
    7 HFIP  C2        74    0.671599984    2.759299994    1.999300003
    7 HFIP  C3        75    0.587499976    2.822596312    1.884499907
    7 HFIP  F4        76    0.459999979    2.775599957    1.889699936
    7 HFIP  F5        77    0.656799972    2.804399967    1.764799953
    7 HFIP  F6        78    0.575299978    2.958596230    1.897199988
    7 HFIP  C7        79    0.815599978    2.787899971    1.988799930
    7 HFIP  F8        80    0.846199989    2.912296295    1.955500007
    7 HFIP  F9        81    0.878199995    2.700899839    1.901399970
    7 HFIP  F10       82    0.879599988    2.770999908    2.107100010
    7 HFIP  H11       83    0.621999979    2.588500023    1.923499942
    7 HFIP  H12       84    0.635899961    2.805500031    2.091399908
    8 HFIP  O1        85    2.140300035    0.801799953    2.627899885
    8 HFIP  C2        86    2.037899971    0.724299967    2.680799961
    8 HFIP  C3        87    1.897699952    0.765199959    2.618499994
    8 HFIP  F4        88    1.874899983    0.893499970    2.647099972
    8 HFIP  F5        89    1.784099936    0.699199975    2.653599977
    8 HFIP  F6        90    1.911599994    0.757099986    2.487799883
    8 HFIP  C7        91    2.040699959    0.732800007    2.834296465
    8 HFIP  F8        92    2.070899963    0.854099989    2.887196302
    8 HFIP  F9        93    2.131199837    0.643899977    2.881496429
    8 HFIP  F10       94    1.924399972    0.690499961    2.887996435
    8 HFIP  H11       95    2.121999979    0.892899990    2.664899826
    8 HFIP  H12       96    2.061100006    0.620000005    2.659399986
    9 HFIP  O1        97    1.718499899    1.608399987    0.220399991
    9 HFIP  C2        98    1.602999926    1.614799976    0.150500000
    9 HFIP  C3        99    1.536099911    1.468999982    0.170599997
    9 HFIP  F4       100    1.577999949    1.369099975    0.088299997
    9 HFIP  F5       101    1.398899913    1.467599988    0.168899998
    9 HFIP  F6       102    1.565400004    1.419699907    0.297199994
    9 HFIP  C7       103    1.630599976    1.637599945    0.004600000
    9 HFIP  F8       104    1.730999947    1.552199960   -0.031496525
    9 HFIP  F9       105    1.676499963    1.764400005   -0.026196480
    9 HFIP  F10      106    1.518599987    1.628099918   -0.072296381
    9 HFIP  H11      107    1.769400001    1.523800015    0.204300001
    9 HFIP  H12      108    1.547199965    1.700899959    0.187299997
   10 HFIP  O1       109    1.675199986    2.621500015    2.789499998
   10 HFIP  C2       110    1.638700008    2.487699986    2.764899969
   10 HFIP  C3       111    1.631699920    2.457700014    2.613399982
   10 HFIP  F4       112    1.740199924    2.489799976    2.538300037
   10 HFIP  F5       113    1.523299932    2.521299839    2.561399937
   10 HFIP  F6       114    1.619499922    2.322399855    2.592799902
   10 HFIP  C7       115    1.509400010    2.448799849    2.838396311
   10 HFIP  F8       116    1.534099936    2.455099821    2.971096277
   10 HFIP  F9       117    1.473999977    2.319900036    2.819896460
   10 HFIP  F10      118    1.410599947    2.532299995    2.811100006
   10 HFIP  H11      119    1.609200001    2.690899849    2.760799885
   10 HFIP  H12      120    1.717299938    2.420799971    2.799799919
   11 HFIP  O1       121    1.442399979    0.972499967    0.898399949
   11 HFIP  C2       122    1.318799973    0.917199969    0.935999990
   11 HFIP  C3       123    1.301199913    0.773299992    0.882699966
   11 HFIP  F4       124    1.217100024    0.706900001    0.961299956
   11 HFIP  F5       125    1.417199969    0.702899992    0.892699957
   11 HFIP  F6       126    1.274299979    0.768299997    0.751199961
   11 HFIP  C7       127    1.205399990    1.006699920    0.888300002
   11 HFIP  F8       128    1.192899942    1.105599999    0.979099989
   11 HFIP  F9       129    1.088400006    0.940199971    0.886999965
   11 HFIP  F10      130    1.224200010    1.054600000    0.758599997
   11 HFIP  H11      131    1.482899904    0.913399994    0.828700006
   11 HFIP  H12      132    1.315400004    0.911399961    1.044799924
   12 HFIP  O1       133    0.411499977    2.348500013    1.956399918
   12 HFIP  C2       134    0.314500004    2.254400015    1.964199901
   12 HFIP  C3       135    0.177199990    2.318199873    1.964499950
   12 HFIP  F4       136    0.081699997    2.252199888    2.029599905
   12 HFIP  F5       137    0.125000000    2.348799944    1.841699958
   12 HFIP  F6       138    0.190200001    2.435899973    2.033799887
   12 HFIP  C7       139    0.342599988    2.154199839    2.077800035
   12 HFIP  F8       140    0.280799985    2.041100025    2.043200016
   12 HFIP  F9       141    0.305199981    2.190000057    2.203599930
   12 HFIP  F10      142    0.475799978    2.122699976    2.086600065
   12 HFIP  H11      143    0.416199982    2.406999826    2.037299871
   12 HFIP  H12      144    0.313499987    2.197700024    1.871199965
   13 HFIP  O1       145    2.613100052    1.660200000    1.514899969
   13 HFIP  C2       146    2.633199930    1.533800006    1.542599916
   13 HFIP  C3       147    2.500299931    1.467999935    1.592799902
   13 HFIP  F4       148    2.394599915    1.507399917    1.514799953
   13 HFIP  F5       149    2.475100040    1.504899979    1.722399950
   13 HFIP  F6       150    2.497200012    1.331399918    1.586699963
   13 HFIP  C7       151    2.763200045    1.510399938    1.620800018
   13 HFIP  F8       152    2.778199911    1.596499920    1.726399899
   13 HFIP  F9       153    2.871296406    1.521799922    1.534399986
   13 HFIP  F10      154    2.765699863    1.387499928    1.675599933
   13 HFIP  H11      155    2.571499825    1.704899907    1.594099998
   13 HFIP  H12      156    2.655299902    1.478399992    1.451399922
   14 HFIP  O1       157    2.233899832    1.044299960    2.187999964
   14 HFIP  C2       158    2.344599962    1.084299922    2.271699905
   14 HFIP  C3       159    2.469899893    0.993999958    2.257699966
   14 HFIP  F4       160    2.502399921    0.965199947    2.127399921
   14 HFIP  F5       161    2.445199966    0.872500002    2.318799973
   14 HFIP  F6       162    2.590100050    1.027300000    2.304100037
   14 HFIP  C7       163    2.291499853    1.096799970    2.416199923
   14 HFIP  F8       164    2.218899965    1.211499929    2.435999870
   14 HFIP  F9       165    2.386600018    1.101400018    2.512699842
   14 HFIP  F10      166    2.193699837    1.005599976    2.441799879
   14 HFIP  H11      167    2.196799994    0.951999962    2.198199987
   14 HFIP  H12      168    2.370899916    1.186200023    2.243399858
   15 HFIP  O1       169    1.675699949    0.131599993    2.506299973
   15 HFIP  C2       170    1.763499975    0.221399993    2.559399843
   15 HFIP  C3       171    1.783899903    0.353499979    2.480399847
   15 HFIP  F4       172    1.848399997    0.451499999    2.544999838
   15 HFIP  F5       173    1.660599947    0.398000002    2.441799879
   15 HFIP  F6       174    1.837599993    0.324499995    2.361399889
   15 HFIP  C7       175    1.901799917    0.157099992    2.580799818
   15 HFIP  F8       176    1.879499912    0.048099998    2.662600040
   15 HFIP  F9       177    1.996299982    0.218699992    2.656299829
   15 HFIP  F10      178    1.957299948    0.092000000    2.479599953
   15 HFIP  H11      179    1.701299906    0.123899996    2.409899950
   15 HFIP  H12      180    1.733299971    0.244899988    2.661499977
   16 HFIP  O1       181    0.165600002    1.361199975    2.658499956
   16 HFIP  C2       182    0.113499999    1.231599927    2.637399912
   16 HFIP  C3       183   -0.032196522    1.237900019    2.583799839
   16 HFIP  F4       184   -0.025196314    1.255199909    2.451799870
   16 HFIP  F5       185   -0.095596313    1.346899986    2.639299870
   16 HFIP  F6       186   -0.106996298    1.127300024    2.608399868
   16 HFIP  C7       187    0.115499996    1.167500019    2.783099890
   16 HFIP  F8       188    0.012800000    1.218599916    2.852096319
   16 HFIP  F9       189    0.225400001    1.200999975    2.856996298
   16 HFIP  F10      190    0.111499995    1.031999946    2.778100014
   16 HFIP  H11      191    0.088399999    1.423699975    2.670399904
   16 HFIP  H12      192    0.175699994    1.170099974    2.572399855
   17 HFIP  O1       193    2.290199995    2.205100060    1.034999967
   17 HFIP  C2       194    2.304299831    2.322999954    1.102900028
   17 HFIP  C3       195    2.408799887    2.331300020    1.218199968
   17 HFIP  F4       196    2.372299910    2.266799927    1.330299973
   17 HFIP  F5       197    2.448299885    2.461499929    1.236199975
   17 HFIP  F6       198    2.523299932    2.270599842    1.180899978
   17 HFIP  C7       199    2.161599874    2.352099895    1.159099936
   17 HFIP  F8       200    2.066099882    2.358999968    1.061200023
   17 HFIP  F9       201    2.154099941    2.467700005    1.226499915
   17 HFIP  F10      202    2.125099897    2.255899906    1.246500015
   17 HFIP  H11      203    2.203999996    2.167299986    1.068699956
   17 HFIP  H12      204    2.318599939    2.405400038    1.032999992
   18 HFIP  O1       205    1.532699943    1.072000027    1.264799953
   18 HFIP  C2       206    1.576900005    1.073799968    1.396399975
   18 HFIP  C3       207    1.460099936    1.098299980    1.500999928
   18 HFIP  F4       208    1.360299945    1.175799966    1.448799968
   18 HFIP  F5       209    1.489399910    1.125399947    1.630599976
   18 HFIP  F6       210    1.398399949    0.976399958    1.519999981
   18 HFIP  C7       211    1.687500000    1.182999969    1.413299918
   18 HFIP  F8       212    1.642399907    1.307699919    1.434999943
   18 HFIP  F9       213    1.771299958    1.175099969    1.303699970
   18 HFIP  F10      214    1.764799953    1.162599921    1.523199916
   18 HFIP  H11      215    1.497900009    1.163900018    1.245999932
   18 HFIP  H12      216    1.625699997    0.978799999    1.417899966
   19 HFIP  O1       217    1.500899911    0.819799960    1.212800026
   19 HFIP  C2       218    1.594699979    0.722700000    1.189299941
   19 HFIP  C3       219    1.621699929    0.643899977    1.316399932
   19 HFIP  F4       220    1.511699915    0.621899962    1.393800020
   19 HFIP  F5       221    1.710199952    0.694099963    1.403699994
   19 HFIP  F6       222    1.660599947    0.514199972    1.288800001
   19 HFIP  C7       223    1.720799923    0.782499969    1.118600011
   19 HFIP  F8       224    1.700599909    0.850199997    0.998499990
   19 HFIP  F9       225    1.819499969    0.689999998    1.090899944
   19 HFIP  F10      226    1.769999981    0.877999961    1.206300020
   19 HFIP  H11      227    1.541299939    0.910799980    1.221799970
   19 HFIP  H12      228    1.551699996    0.654899955    1.115599990
   20 HFIP  O1       229    0.525900006    0.239999995    0.186399996
   20 HFIP  C2       230    0.518099964    0.296000004    0.315999985
   20 HFIP  C3       231    0.436600000    0.428599983    0.300500005
   20 HFIP  F4       232    0.470200002    0.503799975    0.193399996
   20 HFIP  F5       233    0.446300000    0.505999982    0.409699976
   20 HFIP  F6       234    0.305599988    0.391599983    0.279699981
   20 HFIP  C7       235    0.661399961    0.305099994    0.366299987
   20 HFIP  F8       236    0.722999990    0.182599992    0.361999989
   20 HFIP  F9       237    0.664699972    0.343699992    0.495299995
   20 HFIP  F10      238    0.732400000    0.384599984    0.283199996
   20 HFIP  H11      239    0.522799969    0.316100001    0.121500000
   20 HFIP  H12      240    0.462199986    0.235199988    0.387199998
   21 HFIP  O1       241    0.573300004    2.506199837    1.792199969
   21 HFIP  C2       242    0.595299959    2.453899860    1.666999936
   21 HFIP  C3       243    0.469599992    2.456899881    1.576399922
   21 HFIP  F4       244    0.368200004    2.400300026    1.635899901
   21 HFIP  F5       245    0.482699990    2.405699968    1.455799937
   21 HFIP  F6       246    0.436600000    2.587499857    1.550599933
   21 HFIP  C7       247    0.670799971    2.318699837    1.671000004
   21 HFIP  F8       248    0.693399966    2.266000032    1.549499989
   21 HFIP  F9       249    0.608299971    2.216500044    1.731299996
   21 HFIP  F10      250    0.793299973    2.341899872    1.731299996
   21 HFIP  H11      251    0.496699989    2.454999924    1.831099987
   21 HFIP  H12      252    0.667699993    2.519599915    1.618899941
   22 HFIP  O1       253    0.469899982    2.526900053    2.169699907
   22 HFIP  C2       254    0.402599990    2.545099974    2.290799856
   22 HFIP  C3       255    0.330199987    2.676699877    2.291399956
   22 HFIP  F4       256    0.231999993    2.674799919    2.197599888
   22 HFIP  F5       257    0.412099987    2.781699896    2.269500017
   22 HFIP  F6       258    0.269099981    2.707700014    2.409899950
   22 HFIP  C7       259    0.506699979    2.524899960    2.406800032
   22 HFIP  F8       260    0.520799994    2.391999960    2.439100027
   22 HFIP  F9       261    0.474799991    2.570699930    2.528199911
   22 HFIP  F10      262    0.629199982    2.570099831    2.371500015
   22 HFIP  H11      263    0.563899994    2.560499907    2.163599968
   22 HFIP  H12      264    0.327600002    2.467799902    2.307399988
   23 HFIP  O1       265    0.860799968    0.285799980    1.390799999
   23 HFIP  C2       266    0.803900003    0.160899997    1.391600013
   23 HFIP  C3       267    0.670899987    0.170399994    1.474299908
   23 HFIP  F4       268    0.684599996    0.215899989    1.601599932
   23 HFIP  F5       269    0.609099984    0.052099999    1.475999951
   23 HFIP  F6       270    0.575899959    0.260499984    1.425899982
   23 HFIP  C7       271    0.902799964    0.047799997    1.440099955
   23 HFIP  F8       272    0.968599975    0.061699998    1.559499979
   23 HFIP  F9       273    1.007900000    0.043199997    1.356599927
   23 HFIP  F10      274    0.856299996   -0.080596447    1.426100016
   23 HFIP  H11      275    0.891499996    0.316899985    1.480799913
   23 HFIP  H12      276    0.770899951    0.138699993    1.290099978
   24 HFIP  O1       277    0.224999994    0.894099951    1.723699927
   24 HFIP  C2       278    0.089199997    0.905799985    1.768700004
   24 HFIP  C3       279    0.029099999    1.041700006    1.726599932
   24 HFIP  F4       280    0.020600000    1.054399967    1.589599967
   24 HFIP  F5       281    0.103699997    1.144299984    1.774599910
   24 HFIP  F6       282   -0.096396446    1.074199915    1.767899990
   24 HFIP  C7       283    0.083899997    0.877799988    1.917699933
   24 HFIP  F8       284   -0.039996386    0.854099989    1.961599946
   24 HFIP  F9       285    0.148199990    0.966699958    2.001499891
   24 HFIP  F10      286    0.147699997    0.760499954    1.950999975
   24 HFIP  H11      287    0.271899998    0.977899969    1.751500010
   24 HFIP  H12      288    0.029199999    0.829899967    1.718400002
   25 HFIP  O1       289    0.400299996    0.176299989    0.945099950
   25 HFIP  C2       290    0.429899991    0.291899979    1.023299932
   25 HFIP  C3       291    0.331599981    0.297299981    1.143899918
   25 HFIP  F4       292    0.348600000    0.412299991    1.211899996
   25 HFIP  F5       293    0.359599978    0.200099990    1.236199975
   25 HFIP  F6       294    0.207599998    0.271600008    1.105700016
   25 HFIP  C7       295    0.439699978    0.424999982    0.929600000
   25 HFIP  F8       296    0.456699997    0.550000012    0.985799968
   25 HFIP  F9       297    0.311800003    0.447599977    0.877699971
   25 HFIP  F10      298    0.532999992    0.394799978    0.833599985
   25 HFIP  H11      299    0.324699998    0.198299989    0.883399963
   25 HFIP  H12      300    0.532000005    0.281100005    1.059599996
   26 HFIP  O1       301    1.011600018    0.963699996    2.437500000
   26 HFIP  C2       302    0.884399951    0.941199958    2.391799927
   26 HFIP  C3       303    0.790499985    0.894999981    2.498999834
   26 HFIP  F4       304    0.666899979    0.879700005    2.447299957
   26 HFIP  F5       305    0.793500006    0.979999959    2.606600046
   26 HFIP  F6       306    0.829799950    0.780900002    2.558799982
   26 HFIP  C7       307    0.896599948    0.825499952    2.279299974
   26 HFIP  F8       308    0.944299996    0.707599998    2.323400021
   26 HFIP  F9       309    0.999300003    0.855899990    2.198299885
   26 HFIP  F10      310    0.783800006    0.801099956    2.201799870
   26 HFIP  H11      311    1.049000025    0.872799993    2.455999851
   26 HFIP  H12      312    0.854799986    1.034199953    2.343400002
   27 HFIP  O1       313    2.325999975    2.302299976    0.582700014
   27 HFIP  C2       314    2.308899879    2.441200018    0.573300004
   27 HFIP  C3       315    2.442199945    2.507799864    0.608699977
   27 HFIP  F4       316    2.446099997    2.629699945    0.551599979
   27 HFIP  F5       317    2.553599834    2.441200018    0.564399958
   27 HFIP  F6       318    2.456699848    2.526999950    0.741599977
   27 HFIP  C7       319    2.180799961    2.488399982    0.658699989
   27 HFIP  F8       320    2.063400030    2.422399998    0.637199998
   27 HFIP  F9       321    2.157599926    2.616699934    0.640699983
   27 HFIP  F10      322    2.204599857    2.457499981    0.793199956
   27 HFIP  H11      323    2.361199856    2.280400038    0.673699975
   27 HFIP  H12      324    2.285599947    2.468699932    0.470499992
   28 HFIP  O1       325    0.979399979    0.474899977    1.241699934
   28 HFIP  C2       326    0.981499970    0.477099985    1.098799944
   28 HFIP  C3       327    0.839599967    0.442399979    1.045699954
   28 HFIP  F4       328    0.794200003    0.324299991    1.087800026
   28 HFIP  F5       329    0.836299956    0.436999977    0.907399952
   28 HFIP  F6       330    0.744300008    0.531099975    1.079499960
   28 HFIP  C7       331    1.095399976    0.395699978    1.029399991
   28 HFIP  F8       332    1.092499971    0.267800003    1.067600012
   28 HFIP  F9       333    1.222100019    0.428499997    1.074199915
   28 HFIP  F10      334    1.110499978    0.394600004    0.895899951
   28 HFIP  H11      335    0.956200004    0.380899996    1.266699910
   28 HFIP  H12      336    1.004699945    0.578499973    1.066399932
   29 HFIP  O1       337    0.241599992    0.655799985    1.596300006
   29 HFIP  C2       338    0.289700001    0.674799979    1.465799928
   29 HFIP  C3       339    0.448899984    0.668199956    1.474799991
   29 HFIP  F4       340    0.501599967    0.755800009    1.557899952
   29 HFIP  F5       341    0.505400002    0.692399979    1.352599978
   29 HFIP  F6       342    0.505199969    0.551400006    1.523899913
   29 HFIP  C7       343    0.232400000    0.801400006    1.387199998
   29 HFIP  F8       344    0.297399998    0.907399952    1.434899926
   29 HFIP  F9       345    0.096299998    0.816299975    1.410699964
   29 HFIP  F10      346    0.254700005    0.798599958    1.255699992
   29 HFIP  H11      347    0.253100008    0.737299979    1.653100014
   29 HFIP  H12      348    0.264200002    0.585900009    1.408199906
   30 HFIP  O1       349    1.757399917    1.778699994    0.432699978
   30 HFIP  C2       350    1.859799981    1.723799944    0.504599988
   30 HFIP  C3       351    1.990599990    1.726300001    0.425699979
   30 HFIP  F4       352    1.993999958    1.636399984    0.328700006
   30 HFIP  F5       353    2.101899862    1.722700000    0.499599993
   30 HFIP  F6       354    2.007099867    1.841599941    0.359400004
   30 HFIP  C7       355    1.836799979    1.580699921    0.556800008
   30 HFIP  F8       356    1.788399935    1.496399999    0.460199982
   30 HFIP  F9       357    1.736899972    1.587099910    0.649299979
   30 HFIP  F10      358    1.951299906    1.529599905    0.607800007
   30 HFIP  H11      359    1.750000000    1.718599916    0.353100002
   30 HFIP  H12      360    1.877699971    1.787299991    0.591300011
   31 HFIP  O1       361    1.100000024    1.220299959    2.519099951
   31 HFIP  C2       362    1.159099936    1.249499917    2.640799999
   31 HFIP  C3       363    1.315299988    1.223599911    2.623299837
   31 HFIP  F4       364    1.328699946    1.112900019    2.542999983
   31 HFIP  F5       365    1.387799978    1.208699942    2.735800028
   31 HFIP  F6       366    1.370700002    1.324199915    2.542599916
   31 HFIP  C7       367    1.098299980    1.160399914    2.750099897
   31 HFIP  F8       368    1.168399930    1.162999988    2.865996361
   31 HFIP  F9       369    1.096499920    1.029399991    2.712599993
   31 HFIP  F10      370    0.967499971    1.194499969    2.775899887
   31 HFIP  H11      371    1.093999982    1.120899916    2.509500027
   31 HFIP  H12      372    1.145299911    1.357399940    2.648200035
   32 HFIP  O1       373    1.371799946    0.635599971    0.324999988
   32 HFIP  C2       374    1.241599917    0.593400002    0.303799987
   32 HFIP  C3       375    1.218199968    0.479799986    0.410699993
   32 HFIP  F4       376    1.257499933    0.520799994    0.531599998
   32 HFIP  F5       377    1.292099953    0.366400003    0.390299976
   32 HFIP  F6       378    1.087700009    0.442999989    0.436499983
   32 HFIP  C7       379    1.218500018    0.558399975    0.154299989
   32 HFIP  F8       380    1.262199998    0.653699994    0.067499995
   32 HFIP  F9       381    1.081200004    0.558600008    0.140100002
   32 HFIP  F10      382    1.259599924    0.442199975    0.100699998
   32 HFIP  H11      383    1.421100020    0.557299972    0.363000005
   32 HFIP  H12      384    1.181200027    0.679699957    0.331799984
   33 HFIP  O1       385    2.386699915    0.997399986    1.169899940
   33 HFIP  C2       386    2.278599977    1.080299973    1.166599989
   33 HFIP  C3       387    2.260799885    1.160200000    1.305699944
   33 HFIP  F4       388    2.383100033    1.225600004    1.333199978
   33 HFIP  F5       389    2.241999865    1.069299936    1.401299953
   33 HFIP  F6       390    2.165699959    1.260299921    1.306399941
   33 HFIP  C7       391    2.154199839    1.003000021    1.104499936
   33 HFIP  F8       392    2.193799973    0.882799983    1.051399946
   33 HFIP  F9       393    2.082000017    1.077499986    1.012699962
   33 HFIP  F10      394    2.064699888    0.975899994    1.205899954
   33 HFIP  H11      395    2.371599913    0.934300005    1.245999932
   33 HFIP  H12      396    2.303599834    1.156000018    1.092199922
   34 HFIP  O1       397    1.226199985    1.309700012    2.037499905
   34 HFIP  C2       398    1.195699930    1.183599949    2.000599861
   34 HFIP  C3       399    1.049999952    1.172099948    1.958499908
   34 HFIP  F4       400    0.970099986    1.186999917    2.068899870
   34 HFIP  F5       401    1.028299928    1.059399962    1.888599992
   34 HFIP  F6       402    1.016000032    1.274899960    1.878499985
   34 HFIP  C7       403    1.237900019    1.091199994    2.118499994
   34 HFIP  F8       404    1.176800013    1.116899967    2.237699986
   34 HFIP  F9       405    1.369799972    1.102100015    2.134399891
   34 HFIP  F10      406    1.215499997    0.957499981    2.089799881
   34 HFIP  H11      407    1.199399948    1.332499981    2.131099939
   34 HFIP  H12      408    1.260200024    1.163399935    1.915099978
   35 HFIP  O1       409    2.531399965    0.806499958    0.522099972
   35 HFIP  C2       410    2.422099829    0.785899997    0.599399984
   35 HFIP  C3       411    2.326999903    0.684199989    0.524100006
   35 HFIP  F4       412    2.353099823    0.555199981    0.550499976
   35 HFIP  F5       413    2.341899872    0.687799990    0.391399980
   35 HFIP  F6       414    2.195600033    0.687099993    0.556999981
   35 HFIP  C7       415    2.348599911    0.913999975    0.643000007
   35 HFIP  F8       416    2.436800003    1.015499949    0.625099957
   35 HFIP  F9       417    2.315999985    0.908099949    0.773099959
   35 HFIP  F10      418    2.249799967    0.952699959    0.564000010
   35 HFIP  H11      419    2.510200024    0.853899956    0.436600000
   35 HFIP  H12      420    2.462199926    0.740999997    0.690299988
   36 HFIP  O1       421    2.434999943    2.003999949    2.334800005
   36 HFIP  C2       422    2.553400040    2.042599916    2.390899897
   36 HFIP  C3       423    2.559599876    2.028199911    2.543999910
   36 HFIP  F4       424    2.520099878    1.907699943    2.593699932
   36 HFIP  F5       425    2.479899883    2.118900061    2.611899853
   36 HFIP  F6       426    2.686899900    2.047999859    2.584699869
   36 HFIP  C7       427    2.596699953    2.184700012    2.340999842
   36 HFIP  F8       428    2.523699999    2.289999962    2.395999908
   36 HFIP  F9       429    2.564399958    2.206199884    2.211199999
   36 HFIP  F10      430    2.726599932    2.209800005    2.351500034
   36 HFIP  H11      431    2.377300024    2.083999872    2.318199873
   36 HFIP  H12      432    2.632400036    1.973999977    2.360100031
   37 HFIP  O1       433    2.246099949    2.170099974    2.324100018
   37 HFIP  C2       434    2.197999954    2.224900007    2.212199926
   37 HFIP  C3       435    2.098799944    2.337399960    2.256099939
   37 HFIP  F4       436    2.149199963    2.464799881    2.260400057
   37 HFIP  F5       437    2.043200016    2.333899975    2.382400036
   37 HFIP  F6       438    1.992999911    2.341899872    2.176599979
   37 HFIP  C7       439    2.148299932    2.106799841    2.117300034
   37 HFIP  F8       440    2.215299845    1.992299914    2.147300005
   37 HFIP  F9       441    2.167999983    2.126199961    1.986499906
   37 HFIP  F10      442    2.020200014    2.066799879    2.149399996
   37 HFIP  H11      443    2.175600052    2.173399925    2.394899845
   37 HFIP  H12      444    2.280099869    2.272799969    2.158900023
   38 HFIP  O1       445    2.054199934    2.075299978    1.041700006
   38 HFIP  C2       446    2.035500050    1.941199899    1.009299994
   38 HFIP  C3       447    1.949099898    1.919600010    0.882299960
   38 HFIP  F4       448    1.821499944    1.902199984    0.920499980
   38 HFIP  F5       449    1.980499983    1.804099917    0.814799964
   38 HFIP  F6       450    1.957899928    2.021699905    0.798099995
   38 HFIP  C7       451    1.987399936    1.862199903    1.139599919
   38 HFIP  F8       452    2.081599951    1.885899901    1.233199954
   38 HFIP  F9       453    1.968099952    1.727999926    1.104200006
   38 HFIP  F10      454    1.870399952    1.911099911    1.185299993
   38 HFIP  H11      455    1.981299996    2.087100029    1.108999968
   38 HFIP  H12      456    2.137599945    1.905200005    0.995999992
   39 HFIP  O1       457    1.673599958    0.284500003    2.067399979
   39 HFIP  C2       458    1.543699980    0.326799989    2.089400053
   39 HFIP  C3       459    1.444899917    0.210099995    2.065899849
   39 HFIP  F4       460    1.448199987    0.148100004    1.947299957
   39 HFIP  F5       461    1.313199997    0.241999999    2.078799963
   39 HFIP  F6       462    1.464800000    0.112499997    2.154700041
   39 HFIP  C7       463    1.513999939    0.453299999    2.015399933
   39 HFIP  F8       464    1.618899941    0.540399969    2.033900023
   39 HFIP  F9       465    1.403499961    0.520799994    2.062099934
   39 HFIP  F10      466    1.502900004    0.430999994    1.880899906
   39 HFIP  H11      467    1.698899984    0.275999993    1.970999956
   39 HFIP  H12      468    1.528999925    0.338699996    2.196699858
   40 HFIP  O1       469    1.749899983    0.084399998    2.237599850
   40 HFIP  C2       470    1.837899923   -0.017596483    2.209399939
   40 HFIP  C3       471    1.962700009    0.029999999    2.131299973
   40 HFIP  F4       472    1.944700003    0.081599995    2.008699894
   40 HFIP  F5       473    2.060799837   -0.063996315    2.123800039
   40 HFIP  F6       474    2.028699875    0.121799998    2.204499960
   40 HFIP  C7       475    1.769299984   -0.118896484    2.121500015
   40 HFIP  F8       476    1.855399966   -0.210396528    2.073400021
   40 HFIP  F9       477    1.694399953   -0.056696415    2.023499966
   40 HFIP  F10      478    1.682799935   -0.184696436    2.200099945
   40 HFIP  H11      479    1.735599995    0.137199998    2.153899908
   40 HFIP  H12      480    1.867799997   -0.078196526    2.294899940
   41 HFIP  O1       481    2.287600040    1.772799969    2.327800035
   41 HFIP  C2       482    2.350299835    1.657699943    2.280999899
   41 HFIP  C3       483    2.446499825    1.601999998    2.387099981
   41 HFIP  F4       484    2.472499847    1.468400002    2.370699883
   41 HFIP  F5       485    2.401399851    1.611299992    2.518699884
   41 HFIP  F6       486    2.570499897    1.656199932    2.389499903
   41 HFIP  C7       487    2.411599874    1.684700012    2.141799927
   41 HFIP  F8       488    2.317600012    1.712899923    2.046099901
   41 HFIP  F9       489    2.474900007    1.578099966    2.096999884
   41 HFIP  F10      490    2.499799967    1.789099932    2.154599905
   41 HFIP  H11      491    2.322599888    1.849699974    2.274299860
   41 HFIP  H12      492    2.270499945    1.585199952    2.264699936
   42 HFIP  O1       493    2.106799841    2.069399834    2.513000011
   42 HFIP  C2       494    2.072700024    2.082099915    2.646499872
   42 HFIP  C3       495    2.142799854    1.991299987    2.753000021
   42 HFIP  F4       496    2.197299957    1.873600006    2.707099915
   42 HFIP  F5       497    2.072499990    1.966099977    2.870596409
   42 HFIP  F6       498    2.254199982    2.059499979    2.801199913
   42 HFIP  C7       499    1.922699928    2.068500042    2.661200047
   42 HFIP  F8       500    1.865499973    2.139299870    2.761299849
   42 HFIP  F9       501    1.882299900    1.939399958    2.670300007
   42 HFIP  F10      502    1.857999921    2.115399837    2.548199892
   42 HFIP  H11      503    2.087899923    1.973599911    2.490999937
   42 HFIP  H12      504    2.106600046    2.182499886    2.671999931
   43 HFIP  O1       505    2.656299829    0.993299961    1.122900009
   43 HFIP  C2       506    2.739699841    1.085600019    1.059700012
   43 HFIP  C3       507    2.796000004    1.190699935    1.162199974
   43 HFIP  F4       508    2.880496264    1.118600011    1.239300013
   43 HFIP  F5       509    2.693599939    1.240800023    1.235800028
   43 HFIP  F6       510    2.867496252    1.284299970    1.095899940
   43 HFIP  C7       511    2.669600010    1.150599957    0.941699982
   43 HFIP  F8       512    2.577600002    1.067099929    0.886500001
   43 HFIP  F9       513    2.761899948    1.174199939    0.847799957
   43 HFIP  F10      514    2.603299856    1.269199967    0.973599970
   43 HFIP  H11      515    2.567299843    1.038200021    1.130699992
   43 HFIP  H12      516    2.827796459    1.041499972    1.013100028
   44 HFIP  O1       517    1.110999942    1.374499917    2.258800030
   44 HFIP  C2       518    1.027899981    1.483199954    2.254600048
   44 HFIP  C3       519    1.099499941    1.616699934    2.281800032
   44 HFIP  F4       520    1.019199967    1.719299912    2.325099945
   44 HFIP  F5       521    1.180099964    1.647199988    2.173899889
   44 HFIP  F6       522    1.194599986    1.604799986    2.378700018
   44 HFIP  C7       523    0.904599965    1.452799916    2.347300053
   44 HFIP  F8       524    0.803399980    1.545899987    2.345999956
   44 HFIP  F9       525    0.933799982    1.431299925    2.473700047
   44 HFIP  F10      526    0.853699982    1.330500007    2.313899994
   44 HFIP  H11      527    1.103099942    1.342599988    2.353299856
   44 HFIP  H12      528    0.983399987    1.483399987    2.155099869
   45 HFIP  O1       529    2.185699940    0.494699985    0.891699970
   45 HFIP  C2       530    2.095700026    0.470200002    0.995599985
   45 HFIP  C3       531    2.154599905    0.494599998    1.134899974
   45 HFIP  F4       532    2.051100016    0.541499972    1.217800021
   45 HFIP  F5       533    2.253299952    0.590299964    1.137300014
   45 HFIP  F6       534    2.193300009    0.380199999    1.199199915
   45 HFIP  C7       535    2.018100023    0.333900005    0.988999963
   45 HFIP  F8       536    2.102999926    0.228499994    0.998099983
   45 HFIP  F9       537    1.959999919    0.323399991    0.867500007
   45 HFIP  F10      538    1.908899903    0.314199984    1.068699956
   45 HFIP  H11      539    2.168099880    0.420399994    0.827199996
   45 HFIP  H12      540    2.016000032    0.544099987    0.987299979
   46 HFIP  O1       541    1.615899920    1.966699958    0.522099972
   46 HFIP  C2       542    1.633899927    2.078599930    0.437999994
   46 HFIP  C3       543    1.610499978    2.035799980    0.290299982
   46 HFIP  F4       544    1.497099996    1.965799928    0.266499996
   46 HFIP  F5       545    1.712299943    1.991999984    0.212699994
   46 HFIP  F6       546    1.579699993    2.153499842    0.228000000
   46 HFIP  C7       547    1.778800011    2.131999969    0.460299999
   46 HFIP  F8       548    1.847099900    2.179699898    0.352599978
   46 HFIP  F9       549    1.865399957    2.036000013    0.493599981
   46 HFIP  F10      550    1.787299991    2.228800058    0.555299997
   46 HFIP  H11      551    1.690400004    1.902499914    0.503899992
   46 HFIP  H12      552    1.566100001    2.159699917    0.464499980
   47 HFIP  O1       553    0.980899990    0.406599998    1.585099936
   47 HFIP  C2       554    1.074699998    0.356500000    1.681599975
   47 HFIP  C3       555    1.078899980    0.453199983    1.806699991
   47 HFIP  F4       556    0.965299964    0.422499985    1.880899906
   47 HFIP  F5       557    1.079699993    0.588000000    1.772099972
   47 HFIP  F6       558    1.178900003    0.428900003    1.894599915
   47 HFIP  C7       559    1.215299964    0.343699992    1.614599943
   47 HFIP  F8       560    1.283800006    0.240499988    1.669199944
   47 HFIP  F9       561    1.297199965    0.451999992    1.623999953
   47 HFIP  F10      562    1.217299938    0.312700003    1.485199928
   47 HFIP  H11      563    0.993900001    0.504400015    1.568699956
   47 HFIP  H12      564    1.041299939    0.257999986    1.714399934
   48 HFIP  O1       565    1.015299916    0.636399984    1.450500011
   48 HFIP  C2       566    1.018700004    0.780900002    1.449800014
   48 HFIP  C3       567    0.878399968    0.833399951    1.426999927
   48 HFIP  F4       568    0.828299999    0.779999971    1.311599970
   48 HFIP  F5       569    0.875199974    0.968599975    1.427599907
   48 HFIP  F6       570    0.785399973    0.785799980    1.517099977
   48 HFIP  C7       571    1.116999984    0.835299969    1.338999987
   48 HFIP  F8       572    1.133099914    0.969399989    1.326900005
   48 HFIP  F9       573    1.076300025    0.789200008    1.220899940
   48 HFIP  F10      574    1.238699913    0.780099988    1.360899925
   48 HFIP  H11      575    0.993099988    0.607999980    1.357199907
   48 HFIP  H12      576    1.040300012    0.824000001    1.547500014
   49 HFIP  O1       577    0.198599994    0.607299984    2.389799833
   49 HFIP  C2       578    0.200999990    0.734600008    2.441900015
   49 HFIP  C3       579    0.094599999    0.822699964    2.370499849
   49 HFIP  F4       580    0.096699998    0.812900007    2.233700037
   49 HFIP  F5       581    0.094099998    0.952899992    2.403300047
   49 HFIP  F6       582   -0.029696465    0.783899963    2.410899878
   49 HFIP  C7       583    0.342099994    0.805999994    2.450299978
   49 HFIP  F8       584    0.426799983    0.713799953    2.501099825
   49 HFIP  F9       585    0.354599983    0.916199982    2.531800032
   49 HFIP  F10      586    0.388099998    0.854200006    2.333400011
   49 HFIP  H11      587    0.279199988    0.603699982    2.330800056
   49 HFIP  H12      588    0.163699999    0.730699956    2.544199944
   50 HFIP  O1       589    0.449299991    2.739199877    0.917999983
   50 HFIP  C2       590    0.572499990    2.669800043    0.921499968
   50 HFIP  C3       591    0.662899971    2.721400023    1.038100004
   50 HFIP  F4       592    0.795799971    2.692800045    1.024199963
   50 HFIP  F5       593    0.620000005    2.671799898    1.159699917
   50 HFIP  F6       594    0.657999992    2.855496407    1.044000030
   50 HFIP  C7       595    0.645500004    2.664000034    0.779100001
   50 HFIP  F8       596    0.728899956    2.557099819    0.762600005
   50 HFIP  F9       597    0.715299964    2.777799845    0.760399997
   50 HFIP  F10      598    0.561599970    2.657699823    0.671000004
   50 HFIP  H11      599    0.461799979    2.837696314    0.929799974
   50 HFIP  H12      600    0.549799979    2.565799952    0.945299983
   51 HFIP  O1       601    1.387399912    1.983799934    0.629299998
   51 HFIP  C2       602    1.334900022    1.870399952    0.688499987
   51 HFIP  C3       603    1.426899910    1.838799953    0.814700007
   51 HFIP  F4       604    1.394199967    1.730799913    0.886599958
   51 HFIP  F5       605    1.438599944    1.951699972    0.894199967
   51 HFIP  F6       606    1.549899936    1.807199955    0.768700004
   51 HFIP  C7       607    1.318199992    1.751999974    0.590699971
   51 HFIP  F8       608    1.290099978    1.797599912    0.465299994
   51 HFIP  F9       609    1.228099942    1.663399935    0.631999969
   51 HFIP  F10      610    1.427500010    1.675899982    0.561299980
   51 HFIP  H11      611    1.475399971    1.964499950    0.585699975
   51 HFIP  H12      612    1.240199924    1.901099920    0.732999980
   52 HFIP  O1       613    0.399999976    1.516199946    2.719300032
   52 HFIP  C2       614    0.526099980    1.473099947    2.711599827
   52 HFIP  C3       615    0.535799980    1.406399965    2.567399979
   52 HFIP  F4       616    0.423699975    1.345299959    2.522799969
   52 HFIP  F5       617    0.620700002    1.299099922    2.568599939
   52 HFIP  F6       618    0.569700003    1.499899983    2.479799986
   52 HFIP  C7       619    0.562099993    1.395999908    2.838396311
   52 HFIP  F8       620    0.694499969    1.402999997    2.857196331
   52 HFIP  F9       621    0.529199958    1.264099956    2.831596375
   52 HFIP  F10      622    0.505699992    1.442099929    2.951996326
   52 HFIP  H11      623    0.339800000    1.438499928    2.701299906
   52 HFIP  H12      624    0.587899983    1.562899947    2.712899923
   53 HFIP  O1       625    0.204499990    0.443399996    2.016799927
   53 HFIP  C2       626    0.122499995    0.376399994    2.102400064
   53 HFIP  C3       627    0.142099991    0.230299994    2.077100039
   53 HFIP  F4       628    0.123700000    0.199399993    1.946299911
   53 HFIP  F5       629    0.062099997    0.142099991    2.144299984
   53 HFIP  F6       630    0.272399992    0.200399995    2.095000029
   53 HFIP  C7       631   -0.024796486    0.431699991    2.091500044
   53 HFIP  F8       632   -0.037896395    0.548299968    2.157899857
   53 HFIP  F9       633   -0.115696430    0.342299998    2.143199921
   53 HFIP  F10      634   -0.047696352    0.463399976    1.963599920
   53 HFIP  H11      635    0.172999993    0.426599979    1.923399925
   53 HFIP  H12      636    0.152099997    0.392999977    2.205999851
   54 HFIP  O1       637    2.150099993    0.794499993    2.223299980
   54 HFIP  C2       638    2.090899944    0.731599987    2.119600058
   54 HFIP  C3       639    2.007900000    0.606099963    2.154000044
   54 HFIP  F4       640    2.064800024    0.524299979    2.246000051
   54 HFIP  F5       641    1.968999982    0.530600011    2.047600031
   54 HFIP  F6       642    1.890100002    0.643000007    2.215800047
   54 HFIP  C7       643    2.202499866    0.699000001    2.015899897
   54 HFIP  F8       644    2.134799957    0.678900003    1.902999997
   54 HFIP  F9       645    2.272799969    0.585299969    2.041499853
   54 HFIP  F10      646    2.284499884    0.807699978    1.996899962
   54 HFIP  H11      647    2.171099901    0.718400002    2.284699917
   54 HFIP  H12      648    2.023599863    0.801999986    2.070600033
   55 HFIP  O1       649    1.476599932    1.293399930    1.175400019
   55 HFIP  C2       650    1.445400000    1.420899987    1.220700026
   55 HFIP  C3       651    1.315199971    1.464100003    1.151899934
   55 HFIP  F4       652    1.248600006    1.565499902    1.210999966
   55 HFIP  F5       653    1.228899956    1.361199975    1.162400007
   55 HFIP  F6       654    1.338699937    1.494099975    1.024699926
   55 HFIP  C7       655    1.557999969    1.528800011    1.193199992
   55 HFIP  F8       656    1.675499916    1.519899964    1.257499933
   55 HFIP  F9       657    1.517899990    1.649399996    1.231499910
   55 HFIP  F10      658    1.599499941    1.534099936    1.065400004
   55 HFIP  H11      659    1.471099973    1.292699933    1.075500011
   55 HFIP  H12      660    1.429499984    1.421499968    1.328499913
   56 HFIP  O1       661    0.592099965    1.030099988    0.221099988
   56 HFIP  C2       662    0.642799973    0.933599949    0.141199991
   56 HFIP  C3       663    0.524800003    0.868999958    0.054800000
   56 HFIP  F4       664    0.461699992    0.974299967   -0.006896496
   56 HFIP  F5       665    0.424699992    0.825299978    0.137500003
   56 HFIP  F6       666    0.558200002    0.773799956   -0.041196346
   56 HFIP  C7       667    0.732999980    0.831900001    0.208899990
   56 HFIP  F8       668    0.671099961    0.739399970    0.283299983
   56 HFIP  F9       669    0.823899984    0.882599950    0.291199982
   56 HFIP  F10      670    0.804799974    0.758399963    0.118799999
   56 HFIP  H11      671    0.513599992    1.070599914    0.174300000
   56 HFIP  H12      672    0.689099967    0.985899985    0.057499997
   57 HFIP  O1       673    0.791700006    1.804199934    1.141600013
   57 HFIP  C2       674    0.905799985    1.762199998    1.069899917
   57 HFIP  C3       675    1.016000032    1.868699908    1.075500011
   57 HFIP  F4       676    1.120599985    1.843699932    0.990099967
   57 HFIP  F5       677    1.059999943    1.882900000    1.204499960
   57 HFIP  F6       678    0.965699971    1.994799972    1.054199934
   57 HFIP  C7       679    0.881699979    1.712599993    0.923599958
   57 HFIP  F8       680    0.979099989    1.636600018    0.872099996
   57 HFIP  F9       681    0.865499973    1.816499949    0.836600006
   57 HFIP  F10      682    0.760699987    1.648599982    0.919299960
   57 HFIP  H11      683    0.764400005    1.880199909    1.082599998
   57 HFIP  H12      684    0.947899997    1.673699975    1.117599964
   58 HFIP  O1       685    2.795599937    0.701499999    0.416999996
   58 HFIP  C2       686    2.923496246    0.686599970    0.473699987
   58 HFIP  C3       687    2.916096449    0.586199999    0.595999956
   58 HFIP  F4       688    3.026996374    0.509800017    0.596199989
   58 HFIP  F5       689    2.802500010    0.513799965    0.589199960
   58 HFIP  F6       690    2.909896374    0.656199992    0.710299969
   58 HFIP  C7       691    2.976096392    0.828899980    0.497499973
   58 HFIP  F8       692    2.995396376    0.903299987    0.386700004
   58 HFIP  F9       693    3.100296259    0.828599989    0.555199981
   58 HFIP  F10      694    2.887996435    0.902399957    0.571500003
   58 HFIP  H11      695    2.732899904    0.741999984    0.483499974
   58 HFIP  H12      696    2.988096237    0.641699970    0.398299992
   59 HFIP  O1       697    0.654599965    0.369599998    2.780499935
   59 HFIP  C2       698    0.602299988    0.443299979    2.678599834
   59 HFIP  C3       699    0.471399993    0.375900000    2.633399963
   59 HFIP  F4       700    0.479599983    0.242899999    2.627799988
   59 HFIP  F5       701    0.419599980    0.412099987    2.520999908
   59 HFIP  F6       702    0.374100000    0.397299975    2.726399899
   59 HFIP  C7       703    0.697899997    0.457899988    2.561499834
   59 HFIP  F8       704    0.820299983    0.492799997    2.606999874
   59 HFIP  F9       705    0.664799988    0.552800000    2.469499826
   59 HFIP  F10      706    0.724099994    0.339299977    2.502699852
   59 HFIP  H11      707    0.700999975    0.288599998    2.744599819
   59 HFIP  H12      708    0.567399979    0.540699959    2.713099957
   60 HFIP  O1       709    1.371399999    2.062500000    1.862800002
   60 HFIP  C2       710    1.452299953    1.982699990    1.949000001
   60 HFIP  C3       711    1.363699913    1.952199936    2.075299978
   60 HFIP  F4       712    1.366400003    2.051399946    2.166800022
   60 HFIP  F5       713    1.404199958    1.834399939    2.139099836
   60 HFIP  F6       714    1.232999921    1.923699975    2.042000055
   60 HFIP  C7       715    1.585699916    2.062799931    1.979900002
   60 HFIP  F8       716    1.655599952    1.992199898    2.073199987
   60 HFIP  F9       717    1.571299911    2.193199873    2.020200014
   60 HFIP  F10      718    1.667599916    2.062999964    1.871399999
   60 HFIP  H11      719    1.346400023    2.147199869    1.909599900
   60 HFIP  H12      720    1.467800021    1.882900000    1.907999992
   61 HFIP  O1       721    1.638399959    0.116299994    0.252399981
   61 HFIP  C2       722    1.528999925    0.092099994    0.336699992
   61 HFIP  C3       723    1.572099924    0.105499998    0.482699990
   61 HFIP  F4       724    1.480099916    0.044199999    0.559199989
   61 HFIP  F5       725    1.580599904    0.231899992    0.536700010
   61 HFIP  F6       726    1.694499969    0.049199998    0.501199961
   61 HFIP  C7       727    1.454800010   -0.035596371    0.297699988
   61 HFIP  F8       728    1.475099921   -0.061696529    0.166500002
   61 HFIP  F9       729    1.325999975   -0.019496441    0.313199997
   61 HFIP  F10      730    1.492999911   -0.156296492    0.350400001
   61 HFIP  H11      731    1.701399922    0.039999999    0.266700000
   61 HFIP  H12      732    1.452999949    0.169000000    0.322799981
   62 HFIP  O1       733    0.646299958    1.678200006    1.319499969
   62 HFIP  C2       734    0.671400011    1.710299969    1.458299994
   62 HFIP  C3       735    0.733099997    1.859499931    1.480599999
   62 HFIP  F4       736    0.754199982    1.889799953    1.611199975
   62 HFIP  F5       737    0.654100001    1.961299896    1.438199997
   62 HFIP  F6       738    0.848299980    1.875099897    1.408199906
   62 HFIP  C7       739    0.749799967    1.595199943    1.522300005
   62 HFIP  F8       740    0.679799974    1.482800007    1.512799978
   62 HFIP  F9       741    0.781199992    1.606099963    1.656999946
   62 HFIP  F10      742    0.862800002    1.565199971    1.460999966
   62 HFIP  H11      743    0.720799983    1.715600014    1.264199972
   62 HFIP  H12      744    0.580100000    1.715999961    1.517599940
   63 HFIP  O1       745    0.426999986    1.805499911    1.256999969
   63 HFIP  C2       746    0.331799984    1.725600004    1.196200013
   63 HFIP  C3       747    0.290199995    1.617200017    1.298799992
   63 HFIP  F4       748    0.286500007    1.668999910    1.423399925
   63 HFIP  F5       749    0.387899995    1.529099941    1.319199920
   63 HFIP  F6       750    0.172700003    1.548299909    1.276899934
   63 HFIP  C7       751    0.387400001    1.664099932    1.068699956
   63 HFIP  F8       752    0.506399989    1.606099963    1.088799953
   63 HFIP  F9       753    0.410999984    1.771499991    0.988699973
   63 HFIP  F10      754    0.299199998    1.575299978    1.010599971
   63 HFIP  H11      755    0.505199969    1.749099970    1.283599973
   63 HFIP  H12      756    0.248399988    1.792699933    1.175400019
   64 HFIP  O1       757    2.709699869    2.333600044    2.649199963
   64 HFIP  C2       758    2.846196413    2.323099852    2.671399832
   64 HFIP  C3       759    2.873396397    2.313799858    2.821996450
   64 HFIP  F4       760    2.991796255    2.254699945    2.856496334
   64 HFIP  F5       761    2.782599926    2.240200043    2.890096426
   64 HFIP  F6       762    2.885596275    2.426499844    2.896196365
   64 HFIP  C7       763    2.927296400    2.433500051    2.610299826
   64 HFIP  F8       764    2.882496357    2.556200027    2.645200014
   64 HFIP  F9       765    2.917396307    2.425699949    2.474200010
   64 HFIP  F10      766    3.060896397    2.430999994    2.635399818
   64 HFIP  H11      767    2.675199986    2.393100023    2.721799850
   64 HFIP  H12      768    2.878196239    2.229599953    2.625599861
   65 HFIP  O1       769    1.232299924    2.254999876    1.968199968
   65 HFIP  C2       770    1.281499982    2.378399849    1.987100005
   65 HFIP  C3       771    1.225000024    2.456500053    2.114699841
   65 HFIP  F4       772    1.313300014    2.527999878    2.183899879
   65 HFIP  F5       773    1.194299936    2.353800058    2.205699921
   65 HFIP  F6       774    1.113999963    2.533099890    2.083400011
   65 HFIP  C7       775    1.262899995    2.451699972    1.857199907
   65 HFIP  F8       776    1.145399928    2.424000025    1.802299976
   65 HFIP  F9       777    1.340299964    2.397199869    1.763199925
   65 HFIP  F10      778    1.295799971    2.585399866    1.856499910
   65 HFIP  H11      779    1.132499933    2.255599976    1.973299980
   65 HFIP  H12      780    1.388999939    2.374899864    2.004799843
   66 HFIP  O1       781    1.537699938    2.449599981    1.002799988
   66 HFIP  C2       782    1.548799992    2.372799873    0.889899969
   66 HFIP  C3       783    1.664999962    2.263700008    0.899499953
   66 HFIP  F4       784    1.786999941    2.324399948    0.902799964
   66 HFIP  F5       785    1.659199953    2.173899889    0.794999957
   66 HFIP  F6       786    1.664399981    2.204499960    1.019299984
   66 HFIP  C7       787    1.563399911    2.459899902    0.764199972
   66 HFIP  F8       788    1.668999910    2.544800043    0.756099999
   66 HFIP  F9       789    1.454100013    2.540299892    0.752399981
   66 HFIP  F10      790    1.562299967    2.384399891    0.648000002
   66 HFIP  H11      791    1.616799951    2.509299994    1.016499996
   66 HFIP  H12      792    1.457999945    2.312999964    0.881099999
   67 HFIP  O1       793    2.072799921    1.816499949    2.440000057
   67 HFIP  C2       794    1.962999940    1.734599948    2.431299925
   67 HFIP  C3       795    2.007099867    1.597999930    2.494999886
   67 HFIP  F4       796    1.898399949    1.516699910    2.506700039
   67 HFIP  F5       797    2.048199892    1.602199912    2.623199940
   67 HFIP  F6       798    2.111000061    1.532199979    2.429699898
   67 HFIP  C7       799    1.916099906    1.736699939    2.288399935
   67 HFIP  F8       800    1.857399940    1.851499915    2.254699945
   67 HFIP  F9       801    1.836199999    1.630399942    2.251600027
   67 HFIP  F10      802    2.025300026    1.728500009    2.201299906
   67 HFIP  H11      803    2.148000002    1.776999950    2.387199879
   67 HFIP  H12      804    1.882799983    1.778999925    2.490200043
   68 HFIP  O1       805    1.616599917    2.483599901    1.499099970
   68 HFIP  C2       806    1.735999942    2.425999880    1.537699938
   68 HFIP  C3       807    1.796399951    2.339400053    1.418499947
   68 HFIP  F4       808    1.700899959    2.266799927    1.354499936
   68 HFIP  F5       809    1.890399933    2.250999928    1.459699988
   68 HFIP  F6       810    1.843899965    2.422600031    1.319700003
   68 HFIP  C7       811    1.719699979    2.342799902    1.670099974
   68 HFIP  F8       812    1.815699935    2.253799915    1.704299927
   68 HFIP  F9       813    1.595399976    2.289700031    1.661399961
   68 HFIP  F10      814    1.702999949    2.417000055    1.782299995
   68 HFIP  H11      815    1.539999962    2.419600010    1.492799997
   68 HFIP  H12      816    1.809799910    2.500699997    1.566999912
   69 HFIP  O1       817    2.570199966    2.625699997    1.585299969
   69 HFIP  C2       818    2.695099831    2.579299927    1.631999969
   69 HFIP  C3       819    2.768399954    2.688299894    1.720600009
   69 HFIP  F4       820    2.711499929    2.683199883    1.841499925
   69 HFIP  F5       821    2.758899927    2.814496279    1.680799961
   69 HFIP  F6       822    2.901996374    2.677299976    1.742799997
   69 HFIP  C7       823    2.788800001    2.529099941    1.529899955
   69 HFIP  F8       824    2.714099884    2.471699953    1.429499984
   69 HFIP  F9       825    2.873996258    2.439699888    1.576999903
   69 HFIP  F10      826    2.858496428    2.629199982    1.469900012
   69 HFIP  H11      827    2.590100050    2.702899933    1.524899960
   69 HFIP  H12      828    2.674099922    2.496099949    1.699099898
   70 HFIP  O1       829    0.968899965    2.252199888    1.951900005
   70 HFIP  C2       830    0.901999950    2.189599991    2.053999901
   70 HFIP  C3       831    0.839800000    2.059299946    2.009000063
   70 HFIP  F4       832    0.750799954    2.003099918    2.090499878
   70 HFIP  F5       833    0.933399975    1.956900001    1.995999932
   70 HFIP  F6       834    0.767499983    2.065099955    1.889999986
   70 HFIP  C7       835    0.801199973    2.284899950    2.116699934
   70 HFIP  F8       836    0.860099971    2.410199881    2.129400015
   70 HFIP  F9       837    0.754299998    2.248800039    2.236399889
   70 HFIP  F10      838    0.689499974    2.306999922    2.039799929
   70 HFIP  H11      839    0.904100001    2.262799978    1.876399994
   70 HFIP  H12      840    0.971699953    2.163100004    2.133499861
   71 HFIP  O1       841    1.340899944    2.778100014    0.890999973
   71 HFIP  C2       842    1.205999970    2.780400038    0.924600005
   71 HFIP  C3       843    1.185599923    2.678099871    1.038699985
   71 HFIP  F4       844    1.083299994    2.713999987    1.125199914
   71 HFIP  F5       845    1.301699996    2.659499884    1.104599953
   71 HFIP  F6       846    1.147699952    2.556699991    0.988599956
   71 HFIP  C7       847    1.114400029    2.763799906    0.802899957
   71 HFIP  F8       848    1.001500010    2.680999994    0.822200000
   71 HFIP  F9       849    1.179799914    2.711299896    0.696399987
   71 HFIP  F10      850    1.066699982    2.876396418    0.746100008
   71 HFIP  H11      851    1.350499988    2.703099966    0.825599968
   71 HFIP  H12      852    1.184000015    2.876596451    0.970899999
   72 HFIP  O1       853    1.592799902    0.042700000    1.013100028
   72 HFIP  C2       854    1.585399985    0.161599994    1.075699925
   72 HFIP  C3       855    1.496199965    0.148699999    1.202600002
   72 HFIP  F4       856    1.510499954    0.236399993    1.305799961
   72 HFIP  F5       857    1.518700004    0.031900000    1.265399933
   72 HFIP  F6       858    1.370299935    0.155699998    1.165499926
   72 HFIP  C7       859    1.546399951    0.274399996    0.978799999
   72 HFIP  F8       860    1.436100006    0.242499992    0.907099962
   72 HFIP  F9       861    1.637699962    0.288599998    0.878699958
   72 HFIP  F10      862    1.520900011    0.391700000    1.028800011
   72 HFIP  H11      863    1.506299973    0.034399997    0.963699996
   72 HFIP  H12      864    1.689700007    0.178899989    1.102399945
   73 HFIP  O1       865    2.250399828    0.662499964    2.423699856
   73 HFIP  C2       866    2.368199825    0.591899991    2.439199924
   73 HFIP  C3       867    2.342599869    0.441100001    2.447700024
   73 HFIP  F4       868    2.320400000    0.374199986    2.333799839
   73 HFIP  F5       869    2.231899977    0.418599993    2.525799990
   73 HFIP  F6       870    2.438400030    0.375599980    2.512500048
   73 HFIP  C7       871    2.443899870    0.636500001    2.574899912
   73 HFIP  F8       872    2.575199842    0.605599999    2.586299896
   73 HFIP  F9       873    2.373600006    0.596700013    2.686899900
   73 HFIP  F10      874    2.443300009    0.772899985    2.580499887
   73 HFIP  H11      875    2.233299971    0.720099986    2.503599882
   73 HFIP  H12      876    2.428200006    0.602299988    2.348799944
   74 HFIP  O1       877    0.382799983    0.574099958    2.151399851
   74 HFIP  C2       878    0.504099965    0.594599962    2.094199896
   74 HFIP  C3       879    0.479499996    0.680599988    1.969899893
   74 HFIP  F4       880    0.591600001    0.708499968    1.894899964
   74 HFIP  F5       881    0.446199983    0.808299959    2.008800030
   74 HFIP  F6       882    0.379999995    0.624700010    1.894899964
   74 HFIP  C7       883    0.580199957    0.468499988    2.060799837
   74 HFIP  F8       884    0.550700009    0.376899987    2.158499956
   74 HFIP  F9       885    0.715099990    0.481500000    2.060099840
   74 HFIP  F10      886    0.545799971    0.401799977    1.943499923
   74 HFIP  H11      887    0.322299987    0.515500009    2.097599983
   74 HFIP  H12      888    0.560599983    0.648699999    2.169999838
   75 HFIP  O1       889    2.380699873    0.798900008    1.337399960
   75 HFIP  C2       890    2.396199942    0.795499980    1.478500009
   75 HFIP  C3       891    2.529700041    0.852099955    1.528699994
   75 HFIP  F4       892    2.629299879    0.756799996    1.511699915
   75 HFIP  F5       893    2.521699905    0.890899956    1.658800006
   75 HFIP  F6       894    2.571899891    0.958000004    1.460799932
   75 HFIP  C7       895    2.355299950    0.662400007    1.545399904
   75 HFIP  F8       896    2.225999832    0.637099981    1.530799985
   75 HFIP  F9       897    2.376199961    0.656199992    1.678900003
   75 HFIP  F10      898    2.411399841    0.557200015    1.479099989
   75 HFIP  H11      899    2.450199842    0.732599974    1.309599996
   75 HFIP  H12      900    2.320799828    0.867399991    1.510599971
   76 HFIP  O1       901    0.597199976    1.218400002    0.816799998
   76 HFIP  C2       902    0.600499988    1.260399938    0.949399948
   76 HFIP  C3       903    0.754499972    1.281199932    0.987899959
   76 HFIP  F4       904    0.812399983    1.158100009    1.008199930
   76 HFIP  F5       905    0.766299963    1.353399992    1.100199938
   76 HFIP  F6       906    0.819299996    1.342199922    0.883099973
   76 HFIP  C7       907    0.520299971    1.167500019    1.046999931
   76 HFIP  F8       908    0.525500000    1.036499977    1.002799988
   76 HFIP  F9       909    0.392899990    1.204299927    1.039399981
   76 HFIP  F10      910    0.555400014    1.176199913    1.178300023
   76 HFIP  H11      911    0.633499980    1.125399947    0.820899963
   76 HFIP  H12      912    0.567900002    1.363999963    0.958499968
   77 HFIP  O1       913    1.709999919    2.629400015    1.056100011
   77 HFIP  C2       914    1.844399929    2.648599863    1.093400002
   77 HFIP  C3       915    1.863299966    2.735800028    1.222100019
   77 HFIP  F4       916    1.752200007    2.724400043    1.298599958
   77 HFIP  F5       917    1.883799911    2.865196228    1.183899999
   77 HFIP  F6       918    1.961899996    2.694499969    1.298099995
   77 HFIP  C7       919    1.935999990    2.689100027    0.974199951
   77 HFIP  F8       920    2.063099861    2.715199947    1.011299968
   77 HFIP  F9       921    1.874099970    2.794999838    0.913899958
   77 HFIP  F10      922    1.951999903    2.598999977    0.873999953
   77 HFIP  H11      923    1.673699975    2.720299959    1.035599947
   77 HFIP  H12      924    1.888199925    2.551800013    1.117799997
   78 HFIP  O1       925    1.497299910    0.844500005    0.401699990
   78 HFIP  C2       926    1.497299910    0.964800000    0.326999992
   78 HFIP  C3       927    1.355999947    1.024500012    0.332399994
   78 HFIP  F4       928    1.262599945    0.950199962    0.268099993
   78 HFIP  F5       929    1.353600025    1.141600013    0.267899990
   78 HFIP  F6       930    1.321299911    1.058300018    0.457800001
   78 HFIP  C7       931    1.555499911    0.932099998    0.186299995
   78 HFIP  F8       932    1.682699919    0.889400005    0.195299998
   78 HFIP  F9       933    1.551599979    1.047600031    0.114799999
   78 HFIP  F10      934    1.497999907    0.832799971    0.118499994
   78 HFIP  H11      935    1.446999907    0.772599995    0.353699982
   78 HFIP  H12      936    1.565599918    1.037500024    0.370999992
   79 HFIP  O1       937    0.180600002    0.132900000    0.810499966
   79 HFIP  C2       938    0.160499990    0.140000001    0.668899953
   79 HFIP  C3       939    0.019199999    0.107899994    0.619499981
   79 HFIP  F4       940   -0.068496466    0.181699991    0.694700003
   79 HFIP  F5       941   -0.014896393   -0.022696495    0.637899995
   79 HFIP  F6       942   -0.004096508    0.149999991    0.495599985
   79 HFIP  C7       943    0.272199988    0.065499999    0.598899961
   79 HFIP  F8       944    0.396200001    0.110999994    0.638799965
   79 HFIP  F9       945    0.269699991    0.081400000    0.461099982
   79 HFIP  F10      946    0.263899982   -0.066896439    0.629700005
   79 HFIP  H11      947    0.159899995    0.040899999    0.843800008
   79 HFIP  H12      948    0.172199994    0.245399997    0.643799961
   80 HFIP  O1       949    0.757200003    1.016199946    0.761900008
   80 HFIP  C2       950    0.726999998    0.886899948    0.725600004
   80 HFIP  C3       951    0.851300001    0.804399967    0.691199958
   80 HFIP  F4       952    0.950999975    0.880499959    0.640500009
   80 HFIP  F5       953    0.844699979    0.702299953    0.597099960
   80 HFIP  F6       954    0.906499982    0.739699960    0.797299981
   80 HFIP  C7       955    0.611799955    0.879399955    0.629199982
   80 HFIP  F8       956    0.578899980    0.750400007    0.624399960
   80 HFIP  F9       957    0.644199967    0.904699981    0.500000000
   80 HFIP  F10      958    0.502699971    0.953799963    0.664999962
   80 HFIP  H11      959    0.801099956    1.064399958    0.685999990
   80 HFIP  H12      960    0.700299978    0.842599988    0.821500003
   81 HFIP  O1       961    0.177900001    2.735499859    0.942200005
   81 HFIP  C2       962    0.108399995    2.648399830    1.015299916
   81 HFIP  C3       963   -0.024796486    2.705499887    1.072700024
   81 HFIP  F4       964   -0.091396332    2.605999947    1.137499928
   81 HFIP  F5       965   -0.088896513    2.743799925    0.959899962
   81 HFIP  F6       966    0.000500000    2.814896345    1.141999960
   81 HFIP  C7       967    0.203499988    2.586999893    1.113299966
   81 HFIP  F8       968    0.256399989    2.689499855    1.179799914
   81 HFIP  F9       969    0.312000006    2.535099983    1.058099985
   81 HFIP  F10      970    0.151999995    2.501099825    1.208699942
   81 HFIP  H11      971    0.273200005    2.707900047    0.954199970
   81 HFIP  H12      972    0.080699995    2.565999985    0.949499965
   82 HFIP  O1       973    0.651899993    2.014499903    1.055199981
   82 HFIP  C2       974    0.694999993    2.128399849    0.980099976
   82 HFIP  C3       975    0.727599978    2.246000051    1.073400021
   82 HFIP  F4       976    0.795199990    2.199699879    1.180499911
   82 HFIP  F5       977    0.610300004    2.299399853    1.116299987
   82 HFIP  F6       978    0.809199989    2.341099977    1.024199963
   82 HFIP  C7       979    0.591499984    2.155200005    0.870299995
   82 HFIP  F8       980    0.584699988    2.283799887    0.835399985
   82 HFIP  F9       981    0.469199985    2.121500015    0.906099975
   82 HFIP  F10      982    0.619499981    2.081599951    0.761900008
   82 HFIP  H11      983    0.565100014    2.042799950    1.096199989
   82 HFIP  H12      984    0.786899984    2.104199886    0.926699996
   83 HFIP  O1       985    0.438199997    2.065099955    1.188799977
   83 HFIP  C2       986    0.324699998    2.148299932    1.223399997
   83 HFIP  C3       987    0.272399992    2.103399992    1.363099933
   83 HFIP  F4       988    0.185099989    2.195400000    1.414999962
   83 HFIP  F5       989    0.374599993    2.082099915    1.455599904
   83 HFIP  F6       990    0.199800000    1.986999989    1.357999921
   83 HFIP  C7       991    0.215899989    2.155400038    1.114199996
   83 HFIP  F8       992    0.199599996    2.036200047    1.053699970
   83 HFIP  F9       993    0.250000000    2.241199970    1.017300010
   83 HFIP  F10      994    0.092699997    2.185600042    1.166800022
   83 HFIP  H11      995    0.424899995    1.976899981    1.233999968
   83 HFIP  H12      996    0.356599987    2.252099991    1.232399940
   84 HFIP  O1       997    1.475999951    1.235099912    0.932599962
   84 HFIP  C2       998    1.559299946    1.284199953    0.833899975
   84 HFIP  C3       999    1.497900009    1.266299963    0.698700011
   84 HFIP  F4      1000    1.372900009    1.323300004    0.687799990
   84 HFIP  F5      1001    1.476300001    1.134199977    0.671499968
   84 HFIP  F6      1002    1.569800019    1.299999952    0.587300003
   84 HFIP  C7      1003    1.707199931    1.230599999    0.849999964
   84 HFIP  F8      1004    1.713899970    1.101899981    0.801099956
   84 HFIP  F9      1005    1.746799946    1.229499936    0.979799986
   84 HFIP  F10     1006    1.801599979    1.314000010    0.791999996
   84 HFIP  H11     1007    1.478199959    1.135299921    0.938499987
   84 HFIP  H12     1008    1.559199929    1.392300010    0.847599983
   85 HFIP  O1      1009    1.750000000    0.262600005    0.081400000
   85 HFIP  C2      1010    1.773799896    0.393099993    0.133699998
   85 HFIP  C3      1011    1.854699969    0.393999994    0.266200006
   85 HFIP  F4      1012    1.910799980    0.514400005    0.292999983
   85 HFIP  F5      1013    1.959499955    0.307199985    0.255499989
   85 HFIP  F6      1014    1.788299918    0.347099990    0.371999979
   85 HFIP  C7      1015    1.640799999    0.474199980    0.155499995
   85 HFIP  F8      1016    1.656499982    0.587000012    0.233999997
   85 HFIP  F9      1017    1.548900008    0.392899990    0.221299991
   85 HFIP  F10     1018    1.586399913    0.513099968    0.029899999
   85 HFIP  H11     1019    1.703400016    0.211099997    0.153399989
   85 HFIP  H12     1020    1.841300011    0.437099993    0.060300000
   86 HFIP  O1      1021    2.514199972    0.905499995    0.268000007
   86 HFIP  C2      1022    2.478499889    1.034899950    0.223499998
   86 HFIP  C3      1023    2.460199833    1.036700010    0.071800001
   86 HFIP  F4      1024    2.341699839    0.967799962    0.046599999
   86 HFIP  F5      1025    2.548499823    0.948899984    0.015199999
   86 HFIP  F6      1026    2.453799963    1.154500008    0.008599999
   86 HFIP  C7      1027    2.572999954    1.147199988    0.285400003
   86 HFIP  F8      1028    2.703199863    1.111899972    0.258399993
   86 HFIP  F9      1029    2.559499979    1.153299928    0.421000004
   86 HFIP  F10     1030    2.553400040    1.275099993    0.247499987
   86 HFIP  H11     1031    2.579200029    0.863699973    0.204499990
   86 HFIP  H12     1032    2.381999969    1.057500005    0.268900007
   87 HFIP  O1      1033    1.901299953    1.424999952    0.155000001
   87 HFIP  C2      1034    1.912499905    1.291100025    0.144799992
   87 HFIP  C3      1035    1.919299960    1.213299990    0.275299996
   87 HFIP  F4      1036    1.997599959    1.281499982    0.363299996
   87 HFIP  F5      1037    1.952899933    1.084699988    0.270700008
   87 HFIP  F6      1038    1.796399951    1.211199999    0.326199979
   87 HFIP  C7      1039    2.025099993    1.251099944    0.035399999
   87 HFIP  F8      1040    2.153499842    1.257699966    0.087600000
   87 HFIP  F9      1041    2.009799957    1.334200025   -0.070096493
   87 HFIP  F10     1042    2.014299870    1.127699971   -0.020996332
   87 HFIP  H11     1043    1.976899981    1.460500002    0.100099996
   87 HFIP  H12     1044    1.819099903    1.263800025    0.095599994
   88 HFIP  O1      1045    2.456599951    0.083099999    1.677599907
   88 HFIP  C2      1046    2.419299841    0.198200002    1.749699950
   88 HFIP  C3      1047    2.489599943    0.207899988    1.894699931
   88 HFIP  F4      1048    2.457900047    0.096599996    1.970399976
   88 HFIP  F5      1049    2.465199947    0.322899997    1.957999945
   88 HFIP  F6      1050    2.625999928    0.202299997    1.880499959
   88 HFIP  C7      1051    2.267899990    0.228599995    1.748600006
   88 HFIP  F8      1052    2.236000061    0.354499996    1.784099936
   88 HFIP  F9      1053    2.208799839    0.149399996    1.841499925
   88 HFIP  F10     1054    2.215100050    0.206199989    1.622900009
   88 HFIP  H11     1055    2.406199932    0.007300000    1.719099998
   88 HFIP  H12     1056    2.468600035    0.279199988    1.695899963
   89 HFIP  O1      1057    1.237999916    1.523599982    1.900299907
   89 HFIP  C2      1058    1.336499929    1.550599933    1.808299899
   89 HFIP  C3      1059    1.302500010    1.470899940    1.679700017
   89 HFIP  F4      1060    1.406700015    1.456099987    1.593099952
   89 HFIP  F5      1061    1.203899980    1.541499972    1.615099907
   89 HFIP  F6      1062    1.254499912    1.350000024    1.713099957
   89 HFIP  C7      1063    1.485299945    1.524399996    1.861699939
   89 HFIP  F8      1064    1.581200004    1.596099973    1.797799945
   89 HFIP  F9      1065    1.509999990    1.390799999    1.866199970
   89 HFIP  F10     1066    1.490799904    1.571799994    1.989899993
   89 HFIP  H11     1067    1.237399936    1.424499989    1.913599968
   89 HFIP  H12     1068    1.335399985    1.657799959    1.788599968
   90 HFIP  O1      1069    1.322899938    2.094699860    1.590299964
   90 HFIP  C2      1070    1.243199944    1.996099949    1.548900008
   90 HFIP  C3      1071    1.144799948    1.945299983    1.659999967
   90 HFIP  F4      1072    1.049600005    1.861299992    1.610499978
   90 HFIP  F5      1073    1.079100013    2.050499916    1.717000008
   90 HFIP  F6      1074    1.205500007    1.881199956    1.759999990
   90 HFIP  C7      1075    1.325599909    1.880599976    1.472599983
   90 HFIP  F8      1076    1.389599919    1.806199908    1.566499949
   90 HFIP  F9      1077    1.423999906    1.945299983    1.406799912
   90 HFIP  F10     1078    1.251899958    1.799899936    1.396799922
   90 HFIP  H11     1079    1.335500002    2.085700035    1.689099908
   90 HFIP  H12     1080    1.177299976    2.034899950    1.471199989
   91 HFIP  O1      1081    2.717200041    0.761900008    0.163900003
   91 HFIP  C2      1082    2.735899925    0.661300004    0.070500001
   91 HFIP  C3      1083    2.639499903    0.547399998    0.107000001
   91 HFIP  F4      1084    2.652699947    0.440200001    0.021599999
   91 HFIP  F5      1085    2.505899906    0.586499989    0.111699998
   91 HFIP  F6      1086    2.667799950    0.504299998    0.233399987
   91 HFIP  C7      1087    2.884596348    0.615799963    0.054600000
   91 HFIP  F8      1088    2.963396311    0.720399976    0.090599999
   91 HFIP  F9      1089    2.909796238    0.589800000   -0.074196339
   91 HFIP  F10     1090    2.916696310    0.508300006    0.123099998
   91 HFIP  H11     1091    2.770699978    0.739299953    0.245299995
   91 HFIP  H12     1092    2.704399824    0.703499973   -0.024896383
   92 HFIP  O1      1093    2.700000048    1.781599998    1.289099932
   92 HFIP  C2      1094    2.605599880    1.816699982    1.203799963
   92 HFIP  C3      1095    2.501499891    1.899599910    1.277099967
   92 HFIP  F4      1096    2.557099819    1.978699923    1.370299935
   92 HFIP  F5      1097    2.408900023    1.825199962    1.339200020
   92 HFIP  F6      1098    2.429899931    1.979299903    1.187999964
   92 HFIP  C7      1099    2.538800001    1.689499974    1.126199961
   92 HFIP  F8      1100    2.416100025    1.721300006    1.069599986
   92 HFIP  F9      1101    2.526599884    1.587199926    1.217499971
   92 HFIP  F10     1102    2.623299837    1.648299932    1.028100014
   92 HFIP  H11     1103    2.659600019    1.740700006    1.370899916
   92 HFIP  H12     1104    2.643399954    1.870399952    1.116799951
   93 HFIP  O1      1105    2.364199877    2.655699968    1.733699918
   93 HFIP  C2      1106    2.252099991    2.579499960    1.753499985
   93 HFIP  C3      1107    2.292299986    2.430799961    1.784199953
   93 HFIP  F4      1108    2.291300058    2.408099890    1.921299934
   93 HFIP  F5      1109    2.418900013    2.405499935    1.735199928
   93 HFIP  F6      1110    2.219199896    2.333199978    1.731599927
   93 HFIP  C7      1111    2.149699926    2.599699974    1.637499928
   93 HFIP  F8      1112    2.034199953    2.530299902    1.651699901
   93 HFIP  F9      1113    2.212499857    2.561300039    1.523699999
   93 HFIP  F10     1114    2.120899916    2.733000040    1.627900004
   93 HFIP  H11     1115    2.431599855    2.612999916    1.673399925
   93 HFIP  H12     1116    2.201499939    2.618399858    1.841799974
   94 HFIP  O1      1117    2.537999868    0.015299999    1.426399946
   94 HFIP  C2      1118    2.506599903    0.059999999    1.300300002
   94 HFIP  C3      1119    2.544100046    0.206799999    1.272300005
   94 HFIP  F4      1120    2.509799957    0.265899986    1.156399965
   94 HFIP  F5      1121    2.677599907    0.223799989    1.285799980
   94 HFIP  F6      1122    2.493000031    0.284599990    1.369799972
   94 HFIP  C7      1123    2.364399910    0.021100000    1.260699987
   94 HFIP  F8      1124    2.351099968    0.004500000    1.124699950
   94 HFIP  F9      1125    2.269199848    0.107999995    1.297899961
   94 HFIP  F10     1126    2.323299885   -0.099596500    1.300400019
   94 HFIP  H11     1127    2.522300005    0.083799995    1.497599959
   94 HFIP  H12     1128    2.570199966    0.005800000    1.230399966
   95 HFIP  O1      1129    1.390100002    2.352599859    1.489899993
   95 HFIP  C2      1130    1.321200013    2.397399902    1.375499964
   95 HFIP  C3      1131    1.174499989    2.434499979    1.407400012
   95 HFIP  F4      1132    1.171800017    2.548799992    1.482699990
   95 HFIP  F5      1133    1.117499948    2.336099863    1.482999921
   95 HFIP  F6      1134    1.091699958    2.451099873    1.301599979
   95 HFIP  C7      1135    1.335500002    2.297299862    1.265100002
   95 HFIP  F8      1136    1.326099992    2.344099998    1.136500001
   95 HFIP  F9      1137    1.250999928    2.191299915    1.272699952
   95 HFIP  F10     1138    1.460699916    2.257400036    1.259099960
   95 HFIP  H11     1139    1.352399945    2.264999866    1.519899964
   95 HFIP  H12     1140    1.367799997    2.489199877    1.339499950
   96 HFIP  O1      1141    0.731099963    1.930799961    0.099199995
   96 HFIP  C2      1142    0.686699986    1.892499924    0.226300001
   96 HFIP  C3      1143    0.758300006    1.939799905    0.354099989
   96 HFIP  F4      1144    0.737199962    1.861499906    0.466899991
   96 HFIP  F5      1145    0.736400008    2.069700003    0.392399997
   96 HFIP  F6      1146    0.891900003    1.936800003    0.339299977
   96 HFIP  C7      1147    0.686599970    1.734799981    0.221199989
   96 HFIP  F8      1148    0.814099967    1.682799935    0.243599996
   96 HFIP  F9      1149    0.666700006    1.694399953    0.090899996
   96 HFIP  F10     1150    0.601599991    1.674299955    0.304199994
   96 HFIP  H11     1151    0.821099997    1.887599945    0.095299996
   96 HFIP  H12     1152    0.582199991    1.923499942    0.226999998
   97 HFIP  O1      1153    0.650399983    2.811199903    0.128700003
   97 HFIP  C2      1154    0.631599963    2.683699846    0.180600002
   97 HFIP  C3      1155    0.513199985    2.603199959    0.116799995
   97 HFIP  F4      1156    0.521099985    2.465699911    0.132699996
   97 HFIP  F5      1157    0.523999989    2.624599934   -0.019496441
   97 HFIP  F6      1158    0.388500005    2.644700050    0.155800000
   97 HFIP  C7      1159    0.622699976    2.677799940    0.341099977
   97 HFIP  F8      1160    0.578099966    2.556399822    0.384000003
   97 HFIP  F9      1161    0.538599968    2.772599936    0.388399988
   97 HFIP  F10     1162    0.745099962    2.696799994    0.400399983
   97 HFIP  H11     1163    0.583000004    2.870896339    0.172199994
   97 HFIP  H12     1164    0.718800008    2.619599819    0.167099997
   98 HFIP  O1      1165    0.402599990    1.058099985    1.790300012
   98 HFIP  C2      1166    0.485599995    1.084299922    1.692999959
   98 HFIP  C3      1167    0.629499972    1.114499927    1.747900009
   98 HFIP  F4      1168    0.655900002    1.012599945    1.833199978
   98 HFIP  F5      1169    0.647399962    1.230799913    1.819599986
   98 HFIP  F6      1170    0.726399958    1.111500025    1.651699901
   98 HFIP  C7      1171    0.437399983    1.215699911    1.615999937
   98 HFIP  F8      1172    0.403899997    1.307899952    1.708499908
   98 HFIP  F9      1173    0.326199979    1.198199987    1.541700006
   98 HFIP  F10     1174    0.535200000    1.274099946    1.538499951
   98 HFIP  H11     1175    0.419000000    1.123999953    1.863699913
   98 HFIP  H12     1176    0.503399968    0.997599959    1.629499912
   99 HFIP  O1      1177    0.776199996    0.134700000    2.763000011
   99 HFIP  C2      1178    0.884000003    0.068300001    2.710099936
   99 HFIP  C3      1179    0.833899975   -0.034696341    2.606799841
   99 HFIP  F4      1180    0.920499980   -0.074096441    2.511100054
   99 HFIP  F5      1181    0.714500010    0.000300000    2.550899982
   99 HFIP  F6      1182    0.806199968   -0.154796362    2.664399862
   99 HFIP  C7      1183    0.982199967    0.010700000    2.817196369
   99 HFIP  F8      1184    0.917299986   -0.069496393    2.912396431
   99 HFIP  F9      1185    1.046700001    0.108999997    2.889296293
   99 HFIP  F10     1186    1.076300025   -0.074496508    2.766700029
   99 HFIP  H11     1187    0.730599999    0.071800001    2.825896263
   99 HFIP  H12     1188    0.936999977    0.140499994    2.648000002
  100 HFIP  O1      1189    2.714699984    2.690299988    2.457700014
  100 HFIP  C2      1190    2.598599911    2.629499912    2.419999838
  100 HFIP  C3      1191    2.620800018    2.582900047    2.271800041
  100 HFIP  F4      1192    2.528800011    2.492699862    2.226500034
  100 HFIP  F5      1193    2.741799831    2.526499987    2.256500006
  100 HFIP  F6      1194    2.624899864    2.681799889    2.175699949
  100 HFIP  C7      1195    2.467000008    2.708600044    2.435799837
  100 HFIP  F8      1196    2.491699934    2.839496374    2.399199963
  100 HFIP  F9      1197    2.439800024    2.712599993    2.572199821
  100 HFIP  F10     1198    2.368299961    2.665499926    2.355399847
  100 HFIP  H11     1199    2.758800030    2.723199844    2.374199867
  100 HFIP  H12     1200    2.575299978    2.545199871    2.484999895
  101 HFIP  O1      1201    0.744899988    2.037099838    2.661999941
  101 HFIP  C2      1202    0.642499983    2.060799837    2.571799994
  101 HFIP  C3      1203    0.512300014    2.086499929    2.649099827
  101 HFIP  F4      1204    0.480799973    1.989599943    2.742699862
  101 HFIP  F5      1205    0.398799986    2.090600014    2.575599909
  101 HFIP  F6      1206    0.513799965    2.202699900    2.723099947
  101 HFIP  C7      1207    0.641999960    1.944599986    2.468499899
  101 HFIP  F8      1208    0.562999964    1.963999987    2.359699965
  101 HFIP  F9      1209    0.619599998    1.822299957    2.531499863
  101 HFIP  F10     1210    0.768799961    1.941799998    2.415899992
  101 HFIP  H11     1211    0.709399998    1.999399900    2.747499943
  101 HFIP  H12     1212    0.662099957    2.152099848    2.515699863
  102 HFIP  O1      1213    0.978599966    1.871199965    0.055099998
  102 HFIP  C2      1214    1.077399969    1.775999904    0.068200000
  102 HFIP  C3      1215    1.218999982    1.849599957    0.064300001
  102 HFIP  F4      1216    1.275599957    1.851399899   -0.063696384
  102 HFIP  F5      1217    1.304199934    1.780499935    0.138099998
  102 HFIP  F6      1218    1.208699942    1.982699990    0.096699998
  102 HFIP  C7      1219    1.069700003    1.654999971   -0.026496410
  102 HFIP  F8      1220    1.180699944    1.579199910   -0.021396399
  102 HFIP  F9      1221    1.058099985    1.686100006   -0.158696413
  102 HFIP  F10     1222    0.968699992    1.569899917    0.010799999
  102 HFIP  H11     1223    1.003000021    1.930099964   -0.021896362
  102 HFIP  H12     1224    1.076900005    1.724099994    0.163999990
  103 HFIP  O1      1225    2.209100008    0.351799995    0.682599962
  103 HFIP  C2      1226    2.256000042    0.224899992    0.657499969
  103 HFIP  C3      1227    2.406199932    0.217099994    0.678599954
  103 HFIP  F4      1228    2.485100031    0.289599985    0.598599970
  103 HFIP  F5      1229    2.449199915    0.086499996    0.671499968
  103 HFIP  F6      1230    2.431900024    0.251499981    0.806800008
  103 HFIP  C7      1231    2.213999987    0.192299992    0.511999965
  103 HFIP  F8      1232    2.264799833    0.084500000    0.454499990
  103 HFIP  F9      1233    2.237900019    0.297099978    0.426799983
  103 HFIP  F10     1234    2.082499981    0.166799992    0.505499959
  103 HFIP  H11     1235    2.257699966    0.412499994    0.619599998
  103 HFIP  H12     1236    2.205299854    0.150700003    0.719099998
  104 HFIP  O1      1237    2.608700037    0.731700003    1.181399941
  104 HFIP  C2      1238    2.626899958    0.622099996    1.092700005
  104 HFIP  C3      1239    2.776799917    0.576600015    1.093500018
  104 HFIP  F4      1240    2.825296402    0.572600007    1.221400023
  104 HFIP  F5      1241    2.864796400    0.659599960    1.026499987
  104 HFIP  F6      1242    2.803499937    0.455300003    1.039799929
  104 HFIP  C7      1243    2.588500023    0.648400009    0.942900002
  104 HFIP  F8      1244    2.658099890    0.742899954    0.870799959
  104 HFIP  F9      1245    2.458600044    0.679300010    0.937899947
  104 HFIP  F10     1246    2.606099844    0.545199990    0.857299984
  104 HFIP  H11     1247    2.655499935    0.813399971    1.147799969
  104 HFIP  H12     1248    2.564299822    0.539399981    1.126299977
  105 HFIP  O1      1249    1.823099971    1.078599930    2.083699942
  105 HFIP  C2      1250    1.749300003    1.133599997    2.186899900
  105 HFIP  C3      1251    1.770200014    1.284399986    2.199100018
  105 HFIP  F4      1252    1.768599987    1.332799911    2.070199966
  105 HFIP  F5      1253    1.892899990    1.317699909    2.252599955
  105 HFIP  F6      1254    1.681100011    1.351199985    2.272599936
  105 HFIP  C7      1255    1.785399914    1.052699924    2.318899870
  105 HFIP  F8      1256    1.722700000    1.111400008    2.421099901
  105 HFIP  F9      1257    1.919899940    1.054000020    2.336499929
  105 HFIP  F10     1258    1.755499959    0.919399977    2.300699949
  105 HFIP  H11     1259    1.916099906    1.114899993    2.077899933
  105 HFIP  H12     1260    1.643700004    1.123700023    2.161700010
  106 HFIP  O1      1261    0.623699963    1.288100004    0.582300007
  106 HFIP  C2      1262    0.546199977    1.383700013    0.522300005
  106 HFIP  C3      1263    0.527499974    1.510999918    0.604399979
  106 HFIP  F4      1264    0.471699983    1.609599948    0.532799959
  106 HFIP  F5      1265    0.647499979    1.564700007    0.640799999
  106 HFIP  F6      1266    0.467299998    1.502099991    0.726999998
  106 HFIP  C7      1267    0.402300000    1.331799984    0.481199980
  106 HFIP  F8      1268    0.395199984    1.217100024    0.409399986
  106 HFIP  F9      1269    0.314899981    1.410300016    0.415399998
  106 HFIP  F10     1270    0.342500001    1.293299913    0.599399984
  106 HFIP  H11     1271    0.591099977    1.279500008    0.676400006
  106 HFIP  H12     1272    0.583899975    1.419699907    0.426599979
  107 HFIP  O1      1273    0.842399955    1.161800027    0.525699973
  107 HFIP  C2      1274    0.949099958    1.237499952    0.465899974
  107 HFIP  C3      1275    1.018899918    1.321499944    0.572200000
  107 HFIP  F4      1276    0.961399972    1.440299988    0.589399993
  107 HFIP  F5      1277    1.148599982    1.341499925    0.528999984
  107 HFIP  F6      1278    1.019199967    1.266199946    0.695400000
  107 HFIP  C7      1279    0.907399952    1.304499984    0.340499997
  107 HFIP  F8      1280    1.010800004    1.375899911    0.281899989
  107 HFIP  F9      1281    0.801299989    1.391499996    0.347700000
  107 HFIP  F10     1282    0.881299973    1.218899965    0.234799996
  107 HFIP  H11     1283    0.759700000    1.217499971    0.518299997
  107 HFIP  H12     1284    1.016299963    1.159299970    0.430599988
  108 HFIP  O1      1285    2.270200014    1.204100013    0.813999951
  108 HFIP  C2      1286    2.233099937    1.337299943    0.781899989
  108 HFIP  C3      1287    2.338799953    1.402400017    0.687599957
  108 HFIP  F4      1288    2.337899923    1.334200025    0.565699995
  108 HFIP  F5      1289    2.465100050    1.402799964    0.740000010
  108 HFIP  F6      1290    2.310099840    1.528499961    0.639899969
  108 HFIP  C7      1291    2.195199966    1.418699980    0.911399961
  108 HFIP  F8      1292    2.286499977    1.405200005    1.015100002
  108 HFIP  F9      1293    2.079699993    1.372499943    0.965299964
  108 HFIP  F10     1294    2.189199924    1.552500010    0.891999960
  108 HFIP  H11     1295    2.339499950    1.163900018    0.754199982
  108 HFIP  H12     1296    2.144700050    1.323300004    0.719699979
  109 HFIP  O1      1297    1.709599972    0.244499996    1.822600007
  109 HFIP  C2      1298    1.805299997    0.265399992    1.729200006
  109 HFIP  C3      1299    1.773399949    0.377499998    1.641299963
  109 HFIP  F4      1300    1.881999969    0.415099978    1.570099950
  109 HFIP  F5      1301    1.725099921    0.493999988    1.701399922
  109 HFIP  F6      1302    1.671299934    0.360100001    1.550799966
  109 HFIP  C7      1303    1.842199922    0.131200001    1.661399961
  109 HFIP  F8      1304    1.869699955    0.031500001    1.747200012
  109 HFIP  F9      1305    1.952899933    0.143899992    1.578400016
  109 HFIP  F10     1306    1.737699986    0.083399996    1.592000008
  109 HFIP  H11     1307    1.632799983    0.226599991    1.761199951
  109 HFIP  H12     1308    1.896999955    0.291599989    1.781899929
  110 HFIP  O1      1309    2.082999945    1.178399920    2.041199923
  110 HFIP  C2      1310    2.143499851    1.254699945    1.950699925
  110 HFIP  C3      1311    2.269899845    1.191799998    1.879699945
  110 HFIP  F4      1312    2.226699829    1.067499995    1.837700009
  110 HFIP  F5      1313    2.359799862    1.148499966    1.973399997
  110 HFIP  F6      1314    2.310699940    1.263700008    1.778800011
  110 HFIP  C7      1315    2.171999931    1.403800011    2.014899969
  110 HFIP  F8      1316    2.250299931    1.482100010    1.937599897
  110 HFIP  F9      1317    2.241400003    1.400799990    2.131000042
  110 HFIP  F10     1318    2.057899952    1.467000008    2.038100004
  110 HFIP  H11     1319    2.154399872    1.145399928    2.102999926
  110 HFIP  H12     1320    2.078199863    1.270900011    1.864899993
  111 HFIP  O1      1321    0.134900004    2.097499847    0.317799985
  111 HFIP  C2      1322    0.167199999    2.125799894    0.451199979
  111 HFIP  C3      1323    0.128799990    2.266399860    0.497099996
  111 HFIP  F4      1324    0.157499999    2.364300013    0.405599982
  111 HFIP  F5      1325    0.177999988    2.308699846    0.618600011
  111 HFIP  F6      1326   -0.005396366    2.276099920    0.513999999
  111 HFIP  C7      1327    0.312799990    2.088199854    0.490199983
  111 HFIP  F8      1328    0.354699999    1.973899961    0.438400000
  111 HFIP  F9      1329    0.310499996    2.072499990    0.623299956
  111 HFIP  F10     1330    0.397799999    2.186300039    0.460199982
  111 HFIP  H11     1331    0.140100002    2.184900045    0.269499987
  111 HFIP  H12     1332    0.104499996    2.067600012    0.518599987
  112 HFIP  O1      1333    2.646100044    1.651099920    0.632699966
  112 HFIP  C2      1334    2.763099909    1.591699958    0.674499989
  112 HFIP  C3      1335    2.868396282    1.707199931    0.703199983
  112 HFIP  F4      1336    2.815996408    1.791000009    0.798399985
  112 HFIP  F5      1337    2.897196293    1.784799933    0.591600001
  112 HFIP  F6      1338    2.984596252    1.659599900    0.757200003
  112 HFIP  C7      1339    2.803400040    1.480999947    0.571099997
  112 HFIP  F8      1340    2.708799839    1.388299942    0.539399981
  112 HFIP  F9      1341    2.914896250    1.410799980    0.613200009
  112 HFIP  F10     1342    2.824196339    1.540199995    0.451999992
  112 HFIP  H11     1343    2.652199984    1.689799905    0.540699959
  112 HFIP  H12     1344    2.746700048    1.537499905    0.767699957
  113 HFIP  O1      1345    0.299400002    1.623899937    2.205999851
  113 HFIP  C2      1346    0.228499994    1.738099933    2.252199888
  113 HFIP  C3      1347    0.226699993    1.737599969    2.407899857
  113 HFIP  F4      1348    0.159400001    1.638299942    2.462199926
  113 HFIP  F5      1349    0.209299996    1.854900002    2.472499847
  113 HFIP  F6      1350    0.353799999    1.710299969    2.448199987
  113 HFIP  C7      1351    0.078000002    1.750199914    2.198600054
  113 HFIP  F8      1352    0.069799997    1.749499917    2.064599991
  113 HFIP  F9      1353    0.010600000    1.859099984    2.240599871
  113 HFIP  F10     1354   -0.008896351    1.649799943    2.224999905
  113 HFIP  H11     1355    0.351500005    1.584499955    2.281699896
  113 HFIP  H12     1356    0.289799988    1.822499990    2.220499992
  114 HFIP  O1      1357    2.415699959    2.225399971    0.817299962
  114 HFIP  C2      1358    2.520499945    2.149399996    0.775299966
  114 HFIP  C3      1359    2.478299856    2.010900021    0.744599998
  114 HFIP  F4      1360    2.386999846    1.999899983    0.644899964
  114 HFIP  F5      1361    2.415199995    1.949000001    0.848800004
  114 HFIP  F6      1362    2.583099842    1.930899978    0.706999958
  114 HFIP  C7      1363    2.638000011    2.160699844    0.880899966
  114 HFIP  F8      1364    2.753299952    2.121500015    0.822799981
  114 HFIP  F9      1365    2.635200024    2.081300020    0.995399952
  114 HFIP  F10     1366    2.650599957    2.285899878    0.927299976
  114 HFIP  H11     1367    2.376799822    2.173699856    0.893499970
  114 HFIP  H12     1368    2.554199934    2.187599897    0.678999960
  115 HFIP  O1      1369    2.743899822    2.795300007    2.704599857
  115 HFIP  C2      1370    2.824096441    2.904496431    2.732499838
  115 HFIP  C3      1371    2.849796295    2.979196310    2.603399992
  115 HFIP  F4      1372    2.901296377    3.103896379    2.627399921
  115 HFIP  F5      1373    2.745899916    2.989896297    2.515599966
  115 HFIP  F6      1374    2.933996439    2.906996250    2.522699833
  115 HFIP  C7      1375    2.947896242    2.858896255    2.809599876
  115 HFIP  F8      1376    3.011696339    2.969996452    2.857596397
  115 HFIP  F9      1377    3.053396225    2.795500040    2.745899916
  115 HFIP  F10     1378    2.900896311    2.789999962    2.917296410
  115 HFIP  H11     1379    2.767699957    2.754600048    2.616499901
  115 HFIP  H12     1380    2.765100002    2.975096226    2.790899992
  116 HFIP  O1      1381    1.807500005    2.743999958    0.201299995
  116 HFIP  C2      1382    1.917699933    2.695999861    0.267100006
  116 HFIP  C3      1383    2.042099953    2.685499907    0.178199992
  116 HFIP  F4      1384    2.161299944    2.671000004    0.247899994
  116 HFIP  F5      1385    2.051499844    2.802000046    0.105799995
  116 HFIP  F6      1386    2.023200035    2.585500002    0.086499996
  116 HFIP  C7      1387    1.883299947    2.563999891    0.344300002
  116 HFIP  F8      1388    1.790499926    2.581899881    0.436800003
  116 HFIP  F9      1389    1.986199975    2.493399858    0.397399992
  116 HFIP  F10     1390    1.821900010    2.474400043    0.259799987
  116 HFIP  H11     1391    1.803200006    2.699699879    0.111699998
  116 HFIP  H12     1392    1.937799931    2.776499987    0.337799996
  117 HFIP  O1      1393    2.678999901    1.777899981    0.413899988
  117 HFIP  C2      1394    2.550499916    1.803699970    0.379599988
  117 HFIP  C3      1395    2.483999968    1.695699930    0.286199987
  117 HFIP  F4      1396    2.360899925    1.716199994    0.231899992
  117 HFIP  F5      1397    2.474599838    1.581799984    0.355699986
  117 HFIP  F6      1398    2.569599867    1.678900003    0.185399994
  117 HFIP  C7      1399    2.531100035    1.946099997    0.319700003
  117 HFIP  F8      1400    2.580699921    1.957699895    0.196599990
  117 HFIP  F9      1401    2.593699932    2.041699886    0.394899994
  117 HFIP  F10     1402    2.396699905    1.976999998    0.326199979
  117 HFIP  H11     1403    2.740099907    1.820199966    0.347000003
  117 HFIP  H12     1404    2.489099979    1.800099969    0.469599992
  118 HFIP  O1      1405    2.567100048    1.843999982    1.701599956
  118 HFIP  C2      1406    2.654799938    1.911899924    1.791399956
  118 HFIP  C3      1407    2.587800026    2.018800020    1.877599955
  118 HFIP  F4      1408    2.487099886    1.951699972    1.934699893
  118 HFIP  F5      1409    2.531599998    2.120699883    1.804099917
  118 HFIP  F6      1410    2.668099880    2.067499876    1.979200006
  118 HFIP  C7      1411    2.771699905    1.963899970    1.694199920
  118 HFIP  F8      1412    2.869796276    2.021199942    1.773999929
  118 HFIP  F9      1413    2.733799934    2.053900003    1.605599999
  118 HFIP  F10     1414    2.832396269    1.867799997    1.626099944
  118 HFIP  H11     1415    2.481299877    1.894199967    1.711899996
  118 HFIP  H12     1416    2.701299906    1.837399960    1.855999947
  119 HFIP  O1      1417    2.583499908    2.472899914    0.024000000
  119 HFIP  C2      1418    2.474499941    2.388799906    0.048499998
  119 HFIP  C3      1419    2.341699839    2.428499937   -0.024396420
  119 HFIP  F4      1420    2.235499859    2.343199968   -0.002496481
  119 HFIP  F5      1421    2.365099907    2.438499928   -0.157096386
  119 HFIP  F6      1422    2.325399876    2.555699825    0.006200000
  119 HFIP  C7      1423    2.465299845    2.366600037    0.201499999
  119 HFIP  F8      1424    2.591300011    2.340899944    0.239500001
  119 HFIP  F9      1425    2.387300014    2.259700060    0.227799997
  119 HFIP  F10     1426    2.411900043    2.472199917    0.269099981
  119 HFIP  H11     1427    2.565399885    2.551499844    0.083099999
  119 HFIP  H12     1428    2.507200003    2.291599989    0.011700000
  120 HFIP  O1      1429    0.029299999    1.858199954    0.213100001
  120 HFIP  C2      1430    0.096299998    1.759799957    0.142399997
  120 HFIP  C3      1431    0.249100000    1.766999960    0.165999994
  120 HFIP  F4      1432    0.300599992    1.887799978    0.130300000
  120 HFIP  F5      1433    0.305000007    1.662299991    0.097599998
  120 HFIP  F6      1434    0.271699995    1.751099944    0.301599979
  120 HFIP  C7      1435    0.068300001    1.776399970   -0.008396387
  120 HFIP  F8      1436    0.112199999    1.892099977   -0.060096502
  120 HFIP  F9      1437   -0.066396475    1.799499989   -0.031996489
  120 HFIP  F10     1438    0.094899997    1.661799908   -0.079696417
  120 HFIP  H11     1439    0.093599997    1.934499979    0.219099998
  120 HFIP  H12     1440    0.057200000    1.659299970    0.157899991
  121 HFIP  O1      1441    0.435699999    1.504699945    2.024499893
  121 HFIP  C2      1442    0.525999963    1.575699925    1.945899963
  121 HFIP  C3      1443    0.639699996    1.626599908    2.037799835
  121 HFIP  F4      1444    0.722599983    1.524999976    2.067299843
  121 HFIP  F5      1445    0.603199959    1.651099920    2.165499926
  121 HFIP  F6      1446    0.712700009    1.732299924    1.995199919
  121 HFIP  C7      1447    0.448899984    1.688300014    1.866199970
  121 HFIP  F8      1448    0.521699965    1.760599971    1.778100014
  121 HFIP  F9      1449    0.390299976    1.766299963    1.958899975
  121 HFIP  F10     1450    0.349999994    1.631199956    1.796599984
  121 HFIP  H11     1451    0.377399981    1.568799973    2.074300051
  121 HFIP  H12     1452    0.566199958    1.507599950    1.870899916
  122 HFIP  O1      1453    0.983199954    2.076599836    2.698099852
  122 HFIP  C2      1454    1.057299972    2.197099924    2.687199831
  122 HFIP  C3      1455    0.960799992    2.323099852    2.673300028
  122 HFIP  F4      1456    0.888199985    2.313599825    2.562599897
  122 HFIP  F5      1457    1.018999934    2.445799828    2.670500040
  122 HFIP  F6      1458    0.870000005    2.319700003    2.770999908
  122 HFIP  C7      1459    1.171100020    2.191699982    2.571799994
  122 HFIP  F8      1460    1.277599931    2.126699924    2.629099846
  122 HFIP  F9      1461    1.219900012    2.309799910    2.524899960
  122 HFIP  F10     1462    1.139400005    2.104300022    2.471699953
  122 HFIP  H11     1463    0.890999973    2.098700047    2.666299820
  122 HFIP  H12     1464    1.101699948    2.205199957    2.786399841
  123 HFIP  O1      1465    2.288899899    1.771299958    1.657099962
  123 HFIP  C2      1466    2.172800064    1.819899917    1.609399915
  123 HFIP  C3      1467    2.156999826    1.975099921    1.626599908
  123 HFIP  F4      1468    2.234899998    2.026000023    1.728299975
  123 HFIP  F5      1469    2.034199953    2.022099972    1.661599994
  123 HFIP  F6      1470    2.189300060    2.042099953    1.513899922
  123 HFIP  C7      1471    2.048899889    1.736400008    1.655799985
  123 HFIP  F8      1472    1.952499986    1.733299971    1.562399983
  123 HFIP  F9      1473    1.992899895    1.776299953    1.769999981
  123 HFIP  F10     1474    2.094099998    1.608799934    1.666299939
  123 HFIP  H11     1475    2.269299984    1.685799956    1.705199957
  123 HFIP  H12     1476    2.178400040    1.808999896    1.501099944
  124 HFIP  O1      1477    2.577100039    2.722299814    0.104199998
  124 HFIP  C2      1478    2.502599955    2.823496342    0.170499995
  124 HFIP  C3      1479    2.440299988    2.921896458    0.067099996
  124 HFIP  F4      1480    2.511299849    2.964396238   -0.040996313
  124 HFIP  F5      1481    2.396699905    3.043296337    0.109299995
  124 HFIP  F6      1482    2.327399969    2.871696234    0.012600000
  124 HFIP  C7      1483    2.598799944    2.899296284    0.269099981
  124 HFIP  F8      1484    2.529099941    2.956696272    0.370900005
  124 HFIP  F9      1485    2.677399874    2.997796297    0.218400002
  124 HFIP  F10     1486    2.686599970    2.811300039    0.327199996
  124 HFIP  H11     1487    2.612499952    2.759999990    0.018600000
  124 HFIP  H12     1488    2.421399832    2.779999971    0.228699997
  125 HFIP  O1      1489    0.420299977    1.216599941    1.993699908
  125 HFIP  C2      1490    0.399299979    1.159899950    2.114099979
  125 HFIP  C3      1491    0.289900005    1.225600004    2.197799921
  125 HFIP  F4      1492    0.256199986    1.157099962    2.308300018
  125 HFIP  F5      1493    0.174899995    1.237800002    2.124899864
  125 HFIP  F6      1494    0.308699995    1.354099989    2.238999844
  125 HFIP  C7      1495    0.533599973    1.163499951    2.204200029
  125 HFIP  F8      1496    0.524599969    1.121999979    2.334399939
  125 HFIP  F9      1497    0.591600001    1.284999967    2.203799963
  125 HFIP  F10     1498    0.635100007    1.095000029    2.146399975
  125 HFIP  H11     1499    0.482599974    1.292699933    2.012199879
  125 HFIP  H12     1500    0.368900001    1.057299972    2.093400002
END
BOX
    2.814196348    2.814196348    2.814196348
END
