HFIP published-force-field qualification t= 1000.00000 step= 1000000
 1500
    1HFIP    O1    1   1.158   0.756   2.490
    1HFIP    C2    2   1.237   0.686   2.400
    1HFIP    C3    3   1.224   0.533   2.435
    1HFIP    F4    4   1.273   0.461   2.330
    1HFIP    F5    5   1.091   0.496   2.461
    1HFIP    F6    6   1.290   0.505   2.547
    1HFIP    C7    7   1.387   0.734   2.403
    1HFIP    F8    8   1.382   0.844   2.326
    1HFIP    F9    9   1.482   0.654   2.362
    1HFIP   F10   10   1.435   0.776   2.523
    1HFIP   H11   11   1.173   0.708   2.577
    1HFIP   H12   12   1.196   0.709   2.302
    2HFIP    O1   13   1.577   0.843   0.641
    2HFIP    C2   14   1.704   0.788   0.649
    2HFIP    C3   15   1.804   0.850   0.542
    2HFIP    F4   16   1.934   0.833   0.577
    2HFIP    F5   17   1.793   0.982   0.505
    2HFIP    F6   18   1.788   0.779   0.424
    2HFIP    C7   19   1.676   0.637   0.644
    2HFIP    F8   20   1.582   0.590   0.554
    2HFIP    F9   21   1.639   0.582   0.761
    2HFIP   F10   22   1.792   0.574   0.603
    2HFIP   H11   23   1.549   0.839   0.545
    2HFIP   H12   24   1.755   0.806   0.743
    3HFIP    O1   25   0.165   0.457   1.758
    3HFIP    C2   26   0.112   0.353   1.681
    3HFIP    C3   27   0.221   0.269   1.611
    3HFIP    F4   28   0.303   0.206   1.702
    3HFIP    F5   29   0.301   0.352   1.537
    3HFIP    F6   30   0.164   0.177   1.535
    3HFIP    C7   31  -0.003   0.399   1.583
    3HFIP    F8   32  -0.114   0.323   1.592
    3HFIP    F9   33   0.032   0.414   1.456
    3HFIP   F10   34  -0.059   0.516   1.622
    3HFIP   H11   35   0.180   0.527   1.689
    3HFIP   H12   36   0.062   0.284   1.749
    4HFIP    O1   37   1.765   0.827   2.012
    4HFIP    C2   38   1.692   0.810   1.893
    4HFIP    C3   39   1.756   0.892   1.781
    4HFIP    F4   40   1.696   0.864   1.663
    4HFIP    F5   41   1.882   0.851   1.767
    4HFIP    F6   42   1.757   1.027   1.806
    4HFIP    C7   43   1.538   0.837   1.910
    4HFIP    F8   44   1.515   0.853   2.043
    4HFIP    F9   45   1.458   0.739   1.861
    4HFIP   F10   46   1.486   0.957   1.872
    4HFIP   H11   47   1.776   0.925   2.025
    4HFIP   H12   48   1.708   0.706   1.866
    5HFIP    O1   49   1.284   2.229   0.567
    5HFIP    C2   50   1.159   2.286   0.572
    5HFIP    C3   51   1.061   2.190   0.647
    5HFIP    F4   52   1.109   2.163   0.769
    5HFIP    F5   53   1.062   2.070   0.585
    5HFIP    F6   54   0.934   2.240   0.645
    5HFIP    C7   55   1.100   2.350   0.436
    5HFIP    F8   56   0.995   2.436   0.455
    5HFIP    F9   57   1.037   2.256   0.356
    5HFIP   F10   58   1.191   2.411   0.359
    5HFIP   H11   59   1.282   2.129   0.569
    5HFIP   H12   60   1.172   2.363   0.648
    6HFIP    O1   61   1.533   2.806   2.665
    6HFIP    C2   62   1.405   2.854   2.654
    6HFIP    C3   63   1.350   2.841   2.510
    6HFIP    F4   64   1.321   2.955   2.441
    6HFIP    F5   65   1.230   2.772   2.507
    6HFIP    F6   66   1.433   2.769   2.428
    6HFIP    C7   67   1.383   2.998   2.707
    6HFIP    F8   68   1.447   3.096   2.641
    6HFIP    F9   69   1.419   3.005   2.836
    6HFIP   F10   70   1.252   3.036   2.701
    6HFIP   H11   71   1.581   2.868   2.604
    6HFIP   H12   72   1.345   2.786   2.715
    7HFIP    O1   73   0.651   2.624   2.012
    7HFIP    C2   74   0.672   2.759   1.999
    7HFIP    C3   75   0.587   2.823   1.884
    7HFIP    F4   76   0.460   2.776   1.890
    7HFIP    F5   77   0.657   2.804   1.765
    7HFIP    F6   78   0.575   2.959   1.897
    7HFIP    C7   79   0.816   2.788   1.989
    7HFIP    F8   80   0.846   2.912   1.956
    7HFIP    F9   81   0.878   2.701   1.901
    7HFIP   F10   82   0.880   2.771   2.107
    7HFIP   H11   83   0.622   2.589   1.923
    7HFIP   H12   84   0.636   2.806   2.091
    8HFIP    O1   85   2.140   0.802   2.628
    8HFIP    C2   86   2.038   0.724   2.681
    8HFIP    C3   87   1.898   0.765   2.618
    8HFIP    F4   88   1.875   0.893   2.647
    8HFIP    F5   89   1.784   0.699   2.654
    8HFIP    F6   90   1.912   0.757   2.488
    8HFIP    C7   91   2.041   0.733   2.834
    8HFIP    F8   92   2.071   0.854   2.887
    8HFIP    F9   93   2.131   0.644   2.881
    8HFIP   F10   94   1.924   0.690   2.888
    8HFIP   H11   95   2.122   0.893   2.665
    8HFIP   H12   96   2.061   0.620   2.659
    9HFIP    O1   97   1.718   1.608   0.220
    9HFIP    C2   98   1.603   1.615   0.150
    9HFIP    C3   99   1.536   1.469   0.171
    9HFIP    F4  100   1.578   1.369   0.088
    9HFIP    F5  101   1.399   1.468   0.169
    9HFIP    F6  102   1.565   1.420   0.297
    9HFIP    C7  103   1.631   1.638   0.005
    9HFIP    F8  104   1.731   1.552  -0.031
    9HFIP    F9  105   1.676   1.764  -0.026
    9HFIP   F10  106   1.519   1.628  -0.072
    9HFIP   H11  107   1.769   1.524   0.204
    9HFIP   H12  108   1.547   1.701   0.187
   10HFIP    O1  109   1.675   2.622   2.789
   10HFIP    C2  110   1.639   2.488   2.765
   10HFIP    C3  111   1.632   2.458   2.613
   10HFIP    F4  112   1.740   2.490   2.538
   10HFIP    F5  113   1.523   2.521   2.561
   10HFIP    F6  114   1.619   2.322   2.593
   10HFIP    C7  115   1.509   2.449   2.838
   10HFIP    F8  116   1.534   2.455   2.971
   10HFIP    F9  117   1.474   2.320   2.820
   10HFIP   F10  118   1.411   2.532   2.811
   10HFIP   H11  119   1.609   2.691   2.761
   10HFIP   H12  120   1.717   2.421   2.800
   11HFIP    O1  121   1.442   0.972   0.898
   11HFIP    C2  122   1.319   0.917   0.936
   11HFIP    C3  123   1.301   0.773   0.883
   11HFIP    F4  124   1.217   0.707   0.961
   11HFIP    F5  125   1.417   0.703   0.893
   11HFIP    F6  126   1.274   0.768   0.751
   11HFIP    C7  127   1.205   1.007   0.888
   11HFIP    F8  128   1.193   1.106   0.979
   11HFIP    F9  129   1.088   0.940   0.887
   11HFIP   F10  130   1.224   1.055   0.759
   11HFIP   H11  131   1.483   0.913   0.829
   11HFIP   H12  132   1.315   0.911   1.045
   12HFIP    O1  133   0.411   2.349   1.956
   12HFIP    C2  134   0.315   2.254   1.964
   12HFIP    C3  135   0.177   2.318   1.964
   12HFIP    F4  136   0.082   2.252   2.030
   12HFIP    F5  137   0.125   2.349   1.842
   12HFIP    F6  138   0.190   2.436   2.034
   12HFIP    C7  139   0.343   2.154   2.078
   12HFIP    F8  140   0.281   2.041   2.043
   12HFIP    F9  141   0.305   2.190   2.204
   12HFIP   F10  142   0.476   2.123   2.087
   12HFIP   H11  143   0.416   2.407   2.037
   12HFIP   H12  144   0.313   2.198   1.871
   13HFIP    O1  145   2.613   1.660   1.515
   13HFIP    C2  146   2.633   1.534   1.543
   13HFIP    C3  147   2.500   1.468   1.593
   13HFIP    F4  148   2.395   1.507   1.515
   13HFIP    F5  149   2.475   1.505   1.722
   13HFIP    F6  150   2.497   1.331   1.587
   13HFIP    C7  151   2.763   1.510   1.621
   13HFIP    F8  152   2.778   1.596   1.726
   13HFIP    F9  153   2.871   1.522   1.534
   13HFIP   F10  154   2.766   1.387   1.676
   13HFIP   H11  155   2.571   1.705   1.594
   13HFIP   H12  156   2.655   1.478   1.451
   14HFIP    O1  157   2.234   1.044   2.188
   14HFIP    C2  158   2.345   1.084   2.272
   14HFIP    C3  159   2.470   0.994   2.258
   14HFIP    F4  160   2.502   0.965   2.127
   14HFIP    F5  161   2.445   0.873   2.319
   14HFIP    F6  162   2.590   1.027   2.304
   14HFIP    C7  163   2.291   1.097   2.416
   14HFIP    F8  164   2.219   1.211   2.436
   14HFIP    F9  165   2.387   1.101   2.513
   14HFIP   F10  166   2.194   1.006   2.442
   14HFIP   H11  167   2.197   0.952   2.198
   14HFIP   H12  168   2.371   1.186   2.243
   15HFIP    O1  169   1.676   0.132   2.506
   15HFIP    C2  170   1.763   0.221   2.559
   15HFIP    C3  171   1.784   0.353   2.480
   15HFIP    F4  172   1.848   0.451   2.545
   15HFIP    F5  173   1.661   0.398   2.442
   15HFIP    F6  174   1.838   0.324   2.361
   15HFIP    C7  175   1.902   0.157   2.581
   15HFIP    F8  176   1.879   0.048   2.663
   15HFIP    F9  177   1.996   0.219   2.656
   15HFIP   F10  178   1.957   0.092   2.480
   15HFIP   H11  179   1.701   0.124   2.410
   15HFIP   H12  180   1.733   0.245   2.661
   16HFIP    O1  181   0.166   1.361   2.658
   16HFIP    C2  182   0.113   1.232   2.637
   16HFIP    C3  183  -0.032   1.238   2.584
   16HFIP    F4  184  -0.025   1.255   2.452
   16HFIP    F5  185  -0.096   1.347   2.639
   16HFIP    F6  186  -0.107   1.127   2.608
   16HFIP    C7  187   0.115   1.168   2.783
   16HFIP    F8  188   0.013   1.219   2.852
   16HFIP    F9  189   0.225   1.201   2.857
   16HFIP   F10  190   0.111   1.032   2.778
   16HFIP   H11  191   0.088   1.424   2.670
   16HFIP   H12  192   0.176   1.170   2.572
   17HFIP    O1  193   2.290   2.205   1.035
   17HFIP    C2  194   2.304   2.323   1.103
   17HFIP    C3  195   2.409   2.331   1.218
   17HFIP    F4  196   2.372   2.267   1.330
   17HFIP    F5  197   2.448   2.461   1.236
   17HFIP    F6  198   2.523   2.271   1.181
   17HFIP    C7  199   2.162   2.352   1.159
   17HFIP    F8  200   2.066   2.359   1.061
   17HFIP    F9  201   2.154   2.468   1.226
   17HFIP   F10  202   2.125   2.256   1.247
   17HFIP   H11  203   2.204   2.167   1.069
   17HFIP   H12  204   2.319   2.405   1.033
   18HFIP    O1  205   1.533   1.072   1.265
   18HFIP    C2  206   1.577   1.074   1.396
   18HFIP    C3  207   1.460   1.098   1.501
   18HFIP    F4  208   1.360   1.176   1.449
   18HFIP    F5  209   1.489   1.125   1.631
   18HFIP    F6  210   1.398   0.976   1.520
   18HFIP    C7  211   1.688   1.183   1.413
   18HFIP    F8  212   1.642   1.308   1.435
   18HFIP    F9  213   1.771   1.175   1.304
   18HFIP   F10  214   1.765   1.163   1.523
   18HFIP   H11  215   1.498   1.164   1.246
   18HFIP   H12  216   1.626   0.979   1.418
   19HFIP    O1  217   1.501   0.820   1.213
   19HFIP    C2  218   1.595   0.723   1.189
   19HFIP    C3  219   1.622   0.644   1.316
   19HFIP    F4  220   1.512   0.622   1.394
   19HFIP    F5  221   1.710   0.694   1.404
   19HFIP    F6  222   1.661   0.514   1.289
   19HFIP    C7  223   1.721   0.782   1.119
   19HFIP    F8  224   1.701   0.850   0.998
   19HFIP    F9  225   1.819   0.690   1.091
   19HFIP   F10  226   1.770   0.878   1.206
   19HFIP   H11  227   1.541   0.911   1.222
   19HFIP   H12  228   1.552   0.655   1.116
   20HFIP    O1  229   0.526   0.240   0.186
   20HFIP    C2  230   0.518   0.296   0.316
   20HFIP    C3  231   0.437   0.429   0.301
   20HFIP    F4  232   0.470   0.504   0.193
   20HFIP    F5  233   0.446   0.506   0.410
   20HFIP    F6  234   0.306   0.392   0.280
   20HFIP    C7  235   0.661   0.305   0.366
   20HFIP    F8  236   0.723   0.183   0.362
   20HFIP    F9  237   0.665   0.344   0.495
   20HFIP   F10  238   0.732   0.385   0.283
   20HFIP   H11  239   0.523   0.316   0.122
   20HFIP   H12  240   0.462   0.235   0.387
   21HFIP    O1  241   0.573   2.506   1.792
   21HFIP    C2  242   0.595   2.454   1.667
   21HFIP    C3  243   0.470   2.457   1.576
   21HFIP    F4  244   0.368   2.400   1.636
   21HFIP    F5  245   0.483   2.406   1.456
   21HFIP    F6  246   0.437   2.587   1.551
   21HFIP    C7  247   0.671   2.319   1.671
   21HFIP    F8  248   0.693   2.266   1.549
   21HFIP    F9  249   0.608   2.217   1.731
   21HFIP   F10  250   0.793   2.342   1.731
   21HFIP   H11  251   0.497   2.455   1.831
   21HFIP   H12  252   0.668   2.520   1.619
   22HFIP    O1  253   0.470   2.527   2.170
   22HFIP    C2  254   0.403   2.545   2.291
   22HFIP    C3  255   0.330   2.677   2.291
   22HFIP    F4  256   0.232   2.675   2.198
   22HFIP    F5  257   0.412   2.782   2.270
   22HFIP    F6  258   0.269   2.708   2.410
   22HFIP    C7  259   0.507   2.525   2.407
   22HFIP    F8  260   0.521   2.392   2.439
   22HFIP    F9  261   0.475   2.571   2.528
   22HFIP   F10  262   0.629   2.570   2.372
   22HFIP   H11  263   0.564   2.560   2.164
   22HFIP   H12  264   0.328   2.468   2.307
   23HFIP    O1  265   0.861   0.286   1.391
   23HFIP    C2  266   0.804   0.161   1.392
   23HFIP    C3  267   0.671   0.170   1.474
   23HFIP    F4  268   0.685   0.216   1.602
   23HFIP    F5  269   0.609   0.052   1.476
   23HFIP    F6  270   0.576   0.260   1.426
   23HFIP    C7  271   0.903   0.048   1.440
   23HFIP    F8  272   0.969   0.062   1.559
   23HFIP    F9  273   1.008   0.043   1.357
   23HFIP   F10  274   0.856  -0.081   1.426
   23HFIP   H11  275   0.891   0.317   1.481
   23HFIP   H12  276   0.771   0.139   1.290
   24HFIP    O1  277   0.225   0.894   1.724
   24HFIP    C2  278   0.089   0.906   1.769
   24HFIP    C3  279   0.029   1.042   1.727
   24HFIP    F4  280   0.021   1.054   1.590
   24HFIP    F5  281   0.104   1.144   1.775
   24HFIP    F6  282  -0.096   1.074   1.768
   24HFIP    C7  283   0.084   0.878   1.918
   24HFIP    F8  284  -0.040   0.854   1.962
   24HFIP    F9  285   0.148   0.967   2.001
   24HFIP   F10  286   0.148   0.760   1.951
   24HFIP   H11  287   0.272   0.978   1.752
   24HFIP   H12  288   0.029   0.830   1.718
   25HFIP    O1  289   0.400   0.176   0.945
   25HFIP    C2  290   0.430   0.292   1.023
   25HFIP    C3  291   0.332   0.297   1.144
   25HFIP    F4  292   0.349   0.412   1.212
   25HFIP    F5  293   0.360   0.200   1.236
   25HFIP    F6  294   0.208   0.272   1.106
   25HFIP    C7  295   0.440   0.425   0.930
   25HFIP    F8  296   0.457   0.550   0.986
   25HFIP    F9  297   0.312   0.448   0.878
   25HFIP   F10  298   0.533   0.395   0.834
   25HFIP   H11  299   0.325   0.198   0.883
   25HFIP   H12  300   0.532   0.281   1.060
   26HFIP    O1  301   1.012   0.964   2.438
   26HFIP    C2  302   0.884   0.941   2.392
   26HFIP    C3  303   0.790   0.895   2.499
   26HFIP    F4  304   0.667   0.880   2.447
   26HFIP    F5  305   0.794   0.980   2.607
   26HFIP    F6  306   0.830   0.781   2.559
   26HFIP    C7  307   0.897   0.825   2.279
   26HFIP    F8  308   0.944   0.708   2.323
   26HFIP    F9  309   0.999   0.856   2.198
   26HFIP   F10  310   0.784   0.801   2.202
   26HFIP   H11  311   1.049   0.873   2.456
   26HFIP   H12  312   0.855   1.034   2.343
   27HFIP    O1  313   2.326   2.302   0.583
   27HFIP    C2  314   2.309   2.441   0.573
   27HFIP    C3  315   2.442   2.508   0.609
   27HFIP    F4  316   2.446   2.630   0.552
   27HFIP    F5  317   2.554   2.441   0.564
   27HFIP    F6  318   2.457   2.527   0.742
   27HFIP    C7  319   2.181   2.488   0.659
   27HFIP    F8  320   2.063   2.422   0.637
   27HFIP    F9  321   2.158   2.617   0.641
   27HFIP   F10  322   2.205   2.457   0.793
   27HFIP   H11  323   2.361   2.280   0.674
   27HFIP   H12  324   2.286   2.469   0.470
   28HFIP    O1  325   0.979   0.475   1.242
   28HFIP    C2  326   0.981   0.477   1.099
   28HFIP    C3  327   0.840   0.442   1.046
   28HFIP    F4  328   0.794   0.324   1.088
   28HFIP    F5  329   0.836   0.437   0.907
   28HFIP    F6  330   0.744   0.531   1.079
   28HFIP    C7  331   1.095   0.396   1.029
   28HFIP    F8  332   1.092   0.268   1.068
   28HFIP    F9  333   1.222   0.428   1.074
   28HFIP   F10  334   1.110   0.395   0.896
   28HFIP   H11  335   0.956   0.381   1.267
   28HFIP   H12  336   1.005   0.578   1.066
   29HFIP    O1  337   0.242   0.656   1.596
   29HFIP    C2  338   0.290   0.675   1.466
   29HFIP    C3  339   0.449   0.668   1.475
   29HFIP    F4  340   0.502   0.756   1.558
   29HFIP    F5  341   0.505   0.692   1.353
   29HFIP    F6  342   0.505   0.551   1.524
   29HFIP    C7  343   0.232   0.801   1.387
   29HFIP    F8  344   0.297   0.907   1.435
   29HFIP    F9  345   0.096   0.816   1.411
   29HFIP   F10  346   0.255   0.799   1.256
   29HFIP   H11  347   0.253   0.737   1.653
   29HFIP   H12  348   0.264   0.586   1.408
   30HFIP    O1  349   1.757   1.779   0.433
   30HFIP    C2  350   1.860   1.724   0.505
   30HFIP    C3  351   1.991   1.726   0.426
   30HFIP    F4  352   1.994   1.636   0.329
   30HFIP    F5  353   2.102   1.723   0.500
   30HFIP    F6  354   2.007   1.842   0.359
   30HFIP    C7  355   1.837   1.581   0.557
   30HFIP    F8  356   1.788   1.496   0.460
   30HFIP    F9  357   1.737   1.587   0.649
   30HFIP   F10  358   1.951   1.530   0.608
   30HFIP   H11  359   1.750   1.719   0.353
   30HFIP   H12  360   1.878   1.787   0.591
   31HFIP    O1  361   1.100   1.220   2.519
   31HFIP    C2  362   1.159   1.249   2.641
   31HFIP    C3  363   1.315   1.224   2.623
   31HFIP    F4  364   1.329   1.113   2.543
   31HFIP    F5  365   1.388   1.209   2.736
   31HFIP    F6  366   1.371   1.324   2.543
   31HFIP    C7  367   1.098   1.160   2.750
   31HFIP    F8  368   1.168   1.163   2.866
   31HFIP    F9  369   1.096   1.029   2.713
   31HFIP   F10  370   0.967   1.194   2.776
   31HFIP   H11  371   1.094   1.121   2.510
   31HFIP   H12  372   1.145   1.357   2.648
   32HFIP    O1  373   1.372   0.636   0.325
   32HFIP    C2  374   1.242   0.593   0.304
   32HFIP    C3  375   1.218   0.480   0.411
   32HFIP    F4  376   1.257   0.521   0.532
   32HFIP    F5  377   1.292   0.366   0.390
   32HFIP    F6  378   1.088   0.443   0.436
   32HFIP    C7  379   1.219   0.558   0.154
   32HFIP    F8  380   1.262   0.654   0.067
   32HFIP    F9  381   1.081   0.559   0.140
   32HFIP   F10  382   1.260   0.442   0.101
   32HFIP   H11  383   1.421   0.557   0.363
   32HFIP   H12  384   1.181   0.680   0.332
   33HFIP    O1  385   2.387   0.997   1.170
   33HFIP    C2  386   2.279   1.080   1.167
   33HFIP    C3  387   2.261   1.160   1.306
   33HFIP    F4  388   2.383   1.226   1.333
   33HFIP    F5  389   2.242   1.069   1.401
   33HFIP    F6  390   2.166   1.260   1.306
   33HFIP    C7  391   2.154   1.003   1.104
   33HFIP    F8  392   2.194   0.883   1.051
   33HFIP    F9  393   2.082   1.077   1.013
   33HFIP   F10  394   2.065   0.976   1.206
   33HFIP   H11  395   2.372   0.934   1.246
   33HFIP   H12  396   2.304   1.156   1.092
   34HFIP    O1  397   1.226   1.310   2.037
   34HFIP    C2  398   1.196   1.184   2.001
   34HFIP    C3  399   1.050   1.172   1.958
   34HFIP    F4  400   0.970   1.187   2.069
   34HFIP    F5  401   1.028   1.059   1.889
   34HFIP    F6  402   1.016   1.275   1.878
   34HFIP    C7  403   1.238   1.091   2.118
   34HFIP    F8  404   1.177   1.117   2.238
   34HFIP    F9  405   1.370   1.102   2.134
   34HFIP   F10  406   1.215   0.957   2.090
   34HFIP   H11  407   1.199   1.332   2.131
   34HFIP   H12  408   1.260   1.163   1.915
   35HFIP    O1  409   2.531   0.806   0.522
   35HFIP    C2  410   2.422   0.786   0.599
   35HFIP    C3  411   2.327   0.684   0.524
   35HFIP    F4  412   2.353   0.555   0.550
   35HFIP    F5  413   2.342   0.688   0.391
   35HFIP    F6  414   2.196   0.687   0.557
   35HFIP    C7  415   2.349   0.914   0.643
   35HFIP    F8  416   2.437   1.015   0.625
   35HFIP    F9  417   2.316   0.908   0.773
   35HFIP   F10  418   2.250   0.953   0.564
   35HFIP   H11  419   2.510   0.854   0.437
   35HFIP   H12  420   2.462   0.741   0.690
   36HFIP    O1  421   2.435   2.004   2.335
   36HFIP    C2  422   2.553   2.043   2.391
   36HFIP    C3  423   2.560   2.028   2.544
   36HFIP    F4  424   2.520   1.908   2.594
   36HFIP    F5  425   2.480   2.119   2.612
   36HFIP    F6  426   2.687   2.048   2.585
   36HFIP    C7  427   2.597   2.185   2.341
   36HFIP    F8  428   2.524   2.290   2.396
   36HFIP    F9  429   2.564   2.206   2.211
   36HFIP   F10  430   2.727   2.210   2.352
   36HFIP   H11  431   2.377   2.084   2.318
   36HFIP   H12  432   2.632   1.974   2.360
   37HFIP    O1  433   2.246   2.170   2.324
   37HFIP    C2  434   2.198   2.225   2.212
   37HFIP    C3  435   2.099   2.337   2.256
   37HFIP    F4  436   2.149   2.465   2.260
   37HFIP    F5  437   2.043   2.334   2.382
   37HFIP    F6  438   1.993   2.342   2.177
   37HFIP    C7  439   2.148   2.107   2.117
   37HFIP    F8  440   2.215   1.992   2.147
   37HFIP    F9  441   2.168   2.126   1.986
   37HFIP   F10  442   2.020   2.067   2.149
   37HFIP   H11  443   2.176   2.173   2.395
   37HFIP   H12  444   2.280   2.273   2.159
   38HFIP    O1  445   2.054   2.075   1.042
   38HFIP    C2  446   2.036   1.941   1.009
   38HFIP    C3  447   1.949   1.920   0.882
   38HFIP    F4  448   1.821   1.902   0.920
   38HFIP    F5  449   1.980   1.804   0.815
   38HFIP    F6  450   1.958   2.022   0.798
   38HFIP    C7  451   1.987   1.862   1.140
   38HFIP    F8  452   2.082   1.886   1.233
   38HFIP    F9  453   1.968   1.728   1.104
   38HFIP   F10  454   1.870   1.911   1.185
   38HFIP   H11  455   1.981   2.087   1.109
   38HFIP   H12  456   2.138   1.905   0.996
   39HFIP    O1  457   1.674   0.285   2.067
   39HFIP    C2  458   1.544   0.327   2.089
   39HFIP    C3  459   1.445   0.210   2.066
   39HFIP    F4  460   1.448   0.148   1.947
   39HFIP    F5  461   1.313   0.242   2.079
   39HFIP    F6  462   1.465   0.112   2.155
   39HFIP    C7  463   1.514   0.453   2.015
   39HFIP    F8  464   1.619   0.540   2.034
   39HFIP    F9  465   1.403   0.521   2.062
   39HFIP   F10  466   1.503   0.431   1.881
   39HFIP   H11  467   1.699   0.276   1.971
   39HFIP   H12  468   1.529   0.339   2.197
   40HFIP    O1  469   1.750   0.084   2.238
   40HFIP    C2  470   1.838  -0.018   2.209
   40HFIP    C3  471   1.963   0.030   2.131
   40HFIP    F4  472   1.945   0.082   2.009
   40HFIP    F5  473   2.061  -0.064   2.124
   40HFIP    F6  474   2.029   0.122   2.204
   40HFIP    C7  475   1.769  -0.119   2.122
   40HFIP    F8  476   1.855  -0.210   2.073
   40HFIP    F9  477   1.694  -0.057   2.023
   40HFIP   F10  478   1.683  -0.185   2.200
   40HFIP   H11  479   1.736   0.137   2.154
   40HFIP   H12  480   1.868  -0.078   2.295
   41HFIP    O1  481   2.288   1.773   2.328
   41HFIP    C2  482   2.350   1.658   2.281
   41HFIP    C3  483   2.446   1.602   2.387
   41HFIP    F4  484   2.472   1.468   2.371
   41HFIP    F5  485   2.401   1.611   2.519
   41HFIP    F6  486   2.570   1.656   2.389
   41HFIP    C7  487   2.412   1.685   2.142
   41HFIP    F8  488   2.318   1.713   2.046
   41HFIP    F9  489   2.475   1.578   2.097
   41HFIP   F10  490   2.500   1.789   2.155
   41HFIP   H11  491   2.323   1.850   2.274
   41HFIP   H12  492   2.270   1.585   2.265
   42HFIP    O1  493   2.107   2.069   2.513
   42HFIP    C2  494   2.073   2.082   2.646
   42HFIP    C3  495   2.143   1.991   2.753
   42HFIP    F4  496   2.197   1.874   2.707
   42HFIP    F5  497   2.072   1.966   2.871
   42HFIP    F6  498   2.254   2.059   2.801
   42HFIP    C7  499   1.923   2.069   2.661
   42HFIP    F8  500   1.865   2.139   2.761
   42HFIP    F9  501   1.882   1.939   2.670
   42HFIP   F10  502   1.858   2.115   2.548
   42HFIP   H11  503   2.088   1.974   2.491
   42HFIP   H12  504   2.107   2.182   2.672
   43HFIP    O1  505   2.656   0.993   1.123
   43HFIP    C2  506   2.740   1.086   1.060
   43HFIP    C3  507   2.796   1.191   1.162
   43HFIP    F4  508   2.880   1.119   1.239
   43HFIP    F5  509   2.694   1.241   1.236
   43HFIP    F6  510   2.867   1.284   1.096
   43HFIP    C7  511   2.670   1.151   0.942
   43HFIP    F8  512   2.578   1.067   0.887
   43HFIP    F9  513   2.762   1.174   0.848
   43HFIP   F10  514   2.603   1.269   0.974
   43HFIP   H11  515   2.567   1.038   1.131
   43HFIP   H12  516   2.828   1.041   1.013
   44HFIP    O1  517   1.111   1.374   2.259
   44HFIP    C2  518   1.028   1.483   2.255
   44HFIP    C3  519   1.099   1.617   2.282
   44HFIP    F4  520   1.019   1.719   2.325
   44HFIP    F5  521   1.180   1.647   2.174
   44HFIP    F6  522   1.195   1.605   2.379
   44HFIP    C7  523   0.905   1.453   2.347
   44HFIP    F8  524   0.803   1.546   2.346
   44HFIP    F9  525   0.934   1.431   2.474
   44HFIP   F10  526   0.854   1.331   2.314
   44HFIP   H11  527   1.103   1.343   2.353
   44HFIP   H12  528   0.983   1.483   2.155
   45HFIP    O1  529   2.186   0.495   0.892
   45HFIP    C2  530   2.096   0.470   0.996
   45HFIP    C3  531   2.155   0.495   1.135
   45HFIP    F4  532   2.051   0.541   1.218
   45HFIP    F5  533   2.253   0.590   1.137
   45HFIP    F6  534   2.193   0.380   1.199
   45HFIP    C7  535   2.018   0.334   0.989
   45HFIP    F8  536   2.103   0.228   0.998
   45HFIP    F9  537   1.960   0.323   0.868
   45HFIP   F10  538   1.909   0.314   1.069
   45HFIP   H11  539   2.168   0.420   0.827
   45HFIP   H12  540   2.016   0.544   0.987
   46HFIP    O1  541   1.616   1.967   0.522
   46HFIP    C2  542   1.634   2.079   0.438
   46HFIP    C3  543   1.610   2.036   0.290
   46HFIP    F4  544   1.497   1.966   0.266
   46HFIP    F5  545   1.712   1.992   0.213
   46HFIP    F6  546   1.580   2.153   0.228
   46HFIP    C7  547   1.779   2.132   0.460
   46HFIP    F8  548   1.847   2.180   0.353
   46HFIP    F9  549   1.865   2.036   0.494
   46HFIP   F10  550   1.787   2.229   0.555
   46HFIP   H11  551   1.690   1.902   0.504
   46HFIP   H12  552   1.566   2.160   0.464
   47HFIP    O1  553   0.981   0.407   1.585
   47HFIP    C2  554   1.075   0.356   1.682
   47HFIP    C3  555   1.079   0.453   1.807
   47HFIP    F4  556   0.965   0.422   1.881
   47HFIP    F5  557   1.080   0.588   1.772
   47HFIP    F6  558   1.179   0.429   1.895
   47HFIP    C7  559   1.215   0.344   1.615
   47HFIP    F8  560   1.284   0.240   1.669
   47HFIP    F9  561   1.297   0.452   1.624
   47HFIP   F10  562   1.217   0.313   1.485
   47HFIP   H11  563   0.994   0.504   1.569
   47HFIP   H12  564   1.041   0.258   1.714
   48HFIP    O1  565   1.015   0.636   1.451
   48HFIP    C2  566   1.019   0.781   1.450
   48HFIP    C3  567   0.878   0.833   1.427
   48HFIP    F4  568   0.828   0.780   1.312
   48HFIP    F5  569   0.875   0.969   1.428
   48HFIP    F6  570   0.785   0.786   1.517
   48HFIP    C7  571   1.117   0.835   1.339
   48HFIP    F8  572   1.133   0.969   1.327
   48HFIP    F9  573   1.076   0.789   1.221
   48HFIP   F10  574   1.239   0.780   1.361
   48HFIP   H11  575   0.993   0.608   1.357
   48HFIP   H12  576   1.040   0.824   1.548
   49HFIP    O1  577   0.199   0.607   2.390
   49HFIP    C2  578   0.201   0.735   2.442
   49HFIP    C3  579   0.095   0.823   2.370
   49HFIP    F4  580   0.097   0.813   2.234
   49HFIP    F5  581   0.094   0.953   2.403
   49HFIP    F6  582  -0.030   0.784   2.411
   49HFIP    C7  583   0.342   0.806   2.450
   49HFIP    F8  584   0.427   0.714   2.501
   49HFIP    F9  585   0.355   0.916   2.532
   49HFIP   F10  586   0.388   0.854   2.333
   49HFIP   H11  587   0.279   0.604   2.331
   49HFIP   H12  588   0.164   0.731   2.544
   50HFIP    O1  589   0.449   2.739   0.918
   50HFIP    C2  590   0.572   2.670   0.921
   50HFIP    C3  591   0.663   2.721   1.038
   50HFIP    F4  592   0.796   2.693   1.024
   50HFIP    F5  593   0.620   2.672   1.160
   50HFIP    F6  594   0.658   2.855   1.044
   50HFIP    C7  595   0.646   2.664   0.779
   50HFIP    F8  596   0.729   2.557   0.763
   50HFIP    F9  597   0.715   2.778   0.760
   50HFIP   F10  598   0.562   2.658   0.671
   50HFIP   H11  599   0.462   2.838   0.930
   50HFIP   H12  600   0.550   2.566   0.945
   51HFIP    O1  601   1.387   1.984   0.629
   51HFIP    C2  602   1.335   1.870   0.688
   51HFIP    C3  603   1.427   1.839   0.815
   51HFIP    F4  604   1.394   1.731   0.887
   51HFIP    F5  605   1.439   1.952   0.894
   51HFIP    F6  606   1.550   1.807   0.769
   51HFIP    C7  607   1.318   1.752   0.591
   51HFIP    F8  608   1.290   1.798   0.465
   51HFIP    F9  609   1.228   1.663   0.632
   51HFIP   F10  610   1.428   1.676   0.561
   51HFIP   H11  611   1.475   1.964   0.586
   51HFIP   H12  612   1.240   1.901   0.733
   52HFIP    O1  613   0.400   1.516   2.719
   52HFIP    C2  614   0.526   1.473   2.712
   52HFIP    C3  615   0.536   1.406   2.567
   52HFIP    F4  616   0.424   1.345   2.523
   52HFIP    F5  617   0.621   1.299   2.569
   52HFIP    F6  618   0.570   1.500   2.480
   52HFIP    C7  619   0.562   1.396   2.838
   52HFIP    F8  620   0.694   1.403   2.857
   52HFIP    F9  621   0.529   1.264   2.832
   52HFIP   F10  622   0.506   1.442   2.952
   52HFIP   H11  623   0.340   1.438   2.701
   52HFIP   H12  624   0.588   1.563   2.713
   53HFIP    O1  625   0.204   0.443   2.017
   53HFIP    C2  626   0.122   0.376   2.102
   53HFIP    C3  627   0.142   0.230   2.077
   53HFIP    F4  628   0.124   0.199   1.946
   53HFIP    F5  629   0.062   0.142   2.144
   53HFIP    F6  630   0.272   0.200   2.095
   53HFIP    C7  631  -0.025   0.432   2.092
   53HFIP    F8  632  -0.038   0.548   2.158
   53HFIP    F9  633  -0.116   0.342   2.143
   53HFIP   F10  634  -0.048   0.463   1.964
   53HFIP   H11  635   0.173   0.427   1.923
   53HFIP   H12  636   0.152   0.393   2.206
   54HFIP    O1  637   2.150   0.794   2.223
   54HFIP    C2  638   2.091   0.732   2.120
   54HFIP    C3  639   2.008   0.606   2.154
   54HFIP    F4  640   2.065   0.524   2.246
   54HFIP    F5  641   1.969   0.531   2.048
   54HFIP    F6  642   1.890   0.643   2.216
   54HFIP    C7  643   2.202   0.699   2.016
   54HFIP    F8  644   2.135   0.679   1.903
   54HFIP    F9  645   2.273   0.585   2.041
   54HFIP   F10  646   2.284   0.808   1.997
   54HFIP   H11  647   2.171   0.718   2.285
   54HFIP   H12  648   2.024   0.802   2.071
   55HFIP    O1  649   1.477   1.293   1.175
   55HFIP    C2  650   1.445   1.421   1.221
   55HFIP    C3  651   1.315   1.464   1.152
   55HFIP    F4  652   1.249   1.565   1.211
   55HFIP    F5  653   1.229   1.361   1.162
   55HFIP    F6  654   1.339   1.494   1.025
   55HFIP    C7  655   1.558   1.529   1.193
   55HFIP    F8  656   1.675   1.520   1.257
   55HFIP    F9  657   1.518   1.649   1.231
   55HFIP   F10  658   1.599   1.534   1.065
   55HFIP   H11  659   1.471   1.293   1.076
   55HFIP   H12  660   1.429   1.421   1.328
   56HFIP    O1  661   0.592   1.030   0.221
   56HFIP    C2  662   0.643   0.934   0.141
   56HFIP    C3  663   0.525   0.869   0.055
   56HFIP    F4  664   0.462   0.974  -0.007
   56HFIP    F5  665   0.425   0.825   0.138
   56HFIP    F6  666   0.558   0.774  -0.041
   56HFIP    C7  667   0.733   0.832   0.209
   56HFIP    F8  668   0.671   0.739   0.283
   56HFIP    F9  669   0.824   0.883   0.291
   56HFIP   F10  670   0.805   0.758   0.119
   56HFIP   H11  671   0.514   1.071   0.174
   56HFIP   H12  672   0.689   0.986   0.057
   57HFIP    O1  673   0.792   1.804   1.142
   57HFIP    C2  674   0.906   1.762   1.070
   57HFIP    C3  675   1.016   1.869   1.076
   57HFIP    F4  676   1.121   1.844   0.990
   57HFIP    F5  677   1.060   1.883   1.204
   57HFIP    F6  678   0.966   1.995   1.054
   57HFIP    C7  679   0.882   1.713   0.924
   57HFIP    F8  680   0.979   1.637   0.872
   57HFIP    F9  681   0.865   1.816   0.837
   57HFIP   F10  682   0.761   1.649   0.919
   57HFIP   H11  683   0.764   1.880   1.083
   57HFIP   H12  684   0.948   1.674   1.118
   58HFIP    O1  685   2.796   0.701   0.417
   58HFIP    C2  686   2.923   0.687   0.474
   58HFIP    C3  687   2.916   0.586   0.596
   58HFIP    F4  688   3.027   0.510   0.596
   58HFIP    F5  689   2.803   0.514   0.589
   58HFIP    F6  690   2.910   0.656   0.710
   58HFIP    C7  691   2.976   0.829   0.497
   58HFIP    F8  692   2.995   0.903   0.387
   58HFIP    F9  693   3.100   0.829   0.555
   58HFIP   F10  694   2.888   0.902   0.572
   58HFIP   H11  695   2.733   0.742   0.483
   58HFIP   H12  696   2.988   0.642   0.398
   59HFIP    O1  697   0.655   0.370   2.780
   59HFIP    C2  698   0.602   0.443   2.679
   59HFIP    C3  699   0.471   0.376   2.633
   59HFIP    F4  700   0.480   0.243   2.628
   59HFIP    F5  701   0.420   0.412   2.521
   59HFIP    F6  702   0.374   0.397   2.726
   59HFIP    C7  703   0.698   0.458   2.561
   59HFIP    F8  704   0.820   0.493   2.607
   59HFIP    F9  705   0.665   0.553   2.469
   59HFIP   F10  706   0.724   0.339   2.503
   59HFIP   H11  707   0.701   0.289   2.745
   59HFIP   H12  708   0.567   0.541   2.713
   60HFIP    O1  709   1.371   2.062   1.863
   60HFIP    C2  710   1.452   1.983   1.949
   60HFIP    C3  711   1.364   1.952   2.075
   60HFIP    F4  712   1.366   2.051   2.167
   60HFIP    F5  713   1.404   1.834   2.139
   60HFIP    F6  714   1.233   1.924   2.042
   60HFIP    C7  715   1.586   2.063   1.980
   60HFIP    F8  716   1.656   1.992   2.073
   60HFIP    F9  717   1.571   2.193   2.020
   60HFIP   F10  718   1.668   2.063   1.871
   60HFIP   H11  719   1.346   2.147   1.910
   60HFIP   H12  720   1.468   1.883   1.908
   61HFIP    O1  721   1.638   0.116   0.252
   61HFIP    C2  722   1.529   0.092   0.337
   61HFIP    C3  723   1.572   0.105   0.483
   61HFIP    F4  724   1.480   0.044   0.559
   61HFIP    F5  725   1.581   0.232   0.537
   61HFIP    F6  726   1.694   0.049   0.501
   61HFIP    C7  727   1.455  -0.036   0.298
   61HFIP    F8  728   1.475  -0.062   0.167
   61HFIP    F9  729   1.326  -0.019   0.313
   61HFIP   F10  730   1.493  -0.156   0.350
   61HFIP   H11  731   1.701   0.040   0.267
   61HFIP   H12  732   1.453   0.169   0.323
   62HFIP    O1  733   0.646   1.678   1.319
   62HFIP    C2  734   0.671   1.710   1.458
   62HFIP    C3  735   0.733   1.859   1.481
   62HFIP    F4  736   0.754   1.890   1.611
   62HFIP    F5  737   0.654   1.961   1.438
   62HFIP    F6  738   0.848   1.875   1.408
   62HFIP    C7  739   0.750   1.595   1.522
   62HFIP    F8  740   0.680   1.483   1.513
   62HFIP    F9  741   0.781   1.606   1.657
   62HFIP   F10  742   0.863   1.565   1.461
   62HFIP   H11  743   0.721   1.716   1.264
   62HFIP   H12  744   0.580   1.716   1.518
   63HFIP    O1  745   0.427   1.805   1.257
   63HFIP    C2  746   0.332   1.726   1.196
   63HFIP    C3  747   0.290   1.617   1.299
   63HFIP    F4  748   0.287   1.669   1.423
   63HFIP    F5  749   0.388   1.529   1.319
   63HFIP    F6  750   0.173   1.548   1.277
   63HFIP    C7  751   0.387   1.664   1.069
   63HFIP    F8  752   0.506   1.606   1.089
   63HFIP    F9  753   0.411   1.771   0.989
   63HFIP   F10  754   0.299   1.575   1.011
   63HFIP   H11  755   0.505   1.749   1.284
   63HFIP   H12  756   0.248   1.793   1.175
   64HFIP    O1  757   2.710   2.334   2.649
   64HFIP    C2  758   2.846   2.323   2.671
   64HFIP    C3  759   2.873   2.314   2.822
   64HFIP    F4  760   2.992   2.255   2.856
   64HFIP    F5  761   2.783   2.240   2.890
   64HFIP    F6  762   2.886   2.426   2.896
   64HFIP    C7  763   2.927   2.434   2.610
   64HFIP    F8  764   2.882   2.556   2.645
   64HFIP    F9  765   2.917   2.426   2.474
   64HFIP   F10  766   3.061   2.431   2.635
   64HFIP   H11  767   2.675   2.393   2.722
   64HFIP   H12  768   2.878   2.230   2.626
   65HFIP    O1  769   1.232   2.255   1.968
   65HFIP    C2  770   1.281   2.378   1.987
   65HFIP    C3  771   1.225   2.457   2.115
   65HFIP    F4  772   1.313   2.528   2.184
   65HFIP    F5  773   1.194   2.354   2.206
   65HFIP    F6  774   1.114   2.533   2.083
   65HFIP    C7  775   1.263   2.452   1.857
   65HFIP    F8  776   1.145   2.424   1.802
   65HFIP    F9  777   1.340   2.397   1.763
   65HFIP   F10  778   1.296   2.585   1.856
   65HFIP   H11  779   1.132   2.256   1.973
   65HFIP   H12  780   1.389   2.375   2.005
   66HFIP    O1  781   1.538   2.450   1.003
   66HFIP    C2  782   1.549   2.373   0.890
   66HFIP    C3  783   1.665   2.264   0.899
   66HFIP    F4  784   1.787   2.324   0.903
   66HFIP    F5  785   1.659   2.174   0.795
   66HFIP    F6  786   1.664   2.204   1.019
   66HFIP    C7  787   1.563   2.460   0.764
   66HFIP    F8  788   1.669   2.545   0.756
   66HFIP    F9  789   1.454   2.540   0.752
   66HFIP   F10  790   1.562   2.384   0.648
   66HFIP   H11  791   1.617   2.509   1.016
   66HFIP   H12  792   1.458   2.313   0.881
   67HFIP    O1  793   2.073   1.816   2.440
   67HFIP    C2  794   1.963   1.735   2.431
   67HFIP    C3  795   2.007   1.598   2.495
   67HFIP    F4  796   1.898   1.517   2.507
   67HFIP    F5  797   2.048   1.602   2.623
   67HFIP    F6  798   2.111   1.532   2.430
   67HFIP    C7  799   1.916   1.737   2.288
   67HFIP    F8  800   1.857   1.851   2.255
   67HFIP    F9  801   1.836   1.630   2.252
   67HFIP   F10  802   2.025   1.729   2.201
   67HFIP   H11  803   2.148   1.777   2.387
   67HFIP   H12  804   1.883   1.779   2.490
   68HFIP    O1  805   1.617   2.484   1.499
   68HFIP    C2  806   1.736   2.426   1.538
   68HFIP    C3  807   1.796   2.339   1.418
   68HFIP    F4  808   1.701   2.267   1.354
   68HFIP    F5  809   1.890   2.251   1.460
   68HFIP    F6  810   1.844   2.423   1.320
   68HFIP    C7  811   1.720   2.343   1.670
   68HFIP    F8  812   1.816   2.254   1.704
   68HFIP    F9  813   1.595   2.290   1.661
   68HFIP   F10  814   1.703   2.417   1.782
   68HFIP   H11  815   1.540   2.420   1.493
   68HFIP   H12  816   1.810   2.501   1.567
   69HFIP    O1  817   2.570   2.626   1.585
   69HFIP    C2  818   2.695   2.579   1.632
   69HFIP    C3  819   2.768   2.688   1.721
   69HFIP    F4  820   2.711   2.683   1.841
   69HFIP    F5  821   2.759   2.814   1.681
   69HFIP    F6  822   2.902   2.677   1.743
   69HFIP    C7  823   2.789   2.529   1.530
   69HFIP    F8  824   2.714   2.472   1.429
   69HFIP    F9  825   2.874   2.440   1.577
   69HFIP   F10  826   2.858   2.629   1.470
   69HFIP   H11  827   2.590   2.703   1.525
   69HFIP   H12  828   2.674   2.496   1.699
   70HFIP    O1  829   0.969   2.252   1.952
   70HFIP    C2  830   0.902   2.190   2.054
   70HFIP    C3  831   0.840   2.059   2.009
   70HFIP    F4  832   0.751   2.003   2.090
   70HFIP    F5  833   0.933   1.957   1.996
   70HFIP    F6  834   0.767   2.065   1.890
   70HFIP    C7  835   0.801   2.285   2.117
   70HFIP    F8  836   0.860   2.410   2.129
   70HFIP    F9  837   0.754   2.249   2.236
   70HFIP   F10  838   0.689   2.307   2.040
   70HFIP   H11  839   0.904   2.263   1.876
   70HFIP   H12  840   0.972   2.163   2.133
   71HFIP    O1  841   1.341   2.778   0.891
   71HFIP    C2  842   1.206   2.780   0.925
   71HFIP    C3  843   1.186   2.678   1.039
   71HFIP    F4  844   1.083   2.714   1.125
   71HFIP    F5  845   1.302   2.659   1.105
   71HFIP    F6  846   1.148   2.557   0.989
   71HFIP    C7  847   1.114   2.764   0.803
   71HFIP    F8  848   1.002   2.681   0.822
   71HFIP    F9  849   1.180   2.711   0.696
   71HFIP   F10  850   1.067   2.876   0.746
   71HFIP   H11  851   1.350   2.703   0.826
   71HFIP   H12  852   1.184   2.877   0.971
   72HFIP    O1  853   1.593   0.043   1.013
   72HFIP    C2  854   1.585   0.162   1.076
   72HFIP    C3  855   1.496   0.149   1.203
   72HFIP    F4  856   1.510   0.236   1.306
   72HFIP    F5  857   1.519   0.032   1.265
   72HFIP    F6  858   1.370   0.156   1.165
   72HFIP    C7  859   1.546   0.274   0.979
   72HFIP    F8  860   1.436   0.242   0.907
   72HFIP    F9  861   1.638   0.289   0.879
   72HFIP   F10  862   1.521   0.392   1.029
   72HFIP   H11  863   1.506   0.034   0.964
   72HFIP   H12  864   1.690   0.179   1.102
   73HFIP    O1  865   2.250   0.662   2.424
   73HFIP    C2  866   2.368   0.592   2.439
   73HFIP    C3  867   2.343   0.441   2.448
   73HFIP    F4  868   2.320   0.374   2.334
   73HFIP    F5  869   2.232   0.419   2.526
   73HFIP    F6  870   2.438   0.376   2.513
   73HFIP    C7  871   2.444   0.637   2.575
   73HFIP    F8  872   2.575   0.606   2.586
   73HFIP    F9  873   2.374   0.597   2.687
   73HFIP   F10  874   2.443   0.773   2.580
   73HFIP   H11  875   2.233   0.720   2.504
   73HFIP   H12  876   2.428   0.602   2.349
   74HFIP    O1  877   0.383   0.574   2.151
   74HFIP    C2  878   0.504   0.595   2.094
   74HFIP    C3  879   0.479   0.681   1.970
   74HFIP    F4  880   0.592   0.708   1.895
   74HFIP    F5  881   0.446   0.808   2.009
   74HFIP    F6  882   0.380   0.625   1.895
   74HFIP    C7  883   0.580   0.468   2.061
   74HFIP    F8  884   0.551   0.377   2.158
   74HFIP    F9  885   0.715   0.481   2.060
   74HFIP   F10  886   0.546   0.402   1.943
   74HFIP   H11  887   0.322   0.516   2.098
   74HFIP   H12  888   0.561   0.649   2.170
   75HFIP    O1  889   2.381   0.799   1.337
   75HFIP    C2  890   2.396   0.795   1.479
   75HFIP    C3  891   2.530   0.852   1.529
   75HFIP    F4  892   2.629   0.757   1.512
   75HFIP    F5  893   2.522   0.891   1.659
   75HFIP    F6  894   2.572   0.958   1.461
   75HFIP    C7  895   2.355   0.662   1.545
   75HFIP    F8  896   2.226   0.637   1.531
   75HFIP    F9  897   2.376   0.656   1.679
   75HFIP   F10  898   2.411   0.557   1.479
   75HFIP   H11  899   2.450   0.733   1.310
   75HFIP   H12  900   2.321   0.867   1.511
   76HFIP    O1  901   0.597   1.218   0.817
   76HFIP    C2  902   0.600   1.260   0.949
   76HFIP    C3  903   0.754   1.281   0.988
   76HFIP    F4  904   0.812   1.158   1.008
   76HFIP    F5  905   0.766   1.353   1.100
   76HFIP    F6  906   0.819   1.342   0.883
   76HFIP    C7  907   0.520   1.168   1.047
   76HFIP    F8  908   0.525   1.036   1.003
   76HFIP    F9  909   0.393   1.204   1.039
   76HFIP   F10  910   0.555   1.176   1.178
   76HFIP   H11  911   0.633   1.125   0.821
   76HFIP   H12  912   0.568   1.364   0.958
   77HFIP    O1  913   1.710   2.629   1.056
   77HFIP    C2  914   1.844   2.649   1.093
   77HFIP    C3  915   1.863   2.736   1.222
   77HFIP    F4  916   1.752   2.724   1.299
   77HFIP    F5  917   1.884   2.865   1.184
   77HFIP    F6  918   1.962   2.694   1.298
   77HFIP    C7  919   1.936   2.689   0.974
   77HFIP    F8  920   2.063   2.715   1.011
   77HFIP    F9  921   1.874   2.795   0.914
   77HFIP   F10  922   1.952   2.599   0.874
   77HFIP   H11  923   1.674   2.720   1.036
   77HFIP   H12  924   1.888   2.552   1.118
   78HFIP    O1  925   1.497   0.845   0.402
   78HFIP    C2  926   1.497   0.965   0.327
   78HFIP    C3  927   1.356   1.025   0.332
   78HFIP    F4  928   1.263   0.950   0.268
   78HFIP    F5  929   1.354   1.142   0.268
   78HFIP    F6  930   1.321   1.058   0.458
   78HFIP    C7  931   1.555   0.932   0.186
   78HFIP    F8  932   1.683   0.889   0.195
   78HFIP    F9  933   1.552   1.048   0.115
   78HFIP   F10  934   1.498   0.833   0.118
   78HFIP   H11  935   1.447   0.773   0.354
   78HFIP   H12  936   1.566   1.038   0.371
   79HFIP    O1  937   0.181   0.133   0.810
   79HFIP    C2  938   0.160   0.140   0.669
   79HFIP    C3  939   0.019   0.108   0.619
   79HFIP    F4  940  -0.068   0.182   0.695
   79HFIP    F5  941  -0.015  -0.023   0.638
   79HFIP    F6  942  -0.004   0.150   0.496
   79HFIP    C7  943   0.272   0.065   0.599
   79HFIP    F8  944   0.396   0.111   0.639
   79HFIP    F9  945   0.270   0.081   0.461
   79HFIP   F10  946   0.264  -0.067   0.630
   79HFIP   H11  947   0.160   0.041   0.844
   79HFIP   H12  948   0.172   0.245   0.644
   80HFIP    O1  949   0.757   1.016   0.762
   80HFIP    C2  950   0.727   0.887   0.726
   80HFIP    C3  951   0.851   0.804   0.691
   80HFIP    F4  952   0.951   0.880   0.641
   80HFIP    F5  953   0.845   0.702   0.597
   80HFIP    F6  954   0.906   0.740   0.797
   80HFIP    C7  955   0.612   0.879   0.629
   80HFIP    F8  956   0.579   0.750   0.624
   80HFIP    F9  957   0.644   0.905   0.500
   80HFIP   F10  958   0.503   0.954   0.665
   80HFIP   H11  959   0.801   1.064   0.686
   80HFIP   H12  960   0.700   0.843   0.822
   81HFIP    O1  961   0.178   2.735   0.942
   81HFIP    C2  962   0.108   2.648   1.015
   81HFIP    C3  963  -0.025   2.705   1.073
   81HFIP    F4  964  -0.091   2.606   1.137
   81HFIP    F5  965  -0.089   2.744   0.960
   81HFIP    F6  966   0.000   2.815   1.142
   81HFIP    C7  967   0.203   2.587   1.113
   81HFIP    F8  968   0.256   2.689   1.180
   81HFIP    F9  969   0.312   2.535   1.058
   81HFIP   F10  970   0.152   2.501   1.209
   81HFIP   H11  971   0.273   2.708   0.954
   81HFIP   H12  972   0.081   2.566   0.949
   82HFIP    O1  973   0.652   2.014   1.055
   82HFIP    C2  974   0.695   2.128   0.980
   82HFIP    C3  975   0.728   2.246   1.073
   82HFIP    F4  976   0.795   2.200   1.180
   82HFIP    F5  977   0.610   2.299   1.116
   82HFIP    F6  978   0.809   2.341   1.024
   82HFIP    C7  979   0.591   2.155   0.870
   82HFIP    F8  980   0.585   2.284   0.835
   82HFIP    F9  981   0.469   2.122   0.906
   82HFIP   F10  982   0.619   2.082   0.762
   82HFIP   H11  983   0.565   2.043   1.096
   82HFIP   H12  984   0.787   2.104   0.927
   83HFIP    O1  985   0.438   2.065   1.189
   83HFIP    C2  986   0.325   2.148   1.223
   83HFIP    C3  987   0.272   2.103   1.363
   83HFIP    F4  988   0.185   2.195   1.415
   83HFIP    F5  989   0.375   2.082   1.456
   83HFIP    F6  990   0.200   1.987   1.358
   83HFIP    C7  991   0.216   2.155   1.114
   83HFIP    F8  992   0.200   2.036   1.054
   83HFIP    F9  993   0.250   2.241   1.017
   83HFIP   F10  994   0.093   2.186   1.167
   83HFIP   H11  995   0.425   1.977   1.234
   83HFIP   H12  996   0.357   2.252   1.232
   84HFIP    O1  997   1.476   1.235   0.933
   84HFIP    C2  998   1.559   1.284   0.834
   84HFIP    C3  999   1.498   1.266   0.699
   84HFIP    F4 1000   1.373   1.323   0.688
   84HFIP    F5 1001   1.476   1.134   0.671
   84HFIP    F6 1002   1.570   1.300   0.587
   84HFIP    C7 1003   1.707   1.231   0.850
   84HFIP    F8 1004   1.714   1.102   0.801
   84HFIP    F9 1005   1.747   1.229   0.980
   84HFIP   F10 1006   1.802   1.314   0.792
   84HFIP   H11 1007   1.478   1.135   0.938
   84HFIP   H12 1008   1.559   1.392   0.848
   85HFIP    O1 1009   1.750   0.263   0.081
   85HFIP    C2 1010   1.774   0.393   0.134
   85HFIP    C3 1011   1.855   0.394   0.266
   85HFIP    F4 1012   1.911   0.514   0.293
   85HFIP    F5 1013   1.959   0.307   0.255
   85HFIP    F6 1014   1.788   0.347   0.372
   85HFIP    C7 1015   1.641   0.474   0.155
   85HFIP    F8 1016   1.656   0.587   0.234
   85HFIP    F9 1017   1.549   0.393   0.221
   85HFIP   F10 1018   1.586   0.513   0.030
   85HFIP   H11 1019   1.703   0.211   0.153
   85HFIP   H12 1020   1.841   0.437   0.060
   86HFIP    O1 1021   2.514   0.905   0.268
   86HFIP    C2 1022   2.478   1.035   0.223
   86HFIP    C3 1023   2.460   1.037   0.072
   86HFIP    F4 1024   2.342   0.968   0.047
   86HFIP    F5 1025   2.548   0.949   0.015
   86HFIP    F6 1026   2.454   1.155   0.009
   86HFIP    C7 1027   2.573   1.147   0.285
   86HFIP    F8 1028   2.703   1.112   0.258
   86HFIP    F9 1029   2.559   1.153   0.421
   86HFIP   F10 1030   2.553   1.275   0.247
   86HFIP   H11 1031   2.579   0.864   0.204
   86HFIP   H12 1032   2.382   1.058   0.269
   87HFIP    O1 1033   1.901   1.425   0.155
   87HFIP    C2 1034   1.912   1.291   0.145
   87HFIP    C3 1035   1.919   1.213   0.275
   87HFIP    F4 1036   1.998   1.281   0.363
   87HFIP    F5 1037   1.953   1.085   0.271
   87HFIP    F6 1038   1.796   1.211   0.326
   87HFIP    C7 1039   2.025   1.251   0.035
   87HFIP    F8 1040   2.153   1.258   0.088
   87HFIP    F9 1041   2.010   1.334  -0.070
   87HFIP   F10 1042   2.014   1.128  -0.021
   87HFIP   H11 1043   1.977   1.461   0.100
   87HFIP   H12 1044   1.819   1.264   0.096
   88HFIP    O1 1045   2.457   0.083   1.678
   88HFIP    C2 1046   2.419   0.198   1.750
   88HFIP    C3 1047   2.490   0.208   1.895
   88HFIP    F4 1048   2.458   0.097   1.970
   88HFIP    F5 1049   2.465   0.323   1.958
   88HFIP    F6 1050   2.626   0.202   1.880
   88HFIP    C7 1051   2.268   0.229   1.749
   88HFIP    F8 1052   2.236   0.354   1.784
   88HFIP    F9 1053   2.209   0.149   1.841
   88HFIP   F10 1054   2.215   0.206   1.623
   88HFIP   H11 1055   2.406   0.007   1.719
   88HFIP   H12 1056   2.469   0.279   1.696
   89HFIP    O1 1057   1.238   1.524   1.900
   89HFIP    C2 1058   1.336   1.551   1.808
   89HFIP    C3 1059   1.303   1.471   1.680
   89HFIP    F4 1060   1.407   1.456   1.593
   89HFIP    F5 1061   1.204   1.541   1.615
   89HFIP    F6 1062   1.254   1.350   1.713
   89HFIP    C7 1063   1.485   1.524   1.862
   89HFIP    F8 1064   1.581   1.596   1.798
   89HFIP    F9 1065   1.510   1.391   1.866
   89HFIP   F10 1066   1.491   1.572   1.990
   89HFIP   H11 1067   1.237   1.424   1.914
   89HFIP   H12 1068   1.335   1.658   1.789
   90HFIP    O1 1069   1.323   2.095   1.590
   90HFIP    C2 1070   1.243   1.996   1.549
   90HFIP    C3 1071   1.145   1.945   1.660
   90HFIP    F4 1072   1.050   1.861   1.610
   90HFIP    F5 1073   1.079   2.050   1.717
   90HFIP    F6 1074   1.206   1.881   1.760
   90HFIP    C7 1075   1.326   1.881   1.473
   90HFIP    F8 1076   1.390   1.806   1.566
   90HFIP    F9 1077   1.424   1.945   1.407
   90HFIP   F10 1078   1.252   1.800   1.397
   90HFIP   H11 1079   1.336   2.086   1.689
   90HFIP   H12 1080   1.177   2.035   1.471
   91HFIP    O1 1081   2.717   0.762   0.164
   91HFIP    C2 1082   2.736   0.661   0.071
   91HFIP    C3 1083   2.639   0.547   0.107
   91HFIP    F4 1084   2.653   0.440   0.022
   91HFIP    F5 1085   2.506   0.586   0.112
   91HFIP    F6 1086   2.668   0.504   0.233
   91HFIP    C7 1087   2.885   0.616   0.055
   91HFIP    F8 1088   2.963   0.720   0.091
   91HFIP    F9 1089   2.910   0.590  -0.074
   91HFIP   F10 1090   2.917   0.508   0.123
   91HFIP   H11 1091   2.771   0.739   0.245
   91HFIP   H12 1092   2.704   0.703  -0.025
   92HFIP    O1 1093   2.700   1.782   1.289
   92HFIP    C2 1094   2.606   1.817   1.204
   92HFIP    C3 1095   2.501   1.900   1.277
   92HFIP    F4 1096   2.557   1.979   1.370
   92HFIP    F5 1097   2.409   1.825   1.339
   92HFIP    F6 1098   2.430   1.979   1.188
   92HFIP    C7 1099   2.539   1.689   1.126
   92HFIP    F8 1100   2.416   1.721   1.070
   92HFIP    F9 1101   2.527   1.587   1.217
   92HFIP   F10 1102   2.623   1.648   1.028
   92HFIP   H11 1103   2.660   1.741   1.371
   92HFIP   H12 1104   2.643   1.870   1.117
   93HFIP    O1 1105   2.364   2.656   1.734
   93HFIP    C2 1106   2.252   2.579   1.753
   93HFIP    C3 1107   2.292   2.431   1.784
   93HFIP    F4 1108   2.291   2.408   1.921
   93HFIP    F5 1109   2.419   2.405   1.735
   93HFIP    F6 1110   2.219   2.333   1.732
   93HFIP    C7 1111   2.150   2.600   1.637
   93HFIP    F8 1112   2.034   2.530   1.652
   93HFIP    F9 1113   2.212   2.561   1.524
   93HFIP   F10 1114   2.121   2.733   1.628
   93HFIP   H11 1115   2.432   2.613   1.673
   93HFIP   H12 1116   2.201   2.618   1.842
   94HFIP    O1 1117   2.538   0.015   1.426
   94HFIP    C2 1118   2.507   0.060   1.300
   94HFIP    C3 1119   2.544   0.207   1.272
   94HFIP    F4 1120   2.510   0.266   1.156
   94HFIP    F5 1121   2.678   0.224   1.286
   94HFIP    F6 1122   2.493   0.285   1.370
   94HFIP    C7 1123   2.364   0.021   1.261
   94HFIP    F8 1124   2.351   0.004   1.125
   94HFIP    F9 1125   2.269   0.108   1.298
   94HFIP   F10 1126   2.323  -0.100   1.300
   94HFIP   H11 1127   2.522   0.084   1.498
   94HFIP   H12 1128   2.570   0.006   1.230
   95HFIP    O1 1129   1.390   2.353   1.490
   95HFIP    C2 1130   1.321   2.397   1.375
   95HFIP    C3 1131   1.174   2.434   1.407
   95HFIP    F4 1132   1.172   2.549   1.483
   95HFIP    F5 1133   1.117   2.336   1.483
   95HFIP    F6 1134   1.092   2.451   1.302
   95HFIP    C7 1135   1.336   2.297   1.265
   95HFIP    F8 1136   1.326   2.344   1.137
   95HFIP    F9 1137   1.251   2.191   1.273
   95HFIP   F10 1138   1.461   2.257   1.259
   95HFIP   H11 1139   1.352   2.265   1.520
   95HFIP   H12 1140   1.368   2.489   1.339
   96HFIP    O1 1141   0.731   1.931   0.099
   96HFIP    C2 1142   0.687   1.892   0.226
   96HFIP    C3 1143   0.758   1.940   0.354
   96HFIP    F4 1144   0.737   1.861   0.467
   96HFIP    F5 1145   0.736   2.070   0.392
   96HFIP    F6 1146   0.892   1.937   0.339
   96HFIP    C7 1147   0.687   1.735   0.221
   96HFIP    F8 1148   0.814   1.683   0.244
   96HFIP    F9 1149   0.667   1.694   0.091
   96HFIP   F10 1150   0.602   1.674   0.304
   96HFIP   H11 1151   0.821   1.888   0.095
   96HFIP   H12 1152   0.582   1.923   0.227
   97HFIP    O1 1153   0.650   2.811   0.129
   97HFIP    C2 1154   0.632   2.684   0.181
   97HFIP    C3 1155   0.513   2.603   0.117
   97HFIP    F4 1156   0.521   2.466   0.133
   97HFIP    F5 1157   0.524   2.625  -0.019
   97HFIP    F6 1158   0.389   2.645   0.156
   97HFIP    C7 1159   0.623   2.678   0.341
   97HFIP    F8 1160   0.578   2.556   0.384
   97HFIP    F9 1161   0.539   2.773   0.388
   97HFIP   F10 1162   0.745   2.697   0.400
   97HFIP   H11 1163   0.583   2.871   0.172
   97HFIP   H12 1164   0.719   2.620   0.167
   98HFIP    O1 1165   0.403   1.058   1.790
   98HFIP    C2 1166   0.486   1.084   1.693
   98HFIP    C3 1167   0.629   1.114   1.748
   98HFIP    F4 1168   0.656   1.013   1.833
   98HFIP    F5 1169   0.647   1.231   1.820
   98HFIP    F6 1170   0.726   1.112   1.652
   98HFIP    C7 1171   0.437   1.216   1.616
   98HFIP    F8 1172   0.404   1.308   1.708
   98HFIP    F9 1173   0.326   1.198   1.542
   98HFIP   F10 1174   0.535   1.274   1.538
   98HFIP   H11 1175   0.419   1.124   1.864
   98HFIP   H12 1176   0.503   0.998   1.629
   99HFIP    O1 1177   0.776   0.135   2.763
   99HFIP    C2 1178   0.884   0.068   2.710
   99HFIP    C3 1179   0.834  -0.035   2.607
   99HFIP    F4 1180   0.920  -0.074   2.511
   99HFIP    F5 1181   0.715   0.000   2.551
   99HFIP    F6 1182   0.806  -0.155   2.664
   99HFIP    C7 1183   0.982   0.011   2.817
   99HFIP    F8 1184   0.917  -0.069   2.912
   99HFIP    F9 1185   1.047   0.109   2.889
   99HFIP   F10 1186   1.076  -0.074   2.767
   99HFIP   H11 1187   0.731   0.072   2.826
   99HFIP   H12 1188   0.937   0.140   2.648
  100HFIP    O1 1189   2.715   2.690   2.458
  100HFIP    C2 1190   2.599   2.629   2.420
  100HFIP    C3 1191   2.621   2.583   2.272
  100HFIP    F4 1192   2.529   2.493   2.227
  100HFIP    F5 1193   2.742   2.526   2.257
  100HFIP    F6 1194   2.625   2.682   2.176
  100HFIP    C7 1195   2.467   2.709   2.436
  100HFIP    F8 1196   2.492   2.839   2.399
  100HFIP    F9 1197   2.440   2.713   2.572
  100HFIP   F10 1198   2.368   2.665   2.355
  100HFIP   H11 1199   2.759   2.723   2.374
  100HFIP   H12 1200   2.575   2.545   2.485
  101HFIP    O1 1201   0.745   2.037   2.662
  101HFIP    C2 1202   0.642   2.061   2.572
  101HFIP    C3 1203   0.512   2.086   2.649
  101HFIP    F4 1204   0.481   1.990   2.743
  101HFIP    F5 1205   0.399   2.091   2.576
  101HFIP    F6 1206   0.514   2.203   2.723
  101HFIP    C7 1207   0.642   1.945   2.468
  101HFIP    F8 1208   0.563   1.964   2.360
  101HFIP    F9 1209   0.620   1.822   2.531
  101HFIP   F10 1210   0.769   1.942   2.416
  101HFIP   H11 1211   0.709   1.999   2.747
  101HFIP   H12 1212   0.662   2.152   2.516
  102HFIP    O1 1213   0.979   1.871   0.055
  102HFIP    C2 1214   1.077   1.776   0.068
  102HFIP    C3 1215   1.219   1.850   0.064
  102HFIP    F4 1216   1.276   1.851  -0.064
  102HFIP    F5 1217   1.304   1.780   0.138
  102HFIP    F6 1218   1.209   1.983   0.097
  102HFIP    C7 1219   1.070   1.655  -0.026
  102HFIP    F8 1220   1.181   1.579  -0.021
  102HFIP    F9 1221   1.058   1.686  -0.159
  102HFIP   F10 1222   0.969   1.570   0.011
  102HFIP   H11 1223   1.003   1.930  -0.022
  102HFIP   H12 1224   1.077   1.724   0.164
  103HFIP    O1 1225   2.209   0.352   0.683
  103HFIP    C2 1226   2.256   0.225   0.657
  103HFIP    C3 1227   2.406   0.217   0.679
  103HFIP    F4 1228   2.485   0.290   0.599
  103HFIP    F5 1229   2.449   0.086   0.671
  103HFIP    F6 1230   2.432   0.251   0.807
  103HFIP    C7 1231   2.214   0.192   0.512
  103HFIP    F8 1232   2.265   0.084   0.454
  103HFIP    F9 1233   2.238   0.297   0.427
  103HFIP   F10 1234   2.082   0.167   0.505
  103HFIP   H11 1235   2.258   0.412   0.620
  103HFIP   H12 1236   2.205   0.151   0.719
  104HFIP    O1 1237   2.609   0.732   1.181
  104HFIP    C2 1238   2.627   0.622   1.093
  104HFIP    C3 1239   2.777   0.577   1.094
  104HFIP    F4 1240   2.825   0.573   1.221
  104HFIP    F5 1241   2.865   0.660   1.026
  104HFIP    F6 1242   2.803   0.455   1.040
  104HFIP    C7 1243   2.589   0.648   0.943
  104HFIP    F8 1244   2.658   0.743   0.871
  104HFIP    F9 1245   2.459   0.679   0.938
  104HFIP   F10 1246   2.606   0.545   0.857
  104HFIP   H11 1247   2.655   0.813   1.148
  104HFIP   H12 1248   2.564   0.539   1.126
  105HFIP    O1 1249   1.823   1.079   2.084
  105HFIP    C2 1250   1.749   1.134   2.187
  105HFIP    C3 1251   1.770   1.284   2.199
  105HFIP    F4 1252   1.769   1.333   2.070
  105HFIP    F5 1253   1.893   1.318   2.253
  105HFIP    F6 1254   1.681   1.351   2.273
  105HFIP    C7 1255   1.785   1.053   2.319
  105HFIP    F8 1256   1.723   1.111   2.421
  105HFIP    F9 1257   1.920   1.054   2.336
  105HFIP   F10 1258   1.755   0.919   2.301
  105HFIP   H11 1259   1.916   1.115   2.078
  105HFIP   H12 1260   1.644   1.124   2.162
  106HFIP    O1 1261   0.624   1.288   0.582
  106HFIP    C2 1262   0.546   1.384   0.522
  106HFIP    C3 1263   0.527   1.511   0.604
  106HFIP    F4 1264   0.472   1.610   0.533
  106HFIP    F5 1265   0.647   1.565   0.641
  106HFIP    F6 1266   0.467   1.502   0.727
  106HFIP    C7 1267   0.402   1.332   0.481
  106HFIP    F8 1268   0.395   1.217   0.409
  106HFIP    F9 1269   0.315   1.410   0.415
  106HFIP   F10 1270   0.343   1.293   0.599
  106HFIP   H11 1271   0.591   1.280   0.676
  106HFIP   H12 1272   0.584   1.420   0.427
  107HFIP    O1 1273   0.842   1.162   0.526
  107HFIP    C2 1274   0.949   1.237   0.466
  107HFIP    C3 1275   1.019   1.321   0.572
  107HFIP    F4 1276   0.961   1.440   0.589
  107HFIP    F5 1277   1.149   1.341   0.529
  107HFIP    F6 1278   1.019   1.266   0.695
  107HFIP    C7 1279   0.907   1.304   0.340
  107HFIP    F8 1280   1.011   1.376   0.282
  107HFIP    F9 1281   0.801   1.391   0.348
  107HFIP   F10 1282   0.881   1.219   0.235
  107HFIP   H11 1283   0.760   1.217   0.518
  107HFIP   H12 1284   1.016   1.159   0.431
  108HFIP    O1 1285   2.270   1.204   0.814
  108HFIP    C2 1286   2.233   1.337   0.782
  108HFIP    C3 1287   2.339   1.402   0.688
  108HFIP    F4 1288   2.338   1.334   0.566
  108HFIP    F5 1289   2.465   1.403   0.740
  108HFIP    F6 1290   2.310   1.528   0.640
  108HFIP    C7 1291   2.195   1.419   0.911
  108HFIP    F8 1292   2.286   1.405   1.015
  108HFIP    F9 1293   2.080   1.372   0.965
  108HFIP   F10 1294   2.189   1.553   0.892
  108HFIP   H11 1295   2.339   1.164   0.754
  108HFIP   H12 1296   2.145   1.323   0.720
  109HFIP    O1 1297   1.710   0.244   1.823
  109HFIP    C2 1298   1.805   0.265   1.729
  109HFIP    C3 1299   1.773   0.377   1.641
  109HFIP    F4 1300   1.882   0.415   1.570
  109HFIP    F5 1301   1.725   0.494   1.701
  109HFIP    F6 1302   1.671   0.360   1.551
  109HFIP    C7 1303   1.842   0.131   1.661
  109HFIP    F8 1304   1.870   0.032   1.747
  109HFIP    F9 1305   1.953   0.144   1.578
  109HFIP   F10 1306   1.738   0.083   1.592
  109HFIP   H11 1307   1.633   0.227   1.761
  109HFIP   H12 1308   1.897   0.292   1.782
  110HFIP    O1 1309   2.083   1.178   2.041
  110HFIP    C2 1310   2.143   1.255   1.951
  110HFIP    C3 1311   2.270   1.192   1.880
  110HFIP    F4 1312   2.227   1.067   1.838
  110HFIP    F5 1313   2.360   1.148   1.973
  110HFIP    F6 1314   2.311   1.264   1.779
  110HFIP    C7 1315   2.172   1.404   2.015
  110HFIP    F8 1316   2.250   1.482   1.938
  110HFIP    F9 1317   2.241   1.401   2.131
  110HFIP   F10 1318   2.058   1.467   2.038
  110HFIP   H11 1319   2.154   1.145   2.103
  110HFIP   H12 1320   2.078   1.271   1.865
  111HFIP    O1 1321   0.135   2.097   0.318
  111HFIP    C2 1322   0.167   2.126   0.451
  111HFIP    C3 1323   0.129   2.266   0.497
  111HFIP    F4 1324   0.157   2.364   0.406
  111HFIP    F5 1325   0.178   2.309   0.619
  111HFIP    F6 1326  -0.005   2.276   0.514
  111HFIP    C7 1327   0.313   2.088   0.490
  111HFIP    F8 1328   0.355   1.974   0.438
  111HFIP    F9 1329   0.310   2.072   0.623
  111HFIP   F10 1330   0.398   2.186   0.460
  111HFIP   H11 1331   0.140   2.185   0.269
  111HFIP   H12 1332   0.104   2.068   0.519
  112HFIP    O1 1333   2.646   1.651   0.633
  112HFIP    C2 1334   2.763   1.592   0.674
  112HFIP    C3 1335   2.868   1.707   0.703
  112HFIP    F4 1336   2.816   1.791   0.798
  112HFIP    F5 1337   2.897   1.785   0.592
  112HFIP    F6 1338   2.985   1.660   0.757
  112HFIP    C7 1339   2.803   1.481   0.571
  112HFIP    F8 1340   2.709   1.388   0.539
  112HFIP    F9 1341   2.915   1.411   0.613
  112HFIP   F10 1342   2.824   1.540   0.452
  112HFIP   H11 1343   2.652   1.690   0.541
  112HFIP   H12 1344   2.747   1.537   0.768
  113HFIP    O1 1345   0.299   1.624   2.206
  113HFIP    C2 1346   0.228   1.738   2.252
  113HFIP    C3 1347   0.227   1.738   2.408
  113HFIP    F4 1348   0.159   1.638   2.462
  113HFIP    F5 1349   0.209   1.855   2.472
  113HFIP    F6 1350   0.354   1.710   2.448
  113HFIP    C7 1351   0.078   1.750   2.199
  113HFIP    F8 1352   0.070   1.749   2.065
  113HFIP    F9 1353   0.011   1.859   2.241
  113HFIP   F10 1354  -0.009   1.650   2.225
  113HFIP   H11 1355   0.352   1.584   2.282
  113HFIP   H12 1356   0.290   1.822   2.220
  114HFIP    O1 1357   2.416   2.225   0.817
  114HFIP    C2 1358   2.520   2.149   0.775
  114HFIP    C3 1359   2.478   2.011   0.745
  114HFIP    F4 1360   2.387   2.000   0.645
  114HFIP    F5 1361   2.415   1.949   0.849
  114HFIP    F6 1362   2.583   1.931   0.707
  114HFIP    C7 1363   2.638   2.161   0.881
  114HFIP    F8 1364   2.753   2.122   0.823
  114HFIP    F9 1365   2.635   2.081   0.995
  114HFIP   F10 1366   2.651   2.286   0.927
  114HFIP   H11 1367   2.377   2.174   0.893
  114HFIP   H12 1368   2.554   2.188   0.679
  115HFIP    O1 1369   2.744   2.795   2.705
  115HFIP    C2 1370   2.824   2.904   2.732
  115HFIP    C3 1371   2.850   2.979   2.603
  115HFIP    F4 1372   2.901   3.104   2.627
  115HFIP    F5 1373   2.746   2.990   2.516
  115HFIP    F6 1374   2.934   2.907   2.523
  115HFIP    C7 1375   2.948   2.859   2.810
  115HFIP    F8 1376   3.012   2.970   2.858
  115HFIP    F9 1377   3.053   2.796   2.746
  115HFIP   F10 1378   2.901   2.790   2.917
  115HFIP   H11 1379   2.768   2.755   2.616
  115HFIP   H12 1380   2.765   2.975   2.791
  116HFIP    O1 1381   1.808   2.744   0.201
  116HFIP    C2 1382   1.918   2.696   0.267
  116HFIP    C3 1383   2.042   2.685   0.178
  116HFIP    F4 1384   2.161   2.671   0.248
  116HFIP    F5 1385   2.051   2.802   0.106
  116HFIP    F6 1386   2.023   2.586   0.086
  116HFIP    C7 1387   1.883   2.564   0.344
  116HFIP    F8 1388   1.790   2.582   0.437
  116HFIP    F9 1389   1.986   2.493   0.397
  116HFIP   F10 1390   1.822   2.474   0.260
  116HFIP   H11 1391   1.803   2.700   0.112
  116HFIP   H12 1392   1.938   2.776   0.338
  117HFIP    O1 1393   2.679   1.778   0.414
  117HFIP    C2 1394   2.550   1.804   0.380
  117HFIP    C3 1395   2.484   1.696   0.286
  117HFIP    F4 1396   2.361   1.716   0.232
  117HFIP    F5 1397   2.475   1.582   0.356
  117HFIP    F6 1398   2.570   1.679   0.185
  117HFIP    C7 1399   2.531   1.946   0.320
  117HFIP    F8 1400   2.581   1.958   0.197
  117HFIP    F9 1401   2.594   2.042   0.395
  117HFIP   F10 1402   2.397   1.977   0.326
  117HFIP   H11 1403   2.740   1.820   0.347
  117HFIP   H12 1404   2.489   1.800   0.470
  118HFIP    O1 1405   2.567   1.844   1.702
  118HFIP    C2 1406   2.655   1.912   1.791
  118HFIP    C3 1407   2.588   2.019   1.878
  118HFIP    F4 1408   2.487   1.952   1.935
  118HFIP    F5 1409   2.532   2.121   1.804
  118HFIP    F6 1410   2.668   2.067   1.979
  118HFIP    C7 1411   2.772   1.964   1.694
  118HFIP    F8 1412   2.870   2.021   1.774
  118HFIP    F9 1413   2.734   2.054   1.606
  118HFIP   F10 1414   2.832   1.868   1.626
  118HFIP   H11 1415   2.481   1.894   1.712
  118HFIP   H12 1416   2.701   1.837   1.856
  119HFIP    O1 1417   2.583   2.473   0.024
  119HFIP    C2 1418   2.474   2.389   0.048
  119HFIP    C3 1419   2.342   2.428  -0.024
  119HFIP    F4 1420   2.235   2.343  -0.002
  119HFIP    F5 1421   2.365   2.438  -0.157
  119HFIP    F6 1422   2.325   2.556   0.006
  119HFIP    C7 1423   2.465   2.367   0.201
  119HFIP    F8 1424   2.591   2.341   0.240
  119HFIP    F9 1425   2.387   2.260   0.228
  119HFIP   F10 1426   2.412   2.472   0.269
  119HFIP   H11 1427   2.565   2.551   0.083
  119HFIP   H12 1428   2.507   2.292   0.012
  120HFIP    O1 1429   0.029   1.858   0.213
  120HFIP    C2 1430   0.096   1.760   0.142
  120HFIP    C3 1431   0.249   1.767   0.166
  120HFIP    F4 1432   0.301   1.888   0.130
  120HFIP    F5 1433   0.305   1.662   0.098
  120HFIP    F6 1434   0.272   1.751   0.302
  120HFIP    C7 1435   0.068   1.776  -0.008
  120HFIP    F8 1436   0.112   1.892  -0.060
  120HFIP    F9 1437  -0.066   1.799  -0.032
  120HFIP   F10 1438   0.095   1.662  -0.080
  120HFIP   H11 1439   0.094   1.934   0.219
  120HFIP   H12 1440   0.057   1.659   0.158
  121HFIP    O1 1441   0.436   1.505   2.024
  121HFIP    C2 1442   0.526   1.576   1.946
  121HFIP    C3 1443   0.640   1.627   2.038
  121HFIP    F4 1444   0.723   1.525   2.067
  121HFIP    F5 1445   0.603   1.651   2.165
  121HFIP    F6 1446   0.713   1.732   1.995
  121HFIP    C7 1447   0.449   1.688   1.866
  121HFIP    F8 1448   0.522   1.761   1.778
  121HFIP    F9 1449   0.390   1.766   1.959
  121HFIP   F10 1450   0.350   1.631   1.797
  121HFIP   H11 1451   0.377   1.569   2.074
  121HFIP   H12 1452   0.566   1.508   1.871
  122HFIP    O1 1453   0.983   2.077   2.698
  122HFIP    C2 1454   1.057   2.197   2.687
  122HFIP    C3 1455   0.961   2.323   2.673
  122HFIP    F4 1456   0.888   2.314   2.563
  122HFIP    F5 1457   1.019   2.446   2.671
  122HFIP    F6 1458   0.870   2.320   2.771
  122HFIP    C7 1459   1.171   2.192   2.572
  122HFIP    F8 1460   1.278   2.127   2.629
  122HFIP    F9 1461   1.220   2.310   2.525
  122HFIP   F10 1462   1.139   2.104   2.472
  122HFIP   H11 1463   0.891   2.099   2.666
  122HFIP   H12 1464   1.102   2.205   2.786
  123HFIP    O1 1465   2.289   1.771   1.657
  123HFIP    C2 1466   2.173   1.820   1.609
  123HFIP    C3 1467   2.157   1.975   1.627
  123HFIP    F4 1468   2.235   2.026   1.728
  123HFIP    F5 1469   2.034   2.022   1.662
  123HFIP    F6 1470   2.189   2.042   1.514
  123HFIP    C7 1471   2.049   1.736   1.656
  123HFIP    F8 1472   1.952   1.733   1.562
  123HFIP    F9 1473   1.993   1.776   1.770
  123HFIP   F10 1474   2.094   1.609   1.666
  123HFIP   H11 1475   2.269   1.686   1.705
  123HFIP   H12 1476   2.178   1.809   1.501
  124HFIP    O1 1477   2.577   2.722   0.104
  124HFIP    C2 1478   2.503   2.823   0.170
  124HFIP    C3 1479   2.440   2.922   0.067
  124HFIP    F4 1480   2.511   2.964  -0.041
  124HFIP    F5 1481   2.397   3.043   0.109
  124HFIP    F6 1482   2.327   2.872   0.013
  124HFIP    C7 1483   2.599   2.899   0.269
  124HFIP    F8 1484   2.529   2.957   0.371
  124HFIP    F9 1485   2.677   2.998   0.218
  124HFIP   F10 1486   2.687   2.811   0.327
  124HFIP   H11 1487   2.612   2.760   0.019
  124HFIP   H12 1488   2.421   2.780   0.229
  125HFIP    O1 1489   0.420   1.217   1.994
  125HFIP    C2 1490   0.399   1.160   2.114
  125HFIP    C3 1491   0.290   1.226   2.198
  125HFIP    F4 1492   0.256   1.157   2.308
  125HFIP    F5 1493   0.175   1.238   2.125
  125HFIP    F6 1494   0.309   1.354   2.239
  125HFIP    C7 1495   0.534   1.163   2.204
  125HFIP    F8 1496   0.525   1.122   2.334
  125HFIP    F9 1497   0.592   1.285   2.204
  125HFIP   F10 1498   0.635   1.095   2.146
  125HFIP   H11 1499   0.483   1.293   2.012
  125HFIP   H12 1500   0.369   1.057   2.093
   2.81420   2.81420   2.81420
