HFIP published-force-field qualification
 1500
    1HFIP    O1    1   0.476   0.385   0.241
    1HFIP    C2    2   0.406   0.377   0.360
    1HFIP    C3    3   0.376   0.230   0.397
    1HFIP    F4    4   0.492   0.161   0.412
    1HFIP    F5    5   0.306   0.167   0.299
    1HFIP    F6    6   0.307   0.215   0.513
    1HFIP    C7    7   0.275   0.459   0.352
    1HFIP    F8    8   0.195   0.417   0.250
    1HFIP    F9    9   0.301   0.589   0.328
    1HFIP   F10   10   0.201   0.456   0.467
    1HFIP   H11   11   0.421   0.346   0.167
    1HFIP   H12   12   0.468   0.420   0.438
    2HFIP    O1   13   0.339   0.219   1.160
    2HFIP    C2   14   0.374   0.297   1.052
    2HFIP    C3   15   0.459   0.418   1.096
    2HFIP    F4   16   0.573   0.377   1.157
    2HFIP    F5   17   0.392   0.495   1.186
    2HFIP    F6   18   0.498   0.498   0.993
    2HFIP    C7   19   0.249   0.342   0.973
    2HFIP    F8   20   0.164   0.413   1.052
    2HFIP    F9   21   0.181   0.235   0.927
    2HFIP   F10   22   0.278   0.419   0.865
    2HFIP   H11   23   0.282   0.273   1.223
    2HFIP   H12   24   0.436   0.236   0.986
    3HFIP    O1   25   0.355   0.522   1.764
    3HFIP    C2   26   0.330   0.393   1.722
    3HFIP    C3   27   0.242   0.317   1.824
    3HFIP    F4   28   0.123   0.379   1.840
    3HFIP    F5   29   0.300   0.313   1.947
    3HFIP    F6   30   0.213   0.189   1.787
    3HFIP    C7   31   0.462   0.316   1.696
    3HFIP    F8   32   0.540   0.312   1.807
    3HFIP    F9   33   0.535   0.378   1.600
    3HFIP   F10   34   0.444   0.188   1.654
    3HFIP   H11   35   0.405   0.519   1.850
    3HFIP   H12   36   0.275   0.398   1.628
    4HFIP    O1   37   0.420   0.410   2.319
    4HFIP    C2   38   0.406   0.375   2.452
    4HFIP    C3   39   0.381   0.223   2.468
    4HFIP    F4   40   0.486   0.153   2.417
    4HFIP    F5   41   0.271   0.183   2.400
    4HFIP    F6   42   0.368   0.183   2.598
    4HFIP    C7   43   0.292   0.455   2.519
    4HFIP    F8   44   0.173   0.437   2.456
    4HFIP    F9   45   0.318   0.588   2.512
    4HFIP   F10   46   0.274   0.427   2.651
    4HFIP   H11   47   0.335   0.387   2.270
    4HFIP   H12   48   0.499   0.400   2.502
    5HFIP    O1   49   0.210   0.389   3.083
    5HFIP    C2   50   0.344   0.370   3.111
    5HFIP    C3   51   0.372   0.223   3.148
    5HFIP    F4   52   0.338   0.140   3.045
    5HFIP    F5   53   0.297   0.183   3.255
    5HFIP    F6   54   0.502   0.197   3.177
    5HFIP    C7   55   0.390   0.465   3.224
    5HFIP    F8   56   0.318   0.447   3.338
    5HFIP    F9   57   0.373   0.594   3.187
    5HFIP   F10   58   0.522   0.451   3.257
    5HFIP   H11   59   0.156   0.368   3.164
    5HFIP   H12   60   0.401   0.394   3.022
    6HFIP    O1   61   0.218   1.100   0.257
    6HFIP    C2   62   0.342   1.105   0.319
    6HFIP    C3   63   0.432   0.989   0.271
    6HFIP    F4   64   0.451   0.995   0.137
    6HFIP    F5   65   0.374   0.868   0.295
    6HFIP    F6   66   0.555   0.987   0.328
    6HFIP    C7   67   0.328   1.103   0.473
    6HFIP    F8   68   0.260   0.993   0.515
    6HFIP    F9   69   0.255   1.210   0.515
    6HFIP   F10   70   0.446   1.108   0.539
    6HFIP   H11   71   0.172   1.014   0.282
    6HFIP   H12   72   0.389   1.198   0.290
    7HFIP    O1   73   0.230   1.090   1.169
    7HFIP    C2   74   0.333   1.108   1.079
    7HFIP    C3   75   0.294   1.060   0.938
    7HFIP    F4   76   0.187   1.131   0.892
    7HFIP    F5   77   0.256   0.929   0.937
    7HFIP    F6   78   0.391   1.076   0.845
    7HFIP    C7   79   0.461   1.035   1.127
    7HFIP    F8   80   0.439   0.902   1.145
    7HFIP    F9   81   0.501   1.083   1.248
    7HFIP   F10   82   0.567   1.049   1.043
    7HFIP   H11   83   0.208   0.993   1.175
    7HFIP   H12   84   0.355   1.214   1.074
    8HFIP    O1   85   0.483   1.080   1.654
    8HFIP    C2   86   0.401   1.024   1.751
    8HFIP    C3   87   0.264   0.985   1.691
    8HFIP    F4   88   0.278   0.895   1.591
    8HFIP    F5   89   0.201   1.093   1.637
    8HFIP    F6   90   0.179   0.929   1.781
    8HFIP    C7   91   0.384   1.119   1.871
    8HFIP    F8   92   0.333   1.239   1.834
    8HFIP    F9   93   0.505   1.145   1.929
    8HFIP   F10   94   0.305   1.069   1.970
    8HFIP   H11   95   0.441   1.164   1.620
    8HFIP   H12   96   0.449   0.932   1.786
    9HFIP    O1   97   0.311   1.197   2.378
    9HFIP    C2   98   0.299   1.076   2.444
    9HFIP    C3   99   0.344   1.088   2.591
    9HFIP    F4  100   0.267   1.179   2.657
    9HFIP    F5  101   0.473   1.132   2.601
    9HFIP    F6  102   0.334   0.972   2.662
    9HFIP    C7  103   0.379   0.966   2.372
    9HFIP    F8  104   0.511   0.997   2.361
    9HFIP    F9  105   0.333   0.949   2.245
    9HFIP   F10  106   0.371   0.844   2.431
    9HFIP   H11  107   0.407   1.225   2.378
    9HFIP   H12  108   0.194   1.048   2.443
   10HFIP    O1  109   0.411   0.917   3.245
   10HFIP    C2  110   0.399   1.021   3.155
   10HFIP    C3  111   0.411   1.158   3.227
   10HFIP    F4  112   0.532   1.168   3.288
   10HFIP    F5  113   0.317   1.172   3.324
   10HFIP    F6  114   0.401   1.265   3.144
   10HFIP    C7  115   0.266   1.013   3.077
   10HFIP    F8  116   0.159   1.014   3.161
   10HFIP    F9  117   0.260   0.897   3.007
   10HFIP   F10  118   0.249   1.112   2.986
   10HFIP   H11  119   0.337   0.922   3.312
   10HFIP   H12  120   0.481   1.013   3.084
   11HFIP    O1  121   0.436   1.717   0.493
   11HFIP    C2  122   0.408   1.740   0.360
   11HFIP    C3  123   0.374   1.889   0.335
   11HFIP    F4  124   0.479   1.968   0.370
   11HFIP    F5  125   0.268   1.930   0.410
   11HFIP    F6  126   0.346   1.918   0.205
   11HFIP    C7  127   0.293   1.649   0.311
   11HFIP    F8  128   0.180   1.667   0.385
   11HFIP    F9  129   0.327   1.518   0.325
   11HFIP   F10  130   0.260   1.666   0.180
   11HFIP   H11  131   0.356   1.740   0.549
   11HFIP   H12  132   0.497   1.715   0.302
   12HFIP    O1  133   0.408   1.725   0.899
   12HFIP    C2  134   0.347   1.790   1.005
   12HFIP    C3  135   0.450   1.826   1.115
   12HFIP    F4  136   0.546   1.908   1.066
   12HFIP    F5  137   0.512   1.715   1.163
   12HFIP    F6  138   0.396   1.891   1.221
   12HFIP    C7  139   0.231   1.706   1.063
   12HFIP    F8  140   0.274   1.584   1.105
   12HFIP    F9  141   0.138   1.683   0.967
   12HFIP   F10  142   0.166   1.766   1.166
   12HFIP   H11  143   0.448   1.639   0.933
   12HFIP   H12  144   0.306   1.884   0.966
   13HFIP    O1  145   0.479   1.713   1.863
   13HFIP    C2  146   0.384   1.791   1.799
   13HFIP    C3  147   0.241   1.741   1.829
   13HFIP    F4  148   0.216   1.746   1.963
   13HFIP    F5  149   0.224   1.611   1.791
   13HFIP    F6  150   0.143   1.814   1.770
   13HFIP    C7  151   0.410   1.796   1.647
   13HFIP    F8  152   0.409   1.671   1.592
   13HFIP    F9  153   0.532   1.849   1.621
   13HFIP   F10  154   0.320   1.872   1.578
   13HFIP   H11  155   0.472   1.619   1.829
   13HFIP   H12  156   0.393   1.893   1.838
   14HFIP    O1  157   0.371   1.927   2.439
   14HFIP    C2  158   0.317   1.806   2.479
   14HFIP    C3  159   0.409   1.734   2.580
   14HFIP    F4  160   0.428   1.812   2.690
   14HFIP    F5  161   0.533   1.712   2.528
   14HFIP    F6  162   0.361   1.615   2.624
   14HFIP    C7  163   0.288   1.715   2.357
   14HFIP    F8  164   0.401   1.691   2.285
   14HFIP    F9  165   0.200   1.774   2.273
   14HFIP   F10  166   0.234   1.594   2.390
   14HFIP   H11  167   0.458   1.910   2.392
   14HFIP   H12  168   0.222   1.827   2.528
   15HFIP    O1  169   0.247   1.885   3.122
   15HFIP    C2  170   0.362   1.811   3.138
   15HFIP    C3  171   0.350   1.673   3.068
   15HFIP    F4  172   0.327   1.689   2.935
   15HFIP    F5  173   0.244   1.602   3.116
   15HFIP    F6  174   0.460   1.595   3.079
   15HFIP    C7  175   0.397   1.793   3.287
   15HFIP    F8  176   0.295   1.733   3.356
   15HFIP    F9  177   0.416   1.914   3.346
   15HFIP   F10  178   0.510   1.721   3.310
   15HFIP   H11  179   0.170   1.837   3.165
   15HFIP   H12  180   0.444   1.865   3.090
   16HFIP    O1  181   0.255   2.333   0.399
   16HFIP    C2  182   0.342   2.411   0.326
   16HFIP    C3  183   0.470   2.442   0.407
   16HFIP    F4  184   0.534   2.328   0.441
   16HFIP    F5  185   0.441   2.506   0.524
   16HFIP    F6  186   0.560   2.518   0.340
   16HFIP    C7  187   0.274   2.541   0.279
   16HFIP    F8  188   0.227   2.614   0.384
   16HFIP    F9  189   0.167   2.513   0.201
   16HFIP   F10  190   0.355   2.623   0.206
   16HFIP   H11  191   0.226   2.383   0.481
   16HFIP   H12  192   0.371   2.354   0.238
   17HFIP    O1  193   0.211   2.428   0.968
   17HFIP    C2  194   0.344   2.447   0.999
   17HFIP    C3  195   0.390   2.349   1.110
   17HFIP    F4  196   0.374   2.221   1.069
   17HFIP    F5  197   0.316   2.364   1.223
   17HFIP    F6  198   0.521   2.362   1.145
   17HFIP    C7  199   0.372   2.593   1.041
   17HFIP    F8  200   0.296   2.631   1.147
   17HFIP    F9  201   0.340   2.678   0.939
   17HFIP   F10  202   0.502   2.618   1.072
   17HFIP   H11  203   0.155   2.448   1.049
   17HFIP   H12  204   0.403   2.426   0.910
   18HFIP    O1  205   0.437   2.326   1.812
   18HFIP    C2  206   0.393   2.431   1.732
   18HFIP    C3  207   0.425   2.567   1.798
   18HFIP    F4  208   0.559   2.581   1.816
   18HFIP    F5  209   0.368   2.578   1.921
   18HFIP    F6  210   0.385   2.674   1.724
   18HFIP    C7  211   0.242   2.419   1.702
   18HFIP    F8  212   0.168   2.415   1.816
   18HFIP    F9  213   0.216   2.302   1.637
   18HFIP   F10  214   0.193   2.518   1.624
   18HFIP   H11  215   0.389   2.329   1.899
   18HFIP   H12  216   0.447   2.426   1.638
   19HFIP    O1  217   0.192   2.458   2.409
   19HFIP    C2  218   0.315   2.507   2.444
   19HFIP    C3  219   0.427   2.445   2.357
   19HFIP    F4  220   0.406   2.474   2.226
   19HFIP    F5  221   0.429   2.310   2.366
   19HFIP    F6  222   0.551   2.491   2.386
   19HFIP    C7  223   0.344   2.483   2.594
   19HFIP    F8  224   0.338   2.350   2.626
   19HFIP    F9  225   0.251   2.544   2.672
   19HFIP   F10  226   0.465   2.529   2.636
   19HFIP   H11  227   0.189   2.359   2.424
   19HFIP   H12  228   0.315   2.615   2.427
   20HFIP    O1  229   0.320   2.504   3.006
   20HFIP    C2  230   0.333   2.515   3.143
   20HFIP    C3  231   0.479   2.492   3.187
   20HFIP    F4  232   0.561   2.585   3.130
   20HFIP    F5  233   0.526   2.371   3.148
   20HFIP    F6  234   0.498   2.502   3.322
   20HFIP    C7  235   0.238   2.417   3.215
   20HFIP    F8  236   0.262   2.288   3.178
   20HFIP    F9  237   0.109   2.442   3.183
   20HFIP   F10  238   0.245   2.423   3.351
   20HFIP   H11  239   0.347   2.411   2.977
   20HFIP   H12  240   0.304   2.616   3.171
   21HFIP    O1  241   0.388   3.279   0.475
   21HFIP    C2  242   0.397   3.170   0.391
   21HFIP    C3  243   0.412   3.214   0.244
   21HFIP    F4  244   0.525   3.289   0.229
   21HFIP    F5  245   0.308   3.292   0.204
   21HFIP    F6  246   0.423   3.111   0.156
   21HFIP    C7  247   0.275   3.076   0.407
   21HFIP    F8  248   0.158   3.141   0.383
   21HFIP    F9  249   0.267   3.030   0.535
   21HFIP   F10  250   0.278   2.966   0.328
   21HFIP   H11  251   0.306   3.332   0.452
   21HFIP   H12  252   0.486   3.114   0.419
   22HFIP    O1  253   0.349   3.324   1.123
   22HFIP    C2  254   0.394   3.199   1.084
   22HFIP    C3  255   0.389   3.183   0.930
   22HFIP    F4  256   0.467   3.277   0.870
   22HFIP    F5  257   0.263   3.202   0.882
   22HFIP    F6  258   0.433   3.063   0.885
   22HFIP    C7  259   0.314   3.087   1.153
   22HFIP    F8  260   0.181   3.096   1.126
   22HFIP    F9  261   0.326   3.095   1.288
   22HFIP   F10  262   0.354   2.961   1.119
   22HFIP   H11  263   0.254   3.335   1.095
   22HFIP   H12  264   0.499   3.190   1.115
   23HFIP    O1  265   0.200   3.204   1.694
   23HFIP    C2  266   0.318   3.138   1.721
   23HFIP    C3  267   0.327   3.100   1.870
   23HFIP    F4  268   0.224   3.019   1.906
   23HFIP    F5  269   0.319   3.210   1.950
   23HFIP    F6  270   0.441   3.033   1.904
   23HFIP    C7  271   0.440   3.222   1.678
   23HFIP    F8  272   0.442   3.343   1.740
   23HFIP    F9  273   0.436   3.248   1.544
   23HFIP   F10  274   0.560   3.162   1.701
   23HFIP   H11  275   0.197   3.289   1.746
   23HFIP   H12  276   0.319   3.045   1.663
   24HFIP    O1  277   0.394   3.311   2.544
   24HFIP    C2  278   0.344   3.225   2.448
   24HFIP    C3  279   0.230   3.138   2.505
   24HFIP    F4  280   0.128   3.216   2.549
   24HFIP    F5  281   0.272   3.065   2.613
   24HFIP    F6  282   0.176   3.051   2.416
   24HFIP    C7  283   0.457   3.136   2.390
   24HFIP    F8  284   0.519   3.063   2.486
   24HFIP    F9  285   0.552   3.213   2.332
   24HFIP   F10  286   0.414   3.050   2.294
   24HFIP   H11  287   0.432   3.258   2.620
   24HFIP   H12  288   0.304   3.285   2.367
   25HFIP    O1  289   0.275   3.295   3.086
   25HFIP    C2  290   0.295   3.185   3.167
   25HFIP    C3  291   0.391   3.217   3.284
   25HFIP    F4  292   0.340   3.317   3.361
   25HFIP    F5  293   0.512   3.261   3.239
   25HFIP    F6  294   0.413   3.112   3.367
   25HFIP    C7  295   0.347   3.065   3.085
   25HFIP    F8  296   0.464   3.095   3.022
   25HFIP    F9  297   0.259   3.031   2.988
   25HFIP   F10  298   0.368   2.953   3.159
   25HFIP   H11  299   0.363   3.324   3.046
   25HFIP   H12  300   0.198   3.157   3.209
   26HFIP    O1  301   1.181   0.417   0.257
   26HFIP    C2  302   1.103   0.387   0.367
   26HFIP    C3  303   1.099   0.234   0.392
   26HFIP    F4  304   1.225   0.187   0.416
   26HFIP    F5  305   1.053   0.166   0.284
   26HFIP    F6  306   1.024   0.198   0.500
   26HFIP    C7  307   0.959   0.442   0.350
   26HFIP    F8  308   0.900   0.393   0.237
   26HFIP    F9  309   0.962   0.577   0.337
   26HFIP   F10  310   0.877   0.416   0.455
   26HFIP   H11  311   1.142   0.374   0.176
   26HFIP   H12  312   1.147   0.434   0.454
   27HFIP    O1  313   0.950   0.243   1.133
   27HFIP    C2  314   1.059   0.326   1.109
   27HFIP    C3  315   1.015   0.472   1.091
   27HFIP    F4  316   0.951   0.517   1.202
   27HFIP    F5  317   0.926   0.486   0.988
   27HFIP    F6  318   1.117   0.559   1.068
   27HFIP    C7  319   1.140   0.277   0.987
   27HFIP    F8  320   1.063   0.272   0.875
   27HFIP    F9  321   1.187   0.151   1.008
   27HFIP   F10  322   1.249   0.354   0.959
   27HFIP   H11  323   0.889   0.246   1.054
   27HFIP   H12  324   1.123   0.321   1.197
   28HFIP    O1  325   1.223   0.336   1.785
   28HFIP    C2  326   1.093   0.306   1.751
   28HFIP    C3  327   1.043   0.397   1.636
   28HFIP    F4  328   1.120   0.381   1.526
   28HFIP    F5  329   1.051   0.528   1.670
   28HFIP    F6  330   0.915   0.372   1.597
   28HFIP    C7  331   0.999   0.316   1.873
   28HFIP    F8  332   1.002   0.440   1.929
   28HFIP    F9  333   1.038   0.228   1.970
   28HFIP   F10  334   0.869   0.286   1.845
   28HFIP   H11  335   1.228   0.430   1.818
   28HFIP   H12  336   1.091   0.203   1.715
   29HFIP    O1  337   1.041   0.187   2.503
   29HFIP    C2  338   1.092   0.315   2.494
   29HFIP    C3  339   0.999   0.417   2.564
   29HFIP    F4  340   0.986   0.387   2.695
   29HFIP    F5  341   0.874   0.416   2.510
   29HFIP    F6  342   1.045   0.545   2.559
   29HFIP    C7  343   1.116   0.355   2.347
   29HFIP    F8  344   1.002   0.348   2.273
   29HFIP    F9  345   1.205   0.270   2.288
   29HFIP   F10  346   1.167   0.480   2.331
   29HFIP   H11  347   0.953   0.183   2.456
   29HFIP   H12  348   1.188   0.317   2.545
   30HFIP    O1  349   1.163   0.469   3.228
   30HFIP    C2  350   1.108   0.346   3.197
   30HFIP    C3  351   1.095   0.328   3.044
   30HFIP    F4  352   1.217   0.336   2.985
   30HFIP    F5  353   1.020   0.427   2.989
   30HFIP    F6  354   1.042   0.209   3.006
   30HFIP    C7  355   0.970   0.328   3.265
   30HFIP    F8  356   0.883   0.426   3.230
   30HFIP    F9  357   0.984   0.334   3.401
   30HFIP   F10  358   0.911   0.208   3.239
   30HFIP   H11  359   1.103   0.542   3.195
   30HFIP   H12  360   1.175   0.269   3.234
   31HFIP    O1  361   0.963   0.994   0.479
   31HFIP    C2  362   1.037   1.081   0.402
   31HFIP    C3  363   0.970   1.106   0.265
   31HFIP    F4  364   0.846   1.160   0.282
   31HFIP    F5  365   0.952   0.990   0.196
   31HFIP    F6  366   1.038   1.192   0.185
   31HFIP    C7  367   1.181   1.030   0.384
   31HFIP    F8  368   1.184   0.907   0.326
   31HFIP    F9  369   1.243   1.017   0.504
   31HFIP   F10  370   1.260   1.112   0.310
   31HFIP   H11  371   0.957   0.906   0.432
   31HFIP   H12  372   1.041   1.176   0.455
   32HFIP    O1  373   0.972   1.096   1.198
   32HFIP    C2  374   1.026   1.105   1.071
   32HFIP    C3  375   0.969   0.995   0.978
   32HFIP    F4  376   0.834   1.008   0.968
   32HFIP    F5  377   0.992   0.871   1.028
   32HFIP    F6  378   1.017   1.000   0.851
   32HFIP    C7  379   1.180   1.098   1.075
   32HFIP    F8  380   1.223   0.983   1.133
   32HFIP    F9  381   1.230   1.200   1.150
   32HFIP   F10  382   1.239   1.108   0.953
   32HFIP   H11  383   0.996   1.007   1.237
   32HFIP   H12  384   0.997   1.202   1.029
   33HFIP    O1  385   0.897   1.011   1.723
   33HFIP    C2  386   1.004   1.081   1.774
   33HFIP    C3  387   1.094   1.135   1.661
   33HFIP    F4  388   1.024   1.218   1.579
   33HFIP    F5  389   1.141   1.034   1.582
   33HFIP    F6  390   1.202   1.206   1.705
   33HFIP    C7  391   1.085   0.994   1.873
   33HFIP    F8  392   1.130   0.880   1.814
   33HFIP    F9  393   1.007   0.955   1.977
   33HFIP   F10  394   1.192   1.058   1.928
   33HFIP   H11  395   0.930   0.932   1.672
   33HFIP   H12  396   0.964   1.167   1.829
   34HFIP    O1  397   1.192   1.122   2.539
   34HFIP    C2  398   1.093   1.099   2.447
   34HFIP    C3  399   0.953   1.127   2.506
   34HFIP    F4  400   0.944   1.257   2.547
   34HFIP    F5  401   0.929   1.051   2.617
   34HFIP    F6  402   0.851   1.107   2.419
   34HFIP    C7  403   1.101   0.956   2.391
   34HFIP    F8  404   1.091   0.863   2.490
   34HFIP    F9  405   1.220   0.934   2.330
   34HFIP   F10  406   1.006   0.927   2.298
   34HFIP   H11  407   1.181   1.060   2.617
   34HFIP   H12  408   1.108   1.169   2.364
   35HFIP    O1  409   1.167   0.945   3.103
   35HFIP    C2  410   1.116   1.056   3.167
   35HFIP    C3  411   1.034   1.017   3.292
   35HFIP    F4  412   1.113   0.951   3.381
   35HFIP    F5  413   0.932   0.933   3.260
   35HFIP    F6  414   0.982   1.123   3.359
   35HFIP    C7  415   1.029   1.140   3.070
   35HFIP    F8  416   0.927   1.067   3.018
   35HFIP    F9  417   1.104   1.182   2.964
   35HFIP   F10  418   0.977   1.252   3.125
   35HFIP   H11  419   1.092   0.886   3.073
   35HFIP   H12  420   1.200   1.118   3.199
   36HFIP    O1  421   0.940   1.763   0.476
   36HFIP    C2  422   0.997   1.754   0.350
   36HFIP    C3  423   1.093   1.633   0.342
   36HFIP    F4  424   1.026   1.518   0.367
   36HFIP    F5  425   1.191   1.642   0.435
   36HFIP    F6  426   1.151   1.618   0.220
   36HFIP    C7  427   1.070   1.885   0.311
   36HFIP    F8  428   1.166   1.917   0.402
   36HFIP    F9  429   0.982   1.989   0.310
   36HFIP   F10  430   1.127   1.882   0.188
   36HFIP   H11  431   1.012   1.780   0.543
   36HFIP   H12  432   0.916   1.738   0.279
   37HFIP    O1  433   1.051   1.795   0.890
   37HFIP    C2  434   1.053   1.812   1.027
   37HFIP    C3  435   1.183   1.756   1.088
   37HFIP    F4  436   1.290   1.822   1.036
   37HFIP    F5  437   1.200   1.624   1.059
   37HFIP    F6  438   1.192   1.771   1.223
   37HFIP    C7  439   0.930   1.746   1.093
   37HFIP    F8  440   0.923   1.613   1.065
   37HFIP    F9  441   0.816   1.802   1.046
   37HFIP   F10  442   0.926   1.760   1.229
   37HFIP   H11  443   1.054   1.697   0.869
   37HFIP   H12  444   1.049   1.919   1.048
   38HFIP    O1  445   1.114   1.881   1.656
   38HFIP    C2  446   1.108   1.790   1.760
   38HFIP    C3  447   1.095   1.645   1.707
   38HFIP    F4  448   1.203   1.613   1.631
   38HFIP    F5  449   0.986   1.630   1.628
   38HFIP    F6  450   1.089   1.551   1.805
   38HFIP    C7  451   0.990   1.823   1.855
   38HFIP    F8  452   0.871   1.824   1.789
   38HFIP    F9  453   1.005   1.948   1.908
   38HFIP   F10  454   0.978   1.738   1.960
   38HFIP   H11  455   1.031   1.876   1.602
   38HFIP   H12  456   1.200   1.797   1.817
   39HFIP    O1  457   1.157   1.802   2.593
   39HFIP    C2  458   1.097   1.728   2.493
   39HFIP    C3  459   1.123   1.790   2.354
   39HFIP    F4  460   1.257   1.794   2.329
   39HFIP    F5  461   1.079   1.919   2.348
   39HFIP    F6  462   1.067   1.722   2.251
   39HFIP    C7  463   0.945   1.714   2.519
   39HFIP    F8  464   0.884   1.836   2.527
   39HFIP    F9  465   0.922   1.651   2.637
   39HFIP   F10  466   0.880   1.642   2.424
   39HFIP   H11  467   1.119   1.894   2.594
   39HFIP   H12  468   1.140   1.628   2.495
   40HFIP    O1  469   0.919   1.660   3.184
   40HFIP    C2  470   1.009   1.752   3.132
   40HFIP    C3  471   1.146   1.687   3.105
   40HFIP    F4  472   1.134   1.586   3.015
   40HFIP    F5  473   1.199   1.632   3.218
   40HFIP    F6  474   1.238   1.772   3.053
   40HFIP    C7  475   1.024   1.874   3.226
   40HFIP    F8  476   1.064   1.836   3.351
   40HFIP    F9  477   0.904   1.936   3.242
   40HFIP   F10  478   1.110   1.968   3.181
   40HFIP   H11  479   0.954   1.626   3.271
   40HFIP   H12  480   0.969   1.787   3.037
   41HFIP    O1  481   1.146   2.380   0.235
   41HFIP    C2  482   1.094   2.418   0.357
   41HFIP    C3  483   0.940   2.400   0.360
   41HFIP    F4  484   0.907   2.270   0.339
   41HFIP    F5  485   0.880   2.472   0.262
   41HFIP    F6  486   0.883   2.436   0.478
   41HFIP    C7  487   1.133   2.563   0.391
   41HFIP    F8  488   1.090   2.650   0.295
   41HFIP    F9  489   1.268   2.576   0.397
   41HFIP   F10  490   1.085   2.608   0.511
   41HFIP   H11  491   1.108   2.437   0.163
   41HFIP   H12  492   1.136   2.353   0.434
   42HFIP    O1  493   1.122   2.572   1.169
   42HFIP    C2  494   1.070   2.522   1.051
   42HFIP    C3  495   0.925   2.472   1.070
   42HFIP    F4  496   0.845   2.575   1.111
   42HFIP    F5  497   0.917   2.377   1.167
   42HFIP    F6  498   0.868   2.422   0.958
   42HFIP    C7  499   1.159   2.408   0.996
   42HFIP    F8  500   1.173   2.307   1.085
   42HFIP    F9  501   1.285   2.454   0.971
   42HFIP   F10  502   1.114   2.355   0.879
   42HFIP   H11  503   1.123   2.500   1.238
   42HFIP   H12  504   1.069   2.602   0.978
   43HFIP    O1  505   0.891   2.432   1.784
   43HFIP    C2  506   1.027   2.414   1.778
   43HFIP    C3  507   1.101   2.508   1.876
   43HFIP    F4  508   1.062   2.484   2.004
   43HFIP    F5  509   1.072   2.639   1.851
   43HFIP    F6  510   1.236   2.495   1.874
   43HFIP    C7  511   1.079   2.435   1.633
   43HFIP    F8  512   1.048   2.558   1.586
   43HFIP    F9  513   1.021   2.346   1.548
   43HFIP   F10  514   1.213   2.418   1.620
   43HFIP   H11  515   0.868   2.526   1.758
   43HFIP   H12  516   1.049   2.311   1.807
   44HFIP    O1  517   1.193   2.554   2.507
   44HFIP    C2  518   1.081   2.512   2.438
   44HFIP    C3  519   0.955   2.520   2.527
   44HFIP    F4  520   0.934   2.648   2.568
   44HFIP    F5  521   0.968   2.445   2.640
   44HFIP    F6  522   0.841   2.480   2.465
   44HFIP    C7  523   1.100   2.368   2.383
   44HFIP    F8  524   1.127   2.280   2.483
   44HFIP    F9  525   1.206   2.364   2.298
   44HFIP   F10  526   0.993   2.321   2.314
   44HFIP   H11  527   1.208   2.493   2.586
   44HFIP   H12  528   1.067   2.579   2.354
   45HFIP    O1  529   1.029   2.382   3.021
   45HFIP    C2  530   1.088   2.461   3.118
   45HFIP    C3  531   1.122   2.379   3.244
   45HFIP    F4  532   1.208   2.278   3.214
   45HFIP    F5  533   1.011   2.321   3.297
   45HFIP    F6  534   1.181   2.451   3.343
   45HFIP    C7  535   0.999   2.582   3.153
   45HFIP    F8  536   0.877   2.542   3.198
   45HFIP    F9  537   0.977   2.659   3.043
   45HFIP   F10  538   1.053   2.664   3.247
   45HFIP   H11  539   0.943   2.345   3.057
   45HFIP   H12  540   1.182   2.499   3.076
   46HFIP    O1  541   1.174   3.090   0.446
   46HFIP    C2  542   1.052   3.119   0.387
   46HFIP    C3  543   1.062   3.111   0.233
   46HFIP    F4  544   1.098   2.985   0.194
   46HFIP    F5  545   1.157   3.195   0.184
   46HFIP    F6  546   0.945   3.138   0.168
   46HFIP    C7  547   1.002   3.259   0.431
   46HFIP    F8  548   1.091   3.356   0.400
   46HFIP    F9  549   0.985   3.263   0.566
   46HFIP   F10  550   0.882   3.293   0.376
   46HFIP   H11  551   1.242   3.157   0.417
   46HFIP   H12  552   0.980   3.045   0.420
   47HFIP    O1  553   1.177   3.050   1.065
   47HFIP    C2  554   1.075   3.134   1.101
   47HFIP    C3  555   0.946   3.103   1.022
   47HFIP    F4  556   0.905   2.975   1.046
   47HFIP    F5  557   0.966   3.113   0.888
   47HFIP    F6  558   0.840   3.183   1.055
   47HFIP    C7  559   1.115   3.282   1.083
   47HFIP    F8  560   1.151   3.309   0.954
   47HFIP    F9  561   1.223   3.312   1.160
   47HFIP   F10  562   1.019   3.371   1.119
   47HFIP   H11  563   1.198   3.063   0.968
   47HFIP   H12  564   1.054   3.118   1.207
   48HFIP    O1  565   1.134   3.302   1.692
   48HFIP    C2  566   1.111   3.190   1.769
   48HFIP    C3  567   1.083   3.066   1.680
   48HFIP    F4  568   1.189   3.041   1.599
   48HFIP    F5  569   0.976   3.087   1.598
   48HFIP    F6  570   1.060   2.952   1.750
   48HFIP    C7  571   0.994   3.213   1.868
   48HFIP    F8  572   0.879   3.247   1.803
   48HFIP    F9  573   1.023   3.316   1.951
   48HFIP   F10  574   0.967   3.106   1.947
   48HFIP   H11  575   1.052   3.322   1.637
   48HFIP   H12  576   1.201   3.170   1.826
   49HFIP    O1  577   0.932   3.196   2.576
   49HFIP    C2  578   1.030   3.218   2.482
   49HFIP    C3  579   0.995   3.149   2.348
   49HFIP    F4  580   0.878   3.197   2.299
   49HFIP    F5  581   0.979   3.015   2.363
   49HFIP    F6  582   1.088   3.169   2.250
   49HFIP    C7  583   1.169   3.172   2.532
   49HFIP    F8  584   1.168   3.040   2.565
   49HFIP    F9  585   1.203   3.239   2.645
   49HFIP   F10  586   1.270   3.193   2.444
   49HFIP   H11  587   0.926   3.097   2.594
   49HFIP   H12  588   1.035   3.326   2.464
   50HFIP    O1  589   1.014   3.036   3.069
   50HFIP    C2  590   1.088   3.121   3.148
   50HFIP    C3  591   1.032   3.129   3.291
   50HFIP    F4  592   1.034   3.006   3.350
   50HFIP    F5  593   0.902   3.169   3.292
   50HFIP    F6  594   1.101   3.211   3.374
   50HFIP    C7  595   1.096   3.262   3.085
   50HFIP    F8  596   0.972   3.315   3.066
   50HFIP    F9  597   1.154   3.257   2.962
   50HFIP   F10  598   1.168   3.352   3.158
   50HFIP   H11  599   0.920   3.069   3.063
   50HFIP   H12  600   1.190   3.082   3.154
   51HFIP    O1  601   1.630   0.273   0.428
   51HFIP    C2  602   1.722   0.371   0.394
   51HFIP    C3  603   1.709   0.411   0.246
   51HFIP    F4  604   1.584   0.461   0.221
   51HFIP    F5  605   1.724   0.305   0.163
   51HFIP    F6  606   1.796   0.508   0.207
   51HFIP    C7  607   1.866   0.324   0.425
   51HFIP    F8  608   1.897   0.209   0.359
   51HFIP    F9  609   1.880   0.296   0.558
   51HFIP   F10  610   1.962   0.416   0.395
   51HFIP   H11  611   1.647   0.192   0.372
   51HFIP   H12  612   1.701   0.458   0.455
   52HFIP    O1  613   1.727   0.296   0.899
   52HFIP    C2  614   1.708   0.344   1.027
   52HFIP    C3  615   1.774   0.483   1.045
   52HFIP    F4  616   1.721   0.573   0.958
   52HFIP    F5  617   1.908   0.478   1.019
   52HFIP    F6  618   1.758   0.536   1.169
   52HFIP    C7  619   1.761   0.244   1.133
   52HFIP    F8  620   1.893   0.218   1.115
   52HFIP    F9  621   1.696   0.125   1.123
   52HFIP   F10  622   1.744   0.286   1.261
   52HFIP   H11  623   1.825   0.284   0.882
   52HFIP   H12  624   1.601   0.355   1.043
   53HFIP    O1  625   1.599   0.353   1.815
   53HFIP    C2  626   1.732   0.388   1.798
   53HFIP    C3  627   1.761   0.428   1.652
   53HFIP    F4  628   1.685   0.534   1.615
   53HFIP    F5  629   1.731   0.327   1.566
   53HFIP    F6  630   1.890   0.464   1.629
   53HFIP    C7  631   1.825   0.274   1.843
   53HFIP    F8  632   1.801   0.159   1.775
   53HFIP    F9  633   1.806   0.245   1.975
   53HFIP   F10  634   1.958   0.302   1.830
   53HFIP   H11  635   1.579   0.274   1.758
   53HFIP   H12  636   1.752   0.475   1.861
   54HFIP    O1  637   1.633   0.444   2.398
   54HFIP    C2  638   1.757   0.384   2.413
   54HFIP    C3  639   1.744   0.230   2.416
   54HFIP    F4  640   1.689   0.185   2.300
   54HFIP    F5  641   1.661   0.188   2.516
   54HFIP    F6  642   1.862   0.164   2.431
   54HFIP    C7  643   1.828   0.435   2.541
   54HFIP    F8  644   1.753   0.412   2.652
   54HFIP    F9  645   1.847   0.569   2.534
   54HFIP   F10  646   1.951   0.380   2.561
   54HFIP   H11  647   1.575   0.421   2.476
   54HFIP   H12  648   1.818   0.411   2.327
   55HFIP    O1  649   1.623   0.445   3.206
   55HFIP    C2  650   1.730   0.392   3.136
   55HFIP    C3  651   1.713   0.240   3.116
   55HFIP    F4  652   1.600   0.213   3.046
   55HFIP    F5  653   1.702   0.175   3.235
   55HFIP    F6  654   1.815   0.182   3.047
   55HFIP    C7  655   1.864   0.424   3.206
   55HFIP    F8  656   1.866   0.376   3.333
   55HFIP    F9  657   1.881   0.558   3.215
   55HFIP   F10  658   1.973   0.376   3.141
   55HFIP   H11  659   1.619   0.404   3.297
   55HFIP   H12  660   1.731   0.439   3.037
   56HFIP    O1  661   1.875   1.030   0.231
   56HFIP    C2  662   1.819   1.065   0.351
   56HFIP    C3  663   1.753   0.943   0.421
   56HFIP    F4  664   1.846   0.847   0.445
   56HFIP    F5  665   1.658   0.886   0.342
   56HFIP    F6  666   1.696   0.972   0.541
   56HFIP    C7  667   1.716   1.179   0.333
   56HFIP    F8  668   1.618   1.144   0.246
   56HFIP    F9  669   1.776   1.289   0.281
   56HFIP   F10  670   1.657   1.220   0.449
   56HFIP   H11  671   1.804   0.995   0.170
   56HFIP   H12  672   1.899   1.101   0.416
   57HFIP    O1  673   1.793   0.910   0.976
   57HFIP    C2  674   1.791   1.045   1.006
   57HFIP    C3  675   1.858   1.072   1.142
   57HFIP    F4  676   1.988   1.031   1.140
   57HFIP    F5  677   1.798   1.002   1.242
   57HFIP    F6  678   1.860   1.203   1.178
   57HFIP    C7  679   1.646   1.100   1.005
   57HFIP    F8  680   1.566   1.034   1.093
   57HFIP    F9  681   1.591   1.085   0.882
   57HFIP   F10  682   1.638   1.233   1.033
   57HFIP   H11  683   1.741   0.859   1.044
   57HFIP   H12  684   1.848   1.097   0.930
   58HFIP    O1  685   1.777   1.224   1.739
   58HFIP    C2  686   1.808   1.089   1.748
   58HFIP    C3  687   1.733   1.007   1.641
   58HFIP    F4  688   1.768   1.050   1.516
   58HFIP    F5  689   1.598   1.023   1.650
   58HFIP    F6  690   1.760   0.874   1.644
   58HFIP    C7  691   1.777   1.035   1.889
   58HFIP    F8  692   1.646   1.053   1.922
   58HFIP    F9  693   1.850   1.101   1.983
   58HFIP   F10  694   1.806   0.903   1.905
   58HFIP   H11  695   1.679   1.235   1.754
   58HFIP   H12  696   1.915   1.078   1.730
   59HFIP    O1  697   1.863   1.010   2.338
   59HFIP    C2  698   1.763   1.005   2.433
   59HFIP    C3  699   1.656   1.113   2.405
   59HFIP    F4  700   1.599   1.094   2.283
   59HFIP    F5  701   1.709   1.238   2.404
   59HFIP    F6  702   1.554   1.112   2.495
   59HFIP    C7  703   1.821   1.021   2.575
   59HFIP    F8  704   1.890   1.137   2.589
   59HFIP    F9  705   1.909   0.920   2.602
   59HFIP   F10  706   1.728   1.016   2.674
   59HFIP   H11  707   1.909   1.099   2.342
   59HFIP   H12  708   1.716   0.907   2.426
   60HFIP    O1  709   1.902   1.105   3.246
   60HFIP    C2  710   1.814   1.067   3.146
   60HFIP    C3  711   1.697   1.167   3.134
   60HFIP    F4  712   1.743   1.291   3.104
   60HFIP    F5  713   1.629   1.178   3.252
   60HFIP    F6  714   1.607   1.136   3.037
   60HFIP    C7  715   1.762   0.924   3.170
   60HFIP    F8  716   1.700   0.913   3.291
   60HFIP    F9  717   1.865   0.836   3.171
   60HFIP   F10  718   1.675   0.880   3.074
   60HFIP   H11  719   1.854   1.106   3.333
   60HFIP   H12  720   1.869   1.068   3.052
   61HFIP    O1  721   1.677   1.822   0.486
   61HFIP    C2  722   1.747   1.735   0.405
   61HFIP    C3  723   1.886   1.792   0.370
   61HFIP    F4  724   1.959   1.812   0.484
   61HFIP    F5  725   1.878   1.913   0.309
   61HFIP    F6  726   1.961   1.711   0.291
   61HFIP    C7  727   1.668   1.703   0.276
   61HFIP    F8  728   1.638   1.816   0.206
   61HFIP    F9  729   1.549   1.645   0.306
   61HFIP   F10  730   1.732   1.617   0.192
   61HFIP   H11  731   1.663   1.909   0.438
   61HFIP   H12  732   1.761   1.642   0.460
   62HFIP    O1  733   1.854   1.693   1.180
   62HFIP    C2  734   1.775   1.782   1.109
   62HFIP    C3  735   1.636   1.721   1.081
   62HFIP    F4  736   1.572   1.691   1.196
   62HFIP    F5  737   1.646   1.604   1.011
   62HFIP    F6  738   1.555   1.804   1.011
   62HFIP    C7  739   1.844   1.825   0.978
   62HFIP    F8  740   1.874   1.718   0.900
   62HFIP    F9  741   1.962   1.886   1.005
   62HFIP   F10  742   1.772   1.912   0.903
   62HFIP   H11  743   1.868   1.611   1.126
   62HFIP   H12  744   1.761   1.871   1.171
   63HFIP    O1  745   1.849   1.619   1.730
   63HFIP    C2  746   1.809   1.751   1.727
   63HFIP    C3  747   1.813   1.813   1.868
   63HFIP    F4  748   1.940   1.809   1.918
   63HFIP    F5  749   1.735   1.745   1.955
   63HFIP    F6  750   1.776   1.944   1.872
   63HFIP    C7  751   1.667   1.765   1.666
   63HFIP    F8  752   1.575   1.691   1.735
   63HFIP    F9  753   1.666   1.718   1.538
   63HFIP   F10  754   1.622   1.893   1.660
   63HFIP   H11  755   1.786   1.566   1.787
   63HFIP   H12  756   1.878   1.805   1.663
   64HFIP    O1  757   1.702   1.806   2.617
   64HFIP    C2  758   1.786   1.760   2.517
   64HFIP    C3  759   1.811   1.870   2.411
   64HFIP    F4  760   1.868   1.979   2.467
   64HFIP    F5  761   1.694   1.911   2.354
   64HFIP    F6  762   1.894   1.831   2.310
   64HFIP    C7  763   1.731   1.632   2.452
   64HFIP    F8  764   1.607   1.651   2.400
   64HFIP    F9  765   1.719   1.533   2.545
   64HFIP   F10  766   1.810   1.581   2.353
   64HFIP   H11  767   1.613   1.828   2.577
   64HFIP   H12  768   1.882   1.736   2.563
   65HFIP    O1  769   1.714   1.597   3.179
   65HFIP    C2  770   1.748   1.719   3.125
   65HFIP    C3  771   1.892   1.759   3.166
   65HFIP    F4  772   1.981   1.667   3.121
   65HFIP    F5  773   1.906   1.764   3.301
   65HFIP    F6  774   1.932   1.879   3.116
   65HFIP    C7  775   1.647   1.829   3.167
   65HFIP    F8  776   1.639   1.840   3.302
   65HFIP    F9  777   1.523   1.797   3.123
   65HFIP   F10  778   1.675   1.952   3.117
   65HFIP   H11  779   1.715   1.603   3.279
   65HFIP   H12  780   1.745   1.710   3.017
   66HFIP    O1  781   1.640   2.487   0.470
   66HFIP    C2  782   1.702   2.449   0.353
   66HFIP    C3  783   1.816   2.348   0.381
   66HFIP    F4  784   1.767   2.236   0.441
   66HFIP    F5  785   1.909   2.399   0.465
   66HFIP    F6  786   1.880   2.305   0.269
   66HFIP    C7  787   1.756   2.571   0.275
   66HFIP    F8  788   1.843   2.644   0.350
   66HFIP    F9  789   1.654   2.655   0.242
   66HFIP   F10  790   1.817   2.539   0.158
   66HFIP   H11  791   1.707   2.533   0.529
   66HFIP   H12  792   1.628   2.399   0.290
   67HFIP    O1  793   1.607   2.498   1.122
   67HFIP    C2  794   1.743   2.502   1.098
   67HFIP    C3  795   1.773   2.545   0.953
   67HFIP    F4  796   1.723   2.668   0.927
   67HFIP    F5  797   1.715   2.461   0.863
   67HFIP    F6  798   1.906   2.551   0.923
   67HFIP    C7  799   1.809   2.366   1.130
   67HFIP    F8  800   1.754   2.266   1.057
   67HFIP    F9  801   1.790   2.334   1.261
   67HFIP   F10  802   1.944   2.364   1.110
   67HFIP   H11  803   1.565   2.431   1.061
   67HFIP   H12  804   1.787   2.577   1.164
   68HFIP    O1  805   1.681   2.419   1.616
   68HFIP    C2  806   1.720   2.420   1.749
   68HFIP    C3  807   1.682   2.554   1.817
   68HFIP    F4  808   1.548   2.573   1.813
   68HFIP    F5  809   1.738   2.660   1.753
   68HFIP    F6  810   1.718   2.561   1.948
   68HFIP    C7  811   1.872   2.394   1.762
   68HFIP    F8  812   1.945   2.485   1.693
   68HFIP    F9  813   1.903   2.272   1.711
   68HFIP   F10  814   1.917   2.393   1.891
   68HFIP   H11  815   1.728   2.491   1.566
   68HFIP   H12  816   1.667   2.340   1.800
   69HFIP    O1  817   1.824   2.556   2.337
   69HFIP    C2  818   1.814   2.463   2.439
   69HFIP    C3  819   1.706   2.357   2.407
   69HFIP    F4  820   1.738   2.291   2.293
   69HFIP    F5  821   1.584   2.413   2.387
   69HFIP    F6  822   1.692   2.263   2.504
   69HFIP    C7  823   1.784   2.533   2.574
   69HFIP    F8  824   1.670   2.605   2.568
   69HFIP    F9  825   1.884   2.620   2.605
   69HFIP   F10  826   1.775   2.447   2.679
   69HFIP   H11  827   1.736   2.604   2.327
   69HFIP   H12  828   1.910   2.413   2.447
   70HFIP    O1  829   1.610   2.421   3.100
   70HFIP    C2  830   1.746   2.428   3.121
   70HFIP    C3  831   1.784   2.373   3.261
   70HFIP    F4  832   1.746   2.243   3.272
   70HFIP    F5  833   1.719   2.441   3.360
   70HFIP    F6  834   1.917   2.377   3.288
   70HFIP    C7  835   1.798   2.573   3.104
   70HFIP    F8  836   1.735   2.659   3.188
   70HFIP    F9  837   1.773   2.618   2.978
   70HFIP   F10  838   1.932   2.587   3.124
   70HFIP   H11  839   1.563   2.478   3.168
   70HFIP   H12  840   1.795   2.366   3.047
   71HFIP    O1  841   1.648   3.294   0.372
   71HFIP    C2  842   1.701   3.170   0.341
   71HFIP    C3  843   1.761   3.103   0.467
   71HFIP    F4  844   1.665   3.086   0.562
   71HFIP    F5  845   1.858   3.180   0.524
   71HFIP    F6  846   1.814   2.980   0.444
   71HFIP    C7  847   1.807   3.181   0.229
   71HFIP    F8  848   1.908   3.265   0.264
   71HFIP    F9  849   1.752   3.232   0.116
   71HFIP   F10  850   1.863   3.062   0.194
   71HFIP   H11  851   1.721   3.353   0.405
   71HFIP   H12  852   1.620   3.107   0.305
   72HFIP    O1  853   1.721   3.308   0.970
   72HFIP    C2  854   1.727   3.215   1.071
   72HFIP    C3  855   1.872   3.195   1.119
   72HFIP    F4  856   1.923   3.312   1.166
   72HFIP    F5  857   1.954   3.155   1.018
   72HFIP    F6  858   1.885   3.105   1.221
   72HFIP    C7  859   1.665   3.081   1.027
   72HFIP    F8  860   1.727   3.030   0.917
   72HFIP    F9  861   1.534   3.097   0.993
   72HFIP   F10  862   1.667   2.985   1.123
   72HFIP   H11  863   1.773   3.275   0.891
   72HFIP   H12  864   1.668   3.253   1.155
   73HFIP    O1  865   1.637   3.087   1.675
   73HFIP    C2  866   1.700   3.171   1.764
   73HFIP    C3  867   1.786   3.276   1.689
   73HFIP    F4  868   1.709   3.351   1.607
   73HFIP    F5  869   1.880   3.217   1.610
   73HFIP    F6  870   1.851   3.363   1.771
   73HFIP    C7  871   1.786   3.092   1.865
   73HFIP    F8  872   1.880   3.016   1.802
   73HFIP    F9  873   1.708   3.007   1.936
   73HFIP   F10  874   1.851   3.170   1.956
   73HFIP   H11  875   1.706   3.036   1.623
   73HFIP   H12  876   1.623   3.225   1.819
   74HFIP    O1  877   1.842   3.214   2.323
   74HFIP    C2  878   1.794   3.136   2.426
   74HFIP    C3  879   1.640   3.130   2.424
   74HFIP    F4  880   1.596   3.076   2.308
   74HFIP    F5  881   1.584   3.254   2.432
   74HFIP    F6  882   1.586   3.054   2.524
   74HFIP    C7  883   1.845   3.188   2.563
   74HFIP    F8  884   1.809   3.317   2.584
   74HFIP    F9  885   1.981   3.185   2.567
   74HFIP   F10  886   1.801   3.115   2.669
   74HFIP   H11  887   1.808   3.308   2.333
   74HFIP   H12  888   1.832   3.035   2.412
   75HFIP    O1  889   1.872   3.047   3.128
   75HFIP    C2  890   1.786   3.154   3.116
   75HFIP    C3  891   1.831   3.273   3.203
   75HFIP    F4  892   1.955   3.315   3.166
   75HFIP    F5  893   1.840   3.238   3.335
   75HFIP    F6  894   1.750   3.381   3.195
   75HFIP    C7  895   1.641   3.113   3.151
   75HFIP    F8  896   1.632   3.062   3.277
   75HFIP    F9  897   1.598   3.014   3.067
   75HFIP   F10  898   1.550   3.213   3.140
   75HFIP   H11  899   1.873   3.016   3.223
   75HFIP   H12  900   1.787   3.186   3.012
   76HFIP    O1  901   2.582   0.473   0.369
   76HFIP    C2  902   2.504   0.362   0.395
   76HFIP    C3  903   2.522   0.253   0.287
   76HFIP    F4  904   2.652   0.213   0.282
   76HFIP    F5  905   2.492   0.300   0.163
   76HFIP    F6  906   2.449   0.141   0.308
   76HFIP    C7  907   2.355   0.401   0.408
   76HFIP    F8  908   2.309   0.461   0.296
   76HFIP    F9  909   2.338   0.490   0.510
   76HFIP   F10  910   2.273   0.296   0.436
   76HFIP   H11  911   2.553   0.513   0.281
   76HFIP   H12  912   2.536   0.320   0.490
   77HFIP    O1  913   2.500   0.201   1.124
   77HFIP    C2  914   2.512   0.317   1.050
   77HFIP    C3  915   2.510   0.442   1.141
   77HFIP    F4  916   2.613   0.438   1.229
   77HFIP    F5  917   2.396   0.448   1.215
   77HFIP    F6  918   2.522   0.559   1.073
   77HFIP    C7  919   2.400   0.326   0.943
   77HFIP    F8  920   2.276   0.321   0.999
   77HFIP    F9  921   2.408   0.220   0.858
   77HFIP   F10  922   2.407   0.437   0.866
   77HFIP   H11  923   2.413   0.201   1.173
   77HFIP   H12  924   2.608   0.314   0.999
   78HFIP    O1  925   2.539   0.438   1.634
   78HFIP    C2  926   2.448   0.359   1.703
   78HFIP    C3  927   2.381   0.438   1.817
   78HFIP    F4  928   2.315   0.546   1.768
   78HFIP    F5  929   2.474   0.486   1.905
   78HFIP    F6  930   2.290   0.366   1.888
   78HFIP    C7  931   2.516   0.231   1.757
   78HFIP    F8  932   2.620   0.260   1.838
   78HFIP    F9  933   2.566   0.157   1.654
   78HFIP   F10  934   2.432   0.148   1.824
   78HFIP   H11  935   2.611   0.467   1.697
   78HFIP   H12  936   2.371   0.330   1.632
   79HFIP    O1  937   2.547   0.414   2.598
   79HFIP    C2  938   2.514   0.384   2.467
   79HFIP    C3  939   2.378   0.446   2.428
   79HFIP    F4  940   2.382   0.581   2.440
   79HFIP    F5  941   2.278   0.404   2.510
   79HFIP    F6  942   2.341   0.421   2.300
   79HFIP    C7  943   2.513   0.231   2.444
   79HFIP    F8  944   2.426   0.168   2.527
   79HFIP    F9  945   2.636   0.178   2.470
   79HFIP   F10  946   2.482   0.195   2.316
   79HFIP   H11  947   2.478   0.375   2.659
   79HFIP   H12  948   2.591   0.427   2.403
   80HFIP    O1  949   2.353   0.348   3.038
   80HFIP    C2  950   2.455   0.390   3.122
   80HFIP    C3  951   2.570   0.288   3.125
   80HFIP    F4  952   2.622   0.273   3.000
   80HFIP    F5  953   2.528   0.165   3.164
   80HFIP    F6  954   2.674   0.324   3.205
   80HFIP    C7  955   2.402   0.416   3.266
   80HFIP    F8  956   2.344   0.305   3.318
   80HFIP    F9  957   2.307   0.512   3.265
   80HFIP   F10  958   2.498   0.458   3.352
   80HFIP   H11  959   2.315   0.262   3.073
   80HFIP   H12  960   2.493   0.485   3.084
   81HFIP    O1  961   2.481   1.007   0.513
   81HFIP    C2  962   2.504   1.020   0.378
   81HFIP    C3  963   2.535   1.167   0.340
   81HFIP    F4  964   2.646   1.210   0.404
   81HFIP    F5  965   2.434   1.250   0.377
   81HFIP    F6  966   2.558   1.186   0.207
   81HFIP    C7  967   2.383   0.967   0.296
   81HFIP    F8  968   2.268   1.032   0.329
   81HFIP    F9  969   2.363   0.835   0.323
   81HFIP   F10  970   2.399   0.976   0.162
   81HFIP   H11  971   2.402   1.062   0.539
   81HFIP   H12  972   2.591   0.959   0.352
   82HFIP    O1  973   2.306   1.114   1.078
   82HFIP    C2  974   2.423   1.074   1.017
   82HFIP    C3  975   2.453   0.925   1.044
   82HFIP    F4  976   2.352   0.847   0.997
   82HFIP    F5  977   2.462   0.899   1.177
   82HFIP    F6  978   2.567   0.880   0.985
   82HFIP    C7  979   2.541   1.163   1.061
   82HFIP    F8  980   2.559   1.159   1.196
   82HFIP    F9  981   2.518   1.293   1.028
   82HFIP   F10  982   2.660   1.129   1.003
   82HFIP   H11  983   2.315   1.102   1.177
   82HFIP   H12  984   2.409   1.087   0.909
   83HFIP    O1  985   2.437   0.941   1.882
   83HFIP    C2  986   2.429   1.008   1.761
   83HFIP    C3  987   2.565   1.010   1.689
   83HFIP    F4  988   2.608   0.883   1.665
   83HFIP    F5  989   2.660   1.068   1.766
   83HFIP    F6  990   2.563   1.074   1.569
   83HFIP    C7  991   2.375   1.151   1.780
   83HFIP    F8  992   2.453   1.224   1.865
   83HFIP    F9  993   2.251   1.149   1.835
   83HFIP   F10  994   2.364   1.222   1.665
   83HFIP   H11  995   2.501   0.989   1.942
   83HFIP   H12  996   2.358   0.954   1.698
   84HFIP    O1  997   2.582   1.168   2.415
   84HFIP    C2  998   2.464   1.116   2.465
   84HFIP    C3  999   2.490   1.028   2.590
   84HFIP    F4 1000   2.549   1.102   2.688
   84HFIP    F5 1001   2.576   0.927   2.563
   84HFIP    F6 1002   2.378   0.975   2.645
   84HFIP    C7 1003   2.389   1.034   2.357
   84HFIP    F8 1004   2.465   0.933   2.308
   84HFIP    F9 1005   2.358   1.114   2.251
   84HFIP   F10 1006   2.271   0.981   2.400
   84HFIP   H11 1007   2.642   1.093   2.387
   84HFIP   H12 1008   2.401   1.199   2.495
   85HFIP    O1 1009   2.490   1.081   3.002
   85HFIP    C2 1010   2.426   1.054   3.121
   85HFIP    C3 1011   2.436   1.175   3.218
   85HFIP    F4 1012   2.378   1.285   3.163
   85HFIP    F5 1013   2.566   1.208   3.243
   85HFIP    F6 1014   2.375   1.156   3.337
   85HFIP    C7 1015   2.482   0.927   3.187
   85HFIP    F8 1016   2.616   0.937   3.210
   85HFIP    F9 1017   2.465   0.819   3.106
   85HFIP   F10 1018   2.423   0.895   3.306
   85HFIP   H11 1019   2.587   1.097   3.019
   85HFIP   H12 1020   2.320   1.038   3.100
   86HFIP    O1 1021   2.346   1.838   0.446
   86HFIP    C2 1022   2.453   1.759   0.411
   86HFIP    C3 1023   2.567   1.842   0.347
   86HFIP    F4 1024   2.611   1.936   0.435
   86HFIP    F5 1025   2.524   1.910   0.237
   86HFIP    F6 1026   2.676   1.769   0.311
   86HFIP    C7 1027   2.409   1.645   0.315
   86HFIP    F8 1028   2.351   1.695   0.203
   86HFIP    F9 1029   2.316   1.567   0.375
   86HFIP   F10 1030   2.510   1.563   0.277
   86HFIP   H11 1031   2.308   1.882   0.364
   86HFIP   H12 1032   2.492   1.713   0.502
   87HFIP    O1 1033   2.513   1.637   1.161
   87HFIP    C2 1034   2.482   1.704   1.045
   87HFIP    C3 1035   2.573   1.827   1.026
   87HFIP    F4 1036   2.703   1.789   1.019
   87HFIP    F5 1037   2.564   1.914   1.131
   87HFIP    F6 1038   2.548   1.898   0.912
   87HFIP    C7 1039   2.333   1.746   1.043
   87HFIP    F8 1040   2.302   1.824   1.150
   87HFIP    F9 1041   2.253   1.636   1.051
   87HFIP   F10 1042   2.296   1.812   0.930
   87HFIP   H11 1043   2.498   1.697   1.240
   87HFIP   H12 1044   2.499   1.636   0.962
   88HFIP    O1 1045   2.419   1.602   1.715
   88HFIP    C2 1046   2.458   1.735   1.706
   88HFIP    C3 1047   2.595   1.757   1.775
   88HFIP    F4 1048   2.690   1.680   1.715
   88HFIP    F5 1049   2.592   1.720   1.906
   88HFIP    F6 1050   2.640   1.885   1.768
   88HFIP    C7 1051   2.351   1.829   1.766
   88HFIP    F8 1052   2.325   1.799   1.896
   88HFIP    F9 1053   2.233   1.815   1.699
   88HFIP   F10 1054   2.384   1.961   1.759
   88HFIP   H11 1055   2.408   1.578   1.812
   88HFIP   H12 1056   2.469   1.759   1.601
   89HFIP    O1 1057   2.416   1.917   2.507
   89HFIP    C2 1058   2.424   1.797   2.439
   89HFIP    C3 1059   2.385   1.679   2.531
   89HFIP    F4 1060   2.257   1.693   2.576
   89HFIP    F5 1061   2.464   1.673   2.642
   89HFIP    F6 1062   2.389   1.557   2.471
   89HFIP    C7 1063   2.565   1.775   2.380
   89HFIP    F8 1064   2.661   1.779   2.476
   89HFIP    F9 1065   2.595   1.874   2.292
   89HFIP   F10 1066   2.578   1.658   2.311
   89HFIP   H11 1067   2.480   1.917   2.583
   89HFIP   H12 1068   2.352   1.800   2.357
   90HFIP    O1 1069   2.483   1.866   3.037
   90HFIP    C2 1070   2.435   1.763   3.115
   90HFIP    C3 1071   2.375   1.817   3.247
   90HFIP    F4 1072   2.272   1.902   3.222
   90HFIP    F5 1073   2.467   1.888   3.318
   90HFIP    F6 1074   2.326   1.720   3.329
   90HFIP    C7 1075   2.546   1.659   3.144
   90HFIP    F8 1076   2.653   1.715   3.205
   90HFIP    F9 1077   2.592   1.606   3.028
   90HFIP   F10 1078   2.505   1.554   3.220
   90HFIP   H11 1079   2.556   1.914   3.086
   90HFIP   H12 1080   2.355   1.714   3.060
   91HFIP    O1 1081   2.368   2.550   0.463
   91HFIP    C2 1082   2.434   2.446   0.401
   91HFIP    C3 1083   2.587   2.468   0.399
   91HFIP    F4 1084   2.635   2.478   0.526
   91HFIP    F5 1085   2.619   2.585   0.337
   91HFIP    F6 1086   2.657   2.368   0.339
   91HFIP    C7 1087   2.381   2.424   0.257
   91HFIP    F8 1088   2.394   2.537   0.181
   91HFIP    F9 1089   2.248   2.395   0.260
   91HFIP   F10 1090   2.441   2.322   0.190
   91HFIP   H11 1091   2.386   2.635   0.412
   91HFIP   H12 1092   2.414   2.355   0.458
   92HFIP    O1 1093   2.433   2.557   1.194
   92HFIP    C2 1094   2.489   2.463   1.110
   92HFIP    C3 1095   2.554   2.531   0.987
   92HFIP    F4 1096   2.653   2.616   1.027
   92HFIP    F5 1097   2.465   2.606   0.918
   92HFIP    F6 1098   2.613   2.444   0.900
   92HFIP    C7 1099   2.384   2.359   1.065
   92HFIP    F8 1100   2.278   2.417   1.003
   92HFIP    F9 1101   2.334   2.293   1.173
   92HFIP   F10 1102   2.434   2.263   0.982
   92HFIP   H11 1103   2.360   2.606   1.146
   92HFIP   H12 1104   2.567   2.411   1.165
   93HFIP    O1 1105   2.549   2.474   1.906
   93HFIP    C2 1106   2.505   2.428   1.784
   93HFIP    C3 1107   2.537   2.530   1.672
   93HFIP    F4 1108   2.671   2.551   1.664
   93HFIP    F5 1109   2.480   2.651   1.697
   93HFIP    F6 1110   2.497   2.490   1.548
   93HFIP    C7 1111   2.354   2.395   1.786
   93HFIP    F8 1112   2.280   2.504   1.822
   93HFIP    F9 1113   2.328   2.299   1.879
   93HFIP   F10 1114   2.305   2.349   1.668
   93HFIP   H11 1115   2.500   2.558   1.929
   93HFIP   H12 1116   2.558   2.335   1.761
   94HFIP    O1 1117   2.468   2.518   2.303
   94HFIP    C2 1118   2.420   2.476   2.425
   94HFIP    C3 1119   2.462   2.573   2.538
   94HFIP    F4 1120   2.413   2.698   2.515
   94HFIP    F5 1121   2.597   2.585   2.546
   94HFIP    F6 1122   2.416   2.537   2.661
   94HFIP    C7 1123   2.466   2.332   2.457
   94HFIP    F8 1124   2.602   2.322   2.457
   94HFIP    F9 1125   2.421   2.245   2.362
   94HFIP   F10 1126   2.421   2.284   2.576
   94HFIP   H11 1127   2.568   2.518   2.305
   94HFIP   H12 1128   2.311   2.476   2.420
   95HFIP    O1 1129   2.453   2.339   3.282
   95HFIP    C2 1130   2.493   2.412   3.172
   95HFIP    C3 1131   2.554   2.548   3.214
   95HFIP    F4 1132   2.663   2.528   3.294
   95HFIP    F5 1133   2.466   2.622   3.287
   95HFIP    F6 1134   2.597   2.624   3.110
   95HFIP    C7 1135   2.376   2.434   3.074
   95HFIP    F8 1136   2.271   2.497   3.133
   95HFIP    F9 1137   2.329   2.314   3.029
   95HFIP   F10 1138   2.409   2.505   2.963
   95HFIP   H11 1139   2.382   2.389   3.331
   95HFIP   H12 1140   2.571   2.355   3.121
   96HFIP    O1 1141   2.443   3.071   0.490
   96HFIP    C2 1142   2.470   3.109   0.360
   96HFIP    C3 1143   2.590   3.205   0.353
   96HFIP    F4 1144   2.701   3.145   0.404
   96HFIP    F5 1145   2.570   3.316   0.429
   96HFIP    F6 1146   2.623   3.245   0.228
   96HFIP    C7 1147   2.345   3.173   0.293
   96HFIP    F8 1148   2.302   3.281   0.363
   96HFIP    F9 1149   2.242   3.084   0.291
   96HFIP   F10 1150   2.365   3.211   0.164
   96HFIP   H11 1151   2.419   3.152   0.544
   96HFIP   H12 1152   2.495   3.019   0.303
   97HFIP    O1 1153   2.562   3.155   0.918
   97HFIP    C2 1154   2.470   3.203   1.009
   97HFIP    C3 1155   2.535   3.234   1.145
   97HFIP    F4 1156   2.632   3.328   1.132
   97HFIP    F5 1157   2.595   3.124   1.198
   97HFIP    F6 1158   2.448   3.282   1.238
   97HFIP    C7 1159   2.352   3.104   1.025
   97HFIP    F8 1160   2.395   2.982   1.067
   97HFIP    F9 1161   2.290   3.085   0.906
   97HFIP   F10 1162   2.256   3.146   1.112
   97HFIP   H11 1163   2.601   3.070   0.953
   97HFIP   H12 1164   2.430   3.297   0.969
   98HFIP    O1 1165   2.522   3.013   1.722
   98HFIP    C2 1166   2.435   3.118   1.744
   98HFIP    C3 1167   2.462   3.234   1.646
   98HFIP    F4 1168   2.446   3.192   1.518
   98HFIP    F5 1169   2.590   3.279   1.656
   98HFIP    F6 1170   2.379   3.341   1.662
   98HFIP    C7 1171   2.443   3.167   1.890
   98HFIP    F8 1172   2.569   3.206   1.923
   98HFIP    F9 1173   2.410   3.067   1.976
   98HFIP   F10 1174   2.359   3.270   1.919
   98HFIP   H11 1175   2.616   3.044   1.738
   98HFIP   H12 1176   2.334   3.082   1.726
   99HFIP    O1 1177   2.566   3.065   2.552
   99HFIP    C2 1178   2.519   3.149   2.453
   99HFIP    C3 1179   2.487   3.289   2.509
   99HFIP    F4 1180   2.599   3.345   2.563
   99HFIP    F5 1181   2.395   3.284   2.609
   99HFIP    F6 1182   2.442   3.377   2.416
   99HFIP    C7 1183   2.396   3.089   2.382
   99HFIP    F8 1184   2.295   3.064   2.470
   99HFIP    F9 1185   2.428   2.970   2.325
   99HFIP   F10 1186   2.346   3.167   2.282
   99HFIP   H11 1187   2.494   3.053   2.621
   99HFIP   H12 1188   2.599   3.160   2.379
  100HFIP    O1 1189   2.345   3.281   3.209
  100HFIP    C2 1190   2.405   3.170   3.155
  100HFIP    C3 1191   2.465   3.079   3.266
  100HFIP    F4 1192   2.367   3.037   3.350
  100HFIP    F5 1193   2.555   3.146   3.342
  100HFIP    F6 1194   2.525   2.967   3.219
  100HFIP    C7 1195   2.514   3.209   3.053
  100HFIP    F8 1196   2.610   3.288   3.110
  100HFIP    F9 1197   2.460   3.281   2.951
  100HFIP   F10 1198   2.577   3.104   2.995
  100HFIP   H11 1199   2.413   3.335   3.259
  100HFIP   H12 1200   2.329   3.113   3.102
  101HFIP    O1 1201   3.122   0.515   0.358
  101HFIP    C2 1202   3.186   0.399   0.321
  101HFIP    C3 1203   3.087   0.295   0.264
  101HFIP    F4 1204   3.023   0.344   0.155
  101HFIP    F5 1205   2.990   0.265   0.355
  101HFIP    F6 1206   3.145   0.179   0.225
  101HFIP    C7 1207   3.267   0.340   0.439
  101HFIP    F8 1208   3.186   0.313   0.546
  101HFIP    F9 1209   3.360   0.429   0.482
  101HFIP   F10 1210   3.334   0.226   0.408
  101HFIP   H11 1211   3.056   0.494   0.431
  101HFIP   H12 1212   3.257   0.424   0.241
  102HFIP    O1 1213   3.134   0.322   0.892
  102HFIP    C2 1214   3.168   0.301   1.025
  102HFIP    C3 1215   3.052   0.342   1.119
  102HFIP    F4 1216   2.941   0.269   1.091
  102HFIP    F5 1217   3.017   0.473   1.102
  102HFIP    F6 1218   3.078   0.323   1.251
  102HFIP    C7 1219   3.297   0.377   1.062
  102HFIP    F8 1220   3.286   0.510   1.040
  102HFIP    F9 1221   3.401   0.333   0.985
  102HFIP   F10 1222   3.336   0.359   1.191
  102HFIP   H11 1223   3.117   0.420   0.877
  102HFIP   H12 1224   3.185   0.195   1.038
  103HFIP    O1 1225   3.144   0.496   1.846
  103HFIP    C2 1226   3.128   0.396   1.752
  103HFIP    C3 1227   3.092   0.262   1.819
  103HFIP    F4 1228   2.975   0.273   1.888
  103HFIP    F5 1229   3.186   0.223   1.910
  103HFIP    F6 1230   3.075   0.159   1.732
  103HFIP    C7 1231   3.255   0.381   1.665
  103HFIP    F8 1232   3.364   0.354   1.741
  103HFIP    F9 1233   3.281   0.497   1.600
  103HFIP   F10 1234   3.246   0.285   1.570
  103HFIP   H11 1235   3.219   0.472   1.908
  103HFIP   H12 1236   3.045   0.424   1.687
  104HFIP    O1 1237   3.159   0.507   2.396
  104HFIP    C2 1238   3.132   0.399   2.476
  104HFIP    C3 1239   3.255   0.361   2.563
  104HFIP    F4 1240   3.290   0.465   2.643
  104HFIP    F5 1241   3.363   0.334   2.486
  104HFIP    F6 1242   3.234   0.254   2.645
  104HFIP    C7 1243   3.086   0.277   2.392
  104HFIP    F8 1244   3.179   0.243   2.299
  104HFIP    F9 1245   2.973   0.309   2.323
  104HFIP   F10 1246   3.057   0.167   2.466
  104HFIP   H11 1247   3.234   0.484   2.334
  104HFIP   H12 1248   3.051   0.426   2.543
  105HFIP    O1 1249   3.228   0.318   3.013
  105HFIP    C2 1250   3.142   0.327   3.120
  105HFIP    C3 1251   3.118   0.474   3.160
  105HFIP    F4 1252   3.064   0.544   3.057
  105HFIP    F5 1253   3.235   0.537   3.192
  105HFIP    F6 1254   3.033   0.490   3.265
  105HFIP    C7 1255   3.193   0.245   3.241
  105HFIP    F8 1256   3.317   0.286   3.280
  105HFIP    F9 1257   3.206   0.114   3.208
  105HFIP   F10 1258   3.112   0.249   3.349
  105HFIP   H11 1259   3.317   0.356   3.038
  105HFIP   H12 1260   3.046   0.284   3.089
  106HFIP    O1 1261   3.146   1.187   0.246
  106HFIP    C2 1262   3.197   1.108   0.347
  106HFIP    C3 1263   3.251   0.974   0.291
  106HFIP    F4 1264   3.351   0.997   0.201
  106HFIP    F5 1265   3.154   0.906   0.224
  106HFIP    F6 1266   3.304   0.891   0.384
  106HFIP    C7 1267   3.091   1.082   0.456
  106HFIP    F8 1268   2.979   1.023   0.406
  106HFIP    F9 1269   3.051   1.199   0.512
  106HFIP   F10 1270   3.136   1.004   0.559
  106HFIP   H11 1271   3.069   1.140   0.203
  106HFIP   H12 1272   3.280   1.161   0.393
  107HFIP    O1 1273   3.091   1.022   1.203
  107HFIP    C2 1274   3.182   1.018   1.100
  107HFIP    C3 1275   3.251   1.156   1.081
  107HFIP    F4 1276   3.316   1.192   1.195
  107HFIP    F5 1277   3.159   1.253   1.057
  107HFIP    F6 1278   3.343   1.158   0.981
  107HFIP    C7 1279   3.116   0.972   0.968
  107HFIP    F8 1280   3.012   1.053   0.933
  107HFIP    F9 1281   3.064   0.847   0.982
  107HFIP   F10 1282   3.202   0.965   0.863
  107HFIP   H11 1283   3.019   1.088   1.181
  107HFIP   H12 1284   3.259   0.946   1.126
  108HFIP    O1 1285   3.174   1.105   1.922
  108HFIP    C2 1286   3.151   1.028   1.810
  108HFIP    C3 1287   3.283   0.996   1.736
  108HFIP    F4 1288   3.368   0.929   1.817
  108HFIP    F5 1289   3.348   1.110   1.699
  108HFIP    F6 1290   3.267   0.920   1.625
  108HFIP    C7 1291   3.051   1.096   1.715
  108HFIP    F8 1292   3.093   1.219   1.676
  108HFIP    F9 1293   2.933   1.116   1.779
  108HFIP   F10 1294   3.022   1.024   1.603
  108HFIP   H11 1295   3.215   1.193   1.894
  108HFIP   H12 1296   3.108   0.933   1.843
  109HFIP    O1 1297   3.068   1.102   2.593
  109HFIP    C2 1298   3.175   1.050   2.523
  109HFIP    C3 1299   3.245   1.160   2.439
  109HFIP    F4 1300   3.292   1.259   2.520
  109HFIP    F5 1301   3.159   1.219   2.352
  109HFIP    F6 1302   3.352   1.115   2.367
  109HFIP    C7 1303   3.131   0.933   2.433
  109HFIP    F8 1304   3.034   0.971   2.345
  109HFIP    F9 1305   3.078   0.833   2.508
  109HFIP   F10 1306   3.232   0.877   2.361
  109HFIP   H11 1307   3.001   1.139   2.529
  109HFIP   H12 1308   3.247   1.012   2.595
  110HFIP    O1 1309   3.067   0.921   3.146
  110HFIP    C2 1310   3.177   0.998   3.179
  110HFIP    C3 1311   3.142   1.100   3.289
  110HFIP    F4 1312   3.099   1.037   3.401
  110HFIP    F5 1313   3.040   1.182   3.251
  110HFIP    F6 1314   3.246   1.179   3.327
  110HFIP    C7 1315   3.235   1.069   3.055
  110HFIP    F8 1316   3.142   1.149   2.995
  110HFIP    F9 1317   3.274   0.978   2.962
  110HFIP   F10 1318   3.344   1.146   3.081
  110HFIP   H11 1319   2.995   0.980   3.109
  110HFIP   H12 1320   3.253   0.931   3.218
  111HFIP    O1 1321   3.165   1.724   0.186
  111HFIP    C2 1322   3.123   1.744   0.316
  111HFIP    C3 1323   3.148   1.890   0.362
  111HFIP    F4 1324   3.080   1.977   0.282
  111HFIP    F5 1325   3.279   1.924   0.352
  111HFIP    F6 1326   3.107   1.915   0.489
  111HFIP    C7 1327   3.191   1.644   0.412
  111HFIP    F8 1328   3.327   1.655   0.407
  111HFIP    F9 1329   3.161   1.516   0.377
  111HFIP   F10 1330   3.153   1.658   0.542
  111HFIP   H11 1331   3.263   1.742   0.180
  111HFIP   H12 1332   3.015   1.726   0.319
  112HFIP    O1 1333   3.258   1.904   1.059
  112HFIP    C2 1334   3.210   1.779   1.094
  112HFIP    C3 1335   3.238   1.675   0.984
  112HFIP    F4 1336   3.372   1.663   0.963
  112HFIP    F5 1337   3.184   1.712   0.864
  112HFIP    F6 1338   3.193   1.550   1.013
  112HFIP    C7 1339   3.058   1.785   1.125
  112HFIP    F8 1340   2.988   1.833   1.019
  112HFIP    F9 1341   3.035   1.871   1.228
  112HFIP   F10 1342   3.004   1.666   1.161
  112HFIP   H11 1343   3.212   1.934   0.975
  112HFIP   H12 1344   3.261   1.747   1.185
  113HFIP    O1 1345   3.095   1.672   1.886
  113HFIP    C2 1346   3.145   1.778   1.812
  113HFIP    C3 1347   3.070   1.792   1.678
  113HFIP    F4 1348   2.938   1.815   1.699
  113HFIP    F5 1349   3.078   1.678   1.604
  113HFIP    F6 1350   3.114   1.895   1.601
  113HFIP    C7 1351   3.297   1.763   1.788
  113HFIP    F8 1352   3.325   1.646   1.724
  113HFIP    F9 1353   3.363   1.759   1.906
  113HFIP   F10 1354   3.352   1.864   1.716
  113HFIP   H11 1355   3.109   1.587   1.834
  113HFIP   H12 1356   3.129   1.869   1.870
  114HFIP    O1 1357   3.164   1.922   2.514
  114HFIP    C2 1358   3.212   1.799   2.474
  114HFIP    C3 1359   3.163   1.763   2.332
  114HFIP    F4 1360   3.206   1.856   2.242
  114HFIP    F5 1361   3.027   1.763   2.324
  114HFIP    F6 1362   3.208   1.643   2.286
  114HFIP    C7 1363   3.172   1.688   2.575
  114HFIP    F8 1364   3.037   1.681   2.590
  114HFIP    F9 1365   3.223   1.716   2.698
  114HFIP   F10 1366   3.217   1.565   2.541
  114HFIP   H11 1367   3.064   1.919   2.516
  114HFIP   H12 1368   3.320   1.804   2.472
  115HFIP    O1 1369   3.129   1.751   3.332
  115HFIP    C2 1370   3.152   1.802   3.207
  115HFIP    C3 1371   3.054   1.745   3.103
  115HFIP    F4 1372   2.926   1.776   3.136
  115HFIP    F5 1373   3.060   1.609   3.097
  115HFIP    F6 1374   3.072   1.792   2.977
  115HFIP    C7 1375   3.298   1.776   3.163
  115HFIP    F8 1376   3.328   1.644   3.163
  115HFIP    F9 1377   3.385   1.835   3.250
  115HFIP   F10 1378   3.329   1.826   3.040
  115HFIP   H11 1379   3.141   1.652   3.331
  115HFIP   H12 1380   3.137   1.910   3.211
  116HFIP    O1 1381   3.089   2.506   0.208
  116HFIP    C2 1382   3.132   2.510   0.339
  116HFIP    C3 1383   3.286   2.523   0.347
  116HFIP    F4 1384   3.327   2.637   0.287
  116HFIP    F5 1385   3.348   2.420   0.283
  116HFIP    F6 1386   3.334   2.527   0.474
  116HFIP    C7 1387   3.084   2.385   0.416
  116HFIP    F8 1388   3.127   2.270   0.358
  116HFIP    F9 1389   2.948   2.379   0.417
  116HFIP   F10 1390   3.122   2.383   0.547
  116HFIP   H11 1391   3.128   2.427   0.162
  116HFIP   H12 1392   3.088   2.598   0.386
  117HFIP    O1 1393   3.115   2.304   1.032
  117HFIP    C2 1394   3.119   2.442   1.028
  117HFIP    C3 1395   3.245   2.492   0.952
  117HFIP    F4 1396   3.243   2.446   0.824
  117HFIP    F5 1397   3.359   2.445   1.009
  117HFIP    F6 1398   3.255   2.627   0.944
  117HFIP    C7 1399   3.115   2.502   1.171
  117HFIP    F8 1400   3.218   2.456   1.247
  117HFIP    F9 1401   3.001   2.466   1.234
  117HFIP   F10 1402   3.119   2.638   1.174
  117HFIP   H11 1403   3.195   2.270   1.081
  117HFIP   H12 1404   3.031   2.477   0.974
  118HFIP    O1 1405   3.142   2.593   1.653
  118HFIP    C2 1406   3.131   2.469   1.713
  118HFIP    C3 1407   3.082   2.481   1.859
  118HFIP    F4 1408   2.960   2.540   1.863
  118HFIP    F5 1409   3.164   2.560   1.933
  118HFIP    F6 1410   3.069   2.362   1.923
  118HFIP    C7 1411   3.266   2.393   1.707
  118HFIP    F8 1412   3.366   2.463   1.767
  118HFIP    F9 1413   3.304   2.375   1.578
  118HFIP   F10 1414   3.262   2.269   1.763
  118HFIP   H11 1415   3.209   2.648   1.703
  118HFIP   H12 1416   3.057   2.412   1.657
  119HFIP    O1 1417   3.070   2.454   2.602
  119HFIP    C2 1418   3.112   2.483   2.474
  119HFIP    C3 1419   3.142   2.354   2.395
  119HFIP    F4 1420   3.031   2.276   2.387
  119HFIP    F5 1421   3.237   2.279   2.457
  119HFIP    F6 1422   3.183   2.376   2.267
  119HFIP    C7 1423   3.236   2.575   2.475
  119HFIP    F8 1424   3.339   2.521   2.545
  119HFIP    F9 1425   3.206   2.690   2.539
  119HFIP   F10 1426   3.281   2.609   2.351
  119HFIP   H11 1427   3.143   2.407   2.651
  119HFIP   H12 1428   3.031   2.536   2.423
  120HFIP    O1 1429   3.211   2.627   3.175
  120HFIP    C2 1430   3.221   2.490   3.171
  120HFIP    C3 1431   3.163   2.434   3.039
  120HFIP    F4 1432   3.229   2.484   2.932
  120HFIP    F5 1433   3.032   2.469   3.023
  120HFIP    F6 1434   3.171   2.299   3.029
  120HFIP    C7 1435   3.152   2.425   3.293
  120HFIP    F8 1436   3.021   2.460   3.300
  120HFIP    F9 1437   3.210   2.468   3.409
  120HFIP   F10 1438   3.159   2.290   3.295
  120HFIP   H11 1439   3.115   2.654   3.172
  120HFIP   H12 1440   3.327   2.464   3.174
  121HFIP    O1 1441   3.232   3.011   0.363
  121HFIP    C2 1442   3.185   3.129   0.310
  121HFIP    C3 1443   3.271   3.249   0.355
  121HFIP    F4 1444   3.400   3.233   0.315
  121HFIP    F5 1445   3.274   3.260   0.491
  121HFIP    F6 1446   3.231   3.369   0.305
  121HFIP    C7 1447   3.037   3.152   0.346
  121HFIP    F8 1448   3.018   3.154   0.481
  121HFIP    F9 1449   2.961   3.050   0.298
  121HFIP   F10 1450   2.984   3.267   0.296
  121HFIP   H11 1451   3.227   3.015   0.463
  121HFIP   H12 1452   3.193   3.122   0.201
  122HFIP    O1 1453   3.185   3.013   0.989
  122HFIP    C2 1454   3.189   3.150   1.003
  122HFIP    C3 1455   3.280   3.192   1.121
  122HFIP    F4 1456   3.407   3.148   1.100
  122HFIP    F5 1457   3.239   3.137   1.238
  122HFIP    F6 1458   3.289   3.326   1.139
  122HFIP    C7 1459   3.047   3.208   1.021
  122HFIP    F8 1460   2.984   3.155   1.129
  122HFIP    F9 1461   2.970   3.178   0.913
  122HFIP   F10 1462   3.044   3.344   1.034
  122HFIP   H11 1463   3.147   2.972   1.072
  122HFIP   H12 1464   3.231   3.191   0.911
  123HFIP    O1 1465   3.217   3.078   1.624
  123HFIP    C2 1466   3.218   3.138   1.749
  123HFIP    C3 1467   3.105   3.082   1.838
  123HFIP    F4 1468   3.120   2.948   1.855
  123HFIP    F5 1469   2.983   3.100   1.781
  123HFIP    F6 1470   3.101   3.136   1.963
  123HFIP    C7 1471   3.208   3.291   1.738
  123HFIP    F8 1472   3.095   3.329   1.672
  123HFIP    F9 1473   3.312   3.341   1.666
  123HFIP   F10 1474   3.209   3.356   1.857
  123HFIP   H11 1475   3.130   3.099   1.578
  123HFIP   H12 1476   3.314   3.114   1.796
  124HFIP    O1 1477   3.107   3.168   2.622
  124HFIP    C2 1478   3.195   3.160   2.516
  124HFIP    C3 1479   3.202   3.293   2.438
  124HFIP    F4 1480   3.244   3.393   2.520
  124HFIP    F5 1481   3.080   3.330   2.392
  124HFIP    F6 1482   3.288   3.291   2.333
  124HFIP    C7 1483   3.157   3.045   2.421
  124HFIP    F8 1484   3.030   3.057   2.373
  124HFIP    F9 1485   3.158   2.929   2.488
  124HFIP   F10 1486   3.241   3.029   2.315
  124HFIP   H11 1487   3.015   3.187   2.587
  124HFIP   H12 1488   3.294   3.139   2.557
  125HFIP    O1 1489   3.298   3.219   3.071
  125HFIP    C2 1490   3.173   3.174   3.108
  125HFIP    C3 1491   3.100   3.277   3.198
  125HFIP    F4 1492   3.083   3.394   3.130
  125HFIP    F5 1493   3.172   3.306   3.310
  125HFIP    F6 1494   2.976   3.238   3.237
  125HFIP    C7 1495   3.182   3.037   3.180
  125HFIP    F8 1496   3.262   3.043   3.290
  125HFIP    F9 1497   3.237   2.944   3.097
  125HFIP   F10 1498   3.062   2.986   3.219
  125HFIP   H11 1499   3.354   3.232   3.153
  125HFIP   H12 1500   3.114   3.161   3.018
   3.51960   3.51960   3.51960
