HFIP published-force-field qualification
 1500
    1HFIP    O1    1   1.158   0.756   2.490 -0.8531  0.0592  0.2037
    1HFIP    C2    2   1.237   0.686   2.400 -0.1922  0.1741  0.0526
    1HFIP    C3    3   1.224   0.533   2.436  0.8218  0.0024  0.5556
    1HFIP    F4    4   1.273   0.461   2.330 -0.2945  0.2288  0.3139
    1HFIP    F5    5   1.091   0.497   2.461  0.5797  0.0184 -0.3988
    1HFIP    F6    6   1.290   0.505   2.547  0.1138  0.4718 -0.0044
    1HFIP    C7    7   1.387   0.734   2.403  0.0378 -0.1346  0.3823
    1HFIP    F8    8   1.382   0.844   2.326  0.1303 -0.1658  0.6541
    1HFIP    F9    9   1.482   0.654   2.362 -0.0097 -0.1014  0.0720
    1HFIP   F10   10   1.436   0.776   2.523  0.2740 -0.0200 -0.0954
    1HFIP   H11   11   1.173   0.708   2.577  0.1963  0.9403  0.5083
    1HFIP   H12   12   1.196   0.709   2.302  1.4020 -0.2253 -0.7247
    2HFIP    O1   13   1.577   0.843   0.641 -0.0878 -0.2823 -0.1503
    2HFIP    C2   14   1.704   0.788   0.649  0.0278 -0.2102 -0.5408
    2HFIP    C3   15   1.804   0.850   0.542  0.1781  0.3050 -0.2404
    2HFIP    F4   16   1.934   0.833   0.577 -0.3414 -0.1684 -0.6839
    2HFIP    F5   17   1.793   0.982   0.505  0.2786  0.3340  0.1518
    2HFIP    F6   18   1.789   0.779   0.424  0.0351 -0.0128 -0.3253
    2HFIP    C7   19   1.676   0.637   0.644  0.0810  0.3951  0.4717
    2HFIP    F8   20   1.582   0.590   0.554  0.1802 -0.5874 -0.0222
    2HFIP    F9   21   1.639   0.582   0.761  0.1894 -0.1789  0.0026
    2HFIP   F10   22   1.792   0.574   0.603  0.2722  0.0480  0.1226
    2HFIP   H11   23   1.549   0.839   0.545 -0.9376  2.7754 -0.0843
    2HFIP   H12   24   1.755   0.806   0.743 -0.6285 -0.7315 -0.0792
    3HFIP    O1   25   0.165   0.457   1.758 -0.3536 -0.0666  0.1544
    3HFIP    C2   26   0.112   0.353   1.681 -0.6675  0.4667  0.4410
    3HFIP    C3   27   0.221   0.269   1.611 -0.2070 -0.3259  0.2500
    3HFIP    F4   28   0.303   0.206   1.702  0.1379 -0.2850  0.0219
    3HFIP    F5   29   0.301   0.352   1.537  0.1807  0.1537 -0.2278
    3HFIP    F6   30   0.164   0.178   1.536 -0.1130 -0.4503  0.8796
    3HFIP    C7   31  -0.003   0.399   1.583  0.1733 -0.7290 -0.4854
    3HFIP    F8   32  -0.114   0.323   1.592 -0.3099  0.5094 -0.2438
    3HFIP    F9   33   0.032   0.414   1.456  0.3407  0.1581  0.3205
    3HFIP   F10   34  -0.059   0.516   1.622  0.0184  0.0022  0.6897
    3HFIP   H11   35   0.180   0.527   1.689 -1.5329 -1.4655 -1.5574
    3HFIP   H12   36   0.062   0.284   1.749  1.4400  1.2383  2.8527
    4HFIP    O1   37   1.765   0.827   2.012 -0.1581  0.0515 -0.3133
    4HFIP    C2   38   1.692   0.810   1.894 -0.4833  0.2577 -0.6084
    4HFIP    C3   39   1.756   0.892   1.781 -0.1788  0.1133  0.4033
    4HFIP    F4   40   1.696   0.864   1.663 -0.2482  0.0479 -0.0729
    4HFIP    F5   41   1.882   0.851   1.767 -0.2491 -0.5525  0.1186
    4HFIP    F6   42   1.757   1.027   1.806 -0.3757  0.2067 -0.3274
    4HFIP    C7   43   1.538   0.837   1.910  0.1471  0.6265  0.2798
    4HFIP    F8   44   1.515   0.853   2.043 -0.2643  0.0331 -0.4018
    4HFIP    F9   45   1.458   0.739   1.861  0.6323 -0.6192 -0.2436
    4HFIP   F10   46   1.486   0.957   1.872  0.3035 -0.0010  0.4518
    4HFIP   H11   47   1.776   0.926   2.025  0.3442  0.1660 -1.5879
    4HFIP   H12   48   1.708   0.706   1.866  0.3132  0.1529  0.2128
    5HFIP    O1   49   1.284   2.229   0.567 -0.4387 -0.7495  0.0110
    5HFIP    C2   50   1.159   2.286   0.572 -0.4222  0.2307 -0.0725
    5HFIP    C3   51   1.061   2.190   0.647  0.4683 -0.4664  0.5852
    5HFIP    F4   52   1.109   2.163   0.769  0.0311  0.6527  0.2099
    5HFIP    F5   53   1.062   2.070   0.585  0.2492  0.0894 -0.2416
    5HFIP    F6   54   0.934   2.240   0.645 -0.3330  0.2723  0.0406
    5HFIP    C7   55   1.100   2.350   0.436 -0.3145  0.6131 -0.3965
    5HFIP    F8   56   0.995   2.436   0.455 -0.1465 -0.2466  0.3425
    5HFIP    F9   57   1.037   2.256   0.356 -0.0487  0.4631  0.3182
    5HFIP   F10   58   1.191   2.412   0.359  0.3602  0.7427  0.0662
    5HFIP   H11   59   1.282   2.129   0.569  0.7314 -0.7473  1.9672
    5HFIP   H12   60   1.172   2.363   0.648  2.5762  2.2651 -2.5224
    6HFIP    O1   61   1.533   2.806   2.665  0.4840 -0.0487 -0.2625
    6HFIP    C2   62   1.405   2.854   2.654 -0.3343 -1.1816  0.3729
    6HFIP    C3   63   1.350   2.841   2.510  0.3041  0.3729  0.0942
    6HFIP    F4   64   1.321   2.955   2.441  0.7589  0.4321 -0.0657
    6HFIP    F5   65   1.230   2.772   2.507 -0.0059 -0.3454 -0.0803
    6HFIP    F6   66   1.433   2.769   2.428 -0.0278 -0.2920  0.0283
    6HFIP    C7   67   1.383   2.998   2.707  0.3747 -0.2656  0.0588
    6HFIP    F8   68   1.448   3.096   2.641 -0.0250 -0.4573  0.1974
    6HFIP    F9   69   1.419   3.005   2.836  0.3367 -0.0332  0.3321
    6HFIP   F10   70   1.252   3.036   2.701  0.4572 -0.1358 -0.3120
    6HFIP   H11   71   1.581   2.868   2.604 -0.9731  1.3063 -0.0541
    6HFIP   H12   72   1.345   2.786   2.715 -0.2924 -0.9884  0.6321
    7HFIP    O1   73   0.651   2.624   2.012  0.1302 -0.4843 -0.4548
    7HFIP    C2   74   0.672   2.759   1.999 -0.6056 -0.4688  0.3542
    7HFIP    C3   75   0.588   2.823   1.884  0.1669  0.2762  0.3831
    7HFIP    F4   76   0.460   2.776   1.890  0.1666  0.2837  0.2818
    7HFIP    F5   77   0.657   2.804   1.765 -0.3015  0.1073  0.0186
    7HFIP    F6   78   0.575   2.959   1.897 -0.0542 -0.5016  0.2151
    7HFIP    C7   79   0.816   2.788   1.989 -0.0371  0.2890 -0.0947
    7HFIP    F8   80   0.846   2.912   1.955 -0.0593  0.3138  0.2618
    7HFIP    F9   81   0.878   2.701   1.901 -0.3771 -0.9594 -0.2819
    7HFIP   F10   82   0.880   2.771   2.107 -0.1289 -0.4499  0.3869
    7HFIP   H11   83   0.622   2.588   1.924  1.3050  2.5665 -2.1534
    7HFIP   H12   84   0.636   2.805   2.091 -0.1945  1.7816 -0.5805
    8HFIP    O1   85   2.140   0.802   2.628 -0.6725  0.4925 -0.7453
    8HFIP    C2   86   2.038   0.724   2.681  0.6971  1.0630 -0.5298
    8HFIP    C3   87   1.898   0.765   2.618  0.4620 -0.5943 -0.1717
    8HFIP    F4   88   1.875   0.894   2.647 -0.1015  0.3920  0.7029
    8HFIP    F5   89   1.784   0.699   2.654 -0.4661  0.2651 -0.1114
    8HFIP    F6   90   1.912   0.757   2.488  0.1041  0.4234  0.8026
    8HFIP    C7   91   2.041   0.733   2.834 -0.6834 -0.1465  0.2116
    8HFIP    F8   92   2.071   0.854   2.887 -0.3001 -0.4298  0.2893
    8HFIP    F9   93   2.131   0.644   2.881  0.1761  0.0077  0.1372
    8HFIP   F10   94   1.924   0.690   2.888 -0.1389 -0.3087  0.2220
    8HFIP   H11   95   2.122   0.893   2.665 -2.2727  0.5579 -1.6531
    8HFIP   H12   96   2.061   0.620   2.659 -3.2915 -0.1664  0.7006
    9HFIP    O1   97   1.718   1.608   0.220 -0.2696  0.2774  0.1688
    9HFIP    C2   98   1.603   1.615   0.151  0.3952 -0.6475 -0.3778
    9HFIP    C3   99   1.536   1.469   0.171  0.5237 -0.4770  0.4991
    9HFIP    F4  100   1.578   1.369   0.088  0.5049 -0.3793 -0.1642
    9HFIP    F5  101   1.399   1.468   0.169 -0.1472 -0.1658 -0.2115
    9HFIP    F6  102   1.565   1.420   0.297  0.3933 -0.0219  0.7095
    9HFIP    C7  103   1.631   1.638   0.005  0.4642 -0.1406 -0.3321
    9HFIP    F8  104   1.731   1.552  -0.032  0.1161 -0.0014 -0.6562
    9HFIP    F9  105   1.676   1.764  -0.026 -0.3341  0.2523 -0.1657
    9HFIP   F10  106   1.519   1.628  -0.072  0.0715 -0.0800 -0.4700
    9HFIP   H11  107   1.769   1.524   0.204  1.2626  1.0942  0.6276
    9HFIP   H12  108   1.547   1.701   0.187 -0.2081 -0.7175 -1.1168
   10HFIP    O1  109   1.675   2.621   2.789  0.1695  0.4190  0.5248
   10HFIP    C2  110   1.639   2.488   2.765 -0.3778 -0.2373 -0.7356
   10HFIP    C3  111   1.632   2.458   2.613 -0.0746  1.2125  0.1153
   10HFIP    F4  112   1.740   2.490   2.538  0.2452  0.3786  0.8117
   10HFIP    F5  113   1.523   2.521   2.561 -0.1241  0.2529 -0.1492
   10HFIP    F6  114   1.619   2.322   2.593 -0.0262 -0.0427 -0.5208
   10HFIP    C7  115   1.509   2.449   2.838  0.4276  0.0013 -0.0353
   10HFIP    F8  116   1.534   2.455   2.971  0.1029 -0.1734 -0.2563
   10HFIP    F9  117   1.474   2.320   2.820  0.2218  0.1689  0.0578
   10HFIP   F10  118   1.411   2.532   2.811 -0.6191 -0.1268 -0.2195
   10HFIP   H11  119   1.609   2.691   2.761  0.6815 -0.4223 -2.9170
   10HFIP   H12  120   1.717   2.421   2.800 -2.4944 -1.3518  2.0925
   11HFIP    O1  121   1.442   0.972   0.898 -0.4249 -0.4241 -0.4700
   11HFIP    C2  122   1.319   0.917   0.936  0.2879 -0.5888  0.3361
   11HFIP    C3  123   1.301   0.773   0.883  0.1245 -0.1862  0.4362
   11HFIP    F4  124   1.217   0.707   0.961 -0.0881  0.3302 -0.1973
   11HFIP    F5  125   1.417   0.703   0.893  0.0020  0.0047 -0.3471
   11HFIP    F6  126   1.274   0.768   0.751 -0.0671  0.0467  0.0051
   11HFIP    C7  127   1.205   1.007   0.888  0.0152 -0.1246  0.1250
   11HFIP    F8  128   1.193   1.106   0.979 -0.3243 -0.6064 -0.3429
   11HFIP    F9  129   1.088   0.940   0.887  0.0339 -0.3713  0.5248
   11HFIP   F10  130   1.224   1.055   0.759  0.3998  0.1629 -0.5082
   11HFIP   H11  131   1.483   0.913   0.829 -0.8036  0.0969 -1.1374
   11HFIP   H12  132   1.315   0.911   1.045 -1.8339 -0.2231  0.3111
   12HFIP    O1  133   0.411   2.348   1.956  0.1622  0.0808 -0.3600
   12HFIP    C2  134   0.315   2.254   1.964  0.0548 -0.8233 -0.9612
   12HFIP    C3  135   0.177   2.318   1.965  0.6083  0.5202 -0.2697
   12HFIP    F4  136   0.082   2.252   2.030 -0.5328 -0.0051 -0.6876
   12HFIP    F5  137   0.125   2.349   1.842 -0.1271 -0.5107  0.0409
   12HFIP    F6  138   0.190   2.436   2.034  0.4654 -0.1697 -0.0015
   12HFIP    C7  139   0.343   2.154   2.078  0.2547  0.5083 -0.1735
   12HFIP    F8  140   0.281   2.041   2.043  0.0630 -0.1023  0.2175
   12HFIP    F9  141   0.305   2.190   2.204 -0.6387  0.3664 -0.3479
   12HFIP   F10  142   0.476   2.123   2.087  0.2975  0.2839  0.0577
   12HFIP   H11  143   0.416   2.407   2.037 -0.2139  1.0702 -1.0442
   12HFIP   H12  144   0.313   2.198   1.871 -0.1553 -0.1863 -1.3499
   13HFIP    O1  145   2.613   1.660   1.515  0.7366  0.6299 -0.7141
   13HFIP    C2  146   2.633   1.534   1.543 -0.2582  0.0335  0.1860
   13HFIP    C3  147   2.500   1.468   1.593 -0.5319 -0.0906  0.3344
   13HFIP    F4  148   2.395   1.507   1.515  0.4468 -0.0998 -0.0943
   13HFIP    F5  149   2.475   1.505   1.722 -0.3510 -0.0302  0.3051
   13HFIP    F6  150   2.497   1.331   1.587  0.3370  0.3826 -0.1778
   13HFIP    C7  151   2.763   1.510   1.621 -0.2234 -0.1228  0.1722
   13HFIP    F8  152   2.778   1.597   1.726 -0.6234  0.2367 -0.0617
   13HFIP    F9  153   2.871   1.522   1.534 -0.3056 -0.2264 -0.3494
   13HFIP   F10  154   2.766   1.387   1.676  0.0527  0.6721 -0.1730
   13HFIP   H11  155   2.572   1.705   1.594  1.6876  1.2074 -0.5325
   13HFIP   H12  156   2.655   1.478   1.451 -2.1803 -0.4930  0.0188
   14HFIP    O1  157   2.234   1.044   2.188  0.2442 -0.0498  0.1659
   14HFIP    C2  158   2.345   1.084   2.272  0.2181  0.0649  0.6399
   14HFIP    C3  159   2.470   0.994   2.258 -0.2509  0.1824 -0.0260
   14HFIP    F4  160   2.502   0.965   2.127 -0.3400  0.4611  0.3046
   14HFIP    F5  161   2.445   0.873   2.319 -0.0407  0.4632 -0.1329
   14HFIP    F6  162   2.590   1.027   2.304  0.4820 -0.4008  0.1542
   14HFIP    C7  163   2.291   1.097   2.416 -0.0389 -0.0202 -0.3723
   14HFIP    F8  164   2.219   1.211   2.436  0.2151  0.0098 -0.0063
   14HFIP    F9  165   2.387   1.101   2.513  0.1495 -0.1845 -0.1271
   14HFIP   F10  166   2.194   1.006   2.442  0.4528  0.3480 -0.0804
   14HFIP   H11  167   2.197   0.952   2.198 -1.4853  0.6197  0.0977
   14HFIP   H12  168   2.371   1.186   2.243  0.0543 -0.2477 -0.6728
   15HFIP    O1  169   1.676   0.132   2.506 -0.7284  0.4096 -0.2841
   15HFIP    C2  170   1.763   0.221   2.559 -0.1988  0.0797 -0.0626
   15HFIP    C3  171   1.784   0.354   2.480  0.8724 -0.2683 -0.1828
   15HFIP    F4  172   1.848   0.452   2.545 -0.1412  0.1910  0.2944
   15HFIP    F5  173   1.661   0.398   2.442  0.0121  0.1202 -0.1021
   15HFIP    F6  174   1.838   0.324   2.361 -0.1202 -0.1393  0.4176
   15HFIP    C7  175   1.902   0.157   2.581 -0.3461 -0.2975  0.5483
   15HFIP    F8  176   1.879   0.048   2.663  0.3792 -0.0155 -0.1077
   15HFIP    F9  177   1.996   0.219   2.656 -0.3148  0.2511 -0.1252
   15HFIP   F10  178   1.957   0.092   2.480  0.5708 -0.2075 -0.1392
   15HFIP   H11  179   1.701   0.124   2.410  1.1691  0.5354  0.1891
   15HFIP   H12  180   1.733   0.245   2.661 -0.5687  1.1672 -0.4150
   16HFIP    O1  181   0.166   1.361   2.658 -0.0315 -0.7340 -0.2962
   16HFIP    C2  182   0.113   1.232   2.637 -0.1030 -0.2265  0.0684
   16HFIP    C3  183  -0.032   1.238   2.584  0.4308 -0.5417  0.6037
   16HFIP    F4  184  -0.025   1.255   2.452  0.6798  0.1433  0.0385
   16HFIP    F5  185  -0.096   1.347   2.639 -0.0402 -0.6254  0.2431
   16HFIP    F6  186  -0.107   1.127   2.608  0.0122 -0.2285 -0.0772
   16HFIP    C7  187   0.116   1.167   2.783  0.2730 -0.2272  0.0088
   16HFIP    F8  188   0.013   1.219   2.852 -0.4893  1.0033  0.1781
   16HFIP    F9  189   0.225   1.201   2.857 -0.6373 -0.2001 -0.6355
   16HFIP   F10  190   0.112   1.032   2.778 -0.4414 -0.0549  0.4182
   16HFIP   H11  191   0.088   1.424   2.670 -1.2739 -2.4394  0.8362
   16HFIP   H12  192   0.176   1.170   2.572  3.2388  2.7231  0.3236
   17HFIP    O1  193   2.290   2.205   1.035 -0.6535  0.0794  0.2197
   17HFIP    C2  194   2.304   2.323   1.103  0.1604 -0.0367 -0.7209
   17HFIP    C3  195   2.409   2.331   1.218  0.2189  0.0538  0.1418
   17HFIP    F4  196   2.372   2.267   1.330 -0.2607  0.2067 -0.2735
   17HFIP    F5  197   2.448   2.461   1.236 -0.7521  0.1283 -0.1740
   17HFIP    F6  198   2.523   2.271   1.181  0.1171 -0.2908  0.0179
   17HFIP    C7  199   2.162   2.352   1.159 -0.1431  0.0664  0.3293
   17HFIP    F8  200   2.066   2.359   1.061 -0.4874  0.4613  0.1038
   17HFIP    F9  201   2.154   2.468   1.227 -0.1240  0.0143 -0.2550
   17HFIP   F10  202   2.125   2.256   1.246 -0.3444  0.5411  0.4362
   17HFIP   H11  203   2.204   2.167   1.069  0.2587 -1.2641  1.0943
   17HFIP   H12  204   2.319   2.405   1.033 -0.1602  0.9800  0.3952
   18HFIP    O1  205   1.533   1.072   1.265 -0.4281 -0.4599 -0.2529
   18HFIP    C2  206   1.577   1.074   1.396  0.1749 -0.2723 -0.0665
   18HFIP    C3  207   1.460   1.098   1.501 -0.3582 -0.4793 -0.4573
   18HFIP    F4  208   1.360   1.176   1.449  0.1311  0.1802 -0.4552
   18HFIP    F5  209   1.489   1.125   1.631  0.3251 -0.4158  0.1380
   18HFIP    F6  210   1.398   0.976   1.520  0.3580 -0.0662 -0.2122
   18HFIP    C7  211   1.687   1.183   1.413 -0.2911 -0.8653 -0.4201
   18HFIP    F8  212   1.642   1.308   1.435 -0.2775 -0.3932  0.5367
   18HFIP    F9  213   1.771   1.175   1.304 -0.6973 -0.5290  0.3283
   18HFIP   F10  214   1.765   1.163   1.523 -0.3133 -0.1365  0.2578
   18HFIP   H11  215   1.498   1.164   1.246 -0.3230 -0.5323 -0.8091
   18HFIP   H12  216   1.626   0.979   1.418  0.3297 -0.0764  0.4550
   19HFIP    O1  217   1.501   0.820   1.213  0.1245 -0.2173 -0.1922
   19HFIP    C2  218   1.595   0.723   1.189  0.2577  0.2434 -0.4179
   19HFIP    C3  219   1.622   0.644   1.316  0.0352  0.4001 -0.3221
   19HFIP    F4  220   1.512   0.622   1.394 -0.0762  0.2389  0.0542
   19HFIP    F5  221   1.710   0.694   1.404 -0.3722 -0.2272  0.0736
   19HFIP    F6  222   1.661   0.514   1.289 -0.1988 -0.4157  0.2297
   19HFIP    C7  223   1.721   0.783   1.119  0.0295 -0.4817 -0.3886
   19HFIP    F8  224   1.701   0.850   0.999  0.0012  0.4868 -0.4161
   19HFIP    F9  225   1.820   0.690   1.091  0.2874  0.6065  0.1639
   19HFIP   F10  226   1.770   0.878   1.206 -0.3563  0.2919  1.2189
   19HFIP   H11  227   1.541   0.911   1.222 -1.0087  0.3692 -0.9103
   19HFIP   H12  228   1.552   0.655   1.116  1.7345 -1.3332  0.1379
   20HFIP    O1  229   0.526   0.240   0.186  1.2961 -0.4115 -0.1941
   20HFIP    C2  230   0.518   0.296   0.316 -0.1932 -0.1963 -0.0710
   20HFIP    C3  231   0.437   0.429   0.301 -0.5822  0.0583 -1.0742
   20HFIP    F4  232   0.470   0.504   0.193 -0.3023 -0.2489 -0.1718
   20HFIP    F5  233   0.446   0.506   0.410  0.1641 -0.6012  0.0156
   20HFIP    F6  234   0.306   0.392   0.280  0.3477 -0.3163 -0.0830
   20HFIP    C7  235   0.661   0.305   0.366 -0.9102 -0.0406 -0.9651
   20HFIP    F8  236   0.723   0.183   0.362  0.3912 -0.3895  0.3792
   20HFIP    F9  237   0.665   0.344   0.495 -0.2742  0.3749 -0.2270
   20HFIP   F10  238   0.732   0.385   0.283  0.4420 -0.2627 -0.0163
   20HFIP   H11  239   0.523   0.316   0.122 -1.0877 -0.8939 -0.6948
   20HFIP   H12  240   0.462   0.235   0.387 -0.2712 -0.7223 -0.5775
   21HFIP    O1  241   0.573   2.506   1.792 -0.0749  0.1650 -0.4892
   21HFIP    C2  242   0.595   2.454   1.667 -0.8447  0.4609 -0.1714
   21HFIP    C3  243   0.470   2.457   1.576 -0.4359  0.2172  0.3867
   21HFIP    F4  244   0.368   2.400   1.636  0.1152 -0.3367 -0.1610
   21HFIP    F5  245   0.483   2.406   1.456 -0.3127  0.2768  0.0912
   21HFIP    F6  246   0.437   2.587   1.551 -0.8368  0.1705  0.2624
   21HFIP    C7  247   0.671   2.319   1.671 -0.3760  0.0598 -0.0140
   21HFIP    F8  248   0.693   2.266   1.549  0.1826  0.3728 -0.3167
   21HFIP    F9  249   0.608   2.216   1.731  0.2731  0.0036  0.1444
   21HFIP   F10  250   0.793   2.342   1.731  0.0469  0.7044 -0.0656
   21HFIP   H11  251   0.497   2.455   1.831 -0.0317  0.4011 -0.0902
   21HFIP   H12  252   0.668   2.520   1.619 -0.2389 -0.1920 -0.1595
   22HFIP    O1  253   0.470   2.527   2.170 -0.5183 -0.0120  0.5260
   22HFIP    C2  254   0.403   2.545   2.291  0.0358 -0.1249 -0.2766
   22HFIP    C3  255   0.330   2.677   2.291  0.2042 -0.4999 -0.3863
   22HFIP    F4  256   0.232   2.675   2.198 -0.2868  0.4072  0.4518
   22HFIP    F5  257   0.412   2.782   2.269  0.0622  0.0535  0.0003
   22HFIP    F6  258   0.269   2.708   2.410  0.0563 -0.0940  0.9097
   22HFIP    C7  259   0.507   2.525   2.407  0.6054  0.3284  0.8504
   22HFIP    F8  260   0.521   2.392   2.439  0.2076 -0.2069  0.3588
   22HFIP    F9  261   0.475   2.571   2.528  0.1677 -0.0059 -0.1531
   22HFIP   F10  262   0.629   2.570   2.372  0.0135 -0.8037  0.4645
   22HFIP   H11  263   0.564   2.561   2.164 -0.9714  1.5436  1.7624
   22HFIP   H12  264   0.328   2.468   2.307  0.5031 -0.7226 -0.9197
   23HFIP    O1  265   0.861   0.286   1.391  0.3471  0.3348 -0.6978
   23HFIP    C2  266   0.804   0.161   1.392 -0.1599 -0.6449 -0.2154
   23HFIP    C3  267   0.671   0.170   1.474 -0.2071 -0.1209 -0.2042
   23HFIP    F4  268   0.685   0.216   1.602 -0.0301 -0.1303  0.2221
   23HFIP    F5  269   0.609   0.052   1.476  0.2019 -0.2796  0.3155
   23HFIP    F6  270   0.576   0.260   1.426 -0.4922  0.1310  0.5393
   23HFIP    C7  271   0.903   0.048   1.440 -0.6454 -0.2665 -0.5342
   23HFIP    F8  272   0.969   0.062   1.560  0.0480  0.5038 -0.6292
   23HFIP    F9  273   1.008   0.043   1.357  0.4272  0.1323  0.2868
   23HFIP   F10  274   0.856  -0.081   1.426  0.5736  0.1422  0.0967
   23HFIP   H11  275   0.891   0.317   1.481 -1.1123  2.6433 -0.9559
   23HFIP   H12  276   0.771   0.139   1.290  0.7820  1.2976 -0.9699
   24HFIP    O1  277   0.225   0.894   1.724 -1.0532  0.3985 -0.6578
   24HFIP    C2  278   0.089   0.906   1.769 -0.2821  1.0096  0.5926
   24HFIP    C3  279   0.029   1.042   1.727  0.2666  0.2948  0.2071
   24HFIP    F4  280   0.021   1.054   1.590 -0.0746  0.0616  0.1265
   24HFIP    F5  281   0.104   1.144   1.775  0.2688  0.0629 -0.1334
   24HFIP    F6  282  -0.096   1.074   1.768  0.7832 -0.4023  0.1727
   24HFIP    C7  283   0.084   0.878   1.918 -0.6334  0.1282 -0.2064
   24HFIP    F8  284  -0.040   0.854   1.962  0.4813 -0.2434  0.4377
   24HFIP    F9  285   0.148   0.967   2.001 -0.3842 -0.0842 -0.2828
   24HFIP   F10  286   0.148   0.761   1.951  0.4835  0.0231  0.3891
   24HFIP   H11  287   0.272   0.978   1.751  0.3398 -0.3538 -0.6978
   24HFIP   H12  288   0.029   0.830   1.718  1.5428  0.0566 -0.1962
   25HFIP    O1  289   0.400   0.176   0.945  0.3549  0.0415 -0.0897
   25HFIP    C2  290   0.430   0.292   1.023 -0.0330 -0.1998 -0.2486
   25HFIP    C3  291   0.332   0.297   1.144 -0.4196 -0.4782 -0.4212
   25HFIP    F4  292   0.349   0.412   1.212  0.2735 -0.6155  0.2977
   25HFIP    F5  293   0.360   0.200   1.236  0.1630  0.2554  0.0451
   25HFIP    F6  294   0.208   0.272   1.106  0.6394  0.3866  0.2652
   25HFIP    C7  295   0.440   0.425   0.930 -0.2303  0.8578 -0.5427
   25HFIP    F8  296   0.457   0.550   0.986 -0.0476  0.5393  0.3069
   25HFIP    F9  297   0.312   0.448   0.878 -0.1633 -0.5276 -0.1544
   25HFIP   F10  298   0.533   0.395   0.834  0.0010 -0.0469  0.0039
   25HFIP   H11  299   0.325   0.198   0.883  0.3608  0.4820  0.0585
   25HFIP   H12  300   0.532   0.281   1.060 -0.3096 -1.2731  0.2298
   26HFIP    O1  301   1.012   0.964   2.438  0.2509 -0.3279 -0.1752
   26HFIP    C2  302   0.884   0.941   2.392 -0.4639  0.5822  0.5680
   26HFIP    C3  303   0.791   0.895   2.499  0.0694 -0.4875 -0.5851
   26HFIP    F4  304   0.667   0.880   2.447  0.6861 -0.5808 -0.2862
   26HFIP    F5  305   0.794   0.980   2.607  0.7140  0.6889 -0.1706
   26HFIP    F6  306   0.830   0.781   2.559  0.0318  0.4872  0.2349
   26HFIP    C7  307   0.897   0.826   2.279  0.9725  0.1258  0.7343
   26HFIP    F8  308   0.944   0.708   2.323 -0.2454 -0.0411  0.2301
   26HFIP    F9  309   0.999   0.856   2.198 -0.1213 -0.0016  0.3630
   26HFIP   F10  310   0.784   0.801   2.202 -0.3627  0.7403  0.0301
   26HFIP   H11  311   1.049   0.873   2.456  0.3174 -0.0763  0.9644
   26HFIP   H12  312   0.855   1.034   2.343  1.7539  0.2044 -1.6114
   27HFIP    O1  313   2.326   2.302   0.583  0.7157  0.0903  0.2860
   27HFIP    C2  314   2.309   2.441   0.573  0.8375  0.8790 -0.4790
   27HFIP    C3  315   2.442   2.508   0.609  0.4551 -0.0105  0.9393
   27HFIP    F4  316   2.446   2.630   0.552 -0.7479 -0.1442  0.2373
   27HFIP    F5  317   2.554   2.441   0.564  0.2522  0.3811 -0.0122
   27HFIP    F6  318   2.457   2.527   0.742 -0.1840  0.0107 -0.0799
   27HFIP    C7  319   2.181   2.488   0.659 -0.5499  0.0163  0.0551
   27HFIP    F8  320   2.063   2.422   0.637  0.3044 -0.8702 -0.2344
   27HFIP    F9  321   2.158   2.617   0.641 -0.1875 -0.0529  0.1137
   27HFIP   F10  322   2.205   2.458   0.793 -0.2648  0.5463 -0.7023
   27HFIP   H11  323   2.361   2.280   0.674  1.4141 -1.4965 -0.3466
   27HFIP   H12  324   2.286   2.469   0.470 -1.6810 -0.2963 -0.2611
   28HFIP    O1  325   0.979   0.475   1.242 -0.1973 -0.1172  0.0341
   28HFIP    C2  326   0.981   0.477   1.099  0.0173  0.3390  0.2375
   28HFIP    C3  327   0.840   0.442   1.046 -0.1095 -0.1960  0.4061
   28HFIP    F4  328   0.794   0.324   1.088 -0.0655  0.2383  0.1312
   28HFIP    F5  329   0.836   0.437   0.907 -0.2248 -0.4042  0.2362
   28HFIP    F6  330   0.744   0.531   1.079  0.0686  0.0809 -0.2855
   28HFIP    C7  331   1.095   0.396   1.029 -0.5183 -0.4962 -0.1549
   28HFIP    F8  332   1.092   0.268   1.068 -0.1914 -0.3647  0.2961
   28HFIP    F9  333   1.222   0.428   1.074  0.2333 -0.0864 -0.4828
   28HFIP   F10  334   1.111   0.395   0.896 -0.0558 -0.0248  0.2447
   28HFIP   H11  335   0.956   0.381   1.267 -0.7073 -0.2683 -0.9799
   28HFIP   H12  336   1.005   0.579   1.066  1.9225 -0.8701 -2.3717
   29HFIP    O1  337   0.242   0.656   1.596  0.5918  0.3744 -0.0164
   29HFIP    C2  338   0.290   0.675   1.466  0.0703  0.2667  0.4094
   29HFIP    C3  339   0.449   0.668   1.475 -0.3900  0.2150  0.3174
   29HFIP    F4  340   0.502   0.756   1.558 -0.0544  0.0140 -0.1165
   29HFIP    F5  341   0.505   0.692   1.353 -0.0542 -0.3405 -0.1424
   29HFIP    F6  342   0.505   0.551   1.524  0.4640  0.0318  0.1787
   29HFIP    C7  343   0.232   0.801   1.387 -0.5547  0.2155  0.1761
   29HFIP    F8  344   0.297   0.907   1.435 -0.3993 -0.0428  0.7193
   29HFIP    F9  345   0.096   0.816   1.411 -0.2252 -0.5421  0.2098
   29HFIP   F10  346   0.255   0.799   1.256  0.2708 -0.4021  0.0798
   29HFIP   H11  347   0.253   0.737   1.653  2.1595 -0.1767  0.4838
   29HFIP   H12  348   0.264   0.586   1.408 -0.2899  1.0259 -0.6192
   30HFIP    O1  349   1.757   1.779   0.433 -0.2632  0.0566  0.1146
   30HFIP    C2  350   1.860   1.724   0.505 -0.3297 -0.0950 -0.4800
   30HFIP    C3  351   1.991   1.726   0.426  0.3986  0.0909 -0.7083
   30HFIP    F4  352   1.994   1.636   0.329 -0.1479  0.5377 -0.4398
   30HFIP    F5  353   2.102   1.723   0.500  0.0763 -0.0467 -0.8055
   30HFIP    F6  354   2.007   1.842   0.359 -0.4363 -0.4370  0.1830
   30HFIP    C7  355   1.837   1.581   0.557  0.1330  0.1757 -0.2197
   30HFIP    F8  356   1.788   1.496   0.460  0.0735 -0.1113  0.4558
   30HFIP    F9  357   1.737   1.587   0.649  0.1311  0.9429 -0.0826
   30HFIP   F10  358   1.951   1.530   0.608 -0.1724 -0.6416  1.0019
   30HFIP   H11  359   1.750   1.719   0.353 -1.2531  0.4800 -0.1202
   30HFIP   H12  360   1.878   1.787   0.591 -0.8601 -2.1772  1.1962
   31HFIP    O1  361   1.100   1.220   2.519 -0.0759 -0.2510  0.7058
   31HFIP    C2  362   1.159   1.250   2.641 -0.2431  0.0999 -0.2859
   31HFIP    C3  363   1.315   1.224   2.623  0.0509 -0.0458 -0.2735
   31HFIP    F4  364   1.329   1.113   2.543  0.2179  0.1753  0.6743
   31HFIP    F5  365   1.388   1.209   2.736 -0.1084 -0.2011 -0.0831
   31HFIP    F6  366   1.371   1.324   2.543  0.1730  0.2071 -0.2359
   31HFIP    C7  367   1.098   1.160   2.750  0.2536 -0.3546 -0.0883
   31HFIP    F8  368   1.168   1.163   2.866  0.0944  0.4770  0.0414
   31HFIP    F9  369   1.096   1.029   2.713 -0.3549 -0.4192  0.2148
   31HFIP   F10  370   0.968   1.194   2.776 -0.2341  0.3955 -0.0641
   31HFIP   H11  371   1.094   1.121   2.510  1.4907 -0.2020 -1.0710
   31HFIP   H12  372   1.145   1.357   2.648 -2.7904 -0.3885  3.4971
   32HFIP    O1  373   1.372   0.636   0.325  1.0330 -0.8467  0.0772
   32HFIP    C2  374   1.242   0.593   0.304  0.0560 -0.0155  0.9702
   32HFIP    C3  375   1.218   0.480   0.411  0.1789  0.3303 -0.2407
   32HFIP    F4  376   1.258   0.521   0.532 -0.0606  0.1861  0.3359
   32HFIP    F5  377   1.292   0.366   0.390 -0.0314  0.4573 -0.0431
   32HFIP    F6  378   1.088   0.443   0.437  0.1952 -0.1004  0.1369
   32HFIP    C7  379   1.218   0.558   0.154 -0.4995  0.3658  0.0535
   32HFIP    F8  380   1.262   0.654   0.067 -0.0488  0.0804  0.4213
   32HFIP    F9  381   1.081   0.559   0.140  0.3436  0.4995  0.4901
   32HFIP   F10  382   1.260   0.442   0.101 -0.1041 -0.1058  0.1954
   32HFIP   H11  383   1.421   0.557   0.363  2.9839 -0.1478 -0.9462
   32HFIP   H12  384   1.181   0.680   0.332  2.4251  0.2484  5.7770
   33HFIP    O1  385   2.387   0.997   1.170  0.3540  0.0632 -0.0722
   33HFIP    C2  386   2.279   1.080   1.167 -0.1548  0.0997 -0.0773
   33HFIP    C3  387   2.261   1.160   1.306 -0.0979 -0.7584  0.3434
   33HFIP    F4  388   2.383   1.226   1.333 -0.3444  0.0995  0.4982
   33HFIP    F5  389   2.242   1.069   1.401  0.1754  0.1082  0.4188
   33HFIP    F6  390   2.166   1.260   1.306 -0.7198  0.1383  0.2369
   33HFIP    C7  391   2.154   1.003   1.104  0.0809  0.4676  0.0558
   33HFIP    F8  392   2.194   0.883   1.051 -0.4201  0.2468 -0.0357
   33HFIP    F9  393   2.082   1.078   1.013  0.3637  0.0359 -0.5511
   33HFIP   F10  394   2.065   0.976   1.206  0.0570 -0.7836  0.6834
   33HFIP   H11  395   2.372   0.934   1.246  0.0310 -0.2995 -0.4346
   33HFIP   H12  396   2.304   1.156   1.092 -1.2736  0.1938 -0.3662
   34HFIP    O1  397   1.226   1.310   2.037 -0.0701 -0.9627  0.5329
   34HFIP    C2  398   1.196   1.184   2.001  0.0334 -0.0152  0.0913
   34HFIP    C3  399   1.050   1.172   1.958 -0.0154 -0.1942  0.7327
   34HFIP    F4  400   0.970   1.187   2.069 -0.0185 -0.7154  0.4872
   34HFIP    F5  401   1.028   1.059   1.889 -0.2155 -0.7138  0.3397
   34HFIP    F6  402   1.016   1.275   1.878  0.1356  0.5964  0.2739
   34HFIP    C7  403   1.238   1.091   2.119  0.2549  0.2803  0.1364
   34HFIP    F8  404   1.177   1.117   2.238 -0.3589 -0.2991  0.4511
   34HFIP    F9  405   1.370   1.102   2.134  0.0264 -0.2375  0.1737
   34HFIP   F10  406   1.215   0.958   2.090  0.2125 -0.1827  0.3052
   34HFIP   H11  407   1.199   1.333   2.131 -1.0468 -2.9712  0.7707
   34HFIP   H12  408   1.260   1.163   1.915 -0.0066  0.1785  0.0152
   35HFIP    O1  409   2.531   0.807   0.522 -0.0511 -0.2653  0.4570
   35HFIP    C2  410   2.422   0.786   0.599  0.4165  0.1828 -0.6788
   35HFIP    C3  411   2.327   0.684   0.524  0.3452 -0.3032 -0.2501
   35HFIP    F4  412   2.353   0.555   0.550  0.0957 -0.4534 -0.5032
   35HFIP    F5  413   2.342   0.688   0.391 -0.1633  0.2553  0.0925
   35HFIP    F6  414   2.196   0.687   0.557  0.6182 -0.4557 -0.1767
   35HFIP    C7  415   2.349   0.914   0.643 -0.9419  0.8555  0.1362
   35HFIP    F8  416   2.437   1.016   0.625  0.6012  0.0002  0.2482
   35HFIP    F9  417   2.316   0.908   0.773  0.4923  0.2463 -0.3946
   35HFIP   F10  418   2.250   0.953   0.564  0.1495 -0.1079  0.0363
   35HFIP   H11  419   2.510   0.854   0.437  1.3127 -1.4444 -0.5599
   35HFIP   H12  420   2.462   0.741   0.690 -0.4917  0.7270  0.0004
   36HFIP    O1  421   2.435   2.004   2.335 -0.0933  0.5236  0.2926
   36HFIP    C2  422   2.553   2.043   2.391  0.3562 -0.6306  0.1682
   36HFIP    C3  423   2.560   2.028   2.544  0.4040  0.2542 -0.0207
   36HFIP    F4  424   2.520   1.908   2.594  0.1824 -0.2052  0.1075
   36HFIP    F5  425   2.480   2.119   2.612 -0.0054 -0.1672 -0.2408
   36HFIP    F6  426   2.687   2.048   2.585 -0.3009  0.3101 -0.2945
   36HFIP    C7  427   2.597   2.185   2.341  0.2000 -0.5937 -0.7172
   36HFIP    F8  428   2.524   2.290   2.396  0.3611  0.6604  0.2826
   36HFIP    F9  429   2.564   2.206   2.211 -0.0135 -0.0663 -0.1615
   36HFIP   F10  430   2.727   2.210   2.351  0.5216  0.0877 -0.2857
   36HFIP   H11  431   2.377   2.084   2.318  0.6954  0.4491 -3.1764
   36HFIP   H12  432   2.632   1.974   2.360  2.1778  0.2008  2.8093
   37HFIP    O1  433   2.246   2.170   2.324 -1.0127  0.0698 -0.3863
   37HFIP    C2  434   2.198   2.225   2.212 -0.6529 -0.4460  0.0103
   37HFIP    C3  435   2.099   2.337   2.256 -0.1188 -0.1447 -0.0595
   37HFIP    F4  436   2.149   2.465   2.260  0.2510 -0.0396 -0.4972
   37HFIP    F5  437   2.043   2.334   2.382 -0.3164  0.4798 -0.2124
   37HFIP    F6  438   1.993   2.342   2.177 -0.1729 -0.3958 -0.1845
   37HFIP    C7  439   2.148   2.107   2.117 -0.2816  0.8517  0.2451
   37HFIP    F8  440   2.215   1.992   2.147 -0.4229 -0.6514 -0.3463
   37HFIP    F9  441   2.168   2.126   1.987  0.2855 -0.4998 -1.0090
   37HFIP   F10  442   2.020   2.067   2.149  0.5102 -0.0564 -0.4659
   37HFIP   H11  443   2.176   2.173   2.395 -0.5334  1.1627  0.0500
   37HFIP   H12  444   2.280   2.273   2.159 -0.6832 -1.8557 -1.3402
   38HFIP    O1  445   2.054   2.075   1.042  0.2786  0.0272  0.7789
   38HFIP    C2  446   2.036   1.941   1.009  0.2751  0.6827  0.2372
   38HFIP    C3  447   1.949   1.920   0.882  0.5116  0.0948 -0.2786
   38HFIP    F4  448   1.822   1.902   0.921 -0.1074  0.0032 -0.1065
   38HFIP    F5  449   1.980   1.804   0.815 -0.3189 -0.0197 -0.1785
   38HFIP    F6  450   1.958   2.022   0.798 -0.6040 -0.3178  0.2045
   38HFIP    C7  451   1.987   1.862   1.140 -0.7464  0.7387  0.1359
   38HFIP    F8  452   2.082   1.886   1.233  0.7244 -0.1345  0.3297
   38HFIP    F9  453   1.968   1.728   1.104 -0.2385 -0.0919 -0.1152
   38HFIP   F10  454   1.870   1.911   1.185 -0.4975 -0.4694  0.2439
   38HFIP   H11  455   1.981   2.087   1.109 -1.0420  2.3671 -0.9841
   38HFIP   H12  456   2.138   1.905   0.996 -0.3840 -1.4791  0.8304
   39HFIP    O1  457   1.674   0.284   2.067 -0.3328 -0.6347 -0.0758
   39HFIP    C2  458   1.544   0.327   2.089  0.4702 -0.3522  0.1798
   39HFIP    C3  459   1.445   0.210   2.066  0.0041 -0.5824 -0.0039
   39HFIP    F4  460   1.448   0.148   1.947  0.4048  0.1516 -0.3133
   39HFIP    F5  461   1.313   0.242   2.079 -0.2274 -0.2448  0.1274
   39HFIP    F6  462   1.465   0.112   2.155 -0.4878  0.0824 -0.0229
   39HFIP    C7  463   1.514   0.453   2.015  0.5803 -0.0493  0.2259
   39HFIP    F8  464   1.619   0.540   2.034  0.3599  0.8213  0.3986
   39HFIP    F9  465   1.403   0.521   2.062  0.0418  0.8196 -0.3803
   39HFIP   F10  466   1.503   0.431   1.881  0.5247 -0.1077 -0.3716
   39HFIP   H11  467   1.699   0.276   1.971  0.9509  2.2741 -0.0468
   39HFIP   H12  468   1.529   0.339   2.197 -2.4844 -1.7845 -0.0140
   40HFIP    O1  469   1.750   0.084   2.238  0.3059 -0.2762  0.8330
   40HFIP    C2  470   1.838  -0.018   2.209 -0.6584  0.5009  0.4973
   40HFIP    C3  471   1.963   0.030   2.131 -0.1829  0.5527  0.8106
   40HFIP    F4  472   1.945   0.082   2.009  0.4573 -0.0410  0.0175
   40HFIP    F5  473   2.061  -0.064   2.124  0.1291 -0.1818  0.3223
   40HFIP    F6  474   2.029   0.122   2.204  0.0274 -0.3108  0.5786
   40HFIP    C7  475   1.769  -0.119   2.122  0.0662 -0.0669 -0.3545
   40HFIP    F8  476   1.855  -0.210   2.073  0.3874  0.4539  0.1491
   40HFIP    F9  477   1.694  -0.057   2.024 -0.0030 -0.9481 -0.4610
   40HFIP   F10  478   1.683  -0.185   2.200 -0.3050 -0.1681  0.3234
   40HFIP   H11  479   1.736   0.137   2.154  1.8569 -1.8825 -0.4857
   40HFIP   H12  480   1.868  -0.078   2.295 -0.3398  1.4693  1.0814
   41HFIP    O1  481   2.288   1.773   2.328  0.4010 -0.1648 -0.4130
   41HFIP    C2  482   2.350   1.658   2.281 -0.2565 -0.4674  0.0830
   41HFIP    C3  483   2.447   1.602   2.387  0.3672  0.1984 -0.0580
   41HFIP    F4  484   2.473   1.468   2.371 -0.0110 -0.6481 -0.0596
   41HFIP    F5  485   2.401   1.611   2.519 -0.3098  0.1151  0.5916
   41HFIP    F6  486   2.570   1.656   2.390  0.6813 -0.3151  0.5786
   41HFIP    C7  487   2.412   1.685   2.142 -0.1030  0.1675  0.0724
   41HFIP    F8  488   2.318   1.713   2.046 -0.4723  0.2608  0.5396
   41HFIP    F9  489   2.475   1.578   2.097  0.6636 -0.2927 -0.4110
   41HFIP   F10  490   2.500   1.789   2.155 -0.6398 -0.2182 -0.2652
   41HFIP   H11  491   2.323   1.850   2.274 -1.9321 -0.0340 -1.8233
   41HFIP   H12  492   2.271   1.585   2.265 -0.4711  0.0024 -0.9957
   42HFIP    O1  493   2.107   2.069   2.513  0.1495 -0.4379 -0.4327
   42HFIP    C2  494   2.073   2.082   2.646 -0.1824 -0.3009 -0.2284
   42HFIP    C3  495   2.143   1.991   2.753 -0.1504 -0.0573 -0.4178
   42HFIP    F4  496   2.197   1.874   2.707 -0.6266 -0.1314  0.2380
   42HFIP    F5  497   2.073   1.966   2.871 -0.1788  0.1906  0.7318
   42HFIP    F6  498   2.254   2.060   2.801  0.2353 -0.4457  0.0795
   42HFIP    C7  499   1.923   2.068   2.661  0.1126 -0.5996 -0.3693
   42HFIP    F8  500   1.865   2.139   2.761 -0.1501  0.4371  0.4564
   42HFIP    F9  501   1.882   1.939   2.670  0.1775  0.3573  0.1150
   42HFIP   F10  502   1.858   2.115   2.548 -0.1915  0.0024 -0.0352
   42HFIP   H11  503   2.088   1.974   2.491 -1.9280 -0.6019  1.8426
   42HFIP   H12  504   2.107   2.182   2.672  0.1819 -0.6686  0.7589
   43HFIP    O1  505   2.656   0.993   1.123 -0.4209  0.3883 -0.5134
   43HFIP    C2  506   2.740   1.086   1.060  0.1651 -0.4024  0.4149
   43HFIP    C3  507   2.796   1.191   1.162 -1.1703  0.1843  0.5833
   43HFIP    F4  508   2.881   1.119   1.239  0.0298  0.1733 -0.3952
   43HFIP    F5  509   2.694   1.241   1.236 -0.4085  0.0458 -0.3383
   43HFIP    F6  510   2.868   1.284   1.096 -0.1166 -0.2019 -0.3555
   43HFIP    C7  511   2.670   1.151   0.942  0.6894 -0.3131 -0.1793
   43HFIP    F8  512   2.578   1.067   0.887  0.4580 -0.3005  0.5905
   43HFIP    F9  513   2.762   1.174   0.848 -0.3905  0.6126 -0.6743
   43HFIP   F10  514   2.603   1.269   0.974 -0.2227 -0.1517 -0.5407
   43HFIP   H11  515   2.567   1.038   1.131 -0.1662  1.2342 -2.2273
   43HFIP   H12  516   2.828   1.042   1.013  1.1973 -1.0813  2.9194
   44HFIP    O1  517   1.111   1.374   2.259 -0.4425  0.4108  0.6514
   44HFIP    C2  518   1.028   1.483   2.255  0.1969 -0.0969 -0.0660
   44HFIP    C3  519   1.100   1.617   2.282 -0.3964  0.9981  0.4155
   44HFIP    F4  520   1.019   1.719   2.325 -0.5050  0.4784  0.0182
   44HFIP    F5  521   1.180   1.647   2.174 -0.0417  0.0033 -0.1549
   44HFIP    F6  522   1.195   1.605   2.379 -0.1433 -0.5618 -0.4269
   44HFIP    C7  523   0.905   1.453   2.347 -0.1890  0.6118 -0.6998
   44HFIP    F8  524   0.803   1.546   2.346  0.0985 -0.3062 -0.1827
   44HFIP    F9  525   0.934   1.431   2.474 -0.0332  0.4790  0.4984
   44HFIP   F10  526   0.854   1.331   2.314  0.0610 -0.1832 -0.0441
   44HFIP   H11  527   1.103   1.343   2.353 -0.1548 -0.1970  0.4729
   44HFIP   H12  528   0.983   1.483   2.155  2.4527 -1.4076 -1.1140
   45HFIP    O1  529   2.186   0.495   0.892  0.1882  0.2065 -0.1642
   45HFIP    C2  530   2.096   0.470   0.996  0.6513 -0.0420  0.4770
   45HFIP    C3  531   2.155   0.495   1.135  0.0207  0.5171 -0.3804
   45HFIP    F4  532   2.051   0.541   1.218 -0.2196 -0.7872  0.2949
   45HFIP    F5  533   2.253   0.590   1.137  0.1710 -0.5140 -0.2151
   45HFIP    F6  534   2.193   0.380   1.199 -0.2006 -0.4364 -0.1757
   45HFIP    C7  535   2.018   0.334   0.989 -0.4279  0.4250 -0.7285
   45HFIP    F8  536   2.103   0.229   0.998 -0.4384  0.0910  0.1515
   45HFIP    F9  537   1.960   0.323   0.867 -0.3309  0.1132  0.2044
   45HFIP   F10  538   1.909   0.314   1.069 -0.3268  0.0488  0.0032
   45HFIP   H11  539   2.168   0.420   0.827 -3.1664 -0.5133  1.4669
   45HFIP   H12  540   2.016   0.544   0.987 -0.1224 -1.2239 -3.8114
   46HFIP    O1  541   1.616   1.967   0.522  0.0102 -0.0801  0.0775
   46HFIP    C2  542   1.634   2.079   0.438 -0.6340  0.2946 -0.0383
   46HFIP    C3  543   1.611   2.036   0.290 -0.3403 -0.4697 -0.5605
   46HFIP    F4  544   1.497   1.966   0.266 -0.4738 -0.1792  0.1990
   46HFIP    F5  545   1.712   1.992   0.213  0.2979 -0.1401 -0.1480
   46HFIP    F6  546   1.580   2.153   0.228 -0.1092  0.0067 -0.1510
   46HFIP    C7  547   1.779   2.132   0.460 -0.5650 -0.6504  0.3431
   46HFIP    F8  548   1.847   2.180   0.353  0.3820  0.5904 -0.4674
   46HFIP    F9  549   1.865   2.036   0.494  0.4527 -0.2893  0.3462
   46HFIP   F10  550   1.787   2.229   0.555  0.1015  0.1702  0.1945
   46HFIP   H11  551   1.690   1.902   0.504 -1.5088 -1.6886 -0.6216
   46HFIP   H12  552   1.566   2.160   0.464 -0.5476  0.3544 -0.0003
   47HFIP    O1  553   0.981   0.407   1.585 -0.3082  0.2015  0.0398
   47HFIP    C2  554   1.075   0.356   1.682 -0.0578 -0.1749  0.7543
   47HFIP    C3  555   1.079   0.453   1.807  0.0935 -0.0943  0.2307
   47HFIP    F4  556   0.965   0.422   1.881  0.1205  0.2113 -0.0755
   47HFIP    F5  557   1.080   0.588   1.772 -0.3632 -0.0111  0.0821
   47HFIP    F6  558   1.179   0.429   1.895  0.4866  0.2801 -0.1259
   47HFIP    C7  559   1.215   0.344   1.615  0.5237  0.6566  0.6151
   47HFIP    F8  560   1.284   0.240   1.669 -0.1274  0.2200 -0.1317
   47HFIP    F9  561   1.297   0.452   1.624  0.5031  0.2308 -0.0029
   47HFIP   F10  562   1.217   0.313   1.485  0.1611  0.1197  0.0017
   47HFIP   H11  563   0.994   0.504   1.569 -0.7141 -0.0057 -1.6097
   47HFIP   H12  564   1.041   0.258   1.714 -1.2716  0.4154  1.3231
   48HFIP    O1  565   1.015   0.636   1.451  0.2736  0.2117 -0.3352
   48HFIP    C2  566   1.019   0.781   1.450 -0.2390 -0.8089 -0.4014
   48HFIP    C3  567   0.878   0.833   1.427  0.1985 -0.4568 -0.3844
   48HFIP    F4  568   0.828   0.780   1.312 -0.8376 -0.4264  0.4644
   48HFIP    F5  569   0.875   0.969   1.428  0.0276 -0.2419 -0.5350
   48HFIP    F6  570   0.785   0.786   1.517  0.1497  0.4342 -0.3999
   48HFIP    C7  571   1.117   0.835   1.339  0.6612  0.0701 -0.4572
   48HFIP    F8  572   1.133   0.969   1.327  0.1432 -0.6286 -0.1093
   48HFIP    F9  573   1.076   0.789   1.221 -0.3077  0.0112 -0.0635
   48HFIP   F10  574   1.239   0.780   1.361  0.0864  0.5142  0.3514
   48HFIP   H11  575   0.993   0.608   1.357  1.3278 -1.9521  0.0399
   48HFIP   H12  576   1.040   0.824   1.548 -0.0849  1.1411 -1.2723
   49HFIP    O1  577   0.199   0.607   2.390 -0.8178  0.6984 -0.2826
   49HFIP    C2  578   0.201   0.735   2.442 -0.3175 -0.4513  0.1539
   49HFIP    C3  579   0.095   0.823   2.370  0.1498 -0.1986  0.2735
   49HFIP    F4  580   0.097   0.813   2.234 -0.1501  0.1818 -0.2469
   49HFIP    F5  581   0.094   0.953   2.403 -0.4963  0.3236 -0.0202
   49HFIP    F6  582  -0.030   0.784   2.411  0.4182  0.0412  0.5587
   49HFIP    C7  583   0.342   0.806   2.450 -0.3913 -0.1931  0.2247
   49HFIP    F8  584   0.427   0.714   2.501 -0.0359 -0.5343 -0.3826
   49HFIP    F9  585   0.355   0.916   2.532  0.0708 -0.0057  0.1376
   49HFIP   F10  586   0.388   0.854   2.333 -0.0148  0.0433 -0.0067
   49HFIP   H11  587   0.279   0.604   2.331  0.3163  3.0609  1.0467
   49HFIP   H12  588   0.164   0.731   2.544  1.0533 -0.6666  0.6568
   50HFIP    O1  589   0.449   2.739   0.918  0.4980  0.1414  0.7212
   50HFIP    C2  590   0.573   2.670   0.922  0.1826 -0.2118  0.4674
   50HFIP    C3  591   0.663   2.721   1.038  0.3213 -0.1870 -0.4604
   50HFIP    F4  592   0.796   2.693   1.024  0.1239 -0.0670  0.2727
   50HFIP    F5  593   0.620   2.672   1.160  0.4191  0.0975  0.3372
   50HFIP    F6  594   0.658   2.855   1.044  0.1371 -0.2315  0.4516
   50HFIP    C7  595   0.646   2.664   0.779  0.3170 -0.3089  1.2180
   50HFIP    F8  596   0.729   2.557   0.763 -0.1733  0.2680  0.0368
   50HFIP    F9  597   0.715   2.778   0.760 -0.6266 -0.2849 -0.0577
   50HFIP   F10  598   0.562   2.658   0.671 -0.6268  0.7350 -0.1942
   50HFIP   H11  599   0.462   2.838   0.930  2.1382 -0.0271  0.5047
   50HFIP   H12  600   0.550   2.566   0.945  3.1082 -1.3599 -1.4723
   51HFIP    O1  601   1.387   1.984   0.629  0.1558  0.1061  0.2084
   51HFIP    C2  602   1.335   1.870   0.689  0.1174 -0.1743 -0.5730
   51HFIP    C3  603   1.427   1.839   0.815 -0.7744 -0.9168  0.8896
   51HFIP    F4  604   1.394   1.731   0.887  0.4193 -0.5031 -0.4680
   51HFIP    F5  605   1.439   1.952   0.894  0.6069  0.4517  0.0591
   51HFIP    F6  606   1.550   1.807   0.769 -0.4491 -0.0723  0.2833
   51HFIP    C7  607   1.318   1.752   0.591 -0.5021 -0.3004 -0.7730
   51HFIP    F8  608   1.290   1.798   0.465 -0.2644  0.0334 -0.8584
   51HFIP    F9  609   1.228   1.663   0.632  0.2807  0.6583  0.2048
   51HFIP   F10  610   1.428   1.676   0.561 -0.6356 -0.1701 -0.0117
   51HFIP   H11  611   1.475   1.965   0.586 -0.1806  0.0094 -0.4346
   51HFIP   H12  612   1.240   1.901   0.733  1.8240  0.4459  2.7981
   52HFIP    O1  613   0.400   1.516   2.719  0.2339 -0.0255  0.4289
   52HFIP    C2  614   0.526   1.473   2.712  0.7931 -0.4029  0.0760
   52HFIP    C3  615   0.536   1.406   2.567 -0.6678  0.4720  0.3791
   52HFIP    F4  616   0.424   1.345   2.523 -0.4495  0.2708  0.5946
   52HFIP    F5  617   0.621   1.299   2.569  0.0393 -0.0833  0.2576
   52HFIP    F6  618   0.570   1.500   2.480  0.1765 -0.2494 -0.3580
   52HFIP    C7  619   0.562   1.396   2.838 -0.7924 -0.0685 -0.2293
   52HFIP    F8  620   0.694   1.403   2.857 -0.1548  0.3929  0.3757
   52HFIP    F9  621   0.529   1.264   2.832 -0.0802  0.0383  0.1243
   52HFIP   F10  622   0.506   1.442   2.952  0.6771 -0.2577 -0.0075
   52HFIP   H11  623   0.340   1.438   2.701 -0.2472  0.2940  0.6492
   52HFIP   H12  624   0.588   1.563   2.713  0.7240 -0.3465 -0.4326
   53HFIP    O1  625   0.205   0.443   2.017 -0.0719 -0.1474  0.8450
   53HFIP    C2  626   0.123   0.376   2.102  1.5667  0.6383 -0.0092
   53HFIP    C3  627   0.142   0.230   2.077 -0.0976 -0.3808  0.1878
   53HFIP    F4  628   0.124   0.199   1.946  0.4876  0.1612  0.1469
   53HFIP    F5  629   0.062   0.142   2.144  0.6776 -0.8502 -0.5383
   53HFIP    F6  630   0.272   0.200   2.095 -1.0780 -0.6790 -0.1303
   53HFIP    C7  631  -0.025   0.432   2.092  0.0296  0.9440 -0.0922
   53HFIP    F8  632  -0.038   0.548   2.158  0.4165  0.1070  0.1267
   53HFIP    F9  633  -0.116   0.342   2.143 -0.4648 -0.0905  0.2769
   53HFIP   F10  634  -0.048   0.463   1.964  0.7769  0.6529 -0.4540
   53HFIP   H11  635   0.173   0.427   1.923  1.7841  0.3014  0.1150
   53HFIP   H12  636   0.152   0.393   2.206  0.0425 -0.3108  0.5946
   54HFIP    O1  637   2.150   0.794   2.223 -0.2794 -0.0030  0.0784
   54HFIP    C2  638   2.091   0.732   2.120 -0.0573 -0.4905 -0.3286
   54HFIP    C3  639   2.008   0.606   2.154  0.2935 -0.0662  0.8508
   54HFIP    F4  640   2.065   0.524   2.246  0.5661 -0.0271 -0.4087
   54HFIP    F5  641   1.969   0.531   2.048 -0.0724  0.2222 -0.1803
   54HFIP    F6  642   1.890   0.643   2.216  0.0004 -0.3900 -0.0146
   54HFIP    C7  643   2.203   0.699   2.016 -0.5845 -0.6412  0.6978
   54HFIP    F8  644   2.135   0.679   1.903  0.0739  0.5129  0.5930
   54HFIP    F9  645   2.273   0.585   2.041 -0.0701 -0.0632 -0.5867
   54HFIP   F10  646   2.285   0.808   1.997 -0.3247 -0.3072 -0.5478
   54HFIP   H11  647   2.171   0.718   2.285  1.5092 -0.0805 -0.5993
   54HFIP   H12  648   2.024   0.802   2.071  2.0665  0.1257 -2.4542
   55HFIP    O1  649   1.477   1.293   1.175 -0.8329 -0.1684 -0.1510
   55HFIP    C2  650   1.445   1.421   1.221 -0.1053 -0.0790 -0.5636
   55HFIP    C3  651   1.315   1.464   1.152  0.1891 -1.0442  0.0882
   55HFIP    F4  652   1.249   1.566   1.211 -0.1637 -0.1128  0.7622
   55HFIP    F5  653   1.229   1.361   1.162 -0.9869 -0.2286 -0.5265
   55HFIP    F6  654   1.339   1.494   1.025  0.1613 -0.4136  0.2508
   55HFIP    C7  655   1.558   1.529   1.193  0.3093 -0.5042 -0.4848
   55HFIP    F8  656   1.676   1.520   1.258  0.1587 -0.1770 -0.3440
   55HFIP    F9  657   1.518   1.649   1.231  0.1063 -0.4837 -0.1792
   55HFIP   F10  658   1.600   1.534   1.065  0.5037  0.3007  0.5599
   55HFIP   H11  659   1.471   1.293   1.076  0.8586 -0.1337 -0.2584
   55HFIP   H12  660   1.430   1.422   1.329  0.5083 -1.8854 -0.4463
   56HFIP    O1  661   0.592   1.030   0.221  0.1136  0.7589  0.4191
   56HFIP    C2  662   0.643   0.934   0.141  0.9023 -0.1824 -0.0510
   56HFIP    C3  663   0.525   0.869   0.055  0.3466 -0.1024 -0.2934
   56HFIP    F4  664   0.462   0.974  -0.007 -0.4795 -0.0843 -0.5995
   56HFIP    F5  665   0.425   0.825   0.137  0.0079 -0.0636  0.2662
   56HFIP    F6  666   0.558   0.774  -0.041 -0.6762  0.2510  0.3571
   56HFIP    C7  667   0.733   0.832   0.209  0.2925  0.1533 -0.0428
   56HFIP    F8  668   0.671   0.739   0.283  0.1502  0.5691 -0.6885
   56HFIP    F9  669   0.824   0.883   0.291 -0.2443 -0.2610 -0.9180
   56HFIP   F10  670   0.805   0.758   0.119 -0.6671  0.0274  0.2184
   56HFIP   H11  671   0.514   1.071   0.174 -0.7737 -1.4598 -0.0765
   56HFIP   H12  672   0.689   0.986   0.057 -0.2933 -2.1776 -2.0152
   57HFIP    O1  673   0.792   1.804   1.142 -0.4899  0.7213 -0.0240
   57HFIP    C2  674   0.906   1.762   1.070 -0.0831 -0.4752  1.0611
   57HFIP    C3  675   1.016   1.869   1.075 -0.2810  0.2082 -0.3875
   57HFIP    F4  676   1.121   1.844   0.990 -0.2071  0.4552 -0.0208
   57HFIP    F5  677   1.060   1.883   1.205 -0.2078  0.2393 -0.5257
   57HFIP    F6  678   0.966   1.995   1.054 -0.0752 -0.1311 -0.0709
   57HFIP    C7  679   0.882   1.713   0.924  0.6757  0.1055 -0.2257
   57HFIP    F8  680   0.979   1.637   0.872 -0.3304 -0.2882 -0.2253
   57HFIP    F9  681   0.865   1.817   0.837  0.1203 -0.3932 -0.3889
   57HFIP   F10  682   0.761   1.649   0.919 -0.0167  0.2430 -0.1205
   57HFIP   H11  683   0.764   1.880   1.083 -0.1757 -0.8666 -2.2823
   57HFIP   H12  684   0.948   1.674   1.118  0.6798 -0.0065  1.2659
   58HFIP    O1  685   2.796   0.701   0.417  0.4648 -0.0185  0.1092
   58HFIP    C2  686   2.923   0.687   0.474  0.9600  0.3978 -0.2824
   58HFIP    C3  687   2.916   0.586   0.596 -0.1541  0.2718  0.6192
   58HFIP    F4  688   3.027   0.510   0.596  0.2474 -0.0925  0.1519
   58HFIP    F5  689   2.802   0.514   0.589 -0.2401 -0.2281 -0.0282
   58HFIP    F6  690   2.910   0.656   0.710 -0.0249 -0.1778 -0.3621
   58HFIP    C7  691   2.976   0.829   0.497 -0.3118  0.5179  0.4013
   58HFIP    F8  692   2.995   0.903   0.387  0.2696 -0.6201  0.0096
   58HFIP    F9  693   3.100   0.829   0.555  0.4686  0.0796 -0.0531
   58HFIP   F10  694   2.888   0.902   0.571 -0.0766 -0.4350 -0.0516
   58HFIP   H11  695   2.733   0.742   0.484 -3.0126 -2.2907 -1.6323
   58HFIP   H12  696   2.988   0.642   0.398 -0.9864 -2.9434 -0.0619
   59HFIP    O1  697   0.655   0.370   2.781 -0.5084 -0.0084  0.2419
   59HFIP    C2  698   0.602   0.443   2.679 -0.3343  0.6875 -0.0238
   59HFIP    C3  699   0.471   0.376   2.633 -0.0152 -0.3037 -0.7628
   59HFIP    F4  700   0.480   0.243   2.628  0.1452  0.2847 -0.4199
   59HFIP    F5  701   0.420   0.412   2.521  0.1449  0.0641 -0.1999
   59HFIP    F6  702   0.374   0.397   2.726 -0.1632  0.1746 -0.5544
   59HFIP    C7  703   0.698   0.458   2.561  0.2264 -0.1910 -0.4455
   59HFIP    F8  704   0.820   0.493   2.607 -0.5305  0.3825  0.8989
   59HFIP    F9  705   0.665   0.553   2.469 -0.8092  0.1880  0.0773
   59HFIP   F10  706   0.724   0.339   2.503 -0.1643  0.0290 -0.2992
   59HFIP   H11  707   0.701   0.289   2.745  1.8174  1.3230  0.1445
   59HFIP   H12  708   0.567   0.541   2.713 -1.6652  0.7733 -1.5522
   60HFIP    O1  709   1.371   2.062   1.863  0.4300  0.6516 -0.2476
   60HFIP    C2  710   1.452   1.983   1.949  0.0331 -0.5127 -0.4092
   60HFIP    C3  711   1.364   1.952   2.075  0.0208  0.4294  0.7296
   60HFIP    F4  712   1.366   2.051   2.167  0.0690 -0.4048 -0.1493
   60HFIP    F5  713   1.404   1.834   2.139 -0.6767  0.5286  0.8015
   60HFIP    F6  714   1.233   1.924   2.042  0.1690  0.5096  0.0902
   60HFIP    C7  715   1.586   2.063   1.980 -0.2589  0.5263  0.0055
   60HFIP    F8  716   1.656   1.992   2.073  0.0591 -0.1243  0.0205
   60HFIP    F9  717   1.571   2.193   2.020 -0.4943  0.0306  0.6349
   60HFIP   F10  718   1.668   2.063   1.871  0.3623 -0.1002 -0.0341
   60HFIP   H11  719   1.346   2.147   1.910  2.8129 -0.0989  2.5328
   60HFIP   H12  720   1.468   1.883   1.908 -0.3266 -1.4476  1.6636
   61HFIP    O1  721   1.638   0.116   0.252 -0.6640  0.4916 -0.4986
   61HFIP    C2  722   1.529   0.092   0.337 -0.1961  0.2031 -0.1035
   61HFIP    C3  723   1.572   0.105   0.483  0.2623  0.6680 -0.0371
   61HFIP    F4  724   1.480   0.044   0.559  0.5447 -0.0507  0.2125
   61HFIP    F5  725   1.581   0.232   0.537  0.1689  0.8078  0.7228
   61HFIP    F6  726   1.694   0.049   0.501 -0.3138 -0.1963 -0.0928
   61HFIP    C7  727   1.455  -0.036   0.298  0.3275 -0.0453 -1.0288
   61HFIP    F8  728   1.475  -0.062   0.167  0.9672  0.1042 -0.0563
   61HFIP    F9  729   1.326  -0.020   0.313 -0.6441  0.4319 -0.1234
   61HFIP   F10  730   1.493  -0.156   0.350 -0.6116 -0.3046 -0.4157
   61HFIP   H11  731   1.701   0.040   0.267 -1.8100 -0.8508 -2.3828
   61HFIP   H12  732   1.453   0.169   0.323  1.0664  1.3383 -0.8551
   62HFIP    O1  733   0.646   1.678   1.320  0.4134 -0.4804  0.1582
   62HFIP    C2  734   0.671   1.710   1.458 -0.0310 -0.0201 -0.5777
   62HFIP    C3  735   0.733   1.859   1.481 -0.3045  0.2331 -0.0241
   62HFIP    F4  736   0.754   1.890   1.611 -0.0775  0.6720  0.3317
   62HFIP    F5  737   0.654   1.961   1.438  0.1458  0.0811  0.1250
   62HFIP    F6  738   0.848   1.875   1.408 -0.2366  0.7247  0.0953
   62HFIP    C7  739   0.750   1.595   1.522  0.4706  0.3584  0.1118
   62HFIP    F8  740   0.680   1.483   1.513 -0.6428 -0.0021 -0.0955
   62HFIP    F9  741   0.781   1.606   1.657 -0.4398 -0.2030  0.4261
   62HFIP   F10  742   0.863   1.565   1.461 -0.5705  0.2830 -0.1497
   62HFIP   H11  743   0.721   1.716   1.264 -0.0128 -3.5533 -2.6500
   62HFIP   H12  744   0.580   1.716   1.518  1.2466  2.1399  1.2672
   63HFIP    O1  745   0.427   1.806   1.257 -0.0848  0.5515 -0.2126
   63HFIP    C2  746   0.332   1.726   1.196 -0.2081  1.1894  0.0202
   63HFIP    C3  747   0.290   1.617   1.299  0.6567  0.5246  0.5406
   63HFIP    F4  748   0.286   1.669   1.423  0.2370  0.0508 -0.1551
   63HFIP    F5  749   0.388   1.529   1.319  0.2936  0.7748 -0.3865
   63HFIP    F6  750   0.173   1.548   1.277 -0.1692 -0.1947  0.3591
   63HFIP    C7  751   0.387   1.664   1.069 -0.1144 -0.5555  0.7611
   63HFIP    F8  752   0.506   1.606   1.089 -0.0693  0.0777 -0.3950
   63HFIP    F9  753   0.411   1.772   0.989 -0.1360 -0.1621 -1.1933
   63HFIP   F10  754   0.299   1.575   1.011  0.0932 -0.1746 -0.0948
   63HFIP   H11  755   0.505   1.749   1.284  0.1614  0.8554 -0.2887
   63HFIP   H12  756   0.248   1.793   1.175 -0.9433  0.1270 -0.5126
   64HFIP    O1  757   2.710   2.334   2.649  0.3001 -0.0202  0.0865
   64HFIP    C2  758   2.846   2.323   2.671  0.3017  0.7100 -0.4809
   64HFIP    C3  759   2.873   2.314   2.822 -0.4227  0.5056 -0.6329
   64HFIP    F4  760   2.992   2.255   2.856 -0.2020  0.4617  0.0849
   64HFIP    F5  761   2.783   2.240   2.890 -0.0366  0.0982 -0.1048
   64HFIP    F6  762   2.886   2.426   2.896 -0.1864 -0.5221 -0.0697
   64HFIP    C7  763   2.927   2.433   2.610  0.2675  0.1574  0.8582
   64HFIP    F8  764   2.882   2.556   2.645 -0.3353  0.0143 -0.3376
   64HFIP    F9  765   2.917   2.426   2.474  0.3136 -0.2212 -0.3547
   64HFIP   F10  766   3.061   2.431   2.635 -0.1430 -0.2396  0.3229
   64HFIP   H11  767   2.675   2.393   2.722 -0.3416 -2.1122  1.5433
   64HFIP   H12  768   2.878   2.230   2.626 -0.7299  1.3878 -2.6515
   65HFIP    O1  769   1.232   2.255   1.968 -0.5765  0.1451 -0.1317
   65HFIP    C2  770   1.282   2.378   1.987  0.3685 -0.5673  0.2041
   65HFIP    C3  771   1.225   2.456   2.115  0.5840 -0.0735 -0.5988
   65HFIP    F4  772   1.313   2.528   2.184  0.1378  1.1083  0.0750
   65HFIP    F5  773   1.194   2.354   2.206 -0.6683  0.1772  0.1927
   65HFIP    F6  774   1.114   2.533   2.083 -0.1806  0.5629 -0.2549
   65HFIP    C7  775   1.263   2.452   1.857 -0.8631  0.3862  0.1140
   65HFIP    F8  776   1.145   2.424   1.802 -0.7238 -0.1787  0.1903
   65HFIP    F9  777   1.340   2.397   1.763 -0.2739  0.1360  0.3716
   65HFIP   F10  778   1.296   2.585   1.856 -0.2525 -0.6850 -0.5334
   65HFIP   H11  779   1.132   2.256   1.973 -0.4756  3.1200  4.0550
   65HFIP   H12  780   1.389   2.375   2.005  0.6869  1.8740 -1.0299
   66HFIP    O1  781   1.538   2.450   1.003  0.3093  0.5222  0.4530
   66HFIP    C2  782   1.549   2.373   0.890 -0.0533 -0.2053 -0.2858
   66HFIP    C3  783   1.665   2.264   0.899 -0.3923 -0.4880 -0.3620
   66HFIP    F4  784   1.787   2.324   0.903 -0.1142 -0.0372 -0.1041
   66HFIP    F5  785   1.659   2.174   0.795  0.1823 -0.1257  0.0067
   66HFIP    F6  786   1.664   2.204   1.019  0.9788 -0.1857  0.0167
   66HFIP    C7  787   1.563   2.460   0.764 -0.0084 -0.4328  0.0946
   66HFIP    F8  788   1.669   2.545   0.756 -0.8450 -0.4022 -0.6592
   66HFIP    F9  789   1.454   2.540   0.752 -0.4329  0.1579  0.1407
   66HFIP   F10  790   1.562   2.384   0.648  0.1669 -0.4966  0.2506
   66HFIP   H11  791   1.617   2.509   1.016 -0.0969  1.5394 -1.4636
   66HFIP   H12  792   1.458   2.313   0.881 -0.0742 -0.4922  1.6572
   67HFIP    O1  793   2.073   1.817   2.440  0.2467 -0.6283 -0.3629
   67HFIP    C2  794   1.963   1.735   2.431  0.6069  0.5518  0.5110
   67HFIP    C3  795   2.007   1.598   2.495 -0.2257 -0.7042 -0.0064
   67HFIP    F4  796   1.898   1.517   2.507  0.2391  0.0007 -0.0090
   67HFIP    F5  797   2.048   1.602   2.623  0.0799  0.1705 -0.3575
   67HFIP    F6  798   2.111   1.532   2.430  0.0389 -0.6286 -0.3466
   67HFIP    C7  799   1.916   1.737   2.288  0.7011  0.7098  0.8453
   67HFIP    F8  800   1.857   1.852   2.255 -0.1569 -0.0766 -0.1988
   67HFIP    F9  801   1.836   1.630   2.252 -0.2495 -0.6311 -0.9182
   67HFIP   F10  802   2.025   1.728   2.201  0.6794  0.1639  0.1522
   67HFIP   H11  803   2.148   1.777   2.387 -0.9084 -2.8445 -0.4106
   67HFIP   H12  804   1.883   1.779   2.490  0.0123 -1.1451  1.0092
   68HFIP    O1  805   1.617   2.484   1.499 -0.0367  0.2088 -0.7745
   68HFIP    C2  806   1.736   2.426   1.538 -0.1533 -0.3628  0.3361
   68HFIP    C3  807   1.796   2.339   1.419  0.3290 -0.0364  0.4750
   68HFIP    F4  808   1.701   2.267   1.354  0.1469  0.1494  0.1791
   68HFIP    F5  809   1.890   2.251   1.460  0.2752  0.3855  0.7532
   68HFIP    F6  810   1.844   2.423   1.320 -0.2076  0.0739  0.7166
   68HFIP    C7  811   1.720   2.343   1.670  0.1226 -0.1558  0.3210
   68HFIP    F8  812   1.816   2.254   1.704  0.1205  0.4631  0.0979
   68HFIP    F9  813   1.595   2.290   1.661  0.4916  0.3265  0.5799
   68HFIP   F10  814   1.703   2.417   1.782 -0.6571  0.2381  0.6805
   68HFIP   H11  815   1.540   2.420   1.493 -0.2107  0.3448 -0.0825
   68HFIP   H12  816   1.810   2.501   1.567  0.1874 -0.5841  0.0470
   69HFIP    O1  817   2.570   2.626   1.585 -0.3061  0.1936 -0.3468
   69HFIP    C2  818   2.695   2.579   1.632 -0.5961 -0.2280 -0.3514
   69HFIP    C3  819   2.768   2.688   1.721  0.0409  0.4110  0.4684
   69HFIP    F4  820   2.712   2.683   1.841  0.5348 -0.2487  0.1949
   69HFIP    F5  821   2.759   2.814   1.681 -0.1136  0.4927 -0.4509
   69HFIP    F6  822   2.902   2.677   1.743 -0.2073 -0.5292  0.1247
   69HFIP    C7  823   2.789   2.529   1.530 -0.1630 -0.0874  0.3444
   69HFIP    F8  824   2.714   2.472   1.429  0.8290 -0.0202 -0.2213
   69HFIP    F9  825   2.874   2.440   1.577  0.2554  0.2942  0.3097
   69HFIP   F10  826   2.858   2.629   1.470  0.1692  0.0505  0.3000
   69HFIP   H11  827   2.590   2.703   1.525  2.0493 -0.9984 -1.1571
   69HFIP   H12  828   2.674   2.496   1.699  1.5810 -0.6134 -0.1112
   70HFIP    O1  829   0.969   2.252   1.952 -0.3154  0.7761 -0.2208
   70HFIP    C2  830   0.902   2.190   2.054 -1.1658  0.4411  0.0255
   70HFIP    C3  831   0.840   2.059   2.009  0.4671  0.9426 -0.1674
   70HFIP    F4  832   0.751   2.003   2.091 -0.0768  0.1064 -0.0270
   70HFIP    F5  833   0.933   1.957   1.996  0.6188 -0.3826  0.1160
   70HFIP    F6  834   0.768   2.065   1.890  0.2278  0.2359 -0.7599
   70HFIP    C7  835   0.801   2.285   2.117  0.7341 -0.2443 -0.1648
   70HFIP    F8  836   0.860   2.410   2.129 -0.3835 -0.1521 -0.3002
   70HFIP    F9  837   0.754   2.249   2.236  0.1314 -0.1117 -0.2424
   70HFIP   F10  838   0.690   2.307   2.040 -0.3087  0.2287  0.6594
   70HFIP   H11  839   0.904   2.263   1.876 -1.1228 -1.0785  0.1836
   70HFIP   H12  840   0.972   2.163   2.134 -0.5239 -2.0745 -1.3228
   71HFIP    O1  841   1.341   2.778   0.891  0.2020  0.0734 -0.1195
   71HFIP    C2  842   1.206   2.780   0.925 -0.2645  0.8969  1.5742
   71HFIP    C3  843   1.186   2.678   1.039 -0.2695 -0.5041  0.4324
   71HFIP    F4  844   1.083   2.714   1.125  0.0370 -0.2116 -0.2904
   71HFIP    F5  845   1.302   2.659   1.105  0.0657 -0.0036 -0.0455
   71HFIP    F6  846   1.148   2.557   0.989  0.2471  0.8467  0.4587
   71HFIP    C7  847   1.114   2.764   0.803  0.3292  0.5961  0.2599
   71HFIP    F8  848   1.001   2.681   0.822  0.0347  0.3149  0.7096
   71HFIP    F9  849   1.180   2.711   0.696 -0.2690  0.0756 -0.2009
   71HFIP   F10  850   1.067   2.876   0.746  0.0599  0.1505 -0.3857
   71HFIP   H11  851   1.351   2.703   0.826  1.5941  0.2087 -0.0860
   71HFIP   H12  852   1.184   2.877   0.971 -0.7495  0.2477  2.7143
   72HFIP    O1  853   1.593   0.043   1.013 -0.0383  0.4127 -0.2100
   72HFIP    C2  854   1.585   0.162   1.076 -0.6104  0.6059  0.1080
   72HFIP    C3  855   1.496   0.149   1.203 -0.2034  0.2409 -0.0181
   72HFIP    F4  856   1.511   0.236   1.306  0.0123 -0.5925 -0.1751
   72HFIP    F5  857   1.519   0.032   1.265  0.0088 -0.2843 -0.0044
   72HFIP    F6  858   1.370   0.156   1.165 -0.3502 -0.2908  0.2314
   72HFIP    C7  859   1.546   0.274   0.979  0.7097  0.5430 -0.3327
   72HFIP    F8  860   1.436   0.242   0.907 -0.2218  0.3067  0.4882
   72HFIP    F9  861   1.638   0.289   0.879  0.3071 -0.1647 -0.3880
   72HFIP   F10  862   1.521   0.392   1.029 -0.0557 -0.0626 -0.1361
   72HFIP   H11  863   1.506   0.034   0.964  1.6413  0.6660 -3.3278
   72HFIP   H12  864   1.690   0.179   1.102 -0.5522 -0.5958  0.6934
   73HFIP    O1  865   2.250   0.662   2.424  0.6227  0.2033 -0.3629
   73HFIP    C2  866   2.368   0.592   2.439 -0.7171  0.2517  0.5189
   73HFIP    C3  867   2.343   0.441   2.448 -0.1632  0.2497  0.2792
   73HFIP    F4  868   2.320   0.374   2.334 -1.0124 -0.2649  0.9000
   73HFIP    F5  869   2.232   0.419   2.526  0.6581 -0.4940 -0.0563
   73HFIP    F6  870   2.438   0.376   2.513  0.6409 -0.2523 -0.1602
   73HFIP    C7  871   2.444   0.637   2.575 -0.1522  0.2911 -0.4995
   73HFIP    F8  872   2.575   0.606   2.586  0.4907  0.0809 -0.2142
   73HFIP    F9  873   2.374   0.597   2.687  0.5871  0.0050  0.6353
   73HFIP   F10  874   2.443   0.773   2.581  0.2638  0.1426 -0.1737
   73HFIP   H11  875   2.233   0.720   2.504  1.4211 -0.8285  0.5670
   73HFIP   H12  876   2.428   0.602   2.349 -0.4726 -1.8663  0.4126
   74HFIP    O1  877   0.383   0.574   2.151  0.3994  0.4560 -0.1756
   74HFIP    C2  878   0.504   0.595   2.094  0.5976  0.1850  0.0693
   74HFIP    C3  879   0.479   0.681   1.970 -0.2273 -0.0731  0.7591
   74HFIP    F4  880   0.592   0.708   1.895 -0.1028  0.2065  0.2277
   74HFIP    F5  881   0.446   0.808   2.009 -0.2186  0.7275 -0.4446
   74HFIP    F6  882   0.380   0.625   1.895 -0.5442  0.6515  0.2768
   74HFIP    C7  883   0.580   0.468   2.061  0.2451  0.1064  0.3074
   74HFIP    F8  884   0.551   0.377   2.158  0.0753 -0.1463  0.7180
   74HFIP    F9  885   0.715   0.482   2.060 -0.1080  0.1873  0.2662
   74HFIP   F10  886   0.546   0.402   1.943 -0.1610 -0.2624  0.6472
   74HFIP   H11  887   0.322   0.516   2.098 -3.8146  2.1078  2.5074
   74HFIP   H12  888   0.561   0.649   2.170  1.8921 -2.8332  1.3416
   75HFIP    O1  889   2.381   0.799   1.337  0.0104 -1.0930 -0.0670
   75HFIP    C2  890   2.396   0.795   1.478  0.4092 -0.0356 -0.3850
   75HFIP    C3  891   2.530   0.852   1.529 -1.1780  0.0744 -0.8486
   75HFIP    F4  892   2.629   0.757   1.512 -0.0643 -0.4436 -0.0642
   75HFIP    F5  893   2.522   0.891   1.659 -0.1612 -0.1796 -0.1276
   75HFIP    F6  894   2.572   0.958   1.461 -0.2127  0.0992  0.0698
   75HFIP    C7  895   2.355   0.662   1.545  0.5549  0.1398 -0.6040
   75HFIP    F8  896   2.226   0.637   1.531 -0.2317 -0.2078  0.4431
   75HFIP    F9  897   2.376   0.656   1.679 -0.1303 -0.0150 -0.2602
   75HFIP   F10  898   2.411   0.557   1.479 -0.2225 -0.2684 -0.6519
   75HFIP   H11  899   2.450   0.733   1.310  2.6685  1.6594 -0.2393
   75HFIP   H12  900   2.321   0.867   1.511  1.9104  2.6737 -2.6955
   76HFIP    O1  901   0.597   1.218   0.817 -0.0843  0.3276 -0.3685
   76HFIP    C2  902   0.601   1.260   0.949 -0.5730  0.2385 -0.1012
   76HFIP    C3  903   0.754   1.281   0.988  0.0315 -0.7277 -0.6346
   76HFIP    F4  904   0.812   1.158   1.008  0.0921 -0.0977  0.2072
   76HFIP    F5  905   0.766   1.353   1.100  0.5315 -0.3604  0.1629
   76HFIP    F6  906   0.819   1.342   0.883  0.0045 -0.0988  0.1515
   76HFIP    C7  907   0.520   1.168   1.047 -0.3862 -0.5625 -0.2168
   76HFIP    F8  908   0.526   1.036   1.003 -0.2188  0.3177  0.2039
   76HFIP    F9  909   0.393   1.204   1.039  0.2944  0.3348 -0.4801
   76HFIP   F10  910   0.555   1.176   1.178  0.5934  0.5996 -0.2388
   76HFIP   H11  911   0.633   1.125   0.821 -0.3179  0.2340 -0.4180
   76HFIP   H12  912   0.568   1.364   0.959  3.1519  1.4592  0.2042
   77HFIP    O1  913   1.710   2.629   1.056  0.6080  0.2675  0.0088
   77HFIP    C2  914   1.844   2.649   1.093  0.1685 -0.5600 -0.0345
   77HFIP    C3  915   1.863   2.736   1.222  0.5518 -0.1839 -0.1018
   77HFIP    F4  916   1.752   2.724   1.299  0.0055  0.3713 -0.1929
   77HFIP    F5  917   1.884   2.865   1.184  0.0673  0.2892  0.1852
   77HFIP    F6  918   1.962   2.695   1.298  0.2407  0.4431 -0.3573
   77HFIP    C7  919   1.936   2.689   0.974 -0.9747  0.2410 -0.2020
   77HFIP    F8  920   2.063   2.715   1.011 -0.3785 -0.0059 -0.2353
   77HFIP    F9  921   1.874   2.795   0.914  0.2430  0.5179  0.5536
   77HFIP   F10  922   1.952   2.599   0.874 -0.4189  0.2890  0.2269
   77HFIP   H11  923   1.674   2.720   1.036  1.0877  0.7976  1.4466
   77HFIP   H12  924   1.888   2.552   1.118  0.2119 -1.2575 -2.7186
   78HFIP    O1  925   1.497   0.844   0.402  0.1415  0.4362 -0.3885
   78HFIP    C2  926   1.497   0.965   0.327 -0.3062  0.8970 -1.0139
   78HFIP    C3  927   1.356   1.025   0.332  0.4277  1.0764  0.6336
   78HFIP    F4  928   1.263   0.950   0.268  0.1752 -0.2905  0.2883
   78HFIP    F5  929   1.354   1.142   0.268  0.5337 -0.3193  0.5238
   78HFIP    F6  930   1.321   1.058   0.458  0.4255  0.2572  0.4917
   78HFIP    C7  931   1.556   0.932   0.186  0.0612 -0.2302  0.2842
   78HFIP    F8  932   1.683   0.889   0.195  0.0045  0.5290 -0.4554
   78HFIP    F9  933   1.552   1.048   0.115  0.1361  0.5468  0.0429
   78HFIP   F10  934   1.498   0.833   0.119  0.0722 -0.0628 -0.1247
   78HFIP   H11  935   1.447   0.773   0.354  0.0791  0.6928 -0.7090
   78HFIP   H12  936   1.566   1.037   0.371 -2.2625  0.6616  2.6116
   79HFIP    O1  937   0.181   0.133   0.811  0.3731  0.3030  0.4756
   79HFIP    C2  938   0.161   0.140   0.669  0.0416  0.1345 -0.2305
   79HFIP    C3  939   0.019   0.108   0.620  0.3250 -0.2717 -0.0855
   79HFIP    F4  940  -0.068   0.182   0.695  0.0077 -0.1671  0.5877
   79HFIP    F5  941  -0.015  -0.023   0.638  0.4361 -0.1249 -0.2942
   79HFIP    F6  942  -0.004   0.150   0.496  0.0674  0.3610 -0.6217
   79HFIP    C7  943   0.272   0.065   0.599 -0.7095 -0.1115  1.1537
   79HFIP    F8  944   0.396   0.111   0.639  0.1828  0.0685  0.3140
   79HFIP    F9  945   0.270   0.081   0.461  0.2618  0.2719  0.1132
   79HFIP   F10  946   0.264  -0.067   0.630  0.1572  0.2238  0.5113
   79HFIP   H11  947   0.160   0.041   0.844 -3.0412  1.0509  0.5962
   79HFIP   H12  948   0.172   0.245   0.644  0.0293  0.2953  0.4302
   80HFIP    O1  949   0.757   1.016   0.762  0.0508  0.3257 -0.5126
   80HFIP    C2  950   0.727   0.887   0.726  0.2307 -0.0791 -0.1927
   80HFIP    C3  951   0.851   0.804   0.691 -0.0894 -0.1914 -0.1669
   80HFIP    F4  952   0.951   0.880   0.640 -0.2900  0.0593  0.1678
   80HFIP    F5  953   0.845   0.702   0.597  0.2635 -0.0410  0.4904
   80HFIP    F6  954   0.907   0.740   0.797  0.4556 -0.4567 -0.5421
   80HFIP    C7  955   0.612   0.879   0.629 -0.6612 -0.4653 -0.5066
   80HFIP    F8  956   0.579   0.750   0.624 -0.2718  0.1455 -0.5972
   80HFIP    F9  957   0.644   0.905   0.500  0.3223  0.5202  0.2948
   80HFIP   F10  958   0.503   0.954   0.665  0.4496  0.3070  0.3766
   80HFIP   H11  959   0.801   1.064   0.686  0.1737 -0.8407 -1.1936
   80HFIP   H12  960   0.700   0.843   0.822  0.8108 -0.7325 -0.3292
   81HFIP    O1  961   0.178   2.736   0.942 -0.3205 -0.0115  0.0527
   81HFIP    C2  962   0.108   2.648   1.015 -0.7553  0.0141 -0.0084
   81HFIP    C3  963  -0.025   2.705   1.073 -0.1689  0.1328  0.3294
   81HFIP    F4  964  -0.091   2.606   1.137 -0.3673 -0.0473 -0.5918
   81HFIP    F5  965  -0.089   2.744   0.960  0.1971 -0.1948 -0.3726
   81HFIP    F6  966   0.000   2.815   1.142  0.4267  0.3253  0.0997
   81HFIP    C7  967   0.203   2.587   1.113 -0.5312 -0.2423 -0.1722
   81HFIP    F8  968   0.256   2.689   1.180  0.2285 -0.5016 -0.0558
   81HFIP    F9  969   0.312   2.535   1.058  0.3799  0.2648  0.3821
   81HFIP   F10  970   0.152   2.501   1.209  0.3198 -0.1264 -0.2161
   81HFIP   H11  971   0.273   2.708   0.954 -0.1924  1.3094  2.3674
   81HFIP   H12  972   0.081   2.566   0.949 -0.7740  0.5664 -0.6971
   82HFIP    O1  973   0.652   2.015   1.055  0.0228  0.1310  0.2841
   82HFIP    C2  974   0.695   2.128   0.980 -1.1192 -0.7392 -1.2078
   82HFIP    C3  975   0.728   2.246   1.073  0.5705  0.2288 -0.0270
   82HFIP    F4  976   0.795   2.200   1.181  0.1729  0.5259  0.3970
   82HFIP    F5  977   0.610   2.299   1.116  0.1749 -0.0791  0.2697
   82HFIP    F6  978   0.809   2.341   1.024 -0.2037 -0.3192 -0.2800
   82HFIP    C7  979   0.592   2.155   0.870 -0.4120 -1.0622  1.1662
   82HFIP    F8  980   0.585   2.284   0.835 -0.2774 -0.1455 -0.1861
   82HFIP    F9  981   0.469   2.122   0.906  0.6495  0.6301 -0.0917
   82HFIP   F10  982   0.619   2.082   0.762 -0.2405 -0.2996  0.3143
   82HFIP   H11  983   0.565   2.043   1.096 -0.1815  0.6722 -0.5109
   82HFIP   H12  984   0.787   2.104   0.927  0.2313  0.8771  0.3224
   83HFIP    O1  985   0.438   2.065   1.189  0.0843 -0.6618 -0.3425
   83HFIP    C2  986   0.325   2.148   1.223 -0.3908 -0.4331 -0.6315
   83HFIP    C3  987   0.272   2.103   1.363  0.1140 -0.1795  0.0253
   83HFIP    F4  988   0.185   2.195   1.415  0.6104  0.3927 -0.3910
   83HFIP    F5  989   0.375   2.082   1.456  0.2032 -0.0969  0.0048
   83HFIP    F6  990   0.200   1.987   1.358  0.1316 -0.2932  0.6928
   83HFIP    C7  991   0.216   2.155   1.114 -0.0791  0.5728 -0.6435
   83HFIP    F8  992   0.200   2.036   1.054 -0.1815  0.0819  0.4351
   83HFIP    F9  993   0.250   2.241   1.017 -0.6911  0.1133  0.0639
   83HFIP   F10  994   0.093   2.186   1.167 -0.0172 -0.1954  0.4906
   83HFIP   H11  995   0.425   1.977   1.234  1.8380 -1.5599 -1.5183
   83HFIP   H12  996   0.357   2.252   1.232  1.0480 -0.7965 -1.3822
   84HFIP    O1  997   1.476   1.235   0.933  0.3272  0.3927 -0.0618
   84HFIP    C2  998   1.559   1.284   0.834  0.5670  0.3214 -0.2710
   84HFIP    C3  999   1.498   1.266   0.699  0.1547  0.0003  0.7336
   84HFIP    F4 1000   1.373   1.323   0.688  0.2319 -0.2798 -0.0044
   84HFIP    F5 1001   1.476   1.134   0.672  0.0805 -0.0414  0.1169
   84HFIP    F6 1002   1.570   1.300   0.587 -0.1833 -0.3613  0.3098
   84HFIP    C7 1003   1.707   1.231   0.850 -0.0641  0.3760  0.4583
   84HFIP    F8 1004   1.714   1.102   0.801  0.1840  0.7349  0.4700
   84HFIP    F9 1005   1.747   1.230   0.980  0.4264 -0.1346 -0.0787
   84HFIP   F10 1006   1.802   1.314   0.792 -0.7671  0.1351 -0.7249
   84HFIP   H11 1007   1.478   1.135   0.939 -0.7579  0.3471 -0.3200
   84HFIP   H12 1008   1.559   1.392   0.848  1.5006  0.5959 -2.2523
   85HFIP    O1 1009   1.750   0.263   0.081  0.2043  0.4679 -0.1371
   85HFIP    C2 1010   1.774   0.393   0.134  0.1543 -0.0374 -0.3848
   85HFIP    C3 1011   1.855   0.394   0.266 -0.3323  0.0751 -0.1403
   85HFIP    F4 1012   1.911   0.514   0.293 -0.4730  0.1610 -0.0371
   85HFIP    F5 1013   1.960   0.307   0.255  0.0189  0.5015 -0.0173
   85HFIP    F6 1014   1.788   0.347   0.372 -0.4799  0.0987 -0.5326
   85HFIP    C7 1015   1.641   0.474   0.156  0.1353  0.3119  0.1453
   85HFIP    F8 1016   1.656   0.587   0.234 -0.1776  0.4203 -0.6565
   85HFIP    F9 1017   1.549   0.393   0.221  0.2718 -0.4524 -0.1310
   85HFIP   F10 1018   1.586   0.513   0.030  0.1417  0.5859 -0.1415
   85HFIP   H11 1019   1.703   0.211   0.153 -0.8699  0.7795 -0.5991
   85HFIP   H12 1020   1.841   0.437   0.060 -0.9392 -0.6840 -1.8020
   86HFIP    O1 1021   2.514   0.906   0.268 -0.0294 -0.2829  0.3146
   86HFIP    C2 1022   2.479   1.035   0.223 -0.1413  0.6371 -0.3331
   86HFIP    C3 1023   2.460   1.037   0.072 -0.2713 -0.2090 -0.4085
   86HFIP    F4 1024   2.342   0.968   0.047  0.2424  0.0574  0.1945
   86HFIP    F5 1025   2.548   0.949   0.015 -0.0369 -0.0264  0.3945
   86HFIP    F6 1026   2.454   1.155   0.009  0.4712 -0.0300 -0.3592
   86HFIP    C7 1027   2.573   1.147   0.285  0.1330 -0.4985 -0.0166
   86HFIP    F8 1028   2.703   1.112   0.258 -0.1047 -0.0104  0.2620
   86HFIP    F9 1029   2.560   1.153   0.421 -0.0302  0.4437  0.1476
   86HFIP   F10 1030   2.553   1.275   0.247 -0.2544  0.1206 -0.2766
   86HFIP   H11 1031   2.579   0.864   0.205 -0.5404 -0.3433 -0.1728
   86HFIP   H12 1032   2.382   1.058   0.269 -1.0744 -1.9623 -0.9321
   87HFIP    O1 1033   1.901   1.425   0.155 -0.1801  0.2887  1.0211
   87HFIP    C2 1034   1.912   1.291   0.145 -0.4389  0.0576  0.1252
   87HFIP    C3 1035   1.919   1.213   0.275 -0.4778 -0.3587  0.3468
   87HFIP    F4 1036   1.998   1.282   0.363 -0.0261 -0.8000  0.7675
   87HFIP    F5 1037   1.953   1.085   0.271  0.2707 -0.0503  0.1394
   87HFIP    F6 1038   1.796   1.211   0.326 -0.0143  0.0567 -0.5657
   87HFIP    C7 1039   2.025   1.251   0.035  0.3951  1.3932  0.4098
   87HFIP    F8 1040   2.154   1.258   0.088  0.4858 -0.2796  0.2797
   87HFIP    F9 1041   2.010   1.334  -0.070 -0.2200 -0.4372 -0.1943
   87HFIP   F10 1042   2.014   1.128  -0.021 -0.2337 -0.2653 -0.2812
   87HFIP   H11 1043   1.977   1.461   0.100 -0.6218  1.7506  1.3380
   87HFIP   H12 1044   1.819   1.264   0.096  1.0821 -0.4925 -2.5583
   88HFIP    O1 1045   2.457   0.083   1.678  0.1961  0.3820 -0.4695
   88HFIP    C2 1046   2.419   0.198   1.750 -0.4822  0.8418 -0.3811
   88HFIP    C3 1047   2.490   0.208   1.895 -0.8370  0.7688 -0.0331
   88HFIP    F4 1048   2.458   0.097   1.970  0.2146 -0.0543  0.1650
   88HFIP    F5 1049   2.465   0.323   1.958 -0.2971  0.2048 -0.1044
   88HFIP    F6 1050   2.626   0.202   1.881  0.1916 -0.1604  0.2736
   88HFIP    C7 1051   2.268   0.229   1.749  0.1465  0.4564 -0.6103
   88HFIP    F8 1052   2.236   0.355   1.784 -0.3202 -0.2385 -0.0842
   88HFIP    F9 1053   2.209   0.149   1.841 -0.3074  0.1479 -0.5203
   88HFIP   F10 1054   2.215   0.206   1.623 -0.7135 -0.3114  0.7029
   88HFIP   H11 1055   2.406   0.007   1.719  1.2351  0.3269  0.7195
   88HFIP   H12 1056   2.469   0.279   1.696  0.1683 -0.9275 -2.5274
   89HFIP    O1 1057   1.238   1.524   1.900  0.1961  0.1222  0.1465
   89HFIP    C2 1058   1.336   1.551   1.808  0.0199 -0.3806  0.4577
   89HFIP    C3 1059   1.303   1.471   1.680  0.0743  0.4704  0.3035
   89HFIP    F4 1060   1.407   1.456   1.593  0.2799  0.0322 -0.4592
   89HFIP    F5 1061   1.204   1.542   1.615 -0.1173  0.1351  0.2621
   89HFIP    F6 1062   1.254   1.350   1.713 -0.1002 -0.1579  0.0362
   89HFIP    C7 1063   1.485   1.524   1.862  0.7966 -0.3948  0.6431
   89HFIP    F8 1064   1.581   1.596   1.798  0.4655 -0.2741 -0.6598
   89HFIP    F9 1065   1.510   1.391   1.866 -0.2878 -0.1269  0.3295
   89HFIP   F10 1066   1.491   1.572   1.990  0.0435 -0.2622 -0.4748
   89HFIP   H11 1067   1.237   1.425   1.914  1.9967 -0.5012 -3.7224
   89HFIP   H12 1068   1.335   1.658   1.789  0.9164 -0.6018 -0.8609
   90HFIP    O1 1069   1.323   2.095   1.590  0.1039 -0.6433 -0.0941
   90HFIP    C2 1070   1.243   1.996   1.549  0.1941 -0.4561  0.1715
   90HFIP    C3 1071   1.145   1.945   1.660  0.1973 -0.3908  0.0610
   90HFIP    F4 1072   1.050   1.861   1.611 -0.3739 -0.2894  0.1419
   90HFIP    F5 1073   1.079   2.051   1.717  0.1386  0.0594 -0.2759
   90HFIP    F6 1074   1.206   1.881   1.760 -0.0147 -0.8086  0.0143
   90HFIP    C7 1075   1.326   1.881   1.473 -0.3134 -0.3046  0.1056
   90HFIP    F8 1076   1.390   1.806   1.566  0.3859  0.2365 -0.2127
   90HFIP    F9 1077   1.424   1.945   1.407 -0.0175  0.1993 -0.0152
   90HFIP   F10 1078   1.252   1.800   1.397  0.5446 -0.0054  0.3832
   90HFIP   H11 1079   1.335   2.086   1.689 -1.3763 -2.1635 -0.0216
   90HFIP   H12 1080   1.177   2.035   1.471  0.7061 -0.9614 -0.5214
   91HFIP    O1 1081   2.717   0.762   0.164  0.3256 -0.1906  0.0335
   91HFIP    C2 1082   2.736   0.661   0.071  0.4528 -0.0440  0.2612
   91HFIP    C3 1083   2.639   0.547   0.107  0.1787  0.0200 -1.4057
   91HFIP    F4 1084   2.653   0.440   0.022  0.3536 -0.4894 -0.3614
   91HFIP    F5 1085   2.506   0.586   0.112  0.1556  0.5063  0.4017
   91HFIP    F6 1086   2.668   0.504   0.233 -0.0899 -0.3348  0.3652
   91HFIP    C7 1087   2.885   0.616   0.055  0.4387 -0.3906  0.2688
   91HFIP    F8 1088   2.963   0.720   0.091  0.1537 -0.1314 -0.1126
   91HFIP    F9 1089   2.910   0.590  -0.074  0.5160  0.4581  0.1615
   91HFIP   F10 1090   2.917   0.508   0.123 -0.4371  0.4614  0.1630
   91HFIP   H11 1091   2.771   0.739   0.245  2.1756  0.8514 -0.8593
   91HFIP   H12 1092   2.704   0.704  -0.025  0.6995  1.6161  0.8976
   92HFIP    O1 1093   2.700   1.782   1.289 -0.3211 -0.0400 -0.2641
   92HFIP    C2 1094   2.606   1.817   1.204  0.3554  0.2317 -0.2450
   92HFIP    C3 1095   2.501   1.900   1.277  0.3361 -0.1196  0.0879
   92HFIP    F4 1096   2.557   1.979   1.370 -0.3091  0.0539  0.5148
   92HFIP    F5 1097   2.409   1.825   1.339 -0.1124  0.1196  0.1034
   92HFIP    F6 1098   2.430   1.979   1.188 -0.0931 -0.1135  0.4884
   92HFIP    C7 1099   2.539   1.689   1.126  0.0359 -0.4399 -0.8879
   92HFIP    F8 1100   2.416   1.721   1.070 -0.6260  0.4001  0.1393
   92HFIP    F9 1101   2.527   1.587   1.218 -0.1556  0.0346  0.0233
   92HFIP   F10 1102   2.623   1.648   1.028  0.4283 -0.1412  0.5792
   92HFIP   H11 1103   2.660   1.741   1.371  0.6282 -0.2877  0.0869
   92HFIP   H12 1104   2.643   1.870   1.117  0.4178  0.4315 -0.0948
   93HFIP    O1 1105   2.364   2.656   1.734 -0.6671  0.5537 -0.6830
   93HFIP    C2 1106   2.252   2.580   1.753 -0.0192 -0.0815  0.4781
   93HFIP    C3 1107   2.292   2.431   1.784 -0.3038  0.0716 -0.7651
   93HFIP    F4 1108   2.291   2.408   1.921 -0.1065 -0.1901  0.5169
   93HFIP    F5 1109   2.419   2.405   1.735 -0.6043 -0.2160 -0.0542
   93HFIP    F6 1110   2.219   2.333   1.732 -0.4718 -0.4409 -0.0021
   93HFIP    C7 1111   2.150   2.600   1.638  0.3765  0.6628 -0.5492
   93HFIP    F8 1112   2.034   2.530   1.652  0.2458 -0.0835 -0.3180
   93HFIP    F9 1113   2.212   2.561   1.524  0.3227 -0.5778  0.0970
   93HFIP   F10 1114   2.121   2.733   1.628 -0.4286 -0.2526  0.6437
   93HFIP   H11 1115   2.432   2.613   1.673 -0.9471  0.3612 -0.8610
   93HFIP   H12 1116   2.201   2.618   1.842 -0.1570  0.1913  0.2798
   94HFIP    O1 1117   2.538   0.015   1.426  0.3151  0.1701  0.6243
   94HFIP    C2 1118   2.507   0.060   1.300 -0.3684 -0.2349 -0.6991
   94HFIP    C3 1119   2.544   0.207   1.272 -0.5839  1.3063 -0.2563
   94HFIP    F4 1120   2.510   0.266   1.156  0.5179  0.1533 -0.4781
   94HFIP    F5 1121   2.678   0.224   1.286 -0.2354 -0.2011 -0.0379
   94HFIP    F6 1122   2.493   0.285   1.370  0.8058  0.1356 -0.4956
   94HFIP    C7 1123   2.364   0.021   1.261 -0.2201 -0.0673  0.6784
   94HFIP    F8 1124   2.351   0.004   1.125  0.0634  0.2499  0.1060
   94HFIP    F9 1125   2.269   0.108   1.298  0.1379 -0.0752 -0.1353
   94HFIP   F10 1126   2.323  -0.100   1.300 -0.2682 -0.4126  0.2311
   94HFIP   H11 1127   2.522   0.084   1.498  0.6130 -0.0093  0.8637
   94HFIP   H12 1128   2.570   0.006   1.230  1.1002 -0.1428  0.5385
   95HFIP    O1 1129   1.390   2.353   1.490  0.5008  0.6143 -0.3259
   95HFIP    C2 1130   1.321   2.397   1.375 -0.6912  0.2839 -0.3413
   95HFIP    C3 1131   1.175   2.435   1.407  0.3416 -0.1455 -0.3131
   95HFIP    F4 1132   1.172   2.549   1.483 -0.4059  0.2148 -0.0397
   95HFIP    F5 1133   1.117   2.336   1.483 -0.1028 -0.6419 -0.0836
   95HFIP    F6 1134   1.092   2.451   1.302  0.2677  0.0146 -0.0232
   95HFIP    C7 1135   1.336   2.297   1.265 -0.0174  0.0732 -0.0801
   95HFIP    F8 1136   1.326   2.344   1.136  0.0758 -0.1880  0.3242
   95HFIP    F9 1137   1.251   2.191   1.273 -0.0730 -0.9391 -0.4290
   95HFIP   F10 1138   1.461   2.257   1.259 -0.2318  0.4258 -0.0855
   95HFIP   H11 1139   1.352   2.265   1.520 -0.7835  1.2250 -0.1214
   95HFIP   H12 1140   1.368   2.489   1.340 -2.0392  1.0558 -0.1537
   96HFIP    O1 1141   0.731   1.931   0.099  0.4844 -0.6894 -0.3532
   96HFIP    C2 1142   0.687   1.892   0.226  0.0229  0.1653  0.1374
   96HFIP    C3 1143   0.758   1.940   0.354  0.1029  0.2880  0.1423
   96HFIP    F4 1144   0.737   1.861   0.467  0.6475  0.7445  0.5675
   96HFIP    F5 1145   0.736   2.070   0.392  0.0146 -0.0810 -0.1289
   96HFIP    F6 1146   0.892   1.937   0.339 -0.1746 -0.7985 -0.0518
   96HFIP    C7 1147   0.687   1.735   0.221 -0.3759 -0.0916  0.2449
   96HFIP    F8 1148   0.814   1.683   0.244 -0.1744 -0.2811 -1.1183
   96HFIP    F9 1149   0.667   1.694   0.091  0.4514 -0.0254 -0.0790
   96HFIP   F10 1150   0.602   1.674   0.304  0.0136 -0.0617 -0.1066
   96HFIP   H11 1151   0.821   1.888   0.095  0.7368 -0.0905 -1.3765
   96HFIP   H12 1152   0.582   1.924   0.227  0.2815  1.1091 -1.1895
   97HFIP    O1 1153   0.650   2.811   0.129 -0.1617 -0.6706  0.6003
   97HFIP    C2 1154   0.632   2.684   0.181 -0.4974  0.1727  0.0860
   97HFIP    C3 1155   0.513   2.603   0.117  0.4257  0.3021 -0.8491
   97HFIP    F4 1156   0.521   2.466   0.133 -0.6133 -0.2701 -0.1740
   97HFIP    F5 1157   0.524   2.625  -0.019 -0.0352  0.2857  0.1563
   97HFIP    F6 1158   0.389   2.645   0.156  0.8318 -0.0735  0.0297
   97HFIP    C7 1159   0.623   2.678   0.341  0.0225  0.4797  0.7243
   97HFIP    F8 1160   0.578   2.556   0.384 -0.5604 -0.1803  0.3614
   97HFIP    F9 1161   0.539   2.773   0.388  0.0485  0.0395  0.7492
   97HFIP   F10 1162   0.745   2.697   0.400  0.1608 -0.1419 -0.4033
   97HFIP   H11 1163   0.583   2.871   0.172 -1.2403 -0.7926 -0.8637
   97HFIP   H12 1164   0.719   2.620   0.167 -0.1919 -0.2670  3.6641
   98HFIP    O1 1165   0.403   1.058   1.790 -0.3288  0.3408 -0.0390
   98HFIP    C2 1166   0.486   1.084   1.693  0.1748 -0.0543  0.1093
   98HFIP    C3 1167   0.629   1.115   1.748  0.4305  1.1544 -0.5014
   98HFIP    F4 1168   0.656   1.013   1.833  0.5375 -0.3084  0.0716
   98HFIP    F5 1169   0.647   1.231   1.820 -0.3656 -0.6687 -0.4595
   98HFIP    F6 1170   0.726   1.112   1.652  0.3987 -0.4065 -0.4401
   98HFIP    C7 1171   0.437   1.216   1.616 -0.4366  1.0496  0.6276
   98HFIP    F8 1172   0.404   1.308   1.708  0.0138 -0.4899 -0.3088
   98HFIP    F9 1173   0.326   1.198   1.542  0.0474 -0.3772 -0.3371
   98HFIP   F10 1174   0.535   1.274   1.538 -0.2981 -0.0523  0.1335
   98HFIP   H11 1175   0.419   1.124   1.864  0.2490  0.5830 -0.3822
   98HFIP   H12 1176   0.503   0.998   1.629 -1.1184 -0.3557  0.1435
   99HFIP    O1 1177   0.776   0.135   2.763  0.3608 -0.0677 -0.0374
   99HFIP    C2 1178   0.884   0.068   2.710  0.5752 -0.5595 -0.5189
   99HFIP    C3 1179   0.834  -0.035   2.607 -0.0469  0.4903  0.4234
   99HFIP    F4 1180   0.921  -0.074   2.511  0.7305 -0.1392  0.6142
   99HFIP    F5 1181   0.714   0.000   2.551 -0.4133  0.0460  0.2482
   99HFIP    F6 1182   0.806  -0.155   2.664  0.1333  0.0450  0.3372
   99HFIP    C7 1183   0.982   0.011   2.817  0.1783 -0.2112 -1.0655
   99HFIP    F8 1184   0.917  -0.070   2.912  0.4238  0.2624  0.0238
   99HFIP    F9 1185   1.047   0.109   2.889 -0.1875 -0.8197  0.3755
   99HFIP   F10 1186   1.076  -0.074   2.767 -0.2457  0.1431 -0.0807
   99HFIP   H11 1187   0.731   0.072   2.826 -0.3910  0.5094  0.0023
   99HFIP   H12 1188   0.937   0.141   2.648  0.4695 -1.1064 -1.2520
  100HFIP    O1 1189   2.715   2.690   2.458 -0.7328  0.5103  0.0440
  100HFIP    C2 1190   2.599   2.629   2.420 -0.2295  0.3754 -0.4296
  100HFIP    C3 1191   2.621   2.583   2.272  0.1634 -0.7505 -0.6744
  100HFIP    F4 1192   2.529   2.493   2.226 -0.0529 -0.2807 -0.0017
  100HFIP    F5 1193   2.742   2.527   2.257 -0.7008 -0.1046 -0.0550
  100HFIP    F6 1194   2.625   2.682   2.176  0.2850  0.0433  0.2861
  100HFIP    C7 1195   2.467   2.709   2.436  0.2118  0.2354  0.2791
  100HFIP    F8 1196   2.492   2.839   2.399 -0.0189  0.1925 -0.2003
  100HFIP    F9 1197   2.440   2.713   2.572 -0.2609 -0.5150  0.5006
  100HFIP   F10 1198   2.368   2.666   2.355  0.4799  0.0744 -0.1075
  100HFIP   H11 1199   2.759   2.723   2.374 -0.6008  0.0492 -0.0695
  100HFIP   H12 1200   2.575   2.545   2.485 -0.0839  0.7162  0.0673
  101HFIP    O1 1201   0.745   2.037   2.662  0.3318 -0.5388  0.0802
  101HFIP    C2 1202   0.642   2.061   2.572 -0.1901 -0.4392  0.4211
  101HFIP    C3 1203   0.512   2.087   2.649  0.4554  0.4793 -0.8093
  101HFIP    F4 1204   0.481   1.990   2.743 -0.0215 -0.2939  0.2500
  101HFIP    F5 1205   0.399   2.091   2.576  0.3902 -0.3958 -0.1407
  101HFIP    F6 1206   0.514   2.203   2.723 -0.3589 -0.6532 -0.7319
  101HFIP    C7 1207   0.642   1.945   2.469  0.0170  0.5360  0.7896
  101HFIP    F8 1208   0.563   1.964   2.360  0.5205  0.4994  0.6302
  101HFIP    F9 1209   0.620   1.822   2.531  0.0452  0.0534 -0.2390
  101HFIP   F10 1210   0.769   1.942   2.416  0.0252  0.7361  0.0146
  101HFIP   H11 1211   0.709   1.999   2.748 -1.0648  0.8839  0.1529
  101HFIP   H12 1212   0.662   2.152   2.516  0.3884  1.5541  3.7335
  102HFIP    O1 1213   0.979   1.871   0.055  0.2807  0.4462 -0.5165
  102HFIP    C2 1214   1.077   1.776   0.068 -0.6057 -0.5079  0.0470
  102HFIP    C3 1215   1.219   1.850   0.064 -0.1919 -0.3284  0.0849
  102HFIP    F4 1216   1.276   1.851  -0.064  0.4137  0.0113 -0.1390
  102HFIP    F5 1217   1.304   1.780   0.138  0.2527 -0.3692 -0.7799
  102HFIP    F6 1218   1.209   1.983   0.097 -0.1756  0.1185  0.0114
  102HFIP    C7 1219   1.070   1.655  -0.027  0.2318 -0.1623  0.1597
  102HFIP    F8 1220   1.181   1.579  -0.021 -0.1456 -0.2997 -0.0672
  102HFIP    F9 1221   1.058   1.686  -0.159  0.4574  0.1795  0.3592
  102HFIP   F10 1222   0.969   1.570   0.011 -0.0732  0.3838 -0.0093
  102HFIP   H11 1223   1.003   1.930  -0.022 -1.3657 -0.3706 -1.6938
  102HFIP   H12 1224   1.077   1.724   0.164  0.0178  1.1783  0.9859
  103HFIP    O1 1225   2.209   0.352   0.683  0.0296 -0.4034 -0.2300
  103HFIP    C2 1226   2.256   0.225   0.658 -0.3352 -0.0403  1.1029
  103HFIP    C3 1227   2.406   0.217   0.679 -0.4860  0.1928 -0.1954
  103HFIP    F4 1228   2.485   0.290   0.599 -0.4947  0.2728 -0.2380
  103HFIP    F5 1229   2.449   0.087   0.672 -0.4150 -0.0056  0.6092
  103HFIP    F6 1230   2.432   0.252   0.807  0.2157 -0.3569 -0.3104
  103HFIP    C7 1231   2.214   0.192   0.512 -0.1106 -0.0502  0.3269
  103HFIP    F8 1232   2.265   0.084   0.455  0.0168 -0.1469 -0.5104
  103HFIP    F9 1233   2.238   0.297   0.427 -0.0001 -0.2927 -0.0055
  103HFIP   F10 1234   2.083   0.167   0.505 -0.2474 -0.7669  0.3046
  103HFIP   H11 1235   2.258   0.412   0.620  0.2567 -0.6384 -0.2819
  103HFIP   H12 1236   2.205   0.151   0.719 -1.1755 -1.3724 -1.1340
  104HFIP    O1 1237   2.609   0.732   1.181 -0.3895  0.0800  0.9259
  104HFIP    C2 1238   2.627   0.622   1.093 -0.5688 -0.1741 -0.3164
  104HFIP    C3 1239   2.777   0.577   1.093  0.0875  0.4586 -1.0159
  104HFIP    F4 1240   2.825   0.573   1.221 -0.2151  0.7229 -0.2673
  104HFIP    F5 1241   2.865   0.660   1.026 -0.1141 -0.0997 -0.5918
  104HFIP    F6 1242   2.803   0.455   1.040 -0.0800 -0.1156 -0.5987
  104HFIP    C7 1243   2.588   0.648   0.943  0.4481  0.0491 -0.2975
  104HFIP    F8 1244   2.658   0.743   0.871  0.1469 -0.5167 -0.5332
  104HFIP    F9 1245   2.459   0.679   0.938  0.4359  0.1227 -0.4284
  104HFIP   F10 1246   2.606   0.545   0.857  0.4593 -0.4853 -0.2263
  104HFIP   H11 1247   2.656   0.813   1.148  0.1024 -0.1328  1.0907
  104HFIP   H12 1248   2.564   0.539   1.126 -1.0180  0.4937  0.5108
  105HFIP    O1 1249   1.823   1.079   2.084 -0.2295  0.2938  0.1979
  105HFIP    C2 1250   1.749   1.134   2.187 -1.0293 -0.3341 -0.0521
  105HFIP    C3 1251   1.770   1.284   2.199  0.3102 -0.0214  0.1476
  105HFIP    F4 1252   1.769   1.333   2.070  0.1687 -0.5108 -0.2935
  105HFIP    F5 1253   1.893   1.318   2.253  0.5030 -0.0540  0.8552
  105HFIP    F6 1254   1.681   1.351   2.273  0.3281  0.1824  0.2072
  105HFIP    C7 1255   1.785   1.053   2.319  0.1452 -1.2201  0.2786
  105HFIP    F8 1256   1.723   1.111   2.421 -0.2546  0.4213  0.0061
  105HFIP    F9 1257   1.920   1.054   2.337  0.2235  0.2125 -0.0705
  105HFIP   F10 1258   1.756   0.919   2.301  0.1004  0.0477  0.5746
  105HFIP   H11 1259   1.916   1.115   2.078 -0.8522  2.0210  0.7152
  105HFIP   H12 1260   1.644   1.124   2.162 -0.8348  0.6324 -1.2956
  106HFIP    O1 1261   0.624   1.288   0.582  0.2540 -0.2629 -0.2373
  106HFIP    C2 1262   0.546   1.384   0.522  0.3561  0.8825 -0.3276
  106HFIP    C3 1263   0.527   1.511   0.604 -0.0930 -0.4848  0.2089
  106HFIP    F4 1264   0.472   1.610   0.533  0.3794 -0.3115 -0.1521
  106HFIP    F5 1265   0.647   1.565   0.641 -0.0411 -0.6099 -0.3011
  106HFIP    F6 1266   0.467   1.502   0.727 -0.3058 -0.5033  0.0265
  106HFIP    C7 1267   0.402   1.332   0.481  0.1719 -0.0416  0.1908
  106HFIP    F8 1268   0.395   1.217   0.409  0.3658 -0.0163 -0.0953
  106HFIP    F9 1269   0.315   1.410   0.415  0.4113 -0.5658 -0.3594
  106HFIP   F10 1270   0.343   1.293   0.599  0.7631  0.5834  0.0537
  106HFIP   H11 1271   0.591   1.279   0.676 -1.2368  2.4130 -0.4563
  106HFIP   H12 1272   0.584   1.420   0.427  0.2493 -0.9356 -1.0747
  107HFIP    O1 1273   0.842   1.162   0.526  0.0626  0.0062  0.8549
  107HFIP    C2 1274   0.949   1.237   0.466  0.1243  0.6979 -0.2339
  107HFIP    C3 1275   1.019   1.322   0.572  0.3371  0.3197  0.0517
  107HFIP    F4 1276   0.961   1.440   0.589  0.2183 -0.0637 -0.2705
  107HFIP    F5 1277   1.149   1.341   0.529  0.2787 -0.7826 -0.1955
  107HFIP    F6 1278   1.019   1.266   0.695  0.1418 -0.1510  0.6981
  107HFIP    C7 1279   0.907   1.305   0.341 -0.4235 -0.0536 -0.0829
  107HFIP    F8 1280   1.011   1.376   0.282 -0.3744 -0.0083  0.5153
  107HFIP    F9 1281   0.801   1.392   0.348 -0.7622  0.3390  0.4128
  107HFIP   F10 1282   0.881   1.219   0.235  0.5635  0.2267  0.4912
  107HFIP   H11 1283   0.760   1.218   0.518  0.2714  0.3486  1.0850
  107HFIP   H12 1284   1.016   1.159   0.431 -1.2997  0.8540 -3.4717
  108HFIP    O1 1285   2.270   1.204   0.814 -0.3087  0.0566 -0.7597
  108HFIP    C2 1286   2.233   1.337   0.782  0.1193  0.3394 -0.3100
  108HFIP    C3 1287   2.339   1.402   0.688  0.1925  0.2503  0.3436
  108HFIP    F4 1288   2.338   1.334   0.566  0.2365 -0.3211 -0.5323
  108HFIP    F5 1289   2.465   1.403   0.740 -0.0707  0.3799  0.0406
  108HFIP    F6 1290   2.310   1.529   0.640 -0.2941 -0.8363 -0.4413
  108HFIP    C7 1291   2.195   1.419   0.911 -0.3540 -0.3726  0.2326
  108HFIP    F8 1292   2.286   1.405   1.015 -0.3428 -0.1804  0.3456
  108HFIP    F9 1293   2.080   1.373   0.965 -0.2677  0.3821  0.0567
  108HFIP   F10 1294   2.189   1.552   0.892  0.4916  0.1466 -0.0797
  108HFIP   H11 1295   2.340   1.164   0.754  0.9800  0.4778  0.4234
  108HFIP   H12 1296   2.145   1.323   0.720  1.3610  2.3708 -2.6192
  109HFIP    O1 1297   1.710   0.244   1.823  0.2185  0.0315 -0.2134
  109HFIP    C2 1298   1.805   0.265   1.729 -0.8010  0.1840  0.3867
  109HFIP    C3 1299   1.773   0.378   1.641  0.1005 -0.0190  0.1633
  109HFIP    F4 1300   1.882   0.415   1.570  0.0188  0.0702 -0.1690
  109HFIP    F5 1301   1.725   0.494   1.701 -0.0523  0.1981 -0.4454
  109HFIP    F6 1302   1.671   0.360   1.551  0.4390 -0.0048  0.5823
  109HFIP    C7 1303   1.842   0.131   1.661 -0.4061  0.5181 -0.0069
  109HFIP    F8 1304   1.870   0.031   1.747  0.0677 -0.0756 -0.2040
  109HFIP    F9 1305   1.953   0.144   1.578 -0.3790  0.2790 -0.3845
  109HFIP   F10 1306   1.738   0.083   1.592 -0.2033  0.2207  0.5079
  109HFIP   H11 1307   1.633   0.227   1.761  1.3618 -1.6519 -1.1978
  109HFIP   H12 1308   1.897   0.292   1.782 -1.1443  1.5010  0.3455
  110HFIP    O1 1309   2.083   1.178   2.041 -0.0882  0.2326 -0.1399
  110HFIP    C2 1310   2.144   1.255   1.951  0.2489  0.2198  0.2010
  110HFIP    C3 1311   2.270   1.192   1.880  0.6895  0.3002 -0.6691
  110HFIP    F4 1312   2.227   1.068   1.838 -0.2884 -0.1372  0.6429
  110HFIP    F5 1313   2.360   1.149   1.973 -0.0441 -0.2183 -0.5203
  110HFIP    F6 1314   2.311   1.264   1.779 -0.3971 -0.0817 -0.7694
  110HFIP    C7 1315   2.172   1.404   2.015 -0.2162 -0.1822  0.5845
  110HFIP    F8 1316   2.250   1.482   1.938  0.4233 -0.3969 -0.1800
  110HFIP    F9 1317   2.241   1.401   2.131  1.0862 -0.3887 -0.5210
  110HFIP   F10 1318   2.058   1.467   2.038  0.1182  0.3714 -0.1259
  110HFIP   H11 1319   2.154   1.145   2.103  0.5407 -0.2101 -1.0909
  110HFIP   H12 1320   2.078   1.271   1.865  0.1645  0.8386  0.3798
  111HFIP    O1 1321   0.135   2.097   0.318  0.2666 -0.3727  0.0402
  111HFIP    C2 1322   0.167   2.126   0.451 -0.4852  0.0093 -0.5822
  111HFIP    C3 1323   0.129   2.266   0.497  0.4622 -0.9185 -0.5520
  111HFIP    F4 1324   0.157   2.364   0.406  0.2773  0.1322  0.5596
  111HFIP    F5 1325   0.178   2.309   0.619  0.2601  0.1018  0.1141
  111HFIP    F6 1326  -0.005   2.276   0.514 -0.1628  0.3197  0.4443
  111HFIP    C7 1327   0.313   2.088   0.490  1.2238  0.2494  0.6153
  111HFIP    F8 1328   0.355   1.974   0.438  0.0969 -0.2997  0.0723
  111HFIP    F9 1329   0.311   2.072   0.623 -0.0824 -0.1365  0.1146
  111HFIP   F10 1330   0.398   2.186   0.460 -0.4689  0.0269  0.0080
  111HFIP   H11 1331   0.140   2.185   0.270 -2.6916 -0.4128 -0.4431
  111HFIP   H12 1332   0.104   2.068   0.519 -1.1032  0.0837 -1.0879
  112HFIP    O1 1333   2.646   1.651   0.633 -0.0245 -0.2019 -0.3797
  112HFIP    C2 1334   2.763   1.592   0.675  0.1831 -0.4299 -0.0610
  112HFIP    C3 1335   2.868   1.707   0.703  0.6434  0.7949 -0.2920
  112HFIP    F4 1336   2.816   1.791   0.798  0.0590  0.1763 -0.2012
  112HFIP    F5 1337   2.897   1.785   0.592 -0.0557  0.2456 -0.1471
  112HFIP    F6 1338   2.985   1.660   0.757  0.0849 -0.6101 -0.4522
  112HFIP    C7 1339   2.803   1.481   0.571 -0.8443 -0.3061 -0.4419
  112HFIP    F8 1340   2.709   1.388   0.539  0.4907  0.2343 -0.6234
  112HFIP    F9 1341   2.915   1.411   0.613  0.1631  0.0537 -0.2193
  112HFIP   F10 1342   2.824   1.540   0.452  0.7850 -0.3731  0.3268
  112HFIP   H11 1343   2.652   1.690   0.541  2.5940  1.4759  0.4421
  112HFIP   H12 1344   2.747   1.537   0.768  2.1416 -0.4935  0.2685
  113HFIP    O1 1345   0.299   1.624   2.206  0.0690 -0.5357  0.3080
  113HFIP    C2 1346   0.229   1.738   2.252 -0.1641 -0.1874  0.2266
  113HFIP    C3 1347   0.227   1.738   2.408 -0.1342 -0.3138  0.0892
  113HFIP    F4 1348   0.159   1.638   2.462 -0.1305  0.3217  0.4171
  113HFIP    F5 1349   0.209   1.855   2.473  0.6389  0.2702 -0.6028
  113HFIP    F6 1350   0.354   1.710   2.448  0.3656 -0.0904  0.0578
  113HFIP    C7 1351   0.078   1.750   2.199 -0.1923  0.8571 -0.4969
  113HFIP    F8 1352   0.070   1.750   2.065  0.3747  0.0539  0.1588
  113HFIP    F9 1353   0.011   1.859   2.241  0.0537  0.3895 -0.0587
  113HFIP   F10 1354  -0.009   1.650   2.225 -0.0613 -0.2859  0.0165
  113HFIP   H11 1355   0.352   1.585   2.282  0.7367 -1.6612 -0.7190
  113HFIP   H12 1356   0.290   1.822   2.220  0.0788 -0.5497 -0.2749
  114HFIP    O1 1357   2.416   2.225   0.817  0.2619 -0.2267  0.2563
  114HFIP    C2 1358   2.521   2.149   0.775 -0.5564 -0.0065  0.1268
  114HFIP    C3 1359   2.478   2.011   0.745 -0.1052  0.5559 -0.4163
  114HFIP    F4 1360   2.387   2.000   0.645  0.3430 -0.4154  0.6050
  114HFIP    F5 1361   2.415   1.949   0.849  0.1830 -0.0153 -0.1402
  114HFIP    F6 1362   2.583   1.931   0.707 -0.5172  0.5181  0.0643
  114HFIP    C7 1363   2.638   2.161   0.881 -0.1966  0.2705 -0.3702
  114HFIP    F8 1364   2.753   2.122   0.823  0.3064  0.1827 -0.5814
  114HFIP    F9 1365   2.635   2.081   0.995  0.3299 -0.0884  0.0727
  114HFIP   F10 1366   2.651   2.286   0.927 -0.1144 -0.1746 -0.8386
  114HFIP   H11 1367   2.377   2.174   0.894  0.3347 -1.8613 -0.7907
  114HFIP   H12 1368   2.554   2.188   0.679 -2.9100 -0.3090 -0.8511
  115HFIP    O1 1369   2.744   2.795   2.705 -0.7247 -0.3161  0.5358
  115HFIP    C2 1370   2.824   2.904   2.732 -0.6569 -0.5731 -0.0666
  115HFIP    C3 1371   2.850   2.979   2.603 -0.2611 -0.0498  0.8797
  115HFIP    F4 1372   2.901   3.104   2.627 -0.1327  0.1118 -0.1981
  115HFIP    F5 1373   2.746   2.990   2.516 -0.0611  0.3677 -0.3636
  115HFIP    F6 1374   2.934   2.907   2.523 -0.1511 -0.4215  0.0005
  115HFIP    C7 1375   2.948   2.859   2.810 -0.4957  0.1493  0.4136
  115HFIP    F8 1376   3.012   2.970   2.858 -0.3526  0.2836  0.0768
  115HFIP    F9 1377   3.053   2.796   2.746 -0.0618  0.3507 -0.2935
  115HFIP   F10 1378   2.901   2.790   2.917  0.1023  0.1144  0.1005
  115HFIP   H11 1379   2.768   2.755   2.616 -0.7182  1.2300 -0.1940
  115HFIP   H12 1380   2.765   2.975   2.791 -2.3381 -0.7980 -1.4523
  116HFIP    O1 1381   1.808   2.744   0.201 -0.0811  0.0479  0.3972
  116HFIP    C2 1382   1.918   2.696   0.267  0.2938 -0.2939 -0.4608
  116HFIP    C3 1383   2.042   2.685   0.178 -0.2153 -0.6326 -0.2159
  116HFIP    F4 1384   2.161   2.671   0.248 -0.2205  0.3745  0.0419
  116HFIP    F5 1385   2.051   2.802   0.106 -0.7221 -0.7496  0.2494
  116HFIP    F6 1386   2.023   2.585   0.086 -0.3050 -0.6756  0.4450
  116HFIP    C7 1387   1.883   2.564   0.344  0.0461 -0.9664  0.3372
  116HFIP    F8 1388   1.791   2.582   0.437  0.1877 -0.1840 -0.1309
  116HFIP    F9 1389   1.986   2.493   0.397 -0.1895  0.4853 -0.6352
  116HFIP   F10 1390   1.822   2.474   0.260 -0.0116 -0.2315 -0.4867
  116HFIP   H11 1391   1.803   2.700   0.112 -0.9706  0.4171  0.2525
  116HFIP   H12 1392   1.938   2.777   0.338  1.6655 -0.6802 -0.3970
  117HFIP    O1 1393   2.679   1.778   0.414  0.6374 -0.0448 -0.3746
  117HFIP    C2 1394   2.550   1.804   0.380  0.6149 -0.2595  0.6606
  117HFIP    C3 1395   2.484   1.696   0.286  0.4629  0.0259 -0.2661
  117HFIP    F4 1396   2.361   1.716   0.232 -0.1399  0.4080  0.5139
  117HFIP    F5 1397   2.475   1.582   0.356 -0.1887  0.1231  0.0636
  117HFIP    F6 1398   2.570   1.679   0.185  0.7301  0.2652  0.4609
  117HFIP    C7 1399   2.531   1.946   0.320 -0.6562  0.8266 -0.2754
  117HFIP    F8 1400   2.581   1.958   0.197 -0.3172 -0.3540  0.2039
  117HFIP    F9 1401   2.594   2.042   0.395 -0.1696 -0.7552 -0.0965
  117HFIP   F10 1402   2.397   1.977   0.326  0.4096  0.0108 -0.4692
  117HFIP   H11 1403   2.740   1.820   0.347  0.5150 -0.4310 -0.7324
  117HFIP   H12 1404   2.489   1.800   0.470 -0.8805  0.2502 -0.3192
  118HFIP    O1 1405   2.567   1.844   1.702  0.5813 -0.2267 -0.2326
  118HFIP    C2 1406   2.655   1.912   1.791 -0.0329 -0.1388  0.3840
  118HFIP    C3 1407   2.588   2.019   1.878 -0.2194 -0.3478 -0.2578
  118HFIP    F4 1408   2.487   1.952   1.935  0.0343 -0.0409  0.2649
  118HFIP    F5 1409   2.532   2.121   1.804 -0.6363  0.2995 -0.1617
  118HFIP    F6 1410   2.668   2.068   1.979  0.1098 -0.4589  0.3347
  118HFIP    C7 1411   2.772   1.964   1.694 -0.7428 -0.1166 -1.2234
  118HFIP    F8 1412   2.870   2.021   1.774 -0.1626  0.7858 -0.1350
  118HFIP    F9 1413   2.734   2.054   1.606  0.1489  0.4729  0.3195
  118HFIP   F10 1414   2.832   1.868   1.626 -0.1970  0.7118 -0.5804
  118HFIP   H11 1415   2.481   1.894   1.712  1.4380  1.3763 -0.7256
  118HFIP   H12 1416   2.701   1.837   1.856 -1.9033  0.1913  2.1614
  119HFIP    O1 1417   2.584   2.473   0.024  0.4159 -0.1115 -0.1830
  119HFIP    C2 1418   2.474   2.389   0.049 -0.2273  0.2985 -0.3674
  119HFIP    C3 1419   2.342   2.428  -0.024  0.2506  0.1580  0.8554
  119HFIP    F4 1420   2.235   2.343  -0.002  0.1672 -0.2765 -0.1897
  119HFIP    F5 1421   2.365   2.438  -0.157 -0.1404  0.2198 -0.6377
  119HFIP    F6 1422   2.325   2.556   0.006  0.1363 -0.3743 -0.3879
  119HFIP    C7 1423   2.465   2.367   0.201  0.5090  0.3368 -0.1774
  119HFIP    F8 1424   2.591   2.341   0.239  0.4474  0.5891  0.5566
  119HFIP    F9 1425   2.387   2.260   0.228 -0.3886 -0.7517 -0.0390
  119HFIP   F10 1426   2.412   2.472   0.269  0.0117  0.4665 -0.4971
  119HFIP   H11 1427   2.565   2.552   0.083  0.4747 -0.3552  0.1614
  119HFIP   H12 1428   2.507   2.292   0.012 -0.7561  1.0163 -2.8260
  120HFIP    O1 1429   0.029   1.858   0.213 -0.0141  0.1143  0.5292
  120HFIP    C2 1430   0.096   1.760   0.142  0.2742 -1.0611  0.7043
  120HFIP    C3 1431   0.249   1.767   0.166  0.0523  0.1173 -0.3805
  120HFIP    F4 1432   0.301   1.888   0.130 -0.4432  0.4309 -0.0411
  120HFIP    F5 1433   0.305   1.662   0.098 -0.0852 -0.1348  0.0309
  120HFIP    F6 1434   0.272   1.751   0.302 -0.1458 -0.0982  0.2107
  120HFIP    C7 1435   0.068   1.776  -0.008  0.3959 -0.0428  0.1912
  120HFIP    F8 1436   0.112   1.892  -0.060 -0.0685 -0.8544  0.3190
  120HFIP    F9 1437  -0.066   1.800  -0.032 -0.3715 -0.4748 -0.1857
  120HFIP   F10 1438   0.095   1.662  -0.080  0.2575 -0.2118  0.1956
  120HFIP   H11 1439   0.094   1.934   0.219  0.9128 -0.6862  0.9135
  120HFIP   H12 1440   0.057   1.659   0.158  0.0008 -1.0806 -0.0872
  121HFIP    O1 1441   0.436   1.505   2.024 -0.9887  0.6695  0.0765
  121HFIP    C2 1442   0.526   1.576   1.946 -1.2757  0.2518 -0.5298
  121HFIP    C3 1443   0.640   1.627   2.038 -0.6864  0.2511 -0.1943
  121HFIP    F4 1444   0.723   1.525   2.067  0.1601  0.1355  0.0700
  121HFIP    F5 1445   0.603   1.651   2.165  0.0120  0.1413 -0.2954
  121HFIP    F6 1446   0.713   1.732   1.995 -0.3669 -0.3197 -0.4505
  121HFIP    C7 1447   0.449   1.688   1.866 -0.1417 -0.5879 -0.0700
  121HFIP    F8 1448   0.522   1.761   1.778 -0.1009 -0.7729 -0.0007
  121HFIP    F9 1449   0.390   1.766   1.959 -0.0082 -0.0716 -0.0985
  121HFIP   F10 1450   0.350   1.631   1.797 -0.0503 -0.0713  0.0790
  121HFIP   H11 1451   0.377   1.569   2.074 -0.5994 -0.5161  2.1143
  121HFIP   H12 1452   0.566   1.508   1.871 -1.8761  0.0567 -0.6772
  122HFIP    O1 1453   0.983   2.077   2.698 -0.0509  0.8216 -0.7373
  122HFIP    C2 1454   1.057   2.197   2.687 -0.2684  0.1051 -0.1166
  122HFIP    C3 1455   0.961   2.323   2.673 -0.3234  0.0532  0.4724
  122HFIP    F4 1456   0.888   2.314   2.563 -0.2080  0.1030  0.5119
  122HFIP    F5 1457   1.019   2.446   2.670 -0.0435  0.5469 -0.4595
  122HFIP    F6 1458   0.870   2.320   2.771  0.0810  0.0017 -0.0446
  122HFIP    C7 1459   1.171   2.192   2.572 -0.4780 -0.6765  0.1024
  122HFIP    F8 1460   1.278   2.127   2.629  0.0931 -0.4696  0.3077
  122HFIP    F9 1461   1.220   2.310   2.525  0.3739 -0.3746 -0.0976
  122HFIP   F10 1462   1.139   2.104   2.472 -0.1642 -0.5748 -0.1659
  122HFIP   H11 1463   0.891   2.099   2.666  0.1108  0.4629 -1.4662
  122HFIP   H12 1464   1.102   2.205   2.786  2.0663  1.3291 -1.2197
  123HFIP    O1 1465   2.289   1.771   1.657 -0.0945  0.0781 -0.6597
  123HFIP    C2 1466   2.173   1.820   1.609  0.1953  0.0681  0.0967
  123HFIP    C3 1467   2.157   1.975   1.627 -0.6268  0.4825  0.2296
  123HFIP    F4 1468   2.235   2.026   1.728  0.2564  0.9177  0.4650
  123HFIP    F5 1469   2.034   2.022   1.662 -0.2286 -0.5290  0.0055
  123HFIP    F6 1470   2.189   2.042   1.514 -0.6456  0.3922 -0.0343
  123HFIP    C7 1471   2.049   1.736   1.656  0.1616 -0.3814  0.5581
  123HFIP    F8 1472   1.953   1.733   1.562  0.4147  0.2881  0.1853
  123HFIP    F9 1473   1.993   1.776   1.770 -0.1241 -0.0668 -0.4071
  123HFIP   F10 1474   2.094   1.609   1.666  0.7426  0.2799  0.0978
  123HFIP   H11 1475   2.269   1.686   1.705 -0.0481  1.1550  1.3242
  123HFIP   H12 1476   2.178   1.809   1.501 -2.1412 -2.8483  0.2030
  124HFIP    O1 1477   2.577   2.722   0.104 -0.1125 -0.0868  0.0106
  124HFIP    C2 1478   2.503   2.824   0.171  0.4190  0.0137  0.4316
  124HFIP    C3 1479   2.440   2.922   0.067  0.4496 -0.7435 -0.1653
  124HFIP    F4 1480   2.511   2.964  -0.041  0.4162  0.7885 -0.2268
  124HFIP    F5 1481   2.397   3.043   0.109  0.0505 -0.2068 -0.1263
  124HFIP    F6 1482   2.327   2.872   0.013  0.2711  0.2048  0.0622
  124HFIP    C7 1483   2.599   2.899   0.269  0.1919  0.1452  0.3660
  124HFIP    F8 1484   2.529   2.957   0.371  0.6315  0.3626 -0.6702
  124HFIP    F9 1485   2.677   2.998   0.218 -0.7910 -0.2197 -0.3550
  124HFIP   F10 1486   2.687   2.811   0.327  0.1377  0.2667  0.1108
  124HFIP   H11 1487   2.612   2.760   0.019 -0.5944  0.1711 -0.0764
  124HFIP   H12 1488   2.421   2.780   0.229  0.1644 -0.8061 -0.5219
  125HFIP    O1 1489   0.420   1.217   1.994  0.0037  0.3618 -0.4456
  125HFIP    C2 1490   0.399   1.160   2.114  0.3347  0.3293 -0.1091
  125HFIP    C3 1491   0.290   1.226   2.198 -0.1197 -0.6595  0.0146
  125HFIP    F4 1492   0.256   1.157   2.308  0.3699  0.0819  0.0094
  125HFIP    F5 1493   0.175   1.238   2.125 -0.1812  0.1728  0.1298
  125HFIP    F6 1494   0.309   1.354   2.239  0.4011 -0.4900 -0.7482
  125HFIP    C7 1495   0.534   1.163   2.204 -0.2006 -0.3259 -0.3329
  125HFIP    F8 1496   0.525   1.122   2.334  0.3778 -0.2019  0.2075
  125HFIP    F9 1497   0.592   1.285   2.204  0.0605 -0.3059  0.0863
  125HFIP   F10 1498   0.635   1.095   2.146 -0.3637 -0.1476  0.4699
  125HFIP   H11 1499   0.483   1.293   2.012  1.9657 -1.5404  1.0346
  125HFIP   H12 1500   0.369   1.057   2.093 -5.1650  1.4259  1.6766
   2.81420   2.81420   2.81420
