HFIP published-force-field qualification
 1500
    1HFIP    O1    1   0.274   0.413   0.139 -0.9509 -0.0893  0.1003
    1HFIP    C2    2   0.191   0.517   0.114 -0.1376  0.1286  0.0383
    1HFIP    C3    3   0.176   0.595   0.252  0.9844 -0.1628  0.5336
    1HFIP    F4    4   0.122   0.518   0.351  0.4383 -0.1135  0.1155
    1HFIP    F5    5   0.099   0.709   0.240 -0.0698  0.3123 -0.1623
    1HFIP    F6    6   0.296   0.643   0.298  0.1577 -0.3816  0.0471
    1HFIP    C7    7   0.052   0.453   0.062 -0.0892  0.5486 -0.2234
    1HFIP    F8    8   0.057   0.408  -0.065 -0.2187  0.6421  0.0894
    1HFIP    F9    9  -0.038   0.557   0.048  0.2065  0.3565  0.5171
    1HFIP   F10   10   0.008   0.358   0.152  0.1732 -0.0901 -0.2392
    1HFIP   H11   11   0.239   0.365   0.220 -2.0348 -0.5633 -0.6391
    1HFIP   H12   12   0.232   0.583   0.038 -0.0610 -1.9077 -1.7567
    2HFIP    O1   13   2.752   0.079   0.923  0.1437  0.1235 -0.2855
    2HFIP    C2   14   2.778  -0.045   0.855 -0.0146 -0.0519 -0.5003
    2HFIP    C3   15   2.921  -0.090   0.898  0.1571 -0.1706 -0.3759
    2HFIP    F4   16   3.011  -0.010   0.835 -1.0654  0.1100 -0.1837
    2HFIP    F5   17   2.933  -0.226   0.883 -0.2791  0.1362 -0.3580
    2HFIP    F6   18   2.950  -0.065   1.029 -0.0766  0.1895 -0.1152
    2HFIP    C7   19   2.748  -0.041   0.704  0.0076 -0.6181  0.0545
    2HFIP    F8   20   2.639  -0.116   0.670  0.3364  0.1828  0.1162
    2HFIP    F9   21   2.852  -0.081   0.622 -0.8364 -0.2675 -0.0503
    2HFIP   F10   22   2.729   0.087   0.662 -0.7692  0.0871 -0.2517
    2HFIP   H11   23   2.831   0.141   0.924  0.1581  0.0837  0.7929
    2HFIP   H12   24   2.713  -0.125   0.891 -0.6401  0.6671 -0.0059
    3HFIP    O1   25   0.440   1.033   3.364 -0.3325 -0.4579 -0.1546
    3HFIP    C2   26   0.534   0.964   3.444  0.9610 -0.0752 -0.1281
    3HFIP    C3   27   0.641   0.896   3.353  0.2445 -0.0284  0.5291
    3HFIP    F4   28   0.761   0.871   3.418 -0.0160  0.1085  0.2840
    3HFIP    F5   29   0.672   0.983   3.253 -0.3943 -0.2703 -0.3653
    3HFIP    F6   30   0.606   0.780   3.291  0.2047  0.0767  0.6630
    3HFIP    C7   31   0.460   0.863   3.543 -0.0648 -0.3010 -0.0024
    3HFIP    F8   32   0.536   0.767   3.607  0.1488 -0.0220  0.2996
    3HFIP    F9   33   0.380   0.786   3.473  0.3902 -0.0599  0.1250
    3HFIP   F10   34   0.385   0.928   3.631  0.7038  0.3762 -0.5569
    3HFIP   H11   35   0.431   0.972   3.286  2.1654 -1.2227  0.1200
    3HFIP   H12   36   0.578   1.041   3.507  0.9016 -0.3499  0.2555
    4HFIP    O1   37   2.743   1.832   2.043  0.6807  0.1421  0.1657
    4HFIP    C2   38   2.704   1.700   2.041 -0.4042 -0.5233  0.4936
    4HFIP    C3   39   2.596   1.667   2.143  0.3459 -0.3510 -0.0503
    4HFIP    F4   40   2.643   1.712   2.261  0.6507  0.1611  0.6285
    4HFIP    F5   41   2.565   1.537   2.170  0.7531 -0.4881 -0.5206
    4HFIP    F6   42   2.481   1.729   2.107 -0.0331 -0.2761 -0.0422
    4HFIP    C7   43   2.824   1.594   2.057 -0.1980 -0.6066  0.4683
    4HFIP    F8   44   2.924   1.638   1.967  0.1272  0.2321 -0.5923
    4HFIP    F9   45   2.787   1.470   2.022  0.0394  0.1163 -0.0555
    4HFIP   F10   46   2.889   1.586   2.174 -0.1796 -0.7125  0.1111
    4HFIP   H11   47   2.798   1.852   2.124 -0.5278 -0.2501  1.0953
    4HFIP   H12   48   2.652   1.680   1.947 -0.4185  1.9373 -0.0619
    5HFIP    O1   49   0.205   0.447   0.790 -0.0383 -0.5215 -0.4083
    5HFIP    C2   50   0.198   0.571   0.858 -0.1472  0.1629  0.1266
    5HFIP    C3   51   0.194   0.536   1.010 -0.0133  0.6533 -0.2548
    5HFIP    F4   52   0.159   0.643   1.083 -1.1056  0.4470 -0.1897
    5HFIP    F5   53   0.320   0.520   1.059 -0.1312 -0.0878 -0.2119
    5HFIP    F6   54   0.123   0.431   1.048 -0.0711  0.4026  0.3051
    5HFIP    C7   55   0.078   0.656   0.801 -0.1055  0.1730  0.2518
    5HFIP    F8   56  -0.037   0.628   0.858 -0.0887  0.0522 -0.0601
    5HFIP    F9   57   0.064   0.636   0.665  0.0712  0.5730 -0.4218
    5HFIP   F10   58   0.100   0.788   0.829 -0.1029  0.7001  0.7973
    5HFIP   H11   59   0.115   0.402   0.799  1.1734 -3.4266 -2.1413
    5HFIP   H12   60   0.294   0.621   0.842 -0.6925  1.6355  1.3087
    6HFIP    O1   61   3.203   1.110   2.395  0.0684  0.4880  0.0555
    6HFIP    C2   62   3.145   0.987   2.377  0.2138 -0.1208 -0.1538
    6HFIP    C3   63   3.136   0.929   2.228 -0.4756  0.0618  0.6338
    6HFIP    F4   64   3.052   1.009   2.153 -0.4692 -0.2356 -0.0353
    6HFIP    F5   65   3.097   0.797   2.226 -0.2125 -0.1610 -0.1710
    6HFIP    F6   66   3.261   0.924   2.170 -0.6077 -0.4515  0.1037
    6HFIP    C7   67   3.008   0.988   2.455  0.6725 -0.1319 -0.4349
    6HFIP    F8   68   2.950   0.864   2.453 -0.0304  0.4255 -0.3468
    6HFIP    F9   69   2.916   1.061   2.385  0.3332  0.1902 -0.2757
    6HFIP   F10   70   3.021   1.034   2.588 -0.0414  0.1088  0.5771
    6HFIP   H11   71   3.130   1.171   2.426  1.0442  0.8278  1.7678
    6HFIP   H12   72   3.214   0.915   2.422  0.9053  0.2862 -0.5539
    7HFIP    O1   73   0.189   2.693   1.368 -0.0631  0.1003 -0.3821
    7HFIP    C2   74   0.186   2.577   1.292  0.7735  0.5959 -0.0753
    7HFIP    C3   75   0.131   2.608   1.150  0.0376 -1.0073  0.0424
    7HFIP    F4   76  -0.000   2.645   1.134  0.4233 -0.2006  0.3258
    7HFIP    F5   77   0.170   2.503   1.069  0.0234 -0.2941  0.3643
    7HFIP    F6   78   0.201   2.717   1.099  0.2433  0.0438  0.0867
    7HFIP    C7   79   0.088   2.469   1.365  0.1908  0.7880  0.5262
    7HFIP    F8   80   0.050   2.362   1.288  0.1283  0.2826  0.2877
    7HFIP    F9   81  -0.022   2.519   1.431 -0.5525  0.1079 -0.1414
    7HFIP   F10   82   0.162   2.416   1.470  0.2313  0.1905  0.4203
    7HFIP   H11   83   0.095   2.725   1.362  0.1905  0.7888 -0.7202
    7HFIP   H12   84   0.287   2.535   1.285  0.9758  0.9321  0.8386
    8HFIP    O1   85   0.373   0.782   2.928  0.5734 -0.3257  0.2309
    8HFIP    C2   86   0.425   0.656   2.899  0.0533 -0.2846  0.4792
    8HFIP    C3   87   0.572   0.669   2.847  0.3851  0.2349 -0.3178
    8HFIP    F4   88   0.648   0.575   2.904 -0.1392  0.1057  0.1462
    8HFIP    F5   89   0.616   0.782   2.901 -0.2411 -0.4455  0.2426
    8HFIP    F6   90   0.596   0.691   2.713  0.3144  0.1045 -0.0009
    8HFIP    C7   91   0.337   0.590   2.794  0.4522  0.2134  0.0296
    8HFIP    F8   92   0.227   0.546   2.863  0.0549 -0.1102 -0.4677
    8HFIP    F9   93   0.398   0.482   2.740  0.5743  0.7387 -0.4549
    8HFIP   F10   94   0.295   0.661   2.689 -0.0990  0.0372 -0.0898
    8HFIP   H11   95   0.365   0.831   2.842  2.5296 -1.3188 -0.5570
    8HFIP   H12   96   0.423   0.593   2.987 -1.3161  1.4233  1.6986
    9HFIP    O1   97   1.511   1.330   1.766  0.4298  0.4445 -0.1600
    9HFIP    C2   98   1.642   1.322   1.801  0.1103  0.5807 -0.8559
    9HFIP    C3   99   1.665   1.302   1.960 -0.3423  0.3802  0.6767
    9HFIP    F4  100   1.607   1.185   1.993 -0.3973  0.8365  0.4440
    9HFIP    F5  101   1.595   1.394   2.036  0.0022 -0.3946  0.3200
    9HFIP    F6  102   1.800   1.306   1.992  0.3392 -0.2667  1.0215
    9HFIP    C7  103   1.724   1.431   1.731  0.6252  0.2914 -0.3601
    9HFIP    F8  104   1.855   1.400   1.712 -0.0388 -0.1136 -0.0432
    9HFIP    F9  105   1.720   1.549   1.802 -0.0372  0.1940  0.8664
    9HFIP   F10  106   1.677   1.458   1.608  0.7467 -0.2168 -0.1852
    9HFIP   H11  107   1.470   1.410   1.810 -2.8977  1.6561 -5.0610
    9HFIP   H12  108   1.670   1.226   1.757  1.1324  0.9317 -0.9910
   10HFIP    O1  109   3.437   1.117   2.524 -0.3127  0.9387  0.0339
   10HFIP    C2  110   3.462   1.228   2.601  0.7690  0.1117  1.2718
   10HFIP    C3  111   3.387   1.215   2.737  0.7668 -0.3939 -0.2048
   10HFIP    F4  112   3.390   1.331   2.810  0.2990  0.4773 -0.4922
   10HFIP    F5  113   3.451   1.117   2.806 -0.4142 -0.0540 -0.5363
   10HFIP    F6  114   3.254   1.174   2.728 -0.5134 -0.1210 -0.2448
   10HFIP    C7  115   3.419   1.349   2.520  0.4069 -0.3632  0.0235
   10HFIP    F8  116   3.473   1.351   2.400  0.3797  0.3396  0.5303
   10HFIP    F9  117   3.458   1.472   2.568  0.1245 -0.4219  0.2424
   10HFIP   F10  118   3.284   1.346   2.506 -0.3346  0.1243  0.1024
   10HFIP   H11  119   3.351   1.121   2.473  0.5336  1.8445 -1.3706
   10HFIP   H12  120   3.569   1.224   2.623  1.0507 -2.6803 -0.3407
   11HFIP    O1  121   0.943   1.797   2.652  0.4639 -0.3120 -0.1726
   11HFIP    C2  122   0.839   1.707   2.635  0.7716 -0.0672  0.0579
   11HFIP    C3  123   0.815   1.628   2.770  0.3381  0.0321 -0.1510
   11HFIP    F4  124   0.778   1.727   2.860  0.2649 -0.0551  0.0456
   11HFIP    F5  125   0.925   1.573   2.826 -0.2885  0.3534  0.0790
   11HFIP    F6  126   0.714   1.539   2.772 -0.8130 -0.1663 -0.0620
   11HFIP    C7  127   0.870   1.609   2.516 -0.0101 -0.3935  0.9472
   11HFIP    F8  128   0.925   1.681   2.418 -0.4433 -0.6591  0.0215
   11HFIP    F9  129   0.758   1.550   2.468 -0.5805  1.0375  0.3524
   11HFIP   F10  130   0.964   1.514   2.547 -0.1157 -0.5620  0.0709
   11HFIP   H11  131   0.940   1.840   2.742  0.4325  0.3587 -0.4899
   11HFIP   H12  132   0.749   1.765   2.613  0.8029 -0.5844 -1.5068
   12HFIP    O1  133   0.545   2.606   1.745  0.4478  0.5190 -0.2033
   12HFIP    C2  134   0.473   2.697   1.826 -0.4328  0.4187  0.7916
   12HFIP    C3  135   0.326   2.731   1.770  0.3532 -0.1594  0.0745
   12HFIP    F4  136   0.243   2.627   1.778  0.5629  0.4168  0.0280
   12HFIP    F5  137   0.328   2.761   1.636  0.2164 -0.5332 -0.3336
   12HFIP    F6  138   0.266   2.838   1.835  0.1240 -0.1769 -0.1366
   12HFIP    C7  139   0.549   2.825   1.856 -0.7139 -0.1368  0.9170
   12HFIP    F8  140   0.670   2.794   1.913 -0.5394 -0.4698  0.0659
   12HFIP    F9  141   0.491   2.897   1.955  0.1256  0.0209  0.0983
   12HFIP   F10  142   0.571   2.899   1.743  0.2989 -0.5215  0.0694
   12HFIP   H11  143   0.570   2.640   1.655 -1.3765  1.1362 -0.4973
   12HFIP   H12  144   0.456   2.648   1.921  1.1024 -0.8717  0.4328
   13HFIP    O1  145   0.602   0.887   1.976  0.3918 -0.3611  0.2647
   13HFIP    C2  146   0.569   0.807   1.861 -0.3423  0.4463 -0.3837
   13HFIP    C3  147   0.450   0.717   1.888  0.0624  0.5987 -0.3759
   13HFIP    F4  148   0.384   0.678   1.776 -0.7968 -0.2373  0.1558
   13HFIP    F5  149   0.365   0.793   1.960 -0.3550 -0.0004  0.0029
   13HFIP    F6  150   0.479   0.607   1.962  0.4584  0.6459  0.2409
   13HFIP    C7  151   0.692   0.729   1.805 -0.3349 -0.1960  0.4006
   13HFIP    F8  152   0.664   0.625   1.719 -0.1174  0.5777  0.0010
   13HFIP    F9  153   0.759   0.668   1.908  0.1042 -0.2343 -0.3565
   13HFIP   F10  154   0.776   0.812   1.739 -0.1964 -0.4451 -0.2631
   13HFIP   H11  155   0.622   0.822   2.049 -0.3989 -1.2407 -0.2940
   13HFIP   H12  156   0.539   0.878   1.783 -0.7949 -1.3985 -1.9290
   14HFIP    O1  157   3.209   1.922   2.646  0.3950 -0.0102 -0.1653
   14HFIP    C2  158   3.344   1.868   2.639 -0.2650 -0.1541  0.2675
   14HFIP    C3  159   3.383   1.830   2.780 -0.2512  0.1228  0.3158
   14HFIP    F4  160   3.286   1.760   2.843 -0.2411  0.2737  0.1562
   14HFIP    F5  161   3.398   1.945   2.851 -0.4218  0.1524 -0.1940
   14HFIP    F6  162   3.498   1.755   2.789  0.0924  0.3990  0.4149
   14HFIP    C7  163   3.447   1.968   2.566 -0.2039 -0.2768 -0.6806
   14HFIP    F8  164   3.576   1.949   2.608 -0.0301 -0.2976 -0.0263
   14HFIP    F9  165   3.407   2.098   2.576 -0.5247  0.2192  0.1863
   14HFIP   F10  166   3.445   1.959   2.431  0.2559 -0.3649 -0.4690
   14HFIP   H11  167   3.223   1.995   2.713  0.3778 -0.3948  0.2651
   14HFIP   H12  168   3.324   1.774   2.587  1.6345 -1.5910  2.0825
   15HFIP    O1  169   0.351   0.924   2.713 -0.1140  0.2024 -0.1986
   15HFIP    C2  170   0.444   1.022   2.685  0.0330  0.3755 -0.0385
   15HFIP    C3  171   0.407   1.152   2.750 -0.5078 -0.4576 -0.5209
   15HFIP    F4  172   0.275   1.173   2.724 -0.5431 -0.2701  0.0685
   15HFIP    F5  173   0.481   1.257   2.706  0.1963 -0.4057 -0.1883
   15HFIP    F6  174   0.421   1.136   2.888 -0.1926 -0.4895  0.5009
   15HFIP    C7  175   0.464   1.026   2.529  0.1543  0.0840  0.2485
   15HFIP    F8  176   0.368   1.095   2.461 -0.1961 -0.3697 -0.1574
   15HFIP    F9  177   0.453   0.901   2.475 -0.0023 -0.6455 -0.1701
   15HFIP   F10  178   0.583   1.080   2.492  0.3850 -0.3347  0.1459
   15HFIP   H11  179   0.267   0.962   2.674  0.4146  2.0340  0.3747
   15HFIP   H12  180   0.538   0.984   2.725  0.3830 -1.0923 -2.1774
   16HFIP    O1  181   0.423   2.216   3.020 -0.9958 -0.4351  0.6025
   16HFIP    C2  182   0.406   2.195   2.883 -0.3816  0.2185 -1.1643
   16HFIP    C3  183   0.265   2.127   2.857  0.7508 -0.9869 -0.3242
   16HFIP    F4  184   0.157   2.205   2.897 -0.1584  0.4476  0.0742
   16HFIP    F5  185   0.252   2.005   2.922 -0.0574 -0.2599  0.2931
   16HFIP    F6  186   0.251   2.101   2.729  0.3406  0.1166  0.2307
   16HFIP    C7  187   0.523   2.112   2.832  0.2931  0.6243 -0.6092
   16HFIP    F8  188   0.513   1.977   2.840  0.2030  0.6367 -0.4046
   16HFIP    F9  189   0.641   2.156   2.879  0.0425  0.2945 -0.1713
   16HFIP   F10  190   0.536   2.134   2.696  0.3244 -0.4955 -0.2048
   16HFIP   H11  191   0.385   2.145   3.079 -0.6950  0.4862  1.9275
   16HFIP   H12  192   0.405   2.288   2.826  0.3610 -0.2911 -2.0174
   17HFIP    O1  193   3.288   1.567   1.760 -0.0681 -0.5703 -0.1956
   17HFIP    C2  194   3.377   1.621   1.665  0.5634 -0.3337  0.5664
   17HFIP    C3  195   3.410   1.771   1.691 -0.4085 -0.5698 -0.1668
   17HFIP    F4  196   3.494   1.839   1.608 -0.2437  0.1536  0.7067
   17HFIP    F5  197   3.470   1.781   1.814  0.1210 -0.1755 -0.3113
   17HFIP    F6  198   3.297   1.847   1.681 -0.0332 -0.5683  0.2723
   17HFIP    C7  199   3.327   1.600   1.515 -0.0928  0.6766  0.1525
   17HFIP    F8  200   3.422   1.631   1.420  0.2659  0.0277 -0.0659
   17HFIP    F9  201   3.219   1.673   1.476 -0.5120  0.8061  0.0260
   17HFIP   F10  202   3.279   1.477   1.499 -0.3923  0.3166  0.2226
   17HFIP   H11  203   3.196   1.579   1.721  0.2706  2.6577 -0.1668
   17HFIP   H12  204   3.470   1.566   1.682  1.6775  1.6906  1.2538
   18HFIP    O1  205   1.715   2.467   2.019 -0.0191  0.1964  0.2393
   18HFIP    C2  206   1.613   2.378   2.052  0.1470 -0.0613  0.0082
   18HFIP    C3  207   1.488   2.442   1.998 -0.4702 -0.1500 -0.3953
   18HFIP    F4  208   1.472   2.568   2.056  0.1541  0.4415 -0.1247
   18HFIP    F5  209   1.373   2.366   2.021 -0.3584 -0.2277  0.3222
   18HFIP    F6  210   1.507   2.467   1.864  0.1018  0.3630 -0.0202
   18HFIP    C7  211   1.623   2.335   2.194 -0.7528  1.0574 -0.3325
   18HFIP    F8  212   1.514   2.281   2.252  0.0089 -0.3569  0.0788
   18HFIP    F9  213   1.659   2.435   2.278 -0.3607 -0.0529 -0.4827
   18HFIP   F10  214   1.720   2.234   2.198 -0.6263 -0.4015 -0.2057
   18HFIP   H11  215   1.672   2.551   2.053 -3.0334 -0.3170 -2.0336
   18HFIP   H12  216   1.627   2.282   2.001 -0.6713  0.0342 -0.4060
   19HFIP    O1  217   1.935   2.574   1.859 -0.5424  0.2741  0.3344
   19HFIP    C2  218   2.068   2.574   1.909 -0.2584 -0.2979 -0.1924
   19HFIP    C3  219   2.136   2.437   1.895  0.2489  0.1410 -0.1253
   19HFIP    F4  220   2.265   2.433   1.933 -0.3478 -0.6377 -0.3307
   19HFIP    F5  221   2.123   2.399   1.766 -0.0779  0.0445  0.3772
   19HFIP    F6  222   2.060   2.347   1.956 -0.1969  0.1802 -0.2919
   19HFIP    C7  223   2.072   2.640   2.049 -0.1097  0.6012  0.1473
   19HFIP    F8  224   1.998   2.577   2.147 -0.2622  0.2011  1.0899
   19HFIP    F9  225   2.032   2.767   2.041 -0.2478 -0.0939 -0.0805
   19HFIP   F10  226   2.198   2.655   2.094 -0.3958  0.4357  0.7374
   19HFIP   H11  227   1.871   2.527   1.920  0.0061 -0.2179  0.5390
   19HFIP   H12  228   2.125   2.646   1.851  1.9736 -1.1699  0.8717
   20HFIP    O1  229   0.465   2.471   3.005  0.3848 -0.3861  0.2414
   20HFIP    C2  230   0.588   2.536   3.033  0.3838  0.2874 -0.1582
   20HFIP    C3  231   0.672   2.574   2.909 -0.5257  0.2330  0.0067
   20HFIP    F4  232   0.650   2.703   2.866  0.0969  0.5601  0.2186
   20HFIP    F5  233   0.641   2.489   2.812  0.3324 -0.4534  0.5780
   20HFIP    F6  234   0.808   2.557   2.913 -0.4364 -0.7969 -0.4534
   20HFIP    C7  235   0.663   2.441   3.130 -0.6819 -0.0670  0.3050
   20HFIP    F8  236   0.770   2.500   3.193 -0.1449 -0.0555  0.0196
   20HFIP    F9  237   0.698   2.322   3.077  0.4705  0.5421  0.2449
   20HFIP   F10  238   0.577   2.411   3.231  0.4464 -0.1824 -0.5955
   20HFIP   H11  239   0.477   2.372   3.013  0.2097 -0.6281 -1.9976
   20HFIP   H12  240   0.566   2.624   3.092  0.4262  0.5861 -0.5851
   21HFIP    O1  241   0.640   2.330   1.745  0.3868 -0.1771  0.2607
   21HFIP    C2  242   0.570   2.243   1.665 -0.1983 -0.4025 -0.2220
   21HFIP    C3  243   0.574   2.286   1.514  0.7923  0.2784  0.1370
   21HFIP    F4  244   0.535   2.413   1.484  0.0682  0.3530  0.1351
   21HFIP    F5  245   0.499   2.207   1.431  0.4765 -0.1652  0.2565
   21HFIP    F6  246   0.696   2.286   1.466 -0.7049 -0.0683  0.2632
   21HFIP    C7  247   0.428   2.219   1.721 -0.1437 -0.2333 -0.1839
   21HFIP    F8  248   0.328   2.281   1.656 -0.5255  0.4377 -0.0998
   21HFIP    F9  249   0.411   2.254   1.849 -0.6151  0.2237 -0.3419
   21HFIP   F10  250   0.386   2.093   1.715 -0.0278  0.1524 -0.0880
   21HFIP   H11  251   0.582   2.411   1.749  0.1044 -0.3537 -0.1397
   21HFIP   H12  252   0.626   2.150   1.677  2.0664  1.1357  1.5840
   22HFIP    O1  253   0.572   2.729   1.521  0.1548 -0.3413  0.5272
   22HFIP    C2  254   0.699   2.785   1.485 -0.1396  0.8980 -0.9112
   22HFIP    C3  255   0.679   2.865   1.354 -0.1167  0.5984 -0.7684
   22HFIP    F4  256   0.783   2.859   1.267 -0.5293  0.2614 -0.3821
   22HFIP    F5  257   0.658   2.997   1.384  0.1103 -0.5757  0.2814
   22HFIP    F6  258   0.562   2.821   1.297 -0.9175  0.7581  0.4527
   22HFIP    C7  259   0.803   2.680   1.478 -0.3558 -0.3351 -0.4319
   22HFIP    F8  260   0.810   2.632   1.606 -0.3094 -0.2529  0.8064
   22HFIP    F9  261   0.932   2.717   1.450  0.6278 -0.2088 -0.0886
   22HFIP   F10  262   0.771   2.573   1.407 -0.6433 -0.0134  0.2260
   22HFIP   H11  263   0.516   2.754   1.442  0.3058 -0.9221  0.2374
   22HFIP   H12  264   0.733   2.854   1.561 -1.7174  0.2329  0.4171
   23HFIP    O1  265   0.825   0.697   1.236 -0.2008  0.5833  0.4842
   23HFIP    C2  266   0.866   0.601   1.323 -0.0913  0.0863  0.1479
   23HFIP    C3  267   1.013   0.631   1.367  0.2599  0.0113 -0.3519
   23HFIP    F4  268   1.025   0.574   1.495 -0.5891  0.5831  0.3739
   23HFIP    F5  269   1.037   0.761   1.389 -0.3058  0.4199 -0.4493
   23HFIP    F6  270   1.107   0.581   1.281  0.4707 -0.4385  0.6138
   23HFIP    C7  271   0.845   0.459   1.255  0.7621 -0.0862  0.2058
   23HFIP    F8  272   0.897   0.362   1.336 -0.1331  0.2129 -0.1063
   23HFIP    F9  273   0.914   0.454   1.138  0.5124 -0.0439  0.0315
   23HFIP   F10  274   0.715   0.440   1.237 -0.2487  0.6173  0.3343
   23HFIP   H11  275   0.898   0.729   1.176 -1.1908 -2.7631 -2.6663
   23HFIP   H12  276   0.807   0.604   1.415 -0.0353 -2.2845  0.2994
   24HFIP    O1  277   0.360   1.778   3.166  0.2894  0.5834 -0.5077
   24HFIP    C2  278   0.264   1.694   3.109 -0.5329 -0.2669 -0.1074
   24HFIP    C3  279   0.139   1.716   3.189  0.4891  0.2371 -0.3434
   24HFIP    F4  280   0.138   1.665   3.316  0.3250 -0.5411  0.3466
   24HFIP    F5  281   0.035   1.657   3.119 -0.5190  0.1879 -0.4502
   24HFIP    F6  282   0.111   1.850   3.195 -0.0755 -0.0586 -0.7133
   24HFIP    C7  283   0.317   1.552   3.114 -0.3018 -0.2840  0.1717
   24HFIP    F8  284   0.220   1.461   3.117  0.3081  0.0291 -0.3107
   24HFIP    F9  285   0.389   1.544   3.228 -0.4461  0.0159  0.0696
   24HFIP   F10  286   0.407   1.526   3.015 -0.1672 -0.0390 -0.3793
   24HFIP   H11  287   0.404   1.715   3.231  0.3374  2.6401  1.5018
   24HFIP   H12  288   0.249   1.724   3.005 -1.4084  0.2850  0.1819
   25HFIP    O1  289   3.469   3.409   1.514 -0.3251  0.3311  0.7676
   25HFIP    C2  290   3.474   3.542   1.495  0.4197  0.0327 -0.2727
   25HFIP    C3  291   3.379   3.601   1.597 -0.8696 -0.1373 -0.3047
   25HFIP    F4  292   3.430   3.591   1.722 -0.0719 -0.5484 -0.2567
   25HFIP    F5  293   3.261   3.542   1.612 -0.3575 -0.1104 -0.0126
   25HFIP    F6  294   3.362   3.739   1.594 -0.6469  0.2802 -0.1745
   25HFIP    C7  295   3.447   3.599   1.357 -0.4962  0.1683  0.2722
   25HFIP    F8  296   3.498   3.508   1.268  0.7301 -0.2577 -0.1415
   25HFIP    F9  297   3.501   3.723   1.332  0.6114  0.0520 -0.1406
   25HFIP   F10  298   3.317   3.613   1.319  0.0545 -0.9041  0.5252
   25HFIP   H11  299   3.383   3.368   1.483  1.0841 -1.2695 -1.2055
   25HFIP   H12  300   3.571   3.578   1.529 -1.1813  2.7633  1.6482
   26HFIP    O1  301   0.685   0.371   0.357 -0.5430  0.0555  0.0719
   26HFIP    C2  302   0.822   0.359   0.343  0.0457  0.0645  0.0922
   26HFIP    C3  303   0.878   0.466   0.240  0.2782  0.2511  0.9318
   26HFIP    F4  304   0.851   0.425   0.111  0.0155 -0.1397  0.3476
   26HFIP    F5  305   1.011   0.487   0.264 -0.2657 -0.2644  0.0466
   26HFIP    F6  306   0.813   0.587   0.243 -0.5621  0.3068 -0.3669
   26HFIP    C7  307   0.862   0.215   0.319 -0.6276 -0.4464 -0.9579
   26HFIP    F8  308   0.864   0.136   0.431 -0.2996 -0.7389 -0.1727
   26HFIP    F9  309   0.989   0.193   0.277 -0.1964 -0.4533 -0.0373
   26HFIP   F10  310   0.774   0.140   0.248 -0.8138  0.0034  0.1507
   26HFIP   H11  311   0.640   0.349   0.271 -0.9767  0.6047  0.1516
   26HFIP   H12  312   0.868   0.396   0.435 -0.0403 -0.3261  0.2934
   27HFIP    O1  313   3.006   1.547   1.641  0.0570  0.5300  0.3633
   27HFIP    C2  314   2.895   1.462   1.653 -0.4014  0.2369 -0.1663
   27HFIP    C3  315   2.927   1.329   1.586  0.2702  0.4918 -0.1098
   27HFIP    F4  316   3.055   1.288   1.603 -0.0253 -0.2059 -0.1308
   27HFIP    F5  317   2.909   1.339   1.454  0.2319  0.1927  0.4172
   27HFIP    F6  318   2.844   1.226   1.618 -0.1482  0.2290  0.0938
   27HFIP    C7  319   2.761   1.525   1.608  0.1408  0.9219 -0.1040
   27HFIP    F8  320   2.742   1.627   1.699  0.5533  0.3556  0.1119
   27HFIP    F9  321   2.650   1.442   1.599 -0.2544 -0.2186 -0.0057
   27HFIP   F10  322   2.781   1.585   1.490 -0.0329 -0.4239  0.0701
   27HFIP   H11  323   2.985   1.612   1.568  0.8914  0.8832  0.4294
   27HFIP   H12  324   2.883   1.451   1.761  0.8623  2.6774  0.2664
   28HFIP    O1  325   0.657   0.900   1.249  0.1293  0.3766 -0.5628
   28HFIP    C2  326   0.523   0.907   1.225  0.4008  0.0400 -0.2861
   28HFIP    C3  327   0.452   0.797   1.308 -1.1467 -0.6806 -0.2947
   28HFIP    F4  328   0.318   0.781   1.284  0.5145  0.1261  0.1333
   28HFIP    F5  329   0.455   0.817   1.443 -0.1698  0.6193 -0.1388
   28HFIP    F6  330   0.506   0.670   1.291 -0.5307 -0.1701  0.3086
   28HFIP    C7  331   0.498   0.891   1.074  0.0523 -0.1687  0.0968
   28HFIP    F8  332   0.553   0.777   1.025 -0.4918  0.2105 -0.2449
   28HFIP    F9  333   0.564   0.996   1.012  0.4321 -0.0366  0.3505
   28HFIP   F10  334   0.374   0.902   1.026  0.3483  0.3098 -0.1229
   28HFIP   H11  335   0.689   0.812   1.213 -0.1741  0.1118 -0.1873
   28HFIP   H12  336   0.486   1.004   1.256 -0.8108 -0.3385 -0.5205
   29HFIP    O1  337   0.331   0.874   3.197  0.6848  0.5080  0.2468
   29HFIP    C2  338   0.201   0.883   3.214  0.4503  0.4585  0.2083
   29HFIP    C3  339   0.116   0.755   3.175 -0.3579 -0.3096 -0.3389
   29HFIP    F4  340   0.085   0.770   3.045  0.1178 -0.2854  0.2062
   29HFIP    F5  341  -0.002   0.744   3.244 -0.1158 -0.5897  0.1655
   29HFIP    F6  342   0.175   0.632   3.181 -0.1256 -0.0953 -0.2328
   29HFIP    C7  343   0.153   1.018   3.157  0.7967 -0.4553  0.4234
   29HFIP    F8  344   0.169   1.017   3.024 -0.1359  0.1283 -0.1276
   29HFIP    F9  345   0.218   1.127   3.195 -0.3996 -0.2629  0.4878
   29HFIP   F10  346   0.016   1.039   3.172 -0.1850  0.1515  0.1115
   29HFIP   H11  347   0.340   0.833   3.106 -1.8973 -0.3751  0.3583
   29HFIP   H12  348   0.184   0.884   3.322  0.3402  1.2854  0.1884
   30HFIP    O1  349   0.011   0.267   0.815 -0.7582  0.1172 -0.2887
   30HFIP    C2  350  -0.132   0.269   0.831  0.4200 -0.2870  0.3828
   30HFIP    C3  351  -0.170   0.219   0.970 -0.1505  0.0130 -0.1296
   30HFIP    F4  352  -0.126   0.303   1.063  0.6163 -0.2188  0.2155
   30HFIP    F5  353  -0.112   0.099   1.003  0.4014 -0.7146  0.0074
   30HFIP    F6  354  -0.301   0.188   0.985 -0.3123 -0.1910 -0.1562
   30HFIP    C7  355  -0.209   0.202   0.710  0.2419 -0.7178 -0.6471
   30HFIP    F8  356  -0.171   0.257   0.592  0.1930  0.0983  0.0822
   30HFIP    F9  357  -0.346   0.220   0.715 -0.0377 -0.4942 -0.0027
   30HFIP   F10  358  -0.198   0.070   0.706 -0.2439  0.7978 -0.0074
   30HFIP   H11  359   0.036   0.170   0.821 -0.1623  0.3031  0.2771
   30HFIP   H12  360  -0.176   0.369   0.824  0.3120 -0.2509  1.4986
   31HFIP    O1  361   0.529   0.345   0.136  0.2241 -0.1888 -0.1616
   31HFIP    C2  362   0.575   0.283   0.010 -0.1600 -0.0768  0.4601
   31HFIP    C3  363   0.557   0.396  -0.098  0.3087  0.3201  0.3108
   31HFIP    F4  364   0.595   0.370  -0.226  0.7632  0.3606 -0.4943
   31HFIP    F5  365   0.616   0.512  -0.057  0.0221  0.5077 -0.5678
   31HFIP    F6  366   0.428   0.430  -0.104  0.1438  0.2130  0.0622
   31HFIP    C7  367   0.487   0.159  -0.021 -0.2094  0.1256 -0.4074
   31HFIP    F8  368   0.490   0.129  -0.153  0.2376 -0.0783  0.4957
   31HFIP    F9  369   0.355   0.174   0.012  0.1600  0.2223 -0.5169
   31HFIP   F10  370   0.545   0.050   0.037 -0.8295  0.5279 -0.2363
   31HFIP   H11  371   0.430   0.356   0.129  0.3974  0.4842 -1.7961
   31HFIP   H12  372   0.680   0.256   0.013 -0.0940  0.1421  0.1274
   32HFIP    O1  373   0.267   1.289   0.272  0.1646  0.6176  0.4467
   32HFIP    C2  374   0.343   1.402   0.221 -0.0152  0.2845 -0.1393
   32HFIP    C3  375   0.247   1.522   0.196  0.1919  1.3009  0.1995
   32HFIP    F4  376   0.128   1.476   0.140 -0.4091 -0.0118  0.8071
   32HFIP    F5  377   0.304   1.621   0.121 -0.3466  0.0745 -0.1934
   32HFIP    F6  378   0.211   1.575   0.317 -0.8646  0.2791 -0.5782
   32HFIP    C7  379   0.413   1.362   0.089 -0.0458  0.3007 -0.2005
   32HFIP    F8  380   0.476   1.458   0.016  0.0546  0.3509 -0.4355
   32HFIP    F9  381   0.321   1.290   0.013 -0.0975 -0.3406 -0.1714
   32HFIP   F10  382   0.520   1.275   0.111 -0.5732  0.4024  0.3363
   32HFIP   H11  383   0.191   1.276   0.209  0.2447 -0.2645  0.5274
   32HFIP   H12  384   0.418   1.432   0.293 -0.1538  0.7930 -0.2074
   33HFIP    O1  385   0.498   1.119   1.991 -0.2736  0.2767  0.5282
   33HFIP    C2  386   0.592   1.219   1.997  0.5926 -0.5168 -0.7004
   33HFIP    C3  387   0.660   1.238   1.862 -0.3507  0.0567 -0.8447
   33HFIP    F4  388   0.570   1.230   1.760 -0.6144 -0.4228  0.2913
   33HFIP    F5  389   0.763   1.149   1.836 -0.0144  0.0256 -0.1778
   33HFIP    F6  390   0.705   1.368   1.848  0.3085 -0.0618  0.1562
   33HFIP    C7  391   0.697   1.182   2.109 -0.3828 -0.2379 -0.7723
   33HFIP    F8  392   0.631   1.192   2.230 -0.1443  0.0979 -0.9533
   33HFIP    F9  393   0.802   1.275   2.110  0.0645 -0.0742 -0.3684
   33HFIP   F10  394   0.765   1.066   2.089 -0.7533 -0.1072  0.0745
   33HFIP   H11  395   0.542   1.030   1.989 -1.7384 -0.4422 -3.4290
   33HFIP   H12  396   0.551   1.314   2.032  0.0389 -0.9021 -0.2963
   34HFIP    O1  397   1.289   1.189   1.366 -0.2095  0.5103 -0.1217
   34HFIP    C2  398   1.343   1.261   1.262 -0.2156  0.0503  0.8005
   34HFIP    C3  399   1.467   1.190   1.210 -0.1642 -0.0236 -0.1238
   34HFIP    F4  400   1.577   1.206   1.294 -0.2909  0.1630  0.0734
   34HFIP    F5  401   1.502   1.236   1.090  0.1389  0.1975  0.1093
   34HFIP    F6  402   1.452   1.056   1.207  0.2487  0.3431  0.3588
   34HFIP    C7  403   1.370   1.407   1.321  0.5025  0.2696  0.0389
   34HFIP    F8  404   1.437   1.488   1.235  0.3801 -0.1204 -0.6792
   34HFIP    F9  405   1.431   1.403   1.440 -0.3585 -0.1664 -0.0398
   34HFIP   F10  406   1.250   1.471   1.345 -0.2731  0.1210 -0.0982
   34HFIP   H11  407   1.356   1.191   1.439  1.1980  1.7299 -1.4043
   34HFIP   H12  408   1.263   1.265   1.188  0.6647 -0.0556 -0.1739
   35HFIP    O1  409   3.161   1.151   0.051 -0.2409  0.5531 -0.6000
   35HFIP    C2  410   3.261   1.185   0.140 -0.7317 -0.0926 -0.5825
   35HFIP    C3  411   3.242   1.332   0.194 -0.4204 -0.0873  0.3267
   35HFIP    F4  412   3.242   1.431   0.100 -0.2432  0.2581  0.2143
   35HFIP    F5  413   3.325   1.363   0.299  0.4301  0.0549 -0.1174
   35HFIP    F6  414   3.118   1.337   0.247 -0.5209 -0.0339 -0.1895
   35HFIP    C7  415   3.391   1.171   0.055 -0.3559  0.8383 -0.7467
   35HFIP    F8  416   3.500   1.210   0.129 -0.4136 -0.0756 -0.4098
   35HFIP    F9  417   3.413   1.241  -0.057 -0.0531 -0.0058  0.7952
   35HFIP   F10  418   3.405   1.043   0.024  0.3079  0.0104 -0.2368
   35HFIP   H11  419   3.162   1.218  -0.023  0.9554  0.6161 -0.5341
   35HFIP   H12  420   3.261   1.121   0.228 -0.2481 -0.4054 -0.8093
   36HFIP    O1  421   2.724   2.751   1.035  0.6221 -0.3650 -0.0441
   36HFIP    C2  422   2.667   2.881   1.023  1.0142  0.1012 -0.4038
   36HFIP    C3  423   2.753   2.988   1.087  0.2807  0.0396 -0.3798
   36HFIP    F4  424   2.718   3.006   1.214 -0.4425  0.0512 -0.6327
   36HFIP    F5  425   2.749   3.100   1.016  0.1846 -0.4735  0.7672
   36HFIP    F6  426   2.885   2.960   1.099 -0.2826 -0.8145  0.0265
   36HFIP    C7  427   2.520   2.886   1.073  0.0278 -0.1388 -0.2395
   36HFIP    F8  428   2.494   2.844   1.199  0.1304 -0.0901 -0.2268
   36HFIP    F9  429   2.443   2.808   0.991  0.2370  0.1985  0.2161
   36HFIP   F10  430   2.473   3.013   1.064  0.3783 -0.4370  0.4292
   36HFIP   H11  431   2.747   2.734   1.131  0.0251 -0.8427  0.0118
   36HFIP   H12  432   2.662   2.895   0.915 -0.2239 -1.9008 -0.6324
   37HFIP    O1  433   2.782   2.706   1.275 -0.1195  0.4937 -0.4024
   37HFIP    C2  434   2.910   2.723   1.319 -0.1747  0.0006  0.0023
   37HFIP    C3  435   2.995   2.596   1.278  0.4100 -0.3254 -0.4449
   37HFIP    F4  436   2.933   2.484   1.323 -0.4057  0.0351  0.0887
   37HFIP    F5  437   3.121   2.591   1.329  0.4884  0.0199  0.8843
   37HFIP    F6  438   2.998   2.575   1.143 -0.1744  0.1574 -0.1820
   37HFIP    C7  439   2.909   2.743   1.476  0.6209 -0.2914  0.4020
   37HFIP    F8  440   2.787   2.797   1.514 -0.4821  0.4927  0.0466
   37HFIP    F9  441   3.015   2.819   1.524 -0.0455  0.0548 -0.4930
   37HFIP   F10  442   2.895   2.623   1.537  0.4592  0.7376 -0.0607
   37HFIP   H11  443   2.730   2.664   1.349 -0.1402  0.5938 -0.3609
   37HFIP   H12  444   2.951   2.816   1.280  1.0552 -0.9632 -1.0350
   38HFIP    O1  445   0.118   1.312   1.681 -0.5405 -0.6147 -0.6325
   38HFIP    C2  446   0.062   1.204   1.617  0.8390 -0.4020 -0.1166
   38HFIP    C3  447  -0.071   1.162   1.688  0.3636  0.1401 -0.3747
   38HFIP    F4  448  -0.143   1.272   1.720 -0.2841 -0.4061 -0.6196
   38HFIP    F5  449  -0.072   1.096   1.804  0.4891  0.0885  0.4161
   38HFIP    F6  450  -0.145   1.088   1.603 -0.0359  0.6619 -0.0763
   38HFIP    C7  451   0.162   1.089   1.592 -0.0445 -0.1523  0.6496
   38HFIP    F8  452   0.099   0.983   1.540  0.1935  0.1666  0.0645
   38HFIP    F9  453   0.232   1.044   1.701  0.2460  0.3529  0.4922
   38HFIP   F10  454   0.251   1.116   1.495 -0.1113  0.2166  0.0636
   38HFIP   H11  455   0.161   1.289   1.769 -0.3225 -1.8951 -1.0608
   38HFIP   H12  456   0.028   1.240   1.519 -0.9463  2.0557  1.3306
   39HFIP    O1  457   1.416   1.580   1.899 -0.0299  0.0075  0.4455
   39HFIP    C2  458   1.367   1.694   1.838  0.1154 -0.1089 -0.2634
   39HFIP    C3  459   1.467   1.774   1.757  0.3974 -0.7427 -0.3959
   39HFIP    F4  460   1.411   1.884   1.698 -0.0883  0.0816  0.3264
   39HFIP    F5  461   1.531   1.710   1.653 -0.2616  0.6680  0.6926
   39HFIP    F6  462   1.580   1.809   1.827 -0.5650  0.0150  0.2879
   39HFIP    C7  463   1.305   1.779   1.953  0.5079 -0.3597  0.4533
   39HFIP    F8  464   1.406   1.797   2.049 -0.0972  0.2130  0.1926
   39HFIP    F9  465   1.216   1.702   2.024 -0.1062 -0.1069 -0.0768
   39HFIP   F10  466   1.245   1.897   1.921 -0.3189  0.4301 -0.4768
   39HFIP   H11  467   1.463   1.614   1.981  1.1835 -0.4947 -0.0268
   39HFIP   H12  468   1.286   1.664   1.772 -0.9692 -2.1205  1.9057
   40HFIP    O1  469   0.099   0.937   2.572 -0.5337 -0.3732 -0.3060
   40HFIP    C2  470   0.081   0.818   2.506  0.2141 -0.1407 -0.4080
   40HFIP    C3  471   0.077   0.829   2.351 -0.6870  0.3401  0.1197
   40HFIP    F4  472   0.051   0.955   2.305 -0.0769 -0.0252  0.0008
   40HFIP    F5  473  -0.021   0.754   2.293 -0.5252  0.3161  0.0848
   40HFIP    F6  474   0.198   0.797   2.298 -0.4453  0.2459 -0.3938
   40HFIP    C7  475  -0.035   0.745   2.579  0.5665 -0.7936 -0.3657
   40HFIP    F8  476  -0.042   0.615   2.537  0.0561  0.4865  0.2109
   40HFIP    F9  477  -0.158   0.795   2.561 -0.2767 -0.1234  0.4395
   40HFIP   F10  478  -0.002   0.738   2.710 -0.4687 -0.0890 -0.4392
   40HFIP   H11  479   0.019   0.993   2.549 -0.2285  0.9803  1.7803
   40HFIP   H12  480   0.166   0.752   2.524  0.9366  0.0683 -2.9032
   41HFIP    O1  481   2.567   2.542   1.024  0.7401  0.2996  0.2080
   41HFIP    C2  482   2.597   2.451   0.919  0.1246  0.5022 -0.4396
   41HFIP    C3  483   2.742   2.393   0.923  0.3001  0.4074 -0.1378
   41HFIP    F4  484   2.766   2.288   0.844 -0.0636 -0.0748  0.4757
   41HFIP    F5  485   2.758   2.352   1.055 -0.0490 -0.0202 -0.1279
   41HFIP    F6  486   2.841   2.482   0.898  0.0356 -0.4873  0.2363
   41HFIP    C7  487   2.582   2.524   0.789 -0.1951  0.2490 -0.5221
   41HFIP    F8  488   2.649   2.644   0.776 -0.1038  0.3945  0.0762
   41HFIP    F9  489   2.450   2.565   0.778  0.2742 -0.3664  0.1141
   41HFIP   F10  490   2.596   2.457   0.672 -0.4187 -0.3604  0.2788
   41HFIP   H11  491   2.627   2.622   1.018  0.7536  0.1537 -1.9768
   41HFIP   H12  492   2.529   2.367   0.929 -0.1394  0.8143  0.4055
   42HFIP    O1  493   2.581   2.550   1.375  0.5804  0.0965 -0.1524
   42HFIP    C2  494   2.551   2.554   1.508  0.2597 -0.4704  0.5940
   42HFIP    C3  495   2.569   2.411   1.563  0.0346 -0.0714 -0.3012
   42HFIP    F4  496   2.509   2.379   1.678 -0.1353 -0.2502  0.5471
   42HFIP    F5  497   2.701   2.382   1.586  0.0309 -0.4393 -0.1707
   42HFIP    F6  498   2.517   2.312   1.481  0.1217 -0.3076 -0.5607
   42HFIP    C7  499   2.411   2.613   1.540  0.0598  0.0102  0.6975
   42HFIP    F8  500   2.310   2.518   1.547  0.3172  0.0910  0.1840
   42HFIP    F9  501   2.367   2.702   1.448  0.1140 -0.5516 -0.1881
   42HFIP   F10  502   2.402   2.684   1.655  0.1810  0.0999 -0.6726
   42HFIP   H11  503   2.500   2.511   1.330  0.7173 -1.2322  0.7090
   42HFIP   H12  504   2.626   2.617   1.556  0.3153  0.3200 -0.5048
   43HFIP    O1  505   0.288   1.249   1.879 -0.1499 -0.3701  0.2080
   43HFIP    C2  506   0.208   1.314   1.973  0.1601  0.1763 -0.2144
   43HFIP    C3  507   0.241   1.457   1.993 -0.0546 -0.3255  0.1204
   43HFIP    F4  508   0.183   1.506   2.109 -0.7522 -0.4021  0.1501
   43HFIP    F5  509   0.210   1.521   1.877  0.5528 -0.1006  0.4934
   43HFIP    F6  510   0.367   1.481   2.026  0.1376  0.1738 -0.2394
   43HFIP    C7  511   0.222   1.234   2.103 -0.5079  0.9042  0.0016
   43HFIP    F8  512   0.341   1.248   2.169  0.5826  0.3290  0.3100
   43HFIP    F9  513   0.218   1.097   2.073  0.1515 -0.5676  0.4093
   43HFIP   F10  514   0.128   1.263   2.201 -0.0659  0.2854  0.7287
   43HFIP   H11  515   0.357   1.195   1.927 -0.2598  0.0027  0.7886
   43HFIP   H12  516   0.103   1.307   1.943 -0.1415  0.9213  0.6407
   44HFIP    O1  517   1.381   1.162   1.613  0.0125  0.4198 -0.0523
   44HFIP    C2  518   1.278   1.094   1.677  0.2934  0.1663  0.3918
   44HFIP    C3  519   1.207   1.175   1.782 -0.4295 -0.4262  0.6532
   44HFIP    F4  520   1.260   1.151   1.905 -0.0815 -0.3049 -0.1179
   44HFIP    F5  521   1.077   1.134   1.785  0.4150 -0.2626 -0.2443
   44HFIP    F6  522   1.209   1.310   1.771  0.6538 -0.5822  0.2240
   44HFIP    C7  523   1.318   0.949   1.704 -0.3614 -0.5082  0.3556
   44HFIP    F8  524   1.346   0.883   1.589 -0.1178  0.6719 -0.7382
   44HFIP    F9  525   1.211   0.875   1.753  0.1137  0.2933 -0.0614
   44HFIP   F10  526   1.436   0.933   1.767  0.0830 -0.3033 -0.2113
   44HFIP   H11  527   1.434   1.207   1.685 -1.4430  0.6990  0.8853
   44HFIP   H12  528   1.207   1.089   1.595 -2.1876  1.4668  2.3538
   45HFIP    O1  529   2.493   2.025   1.628 -0.4715 -0.2638  0.0976
   45HFIP    C2  530   2.408   1.939   1.569 -0.0221  0.0369 -0.1683
   45HFIP    C3  531   2.380   1.808   1.641 -0.0342  0.1870 -0.5347
   45HFIP    F4  532   2.489   1.725   1.655  0.1193 -0.3289  0.3898
   45HFIP    F5  533   2.266   1.746   1.603  0.4811 -0.3001 -0.2154
   45HFIP    F6  534   2.364   1.835   1.775  0.1949 -0.2381  0.5257
   45HFIP    C7  535   2.459   1.913   1.428 -0.1716  0.2740 -0.0144
   45HFIP    F8  536   2.589   1.868   1.429 -0.0427  0.0852  0.4331
   45HFIP    F9  537   2.443   2.030   1.353 -0.7113  0.1538 -0.5135
   45HFIP   F10  538   2.395   1.818   1.358  0.4014 -0.0424 -0.1382
   45HFIP   H11  539   2.541   1.969   1.695 -0.6519 -0.4204  0.0961
   45HFIP   H12  540   2.312   1.990   1.560 -0.4944 -0.6626  0.8056
   46HFIP    O1  541   0.139   0.046   0.853 -0.5761 -0.1306 -0.4787
   46HFIP    C2  542   0.191  -0.051   0.943 -0.0011 -0.6364  0.7894
   46HFIP    C3  543   0.298   0.002   1.043 -0.2151  0.2095  0.1586
   46HFIP    F4  544   0.395   0.069   0.978 -0.6095  0.1765 -0.0785
   46HFIP    F5  545   0.359  -0.101   1.107  0.1446  0.2686 -0.4675
   46HFIP    F6  546   0.244   0.091   1.129 -0.0608 -0.2144 -0.5553
   46HFIP    C7  547   0.245  -0.170   0.866 -0.5293  1.0759  0.1669
   46HFIP    F8  548   0.211  -0.294   0.911 -0.6669  0.5331 -0.1841
   46HFIP    F9  549   0.376  -0.171   0.840 -0.6202  0.1359 -0.4336
   46HFIP   F10  550   0.193  -0.178   0.738 -0.6046  0.1492  0.3204
   46HFIP   H11  551   0.194   0.053   0.769  0.9062 -2.2142  0.2846
   46HFIP   H12  552   0.108  -0.080   1.007 -2.4480  1.1039 -1.4786
   47HFIP    O1  553   0.986   0.835   1.080  0.2541 -0.1621 -0.5967
   47HFIP    C2  554   1.064   0.811   0.973  0.0041 -0.0658 -0.1176
   47HFIP    C3  555   1.213   0.851   0.995  0.2264 -0.3030  0.3130
   47HFIP    F4  556   1.299   0.768   0.927  0.4695  0.0080  0.1396
   47HFIP    F5  557   1.248   0.836   1.127 -0.1126  0.0825  0.4586
   47HFIP    F6  558   1.247   0.982   0.970  0.1263 -0.2651  0.0202
   47HFIP    C7  559   1.013   0.876   0.837 -0.1421 -0.3372  0.2209
   47HFIP    F8  560   0.990   1.011   0.847  0.3308 -0.6603 -0.1631
   47HFIP    F9  561   0.896   0.831   0.801 -0.1092 -0.1670  0.5177
   47HFIP   F10  562   1.101   0.866   0.728  0.1482 -0.3167  0.4734
   47HFIP   H11  563   0.996   0.927   1.118 -2.7483 -0.7827  1.9291
   47HFIP   H12  564   1.070   0.703   0.954 -0.5394  0.1449 -1.5723
   48HFIP    O1  565   0.896   1.006   1.278 -0.1353 -0.4176 -0.1113
   48HFIP    C2  566   0.921   1.133   1.323 -0.1269  0.3144  0.2505
   48HFIP    C3  567   0.869   1.136   1.473  0.1935  0.2159  0.0321
   48HFIP    F4  568   0.934   1.043   1.541 -0.3118  0.6114  0.1328
   48HFIP    F5  569   0.734   1.103   1.468 -0.2958 -0.4454 -0.1216
   48HFIP    F6  570   0.889   1.252   1.536 -0.3039 -0.3743  0.5200
   48HFIP    C7  571   0.854   1.225   1.220 -0.0789 -0.7338 -0.0638
   48HFIP    F8  572   0.902   1.228   1.096 -0.2510 -0.2422 -0.4207
   48HFIP    F9  573   0.865   1.350   1.258 -0.3958  0.0947 -0.0068
   48HFIP   F10  574   0.721   1.205   1.204 -0.0980  0.4329  0.7018
   48HFIP   H11  575   0.804   0.979   1.304  0.1029 -0.2067  0.9783
   48HFIP   H12  576   1.027   1.160   1.316  0.3884 -1.3889  0.9974
   49HFIP    O1  577   0.487   3.468   1.614 -0.1146  0.9947 -0.2583
   49HFIP    C2  578   0.520   3.544   1.507 -0.2325 -0.7120 -0.2312
   49HFIP    C3  579   0.640   3.480   1.423 -0.6931 -0.5569  0.1483
   49HFIP    F4  580   0.654   3.533   1.298 -0.0956 -0.4648  0.6256
   49HFIP    F5  581   0.601   3.349   1.400  0.0125 -0.4165 -0.1975
   49HFIP    F6  582   0.761   3.474   1.484 -0.1795 -0.1150  0.4680
   49HFIP    C7  583   0.545   3.691   1.553  0.4474 -0.1434 -0.0421
   49HFIP    F8  584   0.424   3.744   1.596 -0.1021 -0.6550 -0.7475
   49HFIP    F9  585   0.590   3.767   1.448 -0.3077 -0.3494 -0.6216
   49HFIP   F10  586   0.628   3.699   1.658  0.0663  0.0144 -0.0402
   49HFIP   H11  587   0.562   3.451   1.677 -0.0964 -1.1102 -0.8136
   49HFIP   H12  588   0.431   3.548   1.445  0.8209  0.3694 -1.6897
   50HFIP    O1  589   0.244   3.353   1.447 -0.1291 -0.2971  0.4649
   50HFIP    C2  590   0.280   3.230   1.413  0.6325  0.0002  0.0771
   50HFIP    C3  591   0.166   3.167   1.322 -0.0854  0.5781 -0.4948
   50HFIP    F4  592   0.176   3.032   1.301 -0.1183  0.0883  0.5928
   50HFIP    F5  593   0.170   3.237   1.204 -0.3068 -0.1983 -0.0814
   50HFIP    F6  594   0.042   3.191   1.363  0.9191 -0.2140  0.3659
   50HFIP    C7  595   0.302   3.130   1.528 -0.8218  0.5526 -0.3885
   50HFIP    F8  596   0.386   3.169   1.629 -0.8099 -0.5498 -0.0606
   50HFIP    F9  597   0.376   3.024   1.486  0.2066 -0.7611 -0.0399
   50HFIP   F10  598   0.187   3.087   1.588  0.2804  0.3536  0.3613
   50HFIP   H11  599   0.185   3.352   1.529  1.9020  2.0753  2.0186
   50HFIP   H12  600   0.373   3.242   1.357 -0.1411 -0.8519 -1.4398
   51HFIP    O1  601   0.387   0.344   0.656  0.4183 -0.0288  0.2614
   51HFIP    C2  602   0.521   0.380   0.668 -0.7275 -0.5324  0.4348
   51HFIP    C3  603   0.580   0.321   0.799 -0.6485  0.2669  0.7138
   51HFIP    F4  604   0.709   0.362   0.811  0.5414  0.5474 -0.0633
   51HFIP    F5  605   0.583   0.184   0.803  0.0318  0.0778 -0.0773
   51HFIP    F6  606   0.498   0.363   0.900  0.1498 -0.1582 -0.4236
   51HFIP    C7  607   0.538   0.533   0.643  0.1940  0.6029 -0.0931
   51HFIP    F8  608   0.653   0.571   0.577 -0.4274 -0.1361 -0.1624
   51HFIP    F9  609   0.541   0.594   0.764 -0.5204 -0.0191 -0.6383
   51HFIP   F10  610   0.434   0.589   0.579  0.0432  0.0847  0.5404
   51HFIP   H11  611   0.334   0.402   0.718  0.2505 -0.0998  0.1862
   51HFIP   H12  612   0.572   0.328   0.587  0.9570  1.4333  0.1839
   52HFIP    O1  613   0.247   1.242   0.536 -0.0985 -0.5843 -0.2454
   52HFIP    C2  614   0.266   1.113   0.581  0.1277 -0.2153  0.0260
   52HFIP    C3  615   0.389   1.114   0.669  0.2557 -0.3330 -0.4093
   52HFIP    F4  616   0.422   0.990   0.713 -0.4470 -0.5360 -0.0909
   52HFIP    F5  617   0.350   1.190   0.776  0.6407  0.7788  0.4889
   52HFIP    F6  618   0.497   1.182   0.618  0.0799 -0.1605 -0.7387
   52HFIP    C7  619   0.269   1.008   0.465 -0.2219 -0.6623 -0.0836
   52HFIP    F8  620   0.270   0.884   0.517  0.2899 -0.8621 -0.6039
   52HFIP    F9  621   0.381   1.031   0.391  0.3652 -0.1907 -0.4544
   52HFIP   F10  622   0.165   1.024   0.379  0.9461 -0.3977 -0.2490
   52HFIP   H11  623   0.281   1.240   0.443 -1.1935  2.5727 -0.7687
   52HFIP   H12  624   0.175   1.102   0.640 -0.1085  2.9383  0.3222
   53HFIP    O1  625   0.664   0.717   2.174 -0.1865  0.3376  0.1146
   53HFIP    C2  626   0.667   0.698   2.312 -1.4105  0.1226 -0.3946
   53HFIP    C3  627   0.815   0.664   2.352 -0.4214 -0.7065  0.3468
   53HFIP    F4  628   0.829   0.625   2.480  0.1688 -0.1614 -0.4301
   53HFIP    F5  629   0.898   0.778   2.340 -0.3799  0.0557  0.4825
   53HFIP    F6  630   0.869   0.576   2.262  0.0968 -0.7725  0.7082
   53HFIP    C7  631   0.569   0.585   2.345  0.4117  0.5490  0.0430
   53HFIP    F8  632   0.557   0.544   2.479 -0.2089  0.1457  0.1486
   53HFIP    F9  633   0.603   0.478   2.270  0.4251 -0.0517 -0.3480
   53HFIP   F10  634   0.448   0.623   2.295 -0.2367 -0.3321  0.2546
   53HFIP   H11  635   0.683   0.629   2.131 -1.0318 -1.1017  2.5806
   53HFIP   H12  636   0.622   0.789   2.354  0.3621  0.1135  1.5933
   54HFIP    O1  637   0.231   3.463   1.712  0.6004  0.3818 -0.5402
   54HFIP    C2  638   0.194   3.457   1.844  0.2676 -0.3870  0.1624
   54HFIP    C3  639   0.316   3.491   1.934 -0.2405 -0.0945  0.1611
   54HFIP    F4  640   0.436   3.427   1.901 -0.0563 -0.4010 -0.4005
   54HFIP    F5  641   0.299   3.479   2.071  0.2416  0.5973 -0.2567
   54HFIP    F6  642   0.355   3.619   1.910 -0.3973  0.0997  0.4838
   54HFIP    C7  643   0.136   3.319   1.879 -0.5569  0.6750  0.4874
   54HFIP    F8  644   0.029   3.281   1.801 -0.3129  0.7397 -0.4316
   54HFIP    F9  645   0.082   3.311   2.001  0.0086  0.1685  0.2527
   54HFIP   F10  646   0.218   3.207   1.856 -0.3773  0.2498 -0.2542
   54HFIP   H11  647   0.330   3.454   1.706  0.7330  1.3547  0.0712
   54HFIP   H12  648   0.115   3.530   1.860 -1.4148 -1.8554 -1.1538
   55HFIP    O1  649   1.989   2.974   1.633  0.7474 -0.4715  0.2412
   55HFIP    C2  650   1.923   3.078   1.576  0.5072  0.0968  0.4554
   55HFIP    C3  651   2.027   3.171   1.514  0.3862 -0.1883 -0.0646
   55HFIP    F4  652   2.110   3.229   1.604  0.1459 -0.3761  0.2315
   55HFIP    F5  653   1.975   3.272   1.442 -0.0816  0.0614 -0.4050
   55HFIP    F6  654   2.109   3.100   1.430  0.5026 -0.5036  0.1825
   55HFIP    C7  655   1.829   3.144   1.669 -0.3603  0.9128 -0.2061
   55HFIP    F8  656   1.874   3.256   1.735  0.3677 -0.8829  0.5550
   55HFIP    F9  657   1.780   3.063   1.771 -0.0044 -0.3644  0.6457
   55HFIP   F10  658   1.715   3.172   1.603 -0.2572  0.7484 -0.0208
   55HFIP   H11  659   2.017   3.006   1.724  0.1956  0.1567  0.1959
   55HFIP   H12  660   1.864   3.044   1.491  0.0414  1.8567  0.0567
   56HFIP    O1  661   2.428   1.943   2.509  0.5623  0.0228  0.6285
   56HFIP    C2  662   2.466   1.853   2.612  0.3635 -0.4565 -0.5424
   56HFIP    C3  663   2.378   1.722   2.611  0.2332 -0.4087 -0.0376
   56HFIP    F4  664   2.394   1.676   2.484  0.4604  0.6278 -0.2290
   56HFIP    F5  665   2.248   1.749   2.615 -0.0206 -0.0563  0.0258
   56HFIP    F6  666   2.417   1.627   2.699  0.0179  0.4715 -0.2806
   56HFIP    C7  667   2.471   1.920   2.755 -0.8949 -0.0421  0.1457
   56HFIP    F8  668   2.493   1.829   2.858  0.3105  0.2061 -0.1858
   56HFIP    F9  669   2.360   1.986   2.784 -0.0755  0.4455 -0.0162
   56HFIP   F10  670   2.567   2.015   2.758  0.2917  0.1201  0.1486
   56HFIP   H11  671   2.330   1.963   2.509  0.8721  1.6583  0.6197
   56HFIP   H12  672   2.570   1.825   2.598  0.0580 -2.1426  0.4032
   57HFIP    O1  673   0.382   1.822   1.175 -0.3556 -0.2042  0.3371
   57HFIP    C2  674   0.281   1.914   1.175 -0.0974  0.1494  0.0122
   57HFIP    C3  675   0.181   1.896   1.294  0.3815  1.2007 -0.2192
   57HFIP    F4  676   0.110   1.781   1.286  0.1662 -0.0530 -0.0273
   57HFIP    F5  677   0.093   1.995   1.296 -0.8378 -0.1406  0.1943
   57HFIP    F6  678   0.252   1.879   1.409  1.0202 -0.8152  0.1226
   57HFIP    C7  679   0.205   1.923   1.038  1.2014  0.2763  0.2314
   57HFIP    F8  680   0.296   1.930   0.934 -0.0513  0.0262 -0.0702
   57HFIP    F9  681   0.123   2.030   1.023  0.3524 -0.1009 -0.0644
   57HFIP   F10  682   0.134   1.813   1.010  0.3099 -0.5186 -0.2402
   57HFIP   H11  683   0.347   1.739   1.131  0.4787  1.3406 -3.4323
   57HFIP   H12  684   0.324   2.012   1.194  1.2235 -0.6676  1.3215
   58HFIP    O1  685   3.009   0.938   0.012  0.5591 -0.5702 -0.3221
   58HFIP    C2  686   2.897   0.919   0.097 -0.0015  0.0686 -0.4873
   58HFIP    C3  687   2.824   1.053   0.122  0.0837 -0.0539  0.0933
   58HFIP    F4  688   2.900   1.135   0.203  0.0928  0.1695  0.3677
   58HFIP    F5  689   2.698   1.039   0.170  1.0979 -0.6823  0.3293
   58HFIP    F6  690   2.811   1.119   0.006  0.7501  0.9166  0.4314
   58HFIP    C7  691   2.959   0.869   0.233 -0.5496  0.4037 -0.9256
   58HFIP    F8  692   3.074   0.928   0.276  0.3317 -0.4509  0.2393
   58HFIP    F9  693   2.993   0.742   0.217 -0.4344  0.4102  0.0422
   58HFIP   F10  694   2.869   0.880   0.336  0.0354 -0.0891 -0.4590
   58HFIP   H11  695   3.073   0.996   0.063 -1.9929  1.4659  0.6734
   58HFIP   H12  696   2.835   0.839   0.058 -2.3713  1.3889  0.5041
   59HFIP    O1  697   3.195   0.053   3.076  0.2834 -0.4112 -0.4790
   59HFIP    C2  698   3.220   0.065   2.947  0.1911  0.4570  0.4967
   59HFIP    C3  699   3.274  -0.070   2.885  0.0201 -0.0773 -0.8057
   59HFIP    F4  700   3.234  -0.090   2.757  0.3694  0.2984 -0.1319
   59HFIP    F5  701   3.207  -0.169   2.954 -0.0703  0.0642  0.3845
   59HFIP    F6  702   3.409  -0.095   2.902 -0.0890  0.5053  0.2797
   59HFIP    C7  703   3.297   0.195   2.913  0.6014  0.1704 -0.2798
   59HFIP    F8  704   3.208   0.292   2.872  0.4417 -0.5309  0.1726
   59HFIP    F9  705   3.392   0.174   2.822 -0.0774  0.6347  0.4070
   59HFIP   F10  706   3.377   0.249   3.011 -0.3853  0.3758 -0.4609
   59HFIP   H11  707   3.280   0.070   3.126  0.8785  2.8585 -2.4618
   59HFIP   H12  708   3.122   0.086   2.905  0.0242  0.9551  1.1220
   60HFIP    O1  709   2.458   2.557   3.073  0.4269 -0.4235 -0.1562
   60HFIP    C2  710   2.423   2.418   3.101  0.2772  0.0027 -1.1420
   60HFIP    C3  711   2.299   2.398   3.193  0.1455 -0.5128 -0.5075
   60HFIP    F4  712   2.206   2.488   3.153  0.2577 -0.4723  0.5026
   60HFIP    F5  713   2.320   2.430   3.323  0.3923  0.0165  0.0636
   60HFIP    F6  714   2.249   2.276   3.180  0.1122  0.0402 -0.1835
   60HFIP    C7  715   2.540   2.338   3.160 -0.1426 -0.7455 -0.5126
   60HFIP    F8  716   2.609   2.291   3.055 -0.3167  0.5872  0.2473
   60HFIP    F9  717   2.513   2.221   3.227 -0.0386  0.3973  0.6492
   60HFIP   F10  718   2.627   2.414   3.233  0.1484 -0.2984 -0.2074
   60HFIP   H11  719   2.467   2.601   3.163 -0.6823 -0.3667 -0.0608
   60HFIP   H12  720   2.405   2.371   3.005  1.6963  1.1936 -2.0238
   61HFIP    O1  721   2.147   1.982   2.504 -0.2052  0.0894  0.2701
   61HFIP    C2  722   2.141   2.119   2.503  0.8733 -0.1727 -0.2744
   61HFIP    C3  723   2.012   2.147   2.583 -0.4644 -0.0417 -0.1163
   61HFIP    F4  724   1.970   2.278   2.587  0.0710 -0.6509 -0.1023
   61HFIP    F5  725   2.024   2.118   2.713 -0.3310  0.0736  0.2036
   61HFIP    F6  726   1.907   2.065   2.563  0.1514  1.0641  0.0720
   61HFIP    C7  727   2.121   2.181   2.367  0.1907  0.4315 -0.4626
   61HFIP    F8  728   2.116   2.316   2.364 -0.0279 -0.1501 -0.4680
   61HFIP    F9  729   2.000   2.151   2.310  0.1701  0.0112  0.6100
   61HFIP   F10  730   2.219   2.133   2.290  0.4135  0.8025  0.3748
   61HFIP   H11  731   2.056   1.941   2.498  0.7538 -2.6476  3.1257
   61HFIP   H12  732   2.222   2.176   2.549  0.3240 -1.1062  1.9334
   62HFIP    O1  733   0.602   1.859   1.286  0.0431 -0.1774 -0.8033
   62HFIP    C2  734   0.700   1.893   1.199 -0.4667 -0.3002 -0.0686
   62HFIP    C3  735   0.650   2.015   1.113  0.3494  0.2709 -0.9406
   62HFIP    F4  736   0.580   2.113   1.176  0.2502 -0.3070 -0.1975
   62HFIP    F5  737   0.561   1.971   1.018 -0.6947  0.8308 -0.2308
   62HFIP    F6  738   0.744   2.082   1.045  0.2359 -0.6691  0.6219
   62HFIP    C7  739   0.751   1.781   1.113  0.1945  0.2832  0.2958
   62HFIP    F8  740   0.834   1.687   1.167 -0.1074 -0.4509  0.3066
   62HFIP    F9  741   0.806   1.817   0.998  0.1519  0.5062 -0.2567
   62HFIP   F10  742   0.642   1.710   1.070  0.0118 -0.1623  0.1102
   62HFIP   H11  743   0.523   1.840   1.228  0.7229  0.5247 -1.9829
   62HFIP   H12  744   0.785   1.931   1.256  0.8211 -0.4211 -1.8733
   63HFIP    O1  745   0.560   1.824   1.552  0.4895  0.1280  0.5765
   63HFIP    C2  746   0.667   1.760   1.617  0.0346  0.8577 -0.6794
   63HFIP    C3  747   0.801   1.843   1.604  0.6183  0.0543  0.3239
   63HFIP    F4  748   0.893   1.821   1.705  0.3843 -0.6622  0.8048
   63HFIP    F5  749   0.769   1.974   1.615 -0.2255  0.2270  0.6727
   63HFIP    F6  750   0.869   1.837   1.486  0.2622 -0.2855 -0.2434
   63HFIP    C7  751   0.676   1.604   1.569 -0.0110 -0.0365 -0.2418
   63HFIP    F8  752   0.773   1.531   1.637  0.4366 -0.6033 -0.0786
   63HFIP    F9  753   0.706   1.581   1.436  0.4828  0.0452  0.1019
   63HFIP   F10  754   0.564   1.540   1.582  0.1219 -0.0697 -0.1111
   63HFIP   H11  755   0.579   1.832   1.454  0.9393 -1.2344  0.5417
   63HFIP   H12  756   0.646   1.768   1.723  0.2944  0.9688 -0.6356
   64HFIP    O1  757   3.415   0.087   3.228 -0.0322 -0.4274  0.2692
   64HFIP    C2  758   3.481  -0.008   3.296  0.2828  0.4961  0.5496
   64HFIP    C3  759   3.486   0.027   3.448 -0.0722 -0.3093  0.8246
   64HFIP    F4  760   3.498  -0.086   3.527  0.7840 -0.3765  0.1039
   64HFIP    F5  761   3.370   0.092   3.482 -0.3697 -0.2827  0.3374
   64HFIP    F6  762   3.591   0.101   3.486 -0.1427  0.4722 -0.3445
   64HFIP    C7  763   3.618  -0.036   3.239  0.3843 -0.3427 -0.1589
   64HFIP    F8  764   3.690   0.081   3.221  0.0007  0.1296  0.6495
   64HFIP    F9  765   3.601  -0.111   3.127  0.1329 -0.0981 -0.0088
   64HFIP   F10  766   3.698  -0.114   3.318  0.2675  0.1265 -0.2537
   64HFIP   H11  767   3.421   0.177   3.271 -2.5697 -1.2904  2.5488
   64HFIP   H12  768   3.425  -0.101   3.289 -0.0980  0.5595  2.3433
   65HFIP    O1  769   2.503   2.710   3.273 -0.1617 -0.5431  0.7074
   65HFIP    C2  770   2.639   2.724   3.294  0.7881 -0.0517 -0.4392
   65HFIP    C3  771   2.684   2.698   3.442 -0.1844  0.4188 -0.1965
   65HFIP    F4  772   2.814   2.657   3.450  0.4632 -0.0391 -0.3861
   65HFIP    F5  773   2.619   2.592   3.499 -0.2130  0.3828  0.0966
   65HFIP    F6  774   2.669   2.796   3.531 -0.0166  0.0871 -0.8101
   65HFIP    C7  775   2.673   2.863   3.232  0.2398  0.3698 -0.8180
   65HFIP    F8  776   2.805   2.890   3.256  0.3491 -0.3883 -0.2375
   65HFIP    F9  777   2.585   2.954   3.285  0.0306  0.6032 -0.0580
   65HFIP   F10  778   2.652   2.868   3.103  0.2999  0.3180 -0.3587
   65HFIP   H11  779   2.467   2.785   3.328  0.5772  0.1881  0.2058
   65HFIP   H12  780   2.695   2.654   3.232  2.3802  0.2905  0.5724
   66HFIP    O1  781   2.658   3.470   0.051 -0.3890 -0.2527  0.4694
   66HFIP    C2  782   2.619   3.354   0.119 -0.2324  0.3459  0.2613
   66HFIP    C3  783   2.463   3.371   0.155  0.0452  0.6089  0.5937
   66HFIP    F4  784   2.411   3.281   0.239 -0.7836  0.0197 -0.5824
   66HFIP    F5  785   2.377   3.362   0.047  0.4757  0.4932  0.5396
   66HFIP    F6  786   2.444   3.491   0.217 -0.3769  0.3843  0.0507
   66HFIP    C7  787   2.706   3.338   0.246 -0.0389  0.0963 -0.0816
   66HFIP    F8  788   2.677   3.234   0.329  0.1793  0.2706  0.8842
   66HFIP    F9  789   2.700   3.450   0.325 -0.0662 -0.5743 -0.0322
   66HFIP   F10  790   2.835   3.318   0.208 -0.3926 -0.0445  0.0905
   66HFIP   H11  791   2.662   3.547   0.114  0.5755  2.3215 -2.6194
   66HFIP   H12  792   2.642   3.267   0.057 -0.0101  0.1422  0.6279
   67HFIP    O1  793   2.400   2.462   1.233 -0.2628 -0.2753  0.1662
   67HFIP    C2  794   2.271   2.419   1.221 -0.7737  0.1936 -0.6397
   67HFIP    C3  795   2.259   2.277   1.162 -0.6723 -0.6107  0.0106
   67HFIP    F4  796   2.186   2.201   1.240 -0.6998 -0.4015 -0.4554
   67HFIP    F5  797   2.374   2.215   1.124  0.3385 -0.0008  0.2243
   67HFIP    F6  798   2.191   2.275   1.045 -0.7680 -0.5662 -0.2464
   67HFIP    C7  799   2.187   2.529   1.141 -0.7022  0.0836 -0.4827
   67HFIP    F8  800   2.240   2.543   1.019 -0.1383 -0.3048 -0.3108
   67HFIP    F9  801   2.213   2.647   1.210 -0.3490 -0.3813 -0.1836
   67HFIP   F10  802   2.054   2.510   1.162  0.4993  0.1470 -0.0797
   67HFIP   H11  803   2.455   2.453   1.150  2.3474  1.6462  1.6240
   67HFIP   H12  804   2.231   2.414   1.322 -0.1430 -3.1666 -0.4983
   68HFIP    O1  805   2.568   2.852   2.223  0.3804  0.4109  0.0815
   68HFIP    C2  806   2.426   2.857   2.240 -0.9690  0.0117 -0.4024
   68HFIP    C3  807   2.370   2.949   2.134  0.2551  0.9067  0.1420
   68HFIP    F4  808   2.243   2.996   2.154  0.0385 -0.4511  0.2230
   68HFIP    F5  809   2.366   2.881   2.014  0.1358 -0.3291 -0.1175
   68HFIP    F6  810   2.441   3.059   2.120  0.4367  0.6051 -0.1731
   68HFIP    C7  811   2.402   2.904   2.387 -0.2014 -0.3625  0.2098
   68HFIP    F8  812   2.285   2.854   2.431 -0.2611  0.4662  0.4826
   68HFIP    F9  813   2.397   3.041   2.396 -0.3040 -0.3872  0.2289
   68HFIP   F10  814   2.505   2.867   2.471 -0.4763  0.2369  0.2884
   68HFIP   H11  815   2.592   2.929   2.282 -1.3972  2.8006 -2.1685
   68HFIP   H12  816   2.377   2.760   2.229 -1.9574  0.6718 -1.9347
   69HFIP    O1  817   3.054   2.746   2.235 -0.6081 -0.4291 -0.3484
   69HFIP    C2  818   3.101   2.875   2.198  0.1280 -0.4411  0.4342
   69HFIP    C3  819   3.106   2.979   2.318 -0.5016  0.3138 -0.3190
   69HFIP    F4  820   3.224   2.971   2.389 -0.2658  0.3296 -0.0232
   69HFIP    F5  821   3.007   2.953   2.408  0.4126 -0.1298  0.6501
   69HFIP    F6  822   3.085   3.111   2.302  0.0646  0.1408  0.0824
   69HFIP    C7  823   3.013   2.923   2.075 -0.7854 -0.0617 -0.4660
   69HFIP    F8  824   3.077   3.020   1.999  0.1172  0.2326  0.0126
   69HFIP    F9  825   2.896   2.977   2.115 -0.0310  0.0473  0.9690
   69HFIP   F10  826   2.988   2.823   1.982  0.4352 -0.1470 -0.1065
   69HFIP   H11  827   2.955   2.744   2.223 -0.4213 -4.1083 -2.0868
   69HFIP   H12  828   3.203   2.867   2.160 -0.8400 -0.7057 -2.2258
   70HFIP    O1  829   2.362   2.857   3.427 -0.1394 -0.6184 -0.2275
   70HFIP    C2  830   2.251   2.913   3.378 -0.1847  0.0618  0.3203
   70HFIP    C3  831   2.177   2.991   3.500  0.0255  0.1563 -0.4952
   70HFIP    F4  832   2.092   2.914   3.574  0.6089 -0.4680  0.2624
   70HFIP    F5  833   2.094   3.092   3.454  0.0059 -0.3213 -0.2918
   70HFIP    F6  834   2.261   3.052   3.585 -0.1385  0.1282 -0.0538
   70HFIP    C7  835   2.163   2.814   3.295  0.6434  0.6336  0.0230
   70HFIP    F8  836   2.107   2.716   3.375 -0.1594 -0.4390 -0.7473
   70HFIP    F9  837   2.232   2.756   3.197 -0.6711  0.1016 -0.4762
   70HFIP   F10  838   2.053   2.880   3.239  0.3181  0.1026  0.2107
   70HFIP   H11  839   2.332   2.824   3.517 -2.1444 -0.9366 -0.9702
   70HFIP   H12  840   2.286   2.992   3.311  2.2730 -0.6557  0.7052
   71HFIP    O1  841   2.846   0.000   3.305  0.6750 -0.2912 -0.6142
   71HFIP    C2  842   2.920  -0.093   3.248 -0.0047 -0.1271 -1.6926
   71HFIP    C3  843   2.824  -0.201   3.202  0.1233  0.5476 -0.7088
   71HFIP    F4  844   2.725  -0.225   3.291  0.2317  0.2098  0.4969
   71HFIP    F5  845   2.884  -0.320   3.186  0.0427 -0.2913  0.4037
   71HFIP    F6  846   2.762  -0.167   3.086 -0.0814  0.2102  0.6153
   71HFIP    C7  847   3.042  -0.130   3.328  0.5115  0.6664  0.5853
   71HFIP    F8  848   3.144  -0.199   3.271 -0.3252  0.7334 -0.1441
   71HFIP    F9  849   3.011  -0.188   3.446  0.0139 -0.5115  0.1502
   71HFIP   F10  850   3.106  -0.019   3.373  0.0325  0.0029  0.1685
   71HFIP   H11  851   2.773  -0.047   3.353  0.0845 -0.0035 -1.2182
   71HFIP   H12  852   2.965  -0.052   3.157  1.1100  2.8745  0.1437
   72HFIP    O1  853   2.903   0.232   3.411  0.1708 -0.8556  0.0704
   72HFIP    C2  854   2.867   0.344   3.336  0.2518  0.4206 -0.2924
   72HFIP    C3  855   2.743   0.320   3.242  0.4074  0.5346  0.1073
   72HFIP    F4  856   2.648   0.257   3.315  0.0290  0.0862  0.0933
   72HFIP    F5  857   2.773   0.228   3.145 -0.0866 -0.2109 -0.6613
   72HFIP    F6  858   2.698   0.426   3.178 -0.1737  0.4486  0.7570
   72HFIP    C7  859   2.996   0.390   3.257 -0.1152 -0.3446 -0.2137
   72HFIP    F8  860   3.072   0.452   3.353  0.0531 -0.0021  0.3662
   72HFIP    F9  861   2.978   0.488   3.163  0.2338 -0.1909  0.4640
   72HFIP   F10  862   3.074   0.292   3.203  0.4891 -0.4809 -0.2644
   72HFIP   H11  863   2.908   0.158   3.344 -0.4024  0.2543 -1.2227
   72HFIP   H12  864   2.844   0.418   3.413  0.0370  0.9804 -0.8896
   73HFIP    O1  865   0.366   2.052   3.197 -0.4111  0.3231 -0.2054
   73HFIP    C2  866   0.442   2.102   3.308  0.5290  0.1124  0.4456
   73HFIP    C3  867   0.579   2.029   3.313  0.5268  0.6268 -0.3062
   73HFIP    F4  868   0.581   1.907   3.376  0.0193  0.1890  0.8000
   73HFIP    F5  869   0.672   2.107   3.371 -0.2003  0.1079  0.1136
   73HFIP    F6  870   0.631   2.014   3.188  0.1694  0.1638  0.0828
   73HFIP    C7  871   0.362   2.063   3.439  0.8775  0.3141  0.7410
   73HFIP    F8  872   0.246   2.137   3.452  0.0511  0.1995  0.3818
   73HFIP    F9  873   0.431   2.081   3.557 -0.0385 -0.2327  0.3160
   73HFIP   F10  874   0.324   1.933   3.435  0.1092 -0.1400  0.2397
   73HFIP   H11  875   0.356   1.953   3.206  1.4783  0.1231 -0.1988
   73HFIP   H12  876   0.458   2.209   3.315  1.6641 -0.0882  0.9889
   74HFIP    O1  877   0.677   3.445   1.773 -0.2949  0.2955  0.2073
   74HFIP    C2  878   0.741   3.353   1.845  0.1393  1.0008  0.0394
   74HFIP    C3  879   0.840   3.426   1.940 -0.7284  0.3211  0.7393
   74HFIP    F4  880   0.885   3.540   1.877 -0.2662  0.8985 -0.6143
   74HFIP    F5  881   0.945   3.346   1.974  0.7593  0.0394  0.1187
   74HFIP    F6  882   0.785   3.471   2.054 -0.1734 -0.0615  0.6930
   74HFIP    C7  883   0.810   3.254   1.755  0.2531 -0.1552  0.4144
   74HFIP    F8  884   0.723   3.201   1.666 -1.2093  0.2022 -0.5410
   74HFIP    F9  885   0.862   3.152   1.826  0.1283  0.1305  0.0280
   74HFIP   F10  886   0.898   3.313   1.670  0.0547 -0.3784 -0.6166
   74HFIP   H11  887   0.741   3.520   1.785 -0.0020  0.0251  0.3634
   74HFIP   H12  888   0.668   3.299   1.906 -0.0366  1.0606 -0.1164
   75HFIP    O1  889   0.011   0.719   1.406 -0.0499  0.5559  1.0681
   75HFIP    C2  890   0.009   0.591   1.468 -0.2824 -0.3219 -0.4050
   75HFIP    C3  891  -0.035   0.614   1.618  0.2635 -0.2228  0.0746
   75HFIP    F4  892  -0.071   0.500   1.675  0.2225  0.6443 -0.3584
   75HFIP    F5  893  -0.145   0.697   1.631 -0.6514  0.2951  0.4359
   75HFIP    F6  894   0.066   0.659   1.699  0.5574 -0.1718 -0.3045
   75HFIP    C7  895   0.141   0.512   1.455 -0.1047  0.2671  0.1378
   75HFIP    F8  896   0.168   0.476   1.326 -0.2076 -0.3780 -0.5292
   75HFIP    F9  897   0.150   0.398   1.524  0.2291 -0.5180  0.1469
   75HFIP   F10  898   0.249   0.581   1.502 -0.0630 -0.2785 -0.3940
   75HFIP   H11  899   0.076   0.771   1.461  2.0859  0.4192 -1.2014
   75HFIP   H12  900  -0.069   0.527   1.426 -1.4636 -0.3446  1.7765
   76HFIP    O1  901   0.890   1.337   0.090 -0.0925  0.0654 -0.6544
   76HFIP    C2  902   0.974   1.438   0.123 -0.4933 -0.0890 -0.0268
   76HFIP    C3  903   0.918   1.571   0.053 -0.3335 -0.1893 -0.0122
   76HFIP    F4  904   0.876   1.543  -0.074 -0.0698 -0.5492 -0.8084
   76HFIP    F5  905   1.002   1.682   0.056 -0.1237  0.7699  0.0966
   76HFIP    F6  906   0.806   1.611   0.126 -0.4322  0.0379 -0.0997
   76HFIP    C7  907   1.124   1.411   0.079 -0.0354 -0.1634 -0.2059
   76HFIP    F8  908   1.149   1.281   0.108 -0.3049  0.8816 -0.5631
   76HFIP    F9  909   1.215   1.479   0.153  0.1711 -0.9058 -0.0277
   76HFIP   F10  910   1.153   1.420  -0.055 -0.0333  0.1348 -0.1378
   76HFIP   H11  911   0.824   1.377   0.027  0.2715  2.4504  0.4420
   76HFIP   H12  912   0.975   1.459   0.230  1.5368  1.4642 -0.3142
   77HFIP    O1  913   3.356   3.499   0.262  0.1185 -0.2763 -0.4022
   77HFIP    C2  914   3.317   3.440   0.382 -0.0615  0.2133  0.1221
   77HFIP    C3  915   3.415   3.319   0.390  0.6138  0.1965  0.4992
   77HFIP    F4  916   3.379   3.220   0.307  0.0524 -0.0446  0.2474
   77HFIP    F5  917   3.437   3.274   0.517 -0.5173 -0.5778  0.1868
   77HFIP    F6  918   3.540   3.341   0.350  0.0420 -0.2189  0.4429
   77HFIP    C7  919   3.171   3.394   0.387 -0.4338  0.1457 -0.3255
   77HFIP    F8  920   3.087   3.497   0.410 -0.0219  0.0357 -0.0518
   77HFIP    F9  921   3.143   3.312   0.493  0.1130 -0.1336  0.3260
   77HFIP   F10  922   3.130   3.325   0.283 -0.2711  0.3533 -0.4326
   77HFIP   H11  923   3.347   3.424   0.197 -2.0053 -0.1299 -0.3059
   77HFIP   H12  924   3.337   3.513   0.461  0.3237 -0.1954  0.3987
   78HFIP    O1  925   2.927   0.274   0.927  0.2920  0.0145  0.4743
   78HFIP    C2  926   2.919   0.385   0.842  0.2635  0.3778  0.4351
   78HFIP    C3  927   3.018   0.504   0.869 -0.3272  0.1767  0.2821
   78HFIP    F4  928   3.050   0.589   0.766 -0.2737 -0.0138 -0.3078
   78HFIP    F5  929   3.137   0.460   0.908 -0.0731 -0.1698 -0.0626
   78HFIP    F6  930   2.977   0.581   0.974  0.5601 -0.2447 -0.4625
   78HFIP    C7  931   2.778   0.439   0.829  0.0192  0.2846  0.2449
   78HFIP    F8  932   2.694   0.368   0.745 -0.4371 -0.3618 -0.0145
   78HFIP    F9  933   2.769   0.567   0.786 -0.4098 -0.1345  0.0458
   78HFIP   F10  934   2.707   0.432   0.944  0.0218  0.4264 -0.6164
   78HFIP   H11  935   2.954   0.311   1.015  1.1235  0.9694 -0.1665
   78HFIP   H12  936   2.940   0.345   0.743  0.2368 -1.6234  1.2180
   79HFIP    O1  937   3.272   3.277   1.419  0.4861 -0.3684 -0.0583
   79HFIP    C2  938   3.175   3.264   1.320  0.1760 -0.4935  0.3264
   79HFIP    C3  939   3.043   3.212   1.381 -0.5419  0.3416 -0.3511
   79HFIP    F4  940   3.008   3.272   1.492  0.1769 -0.4237  0.2788
   79HFIP    F5  941   3.053   3.077   1.406  0.3710  0.0487  0.0708
   79HFIP    F6  942   2.940   3.225   1.295 -0.1376 -0.0038  0.3018
   79HFIP    C7  943   3.220   3.186   1.191 -0.0937  1.5754  0.5676
   79HFIP    F8  944   3.262   3.059   1.221 -0.0623  0.4008  0.1263
   79HFIP    F9  945   3.325   3.243   1.130  0.3597 -0.3673  0.3848
   79HFIP   F10  946   3.117   3.172   1.106  0.1821  0.2227 -0.0137
   79HFIP   H11  947   3.310   3.189   1.447  2.0057  0.3860  0.2825
   79HFIP   H12  948   3.156   3.366   1.285 -0.3598 -0.9931 -0.8602
   80HFIP    O1  949   1.120   1.004   0.051 -0.2835 -0.3480 -0.5043
   80HFIP    C2  950   1.177   0.876   0.042 -0.5401  0.1510  0.5650
   80HFIP    C3  951   1.223   0.831   0.183 -0.2578  0.5396  0.6186
   80HFIP    F4  952   1.277   0.937   0.247 -0.0678 -0.0810  0.3173
   80HFIP    F5  953   1.303   0.720   0.199  0.0854 -0.7592  0.1518
   80HFIP    F6  954   1.103   0.809   0.242 -0.3589  0.1825 -0.2365
   80HFIP    C7  955   1.301   0.885  -0.053  0.4483 -0.4984  0.2824
   80HFIP    F8  956   1.269   0.968  -0.162  0.0483  0.0995 -0.8095
   80HFIP    F9  957   1.328   0.759  -0.102 -0.1327 -0.2011 -0.2528
   80HFIP   F10  958   1.412   0.953  -0.003  0.2334 -0.1036 -0.4303
   80HFIP   H11  959   1.082   1.030   0.140 -1.7674 -0.3355 -1.1218
   80HFIP   H12  960   1.105   0.807  -0.001  1.5251 -1.5720 -0.2416
   81HFIP    O1  961   3.372   3.093   1.558 -0.9710 -0.4059  0.7367
   81HFIP    C2  962   3.332   2.971   1.615  0.2045  0.2164  0.0217
   81HFIP    C3  963   3.384   2.963   1.767  0.6842 -0.4559  0.4573
   81HFIP    F4  964   3.520   2.987   1.779 -0.2624 -0.9048 -0.3567
   81HFIP    F5  965   3.346   2.853   1.841  0.2593  0.3562  0.3684
   81HFIP    F6  966   3.329   3.071   1.834 -0.0517 -0.2216 -0.2413
   81HFIP    C7  967   3.388   2.851   1.539 -0.0097 -0.3092 -0.3723
   81HFIP    F8  968   3.515   2.868   1.489  0.3792 -0.3097 -0.5420
   81HFIP    F9  969   3.311   2.825   1.431 -0.2944  0.2055  0.0271
   81HFIP   F10  970   3.390   2.732   1.604 -0.2826  0.2610  0.0348
   81HFIP   H11  971   3.454   3.131   1.599 -0.4655  1.2655 -1.6937
   81HFIP   H12  972   3.224   2.965   1.620  0.1480 -0.1164 -1.4772
   82HFIP    O1  973   0.395   1.478   0.863  0.1531 -0.4683 -0.4891
   82HFIP    C2  974   0.480   1.567   0.804 -0.2259  0.1056 -0.0102
   82HFIP    C3  975   0.420   1.622   0.663 -0.7581  0.2472  0.5644
   82HFIP    F4  976   0.290   1.672   0.687 -0.0939  0.3892  0.2537
   82HFIP    F5  977   0.407   1.520   0.572  0.1952 -0.1193 -0.3950
   82HFIP    F6  978   0.490   1.723   0.606  0.3509 -0.3857 -0.1395
   82HFIP    C7  979   0.622   1.505   0.769 -0.2492  0.5013 -0.0104
   82HFIP    F8  980   0.707   1.609   0.748 -0.4177  0.5416  0.2994
   82HFIP    F9  981   0.635   1.425   0.658 -0.2760 -0.5314  0.1936
   82HFIP   F10  982   0.669   1.453   0.882  0.2415  0.2503  0.3662
   82HFIP   H11  983   0.361   1.410   0.798 -2.1390  0.6987 -0.5838
   82HFIP   H12  984   0.491   1.655   0.868  1.4647 -1.2620  1.6431
   83HFIP    O1  985   0.338   1.592   1.071  0.0284 -0.3905 -0.5824
   83HFIP    C2  986   0.305   1.501   1.167  0.1278  0.5872  0.0890
   83HFIP    C3  987   0.411   1.410   1.228  0.2745  0.0362  0.2404
   83HFIP    F4  988   0.374   1.357   1.348 -0.4698  0.2124  0.0960
   83HFIP    F5  989   0.530   1.480   1.248  0.5943 -0.4407  0.1930
   83HFIP    F6  990   0.456   1.309   1.142 -0.1150 -0.0526 -0.3191
   83HFIP    C7  991   0.176   1.421   1.134  0.3663 -0.0542  0.3262
   83HFIP    F8  992   0.078   1.508   1.085 -0.3737  0.5095  0.0517
   83HFIP    F9  993   0.121   1.361   1.244 -0.1160  0.2826 -0.0152
   83HFIP   F10  994   0.193   1.326   1.042  0.0312 -0.0870  0.5816
   83HFIP   H11  995   0.366   1.540   0.991  1.0599  2.4283 -2.1176
   83HFIP   H12  996   0.280   1.555   1.258  1.0610 -1.3705  1.5205
   84HFIP    O1  997   1.981   2.628   1.548 -0.1306 -0.5012 -0.1626
   84HFIP    C2  998   1.883   2.562   1.473 -0.2228 -0.8622 -0.3795
   84HFIP    C3  999   1.749   2.633   1.515  1.0479  0.1261  0.2851
   84HFIP    F4 1000   1.736   2.653   1.651  0.2110 -0.0143 -0.0457
   84HFIP    F5 1001   1.636   2.575   1.471 -0.2600  0.1586 -0.1147
   84HFIP    F6 1002   1.755   2.761   1.468  0.0134 -0.2989 -0.0859
   84HFIP    C7 1003   1.875   2.404   1.503  0.0053 -0.0565  0.3162
   84HFIP    F8 1004   1.842   2.377   1.633  0.0106 -0.7890 -0.7945
   84HFIP    F9 1005   1.990   2.338   1.481  0.1856  0.2712 -0.0410
   84HFIP   F10 1006   1.783   2.342   1.428 -0.3046 -0.1186  0.2187
   84HFIP   H11 1007   1.945   2.638   1.641 -0.9399  0.5810 -0.5766
   84HFIP   H12 1008   1.906   2.585   1.369  0.5743  0.0844  0.0014
   85HFIP    O1 1009   1.978   1.786   2.471 -0.1907  0.3131  0.4702
   85HFIP    C2 1010   1.909   1.747   2.358 -0.1456  0.7008  0.0281
   85HFIP    C3 1011   1.822   1.625   2.388 -0.3542  0.2709 -0.5662
   85HFIP    F4 1012   1.694   1.643   2.358 -0.0819 -0.4913  0.0048
   85HFIP    F5 1013   1.816   1.593   2.524 -0.0124 -0.6002 -0.2457
   85HFIP    F6 1014   1.860   1.508   2.329  0.0677  0.2200  0.2513
   85HFIP    C7 1015   2.004   1.747   2.238 -0.7469  0.4474 -0.2662
   85HFIP    F8 1016   2.028   1.869   2.199  0.2392  0.0828  0.4917
   85HFIP    F9 1017   1.951   1.687   2.128  0.1068 -0.2592  0.4199
   85HFIP   F10 1018   2.116   1.677   2.253 -0.1184  0.5461  0.2829
   85HFIP   H11 1019   2.006   1.696   2.502  2.1501 -0.2490 -3.0381
   85HFIP   H12 1020   1.838   1.825   2.335  0.6532  1.4634  0.1109
   86HFIP    O1 1021   3.119   1.293   3.367 -0.4247  0.4799  0.6001
   86HFIP    C2 1022   3.096   1.415   3.302 -0.6743  0.1598 -0.7446
   86HFIP    C3 1023   2.952   1.429   3.252 -0.2473  0.0799  0.8430
   86HFIP    F4 1024   2.867   1.381   3.344  0.3025  0.3530  0.1761
   86HFIP    F5 1025   2.933   1.351   3.139  0.0598  0.5499  0.0114
   86HFIP    F6 1026   2.904   1.552   3.221  0.5247  0.4805  0.2759
   86HFIP    C7 1027   3.201   1.445   3.187  0.1230 -0.2468 -0.5948
   86HFIP    F8 1028   3.159   1.543   3.101 -0.6389 -0.3222 -0.0844
   86HFIP    F9 1029   3.223   1.337   3.113 -0.0012  0.1924  0.7445
   86HFIP   F10 1030   3.322   1.475   3.235 -0.2554  0.0037 -0.2192
   86HFIP   H11 1031   3.055   1.231   3.322 -0.8726  0.7911  0.7969
   86HFIP   H12 1032   3.106   1.495   3.375 -2.4717  1.2434 -1.6565
   87HFIP    O1 1033   2.964   0.386   1.168  0.5223 -0.3106  0.0124
   87HFIP    C2 1034   3.010   0.297   1.256 -0.1102 -0.7827 -0.6320
   87HFIP    C3 1035   2.897   0.208   1.322  0.0469 -0.0264 -0.5226
   87HFIP    F4 1036   2.817   0.170   1.220 -0.0777 -0.1332  0.3053
   87HFIP    F5 1037   2.812   0.265   1.412 -0.1332 -0.6100  0.0818
   87HFIP    F6 1038   2.954   0.095   1.377 -0.1099  0.2256  0.1047
   87HFIP    C7 1039   3.099   0.370   1.358 -0.1337  0.3891 -0.4900
   87HFIP    F8 1040   3.055   0.493   1.393  0.3918 -0.2290 -0.0911
   87HFIP    F9 1041   3.230   0.388   1.311  0.5800  0.4333 -0.2583
   87HFIP   F10 1042   3.111   0.297   1.472 -0.0137  0.4518  0.2634
   87HFIP   H11 1043   2.900   0.438   1.225  1.1531 -1.4411  1.8090
   87HFIP   H12 1044   3.075   0.229   1.201 -0.7378 -1.4879 -0.5115
   88HFIP    O1 1045   3.331   2.541   1.910  0.0526  0.3999 -0.2858
   88HFIP    C2 1046   3.274   2.452   1.825 -0.3049  0.7356  0.1516
   88HFIP    C3 1047   3.151   2.501   1.743  0.0013  0.0142  0.5677
   88HFIP    F4 1048   3.153   2.466   1.611 -0.3510 -0.4350 -0.3027
   88HFIP    F5 1049   3.156   2.637   1.744  0.1654  0.2000 -0.7293
   88HFIP    F6 1050   3.030   2.474   1.806  0.4628  0.1063  0.9804
   88HFIP    C7 1051   3.245   2.325   1.912 -0.4395 -0.3872 -1.0632
   88HFIP    F8 1052   3.365   2.287   1.968 -0.2805 -0.9991 -0.2875
   88HFIP    F9 1053   3.196   2.216   1.851 -0.0885 -0.3240 -0.2358
   88HFIP   F10 1054   3.156   2.354   2.014  1.1931  0.2201 -0.3987
   88HFIP   H11 1055   3.289   2.528   2.000  2.1650 -0.4512  0.6035
   88HFIP   H12 1056   3.356   2.430   1.756 -0.6428 -0.7061  0.1841
   89HFIP    O1 1057   1.027   2.089   1.488  0.3213 -0.0185  0.3800
   89HFIP    C2 1058   1.154   2.082   1.422 -0.2093  0.3764 -0.4516
   89HFIP    C3 1059   1.271   2.176   1.474 -0.1044 -0.0107  0.0922
   89HFIP    F4 1060   1.392   2.147   1.416 -0.2116 -0.3346  0.3619
   89HFIP    F5 1061   1.284   2.159   1.609 -0.5176  0.1300 -0.0455
   89HFIP    F6 1062   1.237   2.303   1.440 -0.1571 -0.5183  0.3954
   89HFIP    C7 1063   1.135   2.093   1.267 -0.3315  0.2592 -0.0535
   89HFIP    F8 1064   1.046   2.193   1.234 -0.5069 -0.1566 -0.4928
   89HFIP    F9 1065   1.079   1.978   1.227  0.3183  0.6395 -0.3366
   89HFIP   F10 1066   1.247   2.099   1.192  0.4577 -0.0498  0.1012
   89HFIP   H11 1067   0.995   2.184   1.486 -0.4188 -0.2778 -0.6273
   89HFIP   H12 1068   1.182   1.978   1.440 -0.0921  0.4700 -0.0717
   90HFIP    O1 1069   2.454   2.636   2.831  0.6719 -0.4398  0.5178
   90HFIP    C2 1070   2.366   2.729   2.789  0.3808  0.2711 -0.3692
   90HFIP    C3 1071   2.397   2.873   2.851  0.0486  0.2724  0.3859
   90HFIP    F4 1072   2.299   2.959   2.801 -0.2846 -0.7511 -0.3026
   90HFIP    F5 1073   2.512   2.924   2.796 -0.3566  0.0015 -0.3078
   90HFIP    F6 1074   2.396   2.877   2.987  0.1552  0.5818  0.3256
   90HFIP    C7 1075   2.223   2.684   2.816  0.1554 -0.1629 -0.7893
   90HFIP    F8 1076   2.223   2.546   2.815 -0.3270  0.2386 -0.3466
   90HFIP    F9 1077   2.154   2.724   2.700  0.1579 -0.5831  0.0048
   90HFIP   F10 1078   2.158   2.729   2.926  0.1585 -0.1836 -0.0888
   90HFIP   H11 1079   2.437   2.606   2.925 -1.1994 -0.1421  0.2732
   90HFIP   H12 1080   2.380   2.734   2.681  2.3951  1.1039 -0.0812
   91HFIP    O1 1081   2.988   1.065   3.297  0.2598  0.1429 -0.0078
   91HFIP    C2 1082   2.955   1.000   3.176 -0.2027  0.4047 -0.3054
   91HFIP    C3 1083   2.812   0.938   3.171 -0.4274 -0.5212  0.3086
   91HFIP    F4 1084   2.774   0.886   3.292  0.0636 -0.4022  0.1190
   91HFIP    F5 1085   2.779   0.858   3.068 -0.4037 -0.4002 -0.4557
   91HFIP    F6 1086   2.713   1.031   3.151 -0.2000  0.4325  1.1026
   91HFIP    C7 1087   3.070   0.900   3.165  0.3848 -0.4526 -0.2047
   91HFIP    F8 1088   3.066   0.818   3.275  0.5021 -0.3790 -0.4202
   91HFIP    F9 1089   3.192   0.966   3.168 -0.4938  0.4383  0.1175
   91HFIP   F10 1090   3.063   0.824   3.058  0.7144  0.5729 -0.0322
   91HFIP   H11 1091   2.978   1.001   3.374  3.4989  1.1805  1.3521
   91HFIP   H12 1092   2.960   1.072   3.094 -0.9472  0.2247 -0.5159
   92HFIP    O1 1093   0.668   2.196   2.171  0.2147 -0.2142 -0.1196
   92HFIP    C2 1094   0.713   2.089   2.241 -0.4183  0.0955 -0.1731
   92HFIP    C3 1095   0.800   2.143   2.353  0.0532  0.2510  0.2845
   92HFIP    F4 1096   0.899   2.232   2.323 -0.1520  0.3951 -0.1747
   92HFIP    F5 1097   0.836   2.044   2.435 -0.0640  0.2101 -0.2721
   92HFIP    F6 1098   0.725   2.218   2.436  0.2698 -0.6137 -0.0479
   92HFIP    C7 1099   0.775   1.980   2.144  0.0172 -0.1649 -0.0833
   92HFIP    F8 1100   0.905   2.000   2.116 -0.1963  0.0658  0.2899
   92HFIP    F9 1101   0.696   1.988   2.032 -0.6836  0.3519  0.0906
   92HFIP   F10 1102   0.757   1.854   2.193 -0.1740 -0.0538 -0.1694
   92HFIP   H11 1103   0.735   2.209   2.097  1.3430  0.1402  0.9509
   92HFIP   H12 1104   0.632   2.038   2.292  0.2520 -1.4996 -0.6871
   93HFIP    O1 1105   3.248   2.585   2.154  0.1872 -0.0291  0.4912
   93HFIP    C2 1106   3.342   2.537   2.240 -0.0365 -0.0796  0.3148
   93HFIP    C3 1107   3.288   2.520   2.377 -0.4800 -0.4304  0.3887
   93HFIP    F4 1108   3.236   2.631   2.434  0.2936  0.0370  0.2283
   93HFIP    F5 1109   3.378   2.452   2.457  0.1263 -0.1173 -0.1484
   93HFIP    F6 1110   3.180   2.441   2.375 -0.1160 -0.4340  0.1819
   93HFIP    C7 1111   3.468   2.633   2.244  0.2966  0.3361 -0.3468
   93HFIP    F8 1112   3.505   2.667   2.371  0.1030  0.3529  0.0271
   93HFIP    F9 1113   3.439   2.746   2.170  0.2930  0.6184 -0.3609
   93HFIP   F10 1114   3.571   2.555   2.196  0.8988  0.0201 -0.5485
   93HFIP   H11 1115   3.181   2.633   2.211 -0.6261 -0.6699  0.0843
   93HFIP   H12 1116   3.364   2.435   2.208 -0.9431  0.4346 -2.0380
   94HFIP    O1 1117   2.801   2.736   2.185 -0.3961  0.0200 -0.1528
   94HFIP    C2 1118   2.795   2.620   2.112 -0.2470 -0.1310 -0.0139
   94HFIP    C3 1119   2.693   2.632   1.996 -0.1520  0.0230  0.2705
   94HFIP    F4 1120   2.691   2.763   1.951  0.2526  0.5695 -0.2330
   94HFIP    F5 1121   2.564   2.611   2.032  0.3522  0.2450  0.5249
   94HFIP    F6 1122   2.731   2.570   1.880  0.0650 -0.6625 -0.5263
   94HFIP    C7 1123   2.792   2.494   2.201 -0.1658  0.0246 -0.4063
   94HFIP    F8 1124   2.893   2.505   2.293  0.0695  0.3104  0.0841
   94HFIP    F9 1125   2.808   2.378   2.129 -0.7375 -0.2044  0.1502
   94HFIP   F10 1126   2.682   2.482   2.282  0.0096 -0.2325  0.4448
   94HFIP   H11 1127   2.723   2.794   2.162  0.6720  2.0394  1.0989
   94HFIP   H12 1128   2.884   2.621   2.048 -0.0291  0.6525  0.2868
   95HFIP    O1 1129   2.583   2.616   2.619  0.5529  0.3169  0.3730
   95HFIP    C2 1130   2.710   2.562   2.623  0.4077  0.9209 -0.3804
   95HFIP    C3 1131   2.725   2.459   2.739 -0.3357  0.9666  0.1425
   95HFIP    F4 1132   2.616   2.377   2.732 -0.2757 -0.3982 -0.4869
   95HFIP    F5 1133   2.733   2.516   2.860  0.4290  0.0921 -0.1490
   95HFIP    F6 1134   2.836   2.380   2.722  0.3986 -0.1416  0.2611
   95HFIP    C7 1135   2.822   2.667   2.621 -0.2427 -0.2755  0.1067
   95HFIP    F8 1136   2.941   2.610   2.613 -0.5358  0.0443  0.0653
   95HFIP    F9 1137   2.812   2.747   2.732  0.1006 -0.0979  0.3461
   95HFIP   F10 1138   2.808   2.755   2.520  0.4628 -0.1512  0.1718
   95HFIP   H11 1139   2.552   2.625   2.714 -2.3421 -1.3613 -0.3152
   95HFIP   H12 1140   2.723   2.503   2.533  1.0608 -0.1826  0.4224
   96HFIP    O1 1141   3.002   2.757   0.123 -0.2755 -0.1628  0.4704
   96HFIP    C2 1142   3.092   2.843   0.063 -0.6391  0.5404  0.6104
   96HFIP    C3 1143   3.235   2.794   0.100  0.7695 -0.8275 -0.9708
   96HFIP    F4 1144   3.276   2.837   0.224  0.4600 -0.0645  0.0696
   96HFIP    F5 1145   3.331   2.840   0.013  0.4909 -0.1099  0.0263
   96HFIP    F6 1146   3.245   2.657   0.107  0.3795 -0.5143 -0.1608
   96HFIP    C7 1147   3.062   2.988   0.108 -0.2244 -0.3142 -0.3759
   96HFIP    F8 1148   2.954   3.040   0.043 -0.6056 -0.8150  0.1394
   96HFIP    F9 1149   3.161   3.076   0.081 -0.4269 -0.3392 -0.5742
   96HFIP   F10 1150   3.028   3.000   0.240 -0.0863  0.1735 -0.1194
   96HFIP   H11 1151   3.037   2.733   0.214 -2.8409 -0.3113  1.4525
   96HFIP   H12 1152   3.077   2.837  -0.045  1.8116 -3.9934  0.4136
   97HFIP    O1 1153   2.814   0.165   0.125  0.0726 -0.1573 -0.2241
   97HFIP    C2 1154   2.867   0.219   0.237  0.6892  0.4063 -0.8716
   97HFIP    C3 1155   2.763   0.308   0.305  0.8615 -0.7836  0.0597
   97HFIP    F4 1156   2.713   0.409   0.227 -0.2489  0.6070 -0.5616
   97HFIP    F5 1157   2.800   0.353   0.429  0.1882 -0.1162 -0.3803
   97HFIP    F6 1158   2.647   0.239   0.333  0.5944 -0.0454 -0.5049
   97HFIP    C7 1159   2.994   0.302   0.207  0.3777  0.2918  0.0091
   97HFIP    F8 1160   2.972   0.422   0.146 -0.6133 -1.0228 -0.3967
   97HFIP    F9 1161   3.082   0.234   0.130  0.3280  0.1143  0.1110
   97HFIP   F10 1162   3.062   0.318   0.327  0.1586  0.0616 -0.5700
   97HFIP   H11 1163   2.866   0.209   0.052  2.2945  1.2660  2.1737
   97HFIP   H12 1164   2.898   0.137   0.301  1.5892  0.0930 -1.6976
   98HFIP    O1 1165   0.794   2.273   1.944  0.3508  0.2227 -0.2189
   98HFIP    C2 1166   0.918   2.340   1.949  0.1834 -0.3399 -0.4724
   98HFIP    C3 1167   0.917   2.486   1.996  0.4479 -0.5310  0.8009
   98HFIP    F4 1168   0.862   2.560   1.897 -0.1787 -0.8590  0.0722
   98HFIP    F5 1169   1.043   2.534   2.008 -0.0072 -0.1600  0.0699
   98HFIP    F6 1170   0.838   2.503   2.106 -0.2493 -0.2838 -0.6435
   98HFIP    C7 1171   1.004   2.315   1.818 -0.3145 -0.8513 -0.1567
   98HFIP    F8 1172   0.951   2.363   1.703  0.4014 -0.0486  0.3394
   98HFIP    F9 1173   1.012   2.177   1.803  0.0707  0.2428 -0.1006
   98HFIP   F10 1174   1.132   2.360   1.823 -0.0956  0.5716 -0.3058
   98HFIP   H11 1175   0.758   2.303   1.855  2.2408  2.9975 -0.1144
   98HFIP   H12 1176   0.975   2.293   2.029 -0.0440 -1.3115 -0.8641
   99HFIP    O1 1177   2.422   2.923   0.259  0.3868 -0.2396 -0.5227
   99HFIP    C2 1178   2.397   2.822   0.348  0.2262 -0.6477 -0.1021
   99HFIP    C3 1179   2.268   2.748   0.313  0.3415 -0.4934  0.0389
   99HFIP    F4 1180   2.160   2.823   0.343  0.4060  0.1538 -0.0170
   99HFIP    F5 1181   2.247   2.630   0.378  0.7457 -0.4197  0.2042
   99HFIP    F6 1182   2.261   2.715   0.181 -0.1389 -0.2074 -0.0871
   99HFIP    C7 1183   2.413   2.860   0.499 -0.2382  0.4100 -0.2734
   99HFIP    F8 1184   2.542   2.846   0.540  0.0589 -0.7740 -0.1783
   99HFIP    F9 1185   2.340   2.792   0.593  0.0524  0.0764  0.3612
   99HFIP   F10 1186   2.386   2.990   0.510  0.5804 -0.0262  0.4223
   99HFIP   H11 1187   2.414   3.001   0.322 -1.3483 -0.7564 -0.0998
   99HFIP   H12 1188   2.473   2.744   0.336 -1.4097 -2.5765  1.5565
  100HFIP    O1 1189   2.973   2.150   0.052  0.1583  0.3114  0.2269
  100HFIP    C2 1190   2.833   2.130   0.079  0.7335 -0.0926  0.0224
  100HFIP    C3 1191   2.792   1.986   0.047 -0.6068  0.3713 -0.0864
  100HFIP    F4 1192   2.887   1.911   0.108  0.0546  0.0664 -0.2083
  100HFIP    F5 1193   2.808   1.955  -0.083  0.0856  0.2181 -0.0151
  100HFIP    F6 1194   2.675   1.939   0.096 -0.0153 -0.0545  0.1521
  100HFIP    C7 1195   2.759   2.236  -0.012  0.3113 -0.1631  0.0418
  100HFIP    F8 1196   2.832   2.244  -0.127 -0.0717 -0.3381  0.8169
  100HFIP    F9 1197   2.766   2.362   0.039  0.3460  0.5601 -0.5477
  100HFIP   F10 1198   2.633   2.202  -0.035  0.0675  0.3550  0.4823
  100HFIP   H11 1199   2.977   2.180  -0.044 -0.3600  0.4834  0.2552
  100HFIP   H12 1200   2.811   2.145   0.185  0.1328  1.4169 -0.3033
  101HFIP    O1 1201   3.415   2.810   0.517 -0.1526  0.0658  0.3753
  101HFIP    C2 1202   3.525   2.822   0.592 -0.6361  0.9600 -0.0327
  101HFIP    C3 1203   3.641   2.904   0.518  0.6848  0.3427 -0.0019
  101HFIP    F4 1204   3.769   2.870   0.535 -0.1761  0.4099 -0.6347
  101HFIP    F5 1205   3.636   3.027   0.571  0.3435 -0.0741  0.0619
  101HFIP    F6 1206   3.605   2.919   0.386  0.1090 -0.1303  0.3377
  101HFIP    C7 1207   3.567   2.683   0.642  0.2767  0.6463  0.3030
  101HFIP    F8 1208   3.609   2.602   0.535 -0.1401  0.2060 -0.1876
  101HFIP    F9 1209   3.471   2.611   0.698  0.1579 -0.4977 -0.7103
  101HFIP   F10 1210   3.677   2.683   0.720  0.1608 -0.3144 -0.4408
  101HFIP   H11 1211   3.441   2.840   0.425  0.9023 -0.7401  0.3953
  101HFIP   H12 1212   3.501   2.884   0.678 -0.3480 -0.6257  1.2242
  102HFIP    O1 1213   3.148   2.753   0.596 -0.1525  0.4266  0.1535
  102HFIP    C2 1214   3.062   2.803   0.694  0.0563  0.5503  0.8583
  102HFIP    C3 1215   2.997   2.929   0.635  0.0051 -0.0458  0.3659
  102HFIP    F4 1216   2.943   3.015   0.726 -0.1476 -0.1513  0.6622
  102HFIP    F5 1217   2.886   2.893   0.565  0.4633  0.2201  0.1566
  102HFIP    F6 1218   3.068   3.005   0.546  0.1019 -0.8222 -0.8567
  102HFIP    C7 1219   3.142   2.820   0.822  0.2181  0.8678 -0.0838
  102HFIP    F8 1220   3.217   2.716   0.867  0.2343 -0.0194  0.8896
  102HFIP    F9 1221   3.053   2.846   0.929 -0.1780  0.4429  0.7010
  102HFIP   F10 1222   3.234   2.917   0.813 -0.0486 -0.2595  0.9623
  102HFIP   H11 1223   3.241   2.752   0.632  0.6449  0.5872 -1.8267
  102HFIP   H12 1224   2.984   2.732   0.723  0.7834  0.0743  1.6565
  103HFIP    O1 1225   3.062   1.096   1.858 -0.3784 -0.3964 -0.4760
  103HFIP    C2 1226   3.007   0.993   1.779 -0.0322 -0.2622  0.2987
  103HFIP    C3 1227   2.868   0.970   1.824  0.7670  0.0510  0.2335
  103HFIP    F4 1228   2.841   0.898   1.937  0.0023  0.7806 -0.9122
  103HFIP    F5 1229   2.785   0.921   1.730  0.6506 -0.1884 -0.0167
  103HFIP    F6 1230   2.814   1.092   1.854  0.1022  0.2630 -0.2386
  103HFIP    C7 1231   3.090   0.864   1.798 -0.1921 -0.1719 -0.4250
  103HFIP    F8 1232   3.215   0.895   1.749  0.1328 -0.2283 -0.6217
  103HFIP    F9 1233   3.042   0.750   1.735  0.1918  0.5954 -0.1482
  103HFIP   F10 1234   3.103   0.838   1.928 -0.6662 -0.3960  0.0983
  103HFIP   H11 1235   3.087   1.055   1.945  0.9410 -0.7554 -1.0056
  103HFIP   H12 1236   3.017   1.029   1.676  2.0461  0.7212  0.8192
  104HFIP    O1 1237   3.311   0.872   1.363  0.3184 -0.1275 -0.1136
  104HFIP    C2 1238   3.298   0.914   1.230 -0.2577 -0.3998  0.1465
  104HFIP    C3 1239   3.280   0.800   1.129  0.5728  0.1108 -0.2874
  104HFIP    F4 1240   3.181   0.712   1.164 -0.0862  0.3637 -0.0294
  104HFIP    F5 1241   3.394   0.721   1.121  0.2330  0.4212  0.0455
  104HFIP    F6 1242   3.252   0.844   1.007  0.1002  0.1144 -0.6656
  104HFIP    C7 1243   3.422   1.009   1.195  1.3315  0.2314 -0.1646
  104HFIP    F8 1244   3.398   1.135   1.246 -0.1057 -0.4775  0.4282
  104HFIP    F9 1245   3.446   1.017   1.064 -0.2800  0.1943  0.0840
  104HFIP   F10 1246   3.536   0.964   1.252 -0.2196 -0.2751 -0.0768
  104HFIP   H11 1247   3.392   0.814   1.369  1.4153  1.3179 -0.8218
  104HFIP   H12 1248   3.202   0.964   1.223 -0.2852 -0.3573  0.8177
  105HFIP    O1 1249   2.898   1.890   2.247  0.1235 -0.5233 -0.0849
  105HFIP    C2 1250   2.893   2.030   2.270  0.3116  0.1013  0.2569
  105HFIP    C3 1251   3.020   2.091   2.323 -0.3776 -0.2325 -0.1358
  105HFIP    F4 1252   3.117   2.013   2.273 -0.5506  0.0508  0.0078
  105HFIP    F5 1253   3.044   2.101   2.456 -0.6663 -0.4662  0.3900
  105HFIP    F6 1254   3.059   2.206   2.261 -0.1021 -0.2098 -0.1648
  105HFIP    C7 1255   2.766   2.067   2.347  0.1319  0.1021  0.5339
  105HFIP    F8 1256   2.666   2.096   2.256  0.0978  0.3457  0.4711
  105HFIP    F9 1257   2.781   2.172   2.430 -0.0273  0.6796  0.4101
  105HFIP   F10 1258   2.714   1.973   2.429  0.1084 -0.1807 -0.3828
  105HFIP   H11 1259   2.960   1.852   2.315  1.6356  1.5826 -0.2447
  105HFIP   H12 1260   2.896   2.073   2.170 -0.8808 -2.5436 -0.9429
  106HFIP    O1 1261   3.395   1.093   0.548  0.1729  0.2021  0.1476
  106HFIP    C2 1262   3.323   0.979   0.563  0.3664 -0.4662  0.0692
  106HFIP    C3 1263   3.364   0.877   0.458 -0.6764  0.1801 -0.0834
  106HFIP    F4 1264   3.492   0.837   0.484  0.1390 -0.2444  0.0366
  106HFIP    F5 1265   3.362   0.921   0.326  0.3318 -0.1137 -0.4524
  106HFIP    F6 1266   3.301   0.754   0.460  0.3151  0.4221 -0.0367
  106HFIP    C7 1267   3.165   1.003   0.570 -0.4051  0.2385 -0.1818
  106HFIP    F8 1268   3.126   1.090   0.472 -0.1084  0.3991 -0.0349
  106HFIP    F9 1269   3.142   1.069   0.691 -0.2661  0.3148  0.3299
  106HFIP   F10 1270   3.082   0.892   0.572 -1.0130  0.7995 -0.7223
  106HFIP   H11 1271   3.334   1.171   0.564 -0.6047 -0.2359 -0.6105
  106HFIP   H12 1272   3.354   0.929   0.654 -0.5106 -2.4012 -0.6715
  107HFIP    O1 1273   0.962   1.112   0.238 -0.0945  0.2789  0.2392
  107HFIP    C2 1274   0.911   1.084   0.361  0.6555  0.4691  0.2991
  107HFIP    C3 1275   0.759   1.075   0.356  0.0027 -0.5047 -0.5919
  107HFIP    F4 1276   0.708   1.200   0.347 -0.0604 -0.2423 -0.0238
  107HFIP    F5 1277   0.705   1.014   0.461 -0.4260 -0.2716 -0.2389
  107HFIP    F6 1278   0.715   1.015   0.240 -0.6119  0.0791  0.1447
  107HFIP    C7 1279   0.960   1.176   0.466 -0.2919  0.3829 -0.3547
  107HFIP    F8 1280   0.916   1.139   0.587 -0.3285  0.0771 -0.4036
  107HFIP    F9 1281   0.923   1.307   0.435  0.4312 -0.3586 -0.6794
  107HFIP   F10 1282   1.096   1.167   0.470  0.8063 -0.4080  0.2157
  107HFIP   H11 1283   0.923   1.194   0.196 -2.0538  0.1031  1.6768
  107HFIP   H12 1284   0.951   0.992   0.402  0.5345  0.9802  1.6042
  108HFIP    O1 1285   2.768   0.524   1.298 -0.3075  0.3367  0.1261
  108HFIP    C2 1286   2.637   0.544   1.257 -0.7072 -0.1230 -0.1558
  108HFIP    C3 1287   2.625   0.680   1.180 -0.3515 -0.2966 -0.5133
  108HFIP    F4 1288   2.641   0.782   1.271  0.1563  0.0842  0.1382
  108HFIP    F5 1289   2.508   0.701   1.109 -0.5347  0.7021  0.2236
  108HFIP    F6 1290   2.734   0.688   1.100  0.0076 -0.1352 -0.2027
  108HFIP    C7 1291   2.532   0.530   1.372 -0.3064 -0.6209 -1.0405
  108HFIP    F8 1292   2.513   0.397   1.411  0.1484  0.7128  0.4331
  108HFIP    F9 1293   2.414   0.580   1.331  0.1438  0.0703 -0.3425
  108HFIP   F10 1294   2.579   0.597   1.484 -0.6804 -0.1143  0.3258
  108HFIP   H11 1295   2.789   0.597   1.364  0.9108 -0.2366  0.3919
  108HFIP   H12 1296   2.616   0.461   1.189  1.2341 -1.1370  0.4344
  109HFIP    O1 1297   2.690   1.919   1.786  0.4989 -0.3077  1.0258
  109HFIP    C2 1298   2.777   2.017   1.736  0.1294 -0.1222 -0.0874
  109HFIP    C3 1299   2.893   1.967   1.651 -0.6193  0.1732  0.1006
  109HFIP    F4 1300   2.997   2.053   1.632 -0.1651  0.3855 -0.0347
  109HFIP    F5 1301   2.857   1.936   1.527  0.0537 -0.2163 -0.2812
  109HFIP    F6 1302   2.945   1.850   1.699 -0.2775  0.5563  0.1114
  109HFIP    C7 1303   2.821   2.109   1.857 -0.0520 -0.6661 -0.1721
  109HFIP    F8 1304   2.862   2.232   1.810 -0.1642  0.4238  0.0977
  109HFIP    F9 1305   2.918   2.054   1.934  0.3501 -0.2176 -0.7363
  109HFIP   F10 1306   2.723   2.145   1.945 -0.2567  0.1914 -0.0298
  109HFIP   H11 1307   2.706   1.903   1.883 -0.3345  2.9705  1.7480
  109HFIP   H12 1308   2.715   2.077   1.670 -0.9359 -0.7495  0.3168
  110HFIP    O1 1309   3.031   1.796   2.467  0.3880  0.0798 -0.2758
  110HFIP    C2 1310   2.933   1.720   2.531  0.4207 -0.5488 -0.0711
  110HFIP    C3 1311   2.905   1.774   2.680 -0.0828  0.0310 -0.3050
  110HFIP    F4 1312   2.888   1.908   2.686  0.1445 -0.8276 -0.0719
  110HFIP    F5 1313   2.997   1.737   2.778 -0.1525 -0.0383 -0.5798
  110HFIP    F6 1314   2.784   1.723   2.724 -0.0489  0.3847 -0.1259
  110HFIP    C7 1315   2.987   1.576   2.533 -0.1385  0.2173  0.0220
  110HFIP    F8 1316   2.987   1.533   2.405 -0.1746 -0.1233 -0.3636
  110HFIP    F9 1317   2.906   1.493   2.608 -0.2934 -0.4818  0.3068
  110HFIP   F10 1318   3.115   1.559   2.588  0.1233  0.2547 -0.2226
  110HFIP   H11 1319   3.093   1.830   2.537 -2.1805  3.6546  0.4072
  110HFIP   H12 1320   2.837   1.708   2.481  0.5782 -2.1477 -0.0301
  111HFIP    O1 1321   3.282   1.356   0.619 -0.7537 -0.3306 -0.3461
  111HFIP    C2 1322   3.408   1.420   0.621  0.9650 -0.4767  0.0264
  111HFIP    C3 1323   3.464   1.404   0.764 -0.1480 -0.3982  0.4639
  111HFIP    F4 1324   3.371   1.424   0.859  0.3774  0.1956 -0.1272
  111HFIP    F5 1325   3.580   1.471   0.792  0.1081 -0.5650  0.1245
  111HFIP    F6 1326   3.491   1.271   0.778 -0.0581 -0.1382 -0.0060
  111HFIP    C7 1327   3.406   1.566   0.577  0.3978 -0.4152  0.3390
  111HFIP    F8 1328   3.325   1.578   0.468  0.8210  0.1131  0.2048
  111HFIP    F9 1329   3.528   1.618   0.542  0.4307  0.0479  0.3503
  111HFIP   F10 1330   3.358   1.654   0.675  0.4247  0.0688  0.1840
  111HFIP   H11 1331   3.209   1.422   0.637 -1.2858 -0.4097 -2.0760
  111HFIP   H12 1332   3.479   1.373   0.553  0.8442 -0.6490  0.0166
  112HFIP    O1 1333   3.074   1.506   0.674 -0.0655 -0.3758 -0.7244
  112HFIP    C2 1334   2.985   1.502   0.564 -0.4099 -0.1976  0.2653
  112HFIP    C3 1335   2.936   1.643   0.509  0.2984  0.9584  0.6214
  112HFIP    F4 1336   2.865   1.713   0.598  0.3198  0.4609  0.1184
  112HFIP    F5 1337   2.862   1.644   0.397 -0.6063 -0.5135 -0.0431
  112HFIP    F6 1338   3.043   1.727   0.484  0.6894 -0.0712 -0.1909
  112HFIP    C7 1339   2.869   1.402   0.576 -0.0026 -1.1557 -0.3180
  112HFIP    F8 1340   2.829   1.376   0.453 -0.1836  0.3366 -0.1967
  112HFIP    F9 1341   2.763   1.452   0.642 -0.0965  0.5866  0.0030
  112HFIP   F10 1342   2.912   1.290   0.637 -0.3375 -0.4033 -0.4954
  112HFIP   H11 1343   3.017   1.486   0.754  1.1300  0.2076  0.2848
  112HFIP   H12 1344   3.049   1.463   0.485  2.0333 -0.3731  2.2536
  113HFIP    O1 1345   0.207   1.712   2.415 -0.2396  0.1182 -0.7349
  113HFIP    C2 1346   0.288   1.711   2.532 -0.0863  0.0900 -0.0854
  113HFIP    C3 1347   0.414   1.796   2.523 -0.0289  0.5244  0.0794
  113HFIP    F4 1348   0.513   1.790   2.621  0.2636 -0.7480 -0.4948
  113HFIP    F5 1349   0.380   1.925   2.526  0.2182  0.2171 -0.6358
  113HFIP    F6 1350   0.479   1.783   2.401 -0.4224 -0.5397  0.5112
  113HFIP    C7 1351   0.320   1.570   2.578  0.0577 -0.7665 -0.8029
  113HFIP    F8 1352   0.246   1.475   2.514  0.5266  0.1859  0.3063
  113HFIP    F9 1353   0.284   1.567   2.710 -0.4830  0.2274 -0.5379
  113HFIP   F10 1354   0.448   1.529   2.559  0.2161 -0.1668  0.1488
  113HFIP   H11 1355   0.271   1.711   2.338  0.0092 -0.0395 -0.5259
  113HFIP   H12 1356   0.230   1.751   2.616  1.0895 -0.0972  0.8235
  114HFIP    O1 1357   3.406   1.477   1.988 -0.7274 -0.1657 -0.0875
  114HFIP    C2 1358   3.336   1.463   2.101 -0.3587  0.1041 -0.1680
  114HFIP    C3 1359   3.215   1.370   2.072  0.2333 -0.2533 -0.5413
  114HFIP    F4 1360   3.267   1.252   2.022  0.1819  0.2909 -0.1898
  114HFIP    F5 1361   3.125   1.413   1.979 -0.5031  0.2032  0.5214
  114HFIP    F6 1362   3.140   1.328   2.181 -0.1810 -0.0024  0.6776
  114HFIP    C7 1363   3.301   1.599   2.173  0.4139  0.3548  0.0697
  114HFIP    F8 1364   3.272   1.598   2.306  0.0739 -0.3522  0.3857
  114HFIP    F9 1365   3.196   1.659   2.107 -0.3310 -0.0458  0.2966
  114HFIP   F10 1366   3.400   1.692   2.175 -0.3192 -0.0946 -0.3026
  114HFIP   H11 1367   3.348   1.517   1.917  0.0205 -1.3292 -1.3962
  114HFIP   H12 1368   3.409   1.416   2.167  1.5861  0.4147 -2.0333
  115HFIP    O1 1369   3.161   2.538   2.925  0.0484  0.5035 -0.2782
  115HFIP    C2 1370   3.223   2.424   2.969 -0.7614  0.1405 -0.8262
  115HFIP    C3 1371   3.302   2.351   2.860  0.2795  0.8182 -0.0880
  115HFIP    F4 1372   3.209   2.294   2.773  0.0499  0.2022 -0.3132
  115HFIP    F5 1373   3.374   2.247   2.916  0.3018  0.3918  0.5960
  115HFIP    F6 1374   3.386   2.421   2.782 -0.0001  0.1403  0.0132
  115HFIP    C7 1375   3.118   2.343   3.046 -0.0833  0.2888  0.0693
  115HFIP    F8 1376   3.156   2.219   3.072 -0.4106  0.1046  0.1514
  115HFIP    F9 1377   3.006   2.351   2.970  0.1829 -0.2218 -0.6491
  115HFIP   F10 1378   3.083   2.399   3.166  0.6332  0.1780  0.0172
  115HFIP   H11 1379   3.062   2.523   2.930  0.1327  0.3889  1.9813
  115HFIP   H12 1380   3.294   2.445   3.048 -0.2381 -0.7217 -1.0532
  116HFIP    O1 1381   0.275   0.078   0.621  0.1202 -0.6885  0.5488
  116HFIP    C2 1382   0.255   0.048   0.486 -0.4432  0.2257  0.9444
  116HFIP    C3 1383   0.382  -0.009   0.426  0.5326  0.9073 -0.2405
  116HFIP    F4 1384   0.367  -0.146   0.426  0.3082 -0.3783  0.4140
  116HFIP    F5 1385   0.500   0.028   0.476  0.5582  0.1949  0.0400
  116HFIP    F6 1386   0.384   0.012   0.292  0.1620  0.4725  0.4441
  116HFIP    C7 1387   0.194   0.164   0.407  0.0726  0.5605  0.3304
  116HFIP    F8 1388   0.107   0.227   0.489  0.0466 -0.1055  0.4471
  116HFIP    F9 1389   0.127   0.133   0.294  0.4098 -0.1873  0.3809
  116HFIP   F10 1390   0.278   0.266   0.376  0.1423 -0.2326 -0.0287
  116HFIP   H11 1391   0.352   0.142   0.620  1.0867 -1.8269 -2.6749
  116HFIP   H12 1392   0.181  -0.032   0.489  0.3875 -0.5591  0.9855
  117HFIP    O1 1393   2.949   1.520   0.891  0.9463  0.6453 -0.0993
  117HFIP    C2 1394   2.917   1.435   1.001 -0.2254 -0.1774  0.4946
  117HFIP    C3 1395   2.857   1.523   1.109  0.0036  0.1807 -0.7933
  117HFIP    F4 1396   2.788   1.457   1.207  0.2052 -0.2414  0.1328
  117HFIP    F5 1397   2.756   1.608   1.058  0.2591  0.0994  0.0951
  117HFIP    F6 1398   2.940   1.608   1.173  0.3789 -0.3292 -0.3382
  117HFIP    C7 1399   3.033   1.344   1.052 -0.2352 -0.4471 -0.4534
  117HFIP    F8 1400   2.987   1.225   1.102 -0.2507 -0.1274  0.2234
  117HFIP    F9 1401   3.117   1.396   1.143  0.3043 -0.5022  0.2261
  117HFIP   F10 1402   3.112   1.302   0.954  0.0537  0.0468  0.3555
  117HFIP   H11 1403   2.954   1.616   0.920  0.3297  0.4170  0.7746
  117HFIP   H12 1404   2.839   1.364   0.972 -1.5569  2.4204 -2.5826
  118HFIP    O1 1405   0.290   2.003   2.290 -0.9390 -0.6165  0.4188
  118HFIP    C2 1406   0.198   1.974   2.197 -0.0158  0.3493 -0.4074
  118HFIP    C3 1407   0.269   1.931   2.065  0.0431  0.0688  0.6642
  118HFIP    F4 1408   0.332   1.812   2.100  0.4258  0.5245  0.2543
  118HFIP    F5 1409   0.361   2.025   2.037 -0.0372  0.1267 -0.0056
  118HFIP    F6 1410   0.189   1.915   1.954 -0.0985 -0.2841  0.3477
  118HFIP    C7 1411   0.095   2.091   2.178 -0.5057  0.0207  0.3316
  118HFIP    F8 1412   0.121   2.196   2.090  0.3160 -0.3401 -0.4099
  118HFIP    F9 1413   0.058   2.157   2.293 -0.0031  0.0423 -0.1146
  118HFIP   F10 1414  -0.021   2.035   2.130 -0.5141 -0.4839  0.2498
  118HFIP   H11 1415   0.324   2.096   2.276 -1.0774 -0.8725 -1.6532
  118HFIP   H12 1416   0.141   1.889   2.235  1.1947 -0.7185 -0.9613
  119HFIP    O1 1417   0.077   2.612   2.926  0.3122 -0.3370  0.4125
  119HFIP    C2 1418   0.187   2.638   3.005  0.4782  0.1682 -0.8182
  119HFIP    C3 1419   0.150   2.565   3.140 -0.1199 -0.1689  0.0173
  119HFIP    F4 1420   0.246   2.540   3.231  0.0415  0.7057 -0.0894
  119HFIP    F5 1421   0.085   2.449   3.125  0.2424  0.0014 -0.0949
  119HFIP    F6 1422   0.057   2.639   3.203 -0.0191  0.3265  0.3491
  119HFIP    C7 1423   0.224   2.792   3.012 -0.7030 -0.2100  0.1425
  119HFIP    F8 1424   0.336   2.818   3.089  0.7313  0.1837 -0.5794
  119HFIP    F9 1425   0.116   2.860   3.065  0.3716  0.2282  0.1699
  119HFIP   F10 1426   0.262   2.839   2.890 -0.3023 -0.2319 -0.1239
  119HFIP   H11 1427   0.006   2.683   2.928 -1.1439 -1.7850  1.5359
  119HFIP   H12 1428   0.277   2.591   2.968 -0.6070 -1.4033 -1.5414
  120HFIP    O1 1429   2.994   1.780   0.915  0.0984  0.1794 -0.2172
  120HFIP    C2 1430   3.116   1.828   0.872 -0.3167 -0.1302 -0.2372
  120HFIP    C3 1431   3.209   1.839   0.991 -0.1138 -0.1915 -0.0507
  120HFIP    F4 1432   3.233   1.722   1.060 -0.2969  0.1682 -0.0397
  120HFIP    F5 1433   3.165   1.938   1.080 -0.5195  0.3687  0.3928
  120HFIP    F6 1434   3.338   1.866   0.964 -0.1878  0.6274  0.1013
  120HFIP    C7 1435   3.085   1.952   0.786 -0.4449 -0.0759  0.1160
  120HFIP    F8 1436   3.080   1.937   0.650  0.1821  0.0286 -0.3514
  120HFIP    F9 1437   3.163   2.066   0.815 -0.2884 -0.0445 -0.3232
  120HFIP   F10 1438   2.961   1.998   0.824 -0.1596  0.1117  0.5041
  120HFIP   H11 1439   2.950   1.862   0.954 -2.0542 -0.7568 -0.6454
  120HFIP   H12 1440   3.148   1.756   0.797  3.9749  1.4577 -0.0849
  121HFIP    O1 1441   3.337   2.055   3.424  0.0369  0.2125  0.0336
  121HFIP    C2 1442   3.290   1.941   3.485 -0.2468  0.2523 -0.6867
  121HFIP    C3 1443   3.410   1.857   3.544  0.6519 -0.8518 -0.1211
  121HFIP    F4 1444   3.431   1.900   3.673 -0.5398 -0.2117  0.0695
  121HFIP    F5 1445   3.518   1.879   3.468 -0.0009 -0.4716  0.0156
  121HFIP    F6 1446   3.391   1.720   3.552 -0.2829 -1.0565 -0.0778
  121HFIP    C7 1447   3.196   1.851   3.402  0.7434  0.5847  0.3091
  121HFIP    F8 1448   3.131   1.750   3.468 -0.3069 -0.6038 -0.1035
  121HFIP    F9 1449   3.273   1.814   3.299  0.4347 -0.5032  0.4204
  121HFIP   F10 1450   3.104   1.939   3.355  0.7017  0.6041 -0.0748
  121HFIP   H11 1451   3.429   2.034   3.391 -1.3312 -2.3957 -2.3377
  121HFIP   H12 1452   3.230   1.974   3.569  2.6907  0.2750  1.4922
  122HFIP    O1 1453   3.033   2.658   0.377  0.1133 -0.0170  0.4040
  122HFIP    C2 1454   2.980   2.530   0.376  0.1581 -0.5778 -0.1524
  122HFIP    C3 1455   2.835   2.528   0.441  0.2448  0.1888  0.3140
  122HFIP    F4 1456   2.739   2.561   0.350  0.0555 -0.2665  0.3598
  122HFIP    F5 1457   2.819   2.608   0.549 -0.0562  0.1531  0.3021
  122HFIP    F6 1458   2.797   2.405   0.474 -0.3065 -0.6650 -1.2340
  122HFIP    C7 1459   3.090   2.441   0.450  0.3112 -0.2169  0.9304
  122HFIP    F8 1460   3.221   2.490   0.437 -0.2809 -0.0722 -0.4497
  122HFIP    F9 1461   3.103   2.311   0.412  0.0553  0.3837  0.0651
  122HFIP   F10 1462   3.080   2.444   0.581 -0.0504 -0.0202  0.0837
  122HFIP   H11 1463   3.066   2.687   0.467 -1.8711 -1.7236  1.7275
  122HFIP   H12 1464   2.975   2.492   0.274  1.2076 -0.2181 -0.3374
  123HFIP    O1 1465   0.409   2.230   2.245 -0.2757  0.5350 -0.2103
  123HFIP    C2 1466   0.366   2.355   2.280  0.9066  0.7570  0.2705
  123HFIP    C3 1467   0.417   2.465   2.185  0.0371  0.1875 -0.2290
  123HFIP    F4 1468   0.384   2.592   2.216 -0.2522  0.0825 -0.2395
  123HFIP    F5 1469   0.365   2.449   2.063 -0.2078  0.2106  0.2389
  123HFIP    F6 1470   0.553   2.470   2.178  0.5467 -0.1440 -0.1762
  123HFIP    C7 1471   0.407   2.385   2.428 -0.1359  0.2856 -0.0081
  123HFIP    F8 1472   0.538   2.407   2.450  0.4085 -0.5212 -0.1991
  123HFIP    F9 1473   0.375   2.275   2.501 -0.0763  0.2073 -0.1923
  123HFIP   F10 1474   0.341   2.493   2.481 -0.4410 -0.1458  0.0371
  123HFIP   H11 1475   0.509   2.234   2.237 -0.2611 -0.7465 -0.8221
  123HFIP   H12 1476   0.257   2.348   2.279  0.9918 -0.7208  0.1007
  124HFIP    O1 1477   3.338   2.722   2.995 -0.0104  0.3824 -0.5375
  124HFIP    C2 1478   3.258   2.830   3.042  0.4031  0.3738  0.2144
  124HFIP    C3 1479   3.149   2.784   3.143 -0.4943 -0.2403 -0.0490
  124HFIP    F4 1480   3.035   2.751   3.077 -0.5225  0.0100 -0.3274
  124HFIP    F5 1481   3.128   2.883   3.234  0.6801 -0.5819 -0.1425
  124HFIP    F6 1482   3.190   2.676   3.213  0.2033 -0.8733  0.4688
  124HFIP    C7 1483   3.215   2.918   2.927  0.1757  0.7872  0.6308
  124HFIP    F8 1484   3.112   3.000   2.964  0.5020 -0.3852  0.5502
  124HFIP    F9 1485   3.165   2.855   2.817 -0.1957 -0.2192  0.4915
  124HFIP   F10 1486   3.311   2.998   2.880  0.3517  0.6722 -0.3694
  124HFIP   H11 1487   3.264   2.661   2.969 -0.0432  0.0467  0.3153
  124HFIP   H12 1488   3.342   2.872   3.099 -0.6067  1.0183  1.2368
  125HFIP    O1 1489   3.207   2.269   3.444 -0.7422  0.3014  0.5246
  125HFIP    C2 1490   3.296   2.356   3.502  0.5768  0.5077  0.0093
  125HFIP    C3 1491   3.417   2.387   3.410 -0.0142  0.6546  0.0394
  125HFIP    F4 1492   3.502   2.467   3.475  0.6487  0.2438 -0.2968
  125HFIP    F5 1493   3.366   2.455   3.302 -0.2289  0.4448 -0.6480
  125HFIP    F6 1494   3.500   2.289   3.369 -0.2041  0.1677  0.3109
  125HFIP    C7 1495   3.348   2.298   3.640 -0.6433  0.0429  0.3489
  125HFIP    F8 1496   3.258   2.222   3.712 -1.0520 -0.7145 -0.2088
  125HFIP    F9 1497   3.391   2.396   3.726  0.7268 -0.4478 -0.2862
  125HFIP   F10 1498   3.461   2.221   3.617  0.1374  0.0479 -0.1859
  125HFIP   H11 1499   3.262   2.186   3.444  1.6588  1.8326 -0.9692
  125HFIP   H12 1500   3.243   2.449   3.519  1.4294  1.3848 -1.9701
   3.51960   3.51960   3.51960
