[ HFIP_OH_rotor ]
11 1 2 12
23 13 14 24
35 25 26 36
47 37 38 48
59 49 50 60
71 61 62 72
83 73 74 84
95 85 86 96
107 97 98 108
119 109 110 120
131 121 122 132
143 133 134 144
155 145 146 156
167 157 158 168
179 169 170 180
191 181 182 192
203 193 194 204
215 205 206 216
227 217 218 228
239 229 230 240
251 241 242 252
263 253 254 264
275 265 266 276
287 277 278 288
299 289 290 300
311 301 302 312
323 313 314 324
335 325 326 336
347 337 338 348
359 349 350 360
371 361 362 372
383 373 374 384
395 385 386 396
407 397 398 408
419 409 410 420
431 421 422 432
443 433 434 444
455 445 446 456
467 457 458 468
479 469 470 480
491 481 482 492
503 493 494 504
515 505 506 516
527 517 518 528
539 529 530 540
551 541 542 552
563 553 554 564
575 565 566 576
587 577 578 588
599 589 590 600
611 601 602 612
623 613 614 624
635 625 626 636
647 637 638 648
659 649 650 660
671 661 662 672
683 673 674 684
695 685 686 696
707 697 698 708
719 709 710 720
731 721 722 732
743 733 734 744
755 745 746 756
767 757 758 768
779 769 770 780
791 781 782 792
803 793 794 804
815 805 806 816
827 817 818 828
839 829 830 840
851 841 842 852
863 853 854 864
875 865 866 876
887 877 878 888
899 889 890 900
911 901 902 912
923 913 914 924
935 925 926 936
947 937 938 948
959 949 950 960
971 961 962 972
983 973 974 984
995 985 986 996
1007 997 998 1008
1019 1009 1010 1020
1031 1021 1022 1032
1043 1033 1034 1044
1055 1045 1046 1056
1067 1057 1058 1068
1079 1069 1070 1080
1091 1081 1082 1092
1103 1093 1094 1104
1115 1105 1106 1116
1127 1117 1118 1128
1139 1129 1130 1140
1151 1141 1142 1152
1163 1153 1154 1164
1175 1165 1166 1176
1187 1177 1178 1188
1199 1189 1190 1200
1211 1201 1202 1212
1223 1213 1214 1224
1235 1225 1226 1236
1247 1237 1238 1248
1259 1249 1250 1260
1271 1261 1262 1272
1283 1273 1274 1284
1295 1285 1286 1296
1307 1297 1298 1308
1319 1309 1310 1320
1331 1321 1322 1332
1343 1333 1334 1344
1355 1345 1346 1356
1367 1357 1358 1368
1379 1369 1370 1380
1391 1381 1382 1392
1403 1393 1394 1404
1415 1405 1406 1416
1427 1417 1418 1428
1439 1429 1430 1440
1451 1441 1442 1452
1463 1453 1454 1464
1475 1465 1466 1476
1487 1477 1478 1488
1499 1489 1490 1500
