; Marchelli2022 SI Tables I-V; kcal/A harmonic prefactors converted explicitly
[ defaults ]
1 2 yes 0.5 0.5
[ atomtypes ]
CF       12.01100   0.600000 A 0.336110000 0.406258032
CT       12.01100  -0.070000 A 0.336110000 0.406258032
F        18.99840  -0.200000 A 0.315780000 0.297235544
OH       15.99940  -0.595000 A 0.295480000 0.850418920
HO        1.00800   0.495000 A 0.000000000 0.000000000
HC        1.00800   0.170000 A 0.237340000 0.118495064
[ moleculetype ]
HFIP 3
[ atoms ]
  1 OH    1 HFIP O1      1 -0.5950000 15.99940
  2 CT    1 HFIP C2      2 -0.0700000 12.01100
  3 CF    1 HFIP C3      3  0.6000000 12.01100
  4 F     1 HFIP F4      4 -0.2000000 18.99840
  5 F     1 HFIP F5      5 -0.2000000 18.99840
  6 F     1 HFIP F6      6 -0.2000000 18.99840
  7 CF    1 HFIP C7      7  0.6000000 12.01100
  8 F     1 HFIP F8      8 -0.2000000 18.99840
  9 F     1 HFIP F9      9 -0.2000000 18.99840
 10 F     1 HFIP F10    10 -0.2000000 18.99840
 11 HO    1 HFIP H11    11  0.4950000 1.00800
 12 HC    1 HFIP H12    12  0.1700000 1.00800
[ bonds ]
1 2 1 0.136000000 267776.00000000
2 3 1 0.153000000 224262.40000000
3 4 1 0.136000000 614211.20000000
3 5 1 0.136000000 614211.20000000
3 6 1 0.136000000 614211.20000000
2 7 1 0.153000000 224262.40000000
7 8 1 0.136000000 614211.20000000
7 9 1 0.136000000 614211.20000000
7 10 1 0.136000000 614211.20000000
1 11 1 0.100000000 1673600.00000000
2 12 1 0.109000000 1673600.00000000
[ angles ]
2 1 11 1 109.50000000 397.88166400
1 2 3 1 111.00000000 460.64166400
1 2 7 1 111.00000000 460.64166400
1 2 12 1 109.50000000 397.88166400
3 2 7 1 110.00000000 460.64166400
3 2 12 1 109.50000000 460.64166400
7 2 12 1 109.50000000 460.64166400
2 3 4 1 111.00000000 460.64166400
2 3 5 1 111.00000000 460.64166400
2 3 6 1 111.00000000 460.64166400
4 3 5 1 107.60000000 460.64166400
4 3 6 1 107.60000000 460.64166400
5 3 6 1 107.60000000 460.64166400
2 7 8 1 111.00000000 460.64166400
2 7 9 1 111.00000000 460.64166400
2 7 10 1 111.00000000 460.64166400
8 7 9 1 107.60000000 460.64166400
8 7 10 1 107.60000000 460.64166400
9 7 10 1 107.60000000 460.64166400
[ pairs ]
1 4 1
1 5 1
1 6 1
1 8 1
1 9 1
1 10 1
3 8 1
3 9 1
3 10 1
3 11 1
4 7 1
4 12 1
5 7 1
5 12 1
6 7 1
6 12 1
7 11 1
8 12 1
9 12 1
10 12 1
11 12 1
[ system ]
HFIP published-force-field qualification
[ molecules ]
HFIP 125
