Anisole comparator n4
 3969
    1GR      C1    1   0.000   0.000   1.900
    1GR      C2    2   0.142   0.000   1.900
    1GR      C3    3   0.213   0.123   1.900
    1GR      C4    4   0.354   0.123   1.900
    1GR      C5    5   0.000   0.246   1.900
    1GR      C6    6   0.142   0.246   1.900
    1GR      C7    7   0.213   0.368   1.900
    1GR      C8    8   0.354   0.368   1.900
    1GR      C9    9   0.000   0.491   1.900
    1GR     C10   10   0.142   0.491   1.900
    1GR     C11   11   0.213   0.614   1.900
    1GR     C12   12   0.354   0.614   1.900
    1GR     C13   13   0.000   0.737   1.900
    1GR     C14   14   0.142   0.737   1.900
    1GR     C15   15   0.213   0.860   1.900
    1GR     C16   16   0.354   0.860   1.900
    1GR     C17   17   0.000   0.982   1.900
    1GR     C18   18   0.142   0.982   1.900
    1GR     C19   19   0.213   1.105   1.900
    1GR     C20   20   0.354   1.105   1.900
    1GR     C21   21   0.000   1.228   1.900
    1GR     C22   22   0.142   1.228   1.900
    1GR     C23   23   0.213   1.351   1.900
    1GR     C24   24   0.354   1.351   1.900
    1GR     C25   25   0.000   1.474   1.900
    1GR     C26   26   0.142   1.474   1.900
    1GR     C27   27   0.213   1.596   1.900
    1GR     C28   28   0.354   1.596   1.900
    1GR     C29   29   0.000   1.719   1.900
    1GR     C30   30   0.142   1.719   1.900
    1GR     C31   31   0.213   1.842   1.900
    1GR     C32   32   0.354   1.842   1.900
    1GR     C33   33   0.000   1.965   1.900
    1GR     C34   34   0.142   1.965   1.900
    1GR     C35   35   0.213   2.088   1.900
    1GR     C36   36   0.354   2.088   1.900
    1GR     C37   37   0.000   2.210   1.900
    1GR     C38   38   0.142   2.210   1.900
    1GR     C39   39   0.213   2.333   1.900
    1GR     C40   40   0.354   2.333   1.900
    1GR     C41   41   0.000   2.456   1.900
    1GR     C42   42   0.142   2.456   1.900
    1GR     C43   43   0.213   2.579   1.900
    1GR     C44   44   0.354   2.579   1.900
    1GR     C45   45   0.000   2.702   1.900
    1GR     C46   46   0.142   2.702   1.900
    1GR     C47   47   0.213   2.824   1.900
    1GR     C48   48   0.354   2.824   1.900
    1GR     C49   49   0.000   2.947   1.900
    1GR     C50   50   0.142   2.947   1.900
    1GR     C51   51   0.213   3.070   1.900
    1GR     C52   52   0.354   3.070   1.900
    1GR     C53   53   0.000   3.193   1.900
    1GR     C54   54   0.142   3.193   1.900
    1GR     C55   55   0.213   3.316   1.900
    1GR     C56   56   0.354   3.316   1.900
    1GR     C57   57   0.425   0.000   1.900
    1GR     C58   58   0.567   0.000   1.900
    1GR     C59   59   0.638   0.123   1.900
    1GR     C60   60   0.780   0.123   1.900
    1GR     C61   61   0.425   0.246   1.900
    1GR     C62   62   0.567   0.246   1.900
    1GR     C63   63   0.638   0.368   1.900
    1GR     C64   64   0.780   0.368   1.900
    1GR     C65   65   0.425   0.491   1.900
    1GR     C66   66   0.567   0.491   1.900
    1GR     C67   67   0.638   0.614   1.900
    1GR     C68   68   0.780   0.614   1.900
    1GR     C69   69   0.425   0.737   1.900
    1GR     C70   70   0.567   0.737   1.900
    1GR     C71   71   0.638   0.860   1.900
    1GR     C72   72   0.780   0.860   1.900
    1GR     C73   73   0.425   0.982   1.900
    1GR     C74   74   0.567   0.982   1.900
    1GR     C75   75   0.638   1.105   1.900
    1GR     C76   76   0.780   1.105   1.900
    1GR     C77   77   0.425   1.228   1.900
    1GR     C78   78   0.567   1.228   1.900
    1GR     C79   79   0.638   1.351   1.900
    1GR     C80   80   0.780   1.351   1.900
    1GR     C81   81   0.425   1.474   1.900
    1GR     C82   82   0.567   1.474   1.900
    1GR     C83   83   0.638   1.596   1.900
    1GR     C84   84   0.780   1.596   1.900
    1GR     C85   85   0.425   1.719   1.900
    1GR     C86   86   0.567   1.719   1.900
    1GR     C87   87   0.638   1.842   1.900
    1GR     C88   88   0.780   1.842   1.900
    1GR     C89   89   0.425   1.965   1.900
    1GR     C90   90   0.567   1.965   1.900
    1GR     C91   91   0.638   2.088   1.900
    1GR     C92   92   0.780   2.088   1.900
    1GR     C93   93   0.425   2.210   1.900
    1GR     C94   94   0.567   2.210   1.900
    1GR     C95   95   0.638   2.333   1.900
    1GR     C96   96   0.780   2.333   1.900
    1GR     C97   97   0.425   2.456   1.900
    1GR     C98   98   0.567   2.456   1.900
    1GR     C99   99   0.638   2.579   1.900
    1GR    C100  100   0.780   2.579   1.900
    1GR    C101  101   0.425   2.702   1.900
    1GR    C102  102   0.567   2.702   1.900
    1GR    C103  103   0.638   2.824   1.900
    1GR    C104  104   0.780   2.824   1.900
    1GR    C105  105   0.425   2.947   1.900
    1GR    C106  106   0.567   2.947   1.900
    1GR    C107  107   0.638   3.070   1.900
    1GR    C108  108   0.780   3.070   1.900
    1GR    C109  109   0.425   3.193   1.900
    1GR    C110  110   0.567   3.193   1.900
    1GR    C111  111   0.638   3.316   1.900
    1GR    C112  112   0.780   3.316   1.900
    1GR    C113  113   0.851   0.000   1.900
    1GR    C114  114   0.993   0.000   1.900
    1GR    C115  115   1.064   0.123   1.900
    1GR    C116  116   1.205   0.123   1.900
    1GR    C117  117   0.851   0.246   1.900
    1GR    C118  118   0.993   0.246   1.900
    1GR    C119  119   1.064   0.368   1.900
    1GR    C120  120   1.205   0.368   1.900
    1GR    C121  121   0.851   0.491   1.900
    1GR    C122  122   0.993   0.491   1.900
    1GR    C123  123   1.064   0.614   1.900
    1GR    C124  124   1.205   0.614   1.900
    1GR    C125  125   0.851   0.737   1.900
    1GR    C126  126   0.993   0.737   1.900
    1GR    C127  127   1.064   0.860   1.900
    1GR    C128  128   1.205   0.860   1.900
    1GR    C129  129   0.851   0.982   1.900
    1GR    C130  130   0.993   0.982   1.900
    1GR    C131  131   1.064   1.105   1.900
    1GR    C132  132   1.205   1.105   1.900
    1GR    C133  133   0.851   1.228   1.900
    1GR    C134  134   0.993   1.228   1.900
    1GR    C135  135   1.064   1.351   1.900
    1GR    C136  136   1.205   1.351   1.900
    1GR    C137  137   0.851   1.474   1.900
    1GR    C138  138   0.993   1.474   1.900
    1GR    C139  139   1.064   1.596   1.900
    1GR    C140  140   1.205   1.596   1.900
    1GR    C141  141   0.851   1.719   1.900
    1GR    C142  142   0.993   1.719   1.900
    1GR    C143  143   1.064   1.842   1.900
    1GR    C144  144   1.205   1.842   1.900
    1GR    C145  145   0.851   1.965   1.900
    1GR    C146  146   0.993   1.965   1.900
    1GR    C147  147   1.064   2.088   1.900
    1GR    C148  148   1.205   2.088   1.900
    1GR    C149  149   0.851   2.210   1.900
    1GR    C150  150   0.993   2.210   1.900
    1GR    C151  151   1.064   2.333   1.900
    1GR    C152  152   1.205   2.333   1.900
    1GR    C153  153   0.851   2.456   1.900
    1GR    C154  154   0.993   2.456   1.900
    1GR    C155  155   1.064   2.579   1.900
    1GR    C156  156   1.205   2.579   1.900
    1GR    C157  157   0.851   2.702   1.900
    1GR    C158  158   0.993   2.702   1.900
    1GR    C159  159   1.064   2.824   1.900
    1GR    C160  160   1.205   2.824   1.900
    1GR    C161  161   0.851   2.947   1.900
    1GR    C162  162   0.993   2.947   1.900
    1GR    C163  163   1.064   3.070   1.900
    1GR    C164  164   1.205   3.070   1.900
    1GR    C165  165   0.851   3.193   1.900
    1GR    C166  166   0.993   3.193   1.900
    1GR    C167  167   1.064   3.316   1.900
    1GR    C168  168   1.205   3.316   1.900
    1GR    C169  169   1.276   0.000   1.900
    1GR    C170  170   1.418   0.000   1.900
    1GR    C171  171   1.489   0.123   1.900
    1GR    C172  172   1.631   0.123   1.900
    1GR    C173  173   1.276   0.246   1.900
    1GR    C174  174   1.418   0.246   1.900
    1GR    C175  175   1.489   0.368   1.900
    1GR    C176  176   1.631   0.368   1.900
    1GR    C177  177   1.276   0.491   1.900
    1GR    C178  178   1.418   0.491   1.900
    1GR    C179  179   1.489   0.614   1.900
    1GR    C180  180   1.631   0.614   1.900
    1GR    C181  181   1.276   0.737   1.900
    1GR    C182  182   1.418   0.737   1.900
    1GR    C183  183   1.489   0.860   1.900
    1GR    C184  184   1.631   0.860   1.900
    1GR    C185  185   1.276   0.982   1.900
    1GR    C186  186   1.418   0.982   1.900
    1GR    C187  187   1.489   1.105   1.900
    1GR    C188  188   1.631   1.105   1.900
    1GR    C189  189   1.276   1.228   1.900
    1GR    C190  190   1.418   1.228   1.900
    1GR    C191  191   1.489   1.351   1.900
    1GR    C192  192   1.631   1.351   1.900
    1GR    C193  193   1.276   1.474   1.900
    1GR    C194  194   1.418   1.474   1.900
    1GR    C195  195   1.489   1.596   1.900
    1GR    C196  196   1.631   1.596   1.900
    1GR    C197  197   1.276   1.719   1.900
    1GR    C198  198   1.418   1.719   1.900
    1GR    C199  199   1.489   1.842   1.900
    1GR    C200  200   1.631   1.842   1.900
    1GR    C201  201   1.276   1.965   1.900
    1GR    C202  202   1.418   1.965   1.900
    1GR    C203  203   1.489   2.088   1.900
    1GR    C204  204   1.631   2.088   1.900
    1GR    C205  205   1.276   2.210   1.900
    1GR    C206  206   1.418   2.210   1.900
    1GR    C207  207   1.489   2.333   1.900
    1GR    C208  208   1.631   2.333   1.900
    1GR    C209  209   1.276   2.456   1.900
    1GR    C210  210   1.418   2.456   1.900
    1GR    C211  211   1.489   2.579   1.900
    1GR    C212  212   1.631   2.579   1.900
    1GR    C213  213   1.276   2.702   1.900
    1GR    C214  214   1.418   2.702   1.900
    1GR    C215  215   1.489   2.824   1.900
    1GR    C216  216   1.631   2.824   1.900
    1GR    C217  217   1.276   2.947   1.900
    1GR    C218  218   1.418   2.947   1.900
    1GR    C219  219   1.489   3.070   1.900
    1GR    C220  220   1.631   3.070   1.900
    1GR    C221  221   1.276   3.193   1.900
    1GR    C222  222   1.418   3.193   1.900
    1GR    C223  223   1.489   3.316   1.900
    1GR    C224  224   1.631   3.316   1.900
    1GR    C225  225   1.702   0.000   1.900
    1GR    C226  226   1.843   0.000   1.900
    1GR    C227  227   1.914   0.123   1.900
    1GR    C228  228   2.056   0.123   1.900
    1GR    C229  229   1.702   0.246   1.900
    1GR    C230  230   1.843   0.246   1.900
    1GR    C231  231   1.914   0.368   1.900
    1GR    C232  232   2.056   0.368   1.900
    1GR    C233  233   1.702   0.491   1.900
    1GR    C234  234   1.843   0.491   1.900
    1GR    C235  235   1.914   0.614   1.900
    1GR    C236  236   2.056   0.614   1.900
    1GR    C237  237   1.702   0.737   1.900
    1GR    C238  238   1.843   0.737   1.900
    1GR    C239  239   1.914   0.860   1.900
    1GR    C240  240   2.056   0.860   1.900
    1GR    C241  241   1.702   0.982   1.900
    1GR    C242  242   1.843   0.982   1.900
    1GR    C243  243   1.914   1.105   1.900
    1GR    C244  244   2.056   1.105   1.900
    1GR    C245  245   1.702   1.228   1.900
    1GR    C246  246   1.843   1.228   1.900
    1GR    C247  247   1.914   1.351   1.900
    1GR    C248  248   2.056   1.351   1.900
    1GR    C249  249   1.702   1.474   1.900
    1GR    C250  250   1.843   1.474   1.900
    1GR    C251  251   1.914   1.596   1.900
    1GR    C252  252   2.056   1.596   1.900
    1GR    C253  253   1.702   1.719   1.900
    1GR    C254  254   1.843   1.719   1.900
    1GR    C255  255   1.914   1.842   1.900
    1GR    C256  256   2.056   1.842   1.900
    1GR    C257  257   1.702   1.965   1.900
    1GR    C258  258   1.843   1.965   1.900
    1GR    C259  259   1.914   2.088   1.900
    1GR    C260  260   2.056   2.088   1.900
    1GR    C261  261   1.702   2.210   1.900
    1GR    C262  262   1.843   2.210   1.900
    1GR    C263  263   1.914   2.333   1.900
    1GR    C264  264   2.056   2.333   1.900
    1GR    C265  265   1.702   2.456   1.900
    1GR    C266  266   1.843   2.456   1.900
    1GR    C267  267   1.914   2.579   1.900
    1GR    C268  268   2.056   2.579   1.900
    1GR    C269  269   1.702   2.702   1.900
    1GR    C270  270   1.843   2.702   1.900
    1GR    C271  271   1.914   2.824   1.900
    1GR    C272  272   2.056   2.824   1.900
    1GR    C273  273   1.702   2.947   1.900
    1GR    C274  274   1.843   2.947   1.900
    1GR    C275  275   1.914   3.070   1.900
    1GR    C276  276   2.056   3.070   1.900
    1GR    C277  277   1.702   3.193   1.900
    1GR    C278  278   1.843   3.193   1.900
    1GR    C279  279   1.914   3.316   1.900
    1GR    C280  280   2.056   3.316   1.900
    1GR    C281  281   2.127   0.000   1.900
    1GR    C282  282   2.269   0.000   1.900
    1GR    C283  283   2.340   0.123   1.900
    1GR    C284  284   2.481   0.123   1.900
    1GR    C285  285   2.127   0.246   1.900
    1GR    C286  286   2.269   0.246   1.900
    1GR    C287  287   2.340   0.368   1.900
    1GR    C288  288   2.481   0.368   1.900
    1GR    C289  289   2.127   0.491   1.900
    1GR    C290  290   2.269   0.491   1.900
    1GR    C291  291   2.340   0.614   1.900
    1GR    C292  292   2.481   0.614   1.900
    1GR    C293  293   2.127   0.737   1.900
    1GR    C294  294   2.269   0.737   1.900
    1GR    C295  295   2.340   0.860   1.900
    1GR    C296  296   2.481   0.860   1.900
    1GR    C297  297   2.127   0.982   1.900
    1GR    C298  298   2.269   0.982   1.900
    1GR    C299  299   2.340   1.105   1.900
    1GR    C300  300   2.481   1.105   1.900
    1GR    C301  301   2.127   1.228   1.900
    1GR    C302  302   2.269   1.228   1.900
    1GR    C303  303   2.340   1.351   1.900
    1GR    C304  304   2.481   1.351   1.900
    1GR    C305  305   2.127   1.474   1.900
    1GR    C306  306   2.269   1.474   1.900
    1GR    C307  307   2.340   1.596   1.900
    1GR    C308  308   2.481   1.596   1.900
    1GR    C309  309   2.127   1.719   1.900
    1GR    C310  310   2.269   1.719   1.900
    1GR    C311  311   2.340   1.842   1.900
    1GR    C312  312   2.481   1.842   1.900
    1GR    C313  313   2.127   1.965   1.900
    1GR    C314  314   2.269   1.965   1.900
    1GR    C315  315   2.340   2.088   1.900
    1GR    C316  316   2.481   2.088   1.900
    1GR    C317  317   2.127   2.210   1.900
    1GR    C318  318   2.269   2.210   1.900
    1GR    C319  319   2.340   2.333   1.900
    1GR    C320  320   2.481   2.333   1.900
    1GR    C321  321   2.127   2.456   1.900
    1GR    C322  322   2.269   2.456   1.900
    1GR    C323  323   2.340   2.579   1.900
    1GR    C324  324   2.481   2.579   1.900
    1GR    C325  325   2.127   2.702   1.900
    1GR    C326  326   2.269   2.702   1.900
    1GR    C327  327   2.340   2.824   1.900
    1GR    C328  328   2.481   2.824   1.900
    1GR    C329  329   2.127   2.947   1.900
    1GR    C330  330   2.269   2.947   1.900
    1GR    C331  331   2.340   3.070   1.900
    1GR    C332  332   2.481   3.070   1.900
    1GR    C333  333   2.127   3.193   1.900
    1GR    C334  334   2.269   3.193   1.900
    1GR    C335  335   2.340   3.316   1.900
    1GR    C336  336   2.481   3.316   1.900
    1GR    C337  337   2.552   0.000   1.900
    1GR    C338  338   2.694   0.000   1.900
    1GR    C339  339   2.765   0.123   1.900
    1GR    C340  340   2.907   0.123   1.900
    1GR    C341  341   2.552   0.246   1.900
    1GR    C342  342   2.694   0.246   1.900
    1GR    C343  343   2.765   0.368   1.900
    1GR    C344  344   2.907   0.368   1.900
    1GR    C345  345   2.552   0.491   1.900
    1GR    C346  346   2.694   0.491   1.900
    1GR    C347  347   2.765   0.614   1.900
    1GR    C348  348   2.907   0.614   1.900
    1GR    C349  349   2.552   0.737   1.900
    1GR    C350  350   2.694   0.737   1.900
    1GR    C351  351   2.765   0.860   1.900
    1GR    C352  352   2.907   0.860   1.900
    1GR    C353  353   2.552   0.982   1.900
    1GR    C354  354   2.694   0.982   1.900
    1GR    C355  355   2.765   1.105   1.900
    1GR    C356  356   2.907   1.105   1.900
    1GR    C357  357   2.552   1.228   1.900
    1GR    C358  358   2.694   1.228   1.900
    1GR    C359  359   2.765   1.351   1.900
    1GR    C360  360   2.907   1.351   1.900
    1GR    C361  361   2.552   1.474   1.900
    1GR    C362  362   2.694   1.474   1.900
    1GR    C363  363   2.765   1.596   1.900
    1GR    C364  364   2.907   1.596   1.900
    1GR    C365  365   2.552   1.719   1.900
    1GR    C366  366   2.694   1.719   1.900
    1GR    C367  367   2.765   1.842   1.900
    1GR    C368  368   2.907   1.842   1.900
    1GR    C369  369   2.552   1.965   1.900
    1GR    C370  370   2.694   1.965   1.900
    1GR    C371  371   2.765   2.088   1.900
    1GR    C372  372   2.907   2.088   1.900
    1GR    C373  373   2.552   2.210   1.900
    1GR    C374  374   2.694   2.210   1.900
    1GR    C375  375   2.765   2.333   1.900
    1GR    C376  376   2.907   2.333   1.900
    1GR    C377  377   2.552   2.456   1.900
    1GR    C378  378   2.694   2.456   1.900
    1GR    C379  379   2.765   2.579   1.900
    1GR    C380  380   2.907   2.579   1.900
    1GR    C381  381   2.552   2.702   1.900
    1GR    C382  382   2.694   2.702   1.900
    1GR    C383  383   2.765   2.824   1.900
    1GR    C384  384   2.907   2.824   1.900
    1GR    C385  385   2.552   2.947   1.900
    1GR    C386  386   2.694   2.947   1.900
    1GR    C387  387   2.765   3.070   1.900
    1GR    C388  388   2.907   3.070   1.900
    1GR    C389  389   2.552   3.193   1.900
    1GR    C390  390   2.694   3.193   1.900
    1GR    C391  391   2.765   3.316   1.900
    1GR    C392  392   2.907   3.316   1.900
    1GR    C393  393   2.978   0.000   1.900
    1GR    C394  394   3.120   0.000   1.900
    1GR    C395  395   3.191   0.123   1.900
    1GR    C396  396   3.332   0.123   1.900
    1GR    C397  397   2.978   0.246   1.900
    1GR    C398  398   3.120   0.246   1.900
    1GR    C399  399   3.191   0.368   1.900
    1GR    C400  400   3.332   0.368   1.900
    1GR    C401  401   2.978   0.491   1.900
    1GR    C402  402   3.120   0.491   1.900
    1GR    C403  403   3.191   0.614   1.900
    1GR    C404  404   3.332   0.614   1.900
    1GR    C405  405   2.978   0.737   1.900
    1GR    C406  406   3.120   0.737   1.900
    1GR    C407  407   3.191   0.860   1.900
    1GR    C408  408   3.332   0.860   1.900
    1GR    C409  409   2.978   0.982   1.900
    1GR    C410  410   3.120   0.982   1.900
    1GR    C411  411   3.191   1.105   1.900
    1GR    C412  412   3.332   1.105   1.900
    1GR    C413  413   2.978   1.228   1.900
    1GR    C414  414   3.120   1.228   1.900
    1GR    C415  415   3.191   1.351   1.900
    1GR    C416  416   3.332   1.351   1.900
    1GR    C417  417   2.978   1.474   1.900
    1GR    C418  418   3.120   1.474   1.900
    1GR    C419  419   3.191   1.596   1.900
    1GR    C420  420   3.332   1.596   1.900
    1GR    C421  421   2.978   1.719   1.900
    1GR    C422  422   3.120   1.719   1.900
    1GR    C423  423   3.191   1.842   1.900
    1GR    C424  424   3.332   1.842   1.900
    1GR    C425  425   2.978   1.965   1.900
    1GR    C426  426   3.120   1.965   1.900
    1GR    C427  427   3.191   2.088   1.900
    1GR    C428  428   3.332   2.088   1.900
    1GR    C429  429   2.978   2.210   1.900
    1GR    C430  430   3.120   2.210   1.900
    1GR    C431  431   3.191   2.333   1.900
    1GR    C432  432   3.332   2.333   1.900
    1GR    C433  433   2.978   2.456   1.900
    1GR    C434  434   3.120   2.456   1.900
    1GR    C435  435   3.191   2.579   1.900
    1GR    C436  436   3.332   2.579   1.900
    1GR    C437  437   2.978   2.702   1.900
    1GR    C438  438   3.120   2.702   1.900
    1GR    C439  439   3.191   2.824   1.900
    1GR    C440  440   3.332   2.824   1.900
    1GR    C441  441   2.978   2.947   1.900
    1GR    C442  442   3.120   2.947   1.900
    1GR    C443  443   3.191   3.070   1.900
    1GR    C444  444   3.332   3.070   1.900
    1GR    C445  445   2.978   3.193   1.900
    1GR    C446  446   3.120   3.193   1.900
    1GR    C447  447   3.191   3.316   1.900
    1GR    C448  448   3.332   3.316   1.900
    2PMMA   CX1  449   1.206   1.836   2.455
    2PMMA   CA2  450   1.359   1.829   2.474
    2PMMA   CX3  451   1.420   1.887   2.344
    2PMMA    C4  452   1.388   1.918   2.596
    2PMMA    O5  453   1.324   1.912   2.699
    2PMMA   OS6  454   1.477   2.019   2.575
    2PMMA   CE7  455   1.506   2.112   2.678
    2PMMA   CX8  456   1.395   1.678   2.500
    2PMMA   CA9  457   1.540   1.620   2.488
    2PMMA  CX10  458   1.585   1.622   2.339
    2PMMA   C11  459   1.527   1.471   2.529
    2PMMA   O12  460   1.530   1.377   2.452
    2PMMA  OS13  461   1.531   1.451   2.662
    2PMMA  CE14  462   1.529   1.320   2.718
    2PMMA  CX15  463   1.636   1.701   2.583
    2PMMA  CA16  464   1.790   1.677   2.596
    2PMMA  CX17  465   1.835   1.763   2.717
    2PMMA   C18  466   1.819   1.529   2.630
    2PMMA   O19  467   1.850   1.486   2.739
    2PMMA  OS20  468   1.825   1.451   2.519
    2PMMA  CE21  469   1.864   1.314   2.529
    2PMMA  CX22  470   1.862   1.726   2.464
    2PMMA  CA23  471   2.015   1.752   2.457
    2PMMA  CX24  472   2.096   1.628   2.503
    2PMMA   C25  473   2.052   1.883   2.528
    2PMMA   O26  474   1.982   1.982   2.529
    2PMMA  OS27  475   2.165   1.874   2.601
    2PMMA  CE28  476   2.210   1.985   2.676
    2PMMA  CX29  477   2.053   1.779   2.309
    2PMMA  HC30  478   1.150   1.796   2.541
    2PMMA  HC31  479   1.173   1.940   2.443
    2PMMA  HC32  480   1.171   1.781   2.367
    2PMMA  HC33  481   1.528   1.899   2.351
    2PMMA  HC34  482   1.381   1.987   2.322
    2PMMA  HC35  483   1.398   1.825   2.256
    2PMMA  H136  484   1.415   2.145   2.729
    2PMMA  H137  485   1.554   2.200   2.635
    2PMMA  H138  486   1.574   2.067   2.751
    2PMMA  HC39  487   1.357   1.653   2.600
    2PMMA  HC40  488   1.331   1.617   2.435
    2PMMA  HC41  489   1.502   1.599   2.271
    2PMMA  HC42  490   1.627   1.718   2.308
    2PMMA  HC43  491   1.662   1.547   2.318
    2PMMA  H144  492   1.428   1.279   2.711
    2PMMA  H145  493   1.558   1.324   2.823
    2PMMA  H146  494   1.598   1.254   2.666
    2PMMA  HC47  495   1.624   1.806   2.557
    2PMMA  HC48  496   1.592   1.695   2.683
    2PMMA  HC49  497   1.816   1.870   2.701
    2PMMA  HC50  498   1.942   1.752   2.740
    2PMMA  HC51  499   1.782   1.736   2.809
    2PMMA  H152  500   1.794   1.259   2.592
    2PMMA  H153  501   1.964   1.307   2.570
    2PMMA  H154  502   1.863   1.270   2.429
    2PMMA  HC55  503   1.840   1.654   2.384
    2PMMA  HC56  504   1.812   1.817   2.430
    2PMMA  HC57  505   2.204   1.641   2.488
    2PMMA  HC58  506   2.082   1.607   2.610
    2PMMA  HC59  507   2.068   1.538   2.448
    2PMMA  H160  508   2.230   2.069   2.609
    2PMMA  H161  509   2.303   1.957   2.726
    2PMMA  H162  510   2.136   2.013   2.750
    2PMMA  HC63  511   2.033   1.692   2.245
    2PMMA  HC64  512   1.997   1.863   2.267
    2PMMA  HC65  513   2.159   1.802   2.297
    3ANI     C1  514   2.020   0.127   1.381
    3ANI     O1  515   1.930   0.147   1.271
    3ANI     C2  516   1.976   0.160   1.141
    3ANI     C3  517   2.109   0.132   1.107
    3ANI     C4  518   2.152   0.150   0.976
    3ANI     C5  519   2.064   0.191   0.875
    3ANI     C6  520   1.931   0.220   0.908
    3ANI     C7  521   1.887   0.204   1.041
    3ANI     H1  522   2.097   0.205   1.382
    3ANI     H2  523   1.966   0.132   1.476
    3ANI     H3  524   2.069   0.029   1.373
    3ANI     H4  525   2.181   0.100   1.182
    3ANI     H5  526   2.258   0.137   0.953
    3ANI     H6  527   2.100   0.203   0.773
    3ANI     H7  528   1.862   0.253   0.831
    3ANI     H8  529   1.784   0.226   1.067
    4ANI     C1  530   2.182   0.991   0.858
    4ANI     O1  531   2.303   1.000   0.931
    4ANI     C2  532   2.315   1.076   1.042
    4ANI     C3  533   2.221   1.174   1.076
    4ANI     C4  534   2.242   1.253   1.189
    4ANI     C5  535   2.357   1.235   1.266
    4ANI     C6  536   2.446   1.132   1.235
    4ANI     C7  537   2.425   1.053   1.122
    4ANI     H1  538   2.155   1.088   0.814
    4ANI     H2  539   2.192   0.918   0.777
    4ANI     H3  540   2.103   0.958   0.926
    4ANI     H4  541   2.131   1.188   1.016
    4ANI     H5  542   2.170   1.331   1.216
    4ANI     H6  543   2.378   1.300   1.350
    4ANI     H7  544   2.533   1.113   1.297
    4ANI     H8  545   2.495   0.975   1.095
    5ANI     C1  546   0.614   1.972   2.218
    5ANI     O1  547   0.749   1.925   2.205
    5ANI     C2  548   0.857   2.012   2.209
    5ANI     C3  549   0.840   2.151   2.219
    5ANI     C4  550   0.951   2.237   2.225
    5ANI     C5  551   1.081   2.184   2.219
    5ANI     C6  552   1.098   2.045   2.208
    5ANI     C7  553   0.987   1.959   2.204
    5ANI     H1  554   0.583   2.034   2.133
    5ANI     H2  555   0.545   1.887   2.228
    5ANI     H3  556   0.603   2.039   2.304
    5ANI     H4  557   0.740   2.193   2.220
    5ANI     H5  558   0.936   2.344   2.232
    5ANI     H6  559   1.167   2.250   2.221
    5ANI     H7  560   1.198   2.003   2.199
    5ANI     H8  561   1.000   1.852   2.196
    6ANI     C1  562   0.524   1.228   2.574
    6ANI     O1  563   0.653   1.288   2.592
    6ANI     C2  564   0.696   1.397   2.519
    6ANI     C3  565   0.623   1.448   2.410
    6ANI     C4  566   0.672   1.560   2.340
    6ANI     C5  567   0.793   1.620   2.377
    6ANI     C6  568   0.867   1.567   2.485
    6ANI     C7  569   0.818   1.456   2.555
    6ANI     H1  570   0.515   1.184   2.473
    6ANI     H2  571   0.509   1.148   2.647
    6ANI     H3  572   0.444   1.302   2.588
    6ANI     H4  573   0.531   1.401   2.378
    6ANI     H5  574   0.616   1.600   2.255
    6ANI     H6  575   0.830   1.706   2.323
    6ANI     H7  576   0.961   1.613   2.513
    6ANI     H8  577   0.875   1.416   2.638
    7ANI     C1  578   3.068   0.398   3.570
    7ANI     O1  579   2.980   0.455   3.472
    7ANI     C2  580   2.939   0.587   3.477
    7ANI     C3  581   2.973   0.672   3.583
    7ANI     C4  582   2.934   0.807   3.580
    7ANI     C5  583   2.862   0.857   3.470
    7ANI     C6  584   2.828   0.772   3.365
    7ANI     C7  585   2.865   0.636   3.369
    7ANI     H1  586   3.021   0.400   3.669
    7ANI     H2  587   3.090   0.294   3.544
    7ANI     H3  588   3.163   0.454   3.573
    7ANI     H4  589   3.032   0.637   3.667
    7ANI     H5  590   2.961   0.874   3.662
    7ANI     H6  591   2.833   0.962   3.467
    7ANI     H7  592   2.772   0.810   3.279
    7ANI     H8  593   2.839   0.570   3.287
    8ANI     C1  594   2.087   2.535   1.582
    8ANI     O1  595   2.032   2.455   1.478
    8ANI     C2  596   2.006   2.323   1.499
    8ANI     C3  597   2.071   2.250   1.598
    8ANI     C4  598   2.047   2.112   1.611
    8ANI     C5  599   1.952   2.048   1.533
    8ANI     C6  600   1.884   2.123   1.439
    8ANI     C7  601   1.912   2.259   1.420
    8ANI     H1  602   2.190   2.506   1.606
    8ANI     H2  603   2.086   2.642   1.558
    8ANI     H3  604   2.022   2.522   1.670
    8ANI     H4  605   2.151   2.295   1.656
    8ANI     H5  606   2.115   2.050   1.669
    8ANI     H6  607   1.933   1.942   1.545
    8ANI     H7  608   1.800   2.077   1.387
    8ANI     H8  609   1.853   2.319   1.350
    9ANI     C1  610   0.345   1.812   3.578
    9ANI     O1  611   0.454   1.893   3.536
    9ANI     C2  612   0.438   2.023   3.492
    9ANI     C3  613   0.314   2.089   3.489
    9ANI     C4  614   0.307   2.223   3.446
    9ANI     C5  615   0.423   2.291   3.407
    9ANI     C6  616   0.547   2.225   3.409
    9ANI     C7  617   0.553   2.091   3.450
    9ANI     H1  618   0.275   1.796   3.496
    9ANI     H2  619   0.383   1.714   3.611
    9ANI     H3  620   0.293   1.858   3.663
    9ANI     H4  621   0.223   2.038   3.519
    9ANI     H5  622   0.211   2.274   3.444
    9ANI     H6  623   0.418   2.395   3.375
    9ANI     H7  624   0.638   2.275   3.380
    9ANI     H8  625   0.648   2.039   3.451
   10ANI     C1  626   2.845   2.639   3.691
   10ANI     O1  627   2.915   2.699   3.581
   10ANI     C2  628   2.853   2.777   3.485
   10ANI     C3  629   2.720   2.818   3.497
   10ANI     C4  630   2.664   2.900   3.399
   10ANI     C5  631   2.740   2.944   3.290
   10ANI     C6  632   2.872   2.902   3.276
   10ANI     C7  633   2.928   2.819   3.373
   10ANI     H1  634   2.775   2.563   3.654
   10ANI     H2  635   2.916   2.589   3.758
   10ANI     H3  636   2.791   2.715   3.749
   10ANI     H4  637   2.659   2.791   3.583
   10ANI     H5  638   2.560   2.930   3.410
   10ANI     H6  639   2.696   3.010   3.215
   10ANI     H7  640   2.931   2.935   3.190
   10ANI     H8  641   3.031   2.789   3.362
   11ANI     C1  642   1.520   3.093   1.553
   11ANI     O1  643   1.415   3.186   1.578
   11ANI     C2  644   1.286   3.163   1.537
   11ANI     C3  645   1.250   3.059   1.450
   11ANI     C4  646   1.114   3.032   1.426
   11ANI     C5  647   1.014   3.113   1.482
   11ANI     C6  648   1.051   3.223   1.561
   11ANI     C7  649   1.186   3.248   1.587
   11ANI     H1  650   1.537   3.085   1.444
   11ANI     H2  651   1.614   3.125   1.599
   11ANI     H3  652   1.495   2.994   1.593
   11ANI     H4  653   1.324   2.992   1.407
   11ANI     H5  654   1.086   2.947   1.365
   11ANI     H6  655   0.909   3.092   1.464
   11ANI     H7  656   0.975   3.289   1.603
   11ANI     H8  657   1.216   3.335   1.646
   12ANI     C1  658   3.129   1.085   3.336
   12ANI     O1  659   3.085   0.998   3.230
   12ANI     C2  660   3.111   0.862   3.232
   12ANI     C3  661   3.184   0.800   3.336
   12ANI     C4  662   3.207   0.662   3.333
   12ANI     C5  663   3.156   0.584   3.228
   12ANI     C6  664   3.083   0.645   3.125
   12ANI     C7  665   3.061   0.783   3.127
   12ANI     H1  666   3.238   1.082   3.345
   12ANI     H2  667   3.098   1.188   3.314
   12ANI     H3  668   3.085   1.055   3.431
   12ANI     H4  669   3.221   0.857   3.421
   12ANI     H5  670   3.260   0.614   3.415
   12ANI     H6  671   3.171   0.476   3.229
   12ANI     H7  672   3.040   0.583   3.046
   12ANI     H8  673   3.002   0.831   3.049
   13ANI     C1  674   0.125   1.064   0.550
   13ANI     O1  675   0.243   1.085   0.628
   13ANI     C2  676   0.244   1.157   0.743
   13ANI     C3  677   0.145   1.251   0.774
   13ANI     C4  678   0.151   1.322   0.894
   13ANI     C5  679   0.252   1.294   0.987
   13ANI     C6  680   0.352   1.201   0.954
   13ANI     C7  681   0.349   1.134   0.832
   13ANI     H1  682   0.080   1.159   0.520
   13ANI     H2  683   0.151   1.009   0.459
   13ANI     H3  684   0.053   1.004   0.607
   13ANI     H4  685   0.066   1.272   0.703
   13ANI     H5  686   0.075   1.397   0.915
   13ANI     H6  687   0.255   1.346   1.082
   13ANI     H7  688   0.431   1.177   1.024
   13ANI     H8  689   0.426   1.061   0.808
   14ANI     C1  690   1.903   0.963   1.586
   14ANI     O1  691   1.990   1.041   1.507
   14ANI     C2  692   1.998   1.175   1.525
   14ANI     C3  693   1.895   1.252   1.580
   14ANI     C4  694   1.915   1.389   1.600
   14ANI     C5  695   2.038   1.448   1.569
   14ANI     C6  696   2.139   1.372   1.509
   14ANI     C7  697   2.117   1.236   1.486
   14ANI     H1  698   1.797   0.986   1.568
   14ANI     H2  699   1.921   0.855   1.573
   14ANI     H3  700   1.931   0.986   1.689
   14ANI     H4  701   1.800   1.207   1.609
   14ANI     H5  702   1.837   1.450   1.645
   14ANI     H6  703   2.054   1.553   1.592
   14ANI     H7  704   2.235   1.418   1.484
   14ANI     H8  705   2.193   1.172   1.442
   15ANI     C1  706   2.690   1.900   1.145
   15ANI     O1  707   2.720   1.892   1.007
   15ANI     C2  708   2.627   1.934   0.916
   15ANI     C3  709   2.489   1.925   0.939
   15ANI     C4  710   2.401   1.977   0.842
   15ANI     C5  711   2.452   2.035   0.725
   15ANI     C6  712   2.589   2.043   0.703
   15ANI     C7  713   2.676   1.991   0.799
   15ANI     H1  714   2.605   1.835   1.170
   15ANI     H2  715   2.777   1.873   1.206
   15ANI     H3  716   2.660   2.003   1.168
   15ANI     H4  717   2.449   1.881   1.029
   15ANI     H5  718   2.294   1.969   0.857
   15ANI     H6  719   2.384   2.078   0.651
   15ANI     H7  720   2.628   2.091   0.614
   15ANI     H8  721   2.783   2.001   0.787
   16ANI     C1  722   1.486   2.918   0.132
   16ANI     O1  723   1.502   3.017   0.232
   16ANI     C2  724   1.482   2.993   0.366
   16ANI     C3  725   1.449   2.866   0.417
   16ANI     C4  726   1.442   2.848   0.557
   16ANI     C5  727   1.469   2.955   0.644
   16ANI     C6  728   1.499   3.081   0.592
   16ANI     C7  729   1.499   3.100   0.454
   16ANI     H1  730   1.380   2.894   0.118
   16ANI     H2  731   1.526   2.956   0.037
   16ANI     H3  732   1.540   2.827   0.159
   16ANI     H4  733   1.433   2.781   0.352
   16ANI     H5  734   1.415   2.751   0.597
   16ANI     H6  735   1.470   2.942   0.752
   16ANI     H7  736   1.528   3.164   0.656
   16ANI     H8  737   1.527   3.197   0.413
   17ANI     C1  738   0.143   1.853   0.504
   17ANI     O1  739   0.187   1.986   0.474
   17ANI     C2  740   0.183   2.038   0.347
   17ANI     C3  741   0.119   1.973   0.240
   17ANI     C4  742   0.121   2.030   0.112
   17ANI     C5  743   0.187   2.153   0.090
   17ANI     C6  744   0.250   2.218   0.197
   17ANI     C7  745   0.248   2.161   0.325
   17ANI     H1  746   0.191   1.779   0.439
   17ANI     H2  747   0.164   1.830   0.609
   17ANI     H3  748   0.035   1.841   0.487
   17ANI     H4  749   0.069   1.878   0.255
   17ANI     H5  750   0.073   1.979   0.029
   17ANI     H6  751   0.189   2.196  -0.009
   17ANI     H7  752   0.302   2.312   0.179
   17ANI     H8  753   0.300   2.208   0.408
   18ANI     C1  754   3.219   1.549   2.493
   18ANI     O1  755   3.247   1.436   2.411
   18ANI     C2  756   3.147   1.365   2.349
   18ANI     C3  757   3.011   1.400   2.360
   18ANI     C4  758   2.914   1.324   2.293
   18ANI     C5  759   2.953   1.212   2.218
   18ANI     C6  760   3.088   1.175   2.211
   18ANI     C7  761   3.185   1.253   2.275
   18ANI     H1  762   3.153   1.522   2.576
   18ANI     H2  763   3.311   1.591   2.536
   18ANI     H3  764   3.173   1.627   2.431
   18ANI     H4  765   2.979   1.486   2.418
   18ANI     H5  766   2.809   1.351   2.300
   18ANI     H6  767   2.878   1.153   2.166
   18ANI     H7  768   3.117   1.085   2.157
   18ANI     H8  769   3.290   1.226   2.268
   19ANI     C1  770   0.739   3.270   0.524
   19ANI     O1  771   0.754   3.136   0.476
   19ANI     C2  772   0.825   3.108   0.362
   19ANI     C3  773   0.867   3.208   0.272
   19ANI     C4  774   0.946   3.174   0.161
   19ANI     C5  775   0.984   3.040   0.140
   19ANI     C6  776   0.941   2.941   0.229
   19ANI     C7  777   0.858   2.975   0.337
   19ANI     H1  778   0.680   3.330   0.453
   19ANI     H2  779   0.687   3.269   0.621
   19ANI     H3  780   0.837   3.317   0.538
   19ANI     H4  781   0.842   3.313   0.288
   19ANI     H5  782   0.981   3.252   0.093
   19ANI     H6  783   1.049   3.014   0.058
   19ANI     H7  784   0.975   2.839   0.218
   19ANI     H8  785   0.826   2.899   0.407
   20ANI     C1  786   2.418   0.857   2.266
   20ANI     O1  787   2.534   0.941   2.266
   20ANI     C2  788   2.662   0.892   2.287
   20ANI     C3  789   2.697   0.757   2.267
   20ANI     C4  790   2.829   0.715   2.292
   20ANI     C5  791   2.926   0.806   2.336
   20ANI     C6  792   2.891   0.940   2.357
   20ANI     C7  793   2.759   0.983   2.331
   20ANI     H1  794   2.405   0.808   2.363
   20ANI     H2  795   2.328   0.917   2.248
   20ANI     H3  796   2.424   0.780   2.188
   20ANI     H4  797   2.623   0.684   2.234
   20ANI     H5  798   2.859   0.611   2.280
   20ANI     H6  799   3.027   0.773   2.356
   20ANI     H7  800   2.965   1.010   2.394
   20ANI     H8  801   2.731   1.086   2.346
   21ANI     C1  802   2.891   2.391   1.377
   21ANI     O1  803   2.807   2.282   1.414
   21ANI     C2  804   2.678   2.279   1.372
   21ANI     C3  805   2.606   2.397   1.349
   21ANI     C4  806   2.477   2.393   1.295
   21ANI     C5  807   2.420   2.269   1.266
   21ANI     C6  808   2.492   2.150   1.291
   21ANI     C7  809   2.619   2.156   1.349
   21ANI     H1  810   2.864   2.482   1.432
   21ANI     H2  811   2.996   2.367   1.400
   21ANI     H3  812   2.883   2.410   1.270
   21ANI     H4  813   2.651   2.492   1.376
   21ANI     H5  814   2.422   2.485   1.276
   21ANI     H6  815   2.317   2.263   1.233
   21ANI     H7  816   2.447   2.054   1.270
   21ANI     H8  817   2.673   2.065   1.374
   22ANI     C1  818   1.797   0.870   3.369
   22ANI     O1  819   1.890   0.976   3.343
   22ANI     C2  820   1.892   1.052   3.228
   22ANI     C3  821   1.802   1.031   3.122
   22ANI     C4  822   1.810   1.113   3.007
   22ANI     C5  823   1.906   1.214   2.999
   22ANI     C6  824   1.996   1.234   3.105
   22ANI     C7  825   1.987   1.154   3.219
   22ANI     H1  826   1.810   0.788   3.296
   22ANI     H2  827   1.814   0.829   3.469
   22ANI     H3  828   1.693   0.905   3.363
   22ANI     H4  829   1.725   0.954   3.128
   22ANI     H5  830   1.741   1.098   2.925
   22ANI     H6  831   1.910   1.278   2.911
   22ANI     H7  832   2.070   1.313   3.100
   22ANI     H8  833   2.053   1.173   3.303
   23ANI     C1  834   2.988   1.575   0.399
   23ANI     O1  835   3.058   1.451   0.406
   23ANI     C2  836   3.104   1.400   0.525
   23ANI     C3  837   3.074   1.456   0.652
   23ANI     C4  838   3.122   1.395   0.769
   23ANI     C5  839   3.197   1.277   0.760
   23ANI     C6  840   3.225   1.221   0.635
   23ANI     C7  841   3.183   1.286   0.518
   23ANI     H1  842   3.057   1.658   0.418
   23ANI     H2  843   2.943   1.588   0.300
   23ANI     H3  844   2.908   1.577   0.474
   23ANI     H4  845   3.012   1.545   0.661
   23ANI     H5  846   3.100   1.437   0.867
   23ANI     H6  847   3.234   1.229   0.850
   23ANI     H7  848   3.279   1.127   0.629
   23ANI     H8  849   3.206   1.245   0.421
   24ANI     C1  850   3.072   2.843   2.284
   24ANI     O1  851   3.155   2.872   2.397
   24ANI     C2  852   3.228   2.776   2.463
   24ANI     C3  853   3.240   2.645   2.414
   24ANI     C4  854   3.317   2.552   2.485
   24ANI     C5  855   3.381   2.588   2.604
   24ANI     C6  856   3.369   2.719   2.654
   24ANI     C7  857   3.293   2.812   2.582
   24ANI     H1  858   2.992   2.773   2.311
   24ANI     H2  859   3.024   2.935   2.248
   24ANI     H3  860   3.130   2.801   2.201
   24ANI     H4  861   3.192   2.615   2.322
   24ANI     H5  862   3.326   2.451   2.444
   24ANI     H6  863   3.442   2.516   2.658
   24ANI     H7  864   3.419   2.747   2.746
   24ANI     H8  865   3.285   2.914   2.620
   25ANI     C1  866   2.348   1.732   3.438
   25ANI     O1  867   2.458   1.824   3.437
   25ANI     C2  868   2.456   1.940   3.363
   25ANI     C3  869   2.349   1.975   3.278
   25ANI     C4  870   2.351   2.098   3.210
   25ANI     C5  871   2.461   2.185   3.225
   25ANI     C6  872   2.568   2.149   3.307
   25ANI     C7  873   2.566   2.026   3.375
   25ANI     H1  874   2.333   1.689   3.338
   25ANI     H2  875   2.368   1.649   3.508
   25ANI     H3  876   2.256   1.782   3.470
   25ANI     H4  877   2.262   1.910   3.267
   25ANI     H5  878   2.268   2.128   3.148
   25ANI     H6  879   2.462   2.282   3.177
   25ANI     H7  880   2.650   2.219   3.321
   25ANI     H8  881   2.646   1.999   3.443
   26ANI     C1  882   1.671   2.350   0.089
   26ANI     O1  883   1.789   2.323   0.012
   26ANI     C2  884   1.914   2.341   0.068
   26ANI     C3  885   1.934   2.426   0.177
   26ANI     C4  886   2.062   2.448   0.229
   26ANI     C5  887   2.171   2.377   0.178
   26ANI     C6  888   2.149   2.283   0.077
   26ANI     C7  889   2.023   2.267   0.020
   26ANI     H1  890   1.653   2.458   0.098
   26ANI     H2  891   1.583   2.305   0.041
   26ANI     H3  892   1.680   2.307   0.190
   26ANI     H4  893   1.849   2.472   0.226
   26ANI     H5  894   2.077   2.514   0.314
   26ANI     H6  895   2.269   2.391   0.222
   26ANI     H7  896   2.232   2.222   0.043
   26ANI     H8  897   2.009   2.193  -0.058
   27ANI     C1  898   1.650   2.322   0.616
   27ANI     O1  899   1.568   2.318   0.500
   27ANI     C2  900   1.490   2.208   0.477
   27ANI     C3  901   1.462   2.112   0.577
   27ANI     C4  902   1.381   2.003   0.547
   27ANI     C5  903   1.326   1.990   0.419
   27ANI     C6  904   1.358   2.081   0.317
   27ANI     C7  905   1.439   2.192   0.348
   27ANI     H1  906   1.719   2.237   0.614
   27ANI     H2  907   1.707   2.416   0.620
   27ANI     H3  908   1.593   2.309   0.708
   27ANI     H4  909   1.502   2.120   0.678
   27ANI     H5  910   1.364   1.926   0.621
   27ANI     H6  911   1.260   1.906   0.399
   27ANI     H7  912   1.317   2.069   0.218
   27ANI     H8  913   1.460   2.267   0.272
   28ANI     C1  914   1.123   2.155   1.142
   28ANI     O1  915   1.055   2.165   1.018
   28ANI     C2  916   0.922   2.133   1.005
   28ANI     C3  917   0.837   2.109   1.115
   28ANI     C4  918   0.701   2.080   1.093
   28ANI     C5  919   0.653   2.067   0.962
   28ANI     C6  920   0.739   2.088   0.853
   28ANI     C7  921   0.871   2.126   0.876
   28ANI     H1  922   1.144   2.049   1.165
   28ANI     H2  923   1.217   2.211   1.136
   28ANI     H3  924   1.066   2.198   1.225
   28ANI     H4  925   0.874   2.112   1.217
   28ANI     H5  926   0.636   2.061   1.178
   28ANI     H6  927   0.550   2.035   0.946
   28ANI     H7  928   0.703   2.075   0.752
   28ANI     H8  929   0.940   2.143   0.793
   29ANI     C1  930   2.773   3.263   0.168
   29ANI     O1  931   2.638   3.290   0.133
   29ANI     C2  932   2.534   3.229   0.199
   29ANI     C3  933   2.545   3.104   0.265
   29ANI     C4  934   2.437   3.051   0.336
   29ANI     C5  935   2.315   3.119   0.336
   29ANI     C6  936   2.302   3.239   0.264
   29ANI     C7  937   2.411   3.295   0.199
   29ANI     H1  938   2.794   3.156   0.156
   29ANI     H2  939   2.841   3.320   0.104
   29ANI     H3  940   2.792   3.292   0.272
   29ANI     H4  941   2.637   3.047   0.260
   29ANI     H5  942   2.446   2.957   0.389
   29ANI     H6  943   2.230   3.079   0.391
   29ANI     H7  944   2.207   3.292   0.262
   29ANI     H8  945   2.401   3.390   0.147
   30ANI     C1  946   0.785   1.874   0.350
   30ANI     O1  947   0.741   1.763   0.270
   30ANI     C2  948   0.714   1.643   0.330
   30ANI     C3  949   0.774   1.607   0.452
   30ANI     C4  950   0.736   1.488   0.517
   30ANI     C5  951   0.640   1.405   0.459
   30ANI     C6  952   0.581   1.441   0.336
   30ANI     C7  953   0.621   1.558   0.270
   30ANI     H1  954   0.895   1.872   0.358
   30ANI     H2  955   0.754   1.968   0.303
   30ANI     H3  956   0.742   1.870   0.450
   30ANI     H4  957   0.850   1.669   0.496
   30ANI     H5  958   0.781   1.463   0.612
   30ANI     H6  959   0.610   1.314   0.510
   30ANI     H7  960   0.502   1.382   0.292
   30ANI     H8  961   0.573   1.588   0.177
   31ANI     C1  962   2.892   2.145   0.379
   31ANI     O1  963   2.979   2.240   0.439
   31ANI     C2  964   3.015   2.234   0.571
   31ANI     C3  965   2.971   2.131   0.655
   31ANI     C4  966   3.021   2.122   0.786
   31ANI     C5  967   3.112   2.217   0.833
   31ANI     C6  968   3.146   2.326   0.753
   31ANI     C7  969   3.099   2.333   0.621
   31ANI     H1  970   2.796   2.144   0.433
   31ANI     H2  971   2.872   2.172   0.274
   31ANI     H3  972   2.935   2.044   0.381
   31ANI     H4  973   2.901   2.056   0.619
   31ANI     H5  974   2.988   2.043   0.853
   31ANI     H6  975   3.151   2.208   0.934
   31ANI     H7  976   3.208   2.406   0.792
   31ANI     H8  977   3.128   2.416   0.558
   32ANI     C1  978   1.979   1.293   3.682
   32ANI     O1  979   1.845   1.284   3.727
   32ANI     C2  980   1.742   1.237   3.648
   32ANI     C3  981   1.758   1.195   3.515
   32ANI     C4  982   1.644   1.154   3.442
   32ANI     C5  983   1.518   1.150   3.503
   32ANI     C6  984   1.503   1.192   3.635
   32ANI     C7  985   1.616   1.234   3.705
   32ANI     H1  986   1.986   1.331   3.579
   32ANI     H2  987   2.035   1.362   3.746
   32ANI     H3  988   2.025   1.194   3.689
   32ANI     H4  989   1.855   1.196   3.467
   32ANI     H5  990   1.654   1.125   3.338
   32ANI     H6  991   1.431   1.114   3.449
   32ANI     H7  992   1.405   1.192   3.683
   32ANI     H8  993   1.610   1.267   3.808
   33ANI     C1  994   1.185   2.375   3.214
   33ANI     O1  995   1.060   2.406   3.279
   33ANI     C2  996   0.943   2.430   3.210
   33ANI     C3  997   0.939   2.436   3.069
   33ANI     C4  998   0.821   2.473   3.005
   33ANI     C5  999   0.703   2.492   3.077
   33ANI     C6 1000   0.704   2.479   3.217
   33ANI     C7 1001   0.825   2.449   3.283
   33ANI     H1 1002   1.229   2.462   3.164
   33ANI     H2 1003   1.259   2.343   3.288
   33ANI     H3 1004   1.172   2.296   3.139
   33ANI     H4 1005   1.027   2.417   3.010
   33ANI     H5 1006   0.822   2.490   2.897
   33ANI     H6 1007   0.611   2.520   3.026
   33ANI     H7 1008   0.613   2.495   3.274
   33ANI     H8 1009   0.829   2.440   3.391
   34ANI     C1 1010   1.155   0.913   3.661
   34ANI     O1 1011   1.190   0.867   3.532
   34ANI     C2 1012   1.125   0.913   3.421
   34ANI     C3 1013   1.009   0.992   3.427
   34ANI     C4 1014   0.947   1.032   3.307
   34ANI     C5 1015   1.004   0.997   3.184
   34ANI     C6 1016   1.120   0.919   3.180
   34ANI     C7 1017   1.179   0.876   3.299
   34ANI     H1 1018   1.052   0.884   3.686
   34ANI     H2 1019   1.223   0.868   3.734
   34ANI     H3 1020   1.165   1.022   3.666
   34ANI     H4 1021   0.966   1.024   3.521
   34ANI     H5 1022   0.856   1.091   3.310
   34ANI     H6 1023   0.960   1.031   3.091
   34ANI     H7 1024   1.166   0.892   3.085
   34ANI     H8 1025   1.269   0.815   3.298
   35ANI     C1 1026   0.619   0.784   3.513
   35ANI     O1 1027   0.513   0.869   3.562
   35ANI     C2 1028   0.528   1.005   3.564
   35ANI     C3 1029   0.651   1.067   3.536
   35ANI     C4 1030   0.663   1.206   3.538
   35ANI     C5 1031   0.550   1.286   3.563
   35ANI     C6 1032   0.425   1.226   3.589
   35ANI     C7 1033   0.415   1.085   3.593
   35ANI     H1 1034   0.708   0.793   3.575
   35ANI     H2 1035   0.587   0.679   3.512
   35ANI     H3 1036   0.648   0.812   3.411
   35ANI     H4 1037   0.739   1.008   3.513
   35ANI     H5 1038   0.760   1.250   3.520
   35ANI     H6 1039   0.559   1.394   3.564
   35ANI     H7 1040   0.339   1.287   3.610
   35ANI     H8 1041   0.321   1.037   3.615
   36ANI     C1 1042   1.514   2.394   3.061
   36ANI     O1 1043   1.470   2.504   3.139
   36ANI     C2 1044   1.488   2.635   3.103
   36ANI     C3 1045   1.540   2.670   2.977
   36ANI     C4 1046   1.551   2.805   2.942
   36ANI     C5 1047   1.514   2.906   3.032
   36ANI     C6 1048   1.465   2.871   3.159
   36ANI     C7 1049   1.452   2.736   3.194
   36ANI     H1 1050   1.623   2.394   3.053
   36ANI     H2 1051   1.483   2.300   3.109
   36ANI     H3 1052   1.470   2.397   2.961
   36ANI     H4 1053   1.568   2.594   2.904
   36ANI     H5 1054   1.588   2.832   2.843
   36ANI     H6 1055   1.522   3.010   3.004
   36ANI     H7 1056   1.436   2.948   3.230
   36ANI     H8 1057   1.413   2.709   3.291
   37ANI     C1 1058   0.864   2.936   2.210
   37ANI     O1 1059   0.804   2.973   2.334
   37ANI     C2 1060   0.703   3.067   2.338
   37ANI     C3 1061   0.675   3.151   2.229
   37ANI     C4 1062   0.574   3.248   2.238
   37ANI     C5 1063   0.503   3.263   2.357
   37ANI     C6 1064   0.530   3.180   2.465
   37ANI     C7 1065   0.628   3.079   2.455
   37ANI     H1 1066   0.918   3.020   2.166
   37ANI     H2 1067   0.935   2.853   2.223
   37ANI     H3 1068   0.785   2.900   2.143
   37ANI     H4 1069   0.735   3.146   2.139
   37ANI     H5 1070   0.553   3.315   2.155
   37ANI     H6 1071   0.427   3.341   2.366
   37ANI     H7 1072   0.477   3.197   2.558
   37ANI     H8 1073   0.652   3.013   2.538
   38ANI     C1 1074   1.083   1.762   0.132
   38ANI     O1 1075   1.049   1.685   0.248
   38ANI     C2 1076   1.144   1.638   0.334
   38ANI     C3 1077   1.279   1.676   0.324
   38ANI     C4 1078   1.369   1.635   0.422
   38ANI     C5 1079   1.331   1.546   0.523
   38ANI     C6 1080   1.200   1.499   0.526
   38ANI     C7 1081   1.106   1.548   0.435
   38ANI     H1 1082   1.150   1.704   0.067
   38ANI     H2 1083   0.993   1.787   0.076
   38ANI     H3 1084   1.134   1.855   0.161
   38ANI     H4 1085   1.315   1.742   0.246
   38ANI     H5 1086   1.472   1.671   0.420
   38ANI     H6 1087   1.405   1.515   0.596
   38ANI     H7 1088   1.167   1.432   0.605
   38ANI     H8 1089   1.004   1.511   0.439
   39ANI     C1 1090   2.206   1.733   0.659
   39ANI     O1 1091   2.237   1.864   0.612
   39ANI     C2 1092   2.251   1.895   0.479
   39ANI     C3 1093   2.277   1.802   0.377
   39ANI     C4 1094   2.278   1.844   0.243
   39ANI     C5 1095   2.247   1.976   0.210
   39ANI     C6 1096   2.225   2.068   0.313
   39ANI     C7 1097   2.231   2.028   0.445
   39ANI     H1 1098   2.293   1.666   0.659
   39ANI     H2 1099   2.166   1.742   0.761
   39ANI     H3 1100   2.131   1.682   0.597
   39ANI     H4 1101   2.293   1.698   0.402
   39ANI     H5 1102   2.300   1.774   0.163
   39ANI     H6 1103   2.239   2.005   0.106
   39ANI     H7 1104   2.197   2.171   0.294
   39ANI     H8 1105   2.205   2.100   0.522
   40ANI     C1 1106   0.857   3.182   1.072
   40ANI     O1 1107   0.951   3.210   0.967
   40ANI     C2 1108   1.086   3.190   0.983
   40ANI     C3 1109   1.145   3.159   1.108
   40ANI     C4 1110   1.284   3.141   1.117
   40ANI     C5 1111   1.364   3.148   1.002
   40ANI     C6 1112   1.304   3.176   0.878
   40ANI     C7 1113   1.166   3.200   0.870
   40ANI     H1 1114   0.874   3.249   1.157
   40ANI     H2 1115   0.755   3.196   1.035
   40ANI     H3 1116   0.868   3.078   1.106
   40ANI     H4 1117   1.084   3.153   1.198
   40ANI     H5 1118   1.330   3.123   1.213
   40ANI     H6 1119   1.471   3.132   1.009
   40ANI     H7 1120   1.364   3.181   0.788
   40ANI     H8 1121   1.120   3.224   0.774
   41ANI     C1 1122   2.253   2.464   3.044
   41ANI     O1 1123   2.352   2.548   3.104
   41ANI     C2 1124   2.487   2.534   3.080
   41ANI     C3 1125   2.534   2.459   2.972
   41ANI     C4 1126   2.671   2.451   2.944
   41ANI     C5 1127   2.763   2.519   3.025
   41ANI     C6 1128   2.717   2.593   3.135
   41ANI     C7 1129   2.580   2.603   3.160
   41ANI     H1 1130   2.279   2.358   3.057
   41ANI     H2 1131   2.156   2.481   3.091
   41ANI     H3 1132   2.244   2.485   2.936
   41ANI     H4 1133   2.462   2.411   2.906
   41ANI     H5 1134   2.706   2.396   2.857
   41ANI     H6 1135   2.868   2.515   3.000
   41ANI     H7 1136   2.787   2.648   3.197
   41ANI     H8 1137   2.545   2.671   3.237
   42ANI     C1 1138   1.540   0.088   3.115
   42ANI     O1 1139   1.483   0.184   3.025
   42ANI     C2 1140   1.555   0.240   2.922
   42ANI     C3 1141   1.673   0.181   2.873
   42ANI     C4 1142   1.743   0.240   2.767
   42ANI     C5 1143   1.698   0.362   2.715
   42ANI     C6 1144   1.582   0.423   2.764
   42ANI     C7 1145   1.509   0.360   2.866
   42ANI     H1 1146   1.630   0.128   3.163
   42ANI     H2 1147   1.467   0.063   3.193
   42ANI     H3 1148   1.565  -0.005   3.062
   42ANI     H4 1149   1.714   0.092   2.921
   42ANI     H5 1150   1.835   0.195   2.731
   42ANI     H6 1151   1.757   0.411   2.638
   42ANI     H7 1152   1.548   0.518   2.723
   42ANI     H8 1153   1.418   0.406   2.903
   43ANI     C1 1154   0.581   1.208   0.084
   43ANI     O1 1155   0.655   1.088   0.067
   43ANI     C2 1156   0.750   1.050   0.158
   43ANI     C3 1157   0.786   1.131   0.268
   43ANI     C4 1158   0.878   1.084   0.362
   43ANI     C5 1159   0.934   0.956   0.346
   43ANI     C6 1160   0.902   0.878   0.234
   43ANI     C7 1161   0.810   0.926   0.141
   43ANI     H1 1162   0.644   1.296   0.063
   43ANI     H2 1163   0.493   1.210   0.018
   43ANI     H3 1164   0.542   1.213   0.186
   43ANI     H4 1165   0.744   1.230   0.282
   43ANI     H5 1166   0.907   1.147   0.445
   43ANI     H6 1167   1.001   0.918   0.423
   43ANI     H7 1168   0.948   0.780   0.221
   43ANI     H8 1169   0.781   0.867   0.054
   44ANI     C1 1170   3.165   2.132   0.162
   44ANI     O1 1171   3.119   2.267   0.173
   44ANI     C2 1172   3.181   2.359   0.256
   44ANI     C3 1173   3.307   2.336   0.314
   44ANI     C4 1174   3.365   2.434   0.396
   44ANI     C5 1175   3.299   2.556   0.418
   44ANI     C6 1176   3.172   2.578   0.362
   44ANI     C7 1177   3.113   2.478   0.282
   44ANI     H1 1178   3.166   2.084   0.261
   44ANI     H2 1179   3.098   2.075   0.097
   44ANI     H3 1180   3.266   2.128   0.120
   44ANI     H4 1181   3.360   2.243   0.298
   44ANI     H5 1182   3.462   2.416   0.441
   44ANI     H6 1183   3.344   2.633   0.481
   44ANI     H7 1184   3.120   2.671   0.381
   44ANI     H8 1185   3.015   2.494   0.238
   45ANI     C1 1186   1.961   0.612   2.760
   45ANI     O1 1187   1.867   0.657   2.858
   45ANI     C2 1188   1.823   0.576   2.961
   45ANI     C3 1189   1.859   0.440   2.973
   45ANI     C4 1190   1.811   0.363   3.080
   45ANI     C5 1191   1.727   0.421   3.176
   45ANI     C6 1192   1.692   0.556   3.167
   45ANI     C7 1193   1.742   0.633   3.060
   45ANI     H1 1194   1.919   0.533   2.698
   45ANI     H2 1195   1.990   0.696   2.695
   45ANI     H3 1196   2.052   0.573   2.808
   45ANI     H4 1197   1.926   0.394   2.901
   45ANI     H5 1198   1.840   0.259   3.089
   45ANI     H6 1199   1.691   0.360   3.259
   45ANI     H7 1200   1.629   0.602   3.243
   45ANI     H8 1201   1.721   0.740   3.055
   46ANI     C1 1202   1.233   0.984   0.506
   46ANI     O1 1203   1.373   1.011   0.521
   46ANI     C2 1204   1.417   1.103   0.611
   46ANI     C3 1205   1.343   1.219   0.639
   46ANI     C4 1206   1.384   1.307   0.740
   46ANI     C5 1207   1.501   1.281   0.811
   46ANI     C6 1208   1.578   1.169   0.779
   46ANI     C7 1209   1.538   1.081   0.677
   46ANI     H1 1210   1.177   1.072   0.474
   46ANI     H2 1211   1.218   0.905   0.432
   46ANI     H3 1212   1.191   0.949   0.601
   46ANI     H4 1213   1.250   1.237   0.585
   46ANI     H5 1214   1.324   1.393   0.767
   46ANI     H6 1215   1.533   1.349   0.890
   46ANI     H7 1216   1.669   1.151   0.835
   46ANI     H8 1217   1.599   0.995   0.651
   47ANI     C1 1218   0.507   1.438   2.858
   47ANI     O1 1219   0.404   1.533   2.882
   47ANI     C2 1220   0.334   1.538   3.000
   47ANI     C3 1221   0.354   1.444   3.102
   47ANI     C4 1222   0.279   1.453   3.221
   47ANI     C5 1223   0.189   1.558   3.239
   47ANI     C6 1224   0.172   1.655   3.139
   47ANI     C7 1225   0.241   1.642   3.017
   47ANI     H1 1226   0.467   1.335   2.856
   47ANI     H2 1227   0.556   1.458   2.762
   47ANI     H3 1228   0.583   1.445   2.937
   47ANI     H4 1229   0.427   1.365   3.089
   47ANI     H5 1230   0.292   1.379   3.300
   47ANI     H6 1231   0.132   1.566   3.332
   47ANI     H7 1232   0.106   1.740   3.155
   47ANI     H8 1233   0.228   1.714   2.937
   48ANI     C1 1234   0.537   1.723   3.287
   48ANI     O1 1235   0.593   1.854   3.271
   48ANI     C2 1236   0.564   1.933   3.162
   48ANI     C3 1237   0.479   1.889   3.059
   48ANI     C4 1238   0.454   1.971   2.949
   48ANI     C5 1239   0.513   2.097   2.940
   48ANI     C6 1240   0.598   2.142   3.042
   48ANI     C7 1241   0.624   2.060   3.152
   48ANI     H1 1242   0.571   1.657   3.206
   48ANI     H2 1243   0.569   1.681   3.383
   48ANI     H3 1244   0.428   1.728   3.285
   48ANI     H4 1245   0.437   1.789   3.062
   48ANI     H5 1246   0.391   1.932   2.869
   48ANI     H6 1247   0.497   2.159   2.852
   48ANI     H7 1248   0.648   2.239   3.034
   48ANI     H8 1249   0.694   2.092   3.229
   49ANI     C1 1250   0.515   1.442   1.037
   49ANI     O1 1251   0.635   1.494   1.090
   49ANI     C2 1252   0.754   1.428   1.076
   49ANI     C3 1253   0.761   1.295   1.031
   49ANI     C4 1254   0.886   1.234   1.019
   49ANI     C5 1255   1.002   1.308   1.048
   49ANI     C6 1256   0.995   1.439   1.094
   49ANI     C7 1257   0.870   1.498   1.109
   49ANI     H1 1258   0.484   1.359   1.101
   49ANI     H2 1259   0.436   1.518   1.038
   49ANI     H3 1260   0.529   1.409   0.933
   49ANI     H4 1261   0.672   1.236   1.008
   49ANI     H5 1262   0.893   1.130   0.989
   49ANI     H6 1263   1.101   1.262   1.041
   49ANI     H7 1264   1.086   1.492   1.119
   49ANI     H8 1265   0.863   1.600   1.147
   50ANI     C1 1266   1.987   3.388   3.515
   50ANI     O1 1267   1.983   3.254   3.561
   50ANI     C2 1268   2.091   3.197   3.625
   50ANI     C3 1269   2.213   3.265   3.644
   50ANI     C4 1270   2.316   3.206   3.720
   50ANI     C5 1271   2.297   3.079   3.776
   50ANI     C6 1272   2.176   3.012   3.754
   50ANI     C7 1273   2.074   3.069   3.678
   50ANI     H1 1274   2.073   3.403   3.449
   50ANI     H2 1275   1.896   3.412   3.457
   50ANI     H3 1276   1.992   3.457   3.600
   50ANI     H4 1277   2.232   3.362   3.600
   50ANI     H5 1278   2.410   3.258   3.733
   50ANI     H6 1279   2.375   3.035   3.837
   50ANI     H7 1280   2.157   2.917   3.802
   50ANI     H8 1281   1.980   3.016   3.665
   51ANI     C1 1282   2.893   2.053   3.307
   51ANI     O1 1283   3.024   1.994   3.307
   51ANI     C2 1284   3.139   2.071   3.298
   51ANI     C3 1285   3.138   2.210   3.316
   51ANI     C4 1286   3.258   2.283   3.301
   51ANI     C5 1287   3.377   2.218   3.268
   51ANI     C6 1288   3.379   2.079   3.253
   51ANI     C7 1289   3.259   2.006   3.269
   51ANI     H1 1290   2.881   2.122   3.223
   51ANI     H2 1291   2.818   1.974   3.297
   51ANI     H3 1292   2.875   2.107   3.401
   51ANI     H4 1293   3.046   2.262   3.341
   51ANI     H5 1294   3.259   2.390   3.314
   51ANI     H6 1295   3.468   2.276   3.254
   51ANI     H7 1296   3.471   2.028   3.226
   51ANI     H8 1297   3.259   1.899   3.252
   52ANI     C1 1298   3.072   3.425   0.352
   52ANI     O1 1299   3.138   3.299   0.332
   52ANI     C2 1300   3.226   3.248   0.425
   52ANI     C3 1301   3.275   3.325   0.532
   52ANI     C4 1302   3.353   3.265   0.632
   52ANI     C5 1303   3.385   3.129   0.624
   52ANI     C6 1304   3.342   3.053   0.514
   52ANI     C7 1305   3.264   3.113   0.413
   52ANI     H1 1306   3.144   3.507   0.344
   52ANI     H2 1307   2.994   3.438   0.276
   52ANI     H3 1308   3.024   3.428   0.450
   52ANI     H4 1309   3.248   3.430   0.542
   52ANI     H5 1310   3.387   3.323   0.718
   52ANI     H6 1311   3.439   3.083   0.706
   52ANI     H7 1312   3.361   2.946   0.511
   52ANI     H8 1313   3.226   3.052   0.332
   53ANI     C1 1314   1.619   1.877   0.427
   53ANI     O1 1315   1.694   1.786   0.351
   53ANI     C2 1316   1.770   1.827   0.245
   53ANI     C3 1317   1.764   1.959   0.199
   53ANI     C4 1318   1.854   2.000   0.102
   53ANI     C5 1319   1.952   1.914   0.053
   53ANI     C6 1320   1.958   1.783   0.099
   53ANI     C7 1321   1.862   1.736   0.190
   53ANI     H1 1322   1.537   1.911   0.363
   53ANI     H2 1323   1.580   1.829   0.518
   53ANI     H3 1324   1.677   1.965   0.457
   53ANI     H4 1325   1.695   2.031   0.241
   53ANI     H5 1326   1.845   2.102   0.065
   53ANI     H6 1327   2.024   1.951  -0.020
   53ANI     H7 1328   2.036   1.717   0.062
   53ANI     H8 1329   1.865   1.635   0.228
   54ANI     C1 1330   1.354   0.407   3.219
   54ANI     O1 1331   1.451   0.386   3.320
   54ANI     C2 1332   1.439   0.448   3.441
   54ANI     C3 1333   1.317   0.507   3.484
   54ANI     C4 1334   1.313   0.576   3.605
   54ANI     C5 1335   1.429   0.587   3.683
   54ANI     C6 1336   1.547   0.522   3.645
   54ANI     C7 1337   1.552   0.455   3.523
   54ANI     H1 1338   1.337   0.515   3.205
   54ANI     H2 1339   1.388   0.368   3.122
   54ANI     H3 1340   1.260   0.357   3.246
   54ANI     H4 1341   1.227   0.500   3.425
   54ANI     H5 1342   1.220   0.622   3.639
   54ANI     H6 1343   1.428   0.644   3.776
   54ANI     H7 1344   1.634   0.526   3.709
   54ANI     H8 1345   1.645   0.408   3.490
   55ANI     C1 1346   2.474   2.117   2.908
   55ANI     O1 1347   2.540   2.185   2.801
   55ANI     C2 1348   2.478   2.271   2.713
   55ANI     C3 1349   2.338   2.289   2.710
   55ANI     C4 1350   2.282   2.385   2.624
   55ANI     C5 1351   2.365   2.464   2.542
   55ANI     C6 1352   2.504   2.444   2.544
   55ANI     C7 1353   2.560   2.349   2.629
   55ANI     H1 1354   2.420   2.029   2.871
   55ANI     H2 1355   2.549   2.082   2.980
   55ANI     H3 1356   2.405   2.184   2.960
   55ANI     H4 1357   2.273   2.233   2.776
   55ANI     H5 1358   2.175   2.400   2.621
   55ANI     H6 1359   2.323   2.540   2.477
   55ANI     H7 1360   2.568   2.504   2.481
   55ANI     H8 1361   2.668   2.339   2.634
   56ANI     C1 1362   2.800   3.288   3.076
   56ANI     O1 1363   2.705   3.306   2.970
   56ANI     C2 1364   2.582   3.362   2.991
   56ANI     C3 1365   2.545   3.420   3.114
   56ANI     C4 1366   2.414   3.466   3.135
   56ANI     C5 1367   2.324   3.469   3.027
   56ANI     C6 1368   2.362   3.419   2.902
   56ANI     C7 1369   2.489   3.361   2.886
   56ANI     H1 1370   2.758   3.228   3.157
   56ANI     H2 1371   2.889   3.235   3.038
   56ANI     H3 1372   2.832   3.385   3.116
   56ANI     H4 1373   2.617   3.427   3.195
   56ANI     H5 1374   2.386   3.504   3.232
   56ANI     H6 1375   2.223   3.508   3.042
   56ANI     H7 1376   2.292   3.420   2.819
   56ANI     H8 1377   2.518   3.314   2.792
   57ANI     C1 1378   0.101   0.369   3.647
   57ANI     O1 1379   0.115   0.438   3.522
   57ANI     C2 1380   0.101   0.575   3.513
   57ANI     C3 1381   0.057   0.655   3.620
   57ANI     C4 1382   0.049   0.795   3.605
   57ANI     C5 1383   0.084   0.854   3.482
   57ANI     C6 1384   0.123   0.774   3.374
   57ANI     C7 1385   0.131   0.635   3.390
   57ANI     H1 1386  -0.001   0.379   3.686
   57ANI     H2 1387   0.122   0.262   3.633
   57ANI     H3 1388   0.172   0.408   3.721
   57ANI     H4 1389   0.029   0.612   3.715
   57ANI     H5 1390   0.016   0.856   3.688
   57ANI     H6 1391   0.079   0.962   3.471
   57ANI     H7 1392   0.147   0.819   3.279
   57ANI     H8 1393   0.162   0.572   3.306
   58ANI     C1 1394   1.744   1.658   0.941
   58ANI     O1 1395   1.656   1.661   1.052
   58ANI     C2 1396   1.574   1.767   1.075
   58ANI     C3 1397   1.554   1.872   0.983
   58ANI     C4 1398   1.479   1.985   1.021
   58ANI     C5 1399   1.418   1.988   1.148
   58ANI     C6 1400   1.427   1.879   1.234
   58ANI     C7 1401   1.510   1.771   1.199
   58ANI     H1 1402   1.820   1.737   0.950
   58ANI     H2 1403   1.795   1.561   0.936
   58ANI     H3 1404   1.687   1.672   0.848
   58ANI     H4 1405   1.597   1.871   0.884
   58ANI     H5 1406   1.470   2.069   0.954
   58ANI     H6 1407   1.365   2.077   1.180
   58ANI     H7 1408   1.375   1.880   1.330
   58ANI     H8 1409   1.529   1.690   1.269
   59ANI     C1 1410   2.825   0.734   1.199
   59ANI     O1 1411   2.796   0.840   1.110
   59ANI     C2 1412   2.780   0.967   1.158
   59ANI     C3 1413   2.807   1.004   1.291
   59ANI     C4 1414   2.791   1.137   1.330
   59ANI     C5 1415   2.746   1.234   1.239
   59ANI     C6 1416   2.716   1.195   1.108
   59ANI     C7 1417   2.734   1.063   1.068
   59ANI     H1 1418   2.750   0.735   1.279
   59ANI     H2 1419   2.821   0.637   1.148
   59ANI     H3 1420   2.925   0.747   1.244
   59ANI     H4 1421   2.840   0.931   1.365
   59ANI     H5 1422   2.810   1.164   1.433
   59ANI     H6 1423   2.730   1.336   1.271
   59ANI     H7 1424   2.673   1.266   1.038
   59ANI     H8 1425   2.707   1.030   0.969
   60ANI     C1 1426   0.159   0.592   0.469
   60ANI     O1 1427   0.223   0.697   0.543
   60ANI     C2 1428   0.306   0.789   0.483
   60ANI     C3 1429   0.308   0.811   0.343
   60ANI     C4 1430   0.398   0.903   0.288
   60ANI     C5 1431   0.485   0.975   0.372
   60ANI     C6 1432   0.482   0.955   0.510
   60ANI     C7 1433   0.393   0.862   0.565
   60ANI     H1 1434   0.232   0.531   0.414
   60ANI     H2 1435   0.105   0.526   0.538
   60ANI     H3 1436   0.088   0.633   0.396
   60ANI     H4 1437   0.241   0.755   0.277
   60ANI     H5 1438   0.403   0.919   0.181
   60ANI     H6 1439   0.554   1.047   0.330
   60ANI     H7 1440   0.550   1.011   0.575
   60ANI     H8 1441   0.393   0.845   0.672
   61ANI     C1 1442   0.467   2.437   0.368
   61ANI     O1 1443   0.548   2.505   0.464
   61ANI     C2 1444   0.569   2.454   0.591
   61ANI     C3 1445   0.508   2.336   0.636
   61ANI     C4 1446   0.528   2.294   0.768
   61ANI     C5 1447   0.613   2.365   0.853
   61ANI     C6 1448   0.675   2.482   0.808
   61ANI     C7 1449   0.652   2.527   0.678
   61ANI     H1 1450   0.364   2.430   0.403
   61ANI     H2 1451   0.468   2.493   0.274
   61ANI     H3 1452   0.507   2.337   0.349
   61ANI     H4 1453   0.441   2.279   0.572
   61ANI     H5 1454   0.478   2.204   0.804
   61ANI     H6 1455   0.631   2.329   0.953
   61ANI     H7 1456   0.739   2.539   0.876
   61ANI     H8 1457   0.697   2.619   0.643
   62ANI     C1 1458   0.537   1.772   1.224
   62ANI     O1 1459   0.671   1.797   1.181
   62ANI     C2 1460   0.709   1.781   1.050
   62ANI     C3 1461   0.624   1.731   0.948
   62ANI     C4 1462   0.674   1.713   0.818
   62ANI     C5 1463   0.797   1.766   0.784
   62ANI     C6 1464   0.877   1.822   0.884
   62ANI     C7 1465   0.839   1.819   1.017
   62ANI     H1 1466   0.517   1.664   1.224
   62ANI     H2 1467   0.524   1.810   1.326
   62ANI     H3 1468   0.465   1.823   1.159
   62ANI     H4 1469   0.522   1.702   0.970
   62ANI     H5 1470   0.615   1.663   0.742
   62ANI     H6 1471   0.830   1.768   0.681
   62ANI     H7 1472   0.968   1.876   0.858
   62ANI     H8 1473   0.905   1.859   1.093
   63ANI     C1 1474   2.044   0.578   3.715
   63ANI     O1 1475   2.029   0.719   3.715
   63ANI     C2 1476   2.073   0.797   3.611
   63ANI     C3 1477   2.114   0.740   3.490
   63ANI     C4 1478   2.169   0.821   3.391
   63ANI     C5 1479   2.182   0.959   3.411
   63ANI     C6 1480   2.139   1.016   3.531
   63ANI     C7 1481   2.081   0.935   3.630
   63ANI     H1 1482   2.150   0.551   3.698
   63ANI     H2 1483   2.014   0.538   3.813
   63ANI     H3 1484   1.982   0.531   3.638
   63ANI     H4 1485   2.105   0.633   3.471
   63ANI     H5 1486   2.203   0.776   3.298
   63ANI     H6 1487   2.225   1.022   3.333
   63ANI     H7 1488   2.151   1.123   3.545
   63ANI     H8 1489   2.044   0.977   3.723
   64ANI     C1 1490   1.275   2.442   2.766
   64ANI     O1 1491   1.213   2.497   2.883
   64ANI     C2 1492   1.216   2.632   2.910
   64ANI     C3 1493   1.271   2.726   2.821
   64ANI     C4 1494   1.277   2.861   2.858
   64ANI     C5 1495   1.230   2.903   2.981
   64ANI     C6 1496   1.171   2.812   3.069
   64ANI     C7 1497   1.162   2.678   3.032
   64ANI     H1 1498   1.382   2.465   2.764
   64ANI     H2 1499   1.264   2.333   2.766
   64ANI     H3 1500   1.228   2.481   2.675
   64ANI     H4 1501   1.314   2.695   2.726
   64ANI     H5 1502   1.328   2.935   2.797
   64ANI     H6 1503   1.247   3.006   3.011
   64ANI     H7 1504   1.137   2.843   3.168
   64ANI     H8 1505   1.114   2.611   3.103
   65ANI     C1 1506   2.444   0.038   1.221
   65ANI     O1 1507   2.479   0.054   1.083
   65ANI     C2 1508   2.604   0.099   1.047
   65ANI     C3 1509   2.687   0.169   1.136
   65ANI     C4 1510   2.815   0.211   1.097
   65ANI     C5 1511   2.862   0.175   0.970
   65ANI     C6 1512   2.783   0.101   0.882
   65ANI     C7 1513   2.652   0.068   0.918
   65ANI     H1 1514   2.427   0.135   1.267
   65ANI     H2 1515   2.352  -0.022   1.230
   65ANI     H3 1516   2.523  -0.015   1.275
   65ANI     H4 1517   2.655   0.191   1.238
   65ANI     H5 1518   2.877   0.268   1.165
   65ANI     H6 1519   2.961   0.209   0.939
   65ANI     H7 1520   2.821   0.073   0.784
   65ANI     H8 1521   2.593   0.009   0.849
   66ANI     C1 1522   0.877   1.144   2.771
   66ANI     O1 1523   0.849   1.017   2.829
   66ANI     C2 1524   0.946   0.923   2.849
   66ANI     C3 1525   1.082   0.942   2.820
   66ANI     C4 1526   1.173   0.837   2.842
   66ANI     C5 1527   1.128   0.712   2.887
   66ANI     C6 1528   0.991   0.694   2.916
   66ANI     C7 1529   0.903   0.801   2.900
   66ANI     H1 1530   0.916   1.133   2.669
   66ANI     H2 1531   0.786   1.205   2.768
   66ANI     H3 1532   0.950   1.197   2.834
   66ANI     H4 1533   1.120   1.036   2.782
   66ANI     H5 1534   1.278   0.852   2.820
   66ANI     H6 1535   1.197   0.630   2.902
   66ANI     H7 1536   0.953   0.598   2.949
   66ANI     H8 1537   0.798   0.791   2.924
   67ANI     C1 1538   1.218   1.631   1.581
   67ANI     O1 1539   1.332   1.713   1.601
   67ANI     C2 1540   1.457   1.677   1.558
   67ANI     C3 1541   1.504   1.544   1.551
   67ANI     C4 1542   1.632   1.519   1.501
   67ANI     C5 1543   1.717   1.626   1.464
   67ANI     C6 1544   1.671   1.758   1.474
   67ANI     C7 1545   1.540   1.781   1.519
   67ANI     H1 1546   1.234   1.529   1.620
   67ANI     H2 1547   1.131   1.674   1.632
   67ANI     H3 1548   1.194   1.627   1.474
   67ANI     H4 1549   1.441   1.461   1.581
   67ANI     H5 1550   1.665   1.416   1.489
   67ANI     H6 1551   1.816   1.607   1.424
   67ANI     H7 1552   1.733   1.840   1.440
   67ANI     H8 1553   1.493   1.878   1.517
   68ANI     C1 1554   0.912   3.391   2.220
   68ANI     O1 1555   0.935   3.316   2.338
   68ANI     C2 1556   0.859   3.331   2.451
   68ANI     C3 1557   0.765   3.435   2.467
   68ANI     C4 1558   0.691   3.445   2.586
   68ANI     C5 1559   0.711   3.351   2.689
   68ANI     C6 1560   0.803   3.246   2.672
   68ANI     C7 1561   0.876   3.237   2.553
   68ANI     H1 1562   0.930   3.498   2.236
   68ANI     H2 1563   0.981   3.356   2.142
   68ANI     H3 1564   0.809   3.378   2.184
   68ANI     H4 1565   0.747   3.507   2.387
   68ANI     H5 1566   0.617   3.524   2.598
   68ANI     H6 1567   0.652   3.357   2.780
   68ANI     H7 1568   0.814   3.170   2.749
   68ANI     H8 1569   0.943   3.153   2.536
   69ANI     C1 1570   0.216   1.034   3.025
   69ANI     O1 1571   0.315   0.959   2.954
   69ANI     C2 1572   0.317   0.822   2.956
   69ANI     C3 1573   0.208   0.744   3.000
   69ANI     C4 1574   0.218   0.604   3.004
   69ANI     C5 1575   0.337   0.541   2.964
   69ANI     C6 1576   0.445   0.617   2.918
   69ANI     C7 1577   0.435   0.758   2.915
   69ANI     H1 1578   0.215   1.005   3.131
   69ANI     H2 1579   0.238   1.141   3.019
   69ANI     H3 1580   0.117   1.016   2.982
   69ANI     H4 1581   0.115   0.791   3.031
   69ANI     H5 1582   0.135   0.544   3.040
   69ANI     H6 1583   0.347   0.433   2.969
   69ANI     H7 1584   0.537   0.567   2.891
   69ANI     H8 1585   0.520   0.820   2.888
   70ANI     C1 1586   3.201   2.638   2.938
   70ANI     O1 1587   3.109   2.580   3.031
   70ANI     C2 1588   3.127   2.586   3.168
   70ANI     C3 1589   3.235   2.654   3.227
   70ANI     C4 1590   3.251   2.652   3.367
   70ANI     C5 1591   3.158   2.584   3.447
   70ANI     C6 1592   3.048   2.520   3.388
   70ANI     C7 1593   3.033   2.520   3.249
   70ANI     H1 1594   3.302   2.596   2.953
   70ANI     H2 1595   3.171   2.615   2.836
   70ANI     H3 1596   3.206   2.747   2.950
   70ANI     H4 1597   3.308   2.707   3.167
   70ANI     H5 1598   3.334   2.704   3.414
   70ANI     H6 1599   3.170   2.583   3.555
   70ANI     H7 1600   2.974   2.470   3.451
   70ANI     H8 1601   2.951   2.466   3.204
   71ANI     C1 1602   2.807   1.913   2.992
   71ANI     O1 1603   2.876   1.897   2.867
   71ANI     C2 1604   3.006   1.937   2.850
   71ANI     C3 1605   3.093   1.963   2.958
   71ANI     C4 1606   3.226   2.000   2.932
   71ANI     C5 1607   3.272   2.011   2.801
   71ANI     C6 1608   3.185   1.991   2.693
   71ANI     C7 1609   3.053   1.954   2.720
   71ANI     H1 1610   2.802   2.019   3.019
   71ANI     H2 1611   2.705   1.875   2.984
   71ANI     H3 1612   2.858   1.858   3.072
   71ANI     H4 1613   3.060   1.950   3.060
   71ANI     H5 1614   3.295   2.020   3.013
   71ANI     H6 1615   3.376   2.038   2.782
   71ANI     H7 1616   3.219   2.007   2.591
   71ANI     H8 1617   2.981   1.947   2.639
   72ANI     C1 1618   2.578   3.293   3.468
   72ANI     O1 1619   2.454   3.222   3.474
   72ANI     C2 1620   2.418   3.129   3.380
   72ANI     C3 1621   2.471   3.131   3.251
   72ANI     C4 1622   2.439   3.030   3.159
   72ANI     C5 1623   2.365   2.919   3.201
   72ANI     C6 1624   2.308   2.919   3.328
   72ANI     C7 1625   2.331   3.026   3.416
   72ANI     H1 1626   2.572   3.373   3.393
   72ANI     H2 1627   2.599   3.340   3.565
   72ANI     H3 1628   2.660   3.226   3.443
   72ANI     H4 1629   2.540   3.208   3.220
   72ANI     H5 1630   2.472   3.039   3.056
   72ANI     H6 1631   2.343   2.839   3.131
   72ANI     H7 1632   2.241   2.839   3.356
   72ANI     H8 1633   2.287   3.027   3.515
   73ANI     C1 1634   3.188   0.234   1.354
   73ANI     O1 1635   3.138   0.123   1.279
   73ANI     C2 1636   3.153   0.113   1.142
   73ANI     C3 1637   3.222   0.209   1.065
   73ANI     C4 1638   3.233   0.192   0.925
   73ANI     C5 1639   3.175   0.080   0.864
   73ANI     C6 1640   3.108  -0.016   0.941
   73ANI     C7 1641   3.097   0.001   1.080
   73ANI     H1 1642   3.138   0.326   1.324
   73ANI     H2 1643   3.171   0.218   1.461
   73ANI     H3 1644   3.297   0.244   1.339
   73ANI     H4 1645   3.267   0.297   1.110
   73ANI     H5 1646   3.284   0.267   0.865
   73ANI     H6 1647   3.181   0.068   0.756
   73ANI     H7 1648   3.060  -0.102   0.895
   73ANI     H8 1649   3.042  -0.071   1.140
   74ANI     C1 1650   3.124   0.692   0.141
   74ANI     O1 1651   3.209   0.797   0.096
   74ANI     C2 1652   3.166   0.928   0.093
   74ANI     C3 1653   3.031   0.964   0.111
   74ANI     C4 1654   2.993   1.100   0.108
   74ANI     C5 1655   3.090   1.199   0.090
   74ANI     C6 1656   3.224   1.164   0.071
   74ANI     C7 1657   3.262   1.028   0.072
   74ANI     H1 1658   3.035   0.685   0.078
   74ANI     H2 1659   3.176   0.595   0.137
   74ANI     H3 1660   3.093   0.709   0.245
   74ANI     H4 1661   2.955   0.890   0.131
   74ANI     H5 1662   2.889   1.127   0.125
   74ANI     H6 1663   3.061   1.304   0.092
   74ANI     H7 1664   3.299   1.241   0.057
   74ANI     H8 1665   3.366   1.001   0.060
   75ANI     C1 1666   0.105   2.305   2.894
   75ANI     O1 1667   0.069   2.297   2.755
   75ANI     C2 1668   0.120   2.201   2.671
   75ANI     C3 1669   0.208   2.102   2.716
   75ANI     C4 1670   0.265   2.013   2.625
   75ANI     C5 1671   0.234   2.021   2.488
   75ANI     C6 1672   0.138   2.112   2.444
   75ANI     C7 1673   0.081   2.202   2.536
   75ANI     H1 1674   0.213   2.314   2.906
   75ANI     H2 1675   0.058   2.394   2.940
   75ANI     H3 1676   0.070   2.217   2.949
   75ANI     H4 1677   0.235   2.094   2.821
   75ANI     H5 1678   0.335   1.938   2.661
   75ANI     H6 1679   0.281   1.953   2.418
   75ANI     H7 1680   0.111   2.116   2.339
   75ANI     H8 1681   0.008   2.275   2.502
   76ANI     C1 1682   2.090   0.210   3.272
   76ANI     O1 1683   2.039   0.341   3.294
   76ANI     C2 1684   2.075   0.447   3.213
   76ANI     C3 1685   2.170   0.434   3.111
   76ANI     C4 1686   2.198   0.542   3.026
   76ANI     C5 1687   2.131   0.664   3.044
   76ANI     C6 1688   2.037   0.678   3.147
   76ANI     C7 1689   2.010   0.570   3.232
   76ANI     H1 1690   2.199   0.207   3.284
   76ANI     H2 1691   2.045   0.141   3.344
   76ANI     H3 1692   2.064   0.175   3.171
   76ANI     H4 1693   2.222   0.340   3.095
   76ANI     H5 1694   2.270   0.530   2.947
   76ANI     H6 1695   2.150   0.748   2.978
   76ANI     H7 1696   1.985   0.772   3.159
   76ANI     H8 1697   1.935   0.579   3.310
   77ANI     C1 1698   0.471   0.176   1.598
   77ANI     O1 1699   0.532   0.304   1.614
   77ANI     C2 1700   0.668   0.326   1.598
   77ANI     C3 1701   0.759   0.222   1.572
   77ANI     C4 1702   0.896   0.252   1.554
   77ANI     C5 1703   0.941   0.385   1.560
   77ANI     C6 1704   0.850   0.488   1.587
   77ANI     C7 1705   0.715   0.458   1.607
   77ANI     H1 1706   0.515   0.102   1.666
   77ANI     H2 1707   0.363   0.183   1.618
   77ANI     H3 1708   0.483   0.136   1.496
   77ANI     H4 1709   0.726   0.119   1.565
   77ANI     H5 1710   0.966   0.172   1.533
   77ANI     H6 1711   1.046   0.408   1.544
   77ANI     H7 1712   0.884   0.592   1.591
   77ANI     H8 1713   0.644   0.538   1.626
   78ANI     C1 1714   1.542   2.037   3.780
   78ANI     O1 1715   1.618   1.953   3.694
   78ANI     C2 1716   1.557   1.872   3.601
   78ANI     C3 1717   1.417   1.864   3.586
   78ANI     C4 1718   1.362   1.785   3.484
   78ANI     C5 1719   1.446   1.713   3.398
   78ANI     C6 1720   1.585   1.720   3.415
   78ANI     C7 1721   1.640   1.799   3.516
   78ANI     H1 1722   1.477   1.977   3.846
   78ANI     H2 1723   1.610   2.096   3.843
   78ANI     H3 1724   1.481   2.107   3.722
   78ANI     H4 1725   1.350   1.920   3.651
   78ANI     H5 1726   1.254   1.781   3.470
   78ANI     H6 1727   1.403   1.653   3.318
   78ANI     H7 1728   1.652   1.666   3.349
   78ANI     H8 1729   1.748   1.808   3.524
   79ANI     C1 1730   1.464   0.694   1.052
   79ANI     O1 1731   1.541   0.728   0.937
   79ANI     C2 1732   1.490   0.726   0.809
   79ANI     C3 1733   1.353   0.714   0.782
   79ANI     C4 1734   1.308   0.715   0.649
   79ANI     C5 1735   1.400   0.722   0.543
   79ANI     C6 1736   1.535   0.737   0.570
   79ANI     C7 1737   1.579   0.738   0.702
   79ANI     H1 1738   1.422   0.593   1.043
   79ANI     H2 1739   1.528   0.695   1.141
   79ANI     H3 1740   1.382   0.765   1.067
   79ANI     H4 1741   1.281   0.706   0.863
   79ANI     H5 1742   1.202   0.712   0.625
   79ANI     H6 1743   1.364   0.723   0.440
   79ANI     H7 1744   1.607   0.753   0.490
   79ANI     H8 1745   1.685   0.754   0.721
   80ANI     C1 1746   0.405   3.187   3.323
   80ANI     O1 1747   0.452   3.266   3.212
   80ANI     C2 1748   0.580   3.316   3.207
   80ANI     C3 1749   0.659   3.332   3.322
   80ANI     C4 1750   0.792   3.376   3.310
   80ANI     C5 1751   0.848   3.402   3.184
   80ANI     C6 1752   0.768   3.390   3.069
   80ANI     C7 1753   0.634   3.351   3.082
   80ANI     H1 1754   0.402   3.246   3.415
   80ANI     H2 1755   0.304   3.150   3.303
   80ANI     H3 1756   0.469   3.100   3.339
   80ANI     H4 1757   0.621   3.306   3.420
   80ANI     H5 1758   0.855   3.383   3.398
   80ANI     H6 1759   0.952   3.431   3.176
   80ANI     H7 1760   0.811   3.413   2.972
   80ANI     H8 1761   0.571   3.344   2.993
   81ANI     C1 1762   2.100   1.738   1.405
   81ANI     O1 1763   2.152   1.863   1.359
   81ANI     C2 1764   2.241   1.935   1.434
   81ANI     C3 1765   2.331   1.874   1.524
   81ANI     C4 1766   2.425   1.953   1.592
   81ANI     C5 1767   2.418   2.093   1.586
   81ANI     C6 1768   2.322   2.153   1.506
   81ANI     C7 1769   2.241   2.074   1.422
   81ANI     H1 1770   2.054   1.751   1.504
   81ANI     H2 1771   2.023   1.702   1.336
   81ANI     H3 1772   2.179   1.663   1.412
   81ANI     H4 1773   2.331   1.767   1.539
   81ANI     H5 1774   2.503   1.905   1.651
   81ANI     H6 1775   2.488   2.155   1.640
   81ANI     H7 1776   2.316   2.261   1.501
   81ANI     H8 1777   2.169   2.122   1.356
   82ANI     C1 1778   1.735   1.447   0.671
   82ANI     O1 1779   1.685   1.345   0.585
   82ANI     C2 1780   1.650   1.370   0.456
   82ANI     C3 1781   1.657   1.497   0.398
   82ANI     C4 1782   1.608   1.518   0.267
   82ANI     C5 1783   1.557   1.411   0.195
   82ANI     C6 1784   1.564   1.282   0.248
   82ANI     C7 1785   1.605   1.263   0.380
   82ANI     H1 1786   1.660   1.527   0.683
   82ANI     H2 1787   1.759   1.405   0.769
   82ANI     H3 1788   1.827   1.488   0.627
   82ANI     H4 1789   1.696   1.580   0.456
   82ANI     H5 1790   1.603   1.616   0.221
   82ANI     H6 1791   1.513   1.431   0.098
   82ANI     H7 1792   1.532   1.197   0.189
   82ANI     H8 1793   1.602   1.164   0.426
   83ANI     C1 1794   2.429   1.143   1.596
   83ANI     O1 1795   2.322   1.050   1.615
   83ANI     C2 1796   2.322   0.925   1.558
   83ANI     C3 1797   2.422   0.884   1.469
   83ANI     C4 1798   2.414   0.757   1.410
   83ANI     C5 1799   2.313   0.667   1.447
   83ANI     C6 1800   2.215   0.706   1.539
   83ANI     C7 1801   2.219   0.836   1.591
   83ANI     H1 1802   2.447   1.160   1.490
   83ANI     H2 1803   2.403   1.239   1.642
   83ANI     H3 1804   2.522   1.105   1.640
   83ANI     H4 1805   2.505   0.949   1.442
   83ANI     H5 1806   2.490   0.730   1.338
   83ANI     H6 1807   2.308   0.569   1.401
   83ANI     H7 1808   2.134   0.639   1.565
   83ANI     H8 1809   2.140   0.870   1.657
   84ANI     C1 1810   0.470   1.912   0.137
   84ANI     O1 1811   0.432   1.813   0.233
   84ANI     C2 1812   0.450   1.832   0.368
   84ANI     C3 1813   0.493   1.956   0.422
   84ANI     C4 1814   0.505   1.972   0.560
   84ANI     C5 1815   0.471   1.866   0.646
   84ANI     C6 1816   0.430   1.742   0.593
   84ANI     C7 1817   0.423   1.725   0.454
   84ANI     H1 1818   0.577   1.935   0.147
   84ANI     H2 1819   0.451   1.876   0.035
   84ANI     H3 1820   0.413   2.004   0.152
   84ANI     H4 1821   0.516   2.040   0.357
   84ANI     H5 1822   0.538   2.067   0.601
   84ANI     H6 1823   0.477   1.880   0.754
   84ANI     H7 1824   0.404   1.660   0.659
   84ANI     H8 1825   0.391   1.630   0.413
   85ANI     C1 1826   2.032   0.871   0.346
   85ANI     O1 1827   1.890   0.886   0.348
   85ANI     C2 1828   1.813   0.861   0.238
   85ANI     C3 1829   1.849   0.764   0.144
   85ANI     C4 1830   1.767   0.742   0.032
   85ANI     C5 1831   1.653   0.820   0.010
   85ANI     C6 1832   1.616   0.916   0.105
   85ANI     C7 1833   1.694   0.933   0.221
   85ANI     H1 1834   2.075   0.920   0.258
   85ANI     H2 1835   2.077   0.916   0.435
   85ANI     H3 1836   2.060   0.764   0.344
   85ANI     H4 1837   1.939   0.704   0.158
   85ANI     H5 1838   1.794   0.666  -0.041
   85ANI     H6 1839   1.594   0.806  -0.080
   85ANI     H7 1840   1.527   0.976   0.089
   85ANI     H8 1841   1.664   1.005   0.296
   86ANI     C1 1842   2.877   1.069   0.411
   86ANI     O1 1843   3.020   1.069   0.420
   86ANI     C2 1844   3.093   0.957   0.453
   86ANI     C3 1845   3.039   0.851   0.527
   86ANI     C4 1846   3.118   0.739   0.559
   86ANI     C5 1847   3.252   0.735   0.519
   86ANI     C6 1848   3.307   0.841   0.446
   86ANI     C7 1849   3.227   0.952   0.414
   86ANI     H1 1850   2.830   1.033   0.504
   86ANI     H2 1851   2.840   1.170   0.391
   86ANI     H3 1852   2.846   1.003   0.329
   86ANI     H4 1853   2.936   0.856   0.562
   86ANI     H5 1854   3.077   0.656   0.616
   86ANI     H6 1855   3.312   0.649   0.547
   86ANI     H7 1856   3.411   0.839   0.415
   86ANI     H8 1857   3.269   1.035   0.357
   87ANI     C1 1858   2.764   0.647   0.648
   87ANI     O1 1859   2.714   0.749   0.567
   87ANI     C2 1860   2.725   0.753   0.433
   87ANI     C3 1861   2.808   0.666   0.361
   87ANI     C4 1862   2.804   0.669   0.221
   87ANI     C5 1863   2.727   0.766   0.156
   87ANI     C6 1864   2.653   0.859   0.231
   87ANI     C7 1865   2.648   0.849   0.370
   87ANI     H1 1866   2.873   0.653   0.655
   87ANI     H2 1867   2.723   0.657   0.749
   87ANI     H3 1868   2.734   0.550   0.606
   87ANI     H4 1869   2.869   0.592   0.412
   87ANI     H5 1870   2.859   0.596   0.163
   87ANI     H6 1871   2.725   0.772   0.047
   87ANI     H7 1872   2.599   0.939   0.183
   87ANI     H8 1873   2.588   0.917   0.429
   88ANI     C1 1874   1.746   2.413   2.349
   88ANI     O1 1875   1.864   2.490   2.323
   88ANI     C2 1876   1.865   2.628   2.318
   88ANI     C3 1877   1.749   2.706   2.332
   88ANI     C4 1878   1.758   2.846   2.326
   88ANI     C5 1879   1.882   2.909   2.308
   88ANI     C6 1880   1.998   2.831   2.295
   88ANI     C7 1881   1.989   2.691   2.299
   88ANI     H1 1882   1.669   2.432   2.273
   88ANI     H2 1883   1.770   2.306   2.347
   88ANI     H3 1884   1.706   2.437   2.448
   88ANI     H4 1885   1.652   2.659   2.347
   88ANI     H5 1886   1.669   2.908   2.337
   88ANI     H6 1887   1.889   3.017   2.308
   88ANI     H7 1888   2.095   2.880   2.282
   88ANI     H8 1889   2.079   2.631   2.289
   89ANI     C1 1890   1.110   1.835   2.931
   89ANI     O1 1891   1.103   1.708   2.996
   89ANI     C2 1892   1.110   1.590   2.926
   89ANI     C3 1893   1.111   1.584   2.786
   89ANI     C4 1894   1.129   1.461   2.721
   89ANI     C5 1895   1.143   1.344   2.797
   89ANI     C6 1896   1.133   1.348   2.937
   89ANI     C7 1897   1.117   1.471   3.001
   89ANI     H1 1898   1.044   1.840   2.844
   89ANI     H2 1899   1.076   1.914   3.000
   89ANI     H3 1900   1.213   1.858   2.902
   89ANI     H4 1901   1.102   1.674   2.726
   89ANI     H5 1902   1.133   1.459   2.612
   89ANI     H6 1903   1.162   1.249   2.747
   89ANI     H7 1904   1.141   1.256   2.994
   89ANI     H8 1905   1.116   1.479   3.109
   90ANI     C1 1906   2.308   2.696   2.753
   90ANI     O1 1907   2.384   2.805   2.699
   90ANI     C2 1908   2.484   2.865   2.773
   90ANI     C3 1909   2.523   2.816   2.899
   90ANI     C4 1910   2.630   2.875   2.968
   90ANI     C5 1911   2.691   2.989   2.917
   90ANI     C6 1912   2.647   3.044   2.795
   90ANI     C7 1913   2.549   2.978   2.720
   90ANI     H1 1914   2.258   2.726   2.846
   90ANI     H2 1915   2.231   2.664   2.682
   90ANI     H3 1916   2.373   2.611   2.774
   90ANI     H4 1917   2.472   2.732   2.943
   90ANI     H5 1918   2.662   2.834   3.064
   90ANI     H6 1919   2.773   3.036   2.971
   90ANI     H7 1920   2.694   3.134   2.757
   90ANI     H8 1921   2.520   3.015   2.623
   91ANI     C1 1922   0.747   1.264   3.041
   91ANI     O1 1923   0.713   1.347   3.152
   91ANI     C2 1924   0.805   1.377   3.250
   91ANI     C3 1925   0.940   1.337   3.244
   91ANI     C4 1926   1.029   1.371   3.347
   91ANI     C5 1927   0.984   1.448   3.455
   91ANI     C6 1928   0.850   1.488   3.462
   91ANI     C7 1929   0.761   1.452   3.359
   91ANI     H1 1930   0.789   1.168   3.075
   91ANI     H2 1931   0.658   1.240   2.982
   91ANI     H3 1932   0.820   1.314   2.976
   91ANI     H4 1933   0.976   1.277   3.160
   91ANI     H5 1934   1.132   1.338   3.342
   91ANI     H6 1935   1.054   1.475   3.534
   91ANI     H7 1936   0.815   1.547   3.546
   91ANI     H8 1937   0.657   1.481   3.363
   92ANI     C1 1938   1.545   0.392   0.780
   92ANI     O1 1939   1.443   0.411   0.880
   92ANI     C2 1940   1.321   0.348   0.875
   92ANI     C3 1941   1.291   0.248   0.780
   92ANI     C4 1942   1.163   0.190   0.776
   92ANI     C5 1943   1.065   0.230   0.868
   92ANI     C6 1944   1.095   0.327   0.965
   92ANI     C7 1945   1.222   0.387   0.967
   92ANI     H1 1946   1.508   0.417   0.680
   92ANI     H2 1947   1.631   0.457   0.801
   92ANI     H3 1948   1.580   0.288   0.779
   92ANI     H4 1949   1.365   0.216   0.708
   92ANI     H5 1950   1.140   0.114   0.702
   92ANI     H6 1951   0.966   0.184   0.865
   92ANI     H7 1952   1.019   0.358   1.036
   92ANI     H8 1953   1.245   0.464   1.040
   93ANI     C1 1954   2.283   2.283   0.976
   93ANI     O1 1955   2.366   2.289   0.860
   93ANI     C2 1956   2.502   2.286   0.870
   93ANI     C3 1957   2.565   2.229   0.982
   93ANI     C4 1958   2.703   2.234   0.997
   93ANI     C5 1959   2.779   2.290   0.894
   93ANI     C6 1960   2.719   2.338   0.777
   93ANI     C7 1961   2.579   2.339   0.767
   93ANI     H1 1962   2.316   2.359   1.048
   93ANI     H2 1963   2.179   2.307   0.952
   93ANI     H3 1964   2.286   2.184   1.022
   93ANI     H4 1965   2.505   2.175   1.054
   93ANI     H5 1966   2.751   2.194   1.085
   93ANI     H6 1967   2.887   2.295   0.908
   93ANI     H7 1968   2.780   2.377   0.696
   93ANI     H8 1969   2.528   2.381   0.680
   94ANI     C1 1970   1.375   1.070   1.572
   94ANI     O1 1971   1.295   0.978   1.497
   94ANI     C2 1972   1.328   0.844   1.486
   94ANI     C3 1973   1.422   0.783   1.571
   94ANI     C4 1974   1.444   0.645   1.563
   94ANI     C5 1975   1.380   0.569   1.463
   94ANI     C6 1976   1.291   0.631   1.375
   94ANI     C7 1977   1.264   0.768   1.388
   94ANI     H1 1978   1.475   1.080   1.529
   94ANI     H2 1979   1.327   1.169   1.576
   94ANI     H3 1980   1.383   1.035   1.675
   94ANI     H4 1981   1.476   0.841   1.645
   94ANI     H5 1982   1.512   0.596   1.632
   94ANI     H6 1983   1.400   0.462   1.455
   94ANI     H7 1984   1.242   0.573   1.297
   94ANI     H8 1985   1.193   0.817   1.322
   95ANI     C1 1986   2.373   0.213   1.560
   95ANI     O1 1987   2.483   0.137   1.511
   95ANI     C2 1988   2.615   0.176   1.528
   95ANI     C3 1989   2.649   0.294   1.595
   95ANI     C4 1990   2.785   0.329   1.609
   95ANI     C5 1991   2.886   0.249   1.557
   95ANI     C6 1992   2.852   0.131   1.489
   95ANI     C7 1993   2.717   0.095   1.476
   95ANI     H1 1994   2.364   0.311   1.510
   95ANI     H2 1995   2.279   0.159   1.546
   95ANI     H3 1996   2.385   0.232   1.668
   95ANI     H4 1997   2.574   0.362   1.635
   95ANI     H5 1998   2.811   0.424   1.656
   95ANI     H6 1999   2.989   0.280   1.568
   95ANI     H7 2000   2.930   0.070   1.445
   95ANI     H8 2001   2.691   0.003   1.423
   96ANI     C1 2002   2.344   0.652   0.416
   96ANI     O1 2003   2.323   0.511   0.397
   96ANI     C2 2004   2.429   0.424   0.382
   96ANI     C3 2005   2.556   0.468   0.343
   96ANI     C4 2006   2.662   0.378   0.324
   96ANI     C5 2007   2.641   0.241   0.343
   96ANI     C6 2008   2.515   0.196   0.383
   96ANI     C7 2009   2.409   0.286   0.404
   96ANI     H1 2010   2.389   0.697   0.327
   96ANI     H2 2011   2.249   0.702   0.437
   96ANI     H3 2012   2.412   0.669   0.501
   96ANI     H4 2013   2.572   0.574   0.322
   96ANI     H5 2014   2.760   0.412   0.292
   96ANI     H6 2015   2.721   0.170   0.326
   96ANI     H7 2016   2.502   0.089   0.396
   96ANI     H8 2017   2.311   0.250   0.433
   97ANI     C1 2018   2.821   2.522   0.466
   97ANI     O1 2019   2.779   2.502   0.330
   97ANI     C2 2020   2.690   2.404   0.293
   97ANI     C3 2021   2.620   2.325   0.386
   97ANI     C4 2022   2.528   2.228   0.342
   97ANI     C5 2023   2.509   2.209   0.204
   97ANI     C6 2024   2.579   2.286   0.111
   97ANI     C7 2025   2.669   2.384   0.156
   97ANI     H1 2026   2.866   2.431   0.506
   97ANI     H2 2027   2.896   2.602   0.472
   97ANI     H3 2028   2.737   2.549   0.531
   97ANI     H4 2029   2.636   2.338   0.493
   97ANI     H5 2030   2.474   2.168   0.414
   97ANI     H6 2031   2.441   2.132   0.169
   97ANI     H7 2032   2.565   2.270   0.005
   97ANI     H8 2033   2.724   2.445   0.084
   98ANI     C1 2034   2.034   2.028   0.873
   98ANI     O1 2035   1.961   2.150   0.857
   98ANI     C2 2036   2.008   2.253   0.779
   98ANI     C3 2037   2.129   2.241   0.710
   98ANI     C4 2038   2.174   2.343   0.625
   98ANI     C5 2039   2.095   2.456   0.607
   98ANI     C6 2040   1.974   2.471   0.677
   98ANI     C7 2041   1.932   2.369   0.765
   98ANI     H1 2042   2.122   2.045   0.936
   98ANI     H2 2043   1.971   1.952   0.922
   98ANI     H3 2044   2.066   1.986   0.777
   98ANI     H4 2045   2.193   2.154   0.725
   98ANI     H5 2046   2.270   2.333   0.575
   98ANI     H6 2047   2.131   2.533   0.538
   98ANI     H7 2048   1.914   2.560   0.662
   98ANI     H8 2049   1.839   2.378   0.820
   99ANI     C1 2050   3.077   0.258   2.589
   99ANI     O1 2051   2.973   0.160   2.600
   99ANI     C2 2052   2.845   0.191   2.638
   99ANI     C3 2053   2.809   0.319   2.684
   99ANI     C4 2054   2.675   0.346   2.717
   99ANI     C5 2055   2.577   0.246   2.705
   99ANI     C6 2056   2.614   0.118   2.661
   99ANI     C7 2057   2.748   0.090   2.630
   99ANI     H1 2058   3.093   0.308   2.686
   99ANI     H2 2059   3.171   0.210   2.560
   99ANI     H3 2060   3.051   0.333   2.514
   99ANI     H4 2061   2.881   0.400   2.690
   99ANI     H5 2062   2.646   0.446   2.747
   99ANI     H6 2063   2.473   0.269   2.726
   99ANI     H7 2064   2.538   0.042   2.647
   99ANI     H8 2065   2.776  -0.009   2.596
  100ANI     C1 2066   1.921   2.464   1.088
  100ANI     O1 2067   1.817   2.366   1.089
  100ANI     C2 2068   1.844   2.235   1.118
  100ANI     C3 2069   1.975   2.184   1.136
  100ANI     C4 2070   1.995   2.048   1.162
  100ANI     C5 2071   1.886   1.962   1.175
  100ANI     C6 2072   1.757   2.015   1.166
  100ANI     C7 2073   1.735   2.150   1.135
  100ANI     H1 2074   1.999   2.438   1.016
  100ANI     H2 2075   1.879   2.561   1.059
  100ANI     H3 2076   1.966   2.473   1.188
  100ANI     H4 2077   2.061   2.250   1.129
  100ANI     H5 2078   2.096   2.009   1.171
  100ANI     H6 2079   1.899   1.857   1.199
  100ANI     H7 2080   1.673   1.954   1.198
  100ANI     H8 2081   1.635   2.190   1.132
  101ANI     C1 2082   0.252   2.479   1.078
  101ANI     O1 2083   0.335   2.581   1.021
  101ANI     C2 2084   0.346   2.599   0.885
  101ANI     C3 2085   0.276   2.519   0.794
  101ANI     C4 2086   0.277   2.548   0.657
  101ANI     C5 2087   0.353   2.656   0.611
  101ANI     C6 2088   0.432   2.730   0.700
  101ANI     C7 2089   0.428   2.702   0.837
  101ANI     H1 2090   0.287   2.380   1.046
  101ANI     H2 2091   0.257   2.483   1.188
  101ANI     H3 2092   0.148   2.492   1.048
  101ANI     H4 2093   0.219   2.434   0.830
  101ANI     H5 2094   0.222   2.486   0.588
  101ANI     H6 2095   0.360   2.677   0.504
  101ANI     H7 2096   0.497   2.809   0.663
  101ANI     H8 2097   0.485   2.761   0.908
  102ANI     C1 2098   2.527   0.285   3.020
  102ANI     O1 2099   2.600   0.272   3.143
  102ANI     C2 2100   2.737   0.257   3.142
  102ANI     C3 2101   2.815   0.291   3.031
  102ANI     C4 2102   2.955   0.280   3.035
  102ANI     C5 2103   3.017   0.238   3.153
  102ANI     C6 2104   2.940   0.201   3.264
  102ANI     C7 2105   2.800   0.208   3.257
  102ANI     H1 2106   2.547   0.199   2.955
  102ANI     H2 2107   2.419   0.287   3.041
  102ANI     H3 2108   2.554   0.376   2.967
  102ANI     H4 2109   2.768   0.327   2.940
  102ANI     H5 2110   3.013   0.305   2.947
  102ANI     H6 2111   3.126   0.233   3.157
  102ANI     H7 2112   2.988   0.166   3.355
  102ANI     H8 2113   2.738   0.176   3.341
  103ANI     C1 2114   1.846   3.346   1.039
  103ANI     O1 2115   1.866   3.381   0.904
  103ANI     C2 2116   1.761   3.408   0.821
  103ANI     C3 2117   1.629   3.382   0.859
  103ANI     C4 2118   1.524   3.415   0.773
  103ANI     C5 2119   1.552   3.468   0.646
  103ANI     C6 2120   1.684   3.491   0.606
  103ANI     C7 2121   1.788   3.464   0.695
  103ANI     H1 2122   1.783   3.256   1.043
  103ANI     H2 2123   1.942   3.329   1.089
  103ANI     H3 2124   1.791   3.423   1.094
  103ANI     H4 2125   1.605   3.338   0.956
  103ANI     H5 2126   1.421   3.400   0.805
  103ANI     H6 2127   1.470   3.492   0.579
  103ANI     H7 2128   1.706   3.531   0.507
  103ANI     H8 2129   1.892   3.484   0.668
  104ANI     C1 2130   0.737   1.801   3.691
  104ANI     O1 2131   0.685   1.930   3.722
  104ANI     C2 2132   0.755   2.046   3.697
  104ANI     C3 2133   0.894   2.047   3.676
  104ANI     C4 2134   0.959   2.169   3.652
  104ANI     C5 2135   0.886   2.288   3.638
  104ANI     C6 2136   0.747   2.287   3.658
  104ANI     C7 2137   0.683   2.167   3.692
  104ANI     H1 2138   0.822   1.776   3.756
  104ANI     H2 2139   0.659   1.725   3.706
  104ANI     H3 2140   0.769   1.797   3.586
  104ANI     H4 2141   0.953   1.956   3.684
  104ANI     H5 2142   1.068   2.173   3.648
  104ANI     H6 2143   0.937   2.381   3.616
  104ANI     H7 2144   0.691   2.379   3.651
  104ANI     H8 2145   0.576   2.165   3.711
  105ANI     C1 2146   3.113   0.969   1.523
  105ANI     O1 2147   3.218   0.876   1.555
  105ANI     C2 2148   3.248   0.771   1.471
  105ANI     C3 2149   3.204   0.767   1.337
  105ANI     C4 2150   3.229   0.653   1.260
  105ANI     C5 2151   3.297   0.544   1.315
  105ANI     C6 2152   3.342   0.548   1.448
  105ANI     C7 2153   3.319   0.663   1.525
  105ANI     H1 2154   3.022   0.915   1.494
  105ANI     H2 2155   3.090   1.031   1.610
  105ANI     H3 2156   3.142   1.033   1.439
  105ANI     H4 2157   3.150   0.850   1.294
  105ANI     H5 2158   3.197   0.650   1.156
  105ANI     H6 2159   3.318   0.457   1.254
  105ANI     H7 2160   3.397   0.464   1.490
  105ANI     H8 2161   3.353   0.667   1.628
  106ANI     C1 2162   1.697   3.244   2.803
  106ANI     O1 2163   1.816   3.217   2.727
  106ANI     C2 2164   1.849   3.088   2.690
  106ANI     C3 2165   1.756   2.983   2.695
  106ANI     C4 2166   1.797   2.852   2.663
  106ANI     C5 2167   1.930   2.826   2.627
  106ANI     C6 2168   2.022   2.932   2.619
  106ANI     C7 2169   1.980   3.063   2.649
  106ANI     H1 2170   1.693   3.182   2.893
  106ANI     H2 2171   1.696   3.349   2.834
  106ANI     H3 2172   1.607   3.226   2.743
  106ANI     H4 2173   1.654   3.002   2.725
  106ANI     H5 2174   1.726   2.769   2.668
  106ANI     H6 2175   1.961   2.725   2.603
  106ANI     H7 2176   2.124   2.912   2.591
  106ANI     H8 2177   2.050   3.146   2.644
  107ANI     C1 2178   1.618   2.461   3.415
  107ANI     O1 2179   1.480   2.498   3.413
  107ANI     C2 2180   1.395   2.482   3.518
  107ANI     C3 2181   1.435   2.426   3.640
  107ANI     C4 2182   1.344   2.418   3.747
  107ANI     C5 2183   1.214   2.465   3.730
  107ANI     C6 2184   1.173   2.518   3.607
  107ANI     C7 2185   1.264   2.528   3.502
  107ANI     H1 2186   1.629   2.352   3.421
  107ANI     H2 2187   1.667   2.496   3.324
  107ANI     H3 2188   1.668   2.507   3.501
  107ANI     H4 2189   1.537   2.389   3.652
  107ANI     H5 2190   1.373   2.376   3.843
  107ANI     H6 2191   1.143   2.461   3.813
  107ANI     H7 2192   1.070   2.551   3.593
  107ANI     H8 2193   1.233   2.572   3.408
  108ANI     C1 2194   0.977   0.284   2.556
  108ANI     O1 2195   0.943   0.421   2.531
  108ANI     C2 2196   0.987   0.487   2.419
  108ANI     C3 2197   1.066   0.425   2.320
  108ANI     C4 2198   1.120   0.502   2.217
  108ANI     C5 2199   1.087   0.638   2.206
  108ANI     C6 2200   0.993   0.694   2.292
  108ANI     C7 2201   0.951   0.621   2.403
  108ANI     H1 2202   1.086   0.271   2.558
  108ANI     H2 2203   0.937   0.252   2.653
  108ANI     H3 2204   0.935   0.220   2.478
  108ANI     H4 2205   1.096   0.321   2.328
  108ANI     H5 2206   1.191   0.457   2.148
  108ANI     H6 2207   1.134   0.702   2.132
  108ANI     H7 2208   0.959   0.796   2.274
  108ANI     H8 2209   0.888   0.669   2.478
  109ANI     C1 2210   1.735   0.626   1.475
  109ANI     O1 2211   1.865   0.654   1.424
  109ANI     C2 2212   1.893   0.764   1.347
  109ANI     C3 2213   1.799   0.867   1.329
  109ANI     C4 2214   1.840   0.989   1.272
  109ANI     C5 2215   1.971   1.004   1.226
  109ANI     C6 2216   2.063   0.900   1.238
  109ANI     C7 2217   2.022   0.778   1.296
  109ANI     H1 2218   1.661   0.628   1.393
  109ANI     H2 2219   1.732   0.527   1.521
  109ANI     H3 2220   1.706   0.701   1.550
  109ANI     H4 2221   1.699   0.857   1.370
  109ANI     H5 2222   1.774   1.075   1.267
  109ANI     H6 2223   2.004   1.100   1.187
  109ANI     H7 2224   2.166   0.915   1.208
  109ANI     H8 2225   2.093   0.697   1.306
  110ANI     C1 2226   0.029   0.885   0.900
  110ANI     O1 2227   0.108   0.932   1.010
  110ANI     C2 2228   0.243   0.903   1.017
  110ANI     C3 2229   0.306   0.817   0.925
  110ANI     C4 2230   0.443   0.792   0.935
  110ANI     C5 2231   0.519   0.853   1.036
  110ANI     C6 2232   0.457   0.936   1.130
  110ANI     C7 2233   0.318   0.960   1.121
  110ANI     H1 2234   0.023   0.775   0.902
  110ANI     H2 2235  -0.072   0.925   0.905
  110ANI     H3 2236   0.074   0.915   0.805
  110ANI     H4 2237   0.251   0.768   0.845
  110ANI     H5 2238   0.488   0.723   0.865
  110ANI     H6 2239   0.626   0.833   1.043
  110ANI     H7 2240   0.515   0.982   1.209
  110ANI     H8 2241   0.270   1.025   1.193
  111ANI     C1 2242   2.838   1.526   1.003
  111ANI     O1 2243   2.789   1.584   1.124
  111ANI     C2 2244   2.658   1.572   1.160
  111ANI     C3 2245   2.562   1.510   1.077
  111ANI     C4 2246   2.431   1.495   1.121
  111ANI     C5 2247   2.392   1.546   1.246
  111ANI     C6 2248   2.486   1.609   1.328
  111ANI     C7 2249   2.618   1.622   1.284
  111ANI     H1 2250   2.786   1.570   0.917
  111ANI     H2 2251   2.946   1.545   0.991
  111ANI     H3 2252   2.824   1.417   1.002
  111ANI     H4 2253   2.589   1.470   0.980
  111ANI     H5 2254   2.361   1.440   1.059
  111ANI     H6 2255   2.289   1.533   1.279
  111ANI     H7 2256   2.458   1.646   1.426
  111ANI     H8 2257   2.691   1.676   1.343
  112ANI     C1 2258   0.167   2.788   0.330
  112ANI     O1 2259   0.296   2.849   0.344
  112ANI     C2 2260   0.322   2.976   0.299
  112ANI     C3 2261   0.223   3.059   0.243
  112ANI     C4 2262   0.255   3.187   0.197
  112ANI     C5 2263   0.388   3.234   0.206
  112ANI     C6 2264   0.487   3.152   0.263
  112ANI     C7 2265   0.454   3.024   0.310
  112ANI     H1 2266   0.141   2.776   0.225
  112ANI     H2 2267   0.167   2.688   0.378
  112ANI     H3 2268   0.090   2.848   0.380
  112ANI     H4 2269   0.120   3.025   0.235
  112ANI     H5 2270   0.178   3.251   0.154
  112ANI     H6 2271   0.413   3.333   0.171
  112ANI     H7 2272   0.589   3.189   0.270
  112ANI     H8 2273   0.531   2.961   0.354
  113ANI     C1 2274   0.055   1.571   0.632
  113ANI     O1 2275   0.037   1.531   0.495
  113ANI     C2 2276   0.114   1.434   0.436
  113ANI     C3 2277   0.235   1.388   0.492
  113ANI     C4 2278   0.309   1.287   0.427
  113ANI     C5 2279   0.264   1.234   0.305
  113ANI     C6 2280   0.144   1.279   0.249
  113ANI     C7 2281   0.069   1.379   0.315
  113ANI     H1 2282   0.157   1.609   0.648
  113ANI     H2 2283  -0.016   1.651   0.657
  113ANI     H3 2284   0.037   1.487   0.700
  113ANI     H4 2285   0.273   1.427   0.586
  113ANI     H5 2286   0.398   1.247   0.474
  113ANI     H6 2287   0.320   1.156   0.256
  113ANI     H7 2288   0.108   1.236   0.156
  113ANI     H8 2289  -0.025   1.413   0.274
  114ANI     C1 2290   0.768   2.653   0.257
  114ANI     O1 2291   0.844   2.630   0.376
  114ANI     C2 2292   0.851   2.503   0.431
  114ANI     C3 2293   0.787   2.393   0.372
  114ANI     C4 2294   0.790   2.267   0.432
  114ANI     C5 2295   0.860   2.249   0.552
  114ANI     C6 2296   0.927   2.358   0.611
  114ANI     C7 2297   0.922   2.485   0.551
  114ANI     H1 2298   0.665   2.617   0.268
  114ANI     H2 2299   0.760   2.760   0.234
  114ANI     H3 2300   0.815   2.603   0.171
  114ANI     H4 2301   0.734   2.402   0.277
  114ANI     H5 2302   0.740   2.183   0.386
  114ANI     H6 2303   0.862   2.150   0.596
  114ANI     H7 2304   0.980   2.345   0.705
  114ANI     H8 2305   0.971   2.570   0.597
  115ANI     C1 2306   1.846   1.596   3.692
  115ANI     O1 2307   1.807   1.530   3.572
  115ANI     C2 2308   1.871   1.548   3.452
  115ANI     C3 2309   1.977   1.638   3.433
  115ANI     C4 2310   2.032   1.653   3.304
  115ANI     C5 2311   1.981   1.580   3.196
  115ANI     C6 2312   1.875   1.491   3.216
  115ANI     C7 2313   1.823   1.473   3.345
  115ANI     H1 2314   1.836   1.705   3.683
  115ANI     H2 2315   1.784   1.563   3.776
  115ANI     H3 2316   1.951   1.572   3.716
  115ANI     H4 2317   2.015   1.698   3.515
  115ANI     H5 2318   2.112   1.725   3.288
  115ANI     H6 2319   2.022   1.593   3.096
  115ANI     H7 2320   1.832   1.437   3.132
  115ANI     H8 2321   1.740   1.405   3.361
  116ANI     C1 2322   1.928   3.205   0.599
  116ANI     O1 2323   2.009   3.255   0.702
  116ANI     C2 2324   2.129   3.314   0.679
  116ANI     C3 2325   2.179   3.334   0.550
  116ANI     C4 2326   2.305   3.392   0.535
  116ANI     C5 2327   2.380   3.433   0.646
  116ANI     C6 2328   2.327   3.414   0.773
  116ANI     C7 2329   2.202   3.354   0.790
  116ANI     H1 2330   1.981   3.125   0.546
  116ANI     H2 2331   1.835   3.165   0.642
  116ANI     H3 2332   1.901   3.284   0.527
  116ANI     H4 2333   2.122   3.304   0.463
  116ANI     H5 2334   2.347   3.405   0.435
  116ANI     H6 2335   2.479   3.476   0.633
  116ANI     H7 2336   2.385   3.441   0.861
  116ANI     H8 2337   2.160   3.338   0.889
  117ANI     C1 2338   0.466   1.175   3.259
  117ANI     O1 2339   0.573   1.092   3.214
  117ANI     C2 2340   0.559   0.956   3.206
  117ANI     C3 2341   0.446   0.888   3.256
  117ANI     C4 2342   0.442   0.748   3.250
  117ANI     C5 2343   0.548   0.677   3.194
  117ANI     C6 2344   0.658   0.745   3.142
  117ANI     C7 2345   0.664   0.885   3.148
  117ANI     H1 2346   0.423   1.137   3.352
  117ANI     H2 2347   0.503   1.276   3.277
  117ANI     H3 2348   0.386   1.177   3.184
  117ANI     H4 2349   0.364   0.940   3.303
  117ANI     H5 2350   0.358   0.693   3.291
  117ANI     H6 2351   0.543   0.569   3.189
  117ANI     H7 2352   0.740   0.689   3.097
  117ANI     H8 2353   0.750   0.938   3.109
  118ANI     C1 2354   2.827   2.829   0.316
  118ANI     O1 2355   2.940   2.848   0.403
  118ANI     C2 2356   2.958   2.965   0.474
  118ANI     C3 2357   2.885   3.082   0.447
  118ANI     C4 2358   2.903   3.197   0.524
  118ANI     C5 2359   2.995   3.197   0.630
  118ANI     C6 2360   3.069   3.081   0.657
  118ANI     C7 2361   3.051   2.965   0.579
  118ANI     H1 2362   2.824   2.905   0.237
  118ANI     H2 2363   2.833   2.732   0.267
  118ANI     H3 2364   2.733   2.833   0.374
  118ANI     H4 2365   2.811   3.083   0.368
  118ANI     H5 2366   2.842   3.285   0.506
  118ANI     H6 2367   3.008   3.286   0.690
  118ANI     H7 2368   3.141   3.081   0.739
  118ANI     H8 2369   3.109   2.875   0.600
  119ANI     C1 2370   3.283   2.001   0.596
  119ANI     O1 2371   3.263   1.898   0.693
  119ANI     C2 2372   3.138   1.846   0.712
  119ANI     C3 2373   3.046   1.834   0.606
  119ANI     C4 2374   2.915   1.792   0.631
  119ANI     C5 2375   2.875   1.762   0.761
  119ANI     C6 2376   2.967   1.775   0.867
  119ANI     C7 2377   3.099   1.812   0.842
  119ANI     H1 2378   3.215   2.086   0.612
  119ANI     H2 2379   3.385   2.041   0.603
  119ANI     H3 2380   3.267   1.963   0.494
  119ANI     H4 2381   3.075   1.862   0.505
  119ANI     H5 2382   2.843   1.788   0.550
  119ANI     H6 2383   2.772   1.734   0.780
  119ANI     H7 2384   2.934   1.762   0.970
  119ANI     H8 2385   3.169   1.824   0.925
  120ANI     C1 2386   0.167   0.695   1.241
  120ANI     O1 2387   0.291   0.655   1.183
  120ANI     C2 2388   0.310   0.532   1.126
  120ANI     C3 2389   0.210   0.433   1.121
  120ANI     C4 2390   0.240   0.304   1.072
  120ANI     C5 2391   0.370   0.275   1.028
  120ANI     C6 2392   0.469   0.374   1.032
  120ANI     C7 2393   0.438   0.504   1.076
  120ANI     H1 2394   0.145   0.633   1.329
  120ANI     H2 2395   0.171   0.800   1.274
  120ANI     H3 2396   0.086   0.687   1.168
  120ANI     H4 2397   0.111   0.453   1.159
  120ANI     H5 2398   0.164   0.227   1.071
  120ANI     H6 2399   0.396   0.174   0.996
  120ANI     H7 2400   0.573   0.349   1.013
  120ANI     H8 2401   0.516   0.579   1.085
  121ANI     C1 2402   3.392   3.207   2.606
  121ANI     O1 2403   3.269   3.280   2.619
  121ANI     C2 2404   3.217   3.315   2.742
  121ANI     C3 2405   3.293   3.310   2.860
  121ANI     C4 2406   3.235   3.350   2.982
  121ANI     C5 2407   3.103   3.397   2.985
  121ANI     C6 2408   3.027   3.402   2.867
  121ANI     C7 2409   3.084   3.359   2.746
  121ANI     H1 2410   3.389   3.117   2.670
  121ANI     H2 2411   3.405   3.175   2.503
  121ANI     H3 2412   3.477   3.269   2.636
  121ANI     H4 2413   3.396   3.275   2.859
  121ANI     H5 2414   3.293   3.347   3.074
  121ANI     H6 2415   3.059   3.429   3.079
  121ANI     H7 2416   2.925   3.438   2.868
  121ANI     H8 2417   3.025   3.360   2.655
  122ANI     C1 2418   2.383   2.143   3.612
  122ANI     O1 2419   2.323   2.218   3.506
  122ANI     C2 2420   2.362   2.346   3.477
  122ANI     C3 2421   2.482   2.400   3.528
  122ANI     C4 2422   2.511   2.535   3.506
  122ANI     C5 2423   2.421   2.616   3.437
  122ANI     C6 2424   2.306   2.561   3.379
  122ANI     C7 2425   2.280   2.425   3.396
  122ANI     H1 2426   2.377   2.199   3.706
  122ANI     H2 2427   2.331   2.047   3.624
  122ANI     H3 2428   2.489   2.124   3.593
  122ANI     H4 2429   2.551   2.341   3.586
  122ANI     H5 2430   2.601   2.580   3.547
  122ANI     H6 2431   2.441   2.723   3.427
  122ANI     H7 2432   2.238   2.623   3.322
  122ANI     H8 2433   2.191   2.385   3.348
  123ANI     C1 2434   2.256   1.129   2.926
  123ANI     O1 2435   2.338   1.204   3.017
  123ANI     C2 2436   2.464   1.162   3.054
  123ANI     C3 2437   2.528   1.054   2.990
  123ANI     C4 2438   2.653   1.008   3.036
  123ANI     C5 2439   2.716   1.072   3.144
  123ANI     C6 2440   2.653   1.181   3.207
  123ANI     C7 2441   2.527   1.226   3.161
  123ANI     H1 2442   2.232   1.030   2.967
  123ANI     H2 2443   2.161   1.181   2.907
  123ANI     H3 2444   2.306   1.116   2.829
  123ANI     H4 2445   2.479   1.000   2.910
  123ANI     H5 2446   2.699   0.921   2.990
  123ANI     H6 2447   2.812   1.036   3.179
  123ANI     H7 2448   2.701   1.230   3.291
  123ANI     H8 2449   2.478   1.309   3.210
  124ANI     C1 2450   2.558   0.436   1.307
  124ANI     O1 2451   2.698   0.447   1.331
  124ANI     C2 2452   2.745   0.538   1.423
  124ANI     C3 2453   2.659   0.611   1.507
  124ANI     C4 2454   2.709   0.717   1.583
  124ANI     C5 2455   2.847   0.738   1.589
  124ANI     C6 2456   2.934   0.652   1.520
  124ANI     C7 2457   2.883   0.555   1.433
  124ANI     H1 2458   2.518   0.532   1.269
  124ANI     H2 2459   2.538   0.359   1.232
  124ANI     H3 2460   2.504   0.410   1.398
  124ANI     H4 2461   2.554   0.587   1.514
  124ANI     H5 2462   2.641   0.780   1.639
  124ANI     H6 2463   2.887   0.819   1.649
  124ANI     H7 2464   3.041   0.661   1.534
  124ANI     H8 2465   2.950   0.493   1.374
  125ANI     C1 2466   2.441   2.595   0.413
  125ANI     O1 2467   2.534   2.656   0.502
  125ANI     C2 2468   2.493   2.724   0.614
  125ANI     C3 2469   2.357   2.746   0.643
  125ANI     C4 2470   2.320   2.829   0.749
  125ANI     C5 2471   2.418   2.879   0.835
  125ANI     C6 2472   2.552   2.845   0.816
  125ANI     C7 2473   2.590   2.772   0.702
  125ANI     H1 2474   2.369   2.669   0.374
  125ANI     H2 2475   2.493   2.554   0.325
  125ANI     H3 2476   2.387   2.514   0.463
  125ANI     H4 2477   2.279   2.698   0.585
  125ANI     H5 2478   2.215   2.846   0.770
  125ANI     H6 2479   2.392   2.938   0.922
  125ANI     H7 2480   2.626   2.878   0.889
  125ANI     H8 2481   2.696   2.753   0.683
  126ANI     C1 2482   2.404   0.309   0.080
  126ANI     O1 2483   2.330   0.199   0.135
  126ANI     C2 2484   2.193   0.203   0.147
  126ANI     C3 2485   2.112   0.279   0.061
  126ANI     C4 2486   1.972   0.277   0.074
  126ANI     C5 2487   1.913   0.201   0.176
  126ANI     C6 2488   1.993   0.127   0.264
  126ANI     C7 2489   2.132   0.128   0.249
  126ANI     H1 2490   2.382   0.402   0.132
  126ANI     H2 2491   2.512   0.289   0.087
  126ANI     H3 2492   2.379   0.325  -0.026
  126ANI     H4 2493   2.159   0.339  -0.017
  126ANI     H5 2494   1.910   0.333   0.005
  126ANI     H6 2495   1.805   0.199   0.186
  126ANI     H7 2496   1.948   0.068   0.343
  126ANI     H8 2497   2.195   0.071   0.317
  127ANI     C1 2498   3.153   0.059   2.276
  127ANI     O1 2499   3.101   0.191   2.258
  127ANI     C2 2500   2.966   0.213   2.241
  127ANI     C3 2501   2.870   0.110   2.248
  127ANI     C4 2502   2.735   0.136   2.223
  127ANI     C5 2503   2.695   0.266   2.191
  127ANI     C6 2504   2.789   0.370   2.189
  127ANI     C7 2505   2.924   0.344   2.214
  127ANI     H1 2506   3.127  -0.005   2.190
  127ANI     H2 2507   3.263   0.062   2.283
  127ANI     H3 2508   3.114   0.013   2.367
  127ANI     H4 2509   2.899   0.009   2.274
  127ANI     H5 2510   2.661   0.056   2.227
  127ANI     H6 2511   2.590   0.288   2.170
  127ANI     H7 2512   2.755   0.471   2.164
  127ANI     H8 2513   2.998   0.424   2.208
  128ANI     C1 2514   3.225   1.293   1.489
  128ANI     O1 2515   3.104   1.273   1.563
  128ANI     C2 2516   2.997   1.360   1.553
  128ANI     C3 2517   3.007   1.487   1.494
  128ANI     C4 2518   2.894   1.570   1.488
  128ANI     C5 2519   2.772   1.528   1.544
  128ANI     C6 2520   2.761   1.399   1.597
  128ANI     C7 2521   2.874   1.317   1.604
  128ANI     H1 2522   3.276   1.384   1.521
  128ANI     H2 2523   3.293   1.208   1.505
  128ANI     H3 2524   3.204   1.300   1.382
  128ANI     H4 2525   3.101   1.522   1.453
  128ANI     H5 2526   2.901   1.667   1.440
  128ANI     H6 2527   2.686   1.593   1.545
  128ANI     H7 2528   2.665   1.364   1.636
  128ANI     H8 2529   2.867   1.217   1.647
  129ANI     C1 2530   3.006   2.957   2.762
  129ANI     O1 2531   2.901   3.012   2.681
  129ANI     C2 2532   2.923   3.078   2.563
  129ANI     C3 2533   3.053   3.104   2.516
  129ANI     C4 2534   3.073   3.165   2.392
  129ANI     C5 2535   2.963   3.204   2.315
  129ANI     C6 2536   2.834   3.187   2.365
  129ANI     C7 2537   2.814   3.122   2.488
  129ANI     H1 2538   3.074   3.036   2.796
  129ANI     H2 2539   2.963   2.908   2.850
  129ANI     H3 2540   3.062   2.882   2.706
  129ANI     H4 2541   3.139   3.072   2.574
  129ANI     H5 2542   3.175   3.180   2.355
  129ANI     H6 2543   2.979   3.249   2.217
  129ANI     H7 2544   2.749   3.224   2.308
  129ANI     H8 2545   2.713   3.103   2.524
  130ANI     C1 2546   1.213   0.655   0.152
  130ANI     O1 2547   1.277   0.528   0.144
  130ANI     C2 2548   1.401   0.504   0.199
  130ANI     C3 2549   1.491   0.608   0.232
  130ANI     C4 2550   1.615   0.577   0.288
  130ANI     C5 2551   1.651   0.444   0.315
  130ANI     C6 2552   1.561   0.341   0.284
  130ANI     C7 2553   1.438   0.371   0.224
  130ANI     H1 2554   1.264   0.727   0.087
  130ANI     H2 2555   1.109   0.647   0.117
  130ANI     H3 2556   1.212   0.694   0.255
  130ANI     H4 2557   1.466   0.712   0.213
  130ANI     H5 2558   1.685   0.656   0.313
  130ANI     H6 2559   1.747   0.422   0.360
  130ANI     H7 2560   1.587   0.237   0.306
  130ANI     H8 2561   1.368   0.291   0.201
  131ANI     C1 2562   1.519   1.098   2.232
  131ANI     O1 2563   1.379   1.066   2.231
  131ANI     C2 2564   1.321   0.989   2.329
  131ANI     C3 2565   1.396   0.922   2.428
  131ANI     C4 2566   1.331   0.845   2.525
  131ANI     C5 2567   1.191   0.840   2.528
  131ANI     C6 2568   1.117   0.914   2.436
  131ANI     C7 2569   1.182   0.982   2.331
  131ANI     H1 2570   1.578   1.009   2.208
  131ANI     H2 2571   1.540   1.175   2.158
  131ANI     H3 2572   1.549   1.136   2.330
  131ANI     H4 2573   1.505   0.928   2.429
  131ANI     H5 2574   1.388   0.789   2.599
  131ANI     H6 2575   1.139   0.778   2.601
  131ANI     H7 2576   1.009   0.916   2.444
  131ANI     H8 2577   1.124   1.035   2.257
  132ANI     C1 2578   1.515   0.989   1.235
  132ANI     O1 2579   1.395   1.062   1.247
  132ANI     C2 2580   1.395   1.198   1.260
  132ANI     C3 2581   1.490   1.280   1.198
  132ANI     C4 2582   1.476   1.419   1.211
  132ANI     C5 2583   1.368   1.474   1.283
  132ANI     C6 2584   1.277   1.391   1.347
  132ANI     C7 2585   1.294   1.254   1.338
  132ANI     H1 2586   1.581   1.021   1.317
  132ANI     H2 2587   1.496   0.882   1.246
  132ANI     H3 2588   1.564   1.006   1.138
  132ANI     H4 2589   1.570   1.239   1.138
  132ANI     H5 2590   1.548   1.484   1.162
  132ANI     H6 2591   1.352   1.582   1.290
  132ANI     H7 2592   1.192   1.430   1.401
  132ANI     H8 2593   1.224   1.189   1.389
  133ANI     C1 2594   0.291   2.716   2.538
  133ANI     O1 2595   0.402   2.748   2.454
  133ANI     C2 2596   0.531   2.708   2.482
  133ANI     C3 2597   0.564   2.652   2.606
  133ANI     C4 2598   0.697   2.616   2.634
  133ANI     C5 2599   0.797   2.634   2.538
  133ANI     C6 2600   0.763   2.686   2.413
  133ANI     C7 2601   0.631   2.725   2.385
  133ANI     H1 2602   0.306   2.753   2.640
  133ANI     H2 2603   0.199   2.762   2.498
  133ANI     H3 2604   0.276   2.607   2.542
  133ANI     H4 2605   0.489   2.637   2.683
  133ANI     H5 2606   0.720   2.573   2.731
  133ANI     H6 2607   0.899   2.606   2.561
  133ANI     H7 2608   0.841   2.697   2.337
  133ANI     H8 2609   0.605   2.769   2.289
  134ANI     C1 2610   1.900   2.224   0.438
  134ANI     O1 2611   1.953   2.095   0.417
  134ANI     C2 2612   1.923   1.988   0.497
  134ANI     C3 2613   1.858   1.999   0.621
  134ANI     C4 2614   1.831   1.886   0.697
  134ANI     C5 2615   1.865   1.760   0.649
  134ANI     C6 2616   1.923   1.747   0.522
  134ANI     C7 2617   1.959   1.862   0.452
  134ANI     H1 2618   1.909   2.253   0.543
  134ANI     H2 2619   1.959   2.297   0.382
  134ANI     H3 2620   1.795   2.228   0.405
  134ANI     H4 2621   1.834   2.095   0.664
  134ANI     H5 2622   1.788   1.898   0.796
  134ANI     H6 2623   1.852   1.672   0.711
  134ANI     H7 2624   1.946   1.649   0.481
  134ANI     H8 2625   2.011   1.855   0.357
  135ANI     C1 2626   1.369   1.142   3.190
  135ANI     O1 2627   1.409   1.006   3.177
  135ANI     C2 2628   1.450   0.951   3.058
  135ANI     C3 2629   1.485   1.029   2.947
  135ANI     C4 2630   1.531   0.967   2.829
  135ANI     C5 2631   1.540   0.827   2.823
  135ANI     C6 2632   1.498   0.749   2.931
  135ANI     C7 2633   1.455   0.811   3.049
  135ANI     H1 2634   1.310   1.174   3.103
  135ANI     H2 2635   1.304   1.154   3.278
  135ANI     H3 2636   1.456   1.207   3.202
  135ANI     H4 2637   1.482   1.138   2.952
  135ANI     H5 2638   1.563   1.027   2.744
  135ANI     H6 2639   1.581   0.779   2.734
  135ANI     H7 2640   1.504   0.641   2.927
  135ANI     H8 2641   1.427   0.751   3.135
  136ANI     C1 2642   1.698   2.686   0.783
  136ANI     O1 2643   1.592   2.625   0.711
  136ANI     C2 2644   1.511   2.530   0.769
  136ANI     C3 2645   1.538   2.474   0.895
  136ANI     C4 2646   1.456   2.372   0.945
  136ANI     C5 2647   1.351   2.323   0.868
  136ANI     C6 2648   1.325   2.375   0.740
  136ANI     C7 2649   1.404   2.482   0.693
  136ANI     H1 2650   1.769   2.611   0.820
  136ANI     H2 2651   1.752   2.758   0.720
  136ANI     H3 2652   1.655   2.739   0.869
  136ANI     H4 2653   1.621   2.509   0.956
  136ANI     H5 2654   1.474   2.332   1.045
  136ANI     H6 2655   1.286   2.247   0.911
  136ANI     H7 2656   1.244   2.337   0.680
  136ANI     H8 2657   1.387   2.524   0.594
  137ANI     C1 2658   0.650   0.128   0.647
  137ANI     O1 2659   0.517   0.090   0.607
  137ANI     C2 2660   0.459   0.137   0.491
  137ANI     C3 2661   0.522   0.232   0.409
  137ANI     C4 2662   0.458   0.280   0.293
  137ANI     C5 2663   0.332   0.230   0.257
  137ANI     C6 2664   0.270   0.134   0.337
  137ANI     C7 2665   0.333   0.088   0.454
  137ANI     H1 2666   0.660   0.237   0.652
  137ANI     H2 2667   0.674   0.086   0.746
  137ANI     H3 2668   0.724   0.091   0.575
  137ANI     H4 2669   0.619   0.273   0.436
  137ANI     H5 2670   0.506   0.356   0.233
  137ANI     H6 2671   0.285   0.267   0.166
  137ANI     H7 2672   0.172   0.095   0.309
  137ANI     H8 2673   0.284   0.014   0.517
  138ANI     C1 2674   2.653   1.094   2.625
  138ANI     O1 2675   2.530   1.021   2.622
  138ANI     C2 2676   2.517   0.899   2.683
  138ANI     C3 2677   2.628   0.830   2.738
  138ANI     C4 2678   2.609   0.705   2.798
  138ANI     C5 2679   2.481   0.647   2.800
  138ANI     C6 2680   2.371   0.717   2.748
  138ANI     C7 2681   2.389   0.843   2.690
  138ANI     H1 2682   2.735   1.034   2.585
  138ANI     H2 2683   2.643   1.184   2.564
  138ANI     H3 2684   2.678   1.122   2.728
  138ANI     H4 2685   2.728   0.871   2.735
  138ANI     H5 2686   2.694   0.653   2.842
  138ANI     H6 2687   2.467   0.548   2.844
  138ANI     H7 2688   2.271   0.673   2.751
  138ANI     H8 2689   2.305   0.898   2.649
  139ANI     C1 2690   1.588   1.975   3.007
  139ANI     O1 2691   1.504   1.880   2.941
  139ANI     C2 2692   1.504   1.747   2.975
  139ANI     C3 2693   1.578   1.693   3.081
  139ANI     C4 2694   1.566   1.556   3.113
  139ANI     C5 2695   1.486   1.472   3.036
  139ANI     C6 2696   1.416   1.526   2.929
  139ANI     C7 2697   1.423   1.662   2.899
  139ANI     H1 2698   1.692   1.962   2.974
  139ANI     H2 2699   1.556   2.077   2.983
  139ANI     H3 2700   1.581   1.962   3.116
  139ANI     H4 2701   1.642   1.756   3.143
  139ANI     H5 2702   1.617   1.514   3.199
  139ANI     H6 2703   1.478   1.367   3.060
  139ANI     H7 2704   1.354   1.461   2.867
  139ANI     H8 2705   1.362   1.703   2.819
  140ANI     C1 2706   0.058   3.027   3.074
  140ANI     O1 2707   0.090   2.999   2.937
  140ANI     C2 2708   0.216   3.024   2.886
  140ANI     C3 2709   0.320   3.076   2.965
  140ANI     C4 2710   0.447   3.097   2.910
  140ANI     C5 2711   0.470   3.067   2.775
  140ANI     C6 2712   0.367   3.013   2.696
  140ANI     C7 2713   0.240   2.992   2.751
  140ANI     H1 2714   0.073   3.133   3.096
  140ANI     H2 2715  -0.047   3.002   3.094
  140ANI     H3 2716   0.122   2.967   3.140
  140ANI     H4 2717   0.306   3.099   3.070
  140ANI     H5 2718   0.529   3.130   2.972
  140ANI     H6 2719   0.570   3.080   2.735
  140ANI     H7 2720   0.386   2.985   2.593
  140ANI     H8 2721   0.160   2.951   2.690
  141ANI     C1 2722   1.100   3.213   3.613
  141ANI     O1 2723   1.015   3.193   3.499
  141ANI     C2 2724   0.898   3.120   3.504
  141ANI     C3 2725   0.840   3.074   3.622
  141ANI     C4 2726   0.720   3.000   3.619
  141ANI     C5 2727   0.659   2.971   3.496
  141ANI     C6 2728   0.716   3.018   3.378
  141ANI     C7 2729   0.834   3.092   3.383
  141ANI     H1 2730   1.133   3.117   3.655
  141ANI     H2 2731   1.189   3.270   3.584
  141ANI     H3 2732   1.047   3.269   3.691
  141ANI     H4 2733   0.885   3.097   3.718
  141ANI     H5 2734   0.677   2.963   3.712
  141ANI     H6 2735   0.567   2.913   3.493
  141ANI     H7 2736   0.668   3.002   3.282
  141ANI     H8 2737   0.873   3.136   3.292
  142ANI     C1 2738   1.476   2.581   1.217
  142ANI     O1 2739   1.467   2.660   1.100
  142ANI     C2 2740   1.357   2.735   1.071
  142ANI     C3 2741   1.252   2.757   1.162
  142ANI     C4 2742   1.137   2.825   1.118
  142ANI     C5 2743   1.131   2.877   0.988
  142ANI     C6 2744   1.240   2.861   0.901
  142ANI     C7 2745   1.351   2.789   0.942
  142ANI     H1 2746   1.397   2.506   1.216
  142ANI     H2 2747   1.573   2.531   1.219
  142ANI     H3 2748   1.466   2.643   1.307
  142ANI     H4 2749   1.255   2.716   1.263
  142ANI     H5 2750   1.051   2.836   1.184
  142ANI     H6 2751   1.043   2.931   0.955
  142ANI     H7 2752   1.236   2.903   0.801
  142ANI     H8 2753   1.433   2.769   0.874
  143ANI     C1 2754   2.552   0.824   3.584
  143ANI     O1 2755   2.564   0.717   3.492
  143ANI     C2 2756   2.520   0.733   3.363
  143ANI     C3 2757   2.462   0.853   3.318
  143ANI     C4 2758   2.411   0.861   3.189
  143ANI     C5 2759   2.426   0.754   3.101
  143ANI     C6 2760   2.490   0.637   3.143
  143ANI     C7 2761   2.536   0.626   3.274
  143ANI     H1 2762   2.447   0.851   3.599
  143ANI     H2 2763   2.596   0.795   3.680
  143ANI     H3 2764   2.606   0.913   3.548
  143ANI     H4 2765   2.449   0.939   3.384
  143ANI     H5 2766   2.357   0.950   3.157
  143ANI     H6 2767   2.386   0.764   3.001
  143ANI     H7 2768   2.502   0.553   3.075
  143ANI     H8 2769   2.585   0.534   3.307
  144ANI     C1 2770   1.269   3.236   2.251
  144ANI     O1 2771   1.184   3.130   2.293
  144ANI     C2 2772   1.221   2.997   2.287
  144ANI     C3 2773   1.336   2.952   2.220
  144ANI     C4 2774   1.367   2.815   2.217
  144ANI     C5 2775   1.282   2.722   2.280
  144ANI     C6 2776   1.169   2.767   2.350
  144ANI     C7 2777   1.140   2.905   2.354
  144ANI     H1 2778   1.279   3.237   2.141
  144ANI     H2 2779   1.228   3.333   2.282
  144ANI     H3 2780   1.370   3.226   2.293
  144ANI     H4 2781   1.402   3.023   2.171
  144ANI     H5 2782   1.456   2.780   2.167
  144ANI     H6 2783   1.305   2.616   2.277
  144ANI     H7 2784   1.105   2.697   2.403
  144ANI     H8 2785   1.055   2.941   2.411
  145ANI     C1 2786   1.771   2.952   0.478
  145ANI     O1 2787   1.755   3.082   0.421
  145ANI     C2 2788   1.826   3.128   0.315
  145ANI     C3 2789   1.946   3.068   0.281
  145ANI     C4 2790   2.027   3.128   0.187
  145ANI     C5 2791   1.988   3.246   0.123
  145ANI     C6 2792   1.862   3.300   0.148
  145ANI     C7 2793   1.781   3.242   0.247
  145ANI     H1 2794   1.875   2.935   0.508
  145ANI     H2 2795   1.711   2.941   0.569
  145ANI     H3 2796   1.737   2.876   0.406
  145ANI     H4 2797   1.982   2.979   0.333
  145ANI     H5 2798   2.125   3.083   0.171
  145ANI     H6 2799   2.056   3.296   0.055
  145ANI     H7 2800   1.830   3.390   0.096
  145ANI     H8 2801   1.685   3.286   0.273
  146ANI     C1 2802   3.351   2.913   1.222
  146ANI     O1 2803   3.229   2.969   1.271
  146ANI     C2 2804   3.141   2.895   1.347
  146ANI     C3 2805   3.162   2.760   1.381
  146ANI     C4 2806   3.067   2.691   1.458
  146ANI     C5 2807   2.950   2.757   1.502
  146ANI     C6 2808   2.930   2.892   1.468
  146ANI     C7 2809   3.025   2.960   1.391
  146ANI     H1 2810   3.330   2.823   1.163
  146ANI     H2 2811   3.402   2.985   1.157
  146ANI     H3 2812   3.418   2.886   1.304
  146ANI     H4 2813   3.252   2.708   1.350
  146ANI     H5 2814   3.083   2.587   1.485
  146ANI     H6 2815   2.875   2.704   1.559
  146ANI     H7 2816   2.839   2.943   1.500
  146ANI     H8 2817   3.008   3.064   1.363
  147ANI     C1 2818   1.121   2.975   0.559
  147ANI     O1 2819   1.163   3.112   0.563
  147ANI     C2 2820   1.217   3.177   0.453
  147ANI     C3 2821   1.215   3.122   0.324
  147ANI     C4 2822   1.272   3.192   0.216
  147ANI     C5 2823   1.335   3.315   0.237
  147ANI     C6 2824   1.340   3.369   0.367
  147ANI     C7 2825   1.279   3.300   0.474
  147ANI     H1 2826   1.204   2.909   0.529
  147ANI     H2 2827   1.083   2.943   0.656
  147ANI     H3 2828   1.040   2.961   0.486
  147ANI     H4 2829   1.175   3.023   0.308
  147ANI     H5 2830   1.273   3.148   0.117
  147ANI     H6 2831   1.382   3.368   0.155
  147ANI     H7 2832   1.389   3.465   0.382
  147ANI     H8 2833   1.283   3.341   0.575
  148ANI     C1 2834   0.179   2.123   1.210
  148ANI     O1 2835   0.093   2.193   1.119
  148ANI     C2 2836   0.113   2.188   0.983
  148ANI     C3 2837   0.212   2.107   0.922
  148ANI     C4 2838   0.230   2.111   0.783
  148ANI     C5 2839   0.152   2.196   0.704
  148ANI     C6 2840   0.051   2.273   0.762
  148ANI     C7 2841   0.032   2.269   0.902
  148ANI     H1 2842   0.284   2.152   1.194
  148ANI     H2 2843   0.153   2.148   1.314
  148ANI     H3 2844   0.170   2.015   1.197
  148ANI     H4 2845   0.275   2.041   0.981
  148ANI     H5 2846   0.305   2.049   0.735
  148ANI     H6 2847   0.168   2.201   0.597
  148ANI     H7 2848  -0.007   2.339   0.699
  148ANI     H8 2849  -0.043   2.332   0.948
  149ANI     C1 2850   0.570   1.968   2.534
  149ANI     O1 2851   0.711   1.967   2.509
  149ANI     C2 2852   0.794   2.065   2.558
  149ANI     C3 2853   0.747   2.163   2.647
  149ANI     C4 2854   0.833   2.263   2.693
  149ANI     C5 2855   0.968   2.265   2.654
  149ANI     C6 2856   1.016   2.164   2.569
  149ANI     C7 2857   0.929   2.065   2.522
  149ANI     H1 2858   0.525   2.063   2.503
  149ANI     H2 2859   0.521   1.887   2.478
  149ANI     H3 2860   0.548   1.953   2.641
  149ANI     H4 2861   0.644   2.162   2.681
  149ANI     H5 2862   0.793   2.339   2.760
  149ANI     H6 2863   1.033   2.343   2.691
  149ANI     H7 2864   1.121   2.164   2.539
  149ANI     H8 2865   0.963   1.985   2.457
  150ANI     C1 2866   2.536   1.580   0.139
  150ANI     O1 2867   2.448   1.555   0.250
  150ANI     C2 2868   2.437   1.433   0.314
  150ANI     C3 2869   2.502   1.318   0.265
  150ANI     C4 2870   2.482   1.195   0.328
  150ANI     C5 2871   2.400   1.184   0.441
  150ANI     C6 2872   2.340   1.299   0.494
  150ANI     C7 2873   2.359   1.422   0.430
  150ANI     H1 2874   2.505   1.522   0.051
  150ANI     H2 2875   2.535   1.686   0.113
  150ANI     H3 2876   2.639   1.553   0.164
  150ANI     H4 2877   2.568   1.324   0.179
  150ANI     H5 2878   2.530   1.106   0.288
  150ANI     H6 2879   2.384   1.088   0.489
  150ANI     H7 2880   2.279   1.293   0.583
  150ANI     H8 2881   2.312   1.510   0.474
  151ANI     C1 2882   2.652   1.923   0.300
  151ANI     O1 2883   2.679   1.784   0.319
  151ANI     C2 2884   2.633   1.719   0.431
  151ANI     C3 2885   2.560   1.785   0.531
  151ANI     C4 2886   2.525   1.719   0.648
  151ANI     C5 2887   2.550   1.583   0.662
  151ANI     C6 2888   2.617   1.514   0.560
  151ANI     C7 2889   2.662   1.583   0.447
  151ANI     H1 2890   2.683   1.979   0.389
  151ANI     H2 2891   2.705   1.962   0.212
  151ANI     H3 2892   2.544   1.939   0.287
  151ANI     H4 2893   2.528   1.888   0.518
  151ANI     H5 2894   2.472   1.770   0.727
  151ANI     H6 2895   2.514   1.535   0.752
  151ANI     H7 2896   2.631   1.406   0.563
  151ANI     H8 2897   2.714   1.528   0.369
  152ANI     C1 2898   1.248   1.676   1.026
  152ANI     O1 2899   1.205   1.658   0.892
  152ANI     C2 2900   1.179   1.766   0.813
  152ANI     C3 2901   1.209   1.899   0.848
  152ANI     C4 2902   1.169   2.005   0.765
  152ANI     C5 2903   1.103   1.978   0.645
  152ANI     C6 2904   1.076   1.846   0.607
  152ANI     C7 2905   1.111   1.742   0.694
  152ANI     H1 2906   1.171   1.724   1.087
  152ANI     H2 2907   1.276   1.580   1.070
  152ANI     H3 2908   1.337   1.740   1.026
  152ANI     H4 2909   1.254   1.923   0.944
  152ANI     H5 2910   1.188   2.108   0.793
  152ANI     H6 2911   1.073   2.061   0.581
  152ANI     H7 2912   1.025   1.824   0.514
  152ANI     H8 2913   1.076   1.641   0.676
  153ANI     C1 2914   1.034   0.577   0.778
  153ANI     O1 2915   0.979   0.633   0.660
  153ANI     C2 2916   0.927   0.556   0.559
  153ANI     C3 2917   0.918   0.416   0.566
  153ANI     C4 2918   0.864   0.344   0.458
  153ANI     C5 2919   0.821   0.411   0.343
  153ANI     C6 2920   0.830   0.551   0.335
  153ANI     C7 2921   0.881   0.622   0.445
  153ANI     H1 2922   1.125   0.520   0.755
  153ANI     H2 2923   1.059   0.657   0.849
  153ANI     H3 2924   0.962   0.510   0.827
  153ANI     H4 2925   0.955   0.362   0.653
  153ANI     H5 2926   0.861   0.236   0.462
  153ANI     H6 2927   0.781   0.355   0.259
  153ANI     H7 2928   0.792   0.603   0.248
  153ANI     H8 2929   0.878   0.731   0.446
  154ANI     C1 2930   1.143   2.550   0.910
  154ANI     O1 2931   1.173   2.509   1.044
  154ANI     C2 2932   1.073   2.472   1.129
  154ANI     C3 2933   0.945   2.442   1.081
  154ANI     C4 2934   0.848   2.393   1.167
  154ANI     C5 2935   0.877   2.373   1.302
  154ANI     C6 2936   1.001   2.408   1.351
  154ANI     C7 2937   1.101   2.459   1.266
  154ANI     H1 2938   1.070   2.632   0.910
  154ANI     H2 2939   1.233   2.585   0.859
  154ANI     H3 2940   1.101   2.466   0.852
  154ANI     H4 2941   0.921   2.447   0.975
  154ANI     H5 2942   0.754   2.358   1.126
  154ANI     H6 2943   0.804   2.326   1.368
  154ANI     H7 2944   1.019   2.389   1.457
  154ANI     H8 2945   1.199   2.482   1.305
  155ANI     C1 2946   1.269   2.278   1.579
  155ANI     O1 2947   1.178   2.382   1.614
  155ANI     C2 2948   1.205   2.515   1.598
  155ANI     C3 2949   1.337   2.564   1.594
  155ANI     C4 2950   1.360   2.702   1.594
  155ANI     C5 2951   1.252   2.790   1.600
  155ANI     C6 2952   1.120   2.743   1.594
  155ANI     C7 2953   1.097   2.605   1.593
  155ANI     H1 2954   1.365   2.290   1.632
  155ANI     H2 2955   1.228   2.180   1.606
  155ANI     H3 2956   1.287   2.280   1.471
  155ANI     H4 2957   1.421   2.496   1.603
  155ANI     H5 2958   1.461   2.741   1.602
  155ANI     H6 2959   1.271   2.895   1.620
  155ANI     H7 2960   1.037   2.812   1.599
  155ANI     H8 2961   0.996   2.567   1.597
  156ANI     C1 2962   1.952   0.617   0.599
  156ANI     O1 2963   1.979   0.754   0.628
  156ANI     C2 2964   1.929   0.817   0.739
  156ANI     C3 2965   1.881   0.746   0.851
  156ANI     C4 2966   1.826   0.815   0.960
  156ANI     C5 2967   1.819   0.955   0.957
  156ANI     C6 2968   1.874   1.025   0.850
  156ANI     C7 2969   1.924   0.956   0.739
  156ANI     H1 2970   1.843   0.599   0.595
  156ANI     H2 2971   1.995   0.590   0.502
  156ANI     H3 2972   1.995   0.551   0.676
  156ANI     H4 2973   1.875   0.638   0.848
  156ANI     H5 2974   1.785   0.760   1.045
  156ANI     H6 2975   1.771   1.009   1.038
  156ANI     H7 2976   1.877   1.134   0.853
  156ANI     H8 2977   1.965   1.009   0.653
  157ANI     C1 2978   3.302   2.316   1.465
  157ANI     O1 2979   3.177   2.277   1.524
  157ANI     C2 2980   3.139   2.145   1.535
  157ANI     C3 2981   3.226   2.038   1.505
  157ANI     C4 2982   3.183   1.906   1.523
  157ANI     C5 2983   3.052   1.880   1.567
  157ANI     C6 2984   2.964   1.986   1.591
  157ANI     C7 2985   3.008   2.118   1.578
  157ANI     H1 2986   3.311   2.276   1.364
  157ANI     H2 2987   3.307   2.426   1.459
  157ANI     H3 2988   3.386   2.281   1.526
  157ANI     H4 2989   3.328   2.056   1.471
  157ANI     H5 2990   3.250   1.823   1.503
  157ANI     H6 2991   3.021   1.777   1.586
  157ANI     H7 2992   2.862   1.966   1.624
  157ANI     H8 2993   2.942   2.200   1.602
  158ANI     C1 2994   0.743   2.674   1.485
  158ANI     O1 2995   0.661   2.560   1.517
  158ANI     C2 2996   0.602   2.486   1.417
  158ANI     C3 2997   0.588   2.536   1.286
  158ANI     C4 2998   0.541   2.452   1.184
  158ANI     C5 2999   0.504   2.320   1.212
  158ANI     C6 3000   0.513   2.271   1.343
  158ANI     C7 3001   0.561   2.355   1.446
  158ANI     H1 3002   0.682   2.755   1.442
  158ANI     H2 3003   0.792   2.712   1.575
  158ANI     H3 3004   0.821   2.647   1.413
  158ANI     H4 3005   0.620   2.636   1.259
  158ANI     H5 3006   0.541   2.489   1.082
  158ANI     H6 3007   0.473   2.255   1.130
  158ANI     H7 3008   0.487   2.167   1.365
  158ANI     H8 3009   0.573   2.316   1.547
  159ANI     C1 3010   2.324   3.282   2.543
  159ANI     O1 3011   2.365   3.275   2.407
  159ANI     C2 3012   2.412   3.157   2.354
  159ANI     C3 3013   2.371   3.030   2.401
  159ANI     C4 3014   2.429   2.913   2.348
  159ANI     C5 3015   2.529   2.924   2.251
  159ANI     C6 3016   2.571   3.050   2.206
  159ANI     C7 3017   2.508   3.166   2.253
  159ANI     H1 3018   2.402   3.240   2.608
  159ANI     H2 3019   2.308   3.386   2.572
  159ANI     H3 3020   2.231   3.226   2.558
  159ANI     H4 3021   2.295   3.021   2.479
  159ANI     H5 3022   2.399   2.815   2.385
  159ANI     H6 3023   2.577   2.835   2.211
  159ANI     H7 3024   2.654   3.058   2.137
  159ANI     H8 3025   2.539   3.263   2.218
  160ANI     C1 3026   1.869   1.385   1.252
  160ANI     O1 3027   1.942   1.499   1.204
  160ANI     C2 3028   2.009   1.495   1.085
  160ANI     C3 3029   1.984   1.395   0.988
  160ANI     C4 3030   2.064   1.387   0.873
  160ANI     C5 3031   2.168   1.479   0.853
  160ANI     C6 3032   2.189   1.582   0.946
  160ANI     C7 3033   2.109   1.591   1.061
  160ANI     H1 3034   1.934   1.296   1.252
  160ANI     H2 3035   1.836   1.400   1.355
  160ANI     H3 3036   1.781   1.365   1.190
  160ANI     H4 3037   1.906   1.321   1.004
  160ANI     H5 3038   2.051   1.306   0.803
  160ANI     H6 3039   2.233   1.468   0.767
  160ANI     H7 3040   2.271   1.652   0.933
  160ANI     H8 3041   2.128   1.669   1.134
  161ANI     C1 3042   2.750   3.277   1.108
  161ANI     O1 3043   2.631   3.225   1.047
  161ANI     C2 3044   2.633   3.174   0.919
  161ANI     C3 3045   2.747   3.115   0.863
  161ANI     C4 3046   2.740   3.062   0.734
  161ANI     C5 3047   2.626   3.079   0.654
  161ANI     C6 3048   2.512   3.139   0.709
  161ANI     C7 3049   2.515   3.180   0.844
  161ANI     H1 3050   2.807   3.339   1.038
  161ANI     H2 3051   2.723   3.338   1.195
  161ANI     H3 3052   2.818   3.198   1.144
  161ANI     H4 3053   2.839   3.105   0.920
  161ANI     H5 3054   2.823   3.002   0.696
  161ANI     H6 3055   2.623   3.038   0.554
  161ANI     H7 3056   2.421   3.145   0.651
  161ANI     H8 3057   2.425   3.218   0.891
  162ANI     C1 3058   0.398   1.665   2.621
  162ANI     O1 3059   0.276   1.722   2.575
  162ANI     C2 3060   0.221   1.690   2.454
  162ANI     C3 3061   0.284   1.601   2.365
  162ANI     C4 3062   0.220   1.563   2.247
  162ANI     C5 3063   0.093   1.614   2.218
  162ANI     C6 3064   0.033   1.709   2.302
  162ANI     C7 3065   0.097   1.746   2.421
  162ANI     H1 3066   0.480   1.684   2.551
  162ANI     H2 3067   0.426   1.710   2.717
  162ANI     H3 3068   0.387   1.557   2.633
  162ANI     H4 3069   0.381   1.557   2.390
  162ANI     H5 3070   0.267   1.490   2.181
  162ANI     H6 3071   0.039   1.579   2.131
  162ANI     H7 3072  -0.065   1.749   2.276
  162ANI     H8 3073   0.049   1.815   2.490
  163ANI     C1 3074   2.141   0.368   2.475
  163ANI     O1 3075   2.267   0.319   2.427
  163ANI     C2 3076   2.383   0.392   2.440
  163ANI     C3 3077   2.384   0.529   2.472
  163ANI     C4 3078   2.507   0.596   2.487
  163ANI     C5 3079   2.627   0.527   2.474
  163ANI     C6 3080   2.625   0.392   2.440
  163ANI     C7 3081   2.503   0.325   2.422
  163ANI     H1 3082   2.116   0.463   2.427
  163ANI     H2 3083   2.062   0.295   2.453
  163ANI     H3 3084   2.145   0.383   2.584
  163ANI     H4 3085   2.292   0.585   2.486
  163ANI     H5 3086   2.511   0.702   2.512
  163ANI     H6 3087   2.722   0.577   2.492
  163ANI     H7 3088   2.719   0.337   2.435
  163ANI     H8 3089   2.503   0.218   2.399
  164ANI     C1 3090   3.133   2.043   2.244
  164ANI     O1 3091   3.003   1.989   2.220
  164ANI     C2 3092   2.946   1.896   2.305
  164ANI     C3 3093   3.020   1.834   2.408
  164ANI     C4 3094   2.956   1.751   2.500
  164ANI     C5 3095   2.818   1.731   2.492
  164ANI     C6 3096   2.745   1.785   2.385
  164ANI     C7 3097   2.809   1.867   2.291
  164ANI     H1 3098   3.210   1.965   2.233
  164ANI     H2 3099   3.155   2.123   2.172
  164ANI     H3 3100   3.140   2.086   2.344
  164ANI     H4 3101   3.126   1.854   2.420
  164ANI     H5 3102   3.010   1.710   2.585
  164ANI     H6 3103   2.768   1.676   2.572
  164ANI     H7 3104   2.638   1.768   2.379
  164ANI     H8 3105   2.752   1.913   2.211
  165ANI     C1 3106   2.717   2.058   2.578
  165ANI     O1 3107   2.774   2.119   2.695
  165ANI     C2 3108   2.887   2.196   2.693
  165ANI     C3 3109   2.957   2.224   2.574
  165ANI     C4 3110   3.082   2.288   2.581
  165ANI     C5 3111   3.134   2.327   2.705
  165ANI     C6 3112   3.060   2.306   2.823
  165ANI     C7 3113   2.936   2.242   2.816
  165ANI     H1 3114   2.794   2.001   2.524
  165ANI     H2 3115   2.636   1.990   2.607
  165ANI     H3 3116   2.676   2.135   2.511
  165ANI     H4 3117   2.919   2.191   2.477
  165ANI     H5 3118   3.138   2.306   2.490
  165ANI     H6 3119   3.231   2.376   2.711
  165ANI     H7 3120   3.100   2.337   2.919
  165ANI     H8 3121   2.881   2.220   2.907
  166ANI     C1 3122   2.148   1.509   0.192
  166ANI     O1 3123   2.093   1.507   0.324
  166ANI     C2 3124   2.026   1.395   0.364
  166ANI     C3 3125   1.965   1.310   0.270
  166ANI     C4 3126   1.899   1.195   0.313
  166ANI     C5 3127   1.892   1.166   0.449
  166ANI     C6 3128   1.952   1.250   0.543
  166ANI     C7 3129   2.019   1.366   0.501
  166ANI     H1 3130   2.069   1.512   0.116
  166ANI     H2 3131   2.212   1.597   0.179
  166ANI     H3 3132   2.210   1.420   0.176
  166ANI     H4 3133   1.963   1.333   0.164
  166ANI     H5 3134   1.850   1.133   0.238
  166ANI     H6 3135   1.833   1.081   0.483
  166ANI     H7 3136   1.937   1.229   0.648
  166ANI     H8 3137   2.064   1.434   0.573
  167ANI     C1 3138   1.341   3.382   2.865
  167ANI     O1 3139   1.308   3.359   3.002
  167ANI     C2 3140   1.208   3.272   3.037
  167ANI     C3 3141   1.108   3.232   2.945
  167ANI     C4 3142   1.013   3.135   2.982
  167ANI     C5 3143   1.018   3.079   3.110
  167ANI     C6 3144   1.116   3.121   3.203
  167ANI     C7 3145   1.209   3.219   3.166
  167ANI     H1 3146   1.260   3.434   2.814
  167ANI     H2 3147   1.432   3.444   2.857
  167ANI     H3 3148   1.361   3.287   2.815
  167ANI     H4 3149   1.103   3.273   2.845
  167ANI     H5 3150   0.939   3.100   2.911
  167ANI     H6 3151   0.948   3.001   3.136
  167ANI     H7 3152   1.120   3.075   3.301
  167ANI     H8 3153   1.286   3.250   3.236
  168ANI     C1 3154   3.200   2.654   0.019
  168ANI     O1 3155   3.292   2.763   0.015
  168ANI     C2 3156   3.250   2.892   0.038
  168ANI     C3 3157   3.123   2.921   0.093
  168ANI     C4 3158   3.085   3.054   0.111
  168ANI     C5 3159   3.170   3.159   0.072
  168ANI     C6 3160   3.297   3.130   0.021
  168ANI     C7 3161   3.337   2.996   0.005
  168ANI     H1 3162   3.122   2.668  -0.057
  168ANI     H2 3163   3.251   2.558   0.003
  168ANI     H3 3164   3.150   2.651   0.117
  168ANI     H4 3165   3.054   2.843   0.122
  168ANI     H5 3166   2.988   3.077   0.157
  168ANI     H6 3167   3.138   3.262   0.084
  168ANI     H7 3168   3.364   3.211  -0.007
  168ANI     H8 3169   3.435   2.973  -0.036
  169ANI     C1 3170   0.760   1.216   2.228
  169ANI     O1 3171   0.864   1.315   2.219
  169ANI     C2 3172   0.977   1.307   2.297
  169ANI     C3 3173   0.985   1.226   2.411
  169ANI     C4 3174   1.105   1.217   2.483
  169ANI     C5 3175   1.218   1.287   2.440
  169ANI     C6 3176   1.210   1.372   2.329
  169ANI     C7 3177   1.089   1.383   2.258
  169ANI     H1 3178   0.721   1.208   2.330
  169ANI     H2 3179   0.677   1.242   2.162
  169ANI     H3 3180   0.799   1.117   2.199
  169ANI     H4 3181   0.900   1.167   2.444
  169ANI     H5 3182   1.113   1.148   2.566
  169ANI     H6 3183   1.312   1.273   2.493
  169ANI     H7 3184   1.299   1.425   2.295
  169ANI     H8 3185   1.082   1.448   2.172
  170ANI     C1 3186   1.957   0.894   2.227
  170ANI     O1 3187   1.958   0.751   2.228
  170ANI     C2 3188   1.859   0.679   2.291
  170ANI     C3 3189   1.742   0.739   2.341
  170ANI     C4 3190   1.648   0.662   2.411
  170ANI     C5 3191   1.671   0.525   2.429
  170ANI     C6 3192   1.784   0.463   2.375
  170ANI     C7 3193   1.877   0.540   2.304
  170ANI     H1 3194   1.953   0.933   2.329
  170ANI     H2 3195   2.047   0.932   2.178
  170ANI     H3 3196   1.869   0.931   2.172
  170ANI     H4 3197   1.723   0.845   2.329
  170ANI     H5 3198   1.557   0.706   2.450
  170ANI     H6 3199   1.599   0.467   2.486
  170ANI     H7 3200   1.798   0.356   2.388
  170ANI     H8 3201   1.965   0.493   2.261
  171ANI     C1 3202   2.750   2.594   2.219
  171ANI     O1 3203   2.708   2.664   2.335
  171ANI     C2 3204   2.777   2.658   2.453
  171ANI     C3 3205   2.901   2.592   2.466
  171ANI     C4 3206   2.965   2.589   2.591
  171ANI     C5 3207   2.904   2.644   2.703
  171ANI     C6 3208   2.781   2.709   2.690
  171ANI     C7 3209   2.719   2.719   2.565
  171ANI     H1 3210   2.765   2.487   2.241
  171ANI     H2 3211   2.671   2.601   2.143
  171ANI     H3 3212   2.842   2.636   2.179
  171ANI     H4 3213   2.950   2.545   2.381
  171ANI     H5 3214   3.064   2.545   2.600
  171ANI     H6 3215   2.951   2.639   2.801
  171ANI     H7 3216   2.736   2.755   2.777
  171ANI     H8 3217   2.624   2.771   2.554
  172ANI     C1 3218   0.914   1.409   0.146
  172ANI     O1 3219   0.965   1.288   0.090
  172ANI     C2 3220   1.078   1.229   0.142
  172ANI     C3 3221   1.166   1.297   0.226
  172ANI     C4 3222   1.276   1.232   0.282
  172ANI     C5 3223   1.306   1.100   0.243
  172ANI     C6 3224   1.219   1.032   0.159
  172ANI     C7 3225   1.104   1.095   0.110
  172ANI     H1 3226   0.982   1.492   0.122
  172ANI     H2 3227   0.815   1.432   0.105
  172ANI     H3 3228   0.905   1.401   0.255
  172ANI     H4 3229   1.151   1.402   0.249
  172ANI     H5 3230   1.338   1.285   0.353
  172ANI     H6 3231   1.394   1.050   0.282
  172ANI     H7 3232   1.240   0.928   0.136
  172ANI     H8 3233   1.031   1.042   0.049
  173ANI     C1 3234   3.036   0.606   0.931
  173ANI     O1 3235   3.056   0.507   0.829
  173ANI     C2 3236   2.950   0.436   0.778
  173ANI     C3 3237   2.823   0.433   0.840
  173ANI     C4 3238   2.716   0.366   0.778
  173ANI     C5 3239   2.736   0.299   0.657
  173ANI     C6 3240   2.863   0.298   0.597
  173ANI     C7 3241   2.970   0.366   0.658
  173ANI     H1 3242   3.010   0.559   1.026
  173ANI     H2 3243   3.128   0.664   0.945
  173ANI     H3 3244   2.956   0.676   0.903
  173ANI     H4 3245   2.806   0.483   0.935
  173ANI     H5 3246   2.618   0.363   0.825
  173ANI     H6 3247   2.653   0.246   0.611
  173ANI     H7 3248   2.879   0.245   0.504
  173ANI     H8 3249   3.068   0.368   0.611
  174ANI     C1 3250   0.961   2.788   2.799
  174ANI     O1 3251   0.826   2.832   2.791
  174ANI     C2 3252   0.740   2.817   2.896
  174ANI     C3 3253   0.780   2.800   3.030
  174ANI     C4 3254   0.683   2.788   3.131
  174ANI     C5 3255   0.546   2.788   3.098
  174ANI     C6 3256   0.507   2.802   2.965
  174ANI     C7 3257   0.604   2.819   2.866
  174ANI     H1 3258   0.965   2.684   2.835
  174ANI     H2 3259   1.010   2.793   2.701
  174ANI     H3 3260   1.015   2.853   2.869
  174ANI     H4 3261   0.886   2.795   3.055
  174ANI     H5 3262   0.713   2.775   3.234
  174ANI     H6 3263   0.471   2.778   3.176
  174ANI     H7 3264   0.402   2.803   2.938
  174ANI     H8 3265   0.575   2.837   2.763
  175ANI     C1 3266   2.837   3.051   3.682
  175ANI     O1 3267   2.964   3.008   3.632
  175ANI     C2 3268   3.046   3.091   3.559
  175ANI     C3 3269   3.030   3.231   3.559
  175ANI     C4 3270   3.116   3.311   3.481
  175ANI     C5 3271   3.215   3.251   3.402
  175ANI     C6 3272   3.231   3.111   3.402
  175ANI     C7 3273   3.147   3.032   3.483
  175ANI     H1 3274   2.772   3.083   3.600
  175ANI     H2 3275   2.788   2.969   3.735
  175ANI     H3 3276   2.850   3.134   3.752
  175ANI     H4 3277   2.954   3.279   3.620
  175ANI     H5 3278   3.105   3.419   3.483
  175ANI     H6 3279   3.280   3.312   3.341
  175ANI     H7 3280   3.307   3.064   3.341
  175ANI     H8 3281   3.160   2.924   3.486
  176ANI     C1 3282   0.038   1.400   2.901
  176ANI     O1 3283   0.061   1.431   2.763
  176ANI     C2 3284   0.111   1.337   2.674
  176ANI     C3 3285   0.154   1.209   2.714
  176ANI     C4 3286   0.202   1.117   2.619
  176ANI     C5 3287   0.206   1.153   2.483
  176ANI     C6 3288   0.164   1.280   2.443
  176ANI     C7 3289   0.119   1.372   2.539
  176ANI     H1 3290   0.131   1.369   2.951
  176ANI     H2 3291  -0.000   1.488   2.954
  176ANI     H3 3292  -0.036   1.320   2.911
  176ANI     H4 3293   0.148   1.180   2.818
  176ANI     H5 3294   0.233   1.018   2.651
  176ANI     H6 3295   0.241   1.081   2.409
  176ANI     H7 3296   0.165   1.308   2.338
  176ANI     H8 3297   0.086   1.471   2.508
  177ANI     C1 3298   0.902   1.736   3.259
  177ANI     O1 3299   0.863   1.824   3.156
  177ANI     C2 3300   0.819   1.781   3.033
  177ANI     C3 3301   0.811   1.645   2.997
  177ANI     C4 3302   0.776   1.610   2.865
  177ANI     C5 3303   0.741   1.710   2.773
  177ANI     C6 3304   0.747   1.844   2.813
  177ANI     C7 3305   0.788   1.879   2.940
  177ANI     H1 3306   0.982   1.669   3.226
  177ANI     H2 3307   0.937   1.793   3.346
  177ANI     H3 3308   0.814   1.678   3.290
  177ANI     H4 3309   0.839   1.568   3.067
  177ANI     H5 3310   0.778   1.506   2.835
  177ANI     H6 3311   0.712   1.685   2.672
  177ANI     H7 3312   0.722   1.925   2.745
  177ANI     H8 3313   0.798   1.984   2.966
  178ANI     C1 3314   1.221   2.503   0.397
  178ANI     O1 3315   1.135   2.476   0.286
  178ANI     C2 3316   1.080   2.352   0.266
  178ANI     C3 3317   1.112   2.239   0.343
  178ANI     C4 3318   1.056   2.114   0.310
  178ANI     C5 3319   0.963   2.103   0.207
  178ANI     C6 3320   0.919   2.219   0.145
  178ANI     C7 3321   0.982   2.341   0.167
  178ANI     H1 3322   1.317   2.452   0.385
  178ANI     H2 3323   1.239   2.611   0.405
  178ANI     H3 3324   1.174   2.470   0.490
  178ANI     H4 3325   1.181   2.246   0.426
  178ANI     H5 3326   1.081   2.024   0.366
  178ANI     H6 3327   0.921   2.008   0.177
  178ANI     H7 3328   0.833   2.214   0.080
  178ANI     H8 3329   0.948   2.430   0.114
  179ANI     C1 3330   0.528   2.999   1.176
  179ANI     O1 3331   0.560   3.016   1.038
  179ANI     C2 3332   0.656   2.940   0.975
  179ANI     C3 3333   0.736   2.846   1.045
  179ANI     C4 3334   0.830   2.770   0.975
  179ANI     C5 3335   0.847   2.787   0.836
  179ANI     C6 3336   0.768   2.880   0.767
  179ANI     C7 3337   0.673   2.956   0.837
  179ANI     H1 3338   0.613   3.027   1.239
  179ANI     H2 3339   0.442   3.063   1.203
  179ANI     H3 3340   0.500   2.895   1.197
  179ANI     H4 3341   0.726   2.832   1.152
  179ANI     H5 3342   0.892   2.699   1.029
  179ANI     H6 3343   0.920   2.728   0.782
  179ANI     H7 3344   0.780   2.893   0.660
  179ANI     H8 3345   0.611   3.028   0.783
  180ANI     C1 3346   2.026   2.712   1.320
  180ANI     O1 3347   1.954   2.742   1.202
  180ANI     C2 3348   1.827   2.791   1.207
  180ANI     C3 3349   1.762   2.820   1.327
  180ANI     C4 3350   1.631   2.869   1.325
  180ANI     C5 3351   1.572   2.906   1.204
  180ANI     C6 3352   1.639   2.881   1.084
  180ANI     C7 3353   1.764   2.816   1.086
  180ANI     H1 3354   1.961   2.650   1.383
  180ANI     H2 3355   2.117   2.656   1.296
  180ANI     H3 3356   2.053   2.803   1.375
  180ANI     H4 3357   1.813   2.806   1.422
  180ANI     H5 3358   1.575   2.878   1.418
  180ANI     H6 3359   1.472   2.947   1.202
  180ANI     H7 3360   1.593   2.910   0.990
  180ANI     H8 3361   1.818   2.794   0.995
  181ANI     C1 3362   1.255   0.439   0.519
  181ANI     O1 3363   1.211   0.304   0.505
  181ANI     C2 3364   1.147   0.260   0.393
  181ANI     C3 3365   1.110   0.345   0.289
  181ANI     C4 3366   1.055   0.293   0.171
  181ANI     C5 3367   1.034   0.155   0.157
  181ANI     C6 3368   1.065   0.071   0.265
  181ANI     C7 3369   1.117   0.125   0.383
  181ANI     H1 3370   1.171   0.509   0.515
  181ANI     H2 3371   1.305   0.453   0.616
  181ANI     H3 3372   1.326   0.466   0.440
  181ANI     H4 3373   1.118   0.453   0.301
  181ANI     H5 3374   1.029   0.361   0.090
  181ANI     H6 3375   0.993   0.115   0.065
  181ANI     H7 3376   1.052  -0.037   0.257
  181ANI     H8 3377   1.137   0.061   0.469
  182ANI     C1 3378   2.674   2.217   2.249
  182ANI     O1 3379   2.551   2.147   2.270
  182ANI     C2 3380   2.431   2.214   2.279
  182ANI     C3 3381   2.414   2.346   2.232
  182ANI     C4 3382   2.289   2.409   2.243
  182ANI     C5 3383   2.181   2.341   2.303
  182ANI     C6 3384   2.198   2.210   2.351
  182ANI     C7 3385   2.322   2.146   2.337
  182ANI     H1 3386   2.694   2.285   2.333
  182ANI     H2 3387   2.758   2.146   2.242
  182ANI     H3 3388   2.672   2.275   2.157
  182ANI     H4 3389   2.496   2.401   2.188
  182ANI     H5 3390   2.276   2.511   2.209
  182ANI     H6 3391   2.086   2.391   2.316
  182ANI     H7 3392   2.115   2.159   2.399
  182ANI     H8 3393   2.336   2.045   2.374
  183ANI     C1 3394   1.877   2.519   3.048
  183ANI     O1 3395   1.835   2.595   3.162
  183ANI     C2 3396   1.809   2.730   3.154
  183ANI     C3 3397   1.832   2.805   3.037
  183ANI     C4 3398   1.809   2.944   3.037
  183ANI     C5 3399   1.761   3.008   3.153
  183ANI     C6 3400   1.735   2.933   3.267
  183ANI     C7 3401   1.759   2.794   3.269
  183ANI     H1 3402   1.970   2.561   3.006
  183ANI     H2 3403   1.895   2.415   3.076
  183ANI     H3 3404   1.800   2.522   2.969
  183ANI     H4 3405   1.870   2.760   2.947
  183ANI     H5 3406   1.832   3.003   2.949
  183ANI     H6 3407   1.743   3.115   3.153
  183ANI     H7 3408   1.692   2.982   3.355
  183ANI     H8 3409   1.736   2.736   3.358
  184ANI     C1 3410   1.451   2.854   2.536
  184ANI     O1 3411   1.337   2.933   2.569
  184ANI     C2 3412   1.338   3.070   2.570
  184ANI     C3 3413   1.452   3.146   2.537
  184ANI     C4 3414   1.443   3.287   2.532
  184ANI     C5 3415   1.320   3.350   2.556
  184ANI     C6 3416   1.208   3.274   2.592
  184ANI     C7 3417   1.218   3.135   2.602
  184ANI     H1 3418   1.530   2.868   2.611
  184ANI     H2 3419   1.424   2.748   2.533
  184ANI     H3 3420   1.489   2.883   2.437
  184ANI     H4 3421   1.547   3.098   2.514
  184ANI     H5 3422   1.530   3.345   2.505
  184ANI     H6 3423   1.309   3.458   2.547
  184ANI     H7 3424   1.113   3.324   2.612
  184ANI     H8 3425   1.132   3.075   2.631
  185ANI     C1 3426   1.673   3.271   3.572
  185ANI     O1 3427   1.552   3.195   3.579
  185ANI     C2 3428   1.554   3.057   3.588
  185ANI     C3 3429   1.675   2.985   3.600
  185ANI     C4 3430   1.673   2.845   3.602
  185ANI     C5 3431   1.551   2.777   3.600
  185ANI     C6 3432   1.430   2.848   3.589
  185ANI     C7 3433   1.432   2.988   3.582
  185ANI     H1 3434   1.732   3.239   3.485
  185ANI     H2 3435   1.651   3.378   3.562
  185ANI     H3 3436   1.733   3.256   3.663
  185ANI     H4 3437   1.771   3.036   3.604
  185ANI     H5 3438   1.767   2.790   3.605
  185ANI     H6 3439   1.550   2.669   3.606
  185ANI     H7 3440   1.336   2.794   3.586
  185ANI     H8 3441   1.340   3.044   3.571
  186ANI     C1 3442   0.509   1.370   1.381
  186ANI     O1 3443   0.636   1.430   1.410
  186ANI     C2 3444   0.646   1.556   1.466
  186ANI     C3 3445   0.537   1.622   1.525
  186ANI     C4 3446   0.553   1.752   1.577
  186ANI     C5 3447   0.679   1.815   1.571
  186ANI     C6 3448   0.788   1.748   1.513
  186ANI     C7 3449   0.772   1.619   1.461
  186ANI     H1 3450   0.448   1.436   1.319
  186ANI     H2 3451   0.524   1.276   1.327
  186ANI     H3 3452   0.455   1.348   1.474
  186ANI     H4 3453   0.439   1.575   1.530
  186ANI     H5 3454   0.469   1.804   1.621
  186ANI     H6 3455   0.692   1.915   1.610
  186ANI     H7 3456   0.885   1.797   1.508
  186ANI     H8 3457   0.855   1.567   1.414
  187ANI     C1 3458   0.486   0.397   3.461
  187ANI     O1 3459   0.629   0.405   3.473
  187ANI     C2 3460   0.708   0.298   3.510
  187ANI     C3 3461   0.654   0.175   3.553
  187ANI     C4 3462   0.740   0.074   3.601
  187ANI     C5 3463   0.879   0.094   3.601
  187ANI     C6 3464   0.933   0.214   3.552
  187ANI     C7 3465   0.848   0.315   3.508
  187ANI     H1 3466   0.440   0.368   3.556
  187ANI     H2 3467   0.445   0.494   3.432
  187ANI     H3 3468   0.459   0.324   3.383
  187ANI     H4 3469   0.547   0.159   3.554
  187ANI     H5 3470   0.698  -0.020   3.636
  187ANI     H6 3471   0.945   0.015   3.636
  187ANI     H7 3472   1.041   0.229   3.551
  187ANI     H8 3473   0.890   0.410   3.478
  188ANI     C1 3474   2.271   3.086   2.804
  188ANI     O1 3475   2.194   2.998   2.885
  188ANI     C2 3476   2.153   3.035   3.010
  188ANI     C3 3477   2.172   3.166   3.060
  188ANI     C4 3478   2.128   3.201   3.187
  188ANI     C5 3479   2.062   3.106   3.266
  188ANI     C6 3480   2.047   2.975   3.219
  188ANI     C7 3481   2.093   2.940   3.091
  188ANI     H1 3482   2.367   3.108   2.852
  188ANI     H2 3483   2.289   3.041   2.706
  188ANI     H3 3484   2.217   3.181   2.789
  188ANI     H4 3485   2.226   3.239   3.001
  188ANI     H5 3486   2.148   3.301   3.227
  188ANI     H6 3487   2.027   3.131   3.365
  188ANI     H7 3488   2.002   2.900   3.283
  188ANI     H8 3489   2.085   2.837   3.056
  189ANI     C1 3490   1.941   2.535   3.495
  189ANI     O1 3491   2.014   2.651   3.535
  189ANI     C2 3492   2.129   2.642   3.610
  189ANI     C3 3493   2.173   2.525   3.673
  189ANI     C4 3494   2.294   2.525   3.745
  189ANI     C5 3495   2.370   2.642   3.758
  189ANI     C6 3496   2.329   2.757   3.691
  189ANI     C7 3497   2.208   2.756   3.618
  189ANI     H1 3498   1.891   2.490   3.581
  189ANI     H2 3499   1.866   2.562   3.420
  189ANI     H3 3500   2.008   2.461   3.449
  189ANI     H4 3501   2.118   2.433   3.659
  189ANI     H5 3502   2.334   2.433   3.787
  189ANI     H6 3503   2.463   2.640   3.814
  189ANI     H7 3504   2.391   2.846   3.692
  189ANI     H8 3505   2.174   2.844   3.564
  190ANI     C1 3506   0.582   0.725   1.399
  190ANI     O1 3507   0.677   0.626   1.356
  190ANI     C2 3508   0.641   0.496   1.330
  190ANI     C3 3509   0.510   0.450   1.352
  190ANI     C4 3510   0.478   0.316   1.324
  190ANI     C5 3511   0.577   0.228   1.278
  190ANI     C6 3512   0.708   0.273   1.259
  190ANI     C7 3513   0.739   0.407   1.285
  190ANI     H1 3514   0.531   0.693   1.491
  190ANI     H2 3515   0.633   0.819   1.421
  190ANI     H3 3516   0.507   0.743   1.321
  190ANI     H4 3517   0.431   0.516   1.388
  190ANI     H5 3518   0.375   0.282   1.338
  190ANI     H6 3519   0.551   0.124   1.258
  190ANI     H7 3520   0.786   0.204   1.227
  190ANI     H8 3521   0.842   0.441   1.276
  191ANI     C1 3522   0.694   0.700   2.703
  191ANI     O1 3523   0.626   0.616   2.610
  191ANI     C2 3524   0.631   0.652   2.479
  191ANI     C3 3525   0.632   0.787   2.440
  191ANI     C4 3526   0.658   0.821   2.307
  191ANI     C5 3527   0.682   0.718   2.216
  191ANI     C6 3528   0.674   0.583   2.251
  191ANI     C7 3529   0.646   0.550   2.384
  191ANI     H1 3530   0.638   0.794   2.718
  191ANI     H2 3531   0.705   0.648   2.799
  191ANI     H3 3532   0.794   0.727   2.667
  191ANI     H4 3533   0.617   0.867   2.513
  191ANI     H5 3534   0.664   0.925   2.276
  191ANI     H6 3535   0.714   0.746   2.116
  191ANI     H7 3536   0.696   0.505   2.179
  191ANI     H8 3537   0.648   0.446   2.416
  192ANI     C1 3538   0.187   2.585   2.235
  192ANI     O1 3539   0.102   2.701   2.237
  192ANI     C2 3540   0.153   2.829   2.234
  192ANI     C3 3541   0.289   2.857   2.213
  192ANI     C4 3542   0.335   2.990   2.212
  192ANI     C5 3543   0.244   3.096   2.229
  192ANI     C6 3544   0.108   3.069   2.249
  192ANI     C7 3545   0.063   2.936   2.252
  192ANI     H1 3546   0.248   2.578   2.326
  192ANI     H2 3547   0.126   2.494   2.230
  192ANI     H3 3548   0.255   2.586   2.150
  192ANI     H4 3549   0.361   2.777   2.199
  192ANI     H5 3550   0.440   3.010   2.197
  192ANI     H6 3551   0.279   3.198   2.224
  192ANI     H7 3552   0.038   3.150   2.263
  192ANI     H8 3553  -0.042   2.915   2.268
  193ANI     C1 3554   0.528   0.587   0.401
  193ANI     O1 3555   0.593   0.675   0.492
  193ANI     C2 3556   0.627   0.635   0.619
  193ANI     C3 3557   0.605   0.505   0.665
  193ANI     C4 3558   0.653   0.466   0.790
  193ANI     C5 3559   0.717   0.558   0.874
  193ANI     C6 3560   0.735   0.690   0.831
  193ANI     C7 3561   0.690   0.729   0.703
  193ANI     H1 3562   0.432   0.554   0.443
  193ANI     H2 3563   0.511   0.636   0.305
  193ANI     H3 3564   0.589   0.497   0.384
  193ANI     H4 3565   0.554   0.431   0.603
  193ANI     H5 3566   0.642   0.362   0.821
  193ANI     H6 3567   0.751   0.526   0.971
  193ANI     H7 3568   0.785   0.763   0.895
  193ANI     H8 3569   0.705   0.830   0.666
  194ANI     C1 3570   2.275   0.451   0.686
  194ANI     O1 3571   2.392   0.511   0.742
  194ANI     C2 3572   2.381   0.596   0.849
  194ANI     C3 3573   2.258   0.658   0.881
  194ANI     C4 3574   2.244   0.724   1.003
  194ANI     C5 3575   2.356   0.742   1.085
  194ANI     C6 3576   2.481   0.693   1.047
  194ANI     C7 3577   2.493   0.618   0.930
  194ANI     H1 3578   2.217   0.524   0.628
  194ANI     H2 3579   2.302   0.367   0.621
  194ANI     H3 3580   2.209   0.411   0.765
  194ANI     H4 3581   2.170   0.647   0.818
  194ANI     H5 3582   2.147   0.762   1.032
  194ANI     H6 3583   2.344   0.799   1.177
  194ANI     H7 3584   2.568   0.711   1.110
  194ANI     H8 3585   2.589   0.574   0.903
  195ANI     C1 3586   3.140   2.395   1.153
  195ANI     O1 3587   3.061   2.427   1.038
  195ANI     C2 3588   3.059   2.552   0.981
  195ANI     C3 3589   3.126   2.662   1.038
  195ANI     C4 3590   3.111   2.790   0.981
  195ANI     C5 3591   3.030   2.807   0.869
  195ANI     C6 3592   2.970   2.697   0.806
  195ANI     C7 3593   2.985   2.570   0.863
  195ANI     H1 3594   3.117   2.462   1.236
  195ANI     H2 3595   3.120   2.292   1.185
  195ANI     H3 3596   3.247   2.403   1.130
  195ANI     H4 3597   3.186   2.650   1.128
  195ANI     H5 3598   3.158   2.876   1.027
  195ANI     H6 3599   3.011   2.908   0.831
  195ANI     H7 3600   2.911   2.710   0.716
  195ANI     H8 3601   2.937   2.485   0.815
  196ANI     C1 3602   1.923   1.887   3.074
  196ANI     O1 3603   1.832   1.919   3.180
  196ANI     C2 3604   1.861   2.011   3.277
  196ANI     C3 3605   1.987   2.072   3.287
  196ANI     C4 3606   2.012   2.162   3.391
  196ANI     C5 3607   1.912   2.195   3.483
  196ANI     C6 3608   1.787   2.134   3.474
  196ANI     C7 3609   1.762   2.043   3.370
  196ANI     H1 3610   2.019   1.850   3.115
  196ANI     H2 3611   1.880   1.808   3.011
  196ANI     H3 3612   1.943   1.975   3.012
  196ANI     H4 3613   2.067   2.048   3.217
  196ANI     H5 3614   2.112   2.204   3.402
  196ANI     H6 3615   1.931   2.267   3.561
  196ANI     H7 3616   1.711   2.156   3.549
  196ANI     H8 3617   1.665   1.994   3.363
  197ANI     C1 3618   1.840   3.133   1.303
  197ANI     O1 3619   1.837   3.078   1.172
  197ANI     C2 3620   1.947   3.069   1.090
  197ANI     C3 3621   2.076   3.102   1.133
  197ANI     C4 3622   2.182   3.103   1.040
  197ANI     C5 3623   2.158   3.066   0.907
  197ANI     C6 3624   2.031   3.026   0.866
  197ANI     C7 3625   1.924   3.033   0.956
  197ANI     H1 3626   1.880   3.235   1.302
  197ANI     H2 3627   1.738   3.137   1.343
  197ANI     H3 3628   1.901   3.070   1.370
  197ANI     H4 3629   2.095   3.130   1.236
  197ANI     H5 3630   2.282   3.133   1.071
  197ANI     H6 3631   2.237   3.073   0.833
  197ANI     H7 3632   2.013   2.998   0.762
  197ANI     H8 3633   1.823   3.014   0.920
  198ANI     C1 3634   1.619   3.415   1.413
  198ANI     O1 3635   1.576   3.457   1.284
  198ANI     C2 3636   1.443   3.455   1.247
  198ANI     C3 3637   1.339   3.423   1.336
  198ANI     C4 3638   1.205   3.423   1.292
  198ANI     C5 3639   1.176   3.452   1.158
  198ANI     C6 3640   1.280   3.480   1.069
  198ANI     C7 3641   1.412   3.485   1.114
  198ANI     H1 3642   1.595   3.309   1.428
  198ANI     H2 3643   1.728   3.426   1.422
  198ANI     H3 3644   1.572   3.474   1.492
  198ANI     H4 3645   1.360   3.400   1.440
  198ANI     H5 3646   1.125   3.396   1.360
  198ANI     H6 3647   1.073   3.447   1.122
  198ANI     H7 3648   1.258   3.496   0.964
  198ANI     H8 3649   1.492   3.512   1.045
  199ANI     C1 3650   2.770   1.572   3.281
  199ANI     O1 3651   2.825   1.591   3.151
  199ANI     C2 3652   2.958   1.616   3.129
  199ANI     C3 3653   3.051   1.632   3.233
  199ANI     C4 3654   3.186   1.660   3.204
  199ANI     C5 3655   3.226   1.675   3.070
  199ANI     C6 3656   3.135   1.657   2.966
  199ANI     C7 3657   3.001   1.627   2.995
  199ANI     H1 3658   2.778   1.664   3.341
  199ANI     H2 3659   2.664   1.546   3.273
  199ANI     H3 3660   2.821   1.490   3.333
  199ANI     H4 3661   3.021   1.625   3.337
  199ANI     H5 3662   3.257   1.674   3.284
  199ANI     H6 3663   3.328   1.704   3.045
  199ANI     H7 3664   3.166   1.671   2.863
  199ANI     H8 3665   2.929   1.616   2.915
  200ANI     C1 3666   2.392   2.849   1.461
  200ANI     O1 3667   2.491   2.937   1.406
  200ANI     C2 3668   2.598   2.890   1.334
  200ANI     C3 3669   2.632   2.753   1.330
  200ANI     C4 3670   2.741   2.709   1.253
  200ANI     C5 3671   2.814   2.800   1.176
  200ANI     C6 3672   2.782   2.935   1.180
  200ANI     C7 3673   2.675   2.981   1.260
  200ANI     H1 3674   2.436   2.779   1.533
  200ANI     H2 3675   2.314   2.907   1.513
  200ANI     H3 3676   2.343   2.791   1.382
  200ANI     H4 3677   2.570   2.681   1.383
  200ANI     H5 3678   2.766   2.604   1.242
  200ANI     H6 3679   2.894   2.765   1.112
  200ANI     H7 3680   2.841   3.003   1.119
  200ANI     H8 3681   2.648   3.086   1.264
  201ANI     C1 3682   1.695   2.618   1.557
  201ANI     O1 3683   1.627   2.532   1.465
  201ANI     C2 3684   1.622   2.397   1.490
  201ANI     C3 3685   1.699   2.342   1.591
  201ANI     C4 3686   1.691   2.206   1.616
  201ANI     C5 3687   1.603   2.125   1.549
  201ANI     C6 3688   1.527   2.176   1.444
  201ANI     C7 3689   1.537   2.313   1.414
  201ANI     H1 3690   1.804   2.608   1.547
  201ANI     H2 3691   1.667   2.723   1.543
  201ANI     H3 3692   1.667   2.593   1.659
  201ANI     H4 3693   1.776   2.399   1.643
  201ANI     H5 3694   1.767   2.157   1.676
  201ANI     H6 3695   1.609   2.020   1.576
  201ANI     H7 3696   1.462   2.111   1.387
  201ANI     H8 3697   1.477   2.353   1.333
  202ANI     C1 3698   2.347   0.376   1.069
  202ANI     O1 3699   2.225   0.416   1.010
  202ANI     C2 3700   2.114   0.447   1.083
  202ANI     C3 3701   2.107   0.433   1.222
  202ANI     C4 3702   1.982   0.442   1.285
  202ANI     C5 3703   1.867   0.470   1.210
  202ANI     C6 3704   1.877   0.497   1.073
  202ANI     C7 3705   2.001   0.485   1.011
  202ANI     H1 3706   2.333   0.290   1.136
  202ANI     H2 3707   2.419   0.348   0.991
  202ANI     H3 3708   2.387   0.461   1.125
  202ANI     H4 3709   2.195   0.406   1.280
  202ANI     H5 3710   1.974   0.424   1.392
  202ANI     H6 3711   1.769   0.470   1.257
  202ANI     H7 3712   1.787   0.516   1.015
  202ANI     H8 3713   2.011   0.490   0.903
  203ANI     C1 3714   0.965   2.084   3.221
  203ANI     O1 3715   1.099   2.049   3.187
  203ANI     C2 3716   1.204   2.076   3.270
  203ANI     C3 3717   1.184   2.112   3.404
  203ANI     C4 3718   1.292   2.154   3.483
  203ANI     C5 3719   1.420   2.157   3.427
  203ANI     C6 3720   1.441   2.119   3.294
  203ANI     C7 3721   1.333   2.075   3.216
  203ANI     H1 3722   0.959   2.187   3.257
  203ANI     H2 3723   0.901   2.076   3.132
  203ANI     H3 3724   0.926   2.019   3.300
  203ANI     H4 3725   1.083   2.114   3.444
  203ANI     H5 3726   1.277   2.187   3.585
  203ANI     H6 3727   1.503   2.191   3.488
  203ANI     H7 3728   1.539   2.128   3.250
  203ANI     H8 3729   1.345   2.047   3.112
  204ANI     C1 3730   2.647   2.577   0.974
  204ANI     O1 3731   2.559   2.661   1.048
  204ANI     C2 3732   2.424   2.663   1.030
  204ANI     C3 3733   2.358   2.585   0.934
  204ANI     C4 3734   2.220   2.594   0.916
  204ANI     C5 3735   2.148   2.691   0.987
  204ANI     C6 3736   2.215   2.773   1.079
  204ANI     C7 3737   2.351   2.755   1.104
  204ANI     H1 3738   2.624   2.579   0.867
  204ANI     H2 3739   2.751   2.610   0.986
  204ANI     H3 3740   2.639   2.475   1.012
  204ANI     H4 3741   2.415   2.522   0.866
  204ANI     H5 3742   2.170   2.532   0.842
  204ANI     H6 3743   2.042   2.706   0.967
  204ANI     H7 3744   2.161   2.853   1.130
  204ANI     H8 3745   2.404   2.822   1.171
  205ANI     C1 3746   3.088   1.044   1.047
  205ANI     O1 3747   3.041   1.164   1.109
  205ANI     C2 3748   3.121   1.273   1.133
  205ANI     C3 3749   3.261   1.270   1.118
  205ANI     C4 3750   3.336   1.386   1.142
  205ANI     C5 3751   3.272   1.507   1.173
  205ANI     C6 3752   3.133   1.510   1.190
  205ANI     C7 3753   3.060   1.392   1.174
  205ANI     H1 3754   3.163   0.995   1.110
  205ANI     H2 3755   3.005   0.974   1.031
  205ANI     H3 3756   3.132   1.065   0.949
  205ANI     H4 3757   3.312   1.178   1.089
  205ANI     H5 3758   3.444   1.383   1.136
  205ANI     H6 3759   3.331   1.598   1.187
  205ANI     H7 3760   3.083   1.603   1.216
  205ANI     H8 3761   2.953   1.391   1.194
  206ANI     C1 3762   0.578   2.647   3.704
  206ANI     O1 3763   0.715   2.662   3.744
  206ANI     C2 3764   0.814   2.700   3.655
  206ANI     C3 3765   0.802   2.683   3.516
  206ANI     C4 3766   0.906   2.727   3.431
  206ANI     C5 3767   1.019   2.791   3.484
  206ANI     C6 3768   1.031   2.807   3.623
  206ANI     C7 3769   0.930   2.759   3.708
  206ANI     H1 3770   0.566   2.562   3.636
  206ANI     H2 3771   0.516   2.630   3.793
  206ANI     H3 3772   0.542   2.738   3.654
  206ANI     H4 3773   0.714   2.637   3.473
  206ANI     H5 3774   0.900   2.711   3.324
  206ANI     H6 3775   1.098   2.825   3.418
  206ANI     H7 3776   1.119   2.855   3.665
  206ANI     H8 3777   0.939   2.769   3.816
  207ANI     C1 3778   0.670   0.244   3.159
  207ANI     O1 3779   0.690   0.380   3.193
  207ANI     C2 3780   0.816   0.436   3.199
  207ANI     C3 3781   0.924   0.386   3.126
  207ANI     C4 3782   1.047   0.452   3.129
  207ANI     C5 3783   1.063   0.568   3.208
  207ANI     C6 3784   0.956   0.615   3.286
  207ANI     C7 3785   0.834   0.548   3.281
  207ANI     H1 3786   0.726   0.181   3.229
  207ANI     H2 3787   0.564   0.218   3.168
  207ANI     H3 3788   0.702   0.223   3.056
  207ANI     H4 3789   0.913   0.298   3.062
  207ANI     H5 3790   1.129   0.417   3.067
  207ANI     H6 3791   1.156   0.624   3.207
  207ANI     H7 3792   0.967   0.704   3.347
  207ANI     H8 3793   0.751   0.585   3.341
  208ANI     C1 3794   1.617   0.141   2.243
  208ANI     O1 3795   1.531   0.255   2.232
  208ANI     C2 3796   1.460   0.302   2.340
  208ANI     C3 3797   1.450   0.230   2.461
  208ANI     C4 3798   1.379   0.284   2.570
  208ANI     C5 3799   1.321   0.412   2.559
  208ANI     C6 3800   1.332   0.484   2.440
  208ANI     C7 3801   1.399   0.428   2.329
  208ANI     H1 3802   1.559   0.049   2.254
  208ANI     H2 3803   1.681   0.131   2.154
  208ANI     H3 3804   1.684   0.151   2.330
  208ANI     H4 3805   1.498   0.134   2.472
  208ANI     H5 3806   1.372   0.229   2.663
  208ANI     H6 3807   1.267   0.454   2.644
  208ANI     H7 3808   1.287   0.582   2.431
  208ANI     H8 3809   1.409   0.484   2.237
  209ANI     C1 3810   0.338   3.070   0.666
  209ANI     O1 3811   0.307   3.030   0.801
  209ANI     C2 3812   0.219   2.928   0.830
  209ANI     C3 3813   0.144   2.860   0.731
  209ANI     C4 3814   0.055   2.758   0.767
  209ANI     C5 3815   0.044   2.718   0.901
  209ANI     C6 3816   0.122   2.782   0.998
  209ANI     C7 3817   0.206   2.888   0.964
  209ANI     H1 3818   0.250   3.111   0.616
  209ANI     H2 3819   0.415   3.148   0.667
  209ANI     H3 3820   0.376   2.985   0.608
  209ANI     H4 3821   0.157   2.885   0.626
  209ANI     H5 3822  -0.001   2.705   0.690
  209ANI     H6 3823  -0.020   2.634   0.927
  209ANI     H7 3824   0.122   2.745   1.101
  209ANI     H8 3825   0.268   2.936   1.039
  210ANI     C1 3826   2.473   0.859   0.718
  210ANI     O1 3827   2.602   0.920   0.716
  210ANI     C2 3828   2.624   1.052   0.736
  210ANI     C3 3829   2.519   1.142   0.758
  210ANI     C4 3830   2.549   1.274   0.787
  210ANI     C5 3831   2.683   1.317   0.785
  210ANI     C6 3832   2.787   1.228   0.759
  210ANI     C7 3833   2.757   1.094   0.736
  210ANI     H1 3834   2.401   0.914   0.656
  210ANI     H2 3835   2.481   0.757   0.679
  210ANI     H3 3836   2.438   0.853   0.822
  210ANI     H4 3837   2.415   1.111   0.754
  210ANI     H5 3838   2.466   1.341   0.809
  210ANI     H6 3839   2.707   1.422   0.799
  210ANI     H7 3840   2.890   1.262   0.757
  210ANI     H8 3841   2.837   1.022   0.721
  211ANI     C1 3842   2.316   0.766   0.072
  211ANI     O1 3843   2.424   0.857   0.050
  211ANI     C2 3844   2.406   0.992   0.027
  211ANI     C3 3845   2.285   1.057   0.053
  211ANI     C4 3846   2.272   1.194   0.030
  211ANI     C5 3847   2.380   1.267  -0.023
  211ANI     C6 3848   2.502   1.204  -0.048
  211ANI     C7 3849   2.515   1.067  -0.021
  211ANI     H1 3850   2.253   0.763  -0.017
  211ANI     H2 3851   2.355   0.665   0.089
  211ANI     H3 3852   2.256   0.796   0.159
  211ANI     H4 3853   2.199   1.002   0.093
  211ANI     H5 3854   2.179   1.243   0.056
  211ANI     H6 3855   2.369   1.374  -0.041
  211ANI     H7 3856   2.587   1.260  -0.085
  211ANI     H8 3857   2.611   1.018  -0.036
  212ANI     C1 3858   0.906   0.695   1.155
  212ANI     O1 3859   0.822   0.805   1.194
  212ANI     C2 3860   0.877   0.925   1.230
  212ANI     C3 3861   1.007   0.958   1.192
  212ANI     C4 3862   1.060   1.080   1.230
  212ANI     C5 3863   0.984   1.171   1.307
  212ANI     C6 3864   0.853   1.139   1.343
  212ANI     C7 3865   0.799   1.016   1.303
  212ANI     H1 3866   0.980   0.673   1.233
  212ANI     H2 3867   0.844   0.606   1.140
  212ANI     H3 3868   0.958   0.717   1.061
  212ANI     H4 3869   1.069   0.893   1.131
  212ANI     H5 3870   1.158   1.106   1.192
  212ANI     H6 3871   1.023   1.269   1.331
  212ANI     H7 3872   0.793   1.212   1.397
  212ANI     H8 3873   0.697   0.993   1.330
  213ANI     C1 3874   2.730   0.317   3.562
  213ANI     O1 3875   2.624   0.222   3.568
  213ANI     C2 3876   2.493   0.261   3.554
  213ANI     C3 3877   2.458   0.394   3.524
  213ANI     C4 3878   2.323   0.431   3.513
  213ANI     C5 3879   2.223   0.336   3.535
  213ANI     C6 3880   2.257   0.204   3.565
  213ANI     C7 3881   2.392   0.165   3.572
  213ANI     H1 3882   2.721   0.391   3.643
  213ANI     H2 3883   2.826   0.266   3.571
  213ANI     H3 3884   2.728   0.371   3.467
  213ANI     H4 3885   2.533   0.471   3.513
  213ANI     H5 3886   2.299   0.534   3.488
  213ANI     H6 3887   2.118   0.365   3.530
  213ANI     H7 3888   2.178   0.132   3.587
  213ANI     H8 3889   2.419   0.063   3.598
  214ANI     C1 3890   0.359   0.653   3.770
  214ANI     O1 3891   0.429   0.536   3.816
  214ANI     C2 3892   0.566   0.525   3.803
  214ANI     C3 3893   0.649   0.637   3.783
  214ANI     C4 3894   0.786   0.619   3.758
  214ANI     C5 3895   0.842   0.492   3.762
  214ANI     C6 3896   0.761   0.381   3.793
  214ANI     C7 3897   0.623   0.397   3.809
  214ANI     H1 3898   0.372   0.666   3.662
  214ANI     H2 3899   0.252   0.643   3.791
  214ANI     H3 3900   0.395   0.743   3.821
  214ANI     H4 3901   0.607   0.737   3.781
  214ANI     H5 3902   0.850   0.703   3.733
  214ANI     H6 3903   0.947   0.479   3.737
  214ANI     H7 3904   0.804   0.281   3.795
  214ANI     H8 3905   0.560   0.310   3.821
  215ANI     C1 3906   1.337   1.025   0.941
  215ANI     O1 3907   1.244   1.127   0.908
  215ANI     C2 3908   1.130   1.103   0.836
  215ANI     C3 3909   1.077   0.974   0.822
  215ANI     C4 3910   0.958   0.956   0.750
  215ANI     C5 3911   0.889   1.065   0.696
  215ANI     C6 3912   0.943   1.194   0.709
  215ANI     C7 3913   1.064   1.212   0.777
  215ANI     H1 3914   1.366   0.969   0.851
  215ANI     H2 3915   1.427   1.070   0.983
  215ANI     H3 3916   1.294   0.956   1.015
  215ANI     H4 3917   1.127   0.888   0.865
  215ANI     H5 3918   0.919   0.855   0.736
  215ANI     H6 3919   0.795   1.050   0.643
  215ANI     H7 3920   0.890   1.280   0.668
  215ANI     H8 3921   1.103   1.312   0.791
  216ANI     C1 3922   1.749   2.702   0.066
  216ANI     O1 3923   1.772   2.692   0.206
  216ANI     C2 3924   1.897   2.717   0.259
  216ANI     C3 3925   2.008   2.751   0.178
  216ANI     C4 3926   2.131   2.782   0.239
  216ANI     C5 3927   2.140   2.787   0.378
  216ANI     C6 3928   2.032   2.746   0.458
  216ANI     C7 3929   1.913   2.705   0.397
  216ANI     H1 3930   1.813   2.632   0.010
  216ANI     H2 3931   1.644   2.678   0.043
  216ANI     H3 3932   1.770   2.805   0.033
  216ANI     H4 3933   2.001   2.752   0.070
  216ANI     H5 3934   2.218   2.807   0.178
  216ANI     H6 3935   2.231   2.825   0.423
  216ANI     H7 3936   2.040   2.748   0.566
  216ANI     H8 3937   1.828   2.672   0.457
  217ANI     C1 3938   2.475   1.702   2.922
  217ANI     O1 3939   2.553   1.587   2.956
  217ANI     C2 3940   2.621   1.514   2.860
  217ANI     C3 3941   2.596   1.529   2.722
  217ANI     C4 3942   2.673   1.457   2.628
  217ANI     C5 3943   2.779   1.376   2.672
  217ANI     C6 3944   2.801   1.357   2.809
  217ANI     C7 3945   2.720   1.424   2.902
  217ANI     H1 3946   2.386   1.674   2.865
  217ANI     H2 3947   2.442   1.753   3.014
  217ANI     H3 3948   2.534   1.773   2.863
  217ANI     H4 3949   2.518   1.595   2.686
  217ANI     H5 3950   2.653   1.468   2.522
  217ANI     H6 3951   2.842   1.325   2.600
  217ANI     H7 3952   2.880   1.291   2.844
  217ANI     H8 3953   2.736   1.409   3.009
  218ANI     C1 3954   0.421   2.376   2.727
  218ANI     O1 3955   0.532   2.370   2.639
  218ANI     C2 3956   0.517   2.359   2.503
  218ANI     C3 3957   0.394   2.328   2.445
  218ANI     C4 3958   0.381   2.321   2.306
  218ANI     C5 3959   0.491   2.354   2.226
  218ANI     C6 3960   0.614   2.390   2.283
  218ANI     C7 3961   0.628   2.384   2.422
  218ANI     H1 3962   0.370   2.279   2.728
  218ANI     H2 3963   0.454   2.398   2.829
  218ANI     H3 3964   0.349   2.452   2.695
  218ANI     H4 3965   0.307   2.309   2.507
  218ANI     H5 3966   0.287   2.293   2.259
  218ANI     H6 3967   0.482   2.350   2.118
  218ANI     H7 3968   0.698   2.417   2.220
  218ANI     H8 3969   0.725   2.403   2.467
   3.40320   3.43847   3.80000
