Anisole comparator n4
 3969
    1GR      C1    1   0.000   0.000   1.900  0.0000  0.0000  0.0000
    1GR      C2    2   0.142   0.000   1.900  0.0000  0.0000  0.0000
    1GR      C3    3   0.213   0.123   1.900  0.0000  0.0000  0.0000
    1GR      C4    4   0.354   0.123   1.900  0.0000  0.0000  0.0000
    1GR      C5    5   0.000   0.246   1.900  0.0000  0.0000  0.0000
    1GR      C6    6   0.142   0.246   1.900  0.0000  0.0000  0.0000
    1GR      C7    7   0.213   0.368   1.900  0.0000  0.0000  0.0000
    1GR      C8    8   0.354   0.368   1.900  0.0000  0.0000  0.0000
    1GR      C9    9   0.000   0.491   1.900  0.0000  0.0000  0.0000
    1GR     C10   10   0.142   0.491   1.900  0.0000  0.0000  0.0000
    1GR     C11   11   0.213   0.614   1.900  0.0000  0.0000  0.0000
    1GR     C12   12   0.354   0.614   1.900  0.0000  0.0000  0.0000
    1GR     C13   13   0.000   0.737   1.900  0.0000  0.0000  0.0000
    1GR     C14   14   0.142   0.737   1.900  0.0000  0.0000  0.0000
    1GR     C15   15   0.213   0.860   1.900  0.0000  0.0000  0.0000
    1GR     C16   16   0.354   0.860   1.900  0.0000  0.0000  0.0000
    1GR     C17   17   0.000   0.982   1.900  0.0000  0.0000  0.0000
    1GR     C18   18   0.142   0.982   1.900  0.0000  0.0000  0.0000
    1GR     C19   19   0.213   1.105   1.900  0.0000  0.0000  0.0000
    1GR     C20   20   0.354   1.105   1.900  0.0000  0.0000  0.0000
    1GR     C21   21   0.000   1.228   1.900  0.0000  0.0000  0.0000
    1GR     C22   22   0.142   1.228   1.900  0.0000  0.0000  0.0000
    1GR     C23   23   0.213   1.351   1.900  0.0000  0.0000  0.0000
    1GR     C24   24   0.354   1.351   1.900  0.0000  0.0000  0.0000
    1GR     C25   25   0.000   1.474   1.900  0.0000  0.0000  0.0000
    1GR     C26   26   0.142   1.474   1.900  0.0000  0.0000  0.0000
    1GR     C27   27   0.213   1.596   1.900  0.0000  0.0000  0.0000
    1GR     C28   28   0.354   1.596   1.900  0.0000  0.0000  0.0000
    1GR     C29   29   0.000   1.719   1.900  0.0000  0.0000  0.0000
    1GR     C30   30   0.142   1.719   1.900  0.0000  0.0000  0.0000
    1GR     C31   31   0.213   1.842   1.900  0.0000  0.0000  0.0000
    1GR     C32   32   0.354   1.842   1.900  0.0000  0.0000  0.0000
    1GR     C33   33   0.000   1.965   1.900  0.0000  0.0000  0.0000
    1GR     C34   34   0.142   1.965   1.900  0.0000  0.0000  0.0000
    1GR     C35   35   0.213   2.088   1.900  0.0000  0.0000  0.0000
    1GR     C36   36   0.354   2.088   1.900  0.0000  0.0000  0.0000
    1GR     C37   37   0.000   2.210   1.900  0.0000  0.0000  0.0000
    1GR     C38   38   0.142   2.210   1.900  0.0000  0.0000  0.0000
    1GR     C39   39   0.213   2.333   1.900  0.0000  0.0000  0.0000
    1GR     C40   40   0.354   2.333   1.900  0.0000  0.0000  0.0000
    1GR     C41   41   0.000   2.456   1.900  0.0000  0.0000  0.0000
    1GR     C42   42   0.142   2.456   1.900  0.0000  0.0000  0.0000
    1GR     C43   43   0.213   2.579   1.900  0.0000  0.0000  0.0000
    1GR     C44   44   0.354   2.579   1.900  0.0000  0.0000  0.0000
    1GR     C45   45   0.000   2.702   1.900  0.0000  0.0000  0.0000
    1GR     C46   46   0.142   2.702   1.900  0.0000  0.0000  0.0000
    1GR     C47   47   0.213   2.824   1.900  0.0000  0.0000  0.0000
    1GR     C48   48   0.354   2.824   1.900  0.0000  0.0000  0.0000
    1GR     C49   49   0.000   2.947   1.900  0.0000  0.0000  0.0000
    1GR     C50   50   0.142   2.947   1.900  0.0000  0.0000  0.0000
    1GR     C51   51   0.213   3.070   1.900  0.0000  0.0000  0.0000
    1GR     C52   52   0.354   3.070   1.900  0.0000  0.0000  0.0000
    1GR     C53   53   0.000   3.193   1.900  0.0000  0.0000  0.0000
    1GR     C54   54   0.142   3.193   1.900  0.0000  0.0000  0.0000
    1GR     C55   55   0.213   3.316   1.900  0.0000  0.0000  0.0000
    1GR     C56   56   0.354   3.316   1.900  0.0000  0.0000  0.0000
    1GR     C57   57   0.425   0.000   1.900  0.0000  0.0000  0.0000
    1GR     C58   58   0.567   0.000   1.900  0.0000  0.0000  0.0000
    1GR     C59   59   0.638   0.123   1.900  0.0000  0.0000  0.0000
    1GR     C60   60   0.780   0.123   1.900  0.0000  0.0000  0.0000
    1GR     C61   61   0.425   0.246   1.900  0.0000  0.0000  0.0000
    1GR     C62   62   0.567   0.246   1.900  0.0000  0.0000  0.0000
    1GR     C63   63   0.638   0.368   1.900  0.0000  0.0000  0.0000
    1GR     C64   64   0.780   0.368   1.900  0.0000  0.0000  0.0000
    1GR     C65   65   0.425   0.491   1.900  0.0000  0.0000  0.0000
    1GR     C66   66   0.567   0.491   1.900  0.0000  0.0000  0.0000
    1GR     C67   67   0.638   0.614   1.900  0.0000  0.0000  0.0000
    1GR     C68   68   0.780   0.614   1.900  0.0000  0.0000  0.0000
    1GR     C69   69   0.425   0.737   1.900  0.0000  0.0000  0.0000
    1GR     C70   70   0.567   0.737   1.900  0.0000  0.0000  0.0000
    1GR     C71   71   0.638   0.860   1.900  0.0000  0.0000  0.0000
    1GR     C72   72   0.780   0.860   1.900  0.0000  0.0000  0.0000
    1GR     C73   73   0.425   0.982   1.900  0.0000  0.0000  0.0000
    1GR     C74   74   0.567   0.982   1.900  0.0000  0.0000  0.0000
    1GR     C75   75   0.638   1.105   1.900  0.0000  0.0000  0.0000
    1GR     C76   76   0.780   1.105   1.900  0.0000  0.0000  0.0000
    1GR     C77   77   0.425   1.228   1.900  0.0000  0.0000  0.0000
    1GR     C78   78   0.567   1.228   1.900  0.0000  0.0000  0.0000
    1GR     C79   79   0.638   1.351   1.900  0.0000  0.0000  0.0000
    1GR     C80   80   0.780   1.351   1.900  0.0000  0.0000  0.0000
    1GR     C81   81   0.425   1.474   1.900  0.0000  0.0000  0.0000
    1GR     C82   82   0.567   1.474   1.900  0.0000  0.0000  0.0000
    1GR     C83   83   0.638   1.596   1.900  0.0000  0.0000  0.0000
    1GR     C84   84   0.780   1.596   1.900  0.0000  0.0000  0.0000
    1GR     C85   85   0.425   1.719   1.900  0.0000  0.0000  0.0000
    1GR     C86   86   0.567   1.719   1.900  0.0000  0.0000  0.0000
    1GR     C87   87   0.638   1.842   1.900  0.0000  0.0000  0.0000
    1GR     C88   88   0.780   1.842   1.900  0.0000  0.0000  0.0000
    1GR     C89   89   0.425   1.965   1.900  0.0000  0.0000  0.0000
    1GR     C90   90   0.567   1.965   1.900  0.0000  0.0000  0.0000
    1GR     C91   91   0.638   2.088   1.900  0.0000  0.0000  0.0000
    1GR     C92   92   0.780   2.088   1.900  0.0000  0.0000  0.0000
    1GR     C93   93   0.425   2.210   1.900  0.0000  0.0000  0.0000
    1GR     C94   94   0.567   2.210   1.900  0.0000  0.0000  0.0000
    1GR     C95   95   0.638   2.333   1.900  0.0000  0.0000  0.0000
    1GR     C96   96   0.780   2.333   1.900  0.0000  0.0000  0.0000
    1GR     C97   97   0.425   2.456   1.900  0.0000  0.0000  0.0000
    1GR     C98   98   0.567   2.456   1.900  0.0000  0.0000  0.0000
    1GR     C99   99   0.638   2.579   1.900  0.0000  0.0000  0.0000
    1GR    C100  100   0.780   2.579   1.900  0.0000  0.0000  0.0000
    1GR    C101  101   0.425   2.702   1.900  0.0000  0.0000  0.0000
    1GR    C102  102   0.567   2.702   1.900  0.0000  0.0000  0.0000
    1GR    C103  103   0.638   2.824   1.900  0.0000  0.0000  0.0000
    1GR    C104  104   0.780   2.824   1.900  0.0000  0.0000  0.0000
    1GR    C105  105   0.425   2.947   1.900  0.0000  0.0000  0.0000
    1GR    C106  106   0.567   2.947   1.900  0.0000  0.0000  0.0000
    1GR    C107  107   0.638   3.070   1.900  0.0000  0.0000  0.0000
    1GR    C108  108   0.780   3.070   1.900  0.0000  0.0000  0.0000
    1GR    C109  109   0.425   3.193   1.900  0.0000  0.0000  0.0000
    1GR    C110  110   0.567   3.193   1.900  0.0000  0.0000  0.0000
    1GR    C111  111   0.638   3.316   1.900  0.0000  0.0000  0.0000
    1GR    C112  112   0.780   3.316   1.900  0.0000  0.0000  0.0000
    1GR    C113  113   0.851   0.000   1.900  0.0000  0.0000  0.0000
    1GR    C114  114   0.993   0.000   1.900  0.0000  0.0000  0.0000
    1GR    C115  115   1.064   0.123   1.900  0.0000  0.0000  0.0000
    1GR    C116  116   1.205   0.123   1.900  0.0000  0.0000  0.0000
    1GR    C117  117   0.851   0.246   1.900  0.0000  0.0000  0.0000
    1GR    C118  118   0.993   0.246   1.900  0.0000  0.0000  0.0000
    1GR    C119  119   1.064   0.368   1.900  0.0000  0.0000  0.0000
    1GR    C120  120   1.205   0.368   1.900  0.0000  0.0000  0.0000
    1GR    C121  121   0.851   0.491   1.900  0.0000  0.0000  0.0000
    1GR    C122  122   0.993   0.491   1.900  0.0000  0.0000  0.0000
    1GR    C123  123   1.064   0.614   1.900  0.0000  0.0000  0.0000
    1GR    C124  124   1.205   0.614   1.900  0.0000  0.0000  0.0000
    1GR    C125  125   0.851   0.737   1.900  0.0000  0.0000  0.0000
    1GR    C126  126   0.993   0.737   1.900  0.0000  0.0000  0.0000
    1GR    C127  127   1.064   0.860   1.900  0.0000  0.0000  0.0000
    1GR    C128  128   1.205   0.860   1.900  0.0000  0.0000  0.0000
    1GR    C129  129   0.851   0.982   1.900  0.0000  0.0000  0.0000
    1GR    C130  130   0.993   0.982   1.900  0.0000  0.0000  0.0000
    1GR    C131  131   1.064   1.105   1.900  0.0000  0.0000  0.0000
    1GR    C132  132   1.205   1.105   1.900  0.0000  0.0000  0.0000
    1GR    C133  133   0.851   1.228   1.900  0.0000  0.0000  0.0000
    1GR    C134  134   0.993   1.228   1.900  0.0000  0.0000  0.0000
    1GR    C135  135   1.064   1.351   1.900  0.0000  0.0000  0.0000
    1GR    C136  136   1.205   1.351   1.900  0.0000  0.0000  0.0000
    1GR    C137  137   0.851   1.474   1.900  0.0000  0.0000  0.0000
    1GR    C138  138   0.993   1.474   1.900  0.0000  0.0000  0.0000
    1GR    C139  139   1.064   1.596   1.900  0.0000  0.0000  0.0000
    1GR    C140  140   1.205   1.596   1.900  0.0000  0.0000  0.0000
    1GR    C141  141   0.851   1.719   1.900  0.0000  0.0000  0.0000
    1GR    C142  142   0.993   1.719   1.900  0.0000  0.0000  0.0000
    1GR    C143  143   1.064   1.842   1.900  0.0000  0.0000  0.0000
    1GR    C144  144   1.205   1.842   1.900  0.0000  0.0000  0.0000
    1GR    C145  145   0.851   1.965   1.900  0.0000  0.0000  0.0000
    1GR    C146  146   0.993   1.965   1.900  0.0000  0.0000  0.0000
    1GR    C147  147   1.064   2.088   1.900  0.0000  0.0000  0.0000
    1GR    C148  148   1.205   2.088   1.900  0.0000  0.0000  0.0000
    1GR    C149  149   0.851   2.210   1.900  0.0000  0.0000  0.0000
    1GR    C150  150   0.993   2.210   1.900  0.0000  0.0000  0.0000
    1GR    C151  151   1.064   2.333   1.900  0.0000  0.0000  0.0000
    1GR    C152  152   1.205   2.333   1.900  0.0000  0.0000  0.0000
    1GR    C153  153   0.851   2.456   1.900  0.0000  0.0000  0.0000
    1GR    C154  154   0.993   2.456   1.900  0.0000  0.0000  0.0000
    1GR    C155  155   1.064   2.579   1.900  0.0000  0.0000  0.0000
    1GR    C156  156   1.205   2.579   1.900  0.0000  0.0000  0.0000
    1GR    C157  157   0.851   2.702   1.900  0.0000  0.0000  0.0000
    1GR    C158  158   0.993   2.702   1.900  0.0000  0.0000  0.0000
    1GR    C159  159   1.064   2.824   1.900  0.0000  0.0000  0.0000
    1GR    C160  160   1.205   2.824   1.900  0.0000  0.0000  0.0000
    1GR    C161  161   0.851   2.947   1.900  0.0000  0.0000  0.0000
    1GR    C162  162   0.993   2.947   1.900  0.0000  0.0000  0.0000
    1GR    C163  163   1.064   3.070   1.900  0.0000  0.0000  0.0000
    1GR    C164  164   1.205   3.070   1.900  0.0000  0.0000  0.0000
    1GR    C165  165   0.851   3.193   1.900  0.0000  0.0000  0.0000
    1GR    C166  166   0.993   3.193   1.900  0.0000  0.0000  0.0000
    1GR    C167  167   1.064   3.316   1.900  0.0000  0.0000  0.0000
    1GR    C168  168   1.205   3.316   1.900  0.0000  0.0000  0.0000
    1GR    C169  169   1.276   0.000   1.900  0.0000  0.0000  0.0000
    1GR    C170  170   1.418   0.000   1.900  0.0000  0.0000  0.0000
    1GR    C171  171   1.489   0.123   1.900  0.0000  0.0000  0.0000
    1GR    C172  172   1.631   0.123   1.900  0.0000  0.0000  0.0000
    1GR    C173  173   1.276   0.246   1.900  0.0000  0.0000  0.0000
    1GR    C174  174   1.418   0.246   1.900  0.0000  0.0000  0.0000
    1GR    C175  175   1.489   0.368   1.900  0.0000  0.0000  0.0000
    1GR    C176  176   1.631   0.368   1.900  0.0000  0.0000  0.0000
    1GR    C177  177   1.276   0.491   1.900  0.0000  0.0000  0.0000
    1GR    C178  178   1.418   0.491   1.900  0.0000  0.0000  0.0000
    1GR    C179  179   1.489   0.614   1.900  0.0000  0.0000  0.0000
    1GR    C180  180   1.631   0.614   1.900  0.0000  0.0000  0.0000
    1GR    C181  181   1.276   0.737   1.900  0.0000  0.0000  0.0000
    1GR    C182  182   1.418   0.737   1.900  0.0000  0.0000  0.0000
    1GR    C183  183   1.489   0.860   1.900  0.0000  0.0000  0.0000
    1GR    C184  184   1.631   0.860   1.900  0.0000  0.0000  0.0000
    1GR    C185  185   1.276   0.982   1.900  0.0000  0.0000  0.0000
    1GR    C186  186   1.418   0.982   1.900  0.0000  0.0000  0.0000
    1GR    C187  187   1.489   1.105   1.900  0.0000  0.0000  0.0000
    1GR    C188  188   1.631   1.105   1.900  0.0000  0.0000  0.0000
    1GR    C189  189   1.276   1.228   1.900  0.0000  0.0000  0.0000
    1GR    C190  190   1.418   1.228   1.900  0.0000  0.0000  0.0000
    1GR    C191  191   1.489   1.351   1.900  0.0000  0.0000  0.0000
    1GR    C192  192   1.631   1.351   1.900  0.0000  0.0000  0.0000
    1GR    C193  193   1.276   1.474   1.900  0.0000  0.0000  0.0000
    1GR    C194  194   1.418   1.474   1.900  0.0000  0.0000  0.0000
    1GR    C195  195   1.489   1.596   1.900  0.0000  0.0000  0.0000
    1GR    C196  196   1.631   1.596   1.900  0.0000  0.0000  0.0000
    1GR    C197  197   1.276   1.719   1.900  0.0000  0.0000  0.0000
    1GR    C198  198   1.418   1.719   1.900  0.0000  0.0000  0.0000
    1GR    C199  199   1.489   1.842   1.900  0.0000  0.0000  0.0000
    1GR    C200  200   1.631   1.842   1.900  0.0000  0.0000  0.0000
    1GR    C201  201   1.276   1.965   1.900  0.0000  0.0000  0.0000
    1GR    C202  202   1.418   1.965   1.900  0.0000  0.0000  0.0000
    1GR    C203  203   1.489   2.088   1.900  0.0000  0.0000  0.0000
    1GR    C204  204   1.631   2.088   1.900  0.0000  0.0000  0.0000
    1GR    C205  205   1.276   2.210   1.900  0.0000  0.0000  0.0000
    1GR    C206  206   1.418   2.210   1.900  0.0000  0.0000  0.0000
    1GR    C207  207   1.489   2.333   1.900  0.0000  0.0000  0.0000
    1GR    C208  208   1.631   2.333   1.900  0.0000  0.0000  0.0000
    1GR    C209  209   1.276   2.456   1.900  0.0000  0.0000  0.0000
    1GR    C210  210   1.418   2.456   1.900  0.0000  0.0000  0.0000
    1GR    C211  211   1.489   2.579   1.900  0.0000  0.0000  0.0000
    1GR    C212  212   1.631   2.579   1.900  0.0000  0.0000  0.0000
    1GR    C213  213   1.276   2.702   1.900  0.0000  0.0000  0.0000
    1GR    C214  214   1.418   2.702   1.900  0.0000  0.0000  0.0000
    1GR    C215  215   1.489   2.824   1.900  0.0000  0.0000  0.0000
    1GR    C216  216   1.631   2.824   1.900  0.0000  0.0000  0.0000
    1GR    C217  217   1.276   2.947   1.900  0.0000  0.0000  0.0000
    1GR    C218  218   1.418   2.947   1.900  0.0000  0.0000  0.0000
    1GR    C219  219   1.489   3.070   1.900  0.0000  0.0000  0.0000
    1GR    C220  220   1.631   3.070   1.900  0.0000  0.0000  0.0000
    1GR    C221  221   1.276   3.193   1.900  0.0000  0.0000  0.0000
    1GR    C222  222   1.418   3.193   1.900  0.0000  0.0000  0.0000
    1GR    C223  223   1.489   3.316   1.900  0.0000  0.0000  0.0000
    1GR    C224  224   1.631   3.316   1.900  0.0000  0.0000  0.0000
    1GR    C225  225   1.702   0.000   1.900  0.0000  0.0000  0.0000
    1GR    C226  226   1.843   0.000   1.900  0.0000  0.0000  0.0000
    1GR    C227  227   1.914   0.123   1.900  0.0000  0.0000  0.0000
    1GR    C228  228   2.056   0.123   1.900  0.0000  0.0000  0.0000
    1GR    C229  229   1.702   0.246   1.900  0.0000  0.0000  0.0000
    1GR    C230  230   1.843   0.246   1.900  0.0000  0.0000  0.0000
    1GR    C231  231   1.914   0.368   1.900  0.0000  0.0000  0.0000
    1GR    C232  232   2.056   0.368   1.900  0.0000  0.0000  0.0000
    1GR    C233  233   1.702   0.491   1.900  0.0000  0.0000  0.0000
    1GR    C234  234   1.843   0.491   1.900  0.0000  0.0000  0.0000
    1GR    C235  235   1.914   0.614   1.900  0.0000  0.0000  0.0000
    1GR    C236  236   2.056   0.614   1.900  0.0000  0.0000  0.0000
    1GR    C237  237   1.702   0.737   1.900  0.0000  0.0000  0.0000
    1GR    C238  238   1.843   0.737   1.900  0.0000  0.0000  0.0000
    1GR    C239  239   1.914   0.860   1.900  0.0000  0.0000  0.0000
    1GR    C240  240   2.056   0.860   1.900  0.0000  0.0000  0.0000
    1GR    C241  241   1.702   0.982   1.900  0.0000  0.0000  0.0000
    1GR    C242  242   1.843   0.982   1.900  0.0000  0.0000  0.0000
    1GR    C243  243   1.914   1.105   1.900  0.0000  0.0000  0.0000
    1GR    C244  244   2.056   1.105   1.900  0.0000  0.0000  0.0000
    1GR    C245  245   1.702   1.228   1.900  0.0000  0.0000  0.0000
    1GR    C246  246   1.843   1.228   1.900  0.0000  0.0000  0.0000
    1GR    C247  247   1.914   1.351   1.900  0.0000  0.0000  0.0000
    1GR    C248  248   2.056   1.351   1.900  0.0000  0.0000  0.0000
    1GR    C249  249   1.702   1.474   1.900  0.0000  0.0000  0.0000
    1GR    C250  250   1.843   1.474   1.900  0.0000  0.0000  0.0000
    1GR    C251  251   1.914   1.596   1.900  0.0000  0.0000  0.0000
    1GR    C252  252   2.056   1.596   1.900  0.0000  0.0000  0.0000
    1GR    C253  253   1.702   1.719   1.900  0.0000  0.0000  0.0000
    1GR    C254  254   1.843   1.719   1.900  0.0000  0.0000  0.0000
    1GR    C255  255   1.914   1.842   1.900  0.0000  0.0000  0.0000
    1GR    C256  256   2.056   1.842   1.900  0.0000  0.0000  0.0000
    1GR    C257  257   1.702   1.965   1.900  0.0000  0.0000  0.0000
    1GR    C258  258   1.843   1.965   1.900  0.0000  0.0000  0.0000
    1GR    C259  259   1.914   2.088   1.900  0.0000  0.0000  0.0000
    1GR    C260  260   2.056   2.088   1.900  0.0000  0.0000  0.0000
    1GR    C261  261   1.702   2.210   1.900  0.0000  0.0000  0.0000
    1GR    C262  262   1.843   2.210   1.900  0.0000  0.0000  0.0000
    1GR    C263  263   1.914   2.333   1.900  0.0000  0.0000  0.0000
    1GR    C264  264   2.056   2.333   1.900  0.0000  0.0000  0.0000
    1GR    C265  265   1.702   2.456   1.900  0.0000  0.0000  0.0000
    1GR    C266  266   1.843   2.456   1.900  0.0000  0.0000  0.0000
    1GR    C267  267   1.914   2.579   1.900  0.0000  0.0000  0.0000
    1GR    C268  268   2.056   2.579   1.900  0.0000  0.0000  0.0000
    1GR    C269  269   1.702   2.702   1.900  0.0000  0.0000  0.0000
    1GR    C270  270   1.843   2.702   1.900  0.0000  0.0000  0.0000
    1GR    C271  271   1.914   2.824   1.900  0.0000  0.0000  0.0000
    1GR    C272  272   2.056   2.824   1.900  0.0000  0.0000  0.0000
    1GR    C273  273   1.702   2.947   1.900  0.0000  0.0000  0.0000
    1GR    C274  274   1.843   2.947   1.900  0.0000  0.0000  0.0000
    1GR    C275  275   1.914   3.070   1.900  0.0000  0.0000  0.0000
    1GR    C276  276   2.056   3.070   1.900  0.0000  0.0000  0.0000
    1GR    C277  277   1.702   3.193   1.900  0.0000  0.0000  0.0000
    1GR    C278  278   1.843   3.193   1.900  0.0000  0.0000  0.0000
    1GR    C279  279   1.914   3.316   1.900  0.0000  0.0000  0.0000
    1GR    C280  280   2.056   3.316   1.900  0.0000  0.0000  0.0000
    1GR    C281  281   2.127   3.438   1.900  0.0000  0.0000  0.0000
    1GR    C282  282   2.269   0.000   1.900  0.0000  0.0000  0.0000
    1GR    C283  283   2.340   0.123   1.900  0.0000  0.0000  0.0000
    1GR    C284  284   2.481   0.123   1.900  0.0000  0.0000  0.0000
    1GR    C285  285   2.127   0.246   1.900  0.0000  0.0000  0.0000
    1GR    C286  286   2.269   0.246   1.900  0.0000  0.0000  0.0000
    1GR    C287  287   2.340   0.368   1.900  0.0000  0.0000  0.0000
    1GR    C288  288   2.481   0.368   1.900  0.0000  0.0000  0.0000
    1GR    C289  289   2.127   0.491   1.900  0.0000  0.0000  0.0000
    1GR    C290  290   2.269   0.491   1.900  0.0000  0.0000  0.0000
    1GR    C291  291   2.340   0.614   1.900  0.0000  0.0000  0.0000
    1GR    C292  292   2.481   0.614   1.900  0.0000  0.0000  0.0000
    1GR    C293  293   2.127   0.737   1.900  0.0000  0.0000  0.0000
    1GR    C294  294   2.269   0.737   1.900  0.0000  0.0000  0.0000
    1GR    C295  295   2.340   0.860   1.900  0.0000  0.0000  0.0000
    1GR    C296  296   2.481   0.860   1.900  0.0000  0.0000  0.0000
    1GR    C297  297   2.127   0.982   1.900  0.0000  0.0000  0.0000
    1GR    C298  298   2.269   0.982   1.900  0.0000  0.0000  0.0000
    1GR    C299  299   2.340   1.105   1.900  0.0000  0.0000  0.0000
    1GR    C300  300   2.481   1.105   1.900  0.0000  0.0000  0.0000
    1GR    C301  301   2.127   1.228   1.900  0.0000  0.0000  0.0000
    1GR    C302  302   2.269   1.228   1.900  0.0000  0.0000  0.0000
    1GR    C303  303   2.340   1.351   1.900  0.0000  0.0000  0.0000
    1GR    C304  304   2.481   1.351   1.900  0.0000  0.0000  0.0000
    1GR    C305  305   2.127   1.474   1.900  0.0000  0.0000  0.0000
    1GR    C306  306   2.269   1.474   1.900  0.0000  0.0000  0.0000
    1GR    C307  307   2.340   1.596   1.900  0.0000  0.0000  0.0000
    1GR    C308  308   2.481   1.596   1.900  0.0000  0.0000  0.0000
    1GR    C309  309   2.127   1.719   1.900  0.0000  0.0000  0.0000
    1GR    C310  310   2.269   1.719   1.900  0.0000  0.0000  0.0000
    1GR    C311  311   2.340   1.842   1.900  0.0000  0.0000  0.0000
    1GR    C312  312   2.481   1.842   1.900  0.0000  0.0000  0.0000
    1GR    C313  313   2.127   1.965   1.900  0.0000  0.0000  0.0000
    1GR    C314  314   2.269   1.965   1.900  0.0000  0.0000  0.0000
    1GR    C315  315   2.340   2.088   1.900  0.0000  0.0000  0.0000
    1GR    C316  316   2.481   2.088   1.900  0.0000  0.0000  0.0000
    1GR    C317  317   2.127   2.210   1.900  0.0000  0.0000  0.0000
    1GR    C318  318   2.269   2.210   1.900  0.0000  0.0000  0.0000
    1GR    C319  319   2.340   2.333   1.900  0.0000  0.0000  0.0000
    1GR    C320  320   2.481   2.333   1.900  0.0000  0.0000  0.0000
    1GR    C321  321   2.127   2.456   1.900  0.0000  0.0000  0.0000
    1GR    C322  322   2.269   2.456   1.900  0.0000  0.0000  0.0000
    1GR    C323  323   2.340   2.579   1.900  0.0000  0.0000  0.0000
    1GR    C324  324   2.481   2.579   1.900  0.0000  0.0000  0.0000
    1GR    C325  325   2.127   2.702   1.900  0.0000  0.0000  0.0000
    1GR    C326  326   2.269   2.702   1.900  0.0000  0.0000  0.0000
    1GR    C327  327   2.340   2.824   1.900  0.0000  0.0000  0.0000
    1GR    C328  328   2.481   2.824   1.900  0.0000  0.0000  0.0000
    1GR    C329  329   2.127   2.947   1.900  0.0000  0.0000  0.0000
    1GR    C330  330   2.269   2.947   1.900  0.0000  0.0000  0.0000
    1GR    C331  331   2.340   3.070   1.900  0.0000  0.0000  0.0000
    1GR    C332  332   2.481   3.070   1.900  0.0000  0.0000  0.0000
    1GR    C333  333   2.127   3.193   1.900  0.0000  0.0000  0.0000
    1GR    C334  334   2.269   3.193   1.900  0.0000  0.0000  0.0000
    1GR    C335  335   2.340   3.316   1.900  0.0000  0.0000  0.0000
    1GR    C336  336   2.481   3.316   1.900  0.0000  0.0000  0.0000
    1GR    C337  337   2.552   3.438   1.900  0.0000  0.0000  0.0000
    1GR    C338  338   2.694   0.000   1.900  0.0000  0.0000  0.0000
    1GR    C339  339   2.765   0.123   1.900  0.0000  0.0000  0.0000
    1GR    C340  340   2.907   0.123   1.900  0.0000  0.0000  0.0000
    1GR    C341  341   2.552   0.246   1.900  0.0000  0.0000  0.0000
    1GR    C342  342   2.694   0.246   1.900  0.0000  0.0000  0.0000
    1GR    C343  343   2.765   0.368   1.900  0.0000  0.0000  0.0000
    1GR    C344  344   2.907   0.368   1.900  0.0000  0.0000  0.0000
    1GR    C345  345   2.552   0.491   1.900  0.0000  0.0000  0.0000
    1GR    C346  346   2.694   0.491   1.900  0.0000  0.0000  0.0000
    1GR    C347  347   2.765   0.614   1.900  0.0000  0.0000  0.0000
    1GR    C348  348   2.907   0.614   1.900  0.0000  0.0000  0.0000
    1GR    C349  349   2.552   0.737   1.900  0.0000  0.0000  0.0000
    1GR    C350  350   2.694   0.737   1.900  0.0000  0.0000  0.0000
    1GR    C351  351   2.765   0.860   1.900  0.0000  0.0000  0.0000
    1GR    C352  352   2.907   0.860   1.900  0.0000  0.0000  0.0000
    1GR    C353  353   2.552   0.982   1.900  0.0000  0.0000  0.0000
    1GR    C354  354   2.694   0.982   1.900  0.0000  0.0000  0.0000
    1GR    C355  355   2.765   1.105   1.900  0.0000  0.0000  0.0000
    1GR    C356  356   2.907   1.105   1.900  0.0000  0.0000  0.0000
    1GR    C357  357   2.552   1.228   1.900  0.0000  0.0000  0.0000
    1GR    C358  358   2.694   1.228   1.900  0.0000  0.0000  0.0000
    1GR    C359  359   2.765   1.351   1.900  0.0000  0.0000  0.0000
    1GR    C360  360   2.907   1.351   1.900  0.0000  0.0000  0.0000
    1GR    C361  361   2.552   1.474   1.900  0.0000  0.0000  0.0000
    1GR    C362  362   2.694   1.474   1.900  0.0000  0.0000  0.0000
    1GR    C363  363   2.765   1.596   1.900  0.0000  0.0000  0.0000
    1GR    C364  364   2.907   1.596   1.900  0.0000  0.0000  0.0000
    1GR    C365  365   2.552   1.719   1.900  0.0000  0.0000  0.0000
    1GR    C366  366   2.694   1.719   1.900  0.0000  0.0000  0.0000
    1GR    C367  367   2.765   1.842   1.900  0.0000  0.0000  0.0000
    1GR    C368  368   2.907   1.842   1.900  0.0000  0.0000  0.0000
    1GR    C369  369   2.552   1.965   1.900  0.0000  0.0000  0.0000
    1GR    C370  370   2.694   1.965   1.900  0.0000  0.0000  0.0000
    1GR    C371  371   2.765   2.088   1.900  0.0000  0.0000  0.0000
    1GR    C372  372   2.907   2.088   1.900  0.0000  0.0000  0.0000
    1GR    C373  373   2.552   2.210   1.900  0.0000  0.0000  0.0000
    1GR    C374  374   2.694   2.210   1.900  0.0000  0.0000  0.0000
    1GR    C375  375   2.765   2.333   1.900  0.0000  0.0000  0.0000
    1GR    C376  376   2.907   2.333   1.900  0.0000  0.0000  0.0000
    1GR    C377  377   2.552   2.456   1.900  0.0000  0.0000  0.0000
    1GR    C378  378   2.694   2.456   1.900  0.0000  0.0000  0.0000
    1GR    C379  379   2.765   2.579   1.900  0.0000  0.0000  0.0000
    1GR    C380  380   2.907   2.579   1.900  0.0000  0.0000  0.0000
    1GR    C381  381   2.552   2.702   1.900  0.0000  0.0000  0.0000
    1GR    C382  382   2.694   2.702   1.900  0.0000  0.0000  0.0000
    1GR    C383  383   2.765   2.824   1.900  0.0000  0.0000  0.0000
    1GR    C384  384   2.907   2.824   1.900  0.0000  0.0000  0.0000
    1GR    C385  385   2.552   2.947   1.900  0.0000  0.0000  0.0000
    1GR    C386  386   2.694   2.947   1.900  0.0000  0.0000  0.0000
    1GR    C387  387   2.765   3.070   1.900  0.0000  0.0000  0.0000
    1GR    C388  388   2.907   3.070   1.900  0.0000  0.0000  0.0000
    1GR    C389  389   2.552   3.193   1.900  0.0000  0.0000  0.0000
    1GR    C390  390   2.694   3.193   1.900  0.0000  0.0000  0.0000
    1GR    C391  391   2.765   3.316   1.900  0.0000  0.0000  0.0000
    1GR    C392  392   2.907   3.316   1.900  0.0000  0.0000  0.0000
    1GR    C393  393   2.978   0.000   1.900  0.0000  0.0000  0.0000
    1GR    C394  394   3.120   0.000   1.900  0.0000  0.0000  0.0000
    1GR    C395  395   3.191   0.123   1.900  0.0000  0.0000  0.0000
    1GR    C396  396   3.332   0.123   1.900  0.0000  0.0000  0.0000
    1GR    C397  397   2.978   0.246   1.900  0.0000  0.0000  0.0000
    1GR    C398  398   3.120   0.246   1.900  0.0000  0.0000  0.0000
    1GR    C399  399   3.191   0.368   1.900  0.0000  0.0000  0.0000
    1GR    C400  400   3.332   0.368   1.900  0.0000  0.0000  0.0000
    1GR    C401  401   2.978   0.491   1.900  0.0000  0.0000  0.0000
    1GR    C402  402   3.120   0.491   1.900  0.0000  0.0000  0.0000
    1GR    C403  403   3.191   0.614   1.900  0.0000  0.0000  0.0000
    1GR    C404  404   3.332   0.614   1.900  0.0000  0.0000  0.0000
    1GR    C405  405   2.978   0.737   1.900  0.0000  0.0000  0.0000
    1GR    C406  406   3.120   0.737   1.900  0.0000  0.0000  0.0000
    1GR    C407  407   3.191   0.860   1.900  0.0000  0.0000  0.0000
    1GR    C408  408   3.332   0.860   1.900  0.0000  0.0000  0.0000
    1GR    C409  409   2.978   0.982   1.900  0.0000  0.0000  0.0000
    1GR    C410  410   3.120   0.982   1.900  0.0000  0.0000  0.0000
    1GR    C411  411   3.191   1.105   1.900  0.0000  0.0000  0.0000
    1GR    C412  412   3.332   1.105   1.900  0.0000  0.0000  0.0000
    1GR    C413  413   2.978   1.228   1.900  0.0000  0.0000  0.0000
    1GR    C414  414   3.120   1.228   1.900  0.0000  0.0000  0.0000
    1GR    C415  415   3.191   1.351   1.900  0.0000  0.0000  0.0000
    1GR    C416  416   3.332   1.351   1.900  0.0000  0.0000  0.0000
    1GR    C417  417   2.978   1.474   1.900  0.0000  0.0000  0.0000
    1GR    C418  418   3.120   1.474   1.900  0.0000  0.0000  0.0000
    1GR    C419  419   3.191   1.596   1.900  0.0000  0.0000  0.0000
    1GR    C420  420   3.332   1.596   1.900  0.0000  0.0000  0.0000
    1GR    C421  421   2.978   1.719   1.900  0.0000  0.0000  0.0000
    1GR    C422  422   3.120   1.719   1.900  0.0000  0.0000  0.0000
    1GR    C423  423   3.191   1.842   1.900  0.0000  0.0000  0.0000
    1GR    C424  424   3.332   1.842   1.900  0.0000  0.0000  0.0000
    1GR    C425  425   2.978   1.965   1.900  0.0000  0.0000  0.0000
    1GR    C426  426   3.120   1.965   1.900  0.0000  0.0000  0.0000
    1GR    C427  427   3.191   2.088   1.900  0.0000  0.0000  0.0000
    1GR    C428  428   3.332   2.088   1.900  0.0000  0.0000  0.0000
    1GR    C429  429   2.978   2.210   1.900  0.0000  0.0000  0.0000
    1GR    C430  430   3.120   2.210   1.900  0.0000  0.0000  0.0000
    1GR    C431  431   3.191   2.333   1.900  0.0000  0.0000  0.0000
    1GR    C432  432   3.332   2.333   1.900  0.0000  0.0000  0.0000
    1GR    C433  433   2.978   2.456   1.900  0.0000  0.0000  0.0000
    1GR    C434  434   3.120   2.456   1.900  0.0000  0.0000  0.0000
    1GR    C435  435   3.191   2.579   1.900  0.0000  0.0000  0.0000
    1GR    C436  436   3.332   2.579   1.900  0.0000  0.0000  0.0000
    1GR    C437  437   2.978   2.702   1.900  0.0000  0.0000  0.0000
    1GR    C438  438   3.120   2.702   1.900  0.0000  0.0000  0.0000
    1GR    C439  439   3.191   2.824   1.900  0.0000  0.0000  0.0000
    1GR    C440  440   3.332   2.824   1.900  0.0000  0.0000  0.0000
    1GR    C441  441   2.978   2.947   1.900  0.0000  0.0000  0.0000
    1GR    C442  442   3.120   2.947   1.900  0.0000  0.0000  0.0000
    1GR    C443  443   3.191   3.070   1.900  0.0000  0.0000  0.0000
    1GR    C444  444   3.332   3.070   1.900  0.0000  0.0000  0.0000
    1GR    C445  445   2.978   3.193   1.900  0.0000  0.0000  0.0000
    1GR    C446  446   3.120   3.193   1.900  0.0000  0.0000  0.0000
    1GR    C447  447   3.191   3.316   1.900  0.0000  0.0000  0.0000
    1GR    C448  448   3.332   3.316   1.900  0.0000  0.0000  0.0000
    2PMMA   CX1  449   1.637   1.754   2.354 -0.0725 -0.6772 -0.5596
    2PMMA   CA2  450   1.786   1.735   2.378  0.0069 -0.6199  0.6313
    2PMMA   CX3  451   1.872   1.798   2.263  0.4508 -0.2228  0.0647
    2PMMA    C4  452   1.817   1.808   2.516  0.1572 -0.1500 -0.2742
    2PMMA    O5  453   1.782   1.762   2.621 -1.0042  0.1099 -0.3966
    2PMMA   OS6  454   1.872   1.928   2.507  0.3004  0.6385  0.5562
    2PMMA   CE7  455   1.907   2.003   2.619 -0.2310 -0.5692 -0.2337
    2PMMA   CX8  456   1.805   1.581   2.404  0.4677 -0.3395 -0.0762
    2PMMA   CA9  457   1.949   1.515   2.422 -0.5740  0.2983 -0.7519
    2PMMA  CX10  458   2.005   1.496   2.277 -0.4767  0.0522 -0.9332
    2PMMA   C11  459   1.925   1.377   2.491 -0.8466  0.1539 -0.1329
    2PMMA   O12  460   1.924   1.270   2.436 -0.1316  0.2818  0.1516
    2PMMA  OS13  461   1.895   1.380   2.627  0.3056 -0.5142  0.2542
    2PMMA  CE14  462   1.841   1.271   2.703 -0.0224  0.9071  0.7805
    2PMMA  CX15  463   2.045   1.604   2.515 -0.1070 -0.2699 -1.1550
    2PMMA  CA16  464   2.201   1.574   2.519 -0.1154 -0.0775 -0.6416
    2PMMA  CX17  465   2.251   1.642   2.652 -0.3704  0.3801  0.6949
    2PMMA   C18  466   2.220   1.425   2.536 -0.0685 -0.3363 -0.8060
    2PMMA   O19  467   2.201   1.366   2.642 -0.2998 -0.2352  0.2408
    2PMMA  OS20  468   2.247   1.360   2.424  0.5815 -0.7539  0.4828
    2PMMA  CE21  469   2.271   1.224   2.430  0.4946  0.3364  0.2373
    2PMMA  CX22  470   2.281   1.632   2.395  0.2323  0.2097 -0.2682
    2PMMA  CA23  471   2.428   1.658   2.405 -0.4024  0.6623  0.4768
    2PMMA  CX24  472   2.506   1.536   2.458 -0.1855  0.3114 -0.3228
    2PMMA   C25  473   2.456   1.791   2.485  0.0079 -0.2756 -0.4997
    2PMMA   O26  474   2.382   1.885   2.474  0.0422  0.1150  1.0190
    2PMMA  OS27  475   2.549   1.786   2.581 -0.5570  0.1522 -0.2041
    2PMMA  CE28  476   2.584   1.896   2.658  0.1316 -0.2339 -0.9773
    2PMMA  CX29  477   2.473   1.682   2.261 -0.3516  0.0021  0.4488
    2PMMA  HC30  478   1.593   1.692   2.275 -2.1944 -1.4619  1.2051
    2PMMA  HC31  479   1.572   1.745   2.442 -1.6822 -1.8807 -1.8477
    2PMMA  HC32  480   1.622   1.855   2.314 -4.0224 -0.4479  1.1947
    2PMMA  HC33  481   1.982   1.795   2.268  0.5608  0.2569 -1.7083
    2PMMA  HC34  482   1.837   1.897   2.235  1.2651  0.2311  0.6235
    2PMMA  HC35  483   1.848   1.735   2.176 -1.7607  4.2808 -2.7783
    2PMMA  H136  484   1.972   2.087   2.593  1.0139 -1.3717  0.2709
    2PMMA  H137  485   1.961   1.950   2.697 -2.2203 -0.2050  1.4484
    2PMMA  H138  486   1.819   2.045   2.669  1.4773  1.5730  1.0969
    2PMMA  HC39  487   1.757   1.560   2.500 -1.2187 -0.9807 -1.0350
    2PMMA  HC40  488   1.734   1.520   2.346  0.0153 -1.8078  1.9928
    2PMMA  HC41  489   1.934   1.464   2.199 -1.5905 -0.6109  0.3304
    2PMMA  HC42  490   2.040   1.585   2.225 -0.4662  0.7576  0.2646
    2PMMA  HC43  491   2.081   1.418   2.273 -0.8695 -0.3231 -1.1701
    2PMMA  H144  492   1.902   1.181   2.688 -2.6806 -1.0047  1.2327
    2PMMA  H145  493   1.749   1.245   2.651 -0.3696 -0.4599  2.0450
    2PMMA  H146  494   1.816   1.297   2.805 -0.4711  0.0982  0.8800
    2PMMA  HC47  495   2.041   1.709   2.484  1.2613  0.6062  1.4565
    2PMMA  HC48  496   1.990   1.605   2.609  0.9319  1.5033 -0.5356
    2PMMA  HC49  497   2.221   1.747   2.659 -2.7369 -0.1592 -0.6804
    2PMMA  HC50  498   2.360   1.633   2.651 -0.6912 -5.4440 -0.2694
    2PMMA  HC51  499   2.205   1.583   2.733 -1.5099  0.6902  0.2830
    2PMMA  H152  500   2.361   1.214   2.490 -0.4703 -2.3419  1.3152
    2PMMA  H153  501   2.291   1.201   2.325  0.7353  2.2452 -0.1503
    2PMMA  H154  502   2.181   1.178   2.472 -0.0211  0.2427 -0.9648
    2PMMA  HC55  503   2.257   1.572   2.306  0.1461 -0.2362  0.0523
    2PMMA  HC56  504   2.229   1.722   2.360 -2.1792 -1.2769 -0.6093
    2PMMA  HC57  505   2.615   1.540   2.465 -0.1058 -2.6383  0.7792
    2PMMA  HC58  506   2.478   1.503   2.558 -1.5887 -1.0232 -1.1379
    2PMMA  HC59  507   2.486   1.446   2.400 -1.3008  0.3246  0.0263
    2PMMA  H160  508   2.693   1.909   2.652 -0.1238  1.3205 -2.6400
    2PMMA  H161  509   2.563   1.866   2.761  0.6641 -0.0833 -0.8234
    2PMMA  H162  510   2.533   1.990   2.637  1.4997  0.2216 -2.3635
    2PMMA  HC63  511   2.453   1.591   2.203  0.2343  0.7088 -0.8998
    2PMMA  HC64  512   2.412   1.767   2.229 -1.7951 -0.3976  2.0461
    2PMMA  HC65  513   2.580   1.705   2.255 -0.2798 -0.8942 -2.1562
    3ANI     C1  514   1.725   2.963   1.554  0.0234  0.6554  0.4001
    3ANI     O1  515   1.635   2.978   1.443  0.3677 -0.1477  0.9598
    3ANI     C2  516   1.681   2.988   1.312 -0.3997 -0.0711 -0.3965
    3ANI     C3  517   1.823   2.983   1.273  0.3121  0.4210 -0.2203
    3ANI     C4  518   1.850   2.993   1.129 -0.1884  0.4206 -0.0102
    3ANI     C5  519   1.746   3.017   1.038 -0.3456  0.5848 -0.1742
    3ANI     C6  520   1.614   3.016   1.078  0.5897  0.0620 -0.3340
    3ANI     C7  521   1.579   3.001   1.216 -0.3693  0.6353  0.6404
    3ANI     H1  522   1.786   3.051   1.575 -1.0040  1.1817  1.1900
    3ANI     H2  523   1.674   2.942   1.649  0.6967  0.7437  0.7888
    3ANI     H3  524   1.790   2.876   1.533  0.2199  0.9220 -0.1035
    3ANI     H4  525   1.903   2.976   1.346  1.7246  0.7339 -1.6920
    3ANI     H5  526   1.954   3.002   1.099  0.0038 -1.2480  0.1312
    3ANI     H6  527   1.767   3.019   0.932 -1.3103  0.9678 -0.3648
    3ANI     H7  528   1.537   3.014   1.002  0.0229  0.0860  0.2335
    3ANI     H8  529   1.475   3.011   1.246 -0.5645 -0.8947  0.4770
    4ANI     C1  530   2.646   1.360   0.544 -0.9272 -0.2127  0.1805
    4ANI     O1  531   2.623   1.393   0.688 -0.2377 -0.6545  0.4137
    4ANI     C2  532   2.607   1.292   0.785 -0.1408 -1.0039  0.1259
    4ANI     C3  533   2.550   1.165   0.750 -0.8093 -0.5020  0.5124
    4ANI     C4  534   2.534   1.071   0.853  1.0343 -0.3199 -0.0801
    4ANI     C5  535   2.576   1.097   0.983  0.8240 -0.0848 -0.9444
    4ANI     C6  536   2.629   1.217   1.017  0.2011  0.1531 -0.4878
    4ANI     C7  537   2.649   1.312   0.913 -0.2105  0.3525  0.0978
    4ANI     H1  538   2.653   1.448   0.478  0.0424 -0.4497 -0.0397
    4ANI     H2  539   2.735   1.302   0.516 -1.0156  0.2545 -1.1169
    4ANI     H3  540   2.571   1.298   0.495 -1.3229  1.1504 -0.9784
    4ANI     H4  541   2.527   1.142   0.646  1.4191 -0.7763  0.0468
    4ANI     H5  542   2.488   0.980   0.817  0.3102  0.0755 -0.1726
    4ANI     H6  543   2.580   1.018   1.058 -0.4341  2.4993  1.9891
    4ANI     H7  544   2.657   1.231   1.121 -0.0371 -1.7184 -0.1574
    4ANI     H8  545   2.699   1.406   0.931 -1.3711  0.8824  0.5678
    5ANI     C1  546   1.203   2.359   2.275  0.5292  0.3597  0.5127
    5ANI     O1  547   1.276   2.482   2.255  0.8033 -0.1111  0.2861
    5ANI     C2  548   1.256   2.594   2.329  0.1383 -0.1754 -0.8122
    5ANI     C3  549   1.281   2.719   2.277  0.0149  0.3201 -0.3689
    5ANI     C4  550   1.267   2.836   2.356 -0.7421  0.1941  0.2525
    5ANI     C5  551   1.202   2.828   2.477 -0.8608 -0.5752 -0.1152
    5ANI     C6  552   1.170   2.705   2.532 -0.2405 -0.0782  0.4247
    5ANI     C7  553   1.197   2.587   2.459 -0.3490 -0.7948 -0.3789
    5ANI     H1  554   1.249   2.300   2.355 -0.5820 -2.1466 -0.6243
    5ANI     H2  555   1.096   2.382   2.286  0.1491 -0.8789 -0.4005
    5ANI     H3  556   1.208   2.286   2.193 -0.8889  0.1532  0.5934
    5ANI     H4  557   1.314   2.724   2.174 -1.3737  0.9684 -0.7987
    5ANI     H5  558   1.304   2.930   2.316 -0.9043 -0.5192 -1.6445
    5ANI     H6  559   1.177   2.921   2.529 -0.6367  0.2773 -1.5001
    5ANI     H7  560   1.118   2.693   2.627 -2.1506  1.1310 -0.4301
    5ANI     H8  561   1.178   2.492   2.508  0.1842 -0.6774  0.0601
    6ANI     C1  562   1.318   1.461   2.231  0.4497  0.0784 -0.1000
    6ANI     O1  563   1.351   1.601   2.235 -0.0788 -0.3494  0.4196
    6ANI     C2  564   1.261   1.700   2.234  0.3471 -0.0996  0.6736
    6ANI     C3  565   1.124   1.673   2.236 -0.1292  0.6100  0.3942
    6ANI     C4  566   1.030   1.778   2.232 -0.1615 -0.1359 -0.6384
    6ANI     C5  567   1.077   1.915   2.232  0.1230 -0.0043  0.3633
    6ANI     C6  568   1.216   1.940   2.236 -0.7687  0.3945 -0.1618
    6ANI     C7  569   1.304   1.832   2.241  0.1733  0.3028  0.2537
    6ANI     H1  570   1.236   1.440   2.162  0.5398  0.6830 -0.3927
    6ANI     H2  571   1.409   1.402   2.217 -0.4439 -1.0779 -1.1511
    6ANI     H3  572   1.279   1.439   2.332  1.4402 -0.8636  0.0888
    6ANI     H4  573   1.089   1.570   2.245 -0.2957  0.3948 -2.5158
    6ANI     H5  574   0.922   1.763   2.229 -0.1947 -0.1669  0.5719
    6ANI     H6  575   1.010   2.000   2.229 -2.4643 -2.0147 -0.8913
    6ANI     H7  576   1.261   2.040   2.235  0.0617  0.0476  1.0840
    6ANI     H8  577   1.407   1.867   2.245  0.2493  0.1547 -0.4066
    7ANI     C1  578   0.254   0.826   3.431  0.8275 -0.5645  1.0168
    7ANI     O1  579   0.166   0.927   3.485  0.1133 -0.2646  0.5514
    7ANI     C2  580   0.135   0.938   3.614 -0.0978 -0.6104 -0.5641
    7ANI     C3  581   0.023   1.015   3.656  0.2109  0.1792 -0.7965
    7ANI     C4  582  -0.002   1.032   3.797  0.1396 -0.7365 -0.1157
    7ANI     C5  583   0.081   0.977   3.895 -0.5788  0.2839  0.0402
    7ANI     C6  584   0.182   0.892   3.853 -0.4582 -0.7692 -0.2500
    7ANI     C7  585   0.217   0.877   3.715  0.2181 -0.8765  0.1963
    7ANI     H1  586   0.355   0.849   3.467  1.2354 -1.4694  0.4488
    7ANI     H2  587   0.234   0.724   3.467  0.9836 -0.2151  2.1202
    7ANI     H3  588   0.259   0.826   3.322  0.7424  1.2916  1.0066
    7ANI     H4  589  -0.034   1.069   3.582  2.0519 -0.8842 -3.0830
    7ANI     H5  590  -0.091   1.091   3.817  1.2552  1.2912 -0.9706
    7ANI     H6  591   0.068   0.987   4.002 -0.7098 -1.7522  0.2296
    7ANI     H7  592   0.244   0.851   3.932  1.2211 -0.1107 -1.1870
    7ANI     H8  593   0.298   0.811   3.686  0.2142  0.5434 -3.2346
    8ANI     C1  594   2.986   2.656   1.536 -0.3949 -0.2849  0.3152
    8ANI     O1  595   3.053   2.549   1.587  0.6770 -0.0255 -0.2231
    8ANI     C2  596   2.995   2.427   1.587  0.3261  0.5822 -0.2413
    8ANI     C3  597   3.072   2.308   1.570  0.2844  0.1460 -0.8091
    8ANI     C4  598   3.010   2.185   1.560 -0.3179  0.4223 -0.2680
    8ANI     C5  599   2.873   2.175   1.578 -0.1584 -0.3060 -0.1602
    8ANI     C6  600   2.794   2.287   1.595 -0.5076  0.0669  0.2731
    8ANI     C7  601   2.854   2.413   1.600  0.3347  0.1697  0.4692
    8ANI     H1  602   2.945   2.632   1.437  0.4755  1.3647 -0.4813
    8ANI     H2  603   2.902   2.686   1.600 -0.0195  0.0525  0.6530
    8ANI     H3  604   3.051   2.745   1.530 -0.8396  0.0448  0.3705
    8ANI     H4  605   3.180   2.314   1.559  0.3155  2.7016  0.3988
    8ANI     H5  606   3.062   2.090   1.564  2.1294  1.7541  0.4074
    8ANI     H6  607   2.826   2.077   1.577  1.0926 -0.9226  0.6918
    8ANI     H7  608   2.686   2.285   1.605 -0.4814  0.1787  0.5920
    8ANI     H8  609   2.794   2.501   1.618 -0.4090 -0.1608 -0.3450
    9ANI     C1  610   0.229   1.942   3.335  0.1080  1.7377 -0.0228
    9ANI     O1  611   0.289   1.827   3.270 -0.1228  0.3927  0.8245
    9ANI     C2  612   0.405   1.766   3.310 -0.2889  0.1210 -0.2045
    9ANI     C3  613   0.461   1.794   3.440 -0.2798 -0.0825  0.5955
    9ANI     C4  614   0.574   1.725   3.484 -0.1237  0.1968  0.4066
    9ANI     C5  615   0.633   1.622   3.400  0.8155  0.0598  0.0225
    9ANI     C6  616   0.586   1.606   3.268 -0.7904  0.1214 -0.2233
    9ANI     C7  617   0.468   1.670   3.227 -0.3399 -0.2246 -0.2057
    9ANI     H1  618   0.145   1.970   3.270  0.3449 -0.6656 -1.4320
    9ANI     H2  619   0.191   1.916   3.434  0.8278 -0.3742 -0.2716
    9ANI     H3  620   0.314   2.011   3.343  2.4295 -1.1525  1.1091
    9ANI     H4  621   0.416   1.874   3.498 -1.4149 -1.3169  1.4432
    9ANI     H5  622   0.615   1.739   3.583  0.1805 -0.4055  0.3700
    9ANI     H6  623   0.713   1.562   3.443 -1.0242 -1.1737  1.8523
    9ANI     H7  624   0.636   1.539   3.200  1.2736  0.6451  0.7477
    9ANI     H8  625   0.426   1.658   3.128 -0.7701  3.7576 -0.5863
   10ANI     C1  626   3.285   3.155   3.234 -0.2118 -0.2828  0.2245
   10ANI     O1  627   3.302   3.053   3.139  0.5051 -0.0517 -0.2450
   10ANI     C2  628   3.401   2.965   3.157 -0.3416 -0.4291  0.1872
   10ANI     C3  629   3.474   2.949   3.277 -0.0953 -0.6233 -0.6214
   10ANI     C4  630   3.572   2.859   3.291 -0.2735  0.2050  0.3744
   10ANI     C5  631   3.606   2.778   3.174  0.2595 -0.1083 -0.3503
   10ANI     C6  632   3.544   2.801   3.047  0.0780  0.6940 -0.4936
   10ANI     C7  633   3.434   2.893   3.042  0.2890 -0.1002 -0.3755
   10ANI     H1  634   3.242   3.102   3.320  0.7720 -1.4645  0.0043
   10ANI     H2  635   3.382   3.202   3.253  1.2377 -3.3039  0.6962
   10ANI     H3  636   3.211   3.229   3.203  1.8587  1.7142 -0.1409
   10ANI     H4  637   3.465   3.017   3.361  0.5707 -1.6551  0.3048
   10ANI     H5  638   3.625   2.831   3.381 -1.1111 -0.2052  0.7390
   10ANI     H6  639   3.682   2.701   3.185 -1.7855 -1.8023  2.7904
   10ANI     H7  640   3.562   2.735   2.962  1.5942  1.8902 -1.1328
   10ANI     H8  641   3.375   2.901   2.950 -1.0837  3.0201  0.6929
   11ANI     C1  642   0.882   2.889   1.499 -0.5002 -0.3545  0.1095
   11ANI     O1  643   1.022   2.876   1.506  0.2757  0.2842 -0.2027
   11ANI     C2  644   1.096   2.763   1.540  0.0177 -0.0373  0.6384
   11ANI     C3  645   1.029   2.640   1.552  0.1763  0.5675  0.7380
   11ANI     C4  646   1.110   2.527   1.572 -0.2444  0.3157 -0.0511
   11ANI     C5  647   1.247   2.547   1.584 -0.2189  0.1150  0.3384
   11ANI     C6  648   1.310   2.677   1.579 -0.1839  1.0019  0.4867
   11ANI     C7  649   1.230   2.779   1.554  0.5277 -0.2044  0.0085
   11ANI     H1  650   0.832   2.820   1.430  1.0885 -0.1321 -1.2891
   11ANI     H2  651   0.843   2.884   1.601 -0.3508  0.6783  0.2295
   11ANI     H3  652   0.856   2.992   1.472 -0.4059  0.2511  2.2080
   11ANI     H4  653   0.921   2.627   1.549  0.1561  0.8081  0.3545
   11ANI     H5  654   1.067   2.427   1.583 -0.4382  0.7468  3.5164
   11ANI     H6  655   1.305   2.457   1.603 -1.3095 -0.8461 -0.8571
   11ANI     H7  656   1.415   2.699   1.597 -0.6609  2.1696  1.8813
   11ANI     H8  657   1.270   2.879   1.541 -0.6421  0.5857  2.2075
   12ANI     C1  658   0.023   0.811   2.959 -0.8025  0.0241 -0.2217
   12ANI     O1  659  -0.108   0.858   2.950  0.2146 -0.1645 -0.0812
   12ANI     C2  660  -0.179   0.867   2.836  0.4808 -0.3787 -0.5481
   12ANI     C3  661  -0.163   0.772   2.728  0.5295  0.7197  0.4454
   12ANI     C4  662  -0.235   0.806   2.607 -1.4724 -1.3285  0.4214
   12ANI     C5  663  -0.323   0.919   2.600  0.8307  0.8903  0.1518
   12ANI     C6  664  -0.343   1.000   2.710  0.2408  0.2222  0.0288
   12ANI     C7  665  -0.267   0.976   2.828  0.6431  0.1338  0.2736
   12ANI     H1  666   0.066   0.839   3.056 -0.6242  1.1374 -0.6164
   12ANI     H2  667   0.038   0.702   2.955 -0.1224  0.1629 -1.6357
   12ANI     H3  668   0.088   0.856   2.883  0.8624  1.4671  1.9698
   12ANI     H4  669  -0.091   0.691   2.731 -1.7735 -1.4183 -0.2764
   12ANI     H5  670  -0.216   0.752   2.515 -1.3756  1.4642 -1.2583
   12ANI     H6  671  -0.384   0.948   2.514 -2.8728 -1.2337  1.9277
   12ANI     H7  672  -0.423   1.073   2.701 -1.2055 -1.4215 -0.8460
   12ANI     H8  673  -0.290   1.045   2.909  0.7014 -1.1187  1.3896
   13ANI     C1  674   0.436   1.492   0.506  0.2591 -0.2531  0.1023
   13ANI     O1  675   0.453   1.639   0.535  0.2238  0.4836 -0.5667
   13ANI     C2  676   0.373   1.700   0.630 -0.4965 -0.2783 -0.5021
   13ANI     C3  677   0.306   1.635   0.731  1.1924  0.1271 -0.4545
   13ANI     C4  678   0.221   1.710   0.822 -0.5323  0.3050 -0.4408
   13ANI     C5  679   0.217   1.853   0.810  0.5136 -0.7912  1.0943
   13ANI     C6  680   0.290   1.910   0.706 -0.1620 -0.1695  0.1255
   13ANI     C7  681   0.366   1.837   0.621 -0.2650  0.2549  0.1747
   13ANI     H1  682   0.488   1.463   0.414 -1.3415 -2.3245 -0.2164
   13ANI     H2  683   0.475   1.429   0.587 -0.2533  0.0367  0.5836
   13ANI     H3  684   0.331   1.463   0.489 -0.0419 -0.0127  1.4573
   13ANI     H4  685   0.297   1.527   0.738 -0.8340  0.3604  0.9153
   13ANI     H5  686   0.157   1.658   0.892  0.8605 -0.6949  0.1294
   13ANI     H6  687   0.156   1.916   0.874 -1.2763  0.7455 -2.0014
   13ANI     H7  688   0.281   2.018   0.701 -1.1035 -0.2829 -0.5624
   13ANI     H8  689   0.424   1.882   0.541 -0.6246 -0.0804 -0.2774
   14ANI     C1  690   2.252   1.472   1.524 -0.6107 -0.3452 -0.2088
   14ANI     O1  691   2.386   1.454   1.491 -0.3651 -0.1761 -0.2662
   14ANI     C2  692   2.491   1.534   1.523 -0.3505  0.6292  0.0564
   14ANI     C3  693   2.466   1.667   1.562  0.1188 -0.0481 -0.5276
   14ANI     C4  694   2.574   1.745   1.586  0.3540 -0.7613  0.2087
   14ANI     C5  695   2.709   1.699   1.570 -0.1617 -0.2558  0.0690
   14ANI     C6  696   2.731   1.567   1.548 -0.0974 -0.1682  0.4553
   14ANI     C7  697   2.619   1.485   1.513  0.9373 -0.1044 -0.2963
   14ANI     H1  698   2.223   1.562   1.468  0.5381 -0.0634 -0.3615
   14ANI     H2  699   2.181   1.398   1.487 -2.9793  1.5956  0.2962
   14ANI     H3  700   2.235   1.475   1.633 -0.1302 -1.6547 -0.0995
   14ANI     H4  701   2.369   1.714   1.574  1.1492  2.2579 -0.9744
   14ANI     H5  702   2.558   1.850   1.608 -0.5244 -1.4281  2.8851
   14ANI     H6  703   2.791   1.768   1.588  0.2775 -0.6575 -0.3497
   14ANI     H7  704   2.829   1.520   1.542 -0.4969 -1.1350  1.3477
   14ANI     H8  705   2.639   1.382   1.484 -0.9024 -0.3628 -0.6933
   15ANI     C1  706   3.046   2.020   0.717  0.4346  0.1203  0.6065
   15ANI     O1  707   3.178   1.981   0.679  0.3766 -0.1008 -0.1234
   15ANI     C2  708   3.245   2.045   0.573 -0.0511 -0.3041  0.1503
   15ANI     C3  709   3.188   2.149   0.494  0.2098  0.0840 -0.4544
   15ANI     C4  710   3.253   2.215   0.396 -0.4138  0.7686  0.1690
   15ANI     C5  711   3.377   2.175   0.361 -0.8444 -0.0089 -0.0554
   15ANI     C6  712   3.448   2.072   0.432 -0.2595 -0.6244 -0.2177
   15ANI     C7  713   3.381   2.016   0.546 -0.2139  0.7148  0.1141
   15ANI     H1  714   3.002   1.939   0.776 -0.2076  0.6294  0.8208
   15ANI     H2  715   3.059   2.119   0.761  0.7802  0.6758 -0.7120
   15ANI     H3  716   2.981   2.038   0.631  2.0623  0.1066 -0.6626
   15ANI     H4  717   3.092   2.188   0.524 -0.4539  0.3546 -2.8173
   15ANI     H5  718   3.205   2.299   0.347 -0.4588 -0.8366 -2.6032
   15ANI     H6  719   3.432   2.228   0.284  1.4902  0.7206  2.0296
   15ANI     H7  720   3.550   2.046   0.406 -0.2958 -1.4011  0.4013
   15ANI     H8  721   3.433   1.937   0.600  0.5105  0.4440 -0.9713
   16ANI     C1  722   2.128   3.065   0.826  0.2055 -0.1825 -0.7509
   16ANI     O1  723   2.056   3.185   0.787 -0.8961  0.5833  0.6998
   16ANI     C2  724   1.989   3.195   0.666 -0.8521 -0.5655 -0.2772
   16ANI     C3  725   1.980   3.077   0.588 -1.1260  0.0298  0.7220
   16ANI     C4  726   1.918   3.075   0.461 -0.2567  0.0337  0.7503
   16ANI     C5  727   1.862   3.196   0.415  0.8165  0.0352 -0.3016
   16ANI     C6  728   1.867   3.314   0.490 -0.1002 -0.7713 -0.0092
   16ANI     C7  729   1.929   3.314   0.614  0.0454  0.4104  0.3530
   16ANI     H1  730   2.190   3.027   0.744  0.4796  0.1622 -0.7040
   16ANI     H2  731   2.192   3.074   0.914 -1.7017  1.3268  0.5346
   16ANI     H3  732   2.059   2.984   0.854  3.0324 -2.6732 -0.6593
   16ANI     H4  733   2.009   2.979   0.625 -0.3815  0.2997  0.8561
   16ANI     H5  734   1.924   2.985   0.402  2.8932  1.2614 -0.9179
   16ANI     H6  735   1.812   3.178   0.321  2.2219 -0.4777 -0.9585
   16ANI     H7  736   1.817   3.402   0.450 -0.8073 -1.8894 -1.6501
   16ANI     H8  737   1.939   3.404   0.673  3.2046 -0.1265  0.6980
   17ANI     C1  738   0.312   2.605   0.177 -0.1725 -0.0017 -0.2193
   17ANI     O1  739   0.227   2.650   0.078  0.1975  0.2059 -0.2754
   17ANI     C2  740   0.129   2.569   0.024 -0.3561  1.5453 -0.4229
   17ANI     C3  741   0.116   2.427   0.052  0.1501  0.2159 -0.3783
   17ANI     C4  742   0.010   2.351  -0.015  0.0158 -0.4191 -0.5377
   17ANI     C5  743  -0.083   2.420  -0.100  0.7141 -0.2957 -0.2372
   17ANI     C6  744  -0.054   2.556  -0.135 -0.4691  0.1872  0.0496
   17ANI     C7  745   0.036   2.629  -0.063 -0.2967  0.1683  0.7243
   17ANI     H1  746   0.365   2.518   0.135 -0.9375 -1.1896  1.2385
   17ANI     H2  747   0.377   2.683   0.218 -0.4041 -0.2775  0.6818
   17ANI     H3  748   0.260   2.568   0.266  1.3622 -0.8318  0.3575
   17ANI     H4  749   0.187   2.383   0.122  1.2706 -0.5281 -1.9475
   17ANI     H5  750   0.005   2.245   0.007  0.9568 -0.4034 -0.2500
   17ANI     H6  751  -0.175   2.374  -0.134 -0.2315  0.9971  0.5205
   17ANI     H7  752  -0.117   2.612  -0.204  1.1468  0.7863 -0.9694
   17ANI     H8  753   0.042   2.735  -0.085 -0.9932  0.4204  1.7092
   18ANI     C1  754   2.865   1.848   2.357  0.3172  0.1244 -0.0752
   18ANI     O1  755   2.991   1.825   2.301 -0.5244  0.3858  0.1228
   18ANI     C2  756   3.090   1.750   2.364  0.9405 -0.5884 -1.1753
   18ANI     C3  757   3.073   1.701   2.497  1.0630  0.3349  0.3875
   18ANI     C4  758   3.174   1.631   2.558 -1.2592 -0.3770 -0.3272
   18ANI     C5  759   3.294   1.604   2.485  0.5574 -0.0593  0.7446
   18ANI     C6  760   3.305   1.638   2.347  0.4414 -0.0635 -1.0182
   18ANI     C7  761   3.204   1.713   2.293  0.0991  0.4058  0.3911
   18ANI     H1  762   2.862   1.923   2.437 -1.6272  0.2429 -0.2226
   18ANI     H2  763   2.793   1.880   2.280  1.2363  2.2648 -0.0844
   18ANI     H3  764   2.829   1.757   2.406  0.0813 -0.4603 -1.3309
   18ANI     H4  765   2.985   1.730   2.553  0.7499  4.3185 -2.0501
   18ANI     H5  766   3.165   1.595   2.660 -0.0703 -2.4190 -0.9293
   18ANI     H6  767   3.378   1.556   2.536  1.8183  0.6325 -0.6511
   18ANI     H7  768   3.400   1.618   2.299  1.1147  2.0634 -0.6276
   18ANI     H8  769   3.223   1.747   2.192 -1.5777  1.0263  0.2759
   19ANI     C1  770   0.532   2.262   0.211  0.7234  0.1318  0.0583
   19ANI     O1  771   0.544   2.391   0.267 -0.2334  0.1933  0.4634
   19ANI     C2  772   0.670   2.447   0.289  0.1854  0.5092  0.1440
   19ANI     C3  773   0.788   2.400   0.220 -0.8579  0.3972 -0.1520
   19ANI     C4  774   0.912   2.457   0.240  0.1259  0.3168  0.2374
   19ANI     C5  775   0.924   2.566   0.328 -0.2705 -0.2642  0.8348
   19ANI     C6  776   0.811   2.618   0.395 -0.1154  0.1370 -0.7235
   19ANI     C7  777   0.684   2.559   0.378  0.1899  0.1098  0.0448
   19ANI     H1  778   0.593   2.190   0.266  0.4531 -0.2065 -0.0823
   19ANI     H2  779   0.424   2.245   0.197  0.3545  1.7386  0.7468
   19ANI     H3  780   0.579   2.269   0.112 -0.5432  1.0114 -0.5067
   19ANI     H4  781   0.783   2.327   0.139  0.0267 -0.1434  0.2697
   19ANI     H5  782   0.997   2.425   0.180 -0.8178  0.3624 -1.1634
   19ANI     H6  783   1.024   2.605   0.345 -0.5595  0.5190  0.7558
   19ANI     H7  784   0.823   2.707   0.456  1.6335 -0.4988 -0.0984
   19ANI     H8  785   0.595   2.603   0.421 -0.7974 -1.5255 -0.2850
   20ANI     C1  786   3.163   0.060   2.805  0.0891  0.1131  0.1001
   20ANI     O1  787   3.082   0.180   2.837 -0.2805 -0.2449 -0.2941
   20ANI     C2  788   3.057   0.284   2.757 -0.1217 -0.8615  0.7606
   20ANI     C3  789   3.127   0.312   2.632 -0.0003  0.1100  0.0758
   20ANI     C4  790   3.097   0.431   2.563 -0.1577  0.4272 -0.0049
   20ANI     C5  791   2.991   0.515   2.606  0.0828 -0.5270 -0.3926
   20ANI     C6  792   2.927   0.498   2.727 -0.3190  0.2561 -0.2839
   20ANI     C7  793   2.959   0.378   2.800 -0.2387  0.0640 -0.0417
   20ANI     H1  794   3.096  -0.025   2.784  0.4679 -0.0573 -0.4307
   20ANI     H2  795   3.236   0.068   2.725  1.1835  3.2933  1.3305
   20ANI     H3  796   3.218   0.028   2.894  0.6869 -0.5462 -0.5025
   20ANI     H4  797   3.204   0.245   2.596 -0.1705  1.3783 -2.8173
   20ANI     H5  798   3.154   0.457   2.475  0.2343  0.1820  0.1733
   20ANI     H6  799   2.958   0.599   2.547  3.0846  0.2136 -1.0883
   20ANI     H7  800   2.861   0.574   2.766  0.6825  0.3281  1.3372
   20ANI     H8  801   2.901   0.354   2.889 -1.1799  1.5093 -0.2500
   21ANI     C1  802   2.548   1.956   1.313 -0.1750 -0.5838  0.0557
   21ANI     O1  803   2.505   2.036   1.428  0.5495 -0.1570 -0.6735
   21ANI     C2  804   2.397   2.127   1.416 -0.2013 -0.2734 -0.2193
   21ANI     C3  805   2.336   2.165   1.288 -0.3539  0.1766  0.0631
   21ANI     C4  806   2.244   2.267   1.274 -0.0441 -0.1961  0.0528
   21ANI     C5  807   2.205   2.332   1.395 -0.3569 -0.2501  0.7293
   21ANI     C6  808   2.245   2.285   1.520  0.3287  0.5008 -0.1345
   21ANI     C7  809   2.348   2.190   1.532 -0.4994 -0.0460 -0.5175
   21ANI     H1  810   2.550   2.015   1.221  1.1679  1.5472  1.4062
   21ANI     H2  811   2.640   1.899   1.331 -0.4756 -1.3302 -0.7456
   21ANI     H3  812   2.469   1.880   1.299 -0.1690 -0.4414 -0.7697
   21ANI     H4  813   2.366   2.117   1.195 -0.5729  0.1773 -0.0090
   21ANI     H5  814   2.194   2.288   1.180  1.2188 -1.1718 -0.8504
   21ANI     H6  815   2.120   2.398   1.378 -0.2015 -0.5866 -1.5082
   21ANI     H7  816   2.204   2.334   1.608 -0.2085 -0.3282  0.0775
   21ANI     H8  817   2.386   2.154   1.627 -0.8396  0.4462 -0.1942
   22ANI     C1  818   2.118   0.603   2.742 -0.1062 -0.1336  0.0394
   22ANI     O1  819   2.091   0.740   2.714  0.3807 -0.1081 -1.1322
   22ANI     C2  820   2.131   0.840   2.796  0.2049  0.3559 -0.3411
   22ANI     C3  821   2.179   0.820   2.931  0.3315  0.8991 -0.1649
   22ANI     C4  822   2.212   0.931   3.011  0.0574  1.0601  0.0033
   22ANI     C5  823   2.210   1.055   2.958 -0.8144 -0.0303  0.0712
   22ANI     C6  824   2.176   1.079   2.820 -0.4932 -0.3426 -0.1351
   22ANI     C7  825   2.125   0.970   2.745  0.5713  0.2026  0.0729
   22ANI     H1  826   2.095   0.583   2.847 -1.6496 -1.5604 -0.5560
   22ANI     H2  827   2.064   0.532   2.678 -0.9818  1.5422 -1.1304
   22ANI     H3  828   2.226   0.586   2.736 -0.3018 -1.7813  0.9452
   22ANI     H4  829   2.175   0.720   2.974 -1.1699  0.7774 -0.5809
   22ANI     H5  830   2.265   0.904   3.103  1.1750 -0.7408 -1.1370
   22ANI     H6  831   2.240   1.143   3.014  1.5071  0.4067 -1.7755
   22ANI     H7  832   2.173   1.180   2.781  2.0145 -0.0984  0.2420
   22ANI     H8  833   2.107   0.990   2.639  2.8439  2.4048  0.0470
   23ANI     C1  834   3.387   1.566   0.673  0.3572 -0.5189 -0.4810
   23ANI     O1  835   3.302   1.465   0.730  0.3671  0.0953 -0.2501
   23ANI     C2  836   3.164   1.493   0.757  0.7122 -0.0272 -0.9952
   23ANI     C3  837   3.124   1.629   0.784  0.5009  0.3701  0.2999
   23ANI     C4  838   2.987   1.652   0.818 -1.3072 -0.2129  0.2684
   23ANI     C5  839   2.897   1.552   0.793 -0.9070 -0.1586 -0.7911
   23ANI     C6  840   2.939   1.420   0.774 -0.1537 -0.4994  0.4440
   23ANI     C7  841   3.074   1.390   0.756 -0.0527  0.1532  0.2959
   23ANI     H1  842   3.469   1.513   0.625  0.8796  0.0082 -0.1817
   23ANI     H2  843   3.332   1.609   0.588 -0.7846 -0.9338  0.0275
   23ANI     H3  844   3.402   1.646   0.746 -1.5392 -2.2930  1.9601
   23ANI     H4  845   3.194   1.712   0.790  0.0882  0.6073  2.3653
   23ANI     H5  846   2.949   1.746   0.855 -1.3960 -0.2657  0.3123
   23ANI     H6  847   2.789   1.558   0.797 -0.8564  0.2124  0.2073
   23ANI     H7  848   2.871   1.336   0.761  0.3546 -0.7739 -0.4806
   23ANI     H8  849   3.109   1.289   0.738  0.9434  0.4246  0.6718
   24ANI     C1  850   0.135   2.867   2.272  0.0738  0.4489 -0.1634
   24ANI     O1  851   0.002   2.914   2.247  0.5185  0.2701  0.2755
   24ANI     C2  852  -0.098   2.818   2.229  0.2141 -0.7780 -0.2890
   24ANI     C3  853  -0.231   2.863   2.230  0.9572 -0.3389 -0.3858
   24ANI     C4  854  -0.336   2.765   2.212  0.1064  0.4257  0.0324
   24ANI     C5  855  -0.311   2.631   2.206 -0.3251  0.0779  0.2882
   24ANI     C6  856  -0.175   2.590   2.213 -0.0599  0.2501  0.3399
   24ANI     C7  857  -0.068   2.678   2.226  0.6450  0.2454 -0.1626
   24ANI     H1  858   0.138   2.815   2.369  0.6729 -0.1963 -0.5220
   24ANI     H2  859   0.171   2.789   2.203 -0.9875 -0.8072  0.6683
   24ANI     H3  860   0.209   2.948   2.263  0.2035  0.1790 -1.5846
   24ANI     H4  861  -0.255   2.969   2.230  1.0177 -0.3240 -0.0856
   24ANI     H5  862  -0.440   2.792   2.197 -0.7542 -2.4739  0.4171
   24ANI     H6  863  -0.390   2.557   2.202  0.7927 -1.1201  0.2108
   24ANI     H7  864  -0.142   2.488   2.226  1.5921  0.9130  1.5496
   24ANI     H8  865   0.030   2.632   2.235 -0.5654 -2.7066 -1.6415
   25ANI     C1  866   3.023   1.735   2.910 -0.1857  0.4726 -0.4037
   25ANI     O1  867   2.963   1.865   2.947  0.1762 -0.1484 -0.5559
   25ANI     C2  868   3.042   1.972   2.994 -0.1553  0.0729 -0.2631
   25ANI     C3  869   2.981   2.078   3.049  0.2624 -0.9547  0.2142
   25ANI     C4  870   3.046   2.187   3.103 -0.2084  0.3882  0.3603
   25ANI     C5  871   3.185   2.198   3.098 -0.2117  0.1084 -0.4315
   25ANI     C6  872   3.254   2.095   3.027  0.3791  0.8535 -0.1991
   25ANI     C7  873   3.185   1.976   2.983 -0.1744 -0.5845 -0.4944
   25ANI     H1  874   3.096   1.742   2.829 -0.8634  0.2748 -1.0392
   25ANI     H2  875   3.058   1.687   3.003  0.8259  2.2980  0.1821
   25ANI     H3  876   2.952   1.663   2.868  0.9071 -1.5294  1.1267
   25ANI     H4  877   2.873   2.065   3.054  0.1694 -0.2011  0.2422
   25ANI     H5  878   2.979   2.263   3.143  1.4651  2.8057 -1.3157
   25ANI     H6  879   3.234   2.286   3.139  1.7971 -1.1506 -0.0442
   25ANI     H7  880   3.361   2.101   3.011  0.2066  3.3233 -0.5695
   25ANI     H8  881   3.236   1.892   2.937 -1.0578 -1.3566 -0.1009
   26ANI     C1  882   2.163   3.029   3.354 -0.6139  0.2132 -0.3949
   26ANI     O1  883   2.178   3.049   3.497  0.1519  0.4434 -0.2844
   26ANI     C2  884   2.304   3.054   3.559 -0.2193 -0.3370  0.4586
   26ANI     C3  885   2.417   3.083   3.479 -0.6784  0.3910 -0.3365
   26ANI     C4  886   2.536   3.105   3.541  0.0520 -0.0741 -0.2449
   26ANI     C5  887   2.555   3.067   3.671 -0.2900  0.2717 -0.2223
   26ANI     C6  888   2.449   3.037   3.750 -0.0229 -0.1026  0.4563
   26ANI     C7  889   2.318   3.032   3.690  0.0471 -0.0530  0.4944
   26ANI     H1  890   2.222   2.940   3.325  0.6723  1.2505 -1.0330
   26ANI     H2  891   2.056   3.020   3.335 -0.9040 -1.8323  1.9612
   26ANI     H3  892   2.187   3.114   3.290  2.9279  0.3341  0.9644
   26ANI     H4  893   2.413   3.098   3.371  0.9087  0.6401 -0.3773
   26ANI     H5  894   2.625   3.127   3.482 -0.5025 -0.0859 -1.0899
   26ANI     H6  895   2.652   3.077   3.719  0.6609  1.0498 -2.2863
   26ANI     H7  896   2.467   3.013   3.855  0.0345 -0.4945  0.3592
   26ANI     H8  897   2.231   3.003   3.749 -1.4774  0.6345 -1.3613
   27ANI     C1  898   2.114   2.314   3.575  0.1449 -0.4580  0.4114
   27ANI     O1  899   2.047   2.348   3.699  0.1999 -0.9011  0.6110
   27ANI     C2  900   2.037   2.266   3.800  0.0748 -0.2615 -0.1531
   27ANI     C3  901   2.096   2.131   3.793  0.3335 -0.6506  0.2605
   27ANI     C4  902   2.084   2.048   3.912 -0.2876  0.0518 -0.2194
   27ANI     C5  903   2.009   2.096   4.024  0.1572 -0.0368  0.2966
   27ANI     C6  904   1.942   2.220   4.020 -0.7423  0.7851  0.4042
   27ANI     C7  905   1.960   2.305   3.907  0.8332  0.0068  0.3217
   27ANI     H1  906   2.046   2.265   3.503 -1.4847  0.6480  1.1618
   27ANI     H2  907   2.154   2.405   3.530  0.3180 -1.0975 -0.7700
   27ANI     H3  908   2.207   2.255   3.577  1.0150  0.9349  2.2097
   27ANI     H4  909   2.158   2.102   3.709 -1.3700 -1.9759 -0.5827
   27ANI     H5  910   2.126   1.948   3.908 -0.8543 -0.1358 -1.4593
   27ANI     H6  911   1.992   2.030   4.109 -0.0446 -1.2828 -0.6860
   27ANI     H7  912   1.891   2.267   4.103 -1.9336  1.3477 -0.6266
   27ANI     H8  913   1.906   2.399   3.906  0.3722 -0.2560 -1.1991
   28ANI     C1  914   1.611   2.021   1.200 -0.5554  0.3196  0.3346
   28ANI     O1  915   1.578   2.037   1.057  0.0345  0.3426 -0.3482
   28ANI     C2  916   1.525   1.931   0.988  0.0665  0.6072 -0.1520
   28ANI     C3  917   1.535   1.925   0.853  0.3867 -0.3419  0.5730
   28ANI     C4  918   1.501   1.807   0.778  0.0531 -0.3030 -0.2190
   28ANI     C5  919   1.442   1.697   0.844  0.1372  0.1049 -0.4768
   28ANI     C6  920   1.429   1.707   0.983 -0.6380  0.4257 -0.4206
   28ANI     C7  921   1.469   1.820   1.057 -0.5109  0.0648 -0.1066
   28ANI     H1  922   1.533   2.046   1.273  1.5097  0.6890  2.4854
   28ANI     H2  923   1.640   1.917   1.218  0.3956  0.6438  0.6865
   28ANI     H3  924   1.694   2.086   1.230  0.8626 -0.9727 -0.7023
   28ANI     H4  925   1.574   2.010   0.796 -0.9124  0.2436  0.5377
   28ANI     H5  926   1.515   1.804   0.670 -0.2228 -0.9218 -0.2438
   28ANI     H6  927   1.410   1.607   0.792 -0.2320  0.2149 -0.4386
   28ANI     H7  928   1.384   1.626   1.040  1.4372  0.2590  1.0236
   28ANI     H8  929   1.449   1.817   1.164 -1.6768  0.6102 -0.2977
   29ANI     C1  930   2.811   3.434   0.012  0.0061  0.6198  0.2529
   29ANI     O1  931   2.905   3.343   0.072 -0.4258  0.3330 -0.3170
   29ANI     C2  932   3.031   3.380   0.105  0.7862 -0.0838 -0.1816
   29ANI     C3  933   3.062   3.519   0.119 -0.7567 -0.4712 -0.3836
   29ANI     C4  934   3.193   3.565   0.152 -0.2057 -0.7704 -0.1269
   29ANI     C5  935   3.283   3.465   0.181  0.1173  0.4010 -0.0256
   29ANI     C6  936   3.254   3.327   0.162  0.1093 -0.6409 -0.5013
   29ANI     C7  937   3.129   3.284   0.119 -0.0253 -0.2368  0.5504
   29ANI     H1  938   2.797   3.519   0.080 -2.0700  1.3432 -1.0406
   29ANI     H2  939   2.854   3.472  -0.081 -2.0662 -0.4633 -1.1781
   29ANI     H3  940   2.712   3.388  -0.004  1.3446 -3.1431  2.1364
   29ANI     H4  941   2.990   3.599   0.100  1.1211  1.4897  0.5720
   29ANI     H5  942   3.203   3.671   0.174  1.0177 -1.0525  0.7575
   29ANI     H6  943   3.377   3.499   0.224 -0.2678 -1.1821  2.1458
   29ANI     H7  944   3.335   3.256   0.177  0.2606 -0.3093  0.2557
   29ANI     H8  945   3.093   3.181   0.111 -0.5990  0.1338 -2.2201
   30ANI     C1  946   1.615   1.557   0.483 -0.0153  0.1127 -0.6074
   30ANI     O1  947   1.621   1.633   0.362 -0.3764 -0.1404  0.2549
   30ANI     C2  948   1.536   1.603   0.256  0.0671 -0.1205  0.6696
   30ANI     C3  949   1.402   1.588   0.289 -0.3575  0.0979  0.8293
   30ANI     C4  950   1.313   1.546   0.180 -0.2035 -0.6532  0.7023
   30ANI     C5  951   1.356   1.528   0.053 -0.1741  0.1295  0.3674
   30ANI     C6  952   1.491   1.542   0.025  0.2736  0.6665 -1.1918
   30ANI     C7  953   1.584   1.572   0.129  0.0536  0.3290 -0.0634
   30ANI     H1  954   1.709   1.578   0.535  1.1839 -1.3041 -2.1628
   30ANI     H2  955   1.527   1.587   0.542  1.7961  1.0981  1.6647
   30ANI     H3  956   1.600   1.451   0.458 -0.4149 -0.3453  1.4226
   30ANI     H4  957   1.359   1.600   0.388  1.6018  0.5002  1.6453
   30ANI     H5  958   1.211   1.511   0.196 -0.8961  0.9167 -0.2046
   30ANI     H6  959   1.281   1.503  -0.021  0.4151 -2.7785  0.6789
   30ANI     H7  960   1.528   1.518  -0.075 -1.0007 -1.0456 -1.2835
   30ANI     H8  961   1.690   1.581   0.108 -0.0848 -0.9034 -1.3784
   31ANI     C1  962   0.005   2.622   1.049  0.5371  0.0649  0.7245
   31ANI     O1  963   0.098   2.602   0.942  0.3179  0.3304 -0.0631
   31ANI     C2  964   0.086   2.663   0.822 -0.3574  0.2745  0.7693
   31ANI     C3  965   0.007   2.774   0.805  0.3167 -0.4625  0.6420
   31ANI     C4  966   0.007   2.841   0.677 -0.2903 -0.2136  0.7259
   31ANI     C5  967   0.087   2.798   0.570  0.0394  0.0997  0.6523
   31ANI     C6  968   0.171   2.687   0.591 -0.2726  0.6345 -0.3085
   31ANI     C7  969   0.168   2.621   0.716  0.1726  0.4651 -0.3366
   31ANI     H1  970  -0.019   2.727   1.068 -0.8344 -0.3669  1.3935
   31ANI     H2  971  -0.088   2.570   1.025  0.6144 -0.0152  0.5941
   31ANI     H3  972   0.058   2.582   1.136  2.2013  0.0419 -0.2612
   31ANI     H4  973  -0.056   2.821   0.880 -0.8675  0.7035 -1.0251
   31ANI     H5  974  -0.064   2.920   0.652  0.0758  0.0243  0.4248
   31ANI     H6  975   0.071   2.847   0.474 -1.2978  1.8117  1.7140
   31ANI     H7  976   0.223   2.654   0.501 -1.3406  0.6216 -0.9366
   31ANI     H8  977   0.237   2.539   0.731  1.4059  1.6696  0.7653
   32ANI     C1  978   1.623   1.936   0.162 -0.3665  1.3847 -1.0681
   32ANI     O1  979   1.659   2.033   0.063 -0.9092 -0.1933  0.3668
   32ANI     C2  980   1.655   1.993  -0.068 -0.0460 -0.1964 -0.2045
   32ANI     C3  981   1.742   2.064  -0.154  0.5752  0.3797 -0.0141
   32ANI     C4  982   1.748   2.035  -0.289 -0.1168  0.2326 -0.3565
   32ANI     C5  983   1.665   1.935  -0.345 -0.6892  0.3104  0.2810
   32ANI     C6  984   1.574   1.873  -0.262  0.8307 -1.1728 -0.3239
   32ANI     C7  985   1.564   1.899  -0.120 -0.6169  0.2575  0.2224
   32ANI     H1  986   1.630   1.981   0.261  1.1989 -1.3087  0.0865
   32ANI     H2  987   1.518   1.904   0.151  0.3356 -1.5957  0.3335
   32ANI     H3  988   1.685   1.846   0.149  0.2530  1.8360 -1.2359
   32ANI     H4  989   1.812   2.134  -0.110  1.9570 -1.1437  0.2856
   32ANI     H5  990   1.827   2.078  -0.349  1.0461 -1.0001  0.2421
   32ANI     H6  991   1.670   1.911  -0.451  0.8445  1.4298  0.0813
   32ANI     H7  992   1.507   1.800  -0.307 -1.5308  1.5949 -1.4844
   32ANI     H8  993   1.490   1.860  -0.051 -1.8487  1.9464 -0.1179
   33ANI     C1  994   0.690   2.131   2.709  0.8508  0.4216 -0.0340
   33ANI     O1  995   0.605   2.142   2.824 -0.3392 -0.6527 -0.4428
   33ANI     C2  996   0.632   2.072   2.938 -0.4506  0.2431 -0.0570
   33ANI     C3  997   0.728   1.974   2.941 -0.0604  0.3070 -0.3423
   33ANI     C4  998   0.756   1.902   3.061  0.8037  0.8897 -0.0006
   33ANI     C5  999   0.687   1.931   3.175  0.6567  0.5746  0.1241
   33ANI     C6 1000   0.589   2.040   3.173 -0.2769 -0.3764  0.0872
   33ANI     C7 1001   0.563   2.108   3.056 -0.7692 -0.1330  0.2734
   33ANI     H1 1002   0.657   2.206   2.637  0.6316  0.1470 -0.2193
   33ANI     H2 1003   0.795   2.159   2.725  0.9271  0.3709 -0.4481
   33ANI     H3 1004   0.694   2.029   2.668  0.4140  0.3380  0.1279
   33ANI     H4 1005   0.787   1.958   2.851  0.9134 -2.1393  0.6811
   33ANI     H5 1006   0.839   1.832   3.061  0.2158  0.1819 -0.7167
   33ANI     H6 1007   0.708   1.887   3.273  0.4935  2.7299  1.1647
   33ANI     H7 1008   0.526   2.056   3.260  0.6170 -0.1417  0.7055
   33ANI     H8 1009   0.487   2.184   3.041 -1.0958 -0.8670 -1.9721
   34ANI     C1 1010   2.201   0.546   0.212  0.0059 -0.1496 -0.7350
   34ANI     O1 1011   2.102   0.575   0.116  0.1522  0.4638  0.8872
   34ANI     C2 1012   1.968   0.572   0.144 -0.2278  0.6047  0.3037
   34ANI     C3 1013   1.881   0.580   0.036 -0.5359 -0.0256 -0.0089
   34ANI     C4 1014   1.746   0.567   0.057 -0.7376  0.0431  0.2358
   34ANI     C5 1015   1.692   0.550   0.188  0.9464  0.7773 -0.1020
   34ANI     C6 1016   1.783   0.539   0.295  0.1710  1.6149  0.2427
   34ANI     C7 1017   1.918   0.550   0.274  0.4788  0.0535 -0.8997
   34ANI     H1 1018   2.196   0.633   0.278  0.4465 -0.7513  0.1095
   34ANI     H2 1019   2.194   0.446   0.257  0.8209 -0.3243 -0.9840
   34ANI     H3 1020   2.300   0.565   0.169 -0.1387  2.8326  0.1516
   34ANI     H4 1021   1.924   0.598  -0.062 -0.1790  0.1677  0.1826
   34ANI     H5 1022   1.679   0.585  -0.027  0.1692  0.0919 -0.4873
   34ANI     H6 1023   1.585   0.545   0.201  1.2269 -1.0982  1.8367
   34ANI     H7 1024   1.738   0.515   0.391 -2.5078  1.9080 -0.9030
   34ANI     H8 1025   1.984   0.540   0.360  1.6374  2.0119 -1.5295
   35ANI     C1 1026   1.045   0.688   3.721  1.0540 -0.4642  0.2169
   35ANI     O1 1027   0.948   0.788   3.754 -0.6788  0.2585  0.0996
   35ANI     C2 1028   0.830   0.738   3.793  0.3903 -0.2630 -0.2207
   35ANI     C3 1029   0.811   0.599   3.835  0.5893 -0.0782  0.0031
   35ANI     C4 1030   0.684   0.554   3.864  0.3053  0.0100  0.5441
   35ANI     C5 1031   0.575   0.636   3.870  0.3061 -0.8070 -0.9306
   35ANI     C6 1032   0.597   0.772   3.841  0.3424 -0.1443  0.5294
   35ANI     C7 1033   0.719   0.820   3.799  0.5915  0.3627  0.3132
   35ANI     H1 1034   1.010   0.623   3.639 -2.2054 -0.5350  1.6145
   35ANI     H2 1035   1.128   0.735   3.665 -1.3640  1.9089 -1.5079
   35ANI     H3 1036   1.066   0.628   3.810 -2.5584  0.4891  1.7944
   35ANI     H4 1037   0.886   0.521   3.825  0.9998  0.4746 -1.3345
   35ANI     H5 1038   0.672   0.448   3.882 -0.0949 -0.2418 -1.0718
   35ANI     H6 1039   0.482   0.590   3.902  0.6984 -0.2794  1.0206
   35ANI     H7 1040   0.512   0.839   3.850  1.0604  0.8257  0.1729
   35ANI     H8 1041   0.734   0.925   3.776 -0.0026  0.2912 -0.4140
   36ANI     C1 1042   1.804   2.372   2.962  0.3354  0.1159  0.9829
   36ANI     O1 1043   1.783   2.396   2.821 -0.5885  0.0669  0.4836
   36ANI     C2 1044   1.673   2.352   2.743  0.4064  0.2674 -0.0666
   36ANI     C3 1045   1.653   2.401   2.614 -0.2872 -0.0332  0.2594
   36ANI     C4 1046   1.546   2.365   2.534 -0.3353 -0.6218 -0.0286
   36ANI     C5 1047   1.440   2.289   2.595 -0.6416 -0.0979  0.5628
   36ANI     C6 1048   1.463   2.235   2.720 -0.5117 -0.2429 -0.6647
   36ANI     C7 1049   1.572   2.275   2.799 -0.5992 -0.0671 -0.2163
   36ANI     H1 1050   1.909   2.383   2.991  0.1524  0.6807  1.4326
   36ANI     H2 1051   1.741   2.440   3.020 -1.7321 -1.6110  0.8340
   36ANI     H3 1052   1.780   2.267   2.985  1.0800 -0.2840 -0.0488
   36ANI     H4 1053   1.741   2.449   2.574 -0.5471 -0.4447 -0.8136
   36ANI     H5 1054   1.536   2.402   2.433  0.0873  0.1649  0.2095
   36ANI     H6 1055   1.357   2.260   2.532  0.5089 -3.0382  0.3118
   36ANI     H7 1056   1.395   2.161   2.760  0.5612  0.7312  3.1064
   36ANI     H8 1057   1.592   2.234   2.897 -0.3365  0.3356 -0.1025
   37ANI     C1 1058   0.637   3.256   2.250 -0.6615  0.3604 -0.1763
   37ANI     O1 1059   0.523   3.340   2.237  0.3195 -0.3333  0.2228
   37ANI     C2 1060   0.526   3.471   2.230 -0.3811 -0.4510 -0.0404
   37ANI     C3 1061   0.650   3.548   2.226  1.0207  0.3214 -0.2346
   37ANI     C4 1062   0.639   3.683   2.218  0.0086 -0.7510  0.7802
   37ANI     C5 1063   0.518   3.750   2.225 -0.4144  0.4702 -0.0060
   37ANI     C6 1064   0.397   3.675   2.219 -0.3318 -0.5517 -0.1196
   37ANI     C7 1065   0.400   3.542   2.228  0.0691 -0.8209  0.2007
   37ANI     H1 1066   0.601   3.154   2.264 -0.2054  0.0946 -0.8787
   37ANI     H2 1067   0.706   3.258   2.164  1.9962 -0.2568  1.8953
   37ANI     H3 1068   0.700   3.290   2.333 -2.4466  1.0354  0.9128
   37ANI     H4 1069   0.744   3.493   2.220  0.6934 -0.3827  0.9836
   37ANI     H5 1070   0.729   3.743   2.218  0.0869 -0.8659  0.5918
   37ANI     H6 1071   0.503   3.857   2.216  0.2279  0.3835 -2.8087
   37ANI     H7 1072   0.304   3.730   2.218 -1.7771 -2.9321 -1.3842
   37ANI     H8 1073   0.313   3.478   2.235  0.9420 -2.1126 -0.6145
   38ANI     C1 1074   2.070   1.869   0.786 -0.3791 -0.2332  0.5045
   38ANI     O1 1075   2.072   1.736   0.732  0.0031  1.0497 -0.1085
   38ANI     C2 1076   2.028   1.697   0.608 -0.4819  0.0818  0.0040
   38ANI     C3 1077   2.017   1.560   0.578 -0.2902 -0.3101  0.7024
   38ANI     C4 1078   1.968   1.511   0.456  0.3116  0.4691 -0.2638
   38ANI     C5 1079   1.940   1.603   0.358 -0.3429  0.9021 -0.3444
   38ANI     C6 1080   1.950   1.743   0.376  0.2945 -0.3722 -0.0779
   38ANI     C7 1081   1.992   1.783   0.505  0.6986  0.1989  0.4229
   38ANI     H1 1082   1.971   1.898   0.823  0.3502  0.6686  1.8026
   38ANI     H2 1083   2.135   1.881   0.874  0.5648  0.7748 -0.3165
   38ANI     H3 1084   2.108   1.944   0.716 -0.9375  0.7666  1.2539
   38ANI     H4 1085   2.033   1.483   0.653 -1.0359 -0.2382  0.9361
   38ANI     H5 1086   1.964   1.404   0.439 -0.2617  0.6432 -1.3018
   38ANI     H6 1087   1.909   1.574   0.258 -0.0879  0.8220 -0.3981
   38ANI     H7 1088   1.920   1.815   0.301 -0.0803 -0.0365  0.3978
   38ANI     H8 1089   1.997   1.891   0.511 -0.3393  0.2172  1.1930
   39ANI     C1 1090   2.411   2.140   0.230  0.2718  0.1132  0.0880
   39ANI     O1 1091   2.458   2.271   0.254 -0.2503  0.1301 -0.2791
   39ANI     C2 1092   2.535   2.295   0.369  0.3256 -0.2963  0.3694
   39ANI     C3 1093   2.597   2.191   0.442 -0.6841 -0.0669  0.3766
   39ANI     C4 1094   2.652   2.230   0.566 -0.6359  0.2742  0.5500
   39ANI     C5 1095   2.676   2.363   0.599 -0.0574  0.4015 -0.9699
   39ANI     C6 1096   2.624   2.467   0.517 -0.5108  0.0404 -0.3562
   39ANI     C7 1097   2.550   2.431   0.403  0.1074  0.4553  0.0795
   39ANI     H1 1098   2.340   2.140   0.146  0.6958 -0.1701 -0.2689
   39ANI     H2 1099   2.498   2.080   0.201 -1.7320 -2.4649 -0.7766
   39ANI     H3 1100   2.358   2.094   0.315 -1.7332  2.4027  0.1666
   39ANI     H4 1101   2.586   2.087   0.412 -0.5870  0.0419 -0.0509
   39ANI     H5 1102   2.710   2.160   0.624  0.1403  0.9821  0.6460
   39ANI     H6 1103   2.727   2.383   0.693 -1.7676  0.8031 -0.0960
   39ANI     H7 1104   2.621   2.571   0.548 -0.8220 -0.4393  1.2575
   39ANI     H8 1105   2.495   2.496   0.335  1.1080  0.4566 -0.7534
   40ANI     C1 1106   1.613   3.102   0.666  0.0049  0.0336  0.7037
   40ANI     O1 1107   1.478   3.139   0.677  0.3786 -1.4188  0.7735
   40ANI     C2 1108   1.442   3.270   0.719 -0.1997  0.2542 -0.1028
   40ANI     C3 1109   1.528   3.386   0.715  0.1612  0.4523  0.5131
   40ANI     C4 1110   1.486   3.505   0.765  0.3068 -0.0858  0.1750
   40ANI     C5 1111   1.361   3.520   0.830  0.0328  0.0293  0.6420
   40ANI     C6 1112   1.273   3.405   0.837 -0.5705 -0.7768  0.0677
   40ANI     C7 1113   1.314   3.282   0.779  0.3068  0.5055  0.0047
   40ANI     H1 1114   1.633   2.994   0.662  0.3273  0.1099  0.2445
   40ANI     H2 1115   1.646   3.156   0.577 -0.0044 -0.1650  0.5823
   40ANI     H3 1116   1.667   3.142   0.753  1.6352 -0.5086 -0.0438
   40ANI     H4 1117   1.631   3.372   0.684 -0.4695 -1.2557 -0.9374
   40ANI     H5 1118   1.565   3.579   0.775 -0.7768  1.0441  0.4804
   40ANI     H6 1119   1.329   3.615   0.872 -1.8779  0.3458 -1.3913
   40ANI     H7 1120   1.189   3.410   0.905  0.5132 -1.4006  1.4663
   40ANI     H8 1121   1.250   3.194   0.778  1.8684 -0.6704  0.9633
   41ANI     C1 1122   0.083   3.154   3.627 -0.0319  0.4710 -0.4148
   41ANI     O1 1123  -0.011   3.053   3.588  0.2711 -0.0044 -0.4691
   41ANI     C2 1124  -0.087   2.986   3.684 -0.5634  0.5087 -0.1308
   41ANI     C3 1125  -0.059   2.996   3.820  0.1420 -0.0316  0.0136
   41ANI     C4 1126  -0.142   2.933   3.912 -0.6255 -0.2615 -0.5661
   41ANI     C5 1127  -0.257   2.866   3.875  0.2815  0.1173  0.6547
   41ANI     C6 1128  -0.279   2.845   3.737 -0.1332 -0.3007  0.5403
   41ANI     C7 1129  -0.197   2.911   3.641 -0.0703  0.4469  0.2919
   41ANI     H1 1130   0.045   3.247   3.673 -0.5945  0.2278 -0.3849
   41ANI     H2 1131   0.158   3.111   3.694 -0.4837 -0.2146 -0.3519
   41ANI     H3 1132   0.141   3.185   3.539  1.6379 -1.0228  0.1463
   41ANI     H4 1133   0.024   3.060   3.847  0.4519 -0.5474  0.3016
   41ANI     H5 1134  -0.121   2.939   4.018  2.3723 -0.0990 -1.1221
   41ANI     H6 1135  -0.324   2.824   3.950 -1.2136  1.4492  0.0937
   41ANI     H7 1136  -0.352   2.771   3.704  0.4071  0.2304 -1.9788
   41ANI     H8 1137  -0.209   2.880   3.537  3.2009  2.0763 -0.6398
   42ANI     C1 1138   1.772   0.113   2.318  0.6413 -0.3813  0.0021
   42ANI     O1 1139   1.833  -0.018   2.340  0.0724  0.1668 -0.3833
   42ANI     C2 1140   1.843  -0.071   2.471 -0.0387 -1.0091 -0.4819
   42ANI     C3 1141   1.811   0.003   2.592  0.1346  0.6937 -0.1102
   42ANI     C4 1142   1.815  -0.066   2.717 -0.4518 -0.2443  0.6801
   42ANI     C5 1143   1.855  -0.196   2.720 -0.6227 -0.1529 -0.2681
   42ANI     C6 1144   1.888  -0.265   2.603  0.0934 -0.0372 -0.5192
   42ANI     C7 1145   1.886  -0.205   2.483  0.5915  0.0064 -0.7057
   42ANI     H1 1146   1.832   0.197   2.356 -0.8854  1.0409 -0.6871
   42ANI     H2 1147   1.750   0.124   2.211 -3.0827 -2.0251  0.5339
   42ANI     H3 1148   1.671   0.104   2.359  1.2427 -0.6844  1.4511
   42ANI     H4 1149   1.790   0.109   2.585  1.7574  0.9073 -2.1351
   42ANI     H5 1150   1.801  -0.011   2.810  1.4381 -0.7291  1.2678
   42ANI     H6 1151   1.857  -0.244   2.817 -0.3349 -0.0374 -0.2169
   42ANI     H7 1152   1.919  -0.369   2.605 -0.3272 -0.3334 -4.5981
   42ANI     H8 1153   1.923  -0.263   2.400  4.0465  0.2059  0.6264
   43ANI     C1 1154   1.094   1.583   0.625 -0.2719  0.1249 -0.3918
   43ANI     O1 1155   1.217   1.511   0.598 -0.2750  1.2724  0.0504
   43ANI     C2 1156   1.215   1.372   0.588  0.5073 -0.2835  0.2485
   43ANI     C3 1157   1.091   1.295   0.604  0.0623  0.3565  0.3056
   43ANI     C4 1158   1.088   1.155   0.576  0.8793 -0.1268 -0.4020
   43ANI     C5 1159   1.205   1.096   0.530  0.1803 -0.0861 -0.1876
   43ANI     C6 1160   1.326   1.165   0.519 -0.3577 -0.5996 -0.0203
   43ANI     C7 1161   1.333   1.307   0.551 -0.1271 -0.0295  0.1796
   43ANI     H1 1162   1.033   1.572   0.534  2.3943  0.0876 -2.2322
   43ANI     H2 1163   1.041   1.549   0.715 -0.0264 -0.7231 -0.5645
   43ANI     H3 1164   1.116   1.689   0.643 -2.9882  1.1319 -2.5259
   43ANI     H4 1165   0.994   1.340   0.619 -0.8469 -1.8803  1.3341
   43ANI     H5 1166   0.992   1.106   0.582  0.6626  0.3154 -0.3012
   43ANI     H6 1167   1.197   0.992   0.502  3.7304 -0.5461  0.2386
   43ANI     H7 1168   1.417   1.115   0.487  0.1032 -0.4026  0.9573
   43ANI     H8 1169   1.427   1.360   0.560  0.2634 -0.8542  1.1395
   44ANI     C1 1170   0.316   0.073   0.144 -0.3013 -0.2967  0.5762
   44ANI     O1 1171   0.350  -0.024   0.046  0.5804 -0.1318 -0.2089
   44ANI     C2 1172   0.345  -0.164   0.072  0.2487  0.7999  0.3830
   44ANI     C3 1173   0.409  -0.247  -0.018  0.4808 -0.4118 -0.4667
   44ANI     C4 1174   0.394  -0.389   0.005 -0.3584  0.2256  0.0525
   44ANI     C5 1175   0.324  -0.436   0.116 -0.3204  0.4259  0.5849
   44ANI     C6 1176   0.257  -0.347   0.200  0.3969  0.5029  0.0547
   44ANI     C7 1177   0.274  -0.214   0.178 -0.8866  0.0760  0.1517
   44ANI     H1 1178   0.227   0.043   0.201 -1.2244 -1.0643 -1.2404
   44ANI     H2 1179   0.408   0.094   0.200 -1.0887 -0.1852  1.8608
   44ANI     H3 1180   0.291   0.161   0.084 -0.9286 -1.3575 -0.7465
   44ANI     H4 1181   0.457  -0.199  -0.103 -2.8073  1.3170 -1.4669
   44ANI     H5 1182   0.441  -0.455  -0.068  0.7811  2.0414 -0.8963
   44ANI     H6 1183   0.321  -0.541   0.145  2.1370  0.4692  1.0512
   44ANI     H7 1184   0.197  -0.399   0.274 -0.9112 -2.1484 -2.7356
   44ANI     H8 1185   0.221  -0.154   0.251 -0.5471  0.5556 -0.0013
   45ANI     C1 1186   2.224   3.362   2.735 -0.1337  0.5283  0.0731
   45ANI     O1 1187   2.319   3.462   2.701 -0.1091  0.0616 -0.5788
   45ANI     C2 1188   2.288   3.572   2.620 -0.1268  1.0293  0.7103
   45ANI     C3 1189   2.155   3.612   2.587  0.1204  0.0577  0.4008
   45ANI     C4 1190   2.137   3.735   2.521 -0.3399 -0.1589 -0.1728
   45ANI     C5 1191   2.246   3.814   2.485  0.6426  0.4985 -0.3212
   45ANI     C6 1192   2.369   3.774   2.519  0.0811  0.0195  0.2174
   45ANI     C7 1193   2.391   3.655   2.587 -0.4260 -0.5035 -0.1089
   45ANI     H1 1194   2.261   3.277   2.793 -0.7576 -0.1497 -0.5012
   45ANI     H2 1195   2.148   3.404   2.802  1.8769  2.2463  1.3387
   45ANI     H3 1196   2.170   3.320   2.649 -0.3502  2.6957 -0.8834
   45ANI     H4 1197   2.058   3.566   2.607 -1.8119  4.4916  2.0204
   45ANI     H5 1198   2.039   3.770   2.491  0.6589  1.5819 -1.4627
   45ANI     H6 1199   2.228   3.902   2.425 -0.9343  0.8685  0.6746
   45ANI     H7 1200   2.455   3.834   2.491  1.4964 -2.0545 -0.0785
   45ANI     H8 1201   2.492   3.634   2.621 -1.1056  0.8866  2.9114
   46ANI     C1 1202   2.345   1.297   0.256  0.0850 -0.2902  0.2606
   46ANI     O1 1203   2.311   1.314   0.403 -0.7043 -0.5465 -0.1140
   46ANI     C2 1204   2.214   1.238   0.469  0.3326  0.4343 -0.7771
   46ANI     C3 1205   2.128   1.150   0.401 -0.3463  0.1384 -0.2579
   46ANI     C4 1206   2.015   1.093   0.472 -0.3147 -0.3788 -0.1269
   46ANI     C5 1207   2.008   1.113   0.613  0.2882  0.2182 -0.3910
   46ANI     C6 1208   2.107   1.197   0.677  0.5127  0.4129  1.2229
   46ANI     C7 1209   2.202   1.265   0.604  0.2773  0.1679  0.4183
   46ANI     H1 1210   2.407   1.208   0.242  1.5790  0.6740  0.6831
   46ANI     H2 1211   2.256   1.280   0.194 -1.0035 -2.3370  2.2897
   46ANI     H3 1212   2.406   1.382   0.224  1.8007 -2.1216 -1.4886
   46ANI     H4 1213   2.136   1.132   0.294 -2.0040  1.5096 -0.6389
   46ANI     H5 1214   1.949   1.023   0.422  0.0269 -0.4305 -0.5073
   46ANI     H6 1215   1.940   1.062   0.680  0.1904 -0.0721 -0.7167
   46ANI     H7 1216   2.096   1.220   0.782 -2.4310  0.1127  1.0418
   46ANI     H8 1217   2.273   1.329   0.655  4.8428 -1.5118 -3.4068
   47ANI     C1 1218   0.734   1.158   3.099 -0.2721 -0.3270  0.1638
   47ANI     O1 1219   0.635   1.128   3.012  0.0974  0.6972  0.2230
   47ANI     C2 1220   0.630   1.174   2.879 -0.0219 -0.4935 -0.0075
   47ANI     C3 1221   0.534   1.123   2.794  0.4593  0.2846  0.3194
   47ANI     C4 1222   0.546   1.141   2.651 -0.5475  0.4317 -0.2446
   47ANI     C5 1223   0.638   1.231   2.601 -0.4819 -0.1490  0.2734
   47ANI     C6 1224   0.720   1.311   2.693 -1.0346 -0.5889  0.2602
   47ANI     C7 1225   0.725   1.269   2.829 -0.1240 -0.4216  0.5661
   47ANI     H1 1226   0.830   1.121   3.061  0.5175  0.4191  1.3909
   47ANI     H2 1227   0.740   1.265   3.120  0.8765 -0.4707  0.6124
   47ANI     H3 1228   0.727   1.107   3.196  1.6268  0.1696  0.5792
   47ANI     H4 1229   0.454   1.062   2.835  1.6479 -1.5129  0.0346
   47ANI     H5 1230   0.473   1.092   2.587  0.7241 -2.2023  0.2707
   47ANI     H6 1231   0.645   1.246   2.494 -2.3596 -0.7340  0.0488
   47ANI     H7 1232   0.790   1.390   2.668 -2.0003  0.7183  1.5802
   47ANI     H8 1233   0.799   1.309   2.899 -2.3967  1.9927  1.6627
   48ANI     C1 1234   1.125   1.197   3.128  0.9977 -0.0970 -0.2616
   48ANI     O1 1235   1.035   1.298   3.178  0.3137 -0.0023 -0.0037
   48ANI     C2 1236   1.076   1.427   3.196  0.0189  0.5691 -0.3514
   48ANI     C3 1237   0.996   1.514   3.270  0.0222 -0.4938  0.1483
   48ANI     C4 1238   1.044   1.637   3.306 -0.2708  0.2477 -0.2342
   48ANI     C5 1239   1.164   1.685   3.262 -0.6275  0.1985 -0.0673
   48ANI     C6 1240   1.243   1.610   3.180  0.8397 -0.3341  0.6319
   48ANI     C7 1241   1.206   1.475   3.149 -0.2277 -0.0731 -0.2162
   48ANI     H1 1242   1.131   1.219   3.021 -1.5193 -1.5149 -0.7256
   48ANI     H2 1243   1.220   1.193   3.184  0.0929 -0.4655  1.2952
   48ANI     H3 1244   1.084   1.098   3.152 -0.3140  1.1035  2.7828
   48ANI     H4 1245   0.895   1.491   3.301  0.0800  0.2273  0.9040
   48ANI     H5 1246   0.992   1.706   3.371  0.5966 -0.6373  1.4335
   48ANI     H6 1247   1.199   1.784   3.289 -0.4285 -0.0135  0.4505
   48ANI     H7 1248   1.334   1.652   3.137 -0.1216 -0.0575 -1.1961
   48ANI     H8 1249   1.266   1.412   3.084  1.6982 -0.1453  1.5763
   49ANI     C1 1250   1.027   0.902   0.926 -0.1620  0.6124  0.2087
   49ANI     O1 1251   1.084   0.970   1.040  0.0894  0.0124 -0.3681
   49ANI     C2 1252   1.085   1.102   1.068  0.7887 -0.1146  0.6074
   49ANI     C3 1253   1.146   1.143   1.188  0.3364  0.2306 -0.2062
   49ANI     C4 1254   1.133   1.277   1.224  0.0001 -0.8916  0.1045
   49ANI     C5 1255   1.069   1.370   1.140  0.1533  0.5266  0.1770
   49ANI     C6 1256   1.008   1.326   1.023 -0.2244 -0.9579 -0.0860
   49ANI     C7 1257   1.014   1.193   0.987  0.2832  0.3060 -1.1122
   49ANI     H1 1258   1.081   0.924   0.833  0.3401  1.6199  0.7330
   49ANI     H2 1259   1.022   0.793   0.931 -0.7595  0.6406  0.2178
   49ANI     H3 1260   0.921   0.927   0.915 -0.9236 -2.3545  0.4084
   49ANI     H4 1261   1.191   1.065   1.248 -2.5084 -2.3693 -1.2924
   49ANI     H5 1262   1.177   1.307   1.318  0.6836  1.5939 -0.9645
   49ANI     H6 1263   1.047   1.471   1.175 -2.9601  0.1075 -0.4578
   49ANI     H7 1264   0.956   1.396   0.958  0.3262  1.5114  2.0181
   49ANI     H8 1265   0.959   1.147   0.905  1.6658 -0.4329 -1.6566
   50ANI     C1 1266   2.453   0.072   3.622  0.4382  0.1939  0.4337
   50ANI     O1 1267   2.407   0.123   3.741 -0.1723  0.3233 -0.0231
   50ANI     C2 1268   2.338   0.055   3.833  0.2476 -0.5551 -0.5874
   50ANI     C3 1269   2.329  -0.084   3.847 -0.3016  0.7680  0.6306
   50ANI     C4 1270   2.253  -0.148   3.945  1.1222  0.1065 -0.3520
   50ANI     C5 1271   2.178  -0.067   4.030 -0.4150  0.5497 -0.3801
   50ANI     C6 1272   2.170   0.074   4.015  0.3330 -1.0078 -0.4130
   50ANI     C7 1273   2.248   0.134   3.911 -0.3319 -0.0729 -0.3540
   50ANI     H1 1274   2.376   0.002   3.589  1.2191 -0.3711 -0.2025
   50ANI     H2 1275   2.458   0.153   3.548 -0.4870  1.3606  1.6194
   50ANI     H3 1276   2.550   0.021   3.627 -1.1306 -2.7296  1.9848
   50ANI     H4 1277   2.383  -0.151   3.782 -1.3989 -1.3234  1.8338
   50ANI     H5 1278   2.260  -0.255   3.963 -1.5451 -0.0310  0.1392
   50ANI     H6 1279   2.123  -0.107   4.115 -4.1342  2.6122 -1.6793
   50ANI     H7 1280   2.112   0.146   4.073 -1.5046 -0.7936 -2.4077
   50ANI     H8 1281   2.253   0.240   3.891 -0.4032 -0.2756 -1.4634
   51ANI     C1 1282   0.095   2.267   3.459 -0.1182 -0.0622  0.4073
   51ANI     O1 1283   0.182   2.244   3.349  0.6417  0.3618 -0.0295
   51ANI     C2 1284   0.164   2.290   3.226 -0.4395 -0.4347 -0.2496
   51ANI     C3 1285   0.234   2.242   3.116 -0.2445 -0.2766 -0.1473
   51ANI     C4 1286   0.230   2.298   2.988  0.2633  0.1183 -0.3586
   51ANI     C5 1287   0.164   2.418   2.972  0.0493 -0.0178 -0.6954
   51ANI     C6 1288   0.084   2.467   3.077  1.1822 -0.4057 -0.4955
   51ANI     C7 1289   0.087   2.405   3.207 -0.0935  0.1790 -0.1843
   51ANI     H1 1290  -0.002   2.235   3.420  0.4850 -0.2532 -0.9590
   51ANI     H2 1291   0.122   2.207   3.547  0.1926  1.4091  1.3380
   51ANI     H3 1292   0.090   2.372   3.492  0.2027  0.3646 -0.9076
   51ANI     H4 1293   0.291   2.153   3.141  1.2855  0.5069 -0.7219
   51ANI     H5 1294   0.275   2.253   2.900 -3.0060  1.1579 -2.6725
   51ANI     H6 1295   0.167   2.465   2.874  0.1182  0.2805 -0.5500
   51ANI     H7 1296   0.028   2.558   3.063  2.1939 -0.1221 -3.0680
   51ANI     H8 1297   0.033   2.451   3.290 -0.2544 -0.4172  0.0464
   52ANI     C1 1298   0.348   0.398   3.619  0.1637 -0.1710 -0.7146
   52ANI     O1 1299   0.300   0.411   3.754  0.5212 -0.1355  0.0346
   52ANI     C2 1300   0.172   0.450   3.779 -0.1799  0.0237  0.1738
   52ANI     C3 1301   0.065   0.436   3.687  1.1027  0.0833  0.6161
   52ANI     C4 1302  -0.067   0.464   3.733  0.1087 -0.0322 -0.4691
   52ANI     C5 1303  -0.093   0.524   3.861  0.0661  0.5591  1.1123
   52ANI     C6 1304   0.015   0.544   3.955  0.4320  0.2739  0.4593
   52ANI     C7 1305   0.145   0.499   3.911  0.1515 -0.1819 -0.4749
   52ANI     H1 1306   0.288   0.326   3.562 -0.1437 -2.3628  2.2500
   52ANI     H2 1307   0.329   0.491   3.564 -2.1052 -1.1670 -1.6734
   52ANI     H3 1308   0.452   0.361   3.624  0.4369  0.8235  1.5282
   52ANI     H4 1309   0.078   0.384   3.593 -0.0846 -0.9716  1.0191
   52ANI     H5 1310  -0.147   0.423   3.672  0.7603 -0.1686 -1.2428
   52ANI     H6 1311  -0.195   0.551   3.890 -0.4288  1.4615 -1.3885
   52ANI     H7 1312   0.005   0.584   4.056  2.2870 -1.7341  1.4644
   52ANI     H8 1313   0.238   0.520   3.963  0.2063  0.3775 -0.7866
   53ANI     C1 1314   2.020   1.868   3.325  0.1558 -0.5486 -0.6737
   53ANI     O1 1315   1.989   1.990   3.263 -0.4395  0.1616  0.7520
   53ANI     C2 1316   2.046   2.034   3.144 -0.1869  0.5968 -0.2628
   53ANI     C3 1317   2.059   1.941   3.041 -0.0585  0.0959  0.2730
   53ANI     C4 1318   2.117   1.981   2.917 -0.1697  0.4090 -0.2784
   53ANI     C5 1319   2.152   2.117   2.900  0.1158  0.5994 -0.1906
   53ANI     C6 1320   2.139   2.207   3.008  0.4760  0.4834 -0.4205
   53ANI     C7 1321   2.089   2.166   3.132  0.2712 -0.4824 -0.1500
   53ANI     H1 1322   2.129   1.856   3.330 -0.0155 -1.1943  1.8522
   53ANI     H2 1323   1.985   1.866   3.429  0.8213  4.5489 -0.2126
   53ANI     H3 1324   1.982   1.784   3.265 -1.8844 -0.5554  0.5874
   53ANI     H4 1325   2.025   1.838   3.051 -1.3283  0.6178  1.3911
   53ANI     H5 1326   2.141   1.909   2.839  0.5099 -0.3085  0.5747
   53ANI     H6 1327   2.207   2.148   2.812  1.8078 -0.0876  0.6110
   53ANI     H7 1328   2.161   2.313   2.995  2.2385  0.2631  0.6575
   53ANI     H8 1329   2.082   2.239   3.213  0.7120  0.8862 -1.3238
   54ANI     C1 1330   1.633   0.646   2.864  0.3531  0.8259 -0.1019
   54ANI     O1 1331   1.687   0.509   2.854  1.0131  0.2945  0.1237
   54ANI     C2 1332   1.797   0.471   2.926  1.3119 -0.2327 -0.3720
   54ANI     C3 1333   1.824   0.541   3.050  0.4949  0.0361 -0.5912
   54ANI     C4 1334   1.938   0.503   3.116 -0.2808 -0.3231  0.5949
   54ANI     C5 1335   2.022   0.402   3.066 -0.3752  0.2802  0.0758
   54ANI     C6 1336   2.001   0.335   2.948  0.3570 -0.2948  0.0561
   54ANI     C7 1337   1.884   0.369   2.878  0.1657  0.9358 -0.4128
   54ANI     H1 1338   1.712   0.719   2.842  2.9958 -2.2302 -1.2697
   54ANI     H2 1339   1.563   0.647   2.779  3.3675 -0.5938 -2.7274
   54ANI     H3 1340   1.575   0.668   2.954 -0.3824 -0.7092 -0.1789
   54ANI     H4 1341   1.750   0.604   3.099  1.8804 -0.6895  2.5462
   54ANI     H5 1342   1.957   0.553   3.210 -1.7663 -0.8770  1.2144
   54ANI     H6 1343   2.118   0.378   3.112 -0.2197  1.4134  0.3676
   54ANI     H7 1344   2.073   0.262   2.913  2.1577  1.0675  0.8169
   54ANI     H8 1345   1.859   0.315   2.787  1.0770  1.7839 -1.1701
   55ANI     C1 1346   2.506   2.241   2.894 -0.5061 -0.0114  0.9031
   55ANI     O1 1347   2.615   2.261   2.979  0.1100  0.1544 -0.0336
   55ANI     C2 1348   2.706   2.363   2.956 -0.0748 -0.0666 -0.3985
   55ANI     C3 1349   2.744   2.408   2.830 -0.5374  0.7160  0.4222
   55ANI     C4 1350   2.837   2.513   2.823  0.0174 -0.6061  0.5125
   55ANI     C5 1351   2.875   2.581   2.935  1.1080  0.0711  0.1458
   55ANI     C6 1352   2.837   2.530   3.066  0.7018 -0.6488  0.1766
   55ANI     C7 1353   2.757   2.416   3.073  0.6232 -0.0626  0.2589
   55ANI     H1 1354   2.464   2.145   2.927  2.6688 -1.7555  0.0905
   55ANI     H2 1355   2.434   2.323   2.904  0.6476  0.9719  1.1842
   55ANI     H3 1356   2.546   2.233   2.792 -0.6881 -1.1767  0.9077
   55ANI     H4 1357   2.707   2.360   2.741  1.9063  0.0250 -0.2627
   55ANI     H5 1358   2.867   2.550   2.726 -0.8725 -0.9932  0.0859
   55ANI     H6 1359   2.938   2.669   2.928  0.2718  0.6191 -0.5514
   55ANI     H7 1360   2.868   2.587   3.153  0.6508 -0.1153 -0.1495
   55ANI     H8 1361   2.733   2.371   3.169  1.1049  0.4126  0.6070
   56ANI     C1 1362   2.907   0.176   3.105  0.6027 -0.5709  0.0171
   56ANI     O1 1363   2.906   0.038   3.148  0.1508  0.5407 -0.2163
   56ANI     C2 1364   2.941  -0.003   3.274 -0.1644  0.0693 -0.4243
   56ANI     C3 1365   2.912  -0.135   3.309 -1.0606 -0.6044 -0.4794
   56ANI     C4 1366   2.960  -0.196   3.427  0.0498 -0.3786  0.4034
   56ANI     C5 1367   3.039  -0.118   3.512  0.3207  0.4565  0.3982
   56ANI     C6 1368   3.062   0.023   3.486  0.1525 -0.6831 -0.0618
   56ANI     C7 1369   3.019   0.080   3.360 -0.0954  0.5657  0.0528
   56ANI     H1 1370   2.863   0.183   3.005  0.7998  1.0663  0.0178
   56ANI     H2 1371   2.855   0.238   3.179  4.2412  1.4053  1.0673
   56ANI     H3 1372   3.006   0.224   3.100 -0.5594  1.7629 -1.9584
   56ANI     H4 1373   2.860  -0.194   3.235  1.3099 -1.9454 -1.1231
   56ANI     H5 1374   2.930  -0.296   3.455 -0.8422  0.1063  1.2244
   56ANI     H6 1375   3.081  -0.172   3.596 -2.6503  2.8345  3.5702
   56ANI     H7 1376   3.105   0.087   3.563  1.0614 -1.8984  0.4475
   56ANI     H8 1377   3.030   0.187   3.344 -1.5170  0.4521 -1.8075
   57ANI     C1 1378   0.720   0.395   3.293 -0.5597 -0.4360 -0.0754
   57ANI     O1 1379   0.658   0.308   3.390 -0.0059 -0.6482  0.1152
   57ANI     C2 1380   0.715   0.279   3.518  0.9181  0.6675 -0.5545
   57ANI     C3 1381   0.821   0.349   3.581  0.1674  0.0360 -0.3439
   57ANI     C4 1382   0.882   0.296   3.697 -0.3053 -0.4011  1.2835
   57ANI     C5 1383   0.826   0.182   3.756  0.5632 -0.1398  0.1485
   57ANI     C6 1384   0.708   0.130   3.709  0.0550  0.0709  0.4085
   57ANI     C7 1385   0.659   0.165   3.589  0.0733 -0.4741  0.1213
   57ANI     H1 1386   0.825   0.366   3.287 -1.1679 -2.6804 -0.4448
   57ANI     H2 1387   0.664   0.380   3.200  2.5598  0.1779 -2.0984
   57ANI     H3 1388   0.707   0.501   3.318 -0.0497 -0.7125  1.4112
   57ANI     H4 1389   0.865   0.433   3.527  0.2400 -0.2435 -0.7270
   57ANI     H5 1390   0.973   0.340   3.736  0.0937  0.1890 -0.2447
   57ANI     H6 1391   0.874   0.143   3.845  1.0602 -1.4446 -0.6631
   57ANI     H7 1392   0.664   0.047   3.762  0.0720 -1.0962 -1.3657
   57ANI     H8 1393   0.581   0.103   3.545  0.8652 -1.9084  0.7451
   58ANI     C1 1394   1.947   2.248   0.956  0.0835  0.4817  0.1860
   58ANI     O1 1395   2.067   2.209   0.890  0.3334 -0.2635  0.0189
   58ANI     C2 1396   2.095   2.241   0.754 -0.4835  0.4015 -0.1633
   58ANI     C3 1397   2.215   2.186   0.703 -0.2037 -0.4951 -0.1999
   58ANI     C4 1398   2.242   2.195   0.569 -0.0394  1.0849 -0.1470
   58ANI     C5 1399   2.148   2.258   0.484 -0.1577 -0.1114 -0.1717
   58ANI     C6 1400   2.032   2.318   0.542 -0.2143 -0.3006  0.2910
   58ANI     C7 1401   2.004   2.312   0.678  0.2377 -0.1971  0.6081
   58ANI     H1 1402   1.858   2.192   0.924 -0.0523  0.7185  0.1496
   58ANI     H2 1403   1.941   2.244   1.065 -0.6435 -3.0694  0.0898
   58ANI     H3 1404   1.931   2.352   0.928  0.5900  0.7927  1.0359
   58ANI     H4 1405   2.284   2.133   0.768  1.6158  1.2654 -0.6383
   58ANI     H5 1406   2.334   2.154   0.529 -1.1001 -0.7210 -0.8154
   58ANI     H6 1407   2.156   2.256   0.375  2.4261  0.6564 -0.0187
   58ANI     H7 1408   1.954   2.362   0.481 -1.6784 -1.3248  1.3736
   58ANI     H8 1409   1.911   2.354   0.716 -0.4803 -0.0035 -1.3173
   59ANI     C1 1410   3.070   1.297   1.067  0.4671  0.2848 -0.1672
   59ANI     O1 1411   3.103   1.336   1.206  0.2706  0.2905 -0.7181
   59ANI     C2 1412   3.132   1.234   1.300 -0.8075  0.7276  0.0174
   59ANI     C3 1413   3.111   1.097   1.287  0.2031  0.5241  0.2111
   59ANI     C4 1414   3.169   0.998   1.372 -0.7235 -1.2212 -0.2535
   59ANI     C5 1415   3.242   1.044   1.485 -0.1362  0.1217  0.2303
   59ANI     C6 1416   3.263   1.186   1.496 -0.3544 -0.2635 -0.5784
   59ANI     C7 1417   3.206   1.283   1.412 -0.1385 -0.8536  0.2666
   59ANI     H1 1418   2.998   1.214   1.070 -0.2236  0.8504 -0.6357
   59ANI     H2 1419   3.022   1.373   1.003  0.0230  2.1972  2.3675
   59ANI     H3 1420   3.157   1.251   1.020  0.4873 -0.9206  1.0186
   59ANI     H4 1421   3.054   1.052   1.208  1.9014  1.2044 -1.4492
   59ANI     H5 1422   3.155   0.890   1.364  0.8626 -1.3570 -1.5267
   59ANI     H6 1423   3.278   0.971   1.557 -0.5384 -0.9413 -0.6261
   59ANI     H7 1424   3.329   1.220   1.575 -1.8160  3.2240 -0.7526
   59ANI     H8 1425   3.233   1.388   1.416  2.6715 -1.5271 -0.3732
   60ANI     C1 1426   0.009   0.900   0.603  0.0867  0.4085 -0.3150
   60ANI     O1 1427   0.063   0.769   0.624  0.3641 -0.2257  0.1436
   60ANI     C2 1428   0.196   0.740   0.589 -0.5770  1.1511  0.8364
   60ANI     C3 1429   0.270   0.836   0.515 -0.1001 -0.1262 -0.5716
   60ANI     C4 1430   0.401   0.803   0.468 -0.7055 -0.4802  0.1502
   60ANI     C5 1431   0.449   0.670   0.492 -0.4681 -0.4004 -0.2905
   60ANI     C6 1432   0.380   0.583   0.573  0.1925 -0.0301 -0.3161
   60ANI     C7 1433   0.252   0.617   0.624 -0.1547  0.5306  1.0625
   60ANI     H1 1434   0.071   0.975   0.654 -1.4839 -0.6725  3.3134
   60ANI     H2 1435   0.017   0.922   0.496 -0.1802 -1.5621 -0.7567
   60ANI     H3 1436  -0.097   0.899   0.630 -0.6137  2.5394 -2.8224
   60ANI     H4 1437   0.234   0.936   0.494  0.8200 -0.0704 -1.9276
   60ANI     H5 1438   0.456   0.884   0.421 -1.5521  1.5744  2.6073
   60ANI     H6 1439   0.549   0.657   0.452  0.2594  1.3979  0.8559
   60ANI     H7 1440   0.425   0.488   0.602  0.3599  0.0310 -0.3737
   60ANI     H8 1441   0.192   0.540   0.673 -1.8093  0.8454 -0.4234
   61ANI     C1 1442   0.223   2.000   0.058 -0.1575  0.6509 -0.7910
   61ANI     O1 1443   0.268   2.081  -0.054 -0.3058 -0.0785  0.0520
   61ANI     C2 1444   0.404   2.080  -0.100 -0.1902 -0.5610  0.3505
   61ANI     C3 1445   0.497   2.004  -0.033 -0.0088  0.3767 -0.0846
   61ANI     C4 1446   0.630   2.016  -0.074 -0.8809  0.8324  0.5081
   61ANI     C5 1447   0.675   2.094  -0.178 -0.1101  0.4780 -0.1934
   61ANI     C6 1448   0.578   2.172  -0.243  0.3141 -0.5391 -0.0717
   61ANI     C7 1449   0.441   2.159  -0.215 -0.2610  0.5083 -0.9152
   61ANI     H1 1450   0.216   1.892   0.039 -0.6303  0.4154  0.6231
   61ANI     H2 1451   0.288   2.013   0.145 -1.6988 -0.3496  0.5323
   61ANI     H3 1452   0.124   2.033   0.092 -0.4779 -2.3019  1.3611
   61ANI     H4 1453   0.467   1.943   0.052 -0.6827  0.6868 -0.0979
   61ANI     H5 1454   0.705   1.954  -0.026 -1.2852 -0.0695 -0.0202
   61ANI     H6 1455   0.775   2.088  -0.219  0.3981  0.1088  1.1140
   61ANI     H7 1456   0.606   2.226  -0.332 -1.7400 -1.1152 -1.1002
   61ANI     H8 1457   0.370   2.209  -0.280  0.1799  0.5605 -1.3636
   62ANI     C1 1458   0.608   1.853   1.041 -0.1634 -0.3724 -0.6892
   62ANI     O1 1459   0.723   1.770   1.031 -0.3701 -0.8235  0.4038
   62ANI     C2 1460   0.845   1.807   0.972 -0.5024 -0.4644 -0.1426
   62ANI     C3 1461   0.865   1.933   0.917 -0.5489 -0.4530 -0.2125
   62ANI     C4 1462   0.991   1.961   0.855 -0.4718 -0.0534  0.4588
   62ANI     C5 1463   1.094   1.866   0.864 -0.4519  0.1128  0.9298
   62ANI     C6 1464   1.072   1.737   0.917 -0.1030  0.2703  0.3019
   62ANI     C7 1465   0.945   1.712   0.967  0.0158  0.3932  1.0481
   62ANI     H1 1466   0.633   1.960   1.050 -2.4236  0.0682  0.6719
   62ANI     H2 1467   0.534   1.838   0.961 -1.1803 -1.3454  0.4158
   62ANI     H3 1468   0.555   1.818   1.130 -1.7235  1.2122 -0.9711
   62ANI     H4 1469   0.790   2.012   0.916  1.6664  1.7722  1.2215
   62ANI     H5 1470   1.000   2.064   0.822 -1.2709 -0.2745 -0.4757
   62ANI     H6 1471   1.191   1.892   0.824 -0.5643 -1.5057 -0.4471
   62ANI     H7 1472   1.147   1.658   0.918  0.1153  0.4382 -1.6581
   62ANI     H8 1473   0.924   1.612   1.004  1.3171 -0.6427 -0.8835
   63ANI     C1 1474   2.195   0.201   3.375  0.1087  0.4593 -0.7617
   63ANI     O1 1475   2.186   0.312   3.462 -0.0245 -0.6681  1.0672
   63ANI     C2 1476   2.286   0.411   3.470 -0.0884 -0.2390 -0.2263
   63ANI     C3 1477   2.376   0.439   3.370  0.0712  0.5192  0.3460
   63ANI     C4 1478   2.486   0.525   3.397 -0.5190  0.1406  0.0629
   63ANI     C5 1479   2.501   0.587   3.529 -0.1667  1.0670  0.4716
   63ANI     C6 1480   2.413   0.556   3.630 -0.6152 -0.0756  0.3028
   63ANI     C7 1481   2.304   0.469   3.599  0.2450  0.2867 -0.2949
   63ANI     H1 1482   2.248   0.117   3.422  0.2160  1.3172  0.6854
   63ANI     H2 1483   2.096   0.161   3.354  0.6465 -1.2475 -0.1578
   63ANI     H3 1484   2.231   0.223   3.274 -0.8421  1.1567 -0.9489
   63ANI     H4 1485   2.362   0.395   3.272  1.9455  1.4091 -0.3416
   63ANI     H5 1486   2.562   0.549   3.324 -0.0052  1.6065  1.0537
   63ANI     H6 1487   2.594   0.637   3.555 -0.6031  2.3524 -0.3925
   63ANI     H7 1488   2.423   0.602   3.728 -1.0019  3.0020 -1.0478
   63ANI     H8 1489   2.231   0.442   3.675  0.0741 -0.1616 -0.6148
   64ANI     C1 1490   1.634   2.923   2.723 -0.0771  0.3953  0.7424
   64ANI     O1 1491   1.557   2.947   2.839 -0.3569 -0.3250  0.7252
   64ANI     C2 1492   1.460   2.855   2.881  0.1432  0.4030 -0.0432
   64ANI     C3 1493   1.438   2.736   2.811  0.1862  0.0553 -0.6526
   64ANI     C4 1494   1.347   2.645   2.853  0.9657  0.4228 -0.5864
   64ANI     C5 1495   1.271   2.682   2.966 -0.2037 -0.2953  0.3443
   64ANI     C6 1496   1.290   2.796   3.036 -0.2621  0.8948 -0.1821
   64ANI     C7 1497   1.386   2.893   2.991  0.9601 -0.8403  0.3450
   64ANI     H1 1498   1.697   3.009   2.696  0.9342 -0.3357  0.7687
   64ANI     H2 1499   1.693   2.832   2.734 -1.9187 -1.2890 -2.5280
   64ANI     H3 1500   1.575   2.913   2.632 -3.0409 -0.5013  2.6875
   64ANI     H4 1501   1.494   2.709   2.722  0.1632 -2.8262  0.1605
   64ANI     H5 1502   1.314   2.556   2.801 -1.5337  0.0011  1.6032
   64ANI     H6 1503   1.190   2.619   3.001 -0.7541 -0.7579 -1.6839
   64ANI     H7 1504   1.220   2.826   3.114  0.3696  2.1801 -0.0906
   64ANI     H8 1505   1.409   2.986   3.042  0.6471 -2.0090  2.7076
   65ANI     C1 1506   2.706   3.297   1.282 -0.2871  0.0656  0.3123
   65ANI     O1 1507   2.847   3.326   1.249  0.4741 -0.4034 -0.1054
   65ANI     C2 1508   2.887   3.381   1.131 -0.3772 -0.5808  0.6545
   65ANI     C3 1509   2.797   3.437   1.040 -0.0212  0.2325 -1.0693
   65ANI     C4 1510   2.839   3.511   0.929 -0.3439 -0.4384 -0.2718
   65ANI     C5 1511   2.981   3.518   0.903 -0.0563  0.1180 -0.0219
   65ANI     C6 1512   3.073   3.453   0.986  0.1711  0.0634 -0.0432
   65ANI     C7 1513   3.025   3.386   1.100 -0.2816 -0.1799  0.1815
   65ANI     H1 1514   2.658   3.236   1.205 -1.1148 -0.7606  1.4666
   65ANI     H2 1515   2.694   3.247   1.379 -1.8697 -0.4430 -0.1261
   65ANI     H3 1516   2.653   3.391   1.301 -0.3498 -0.0822  0.8741
   65ANI     H4 1517   2.689   3.443   1.048 -0.0177 -1.1784  0.2923
   65ANI     H5 1518   2.772   3.566   0.864 -1.2084 -1.3972 -0.2070
   65ANI     H6 1519   3.026   3.576   0.823 -0.9688 -2.9226 -2.8212
   65ANI     H7 1520   3.179   3.447   0.963 -0.3705 -0.0286 -2.6035
   65ANI     H8 1521   3.097   3.344   1.169 -0.8283 -0.2682  0.7033
   66ANI     C1 1522   1.361   0.822   3.027  0.2380  0.1291  0.7989
   66ANI     O1 1523   1.256   0.909   2.987 -0.0984 -0.1075  0.4140
   66ANI     C2 1524   1.199   0.895   2.856 -0.2269 -0.0815  0.1723
   66ANI     C3 1525   1.093   0.975   2.829 -0.2996  0.3517  0.7748
   66ANI     C4 1526   1.028   0.983   2.706 -0.6181  0.1165  0.0042
   66ANI     C5 1527   1.077   0.904   2.601 -0.3549  0.1479 -0.1407
   66ANI     C6 1528   1.190   0.812   2.629 -0.7485 -0.2461  0.1352
   66ANI     C7 1529   1.254   0.813   2.755 -0.0922  0.5519 -0.0881
   66ANI     H1 1530   1.398   0.838   3.129 -2.2375 -1.3994  1.9851
   66ANI     H2 1531   1.319   0.721   3.026  0.6548 -0.0395 -0.5327
   66ANI     H3 1532   1.436   0.828   2.948 -0.2879 -1.4354  0.1766
   66ANI     H4 1533   1.069   1.045   2.909 -0.0677 -1.3573  2.3902
   66ANI     H5 1534   0.960   1.063   2.678  0.7929  0.8675 -1.3346
   66ANI     H6 1535   1.026   0.907   2.504 -1.0545 -1.3946  0.1559
   66ANI     H7 1536   1.235   0.751   2.550  0.3476  0.6785  0.0284
   66ANI     H8 1537   1.337   0.746   2.775  1.9552  2.7722 -0.9589
   67ANI     C1 1538   2.052   1.852   1.546  0.2582 -0.6694 -0.0564
   67ANI     O1 1539   1.913   1.870   1.564 -0.0826 -0.1416 -0.1338
   67ANI     C2 1540   1.858   1.992   1.564  0.9355  0.6951 -0.0237
   67ANI     C3 1541   1.722   2.002   1.586 -0.3914 -0.1853  1.0017
   67ANI     C4 1542   1.660   2.127   1.588  0.2650  0.0732 -0.5595
   67ANI     C5 1543   1.743   2.242   1.570 -0.7111  1.0862  0.8327
   67ANI     C6 1544   1.882   2.236   1.548  0.5284  0.6243  0.7373
   67ANI     C7 1545   1.936   2.102   1.538  0.4322  0.4958 -0.2357
   67ANI     H1 1546   2.102   1.898   1.460 -0.8102  0.4396 -0.0916
   67ANI     H2 1547   2.100   1.894   1.636 -1.2165  1.8120 -0.3971
   67ANI     H3 1548   2.059   1.742   1.544 -1.7537 -0.8024 -1.1963
   67ANI     H4 1549   1.664   1.923   1.632  0.4271 -0.7485  1.0860
   67ANI     H5 1550   1.553   2.139   1.605  0.2600  0.0579 -0.5796
   67ANI     H6 1551   1.696   2.340   1.569 -0.6516  1.1187 -1.4615
   67ANI     H7 1552   1.948   2.322   1.537 -0.7879  1.3538 -1.8440
   67ANI     H8 1553   2.043   2.099   1.519  1.0307  2.4159  2.5000
   68ANI     C1 1554   0.567   0.693   2.648 -0.6799 -0.2620 -0.2102
   68ANI     O1 1555   0.705   0.669   2.628  0.3551 -0.0452  0.6631
   68ANI     C2 1556   0.762   0.638   2.511 -0.5105  0.8872 -0.2512
   68ANI     C3 1557   0.688   0.610   2.398 -0.1986 -0.4154 -0.7143
   68ANI     C4 1558   0.754   0.586   2.275  0.2183 -0.8122  0.2471
   68ANI     C5 1559   0.895   0.601   2.266  0.3805 -0.3304 -0.6664
   68ANI     C6 1560   0.973   0.629   2.383  0.3386 -0.6703  0.2160
   68ANI     C7 1561   0.902   0.641   2.504  0.5919 -0.9199 -0.0529
   68ANI     H1 1562   0.520   0.758   2.574 -0.5149 -1.7851 -1.7018
   68ANI     H2 1563   0.515   0.597   2.659 -0.4485 -0.0997  2.5161
   68ANI     H3 1564   0.548   0.733   2.748 -1.7965  0.3440 -0.6605
   68ANI     H4 1565   0.580   0.619   2.401 -0.1700 -0.2590 -0.1056
   68ANI     H5 1566   0.706   0.573   2.178 -1.1802 -2.2490  1.1097
   68ANI     H6 1567   0.943   0.597   2.169  0.2892 -0.4806 -0.7046
   68ANI     H7 1568   1.079   0.651   2.391  0.3539 -0.8606  0.5615
   68ANI     H8 1569   0.956   0.665   2.596  0.1455  0.3765 -0.1134
   69ANI     C1 1570   0.588   0.363   2.875  0.0361 -0.0840 -0.6358
   69ANI     O1 1571   0.521   0.346   2.752 -0.2150  0.1534 -0.0819
   69ANI     C2 1572   0.390   0.298   2.737 -0.1290 -0.5708  0.1200
   69ANI     C3 1573   0.353   0.266   2.602  0.4233  0.1593 -0.1182
   69ANI     C4 1574   0.222   0.232   2.571 -0.1486  0.2139  0.6256
   69ANI     C5 1575   0.134   0.202   2.678 -0.0583  0.7413 -0.5784
   69ANI     C6 1576   0.171   0.217   2.813 -1.1717 -0.0175  0.0795
   69ANI     C7 1577   0.304   0.258   2.843 -0.3258 -0.2012  0.0662
   69ANI     H1 1578   0.691   0.396   2.857  0.7212 -0.7250  1.8517
   69ANI     H2 1579   0.536   0.441   2.932  0.6047  0.6198 -1.0717
   69ANI     H3 1580   0.600   0.268   2.929 -0.4248  1.0661  1.5664
   69ANI     H4 1581   0.425   0.282   2.522 -0.6837 -0.7752 -1.3301
   69ANI     H5 1582   0.193   0.205   2.470 -0.8139 -0.5652  1.0167
   69ANI     H6 1583   0.033   0.172   2.652  0.2897 -0.6262 -0.3709
   69ANI     H7 1584   0.093   0.202   2.887 -3.6163 -1.3746 -2.6762
   69ANI     H8 1585   0.341   0.277   2.944  0.7481  0.9147 -0.5160
   70ANI     C1 1586   3.397   2.106   2.640 -0.4564  0.1795 -0.1796
   70ANI     O1 1587   3.517   2.077   2.712 -0.3545 -0.0585  0.2797
   70ANI     C2 1588   3.546   1.951   2.760  0.2801 -0.3335  0.7362
   70ANI     C3 1589   3.457   1.837   2.745  0.0402  0.6961  0.1026
   70ANI     C4 1590   3.485   1.714   2.809 -0.3722  0.1625  0.6531
   70ANI     C5 1591   3.589   1.706   2.906  0.5212  0.9674 -0.3309
   70ANI     C6 1592   3.669   1.821   2.926 -0.4231  0.2366  0.5533
   70ANI     C7 1593   3.649   1.940   2.857  0.8594  0.4345  0.1515
   70ANI     H1 1594   3.319   2.103   2.717 -0.6144  1.8822 -0.2463
   70ANI     H2 1595   3.398   2.209   2.602  3.5182  0.2465 -0.1667
   70ANI     H3 1596   3.377   2.051   2.548 -1.6999  4.6385 -2.7514
   70ANI     H4 1597   3.380   1.836   2.668  1.0941  2.3221 -0.9952
   70ANI     H5 1598   3.419   1.629   2.793 -2.2462  1.2768  2.1397
   70ANI     H6 1599   3.602   1.617   2.967 -0.6501  1.0178  0.0081
   70ANI     H7 1600   3.746   1.811   3.002 -1.3232 -2.5953  1.1799
   70ANI     H8 1601   3.700   2.033   2.882 -0.0792  2.0614 -3.5901
   71ANI     C1 1602   3.301   1.281   2.649  0.2693 -0.0608 -0.0639
   71ANI     O1 1603   3.334   1.340   2.772  0.5319  0.4129 -0.0336
   71ANI     C2 1604   3.243   1.368   2.874  0.1063 -0.4211 -0.3316
   71ANI     C3 1605   3.108   1.362   2.840 -0.2451  0.6541  0.0446
   71ANI     C4 1606   3.019   1.389   2.942 -0.7791 -0.3967  0.1310
   71ANI     C5 1607   3.057   1.428   3.064  0.0766 -0.0782 -0.6141
   71ANI     C6 1608   3.193   1.447   3.100  0.6862  0.2394  0.0461
   71ANI     C7 1609   3.291   1.418   2.999 -0.1233 -0.0719  0.8298
   71ANI     H1 1610   3.251   1.184   2.663 -0.6318  0.5945  1.4082
   71ANI     H2 1611   3.246   1.351   2.584  0.9439 -0.6246 -1.2650
   71ANI     H3 1612   3.389   1.250   2.591  0.8502 -0.3732  0.9734
   71ANI     H4 1613   3.076   1.327   2.743 -3.1561 -0.0309  1.1789
   71ANI     H5 1614   2.911   1.378   2.931 -0.7937 -0.6630  0.5314
   71ANI     H6 1615   2.984   1.450   3.142  2.8889 -1.8122  2.6237
   71ANI     H7 1616   3.220   1.497   3.192  0.1451  1.7609 -0.5985
   71ANI     H8 1617   3.396   1.440   3.014  0.0331 -0.1534 -0.1160
   72ANI     C1 1618   2.599   2.807   3.250  0.3232 -0.8559  0.2392
   72ANI     O1 1619   2.601   2.924   3.160 -0.0766  0.1845 -0.0193
   72ANI     C2 1620   2.727   2.988   3.131  0.2429 -0.2029 -0.3172
   72ANI     C3 1621   2.845   2.930   3.163  0.0547 -0.1679 -0.6698
   72ANI     C4 1622   2.964   2.985   3.114 -0.8352  0.3857  0.3092
   72ANI     C5 1623   2.961   3.102   3.033  0.2485  0.0754 -0.5103
   72ANI     C6 1624   2.840   3.160   3.000  0.8614 -0.1742 -0.8522
   72ANI     C7 1625   2.719   3.106   3.055 -0.0882  1.2848 -0.5890
   72ANI     H1 1626   2.666   2.724   3.223  1.0830 -0.0450 -0.4249
   72ANI     H2 1627   2.624   2.840   3.351  2.5680 -2.7620  0.3522
   72ANI     H3 1628   2.496   2.772   3.257 -0.2344  0.7112 -0.0196
   72ANI     H4 1629   2.852   2.835   3.215 -1.7756  1.4223  2.6288
   72ANI     H5 1630   3.060   2.938   3.137 -1.2297  0.2322  1.6595
   72ANI     H6 1631   3.055   3.137   2.990  2.2009 -0.7126  2.9343
   72ANI     H7 1632   2.840   3.247   2.935  0.0277 -1.4465 -2.5890
   72ANI     H8 1633   2.626   3.158   3.034  0.8534  3.6059  0.7595
   73ANI     C1 1634   0.493   0.146   1.540  0.1669  0.3367  0.0104
   73ANI     O1 1635   0.580   0.028   1.536  0.4472 -0.3410 -0.2602
   73ANI     C2 1636   0.714   0.027   1.562 -0.6773  0.6949 -0.4032
   73ANI     C3 1637   0.801   0.129   1.587  0.6115 -0.1126  0.1713
   73ANI     C4 1638   0.941   0.110   1.603  0.5704  0.8104 -0.1717
   73ANI     C5 1639   0.995  -0.022   1.588 -0.5112  0.0581  0.1305
   73ANI     C6 1640   0.908  -0.129   1.573  0.0338 -0.3357 -0.3219
   73ANI     C7 1641   0.769  -0.103   1.559  0.1500 -0.5519 -0.5903
   73ANI     H1 1642   0.397   0.132   1.591  0.4260  1.7727  0.9113
   73ANI     H2 1643   0.533   0.236   1.588 -0.4157  0.2651  0.6284
   73ANI     H3 1644   0.474   0.185   1.440  0.5061 -0.1964 -0.2692
   73ANI     H4 1645   0.768   0.232   1.596 -0.9751 -0.5666 -0.2824
   73ANI     H5 1646   1.012   0.189   1.625  0.7636  0.0775  1.8658
   73ANI     H6 1647   1.102  -0.042   1.583 -0.8231 -1.7801  0.3225
   73ANI     H7 1648   0.942  -0.230   1.555 -1.9820 -0.9833 -0.5255
   73ANI     H8 1649   0.702  -0.181   1.524  1.7625 -1.5852 -1.4376
   74ANI     C1 1650   0.430   1.165   3.478 -0.1881  0.0741  0.1543
   74ANI     O1 1651   0.531   1.077   3.534  0.2756 -0.4082  0.0197
   74ANI     C2 1652   0.666   1.098   3.509 -0.2189 -0.1514 -0.3317
   74ANI     C3 1653   0.743   0.983   3.491 -0.5447 -0.1334 -0.0631
   74ANI     C4 1654   0.880   0.986   3.467 -0.2781 -0.3172  0.5578
   74ANI     C5 1655   0.945   1.115   3.461 -0.6518 -0.0003  0.3416
   74ANI     C6 1656   0.870   1.230   3.481  1.2541  0.2981 -1.0155
   74ANI     C7 1657   0.732   1.223   3.499  0.0959 -0.5492  0.0464
   74ANI     H1 1658   0.428   1.162   3.369 -0.1827 -1.6317  0.1839
   74ANI     H2 1659   0.338   1.127   3.524  0.0212  0.4879  0.9391
   74ANI     H3 1660   0.449   1.269   3.510  0.3861  0.6694 -2.0771
   74ANI     H4 1661   0.697   0.885   3.488  0.6586 -0.7963  2.6598
   74ANI     H5 1662   0.933   0.893   3.448 -2.8941 -1.4655 -1.3879
   74ANI     H6 1663   1.053   1.122   3.450 -0.9873  2.2829 -2.3372
   74ANI     H7 1664   0.925   1.322   3.463  0.4212  1.5871  2.5896
   74ANI     H8 1665   0.676   1.316   3.504  2.4521  0.9498 -0.3899
   75ANI     C1 1666   0.689   2.317   2.255 -0.1650 -0.3960  0.2862
   75ANI     O1 1667   0.706   2.176   2.209  0.2558  0.2691 -0.0431
   75ANI     C2 1668   0.651   2.073   2.276 -0.3333  0.8584 -0.0611
   75ANI     C3 1669   0.559   2.072   2.383  0.0079 -0.3029 -0.4346
   75ANI     C4 1670   0.512   1.951   2.433  0.1737  0.7864 -0.1207
   75ANI     C5 1671   0.561   1.832   2.388  0.0065  0.0772  0.6249
   75ANI     C6 1672   0.654   1.836   2.283  0.7959 -0.2323 -0.8686
   75ANI     C7 1673   0.698   1.951   2.230  0.4731  0.1723  0.7533
   75ANI     H1 1674   0.722   2.327   2.359  0.4763 -1.9117  0.2510
   75ANI     H2 1675   0.747   2.388   2.195 -2.5620  0.2552 -1.3355
   75ANI     H3 1676   0.583   2.339   2.236 -0.8496 -4.0268 -0.5714
   75ANI     H4 1677   0.527   2.169   2.421  3.1222  0.5309  0.1882
   75ANI     H5 1678   0.440   1.948   2.515 -0.0892  1.1280 -0.3372
   75ANI     H6 1679   0.530   1.736   2.429  1.8945 -0.3671  1.0274
   75ANI     H7 1680   0.687   1.741   2.244 -2.6017 -2.3487  1.1508
   75ANI     H8 1681   0.762   1.930   2.145 -1.7526 -0.2369 -0.8777
   76ANI     C1 1682   2.567   0.361   2.861  0.2236  0.0518 -0.5654
   76ANI     O1 1683   2.579   0.326   3.000 -0.5592 -0.1032 -0.1969
   76ANI     C2 1684   2.534   0.202   3.042 -0.0925  0.0925 -0.4749
   76ANI     C3 1685   2.570   0.170   3.176  0.1830 -0.4569  0.2788
   76ANI     C4 1686   2.554   0.042   3.231 -0.2864  0.4440  0.0952
   76ANI     C5 1687   2.486  -0.059   3.149  0.6246 -0.1843  0.5828
   76ANI     C6 1688   2.449  -0.028   3.022 -0.5139  0.2793  0.3777
   76ANI     C7 1689   2.467   0.102   2.970 -0.3409 -0.2564 -0.2613
   76ANI     H1 1690   2.464   0.364   2.824  0.5225 -0.1988 -1.4280
   76ANI     H2 1691   2.612   0.458   2.835  0.9247  0.1253  0.8328
   76ANI     H3 1692   2.610   0.282   2.797  1.9128 -0.5889  1.2902
   76ANI     H4 1693   2.619   0.245   3.237  1.1458 -0.2928 -0.6661
   76ANI     H5 1694   2.596   0.022   3.329 -0.4788  1.1384  0.3264
   76ANI     H6 1695   2.470  -0.157   3.192  2.9287 -1.0877 -0.5575
   76ANI     H7 1696   2.394  -0.105   2.968  2.3332  1.0008 -3.7729
   76ANI     H8 1697   2.447   0.126   2.866  0.0577  1.7013  0.0988
   77ANI     C1 1698   1.654   3.350   1.334  0.0488 -0.0399 -1.1594
   77ANI     O1 1699   1.563   3.349   1.446 -0.1060  0.5474 -0.4329
   77ANI     C2 1700   1.437   3.295   1.426 -0.4318  0.1739 -0.4780
   77ANI     C3 1701   1.369   3.242   1.540 -0.6502 -0.4589  0.1124
   77ANI     C4 1702   1.252   3.163   1.528  0.0324 -0.3114  0.2556
   77ANI     C5 1703   1.198   3.144   1.396 -0.2914 -0.2785 -0.3467
   77ANI     C6 1704   1.262   3.207   1.284  0.0256  0.4626  0.1784
   77ANI     C7 1705   1.389   3.263   1.297 -0.0031 -0.6225 -0.4408
   77ANI     H1 1706   1.609   3.415   1.258 -1.5431  0.7949  0.4497
   77ANI     H2 1707   1.756   3.383   1.357 -0.0196 -0.9392  0.5205
   77ANI     H3 1708   1.662   3.246   1.299  0.9498 -0.5634  0.5204
   77ANI     H4 1709   1.416   3.244   1.638  0.3506  0.5687 -0.3795
   77ANI     H5 1710   1.208   3.125   1.620  1.5041  3.3416  2.6063
   77ANI     H6 1711   1.100   3.102   1.380 -0.7777  1.1674 -1.3229
   77ANI     H7 1712   1.210   3.197   1.189 -0.8572 -0.1904  0.7270
   77ANI     H8 1713   1.448   3.296   1.212  0.8333  1.9363  1.0657
   78ANI     C1 1714   0.954   2.372   3.622 -0.2195  0.1148  0.0352
   78ANI     O1 1715   1.029   2.335   3.739  0.4852  0.1745 -0.4909
   78ANI     C2 1716   1.167   2.331   3.741 -0.2837 -0.0481 -0.4075
   78ANI     C3 1717   1.245   2.364   3.634  0.3518  0.0318  0.0854
   78ANI     C4 1718   1.384   2.352   3.636  0.0810  0.4307 -1.0784
   78ANI     C5 1719   1.445   2.308   3.757  0.2370  0.1506 -0.3711
   78ANI     C6 1720   1.366   2.282   3.869 -0.2173  0.0037  0.5249
   78ANI     C7 1721   1.225   2.294   3.862  0.2052  0.9316 -0.3945
   78ANI     H1 1722   0.848   2.362   3.646 -0.3279  1.4412  0.1453
   78ANI     H2 1723   0.974   2.474   3.588 -1.7540  0.1566 -0.7535
   78ANI     H3 1724   0.969   2.305   3.536 -1.1024 -0.4696  0.3318
   78ANI     H4 1725   1.200   2.385   3.537 -0.7684  0.2422  0.6455
   78ANI     H5 1726   1.444   2.368   3.547 -0.1401  0.6193 -1.1958
   78ANI     H6 1727   1.551   2.289   3.767  0.9953  3.3450 -1.6229
   78ANI     H7 1728   1.414   2.264   3.965  2.8120 -0.5309 -1.0329
   78ANI     H8 1729   1.160   2.266   3.944  0.3336 -0.0507 -0.6186
   79ANI     C1 1730   1.653   0.762   0.545 -0.1897 -0.7988 -0.2911
   79ANI     O1 1731   1.792   0.764   0.502  0.4349 -0.2854 -0.4786
   79ANI     C2 1732   1.904   0.778   0.593  0.1252 -0.6611 -0.6510
   79ANI     C3 1733   1.884   0.772   0.735  0.1133 -0.9398  0.1125
   79ANI     C4 1734   1.996   0.774   0.827 -0.0748  0.1607  0.2368
   79ANI     C5 1735   2.125   0.785   0.774 -0.9139 -0.2645  0.9876
   79ANI     C6 1736   2.143   0.790   0.628  0.0556  0.1894  0.1595
   79ANI     C7 1737   2.034   0.795   0.541 -0.0398 -0.3133  0.7244
   79ANI     H1 1738   1.628   0.682   0.615  0.5188 -1.9613 -1.3366
   79ANI     H2 1739   1.624   0.857   0.592  2.6268  0.1990 -0.4676
   79ANI     H3 1740   1.592   0.749   0.455 -1.5495 -0.5821  0.5973
   79ANI     H4 1741   1.786   0.764   0.782  0.9987 -1.5190  1.9123
   79ANI     H5 1742   1.993   0.765   0.936 -0.2304  2.3109  0.4475
   79ANI     H6 1743   2.212   0.792   0.838 -0.2079 -3.1575  0.3966
   79ANI     H7 1744   2.241   0.802   0.584 -0.3252  0.1483 -0.6958
   79ANI     H8 1745   2.056   0.822   0.438  2.6830 -0.2067  1.2959
   80ANI     C1 1746   1.016   0.086   3.410 -0.7923  0.1921  0.1097
   80ANI     O1 1747   0.912   0.090   3.313  0.1322  0.4030  0.0324
   80ANI     C2 1748   0.936   0.106   3.177 -0.3843  0.2356 -0.4383
   80ANI     C3 1749   1.064   0.107   3.118  0.9572  0.2147  0.1326
   80ANI     C4 1750   1.075   0.110   2.981  0.3346  0.3345 -0.5435
   80ANI     C5 1751   0.959   0.101   2.896 -0.3413 -0.7325 -0.4272
   80ANI     C6 1752   0.833   0.106   2.950  0.0059  1.0515  0.0718
   80ANI     C7 1753   0.824   0.101   3.092 -0.4317  0.5729 -0.3894
   80ANI     H1 1754   1.063   0.185   3.423  1.2827 -1.0260  2.0988
   80ANI     H2 1755   0.968   0.048   3.501  0.7661  1.1895  1.3832
   80ANI     H3 1756   1.105   0.027   3.384 -1.1129 -0.8025  1.2589
   80ANI     H4 1757   1.151   0.116   3.182  0.5530  2.3015  0.4153
   80ANI     H5 1758   1.172   0.112   2.934  1.2211  6.0924  1.0980
   80ANI     H6 1759   0.958   0.103   2.787 -0.7652  1.3599 -0.4100
   80ANI     H7 1760   0.748   0.105   2.883  0.9182 -0.6341 -1.1033
   80ANI     H8 1761   0.720   0.093   3.122 -0.6461 -1.5401 -1.5264
   81ANI     C1 1762   0.018   2.047   1.525  0.5533 -0.4593  0.5012
   81ANI     O1 1763  -0.026   1.919   1.565 -0.4783 -0.2966 -0.1296
   81ANI     C2 1764  -0.139   1.865   1.514 -0.0562  0.3499  0.1737
   81ANI     C3 1765  -0.217   1.922   1.410  0.5076  0.8294  0.9703
   81ANI     C4 1766  -0.332   1.854   1.361  0.0467  0.0011 -0.2299
   81ANI     C5 1767  -0.356   1.721   1.414  0.0689  0.6121 -0.7839
   81ANI     C6 1768  -0.289   1.672   1.525 -0.4948 -0.1366 -0.4135
   81ANI     C7 1769  -0.185   1.746   1.579 -0.3678  0.3764  0.1073
   81ANI     H1 1770  -0.050   2.127   1.558 -0.2436 -1.1846  0.6439
   81ANI     H2 1771   0.111   2.072   1.577  1.2459 -0.1778 -0.8514
   81ANI     H3 1772   0.035   2.049   1.417  2.2025 -0.2016  0.7610
   81ANI     H4 1773  -0.194   2.019   1.366 -0.3890  0.1154 -1.1133
   81ANI     H5 1774  -0.390   1.890   1.276 -0.1590  0.2826  0.0279
   81ANI     H6 1775  -0.432   1.660   1.366 -0.0154 -0.4504  0.6507
   81ANI     H7 1776  -0.303   1.570   1.561  3.4959 -0.7540 -0.3867
   81ANI     H8 1777  -0.117   1.694   1.646 -2.5225 -1.1591  1.1723
   82ANI     C1 1778   1.968   1.671   3.787 -0.1562  0.1544 -0.4956
   82ANI     O1 1779   2.057   1.751   3.707 -0.1090  0.3488 -0.1627
   82ANI     C2 1780   2.191   1.727   3.713  0.5773 -0.5040  0.0106
   82ANI     C3 1781   2.244   1.624   3.795 -0.0800 -0.5940 -0.3769
   82ANI     C4 1782   2.379   1.609   3.793 -1.6970  1.2602  0.4450
   82ANI     C5 1783   2.463   1.684   3.709  0.4306  0.7232 -0.1312
   82ANI     C6 1784   2.407   1.780   3.623 -0.2972 -0.3518  0.0116
   82ANI     C7 1785   2.273   1.804   3.621 -0.7805  0.2145 -0.4151
   82ANI     H1 1786   1.862   1.697   3.788  0.0108  0.9141  2.9432
   82ANI     H2 1787   1.974   1.565   3.760  0.3130 -0.7568  2.8743
   82ANI     H3 1788   2.008   1.675   3.890  3.1541  0.8196 -1.7352
   82ANI     H4 1789   2.192   1.560   3.865  0.0640 -0.5413 -0.2213
   82ANI     H5 1790   2.425   1.534   3.856 -1.4277  0.0022 -1.2037
   82ANI     H6 1791   2.570   1.666   3.703  0.0481 -1.6225 -0.3812
   82ANI     H7 1792   2.474   1.838   3.561  1.7987 -1.7411  0.9424
   82ANI     H8 1793   2.229   1.884   3.562  0.5821  0.9198 -0.4975
   83ANI     C1 1794   2.883   1.246   1.578 -0.0930 -0.3033  0.6114
   83ANI     O1 1795   2.742   1.217   1.613 -0.1941 -0.1070 -0.3141
   83ANI     C2 1796   2.659   1.134   1.538  0.1597 -0.0433 -0.1565
   83ANI     C3 1797   2.712   1.034   1.456 -0.1088  0.1420  0.4879
   83ANI     C4 1798   2.618   0.956   1.390 -0.5920  1.2125  0.2655
   83ANI     C5 1799   2.479   0.979   1.398 -0.1081  0.4367 -0.5246
   83ANI     C6 1800   2.428   1.081   1.479  0.1191  0.6783  0.3740
   83ANI     C7 1801   2.518   1.156   1.553  0.4688 -0.0920  0.1258
   83ANI     H1 1802   2.895   1.271   1.472  0.3187 -1.1647  0.4464
   83ANI     H2 1803   2.917   1.327   1.644  1.0790 -0.2926  0.0120
   83ANI     H3 1804   2.949   1.163   1.605 -1.4994 -1.2357  1.2588
   83ANI     H4 1805   2.819   1.033   1.438 -0.4533 -1.7819 -1.7234
   83ANI     H5 1806   2.651   0.878   1.323 -1.0562  0.8462  0.4610
   83ANI     H6 1807   2.408   0.922   1.339 -0.5564  2.9289 -2.4527
   83ANI     H7 1808   2.323   1.109   1.486 -0.5020 -2.0264  2.3557
   83ANI     H8 1809   2.489   1.236   1.620 -1.6675  0.1566 -1.0568
   84ANI     C1 1810   0.879   2.317   0.606 -0.3963  0.3209  0.7018
   84ANI     O1 1811   0.845   2.184   0.622 -0.2086 -0.6728  0.3340
   84ANI     C2 1812   0.834   2.098   0.514  0.4944 -0.2567 -0.2478
   84ANI     C3 1813   0.863   2.131   0.379  0.6238  0.1444 -0.0887
   84ANI     C4 1814   0.841   2.039   0.272  0.0018  0.4713  1.0235
   84ANI     C5 1815   0.777   1.919   0.299 -0.0931  0.1550  0.2230
   84ANI     C6 1816   0.730   1.896   0.432  0.0723 -0.7224 -0.5151
   84ANI     C7 1817   0.765   1.981   0.537 -0.5309 -0.7522 -0.3048
   84ANI     H1 1818   0.979   2.330   0.564 -1.9051  0.6988 -2.9562
   84ANI     H2 1819   0.816   2.367   0.532  1.2592  0.2800 -0.7695
   84ANI     H3 1820   0.863   2.365   0.704 -0.4126  1.3626  0.1903
   84ANI     H4 1821   0.909   2.227   0.358  1.0272  0.0038  0.1459
   84ANI     H5 1822   0.879   2.064   0.173  2.1594 -0.6395  1.5496
   84ANI     H6 1823   0.764   1.837   0.229  0.8076 -0.8975  1.2801
   84ANI     H7 1824   0.670   1.810   0.459 -1.1970 -0.1619 -1.5005
   84ANI     H8 1825   0.742   1.963   0.642 -2.7149 -0.4806 -0.7264
   85ANI     C1 1826   1.767   1.302   3.699 -0.6227  0.0809 -0.0164
   85ANI     O1 1827   1.886   1.356   3.654  0.3874 -0.3309  0.7113
   85ANI     C2 1828   2.009   1.291   3.677  0.3264  0.0247 -0.5744
   85ANI     C3 1829   2.023   1.183   3.775  0.0493 -0.4262  0.0900
   85ANI     C4 1830   2.143   1.118   3.799 -0.3851 -1.2805  0.0115
   85ANI     C5 1831   2.253   1.152   3.728  0.1732 -0.1511 -0.4478
   85ANI     C6 1832   2.246   1.260   3.639 -0.0453 -0.3721 -0.7226
   85ANI     C7 1833   2.124   1.329   3.610  0.1700  0.3083  0.1269
   85ANI     H1 1834   1.676   1.340   3.652 -0.7744 -0.7622 -0.4188
   85ANI     H2 1835   1.769   1.198   3.663  0.5642 -0.6060  1.9286
   85ANI     H3 1836   1.757   1.300   3.809  0.1325 -0.3120  0.0477
   85ANI     H4 1837   1.935   1.151   3.832  0.0930 -0.9339 -0.1334
   85ANI     H5 1838   2.146   1.032   3.865  1.7040 -0.9140  0.4169
   85ANI     H6 1839   2.344   1.092   3.724  0.6176  0.4722  0.2421
   85ANI     H7 1840   2.339   1.290   3.591  0.1171  2.1744  1.1241
   85ANI     H8 1841   2.115   1.413   3.541 -2.1801 -0.0861 -0.0955
   86ANI     C1 1842   0.493   1.171   0.105  0.2930  0.3295  0.0997
   86ANI     O1 1843   0.510   1.169   0.251  0.4458  0.5633 -0.5542
   86ANI     C2 1844   0.406   1.192   0.336  0.2973  0.4160 -0.4972
   86ANI     C3 1845   0.285   1.254   0.287 -0.0871 -0.1186 -0.5517
   86ANI     C4 1846   0.173   1.268   0.370 -0.2882 -0.4827  0.0662
   86ANI     C5 1847   0.190   1.248   0.510 -1.1518 -0.5962 -0.3441
   86ANI     C6 1848   0.309   1.195   0.557 -0.6556  0.1011 -0.4120
   86ANI     C7 1849   0.416   1.161   0.470  0.9694 -0.1020 -0.6628
   86ANI     H1 1850   0.455   1.265   0.062 -1.5529  0.2105  1.4098
   86ANI     H2 1851   0.595   1.151   0.070  0.3536 -0.5970  0.7976
   86ANI     H3 1852   0.432   1.084   0.079 -1.3183  1.5880 -0.4252
   86ANI     H4 1853   0.263   1.267   0.182  1.0631 -0.5642 -0.8637
   86ANI     H5 1854   0.081   1.306   0.326 -0.1366 -0.0554  0.1176
   86ANI     H6 1855   0.109   1.259   0.581 -0.2779 -1.6480  0.8433
   86ANI     H7 1856   0.322   1.168   0.661 -0.8248  2.4176  0.2386
   86ANI     H8 1857   0.502   1.105   0.504  1.2438  0.6061 -0.1731
   87ANI     C1 1858   2.992   0.772   0.402  0.1438 -0.1936  0.2220
   87ANI     O1 1859   2.939   0.889   0.465  0.0790 -0.1611  0.0802
   87ANI     C2 1860   2.934   0.897   0.604  0.5161 -0.6137 -0.9420
   87ANI     C3 1861   2.955   0.782   0.685 -0.2912  0.0841 -0.3506
   87ANI     C4 1862   2.943   0.792   0.825  0.6839  0.2500  0.6865
   87ANI     C5 1863   2.906   0.920   0.880 -0.9578 -0.4311  0.1153
   87ANI     C6 1864   2.891   1.034   0.801  0.5549 -0.1137  0.8302
   87ANI     C7 1865   2.910   1.025   0.663  0.2594  1.0589 -0.1558
   87ANI     H1 1866   3.086   0.745   0.450 -0.3499 -1.6294  0.4109
   87ANI     H2 1867   2.920   0.689   0.411  0.2049 -0.4532 -1.4641
   87ANI     H3 1868   3.011   0.806   0.299  0.4602 -1.2750 -0.0874
   87ANI     H4 1869   2.959   0.687   0.631  2.9271  1.4312 -2.6925
   87ANI     H5 1870   2.945   0.704   0.888 -0.8164 -0.2077  0.1283
   87ANI     H6 1871   2.886   0.929   0.986 -1.9770  0.3253 -0.1381
   87ANI     H7 1872   2.856   1.123   0.853 -1.4923 -0.0992 -0.5219
   87ANI     H8 1873   2.896   1.112   0.600  1.9652  0.2391 -1.7268
   88ANI     C1 1874   2.223   2.111   2.378  0.5693 -0.1064  0.0501
   88ANI     O1 1875   2.190   2.229   2.322 -0.7380  0.0184  0.5152
   88ANI     C2 1876   2.054   2.253   2.292 -0.7161  0.9075 -1.0107
   88ANI     C3 1877   1.954   2.150   2.290 -0.6202 -0.0534  0.9508
   88ANI     C4 1878   1.819   2.184   2.277  0.4522 -1.1122  0.0139
   88ANI     C5 1879   1.779   2.314   2.251  0.5543  0.5055  0.0240
   88ANI     C6 1880   1.878   2.415   2.244  0.1327 -0.6795 -0.5705
   88ANI     C7 1881   2.010   2.383   2.272  0.4138 -0.3049  0.8351
   88ANI     H1 1882   2.327   2.107   2.411  0.5442 -1.8916 -0.0614
   88ANI     H2 1883   2.152   2.095   2.460 -1.9228  4.3281 -1.0413
   88ANI     H3 1884   2.208   2.032   2.303 -0.6968  0.6720 -0.5425
   88ANI     H4 1885   1.979   2.048   2.314  0.4706 -0.0787 -0.2531
   88ANI     H5 1886   1.745   2.104   2.287 -1.4112  0.3720 -1.4048
   88ANI     H6 1887   1.677   2.344   2.230  1.3336  1.8768 -1.9497
   88ANI     H7 1888   1.851   2.515   2.212  2.4043 -0.4742 -2.0307
   88ANI     H8 1889   2.084   2.462   2.261  1.4307 -1.2345  0.8907
   89ANI     C1 1890   1.544   1.152   2.893 -0.0966 -0.2233 -0.1516
   89ANI     O1 1891   1.653   1.064   2.870 -0.0735 -0.5960 -0.1993
   89ANI     C2 1892   1.656   0.984   2.756  0.4013 -0.5654 -0.1522
   89ANI     C3 1893   1.544   0.975   2.671 -0.3606 -0.9701  0.0192
   89ANI     C4 1894   1.551   0.890   2.557  0.3478  0.1326 -0.7094
   89ANI     C5 1895   1.670   0.822   2.530  0.4584  0.1194 -0.8177
   89ANI     C6 1896   1.778   0.836   2.613  0.9181  1.1501  0.4501
   89ANI     C7 1897   1.768   0.909   2.729 -0.0734  0.4651  0.4017
   89ANI     H1 1898   1.510   1.203   2.802 -0.3932 -0.0416  0.0599
   89ANI     H2 1899   1.456   1.095   2.926 -1.9672  1.2011 -2.5229
   89ANI     H3 1900   1.566   1.228   2.968 -2.4350 -1.0596  1.4589
   89ANI     H4 1901   1.454   1.032   2.689  0.7609  1.1684 -0.9253
   89ANI     H5 1902   1.469   0.883   2.485 -1.4945  0.7763  1.2855
   89ANI     H6 1903   1.674   0.752   2.447 -2.0532 -1.7575  0.5868
   89ANI     H7 1904   1.864   0.774   2.590  1.5214  2.7840 -1.9237
   89ANI     H8 1905   1.845   0.916   2.805 -1.4432 -0.5661  1.9240
   90ANI     C1 1906   3.240   3.050   2.702 -0.5387 -1.0329  0.2942
   90ANI     O1 1907   3.157   2.982   2.605  0.0634 -0.3474  0.2115
   90ANI     C2 1908   3.025   2.947   2.627 -0.1691 -0.1874 -0.4019
   90ANI     C3 1909   2.977   2.933   2.756  0.4775 -1.0332  0.4558
   90ANI     C4 1910   2.838   2.904   2.773 -0.3566  0.4831  0.2830
   90ANI     C5 1911   2.755   2.876   2.662  0.2142  0.4884  0.0885
   90ANI     C6 1912   2.808   2.877   2.534 -0.2148 -0.3772  0.2901
   90ANI     C7 1913   2.942   2.915   2.515  0.1708 -0.3338  0.6554
   90ANI     H1 1914   3.245   3.001   2.800  0.2495 -0.5603  0.4953
   90ANI     H2 1915   3.338   3.055   2.654 -0.5761 -2.0029  0.1118
   90ANI     H3 1916   3.207   3.154   2.715 -1.3714 -1.2976  0.3699
   90ANI     H4 1917   3.038   2.950   2.844 -0.3810  1.6933  0.5801
   90ANI     H5 1918   2.794   2.894   2.872  1.8505 -1.8182  1.0832
   90ANI     H6 1919   2.651   2.852   2.679  0.2780  0.8428  1.0003
   90ANI     H7 1920   2.751   2.864   2.442  0.7053  1.0273 -0.4963
   90ANI     H8 1921   2.979   2.943   2.416  1.5150  0.8378  1.4733
   91ANI     C1 1922   1.621   1.130   3.276 -0.5835 -0.3515  0.3218
   91ANI     O1 1923   1.578   1.255   3.326  0.7053 -0.1587 -0.1193
   91ANI     C2 1924   1.472   1.269   3.411  0.2460  0.0927  0.0686
   91ANI     C3 1925   1.410   1.162   3.481 -0.0476  0.5385 -0.1222
   91ANI     C4 1926   1.298   1.190   3.556 -0.1983 -0.4581 -0.3783
   91ANI     C5 1927   1.239   1.319   3.558 -0.1549  0.4090 -0.3529
   91ANI     C6 1928   1.289   1.418   3.477 -0.2762 -0.7450  0.2029
   91ANI     C7 1929   1.411   1.392   3.412  0.2687  0.0041 -0.3935
   91ANI     H1 1930   1.681   1.140   3.185  0.5001 -0.4076  1.0277
   91ANI     H2 1931   1.682   1.076   3.348 -0.6856  1.4338  1.8008
   91ANI     H3 1932   1.535   1.069   3.245 -2.3304  1.6630  1.0696
   91ANI     H4 1933   1.446   1.059   3.479 -2.1950 -0.2357 -0.8705
   91ANI     H5 1934   1.250   1.110   3.611 -0.8400  0.6783  0.7200
   91ANI     H6 1935   1.154   1.337   3.624  0.3199 -1.2145  0.7216
   91ANI     H7 1936   1.242   1.517   3.480 -1.8061 -1.3597 -2.1337
   91ANI     H8 1937   1.453   1.476   3.358  0.1085 -1.6416 -3.1330
   92ANI     C1 1938   1.565   0.498   1.251  0.3269  0.2839  0.6852
   92ANI     O1 1939   1.670   0.602   1.243  0.0790  0.4472 -0.6554
   92ANI     C2 1940   1.644   0.723   1.179 -0.4536  0.1884 -0.2876
   92ANI     C3 1941   1.518   0.786   1.175  0.2248 -0.0974 -0.5920
   92ANI     C4 1942   1.501   0.907   1.100 -0.0340 -0.3803  0.4977
   92ANI     C5 1943   1.613   0.976   1.050  0.4622 -0.2128  0.7798
   92ANI     C6 1944   1.743   0.916   1.063  0.2635  0.0954 -0.6898
   92ANI     C7 1945   1.751   0.789   1.124 -0.0879  1.0348  0.5224
   92ANI     H1 1946   1.474   0.534   1.301  0.0486  1.6344 -0.7783
   92ANI     H2 1947   1.537   0.467   1.150 -2.0553  0.0491  1.3715
   92ANI     H3 1948   1.594   0.408   1.307  2.0231 -0.1907 -0.9397
   92ANI     H4 1949   1.432   0.732   1.214 -0.5562  0.6901 -1.2122
   92ANI     H5 1950   1.406   0.959   1.085 -0.2034 -0.3911  1.4543
   92ANI     H6 1951   1.594   1.074   1.007  2.7012 -0.0256  0.1494
   92ANI     H7 1952   1.832   0.966   1.025  0.3596  0.3433 -0.1458
   92ANI     H8 1953   1.845   0.736   1.131 -0.9494 -0.9454 -2.0281
   93ANI     C1 1954   3.151   2.802   1.238 -0.0406  0.2426 -0.1026
   93ANI     O1 1955   3.103   2.746   1.113  0.7251  0.2851 -0.4494
   93ANI     C2 1956   3.056   2.832   1.012 -0.3722  0.1849  0.1510
   93ANI     C3 1957   3.003   2.954   1.041 -0.0448 -0.8022  0.0225
   93ANI     C4 1958   2.959   3.037   0.935  0.2628 -0.5199 -0.6195
   93ANI     C5 1959   2.979   3.001   0.800 -0.1190  0.2052  0.0714
   93ANI     C6 1960   3.027   2.882   0.774 -0.5085  0.0613  0.0339
   93ANI     C7 1961   3.068   2.794   0.874 -0.1488 -0.3638 -1.0029
   93ANI     H1 1962   3.228   2.877   1.216 -1.0612  0.6254 -2.6031
   93ANI     H2 1963   3.068   2.852   1.289 -0.7230  0.0983 -1.0504
   93ANI     H3 1964   3.192   2.716   1.293 -0.9438 -0.1816 -0.0728
   93ANI     H4 1965   2.996   3.000   1.139 -1.0659 -0.7006 -0.0927
   93ANI     H5 1966   2.917   3.135   0.952  0.6503 -0.1283 -1.8496
   93ANI     H6 1967   2.961   3.071   0.720  0.8757  0.7921  0.3547
   93ANI     H7 1968   3.034   2.856   0.669  0.4696 -1.6203  0.4805
   93ANI     H8 1969   3.118   2.702   0.847  0.2818 -0.2101 -0.7411
   94ANI     C1 1970   1.724   0.529   1.576  0.0291 -0.4888  0.7120
   94ANI     O1 1971   1.582   0.534   1.580 -0.2746 -0.0461  0.0489
   94ANI     C2 1972   1.507   0.419   1.565  0.3951  0.6198  0.5854
   94ANI     C3 1973   1.556   0.289   1.590 -0.2266  0.3485  0.7805
   94ANI     C4 1974   1.468   0.179   1.576 -0.0957  0.5573  0.2230
   94ANI     C5 1975   1.337   0.198   1.535 -0.3659 -0.0448 -0.5945
   94ANI     C6 1976   1.288   0.327   1.519  0.1130  0.0201  0.8262
   94ANI     C7 1977   1.368   0.442   1.523 -0.7102 -0.4925  0.0726
   94ANI     H1 1978   1.762   0.627   1.607 -0.6842  0.1330 -0.3768
   94ANI     H2 1979   1.764   0.446   1.637 -1.3045 -1.1432  0.7292
   94ANI     H3 1980   1.754   0.510   1.472 -0.8952  0.1445  0.3265
   94ANI     H4 1981   1.659   0.270   1.620 -0.0112  0.2869  0.0136
   94ANI     H5 1982   1.502   0.077   1.595  0.2204 -0.2962 -4.3002
   94ANI     H6 1983   1.268   0.114   1.530 -1.2454  0.6221  0.2273
   94ANI     H7 1984   1.182   0.342   1.499 -0.3177 -0.3124  2.6906
   94ANI     H8 1985   1.331   0.542   1.506 -0.0041 -0.2582 -0.1142
   95ANI     C1 1986   3.201   3.041   1.526 -0.2574  0.1352  0.6727
   95ANI     O1 1987   3.128   3.160   1.511 -0.3565 -0.4261  0.4189
   95ANI     C2 1988   3.187   3.287   1.524  0.3467 -0.3506  0.2647
   95ANI     C3 1989   3.120   3.406   1.487  0.5691 -0.0568 -0.3911
   95ANI     C4 1990   3.171   3.534   1.518  0.2634 -0.6204  0.0087
   95ANI     C5 1991   3.300   3.549   1.570 -0.1511  0.2077 -0.2443
   95ANI     C6 1992   3.378   3.431   1.587 -0.2676 -0.9538 -0.2149
   95ANI     C7 1993   3.325   3.307   1.571  0.6779 -0.4494 -0.1950
   95ANI     H1 1994   3.238   3.035   1.629 -1.1572 -2.5748  0.8800
   95ANI     H2 1995   3.131   2.957   1.521  0.2482 -0.3130  1.0319
   95ANI     H3 1996   3.280   3.042   1.449 -1.5846 -1.1599 -0.7306
   95ANI     H4 1997   3.016   3.399   1.456 -0.0090  0.0492  1.4482
   95ANI     H5 1998   3.115   3.627   1.512 -0.1687 -0.8232  0.8964
   95ANI     H6 1999   3.344   3.644   1.600  1.2199 -0.5824  0.3033
   95ANI     H7 2000   3.471   3.441   1.642  0.0537  0.6597 -1.0117
   95ANI     H8 2001   3.377   3.215   1.594  0.0339 -0.6844  0.3674
   96ANI     C1 2002   3.238   0.442   0.542 -0.5006 -0.7532 -1.0262
   96ANI     O1 2003   3.134   0.374   0.478  0.1124  0.4351 -0.7230
   96ANI     C2 2004   3.008   0.364   0.535  0.8793  0.4211  0.0585
   96ANI     C3 2005   2.980   0.397   0.671 -0.6817  0.7702  0.0922
   96ANI     C4 2006   2.844   0.379   0.727 -0.4105  0.7954 -0.2462
   96ANI     C5 2007   2.742   0.329   0.640 -0.1456  1.0074 -0.0364
   96ANI     C6 2008   2.770   0.293   0.504  0.3436  0.2690 -0.9060
   96ANI     C7 2009   2.901   0.314   0.457  0.5135  0.5768 -0.1465
   96ANI     H1 2010   3.205   0.545   0.561  0.2276 -0.9573  1.6100
   96ANI     H2 2011   3.262   0.398   0.640  1.3326  0.0995 -1.0894
   96ANI     H3 2012   3.329   0.461   0.486  1.6880  0.8926  2.8939
   96ANI     H4 2013   3.060   0.440   0.731 -2.1368  1.7282  1.3883
   96ANI     H5 2014   2.830   0.414   0.829  2.4114 -2.3691  1.3036
   96ANI     H6 2015   2.644   0.332   0.686  0.2593 -2.3723  1.2726
   96ANI     H7 2016   2.692   0.244   0.447 -1.5108 -1.6570  3.1008
   96ANI     H8 2017   2.927   0.287   0.355 -1.1113 -0.9331 -0.1855
   97ANI     C1 2018   2.981   3.139   0.411 -0.3525  0.2462 -0.4208
   97ANI     O1 2019   2.873   3.045   0.441  0.1631  0.2840 -0.1979
   97ANI     C2 2020   2.802   2.976   0.347  0.1044 -0.4712  0.5453
   97ANI     C3 2021   2.836   2.970   0.212  0.5831 -0.4642  0.5730
   97ANI     C4 2022   2.754   2.899   0.120 -0.8350 -0.0596  0.2275
   97ANI     C5 2023   2.650   2.816   0.168  0.2598 -0.0121  0.5881
   97ANI     C6 2024   2.616   2.826   0.303 -0.0986  0.0813  0.4449
   97ANI     C7 2025   2.684   2.904   0.392  0.0457  0.3110 -0.0522
   97ANI     H1 2026   2.950   3.203   0.327  0.4269  2.0823  0.6621
   97ANI     H2 2027   3.030   3.184   0.498  0.3405 -0.9001 -0.2008
   97ANI     H3 2028   3.053   3.068   0.368 -0.6367 -1.2600  1.5261
   97ANI     H4 2029   2.917   3.032   0.174 -0.6544  1.2645  0.6999
   97ANI     H5 2030   2.780   2.895   0.015  0.1977  0.0697  0.4721
   97ANI     H6 2031   2.592   2.751   0.104  3.1815 -0.9368 -1.2319
   97ANI     H7 2032   2.530   2.768   0.335  0.1245 -0.7104 -0.3730
   97ANI     H8 2033   2.660   2.910   0.497 -0.3299  0.7918 -0.1608
   98ANI     C1 2034   3.268   2.339   0.796 -0.1753 -0.0349 -0.1280
   98ANI     O1 2035   3.155   2.428   0.780  0.1218 -0.3363  0.2574
   98ANI     C2 2036   3.135   2.519   0.675 -0.4675  0.8997  0.1999
   98ANI     C3 2037   3.233   2.540   0.580  0.2155 -0.5574 -0.0613
   98ANI     C4 2038   3.207   2.623   0.469 -0.4315 -0.5421 -0.1851
   98ANI     C5 2039   3.082   2.692   0.459 -0.1438 -0.4494 -0.0803
   98ANI     C6 2040   2.982   2.658   0.547 -0.0183 -0.3547  0.5832
   98ANI     C7 2041   3.009   2.572   0.658  0.1366  0.3195  0.0036
   98ANI     H1 2042   3.285   2.273   0.711 -2.5323  1.2348 -1.6286
   98ANI     H2 2043   3.367   2.383   0.817 -0.3444  0.0116  0.5819
   98ANI     H3 2044   3.240   2.282   0.886  1.6343  0.3645  0.7336
   98ANI     H4 2045   3.327   2.486   0.577  0.2179 -0.5818  0.4384
   98ANI     H5 2046   3.284   2.638   0.394  1.9080 -3.5181  1.5318
   98ANI     H6 2047   3.061   2.745   0.367 -0.5861  0.4053  0.4969
   98ANI     H7 2048   2.884   2.705   0.542 -0.0534 -0.5152 -0.3122
   98ANI     H8 2049   2.931   2.552   0.731  1.3398 -0.1045  1.1854
   99ANI     C1 2050   3.014   3.249   2.289  0.3933  0.0215  0.3415
   99ANI     O1 2051   2.988   3.370   2.345  0.2697 -0.5340 -0.0403
   99ANI     C2 2052   2.915   3.383   2.461 -0.3806  1.1930 -0.1673
   99ANI     C3 2053   2.852   3.267   2.521 -0.1347 -0.1685  0.4819
   99ANI     C4 2054   2.761   3.284   2.631  0.5376 -0.2464  0.2219
   99ANI     C5 2055   2.729   3.408   2.677  0.4350 -0.2660 -0.1176
   99ANI     C6 2056   2.803   3.519   2.626  0.1709  0.8054  0.0876
   99ANI     C7 2057   2.894   3.508   2.514 -0.3688 -0.0751  0.2844
   99ANI     H1 2058   3.088   3.262   2.209  0.8429 -1.4934  0.4944
   99ANI     H2 2059   3.062   3.179   2.359  1.6909 -1.1323 -1.6493
   99ANI     H3 2060   2.931   3.209   2.229 -0.5294 -0.9722  2.2003
   99ANI     H4 2061   2.882   3.169   2.483  0.6575  0.0662  0.4837
   99ANI     H5 2062   2.712   3.195   2.669 -0.3898  0.7662  1.4705
   99ANI     H6 2063   2.663   3.428   2.761  2.4949  2.4635  0.9439
   99ANI     H7 2064   2.774   3.615   2.667 -1.9187 -0.2803  1.2459
   99ANI     H8 2065   2.936   3.600   2.473 -1.4716 -0.0644 -0.8563
  100ANI     C1 2066   2.838   2.162   0.925  0.0850  0.0341  0.3034
  100ANI     O1 2067   2.765   2.045   0.873  0.1466 -0.6074 -0.6834
  100ANI     C2 2068   2.750   1.935   0.944 -0.6469  0.3452 -0.3280
  100ANI     C3 2069   2.851   1.887   1.029 -0.3090 -0.4359 -0.5196
  100ANI     C4 2070   2.837   1.760   1.093  0.4782 -0.5309 -0.8352
  100ANI     C5 2071   2.730   1.681   1.066  0.1754 -0.0616  0.4480
  100ANI     C6 2072   2.629   1.733   0.984  0.0953  0.3838 -0.3384
  100ANI     C7 2073   2.646   1.848   0.914  0.3117  0.5819 -0.0813
  100ANI     H1 2074   2.779   2.196   1.010 -0.1322 -0.1018  0.2068
  100ANI     H2 2075   2.944   2.146   0.952  0.0161 -0.3822  0.3346
  100ANI     H3 2076   2.854   2.240   0.849 -0.2254 -0.9450 -0.7849
  100ANI     H4 2077   2.945   1.938   1.047 -0.7541 -0.3209  1.5751
  100ANI     H5 2078   2.911   1.713   1.157  1.9992  2.0155 -0.6507
  100ANI     H6 2079   2.716   1.590   1.123  0.7587 -0.5484 -0.1960
  100ANI     H7 2080   2.537   1.677   0.971  0.5126 -0.3374 -0.1699
  100ANI     H8 2081   2.567   1.881   0.846  0.2307  2.0957  0.7382
  101ANI     C1 2082   0.596   2.552   0.769  0.2103 -0.3679 -0.8240
  101ANI     O1 2083   0.635   2.596   0.899 -0.2483 -0.7200 -0.1051
  101ANI     C2 2084   0.565   2.682   0.984  0.2512 -0.5370  0.7273
  101ANI     C3 2085   0.431   2.712   0.973  0.4858 -0.6193 -0.0501
  101ANI     C4 2086   0.367   2.788   1.073  0.4175  0.8774  1.0092
  101ANI     C5 2087   0.447   2.845   1.179 -0.0763 -0.1809  0.2443
  101ANI     C6 2088   0.589   2.819   1.184  0.2375  0.3091  0.3012
  101ANI     C7 2089   0.640   2.730   1.090  0.0998  0.6271 -0.2148
  101ANI     H1 2090   0.674   2.480   0.739 -0.1562 -0.7475 -0.8731
  101ANI     H2 2091   0.505   2.494   0.784 -0.5458  0.6749 -1.3113
  101ANI     H3 2092   0.590   2.627   0.689 -2.0706  1.1310  0.6968
  101ANI     H4 2093   0.373   2.660   0.896  0.1582  0.6693 -0.6821
  101ANI     H5 2094   0.260   2.790   1.089  0.2200 -1.2509  0.0977
  101ANI     H6 2095   0.401   2.886   1.268  0.7380  1.9792 -0.2955
  101ANI     H7 2096   0.648   2.846   1.272  0.8187 -0.9591  0.3069
  101ANI     H8 2097   0.745   2.703   1.093 -0.7769 -3.2150 -1.5394
  102ANI     C1 2098   3.225   0.771   3.391 -0.0720  0.1395  0.0870
  102ANI     O1 2099   3.251   0.630   3.390  0.3873  0.2400 -0.3712
  102ANI     C2 2100   3.242   0.553   3.278 -0.2055 -0.3523  0.4536
  102ANI     C3 2101   3.251   0.405   3.292 -0.2029 -0.2485 -0.2707
  102ANI     C4 2102   3.239   0.334   3.175 -0.1430  0.4519 -0.7187
  102ANI     C5 2103   3.220   0.392   3.050 -0.0417  0.4655  0.5165
  102ANI     C6 2104   3.218   0.530   3.032  0.0081 -0.2804 -0.0659
  102ANI     C7 2105   3.220   0.608   3.151  1.0716 -0.5150  0.6481
  102ANI     H1 2106   3.258   0.821   3.483 -0.3885 -0.6705  0.6417
  102ANI     H2 2107   3.258   0.821   3.299 -2.1850 -0.5644 -1.0813
  102ANI     H3 2108   3.118   0.788   3.402 -0.4634 -0.5614 -2.2972
  102ANI     H4 2109   3.261   0.355   3.388 -3.4565  0.8629  0.7164
  102ANI     H5 2110   3.248   0.226   3.182  0.2527  0.5779  1.1253
  102ANI     H6 2111   3.215   0.330   2.961 -0.0561  0.2830  0.6455
  102ANI     H7 2112   3.200   0.580   2.938  0.2578  1.7117  0.9065
  102ANI     H8 2113   3.204   0.715   3.144  2.0580 -0.4506 -0.9019
  103ANI     C1 2114   2.238   3.398   1.206  0.0304  0.1449 -0.2165
  103ANI     O1 2115   2.192   3.526   1.174  0.1911 -0.1264  0.1667
  103ANI     C2 2116   2.081   3.543   1.102  0.4100  0.1719  0.5583
  103ANI     C3 2117   2.012   3.435   1.035 -0.7004 -0.0971 -0.3688
  103ANI     C4 2118   1.881   3.455   0.975  0.2273 -0.7022 -0.0344
  103ANI     C5 2119   1.817   3.581   0.983  0.2677  0.2711  0.0590
  103ANI     C6 2120   1.886   3.682   1.049  0.6534  0.3317  0.1428
  103ANI     C7 2121   2.023   3.669   1.089 -0.5666  0.3500  0.1238
  103ANI     H1 2122   2.179   3.341   1.279  1.1115  3.0613  3.0397
  103ANI     H2 2123   2.263   3.338   1.117 -0.8622 -0.6230  0.0381
  103ANI     H3 2124   2.322   3.402   1.277 -1.7577  1.7591  1.8650
  103ANI     H4 2125   2.061   3.339   1.029  2.3426  1.1769  2.5211
  103ANI     H5 2126   1.823   3.373   0.933 -0.0035 -0.2149 -0.6684
  103ANI     H6 2127   1.718   3.600   0.944  0.0943  1.9700  1.2824
  103ANI     H7 2128   1.839   3.779   1.057  0.3387  0.2131 -0.2589
  103ANI     H8 2129   2.075   3.754   1.131  0.3028 -0.4856  0.7526
  104ANI     C1 2130   0.961   1.719   3.726  0.1034  0.0507  0.4127
  104ANI     O1 2131   0.920   1.813   3.623  0.8170  0.0435  0.0354
  104ANI     C2 2132   1.006   1.914   3.574 -0.2527 -0.0649  0.6125
  104ANI     C3 2133   0.980   1.985   3.457  0.1493 -0.8829 -0.0789
  104ANI     C4 2134   1.072   2.084   3.411 -0.2334 -0.2143 -0.2503
  104ANI     C5 2135   1.195   2.098   3.478  0.5353  0.3071 -0.2909
  104ANI     C6 2136   1.216   2.031   3.599  0.3641  0.1162 -0.5290
  104ANI     C7 2137   1.127   1.929   3.641  0.1450  0.5173 -0.4223
  104ANI     H1 2138   1.036   1.653   3.680  0.3121  1.9818 -2.1520
  104ANI     H2 2139   0.996   1.769   3.818 -1.6058  0.7929  0.6779
  104ANI     H3 2140   0.876   1.653   3.745 -0.1963  0.0357 -0.9495
  104ANI     H4 2141   0.891   1.956   3.403 -0.1799 -0.4044  0.2089
  104ANI     H5 2142   1.057   2.125   3.312 -0.3682 -2.4806 -1.2084
  104ANI     H6 2143   1.261   2.178   3.446 -0.6705  1.6019  0.3621
  104ANI     H7 2144   1.307   2.055   3.654  1.8699 -3.7648 -1.1097
  104ANI     H8 2145   1.148   1.879   3.735  2.1156  0.1756 -1.0180
  105ANI     C1 2146   0.605   0.457   1.343 -0.6562  0.2009 -0.4964
  105ANI     O1 2147   0.494   0.442   1.421 -0.5867 -0.6043 -0.0547
  105ANI     C2 2148   0.410   0.550   1.447 -0.0522 -0.2575 -0.6397
  105ANI     C3 2149   0.303   0.538   1.535 -0.0096  0.4018 -0.3976
  105ANI     C4 2150   0.215   0.648   1.556 -1.1002  0.8365  0.4537
  105ANI     C5 2151   0.229   0.769   1.492 -0.3969  0.3083 -0.5429
  105ANI     C6 2152   0.341   0.787   1.409 -0.6634 -0.4162 -0.1092
  105ANI     C7 2153   0.428   0.678   1.387  0.1509  0.5113 -0.3099
  105ANI     H1 2154   0.581   0.494   1.243 -0.0278  1.0607 -0.3334
  105ANI     H2 2155   0.669   0.530   1.394 -3.0940  0.1176  2.8404
  105ANI     H3 2156   0.657   0.361   1.332 -1.4509 -0.1967 -0.8468
  105ANI     H4 2157   0.271   0.442   1.572 -0.8532 -0.5645 -3.5262
  105ANI     H5 2158   0.123   0.642   1.614  0.5970  0.1647  3.1999
  105ANI     H6 2159   0.156   0.849   1.496  0.9778  1.5360  0.3617
  105ANI     H7 2160   0.353   0.874   1.345  2.4752 -0.4477  0.3533
  105ANI     H8 2161   0.505   0.697   1.313  2.6152 -0.7135  1.8799
  106ANI     C1 2162   2.093   2.392   2.658  0.0636 -0.3400  0.5905
  106ANI     O1 2163   2.119   2.479   2.770 -0.2461 -0.4257  0.1819
  106ANI     C2 2164   2.247   2.526   2.784  0.3601 -0.0535  0.2221
  106ANI     C3 2165   2.331   2.544   2.672  0.1287  0.2203  0.7479
  106ANI     C4 2166   2.462   2.590   2.677  0.3453  0.2651  0.2872
  106ANI     C5 2167   2.503   2.623   2.810 -0.0966  0.2302  0.1494
  106ANI     C6 2168   2.429   2.595   2.927 -0.5563 -0.7124  0.6726
  106ANI     C7 2169   2.301   2.544   2.914 -0.1180  0.2902  0.5467
  106ANI     H1 2170   2.170   2.313   2.658  0.2384 -0.1731  0.2603
  106ANI     H2 2171   1.996   2.343   2.668 -0.1593  0.0164  0.1894
  106ANI     H3 2172   2.094   2.449   2.564  2.6470  0.0830  0.8134
  106ANI     H4 2173   2.289   2.521   2.574  2.9223 -0.9610 -0.2391
  106ANI     H5 2174   2.533   2.600   2.595  1.7641 -2.2444  1.1545
  106ANI     H6 2175   2.604   2.660   2.826 -0.7794  2.1430  0.1616
  106ANI     H7 2176   2.470   2.617   3.025 -1.7308 -0.2033  1.0543
  106ANI     H8 2177   2.243   2.518   3.003 -0.0843  0.8223  0.7280
  107ANI     C1 2178   1.281   2.634   3.373  0.8674  0.1845 -0.0783
  107ANI     O1 2179   1.243   2.512   3.301  0.1891  0.0901  0.3489
  107ANI     C2 2180   1.114   2.477   3.285  0.6949 -0.2394 -0.3102
  107ANI     C3 2181   1.097   2.369   3.203 -0.3870  0.3236 -0.2623
  107ANI     C4 2182   0.971   2.329   3.168  0.4034 -0.6481  1.0100
  107ANI     C5 2183   0.860   2.394   3.224 -0.7248  0.5805 -0.1600
  107ANI     C6 2184   0.875   2.493   3.322 -0.3914  0.5831  0.6222
  107ANI     C7 2185   1.005   2.542   3.345  0.0400  0.2791  0.6662
  107ANI     H1 2186   1.267   2.627   3.481  1.1996  0.2665 -0.0310
  107ANI     H2 2187   1.388   2.653   3.362  1.0232  1.2008  2.8464
  107ANI     H3 2188   1.239   2.722   3.321 -2.0171 -0.9964  0.1222
  107ANI     H4 2189   1.182   2.318   3.159  0.2710  1.2027 -0.0354
  107ANI     H5 2190   0.946   2.249   3.100 -1.4152  0.8787 -0.1715
  107ANI     H6 2191   0.760   2.373   3.186 -0.5510  0.0161 -0.3088
  107ANI     H7 2192   0.786   2.543   3.360 -0.3238 -0.0661  1.6440
  107ANI     H8 2193   1.026   2.627   3.410  2.1225 -0.6699  1.2739
  108ANI     C1 2194   1.656   0.653   3.430 -0.2844 -0.4620  0.1273
  108ANI     O1 2195   1.521   0.605   3.422  0.0055  0.1724 -0.4434
  108ANI     C2 2196   1.470   0.507   3.507 -0.8176  0.7093 -0.1004
  108ANI     C3 2197   1.336   0.483   3.498 -0.0736 -0.0731  0.1984
  108ANI     C4 2198   1.276   0.379   3.566  0.3123  0.2784  0.0668
  108ANI     C5 2199   1.354   0.296   3.656 -0.1452 -0.3187  1.1528
  108ANI     C6 2200   1.493   0.318   3.660  0.3070  0.4727 -0.2191
  108ANI     C7 2201   1.551   0.423   3.592  0.3745 -0.2486 -0.0237
  108ANI     H1 2202   1.663   0.750   3.378 -0.0379  0.2219  1.4178
  108ANI     H2 2203   1.679   0.682   3.533  1.5966  0.1799 -0.4476
  108ANI     H3 2204   1.728   0.579   3.393 -2.3704 -1.4612 -2.0298
  108ANI     H4 2205   1.279   0.552   3.437 -1.1399 -0.2802  0.9431
  108ANI     H5 2206   1.170   0.363   3.553  0.3942 -0.5794  0.4974
  108ANI     H6 2207   1.303   0.217   3.709 -0.9560 -0.3892  0.2836
  108ANI     H7 2208   1.557   0.260   3.726  1.5541  2.3687  0.2832
  108ANI     H8 2209   1.658   0.435   3.583  0.4620 -1.3439 -0.5244
  109ANI     C1 2210   1.905   1.122   1.563 -0.0847  0.5111 -0.7035
  109ANI     O1 2211   2.025   1.175   1.499  0.4515 -0.0540  0.0048
  109ANI     C2 2212   2.069   1.113   1.383 -0.1767 -1.0712 -0.3834
  109ANI     C3 2213   2.061   0.975   1.367 -0.2058 -0.0011  0.2320
  109ANI     C4 2214   2.126   0.917   1.257 -0.6220 -0.1602  0.9461
  109ANI     C5 2215   2.208   0.992   1.165  0.7000  0.5679  0.0110
  109ANI     C6 2216   2.217   1.135   1.181  0.4104 -0.4056 -0.0102
  109ANI     C7 2217   2.142   1.197   1.293 -0.2219 -0.1023  0.2985
  109ANI     H1 2218   1.937   1.041   1.629  1.1567  0.5540 -1.2426
  109ANI     H2 2219   1.852   1.197   1.623 -0.1139  0.1559 -0.2873
  109ANI     H3 2220   1.844   1.083   1.480  0.4573 -2.5248  0.2588
  109ANI     H4 2221   2.004   0.917   1.438 -2.3841  1.1840 -0.5203
  109ANI     H5 2222   2.114   0.810   1.244 -0.4299 -0.3355  2.1017
  109ANI     H6 2223   2.266   0.938   1.090  1.8652  2.4146 -0.4392
  109ANI     H7 2224   2.277   1.201   1.119  0.7447 -1.4123 -0.7887
  109ANI     H8 2225   2.135   1.303   1.317 -0.4417  0.0785 -0.5600
  110ANI     C1 2226   0.356   0.853   0.867  0.0657 -0.0069 -0.4517
  110ANI     O1 2227   0.383   0.939   0.981 -0.3204 -0.0325 -0.2399
  110ANI     C2 2228   0.279   1.003   1.048 -1.2055 -0.1959 -0.3323
  110ANI     C3 2229   0.144   0.996   1.003  0.7091 -0.1820  0.2685
  110ANI     C4 2230   0.043   1.058   1.070  0.4352  0.0284  0.4701
  110ANI     C5 2231   0.073   1.142   1.178  1.1919 -0.2970 -0.5123
  110ANI     C6 2232   0.204   1.148   1.223  0.3839  0.2789  0.0008
  110ANI     C7 2233   0.312   1.083   1.156  0.4115  0.8306 -0.2141
  110ANI     H1 2234   0.296   0.766   0.893 -1.3556  1.0792 -0.0126
  110ANI     H2 2235   0.302   0.906   0.787 -1.2028  0.6013  0.7836
  110ANI     H3 2236   0.450   0.822   0.820  2.4291  1.5025  3.0529
  110ANI     H4 2237   0.119   0.939   0.914 -0.3782  0.8210 -0.0807
  110ANI     H5 2238  -0.056   1.058   1.028  0.2368 -0.3838  0.9349
  110ANI     H6 2239  -0.011   1.194   1.223 -0.8072 -2.1114 -2.0575
  110ANI     H7 2240   0.222   1.221   1.301  0.9266  0.0112  0.1265
  110ANI     H8 2241   0.415   1.104   1.185  1.1024 -1.4550 -0.8801
  111ANI     C1 2242   3.314   1.934   1.006  0.1659  0.1587 -0.7379
  111ANI     O1 2243   3.214   2.016   1.060  0.2635  0.5343 -0.6373
  111ANI     C2 2244   3.254   2.124   1.135  0.1019 -0.0732  0.8688
  111ANI     C3 2245   3.390   2.147   1.175  0.2698  0.3958  0.3367
  111ANI     C4 2246   3.425   2.270   1.229 -0.3631 -0.5612  0.9330
  111ANI     C5 2247   3.332   2.369   1.263  0.4454 -0.3512  0.1781
  111ANI     C6 2248   3.197   2.355   1.221 -0.5848  0.3394  0.1328
  111ANI     C7 2249   3.159   2.234   1.161  0.4285 -0.0438 -0.8793
  111ANI     H1 2250   3.372   1.890   1.088 -0.2844 -0.0622 -0.5393
  111ANI     H2 2251   3.275   1.850   0.948 -1.4095  0.1202  0.3423
  111ANI     H3 2252   3.391   1.994   0.956  1.4425  0.0542  1.0422
  111ANI     H4 2253   3.474   2.083   1.150  0.7237  0.3081  2.0249
  111ANI     H5 2254   3.528   2.294   1.251 -0.4994 -0.4554  1.4727
  111ANI     H6 2255   3.369   2.455   1.317 -1.0430  0.0111  0.6494
  111ANI     H7 2256   3.127   2.437   1.229  1.1879  2.0195 -1.4076
  111ANI     H8 2257   3.058   2.235   1.120  0.1794  2.7949 -0.2433
  112ANI     C1 2258   0.781   3.205   0.147  0.1416 -0.3249 -0.0949
  112ANI     O1 2259   0.824   3.287   0.262 -0.2677 -0.1395  0.0591
  112ANI     C2 2260   0.942   3.271   0.328 -0.2864 -0.5046 -0.1861
  112ANI     C3 2261   1.049   3.203   0.274 -0.7222  0.1147  0.5064
  112ANI     C4 2262   1.171   3.193   0.346  0.1652  0.2511  0.4364
  112ANI     C5 2263   1.182   3.263   0.466  0.4417  0.1941 -0.4118
  112ANI     C6 2264   1.078   3.334   0.521  0.8362  0.2075  0.7326
  112ANI     C7 2265   0.962   3.340   0.451 -0.1389  0.4416  0.5245
  112ANI     H1 2266   0.680   3.234   0.116 -0.5368 -2.1456  0.3474
  112ANI     H2 2267   0.851   3.216   0.062  0.8811  1.1657  0.6914
  112ANI     H3 2268   0.783   3.099   0.176  0.4627 -0.0006  1.0738
  112ANI     H4 2269   1.030   3.146   0.184  0.4644  1.5477 -0.6668
  112ANI     H5 2270   1.261   3.144   0.311 -0.8822 -1.8161  0.5240
  112ANI     H6 2271   1.273   3.268   0.526  0.9083 -0.8114 -1.0230
  112ANI     H7 2272   1.082   3.388   0.615  1.2102 -0.8045  1.3031
  112ANI     H8 2273   0.872   3.378   0.499 -0.2515 -1.1633  1.6557
  113ANI     C1 2274   0.685   1.534   0.208  0.2852  0.2986  0.2280
  113ANI     O1 2275   0.820   1.517   0.190  0.6189  0.2861  0.1793
  113ANI     C2 2276   0.870   1.390   0.161  0.2738 -1.1227 -0.6595
  113ANI     C3 2277   0.820   1.309   0.056 -0.7304 -0.7060  0.2186
  113ANI     C4 2278   0.883   1.186   0.026  0.0319  0.8259  0.0615
  113ANI     C5 2279   0.991   1.136   0.094  0.9090  0.4577  0.4585
  113ANI     C6 2280   1.048   1.215   0.200 -0.7102  0.3164 -0.1401
  113ANI     C7 2281   0.983   1.338   0.232  0.3257 -0.0575 -0.1631
  113ANI     H1 2282   0.641   1.448   0.260 -0.5328 -0.1522 -1.1457
  113ANI     H2 2283   0.661   1.622   0.270  2.5726 -0.3920  2.1351
  113ANI     H3 2284   0.642   1.534   0.106 -1.2848  1.3658  0.8674
  113ANI     H4 2285   0.738   1.345  -0.007  1.0985  1.5459 -0.9317
  113ANI     H5 2286   0.841   1.124  -0.053 -2.0705  1.3742  0.7329
  113ANI     H6 2287   1.028   1.039   0.062  1.2007  0.4972  0.6747
  113ANI     H7 2288   1.126   1.184   0.269  0.1390  0.6301 -0.9661
  113ANI     H8 2289   1.017   1.391   0.321 -1.2211  1.1049 -0.2565
  114ANI     C1 2290   1.596   2.931   3.449  0.2622 -0.6858  0.0750
  114ANI     O1 2291   1.717   2.946   3.527 -0.8273 -0.5616  0.1374
  114ANI     C2 2292   1.771   2.859   3.611 -0.4459 -0.6072  0.3782
  114ANI     C3 2293   1.720   2.732   3.632 -0.7842  0.2380  0.2286
  114ANI     C4 2294   1.760   2.652   3.743 -0.1978  0.4035 -0.0151
  114ANI     C5 2295   1.869   2.696   3.821 -0.2874 -0.4985 -0.4540
  114ANI     C6 2296   1.930   2.817   3.783 -0.5368 -0.0186  0.5447
  114ANI     C7 2297   1.886   2.894   3.677  0.1127 -0.7460  0.0388
  114ANI     H1 2298   1.565   3.028   3.409 -0.5577  0.3405  3.0370
  114ANI     H2 2299   1.599   2.851   3.374 -1.3591 -1.8889  1.2428
  114ANI     H3 2300   1.510   2.905   3.513 -1.3835  0.2278 -1.6973
  114ANI     H4 2301   1.632   2.704   3.574 -0.0030  2.2745 -2.0211
  114ANI     H5 2302   1.700   2.564   3.760 -0.5445  0.9707  1.8308
  114ANI     H6 2303   1.890   2.649   3.917 -2.8236 -1.7520 -0.4610
  114ANI     H7 2304   2.005   2.854   3.852 -0.2220  1.2228 -0.4489
  114ANI     H8 2305   1.926   2.994   3.659 -1.7739  0.1887  0.8550
  115ANI     C1 2306   2.841   1.135   3.106 -0.3585  0.6796  0.4192
  115ANI     O1 2307   2.737   1.226   3.145 -0.1218  0.3325  0.6944
  115ANI     C2 2308   2.615   1.187   3.201  0.0527  0.2821 -0.2269
  115ANI     C3 2309   2.540   1.295   3.243 -0.2123 -0.3272  0.3562
  115ANI     C4 2310   2.410   1.278   3.301  0.1511 -0.0216  0.0811
  115ANI     C5 2311   2.360   1.150   3.316  0.0058  0.6214 -0.2416
  115ANI     C6 2312   2.445   1.039   3.288 -0.0096  0.2470 -0.0290
  115ANI     C7 2313   2.571   1.057   3.220  0.6303  1.2627  0.5291
  115ANI     H1 2314   2.793   1.047   3.061 -0.3445  0.7545  0.2595
  115ANI     H2 2315   2.902   1.190   3.034 -0.7535 -0.1604 -0.5679
  115ANI     H3 2316   2.898   1.116   3.197 -1.6579  0.4047  1.1955
  115ANI     H4 2317   2.592   1.388   3.225  0.3290 -0.4355  1.3204
  115ANI     H5 2318   2.351   1.364   3.332 -1.0084 -1.0847  0.8297
  115ANI     H6 2319   2.264   1.127   3.360  0.2611 -1.7941 -0.8888
  115ANI     H7 2320   2.412   0.936   3.298 -0.6674  0.1732 -2.7015
  115ANI     H8 2321   2.634   0.974   3.191 -0.5836  0.7294 -0.6360
  116ANI     C1 2322   2.279   0.004   0.802  0.0175  0.2361  0.1405
  116ANI     O1 2323   2.407   0.010   0.741 -0.1371 -0.1850  0.1777
  116ANI     C2 2324   2.444  -0.070   0.630 -0.2982 -0.3219 -0.6958
  116ANI     C3 2325   2.351  -0.158   0.568 -0.0353 -0.2578  0.0344
  116ANI     C4 2326   2.391  -0.232   0.456  0.5842 -0.3153 -0.2539
  116ANI     C5 2327   2.524  -0.224   0.414 -0.2382 -0.3962  0.6378
  116ANI     C6 2328   2.615  -0.131   0.477  0.0353 -0.2364  0.6381
  116ANI     C7 2329   2.576  -0.051   0.581 -0.0443  0.2991 -0.6317
  116ANI     H1 2330   2.253  -0.099   0.830 -0.4470  0.6376  1.2222
  116ANI     H2 2331   2.255   0.066   0.889  0.9598 -0.7250  1.0931
  116ANI     H3 2332   2.210   0.039   0.724 -2.1542 -0.3667  1.7306
  116ANI     H4 2333   2.248  -0.170   0.599 -0.5732  1.4180 -1.0007
  116ANI     H5 2334   2.324  -0.308   0.417  0.8512  0.0731 -1.4736
  116ANI     H6 2335   2.564  -0.286   0.334 -2.7202 -0.3814 -0.7015
  116ANI     H7 2336   2.721  -0.129   0.452  0.0234 -1.4279  0.4439
  116ANI     H8 2337   2.641   0.024   0.626  1.6948 -1.4333 -0.1866
  117ANI     C1 2338   0.176   0.422   3.168 -0.1515 -0.0761 -0.0202
  117ANI     O1 2339   0.252   0.511   3.080  0.1380  1.2605  0.1900
  117ANI     C2 2340   0.361   0.583   3.121  0.3141  0.4978  0.9159
  117ANI     C3 2341   0.406   0.593   3.258 -0.3867 -0.7782 -0.6679
  117ANI     C4 2342   0.512   0.690   3.291  0.1956  0.0504 -0.3442
  117ANI     C5 2343   0.574   0.765   3.191 -0.2703  0.3571 -0.9000
  117ANI     C6 2344   0.528   0.743   3.059  0.0893  0.1066  0.5253
  117ANI     C7 2345   0.425   0.661   3.023  0.5763 -0.2959 -0.3300
  117ANI     H1 2346   0.248   0.344   3.197 -1.7890 -1.2340  1.0054
  117ANI     H2 2347   0.125   0.467   3.255 -1.2414 -2.5917  0.6798
  117ANI     H3 2348   0.093   0.381   3.110 -1.1472  1.3142  0.3753
  117ANI     H4 2349   0.359   0.527   3.331 -0.5764  1.4166  1.2246
  117ANI     H5 2350   0.545   0.716   3.391  0.6127  2.0184 -0.9639
  117ANI     H6 2351   0.653   0.834   3.216 -1.2336  0.9565  0.5282
  117ANI     H7 2352   0.578   0.796   2.979  0.8846 -0.2537  0.7654
  117ANI     H8 2353   0.402   0.644   2.918  0.2141 -1.1667 -0.1149
  118ANI     C1 2354   0.537   3.283   0.506  0.0951  0.0336 -0.3246
  118ANI     O1 2355   0.403   3.323   0.538  0.7021 -0.6126  0.3684
  118ANI     C2 2356   0.362   3.455   0.508  0.2830  0.4590 -0.0708
  118ANI     C3 2357   0.451   3.552   0.459  0.4496 -0.0490 -1.3346
  118ANI     C4 2358   0.404   3.681   0.433  0.6647 -0.0202  0.1913
  118ANI     C5 2359   0.264   3.708   0.448  0.2819 -0.2820  0.3039
  118ANI     C6 2360   0.177   3.611   0.502  0.3268  0.0840  0.6882
  118ANI     C7 2361   0.229   3.487   0.536  0.0691  0.5042  0.1258
  118ANI     H1 2362   0.547   3.313   0.401  0.9258 -0.2461 -0.3315
  118ANI     H2 2363   0.604   3.324   0.583 -0.5606  0.3749  0.0648
  118ANI     H3 2364   0.554   3.176   0.520  0.9267  0.1262 -0.6004
  118ANI     H4 2365   0.558   3.534   0.451  1.2669  2.7528  2.0911
  118ANI     H5 2366   0.482   3.753   0.407  2.3016 -0.0809  4.5334
  118ANI     H6 2367   0.227   3.808   0.428  2.5336  0.2610 -1.3282
  118ANI     H7 2368   0.072   3.633   0.519  0.0665  0.5394 -1.3877
  118ANI     H8 2369   0.172   3.403   0.574 -0.2801  0.1680 -1.1179
  119ANI     C1 2370   0.162   1.710   0.338 -0.3400  0.1771 -0.8520
  119ANI     O1 2371   0.270   1.713   0.248  0.3071 -0.2477 -0.0275
  119ANI     C2 2372   0.270   1.623   0.141 -0.4672  0.2693  0.3353
  119ANI     C3 2373   0.371   1.624   0.041 -0.2484  0.7854 -0.2420
  119ANI     C4 2374   0.368   1.542  -0.070  0.5046  0.0653  0.0715
  119ANI     C5 2375   0.261   1.452  -0.096  0.7711 -0.3756  1.0270
  119ANI     C6 2376   0.156   1.446  -0.002  0.1439  0.1570 -0.4174
  119ANI     C7 2377   0.162   1.524   0.115  0.1129  0.4564 -0.0624
  119ANI     H1 2378   0.068   1.730   0.285 -0.6858 -0.6465 -0.5625
  119ANI     H2 2379   0.159   1.617   0.396  0.1793  0.9764  0.4848
  119ANI     H3 2380   0.159   1.794   0.408  2.3772  0.3021 -0.8341
  119ANI     H4 2381   0.449   1.699   0.049 -0.2061  0.8315 -1.0156
  119ANI     H5 2382   0.451   1.540  -0.141  0.1360 -0.0231 -0.3584
  119ANI     H6 2383   0.256   1.383  -0.180  0.4401 -0.1788  0.8815
  119ANI     H7 2384   0.073   1.378  -0.017 -0.3294  0.8009 -0.7713
  119ANI     H8 2385   0.076   1.523   0.181  0.3521  0.2258  0.2480
  120ANI     C1 2386   0.791   0.961   0.338 -0.0140 -0.4165 -0.0256
  120ANI     O1 2387   0.718   0.950   0.464  0.1958 -0.3235 -0.2054
  120ANI     C2 2388   0.765   0.860   0.553  0.5283 -0.2171  0.4643
  120ANI     C3 2389   0.866   0.761   0.540 -0.0316  0.4134  0.2175
  120ANI     C4 2390   0.899   0.670   0.642  0.3308 -0.8362  0.3652
  120ANI     C5 2391   0.842   0.685   0.760 -0.4428  0.5126  0.0845
  120ANI     C6 2392   0.740   0.776   0.782  1.2361  0.4696 -0.5173
  120ANI     C7 2393   0.697   0.855   0.676  0.0251  0.1946  0.3779
  120ANI     H1 2394   0.737   1.045   0.292 -0.2751  0.5847  2.0283
  120ANI     H2 2395   0.898   0.981   0.349 -0.6836  1.8299  2.9997
  120ANI     H3 2396   0.773   0.875   0.272  1.1946 -0.3875 -0.3988
  120ANI     H4 2397   0.905   0.759   0.439 -2.7566  2.1371 -0.9331
  120ANI     H5 2398   0.984   0.607   0.618  1.3220  1.4345 -2.3960
  120ANI     H6 2399   0.893   0.623   0.834  0.2954 -1.8143 -2.2895
  120ANI     H7 2400   0.689   0.776   0.878  0.9699 -0.1620 -0.6532
  120ANI     H8 2401   0.615   0.925   0.693 -0.4231 -0.2097 -0.1280
  121ANI     C1 2402   0.545   3.254   3.019  0.3495  0.1885 -0.0113
  121ANI     O1 2403   0.506   3.336   2.908 -0.0131  0.8959  0.6401
  121ANI     C2 2404   0.583   3.350   2.793 -0.0689 -0.5950  0.1801
  121ANI     C3 2405   0.523   3.414   2.686  0.4485 -0.4101 -0.2284
  121ANI     C4 2406   0.596   3.446   2.573  0.0636 -0.1878 -0.2895
  121ANI     C5 2407   0.731   3.407   2.563 -0.2361 -0.0397 -0.1407
  121ANI     C6 2408   0.789   3.333   2.665 -0.4123  0.5236 -0.0005
  121ANI     C7 2409   0.714   3.303   2.780 -0.1972 -0.0512  0.2042
  121ANI     H1 2410   0.650   3.273   3.043  1.1245 -1.1161 -2.2425
  121ANI     H2 2411   0.470   3.268   3.097 -0.3551  0.9390 -0.8092
  121ANI     H3 2412   0.538   3.150   2.984  0.7170  0.2119 -0.1600
  121ANI     H4 2413   0.423   3.454   2.697  0.6953  0.9324 -2.6501
  121ANI     H5 2414   0.546   3.512   2.503  2.9905  2.2986 -0.0979
  121ANI     H6 2415   0.791   3.441   2.479  0.0871  0.4270  0.2736
  121ANI     H7 2416   0.892   3.303   2.650 -0.9131 -0.4110 -1.7199
  121ANI     H8 2417   0.757   3.248   2.863  0.5987 -0.0713 -0.2197
  122ANI     C1 2418   2.744   2.076   0.065 -0.0354  0.0231  0.0566
  122ANI     O1 2419   2.872   2.128   0.066 -0.7836 -0.5471 -0.3415
  122ANI     C2 2420   2.895   2.266   0.093 -0.3382 -0.6877 -0.1007
  122ANI     C3 2421   2.787   2.352   0.126 -0.0809  0.8379  0.6482
  122ANI     C4 2422   2.814   2.481   0.166  0.5820 -0.2329  0.0736
  122ANI     C5 2423   2.944   2.533   0.169 -0.0663 -0.0969  0.0974
  122ANI     C6 2424   3.054   2.454   0.121 -0.5069  0.0937  0.0336
  122ANI     C7 2425   3.028   2.316   0.091 -0.5545 -0.1735 -0.0790
  122ANI     H1 2426   2.691   2.081   0.161 -0.7327 -0.6175 -0.2879
  122ANI     H2 2427   2.679   2.128  -0.006  1.6131 -1.0139 -2.2737
  122ANI     H3 2428   2.748   1.973   0.028 -0.8686 -0.5450  1.4988
  122ANI     H4 2429   2.687   2.310   0.134 -0.4405  1.8030  1.2308
  122ANI     H5 2430   2.730   2.541   0.198  0.1705 -1.7946  2.0603
  122ANI     H6 2431   2.956   2.638   0.195  1.6416  0.3541 -2.3523
  122ANI     H7 2432   3.157   2.489   0.121 -0.3411 -0.3600  0.9002
  122ANI     H8 2433   3.112   2.251   0.070  0.5024  0.3336  2.4226
  123ANI     C1 2434   2.709   1.017   2.577  0.3913 -0.3643  0.1250
  123ANI     O1 2435   2.759   1.151   2.543 -0.5332  0.1334 -0.6839
  123ANI     C2 2436   2.741   1.254   2.625  0.3125 -0.2589  0.0263
  123ANI     C3 2437   2.649   1.248   2.737  0.0793 -0.8279  0.0689
  123ANI     C4 2438   2.632   1.371   2.817  0.1012 -0.5986  0.1454
  123ANI     C5 2439   2.697   1.489   2.780 -0.6228  0.7236 -0.5257
  123ANI     C6 2440   2.792   1.486   2.675 -0.0102  0.0098 -0.3401
  123ANI     C7 2441   2.812   1.369   2.606  0.1775 -0.2124 -0.1507
  123ANI     H1 2442   2.724   0.987   2.682  0.2519 -1.1160 -0.0670
  123ANI     H2 2443   2.602   1.021   2.556  0.2867 -3.5297 -0.1501
  123ANI     H3 2444   2.743   0.938   2.509  0.8954 -0.0086 -0.0405
  123ANI     H4 2445   2.590   1.161   2.764 -2.1341  0.2902 -1.0775
  123ANI     H5 2446   2.572   1.364   2.907 -0.5866  0.0956 -0.2491
  123ANI     H6 2447   2.686   1.582   2.835  0.2047  0.0274  0.8452
  123ANI     H7 2448   2.847   1.574   2.644  2.5302 -1.0401  0.9678
  123ANI     H8 2449   2.879   1.363   2.521  0.4044  1.3302 -0.0804
  124ANI     C1 2450   3.239   0.520   1.491 -0.1153 -0.4058  0.0786
  124ANI     O1 2451   3.169   0.625   1.562 -0.2361 -0.1671  0.3629
  124ANI     C2 2452   3.030   0.632   1.558 -0.5197 -0.0306 -0.3263
  124ANI     C3 2453   2.946   0.523   1.538 -0.2393  0.2100  0.5440
  124ANI     C4 2454   2.808   0.526   1.563  0.2514 -0.1990  0.3878
  124ANI     C5 2455   2.752   0.653   1.581  0.1409  0.3880 -0.2244
  124ANI     C6 2456   2.835   0.766   1.604 -0.2696 -0.1894  0.2305
  124ANI     C7 2457   2.973   0.759   1.593 -1.0051  0.6477  0.4538
  124ANI     H1 2458   3.347   0.525   1.512  0.0708 -1.7407 -0.4851
  124ANI     H2 2459   3.198   0.423   1.522  0.0540 -0.4257  0.2416
  124ANI     H3 2460   3.234   0.530   1.382  1.0018  0.2149  0.0800
  124ANI     H4 2461   2.979   0.423   1.513  0.6600  0.6916 -0.1891
  124ANI     H5 2462   2.746   0.439   1.542  0.0688  0.5413 -2.2198
  124ANI     H6 2463   2.648   0.659   1.610  0.3739 -1.7000  1.1455
  124ANI     H7 2464   2.808   0.861   1.649  1.4815  0.8848 -0.9357
  124ANI     H8 2465   3.038   0.846   1.604 -1.3196  0.9420  0.0112
  125ANI     C1 2466   3.153   0.012   0.500 -0.0998  0.1690 -0.1140
  125ANI     O1 2467   3.245  -0.056   0.585  0.8490 -0.1488  0.4563
  125ANI     C2 2468   3.305  -0.002   0.700  0.2237  0.2126 -0.1481
  125ANI     C3 2469   3.290   0.136   0.737  0.1162  0.4658 -0.2616
  125ANI     C4 2470   3.351   0.187   0.852 -0.6717  0.2454  0.0811
  125ANI     C5 2471   3.443   0.101   0.927 -0.1180 -0.1612  0.3901
  125ANI     C6 2472   3.459  -0.034   0.890  0.4240  0.1191  0.3086
  125ANI     C7 2473   3.381  -0.086   0.783  0.0420 -0.3895 -0.5698
  125ANI     H1 2474   3.091   0.087   0.550 -2.1222 -1.5792  0.0747
  125ANI     H2 2475   3.216   0.040   0.414 -0.3423 -1.5229 -0.8770
  125ANI     H3 2476   3.076  -0.048   0.449  0.8393  1.4827 -3.2336
  125ANI     H4 2477   3.233   0.201   0.671  1.7175  0.2974 -1.8460
  125ANI     H5 2478   3.346   0.294   0.871 -0.5474  0.2465  0.1070
  125ANI     H6 2479   3.482   0.133   1.022  1.3032  0.8811 -0.5234
  125ANI     H7 2480   3.522  -0.093   0.957 -1.2230  0.7776  2.5150
  125ANI     H8 2481   3.380  -0.192   0.756  1.4246 -0.1454 -1.6305
  126ANI     C1 2482   2.809   0.921   0.079  0.0059 -0.3913 -0.2987
  126ANI     O1 2483   2.726   0.903   0.201 -0.1378 -0.0997 -0.1963
  126ANI     C2 2484   2.588   0.893   0.209 -0.0882  0.7823 -0.0300
  126ANI     C3 2485   2.518   0.860   0.094  0.0914  0.5607  0.2577
  126ANI     C4 2486   2.374   0.849   0.098 -0.0033 -0.5950  0.6574
  126ANI     C5 2487   2.314   0.866   0.220  0.3872 -0.1176 -0.4359
  126ANI     C6 2488   2.387   0.907   0.335  0.0784  1.1110  0.1128
  126ANI     C7 2489   2.523   0.919   0.332 -0.0097  0.3744 -0.1674
  126ANI     H1 2490   2.784   0.828   0.026  1.1475 -1.8310  1.6360
  126ANI     H2 2491   2.770   1.004   0.019 -0.7417 -1.2702 -1.0430
  126ANI     H3 2492   2.914   0.932   0.109  0.1106 -1.8951 -0.0911
  126ANI     H4 2493   2.568   0.841  -0.000 -0.3345 -0.8719  0.2978
  126ANI     H5 2494   2.322   0.819   0.007 -2.7928  2.6631  1.0600
  126ANI     H6 2495   2.209   0.844   0.233  0.1838  0.5375 -0.9090
  126ANI     H7 2496   2.333   0.920   0.428 -1.1513 -3.3161  0.1049
  126ANI     H8 2497   2.579   0.927   0.425 -0.0347 -0.9219 -0.0310
  127ANI     C1 2498   3.397   0.146   2.290 -0.0111  0.1831  0.2992
  127ANI     O1 2499   3.396   0.285   2.253  0.1403 -0.5216 -0.2502
  127ANI     C2 2500   3.281   0.361   2.239  0.0011 -0.0893  0.3309
  127ANI     C3 2501   3.154   0.304   2.238 -0.0526 -0.1110 -0.0013
  127ANI     C4 2502   3.043   0.393   2.234  0.3997  0.1518 -0.3999
  127ANI     C5 2503   3.064   0.538   2.227  0.2256  0.6099  0.9381
  127ANI     C6 2504   3.196   0.590   2.232  0.4627 -0.9081 -0.0369
  127ANI     C7 2505   3.306   0.500   2.240  0.8223 -0.8680  0.0785
  127ANI     H1 2506   3.351   0.080   2.215  2.1540 -1.2785  0.1951
  127ANI     H2 2507   3.498   0.113   2.318  0.2553  1.5094  0.9095
  127ANI     H3 2508   3.347   0.130   2.386 -2.7096  1.0442 -0.9293
  127ANI     H4 2509   3.136   0.199   2.257 -0.5952  0.4926  3.1096
  127ANI     H5 2510   2.937   0.369   2.234  0.2391  0.8228  0.4770
  127ANI     H6 2511   2.979   0.602   2.210 -0.8810 -0.5643  1.9025
  127ANI     H7 2512   3.207   0.695   2.209 -2.2109 -0.0132  2.4668
  127ANI     H8 2513   3.408   0.537   2.246  0.1056  0.8658  2.0108
  128ANI     C1 2514   0.402   1.220   1.544  0.0841  0.4257 -0.1441
  128ANI     O1 2515   0.316   1.327   1.553  0.5089  0.1649 -0.3760
  128ANI     C2 2516   0.366   1.458   1.566  0.3928  0.0262 -0.2727
  128ANI     C3 2517   0.498   1.487   1.556  0.6304 -0.3461  1.1648
  128ANI     C4 2518   0.530   1.626   1.581 -0.7325 -0.6403  0.9564
  128ANI     C5 2519   0.433   1.728   1.607 -0.2692 -0.2761  1.1216
  128ANI     C6 2520   0.302   1.692   1.617  0.0166  0.2014  0.1565
  128ANI     C7 2521   0.266   1.556   1.588  0.4238 -0.5742 -0.2642
  128ANI     H1 2522   0.462   1.239   1.454 -2.4407 -0.7603 -2.1555
  128ANI     H2 2523   0.464   1.207   1.633 -0.2172  0.2329  0.0410
  128ANI     H3 2524   0.340   1.130   1.531  2.0992 -1.0847  0.4479
  128ANI     H4 2525   0.580   1.415   1.556 -0.4883 -1.6656  2.7810
  128ANI     H5 2526   0.636   1.651   1.581 -0.5904 -1.0183 -1.6523
  128ANI     H6 2527   0.468   1.830   1.622 -2.3590  0.7229 -0.5051
  128ANI     H7 2528   0.226   1.769   1.629 -2.2826 -1.9102 -0.4737
  128ANI     H8 2529   0.164   1.520   1.597  1.8350 -4.4420  1.3242
  129ANI     C1 2530   0.141   3.311   2.787 -0.0700  0.1705 -0.0279
  129ANI     O1 2531   0.037   3.325   2.689  0.0142 -0.7174  0.3642
  129ANI     C2 2532   0.070   3.312   2.552  0.2174  0.0190  0.7245
  129ANI     C3 2533   0.199   3.286   2.503 -0.3941 -0.3066  0.1991
  129ANI     C4 2534   0.215   3.239   2.371 -0.1366 -0.6311 -0.2547
  129ANI     C5 2535   0.102   3.239   2.289 -0.4679 -1.0874  0.0358
  129ANI     C6 2536  -0.020   3.264   2.332  0.2383  0.6672  0.1242
  129ANI     C7 2537  -0.038   3.309   2.462 -0.3981  0.1102 -0.3610
  129ANI     H1 2538   0.235   3.356   2.753 -0.2116 -1.1962 -2.3413
  129ANI     H2 2539   0.109   3.358   2.881 -0.4866  1.3134 -0.7228
  129ANI     H3 2540   0.160   3.206   2.811 -0.0385  0.3696  0.8438
  129ANI     H4 2541   0.290   3.287   2.562 -0.2752 -3.5364  0.1872
  129ANI     H5 2542   0.314   3.221   2.331  0.6604  0.3704  1.2320
  129ANI     H6 2543   0.112   3.203   2.187 -1.5782 -1.3323 -0.0016
  129ANI     H7 2544  -0.108   3.250   2.270  0.7272  2.7714 -1.0703
  129ANI     H8 2545  -0.141   3.320   2.494  0.4113 -0.4972  2.6168
  130ANI     C1 2546   2.417   0.258   0.349  0.0025 -0.2506  0.3568
  130ANI     O1 2547   2.450   0.384   0.402 -0.4293  0.0022  0.5010
  130ANI     C2 2548   2.426   0.411   0.527  0.6012 -0.4035 -0.4727
  130ANI     C3 2549   2.434   0.543   0.565 -0.2393 -0.2459 -0.5932
  130ANI     C4 2550   2.411   0.579   0.704  0.3824 -0.4939  0.5736
  130ANI     C5 2551   2.376   0.478   0.801  0.8330 -0.2428 -0.3725
  130ANI     C6 2552   2.367   0.348   0.758  0.1968  0.6289 -0.0789
  130ANI     C7 2553   2.393   0.308   0.627 -0.0427 -0.0165 -0.0141
  130ANI     H1 2554   2.315   0.232   0.378  0.0091  2.4682  3.0446
  130ANI     H2 2555   2.429   0.263   0.240 -0.8008  5.4922  0.3975
  130ANI     H3 2556   2.478   0.173   0.384  0.4383 -1.5611 -3.3013
  130ANI     H4 2557   2.467   0.613   0.489  3.2011 -2.7325 -1.5716
  130ANI     H5 2558   2.419   0.679   0.746  1.9115 -0.1553 -0.4832
  130ANI     H6 2559   2.369   0.506   0.905 -0.8107 -1.1789 -0.2092
  130ANI     H7 2560   2.343   0.274   0.833  0.0525  1.2388  0.4857
  130ANI     H8 2561   2.393   0.202   0.602  1.9589 -0.0551  0.0637
  131ANI     C1 2562   1.733   0.406   2.562  0.2841  0.1596 -0.1971
  131ANI     O1 2563   1.674   0.373   2.433 -0.0608  0.3558 -0.3586
  131ANI     C2 2564   1.541   0.385   2.407  0.5246 -0.4405 -0.1867
  131ANI     C3 2565   1.454   0.454   2.497  0.5150 -0.6805  0.4062
  131ANI     C4 2566   1.319   0.456   2.472  1.1604  0.7885  0.6300
  131ANI     C5 2567   1.266   0.413   2.353  0.0515  0.4037  0.3762
  131ANI     C6 2568   1.347   0.358   2.259 -0.2158  0.4456 -0.1783
  131ANI     C7 2569   1.486   0.344   2.283 -0.2496 -0.0682  0.2999
  131ANI     H1 2570   1.694   0.357   2.652  0.0744 -0.6300 -0.7062
  131ANI     H2 2571   1.836   0.368   2.560 -0.0796 -0.8960  0.5574
  131ANI     H3 2572   1.744   0.515   2.568 -0.6169  0.3327 -1.4220
  131ANI     H4 2573   1.483   0.493   2.594  1.6054  0.5386 -0.3922
  131ANI     H5 2574   1.250   0.497   2.546 -0.4351 -2.2418  0.8872
  131ANI     H6 2575   1.160   0.421   2.329  0.1814 -1.6372 -1.1017
  131ANI     H7 2576   1.299   0.324   2.168 -1.9196  0.4295  0.6993
  131ANI     H8 2577   1.552   0.301   2.208  1.4191  0.9609  1.1603
  132ANI     C1 2578   1.851   1.319   1.129  0.3770  0.6132 -0.0673
  132ANI     O1 2579   1.772   1.438   1.160  0.1661 -0.0650  0.3304
  132ANI     C2 2580   1.769   1.485   1.287  0.3871 -1.0238 -0.5429
  132ANI     C3 2581   1.822   1.421   1.403 -0.3867 -0.5599  0.0896
  132ANI     C4 2582   1.816   1.482   1.525  0.5881  0.5849 -0.0055
  132ANI     C5 2583   1.760   1.615   1.532 -0.2096  1.7394 -0.2817
  132ANI     C6 2584   1.708   1.679   1.419  1.0180 -0.2212 -0.2561
  132ANI     C7 2585   1.707   1.613   1.298 -0.2585 -0.0980  0.0885
  132ANI     H1 2586   1.955   1.339   1.160  0.9939 -0.6480 -1.2656
  132ANI     H2 2587   1.803   1.226   1.162 -0.0260  0.6754 -0.4807
  132ANI     H3 2588   1.857   1.293   1.023  1.6168 -4.5309  1.0944
  132ANI     H4 2589   1.871   1.326   1.385  0.2704 -0.2936  0.4178
  132ANI     H5 2590   1.871   1.439   1.607 -0.6492 -1.7485 -0.3657
  132ANI     H6 2591   1.767   1.677   1.621 -2.1796  1.6336 -0.0087
  132ANI     H7 2592   1.668   1.780   1.431 -0.1436 -0.6903 -0.1385
  132ANI     H8 2593   1.679   1.662   1.205  1.3095 -1.4142 -1.1113
  133ANI     C1 2594   1.563   3.281   2.304  0.1637 -0.7124 -0.4950
  133ANI     O1 2595   1.438   3.210   2.283  0.1902 -0.5487 -0.3256
  133ANI     C2 2596   1.315   3.276   2.271  0.2220  0.3693 -0.1354
  133ANI     C3 2597   1.195   3.205   2.230 -0.3458  0.0834  0.1097
  133ANI     C4 2598   1.067   3.266   2.225 -1.0498  0.0911 -0.1694
  133ANI     C5 2599   1.062   3.403   2.248 -0.7290  1.5510 -0.8364
  133ANI     C6 2600   1.175   3.476   2.280 -0.3990 -0.2310  0.4978
  133ANI     C7 2601   1.301   3.414   2.303  0.3243  0.5086  0.3169
  133ANI     H1 2602   1.575   3.332   2.401 -1.3276  0.9860 -1.1626
  133ANI     H2 2603   1.639   3.203   2.294 -0.9521 -1.7215 -1.1904
  133ANI     H3 2604   1.581   3.358   2.227 -1.7737 -0.2791 -0.5445
  133ANI     H4 2605   1.205   3.102   2.196 -0.5169  0.4010 -0.9191
  133ANI     H5 2606   0.977   3.208   2.206 -1.1059  0.1038  0.0616
  133ANI     H6 2607   0.965   3.452   2.247 -2.3745 -1.4310  1.0883
  133ANI     H7 2608   1.158   3.583   2.280  1.6988  0.1433  1.6096
  133ANI     H8 2609   1.393   3.467   2.327  0.3072  1.2807 -1.2750
  134ANI     C1 2610   2.326   1.694   0.396 -0.2381 -0.0084 -0.7775
  134ANI     O1 2611   2.430   1.752   0.319  0.0383 -0.0137  0.0847
  134ANI     C2 2612   2.555   1.772   0.369  0.5768 -0.9679  0.2539
  134ANI     C3 2613   2.602   1.734   0.496 -0.2596 -0.2843  0.0769
  134ANI     C4 2614   2.734   1.753   0.529 -0.0840  0.5059  0.9302
  134ANI     C5 2615   2.825   1.817   0.438  1.2116  0.2588 -0.7579
  134ANI     C6 2616   2.780   1.849   0.310  0.3205  0.0086  0.8264
  134ANI     C7 2617   2.644   1.829   0.280  0.3580  0.2767 -0.4183
  134ANI     H1 2618   2.310   1.741   0.494  1.2822  0.2587 -0.6448
  134ANI     H2 2619   2.232   1.690   0.340 -2.1871 -1.6007  2.4094
  134ANI     H3 2620   2.339   1.588   0.421 -1.0907  0.1686  0.4865
  134ANI     H4 2621   2.538   1.686   0.570  1.8467 -2.2588  0.6901
  134ANI     H5 2622   2.773   1.713   0.622  1.2840  1.1482  0.6568
  134ANI     H6 2623   2.929   1.829   0.469  0.7935 -1.0592  1.2306
  134ANI     H7 2624   2.851   1.886   0.236 -1.5076  2.0934  0.0866
  134ANI     H8 2625   2.603   1.848   0.182  0.9374 -0.5930 -0.8316
  135ANI     C1 2626   1.925   0.907   3.154  0.0656 -0.6869 -0.4886
  135ANI     O1 2627   1.855   0.900   3.284 -0.7355  0.7740 -0.3666
  135ANI     C2 2628   1.926   0.864   3.397 -0.9054 -0.2611  0.7601
  135ANI     C3 2629   2.058   0.814   3.394  0.2713  0.5148 -0.1453
  135ANI     C4 2630   2.134   0.803   3.513  0.5359  0.3770  0.1022
  135ANI     C5 2631   2.066   0.825   3.634 -0.3235 -0.3462  0.6251
  135ANI     C6 2632   1.935   0.871   3.643 -0.0152  0.1610 -0.0410
  135ANI     C7 2633   1.859   0.886   3.524  0.2967 -0.3694 -0.3196
  135ANI     H1 2634   2.001   0.986   3.158  0.9226 -1.6041  2.1882
  135ANI     H2 2635   1.973   0.813   3.122 -0.5848 -1.0361 -0.4625
  135ANI     H3 2636   1.845   0.941   3.087 -0.3086  0.2542  0.4241
  135ANI     H4 2637   2.106   0.790   3.299  0.9247 -0.0948  0.3271
  135ANI     H5 2638   2.236   0.767   3.519  0.3557 -0.9221 -3.3115
  135ANI     H6 2639   2.117   0.804   3.728 -1.1820 -0.8809  0.9766
  135ANI     H7 2640   1.881   0.883   3.736 -0.8012  0.6770 -0.5593
  135ANI     H8 2641   1.759   0.926   3.535  1.0308  1.4998 -0.2185
  136ANI     C1 2642   2.799   2.414   1.273  0.0603  0.1462 -0.1167
  136ANI     O1 2643   2.712   2.367   1.168 -0.5867  0.5811 -0.4376
  136ANI     C2 2644   2.685   2.448   1.063  0.2164  0.2654  0.8388
  136ANI     C3 2645   2.772   2.562   1.034  0.1490  0.6758 -0.0333
  136ANI     C4 2646   2.732   2.645   0.929 -0.2676 -0.3583 -0.1041
  136ANI     C5 2647   2.622   2.615   0.851 -0.0054 -0.0391  0.1254
  136ANI     C6 2648   2.539   2.506   0.879 -0.2138  0.4374 -0.2294
  136ANI     C7 2649   2.566   2.425   0.989 -0.0789 -0.5881 -0.3023
  136ANI     H1 2650   2.814   2.329   1.341  1.1818  0.6915  0.3212
  136ANI     H2 2651   2.898   2.452   1.244  0.0686  1.2526  1.3058
  136ANI     H3 2652   2.761   2.488   1.344  1.3052  0.1045  0.6250
  136ANI     H4 2653   2.862   2.579   1.093  1.3091 -0.2430 -1.4801
  136ANI     H5 2654   2.792   2.731   0.902  0.9186 -0.8357  0.9759
  136ANI     H6 2655   2.601   2.683   0.769  0.8460  1.4484  1.1086
  136ANI     H7 2656   2.456   2.483   0.812  1.1912  0.0930 -1.8812
  136ANI     H8 2657   2.494   2.347   1.012  0.1889 -0.8744 -0.4354
  137ANI     C1 2658   0.835   3.393   0.862  0.0658 -0.3532 -0.2351
  137ANI     O1 2659   0.846   3.465   0.741  0.1493  0.2429  0.6935
  137ANI     C2 2660   0.785   3.588   0.732  0.9723 -0.2349 -0.1686
  137ANI     C3 2661   0.709   3.648   0.834  0.0416 -0.1646  0.1318
  137ANI     C4 2662   0.666   3.786   0.818  0.7310  0.5902  0.4829
  137ANI     C5 2663   0.683   3.849   0.693 -0.5277  0.1659  0.2471
  137ANI     C6 2664   0.751   3.780   0.590  0.3568 -0.5059  0.0956
  137ANI     C7 2665   0.808   3.653   0.608  0.2971  0.5224  0.6769
  137ANI     H1 2666   0.855   3.286   0.848 -0.6464 -0.6945  1.2300
  137ANI     H2 2667   0.899   3.419   0.947  0.0108 -0.6889 -0.0862
  137ANI     H3 2668   0.736   3.383   0.909  0.1121 -1.5134 -0.3528
  137ANI     H4 2669   0.689   3.599   0.929  0.2387 -0.3526  0.0777
  137ANI     H5 2670   0.610   3.833   0.898  0.6013  0.6866  0.3389
  137ANI     H6 2671   0.656   3.952   0.672  2.2132  0.2872 -3.1458
  137ANI     H7 2672   0.758   3.833   0.496 -0.4418  1.5846  1.1768
  137ANI     H8 2673   0.856   3.605   0.523  1.1635 -0.8288  1.8892
  138ANI     C1 2674   2.558   1.163   2.262 -0.6363 -0.0082 -0.4166
  138ANI     O1 2675   2.501   1.034   2.265  0.3096 -0.1506  0.0358
  138ANI     C2 2676   2.576   0.917   2.250  0.6050  0.5371 -0.0313
  138ANI     C3 2677   2.715   0.920   2.241 -0.2454  0.2392  0.4064
  138ANI     C4 2678   2.786   0.796   2.226 -0.5018 -0.2398 -0.6533
  138ANI     C5 2679   2.713   0.677   2.219 -0.2291  0.3603  0.0242
  138ANI     C6 2680   2.575   0.683   2.223 -0.1921 -0.1788 -0.0326
  138ANI     C7 2681   2.507   0.795   2.243  0.3580 -0.6000 -0.2815
  138ANI     H1 2682   2.623   1.186   2.177 -0.4031 -0.0341 -0.2455
  138ANI     H2 2683   2.484   1.244   2.259  1.3344  1.8361 -0.4464
  138ANI     H3 2684   2.613   1.171   2.356  0.0446 -0.1975 -0.7935
  138ANI     H4 2685   2.769   1.015   2.243 -2.3246  1.4383  1.0198
  138ANI     H5 2686   2.894   0.806   2.220 -0.0906 -2.8157  1.3550
  138ANI     H6 2687   2.768   0.584   2.209  0.4632  0.8059 -0.3068
  138ANI     H7 2688   2.523   0.588   2.222  0.2031 -0.3905 -0.7765
  138ANI     H8 2689   2.399   0.802   2.251  0.2329  1.2135 -3.0195
  139ANI     C1 2690   1.743   1.556   3.435  0.3268  0.2549 -0.3783
  139ANI     O1 2691   1.740   1.620   3.302  0.2539 -0.1034  0.0542
  139ANI     C2 2692   1.814   1.570   3.199 -0.7680 -0.0291  0.6138
  139ANI     C3 2693   1.878   1.445   3.204  0.5965 -0.4975 -0.7650
  139ANI     C4 2694   1.952   1.410   3.087  0.7044 -0.3508  0.3013
  139ANI     C5 2695   1.959   1.490   2.973  0.4010 -0.0519 -0.1250
  139ANI     C6 2696   1.892   1.612   2.971 -0.0925  0.1525 -0.6123
  139ANI     C7 2697   1.819   1.655   3.082 -0.5629  0.5084 -0.5535
  139ANI     H1 2698   1.690   1.618   3.508  0.5206 -1.1670  1.0019
  139ANI     H2 2699   1.695   1.458   3.428 -0.4581  0.6417 -0.4517
  139ANI     H3 2700   1.847   1.534   3.461 -0.3837 -1.4710  1.1417
  139ANI     H4 2701   1.872   1.380   3.291 -0.1792 -0.9883 -1.1833
  139ANI     H5 2702   1.998   1.312   3.080 -0.0154 -0.6011 -1.1840
  139ANI     H6 2703   2.024   1.464   2.890  1.9987 -3.9183  2.2197
  139ANI     H7 2704   1.890   1.674   2.882  0.1281  0.8269 -0.1443
  139ANI     H8 2705   1.770   1.752   3.090  0.0308  0.7837 -0.2843
  140ANI     C1 2706   0.372   2.279   2.613 -0.2204  0.4185  0.0832
  140ANI     O1 2707   0.433   2.408   2.620  0.2874 -0.4018  0.0747
  140ANI     C2 2708   0.363   2.526   2.634 -0.7063  0.7095 -0.3500
  140ANI     C3 2709   0.225   2.533   2.605  0.0853  0.1677 -0.0953
  140ANI     C4 2710   0.160   2.655   2.618  0.0028 -0.2841 -0.0207
  140ANI     C5 2711   0.233   2.768   2.658 -0.2116 -0.3138  0.0943
  140ANI     C6 2712   0.371   2.760   2.684 -0.2091 -0.1793  0.9563
  140ANI     C7 2713   0.439   2.643   2.674  0.0910 -0.5011  0.2967
  140ANI     H1 2714   0.451   2.204   2.608  0.5558  1.3427 -1.8432
  140ANI     H2 2715   0.322   2.249   2.706  0.7956  0.9021  0.7973
  140ANI     H3 2716   0.300   2.283   2.529 -1.7652 -0.1551  1.3494
  140ANI     H4 2717   0.161   2.446   2.588  2.7029 -1.6505 -0.9562
  140ANI     H5 2718   0.055   2.659   2.589  0.1562  0.6107 -0.4671
  140ANI     H6 2719   0.190   2.868   2.660  3.8313  1.5798 -1.6896
  140ANI     H7 2720   0.421   2.855   2.700 -2.1621  1.1249 -0.3887
  140ANI     H8 2721   0.546   2.651   2.689  0.5851  0.6482 -3.2542
  141ANI     C1 2722   0.763   2.722   3.754 -1.4268 -0.6642  0.5985
  141ANI     O1 2723   0.864   2.818   3.723  0.1285 -0.1552  0.0821
  141ANI     C2 2724   1.002   2.808   3.739  0.5276 -0.3634  0.2147
  141ANI     C3 2725   1.062   2.692   3.781 -0.1275 -0.1950 -0.0672
  141ANI     C4 2726   1.203   2.685   3.796 -0.5486  0.3929 -1.0254
  141ANI     C5 2727   1.284   2.796   3.779  0.1021 -0.4701  0.2831
  141ANI     C6 2728   1.226   2.921   3.745 -0.2519 -0.2002  0.1377
  141ANI     C7 2729   1.086   2.926   3.718  0.0730  0.0483 -0.7787
  141ANI     H1 2730   0.671   2.749   3.702 -0.3511 -1.6532 -1.8545
  141ANI     H2 2731   0.787   2.620   3.724  1.1977  0.2850 -0.6678
  141ANI     H3 2732   0.734   2.734   3.859 -0.8738  1.1363  0.5591
  141ANI     H4 2733   1.003   2.602   3.792 -1.3922  0.4334 -1.5440
  141ANI     H5 2734   1.251   2.588   3.803 -1.8025 -0.1489  0.1281
  141ANI     H6 2735   1.393   2.793   3.775  0.1244  1.0425 -0.7815
  141ANI     H7 2736   1.297   3.002   3.731 -1.6466  1.5378  2.9043
  141ANI     H8 2737   1.035   3.020   3.697  1.2966  0.8544 -0.1979
  142ANI     C1 2738   1.365   2.641   1.067  0.1380  0.6417  0.1514
  142ANI     O1 2739   1.356   2.769   0.980  0.0412 -0.1719 -0.2751
  142ANI     C2 2740   1.271   2.781   0.869 -0.6145  0.0530 -0.5747
  142ANI     C3 2741   1.143   2.722   0.868 -0.5088 -0.2077 -0.3110
  142ANI     C4 2742   1.066   2.731   0.748 -0.0033 -0.2642  0.1742
  142ANI     C5 2743   1.115   2.810   0.638 -0.3166 -0.7902 -0.4892
  142ANI     C6 2744   1.235   2.883   0.654  0.1075  0.0711 -0.3712
  142ANI     C7 2745   1.310   2.865   0.768  0.9096  0.0168  0.7585
  142ANI     H1 2746   1.404   2.661   1.167 -0.5561 -2.0214  1.0051
  142ANI     H2 2747   1.276   2.576   1.072 -0.7797  2.0223  2.1419
  142ANI     H3 2748   1.442   2.577   1.022 -0.8286 -0.7558  0.4547
  142ANI     H4 2749   1.111   2.674   0.960 -1.0124  0.8556  0.0822
  142ANI     H5 2750   0.963   2.700   0.734 -0.8925  2.0087  1.5465
  142ANI     H6 2751   1.047   2.836   0.557 -0.3294  0.8102  0.0141
  142ANI     H7 2752   1.281   2.952   0.584  2.7090  1.8308  2.9480
  142ANI     H8 2753   1.407   2.910   0.790  0.1915  0.9338  2.0848
  143ANI     C1 2754   2.469   0.758   2.803 -0.1019  0.1271  0.2287
  143ANI     O1 2755   2.580   0.825   2.861 -0.3989 -0.4418 -0.2886
  143ANI     C2 2756   2.676   0.762   2.930 -0.5588 -0.6949  0.7267
  143ANI     C3 2757   2.646   0.659   3.015 -0.6045  0.0919 -0.3909
  143ANI     C4 2758   2.744   0.600   3.093 -0.1115  0.3752  0.1356
  143ANI     C5 2759   2.872   0.651   3.091  0.3981 -0.2476 -0.5018
  143ANI     C6 2760   2.904   0.752   3.001  0.3309 -0.0141  0.2061
  143ANI     C7 2761   2.807   0.812   2.918  0.8021  0.3060 -0.5360
  143ANI     H1 2762   2.503   0.683   2.731 -0.6714 -0.4929  0.5916
  143ANI     H2 2763   2.398   0.713   2.875 -0.1055 -2.3319 -1.2362
  143ANI     H3 2764   2.425   0.831   2.735 -0.4253  2.2109  2.5868
  143ANI     H4 2765   2.545   0.621   3.026 -1.1739  2.2703  2.5424
  143ANI     H5 2766   2.714   0.519   3.158  0.6322 -0.8129 -0.9734
  143ANI     H6 2767   2.941   0.595   3.154 -0.8464 -0.9209  0.2798
  143ANI     H7 2768   3.008   0.781   2.990 -0.0278  0.6139 -1.6614
  143ANI     H8 2769   2.835   0.889   2.847  0.3993  0.8447 -0.1168
  144ANI     C1 2770   1.648   1.193   2.243 -0.3477  1.1423 -0.1965
  144ANI     O1 2771   1.510   1.177   2.202 -0.0276 -0.1674 -0.6776
  144ANI     C2 2772   1.453   1.051   2.220  0.3422  0.3150  0.1185
  144ANI     C3 2773   1.526   0.929   2.194  0.1161  0.4848  0.1809
  144ANI     C4 2774   1.461   0.808   2.225  0.7359  1.0158  0.3914
  144ANI     C5 2775   1.328   0.806   2.264  0.3014 -0.4008  0.4734
  144ANI     C6 2776   1.256   0.927   2.276 -0.2085  0.6395 -1.2770
  144ANI     C7 2777   1.322   1.048   2.261 -0.2830  0.0118 -0.1770
  144ANI     H1 2778   1.691   1.284   2.199  0.7328  1.2296  1.0218
  144ANI     H2 2779   1.656   1.198   2.353  0.4788 -3.0292  0.0199
  144ANI     H3 2780   1.716   1.111   2.217  0.1158  1.2738  0.5634
  144ANI     H4 2781   1.627   0.931   2.156 -0.7165  0.0213 -2.0948
  144ANI     H5 2782   1.511   0.714   2.204 -1.8703 -0.4016  0.2708
  144ANI     H6 2783   1.274   0.712   2.271 -0.2594 -0.1892 -0.7910
  144ANI     H7 2784   1.151   0.925   2.305  0.5300 -0.8532  1.3918
  144ANI     H8 2785   1.266   1.140   2.277 -0.7921 -0.2637 -0.3853
  145ANI     C1 2786   1.647   0.473   0.845 -0.2210  0.1580  0.5499
  145ANI     O1 2787   1.672   0.394   0.730 -0.0361 -0.1237  0.3103
  145ANI     C2 2788   1.797   0.371   0.681  0.5546  0.8742  0.0883
  145ANI     C3 2789   1.910   0.450   0.729 -0.2474  0.5717 -0.3205
  145ANI     C4 2790   2.032   0.429   0.677 -0.4426 -0.3934 -0.1569
  145ANI     C5 2791   2.049   0.331   0.579 -0.0373 -0.4393  0.1205
  145ANI     C6 2792   1.942   0.243   0.542  0.1549  0.1482 -0.3560
  145ANI     C7 2793   1.808   0.265   0.589 -0.1530  0.3768  0.2592
  145ANI     H1 2794   1.695   0.571   0.831  1.5799 -0.9809 -1.4709
  145ANI     H2 2795   1.540   0.482   0.868 -0.0510 -1.7474  2.2767
  145ANI     H3 2796   1.681   0.423   0.937 -0.0243  0.3741  0.5957
  145ANI     H4 2797   1.884   0.528   0.800  2.3846  1.4322 -0.2494
  145ANI     H5 2798   2.111   0.496   0.710 -1.5823  2.0285 -2.2149
  145ANI     H6 2799   2.149   0.312   0.541  0.6009  1.6667  0.7046
  145ANI     H7 2800   1.967   0.154   0.485  0.7618 -1.1267  1.8381
  145ANI     H8 2801   1.720   0.209   0.560  1.8846 -2.0309 -1.4951
  146ANI     C1 2802   0.510   2.653   1.541 -0.2595  0.0081 -0.5779
  146ANI     O1 2803   0.558   2.786   1.546  0.2678 -0.1048  0.5261
  146ANI     C2 2804   0.479   2.894   1.539  0.7093 -0.0980  0.7188
  146ANI     C3 2805   0.344   2.884   1.548 -0.0282 -0.3960  0.3005
  146ANI     C4 2806   0.258   2.991   1.539  0.0251  0.1495  0.4978
  146ANI     C5 2807   0.305   3.119   1.528 -0.4591  0.0743 -0.7116
  146ANI     C6 2808   0.447   3.131   1.519  0.3342  0.0718  0.1675
  146ANI     C7 2809   0.535   3.024   1.537 -0.6116 -0.1918 -0.2904
  146ANI     H1 2810   0.452   2.633   1.450 -2.8662 -2.5069  1.5299
  146ANI     H2 2811   0.592   2.579   1.542 -1.5037 -1.3956  0.3175
  146ANI     H3 2812   0.458   2.625   1.633  1.0439 -0.2143  0.1035
  146ANI     H4 2813   0.294   2.788   1.556 -0.3754 -0.2021  0.4836
  146ANI     H5 2814   0.151   2.978   1.530 -0.1339  1.8455 -0.2856
  146ANI     H6 2815   0.245   3.209   1.521 -2.2873 -1.0142  0.6568
  146ANI     H7 2816   0.484   3.232   1.512  0.3763 -0.0337 -1.2597
  146ANI     H8 2817   0.643   3.039   1.544 -0.3807  0.0001 -3.4081
  147ANI     C1 2818   1.748   3.216   0.014 -0.0592 -0.3906 -0.0319
  147ANI     O1 2819   1.660   3.237   0.125 -0.2097 -0.0862 -0.0491
  147ANI     C2 2820   1.645   3.356   0.189  0.5112 -0.6592  0.5094
  147ANI     C3 2821   1.721   3.473   0.156 -0.1497 -0.3135 -0.4761
  147ANI     C4 2822   1.700   3.590   0.230 -0.2900 -0.3752 -0.4461
  147ANI     C5 2823   1.598   3.591   0.331  0.3188 -0.2661 -0.0573
  147ANI     C6 2824   1.517   3.484   0.360  0.3433 -0.3736  0.9879
  147ANI     C7 2825   1.539   3.366   0.286  0.5885 -0.0215  0.0049
  147ANI     H1 2826   1.853   3.224   0.047  0.4001 -1.3059 -1.2160
  147ANI     H2 2827   1.737   3.116  -0.031  0.4710 -0.1260 -0.7706
  147ANI     H3 2828   1.731   3.288  -0.068 -1.0344  0.9294  1.3206
  147ANI     H4 2829   1.797   3.466   0.079 -2.3563 -1.1135 -2.6315
  147ANI     H5 2830   1.755   3.680   0.205  1.9951 -1.5803  0.0972
  147ANI     H6 2831   1.569   3.687   0.374 -1.5805 -0.9402  0.2085
  147ANI     H7 2832   1.440   3.490   0.436 -1.9602 -0.9570 -1.2390
  147ANI     H8 2833   1.484   3.275   0.311  0.7209 -0.0898  0.0458
  148ANI     C1 2834   0.447   2.153   1.110  0.2567  0.6586 -0.3041
  148ANI     O1 2835   0.519   2.210   0.996  0.2178 -0.6131  0.0722
  148ANI     C2 2836   0.461   2.228   0.869  0.3718  0.6031  0.0047
  148ANI     C3 2837   0.539   2.201   0.758  0.1979  0.4798 -0.2565
  148ANI     C4 2838   0.488   2.212   0.626  0.2426 -0.6583  0.6163
  148ANI     C5 2839   0.356   2.242   0.609 -0.1087 -0.7820 -0.4634
  148ANI     C6 2840   0.278   2.271   0.724  0.5497 -0.0350  0.1932
  148ANI     C7 2841   0.327   2.267   0.851 -0.8803  0.3163 -0.1698
  148ANI     H1 2842   0.516   2.155   1.196  1.1162 -2.4082 -0.8512
  148ANI     H2 2843   0.361   2.218   1.128 -0.4821 -0.1649 -0.7915
  148ANI     H3 2844   0.418   2.048   1.100  0.1332  0.5297  1.2238
  148ANI     H4 2845   0.640   2.164   0.776 -0.9525 -2.0626  1.2085
  148ANI     H5 2846   0.549   2.200   0.537 -1.3053 -1.9016 -0.2922
  148ANI     H6 2847   0.307   2.233   0.512 -1.8458 -1.7389  0.4830
  148ANI     H7 2848   0.176   2.288   0.692  0.4178 -2.7757 -0.9625
  148ANI     H8 2849   0.267   2.284   0.940 -1.1279  1.8531 -0.6005
  149ANI     C1 2850   1.174   1.690   2.590 -0.5051  0.0380  0.1663
  149ANI     O1 2851   1.039   1.737   2.593 -0.6443 -0.3091  0.4499
  149ANI     C2 2852   0.953   1.701   2.693 -0.3127 -0.0666 -0.8788
  149ANI     C3 2853   0.998   1.666   2.823 -0.2541 -0.4579 -0.0770
  149ANI     C4 2854   0.902   1.624   2.921 -0.0769 -0.5066  0.4668
  149ANI     C5 2855   0.769   1.611   2.886 -0.0243  0.4890  0.0075
  149ANI     C6 2856   0.729   1.637   2.754  1.0573 -0.8452 -0.2342
  149ANI     C7 2857   0.816   1.683   2.659 -0.3524  0.1248  0.4605
  149ANI     H1 2858   1.236   1.723   2.674 -0.6467  0.4480  0.1107
  149ANI     H2 2859   1.172   1.580   2.587 -1.0655  0.0454  0.3372
  149ANI     H3 2860   1.220   1.735   2.501 -1.8385  0.8833 -0.1043
  149ANI     H4 2861   1.097   1.691   2.860 -0.9385  3.1202 -0.5403
  149ANI     H5 2862   0.918   1.595   3.024 -0.9906 -1.5848  0.3176
  149ANI     H6 2863   0.702   1.581   2.966  0.9653  0.2780  0.7570
  149ANI     H7 2864   0.629   1.618   2.718  0.3705  1.4778  0.3604
  149ANI     H8 2865   0.783   1.714   2.560 -0.0378 -0.3562  0.2062
  150ANI     C1 2866   3.212   1.418   3.538 -0.6984  0.0978  0.0775
  150ANI     O1 2867   3.077   1.451   3.489  0.6210  0.0512  0.1752
  150ANI     C2 2868   3.002   1.557   3.542  0.1334 -0.2834 -0.3290
  150ANI     C3 2869   3.043   1.637   3.647 -0.0801 -0.1818 -0.8592
  150ANI     C4 2870   2.959   1.753   3.687 -0.1321 -1.2390 -0.0327
  150ANI     C5 2871   2.846   1.782   3.613  0.4937 -0.3856 -0.0216
  150ANI     C6 2872   2.810   1.706   3.507  0.5910  0.6442  1.0051
  150ANI     C7 2873   2.883   1.590   3.476 -0.7871 -0.1258  0.1707
  150ANI     H1 2874   3.220   1.426   3.647 -1.1293 -1.1373  0.2086
  150ANI     H2 2875   3.250   1.316   3.524  0.8791  0.6220  0.4228
  150ANI     H3 2876   3.278   1.490   3.487  1.9024 -1.3146  1.3057
  150ANI     H4 2877   3.141   1.625   3.692 -0.6600 -0.7200  0.2745
  150ANI     H5 2878   2.980   1.818   3.771 -2.0294  2.0565 -2.0020
  150ANI     H6 2879   2.783   1.864   3.645 -0.1286 -0.7098 -0.4023
  150ANI     H7 2880   2.716   1.733   3.459  0.5622  1.9547  1.7567
  150ANI     H8 2881   2.864   1.529   3.388  2.7374  0.2253 -0.9219
  151ANI     C1 2882   3.201   1.964   0.170 -0.0548 -0.0467 -0.4266
  151ANI     O1 2883   3.284   1.874   0.094 -0.1952  0.1476  0.0838
  151ANI     C2 2884   3.280   1.876  -0.048 -0.1139  0.0816  0.5303
  151ANI     C3 2885   3.185   1.957  -0.120 -0.1063 -0.5618  0.2807
  151ANI     C4 2886   3.190   1.958  -0.266  0.0174 -0.7370  0.2208
  151ANI     C5 2887   3.292   1.890  -0.333 -0.9454  0.2595  0.9517
  151ANI     C6 2888   3.383   1.806  -0.262 -0.4420 -0.5684 -0.5802
  151ANI     C7 2889   3.375   1.802  -0.122 -0.5008 -0.3145 -0.0215
  151ANI     H1 2890   3.093   1.945   0.156 -0.8813  3.9788 -0.0921
  151ANI     H2 2891   3.217   1.955   0.278 -2.6069 -0.9633 -0.0754
  151ANI     H3 2892   3.219   2.067   0.138  1.3352 -0.2876 -0.4426
  151ANI     H4 2893   3.105   2.012  -0.071  0.4768  0.1740  0.4248
  151ANI     H5 2894   3.112   2.009  -0.321 -1.9736 -2.2190  1.5914
  151ANI     H6 2895   3.298   1.909  -0.440  1.4560 -1.1338  0.7959
  151ANI     H7 2896   3.459   1.754  -0.320  1.3345  1.0591  0.2240
  151ANI     H8 2897   3.443   1.739  -0.065 -1.5236  0.8683  2.6102
  152ANI     C1 2898   1.334   2.028   0.397 -0.2598  0.3406  0.0999
  152ANI     O1 2899   1.311   2.170   0.408  0.4398 -0.2847 -0.1550
  152ANI     C2 2900   1.295   2.221   0.534 -0.2096 -0.0833  0.1638
  152ANI     C3 2901   1.351   2.158   0.649  0.7522  0.4233 -0.0590
  152ANI     C4 2902   1.346   2.220   0.775  0.1303  0.2160  0.0530
  152ANI     C5 2903   1.287   2.346   0.784 -0.0465  0.0075  0.3013
  152ANI     C6 2904   1.236   2.411   0.667  0.4974 -0.1923  0.0989
  152ANI     C7 2905   1.236   2.347   0.545 -0.6857  0.1342  0.4270
  152ANI     H1 2906   1.429   2.000   0.444 -1.0206  1.0391  2.0742
  152ANI     H2 2907   1.246   1.972   0.431 -0.9752 -0.6088 -3.1176
  152ANI     H3 2908   1.360   2.008   0.292 -0.8209 -0.6655  0.1429
  152ANI     H4 2909   1.405   2.064   0.645 -0.8587 -0.4481 -1.7074
  152ANI     H5 2910   1.380   2.180   0.870 -0.5479  1.0894  0.6728
  152ANI     H6 2911   1.269   2.395   0.879 -2.5677 -1.4399  0.6292
  152ANI     H7 2912   1.180   2.505   0.673 -1.3057 -1.3433  2.4852
  152ANI     H8 2913   1.182   2.390   0.462 -1.7570  2.2842  2.1761
  153ANI     C1 2914   1.119   0.102   1.264 -0.3246  1.2076 -0.1235
  153ANI     O1 2915   1.042   0.218   1.276 -0.0841 -0.0150 -0.4400
  153ANI     C2 2916   1.085   0.343   1.234  0.1476  0.5628 -0.0172
  153ANI     C3 2917   1.201   0.369   1.150  0.0527  0.0844 -0.6382
  153ANI     C4 2918   1.238   0.500   1.125  0.2713  0.0007 -0.5065
  153ANI     C5 2919   1.169   0.615   1.171 -0.6510 -0.1302  0.0184
  153ANI     C6 2920   1.049   0.585   1.234 -0.4731  0.6173  0.0802
  153ANI     C7 2921   1.009   0.451   1.263  0.2035  0.4255 -0.0286
  153ANI     H1 2922   1.225   0.117   1.288  0.2466 -0.5995 -1.4307
  153ANI     H2 2923   1.081   0.026   1.334 -1.5585  0.4723 -1.5812
  153ANI     H3 2924   1.111   0.067   1.161 -0.6697  1.2246 -0.1017
  153ANI     H4 2925   1.254   0.281   1.115 -2.0871 -1.7323  0.5491
  153ANI     H5 2926   1.330   0.515   1.071  0.9835 -2.7100 -0.1058
  153ANI     H6 2927   1.202   0.718   1.160 -1.6465  0.1385 -0.5435
  153ANI     H7 2928   0.992   0.670   1.271 -0.3723  1.1815 -1.0515
  153ANI     H8 2929   0.923   0.442   1.328 -0.9912 -2.2371 -1.9098
  154ANI     C1 2930   0.934   2.406   0.938  0.0369 -0.7384  0.4428
  154ANI     O1 2931   1.022   2.434   1.044  0.4658 -0.3429  0.0053
  154ANI     C2 2932   1.096   2.338   1.113 -0.0214  0.2990  0.0180
  154ANI     C3 2933   1.120   2.205   1.067  0.3189  1.1237 -0.0315
  154ANI     C4 2934   1.183   2.115   1.156  0.6369  0.0882  0.9404
  154ANI     C5 2935   1.235   2.161   1.275  0.2320 -0.6214  0.2125
  154ANI     C6 2936   1.224   2.296   1.315  0.7787 -0.6131 -0.5535
  154ANI     C7 2937   1.141   2.384   1.238  0.6407 -1.0655 -0.4210
  154ANI     H1 2938   0.847   2.350   0.976  0.1233  0.1115  1.9205
  154ANI     H2 2939   0.900   2.498   0.889  1.1090 -0.3568  0.4077
  154ANI     H3 2940   0.980   2.345   0.859  1.0847  0.9464 -0.2746
  154ANI     H4 2941   1.100   2.180   0.963  0.8096  0.6637 -0.0160
  154ANI     H5 2942   1.200   2.010   1.134  1.0078  0.0231  1.5181
  154ANI     H6 2943   1.280   2.094   1.347 -0.5385  0.0971  1.3755
  154ANI     H7 2944   1.265   2.325   1.411  3.3865  0.1858 -1.8504
  154ANI     H8 2945   1.127   2.487   1.267 -0.3205 -1.3167  0.0174
  155ANI     C1 2946   1.008   2.114   1.545 -0.0974  0.2482  0.3944
  155ANI     O1 2947   1.116   2.027   1.580 -0.0142  0.0785 -0.0888
  155ANI     C2 2948   1.144   1.916   1.503  1.2888 -0.5338  0.5376
  155ANI     C3 2949   1.086   1.900   1.376 -0.0802 -0.0202  0.1130
  155ANI     C4 2950   1.111   1.788   1.301 -0.3840  0.1952 -0.1862
  155ANI     C5 2951   1.196   1.685   1.345  0.2351 -0.0228 -0.0206
  155ANI     C6 2952   1.256   1.694   1.473  0.4567 -0.3831 -0.3568
  155ANI     C7 2953   1.233   1.810   1.547 -1.3790 -0.6437 -0.1629
  155ANI     H1 2954   1.011   2.212   1.593 -1.8601  0.7610 -0.4782
  155ANI     H2 2955   0.996   2.144   1.440 -0.6189 -1.5908 -0.0820
  155ANI     H3 2956   0.914   2.078   1.589 -0.7914  1.9591  0.3570
  155ANI     H4 2957   1.022   1.974   1.328  2.0008 -0.4673 -3.4978
  155ANI     H5 2958   1.074   1.780   1.199  2.2902  1.9113 -1.3158
  155ANI     H6 2959   1.233   1.600   1.288 -1.2207 -3.0118  3.2695
  155ANI     H7 2960   1.307   1.608   1.515  1.1869 -0.7701 -2.0153
  155ANI     H8 2961   1.283   1.821   1.643 -0.1152 -2.3171 -0.5923
  156ANI     C1 2962   2.487   0.277   1.110 -0.1352  0.7087  0.6699
  156ANI     O1 2963   2.458   0.258   1.250  0.2672 -0.3030  0.0675
  156ANI     C2 2964   2.558   0.217   1.337  0.2465  0.3143  0.5590
  156ANI     C3 2965   2.693   0.227   1.317  0.2133 -0.1128  0.1827
  156ANI     C4 2966   2.785   0.187   1.410 -0.3922 -1.2388 -0.8521
  156ANI     C5 2967   2.737   0.128   1.529  0.1132 -0.9589  0.4383
  156ANI     C6 2968   2.600   0.124   1.551  0.0772  0.2166 -0.4498
  156ANI     C7 2969   2.508   0.161   1.453 -0.4357 -0.4879  0.0121
  156ANI     H1 2970   2.518   0.179   1.073 -1.6394  1.0128 -1.4977
  156ANI     H2 2971   2.398   0.309   1.055  0.0759 -0.3290 -0.2877
  156ANI     H3 2972   2.565   0.353   1.091 -0.8167  1.0492 -0.7908
  156ANI     H4 2973   2.737   0.268   1.227  0.2058  1.1334  0.7409
  156ANI     H5 2974   2.892   0.195   1.391  0.5862 -1.6743  3.9572
  156ANI     H6 2975   2.796   0.083   1.609 -0.0253  0.3132  1.2714
  156ANI     H7 2976   2.559   0.080   1.642  0.5474  0.3754 -0.1590
  156ANI     H8 2977   2.401   0.171   1.470 -0.2278 -0.1547  1.1694
  157ANI     C1 2978   3.363   2.614   1.551 -0.0696  0.1102  0.1975
  157ANI     O1 2979   3.467   2.638   1.464  0.9409 -0.0540  0.0124
  157ANI     C2 2980   3.566   2.548   1.447  0.1659 -0.3333 -0.2738
  157ANI     C3 2981   3.640   2.560   1.326  0.5187 -0.0626 -0.2912
  157ANI     C4 2982   3.740   2.468   1.300  0.1276  0.1312 -0.1393
  157ANI     C5 2983   3.770   2.363   1.392 -1.0765 -0.1280  0.2546
  157ANI     C6 2984   3.691   2.352   1.506  0.6075  0.5437  0.4149
  157ANI     C7 2985   3.597   2.445   1.541  0.3512 -0.8339  0.0913
  157ANI     H1 2986   3.292   2.542   1.508 -0.1544  2.0218 -3.0634
  157ANI     H2 2987   3.408   2.598   1.649  2.6257  0.5644 -0.9198
  157ANI     H3 2988   3.306   2.707   1.564 -1.7850 -1.0004  0.8171
  157ANI     H4 2989   3.620   2.641   1.257  1.3133  0.7239  0.3926
  157ANI     H5 2990   3.798   2.477   1.208 -0.5822 -4.3301 -1.1153
  157ANI     H6 2991   3.854   2.297   1.369 -0.7495  0.5480 -0.4995
  157ANI     H7 2992   3.728   2.276   1.575  1.2260 -0.4335 -0.9672
  157ANI     H8 2993   3.558   2.436   1.642 -0.3067  0.3199 -0.0432
  158ANI     C1 2994   0.740   2.455   1.260  0.3769  0.0319  0.1646
  158ANI     O1 2995   0.712   2.385   1.382  0.0215  0.0187 -0.2322
  158ANI     C2 2996   0.712   2.248   1.388 -0.1523 -0.4551 -0.0886
  158ANI     C3 2997   0.747   2.167   1.280 -0.0082  0.4398 -0.7305
  158ANI     C4 2998   0.757   2.027   1.296 -0.2123 -0.0118 -0.4985
  158ANI     C5 2999   0.730   1.971   1.428  0.1351 -0.1350  0.9364
  158ANI     C6 3000   0.684   2.053   1.530 -0.3119 -0.3975 -0.2311
  158ANI     C7 3001   0.665   2.196   1.511 -0.4110 -0.2101  0.1363
  158ANI     H1 3002   0.740   2.562   1.285 -1.0470  0.3723 -1.2164
  158ANI     H2 3003   0.837   2.421   1.222  0.2614 -1.9834  1.5725
  158ANI     H3 3004   0.660   2.429   1.189  0.9833  0.6753 -0.7715
  158ANI     H4 3005   0.772   2.212   1.185 -0.4547 -3.6857 -2.9049
  158ANI     H5 3006   0.775   1.963   1.211 -1.5750 -0.7256 -0.2713
  158ANI     H6 3007   0.748   1.866   1.443  1.6522  0.0204  0.2845
  158ANI     H7 3008   0.663   2.015   1.630  0.2002  0.1855  0.0995
  158ANI     H8 3009   0.605   2.254   1.580  1.6523  0.5119  1.3835
  159ANI     C1 3010   2.375   2.620   2.242  0.5972 -0.1108  0.5051
  159ANI     O1 3011   2.390   2.689   2.367  0.2828  0.0710 -0.0981
  159ANI     C2 3012   2.447   2.815   2.379  0.3665  0.4120  0.4651
  159ANI     C3 3013   2.513   2.886   2.265 -0.5553 -0.1772  0.8355
  159ANI     C4 3014   2.563   3.010   2.285  0.2314  0.1093  0.1161
  159ANI     C5 3015   2.552   3.073   2.413  0.5152  0.2239  0.9819
  159ANI     C6 3016   2.492   3.010   2.516  0.8636 -0.1512 -0.3550
  159ANI     C7 3017   2.430   2.882   2.500 -0.2307 -0.6172 -0.0964
  159ANI     H1 3018   2.324   2.677   2.163  1.1737  2.0013  1.6083
  159ANI     H2 3019   2.475   2.599   2.202 -0.4596 -2.5108 -0.9731
  159ANI     H3 3020   2.319   2.529   2.268  1.3075 -0.8748 -0.6488
  159ANI     H4 3021   2.516   2.843   2.165 -1.0584 -0.4011  0.9134
  159ANI     H5 3022   2.606   3.062   2.200 -2.5541  1.7067 -0.3883
  159ANI     H6 3023   2.592   3.173   2.429  0.1596  0.1931  2.1501
  159ANI     H7 3024   2.482   3.058   2.613  0.8516 -3.9627  1.6202
  159ANI     H8 3025   2.381   2.839   2.587 -1.3426 -0.0319 -0.4395
  160ANI     C1 3026   2.022   1.799   1.194  0.1879  0.5369  0.3490
  160ANI     O1 3027   2.152   1.748   1.221  0.1364  0.7011 -0.1103
  160ANI     C2 3028   2.199   1.645   1.140 -0.4930  0.1907  0.4059
  160ANI     C3 3029   2.129   1.578   1.035 -0.4041 -0.6476 -0.9293
  160ANI     C4 3030   2.187   1.478   0.965  0.2409 -0.1245  0.2790
  160ANI     C5 3031   2.314   1.431   0.996 -0.1282 -0.0340 -0.4801
  160ANI     C6 3032   2.382   1.488   1.109 -0.1676 -0.4099  0.9451
  160ANI     C7 3033   2.330   1.600   1.168  0.4318  0.7233 -0.2436
  160ANI     H1 3034   2.000   1.837   1.093  0.2247 -0.1856  0.0639
  160ANI     H2 3035   1.947   1.722   1.217  2.9688 -1.5931  2.5936
  160ANI     H3 3036   2.007   1.890   1.253 -3.3180  0.1873  0.0928
  160ANI     H4 3037   2.030   1.604   1.000 -0.3406  1.2874  0.2657
  160ANI     H5 3038   2.123   1.434   0.890  1.2773  0.0758 -0.7434
  160ANI     H6 3039   2.362   1.348   0.945 -2.6641 -0.2938 -2.5452
  160ANI     H7 3040   2.482   1.462   1.141 -0.6054 -2.9187  0.3894
  160ANI     H8 3041   2.386   1.652   1.245 -2.3219  0.6952  1.8751
  161ANI     C1 3042   0.444   3.340   0.844  0.1910  0.1960 -0.2899
  161ANI     O1 3043   0.423   3.410   0.963 -0.4323 -0.1961  0.5614
  161ANI     C2 3044   0.394   3.546   0.975  0.1829 -0.3421  0.3713
  161ANI     C3 3045   0.397   3.596   1.106 -0.1084 -0.1372  0.4640
  161ANI     C4 3046   0.369   3.727   1.127  0.0578 -0.6151 -0.9995
  161ANI     C5 3047   0.338   3.811   1.013  0.9568  0.6106 -0.1553
  161ANI     C6 3048   0.335   3.763   0.879  0.4225  0.3341  0.2809
  161ANI     C7 3049   0.367   3.632   0.864  0.5570 -0.1422  0.1278
  161ANI     H1 3050   0.352   3.306   0.794  0.9894 -2.1987 -0.1903
  161ANI     H2 3051   0.497   3.395   0.766 -0.5470  0.4588 -0.6144
  161ANI     H3 3052   0.510   3.253   0.856  1.6579  0.8507 -3.1911
  161ANI     H4 3053   0.429   3.523   1.179  0.9431  0.0267  0.1696
  161ANI     H5 3054   0.370   3.762   1.230 -2.6755 -0.1728 -1.0764
  161ANI     H6 3055   0.305   3.912   1.033 -1.1389 -0.1753  0.5795
  161ANI     H7 3056   0.303   3.831   0.800 -0.0746  0.0488  0.2400
  161ANI     H8 3057   0.358   3.594   0.763 -2.1772 -0.5351  0.4843
  162ANI     C1 3058   0.298   1.361   2.720 -0.1142 -0.3438 -0.1325
  162ANI     O1 3059   0.292   1.359   2.571 -0.4010 -1.0043  0.2529
  162ANI     C2 3060   0.285   1.472   2.488  0.2658  0.0859  0.7019
  162ANI     C3 3061   0.276   1.608   2.538 -0.0234  0.0465  0.1635
  162ANI     C4 3062   0.262   1.705   2.440 -0.3047 -0.5783  0.0192
  162ANI     C5 3063   0.256   1.680   2.306  0.4092  0.3210  0.1571
  162ANI     C6 3064   0.266   1.545   2.262  0.3415 -0.1555  0.0792
  162ANI     C7 3065   0.281   1.442   2.348  0.1891  0.3604 -0.8449
  162ANI     H1 3066   0.381   1.421   2.757 -1.3305  0.8709  0.6748
  162ANI     H2 3067   0.207   1.404   2.764 -0.5491 -2.5935  1.2367
  162ANI     H3 3068   0.314   1.259   2.757 -1.4289 -0.2991  0.6154
  162ANI     H4 3069   0.284   1.630   2.644  1.0052  3.9725 -0.6473
  162ANI     H5 3070   0.254   1.808   2.474  0.2610 -0.5784  0.1664
  162ANI     H6 3071   0.257   1.758   2.231  0.9198 -0.7340 -0.9537
  162ANI     H7 3072   0.266   1.526   2.156 -0.9819 -4.5664  0.7816
  162ANI     H8 3073   0.277   1.339   2.315 -0.1073  0.4030 -0.9472
  163ANI     C1 3074   2.133   0.103   2.213  0.3537  0.0393 -0.6191
  163ANI     O1 3075   2.233   0.200   2.220 -0.4887 -0.1410 -0.0614
  163ANI     C2 3076   2.370   0.182   2.228  0.5313 -0.6900  0.1660
  163ANI     C3 3077   2.442   0.304   2.227 -0.2249 -0.6490  0.3826
  163ANI     C4 3078   2.583   0.296   2.236  0.5285  0.7695  0.0924
  163ANI     C5 3079   2.649   0.174   2.261 -0.3198 -0.2738  0.8745
  163ANI     C6 3080   2.573   0.054   2.279  0.3050  0.2606 -0.2824
  163ANI     C7 3081   2.436   0.060   2.244  0.3716 -0.3351  0.3887
  163ANI     H1 3082   2.166   0.016   2.154  0.1426 -1.4022  1.3305
  163ANI     H2 3083   2.104   0.066   2.313  1.9741 -0.2272 -0.2325
  163ANI     H3 3084   2.045   0.138   2.158 -1.5960 -0.6694  1.9367
  163ANI     H4 3085   2.397   0.401   2.204  0.6483 -0.3949 -0.3120
  163ANI     H5 3086   2.638   0.388   2.223 -0.3882  1.3652  0.3701
  163ANI     H6 3087   2.756   0.175   2.276 -0.0146 -1.4270 -1.1555
  163ANI     H7 3088   2.620  -0.040   2.306  1.9550  1.2462  0.4234
  163ANI     H8 3089   2.387  -0.037   2.248 -1.6999  0.6952  0.9978
  164ANI     C1 3090   0.348   2.532   2.268  0.0749  0.3256  0.2185
  164ANI     O1 3091   0.271   2.442   2.180  0.7335  0.1466 -0.0820
  164ANI     C2 3092   0.222   2.327   2.236  1.3374  0.4190  0.0433
  164ANI     C3 3093   0.296   2.208   2.225  0.4401  0.3071  0.2746
  164ANI     C4 3094   0.249   2.085   2.265 -0.3371 -0.2359 -0.1103
  164ANI     C5 3095   0.120   2.078   2.314 -0.1532  0.0711 -0.0369
  164ANI     C6 3096   0.039   2.191   2.334  0.1152 -0.0850  0.6022
  164ANI     C7 3097   0.091   2.317   2.292  0.4432  0.2561 -0.1687
  164ANI     H1 3098   0.382   2.623   2.216 -1.6224  1.0759  0.3798
  164ANI     H2 3099   0.280   2.578   2.341 -1.1869 -2.0274  0.5739
  164ANI     H3 3100   0.434   2.478   2.309 -0.4241  0.9843  2.1900
  164ANI     H4 3101   0.402   2.210   2.198  0.7822 -0.5731  1.4975
  164ANI     H5 3102   0.306   1.993   2.254  0.4478  0.3031 -0.6190
  164ANI     H6 3103   0.074   1.982   2.335 -0.0958  0.6264  2.8501
  164ANI     H7 3104  -0.062   2.185   2.374  0.3863 -0.3242  1.2655
  164ANI     H8 3105   0.028   2.400   2.319 -0.0096 -0.6041  1.4964
  165ANI     C1 3106   3.028   2.106   2.647 -0.2128  0.1883  0.2054
  165ANI     O1 3107   3.098   2.204   2.563  0.0721  0.1245  0.9446
  165ANI     C2 3108   3.129   2.328   2.617 -0.2408  1.0359 -0.1377
  165ANI     C3 3109   3.144   2.433   2.524  1.0401  0.4025  0.1474
  165ANI     C4 3110   3.177   2.565   2.571 -0.2339  0.1859 -0.2928
  165ANI     C5 3111   3.195   2.590   2.712 -0.5276  0.2700  0.1379
  165ANI     C6 3112   3.189   2.480   2.798  0.0483  0.3606 -0.3183
  165ANI     C7 3113   3.142   2.350   2.752  1.0749  0.1253 -0.1237
  165ANI     H1 3114   2.936   2.145   2.692 -0.0181  0.2628  0.5406
  165ANI     H2 3115   3.005   2.015   2.591 -0.5981  1.0797 -1.0924
  165ANI     H3 3116   3.095   2.084   2.732 -0.4871  0.8021  0.5802
  165ANI     H4 3117   3.137   2.411   2.418  0.0550 -1.0258  0.5025
  165ANI     H5 3118   3.182   2.643   2.496 -2.0521  2.6891  2.0807
  165ANI     H6 3119   3.206   2.691   2.751 -1.2105  0.6826 -0.7200
  165ANI     H7 3120   3.200   2.496   2.904  1.2720 -1.7712 -0.0988
  165ANI     H8 3121   3.140   2.268   2.823  1.3784  1.8633  1.9758
  166ANI     C1 3122   2.624   1.377   3.566 -0.9159 -0.1783  0.5183
  166ANI     O1 3123   2.582   1.339   3.697  0.1877 -0.4460  0.1784
  166ANI     C2 3124   2.665   1.356   3.802  0.3815 -0.2324  0.0147
  166ANI     C3 3125   2.754   1.469   3.806  0.3177  0.6304 -0.6087
  166ANI     C4 3126   2.833   1.492   3.916  0.3144 -0.1221 -0.3251
  166ANI     C5 3127   2.825   1.399   4.025 -0.2788 -0.2130  0.3361
  166ANI     C6 3128   2.750   1.283   4.019 -0.1660  0.2566 -0.7525
  166ANI     C7 3129   2.662   1.271   3.910  0.4433  0.0695 -0.4868
  166ANI     H1 3130   2.546   1.369   3.490  1.2870 -1.0132 -1.7614
  166ANI     H2 3131   2.653   1.482   3.556  0.0846 -0.6654 -2.4081
  166ANI     H3 3132   2.704   1.305   3.540 -0.2903 -0.2023  2.4456
  166ANI     H4 3133   2.761   1.541   3.725 -1.3184 -1.0104 -2.2627
  166ANI     H5 3134   2.893   1.580   3.939  0.7960 -0.5759  0.1755
  166ANI     H6 3135   2.883   1.421   4.114  0.9017 -3.7315  0.5163
  166ANI     H7 3136   2.751   1.223   4.110 -0.6466  0.6839 -0.4585
  166ANI     H8 3137   2.600   1.182   3.897  0.5955 -0.2650  1.0471
  167ANI     C1 3138   1.257   3.125   3.330 -0.6412  0.6061 -0.4661
  167ANI     O1 3139   1.343   3.179   3.430  0.2832 -0.0684  0.5771
  167ANI     C2 3140   1.291   3.240   3.536 -0.0481  0.3642 -0.4238
  167ANI     C3 3141   1.154   3.256   3.563 -0.5277  0.2439  0.4997
  167ANI     C4 3142   1.120   3.338   3.674  0.4230 -0.6044  0.4344
  167ANI     C5 3143   1.216   3.379   3.771 -0.6571  0.1943 -0.2035
  167ANI     C6 3144   1.346   3.350   3.749  0.3812  0.1936 -1.1055
  167ANI     C7 3145   1.386   3.301   3.625 -0.0826  0.9433 -0.5831
  167ANI     H1 3146   1.312   3.068   3.253 -0.9622 -2.2286  1.3097
  167ANI     H2 3147   1.186   3.051   3.368 -1.2873  1.7066  0.4734
  167ANI     H3 3148   1.209   3.209   3.279 -0.3922  0.8218 -0.3461
  167ANI     H4 3149   1.080   3.200   3.507  0.3316 -0.2970 -0.0969
  167ANI     H5 3150   1.014   3.348   3.696  1.0224 -0.3236  3.3409
  167ANI     H6 3151   1.177   3.423   3.862  2.6441  2.0277  0.3614
  167ANI     H7 3152   1.420   3.382   3.821  0.1896  2.1823 -1.7695
  167ANI     H8 3153   1.490   3.279   3.601 -0.3682 -1.4120  0.2459
  168ANI     C1 3154   0.892   2.993   3.444 -0.4579 -0.8753 -0.4790
  168ANI     O1 3155   0.839   3.107   3.514 -0.3456  0.1308 -0.1646
  168ANI     C2 3156   0.714   3.143   3.482  0.9558  0.2824  0.3451
  168ANI     C3 3157   0.603   3.053   3.507 -0.7642  0.2227  1.1046
  168ANI     C4 3158   0.474   3.078   3.471  0.4985 -0.5741 -0.0752
  168ANI     C5 3159   0.450   3.202   3.413 -0.4200  0.1330 -0.5428
  168ANI     C6 3160   0.553   3.294   3.387 -0.1433  0.2104  0.8306
  168ANI     C7 3161   0.687   3.266   3.421  0.0958 -0.3238 -0.1427
  168ANI     H1 3162   0.885   3.018   3.338  1.5216 -0.6924 -0.5828
  168ANI     H2 3163   0.995   2.976   3.476 -1.4933 -0.5877  3.2012
  168ANI     H3 3164   0.827   2.906   3.462 -0.7031 -0.8215 -1.1100
  168ANI     H4 3165   0.618   2.955   3.552 -0.8850 -0.9253 -1.2768
  168ANI     H5 3166   0.401   3.002   3.493 -1.0211  0.5360 -1.1929
  168ANI     H6 3167   0.351   3.226   3.376 -0.6302  0.2373  0.0727
  168ANI     H7 3168   0.526   3.388   3.339 -1.6171 -0.5578  0.1312
  168ANI     H8 3169   0.773   3.326   3.393 -2.2371  1.7110 -3.2330
  169ANI     C1 3170   0.789   0.932   2.281  0.2672  0.0964  0.3711
  169ANI     O1 3171   0.726   1.046   2.221  0.1720 -0.4255 -0.2345
  169ANI     C2 3172   0.761   1.177   2.256 -0.2311  0.1876 -0.2274
  169ANI     C3 3173   0.879   1.218   2.320  0.5468  0.4785  0.2289
  169ANI     C4 3174   0.894   1.354   2.359  0.3939  0.2106 -0.2381
  169ANI     C5 3175   0.798   1.451   2.316 -0.1045 -0.3437 -0.4544
  169ANI     C6 3176   0.690   1.413   2.247  0.5429  0.1988 -0.2381
  169ANI     C7 3177   0.669   1.274   2.221 -0.0356 -0.9084 -0.1140
  169ANI     H1 3178   0.786   0.918   2.390 -0.2764 -1.4986  0.1673
  169ANI     H2 3179   0.749   0.841   2.235 -1.1958  1.2740 -0.7435
  169ANI     H3 3180   0.895   0.929   2.254 -0.2396 -1.6744 -1.6154
  169ANI     H4 3181   0.953   1.149   2.359  1.0924 -0.0714 -1.7356
  169ANI     H5 3182   0.977   1.380   2.424  0.0971  2.5224 -0.7433
  169ANI     H6 3183   0.818   1.553   2.348 -0.2510  0.1160 -1.8001
  169ANI     H7 3184   0.614   1.487   2.222  0.7331  0.7003  0.6466
  169ANI     H8 3185   0.574   1.244   2.177 -0.3640 -1.2516  0.8188
  170ANI     C1 3186   2.018   0.983   2.326  0.3236  0.2449  0.1584
  170ANI     O1 3187   2.079   0.866   2.273  0.4504  0.0667  0.0115
  170ANI     C2 3188   2.011   0.747   2.259 -0.1055 -0.9347  0.1814
  170ANI     C3 3189   1.873   0.739   2.255 -0.3393  0.5525 -0.0818
  170ANI     C4 3190   1.817   0.613   2.241 -0.2950 -0.3508  0.1134
  170ANI     C5 3191   1.891   0.497   2.218  0.1247 -0.2362  0.5114
  170ANI     C6 3192   2.032   0.512   2.215  0.1896 -0.0815  0.2839
  170ANI     C7 3193   2.093   0.639   2.245  0.5347  0.5422  0.9965
  170ANI     H1 3194   1.988   0.954   2.427  1.0586 -0.9279  0.0478
  170ANI     H2 3195   2.091   1.064   2.321 -1.4289  1.8147 -0.9001
  170ANI     H3 3196   1.926   1.004   2.269 -2.0512 -4.0873  2.1169
  170ANI     H4 3197   1.813   0.830   2.265 -0.9771  0.0832  0.3563
  170ANI     H5 3198   1.708   0.607   2.246 -0.5041  2.1683 -1.0343
  170ANI     H6 3199   1.839   0.403   2.201  0.2940  0.1374 -2.2969
  170ANI     H7 3200   2.087   0.420   2.196  0.8271  0.1415  1.0228
  170ANI     H8 3201   2.199   0.660   2.248  0.6660  0.5098 -2.0191
  171ANI     C1 3202   3.231   2.697   3.267 -0.4689  0.1589 -0.3447
  171ANI     O1 3203   3.156   2.593   3.335 -0.3728  1.0517  1.1450
  171ANI     C2 3204   3.040   2.618   3.405 -0.3708  0.3790 -0.0036
  171ANI     C3 3205   2.991   2.742   3.412  0.6435  0.1576 -0.0142
  171ANI     C4 3206   2.877   2.768   3.490  0.4297 -0.1654  0.6433
  171ANI     C5 3207   2.808   2.662   3.556 -0.7230 -0.1581 -0.0284
  171ANI     C6 3208   2.871   2.535   3.556  0.5812 -0.2457 -0.0015
  171ANI     C7 3209   2.987   2.511   3.474 -0.3306  0.2655 -0.2449
  171ANI     H1 3210   3.263   2.771   3.341  1.9539 -0.7718 -0.4187
  171ANI     H2 3211   3.327   2.665   3.223  0.7577  1.2445  1.5150
  171ANI     H3 3212   3.168   2.755   3.198 -1.6561  0.1269  0.7108
  171ANI     H4 3213   3.032   2.825   3.355 -0.1382  0.1249 -0.6187
  171ANI     H5 3214   2.829   2.866   3.483  1.1714  0.1680  0.1953
  171ANI     H6 3215   2.722   2.681   3.619 -0.4526  1.8427 -0.2537
  171ANI     H7 3216   2.829   2.453   3.614 -1.2034  0.9778  0.4644
  171ANI     H8 3217   3.028   2.411   3.465  0.7415  0.6084  0.7176
  172ANI     C1 3218   1.421   0.823   3.676 -0.0488  0.1666 -0.6867
  172ANI     O1 3219   1.393   0.947   3.735 -0.3193  0.5213  0.8946
  172ANI     C2 3220   1.472   1.001   3.835 -0.4462 -0.1083 -0.4975
  172ANI     C3 3221   1.591   0.944   3.880 -0.6129  0.5325 -0.1961
  172ANI     C4 3222   1.667   1.001   3.986  0.3986 -0.3374 -0.3537
  172ANI     C5 3223   1.632   1.125   4.032  0.6141  0.0137 -0.1271
  172ANI     C6 3224   1.521   1.193   3.979 -0.2516  0.5440  0.2242
  172ANI     C7 3225   1.440   1.130   3.883 -0.2138  0.1092  0.2219
  172ANI     H1 3226   1.519   0.814   3.628 -0.2109  1.2382 -1.2421
  172ANI     H2 3227   1.409   0.744   3.751  0.3281  1.1094  0.3751
  172ANI     H3 3228   1.354   0.808   3.591  0.1343 -3.4164 -0.2947
  172ANI     H4 3229   1.620   0.844   3.851 -0.4342  0.3497  0.6051
  172ANI     H5 3230   1.757   0.952   4.022 -0.0126  0.1528  1.4005
  172ANI     H6 3231   1.704   1.174   4.098  1.1881 -1.9393  0.7248
  172ANI     H7 3232   1.504   1.297   4.006  0.9574  0.9594 -0.5532
  172ANI     H8 3233   1.362   1.181   3.826 -1.4247 -1.4212  0.4672
  173ANI     C1 3234   0.116   0.647   1.198 -0.3877  1.0878 -0.4532
  173ANI     O1 3235   0.045   0.594   1.084  0.4797 -0.3859 -0.1576
  173ANI     C2 3236  -0.055   0.502   1.110 -0.3674  0.4251  0.3254
  173ANI     C3 3237  -0.175   0.516   1.042  0.2362 -0.1514 -0.3306
  173ANI     C4 3238  -0.279   0.423   1.051 -0.3674  0.6113 -0.7953
  173ANI     C5 3239  -0.271   0.313   1.139  0.1020 -0.0072  0.2519
  173ANI     C6 3240  -0.142   0.295   1.201  0.5567 -0.2534 -0.3343
  173ANI     C7 3241  -0.034   0.388   1.189 -1.1624 -0.3129  0.5639
  173ANI     H1 3242   0.056   0.722   1.251 -0.9967  0.2709  0.0200
  173ANI     H2 3243   0.149   0.568   1.267 -1.4846  2.4467  1.6844
  173ANI     H3 3244   0.197   0.706   1.152 -0.7283  1.6106 -0.3827
  173ANI     H4 3245  -0.188   0.608   0.984  0.5026  1.3115  1.8815
  173ANI     H5 3246  -0.376   0.445   1.007 -0.9342  0.2231  0.2153
  173ANI     H6 3247  -0.348   0.237   1.148 -0.1933  0.2627  0.0241
  173ANI     H7 3248  -0.117   0.208   1.260  0.9242 -0.7318 -1.1917
  173ANI     H8 3249   0.063   0.372   1.235  0.4953  0.1274 -2.6042
  174ANI     C1 3250   0.910   2.708   3.005  0.0275  0.0195 -0.0129
  174ANI     O1 3251   0.857   2.835   3.017  0.3445 -0.0441  0.2302
  174ANI     C2 3252   0.923   2.951   2.989 -0.0529 -0.0383  0.2940
  174ANI     C3 3253   0.881   3.066   3.053  0.0828  0.3193 -0.9786
  174ANI     C4 3254   0.937   3.192   3.029 -0.1376 -0.3652 -0.2741
  174ANI     C5 3255   1.029   3.196   2.931 -0.1754  0.9092 -0.4561
  174ANI     C6 3256   1.078   3.086   2.856  0.0375 -0.2251 -0.6131
  174ANI     C7 3257   1.021   2.960   2.890  0.5959  0.6658 -0.4199
  174ANI     H1 3258   0.954   2.685   2.907 -1.8614 -1.0015 -0.6418
  174ANI     H2 3259   0.996   2.700   3.072 -0.4436 -2.2341  0.3496
  174ANI     H3 3260   0.837   2.635   3.039  0.2991  0.6909  2.0652
  174ANI     H4 3261   0.799   3.063   3.124 -0.1967  0.6525 -1.2872
  174ANI     H5 3262   0.908   3.282   3.083  0.2579 -0.4303  0.0483
  174ANI     H6 3263   1.067   3.296   2.911  1.3091  0.7083  1.1814
  174ANI     H7 3264   1.153   3.096   2.777 -0.9110  1.4206 -1.3319
  174ANI     H8 3265   1.046   2.875   2.827  1.8826  0.1256  0.8066
  175ANI     C1 3266   0.105   0.086   3.661 -0.0867  0.5245  0.0601
  175ANI     O1 3267   0.037   0.053   3.544 -0.7888  0.9497 -0.2312
  175ANI     C2 3268   0.092   0.050   3.418 -0.0006 -0.2750  0.0641
  175ANI     C3 3269   0.235   0.071   3.396  0.4774 -0.4902 -0.3262
  175ANI     C4 3270   0.285   0.068   3.262  0.0686  0.1578 -0.0629
  175ANI     C5 3271   0.201   0.037   3.153 -0.7238  0.1828 -0.2811
  175ANI     C6 3272   0.066   0.017   3.175  1.2126 -0.8514  0.5115
  175ANI     C7 3273   0.012   0.028   3.309 -0.1395  0.3052 -0.0891
  175ANI     H1 3274   0.179   0.006   3.677 -1.3858 -0.4499  1.3908
  175ANI     H2 3275   0.155   0.183   3.650 -1.7631  1.3334 -0.5472
  175ANI     H3 3276   0.037   0.092   3.748 -0.7644  0.1891 -0.4396
  175ANI     H4 3277   0.307   0.100   3.473 -0.7349  2.8902 -0.3864
  175ANI     H5 3278   0.390   0.086   3.242  0.1671  1.7198  1.6961
  175ANI     H6 3279   0.233   0.035   3.049 -1.1112  0.8148 -0.4161
  175ANI     H7 3280  -0.000  -0.008   3.093  2.2765 -1.3296 -0.2085
  175ANI     H8 3281  -0.095   0.019   3.326 -0.4486  0.7763 -1.6835
  176ANI     C1 3282   2.858   1.454   2.245 -0.0757  0.0178 -0.9159
  176ANI     O1 3283   2.886   1.313   2.226  0.0710 -0.5152 -0.3240
  176ANI     C2 3284   3.020   1.272   2.235 -0.4568 -0.0439  0.4864
  176ANI     C3 3285   3.043   1.135   2.198 -0.2880 -0.4061 -0.6471
  176ANI     C4 3286   3.163   1.077   2.205 -0.3451  0.1462  0.1336
  176ANI     C5 3287   3.275   1.154   2.250 -0.1671 -0.0154  1.0307
  176ANI     C6 3288   3.259   1.286   2.290  0.0157 -0.7671  0.5761
  176ANI     C7 3289   3.134   1.350   2.279 -0.2366 -0.4954  0.9453
  176ANI     H1 3290   2.911   1.518   2.172  0.6526 -1.4746 -1.7151
  176ANI     H2 3291   2.750   1.466   2.229 -0.3167 -0.7660  0.1102
  176ANI     H3 3292   2.885   1.499   2.341  1.6958  0.3807 -1.5523
  176ANI     H4 3293   2.960   1.068   2.180 -0.4742 -0.0384 -1.1957
  176ANI     H5 3294   3.169   0.973   2.175 -1.0014 -0.4120  1.9162
  176ANI     H6 3295   3.374   1.112   2.233 -0.5378  0.0763 -1.4766
  176ANI     H7 3296   3.343   1.347   2.320  0.1021 -0.7967  0.3979
  176ANI     H8 3297   3.118   1.454   2.305  1.1045  0.3802 -1.5840
  177ANI     C1 3298   1.494   1.588   2.902  0.1630 -0.0281  0.7001
  177ANI     O1 3299   1.503   1.508   2.782  0.1045  0.2777 -0.1253
  177ANI     C2 3300   1.399   1.439   2.727  0.2942 -0.3350  1.3560
  177ANI     C3 3301   1.268   1.426   2.787 -0.3563  0.1261 -0.2744
  177ANI     C4 3302   1.176   1.348   2.714 -0.6530 -0.5342 -0.0103
  177ANI     C5 3303   1.212   1.277   2.592  0.3757  0.1963 -0.3388
  177ANI     C6 3304   1.342   1.289   2.546 -0.0245 -0.0875  0.2756
  177ANI     C7 3305   1.434   1.370   2.609  0.0163 -0.2948 -0.5586
  177ANI     H1 3306   1.407   1.654   2.892 -0.6326 -1.1738 -0.0765
  177ANI     H2 3307   1.490   1.531   2.995 -2.3811  2.7380  2.3675
  177ANI     H3 3308   1.584   1.651   2.912  1.1414 -1.3763  0.6457
  177ANI     H4 3309   1.242   1.476   2.880 -1.4492 -0.3573 -0.3169
  177ANI     H5 3310   1.077   1.341   2.760  0.0331 -2.7682  1.2344
  177ANI     H6 3311   1.136   1.219   2.539  0.8452 -0.3257 -0.4478
  177ANI     H7 3312   1.379   1.243   2.454 -1.8034 -0.7521 -0.1263
  177ANI     H8 3313   1.540   1.377   2.585  0.6972 -1.6783  1.8768
  178ANI     C1 3314   1.994   2.621   3.451  0.3291  0.1109 -0.1886
  178ANI     O1 3315   1.882   2.652   3.370 -0.5261 -0.0649  0.1421
  178ANI     C2 3316   1.777   2.571   3.352  0.2895  0.3362 -0.2104
  178ANI     C3 3317   1.761   2.449   3.419  0.0198  0.9345  0.5056
  178ANI     C4 3318   1.648   2.370   3.392 -1.3054 -0.2925 -0.4934
  178ANI     C5 3319   1.552   2.410   3.300  1.0953 -0.0701  0.2733
  178ANI     C6 3320   1.573   2.529   3.219  0.3190 -0.1881  0.2642
  178ANI     C7 3321   1.688   2.606   3.248  0.1730  0.1545  0.7148
  178ANI     H1 3322   2.060   2.707   3.436 -0.2197  0.7275  0.8299
  178ANI     H2 3323   1.969   2.610   3.557 -2.0451 -1.6953 -0.9006
  178ANI     H3 3324   2.047   2.531   3.418 -1.3261 -0.3933 -1.5242
  178ANI     H4 3325   1.832   2.431   3.499 -1.1952  1.1347  1.6422
  178ANI     H5 3326   1.641   2.270   3.434 -1.6583 -1.0246 -2.2357
  178ANI     H6 3327   1.475   2.340   3.271  0.0297  0.7720  1.0478
  178ANI     H7 3328   1.520   2.552   3.128 -0.0944  2.6527  1.1717
  178ANI     H8 3329   1.712   2.695   3.190  1.8300 -0.4452  0.4357
  179ANI     C1 3330   0.968   2.908   1.155 -0.2600  0.1478 -0.0094
  179ANI     O1 3331   0.978   3.045   1.179 -0.0437 -0.2471  0.0691
  179ANI     C2 3332   0.870   3.132   1.165  0.0634 -0.8139  0.4818
  179ANI     C3 3333   0.881   3.269   1.219  0.1858 -0.3100  0.3945
  179ANI     C4 3334   0.773   3.358   1.210  0.6021 -0.7191 -0.3916
  179ANI     C5 3335   0.653   3.318   1.155 -0.7994  0.4308  0.7308
  179ANI     C6 3336   0.635   3.188   1.098 -0.4427  0.4402  0.5162
  179ANI     C7 3337   0.744   3.100   1.107 -0.2633 -0.5172 -0.3864
  179ANI     H1 3338   1.070   2.867   1.154 -1.2649 -2.4181 -0.5559
  179ANI     H2 3339   0.919   2.856   1.238 -0.8272 -3.0651 -2.2387
  179ANI     H3 3340   0.918   2.889   1.059 -0.2898 -1.5758  0.3207
  179ANI     H4 3341   0.976   3.303   1.259  0.0354  1.9536 -1.0928
  179ANI     H5 3342   0.790   3.459   1.247  1.8050 -0.9598 -0.2664
  179ANI     H6 3343   0.565   3.382   1.158 -1.6971 -0.7802  0.3944
  179ANI     H7 3344   0.546   3.148   1.050  0.7359 -2.3655  0.5755
  179ANI     H8 3345   0.726   3.004   1.060  1.0180 -0.6071 -0.7057
  180ANI     C1 3346   1.592   2.596   1.374 -0.2778  0.0385 -0.5140
  180ANI     O1 3347   1.694   2.586   1.477  0.0878  0.5033  0.2553
  180ANI     C2 3348   1.822   2.637   1.457  0.1529 -0.2950  0.0625
  180ANI     C3 3349   1.903   2.625   1.564 -0.5983  0.2686 -0.2001
  180ANI     C4 3350   2.038   2.656   1.553  0.7922  0.5478  0.2597
  180ANI     C5 3351   2.093   2.700   1.425 -0.9719  0.6901 -0.6160
  180ANI     C6 3352   2.003   2.704   1.314  0.7680  0.2900  0.6086
  180ANI     C7 3353   1.869   2.680   1.333  0.0593  1.1700 -0.3639
  180ANI     H1 3354   1.634   2.561   1.279 -1.2069 -0.8926 -0.5810
  180ANI     H2 3355   1.506   2.534   1.400 -1.1592  0.1128 -3.1263
  180ANI     H3 3356   1.546   2.696   1.372 -0.2283  0.0608 -0.5501
  180ANI     H4 3357   1.854   2.597   1.657  0.0837  1.2588  0.4714
  180ANI     H5 3358   2.103   2.647   1.640  0.1278 -0.4514  0.6520
  180ANI     H6 3359   2.198   2.726   1.420 -0.5526 -1.2157 -1.9083
  180ANI     H7 3360   2.037   2.726   1.214 -0.7193 -2.3766 -0.5466
  180ANI     H8 3361   1.812   2.691   1.241  0.6020 -1.0561 -0.9969
  181ANI     C1 3362   1.319   0.739   0.852  0.0198  0.5051 -0.4231
  181ANI     O1 3363   1.207   0.644   0.845 -0.0271 -0.4009  0.2521
  181ANI     C2 3364   1.201   0.533   0.764 -0.2026  1.3299  0.3821
  181ANI     C3 3365   1.283   0.523   0.653  0.1364 -0.2024 -0.0787
  181ANI     C4 3366   1.289   0.412   0.572 -0.3031  0.4697  0.1281
  181ANI     C5 3367   1.203   0.302   0.598 -0.3745  0.4114 -0.7315
  181ANI     C6 3368   1.119   0.306   0.711  0.2595 -0.0951  1.2184
  181ANI     C7 3369   1.122   0.417   0.793  0.1533  0.0526 -0.2849
  181ANI     H1 3370   1.294   0.801   0.939 -0.3959  0.6593 -0.6489
  181ANI     H2 3371   1.414   0.686   0.859 -0.7441 -0.7385  0.7594
  181ANI     H3 3372   1.331   0.795   0.758 -0.9355  0.9127 -0.3076
  181ANI     H4 3373   1.354   0.604   0.635  0.1876 -0.4335 -0.9307
  181ANI     H5 3374   1.350   0.403   0.483  0.0093 -0.1598  0.4039
  181ANI     H6 3375   1.203   0.213   0.535 -0.6665 -1.6328  2.0674
  181ANI     H7 3376   1.055   0.222   0.739  0.5963 -0.7287  0.1292
  181ANI     H8 3377   1.054   0.420   0.878 -0.6029 -1.0621 -0.8306
  182ANI     C1 3378   3.063   2.157   2.266 -0.1311 -0.1968 -0.1646
  182ANI     O1 3379   2.920   2.145   2.209 -0.4051 -0.3413 -0.0627
  182ANI     C2 3380   2.809   2.203   2.266 -0.3604 -0.1641  0.3980
  182ANI     C3 3381   2.813   2.312   2.353  0.0828  0.0245  0.0145
  182ANI     C4 3382   2.699   2.353   2.412  0.4079 -0.5715  0.0099
  182ANI     C5 3383   2.576   2.288   2.383 -0.1972 -0.1270 -0.3528
  182ANI     C6 3384   2.567   2.180   2.292  0.3027 -0.1248  0.0640
  182ANI     C7 3385   2.688   2.138   2.238 -0.5848 -0.3812 -0.3668
  182ANI     H1 3386   3.139   2.139   2.189  0.8250  1.3335  0.3812
  182ANI     H2 3387   3.078   2.261   2.300 -0.3431 -0.1967 -0.0723
  182ANI     H3 3388   3.072   2.087   2.349 -2.1630  0.5462  0.7177
  182ANI     H4 3389   2.905   2.363   2.381 -2.4104  4.4960  0.5912
  182ANI     H5 3390   2.700   2.437   2.481  0.6702  1.0533 -1.9342
  182ANI     H6 3391   2.483   2.333   2.415 -0.7896 -0.6905 -1.2843
  182ANI     H7 3392   2.474   2.130   2.268  1.1511 -1.0164 -1.4204
  182ANI     H8 3393   2.697   2.051   2.174  1.4424  0.0402 -0.7040
  183ANI     C1 3394   1.739   3.031   3.107 -0.6958  0.6611 -0.2778
  183ANI     O1 3395   1.726   3.170   3.083  0.4309  0.5326  0.2488
  183ANI     C2 3396   1.826   3.261   3.108 -0.4427  0.1214  0.1965
  183ANI     C3 3397   1.963   3.226   3.079 -0.9014  0.4481  0.0868
  183ANI     C4 3398   2.063   3.327   3.090 -0.1266 -0.5545  0.7977
  183ANI     C5 3399   2.022   3.466   3.116  0.1458  0.2862  0.7017
  183ANI     C6 3400   1.890   3.505   3.144 -0.5145 -0.5593 -0.3176
  183ANI     C7 3401   1.796   3.400   3.147 -0.2609 -0.3916  0.5769
  183ANI     H1 3402   1.644   2.976   3.101 -0.6263  0.3979  0.9140
  183ANI     H2 3403   1.802   2.995   3.025  2.5694  2.1202  1.5167
  183ANI     H3 3404   1.786   3.016   3.204  0.3651  1.5900 -0.6339
  183ANI     H4 3405   1.992   3.126   3.048  0.9565  0.9124  0.2984
  183ANI     H5 3406   2.164   3.301   3.062 -1.1530 -0.5218 -3.3324
  183ANI     H6 3407   2.088   3.550   3.097 -0.4462  0.7496  0.6947
  183ANI     H7 3408   1.878   3.605   3.183 -1.6075 -0.9307  0.3182
  183ANI     H8 3409   1.695   3.422   3.182 -0.3075  1.5638 -0.7164
  184ANI     C1 3410   1.248   0.015   2.622 -0.3762 -0.4457 -0.3268
  184ANI     O1 3411   1.172   0.132   2.598 -0.1606 -0.2831 -0.5668
  184ANI     C2 3412   1.192   0.247   2.674  0.3150  0.1039 -0.3953
  184ANI     C3 3413   1.316   0.272   2.750 -0.1820 -0.2952  0.8620
  184ANI     C4 3414   1.321   0.380   2.842 -0.6653  1.0484 -0.0517
  184ANI     C5 3415   1.215   0.476   2.858 -0.4676 -0.2010  0.0885
  184ANI     C6 3416   1.099   0.453   2.784  0.8097  0.6936  0.2382
  184ANI     C7 3417   1.082   0.340   2.695  0.1722 -0.0718  0.1766
  184ANI     H1 3418   1.236  -0.006   2.729 -2.1094 -1.9877 -0.7976
  184ANI     H2 3419   1.206  -0.073   2.572 -0.9635 -2.1727  3.0849
  184ANI     H3 3420   1.352   0.020   2.588 -0.0129  0.1391  0.8294
  184ANI     H4 3421   1.399   0.202   2.740 -0.5020 -0.6571  0.7309
  184ANI     H5 3422   1.412   0.395   2.899  0.1909 -0.4999 -0.9601
  184ANI     H6 3423   1.217   0.559   2.927  0.8609  1.6047 -2.0425
  184ANI     H7 3424   1.014   0.519   2.793 -0.3988 -1.0393  1.9432
  184ANI     H8 3425   0.991   0.332   2.636  0.4527 -2.0997 -0.0259
  185ANI     C1 3426   1.989   0.257   3.760  0.3289 -0.3765 -0.5536
  185ANI     O1 3427   1.873   0.219   3.676 -0.2506 -0.1587 -0.0298
  185ANI     C2 3428   1.858   0.101   3.607 -0.5695 -0.0078 -0.0090
  185ANI     C3 3429   1.746   0.083   3.527  0.8533  0.2389 -0.3583
  185ANI     C4 3430   1.733  -0.041   3.460 -0.2080 -0.1028  0.0554
  185ANI     C5 3431   1.841  -0.139   3.477  0.2718  0.5821 -0.6161
  185ANI     C6 3432   1.956  -0.113   3.546 -0.4923 -0.6514  0.3465
  185ANI     C7 3433   1.965   0.006   3.617 -0.0285  0.6180 -0.7861
  185ANI     H1 3434   1.995   0.184   3.841 -1.0966  0.3781  0.2440
  185ANI     H2 3435   2.076   0.255   3.693  0.9881  1.6613  0.2074
  185ANI     H3 3436   1.968   0.350   3.814  1.4036  0.1515 -1.0137
  185ANI     H4 3437   1.675   0.164   3.518 -0.1396 -0.5445  0.3348
  185ANI     H5 3438   1.662  -0.055   3.379  0.9237 -0.9291 -0.8045
  185ANI     H6 3439   1.842  -0.231   3.419 -1.2702 -0.5774  1.1045
  185ANI     H7 3440   2.042  -0.179   3.543 -2.3539 -3.0565 -3.3987
  185ANI     H8 3441   2.058   0.029   3.666 -0.1103  1.9505 -1.2491
  186ANI     C1 3442   0.767   1.075   1.279  0.3942  0.3708 -0.1275
  186ANI     O1 3443   0.819   1.144   1.394 -0.5981 -0.4411 -0.7349
  186ANI     C2 3444   0.834   1.280   1.396 -0.2093 -0.2460  0.8551
  186ANI     C3 3445   0.779   1.368   1.309 -0.2360  0.1052  0.2282
  186ANI     C4 3446   0.791   1.509   1.320  0.4281  0.5586  0.1013
  186ANI     C5 3447   0.871   1.561   1.419 -0.0513 -0.4379  0.3229
  186ANI     C6 3448   0.937   1.472   1.506 -0.6241 -0.2570  0.2282
  186ANI     C7 3449   0.915   1.335   1.493 -0.3184 -0.4694  0.5999
  186ANI     H1 3450   0.833   1.045   1.197 -0.8217 -0.1055 -0.9599
  186ANI     H2 3451   0.719   0.982   1.312 -0.2214  0.6459 -0.2285
  186ANI     H3 3452   0.694   1.138   1.226  1.6830  1.6034 -0.4787
  186ANI     H4 3453   0.714   1.345   1.225 -1.0206  2.0323  0.2855
  186ANI     H5 3454   0.752   1.578   1.246  4.3411  1.9317 -0.7895
  186ANI     H6 3455   0.882   1.669   1.415  0.3881 -0.4925  0.1344
  186ANI     H7 3456   1.005   1.508   1.583 -2.3132  1.6392  0.8747
  186ANI     H8 3457   0.958   1.264   1.563  1.5487 -0.3231 -0.3772
  187ANI     C1 3458   1.438   3.279   2.914  0.3792  0.2277  0.3055
  187ANI     O1 3459   1.475   3.415   2.925 -0.1220  0.1751  0.1821
  187ANI     C2 3460   1.463   3.484   3.044  0.2446  0.5507 -0.0854
  187ANI     C3 3461   1.506   3.616   3.053  0.5320  0.1480 -0.4120
  187ANI     C4 3462   1.497   3.690   3.174 -0.4913  0.0259  0.1982
  187ANI     C5 3463   1.438   3.633   3.290 -0.2846 -0.3492 -0.2270
  187ANI     C6 3464   1.416   3.494   3.287  0.7040  0.4604 -0.0487
  187ANI     C7 3465   1.419   3.422   3.164 -0.2868 -1.1784  0.0402
  187ANI     H1 3466   1.488   3.217   2.989 -1.8912  1.1737  2.6956
  187ANI     H2 3467   1.330   3.259   2.922  0.6706 -0.9414  1.5789
  187ANI     H3 3468   1.463   3.249   2.811  0.1792 -0.0110  0.3278
  187ANI     H4 3469   1.565   3.659   2.972  2.5007  0.6329  1.2207
  187ANI     H5 3470   1.526   3.794   3.176 -1.6067  0.4247 -2.1991
  187ANI     H6 3471   1.435   3.695   3.379 -0.5156 -1.4572  0.5455
  187ANI     H7 3472   1.382   3.452   3.382  0.4968  1.8696  0.5095
  187ANI     H8 3473   1.378   3.322   3.175 -1.8143 -0.4290  1.2966
  188ANI     C1 3474   2.452   3.029   2.860  0.8665 -0.6314  0.5932
  188ANI     O1 3475   2.325   3.023   2.801 -0.3045  0.1138 -0.7481
  188ANI     C2 3476   2.219   2.956   2.860 -0.0742  0.3233 -0.2462
  188ANI     C3 3477   2.209   2.915   2.991 -0.6038 -0.4847  0.1170
  188ANI     C4 3478   2.121   2.820   3.033 -0.1777  0.1364 -0.2476
  188ANI     C5 3479   2.023   2.772   2.946  0.3261  0.1246 -0.0496
  188ANI     C6 3480   2.015   2.815   2.812 -0.9329  0.3963 -0.1263
  188ANI     C7 3481   2.112   2.917   2.777 -0.1931 -0.2584  0.2334
  188ANI     H1 3482   2.497   2.929   2.851 -1.8136 -1.8708  0.5320
  188ANI     H2 3483   2.513   3.111   2.820  0.5491 -0.4111  0.5671
  188ANI     H3 3484   2.451   3.046   2.968  1.4728  0.7531  0.3895
  188ANI     H4 3485   2.276   2.938   3.074 -1.4359  1.0494  0.3838
  188ANI     H5 3486   2.135   2.782   3.134 -1.0718 -0.7063 -0.4243
  188ANI     H6 3487   1.954   2.700   2.989  1.0847 -1.7494 -1.8833
  188ANI     H7 3488   1.932   2.782   2.751 -1.0958  1.5782 -0.5420
  188ANI     H8 3489   2.114   2.958   2.677  0.2269  0.1679  0.4130
  189ANI     C1 3490   2.395   2.381   3.241  0.5227  0.0614 -0.6973
  189ANI     O1 3491   2.370   2.497   3.330  0.3244  0.3209 -0.0265
  189ANI     C2 3492   2.417   2.508   3.454 -0.3090 -0.2925 -0.3567
  189ANI     C3 3493   2.498   2.405   3.510  0.3471  0.1347  0.6426
  189ANI     C4 3494   2.548   2.424   3.634 -0.7856 -0.6405  0.1486
  189ANI     C5 3495   2.502   2.518   3.723  0.8656 -0.1118 -0.7920
  189ANI     C6 3496   2.422   2.626   3.670 -0.8138 -0.1210 -0.1817
  189ANI     C7 3497   2.390   2.622   3.527  0.6138 -0.1796  0.0735
  189ANI     H1 3498   2.344   2.397   3.145  2.0429  0.3548 -1.4760
  189ANI     H2 3499   2.502   2.363   3.226  0.5167 -0.5441 -0.0501
  189ANI     H3 3500   2.357   2.296   3.299 -1.9517  0.2074 -2.0488
  189ANI     H4 3501   2.531   2.318   3.454  0.7148 -0.3238  1.5549
  189ANI     H5 3502   2.611   2.343   3.670 -0.6429 -0.3482  0.5594
  189ANI     H6 3503   2.529   2.524   3.828 -1.5548 -1.9718 -0.0141
  189ANI     H7 3504   2.390   2.713   3.727 -1.2172 -2.1025  2.6704
  189ANI     H8 3505   2.329   2.699   3.481  0.1638 -1.4149 -1.4399
  190ANI     C1 3506   1.192   0.936   1.529 -0.0609  0.6017  0.5260
  190ANI     O1 3507   1.157   0.790   1.546  0.4705  0.3637  0.0668
  190ANI     C2 3508   1.029   0.760   1.566  0.7415  0.1002  0.7247
  190ANI     C3 3509   0.920   0.853   1.559 -0.9855  0.3978 -0.2377
  190ANI     C4 3510   0.792   0.805   1.571  0.7665  0.1648  0.0678
  190ANI     C5 3511   0.771   0.672   1.579  0.0020  0.6176 -0.2040
  190ANI     C6 3512   0.873   0.576   1.573  0.5800  0.1555 -0.1615
  190ANI     C7 3513   1.003   0.620   1.576  0.1270  0.7271 -0.1912
  190ANI     H1 3514   1.178   0.994   1.621 -1.0353  3.4531 -1.3500
  190ANI     H2 3515   1.298   0.943   1.502  0.2531 -2.4165  0.8076
  190ANI     H3 3516   1.128   0.983   1.452  1.1015 -0.8776 -1.4052
  190ANI     H4 3517   0.939   0.959   1.555  0.8793  0.0420 -1.3011
  190ANI     H5 3518   0.713   0.880   1.577 -0.2939 -0.4482 -4.3510
  190ANI     H6 3519   0.669   0.636   1.588  0.6537 -1.2606 -0.1130
  190ANI     H7 3520   0.850   0.471   1.581  0.8846  0.1727  1.2452
  190ANI     H8 3521   1.086   0.550   1.580 -0.3641  0.2103  1.8839
  191ANI     C1 3522   0.153   0.560   2.675  0.5865  0.4803  0.0858
  191ANI     O1 3523   0.142   0.695   2.635  0.1316 -0.2131 -0.4156
  191ANI     C2 3524   0.201   0.757   2.529  0.4272  0.8671 -0.0803
  191ANI     C3 3525   0.179   0.898   2.511 -0.2503 -0.2874  0.2401
  191ANI     C4 3526   0.244   0.968   2.410  0.1059  0.7065  0.0830
  191ANI     C5 3527   0.336   0.897   2.329  0.1028 -0.0082 -0.1333
  191ANI     C6 3528   0.350   0.761   2.336  0.0076 -0.2999  0.2758
  191ANI     C7 3529   0.276   0.689   2.436 -0.3486 -0.2950 -0.9846
  191ANI     H1 3530   0.103   0.542   2.771 -0.7953 -1.3059 -0.9191
  191ANI     H2 3531   0.099   0.494   2.605  1.8812  0.7706 -1.1943
  191ANI     H3 3532   0.259   0.532   2.671  0.5176  0.3451 -0.9723
  191ANI     H4 3533   0.095   0.945   2.562  0.3451  0.4365  0.5709
  191ANI     H5 3534   0.229   1.075   2.403 -0.5261  0.5474 -1.1492
  191ANI     H6 3535   0.385   0.960   2.255 -0.5107  2.1295  1.2514
  191ANI     H7 3536   0.414   0.702   2.270  0.7522 -0.9940  1.5901
  191ANI     H8 3537   0.288   0.581   2.443  0.3646 -0.1742 -0.3213
  192ANI     C1 3538   0.922   2.643   2.224  0.0148 -0.6263  0.8407
  192ANI     O1 3539   0.789   2.691   2.258 -0.1594  0.0362  0.1275
  192ANI     C2 3540   0.761   2.801   2.327 -0.0471 -0.2476 -0.5607
  192ANI     C3 3541   0.854   2.883   2.398 -0.6958  0.4073  0.2991
  192ANI     C4 3542   0.811   2.981   2.491 -0.3854 -0.7141 -0.1873
  192ANI     C5 3543   0.679   3.010   2.498 -0.2749  0.2291  0.3970
  192ANI     C6 3544   0.582   2.932   2.432 -0.3687 -0.0746 -0.0553
  192ANI     C7 3545   0.623   2.829   2.347 -0.4793 -0.1523 -0.1753
  192ANI     H1 3546   0.915   2.559   2.154  2.6311 -0.1838 -0.0094
  192ANI     H2 3547   0.971   2.726   2.172 -0.5009 -1.7259 -1.4765
  192ANI     H3 3548   0.974   2.602   2.312 -1.0581 -1.6643  1.0119
  192ANI     H4 3549   0.961   2.866   2.391 -0.9978 -0.5958 -2.1505
  192ANI     H5 3550   0.875   3.042   2.553  0.1913 -1.0471 -0.4459
  192ANI     H6 3551   0.647   3.075   2.578 -0.4641 -1.1484  1.4648
  192ANI     H7 3552   0.477   2.960   2.436 -0.1677  0.8304 -0.9057
  192ANI     H8 3553   0.551   2.757   2.309 -0.8810 -1.8872  3.5501
  193ANI     C1 3554   0.606   1.118   0.841  0.0141 -0.2511 -0.2639
  193ANI     O1 3555   0.635   1.256   0.861 -0.5486 -0.5641  0.3844
  193ANI     C2 3556   0.678   1.346   0.763  0.8701 -0.1661  0.3323
  193ANI     C3 3557   0.712   1.299   0.636  0.7688  0.1635  0.4227
  193ANI     C4 3558   0.752   1.383   0.538 -0.5945 -0.1040  0.5973
  193ANI     C5 3559   0.768   1.515   0.561  0.3221 -0.0902 -1.0161
  193ANI     C6 3560   0.737   1.571   0.688  0.1937 -0.2422 -0.2547
  193ANI     C7 3561   0.686   1.482   0.791  0.3992 -0.6721  0.0994
  193ANI     H1 3562   0.560   1.077   0.932  0.0070  0.3733  0.0146
  193ANI     H2 3563   0.535   1.110   0.758  0.2602 -1.7436 -0.3397
  193ANI     H3 3564   0.702   1.069   0.818 -0.1879  0.4886 -2.7652
  193ANI     H4 3565   0.698   1.193   0.616  0.4444  0.4769 -1.0215
  193ANI     H5 3566   0.774   1.343   0.439  0.8104  0.6891  0.5915
  193ANI     H6 3567   0.807   1.585   0.488  1.3825  0.6299  0.2202
  193ANI     H7 3568   0.749   1.675   0.718 -0.8918 -0.6497  1.7662
  193ANI     H8 3569   0.665   1.527   0.887  0.5408  0.2849 -0.3155
  194ANI     C1 3570   2.917   0.703   1.223  0.8325  0.3127  0.1156
  194ANI     O1 3571   2.831   0.698   1.112 -0.0119 -0.2770 -0.5218
  194ANI     C2 3572   2.697   0.677   1.118  0.6734  0.2307 -0.9382
  194ANI     C3 3573   2.639   0.609   1.227  0.0371 -0.0776 -0.6861
  194ANI     C4 3574   2.502   0.600   1.240  0.9919 -0.0285 -0.1998
  194ANI     C5 3575   2.421   0.646   1.140  0.0666  0.1374  0.6223
  194ANI     C6 3576   2.475   0.715   1.028  0.4250 -0.4270  0.1342
  194ANI     C7 3577   2.612   0.725   1.015 -0.0057  0.1052 -0.2375
  194ANI     H1 3578   2.894   0.617   1.288 -0.5491  0.3318 -0.3306
  194ANI     H2 3579   3.025   0.704   1.203  0.3274  0.4332 -2.7729
  194ANI     H3 3580   2.885   0.783   1.290 -0.8462 -0.1886 -0.0572
  194ANI     H4 3581   2.699   0.566   1.307  2.8706  0.1940 -2.5687
  194ANI     H5 3582   2.454   0.561   1.330 -0.1522  2.2520  0.2433
  194ANI     H6 3583   2.313   0.640   1.144 -0.1566  0.7902 -3.0292
  194ANI     H7 3584   2.410   0.762   0.956 -0.0487 -1.1549  0.0816
  194ANI     H8 3585   2.655   0.784   0.934  1.2259 -1.7855 -1.0054
  195ANI     C1 3586   3.361   3.038   1.073  0.2473 -0.1092 -0.0926
  195ANI     O1 3587   3.336   3.166   1.133  0.9079 -0.3073 -0.4581
  195ANI     C2 3588   3.434   3.242   1.184  0.4070  0.0406  0.3378
  195ANI     C3 3589   3.567   3.198   1.183  0.7373 -1.1294  0.0702
  195ANI     C4 3590   3.671   3.285   1.240 -0.0687  0.3354  0.2363
  195ANI     C5 3591   3.629   3.410   1.301  0.2398 -0.1157  0.2982
  195ANI     C6 3592   3.499   3.442   1.293 -0.1679 -0.5963  0.2569
  195ANI     C7 3593   3.402   3.365   1.230  0.8562  0.6082  0.3361
  195ANI     H1 3594   3.399   2.967   1.149 -1.2469  0.8889  1.6251
  195ANI     H2 3595   3.270   2.995   1.029  0.0210  0.1040  0.1676
  195ANI     H3 3596   3.438   3.055   0.997  1.6573  2.3090  1.7942
  195ANI     H4 3597   3.601   3.108   1.133 -0.1346 -1.2383 -0.3444
  195ANI     H5 3598   3.774   3.252   1.232  1.3331  4.1913  1.5045
  195ANI     H6 3599   3.701   3.482   1.338  0.0281  0.7208 -0.8850
  195ANI     H7 3600   3.471   3.541   1.330  0.3330  0.7809 -2.8922
  195ANI     H8 3601   3.301   3.403   1.215 -0.2595 -1.2251  2.8819
  196ANI     C1 3602   2.822   2.151   3.489 -0.1418  0.5886  0.5655
  196ANI     O1 3603   2.683   2.130   3.516  0.3337  0.2852 -0.0249
  196ANI     C2 3604   2.595   2.077   3.415 -0.6333 -0.1591 -0.5423
  196ANI     C3 3605   2.462   2.060   3.455  0.7080 -0.5722  0.0618
  196ANI     C4 3606   2.369   2.008   3.359 -0.0870  0.3424 -0.3581
  196ANI     C5 3607   2.407   1.977   3.228  0.4891 -0.4920 -0.1870
  196ANI     C6 3608   2.538   2.015   3.190  0.7994  0.6010 -0.1317
  196ANI     C7 3609   2.633   2.061   3.278 -0.6295  0.1235 -0.0955
  196ANI     H1 3610   2.882   2.059   3.493  1.2364  1.4402 -0.3262
  196ANI     H2 3611   2.836   2.189   3.388  0.5372 -2.3835 -0.5207
  196ANI     H3 3612   2.877   2.219   3.555 -2.2425  1.6332  1.2701
  196ANI     H4 3613   2.440   2.082   3.558 -0.0103  0.8699 -0.3903
  196ANI     H5 3614   2.263   2.001   3.385 -0.1082 -0.7683 -0.7238
  196ANI     H6 3615   2.347   1.930   3.151 -1.1810  0.5085  0.4963
  196ANI     H7 3616   2.558   1.990   3.086 -1.5039 -0.8299 -0.2592
  196ANI     H8 3617   2.728   2.087   3.232  0.1986  1.2566  2.1446
  197ANI     C1 3618   1.962   3.290   1.523 -0.2365 -0.3237  0.2769
  197ANI     O1 3619   2.102   3.324   1.527  0.0760 -0.5107 -0.2636
  197ANI     C2 3620   2.203   3.230   1.537 -0.8313 -0.9481  0.9822
  197ANI     C3 3621   2.194   3.091   1.551 -0.3503 -0.2457 -0.5925
  197ANI     C4 3622   2.308   3.012   1.563 -0.5246 -0.9620  1.1053
  197ANI     C5 3623   2.438   3.062   1.557  0.2544  0.5514  0.0630
  197ANI     C6 3624   2.452   3.199   1.543 -0.3156 -0.3780 -0.0634
  197ANI     C7 3625   2.336   3.283   1.525 -0.6531  0.1004  0.2614
  197ANI     H1 3626   1.899   3.379   1.534  0.9206  0.7784 -1.6236
  197ANI     H2 3627   1.939   3.239   1.429 -0.0450 -5.0906  2.6609
  197ANI     H3 3628   1.927   3.232   1.609  2.2793  2.3680  3.2293
  197ANI     H4 3629   2.097   3.045   1.570 -0.0217 -1.4855 -1.8313
  197ANI     H5 3630   2.296   2.904   1.565  1.0791 -1.1686 -0.2196
  197ANI     H6 3631   2.522   2.994   1.568 -0.8478 -0.3960  2.9974
  197ANI     H7 3632   2.552   3.239   1.543  0.0439 -1.2183 -1.7572
  197ANI     H8 3633   2.349   3.390   1.515  0.4251  0.1308  1.8512
  198ANI     C1 3634   1.521   2.623   0.641 -0.1132  0.0982 -0.3041
  198ANI     O1 3635   1.601   2.596   0.755  0.7136  0.2761  0.3367
  198ANI     C2 3636   1.733   2.631   0.759 -0.1306 -0.6769 -0.0303
  198ANI     C3 3637   1.816   2.653   0.649 -0.6092  0.0181 -0.0432
  198ANI     C4 3638   1.948   2.681   0.666  0.1847  0.5686 -0.0926
  198ANI     C5 3639   2.005   2.692   0.790 -0.1628  0.2607  0.1495
  198ANI     C6 3640   1.928   2.665   0.900  0.1869 -0.1486 -0.0144
  198ANI     C7 3641   1.788   2.635   0.897 -0.6353  0.1738  0.1010
  198ANI     H1 3642   1.566   2.712   0.594  3.0487 -1.4009 -0.2361
  198ANI     H2 3643   1.522   2.544   0.565  2.0030 -0.9055  0.7398
  198ANI     H3 3644   1.416   2.638   0.668 -0.1274  0.5121 -0.5847
  198ANI     H4 3645   1.779   2.636   0.548  0.4478 -1.1028 -0.2570
  198ANI     H5 3646   2.015   2.689   0.581 -2.0563 -0.7900 -2.0750
  198ANI     H6 3647   2.110   2.719   0.789  0.0505 -0.3904  1.8379
  198ANI     H7 3648   1.976   2.666   0.997  0.8660  1.8445 -0.3353
  198ANI     H8 3649   1.723   2.608   0.980 -1.3154 -0.6711 -0.6986
  199ANI     C1 3650   3.257   1.137   3.287 -0.0572  0.5427 -0.7140
  199ANI     O1 3651   3.329   1.255   3.309 -0.1596 -0.7230 -0.3901
  199ANI     C2 3652   3.456   1.273   3.260 -0.0332  0.1101 -0.5742
  199ANI     C3 3653   3.516   1.393   3.282  0.0829  0.0914 -0.0562
  199ANI     C4 3654   3.637   1.428   3.224 -0.1621 -0.3457 -0.3323
  199ANI     C5 3655   3.710   1.329   3.151  0.9309 -0.9101 -0.3615
  199ANI     C6 3656   3.661   1.199   3.139  0.0371 -0.3897  0.5281
  199ANI     C7 3657   3.530   1.173   3.191 -0.1760 -0.2809  0.3707
  199ANI     H1 3658   3.306   1.059   3.347 -0.7004  0.3261 -0.4697
  199ANI     H2 3659   3.154   1.168   3.310 -0.0261  0.1114  0.0221
  199ANI     H3 3660   3.260   1.116   3.179 -0.5969 -0.6034 -0.5092
  199ANI     H4 3661   3.465   1.467   3.343  1.8050  0.5150  0.9338
  199ANI     H5 3662   3.662   1.533   3.229 -1.2128 -0.1469  1.2444
  199ANI     H6 3663   3.810   1.348   3.115  0.5245 -1.7531 -1.9613
  199ANI     H7 3664   3.707   1.122   3.078 -0.7967 -1.2986  1.0214
  199ANI     H8 3665   3.496   1.072   3.174 -0.0330  0.2842 -3.8345
  200ANI     C1 3666   2.503   2.515   1.482 -0.8557  0.1554 -0.4611
  200ANI     O1 3667   2.594   2.623   1.523  0.3601  0.0659 -0.2099
  200ANI     C2 3668   2.645   2.718   1.444 -0.0914 -0.6002 -0.1864
  200ANI     C3 3669   2.715   2.820   1.509 -0.2867 -0.1730  0.2334
  200ANI     C4 3670   2.759   2.933   1.431  0.1310  0.2123  0.0817
  200ANI     C5 3671   2.722   2.938   1.297 -0.5010 -0.5899  0.0921
  200ANI     C6 3672   2.654   2.834   1.229 -0.4234  0.6041 -0.0958
  200ANI     C7 3673   2.613   2.724   1.305 -0.3258  0.2602 -0.1649
  200ANI     H1 3674   2.488   2.453   1.572  1.4761 -0.6369 -0.6041
  200ANI     H2 3675   2.410   2.572   1.465  0.5669  2.0825 -1.9515
  200ANI     H3 3676   2.534   2.455   1.396 -1.6735 -2.0488  0.7307
  200ANI     H4 3677   2.736   2.814   1.616  0.9405  0.2585  0.0287
  200ANI     H5 3678   2.822   3.009   1.475  2.2445 -1.6877  0.4514
  200ANI     H6 3679   2.748   3.028   1.243  0.2560 -0.4521  0.6888
  200ANI     H7 3680   2.631   2.835   1.123  0.8439 -0.7233 -0.3950
  200ANI     H8 3681   2.557   2.644   1.258 -1.5113  0.1128  1.4491
  201ANI     C1 3682   1.247   2.872   0.280  0.0072 -0.2155 -0.9661
  201ANI     O1 3683   1.284   2.731   0.293 -0.0139  0.7153 -0.0549
  201ANI     C2 3684   1.420   2.697   0.305 -0.1210  0.3654 -0.3084
  201ANI     C3 3685   1.522   2.781   0.336 -0.4602  0.7482 -0.0909
  201ANI     C4 3686   1.654   2.737   0.336 -0.7107 -0.2997 -0.2197
  201ANI     C5 3687   1.687   2.602   0.306  0.2764 -0.4859  0.3285
  201ANI     C6 3688   1.585   2.519   0.272  0.2689  0.1177  0.3810
  201ANI     C7 3689   1.450   2.567   0.270 -0.5564 -0.1732  0.4989
  201ANI     H1 3690   1.138   2.861   0.275 -0.0388  0.3717 -1.3269
  201ANI     H2 3691   1.275   2.934   0.366  0.8172  0.3989 -1.6654
  201ANI     H3 3692   1.284   2.909   0.183 -0.3291  0.2079 -0.9333
  201ANI     H4 3693   1.502   2.884   0.363 -0.1825  0.9851 -0.7854
  201ANI     H5 3694   1.739   2.798   0.363 -1.2408  0.6443 -0.6848
  201ANI     H6 3695   1.786   2.559   0.314  0.3604  0.1834  3.5911
  201ANI     H7 3696   1.597   2.413   0.254  1.6956  0.7453 -2.7343
  201ANI     H8 3697   1.379   2.490   0.241 -0.0380 -0.9904  1.3352
  202ANI     C1 3698   1.996   0.253   1.430  0.4999 -0.7910 -0.5749
  202ANI     O1 3699   2.003   0.403   1.430  0.5933  0.3413 -0.0193
  202ANI     C2 3700   2.109   0.487   1.472  0.0132  0.4606 -0.3930
  202ANI     C3 3701   2.237   0.436   1.495  0.1381 -0.1049 -0.0214
  202ANI     C4 3702   2.336   0.519   1.548 -0.2399 -0.2601 -0.1113
  202ANI     C5 3703   2.307   0.655   1.575  1.0299 -0.7099 -0.2106
  202ANI     C6 3704   2.174   0.702   1.543 -1.1066 -0.1064  0.2867
  202ANI     C7 3705   2.075   0.620   1.496  0.6806 -0.1427 -0.3906
  202ANI     H1 3706   2.029   0.216   1.528  1.5069 -2.1058 -1.3810
  202ANI     H2 3707   1.894   0.220   1.409 -0.4401  1.1454  0.7624
  202ANI     H3 3708   2.060   0.211   1.352 -0.4694 -0.3664 -1.6045
  202ANI     H4 3709   2.253   0.335   1.458  0.6670  0.5161 -1.5249
  202ANI     H5 3710   2.437   0.482   1.561 -1.0240 -1.9502  1.2940
  202ANI     H6 3711   2.382   0.714   1.625  3.1333 -1.5695 -2.2498
  202ANI     H7 3712   2.151   0.807   1.560 -0.6954 -0.1457  1.1296
  202ANI     H8 3713   1.978   0.665   1.481  1.7025  2.7450  1.0990
  203ANI     C1 3714   1.093   1.966   3.014 -0.0197 -0.0542  0.1626
  203ANI     O1 3715   1.221   1.943   2.942 -0.2944  0.2272  0.0516
  203ANI     C2 3716   1.353   1.964   2.981 -0.1850 -0.2452 -0.3276
  203ANI     C3 3717   1.395   2.034   3.098  0.1536 -0.0904  0.5285
  203ANI     C4 3718   1.538   2.052   3.127 -0.2718  0.0320  0.7429
  203ANI     C5 3719   1.630   2.011   3.027  0.4019  0.3270 -0.9654
  203ANI     C6 3720   1.591   1.947   2.915 -0.5762  0.2169 -0.5960
  203ANI     C7 3721   1.456   1.920   2.893 -0.1737  0.2891 -0.7610
  203ANI     H1 3722   1.086   1.931   3.117  0.3758  1.1289  0.5949
  203ANI     H2 3723   1.071   2.074   3.013  2.2779  0.4646  1.6796
  203ANI     H3 3724   1.006   1.930   2.958 -1.1053 -0.1983  1.9313
  203ANI     H4 3725   1.321   2.075   3.165  1.2896  0.5751  1.4005
  203ANI     H5 3726   1.579   2.091   3.219  1.7286 -0.4676  0.0765
  203ANI     H6 3727   1.736   2.026   3.048  0.2358 -1.6515  1.3919
  203ANI     H7 3728   1.665   1.909   2.846 -1.6065  0.1120 -1.6619
  203ANI     H8 3729   1.436   1.863   2.803 -1.1110  1.9346 -1.6295
  204ANI     C1 3730   2.592   3.132   0.843 -0.2887 -0.0367  0.1342
  204ANI     O1 3731   2.509   3.139   0.963 -0.5653 -0.0241  0.1271
  204ANI     C2 3732   2.445   3.031   1.014 -0.6850  0.0538 -0.2972
  204ANI     C3 3733   2.442   2.908   0.942  0.2879  0.1949  0.4650
  204ANI     C4 3734   2.371   2.796   0.990 -0.3455  0.3485 -0.0256
  204ANI     C5 3735   2.328   2.794   1.122 -0.2409  0.6567 -0.0164
  204ANI     C6 3736   2.325   2.914   1.191 -0.3544 -0.4199  0.0321
  204ANI     C7 3737   2.380   3.033   1.137 -0.1246 -0.0909  0.1602
  204ANI     H1 3738   2.647   3.225   0.826 -0.8438  0.5695  1.5428
  204ANI     H2 3739   2.655   3.043   0.851 -0.4405 -0.2249 -0.7256
  204ANI     H3 3740   2.534   3.119   0.751  1.2449  1.8480 -1.1528
  204ANI     H4 3741   2.496   2.892   0.849 -2.3106 -0.0854 -1.0489
  204ANI     H5 3742   2.362   2.704   0.935 -0.0632 -0.7669  1.7370
  204ANI     H6 3743   2.298   2.703   1.174 -2.3041  0.5372 -1.3614
  204ANI     H7 3744   2.281   2.920   1.290  1.4066  1.3480  0.7242
  204ANI     H8 3745   2.375   3.124   1.196  1.4877 -1.3909  2.3851
  205ANI     C1 3746   0.422   1.417   1.081 -0.9378 -0.7043  0.3936
  205ANI     O1 3747   0.378   1.549   1.091 -0.4123 -0.4679 -0.8959
  205ANI     C2 3748   0.250   1.573   1.139  0.4544 -0.5086  0.8309
  205ANI     C3 3749   0.227   1.686   1.222 -0.0626 -0.4714 -0.2382
  205ANI     C4 3750   0.097   1.720   1.259  0.9226  0.7355  0.1864
  205ANI     C5 3751  -0.014   1.638   1.208  1.1475  0.5158 -0.4217
  205ANI     C6 3752   0.015   1.522   1.134  0.2535 -0.4520  0.4428
  205ANI     C7 3753   0.148   1.491   1.101 -0.2318  0.5203  1.0427
  205ANI     H1 3754   0.459   1.390   0.981  1.0169 -0.6529  1.0967
  205ANI     H2 3755   0.512   1.409   1.142  0.7084  2.8877 -1.4133
  205ANI     H3 3756   0.350   1.338   1.105 -0.1999 -1.3757  0.4028
  205ANI     H4 3757   0.311   1.746   1.256  0.5232 -1.7859  0.6849
  205ANI     H5 3758   0.079   1.806   1.323  2.4077  0.8250  0.4973
  205ANI     H6 3759  -0.117   1.661   1.235  1.8030  2.0966  0.8579
  205ANI     H7 3760  -0.073   1.470   1.099 -1.4822  0.8065  2.7975
  205ANI     H8 3761   0.152   1.409   1.031  1.5863 -0.3436  2.1170
  206ANI     C1 3762   0.391   2.684   3.632 -0.0676  0.1996  0.5104
  206ANI     O1 3763   0.477   2.733   3.533  0.0542  0.0771  0.4050
  206ANI     C2 3764   0.497   2.674   3.411  1.0110 -0.7258  0.1862
  206ANI     C3 3765   0.466   2.538   3.380 -0.5169 -0.5783 -0.3517
  206ANI     C4 3766   0.502   2.484   3.253  0.4780 -0.9521  0.8913
  206ANI     C5 3767   0.557   2.572   3.157 -0.3970  0.1735  0.2754
  206ANI     C6 3768   0.569   2.708   3.185 -0.3344  0.8962  0.1067
  206ANI     C7 3769   0.549   2.760   3.311 -0.7243  0.8083 -0.2315
  206ANI     H1 3770   0.444   2.626   3.709 -1.4596  0.9683  2.0766
  206ANI     H2 3771   0.346   2.775   3.674 -0.5512  0.5298 -0.6953
  206ANI     H3 3772   0.311   2.618   3.597 -0.5657  1.1805 -0.2228
  206ANI     H4 3773   0.444   2.467   3.460 -1.8490  1.0053  0.7123
  206ANI     H5 3774   0.481   2.378   3.242  0.6058 -0.8267 -0.5354
  206ANI     H6 3775   0.569   2.540   3.054  0.1415 -0.9677  0.6884
  206ANI     H7 3776   0.604   2.781   3.113  0.3656 -0.4417 -0.9476
  206ANI     H8 3777   0.569   2.865   3.327 -0.2325  0.7867 -0.7248
  207ANI     C1 3778   1.140   0.392   3.246  0.3299 -0.3216 -0.2921
  207ANI     O1 3779   1.132   0.535   3.248 -0.6450  0.0440 -0.4043
  207ANI     C2 3780   1.051   0.609   3.172  0.5395  0.2105  0.7659
  207ANI     C3 3781   0.958   0.542   3.093 -0.2796 -0.5833  0.7807
  207ANI     C4 3782   0.872   0.620   3.008 -0.2878 -0.2083  0.3171
  207ANI     C5 3783   0.887   0.760   3.012  1.2891 -0.6979 -0.2994
  207ANI     C6 3784   0.971   0.818   3.105 -0.8656 -0.0281  0.0443
  207ANI     C7 3785   1.062   0.745   3.188 -0.1819 -0.9006  0.9979
  207ANI     H1 3786   1.211   0.358   3.323  1.2102 -1.0796 -1.4085
  207ANI     H2 3787   1.051   0.337   3.277  0.9747 -0.0006  2.2042
  207ANI     H3 3788   1.177   0.346   3.153 -1.2939  0.7306 -1.4829
  207ANI     H4 3789   0.957   0.434   3.080  3.3901 -0.5537 -0.4618
  207ANI     H5 3790   0.808   0.579   2.930  1.2092 -1.4651 -0.2791
  207ANI     H6 3791   0.816   0.828   2.966 -1.3134 -2.9757  0.2221
  207ANI     H7 3792   0.966   0.927   3.105 -1.7118 -0.0637  1.1059
  207ANI     H8 3793   1.136   0.787   3.255  0.9870 -0.3138 -0.6477
  208ANI     C1 3794   2.161   2.983   2.241  0.5547 -0.1395  0.1103
  208ANI     O1 3795   2.026   2.929   2.216  0.3131 -0.4080 -0.1920
  208ANI     C2 3796   1.941   2.874   2.311  0.0518 -0.0964  0.2149
  208ANI     C3 3797   1.989   2.792   2.411  0.4209 -1.3905  0.0593
  208ANI     C4 3798   1.907   2.728   2.493  0.6967 -0.1777 -0.0702
  208ANI     C5 3799   1.767   2.751   2.499  0.0498  0.1448 -0.4784
  208ANI     C6 3800   1.711   2.838   2.405  0.1767  0.2149  0.1647
  208ANI     C7 3801   1.800   2.895   2.305 -0.4228 -0.8537 -0.6062
  208ANI     H1 3802   2.228   2.897   2.250  0.4671 -0.5058 -2.4743
  208ANI     H2 3803   2.180   3.058   2.163  0.5339 -1.7121 -1.4208
  208ANI     H3 3804   2.164   3.036   2.337  3.7110 -0.5356  0.2679
  208ANI     H4 3805   2.097   2.783   2.419  0.5725  0.6822  0.6146
  208ANI     H5 3806   1.948   2.651   2.558 -0.1406 -0.5594  0.0121
  208ANI     H6 3807   1.698   2.686   2.553 -1.3866 -0.6459 -3.1815
  208ANI     H7 3808   1.604   2.849   2.388  0.3755  1.0962 -0.6000
  208ANI     H8 3809   1.764   2.961   2.227 -0.3228 -0.6626 -0.4891
  209ANI     C1 3810   0.622   2.924   0.274 -0.2785 -0.1039  0.2027
  209ANI     O1 3811   0.606   2.877   0.414  0.0778  0.2758 -0.3951
  209ANI     C2 3812   0.674   2.930   0.520 -0.1332 -0.7442  0.8062
  209ANI     C3 3813   0.789   3.008   0.502  0.6718  0.4009 -0.6470
  209ANI     C4 3814   0.854   3.058   0.618 -0.5293  0.0341 -0.4331
  209ANI     C5 3815   0.817   3.012   0.747  0.4390 -0.7604 -0.1258
  209ANI     C6 3816   0.698   2.946   0.763 -0.2421 -0.0949  0.1029
  209ANI     C7 3817   0.631   2.897   0.646  0.5637 -0.5884  0.6383
  209ANI     H1 3818   0.598   3.031   0.265  2.1227  0.2810 -2.4650
  209ANI     H2 3819   0.724   2.913   0.234  0.6148  1.9722  1.8243
  209ANI     H3 3820   0.547   2.873   0.212  0.9622  0.0956 -1.4833
  209ANI     H4 3821   0.837   3.030   0.407  0.7708  1.2315 -0.4053
  209ANI     H5 3822   0.946   3.114   0.609 -0.0428 -0.7488 -0.3194
  209ANI     H6 3823   0.875   3.050   0.830 -0.7853  0.9095 -0.0210
  209ANI     H7 3824   0.671   2.914   0.864  0.3552 -0.3059  0.1992
  209ANI     H8 3825   0.537   2.844   0.658 -1.7194  3.4065  1.4047
  210ANI     C1 3826   3.103   1.103   0.250  0.3428  0.3248 -0.0770
  210ANI     O1 3827   3.174   1.217   0.193  0.2097 -0.1806  0.0964
  210ANI     C2 3828   3.162   1.349   0.240  0.4810  0.2779 -0.5605
  210ANI     C3 3829   3.120   1.377   0.370 -0.0485 -0.2432  0.5839
  210ANI     C4 3830   3.102   1.512   0.403  0.3519 -0.2724  0.3529
  210ANI     C5 3831   3.140   1.621   0.318  0.4058 -0.0453 -0.1583
  210ANI     C6 3832   3.164   1.587   0.183  0.7363  0.4986 -0.4145
  210ANI     C7 3833   3.197   1.454   0.156 -0.1667  0.2401 -0.4549
  210ANI     H1 3834   2.995   1.120   0.255  0.8504  3.7458  0.6309
  210ANI     H2 3835   3.123   1.011   0.194 -2.4417 -1.5332  1.8199
  210ANI     H3 3836   3.142   1.090   0.351 -0.5678  0.4699  0.2938
  210ANI     H4 3837   3.100   1.299   0.443 -0.9834 -0.2948  0.2916
  210ANI     H5 3838   3.066   1.536   0.503  0.3977  2.5158 -0.2415
  210ANI     H6 3839   3.117   1.725   0.337 -0.6083  0.2826 -2.8959
  210ANI     H7 3840   3.188   1.660   0.105 -1.3485  0.1166 -1.4324
  210ANI     H8 3841   3.233   1.435   0.055 -1.8541  0.6800 -1.1408
  211ANI     C1 3842   2.989   1.237   3.706  0.1640 -0.4843  0.1339
  211ANI     O1 3843   3.059   1.112   3.681 -0.1861  0.5018 -0.1483
  211ANI     C2 3844   2.988   0.998   3.627 -0.2187 -0.0770  0.4595
  211ANI     C3 3845   2.870   1.004   3.550  0.6418 -0.1010 -0.2210
  211ANI     C4 3846   2.802   0.882   3.516  0.7884 -0.3379  0.1782
  211ANI     C5 3847   2.850   0.757   3.557 -0.7979 -0.6120  0.5188
  211ANI     C6 3848   2.975   0.751   3.624  0.0603 -0.0028 -0.1002
  211ANI     C7 3849   3.040   0.871   3.665 -0.7877  0.1933  0.6898
  211ANI     H1 3850   2.934   1.267   3.617  1.3120  2.4512  0.3317
  211ANI     H2 3851   2.912   1.207   3.778  0.1288 -1.9528 -0.5101
  211ANI     H3 3852   3.055   1.314   3.749  0.5365  0.4593 -2.0655
  211ANI     H4 3853   2.822   1.096   3.519 -1.1121 -1.1040 -0.6152
  211ANI     H5 3854   2.711   0.893   3.458 -0.1051  0.6783  1.7388
  211ANI     H6 3855   2.797   0.664   3.542  0.5940 -1.2999 -0.2994
  211ANI     H7 3856   3.024   0.658   3.653 -0.4888  0.7593  3.5252
  211ANI     H8 3857   3.132   0.862   3.722  1.0652 -0.3450 -2.2952
  212ANI     C1 3858   1.633   0.895   1.524  0.5543  0.4055  0.3936
  212ANI     O1 3859   1.616   1.025   1.590 -0.6207  0.1795  0.5568
  212ANI     C2 3860   1.554   1.126   1.517 -1.0219  0.2221 -0.1375
  212ANI     C3 3861   1.500   1.093   1.397  0.8631 -0.3671 -0.2341
  212ANI     C4 3862   1.464   1.208   1.315 -0.2785 -0.6671  0.6976
  212ANI     C5 3863   1.476   1.339   1.363 -0.1044  0.1576  0.2734
  212ANI     C6 3864   1.526   1.362   1.486 -0.9369  0.3121  0.6702
  212ANI     C7 3865   1.565   1.250   1.566 -0.1020 -0.0866  0.4502
  212ANI     H1 3866   1.681   0.899   1.426  0.1123  0.6294  0.1865
  212ANI     H2 3867   1.691   0.822   1.583 -1.1836  0.8944  2.7738
  212ANI     H3 3868   1.533   0.859   1.499  1.4455  0.2622 -3.1754
  212ANI     H4 3869   1.496   0.993   1.355  0.5326 -0.7703  0.7506
  212ANI     H5 3870   1.427   1.193   1.214 -2.8248  1.0599  1.3263
  212ANI     H6 3871   1.446   1.419   1.296 -2.4751 -1.7492 -1.0039
  212ANI     H7 3872   1.516   1.460   1.531  0.4995 -0.2774  2.3425
  212ANI     H8 3873   1.616   1.265   1.661  0.8627 -1.3075  0.1404
  213ANI     C1 3874   2.772   0.306   3.524  0.4219 -0.0285  0.1173
  213ANI     O1 3875   2.835   0.318   3.647 -0.1572 -0.5374  0.4488
  213ANI     C2 3876   2.776   0.372   3.757  0.9411 -0.5000 -0.0541
  213ANI     C3 3877   2.634   0.377   3.770 -0.8116  0.1843 -0.0588
  213ANI     C4 3878   2.578   0.434   3.887 -0.3521  1.0682 -0.2874
  213ANI     C5 3879   2.667   0.496   3.981 -0.1785  0.1972  0.8926
  213ANI     C6 3880   2.805   0.491   3.965  0.0844 -0.0358  0.5461
  213ANI     C7 3881   2.859   0.422   3.856  0.8200  0.2035 -0.3993
  213ANI     H1 3882   2.833   0.255   3.449 -0.7890 -0.5404 -0.5347
  213ANI     H2 3883   2.672   0.261   3.537  0.1195  0.8402  0.9127
  213ANI     H3 3884   2.781   0.409   3.487  4.4438  0.3322  1.8511
  213ANI     H4 3885   2.576   0.330   3.692 -0.6664  0.0339 -0.0761
  213ANI     H5 3886   2.471   0.431   3.905 -0.0574 -1.8769  1.2949
  213ANI     H6 3887   2.622   0.545   4.066 -1.5511 -0.0656  0.3357
  213ANI     H7 3888   2.867   0.554   4.028  0.0127 -0.6918  1.2829
  213ANI     H8 3889   2.966   0.423   3.836  0.4634 -0.6498 -2.4627
  214ANI     C1 3890   1.236   0.744   0.268 -0.3013  0.4731 -0.7862
  214ANI     O1 3891   1.268   0.636   0.175 -0.2220 -0.4028  0.7601
  214ANI     C2 3892   1.215   0.514   0.194  0.0205 -0.0318  0.2918
  214ANI     C3 3893   1.083   0.504   0.246  0.8018 -0.0282  0.0257
  214ANI     C4 3894   1.024   0.370   0.253  0.5561 -0.4956  0.2849
  214ANI     C5 3895   1.102   0.259   0.210 -0.0183  0.6988 -0.4788
  214ANI     C6 3896   1.230   0.276   0.155 -0.2431 -0.4467 -0.2885
  214ANI     C7 3897   1.285   0.405   0.141  0.2439 -0.5396 -0.2934
  214ANI     H1 3898   1.129   0.767   0.266 -0.2476  0.6469 -1.8641
  214ANI     H2 3899   1.257   0.719   0.373 -0.5399  2.2090 -0.3196
  214ANI     H3 3900   1.282   0.837   0.234 -2.1648  1.3307 -0.9985
  214ANI     H4 3901   1.016   0.585   0.269  0.3642 -0.6938  1.1604
  214ANI     H5 3902   0.927   0.345   0.294  0.3849  0.4240  0.4376
  214ANI     H6 3903   1.065   0.157   0.219 -0.8889  1.0808  0.4438
  214ANI     H7 3904   1.290   0.194   0.119  0.3710 -0.8356  1.5501
  214ANI     H8 3905   1.378   0.419   0.088  1.3811 -2.7978  1.0062
  215ANI     C1 3906   1.766   1.516   0.836  0.5173 -0.6114  0.2094
  215ANI     O1 3907   1.725   1.382   0.784 -0.1093 -0.5941 -0.0341
  215ANI     C2 3908   1.612   1.310   0.816  0.4581  0.3433 -0.1995
  215ANI     C3 3909   1.524   1.353   0.918  0.5453  0.5846 -0.1476
  215ANI     C4 3910   1.394   1.290   0.946  0.7480  0.0210  0.0592
  215ANI     C5 3911   1.364   1.169   0.882  0.0767 -0.0453  0.6044
  215ANI     C6 3912   1.450   1.116   0.781  0.2513 -0.9821 -0.6450
  215ANI     C7 3913   1.571   1.190   0.748 -0.1336  1.0173 -0.5406
  215ANI     H1 3914   1.830   1.499   0.923  2.2630 -1.6417 -1.2262
  215ANI     H2 3915   1.816   1.571   0.755  0.5251 -1.4732 -0.3870
  215ANI     H3 3916   1.684   1.584   0.860  0.7141 -0.4497  0.4183
  215ANI     H4 3917   1.536   1.444   0.976 -1.1313  0.8777 -0.2340
  215ANI     H5 3918   1.320   1.328   1.016 -1.6603  0.0554 -2.4396
  215ANI     H6 3919   1.273   1.117   0.913  0.4667 -0.6427  0.7577
  215ANI     H7 3920   1.423   1.034   0.717 -2.0958 -0.1540 -0.7506
  215ANI     H8 3921   1.630   1.153   0.665 -2.1418 -1.0943 -1.1006
  216ANI     C1 3922   2.174   2.593   0.069 -0.2358  0.2312 -0.2508
  216ANI     O1 3923   2.198   2.706   0.153  0.3747 -0.2045  0.2412
  216ANI     C2 3924   2.220   2.696   0.290  0.5410  0.4851  1.0921
  216ANI     C3 3925   2.234   2.809   0.365 -0.1868 -0.5848 -0.0697
  216ANI     C4 3926   2.263   2.806   0.500  0.1840 -0.0938  0.3152
  216ANI     C5 3927   2.298   2.680   0.553 -0.1802 -0.3696  0.2590
  216ANI     C6 3928   2.281   2.569   0.478 -0.4330  0.4082 -0.3214
  216ANI     C7 3929   2.233   2.571   0.344 -0.0249  0.1912  0.0592
  216ANI     H1 3930   2.269   2.539   0.058 -0.1460  0.3476 -0.0379
  216ANI     H2 3931   2.095   2.533   0.115  0.0729  0.1702  0.2020
  216ANI     H3 3932   2.139   2.634  -0.027 -2.4483  0.9466  0.8283
  216ANI     H4 3933   2.224   2.908   0.321  0.8758 -0.4710 -0.0728
  216ANI     H5 3934   2.291   2.895   0.556 -0.1173  0.8474 -1.0300
  216ANI     H6 3935   2.328   2.671   0.656  0.5721  2.2999  0.3214
  216ANI     H7 3936   2.297   2.475   0.530 -2.7003 -0.2885 -0.8285
  216ANI     H8 3937   2.205   2.481   0.290  0.3142  0.9429 -1.3634
  217ANI     C1 3938   2.736   1.688   3.154 -0.4703  0.6305 -0.7517
  217ANI     O1 3939   2.616   1.696   3.075 -0.0896 -0.0372  0.1132
  217ANI     C2 3940   2.491   1.669   3.124 -0.1508  0.0881 -0.1793
  217ANI     C3 3941   2.467   1.661   3.266 -0.1567 -0.1350 -0.0099
  217ANI     C4 3942   2.334   1.635   3.304  0.0851  0.2207 -0.4839
  217ANI     C5 3943   2.236   1.626   3.211  0.8280  0.1780  0.0803
  217ANI     C6 3944   2.260   1.634   3.074  0.1290  0.1075  0.7145
  217ANI     C7 3945   2.390   1.647   3.031  0.4429 -0.4853 -0.0448
  217ANI     H1 3946   2.722   1.608   3.228  0.1591  1.4319  0.2422
  217ANI     H2 3947   2.824   1.669   3.092 -0.3575  0.0397 -0.4206
  217ANI     H3 3948   2.752   1.775   3.218 -0.2183  0.7642 -0.9999
  217ANI     H4 3949   2.551   1.656   3.336  0.1342  0.1367 -0.3343
  217ANI     H5 3950   2.306   1.632   3.409 -2.1996 -1.0352 -1.0827
  217ANI     H6 3951   2.137   1.610   3.252  0.7065  0.1075 -0.2395
  217ANI     H7 3952   2.173   1.636   3.009  1.3065  0.0844 -0.8940
  217ANI     H8 3953   2.403   1.662   2.924  0.4235  1.1069  0.1573
  218ANI     C1 3954   0.836   2.616   2.669 -0.1131 -0.1310  0.0518
  218ANI     O1 3955   0.937   2.533   2.721  0.1851  0.2686 -0.2335
  218ANI     C2 3956   0.967   2.411   2.667  1.1064 -0.0777 -0.2864
  218ANI     C3 3957   0.924   2.372   2.540 -0.6474 -0.4768  0.4087
  218ANI     C4 3958   0.967   2.256   2.486  1.0495  0.3312 -0.1466
  218ANI     C5 3959   1.046   2.165   2.565  0.3413 -0.0511 -0.0302
  218ANI     C6 3960   1.093   2.206   2.690  0.0277 -0.0274 -0.2859
  218ANI     C7 3961   1.047   2.327   2.745  0.2802 -0.0501  0.0257
  218ANI     H1 3962   0.743   2.560   2.657  0.1134 -0.4924 -0.0235
  218ANI     H2 3963   0.813   2.692   2.745 -0.2380  0.7844 -0.8939
  218ANI     H3 3964   0.863   2.659   2.572 -1.3376 -0.6758 -0.5247
  218ANI     H4 3965   0.873   2.441   2.473 -0.6737  0.1350  1.0509
  218ANI     H5 3966   0.942   2.235   2.383  0.5328  1.9141 -0.3486
  218ANI     H6 3967   1.069   2.068   2.524 -0.3696 -0.7181  1.1118
  218ANI     H7 3968   1.160   2.141   2.745 -0.6013 -0.7363 -0.3513
  218ANI     H8 3969   1.084   2.355   2.843 -0.7297  0.4534  0.2614
   3.40320   3.43847   3.80000
