Anisole comparator n4
 3969
    1GR      C1    1   0.000   0.000   1.900  0.0000  0.0000  0.0000
    1GR      C2    2   0.142   0.000   1.900  0.0000  0.0000  0.0000
    1GR      C3    3   0.213   0.123   1.900  0.0000  0.0000  0.0000
    1GR      C4    4   0.354   0.123   1.900  0.0000  0.0000  0.0000
    1GR      C5    5   0.000   0.246   1.900  0.0000  0.0000  0.0000
    1GR      C6    6   0.142   0.246   1.900  0.0000  0.0000  0.0000
    1GR      C7    7   0.213   0.368   1.900  0.0000  0.0000  0.0000
    1GR      C8    8   0.354   0.368   1.900  0.0000  0.0000  0.0000
    1GR      C9    9   0.000   0.491   1.900  0.0000  0.0000  0.0000
    1GR     C10   10   0.142   0.491   1.900  0.0000  0.0000  0.0000
    1GR     C11   11   0.213   0.614   1.900  0.0000  0.0000  0.0000
    1GR     C12   12   0.354   0.614   1.900  0.0000  0.0000  0.0000
    1GR     C13   13   0.000   0.737   1.900  0.0000  0.0000  0.0000
    1GR     C14   14   0.142   0.737   1.900  0.0000  0.0000  0.0000
    1GR     C15   15   0.213   0.860   1.900  0.0000  0.0000  0.0000
    1GR     C16   16   0.354   0.860   1.900  0.0000  0.0000  0.0000
    1GR     C17   17   0.000   0.982   1.900  0.0000  0.0000  0.0000
    1GR     C18   18   0.142   0.982   1.900  0.0000  0.0000  0.0000
    1GR     C19   19   0.213   1.105   1.900  0.0000  0.0000  0.0000
    1GR     C20   20   0.354   1.105   1.900  0.0000  0.0000  0.0000
    1GR     C21   21   0.000   1.228   1.900  0.0000  0.0000  0.0000
    1GR     C22   22   0.142   1.228   1.900  0.0000  0.0000  0.0000
    1GR     C23   23   0.213   1.351   1.900  0.0000  0.0000  0.0000
    1GR     C24   24   0.354   1.351   1.900  0.0000  0.0000  0.0000
    1GR     C25   25   0.000   1.474   1.900  0.0000  0.0000  0.0000
    1GR     C26   26   0.142   1.474   1.900  0.0000  0.0000  0.0000
    1GR     C27   27   0.213   1.596   1.900  0.0000  0.0000  0.0000
    1GR     C28   28   0.354   1.596   1.900  0.0000  0.0000  0.0000
    1GR     C29   29   0.000   1.719   1.900  0.0000  0.0000  0.0000
    1GR     C30   30   0.142   1.719   1.900  0.0000  0.0000  0.0000
    1GR     C31   31   0.213   1.842   1.900  0.0000  0.0000  0.0000
    1GR     C32   32   0.354   1.842   1.900  0.0000  0.0000  0.0000
    1GR     C33   33   0.000   1.965   1.900  0.0000  0.0000  0.0000
    1GR     C34   34   0.142   1.965   1.900  0.0000  0.0000  0.0000
    1GR     C35   35   0.213   2.088   1.900  0.0000  0.0000  0.0000
    1GR     C36   36   0.354   2.088   1.900  0.0000  0.0000  0.0000
    1GR     C37   37   0.000   2.210   1.900  0.0000  0.0000  0.0000
    1GR     C38   38   0.142   2.210   1.900  0.0000  0.0000  0.0000
    1GR     C39   39   0.213   2.333   1.900  0.0000  0.0000  0.0000
    1GR     C40   40   0.354   2.333   1.900  0.0000  0.0000  0.0000
    1GR     C41   41   0.000   2.456   1.900  0.0000  0.0000  0.0000
    1GR     C42   42   0.142   2.456   1.900  0.0000  0.0000  0.0000
    1GR     C43   43   0.213   2.579   1.900  0.0000  0.0000  0.0000
    1GR     C44   44   0.354   2.579   1.900  0.0000  0.0000  0.0000
    1GR     C45   45   0.000   2.702   1.900  0.0000  0.0000  0.0000
    1GR     C46   46   0.142   2.702   1.900  0.0000  0.0000  0.0000
    1GR     C47   47   0.213   2.824   1.900  0.0000  0.0000  0.0000
    1GR     C48   48   0.354   2.824   1.900  0.0000  0.0000  0.0000
    1GR     C49   49   0.000   2.947   1.900  0.0000  0.0000  0.0000
    1GR     C50   50   0.142   2.947   1.900  0.0000  0.0000  0.0000
    1GR     C51   51   0.213   3.070   1.900  0.0000  0.0000  0.0000
    1GR     C52   52   0.354   3.070   1.900  0.0000  0.0000  0.0000
    1GR     C53   53   0.000   3.193   1.900  0.0000  0.0000  0.0000
    1GR     C54   54   0.142   3.193   1.900  0.0000  0.0000  0.0000
    1GR     C55   55   0.213   3.316   1.900  0.0000  0.0000  0.0000
    1GR     C56   56   0.354   3.316   1.900  0.0000  0.0000  0.0000
    1GR     C57   57   0.425   0.000   1.900  0.0000  0.0000  0.0000
    1GR     C58   58   0.567   0.000   1.900  0.0000  0.0000  0.0000
    1GR     C59   59   0.638   0.123   1.900  0.0000  0.0000  0.0000
    1GR     C60   60   0.780   0.123   1.900  0.0000  0.0000  0.0000
    1GR     C61   61   0.425   0.246   1.900  0.0000  0.0000  0.0000
    1GR     C62   62   0.567   0.246   1.900  0.0000  0.0000  0.0000
    1GR     C63   63   0.638   0.368   1.900  0.0000  0.0000  0.0000
    1GR     C64   64   0.780   0.368   1.900  0.0000  0.0000  0.0000
    1GR     C65   65   0.425   0.491   1.900  0.0000  0.0000  0.0000
    1GR     C66   66   0.567   0.491   1.900  0.0000  0.0000  0.0000
    1GR     C67   67   0.638   0.614   1.900  0.0000  0.0000  0.0000
    1GR     C68   68   0.780   0.614   1.900  0.0000  0.0000  0.0000
    1GR     C69   69   0.425   0.737   1.900  0.0000  0.0000  0.0000
    1GR     C70   70   0.567   0.737   1.900  0.0000  0.0000  0.0000
    1GR     C71   71   0.638   0.860   1.900  0.0000  0.0000  0.0000
    1GR     C72   72   0.780   0.860   1.900  0.0000  0.0000  0.0000
    1GR     C73   73   0.425   0.982   1.900  0.0000  0.0000  0.0000
    1GR     C74   74   0.567   0.982   1.900  0.0000  0.0000  0.0000
    1GR     C75   75   0.638   1.105   1.900  0.0000  0.0000  0.0000
    1GR     C76   76   0.780   1.105   1.900  0.0000  0.0000  0.0000
    1GR     C77   77   0.425   1.228   1.900  0.0000  0.0000  0.0000
    1GR     C78   78   0.567   1.228   1.900  0.0000  0.0000  0.0000
    1GR     C79   79   0.638   1.351   1.900  0.0000  0.0000  0.0000
    1GR     C80   80   0.780   1.351   1.900  0.0000  0.0000  0.0000
    1GR     C81   81   0.425   1.474   1.900  0.0000  0.0000  0.0000
    1GR     C82   82   0.567   1.474   1.900  0.0000  0.0000  0.0000
    1GR     C83   83   0.638   1.596   1.900  0.0000  0.0000  0.0000
    1GR     C84   84   0.780   1.596   1.900  0.0000  0.0000  0.0000
    1GR     C85   85   0.425   1.719   1.900  0.0000  0.0000  0.0000
    1GR     C86   86   0.567   1.719   1.900  0.0000  0.0000  0.0000
    1GR     C87   87   0.638   1.842   1.900  0.0000  0.0000  0.0000
    1GR     C88   88   0.780   1.842   1.900  0.0000  0.0000  0.0000
    1GR     C89   89   0.425   1.965   1.900  0.0000  0.0000  0.0000
    1GR     C90   90   0.567   1.965   1.900  0.0000  0.0000  0.0000
    1GR     C91   91   0.638   2.088   1.900  0.0000  0.0000  0.0000
    1GR     C92   92   0.780   2.088   1.900  0.0000  0.0000  0.0000
    1GR     C93   93   0.425   2.210   1.900  0.0000  0.0000  0.0000
    1GR     C94   94   0.567   2.210   1.900  0.0000  0.0000  0.0000
    1GR     C95   95   0.638   2.333   1.900  0.0000  0.0000  0.0000
    1GR     C96   96   0.780   2.333   1.900  0.0000  0.0000  0.0000
    1GR     C97   97   0.425   2.456   1.900  0.0000  0.0000  0.0000
    1GR     C98   98   0.567   2.456   1.900  0.0000  0.0000  0.0000
    1GR     C99   99   0.638   2.579   1.900  0.0000  0.0000  0.0000
    1GR    C100  100   0.780   2.579   1.900  0.0000  0.0000  0.0000
    1GR    C101  101   0.425   2.702   1.900  0.0000  0.0000  0.0000
    1GR    C102  102   0.567   2.702   1.900  0.0000  0.0000  0.0000
    1GR    C103  103   0.638   2.824   1.900  0.0000  0.0000  0.0000
    1GR    C104  104   0.780   2.824   1.900  0.0000  0.0000  0.0000
    1GR    C105  105   0.425   2.947   1.900  0.0000  0.0000  0.0000
    1GR    C106  106   0.567   2.947   1.900  0.0000  0.0000  0.0000
    1GR    C107  107   0.638   3.070   1.900  0.0000  0.0000  0.0000
    1GR    C108  108   0.780   3.070   1.900  0.0000  0.0000  0.0000
    1GR    C109  109   0.425   3.193   1.900  0.0000  0.0000  0.0000
    1GR    C110  110   0.567   3.193   1.900  0.0000  0.0000  0.0000
    1GR    C111  111   0.638   3.316   1.900  0.0000  0.0000  0.0000
    1GR    C112  112   0.780   3.316   1.900  0.0000  0.0000  0.0000
    1GR    C113  113   0.851   0.000   1.900  0.0000  0.0000  0.0000
    1GR    C114  114   0.993   0.000   1.900  0.0000  0.0000  0.0000
    1GR    C115  115   1.064   0.123   1.900  0.0000  0.0000  0.0000
    1GR    C116  116   1.205   0.123   1.900  0.0000  0.0000  0.0000
    1GR    C117  117   0.851   0.246   1.900  0.0000  0.0000  0.0000
    1GR    C118  118   0.993   0.246   1.900  0.0000  0.0000  0.0000
    1GR    C119  119   1.064   0.368   1.900  0.0000  0.0000  0.0000
    1GR    C120  120   1.205   0.368   1.900  0.0000  0.0000  0.0000
    1GR    C121  121   0.851   0.491   1.900  0.0000  0.0000  0.0000
    1GR    C122  122   0.993   0.491   1.900  0.0000  0.0000  0.0000
    1GR    C123  123   1.064   0.614   1.900  0.0000  0.0000  0.0000
    1GR    C124  124   1.205   0.614   1.900  0.0000  0.0000  0.0000
    1GR    C125  125   0.851   0.737   1.900  0.0000  0.0000  0.0000
    1GR    C126  126   0.993   0.737   1.900  0.0000  0.0000  0.0000
    1GR    C127  127   1.064   0.860   1.900  0.0000  0.0000  0.0000
    1GR    C128  128   1.205   0.860   1.900  0.0000  0.0000  0.0000
    1GR    C129  129   0.851   0.982   1.900  0.0000  0.0000  0.0000
    1GR    C130  130   0.993   0.982   1.900  0.0000  0.0000  0.0000
    1GR    C131  131   1.064   1.105   1.900  0.0000  0.0000  0.0000
    1GR    C132  132   1.205   1.105   1.900  0.0000  0.0000  0.0000
    1GR    C133  133   0.851   1.228   1.900  0.0000  0.0000  0.0000
    1GR    C134  134   0.993   1.228   1.900  0.0000  0.0000  0.0000
    1GR    C135  135   1.064   1.351   1.900  0.0000  0.0000  0.0000
    1GR    C136  136   1.205   1.351   1.900  0.0000  0.0000  0.0000
    1GR    C137  137   0.851   1.474   1.900  0.0000  0.0000  0.0000
    1GR    C138  138   0.993   1.474   1.900  0.0000  0.0000  0.0000
    1GR    C139  139   1.064   1.596   1.900  0.0000  0.0000  0.0000
    1GR    C140  140   1.205   1.596   1.900  0.0000  0.0000  0.0000
    1GR    C141  141   0.851   1.719   1.900  0.0000  0.0000  0.0000
    1GR    C142  142   0.993   1.719   1.900  0.0000  0.0000  0.0000
    1GR    C143  143   1.064   1.842   1.900  0.0000  0.0000  0.0000
    1GR    C144  144   1.205   1.842   1.900  0.0000  0.0000  0.0000
    1GR    C145  145   0.851   1.965   1.900  0.0000  0.0000  0.0000
    1GR    C146  146   0.993   1.965   1.900  0.0000  0.0000  0.0000
    1GR    C147  147   1.064   2.088   1.900  0.0000  0.0000  0.0000
    1GR    C148  148   1.205   2.088   1.900  0.0000  0.0000  0.0000
    1GR    C149  149   0.851   2.210   1.900  0.0000  0.0000  0.0000
    1GR    C150  150   0.993   2.210   1.900  0.0000  0.0000  0.0000
    1GR    C151  151   1.064   2.333   1.900  0.0000  0.0000  0.0000
    1GR    C152  152   1.205   2.333   1.900  0.0000  0.0000  0.0000
    1GR    C153  153   0.851   2.456   1.900  0.0000  0.0000  0.0000
    1GR    C154  154   0.993   2.456   1.900  0.0000  0.0000  0.0000
    1GR    C155  155   1.064   2.579   1.900  0.0000  0.0000  0.0000
    1GR    C156  156   1.205   2.579   1.900  0.0000  0.0000  0.0000
    1GR    C157  157   0.851   2.702   1.900  0.0000  0.0000  0.0000
    1GR    C158  158   0.993   2.702   1.900  0.0000  0.0000  0.0000
    1GR    C159  159   1.064   2.824   1.900  0.0000  0.0000  0.0000
    1GR    C160  160   1.205   2.824   1.900  0.0000  0.0000  0.0000
    1GR    C161  161   0.851   2.947   1.900  0.0000  0.0000  0.0000
    1GR    C162  162   0.993   2.947   1.900  0.0000  0.0000  0.0000
    1GR    C163  163   1.064   3.070   1.900  0.0000  0.0000  0.0000
    1GR    C164  164   1.205   3.070   1.900  0.0000  0.0000  0.0000
    1GR    C165  165   0.851   3.193   1.900  0.0000  0.0000  0.0000
    1GR    C166  166   0.993   3.193   1.900  0.0000  0.0000  0.0000
    1GR    C167  167   1.064   3.316   1.900  0.0000  0.0000  0.0000
    1GR    C168  168   1.205   3.316   1.900  0.0000  0.0000  0.0000
    1GR    C169  169   1.276   0.000   1.900  0.0000  0.0000  0.0000
    1GR    C170  170   1.418   0.000   1.900  0.0000  0.0000  0.0000
    1GR    C171  171   1.489   0.123   1.900  0.0000  0.0000  0.0000
    1GR    C172  172   1.631   0.123   1.900  0.0000  0.0000  0.0000
    1GR    C173  173   1.276   0.246   1.900  0.0000  0.0000  0.0000
    1GR    C174  174   1.418   0.246   1.900  0.0000  0.0000  0.0000
    1GR    C175  175   1.489   0.368   1.900  0.0000  0.0000  0.0000
    1GR    C176  176   1.631   0.368   1.900  0.0000  0.0000  0.0000
    1GR    C177  177   1.276   0.491   1.900  0.0000  0.0000  0.0000
    1GR    C178  178   1.418   0.491   1.900  0.0000  0.0000  0.0000
    1GR    C179  179   1.489   0.614   1.900  0.0000  0.0000  0.0000
    1GR    C180  180   1.631   0.614   1.900  0.0000  0.0000  0.0000
    1GR    C181  181   1.276   0.737   1.900  0.0000  0.0000  0.0000
    1GR    C182  182   1.418   0.737   1.900  0.0000  0.0000  0.0000
    1GR    C183  183   1.489   0.860   1.900  0.0000  0.0000  0.0000
    1GR    C184  184   1.631   0.860   1.900  0.0000  0.0000  0.0000
    1GR    C185  185   1.276   0.982   1.900  0.0000  0.0000  0.0000
    1GR    C186  186   1.418   0.982   1.900  0.0000  0.0000  0.0000
    1GR    C187  187   1.489   1.105   1.900  0.0000  0.0000  0.0000
    1GR    C188  188   1.631   1.105   1.900  0.0000  0.0000  0.0000
    1GR    C189  189   1.276   1.228   1.900  0.0000  0.0000  0.0000
    1GR    C190  190   1.418   1.228   1.900  0.0000  0.0000  0.0000
    1GR    C191  191   1.489   1.351   1.900  0.0000  0.0000  0.0000
    1GR    C192  192   1.631   1.351   1.900  0.0000  0.0000  0.0000
    1GR    C193  193   1.276   1.474   1.900  0.0000  0.0000  0.0000
    1GR    C194  194   1.418   1.474   1.900  0.0000  0.0000  0.0000
    1GR    C195  195   1.489   1.596   1.900  0.0000  0.0000  0.0000
    1GR    C196  196   1.631   1.596   1.900  0.0000  0.0000  0.0000
    1GR    C197  197   1.276   1.719   1.900  0.0000  0.0000  0.0000
    1GR    C198  198   1.418   1.719   1.900  0.0000  0.0000  0.0000
    1GR    C199  199   1.489   1.842   1.900  0.0000  0.0000  0.0000
    1GR    C200  200   1.631   1.842   1.900  0.0000  0.0000  0.0000
    1GR    C201  201   1.276   1.965   1.900  0.0000  0.0000  0.0000
    1GR    C202  202   1.418   1.965   1.900  0.0000  0.0000  0.0000
    1GR    C203  203   1.489   2.088   1.900  0.0000  0.0000  0.0000
    1GR    C204  204   1.631   2.088   1.900  0.0000  0.0000  0.0000
    1GR    C205  205   1.276   2.210   1.900  0.0000  0.0000  0.0000
    1GR    C206  206   1.418   2.210   1.900  0.0000  0.0000  0.0000
    1GR    C207  207   1.489   2.333   1.900  0.0000  0.0000  0.0000
    1GR    C208  208   1.631   2.333   1.900  0.0000  0.0000  0.0000
    1GR    C209  209   1.276   2.456   1.900  0.0000  0.0000  0.0000
    1GR    C210  210   1.418   2.456   1.900  0.0000  0.0000  0.0000
    1GR    C211  211   1.489   2.579   1.900  0.0000  0.0000  0.0000
    1GR    C212  212   1.631   2.579   1.900  0.0000  0.0000  0.0000
    1GR    C213  213   1.276   2.702   1.900  0.0000  0.0000  0.0000
    1GR    C214  214   1.418   2.702   1.900  0.0000  0.0000  0.0000
    1GR    C215  215   1.489   2.824   1.900  0.0000  0.0000  0.0000
    1GR    C216  216   1.631   2.824   1.900  0.0000  0.0000  0.0000
    1GR    C217  217   1.276   2.947   1.900  0.0000  0.0000  0.0000
    1GR    C218  218   1.418   2.947   1.900  0.0000  0.0000  0.0000
    1GR    C219  219   1.489   3.070   1.900  0.0000  0.0000  0.0000
    1GR    C220  220   1.631   3.070   1.900  0.0000  0.0000  0.0000
    1GR    C221  221   1.276   3.193   1.900  0.0000  0.0000  0.0000
    1GR    C222  222   1.418   3.193   1.900  0.0000  0.0000  0.0000
    1GR    C223  223   1.489   3.316   1.900  0.0000  0.0000  0.0000
    1GR    C224  224   1.631   3.316   1.900  0.0000  0.0000  0.0000
    1GR    C225  225   1.702   0.000   1.900  0.0000  0.0000  0.0000
    1GR    C226  226   1.843   0.000   1.900  0.0000  0.0000  0.0000
    1GR    C227  227   1.914   0.123   1.900  0.0000  0.0000  0.0000
    1GR    C228  228   2.056   0.123   1.900  0.0000  0.0000  0.0000
    1GR    C229  229   1.702   0.246   1.900  0.0000  0.0000  0.0000
    1GR    C230  230   1.843   0.246   1.900  0.0000  0.0000  0.0000
    1GR    C231  231   1.914   0.368   1.900  0.0000  0.0000  0.0000
    1GR    C232  232   2.056   0.368   1.900  0.0000  0.0000  0.0000
    1GR    C233  233   1.702   0.491   1.900  0.0000  0.0000  0.0000
    1GR    C234  234   1.843   0.491   1.900  0.0000  0.0000  0.0000
    1GR    C235  235   1.914   0.614   1.900  0.0000  0.0000  0.0000
    1GR    C236  236   2.056   0.614   1.900  0.0000  0.0000  0.0000
    1GR    C237  237   1.702   0.737   1.900  0.0000  0.0000  0.0000
    1GR    C238  238   1.843   0.737   1.900  0.0000  0.0000  0.0000
    1GR    C239  239   1.914   0.860   1.900  0.0000  0.0000  0.0000
    1GR    C240  240   2.056   0.860   1.900  0.0000  0.0000  0.0000
    1GR    C241  241   1.702   0.982   1.900  0.0000  0.0000  0.0000
    1GR    C242  242   1.843   0.982   1.900  0.0000  0.0000  0.0000
    1GR    C243  243   1.914   1.105   1.900  0.0000  0.0000  0.0000
    1GR    C244  244   2.056   1.105   1.900  0.0000  0.0000  0.0000
    1GR    C245  245   1.702   1.228   1.900  0.0000  0.0000  0.0000
    1GR    C246  246   1.843   1.228   1.900  0.0000  0.0000  0.0000
    1GR    C247  247   1.914   1.351   1.900  0.0000  0.0000  0.0000
    1GR    C248  248   2.056   1.351   1.900  0.0000  0.0000  0.0000
    1GR    C249  249   1.702   1.474   1.900  0.0000  0.0000  0.0000
    1GR    C250  250   1.843   1.474   1.900  0.0000  0.0000  0.0000
    1GR    C251  251   1.914   1.596   1.900  0.0000  0.0000  0.0000
    1GR    C252  252   2.056   1.596   1.900  0.0000  0.0000  0.0000
    1GR    C253  253   1.702   1.719   1.900  0.0000  0.0000  0.0000
    1GR    C254  254   1.843   1.719   1.900  0.0000  0.0000  0.0000
    1GR    C255  255   1.914   1.842   1.900  0.0000  0.0000  0.0000
    1GR    C256  256   2.056   1.842   1.900  0.0000  0.0000  0.0000
    1GR    C257  257   1.702   1.965   1.900  0.0000  0.0000  0.0000
    1GR    C258  258   1.843   1.965   1.900  0.0000  0.0000  0.0000
    1GR    C259  259   1.914   2.088   1.900  0.0000  0.0000  0.0000
    1GR    C260  260   2.056   2.088   1.900  0.0000  0.0000  0.0000
    1GR    C261  261   1.702   2.210   1.900  0.0000  0.0000  0.0000
    1GR    C262  262   1.843   2.210   1.900  0.0000  0.0000  0.0000
    1GR    C263  263   1.914   2.333   1.900  0.0000  0.0000  0.0000
    1GR    C264  264   2.056   2.333   1.900  0.0000  0.0000  0.0000
    1GR    C265  265   1.702   2.456   1.900  0.0000  0.0000  0.0000
    1GR    C266  266   1.843   2.456   1.900  0.0000  0.0000  0.0000
    1GR    C267  267   1.914   2.579   1.900  0.0000  0.0000  0.0000
    1GR    C268  268   2.056   2.579   1.900  0.0000  0.0000  0.0000
    1GR    C269  269   1.702   2.702   1.900  0.0000  0.0000  0.0000
    1GR    C270  270   1.843   2.702   1.900  0.0000  0.0000  0.0000
    1GR    C271  271   1.914   2.824   1.900  0.0000  0.0000  0.0000
    1GR    C272  272   2.056   2.824   1.900  0.0000  0.0000  0.0000
    1GR    C273  273   1.702   2.947   1.900  0.0000  0.0000  0.0000
    1GR    C274  274   1.843   2.947   1.900  0.0000  0.0000  0.0000
    1GR    C275  275   1.914   3.070   1.900  0.0000  0.0000  0.0000
    1GR    C276  276   2.056   3.070   1.900  0.0000  0.0000  0.0000
    1GR    C277  277   1.702   3.193   1.900  0.0000  0.0000  0.0000
    1GR    C278  278   1.843   3.193   1.900  0.0000  0.0000  0.0000
    1GR    C279  279   1.914   3.316   1.900  0.0000  0.0000  0.0000
    1GR    C280  280   2.056   3.316   1.900  0.0000  0.0000  0.0000
    1GR    C281  281   2.127   0.000   1.900  0.0000  0.0000  0.0000
    1GR    C282  282   2.269   0.000   1.900  0.0000  0.0000  0.0000
    1GR    C283  283   2.340   0.123   1.900  0.0000  0.0000  0.0000
    1GR    C284  284   2.481   0.123   1.900  0.0000  0.0000  0.0000
    1GR    C285  285   2.127   0.246   1.900  0.0000  0.0000  0.0000
    1GR    C286  286   2.269   0.246   1.900  0.0000  0.0000  0.0000
    1GR    C287  287   2.340   0.368   1.900  0.0000  0.0000  0.0000
    1GR    C288  288   2.481   0.368   1.900  0.0000  0.0000  0.0000
    1GR    C289  289   2.127   0.491   1.900  0.0000  0.0000  0.0000
    1GR    C290  290   2.269   0.491   1.900  0.0000  0.0000  0.0000
    1GR    C291  291   2.340   0.614   1.900  0.0000  0.0000  0.0000
    1GR    C292  292   2.481   0.614   1.900  0.0000  0.0000  0.0000
    1GR    C293  293   2.127   0.737   1.900  0.0000  0.0000  0.0000
    1GR    C294  294   2.269   0.737   1.900  0.0000  0.0000  0.0000
    1GR    C295  295   2.340   0.860   1.900  0.0000  0.0000  0.0000
    1GR    C296  296   2.481   0.860   1.900  0.0000  0.0000  0.0000
    1GR    C297  297   2.127   0.982   1.900  0.0000  0.0000  0.0000
    1GR    C298  298   2.269   0.982   1.900  0.0000  0.0000  0.0000
    1GR    C299  299   2.340   1.105   1.900  0.0000  0.0000  0.0000
    1GR    C300  300   2.481   1.105   1.900  0.0000  0.0000  0.0000
    1GR    C301  301   2.127   1.228   1.900  0.0000  0.0000  0.0000
    1GR    C302  302   2.269   1.228   1.900  0.0000  0.0000  0.0000
    1GR    C303  303   2.340   1.351   1.900  0.0000  0.0000  0.0000
    1GR    C304  304   2.481   1.351   1.900  0.0000  0.0000  0.0000
    1GR    C305  305   2.127   1.474   1.900  0.0000  0.0000  0.0000
    1GR    C306  306   2.269   1.474   1.900  0.0000  0.0000  0.0000
    1GR    C307  307   2.340   1.596   1.900  0.0000  0.0000  0.0000
    1GR    C308  308   2.481   1.596   1.900  0.0000  0.0000  0.0000
    1GR    C309  309   2.127   1.719   1.900  0.0000  0.0000  0.0000
    1GR    C310  310   2.269   1.719   1.900  0.0000  0.0000  0.0000
    1GR    C311  311   2.340   1.842   1.900  0.0000  0.0000  0.0000
    1GR    C312  312   2.481   1.842   1.900  0.0000  0.0000  0.0000
    1GR    C313  313   2.127   1.965   1.900  0.0000  0.0000  0.0000
    1GR    C314  314   2.269   1.965   1.900  0.0000  0.0000  0.0000
    1GR    C315  315   2.340   2.088   1.900  0.0000  0.0000  0.0000
    1GR    C316  316   2.481   2.088   1.900  0.0000  0.0000  0.0000
    1GR    C317  317   2.127   2.210   1.900  0.0000  0.0000  0.0000
    1GR    C318  318   2.269   2.210   1.900  0.0000  0.0000  0.0000
    1GR    C319  319   2.340   2.333   1.900  0.0000  0.0000  0.0000
    1GR    C320  320   2.481   2.333   1.900  0.0000  0.0000  0.0000
    1GR    C321  321   2.127   2.456   1.900  0.0000  0.0000  0.0000
    1GR    C322  322   2.269   2.456   1.900  0.0000  0.0000  0.0000
    1GR    C323  323   2.340   2.579   1.900  0.0000  0.0000  0.0000
    1GR    C324  324   2.481   2.579   1.900  0.0000  0.0000  0.0000
    1GR    C325  325   2.127   2.702   1.900  0.0000  0.0000  0.0000
    1GR    C326  326   2.269   2.702   1.900  0.0000  0.0000  0.0000
    1GR    C327  327   2.340   2.824   1.900  0.0000  0.0000  0.0000
    1GR    C328  328   2.481   2.824   1.900  0.0000  0.0000  0.0000
    1GR    C329  329   2.127   2.947   1.900  0.0000  0.0000  0.0000
    1GR    C330  330   2.269   2.947   1.900  0.0000  0.0000  0.0000
    1GR    C331  331   2.340   3.070   1.900  0.0000  0.0000  0.0000
    1GR    C332  332   2.481   3.070   1.900  0.0000  0.0000  0.0000
    1GR    C333  333   2.127   3.193   1.900  0.0000  0.0000  0.0000
    1GR    C334  334   2.269   3.193   1.900  0.0000  0.0000  0.0000
    1GR    C335  335   2.340   3.316   1.900  0.0000  0.0000  0.0000
    1GR    C336  336   2.481   3.316   1.900  0.0000  0.0000  0.0000
    1GR    C337  337   2.552   0.000   1.900  0.0000  0.0000  0.0000
    1GR    C338  338   2.694   0.000   1.900  0.0000  0.0000  0.0000
    1GR    C339  339   2.765   0.123   1.900  0.0000  0.0000  0.0000
    1GR    C340  340   2.907   0.123   1.900  0.0000  0.0000  0.0000
    1GR    C341  341   2.552   0.246   1.900  0.0000  0.0000  0.0000
    1GR    C342  342   2.694   0.246   1.900  0.0000  0.0000  0.0000
    1GR    C343  343   2.765   0.368   1.900  0.0000  0.0000  0.0000
    1GR    C344  344   2.907   0.368   1.900  0.0000  0.0000  0.0000
    1GR    C345  345   2.552   0.491   1.900  0.0000  0.0000  0.0000
    1GR    C346  346   2.694   0.491   1.900  0.0000  0.0000  0.0000
    1GR    C347  347   2.765   0.614   1.900  0.0000  0.0000  0.0000
    1GR    C348  348   2.907   0.614   1.900  0.0000  0.0000  0.0000
    1GR    C349  349   2.552   0.737   1.900  0.0000  0.0000  0.0000
    1GR    C350  350   2.694   0.737   1.900  0.0000  0.0000  0.0000
    1GR    C351  351   2.765   0.860   1.900  0.0000  0.0000  0.0000
    1GR    C352  352   2.907   0.860   1.900  0.0000  0.0000  0.0000
    1GR    C353  353   2.552   0.982   1.900  0.0000  0.0000  0.0000
    1GR    C354  354   2.694   0.982   1.900  0.0000  0.0000  0.0000
    1GR    C355  355   2.765   1.105   1.900  0.0000  0.0000  0.0000
    1GR    C356  356   2.907   1.105   1.900  0.0000  0.0000  0.0000
    1GR    C357  357   2.552   1.228   1.900  0.0000  0.0000  0.0000
    1GR    C358  358   2.694   1.228   1.900  0.0000  0.0000  0.0000
    1GR    C359  359   2.765   1.351   1.900  0.0000  0.0000  0.0000
    1GR    C360  360   2.907   1.351   1.900  0.0000  0.0000  0.0000
    1GR    C361  361   2.552   1.474   1.900  0.0000  0.0000  0.0000
    1GR    C362  362   2.694   1.474   1.900  0.0000  0.0000  0.0000
    1GR    C363  363   2.765   1.596   1.900  0.0000  0.0000  0.0000
    1GR    C364  364   2.907   1.596   1.900  0.0000  0.0000  0.0000
    1GR    C365  365   2.552   1.719   1.900  0.0000  0.0000  0.0000
    1GR    C366  366   2.694   1.719   1.900  0.0000  0.0000  0.0000
    1GR    C367  367   2.765   1.842   1.900  0.0000  0.0000  0.0000
    1GR    C368  368   2.907   1.842   1.900  0.0000  0.0000  0.0000
    1GR    C369  369   2.552   1.965   1.900  0.0000  0.0000  0.0000
    1GR    C370  370   2.694   1.965   1.900  0.0000  0.0000  0.0000
    1GR    C371  371   2.765   2.088   1.900  0.0000  0.0000  0.0000
    1GR    C372  372   2.907   2.088   1.900  0.0000  0.0000  0.0000
    1GR    C373  373   2.552   2.210   1.900  0.0000  0.0000  0.0000
    1GR    C374  374   2.694   2.210   1.900  0.0000  0.0000  0.0000
    1GR    C375  375   2.765   2.333   1.900  0.0000  0.0000  0.0000
    1GR    C376  376   2.907   2.333   1.900  0.0000  0.0000  0.0000
    1GR    C377  377   2.552   2.456   1.900  0.0000  0.0000  0.0000
    1GR    C378  378   2.694   2.456   1.900  0.0000  0.0000  0.0000
    1GR    C379  379   2.765   2.579   1.900  0.0000  0.0000  0.0000
    1GR    C380  380   2.907   2.579   1.900  0.0000  0.0000  0.0000
    1GR    C381  381   2.552   2.702   1.900  0.0000  0.0000  0.0000
    1GR    C382  382   2.694   2.702   1.900  0.0000  0.0000  0.0000
    1GR    C383  383   2.765   2.824   1.900  0.0000  0.0000  0.0000
    1GR    C384  384   2.907   2.824   1.900  0.0000  0.0000  0.0000
    1GR    C385  385   2.552   2.947   1.900  0.0000  0.0000  0.0000
    1GR    C386  386   2.694   2.947   1.900  0.0000  0.0000  0.0000
    1GR    C387  387   2.765   3.070   1.900  0.0000  0.0000  0.0000
    1GR    C388  388   2.907   3.070   1.900  0.0000  0.0000  0.0000
    1GR    C389  389   2.552   3.193   1.900  0.0000  0.0000  0.0000
    1GR    C390  390   2.694   3.193   1.900  0.0000  0.0000  0.0000
    1GR    C391  391   2.765   3.316   1.900  0.0000  0.0000  0.0000
    1GR    C392  392   2.907   3.316   1.900  0.0000  0.0000  0.0000
    1GR    C393  393   2.978   0.000   1.900  0.0000  0.0000  0.0000
    1GR    C394  394   3.120   0.000   1.900  0.0000  0.0000  0.0000
    1GR    C395  395   3.191   0.123   1.900  0.0000  0.0000  0.0000
    1GR    C396  396   3.332   0.123   1.900  0.0000  0.0000  0.0000
    1GR    C397  397   2.978   0.246   1.900  0.0000  0.0000  0.0000
    1GR    C398  398   3.120   0.246   1.900  0.0000  0.0000  0.0000
    1GR    C399  399   3.191   0.368   1.900  0.0000  0.0000  0.0000
    1GR    C400  400   3.332   0.368   1.900  0.0000  0.0000  0.0000
    1GR    C401  401   2.978   0.491   1.900  0.0000  0.0000  0.0000
    1GR    C402  402   3.120   0.491   1.900  0.0000  0.0000  0.0000
    1GR    C403  403   3.191   0.614   1.900  0.0000  0.0000  0.0000
    1GR    C404  404   3.332   0.614   1.900  0.0000  0.0000  0.0000
    1GR    C405  405   2.978   0.737   1.900  0.0000  0.0000  0.0000
    1GR    C406  406   3.120   0.737   1.900  0.0000  0.0000  0.0000
    1GR    C407  407   3.191   0.860   1.900  0.0000  0.0000  0.0000
    1GR    C408  408   3.332   0.860   1.900  0.0000  0.0000  0.0000
    1GR    C409  409   2.978   0.982   1.900  0.0000  0.0000  0.0000
    1GR    C410  410   3.120   0.982   1.900  0.0000  0.0000  0.0000
    1GR    C411  411   3.191   1.105   1.900  0.0000  0.0000  0.0000
    1GR    C412  412   3.332   1.105   1.900  0.0000  0.0000  0.0000
    1GR    C413  413   2.978   1.228   1.900  0.0000  0.0000  0.0000
    1GR    C414  414   3.120   1.228   1.900  0.0000  0.0000  0.0000
    1GR    C415  415   3.191   1.351   1.900  0.0000  0.0000  0.0000
    1GR    C416  416   3.332   1.351   1.900  0.0000  0.0000  0.0000
    1GR    C417  417   2.978   1.474   1.900  0.0000  0.0000  0.0000
    1GR    C418  418   3.120   1.474   1.900  0.0000  0.0000  0.0000
    1GR    C419  419   3.191   1.596   1.900  0.0000  0.0000  0.0000
    1GR    C420  420   3.332   1.596   1.900  0.0000  0.0000  0.0000
    1GR    C421  421   2.978   1.719   1.900  0.0000  0.0000  0.0000
    1GR    C422  422   3.120   1.719   1.900  0.0000  0.0000  0.0000
    1GR    C423  423   3.191   1.842   1.900  0.0000  0.0000  0.0000
    1GR    C424  424   3.332   1.842   1.900  0.0000  0.0000  0.0000
    1GR    C425  425   2.978   1.965   1.900  0.0000  0.0000  0.0000
    1GR    C426  426   3.120   1.965   1.900  0.0000  0.0000  0.0000
    1GR    C427  427   3.191   2.088   1.900  0.0000  0.0000  0.0000
    1GR    C428  428   3.332   2.088   1.900  0.0000  0.0000  0.0000
    1GR    C429  429   2.978   2.210   1.900  0.0000  0.0000  0.0000
    1GR    C430  430   3.120   2.210   1.900  0.0000  0.0000  0.0000
    1GR    C431  431   3.191   2.333   1.900  0.0000  0.0000  0.0000
    1GR    C432  432   3.332   2.333   1.900  0.0000  0.0000  0.0000
    1GR    C433  433   2.978   2.456   1.900  0.0000  0.0000  0.0000
    1GR    C434  434   3.120   2.456   1.900  0.0000  0.0000  0.0000
    1GR    C435  435   3.191   2.579   1.900  0.0000  0.0000  0.0000
    1GR    C436  436   3.332   2.579   1.900  0.0000  0.0000  0.0000
    1GR    C437  437   2.978   2.702   1.900  0.0000  0.0000  0.0000
    1GR    C438  438   3.120   2.702   1.900  0.0000  0.0000  0.0000
    1GR    C439  439   3.191   2.824   1.900  0.0000  0.0000  0.0000
    1GR    C440  440   3.332   2.824   1.900  0.0000  0.0000  0.0000
    1GR    C441  441   2.978   2.947   1.900  0.0000  0.0000  0.0000
    1GR    C442  442   3.120   2.947   1.900  0.0000  0.0000  0.0000
    1GR    C443  443   3.191   3.070   1.900  0.0000  0.0000  0.0000
    1GR    C444  444   3.332   3.070   1.900  0.0000  0.0000  0.0000
    1GR    C445  445   2.978   3.193   1.900  0.0000  0.0000  0.0000
    1GR    C446  446   3.120   3.193   1.900  0.0000  0.0000  0.0000
    1GR    C447  447   3.191   3.316   1.900  0.0000  0.0000  0.0000
    1GR    C448  448   3.332   3.316   1.900  0.0000  0.0000  0.0000
    2PMMA   CX1  449   0.188   2.679   2.272  0.5251 -0.0514 -0.0370
    2PMMA   CA2  450   0.322   2.650   2.340  0.0664 -0.1626 -0.2739
    2PMMA   CX3  451   0.443   2.702   2.251 -0.0112  0.4020  0.0909
    2PMMA    C4  452   0.304   2.733   2.471  0.3720 -0.2318 -0.3693
    2PMMA    O5  453   0.244   2.693   2.571  0.0638  0.2190 -0.1100
    2PMMA   OS6  454   0.368   2.857   2.465  0.4235  0.3968  1.1302
    2PMMA   CE7  455   0.353   2.948   2.576 -0.2052 -0.0133  0.1254
    2PMMA   CX8  456   0.343   2.495   2.366 -0.7127 -0.3129 -0.1866
    2PMMA   CA9  457   0.465   2.429   2.436 -0.2081 -0.2011 -0.5543
    2PMMA  CX10  458   0.584   2.440   2.343 -0.7347  0.3704  0.0125
    2PMMA   C11  459   0.417   2.278   2.440 -0.7098 -0.2783 -0.4194
    2PMMA   O12  460   0.441   2.189   2.363 -0.4000 -0.5781  0.2066
    2PMMA  OS13  461   0.338   2.260   2.544  0.4605  0.3942 -0.2746
    2PMMA  CE14  462   0.274   2.137   2.574 -0.2440 -0.5810  0.2327
    2PMMA  CX15  463   0.501   2.491   2.575 -0.3829  0.5317  1.0245
    2PMMA  CA16  464   0.611   2.435   2.674  0.6408  0.1270 -0.5944
    2PMMA  CX17  465   0.602   2.518   2.811  0.2664  0.2262  0.2383
    2PMMA   C18  466   0.570   2.285   2.706 -0.3907  0.3918 -0.0614
    2PMMA   O19  467   0.509   2.238   2.798  0.2097  0.0202 -0.2375
    2PMMA  OS20  468   0.645   2.203   2.633 -0.2368 -0.0971  0.3564
    2PMMA  CE21  469   0.641   2.054   2.662 -0.2152 -0.9533 -0.1894
    2PMMA  CX22  470   0.756   2.470   2.613  0.1832 -0.5872 -0.0869
    2PMMA  CA23  471   0.888   2.461   2.701 -0.6489 -0.4107 -0.7271
    2PMMA  CX24  472   0.913   2.326   2.779  0.1476 -0.2314  0.2158
    2PMMA   C25  473   0.909   2.582   2.795 -0.3756  0.1704 -0.9560
    2PMMA   O26  474   0.878   2.693   2.758  0.0342  0.4013  0.3984
    2PMMA  OS27  475   0.952   2.557   2.918  0.1234  0.3942 -0.1955
    2PMMA  CE28  476   0.946   2.663   3.006 -0.3371 -0.2650 -0.1865
    2PMMA  CX29  477   1.005   2.484   2.606 -0.2560 -0.0284  0.1852
    2PMMA  HC30  478   0.180   2.622   2.179  0.5868  1.7813 -1.2083
    2PMMA  HC31  479   0.098   2.660   2.331  1.2110 -0.2865  0.9353
    2PMMA  HC32  480   0.168   2.784   2.244  1.1973  0.0091 -0.2986
    2PMMA  HC33  481   0.537   2.707   2.307 -0.0288  2.2674 -0.0206
    2PMMA  HC34  482   0.422   2.801   2.208 -3.5804 -0.5750 -0.5570
    2PMMA  HC35  483   0.471   2.641   2.165 -0.7998  1.3318 -0.8472
    2PMMA  H136  484   0.386   3.047   2.547  3.3434 -1.1034  0.2356
    2PMMA  H137  485   0.403   2.913   2.666  0.6251  0.3828 -0.1824
    2PMMA  H138  486   0.248   2.967   2.601  0.3482 -0.0003  2.5277
    2PMMA  HC39  487   0.258   2.472   2.431 -0.7825  0.2080 -0.0857
    2PMMA  HC40  488   0.333   2.443   2.270  0.8868  0.8278 -0.9981
    2PMMA  HC41  489   0.555   2.433   2.238  0.1754 -1.8404 -0.1123
    2PMMA  HC42  490   0.640   2.534   2.350 -1.1854  0.7534 -1.4104
    2PMMA  HC43  491   0.660   2.363   2.361 -0.7641  0.3819  0.1835
    2PMMA  H144  492   0.197   2.158   2.649  0.4492 -0.0368  0.8105
    2PMMA  H145  493   0.347   2.079   2.630 -0.1350  1.6615  2.5360
    2PMMA  H146  494   0.238   2.077   2.491  1.4138  0.5697 -1.3497
    2PMMA  HC47  495   0.531   2.596   2.568 -1.3405  0.6128 -2.3016
    2PMMA  HC48  496   0.414   2.494   2.642 -0.0496 -1.1500  1.5591
    2PMMA  HC49  497   0.618   2.626   2.796 -3.3564  0.8988  0.6184
    2PMMA  HC50  498   0.677   2.479   2.880 -0.8284 -0.7672  0.8637
    2PMMA  HC51  499   0.503   2.498   2.852  0.4461 -0.6096  0.2722
    2PMMA  H152  500   0.639   2.033   2.769 -0.3931 -2.0912 -0.4167
    2PMMA  H153  501   0.728   2.002   2.623  1.1349  1.5845 -0.6882
    2PMMA  H154  502   0.555   2.007   2.614 -0.4571 -0.4552 -0.2503
    2PMMA  HC55  503   0.766   2.390   2.538 -2.9679 -2.3690  1.2915
    2PMMA  HC56  504   0.750   2.567   2.564 -1.8318 -1.9167 -2.6127
    2PMMA  HC57  505   1.006   2.325   2.837  0.3402  2.1030  0.0008
    2PMMA  HC58  506   0.846   2.311   2.864  0.7707  1.5306  1.0590
    2PMMA  HC59  507   0.917   2.246   2.706  0.3686  1.8709 -2.1370
    2PMMA  H160  508   0.842   2.688   3.029 -0.5096 -1.9462  0.9595
    2PMMA  H161  509   1.000   2.751   2.971  1.2720 -1.4491 -0.6858
    2PMMA  H162  510   0.995   2.620   3.094  0.6066 -1.5447 -1.3247
    2PMMA  HC63  511   0.989   2.579   2.554  0.4568 -0.0470 -0.0817
    2PMMA  HC64  512   1.104   2.494   2.651  0.4124 -0.3327 -1.1856
    2PMMA  HC65  513   1.015   2.411   2.525  3.9568  0.4415  0.1448
    3ANI     C1  514   0.430   0.101   0.891  0.1138 -0.7180  0.7952
    3ANI     O1  515   0.341   0.080   1.002  0.2104  0.3510 -0.1630
    3ANI     C2  516   0.204   0.107   1.005  0.2818  0.5611 -0.2326
    3ANI     C3  517   0.141   0.185   0.912  0.0015 -0.3275 -0.0053
    3ANI     C4  518   0.002   0.211   0.920  0.6690  0.0676 -0.6102
    3ANI     C5  519  -0.069   0.142   1.024  0.2597 -0.1032  0.4202
    3ANI     C6  520  -0.003   0.070   1.125  0.7712  0.5248 -0.1247
    3ANI     C7  521   0.139   0.055   1.115  0.1591  0.4592 -0.5384
    3ANI     H1  522   0.443   0.206   0.860  0.4174 -0.9203  0.2244
    3ANI     H2  523   0.533   0.067   0.904  0.7051  0.7683  0.1184
    3ANI     H3  524   0.393   0.050   0.801 -0.7882  0.8162  0.2683
    3ANI     H4  525   0.195   0.229   0.829  0.1370  1.8584  1.2096
    3ANI     H5  526  -0.051   0.259   0.839 -0.4513 -0.3450 -0.1380
    3ANI     H6  527  -0.176   0.161   1.032  0.3189  0.5991 -0.3856
    3ANI     H7  528  -0.057   0.024   1.207  1.1715  0.3725  0.0544
    3ANI     H8  529   0.196  -0.001   1.188 -0.7740 -0.6417 -0.6479
    4ANI     C1  530   1.292   1.619   0.950  0.0363  0.0742  0.3545
    4ANI     O1  531   1.405   1.688   1.013  0.5750 -0.2207  0.1382
    4ANI     C2  532   1.398   1.806   1.082  0.1918 -0.7601  0.1324
    4ANI     C3  533   1.280   1.881   1.082  0.2758  0.7383 -0.3763
    4ANI     C4  534   1.278   2.002   1.160 -0.4480  0.3608 -0.9729
    4ANI     C5  535   1.390   2.047   1.232 -0.7716  1.0017  0.1572
    4ANI     C6  536   1.509   1.963   1.233  0.7778 -0.0447  0.1475
    4ANI     C7  537   1.509   1.849   1.150 -0.2580 -0.0645  0.0219
    4ANI     H1  538   1.275   1.660   0.850  0.6680  1.2847  0.7365
    4ANI     H2  539   1.314   1.511   0.951 -0.5262 -0.0418  0.4904
    4ANI     H3  540   1.202   1.625   1.013 -1.0642 -3.8685 -0.6938
    4ANI     H4  541   1.191   1.848   1.029  0.4237  1.2202 -0.9328
    4ANI     H5  542   1.185   2.057   1.173  0.1511  1.2908 -0.5175
    4ANI     H6  543   1.385   2.141   1.286  3.7842  2.4687 -1.7238
    4ANI     H7  544   1.595   1.986   1.294 -0.3380  0.7928  1.4492
    4ANI     H8  545   1.593   1.781   1.163 -0.4159  0.2278  2.7818
    5ANI     C1  546   2.972   0.710   2.279 -0.0451 -0.0297  0.5533
    5ANI     O1  547   2.996   0.569   2.296 -0.0987  0.3365  0.2144
    5ANI     C2  548   3.113   0.508   2.275  0.1795 -0.3132 -1.1034
    5ANI     C3  549   3.122   0.369   2.299  0.0811 -0.8108 -0.0059
    5ANI     C4  550   3.241   0.300   2.293  0.5575  0.2153  0.2461
    5ANI     C5  551   3.353   0.373   2.260  0.9145  0.0266 -0.6476
    5ANI     C6  552   3.348   0.511   2.219  0.5524  0.3871 -0.2055
    5ANI     C7  553   3.226   0.577   2.233  0.1566  0.2092 -0.5425
    5ANI     H1  554   3.024   0.764   2.359  0.9579 -1.8321  1.1624
    5ANI     H2  555   3.026   0.731   2.186  0.0376  0.3935  0.6981
    5ANI     H3  556   2.866   0.731   2.266 -0.0110 -0.0491  0.2389
    5ANI     H4  557   3.034   0.320   2.338 -0.3925  0.1948  0.2168
    5ANI     H5  558   3.241   0.195   2.321 -0.6395 -0.1708 -1.1530
    5ANI     H6  559   3.445   0.316   2.257 -0.9143 -3.1933  0.8671
    5ANI     H7  560   3.433   0.566   2.179  0.0146 -0.6684 -2.8397
    5ANI     H8  561   3.221   0.684   2.215 -1.4042  0.6266  2.0080
    6ANI     C1  562   3.226   3.335   2.263  0.1854  0.1989 -0.1494
    6ANI     O1  563   3.217   3.196   2.219  0.4720  0.0336  0.3997
    6ANI     C2  564   3.264   3.098   2.304 -0.6269  0.0497  0.3054
    6ANI     C3  565   3.312   3.119   2.434  0.4532  0.5139  0.2636
    6ANI     C4  566   3.361   3.005   2.508  1.0684 -0.0034 -0.5681
    6ANI     C5  567   3.367   2.879   2.457  0.4701  0.1963  0.4165
    6ANI     C6  568   3.303   2.866   2.329  0.5390  0.6319 -0.1794
    6ANI     C7  569   3.255   2.968   2.260  0.1033 -0.5560  0.2542
    6ANI     H1  570   3.193   3.346   2.367 -0.2929 -0.9471 -0.1725
    6ANI     H2  571   3.332   3.363   2.266  0.0717  0.7097 -0.7119
    6ANI     H3  572   3.176   3.408   2.197 -1.1855  0.7146  1.4340
    6ANI     H4  573   3.310   3.210   2.493  2.1154 -0.7595  2.3650
    6ANI     H5  574   3.389   3.028   2.610  2.2640 -0.6370 -0.7402
    6ANI     H6  575   3.409   2.798   2.516 -0.6361 -2.0738 -1.8035
    6ANI     H7  576   3.296   2.769   2.280 -1.5364  1.0615 -0.8029
    6ANI     H8  577   3.194   2.949   2.172  1.3891 -1.8522 -0.3788
    7ANI     C1  578   2.903   1.381   3.103 -0.3720 -0.1804 -0.0671
    7ANI     O1  579   2.842   1.461   3.202 -0.0882 -0.0461 -0.3139
    7ANI     C2  580   2.708   1.449   3.250 -0.7083  0.4618 -0.0213
    7ANI     C3  581   2.657   1.561   3.323  0.4094  0.8160  0.3787
    7ANI     C4  582   2.526   1.552   3.372  0.0688  0.1726  0.1031
    7ANI     C5  583   2.446   1.430   3.358 -0.5297  0.4346  0.3843
    7ANI     C6  584   2.502   1.316   3.290 -0.2369  0.1994 -0.4077
    7ANI     C7  585   2.628   1.331   3.227 -0.1700 -0.4260  0.4334
    7ANI     H1  586   3.010   1.399   3.087  0.3091 -3.1999  0.9411
    7ANI     H2  587   2.897   1.277   3.136  1.5636  0.2402  1.7305
    7ANI     H3  588   2.853   1.388   3.006  0.2550  2.8072 -0.2250
    7ANI     H4  589   2.717   1.650   3.339  0.2061  1.3776 -1.8233
    7ANI     H5  590   2.484   1.641   3.419  1.1947  0.3164  0.8523
    7ANI     H6  591   2.345   1.424   3.398 -1.4585  1.8132 -1.6195
    7ANI     H7  592   2.451   1.220   3.284 -0.6009  0.2824  1.2802
    7ANI     H8  593   2.677   1.249   3.176  1.2241  0.1450  0.8308
    8ANI     C1  594   1.113   2.753   1.552  0.2568  0.5744  0.0151
    8ANI     O1  595   1.193   2.873   1.549  0.0189 -0.0594 -0.4338
    8ANI     C2  596   1.331   2.866   1.548 -0.2200 -0.2129 -0.3732
    8ANI     C3  597   1.399   2.986   1.543  0.3917  0.2320  0.3032
    8ANI     C4  598   1.543   2.989   1.548  0.1086  0.1303 -0.3784
    8ANI     C5  599   1.610   2.870   1.558  0.6551  0.4500  0.5991
    8ANI     C6  600   1.538   2.747   1.552 -0.1959 -0.5869 -0.3016
    8ANI     C7  601   1.400   2.745   1.553 -0.0528 -0.3817  0.1614
    8ANI     H1  602   1.155   2.682   1.479  1.5463 -0.1125  1.3815
    8ANI     H2  603   1.115   2.692   1.643  2.5974  0.8628  0.1996
    8ANI     H3  604   1.007   2.772   1.531  0.0472  0.2212  0.7378
    8ANI     H4  605   1.343   3.079   1.552  0.2298  0.1618  0.0086
    8ANI     H5  606   1.600   3.081   1.540 -0.2953  0.4105 -0.0497
    8ANI     H6  607   1.718   2.865   1.558  0.6531  0.0448  2.4014
    8ANI     H7  608   1.589   2.651   1.552  0.1445 -0.4080 -0.9221
    8ANI     H8  609   1.357   2.645   1.555 -0.2528 -0.2817  1.4153
    9ANI     C1  610   2.861   1.762   3.084  0.2284 -0.2265  0.0809
    9ANI     O1  611   2.907   1.863   3.167  0.3461 -0.0744  0.0302
    9ANI     C2  612   2.834   1.977   3.201 -0.5134  0.7790 -0.6969
    9ANI     C3  613   2.714   2.015   3.130  0.0757  0.6733 -0.1595
    9ANI     C4  614   2.637   2.130   3.174 -0.1921  0.1160  0.2850
    9ANI     C5  615   2.676   2.205   3.283 -0.4380 -0.5550 -0.1437
    9ANI     C6  616   2.797   2.175   3.347 -0.0854 -0.2250 -0.8156
    9ANI     C7  617   2.876   2.067   3.304 -0.5889  0.4848  0.5115
    9ANI     H1  618   2.939   1.686   3.071  0.5795  0.4757 -2.0973
    9ANI     H2  619   2.780   1.702   3.127  0.0835 -0.1177 -0.0391
    9ANI     H3  620   2.825   1.811   2.992 -0.1557 -0.1581  0.2683
    9ANI     H4  621   2.693   1.963   3.037 -0.7090 -0.9333  0.8881
    9ANI     H5  622   2.536   2.148   3.138 -0.9547  0.7070  2.6478
    9ANI     H6  623   2.620   2.289   3.323 -0.5611 -0.3702 -0.7011
    9ANI     H7  624   2.830   2.235   3.432 -1.4742  1.3869 -1.4001
    9ANI     H8  625   2.972   2.050   3.352  0.2220  0.9338 -0.9115
   10ANI     C1  626   1.422   0.034   3.008  0.0601 -0.3729  0.1643
   10ANI     O1  627   1.443  -0.044   3.125  0.1610  0.7680  0.6034
   10ANI     C2  628   1.484  -0.177   3.122  0.1511 -0.1014  0.1568
   10ANI     C3  629   1.481  -0.254   3.002 -0.4742 -0.3376 -0.3168
   10ANI     C4  630   1.536  -0.383   2.997  0.2854  0.4703  0.0629
   10ANI     C5  631   1.594  -0.430   3.117 -0.4158 -0.4116 -0.3294
   10ANI     C6  632   1.598  -0.358   3.235  0.1471  0.1548  0.7028
   10ANI     C7  633   1.540  -0.232   3.236 -0.0003  0.2351  0.6808
   10ANI     H1  634   1.346  -0.006   2.941 -0.4193  1.0395 -0.1506
   10ANI     H2  635   1.399   0.140   3.027  1.3513  0.0791 -0.6493
   10ANI     H3  636   1.518   0.036   2.954 -0.4433 -0.9459 -0.7611
   10ANI     H4  637   1.424  -0.221   2.916 -0.5541  2.0127  0.5818
   10ANI     H5  638   1.523  -0.441   2.906 -1.4169 -2.2460  1.9467
   10ANI     H6  639   1.639  -0.528   3.109  1.6855  0.4805  0.0230
   10ANI     H7  640   1.640  -0.412   3.319  1.5746 -0.5148 -0.4362
   10ANI     H8  641   1.555  -0.181   3.330  1.0342  0.0513  0.6218
   11ANI     C1  642   3.234   0.210   1.540 -0.3271  0.3435  0.1402
   11ANI     O1  643   3.314   0.328   1.541  0.1998 -0.0780 -0.2534
   11ANI     C2  644   3.450   0.331   1.537 -0.2351  0.0176 -0.0598
   11ANI     C3  645   3.532   0.222   1.508 -0.0609 -0.6084 -0.2062
   11ANI     C4  646   3.669   0.236   1.518 -0.6459 -0.1446  0.2462
   11ANI     C5  647   3.729   0.357   1.555 -0.7262  0.5636  0.0076
   11ANI     C6  648   3.648   0.468   1.569  0.0655 -0.2272  0.2903
   11ANI     C7  649   3.500   0.455   1.573 -0.0210  0.2552 -0.1747
   11ANI     H1  650   3.276   0.148   1.620 -3.4482 -0.1051  1.5163
   11ANI     H2  651   3.130   0.231   1.566 -0.4251 -0.9972  0.8803
   11ANI     H3  652   3.233   0.150   1.448 -1.3694  1.9202 -0.8856
   11ANI     H4  653   3.488   0.128   1.478  0.0899  0.3398 -3.6540
   11ANI     H5  654   3.737   0.152   1.509  1.0491  1.1165  0.9640
   11ANI     H6  655   3.837   0.366   1.547 -0.6824 -0.6943 -1.0059
   11ANI     H7  656   3.691   0.567   1.587 -3.2562  1.4443 -0.5830
   11ANI     H8  657   3.428   0.533   1.593  0.8193  1.1087 -0.4383
   12ANI     C1  658   1.828   1.880   3.164 -0.3175  0.1746  0.5066
   12ANI     O1  659   1.785   1.751   3.216 -0.2413 -0.3850 -0.5385
   12ANI     C2  660   1.700   1.684   3.134  0.6272  0.6975  0.5682
   12ANI     C3  661   1.676   1.723   2.998 -0.5994 -0.0305  0.0380
   12ANI     C4  662   1.578   1.656   2.923  0.0861 -0.4686 -0.5294
   12ANI     C5  663   1.511   1.547   2.982 -0.3708 -0.2429  1.6534
   12ANI     C6  664   1.543   1.502   3.112  0.4377 -0.4076 -0.0438
   12ANI     C7  665   1.637   1.578   3.190 -0.0151  0.6066  0.4472
   12ANI     H1  666   1.886   1.933   3.241 -2.0110  0.1612  1.8237
   12ANI     H2  667   1.884   1.876   3.069 -0.6350  0.6685  0.2946
   12ANI     H3  668   1.738   1.940   3.146 -1.5278 -2.1825 -1.5727
   12ANI     H4  669   1.729   1.808   2.956  1.8180 -1.4363  0.1463
   12ANI     H5  670   1.564   1.676   2.818 -1.0309  3.0160  0.2184
   12ANI     H6  671   1.435   1.492   2.927  2.8410 -4.1467  0.8906
   12ANI     H7  672   1.492   1.411   3.142 -0.1366  0.1210  0.5890
   12ANI     H8  673   1.662   1.548   3.291 -1.6018  1.0137  0.9718
   13ANI     C1  674   2.611   2.128   0.341 -0.4789  0.1606 -0.6519
   13ANI     O1  675   2.679   2.100   0.469 -0.0617  0.0099 -0.0294
   13ANI     C2  676   2.663   2.175   0.575  0.0882 -0.0793 -0.0683
   13ANI     C3  677   2.628   2.310   0.560 -0.2279 -0.5714  0.2819
   13ANI     C4  678   2.598   2.393   0.669  0.0227 -0.4798  0.5844
   13ANI     C5  679   2.608   2.339   0.797  0.4243  0.9502 -0.2247
   13ANI     C6  680   2.640   2.201   0.809  0.2859  0.5594 -0.5658
   13ANI     C7  681   2.677   2.123   0.706 -0.1740 -0.2144  0.0649
   13ANI     H1  682   2.654   2.220   0.299  0.4998 -0.5113 -1.1282
   13ANI     H2  683   2.625   2.042   0.274  2.2926 -0.6579  0.9102
   13ANI     H3  684   2.508   2.153   0.369  0.1009  1.1192  0.6727
   13ANI     H4  685   2.602   2.357   0.465  4.1383  3.3505  0.8700
   13ANI     H5  686   2.558   2.491   0.646 -1.3436 -1.2916 -0.5868
   13ANI     H6  687   2.568   2.392   0.882  0.6682 -0.7975  1.0116
   13ANI     H7  688   2.636   2.153   0.906  0.8147 -1.4094 -1.4844
   13ANI     H8  689   2.722   2.027   0.727  1.4508  0.9420  2.0798
   14ANI     C1  690   0.725   2.627   1.521 -0.5902  0.2757  0.5612
   14ANI     O1  691   0.806   2.603   1.404  0.8708  0.7945 -0.1169
   14ANI     C2  692   0.915   2.528   1.392  0.0402 -0.1416 -0.6602
   14ANI     C3  693   0.974   2.459   1.505 -0.6663 -0.2746  0.3303
   14ANI     C4  694   1.099   2.392   1.490  0.5267 -0.3633 -0.0073
   14ANI     C5  695   1.158   2.383   1.362  1.1927  0.0466  0.4200
   14ANI     C6  696   1.092   2.436   1.253  0.1357 -0.8271 -0.1232
   14ANI     C7  697   0.970   2.511   1.263 -1.1263  0.8113 -0.1822
   14ANI     H1  698   0.791   2.671   1.597 -1.6824  0.2595  1.5367
   14ANI     H2  699   0.644   2.697   1.498 -0.6261  0.6084  1.6910
   14ANI     H3  700   0.690   2.537   1.572  0.0965  0.4048  1.2741
   14ANI     H4  701   0.930   2.467   1.604 -0.2960 -0.9455  0.5507
   14ANI     H5  702   1.149   2.339   1.570 -0.0288 -0.4762  0.2708
   14ANI     H6  703   1.256   2.339   1.351  1.5556  1.3224 -1.6616
   14ANI     H7  704   1.118   2.424   1.148 -1.2123 -0.9755 -0.4488
   14ANI     H8  705   0.923   2.553   1.174 -2.3164 -0.3430 -0.1127
   15ANI     C1  706   2.471   2.857   0.116  0.1624 -0.3863  0.0489
   15ANI     O1  707   2.585   2.774   0.149  0.3185 -0.0435 -0.5606
   15ANI     C2  708   2.635   2.759   0.276  1.4342 -0.3848 -0.5667
   15ANI     C3  709   2.752   2.691   0.290 -0.1939  0.8748  0.0286
   15ANI     C4  710   2.805   2.680   0.415 -0.1844 -0.0761  0.3718
   15ANI     C5  711   2.734   2.720   0.528  0.0435 -0.8202  0.1681
   15ANI     C6  712   2.614   2.796   0.513 -0.5558  0.6097 -0.2066
   15ANI     C7  713   2.568   2.813   0.382  0.5176  0.3301  0.5807
   15ANI     H1  714   2.381   2.814   0.161  1.0862 -0.3560  1.9788
   15ANI     H2  715   2.485   2.959   0.154 -2.6207 -0.7103  2.0863
   15ANI     H3  716   2.448   2.861   0.009  1.3931 -0.3989 -0.2288
   15ANI     H4  717   2.808   2.664   0.201 -1.0098  1.6130 -0.7169
   15ANI     H5  718   2.904   2.640   0.437 -0.0566 -1.0317 -1.8355
   15ANI     H6  719   2.776   2.707   0.627 -1.1336  0.6250  0.8722
   15ANI     H7  720   2.563   2.830   0.602 -1.8968 -1.7467 -0.0296
   15ANI     H8  721   2.479   2.871   0.360  0.5660  0.5480  0.9509
   16ANI     C1  722   0.171   0.502   0.505  0.3806 -0.3960  0.1204
   16ANI     O1  723   0.259   0.486   0.617 -0.1320 -0.6892 -0.0394
   16ANI     C2  724   0.395   0.442   0.609 -0.3585  0.3854  0.5869
   16ANI     C3  725   0.452   0.394   0.494 -0.5149 -0.2573  0.4828
   16ANI     C4  726   0.590   0.368   0.483 -0.0181  0.2981  0.3479
   16ANI     C5  727   0.665   0.374   0.602  0.0401 -0.8503 -0.5591
   16ANI     C6  728   0.608   0.416   0.722 -0.0158  0.5158  0.4301
   16ANI     C7  729   0.469   0.441   0.727 -0.2238  0.4418 -0.6015
   16ANI     H1  730   0.119   0.409   0.481 -3.1110  1.6097 -0.4710
   16ANI     H2  731   0.097   0.578   0.532  1.0133  0.2642  0.0135
   16ANI     H3  732   0.221   0.540   0.414 -2.0638  0.8269 -0.7531
   16ANI     H4  733   0.391   0.390   0.404 -1.2333  0.5607  0.9189
   16ANI     H5  734   0.631   0.331   0.390  1.3168 -0.4633  1.2266
   16ANI     H6  735   0.773   0.361   0.591  0.2202 -0.5036  0.7233
   16ANI     H7  736   0.669   0.442   0.808  1.4524  1.3371 -0.8344
   16ANI     H8  737   0.426   0.469   0.823 -0.3695 -0.6731 -0.3317
   17ANI     C1  738   1.960   3.093   3.610  0.6559  0.0898 -0.6290
   17ANI     O1  739   1.998   2.965   3.652 -0.1376  0.2641 -0.0188
   17ANI     C2  740   2.035   2.932   3.780  1.1257 -0.8872  0.7005
   17ANI     C3  741   2.035   3.030   3.887  0.3810  0.2200  0.1538
   17ANI     C4  742   2.070   2.990   4.018  0.2737 -0.2405 -0.0434
   17ANI     C5  743   2.105   2.862   4.040 -0.1701  0.1851  0.4620
   17ANI     C6  744   2.117   2.771   3.934  0.1567  0.1876 -0.3002
   17ANI     C7  745   2.083   2.809   3.806 -0.0902 -0.1257 -0.2036
   17ANI     H1  746   2.037   3.164   3.643  1.3979 -0.6535 -0.7320
   17ANI     H2  747   1.969   3.088   3.501  2.0387 -0.2682 -0.5104
   17ANI     H3  748   1.860   3.127   3.640  0.5935  1.1953 -2.0693
   17ANI     H4  749   1.995   3.129   3.870  1.7565  0.7447 -0.1218
   17ANI     H5  750   2.059   3.065   4.095 -0.1735 -1.4455  1.0886
   17ANI     H6  751   2.133   2.834   4.141  1.0851  1.8408  0.5888
   17ANI     H7  752   2.145   2.670   3.965 -1.8640 -0.2020  0.3182
   17ANI     H8  753   2.090   2.733   3.729 -3.5270 -0.5912 -0.1212
   18ANI     C1  754   1.703   2.959   2.654  0.0971  0.0980  0.1830
   18ANI     O1  755   1.614   2.846   2.629  0.2824 -0.6396  0.3541
   18ANI     C2  756   1.577   2.800   2.502  0.5317  0.4862  0.0063
   18ANI     C3  757   1.647   2.839   2.385  0.1719 -0.4612  0.5653
   18ANI     C4  758   1.594   2.796   2.255  0.2090 -0.1216 -0.1776
   18ANI     C5  759   1.470   2.728   2.255  0.1803  0.3399 -0.1204
   18ANI     C6  760   1.407   2.687   2.370 -0.5146  1.0850  0.7078
   18ANI     C7  761   1.461   2.724   2.497  0.2263 -0.4296 -0.3082
   18ANI     H1  762   1.796   2.954   2.596  0.0416  0.7329  0.0392
   18ANI     H2  763   1.651   3.048   2.618  2.0671  1.4351  0.5231
   18ANI     H3  764   1.721   2.952   2.762 -0.9953 -0.7390  0.3185
   18ANI     H4  765   1.748   2.878   2.387 -0.5161  1.3828  1.0119
   18ANI     H5  766   1.647   2.808   2.162  1.3922 -1.4598  0.3119
   18ANI     H6  767   1.430   2.694   2.160  0.9264  0.8826 -0.6398
   18ANI     H7  768   1.313   2.632   2.372 -0.1335  0.3443 -0.9556
   18ANI     H8  769   1.421   2.693   2.592 -1.2965  2.3991  0.0370
   19ANI     C1  770   2.414   0.200   3.582 -0.1563 -0.7682 -0.0319
   19ANI     O1  771   2.305   0.114   3.606  0.1565 -0.1115 -0.0492
   19ANI     C2  772   2.214   0.132   3.712 -0.4990 -0.1662  0.5625
   19ANI     C3  773   2.240   0.226   3.816  0.2924 -0.4879  1.0637
   19ANI     C4  774   2.155   0.223   3.930  0.6025  0.3760  0.0555
   19ANI     C5  775   2.044   0.146   3.936  0.4755 -0.2278 -0.4072
   19ANI     C6  776   2.014   0.062   3.822  0.2656 -0.8860 -0.2593
   19ANI     C7  777   2.098   0.056   3.718  0.0113  0.8694  0.5416
   19ANI     H1  778   2.457   0.160   3.490 -0.9701 -1.6753 -0.0173
   19ANI     H2  779   2.374   0.300   3.562 -0.0504 -0.7194 -0.0058
   19ANI     H3  780   2.479   0.209   3.671 -2.0256 -2.0540  1.5005
   19ANI     H4  781   2.327   0.290   3.821  1.1105 -1.6469  2.1665
   19ANI     H5  782   2.180   0.280   4.019  0.4751  0.9899 -0.3034
   19ANI     H6  783   1.967   0.149   4.012  0.0367  0.8921 -0.8742
   19ANI     H7  784   1.918   0.013   3.827  0.2841 -0.7759  1.4736
   19ANI     H8  785   2.066   0.002   3.629 -1.2616  0.6998  1.0911
   20ANI     C1  786   1.368   0.643   3.430 -0.0172 -0.4790 -0.6979
   20ANI     O1  787   1.325   0.737   3.529 -0.0308  0.5588 -0.5718
   20ANI     C2  788   1.191   0.783   3.535 -0.0169 -0.4394 -0.0004
   20ANI     C3  789   1.088   0.716   3.460 -0.0436 -0.4010  0.5582
   20ANI     C4  790   0.958   0.761   3.467 -0.2678  0.5096  0.2339
   20ANI     C5  791   0.928   0.881   3.540 -0.6200  0.4881  0.9229
   20ANI     C6  792   1.027   0.954   3.598  0.3266  0.0748  0.0778
   20ANI     C7  793   1.156   0.904   3.606 -0.2725  0.6626  0.1840
   20ANI     H1  794   1.325   0.542   3.437  0.7160 -0.6923  1.0288
   20ANI     H2  795   1.327   0.674   3.333  0.4209 -0.3086 -0.8263
   20ANI     H3  796   1.477   0.636   3.432  0.0371  0.4925  1.6593
   20ANI     H4  797   1.110   0.618   3.418  0.8608  0.3264 -0.6911
   20ANI     H5  798   0.881   0.707   3.413 -0.9555  2.3610 -0.6950
   20ANI     H6  799   0.824   0.912   3.530 -0.5684  0.2332 -0.5687
   20ANI     H7  800   0.999   1.047   3.645  0.5287  1.6624 -2.8466
   20ANI     H8  801   1.238   0.965   3.643  0.7188 -0.0487 -0.7748
   21ANI     C1  802   0.349   2.933   1.400 -0.0031 -0.3090 -0.5515
   21ANI     O1  803   0.349   3.051   1.486 -0.2027 -0.3934  0.1462
   21ANI     C2  804   0.466   3.124   1.512 -0.0827  0.1189  0.1367
   21ANI     C3  805   0.592   3.061   1.508 -0.3942  0.4069 -0.1061
   21ANI     C4  806   0.709   3.132   1.541  0.6052 -0.2738  0.3409
   21ANI     C5  807   0.702   3.274   1.559 -0.9191 -0.2406 -0.3044
   21ANI     C6  808   0.578   3.336   1.563  0.4882  0.3105 -0.2103
   21ANI     C7  809   0.457   3.262   1.546  0.5185  0.1882 -0.2037
   21ANI     H1  810   0.374   2.965   1.298  1.2082  1.0336  0.1483
   21ANI     H2  811   0.424   2.859   1.432  0.7164  0.7506  0.2319
   21ANI     H3  812   0.254   2.878   1.392  1.5143 -2.8165 -2.1446
   21ANI     H4  813   0.605   2.955   1.487 -1.0482  0.5462 -1.2678
   21ANI     H5  814   0.807   3.088   1.529  0.5216  0.1662 -2.2824
   21ANI     H6  815   0.794   3.331   1.561 -0.6679 -0.5714 -1.7695
   21ANI     H7  816   0.571   3.442   1.588 -1.3611  0.0520  0.4389
   21ANI     H8  817   0.357   3.303   1.537 -0.0390 -1.2873 -0.9762
   22ANI     C1  818   0.799   1.643   2.563 -0.8970  0.2283  0.3559
   22ANI     O1  819   0.797   1.551   2.664 -0.0839  0.3182  0.1543
   22ANI     C2  820   0.692   1.533   2.749 -0.3016 -0.0414 -0.0089
   22ANI     C3  821   0.718   1.441   2.852  0.0639  0.1000 -0.4382
   22ANI     C4  822   0.614   1.416   2.943  0.3330 -0.2037  0.6241
   22ANI     C5  823   0.492   1.492   2.932  0.0025 -0.2499  0.3929
   22ANI     C6  824   0.472   1.585   2.827 -0.4289  0.4499  0.0534
   22ANI     C7  825   0.566   1.598   2.728 -0.3162  0.2748 -0.1651
   22ANI     H1  826   0.706   1.647   2.505  0.2033 -1.1509 -1.5894
   22ANI     H2  827   0.819   1.746   2.592  3.6081 -0.4785  0.1236
   22ANI     H3  828   0.887   1.622   2.500 -0.1290  0.9813  1.1715
   22ANI     H4  829   0.812   1.388   2.860  1.1057  1.6320 -2.0020
   22ANI     H5  830   0.631   1.343   3.022  0.6632  1.2954  1.9832
   22ANI     H6  831   0.418   1.473   3.010  0.4110 -0.0101  0.8432
   22ANI     H7  832   0.374   1.630   2.813 -0.7377 -0.4290 -0.5869
   22ANI     H8  833   0.554   1.665   2.643  2.7912 -0.4763 -1.2660
   23ANI     C1  834   1.436   2.193   0.873  0.1805  0.3611 -0.0819
   23ANI     O1  835   1.546   2.203   0.782  0.1436  0.4517 -0.2723
   23ANI     C2  836   1.635   2.100   0.759  0.1149 -0.6435 -0.4416
   23ANI     C3  837   1.746   2.124   0.676  0.0416 -0.0320  0.1761
   23ANI     C4  838   1.825   2.018   0.630  0.0769 -0.3551  0.6060
   23ANI     C5  839   1.794   1.889   0.672  0.5514  0.7489  0.0988
   23ANI     C6  840   1.689   1.866   0.771 -0.5705 -0.1271  1.5222
   23ANI     C7  841   1.609   1.975   0.814  0.1324  0.0035  0.2870
   23ANI     H1  842   1.372   2.109   0.842  0.5845 -0.5708  1.5427
   23ANI     H2  843   1.467   2.172   0.976 -1.2877 -0.0208  0.3003
   23ANI     H3  844   1.377   2.286   0.873  0.6732  0.6948  1.6452
   23ANI     H4  845   1.763   2.225   0.638  0.0769  0.0463  0.4005
   23ANI     H5  846   1.911   2.022   0.565  0.9019 -1.3861  1.6112
   23ANI     H6  847   1.852   1.803   0.640  0.5609  0.9737 -0.5019
   23ANI     H7  848   1.678   1.766   0.811 -2.1243 -1.8596 -3.0034
   23ANI     H8  849   1.531   1.954   0.887  0.2332  2.0174  1.0056
   24ANI     C1  850   2.210   0.213   2.249  0.2408 -0.2526  0.2172
   24ANI     O1  851   2.121   0.101   2.270  0.3365 -0.4224 -0.0840
   24ANI     C2  852   2.160  -0.028   2.243 -0.3208 -0.2167 -0.3905
   24ANI     C3  853   2.294  -0.075   2.228 -0.7209 -0.1143 -0.3386
   24ANI     C4  854   2.317  -0.211   2.208 -0.1655  0.0736 -0.4276
   24ANI     C5  855   2.208  -0.298   2.203  0.4321  0.3631  0.7634
   24ANI     C6  856   2.074  -0.260   2.222  0.2364 -0.0793 -0.1377
   24ANI     C7  857   2.059  -0.124   2.247 -0.1200  0.1274 -0.0598
   24ANI     H1  858   2.228   0.234   2.143  0.3638  0.1869  0.3228
   24ANI     H2  859   2.171   0.305   2.296  1.6617  1.4052 -1.7707
   24ANI     H3  860   2.310   0.193   2.290 -0.2988  1.6955  2.6355
   24ANI     H4  861   2.382  -0.014   2.241  0.1876 -1.8838  2.1145
   24ANI     H5  862   2.415  -0.254   2.188 -1.9426 -3.1359 -2.5848
   24ANI     H6  863   2.238  -0.401   2.187  3.1621  1.0974  0.8456
   24ANI     H7  864   1.995  -0.333   2.210 -0.4558  0.4827  1.0292
   24ANI     H8  865   1.959  -0.086   2.263 -0.0296 -0.0560  0.9819
   25ANI     C1  866   1.596   2.764   0.200  0.1424 -0.1404  0.0081
   25ANI     O1  867   1.471   2.764   0.130 -0.1104 -0.3130 -0.4218
   25ANI     C2  868   1.372   2.856   0.149  0.0053  0.1133  0.2929
   25ANI     C3  869   1.261   2.855   0.062  0.2357  0.4615 -0.1041
   25ANI     C4  870   1.161   2.956   0.072 -0.2181 -0.7447 -0.1861
   25ANI     C5  871   1.184   3.061   0.172  0.1919  0.3927 -0.1222
   25ANI     C6  872   1.295   3.059   0.256  0.3874 -0.0334 -0.1240
   25ANI     C7  873   1.387   2.951   0.255 -0.0102 -0.3298  0.0305
   25ANI     H1  874   1.661   2.846   0.169  1.5901 -1.5909 -0.8364
   25ANI     H2  875   1.579   2.750   0.308 -0.3511 -2.0368 -0.2999
   25ANI     H3  876   1.655   2.677   0.168 -1.9253 -2.1107  1.3343
   25ANI     H4  877   1.263   2.785  -0.021 -0.4395 -1.0957  1.1597
   25ANI     H5  878   1.076   2.963   0.004 -1.0277 -2.0958  0.6536
   25ANI     H6  879   1.122   3.149   0.181  1.7197  1.3147  1.8933
   25ANI     H7  880   1.296   3.121   0.345  0.4923  0.0340 -0.1727
   25ANI     H8  881   1.471   2.950   0.323 -1.2984 -0.2014  1.6683
   26ANI     C1  882   0.154   0.311   0.126 -0.6323 -0.6493 -0.0195
   26ANI     O1  883   0.053   0.400   0.174  0.1172  1.0262 -0.2244
   26ANI     C2  884  -0.030   0.369   0.277 -0.2795  0.4732  0.0061
   26ANI     C3  885  -0.017   0.243   0.346  0.6593 -0.1962 -0.2491
   26ANI     C4  886  -0.101   0.210   0.454  0.4369 -0.1017  0.1787
   26ANI     C5  887  -0.207   0.296   0.488  0.4353 -0.0590 -0.4367
   26ANI     C6  888  -0.217   0.420   0.423  0.2452 -1.0948  0.0387
   26ANI     C7  889  -0.124   0.460   0.318 -0.2163  0.0076 -0.2973
   26ANI     H1  890   0.206   0.339   0.034  1.4607  0.7411  1.5426
   26ANI     H2  891   0.233   0.294   0.200  0.8644 -0.8502 -1.6382
   26ANI     H3  892   0.104   0.215   0.106 -1.5968 -0.9679  3.5845
   26ANI     H4  893   0.052   0.167   0.311 -0.1374 -1.5762  1.0684
   26ANI     H5  894  -0.086   0.116   0.506  3.3145 -0.2550 -0.8505
   26ANI     H6  895  -0.278   0.272   0.566 -0.8836  1.7066 -1.0634
   26ANI     H7  896  -0.293   0.488   0.462  1.9040  1.0931 -0.4130
   26ANI     H8  897  -0.135   0.558   0.273 -2.5466 -0.3235 -0.4713
   27ANI     C1  898   0.369   3.253   0.136 -0.5159  0.1742 -0.1818
   27ANI     O1  899   0.268   3.304   0.041 -0.0939 -0.3803 -1.1838
   27ANI     C2  900   0.134   3.328   0.079  0.1088 -0.3010 -0.4404
   27ANI     C3  901   0.036   3.343  -0.016  0.5796  0.0948  0.8113
   27ANI     C4  902  -0.099   3.365   0.026  0.2967  0.0263 -0.6830
   27ANI     C5  903  -0.133   3.367   0.165  0.2362 -0.3789  0.0801
   27ANI     C6  904  -0.030   3.354   0.257  0.0373 -0.6434  0.6919
   27ANI     C7  905   0.103   3.331   0.217 -0.1570 -0.3101 -0.1245
   27ANI     H1  906   0.464   3.235   0.085  0.0296  0.5204  0.7016
   27ANI     H2  907   0.386   3.314   0.226 -0.3862  0.0450 -0.1197
   27ANI     H3  908   0.339   3.161   0.187 -0.3099 -1.1137 -2.3524
   27ANI     H4  909   0.049   3.325  -0.122  1.1115  0.1454  0.8639
   27ANI     H5  910  -0.174   3.361  -0.053 -1.4536  1.2692  0.8858
   27ANI     H6  911  -0.238   3.378   0.189  0.1071  0.4832 -0.8538
   27ANI     H7  912  -0.049   3.361   0.364  1.8507  1.6605  0.8954
   27ANI     H8  913   0.173   3.326   0.300 -3.1998  3.2929  2.8484
   28ANI     C1  914   3.267   2.436   1.128 -0.7396  0.1923  0.3490
   28ANI     O1  915   3.164   2.531   1.148 -0.0086  0.5225  0.4128
   28ANI     C2  916   3.061   2.559   1.063 -0.7576  0.5169  0.7655
   28ANI     C3  917   2.984   2.673   1.093  0.4563 -0.4315  0.3954
   28ANI     C4  918   2.873   2.706   1.012  0.4742  0.4815  0.2303
   28ANI     C5  919   2.841   2.624   0.899  0.4576 -0.2156 -0.3764
   28ANI     C6  920   2.918   2.511   0.868  0.0809 -0.4631 -0.4715
   28ANI     C7  921   3.027   2.476   0.950 -0.0596  0.6256  0.1957
   28ANI     H1  922   3.219   2.339   1.108  2.6919 -1.8247  1.5493
   28ANI     H2  923   3.327   2.455   1.038 -1.5421 -0.0316 -0.2395
   28ANI     H3  924   3.325   2.422   1.220 -0.8964  0.5512  0.5049
   28ANI     H4  925   3.007   2.735   1.180 -0.2858 -0.2930  0.5013
   28ANI     H5  926   2.809   2.789   1.038 -1.1945 -0.7336  0.1099
   28ANI     H6  927   2.761   2.662   0.835  2.3425  1.5610 -1.7543
   28ANI     H7  928   2.886   2.447   0.787 -1.0834  0.5333 -0.8181
   28ANI     H8  929   3.085   2.393   0.910 -1.6348 -0.5175  0.2850
   29ANI     C1  930   1.502   0.729   0.106  0.2843  0.0156  0.4948
   29ANI     O1  931   1.561   0.808   0.207  0.2998  0.0496  0.3678
   29ANI     C2  932   1.483   0.853   0.305 -0.1146  0.5488 -0.8617
   29ANI     C3  933   1.520   0.959   0.395  0.0102  0.6902 -0.0108
   29ANI     C4  934   1.443   0.998   0.507  0.1897 -0.2494 -0.4015
   29ANI     C5  935   1.312   0.958   0.509 -0.8924  0.6632  0.3175
   29ANI     C6  936   1.263   0.869   0.413  0.7954 -0.1108  0.6744
   29ANI     C7  937   1.350   0.809   0.319 -0.0660 -0.0756  0.3148
   29ANI     H1  938   1.573   0.715   0.023 -0.2290 -0.6088  0.1572
   29ANI     H2  939   1.476   0.629   0.143  1.4140 -0.0840  1.0527
   29ANI     H3  940   1.408   0.775   0.073  0.7049  0.6648  0.1973
   29ANI     H4  941   1.620   1.000   0.382  0.8776 -1.3291  0.0036
   29ANI     H5  942   1.494   1.064   0.575  0.1909 -1.1878  0.5210
   29ANI     H6  943   1.241   0.995   0.582 -2.8927  1.1912 -1.8399
   29ANI     H7  944   1.157   0.848   0.415  0.6944  0.3229 -0.0751
   29ANI     H8  945   1.301   0.736   0.256  1.6537 -1.0675  0.0997
   30ANI     C1  946   3.308   2.165   3.750  0.0873  0.4250  0.3833
   30ANI     O1  947   3.419   2.090   3.815  0.1193  0.4212 -0.1431
   30ANI     C2  948   3.518   2.037   3.747 -0.3343  0.2288  0.3216
   30ANI     C3  949   3.587   1.934   3.809 -0.6163 -0.2480 -0.1582
   30ANI     C4  950   3.701   1.880   3.741 -0.0794 -0.8275  0.3634
   30ANI     C5  951   3.728   1.924   3.609 -0.6620 -0.9557 -1.2007
   30ANI     C6  952   3.652   2.027   3.552  0.1387 -0.5537  0.0546
   30ANI     C7  953   3.544   2.085   3.617 -0.3449 -0.4123 -0.1094
   30ANI     H1  954   3.341   2.258   3.703  3.4912 -1.6645 -1.5234
   30ANI     H2  955   3.275   2.108   3.663 -0.6518  2.5322 -0.7490
   30ANI     H3  956   3.224   2.186   3.818  0.3380  3.0198 -0.0413
   30ANI     H4  957   3.565   1.912   3.913 -0.7118 -1.2604 -0.3865
   30ANI     H5  958   3.766   1.802   3.780  1.6882  1.0536  1.2781
   30ANI     H6  959   3.805   1.873   3.553  1.4194  1.4473 -0.6558
   30ANI     H7  960   3.683   2.064   3.455  1.8970 -0.3131  0.6795
   30ANI     H8  961   3.488   2.162   3.565 -0.5082  1.5945  2.9158
   31ANI     C1  962   2.609   0.357   0.995 -0.3699  0.1404  0.0744
   31ANI     O1  963   2.577   0.249   0.899 -0.4492 -0.5845 -0.2881
   31ANI     C2  964   2.459   0.238   0.834  0.3287 -0.0448  0.3374
   31ANI     C3  965   2.435   0.135   0.738 -0.3444  0.0768 -0.0041
   31ANI     C4  966   2.314   0.127   0.670  0.7505  0.3502 -0.4105
   31ANI     C5  967   2.207   0.217   0.705 -0.0953  0.3226  1.1725
   31ANI     C6  968   2.228   0.311   0.808  0.0533 -0.7540  0.0155
   31ANI     C7  969   2.356   0.328   0.870  0.5011 -0.3223 -0.6157
   31ANI     H1  970   2.713   0.364   1.027 -1.0157 -1.5432  2.6910
   31ANI     H2  971   2.587   0.458   0.957  0.0522  0.4033  0.5252
   31ANI     H3  972   2.551   0.341   1.087  0.9404 -0.3969  0.8054
   31ANI     H4  973   2.518   0.071   0.708 -1.9519 -1.4908 -1.2805
   31ANI     H5  974   2.302   0.054   0.591 -0.7277 -0.5516  0.6283
   31ANI     H6  975   2.108   0.216   0.660  0.7244 -0.5532 -0.6460
   31ANI     H7  976   2.143   0.372   0.837  1.2772  0.8309  0.3218
   31ANI     H8  977   2.381   0.406   0.941  1.3910 -1.4806  0.3778
   32ANI     C1  978   0.158   2.399   0.022 -0.5372  0.5224  0.4075
   32ANI     O1  979   0.067   2.507   0.005 -0.0834 -0.3682  0.1504
   32ANI     C2  980   0.020   2.539  -0.121  0.1052 -0.3483 -0.3379
   32ANI     C3  981  -0.098   2.610  -0.120 -0.3575 -0.7102 -0.0276
   32ANI     C4  982  -0.152   2.655  -0.241  0.4365  0.0199 -0.2476
   32ANI     C5  983  -0.096   2.619  -0.365 -0.9728  0.8197 -0.2009
   32ANI     C6  984   0.010   2.529  -0.361  0.1831 -1.0563  0.4304
   32ANI     C7  985   0.071   2.494  -0.244 -0.2380 -0.0862 -0.5406
   32ANI     H1  986   0.117   2.299   0.003 -0.9119  0.9172 -0.9634
   32ANI     H2  987   0.243   2.408  -0.048  0.8181 -2.0355  1.6506
   32ANI     H3  988   0.197   2.392   0.124  2.4899  0.6115 -0.7029
   32ANI     H4  989  -0.146   2.648  -0.030 -1.0676 -1.3395 -0.1321
   32ANI     H5  990  -0.247   2.705  -0.229 -0.3421 -2.0037  2.5882
   32ANI     H6  991  -0.123   2.652  -0.465  1.6646  0.0436 -1.2136
   32ANI     H7  992   0.056   2.492  -0.451  0.3592  1.0372 -0.3738
   32ANI     H8  993   0.159   2.430  -0.250 -0.1179  0.1529 -1.3939
   33ANI     C1  994   2.758   3.294   2.814 -0.2629 -0.6032 -0.5689
   33ANI     O1  995   2.641   3.254   2.876  0.1426  0.6889 -0.0212
   33ANI     C2  996   2.639   3.130   2.948 -0.9136 -0.3467  0.0941
   33ANI     C3  997   2.750   3.038   2.937 -0.8883  0.8389  0.6208
   33ANI     C4  998   2.751   2.927   3.027 -0.6665  0.9679 -0.2886
   33ANI     C5  999   2.647   2.906   3.114 -0.6191  0.5592 -0.3289
   33ANI     C6 1000   2.542   2.994   3.127 -0.2142  0.1433  0.2366
   33ANI     C7 1001   2.536   3.107   3.041  0.2144 -0.0546  0.0921
   33ANI     H1 1002   2.743   3.385   2.755  0.3947  0.8357  1.4266
   33ANI     H2 1003   2.833   3.317   2.890 -0.7575 -2.2637  0.4532
   33ANI     H3 1004   2.808   3.225   2.745  2.9660 -1.2993  2.3291
   33ANI     H4 1005   2.836   3.056   2.873 -0.8347 -3.1832 -0.6126
   33ANI     H5 1006   2.832   2.856   3.033 -1.3751  0.2328  0.7904
   33ANI     H6 1007   2.648   2.826   3.188 -0.5025 -0.2166 -1.1542
   33ANI     H7 1008   2.471   2.984   3.209 -0.4567  0.2707  0.0435
   33ANI     H8 1009   2.458   3.181   3.054  0.4289 -0.3382  3.4961
   34ANI     C1 1010   0.677   1.762   3.554 -0.2342 -0.8485 -0.5197
   34ANI     O1 1011   0.560   1.682   3.586 -0.0681 -0.2256  0.8500
   34ANI     C2 1012   0.524   1.582   3.503  0.6912  0.3161 -0.2572
   34ANI     C3 1013   0.405   1.514   3.530 -0.2171 -0.1584  0.7855
   34ANI     C4 1014   0.360   1.409   3.443  0.7229  0.4981 -0.4008
   34ANI     C5 1015   0.424   1.383   3.332 -0.8971 -0.7496 -0.1714
   34ANI     C6 1016   0.541   1.457   3.301  0.1712 -0.2575 -0.0712
   34ANI     C7 1017   0.590   1.554   3.379 -0.0652  0.5526  0.3665
   34ANI     H1 1018   0.651   1.818   3.463 -0.9475  0.6408  0.5719
   34ANI     H2 1019   0.711   1.832   3.632  0.6108 -0.4085 -1.2819
   34ANI     H3 1020   0.762   1.700   3.524  0.3150  0.0346 -0.8093
   34ANI     H4 1021   0.347   1.545   3.616  0.4172 -2.0068  1.9012
   34ANI     H5 1022   0.267   1.366   3.478  0.5189  0.9248 -0.4137
   34ANI     H6 1023   0.398   1.304   3.262 -1.5432 -1.0152  0.3696
   34ANI     H7 1024   0.594   1.434   3.209  0.1973  1.3710 -0.4732
   34ANI     H8 1025   0.671   1.612   3.337  0.2261 -0.3835 -0.3876
   35ANI     C1 1026   2.689   0.895   0.144 -0.1925 -0.2993 -0.4868
   35ANI     O1 1027   2.662   0.997   0.050  0.9258 -0.0054 -0.0807
   35ANI     C2 1028   2.736   1.019  -0.068 -0.0155  0.1138 -0.5622
   35ANI     C3 1029   2.840   0.939  -0.108  0.0820  0.1948  0.6769
   35ANI     C4 1030   2.914   0.958  -0.228  0.2975 -0.3991 -0.0195
   35ANI     C5 1031   2.875   1.072  -0.301 -0.1603  0.3602  0.3307
   35ANI     C6 1032   2.766   1.153  -0.265 -0.2205 -0.3069 -0.0051
   35ANI     C7 1033   2.697   1.127  -0.146 -0.7623  0.0223  0.1989
   35ANI     H1 1034   2.620   0.907   0.229 -1.1540  1.5870 -1.5162
   35ANI     H2 1035   2.666   0.798   0.099 -1.0793 -0.0374 -0.5968
   35ANI     H3 1036   2.790   0.894   0.187  0.3435 -1.1215 -1.7393
   35ANI     H4 1037   2.881   0.875  -0.031  0.3467  0.4779  0.7738
   35ANI     H5 1038   3.004   0.907  -0.259  0.5939  0.3994 -0.4915
   35ANI     H6 1039   2.926   1.094  -0.394  2.5650  1.6496  2.1014
   35ANI     H7 1040   2.733   1.230  -0.334 -0.6613  0.0847  0.6467
   35ANI     H8 1041   2.619   1.193  -0.110  0.5424  2.2372 -0.9190
   36ANI     C1 1042   0.231   0.445   2.488  0.5034 -0.3225  0.3562
   36ANI     O1 1043   0.296   0.331   2.540  0.2554  0.1994 -0.0785
   36ANI     C2 1044   0.431   0.339   2.568  0.1812 -0.1338 -0.1816
   36ANI     C3 1045   0.493   0.220   2.622 -0.7409 -0.2046 -0.3211
   36ANI     C4 1046   0.631   0.224   2.638 -0.0805 -0.0083  0.1850
   36ANI     C5 1047   0.713   0.332   2.628  0.9105 -0.5221 -0.4736
   36ANI     C6 1048   0.653   0.449   2.585  0.2678 -0.6578 -0.2442
   36ANI     C7 1049   0.510   0.455   2.552 -0.0767 -0.1461 -0.0980
   36ANI     H1 1050   0.292   0.472   2.401 -0.3280  0.5491  0.0370
   36ANI     H2 1051   0.134   0.411   2.450 -0.4647  1.8985  0.7970
   36ANI     H3 1052   0.216   0.522   2.564 -0.0337  0.0104 -0.0841
   36ANI     H4 1053   0.439   0.132   2.655  1.5079 -1.5978 -0.2846
   36ANI     H5 1054   0.671   0.139   2.693  0.1448  1.0816  1.7380
   36ANI     H6 1055   0.818   0.321   2.654  1.4224  0.9660 -1.8180
   36ANI     H7 1056   0.711   0.540   2.581 -0.8667  0.1381  0.9193
   36ANI     H8 1057   0.467   0.549   2.522  1.8149  1.1920  1.2248
   37ANI     C1 1058   2.039   0.651   2.244  0.0217 -0.8144  0.2696
   37ANI     O1 1059   2.161   0.561   2.236 -0.0426  0.3184 -0.4115
   37ANI     C2 1060   2.282   0.609   2.244 -0.1017 -0.2908 -1.0046
   37ANI     C3 1061   2.394   0.521   2.249  0.1074 -0.2091  0.7964
   37ANI     C4 1062   2.525   0.565   2.259  0.3113 -0.7177 -0.1220
   37ANI     C5 1063   2.546   0.706   2.255 -0.1174  0.1214  0.8009
   37ANI     C6 1064   2.437   0.794   2.237  0.0139  0.2874  0.1084
   37ANI     C7 1065   2.307   0.746   2.238  0.5236  0.3409  0.0658
   37ANI     H1 1066   1.952   0.584   2.236 -1.2365  0.5480  2.3233
   37ANI     H2 1067   2.040   0.711   2.336 -0.9106  2.8671 -2.0125
   37ANI     H3 1068   2.041   0.723   2.161 -2.9074 -0.6072  0.3161
   37ANI     H4 1069   2.370   0.415   2.251 -0.1018 -0.2870 -2.6653
   37ANI     H5 1070   2.610   0.500   2.244  1.9297  1.4565 -0.5817
   37ANI     H6 1071   2.647   0.746   2.263 -0.0124 -0.2935  1.6159
   37ANI     H7 1072   2.452   0.902   2.232 -0.6590  0.3868  0.1284
   37ANI     H8 1073   2.219   0.809   2.243  1.9573  2.4830 -1.0371
   38ANI     C1 1074   0.193   2.812   0.083 -0.4754 -0.2001  0.1895
   38ANI     O1 1075   0.251   2.887   0.189 -0.2626 -0.1872 -0.1616
   38ANI     C2 1076   0.217   2.854   0.317 -0.2323 -0.3470 -0.1857
   38ANI     C3 1077   0.210   2.953   0.415 -0.8359  0.1497  0.0913
   38ANI     C4 1078   0.159   2.930   0.542 -0.0446 -0.7365 -0.4601
   38ANI     C5 1079   0.119   2.801   0.581  0.7316  0.9933  0.2430
   38ANI     C6 1080   0.144   2.698   0.487 -0.2123  0.5284 -0.3227
   38ANI     C7 1081   0.178   2.724   0.352  0.0219  0.2735  0.3976
   38ANI     H1 1082   0.216   2.705   0.090 -2.5626 -0.5304  2.9906
   38ANI     H2 1083   0.084   2.826   0.096 -0.3890 -0.1203  0.8377
   38ANI     H3 1084   0.223   2.850  -0.015  1.8310 -0.1115  0.8983
   38ANI     H4 1085   0.233   3.051   0.373 -0.7325  0.8300  1.7078
   38ANI     H5 1086   0.146   3.010   0.614 -1.9111 -2.2102  0.9223
   38ANI     H6 1087   0.096   2.780   0.685  2.6693 -0.0016  0.4939
   38ANI     H7 1088   0.135   2.596   0.524  1.1858  0.1244 -1.0646
   38ANI     H8 1089   0.189   2.638   0.286  0.9459  0.4799  0.2825
   39ANI     C1 1090   0.915   2.755   0.204  0.2819 -0.1539 -0.5660
   39ANI     O1 1091   0.839   2.689   0.302  0.1775 -0.9534 -0.1508
   39ANI     C2 1092   0.749   2.593   0.263 -0.0534  0.3992  0.6942
   39ANI     C3 1093   0.793   2.486   0.172  0.0509 -0.1069  0.4710
   39ANI     C4 1094   0.703   2.390   0.122  0.1120 -0.4884 -0.0419
   39ANI     C5 1095   0.565   2.410   0.160 -0.3887 -0.0555 -0.1208
   39ANI     C6 1096   0.526   2.503   0.256 -0.3570 -0.7202 -0.5478
   39ANI     C7 1097   0.615   2.601   0.308  0.3905  0.3174 -0.5858
   39ANI     H1 1098   0.848   2.817   0.143  1.4632  1.1201 -0.5952
   39ANI     H2 1099   0.984   2.830   0.245  0.6784  0.9652 -3.1662
   39ANI     H3 1100   0.973   2.683   0.145  0.8450 -0.7077  0.6314
   39ANI     H4 1101   0.898   2.474   0.146  0.1919 -1.4776  1.5988
   39ANI     H5 1102   0.740   2.323   0.045  0.6362  0.8372 -0.9576
   39ANI     H6 1103   0.488   2.346   0.117 -0.3885  0.0255 -0.2409
   39ANI     H7 1104   0.421   2.513   0.284  0.3963  3.3786  1.2683
   39ANI     H8 1105   0.586   2.677   0.380  0.4988 -1.2039  1.0896
   40ANI     C1 1106   0.056   0.695   0.039  0.3050 -0.1754  0.4702
   40ANI     O1 1107   0.170   0.714   0.119 -0.2842  0.1530  0.1195
   40ANI     C2 1108   0.168   0.779   0.245 -0.2320 -0.1479  0.5590
   40ANI     C3 1109   0.293   0.825   0.299  0.3885  0.9235 -0.8085
   40ANI     C4 1110   0.291   0.887   0.424 -0.0422 -0.0994 -0.1666
   40ANI     C5 1111   0.173   0.906   0.495  0.0447 -0.1968  0.6010
   40ANI     C6 1112   0.046   0.886   0.430  0.1915 -0.1691 -0.1474
   40ANI     C7 1113   0.047   0.818   0.305  0.7685 -0.5744 -0.0646
   40ANI     H1 1114   0.080   0.648  -0.057  0.1851  2.0911 -0.6988
   40ANI     H2 1115  -0.016   0.625   0.084 -3.7755  2.0254 -2.2876
   40ANI     H3 1116   0.018   0.795   0.018  0.7524 -0.4011 -1.5816
   40ANI     H4 1117   0.387   0.802   0.250  1.1268  1.0962  0.4849
   40ANI     H5 1118   0.389   0.897   0.470  0.3715 -2.9233 -0.3608
   40ANI     H6 1119   0.183   0.948   0.595  3.8976  1.7803 -0.5316
   40ANI     H7 1120  -0.047   0.899   0.483  1.2333 -2.2163  2.2597
   40ANI     H8 1121  -0.045   0.779   0.264  0.3857  0.7036 -0.4281
   41ANI     C1 1122   1.728   0.491   0.628 -0.2162 -0.4841  0.0002
   41ANI     O1 1123   1.837   0.429   0.544  0.1948  0.2483 -0.3069
   41ANI     C2 1124   1.901   0.498   0.439  0.3946  0.1969  0.1974
   41ANI     C3 1125   1.859   0.618   0.385  0.4560  0.8050 -0.9606
   41ANI     C4 1126   1.926   0.684   0.288 -0.3109  0.1244  0.4518
   41ANI     C5 1127   2.053   0.643   0.249 -0.2719  0.1854 -0.0094
   41ANI     C6 1128   2.097   0.523   0.297  0.1549 -0.0130  0.3022
   41ANI     C7 1129   2.022   0.444   0.388  0.7078  0.4637  0.4851
   41ANI     H1 1130   1.683   0.427   0.705  0.1966 -0.1273  0.5454
   41ANI     H2 1131   1.779   0.577   0.675 -2.1117  1.3402 -1.1764
   41ANI     H3 1132   1.655   0.537   0.561 -0.0829  1.5324  1.1924
   41ANI     H4 1133   1.770   0.667   0.425 -0.2969  0.1023 -1.7600
   41ANI     H5 1134   1.883   0.770   0.238  0.0274  0.7559  1.2332
   41ANI     H6 1135   2.122   0.701   0.190 -0.8061 -0.9119 -1.7461
   41ANI     H7 1136   2.196   0.498   0.261  0.3736  0.5113  0.5222
   41ANI     H8 1137   2.063   0.352   0.428 -0.6757 -0.9836 -1.3108
   42ANI     C1 1138   0.141   1.368   2.500  0.5242  1.5652  0.6310
   42ANI     O1 1139   0.198   1.298   2.390  0.5159  0.2056 -0.0339
   42ANI     C2 1140   0.328   1.262   2.397 -0.2440  0.4584 -0.5649
   42ANI     C3 1141   0.421   1.290   2.504  1.1320  0.4435 -0.0675
   42ANI     C4 1142   0.552   1.241   2.495  0.6728  0.0584 -0.2088
   42ANI     C5 1143   0.593   1.162   2.389  0.5027 -0.1677  0.1915
   42ANI     C6 1144   0.506   1.155   2.276 -0.0050 -0.6474 -0.1650
   42ANI     C7 1145   0.373   1.198   2.280 -0.4488  0.4485  0.2822
   42ANI     H1 1146   0.153   1.300   2.585 -2.5529 -0.8795 -0.7799
   42ANI     H2 1147   0.195   1.461   2.518  1.1695  1.4035 -0.3642
   42ANI     H3 1148   0.037   1.397   2.486  0.0874 -0.2731 -0.1493
   42ANI     H4 1149   0.392   1.347   2.592  0.8246 -0.5424  0.4755
   42ANI     H5 1150   0.621   1.261   2.576  1.1209 -0.6406 -0.4134
   42ANI     H6 1151   0.694   1.124   2.393 -0.6284 -3.5606 -1.0820
   42ANI     H7 1152   0.537   1.100   2.187 -0.9363 -1.7262  0.1634
   42ANI     H8 1153   0.308   1.177   2.197 -0.5644  0.5430  0.3486
   43ANI     C1 1154   0.390   1.478   1.077 -0.0493 -0.0094  0.2944
   43ANI     O1 1155   0.388   1.606   1.009  0.3682 -0.2414  0.4944
   43ANI     C2 1156   0.459   1.627   0.891 -0.2057  0.4852 -0.2963
   43ANI     C3 1157   0.554   1.530   0.848 -0.1330 -0.4612  0.7256
   43ANI     C4 1158   0.600   1.530   0.715  0.2278 -0.6088  0.4525
   43ANI     C5 1159   0.574   1.638   0.631 -0.2675  0.4024 -0.6641
   43ANI     C6 1160   0.491   1.736   0.684 -0.8162  0.4404  0.1619
   43ANI     C7 1161   0.438   1.739   0.810  0.2118 -0.7565 -0.7905
   43ANI     H1 1162   0.335   1.483   1.172  1.4161 -2.8907  1.3511
   43ANI     H2 1163   0.346   1.396   1.019  2.1328 -2.0550  1.4823
   43ANI     H3 1164   0.493   1.454   1.104  0.7452  4.2202  1.4703
   43ANI     H4 1165   0.571   1.431   0.890  2.9436 -0.3972 -0.3056
   43ANI     H5 1166   0.660   1.448   0.676  0.4124  0.5283 -1.7515
   43ANI     H6 1167   0.614   1.652   0.531 -0.6438  0.0758 -0.8645
   43ANI     H7 1168   0.474   1.826   0.626 -0.6636  1.1236  1.1611
   43ANI     H8 1169   0.358   1.809   0.833 -0.4502 -1.5952 -0.5582
   44ANI     C1 1170   2.851   0.704   3.390 -0.1938  0.2586  0.1065
   44ANI     O1 1171   2.804   0.571   3.354  0.0242 -0.0146 -0.2315
   44ANI     C2 1172   2.667   0.541   3.346 -0.4394  0.2498 -0.0348
   44ANI     C3 1173   2.627   0.414   3.296  0.1871  0.3370  0.9211
   44ANI     C4 1174   2.492   0.376   3.300  0.4928  0.5705  0.3864
   44ANI     C5 1175   2.398   0.470   3.336 -0.1432  0.8377 -0.3019
   44ANI     C6 1176   2.433   0.596   3.383  0.1354 -0.1591 -0.6421
   44ANI     C7 1177   2.571   0.629   3.384 -0.0578  0.4637 -0.2402
   44ANI     H1 1178   2.823   0.724   3.495 -1.0986 -0.9334  0.0997
   44ANI     H2 1179   2.956   0.720   3.363  0.0272  0.4263  1.0487
   44ANI     H3 1180   2.791   0.782   3.341 -0.5039  1.2121  1.9262
   44ANI     H4 1181   2.700   0.339   3.265  0.4558  1.6269 -1.6056
   44ANI     H5 1182   2.463   0.276   3.268 -0.6509  2.1686 -3.9337
   44ANI     H6 1183   2.294   0.440   3.331  0.0334  0.1223  0.2000
   44ANI     H7 1184   2.357   0.671   3.400  0.5965 -0.1608  1.5498
   44ANI     H8 1185   2.599   0.725   3.428 -0.1169  0.6135 -0.5291
   45ANI     C1 1186   1.573   1.160   2.615 -0.1549  0.1465 -1.1679
   45ANI     O1 1187   1.467   1.149   2.699 -0.3407 -0.5285 -0.0777
   45ANI     C2 1188   1.370   1.244   2.675  0.4200  0.4184 -0.5225
   45ANI     C3 1189   1.380   1.349   2.580 -0.4807 -0.0498  0.1131
   45ANI     C4 1190   1.264   1.432   2.560 -0.0502  0.6818 -0.1023
   45ANI     C5 1191   1.143   1.412   2.629 -0.2204 -0.8542  0.0501
   45ANI     C6 1192   1.136   1.313   2.725  0.5133 -0.0939  0.3550
   45ANI     C7 1193   1.250   1.230   2.751 -0.0329  0.4441  0.5033
   45ANI     H1 1194   1.543   1.152   2.510 -0.3598 -2.5422 -0.9334
   45ANI     H2 1195   1.632   1.247   2.647 -0.7714  0.3408 -0.5292
   45ANI     H3 1196   1.629   1.069   2.639 -0.0411  1.0650  2.3316
   45ANI     H4 1197   1.463   1.367   2.513 -0.8586 -0.9057 -0.5902
   45ANI     H5 1198   1.272   1.517   2.493 -0.8187 -0.3816 -1.5828
   45ANI     H6 1199   1.063   1.485   2.627  0.3180 -0.2438  0.4388
   45ANI     H7 1200   1.052   1.307   2.792  1.4811 -0.6637  1.5375
   45ANI     H8 1201   1.239   1.147   2.820 -1.3353  0.8145  0.7558
   46ANI     C1 1202   0.991   2.011   0.881  0.2964  0.2287  0.0853
   46ANI     O1 1203   1.087   2.049   0.775 -0.4223  0.0152 -0.6504
   46ANI     C2 1204   1.062   2.161   0.691  0.5677 -0.4167 -0.2993
   46ANI     C3 1205   0.954   2.252   0.710 -0.1900 -0.3390  0.1843
   46ANI     C4 1206   0.936   2.356   0.628 -1.0198 -0.0648 -0.2604
   46ANI     C5 1207   1.022   2.377   0.524 -0.2864 -0.3759 -0.3016
   46ANI     C6 1208   1.126   2.284   0.492  1.1633 -0.0220 -0.2938
   46ANI     C7 1209   1.141   2.175   0.575 -0.0172 -0.5841  0.1956
   46ANI     H1 1210   0.896   1.976   0.840 -0.3431  0.4267  1.3615
   46ANI     H2 1211   1.029   1.922   0.933 -0.5941 -0.3324 -0.2120
   46ANI     H3 1212   0.980   2.096   0.949 -3.2306 -1.3552  1.6002
   46ANI     H4 1213   0.883   2.238   0.791  1.0397 -1.5192  1.1055
   46ANI     H5 1214   0.853   2.425   0.641 -2.0684 -1.3826  0.2021
   46ANI     H6 1215   1.011   2.466   0.463  0.7913 -0.1859 -0.2364
   46ANI     H7 1216   1.184   2.314   0.406  0.5458  0.4869 -0.5381
   46ANI     H8 1217   1.220   2.105   0.549 -0.7820 -0.8507 -1.4873
   47ANI     C1 1218   2.283   2.106   2.874  0.5689 -0.1163  0.1718
   47ANI     O1 1219   2.411   2.051   2.837  0.3859  0.3991  0.2252
   47ANI     C2 1220   2.452   1.928   2.886 -1.6142  0.2891  0.1853
   47ANI     C3 1221   2.569   1.868   2.825  0.3783 -0.6157 -0.4649
   47ANI     C4 1222   2.617   1.752   2.882 -0.1449  0.3394 -0.4469
   47ANI     C5 1223   2.565   1.690   2.995  0.2968 -0.3640  0.5863
   47ANI     C6 1224   2.451   1.751   3.056  0.0388 -0.2250  0.1842
   47ANI     C7 1225   2.401   1.871   3.002  0.4847 -0.0776 -0.0672
   47ANI     H1 1226   2.287   2.137   2.979  0.1437  0.1454  0.1140
   47ANI     H2 1227   2.241   2.187   2.813  0.3320 -2.4180 -2.7890
   47ANI     H3 1228   2.210   2.025   2.865  0.2302  0.3064 -0.9975
   47ANI     H4 1229   2.618   1.912   2.738 -1.4690  0.7934 -0.8212
   47ANI     H5 1230   2.699   1.702   2.831 -0.0364  1.6784 -1.6002
   47ANI     H6 1231   2.607   1.597   3.031  0.9492 -0.8135 -1.3014
   47ANI     H7 1232   2.413   1.705   3.147 -1.9405 -2.0618 -1.5320
   47ANI     H8 1233   2.331   1.926   3.063  1.3064  0.2006  0.6309
   48ANI     C1 1234   3.398   1.602   2.835  0.6365  0.3561 -0.3420
   48ANI     O1 1235   3.343   1.471   2.833 -0.8397  0.0884  0.1864
   48ANI     C2 1236   3.215   1.453   2.791 -0.0474  0.4358 -0.2659
   48ANI     C3 1237   3.164   1.325   2.804  0.1313  0.0709 -0.1082
   48ANI     C4 1238   3.031   1.293   2.762  0.3609 -0.2677  0.9429
   48ANI     C5 1239   2.947   1.396   2.708  0.0831  0.5872  0.3523
   48ANI     C6 1240   3.009   1.521   2.679  0.6909  0.1663  0.7121
   48ANI     C7 1241   3.136   1.556   2.732  0.1721  0.5103  0.1208
   48ANI     H1 1242   3.428   1.636   2.735  2.4878 -0.1622  0.0252
   48ANI     H2 1243   3.332   1.680   2.875  1.5351  0.9517  0.0126
   48ANI     H3 1244   3.485   1.596   2.902  0.0238  0.9681  0.5311
   48ANI     H4 1245   3.222   1.244   2.847  0.2455  0.0377 -0.3251
   48ANI     H5 1246   2.997   1.193   2.787  0.0792  0.1106  2.1148
   48ANI     H6 1247   2.848   1.369   2.674  0.6037  0.1440 -0.8659
   48ANI     H7 1248   2.936   1.587   2.633  2.2809  0.9922 -0.6627
   48ANI     H8 1249   3.181   1.653   2.711  1.0969 -0.0757 -0.6079
   49ANI     C1 1250   0.334   1.067   1.207 -0.5174 -0.3016 -0.2907
   49ANI     O1 1251   0.284   1.135   1.096  0.3323  0.5349 -0.8610
   49ANI     C2 1252   0.150   1.171   1.097 -0.4476 -0.0028  0.3193
   49ANI     C3 1253   0.113   1.251   0.992 -0.3274  0.2498  0.9335
   49ANI     C4 1254  -0.021   1.300   0.982  0.0569  0.8207  0.8384
   49ANI     C5 1255  -0.117   1.274   1.079  0.0806 -0.2909 -0.2420
   49ANI     C6 1256  -0.074   1.196   1.192 -0.1797  0.3093  0.4649
   49ANI     C7 1257   0.059   1.146   1.200 -0.3066  0.2722 -0.1784
   49ANI     H1 1258   0.284   0.970   1.221 -0.4183  0.0096  2.5803
   49ANI     H2 1259   0.439   1.053   1.179 -0.5443  2.0457 -1.6537
   49ANI     H3 1260   0.327   1.126   1.300  0.5669 -0.7759  0.1004
   49ANI     H4 1261   0.185   1.272   0.914  0.0572 -0.4615  1.0857
   49ANI     H5 1262  -0.055   1.336   0.885 -0.2085 -0.1714  0.5630
   49ANI     H6 1263  -0.217   1.316   1.066  0.5779  1.7882  2.3070
   49ANI     H7 1264  -0.143   1.158   1.267 -0.7285 -0.5384 -0.4476
   49ANI     H8 1265   0.089   1.089   1.287 -3.0429  0.6614  1.0718
   50ANI     C1 1266   1.359   0.091   3.475 -0.9779  0.8086  0.6549
   50ANI     O1 1267   1.281   0.217   3.487  0.2546  0.4031  0.0654
   50ANI     C2 1268   1.156   0.230   3.439 -0.1460 -0.0313  0.0053
   50ANI     C3 1269   1.106   0.131   3.356  0.0887 -0.3332 -0.0266
   50ANI     C4 1270   0.977   0.144   3.309 -0.1977 -0.0809  0.0988
   50ANI     C5 1271   0.910   0.269   3.328 -0.1254 -0.1436 -0.2682
   50ANI     C6 1272   0.965   0.376   3.395  0.1535  0.9095  0.6364
   50ANI     C7 1273   1.086   0.348   3.458  0.0852  0.3718 -0.1386
   50ANI     H1 1274   1.325  -0.001   3.526 -2.5144  0.8497 -0.2693
   50ANI     H2 1275   1.387   0.066   3.372  0.5570  0.3044  1.1721
   50ANI     H3 1276   1.453   0.129   3.517 -0.2409 -1.0128  0.7314
   50ANI     H4 1277   1.142   0.030   3.343  0.2019 -0.4586  1.2482
   50ANI     H5 1278   0.936   0.063   3.249 -2.1821 -0.2211  1.5828
   50ANI     H6 1279   0.812   0.283   3.284 -0.7292 -1.0216  0.8095
   50ANI     H7 1280   0.924   0.477   3.394 -3.5576 -0.5120 -1.4927
   50ANI     H8 1281   1.139   0.420   3.519 -0.4419  0.3991  0.2893
   51ANI     C1 1282   2.030   2.907   3.035 -0.2558 -0.1679 -0.6626
   51ANI     O1 1283   1.915   2.836   3.083  0.4490  0.4299 -0.4129
   51ANI     C2 1284   1.847   2.762   2.997  0.2608 -0.1657  0.5309
   51ANI     C3 1285   1.735   2.693   3.032 -0.4205 -0.3779 -0.2115
   51ANI     C4 1286   1.664   2.610   2.946  0.1141 -0.0023 -0.3865
   51ANI     C5 1287   1.685   2.612   2.816 -0.4763 -0.3277 -0.2352
   51ANI     C6 1288   1.801   2.675   2.765 -0.4157  0.3034 -0.6253
   51ANI     C7 1289   1.877   2.753   2.855  0.7541  0.4954 -0.0777
   51ANI     H1 1290   2.082   2.941   3.125 -2.1799  0.7604  0.1324
   51ANI     H2 1291   2.095   2.834   2.984  0.6008 -0.8979  1.4118
   51ANI     H3 1292   2.009   2.993   2.971 -1.5042 -0.0699 -0.1434
   51ANI     H4 1293   1.700   2.693   3.135 -1.1119 -0.8293 -0.4430
   51ANI     H5 1294   1.571   2.562   2.977 -0.6695  2.4209  1.1655
   51ANI     H6 1295   1.613   2.558   2.754 -0.1651 -0.3003 -0.6239
   51ANI     H7 1296   1.819   2.671   2.658 -0.8125  0.6104 -0.7079
   51ANI     H8 1297   1.965   2.802   2.813  0.1859  0.3293 -1.5107
   52ANI     C1 1298   2.376   0.896   3.762  0.4516 -0.1136 -0.1700
   52ANI     O1 1299   2.269   0.802   3.755  0.1202  0.2489  0.0107
   52ANI     C2 1300   2.134   0.845   3.747  0.3352  0.0684 -0.8246
   52ANI     C3 1301   2.093   0.978   3.765 -0.9234 -0.9214  0.2190
   52ANI     C4 1302   1.962   1.016   3.748  0.6560  0.4623  0.2526
   52ANI     C5 1303   1.867   0.909   3.718  0.5472  0.1831  0.0448
   52ANI     C6 1304   1.912   0.778   3.703  0.1042  0.0327  0.6848
   52ANI     C7 1305   2.043   0.744   3.717 -0.0441  0.2363 -0.1076
   52ANI     H1 1306   2.350   0.968   3.684 -0.4080 -0.5906 -0.3358
   52ANI     H2 1307   2.393   0.936   3.863 -0.3794 -0.4044  0.0928
   52ANI     H3 1308   2.469   0.841   3.743 -2.0631 -5.3096  1.3639
   52ANI     H4 1309   2.164   1.049   3.806  0.9814 -0.9467 -2.9042
   52ANI     H5 1310   1.940   1.121   3.763 -1.3298  0.1179 -0.1242
   52ANI     H6 1311   1.763   0.938   3.714  0.4276 -0.2299  0.1792
   52ANI     H7 1312   1.828   0.715   3.675 -1.3490  3.3124 -2.7481
   52ANI     H8 1313   2.067   0.639   3.703 -0.0749  0.3824 -1.3711
   53ANI     C1 1314   1.057   2.294   3.173  0.5665 -0.2555  0.1638
   53ANI     O1 1315   0.928   2.260   3.126  0.4598  0.5825 -0.2402
   53ANI     C2 1316   0.813   2.334   3.148 -0.4495  0.0744 -0.0051
   53ANI     C3 1317   0.817   2.447   3.231 -0.0690  0.4677  0.7947
   53ANI     C4 1318   0.703   2.521   3.252  0.0955 -0.6867 -0.2116
   53ANI     C5 1319   0.584   2.476   3.197 -0.0029  0.2472  0.1072
   53ANI     C6 1320   0.575   2.364   3.116 -0.3775  0.2586  0.4344
   53ANI     C7 1321   0.693   2.289   3.100  0.8954  0.2761  0.6371
   53ANI     H1 1322   1.110   2.373   3.118  0.6130 -0.7460 -0.5101
   53ANI     H2 1323   1.052   2.309   3.281 -0.1117 -0.6451  0.1932
   53ANI     H3 1324   1.126   2.209   3.161  0.8017 -0.2330  1.2774
   53ANI     H4 1325   0.915   2.474   3.271  0.0246 -1.1746  1.7405
   53ANI     H5 1326   0.708   2.615   3.307  1.2642  0.4079 -2.1435
   53ANI     H6 1327   0.495   2.534   3.220  1.0769  1.4682  1.3033
   53ANI     H7 1328   0.484   2.339   3.063  1.2021 -0.4956 -1.9879
   53ANI     H8 1329   0.695   2.196   3.045 -0.9834  0.6103 -0.0247
   54ANI     C1 1330   0.911   1.312   2.412 -0.3484 -0.2118 -0.5113
   54ANI     O1 1331   0.908   1.204   2.315 -0.3204 -0.2389 -0.3236
   54ANI     C2 1332   0.989   1.088   2.328 -0.3448  0.4277  0.3981
   54ANI     C3 1333   0.982   0.990   2.235  0.8541  0.9061  0.6034
   54ANI     C4 1334   1.077   0.886   2.239  0.0736  0.7719 -0.5106
   54ANI     C5 1335   1.169   0.868   2.348 -0.3185 -0.1700  0.2352
   54ANI     C6 1336   1.173   0.976   2.446  0.1003 -0.2932 -0.7589
   54ANI     C7 1337   1.087   1.080   2.430  0.0536 -0.3468 -0.2886
   54ANI     H1 1338   1.015   1.347   2.420 -1.0886  2.4991 -2.3732
   54ANI     H2 1339   0.844   1.388   2.371  0.8344  1.6627  0.9578
   54ANI     H3 1340   0.887   1.276   2.513  1.8538 -0.0210  0.1147
   54ANI     H4 1341   0.901   0.993   2.162  0.8855  0.3372  0.5392
   54ANI     H5 1342   1.070   0.804   2.169  0.4395  0.0245  0.3212
   54ANI     H6 1343   1.233   0.781   2.358  0.8514  0.8674  2.1730
   54ANI     H7 1344   1.238   0.967   2.533 -0.8555  0.4409  0.0274
   54ANI     H8 1345   1.080   1.151   2.513 -0.3818 -1.2949  0.4950
   55ANI     C1 1346   1.319   3.078   2.672 -0.6350 -0.6447 -0.1684
   55ANI     O1 1347   1.248   3.166   2.746  0.7198 -0.2858 -0.8405
   55ANI     C2 1348   1.113   3.192   2.713  0.5069  1.2667 -0.6047
   55ANI     C3 1349   1.027   3.092   2.663  0.2633  1.1238  0.6443
   55ANI     C4 1350   0.893   3.127   2.637  0.4129 -0.0455 -0.0828
   55ANI     C5 1351   0.846   3.256   2.648  0.0376 -0.8841  0.2826
   55ANI     C6 1352   0.934   3.352   2.702 -0.2567  0.4871 -0.4098
   55ANI     C7 1353   1.074   3.324   2.722  0.3535  0.9090 -1.0389
   55ANI     H1 1354   1.301   2.974   2.700  1.0801 -1.0223 -0.3917
   55ANI     H2 1355   1.298   3.103   2.568  1.9593 -0.5378 -0.6906
   55ANI     H3 1356   1.424   3.106   2.685 -0.7874 -0.3914  0.5874
   55ANI     H4 1357   1.059   2.990   2.644 -0.0853  1.2206 -0.5471
   55ANI     H5 1358   0.826   3.046   2.608  0.2084 -0.5008  1.5888
   55ANI     H6 1359   0.744   3.291   2.633  0.7746  0.7120 -1.3149
   55ANI     H7 1360   0.900   3.455   2.713 -1.7907 -0.0949  0.5378
   55ANI     H8 1361   1.148   3.395   2.757 -0.3364 -0.4335  3.4940
   56ANI     C1 1362   1.724   0.441   0.148 -0.1366  0.3507  0.5106
   56ANI     O1 1363   1.641   0.404   0.038  0.0666 -0.0796  0.0846
   56ANI     C2 1364   1.701   0.402  -0.097 -0.5423 -0.5179 -0.3470
   56ANI     C3 1365   1.621   0.404  -0.215  0.0215  0.0972  0.1879
   56ANI     C4 1366   1.690   0.408  -0.339 -0.0461  0.6811  0.0419
   56ANI     C5 1367   1.828   0.424  -0.345 -0.0314 -0.3149 -0.5174
   56ANI     C6 1368   1.905   0.409  -0.232  0.0303  0.9212  0.1950
   56ANI     C7 1369   1.845   0.403  -0.105 -0.1581 -0.2377 -0.7594
   56ANI     H1 1370   1.684   0.400   0.242 -1.5376  1.6740  0.5000
   56ANI     H2 1371   1.827   0.402   0.142 -1.0530 -2.0741 -0.4628
   56ANI     H3 1372   1.732   0.549   0.158 -1.1990  0.1509  3.8329
   56ANI     H4 1373   1.513   0.403  -0.203 -0.2289 -0.7405 -1.9338
   56ANI     H5 1374   1.630   0.419  -0.429  1.2308  0.5048 -0.8392
   56ANI     H6 1375   1.891   0.431  -0.433  0.6005  1.6883  0.0767
   56ANI     H7 1376   2.013   0.408  -0.241  0.0941  0.8292  0.8680
   56ANI     H8 1377   1.914   0.395  -0.021  0.4998  0.5271 -1.2293
   57ANI     C1 1378   3.079   1.474   3.422  0.2681 -0.1226 -0.2249
   57ANI     O1 1379   3.059   1.364   3.517  0.4796 -0.5078  0.3974
   57ANI     C2 1380   3.066   1.378   3.656  0.2565 -0.0893  0.1790
   57ANI     C3 1381   3.083   1.505   3.718  0.1626  0.2002  0.2508
   57ANI     C4 1382   3.108   1.514   3.855 -0.6851 -0.0918 -0.2330
   57ANI     C5 1383   3.096   1.398   3.934  0.1793 -0.5548 -0.4151
   57ANI     C6 1384   3.064   1.272   3.876  0.6578  0.1802 -1.0757
   57ANI     C7 1385   3.054   1.263   3.739  0.2085  0.0262 -0.3148
   57ANI     H1 1386   3.109   1.435   3.324 -1.2032 -0.5861 -0.5038
   57ANI     H2 1387   2.984   1.526   3.406 -0.1915 -1.0898 -0.7100
   57ANI     H3 1388   3.152   1.546   3.461  1.2455 -1.7430  1.0224
   57ANI     H4 1389   3.084   1.597   3.660 -0.2320 -0.2547 -0.4759
   57ANI     H5 1390   3.129   1.610   3.901  2.0124 -2.3171  3.4281
   57ANI     H6 1391   3.124   1.399   4.039  1.7808  0.3154 -0.8393
   57ANI     H7 1392   3.051   1.184   3.937  2.0044  0.3988 -0.4632
   57ANI     H8 1393   3.036   1.166   3.693  2.5873 -0.9436  0.7286
   58ANI     C1 1394   0.799   2.839   0.584 -0.3957  0.1512 -0.4112
   58ANI     O1 1395   0.759   2.947   0.671  0.3252 -0.3704  0.2217
   58ANI     C2 1396   0.847   3.050   0.695 -0.4656 -0.4116  0.6405
   58ANI     C3 1397   0.820   3.148   0.791  0.0797 -0.1175 -0.4407
   58ANI     C4 1398   0.915   3.242   0.827 -0.0575  0.2651  0.2833
   58ANI     C5 1399   1.036   3.248   0.751 -0.5249 -0.5563  0.0550
   58ANI     C6 1400   1.065   3.153   0.651 -0.5622  0.1409  0.2928
   58ANI     C7 1401   0.971   3.053   0.626  0.6964  0.1415  0.4228
   58ANI     H1 1402   0.813   2.868   0.479 -0.4059 -0.0781 -0.4762
   58ANI     H2 1403   0.891   2.787   0.613 -0.0955  2.1600  2.4145
   58ANI     H3 1404   0.725   2.758   0.583  0.9984 -1.1801  1.0082
   58ANI     H4 1405   0.729   3.137   0.851 -1.9378 -0.8864 -3.5279
   58ANI     H5 1406   0.896   3.314   0.907 -2.9972  0.8821 -0.9080
   58ANI     H6 1407   1.106   3.326   0.776  0.7146 -1.0868 -1.6695
   58ANI     H7 1408   1.152   3.163   0.586 -1.1125 -0.3119 -0.5238
   58ANI     H8 1409   0.998   2.982   0.549  0.1559 -1.4905  1.7049
   59ANI     C1 1410   1.651   1.466   0.766  0.0037 -0.1429  0.3061
   59ANI     O1 1411   1.787   1.410   0.800  0.3048 -0.0197 -0.3884
   59ANI     C2 1412   1.883   1.493   0.839  0.5376  0.7555 -0.6258
   59ANI     C3 1413   1.854   1.581   0.941 -0.8530  0.6766  0.1842
   59ANI     C4 1414   1.951   1.673   0.983  0.1262  0.7945 -0.6392
   59ANI     C5 1415   2.079   1.672   0.922 -0.5272 -0.2492 -0.5787
   59ANI     C6 1416   2.113   1.577   0.821 -0.2859  0.3816  0.2077
   59ANI     C7 1417   2.010   1.490   0.776  0.1892 -0.2732  0.1676
   59ANI     H1 1418   1.578   1.398   0.720  2.0805 -2.4534  0.3001
   59ANI     H2 1419   1.609   1.494   0.863 -1.1459  0.0557 -0.2442
   59ANI     H3 1420   1.647   1.555   0.702  1.4891  1.3172  2.2159
   59ANI     H4 1421   1.755   1.569   0.986 -1.0800  2.0278  0.0565
   59ANI     H5 1422   1.942   1.734   1.072  2.2069 -1.2172  0.9769
   59ANI     H6 1423   2.159   1.727   0.970 -0.3075 -2.0998  1.2361
   59ANI     H7 1424   2.211   1.563   0.776 -1.3175 -1.3485 -1.5800
   59ANI     H8 1425   2.031   1.429   0.689 -0.9695  0.8976 -0.9643
   60ANI     C1 1426   2.569   1.812   0.562 -0.2035  0.1019 -0.2858
   60ANI     O1 1427   2.551   1.672   0.568  0.0766  0.7645 -0.4658
   60ANI     C2 1428   2.552   1.609   0.694  1.0443  0.5208 -0.2203
   60ANI     C3 1429   2.530   1.681   0.814 -0.1209 -0.2281 -0.2600
   60ANI     C4 1430   2.553   1.622   0.936 -0.2273  0.2786 -0.3720
   60ANI     C5 1431   2.586   1.488   0.947  0.1710 -0.8030 -1.1299
   60ANI     C6 1432   2.601   1.411   0.829  0.1125 -0.0914 -0.4392
   60ANI     C7 1433   2.593   1.477   0.706  0.0134 -0.6446 -0.1316
   60ANI     H1 1434   2.489   1.860   0.619  0.6486  0.2780  0.7821
   60ANI     H2 1435   2.671   1.834   0.596 -0.2723  0.1257 -0.0955
   60ANI     H3 1436   2.557   1.855   0.462 -0.3823 -0.9670 -0.7354
   60ANI     H4 1437   2.506   1.786   0.813 -0.3369 -0.2798 -1.4579
   60ANI     H5 1438   2.542   1.686   1.023 -0.6654 -0.8979  0.4563
   60ANI     H6 1439   2.589   1.441   1.045 -0.0880  0.0536 -0.7032
   60ANI     H7 1440   2.624   1.305   0.836 -1.0874 -0.2255  2.0060
   60ANI     H8 1441   2.609   1.418   0.617 -0.5796  0.4281 -0.9694
   61ANI     C1 1442   2.676   3.316   0.150 -0.3438  0.9271 -0.1237
   61ANI     O1 1443   2.644   3.234   0.032  0.3574 -0.3260  0.3774
   61ANI     C2 1444   2.715   3.239  -0.090  0.3261 -0.8887  0.0378
   61ANI     C3 1445   2.824   3.318  -0.112 -0.8473 -0.5261 -0.1753
   61ANI     C4 1446   2.889   3.310  -0.238  0.4246  0.1564  1.6559
   61ANI     C5 1447   2.831   3.240  -0.341 -0.2173  0.5934  0.4338
   61ANI     C6 1448   2.720   3.166  -0.324  0.5466 -0.5377 -0.4736
   61ANI     C7 1449   2.659   3.160  -0.193  0.0006  0.0510 -0.2224
   61ANI     H1 1450   2.608   3.403   0.149 -1.6755  0.0218  3.4268
   61ANI     H2 1451   2.649   3.258   0.239  0.7654  1.3673  0.5021
   61ANI     H3 1452   2.780   3.347   0.164  0.2741 -0.8349 -0.6671
   61ANI     H4 1453   2.877   3.370  -0.034  3.0306  0.3718 -3.2221
   61ANI     H5 1454   2.982   3.362  -0.261  0.8628 -1.5967 -0.5861
   61ANI     H6 1455   2.879   3.229  -0.439  0.2669  1.2678  0.5922
   61ANI     H7 1456   2.678   3.107  -0.405 -1.9296 -1.3870  1.3431
   61ANI     H8 1457   2.562   3.114  -0.175 -0.7335  1.6785  0.0011
   62ANI     C1 1458   2.358   2.115   1.230 -0.4679  0.4912  0.0562
   62ANI     O1 1459   2.290   2.101   1.103  0.3097 -1.3770 -0.0767
   62ANI     C2 1460   2.157   2.099   1.091  0.3717  0.0664  0.0091
   62ANI     C3 1461   2.077   2.122   1.200  0.6214 -0.0655 -0.6257
   62ANI     C4 1462   1.942   2.099   1.188  0.2540  0.3586 -0.8412
   62ANI     C5 1463   1.885   2.048   1.070 -0.6184 -0.3104  0.0776
   62ANI     C6 1464   1.969   2.022   0.961 -0.5982  0.1597 -0.3202
   62ANI     C7 1465   2.103   2.049   0.970  0.9693  0.4404  0.3008
   62ANI     H1 1466   2.465   2.129   1.205 -0.1176 -1.1248  0.6492
   62ANI     H2 1467   2.322   2.199   1.291 -1.4444 -1.0644  1.6303
   62ANI     H3 1468   2.351   2.025   1.292 -0.6963 -0.3051 -1.1034
   62ANI     H4 1469   2.124   2.160   1.290  2.0827  1.6465 -2.0835
   62ANI     H5 1470   1.881   2.117   1.275 -1.9379 -2.6611 -1.6880
   62ANI     H6 1471   1.779   2.027   1.065 -0.5951 -0.3238 -0.3108
   62ANI     H7 1472   1.943   1.987   0.862 -0.2209  2.7129 -1.3705
   62ANI     H8 1473   2.170   2.030   0.886  0.8688 -0.1646  0.3530
   63ANI     C1 1474   0.813   1.467   0.381  0.1194 -0.1586 -0.4504
   63ANI     O1 1475   0.873   1.337   0.391 -0.0119  0.2659  0.1100
   63ANI     C2 1476   0.962   1.278   0.304 -0.5321  0.3971 -0.3101
   63ANI     C3 1477   1.025   1.351   0.201  0.2030  0.3391 -0.8612
   63ANI     C4 1478   1.108   1.283   0.109  0.5808 -0.3375 -0.2247
   63ANI     C5 1479   1.127   1.148   0.121  0.3411  0.1284 -0.0163
   63ANI     C6 1480   1.071   1.076   0.227 -0.0098 -0.3679  0.3165
   63ANI     C7 1481   0.976   1.137   0.310  0.1328  0.1208  0.1520
   63ANI     H1 1482   0.742   1.473   0.298 -1.4052  1.4482  0.9407
   63ANI     H2 1483   0.747   1.488   0.466 -1.2184 -0.7572 -1.3162
   63ANI     H3 1484   0.892   1.541   0.364 -0.2963  0.1654 -1.0049
   63ANI     H4 1485   1.011   1.458   0.195 -0.6503  0.3780  1.1858
   63ANI     H5 1486   1.175   1.334   0.041  1.9916 -1.9720 -0.0893
   63ANI     H6 1487   1.195   1.101   0.051 -2.7846 -3.0960 -1.0220
   63ANI     H7 1488   1.086   0.969   0.218  1.4977 -0.0467 -1.3282
   63ANI     H8 1489   0.914   1.080   0.378 -2.6985 -0.6932 -2.9707
   64ANI     C1 1490   2.929   0.840   0.452  0.5601  0.5578  0.2630
   64ANI     O1 1491   3.029   0.854   0.352 -0.5593 -0.1609 -0.2427
   64ANI     C2 1492   3.033   0.777   0.240 -0.5029 -0.3751 -0.2744
   64ANI     C3 1493   2.948   0.664   0.226  0.7592 -0.8179 -0.0965
   64ANI     C4 1494   2.949   0.587   0.107 -0.3944  0.6185 -0.0961
   64ANI     C5 1495   3.037   0.624  -0.001  0.0499  0.1770 -0.8969
   64ANI     C6 1496   3.116   0.741   0.016  0.2054 -0.0256  0.4675
   64ANI     C7 1497   3.117   0.809   0.136  0.1112  0.0158 -0.0292
   64ANI     H1 1498   2.913   0.922   0.523  0.5611 -0.1234  1.0594
   64ANI     H2 1499   2.829   0.822   0.409  0.0284 -0.1618  1.7827
   64ANI     H3 1500   2.954   0.753   0.513  0.1929  1.0420  1.1074
   64ANI     H4 1501   2.874   0.640   0.302  0.4871 -0.1380 -0.1469
   64ANI     H5 1502   2.874   0.515   0.077 -0.5940 -0.0612  1.9498
   64ANI     H6 1503   3.048   0.561  -0.088  0.7199 -1.1176  0.1015
   64ANI     H7 1504   3.187   0.772  -0.060 -0.9192 -1.3362 -1.1604
   64ANI     H8 1505   3.175   0.900   0.142 -0.0869  0.3553 -2.8163
   65ANI     C1 1506   1.022   0.219   0.824 -0.2042  0.1506  0.7633
   65ANI     O1 1507   1.099   0.146   0.920  0.1788 -0.5537  0.1241
   65ANI     C2 1508   1.190   0.204   1.015  0.5810  0.2669  0.1963
   65ANI     C3 1509   1.215   0.341   1.009 -0.3322 -0.6578 -0.4482
   65ANI     C4 1510   1.292   0.406   1.113  0.1056  0.3665 -0.1941
   65ANI     C5 1511   1.330   0.330   1.228 -0.4108  0.2848  0.5039
   65ANI     C6 1512   1.321   0.191   1.222 -1.1212 -0.5379  0.4464
   65ANI     C7 1513   1.243   0.133   1.122  0.5729 -0.5322  0.0385
   65ANI     H1 1514   1.086   0.289   0.769  0.1125 -0.2073  0.6767
   65ANI     H2 1515   0.989   0.145   0.750  1.4539 -0.9305  1.1013
   65ANI     H3 1516   0.933   0.264   0.871 -1.2056 -0.1933 -0.7418
   65ANI     H4 1517   1.200   0.392   0.915  0.6565  0.5183  0.0104
   65ANI     H5 1518   1.314   0.512   1.103  3.7386 -0.4088 -1.0797
   65ANI     H6 1519   1.389   0.369   1.311  3.0935  1.2061 -2.2997
   65ANI     H7 1520   1.362   0.120   1.293 -2.9748 -0.9904  1.0913
   65ANI     H8 1521   1.247   0.025   1.120  2.2989 -0.5300  1.6912
   66ANI     C1 1522   2.976   2.256   2.273 -0.3509  0.7890  0.1279
   66ANI     O1 1523   2.958   2.117   2.299  0.0231  0.6632 -0.6094
   66ANI     C2 1524   2.834   2.053   2.295 -0.0082 -0.1227  0.2348
   66ANI     C3 1525   2.835   1.917   2.314 -0.0830  0.5607  0.1725
   66ANI     C4 1526   2.712   1.847   2.297 -0.3158 -0.0984 -0.5346
   66ANI     C5 1527   2.592   1.920   2.270  0.3524  0.2759  0.6888
   66ANI     C6 1528   2.599   2.059   2.251 -0.7544 -0.3921  0.9843
   66ANI     C7 1529   2.721   2.126   2.266  0.1746 -0.3894  1.0749
   66ANI     H1 1530   2.960   2.267   2.165  1.6905  1.1746 -0.1618
   66ANI     H2 1531   2.899   2.310   2.329 -0.2426  1.1264 -0.0456
   66ANI     H3 1532   3.078   2.281   2.304 -0.0343  1.0965 -1.1249
   66ANI     H4 1533   2.918   1.852   2.340 -0.0435  0.1593 -0.9392
   66ANI     H5 1534   2.703   1.739   2.304  2.1088 -0.3071  0.0696
   66ANI     H6 1535   2.493   1.875   2.271 -0.2020  1.2434 -3.1925
   66ANI     H7 1536   2.509   2.114   2.225  0.8816  2.0912  0.5006
   66ANI     H8 1537   2.718   2.231   2.236 -0.7517 -0.4434  0.9806
   67ANI     C1 1538   3.298   2.841   1.332  0.3253  0.6783  0.0333
   67ANI     O1 1539   3.237   2.730   1.398  0.6754  0.1167 -0.4817
   67ANI     C2 1540   3.113   2.747   1.448  0.4276 -0.1577  0.1082
   67ANI     C3 1541   3.018   2.640   1.445 -0.2165  0.5621  0.0645
   67ANI     C4 1542   2.886   2.658   1.491  0.0189 -0.1129 -0.2681
   67ANI     C5 1543   2.845   2.775   1.546  0.2717 -0.4259  0.2224
   67ANI     C6 1544   2.937   2.881   1.554  0.4034 -0.3155 -0.2513
   67ANI     C7 1545   3.068   2.872   1.504 -0.3284  1.1267 -0.5048
   67ANI     H1 1546   3.305   2.933   1.391 -1.6771 -0.2833  1.8526
   67ANI     H2 1547   3.400   2.812   1.306  0.5823  0.2804  1.4414
   67ANI     H3 1548   3.245   2.853   1.236  1.7299 -1.2589 -1.0222
   67ANI     H4 1549   3.033   2.537   1.414  2.2108 -0.2966  3.7094
   67ANI     H5 1550   2.825   2.568   1.485 -0.1015 -0.0185 -0.4553
   67ANI     H6 1551   2.744   2.781   1.587  0.0986  2.7355 -0.5695
   67ANI     H7 1552   2.894   2.973   1.593 -1.0903 -1.4257  0.7650
   67ANI     H8 1553   3.135   2.958   1.505  0.2439  0.6893  0.0052
   68ANI     C1 1554   2.543   1.507   2.672  0.6414 -0.1625  0.5719
   68ANI     O1 1555   2.509   1.376   2.627 -0.1835 -0.1307 -0.5387
   68ANI     C2 1556   2.562   1.319   2.511 -0.3614 -0.9297 -0.4534
   68ANI     C3 1557   2.611   1.399   2.410  0.0242  0.1373 -0.0498
   68ANI     C4 1558   2.631   1.333   2.286 -0.3657 -0.7907  0.1108
   68ANI     C5 1559   2.627   1.200   2.270  1.2072 -0.5665  0.0582
   68ANI     C6 1560   2.591   1.117   2.376 -0.0733  1.1270  0.0738
   68ANI     C7 1561   2.563   1.175   2.503 -0.1762 -0.0696 -1.0884
   68ANI     H1 1562   2.526   1.582   2.595  1.4595 -0.5888 -0.0294
   68ANI     H2 1563   2.478   1.531   2.757 -0.2427 -0.8745  0.1021
   68ANI     H3 1564   2.645   1.505   2.712  1.0408  3.1278 -0.1960
   68ANI     H4 1565   2.623   1.507   2.418 -0.0320  0.0956  0.6016
   68ANI     H5 1566   2.663   1.397   2.204 -0.6690  0.6875  1.1226
   68ANI     H6 1567   2.648   1.156   2.173 -2.3618  1.9468 -1.9732
   68ANI     H7 1568   2.593   1.009   2.364  2.8834  1.2738 -1.2333
   68ANI     H8 1569   2.534   1.110   2.584 -0.9136  1.1750 -0.3388
   69ANI     C1 1570   2.089   1.107   2.717  0.1058  0.1914 -0.6689
   69ANI     O1 1571   2.050   0.980   2.660 -0.6204  0.2966  0.2095
   69ANI     C2 1572   2.148   0.887   2.647  0.2542 -0.3634  0.8922
   69ANI     C3 1573   2.119   0.751   2.651  0.3637 -0.2519 -0.1257
   69ANI     C4 1574   2.217   0.650   2.627 -0.2559  0.5034 -0.0386
   69ANI     C5 1575   2.351   0.694   2.607  0.2137  0.0687  0.2089
   69ANI     C6 1576   2.379   0.830   2.600 -0.2994 -0.6529  0.3514
   69ANI     C7 1577   2.276   0.921   2.609 -0.2507 -0.5290  0.3036
   69ANI     H1 1578   2.154   1.101   2.805  0.3457 -1.9143 -0.9737
   69ANI     H2 1579   2.138   1.168   2.640  0.5382  1.9891  1.0186
   69ANI     H3 1580   2.006   1.170   2.751  2.0302  2.1465  0.5453
   69ANI     H4 1581   2.026   0.713   2.690  1.0012 -1.6674  0.0614
   69ANI     H5 1582   2.198   0.544   2.634  1.1401  0.2388 -0.1349
   69ANI     H6 1583   2.428   0.619   2.596  0.0059  0.0570 -1.1869
   69ANI     H7 1584   2.482   0.859   2.583  0.5460 -2.7774  1.6104
   69ANI     H8 1585   2.298   1.027   2.607  0.4491 -0.6102  2.2078
   70ANI     C1 1586   2.115   2.502   3.031  0.1895  0.1828 -0.7679
   70ANI     O1 1587   2.227   2.571   3.078  0.0534 -0.1032 -1.0035
   70ANI     C2 1588   2.350   2.525   3.050  0.0476  0.0524 -0.1209
   70ANI     C3 1589   2.380   2.446   2.943 -0.4311 -0.6385  0.2475
   70ANI     C4 1590   2.512   2.410   2.911 -0.0511 -0.4120  0.0699
   70ANI     C5 1591   2.612   2.451   2.989 -0.0127 -0.4432 -0.2333
   70ANI     C6 1592   2.586   2.522   3.110 -0.4799  0.3623  0.6449
   70ANI     C7 1593   2.455   2.558   3.142 -0.1067 -0.3685  0.1018
   70ANI     H1 1594   2.097   2.409   3.087 -0.7874  0.2351 -0.9842
   70ANI     H2 1595   2.025   2.561   3.055  1.0020  0.7449  0.9635
   70ANI     H3 1596   2.109   2.489   2.922  2.8323  2.1250 -1.1750
   70ANI     H4 1597   2.306   2.426   2.866 -0.5925  1.8691 -0.2768
   70ANI     H5 1598   2.532   2.371   2.811  1.9559  1.8229 -0.4445
   70ANI     H6 1599   2.716   2.431   2.967  0.6714 -1.1079  3.3648
   70ANI     H7 1600   2.668   2.556   3.172 -0.5864  2.3226 -0.2395
   70ANI     H8 1601   2.416   2.628   3.216  0.9658 -0.5656  0.8710
   71ANI     C1 1602   1.275   2.249   2.649  0.0438 -0.1445  0.2424
   71ANI     O1 1603   1.376   2.282   2.745 -0.5744  0.2440  0.3326
   71ANI     C2 1604   1.408   2.202   2.850 -0.4878  0.1294 -0.2471
   71ANI     C3 1605   1.339   2.080   2.874  0.0672  0.7990 -0.6484
   71ANI     C4 1606   1.375   2.000   2.985  0.2077 -0.4244  0.2678
   71ANI     C5 1607   1.475   2.045   3.073 -0.3958  0.3856 -0.3078
   71ANI     C6 1608   1.545   2.164   3.052 -0.5865 -0.7962  0.1229
   71ANI     C7 1609   1.513   2.243   2.938 -0.3171  0.0525 -0.0490
   71ANI     H1 1610   1.181   2.224   2.702  0.0743  0.0498  0.3872
   71ANI     H2 1611   1.256   2.330   2.578  1.0990  1.1608  1.4159
   71ANI     H3 1612   1.305   2.164   2.587 -1.4561 -0.3806 -0.1975
   71ANI     H4 1613   1.273   2.031   2.803  0.7258 -1.6631  0.3738
   71ANI     H5 1614   1.331   1.904   3.006 -0.0476 -0.4902 -0.5540
   71ANI     H6 1615   1.496   1.983   3.159  0.3051  1.3591  0.2354
   71ANI     H7 1616   1.633   2.190   3.111  0.4860  0.7069 -2.0454
   71ANI     H8 1617   1.572   2.333   2.921 -1.8443  0.9910 -0.4235
   72ANI     C1 1618   1.663   0.388   3.092 -0.4179  0.9318 -0.1805
   72ANI     O1 1619   1.527   0.351   3.121  0.0657  0.2427  0.5963
   72ANI     C2 1620   1.432   0.445   3.118  0.3078 -0.2112 -0.0990
   72ANI     C3 1621   1.458   0.586   3.084 -0.1548 -0.9537 -0.5177
   72ANI     C4 1622   1.346   0.668   3.076 -0.4994 -0.4693 -0.5085
   72ANI     C5 1623   1.221   0.624   3.101 -0.0895 -0.1155  0.1438
   72ANI     C6 1624   1.196   0.496   3.143  1.0627 -0.8081  1.1968
   72ANI     C7 1625   1.304   0.406   3.155  0.4170  0.4666  0.0066
   72ANI     H1 1626   1.671   0.381   2.983  1.1409 -0.3981 -0.0127
   72ANI     H2 1627   1.692   0.486   3.132 -0.2833  0.7094  0.2683
   72ANI     H3 1628   1.738   0.314   3.123 -1.0042  0.3707 -0.0834
   72ANI     H4 1629   1.553   0.626   3.051  0.0213 -0.8625  0.0936
   72ANI     H5 1630   1.370   0.769   3.045 -0.3071 -0.7988 -1.4471
   72ANI     H6 1631   1.143   0.700   3.096  1.2460  1.2446 -0.5137
   72ANI     H7 1632   1.096   0.460   3.167  0.4527  0.2206  0.2527
   72ANI     H8 1633   1.283   0.309   3.201  2.5147  0.8567  1.8325
   73ANI     C1 1634   2.184   0.871   1.483  0.6197 -0.5555  0.0607
   73ANI     O1 1635   2.153   0.736   1.527 -0.3244  0.3101  0.3762
   73ANI     C2 1636   2.261   0.648   1.550 -0.0766 -0.2193 -0.0834
   73ANI     C3 1637   2.393   0.698   1.554 -0.7880  0.5353  0.4437
   73ANI     C4 1638   2.499   0.608   1.561 -0.3085  0.5377 -0.3930
   73ANI     C5 1639   2.472   0.466   1.572  0.3213 -0.1520  0.0945
   73ANI     C6 1640   2.339   0.421   1.574  0.2269  0.0476  1.0465
   73ANI     C7 1641   2.234   0.514   1.557 -1.2483 -0.1722 -0.7365
   73ANI     H1 1642   2.089   0.924   1.467  1.2389  0.5240 -0.0929
   73ANI     H2 1643   2.237   0.930   1.558 -2.3147 -0.2763  2.0252
   73ANI     H3 1644   2.236   0.870   1.387  0.4235  2.1621 -0.1193
   73ANI     H4 1645   2.413   0.805   1.552  0.4326  0.3130 -0.1628
   73ANI     H5 1646   2.599   0.650   1.571 -0.6355  1.2723 -0.2051
   73ANI     H6 1647   2.553   0.395   1.585 -0.5102 -0.9917  0.7495
   73ANI     H7 1648   2.312   0.317   1.590  0.5233  0.0095  1.3023
   73ANI     H8 1649   2.128   0.492   1.546 -1.4330 -0.3775  1.2391
   74ANI     C1 1650   2.871   1.566   0.509  0.1872  0.9374 -0.7290
   74ANI     O1 1651   2.922   1.494   0.625  0.4374 -0.6287  0.3488
   74ANI     C2 1652   2.986   1.370   0.605 -0.2991 -0.7221  0.2244
   74ANI     C3 1653   2.985   1.297   0.478  0.1586 -0.1135  0.5675
   74ANI     C4 1654   3.047   1.168   0.470 -0.2536  0.1250  0.1305
   74ANI     C5 1655   3.116   1.118   0.587  0.3186 -0.8571 -0.2817
   74ANI     C6 1656   3.115   1.194   0.712 -0.1983  0.6761  0.3425
   74ANI     C7 1657   3.052   1.315   0.713  0.4463  0.0335 -0.1209
   74ANI     H1 1658   2.857   1.672   0.536  1.5386  1.4305 -1.8764
   74ANI     H2 1659   2.947   1.575   0.430 -0.2892 -1.0283 -1.4449
   74ANI     H3 1660   2.780   1.517   0.473  0.4191  0.3131 -0.4692
   74ANI     H4 1661   2.929   1.331   0.392  1.7511  0.1537 -0.3951
   74ANI     H5 1662   3.043   1.105   0.381  3.4550  0.2302 -0.2192
   74ANI     H6 1663   3.146   1.014   0.588  0.0044 -0.9807  3.4931
   74ANI     H7 1664   3.168   1.151   0.796 -0.7830  0.8095  0.7837
   74ANI     H8 1665   3.064   1.381   0.799 -1.2525 -1.9447  1.6814
   75ANI     C1 1666   2.586   2.740   2.641  0.2276 -0.2116 -0.0835
   75ANI     O1 1667   2.693   2.645   2.639  0.9491  0.1823  0.0929
   75ANI     C2 1668   2.675   2.508   2.613  0.2558 -0.2092  0.3559
   75ANI     C3 1669   2.780   2.421   2.642 -0.5947 -0.7162  0.0710
   75ANI     C4 1670   2.766   2.286   2.630  0.1853  0.0508  0.5290
   75ANI     C5 1671   2.643   2.238   2.581  0.3189  0.5998  0.1866
   75ANI     C6 1672   2.546   2.325   2.531 -0.2736  0.3443 -0.4685
   75ANI     C7 1673   2.562   2.458   2.542  0.2590 -0.9769 -0.2062
   75ANI     H1 1674   2.515   2.717   2.559 -0.5500  3.1434 -0.4092
   75ANI     H2 1675   2.535   2.736   2.738 -2.9268 -1.6579 -1.6974
   75ANI     H3 1676   2.626   2.841   2.630  0.6019 -0.4326 -0.8409
   75ANI     H4 1677   2.862   2.463   2.699 -0.7986 -1.5404  0.9812
   75ANI     H5 1678   2.839   2.219   2.676 -0.8530 -0.7797  0.9785
   75ANI     H6 1679   2.620   2.134   2.563  0.2457  0.7252 -0.4470
   75ANI     H7 1680   2.457   2.284   2.484 -1.1868 -0.3779  1.8316
   75ANI     H8 1681   2.492   2.522   2.489  1.7765  0.7434 -0.1950
   76ANI     C1 1682   0.950   0.913   3.156  0.0773 -0.0151 -0.5339
   76ANI     O1 1683   0.968   0.966   3.021 -0.0525  0.4377 -0.4936
   76ANI     C2 1684   0.855   0.995   2.945 -0.0521  0.2499  1.0614
   76ANI     C3 1685   0.876   1.034   2.812 -0.2412  0.5192 -0.1652
   76ANI     C4 1686   0.769   1.080   2.731  0.0208 -0.5445 -0.5232
   76ANI     C5 1687   0.639   1.089   2.785  0.3248  0.0661  0.1272
   76ANI     C6 1688   0.615   1.048   2.917 -0.2898  0.6407  0.4436
   76ANI     C7 1689   0.722   1.003   2.997  0.3605  0.5699 -0.3273
   76ANI     H1 1690   0.891   0.820   3.151 -0.8233  0.6093 -1.6163
   76ANI     H2 1691   1.047   0.888   3.201  0.7669  0.7905 -1.5527
   76ANI     H3 1692   0.905   0.991   3.218  2.3345  1.8506 -1.1729
   76ANI     H4 1693   0.980   1.029   2.779 -0.6917 -1.3199 -1.3959
   76ANI     H5 1694   0.795   1.110   2.630  0.3757 -0.2067 -0.3346
   76ANI     H6 1695   0.554   1.122   2.725 -1.2458 -1.5609  1.3709
   76ANI     H7 1696   0.513   1.051   2.952 -0.0783  2.2264  0.9614
   76ANI     H8 1697   0.696   0.963   3.095 -1.6487 -0.8284 -1.3821
   77ANI     C1 1698   1.343   0.824   1.149  0.4557 -0.2086 -0.4321
   77ANI     O1 1699   1.260   0.895   1.246 -0.4759 -0.1344 -0.7781
   77ANI     C2 1700   1.170   0.839   1.334 -0.8042  0.0698  0.3788
   77ANI     C3 1701   1.138   0.906   1.459  0.6921  0.6124  0.1145
   77ANI     C4 1702   1.043   0.853   1.549  0.0515  0.4455 -0.4234
   77ANI     C5 1703   0.979   0.730   1.521  0.3904 -0.1786  0.4717
   77ANI     C6 1704   1.002   0.672   1.400 -0.9012 -0.1581 -0.4593
   77ANI     C7 1705   1.102   0.717   1.307  0.1950 -0.2298  0.2486
   77ANI     H1 1706   1.299   0.834   1.049  0.1705 -0.0182 -0.2879
   77ANI     H2 1707   1.446   0.859   1.139  0.7810 -1.3159 -1.1118
   77ANI     H3 1708   1.347   0.718   1.178  1.9361  0.0369  0.3310
   77ANI     H4 1709   1.196   0.996   1.479  3.5453 -0.4310 -2.8409
   77ANI     H5 1710   1.029   0.904   1.643 -2.0680 -0.9358  0.0520
   77ANI     H6 1711   0.906   0.688   1.590  0.3716 -0.2969  0.3784
   77ANI     H7 1712   0.953   0.578   1.376 -0.3427 -1.1431  2.0959
   77ANI     H8 1713   1.117   0.667   1.212  2.5280 -0.6478  0.8167
   78ANI     C1 1714   2.909   2.946   0.762 -0.3282 -0.0927  0.7473
   78ANI     O1 1715   2.926   3.078   0.814 -0.5120 -0.3739  1.0923
   78ANI     C2 1716   3.024   3.165   0.777 -0.5410  0.0352  0.5780
   78ANI     C3 1717   3.133   3.139   0.692 -0.4897 -0.3207  0.3736
   78ANI     C4 1718   3.239   3.231   0.675 -0.4714  0.1324 -0.4684
   78ANI     C5 1719   3.232   3.352   0.750 -0.0432 -0.3850 -0.1166
   78ANI     C6 1720   3.119   3.381   0.832 -0.5732 -0.0205  0.7016
   78ANI     C7 1721   3.022   3.282   0.846  0.3786  0.7181  0.6494
   78ANI     H1 1722   2.985   2.881   0.809  1.4147 -0.1724 -2.0835
   78ANI     H2 1723   2.807   2.913   0.785 -0.8665 -0.3199 -1.7985
   78ANI     H3 1724   2.934   2.951   0.656  0.1371 -1.7485  0.7733
   78ANI     H4 1725   3.128   3.047   0.634 -1.0629 -0.4821  0.6793
   78ANI     H5 1726   3.327   3.202   0.618 -0.1890  0.4978 -0.2162
   78ANI     H6 1727   3.310   3.428   0.748 -1.6401  1.2864 -1.6425
   78ANI     H7 1728   3.125   3.465   0.899  1.5647 -0.1995  0.7934
   78ANI     H8 1729   2.942   3.284   0.920 -0.9288 -1.6290 -0.6327
   79ANI     C1 1730   0.762   2.022   1.220  0.2097  0.0920 -0.0412
   79ANI     O1 1731   0.764   1.942   1.107 -0.4255  0.1788 -0.1114
   79ANI     C2 1732   0.808   1.810   1.098 -0.3070 -0.2220  0.3830
   79ANI     C3 1733   0.891   1.763   1.198 -0.2689 -0.7311 -0.0996
   79ANI     C4 1734   0.935   1.634   1.204 -0.0367 -0.4015 -0.6409
   79ANI     C5 1735   0.910   1.552   1.094 -0.4413 -0.3126  0.3385
   79ANI     C6 1736   0.839   1.603   0.985 -0.3977  0.3596 -0.0488
   79ANI     C7 1737   0.784   1.729   0.987  0.3745 -0.4670 -0.0810
   79ANI     H1 1738   0.705   2.114   1.202 -1.3634 -0.6868  0.9031
   79ANI     H2 1739   0.707   1.968   1.297  0.0881  0.5557  0.1992
   79ANI     H3 1740   0.868   2.039   1.243 -0.0785  0.8902  0.7441
   79ANI     H4 1741   0.922   1.836   1.272 -1.2116  0.0810 -0.4982
   79ANI     H5 1742   0.995   1.601   1.288 -0.0190  0.5324 -0.2859
   79ANI     H6 1743   0.941   1.448   1.089  1.1862  0.2440 -1.7618
   79ANI     H7 1744   0.821   1.540   0.899  0.2725  0.4902 -0.2829
   79ANI     H8 1745   0.723   1.766   0.906  0.0248 -3.0108 -1.0286
   80ANI     C1 1746   2.944   0.445   3.073 -0.1561  0.2596 -0.4614
   80ANI     O1 1747   3.070   0.396   3.023  0.6763 -0.3085  0.0208
   80ANI     C2 1748   3.106   0.414   2.899 -0.9380 -0.6940  0.4148
   80ANI     C3 1749   3.242   0.391   2.869 -1.5581 -0.3745  0.4084
   80ANI     C4 1750   3.297   0.408   2.738 -0.1188 -0.0105  0.3403
   80ANI     C5 1751   3.214   0.448   2.629  0.1762  0.3360  0.0039
   80ANI     C6 1752   3.079   0.479   2.665 -0.2653 -0.3142  0.5510
   80ANI     C7 1753   3.023   0.460   2.798  0.2961 -0.5291  0.5734
   80ANI     H1 1754   2.952   0.554   3.075  0.4986  0.1994  1.9691
   80ANI     H2 1755   2.860   0.409   3.011  0.2906 -0.4615 -0.6509
   80ANI     H3 1756   2.937   0.413   3.178  2.3155 -0.0203 -0.3429
   80ANI     H4 1757   3.310   0.371   2.951 -0.1693  0.8050 -0.4267
   80ANI     H5 1758   3.400   0.379   2.717  0.0791  2.4923 -2.5921
   80ANI     H6 1759   3.254   0.453   2.528 -0.5785  2.4374 -0.2155
   80ANI     H7 1760   3.013   0.522   2.589  0.0544  0.0894  0.5027
   80ANI     H8 1761   2.919   0.487   2.819  0.2607 -0.5147  0.3724
   81ANI     C1 1762   2.114   2.821   1.558  0.3929 -0.4619 -0.3846
   81ANI     O1 1763   2.001   2.772   1.484  0.2223 -0.0248  0.4087
   81ANI     C2 1764   2.015   2.709   1.362 -0.0353 -0.5329 -0.4816
   81ANI     C3 1765   2.131   2.657   1.312 -0.3306  0.0254 -0.4640
   81ANI     C4 1766   2.128   2.583   1.191 -0.1059 -0.7195  0.3051
   81ANI     C5 1767   2.011   2.558   1.125  1.0997  0.0564 -0.4518
   81ANI     C6 1768   1.892   2.607   1.177 -0.7731 -0.0142  0.1589
   81ANI     C7 1769   1.893   2.680   1.288 -0.0230 -0.2259 -0.4690
   81ANI     H1 1770   2.092   2.897   1.635  0.0783 -1.1388  0.1991
   81ANI     H2 1771   2.171   2.737   1.600 -0.5019 -1.1023 -0.4240
   81ANI     H3 1772   2.185   2.871   1.491  0.8391 -1.4817 -0.6795
   81ANI     H4 1773   2.227   2.663   1.364 -0.4044 -1.2152 -0.1583
   81ANI     H5 1774   2.223   2.547   1.153  1.2000  2.0469  0.8350
   81ANI     H6 1775   2.006   2.490   1.040 -1.0711 -0.0912 -0.2424
   81ANI     H7 1776   1.797   2.590   1.128  0.9417  0.4243 -3.5427
   81ANI     H8 1777   1.806   2.716   1.342  1.7012  2.4997  0.5922
   82ANI     C1 1778   0.884   2.846   3.600 -0.4689 -0.4331 -0.4783
   82ANI     O1 1779   0.776   2.841   3.507  0.2974 -0.3885  0.1892
   82ANI     C2 1780   0.652   2.790   3.537  0.4552 -0.2018 -0.1917
   82ANI     C3 1781   0.619   2.706   3.645 -0.3094 -0.3039  0.1118
   82ANI     C4 1782   0.489   2.655   3.664  0.6439  0.1448  0.1224
   82ANI     C5 1783   0.395   2.669   3.561 -0.0835 -0.3283 -1.5223
   82ANI     C6 1784   0.429   2.745   3.451  0.0132  0.1457 -0.0733
   82ANI     C7 1785   0.552   2.816   3.448  0.4427 -0.6777  0.6352
   82ANI     H1 1786   0.980   2.858   3.549 -0.8015  0.2644 -0.9529
   82ANI     H2 1787   0.880   2.931   3.669 -1.5777 -1.0964  0.2779
   82ANI     H3 1788   0.892   2.755   3.661 -1.6700 -0.7209 -0.7375
   82ANI     H4 1789   0.695   2.687   3.720 -0.5329 -0.0499  0.4037
   82ANI     H5 1790   0.469   2.593   3.751  2.4276 -0.3615  0.1756
   82ANI     H6 1791   0.296   2.625   3.570 -0.1788  0.2380  0.4207
   82ANI     H7 1792   0.359   2.745   3.368  0.8910  2.5436 -0.8793
   82ANI     H8 1793   0.582   2.867   3.356  2.4090 -0.4578  1.3724
   83ANI     C1 1794   1.764   2.424   1.519  0.1600  0.3597  0.2015
   83ANI     O1 1795   1.786   2.289   1.539  0.0307  0.4196  0.5862
   83ANI     C2 1796   1.694   2.188   1.551  0.2018 -0.0709 -0.8586
   83ANI     C3 1797   1.741   2.057   1.554 -0.1111  0.4514 -0.0999
   83ANI     C4 1798   1.645   1.950   1.558  1.1413  0.2595  0.1079
   83ANI     C5 1799   1.503   1.977   1.580  0.1504 -0.2550 -0.1448
   83ANI     C6 1800   1.458   2.111   1.584  0.8737 -0.1991  0.1402
   83ANI     C7 1801   1.558   2.219   1.578  0.0765  0.3426 -0.0277
   83ANI     H1 1802   1.854   2.484   1.537 -1.1658  1.6527  2.8515
   83ANI     H2 1803   1.754   2.439   1.411 -0.1576  0.4674  0.2462
   83ANI     H3 1804   1.680   2.467   1.576  0.2928 -0.0050  0.6814
   83ANI     H4 1805   1.848   2.041   1.539 -0.2548 -0.9383  0.2488
   83ANI     H5 1806   1.683   1.849   1.565  1.3091  0.3985  1.2151
   83ANI     H6 1807   1.439   1.890   1.585  1.0139 -0.7908  2.1119
   83ANI     H7 1808   1.353   2.136   1.597  0.9535 -1.0885  2.7009
   83ANI     H8 1809   1.527   2.320   1.605 -2.9993 -0.8767  1.1169
   84ANI     C1 1810   0.084   2.286   0.359 -0.1244 -0.3899  0.0521
   84ANI     O1 1811   0.007   2.395   0.318  0.4282  0.0449 -0.0294
   84ANI     C2 1812  -0.123   2.384   0.265  0.6409  0.3251  0.2072
   84ANI     C3 1813  -0.193   2.263   0.261 -0.1948 -0.0384 -0.1081
   84ANI     C4 1814  -0.324   2.268   0.218  0.1925  0.0740  0.0039
   84ANI     C5 1815  -0.388   2.386   0.180  0.6111  0.3636 -0.7205
   84ANI     C6 1816  -0.314   2.502   0.169  0.6370  0.3139  0.1532
   84ANI     C7 1817  -0.181   2.498   0.210  0.4276 -0.3421  0.4659
   84ANI     H1 1818   0.182   2.325   0.389 -1.3914  0.8776  2.7201
   84ANI     H2 1819   0.051   2.256   0.459  0.1073  1.9519  0.8689
   84ANI     H3 1820   0.094   2.206   0.285  1.5443 -1.1826  1.1017
   84ANI     H4 1821  -0.151   2.174   0.308  1.3359 -0.9518 -3.0724
   84ANI     H5 1822  -0.379   2.178   0.243 -0.9737  1.2531  1.7521
   84ANI     H6 1823  -0.493   2.382   0.156  0.7830 -2.0516 -1.1797
   84ANI     H7 1824  -0.354   2.589   0.118 -0.8902 -0.5603 -0.1773
   84ANI     H8 1825  -0.125   2.590   0.203 -0.3488  0.1014 -0.0203
   85ANI     C1 1826   0.726   2.065   0.604 -0.3658  0.0295 -0.6265
   85ANI     O1 1827   0.644   1.982   0.517 -0.3415 -0.0314 -0.3161
   85ANI     C2 1828   0.669   1.973   0.383 -0.2300  0.2740 -0.4144
   85ANI     C3 1829   0.756   2.064   0.321  0.1476 -0.1423 -0.2393
   85ANI     C4 1830   0.794   2.051   0.188  0.1256  0.4816 -0.2672
   85ANI     C5 1831   0.741   1.950   0.106 -0.3255  0.2805  0.5266
   85ANI     C6 1832   0.635   1.867   0.163  0.0526  0.1004  0.4614
   85ANI     C7 1833   0.603   1.879   0.300  0.0942  0.0627  0.1177
   85ANI     H1 1834   0.713   2.174   0.610  1.9931  0.3464 -0.8589
   85ANI     H2 1835   0.681   2.046   0.702  0.6765  0.0288 -0.1411
   85ANI     H3 1836   0.830   2.032   0.596  0.4567  2.3667 -0.0963
   85ANI     H4 1837   0.807   2.145   0.374 -3.0419 -0.0050  2.8053
   85ANI     H5 1838   0.870   2.117   0.147  0.1323  0.2133 -0.6875
   85ANI     H6 1839   0.774   1.927   0.005  0.6381 -0.7239  1.0670
   85ANI     H7 1840   0.593   1.785   0.106  1.1201 -0.0646 -0.1064
   85ANI     H8 1841   0.533   1.814   0.351 -0.8394  0.8326 -0.1747
   86ANI     C1 1842   2.660   1.420   0.129  0.0982  0.5905 -0.3928
   86ANI     O1 1843   2.561   1.424   0.234  0.4089 -0.1145  0.1229
   86ANI     C2 1844   2.422   1.411   0.210  0.2377  0.2510 -0.0632
   86ANI     C3 1845   2.337   1.443   0.313  0.2931  0.4562  0.1178
   86ANI     C4 1846   2.198   1.424   0.286  0.0094 -0.3566 -0.1038
   86ANI     C5 1847   2.147   1.394   0.160  0.2632 -0.1855 -0.5290
   86ANI     C6 1848   2.233   1.368   0.055 -0.2823 -0.4426 -0.5720
   86ANI     C7 1849   2.368   1.372   0.085  0.3346  0.0054 -0.1875
   86ANI     H1 1850   2.759   1.444   0.170  0.3405 -0.4113 -0.3852
   86ANI     H2 1851   2.653   1.321   0.083  1.3051  0.0572  0.5673
   86ANI     H3 1852   2.645   1.493   0.048 -0.2895 -0.4262 -1.2404
   86ANI     H4 1853   2.388   1.474   0.404 -1.1833 -0.6147  1.3248
   86ANI     H5 1854   2.127   1.444   0.365  0.1802 -0.5854  0.1073
   86ANI     H6 1855   2.041   1.373   0.146  0.0079  0.0212  1.0362
   86ANI     H7 1856   2.199   1.345  -0.046  1.5440  0.1532 -1.3612
   86ANI     H8 1857   2.440   1.343   0.010  0.0176 -2.5707  0.4429
   87ANI     C1 1858   2.046   1.725   0.407  0.9147 -0.3689 -0.0714
   87ANI     O1 1859   1.906   1.755   0.376 -0.4391  0.3002  0.3154
   87ANI     C2 1860   1.870   1.794   0.246 -0.2880  0.4296 -0.9428
   87ANI     C3 1861   1.735   1.810   0.213  0.2144  0.2012 -0.1525
   87ANI     C4 1862   1.684   1.817   0.080 -0.3125  0.0130  0.8389
   87ANI     C5 1863   1.776   1.815  -0.026 -0.0269  0.4693 -0.3518
   87ANI     C6 1864   1.909   1.824   0.005 -0.7742  0.4551 -0.7774
   87ANI     C7 1865   1.962   1.801   0.139 -0.1004  0.1698 -0.4278
   87ANI     H1 1866   2.057   1.690   0.510 -1.2158  1.4692  0.8320
   87ANI     H2 1867   2.102   1.657   0.341  1.5149 -0.5993  0.6646
   87ANI     H3 1868   2.094   1.823   0.410  0.6511 -0.2727  1.0402
   87ANI     H4 1869   1.660   1.800   0.292  0.1083 -0.0372 -0.2822
   87ANI     H5 1870   1.580   1.811   0.050  0.3469 -0.7319 -1.3922
   87ANI     H6 1871   1.742   1.820  -0.130 -0.3806 -1.0513 -0.3206
   87ANI     H7 1872   1.971   1.836  -0.083 -0.0015  0.0905 -0.2782
   87ANI     H8 1873   2.070   1.804   0.156 -0.0239  0.3942 -0.9315
   88ANI     C1 1874   0.227   3.137   2.303  0.4768 -0.0452  0.2344
   88ANI     O1 1875   0.210   3.272   2.249 -0.6127  0.0024  0.2716
   88ANI     C2 1876   0.300   3.373   2.246 -0.0418  0.0442  0.5750
   88ANI     C3 1877   0.436   3.350   2.275  0.2161 -0.3009 -0.0150
   88ANI     C4 1878   0.518   3.465   2.285  0.0716  0.0027  0.8915
   88ANI     C5 1879   0.466   3.598   2.276  0.3905 -0.2029  0.0815
   88ANI     C6 1880   0.329   3.615   2.249  0.2201  0.2781  0.4775
   88ANI     C7 1881   0.250   3.505   2.217  0.7161  0.0675 -0.5016
   88ANI     H1 1882   0.232   3.144   2.412  2.2336  3.1118  0.0290
   88ANI     H2 1883   0.139   3.075   2.281 -0.8584  2.4318 -1.6736
   88ANI     H3 1884   0.322   3.093   2.271  0.5748 -0.3453  0.9296
   88ANI     H4 1885   0.473   3.250   2.299  1.8006  0.2319 -0.1324
   88ANI     H5 1886   0.625   3.453   2.296  0.3020 -0.8125 -1.7849
   88ANI     H6 1887   0.533   3.682   2.289  1.9402 -1.7859  2.7093
   88ANI     H7 1888   0.284   3.713   2.241 -2.7531 -1.0759  0.0495
   88ANI     H8 1889   0.143   3.508   2.198  0.1891 -2.0473  1.8953
   89ANI     C1 1890   0.356   2.021   2.916 -0.8702  1.0466  0.0110
   89ANI     O1 1891   0.359   1.909   2.823  0.2455  0.0242  0.1084
   89ANI     C2 1892   0.247   1.877   2.745  0.0281  0.3111  0.5147
   89ANI     C3 1893   0.120   1.923   2.777  0.4241  0.6571 -0.2356
   89ANI     C4 1894   0.005   1.905   2.699  0.1885  0.2689 -0.2101
   89ANI     C5 1895   0.028   1.832   2.581  0.1805 -0.5590  0.0410
   89ANI     C6 1896   0.161   1.791   2.547  0.2111  0.6662  0.1858
   89ANI     C7 1897   0.271   1.809   2.632 -0.1668 -0.2699 -0.7748
   89ANI     H1 1898   0.286   2.009   3.000  1.5652  3.6344  2.5505
   89ANI     H2 1899   0.457   2.027   2.960 -1.5726  2.1720  1.5416
   89ANI     H3 1900   0.322   2.116   2.873 -0.7861  0.3504 -1.6253
   89ANI     H4 1901   0.097   1.975   2.870 -2.1790  0.8580 -0.9625
   89ANI     H5 1902  -0.096   1.934   2.728 -0.2258 -1.1570 -0.1431
   89ANI     H6 1903  -0.051   1.818   2.508 -0.5257 -0.7747  0.8350
   89ANI     H7 1904   0.175   1.739   2.453  2.9088  0.9519  0.4038
   89ANI     H8 1905   0.372   1.783   2.601 -0.8257 -1.3151 -2.0742
   90ANI     C1 1906   1.198   3.342   2.250  0.0400  0.2428 -0.2429
   90ANI     O1 1907   1.299   3.245   2.233 -0.2773  0.2406 -0.4994
   90ANI     C2 1908   1.414   3.244   2.312  0.0737  0.2719 -0.6094
   90ANI     C3 1909   1.426   3.322   2.432 -0.1419 -0.8829 -0.1057
   90ANI     C4 1910   1.554   3.336   2.493  0.3911  0.1686 -0.6676
   90ANI     C5 1911   1.663   3.252   2.458  0.1620 -0.8110  0.5851
   90ANI     C6 1912   1.640   3.156   2.355  0.3726  0.1819 -0.2097
   90ANI     C7 1913   1.518   3.156   2.283  0.2824  0.2556 -0.0852
   90ANI     H1 1914   1.176   3.354   2.357 -0.7159  1.5306 -0.5364
   90ANI     H2 1915   1.231   3.441   2.216 -0.9333  0.6263 -0.0818
   90ANI     H3 1916   1.104   3.319   2.200  0.0231  2.2499 -1.1614
   90ANI     H4 1917   1.347   3.377   2.483  1.1696 -0.8040  1.8973
   90ANI     H5 1918   1.558   3.416   2.567 -0.8296 -0.9779  0.6561
   90ANI     H6 1919   1.763   3.268   2.499  0.4127  1.3153 -0.7549
   90ANI     H7 1920   1.716   3.080   2.336  1.6157  0.6303  2.6527
   90ANI     H8 1921   1.506   3.082   2.205  1.5565 -0.8146  0.7057
   91ANI     C1 1922   3.136   2.302   3.540 -0.4538  0.6805 -0.0004
   91ANI     O1 1923   3.050   2.216   3.610  0.4667  0.2484 -0.3276
   91ANI     C2 1924   2.930   2.261   3.659  0.2722  0.0768 -0.2003
   91ANI     C3 1925   2.891   2.400   3.670  0.0648 -0.0350 -0.7622
   91ANI     C4 1926   2.768   2.434   3.721 -0.0703  0.5898  0.1786
   91ANI     C5 1927   2.692   2.339   3.784  0.3504  0.3545  1.0989
   91ANI     C6 1928   2.727   2.203   3.787  0.3389 -0.2412  0.2121
   91ANI     C7 1929   2.848   2.161   3.715 -0.2948  0.2462  0.8182
   91ANI     H1 1930   3.179   2.386   3.595  0.7278 -1.7620  2.9505
   91ANI     H2 1931   3.213   2.242   3.490 -1.8103 -0.6356 -0.5606
   91ANI     H3 1932   3.083   2.358   3.462  1.9477  1.5805 -1.0119
   91ANI     H4 1933   2.963   2.476   3.641  0.1281  0.6694  1.1822
   91ANI     H5 1934   2.731   2.536   3.718 -0.6839  0.5376  4.0981
   91ANI     H6 1935   2.599   2.379   3.825 -0.4372 -0.8987  0.5637
   91ANI     H7 1936   2.662   2.128   3.831 -3.0386  2.5505  0.1597
   91ANI     H8 1937   2.880   2.058   3.706 -1.7619  0.0717 -2.9274
   92ANI     C1 1938   0.477   0.328   1.183  0.1276  0.0311  0.1180
   92ANI     O1 1939   0.508   0.397   1.303 -0.3061  0.7272  0.2294
   92ANI     C2 1940   0.536   0.531   1.315  0.2861  0.0351  1.0667
   92ANI     C3 1941   0.496   0.618   1.214  0.0888  0.1480  0.5253
   92ANI     C4 1942   0.542   0.748   1.218 -0.5643 -0.6317 -0.1930
   92ANI     C5 1943   0.610   0.793   1.340  0.3343 -0.0868  0.6105
   92ANI     C6 1944   0.631   0.702   1.448 -0.2549 -1.2792  0.1447
   92ANI     C7 1945   0.592   0.571   1.436 -0.1015 -0.1281  1.2224
   92ANI     H1 1946   0.378   0.345   1.140  0.4864  2.8992  0.3327
   92ANI     H2 1947   0.550   0.349   1.104  0.7766 -1.9386  0.1668
   92ANI     H3 1948   0.497   0.223   1.208 -0.0354 -0.4267 -1.6441
   92ANI     H4 1949   0.447   0.593   1.120  2.2200  2.5926 -1.3074
   92ANI     H5 1950   0.515   0.817   1.138 -2.6277  0.9367  1.7672
   92ANI     H6 1951   0.647   0.895   1.346  1.1279 -0.3850  0.7740
   92ANI     H7 1952   0.686   0.729   1.538  1.2753 -0.3355 -1.0491
   92ANI     H8 1953   0.624   0.497   1.509 -1.7516 -2.3954 -0.2697
   93ANI     C1 1954   1.636   3.273   1.241  0.3370  0.3085  0.2775
   93ANI     O1 1955   1.692   3.401   1.214  0.0690  0.4433  0.1345
   93ANI     C2 1956   1.653   3.481   1.106  0.0020 -0.8353 -0.4346
   93ANI     C3 1957   1.732   3.598   1.077 -0.3162  0.1986  0.2429
   93ANI     C4 1958   1.702   3.683   0.975  0.0072 -0.2155 -0.0796
   93ANI     C5 1959   1.593   3.648   0.893 -0.4959 -0.8165  0.1090
   93ANI     C6 1960   1.512   3.536   0.915  0.4643 -0.3457  0.6505
   93ANI     C7 1961   1.542   3.451   1.026  1.0571 -0.7701 -0.5688
   93ANI     H1 1962   1.627   3.205   1.155 -0.3933 -0.7519  1.1808
   93ANI     H2 1963   1.689   3.216   1.319  0.7393  1.8138  1.1312
   93ANI     H3 1964   1.536   3.287   1.283  1.4037  1.5104  2.5468
   93ANI     H4 1965   1.824   3.601   1.134 -1.0297 -1.9583  1.5599
   93ANI     H5 1966   1.776   3.756   0.942 -1.5879  0.7069 -1.7204
   93ANI     H6 1967   1.567   3.700   0.802  0.2680 -2.5354 -1.1220
   93ANI     H7 1968   1.434   3.503   0.848  0.1517 -1.2643  1.4587
   93ANI     H8 1969   1.486   3.359   1.038  0.1547 -0.2861 -1.0719
   94ANI     C1 1970   0.587   1.167   1.545 -0.1601  0.3232 -0.2083
   94ANI     O1 1971   0.452   1.216   1.560 -0.0318 -0.3868  1.0813
   94ANI     C2 1972   0.346   1.131   1.549 -0.3063 -0.0604  0.1192
   94ANI     C3 1973   0.364   0.992   1.538  0.3974  0.0342 -0.0730
   94ANI     C4 1974   0.254   0.909   1.536  0.2342 -0.1338 -0.6467
   94ANI     C5 1975   0.125   0.966   1.543  0.5019 -0.9009 -0.8523
   94ANI     C6 1976   0.101   1.101   1.541 -0.4789  0.0498 -0.3592
   94ANI     C7 1977   0.214   1.187   1.552  0.0886 -0.2857 -0.0879
   94ANI     H1 1978   0.667   1.243   1.548  0.1493  0.0730 -1.7934
   94ANI     H2 1979   0.603   1.090   1.621  0.2194 -0.6238 -1.2371
   94ANI     H3 1980   0.605   1.121   1.448 -2.3543 -0.2099 -0.3709
   94ANI     H4 1981   0.463   0.946   1.542 -0.1296 -1.0144  1.7430
   94ANI     H5 1982   0.265   0.801   1.547  0.1324  0.0210  1.0446
   94ANI     H6 1983   0.040   0.898   1.551 -0.2535  0.1114 -0.2310
   94ANI     H7 1984  -0.001   1.138   1.543 -0.3623  0.3432  0.2478
   94ANI     H8 1985   0.197   1.294   1.547  1.4166  0.0765  2.4051
   95ANI     C1 1986   1.501   0.775   1.550  0.2827  0.3571  0.5937
   95ANI     O1 1987   1.636   0.781   1.508  0.1582  0.7431 -0.4432
   95ANI     C2 1988   1.692   0.674   1.437  0.1583  0.3455  0.4213
   95ANI     C3 1989   1.829   0.671   1.424 -0.0077 -0.5985 -1.3733
   95ANI     C4 1990   1.892   0.566   1.353 -0.4078 -0.7946 -0.2785
   95ANI     C5 1991   1.807   0.471   1.295 -0.6863 -0.1403 -0.6932
   95ANI     C6 1992   1.670   0.471   1.302  0.7725 -0.4075  0.3100
   95ANI     C7 1993   1.608   0.575   1.377 -0.3539 -0.7979  0.2549
   95ANI     H1 1994   1.484   0.682   1.606  1.6288 -0.7067 -0.7033
   95ANI     H2 1995   1.478   0.859   1.616  1.7520  0.2384  1.2663
   95ANI     H3 1996   1.435   0.776   1.462 -1.7460  1.2594  2.0795
   95ANI     H4 1997   1.891   0.747   1.471 -0.8730  0.4610 -1.9234
   95ANI     H5 1998   1.999   0.551   1.343 -0.8923 -5.5148  0.3862
   95ANI     H6 1999   1.848   0.389   1.237  0.1654  2.1426 -3.3559
   95ANI     H7 2000   1.607   0.401   1.248 -0.4539 -1.8124  3.4520
   95ANI     H8 2001   1.505   0.561   1.405 -0.2490  2.1650  2.3310
   96ANI     C1 2002   1.856   0.982   0.620  0.2643 -0.9763  0.3370
   96ANI     O1 2003   1.889   1.026   0.485  0.0200  0.8194 -0.7969
   96ANI     C2 2004   1.877   1.151   0.436 -1.0066  0.1255  0.3131
   96ANI     C3 2005   1.871   1.261   0.524 -0.1532 -0.4976 -0.7474
   96ANI     C4 2006   1.835   1.387   0.464 -1.1749  0.3397  0.4087
   96ANI     C5 2007   1.816   1.396   0.325  0.4396  0.1504 -0.9009
   96ANI     C6 2008   1.820   1.291   0.239  0.2189  0.2484 -0.4910
   96ANI     C7 2009   1.858   1.165   0.295 -0.2646  0.6252  0.1455
   96ANI     H1 2010   1.889   0.877   0.626  0.8525 -1.0899 -3.2856
   96ANI     H2 2011   1.913   1.031   0.699  2.0234 -0.2402 -1.3375
   96ANI     H3 2012   1.747   0.985   0.629  0.2300 -3.8265  1.3831
   96ANI     H4 2013   1.873   1.241   0.630 -1.9907 -1.5768 -0.8874
   96ANI     H5 2014   1.812   1.464   0.537  0.0625 -0.1827  1.3751
   96ANI     H6 2015   1.778   1.483   0.271  1.0635  0.0104 -1.5632
   96ANI     H7 2016   1.783   1.309   0.139  0.0669 -0.3303 -0.5424
   96ANI     H8 2017   1.854   1.082   0.226  0.5273  2.8969 -2.7388
   97ANI     C1 2018   1.225   3.115   3.540 -0.8036  0.0395  0.9173
   97ANI     O1 2019   1.202   3.030   3.428  0.2368 -0.2951 -0.3786
   97ANI     C2 2020   1.145   3.082   3.313  0.3203  0.4446 -0.6367
   97ANI     C3 2021   1.197   3.207   3.257  0.6071  0.2951  0.9065
   97ANI     C4 2022   1.146   3.259   3.141  0.1557  0.3986 -0.4360
   97ANI     C5 2023   1.045   3.180   3.078  0.2792  0.3222  0.3790
   97ANI     C6 2024   0.990   3.055   3.130 -0.3990  0.2497 -0.5917
   97ANI     C7 2025   1.044   3.007   3.249  1.2506 -0.2438 -0.6301
   97ANI     H1 2026   1.222   3.044   3.624 -0.0990 -2.0686 -0.8007
   97ANI     H2 2027   1.323   3.162   3.525 -1.7937  2.0774  0.6165
   97ANI     H3 2028   1.148   3.192   3.552  0.1205  0.8504  1.7574
   97ANI     H4 2029   1.271   3.263   3.313 -0.2987  0.8892  1.5348
   97ANI     H5 2030   1.181   3.350   3.094 -0.6123  0.7963 -0.2400
   97ANI     H6 2031   1.010   3.215   2.982 -0.9978  0.4592  0.8846
   97ANI     H7 2032   0.922   2.999   3.068  0.8603 -1.2707 -0.6431
   97ANI     H8 2033   1.004   2.913   3.284 -2.1100  1.3563  0.0909
   98ANI     C1 2034   1.777   3.185   0.910 -0.2710 -0.3221 -0.5271
   98ANI     O1 2035   1.831   3.166   0.781 -0.3136 -0.3624  0.5130
   98ANI     C2 2036   1.862   3.276   0.697 -0.0777  1.2130 -0.7309
   98ANI     C3 2037   1.935   3.255   0.581 -0.1266 -0.2948  0.1221
   98ANI     C4 2038   1.966   3.359   0.494 -0.2154 -0.1481 -0.3762
   98ANI     C5 2039   1.925   3.485   0.519 -0.2224  0.0474  0.4711
   98ANI     C6 2040   1.847   3.513   0.632 -1.1656 -0.0372  0.1800
   98ANI     C7 2041   1.817   3.404   0.723  0.0478  0.5008 -0.7394
   98ANI     H1 2042   1.842   3.239   0.980 -1.9648  2.1615 -0.8321
   98ANI     H2 2043   1.687   3.247   0.909  1.0178  1.5882  0.6391
   98ANI     H3 2044   1.736   3.098   0.963  0.6820 -0.9467 -0.7886
   98ANI     H4 2045   1.972   3.155   0.561 -1.3701 -0.9272  0.9283
   98ANI     H5 2046   2.030   3.342   0.408 -0.7703 -0.2422 -0.7739
   98ANI     H6 2047   1.951   3.566   0.451 -2.0161  1.8584  1.8514
   98ANI     H7 2048   1.807   3.613   0.650  1.5024  0.9683  0.7269
   98ANI     H8 2049   1.740   3.424   0.796  1.8653  1.4577  0.9450
   99ANI     C1 2050   1.791   0.194   2.265  0.5055  0.5336  0.2148
   99ANI     O1 2051   1.727   0.309   2.231 -0.1346  0.7450 -0.2422
   99ANI     C2 2052   1.598   0.325   2.249 -0.0998  0.1149 -0.2100
   99ANI     C3 2053   1.507   0.233   2.300  0.0949  0.6786  0.3604
   99ANI     C4 2054   1.369   0.261   2.304  0.3755 -0.3207  0.6553
   99ANI     C5 2055   1.320   0.384   2.253  0.6187 -0.3104 -0.2752
   99ANI     C6 2056   1.415   0.475   2.205  0.2500 -0.4000  0.4930
   99ANI     C7 2057   1.552   0.445   2.213  0.6311  0.3800 -0.1906
   99ANI     H1 2058   1.788   0.164   2.371 -0.3322 -0.5932 -0.1158
   99ANI     H2 2059   1.748   0.111   2.206  1.3801 -0.6006  1.1511
   99ANI     H3 2060   1.890   0.205   2.221  0.0190  0.7246 -0.8564
   99ANI     H4 2061   1.540   0.137   2.339  1.3554  0.3430 -1.4747
   99ANI     H5 2062   1.314   0.184   2.358 -0.4000  1.2754  2.2004
   99ANI     H6 2063   1.213   0.399   2.248  0.7414  0.4002 -0.9263
   99ANI     H7 2064   1.383   0.571   2.165 -2.9765 -1.0639  1.3740
   99ANI     H8 2065   1.619   0.521   2.172  0.3477  0.9553  0.3965
  100ANI     C1 2066   1.633   2.289   1.209  0.5656 -0.2856 -0.4277
  100ANI     O1 2067   1.513   2.361   1.226  0.5071  0.5285  0.0868
  100ANI     C2 2068   1.483   2.474   1.157  0.9361  0.0782 -0.1963
  100ANI     C3 2069   1.520   2.494   1.026  0.5984  0.1380  0.1485
  100ANI     C4 2070   1.477   2.595   0.944  0.3346  0.1407 -0.1044
  100ANI     C5 2071   1.406   2.700   1.003  0.0263 -0.1410 -0.2014
  100ANI     C6 2072   1.359   2.683   1.137  0.8242  0.5126 -0.2054
  100ANI     C7 2073   1.400   2.568   1.210 -0.1380 -0.5726  0.5754
  100ANI     H1 2074   1.641   2.201   1.275  0.9288 -0.1226 -0.2485
  100ANI     H2 2075   1.652   2.246   1.110 -0.2121  0.2732 -0.8185
  100ANI     H3 2076   1.718   2.357   1.221 -0.9482  1.2378  2.1935
  100ANI     H4 2077   1.573   2.409   0.984  3.2993  1.3588  0.9597
  100ANI     H5 2078   1.500   2.594   0.838  0.4256  1.4043 -0.1024
  100ANI     H6 2079   1.384   2.791   0.949 -2.0748 -1.5439 -1.7729
  100ANI     H7 2080   1.290   2.749   1.189  2.7521  2.3385  0.0723
  100ANI     H8 2081   1.362   2.553   1.310 -0.2851  2.4015  1.0137
  101ANI     C1 2082   2.603   3.128   0.631 -0.1630 -0.6619  0.4956
  101ANI     O1 2083   2.573   3.253   0.587 -0.1305  0.2991  0.1475
  101ANI     C2 2084   2.497   3.272   0.472  0.7742 -0.2259 -0.3187
  101ANI     C3 2085   2.426   3.171   0.408  0.3139 -0.0320 -0.4787
  101ANI     C4 2086   2.339   3.204   0.301  0.3530  0.1870  0.1642
  101ANI     C5 2087   2.325   3.334   0.253  0.8035 -0.3700  0.1816
  101ANI     C6 2088   2.402   3.435   0.318  0.6944 -0.6812  0.0043
  101ANI     C7 2089   2.490   3.406   0.420 -0.1587  0.2039  0.4876
  101ANI     H1 2090   2.648   3.064   0.553 -2.1204 -1.0022 -0.3977
  101ANI     H2 2091   2.676   3.117   0.711 -0.4746  0.5201  0.9510
  101ANI     H3 2092   2.512   3.075   0.662 -0.5023  0.1979  0.9927
  101ANI     H4 2093   2.427   3.067   0.438 -1.0974  0.1140  0.0989
  101ANI     H5 2094   2.279   3.121   0.265  2.7528 -1.1702 -0.8293
  101ANI     H6 2095   2.250   3.356   0.177  1.0915 -1.1053 -0.3249
  101ANI     H7 2096   2.392   3.535   0.277  1.4071 -0.1152  1.1954
  101ANI     H8 2097   2.543   3.488   0.467  1.1533 -1.0364  1.1851
  102ANI     C1 2098   2.258   0.805   2.938  0.3637  0.2379 -0.9494
  102ANI     O1 2099   2.291   0.853   3.075  0.3117 -0.4409 -0.0005
  102ANI     C2 2100   2.222   0.947   3.146  1.1632  0.5627  0.0121
  102ANI     C3 2101   2.109   1.010   3.089  0.6569 -0.9820 -0.1285
  102ANI     C4 2102   2.037   1.090   3.180  0.0800 -0.3231  1.0491
  102ANI     C5 2103   2.092   1.121   3.308  0.2732  0.4361 -0.1090
  102ANI     C6 2104   2.200   1.050   3.358 -0.9306 -0.1251  1.3779
  102ANI     C7 2105   2.268   0.961   3.279 -0.5754  0.2734  0.1523
  102ANI     H1 2106   2.306   0.708   2.924 -0.3950 -0.1473 -0.8874
  102ANI     H2 2107   2.150   0.804   2.917 -0.1427 -1.3468  1.4937
  102ANI     H3 2108   2.295   0.871   2.859 -2.3631  1.3053 -1.4054
  102ANI     H4 2109   2.065   0.976   2.995 -1.2211  0.8928  0.0239
  102ANI     H5 2110   1.944   1.139   3.153  0.3365  0.2418  1.1838
  102ANI     H6 2111   2.045   1.194   3.373 -0.0491  1.0077 -0.9694
  102ANI     H7 2112   2.235   1.062   3.460  1.9029 -0.7125  0.5096
  102ANI     H8 2113   2.345   0.896   3.318  0.5703  2.1900  1.1869
  103ANI     C1 2114   0.776   0.538   1.071 -0.5729  0.0673  0.6626
  103ANI     O1 2115   0.868   0.542   0.964 -0.0730  0.0299 -0.9853
  103ANI     C2 2116   0.939   0.653   0.937  0.1809 -1.0918 -0.5455
  103ANI     C3 2117   0.895   0.783   0.986  0.7154 -0.3880 -0.1902
  103ANI     C4 2118   0.976   0.889   0.957  0.2019 -0.6232  0.3702
  103ANI     C5 2119   1.093   0.868   0.883 -0.8115  0.1275 -0.2676
  103ANI     C6 2120   1.126   0.747   0.828  0.2116 -0.2555 -0.1483
  103ANI     C7 2121   1.046   0.632   0.850 -0.5274  0.0059  0.3066
  103ANI     H1 2122   0.824   0.553   1.168  1.2437  1.2043 -0.3892
  103ANI     H2 2123   0.696   0.612   1.057  1.2467  1.9444  0.0166
  103ANI     H3 2124   0.729   0.439   1.079  1.1319 -0.7186  1.1786
  103ANI     H4 2125   0.810   0.800   1.050  1.0524  1.8572 -0.2910
  103ANI     H5 2126   0.953   0.981   1.011  0.1336 -0.7665  0.5850
  103ANI     H6 2127   1.154   0.952   0.851 -0.1290 -0.6457 -1.0199
  103ANI     H7 2128   1.208   0.734   0.758  0.0481  2.9183 -1.0110
  103ANI     H8 2129   1.073   0.534   0.811  0.7843  0.5848 -0.2840
  104ANI     C1 2130   2.774   2.802   3.494  0.1373 -0.0315  0.3895
  104ANI     O1 2131   2.867   2.733   3.408  0.2114  0.3279 -0.1522
  104ANI     C2 2132   2.947   2.799   3.322  0.0429 -0.4230  0.3625
  104ANI     C3 2133   3.048   2.723   3.260  0.3116  0.0406 -0.2430
  104ANI     C4 2134   3.136   2.779   3.160 -0.1619 -0.1042  0.0704
  104ANI     C5 2135   3.118   2.912   3.124 -0.2004  0.2132 -0.0578
  104ANI     C6 2136   3.023   2.990   3.194  0.2197  0.6076  0.1973
  104ANI     C7 2137   2.935   2.937   3.293 -0.4397  0.2210 -0.0326
  104ANI     H1 2138   2.687   2.740   3.520 -0.6272  0.5564 -0.7430
  104ANI     H2 2139   2.828   2.841   3.581 -1.0851  1.5150  0.4874
  104ANI     H3 2140   2.729   2.886   3.439 -0.9134 -0.2762  0.8559
  104ANI     H4 2141   3.052   2.616   3.276  0.8539  0.1557  0.3914
  104ANI     H5 2142   3.208   2.714   3.111 -0.9406 -1.4224  0.6402
  104ANI     H6 2143   3.174   2.961   3.045  0.4701  0.5962  0.6456
  104ANI     H7 2144   3.033   3.098   3.187 -2.7581  0.9104  0.1482
  104ANI     H8 2145   2.860   3.000   3.339  0.3269  0.7605  0.4936
  105ANI     C1 2146   2.654   0.946   1.393  0.2975 -0.1461 -0.1919
  105ANI     O1 2147   2.579   1.016   1.495 -0.7777  0.2837 -0.0324
  105ANI     C2 2148   2.463   1.091   1.465 -0.3938 -0.7640  0.4213
  105ANI     C3 2149   2.392   1.076   1.346 -0.1355  0.1532 -0.1374
  105ANI     C4 2150   2.281   1.159   1.319 -0.2492  0.0476 -0.5897
  105ANI     C5 2151   2.234   1.248   1.424  0.0422 -0.9831 -0.0086
  105ANI     C6 2152   2.302   1.269   1.537  0.3758 -0.0979  0.1485
  105ANI     C7 2153   2.420   1.192   1.558 -1.1981 -0.2613 -0.0227
  105ANI     H1 2154   2.587   0.864   1.364 -1.1955  1.1803 -0.5417
  105ANI     H2 2155   2.676   1.009   1.306 -3.4258 -0.7239 -1.6228
  105ANI     H3 2156   2.748   0.905   1.433  1.5410  1.0919 -1.7856
  105ANI     H4 2157   2.429   1.012   1.267  1.9811  1.6572 -0.4062
  105ANI     H5 2158   2.228   1.150   1.225 -2.2469 -1.1996  0.6235
  105ANI     H6 2159   2.147   1.311   1.405 -0.2676 -1.3327  0.2415
  105ANI     H7 2160   2.265   1.331   1.618 -0.7729 -1.5493  0.7750
  105ANI     H8 2161   2.465   1.205   1.656 -1.2493  2.2895 -0.3107
  106ANI     C1 2162   0.177   2.819   3.113 -0.3751  0.5144 -0.4129
  106ANI     O1 2163   0.271   2.786   3.014  0.0562 -0.7385 -0.5946
  106ANI     C2 2164   0.397   2.846   3.008 -0.4925  0.6111 -0.3720
  106ANI     C3 2165   0.443   2.949   3.098  0.1422  0.9715 -0.1684
  106ANI     C4 2166   0.562   3.017   3.069  0.3168  0.4052  0.3411
  106ANI     C5 2167   0.649   2.986   2.962  0.0430 -0.1019  0.7409
  106ANI     C6 2168   0.596   2.887   2.871 -0.3228 -0.8010 -0.0139
  106ANI     C7 2169   0.476   2.822   2.898 -0.3762 -0.9522  0.6877
  106ANI     H1 2170   0.077   2.774   3.102 -0.0187  0.0211 -1.6664
  106ANI     H2 2171   0.227   2.792   3.207 -1.0698  1.6599  0.3157
  106ANI     H3 2172   0.158   2.927   3.114  1.1936  0.8109 -1.7125
  106ANI     H4 2173   0.391   2.990   3.184  1.3694 -0.4566  1.2813
  106ANI     H5 2174   0.595   3.098   3.133 -0.1407  0.0473  1.0375
  106ANI     H6 2175   0.738   3.044   2.940 -1.5753  2.1470 -0.1780
  106ANI     H7 2176   0.651   2.861   2.781  0.5086 -0.3076  0.3384
  106ANI     H8 2177   0.434   2.759   2.821  0.4030 -1.3376  0.5717
  107ANI     C1 2178   3.239   0.040   2.974  0.5139  1.1068  0.0550
  107ANI     O1 2179   3.188  -0.077   2.902 -0.6573  0.3251  0.1249
  107ANI     C2 2180   3.118  -0.068   2.783 -0.3619  0.1193 -0.8409
  107ANI     C3 2181   3.102  -0.188   2.709  0.3634  0.0895  0.2262
  107ANI     C4 2182   3.039  -0.185   2.591  0.4631 -0.3490  0.4414
  107ANI     C5 2183   2.982  -0.062   2.539  0.6676 -0.1857  0.4205
  107ANI     C6 2184   2.995   0.051   2.615 -0.2840  0.5747  0.6472
  107ANI     C7 2185   3.068   0.053   2.735  0.3190 -0.6265 -0.3663
  107ANI     H1 2186   3.298   0.114   2.917  2.8991 -0.3149  0.6143
  107ANI     H2 2187   3.157   0.092   3.024 -0.7360 -1.2936  0.5334
  107ANI     H3 2188   3.300  -0.010   3.050 -0.3070 -1.2853 -0.8102
  107ANI     H4 2189   3.136  -0.285   2.743 -2.4852 -1.1929 -0.4549
  107ANI     H5 2190   3.032  -0.274   2.529 -0.4123  0.1466 -0.2034
  107ANI     H6 2191   2.933  -0.066   2.442  1.0383 -0.7101  0.2530
  107ANI     H7 2192   2.957   0.149   2.590  0.2376  0.4764 -0.5348
  107ANI     H8 2193   3.067   0.144   2.794 -0.4883 -1.5982  1.1491
  108ANI     C1 2194   0.075   0.917   3.016 -0.2006  0.2202 -0.2702
  108ANI     O1 2195   0.141   1.041   3.001 -0.2565  0.0848  0.1923
  108ANI     C2 2196   0.113   1.157   3.073  0.4508  0.1073  0.0359
  108ANI     C3 2197   0.201   1.269   3.066 -0.8895  0.1628 -0.6712
  108ANI     C4 2198   0.170   1.385   3.146 -0.1245 -0.7831 -0.9246
  108ANI     C5 2199   0.064   1.378   3.241  0.4315 -0.0134  0.1231
  108ANI     C6 2200  -0.016   1.268   3.252 -0.2317 -0.3731 -0.4934
  108ANI     C7 2201   0.004   1.156   3.168 -0.2598  0.3418 -0.3441
  108ANI     H1 2202   0.076   0.876   3.117 -0.3906 -0.8371 -0.6899
  108ANI     H2 2203  -0.032   0.935   3.000 -0.4199 -0.9724 -0.1413
  108ANI     H3 2204   0.104   0.843   2.940 -0.1413  1.1132 -1.1375
  108ANI     H4 2205   0.282   1.272   2.994  1.8579 -1.4996  2.2151
  108ANI     H5 2206   0.234   1.471   3.134  1.7951 -2.2788 -1.5693
  108ANI     H6 2207   0.048   1.465   3.304  0.1713  0.6119 -0.7844
  108ANI     H7 2208  -0.090   1.274   3.331 -0.4168 -0.0757 -0.6874
  108ANI     H8 2209  -0.055   1.066   3.178  0.8210 -0.6306 -2.5043
  109ANI     C1 2210   0.808   1.659   1.557 -0.0642  0.3397 -0.3539
  109ANI     O1 2211   0.881   1.780   1.548  0.6135 -0.1187  0.0380
  109ANI     C2 2212   0.822   1.902   1.550 -0.1812  0.4080 -0.1392
  109ANI     C3 2213   0.683   1.922   1.543  0.2415  0.0481  0.7424
  109ANI     C4 2214   0.633   2.051   1.543 -0.3838  0.1711  0.3872
  109ANI     C5 2215   0.717   2.164   1.555 -0.1795  0.4685 -0.1856
  109ANI     C6 2216   0.855   2.141   1.569  0.1885  0.3271 -0.5136
  109ANI     C7 2217   0.909   2.010   1.561 -0.0099  0.5677  0.6603
  109ANI     H1 2218   0.745   1.651   1.467  0.5926  0.6162 -0.8439
  109ANI     H2 2219   0.882   1.578   1.563  2.0246  2.2604  0.7099
  109ANI     H3 2220   0.741   1.653   1.644  1.1851 -1.1635  0.5463
  109ANI     H4 2221   0.612   1.841   1.529  1.6074 -1.0688  0.1841
  109ANI     H5 2222   0.528   2.077   1.538  0.3171  2.7905 -2.2578
  109ANI     H6 2223   0.680   2.266   1.566  0.2918  0.3333  3.2516
  109ANI     H7 2224   0.929   2.220   1.580  1.1380 -0.3485 -1.8317
  109ANI     H8 2225   1.015   1.992   1.578 -0.0891 -0.2217  0.3644
  110ANI     C1 2226   2.884   2.206   1.188 -0.0024  0.1658 -0.4518
  110ANI     O1 2227   2.869   2.128   1.063 -0.2247 -0.0305  0.0731
  110ANI     C2 2228   2.865   1.989   1.061  0.7568 -0.4814 -0.2572
  110ANI     C3 2229   2.818   1.904   1.164  0.7446 -0.5688  0.9881
  110ANI     C4 2230   2.823   1.771   1.151  0.2440  0.1292 -0.4289
  110ANI     C5 2231   2.882   1.709   1.041 -0.1595  0.6585  0.1200
  110ANI     C6 2232   2.935   1.791   0.936  0.1049 -0.5768 -0.2172
  110ANI     C7 2233   2.913   1.931   0.947 -0.1553  0.3422  0.1265
  110ANI     H1 2234   2.941   2.145   1.259 -3.7336 -0.3742  2.1949
  110ANI     H2 2235   2.936   2.300   1.165  1.3025 -1.2988 -3.9281
  110ANI     H3 2236   2.784   2.227   1.225 -0.5110  0.1843 -1.7980
  110ANI     H4 2237   2.797   1.943   1.263 -0.5493 -1.0385  0.9044
  110ANI     H5 2238   2.790   1.705   1.230  0.0727  0.3839 -0.2866
  110ANI     H6 2239   2.889   1.601   1.031 -2.4657  0.0860  3.7657
  110ANI     H7 2240   2.987   1.741   0.856 -0.8337 -1.5280 -0.2483
  110ANI     H8 2241   2.953   2.002   0.875  0.4645 -1.0937 -0.9727
  111ANI     C1 2242   2.466   2.706   0.929  0.0252 -0.6289  0.3042
  111ANI     O1 2243   2.408   2.574   0.932 -0.3149  0.0609  0.0390
  111ANI     C2 2244   2.294   2.537   0.858 -0.3075 -0.2744 -0.2785
  111ANI     C3 2245   2.239   2.627   0.758 -0.2914  0.5063 -0.3253
  111ANI     C4 2246   2.126   2.592   0.687  0.7773 -0.1284  0.8489
  111ANI     C5 2247   2.052   2.474   0.727  0.0363 -0.6333  1.0743
  111ANI     C6 2248   2.102   2.381   0.818  0.1398  0.2107  0.1488
  111ANI     C7 2249   2.225   2.419   0.882 -0.4900 -0.3526  0.0052
  111ANI     H1 2250   2.554   2.727   0.990 -0.0331  1.3375 -0.2386
  111ANI     H2 2251   2.489   2.736   0.826 -1.8822  0.4456  0.1714
  111ANI     H3 2252   2.393   2.782   0.961 -0.5846 -1.0691 -0.0170
  111ANI     H4 2253   2.278   2.727   0.746  1.1147  0.0771  0.5169
  111ANI     H5 2254   2.088   2.655   0.608 -0.1256 -1.3588  0.2975
  111ANI     H6 2255   1.953   2.459   0.684  0.4899 -1.3608  0.2696
  111ANI     H7 2256   2.051   2.289   0.844  2.6547 -2.0162 -2.4102
  111ANI     H8 2257   2.283   2.349   0.942  0.4825  1.3109  1.0556
  112ANI     C1 2258   2.715   0.512   0.606 -0.3813 -0.1704 -0.0315
  112ANI     O1 2259   2.778   0.462   0.484 -0.2246  0.4548 -0.2854
  112ANI     C2 2260   2.803   0.330   0.468  0.1904  0.6205 -0.5227
  112ANI     C3 2261   2.779   0.234   0.570  0.4315 -0.0835 -0.3031
  112ANI     C4 2262   2.826   0.104   0.554 -0.7826 -0.1001 -0.5238
  112ANI     C5 2263   2.889   0.068   0.434 -0.2084  0.3646  0.5418
  112ANI     C6 2264   2.911   0.164   0.327  0.1916 -0.0056  0.0992
  112ANI     C7 2265   2.868   0.294   0.350 -0.3420  0.5365 -0.2905
  112ANI     H1 2266   2.712   0.621   0.607  2.8140 -0.0467  0.5345
  112ANI     H2 2267   2.614   0.472   0.621  0.0647 -1.2670  0.1260
  112ANI     H3 2268   2.774   0.477   0.691  1.8663 -1.8861 -2.2116
  112ANI     H4 2269   2.721   0.264   0.657  0.1080 -2.1818  0.2303
  112ANI     H5 2270   2.820   0.025   0.628 -0.0014 -1.9337 -2.3978
  112ANI     H6 2271   2.931  -0.032   0.421 -0.5578  0.3919 -0.8980
  112ANI     H7 2272   2.959   0.140   0.233 -2.2485 -1.0303 -0.9322
  112ANI     H8 2273   2.883   0.376   0.280 -0.6243 -0.6994 -1.8240
  113ANI     C1 2274   2.793   1.664   3.613 -0.7983 -0.1718  0.8225
  113ANI     O1 2275   2.870   1.766   3.678 -0.0181 -0.1508  0.6372
  113ANI     C2 2276   2.855   1.788   3.807  0.2156 -0.0129  0.4555
  113ANI     C3 2277   2.731   1.762   3.869  0.4784 -0.1138 -0.1896
  113ANI     C4 2278   2.715   1.796   4.010  0.3003 -0.6110  0.6180
  113ANI     C5 2279   2.821   1.856   4.078 -0.5238  0.2160  0.3285
  113ANI     C6 2280   2.947   1.874   4.013 -0.3995  0.4631 -0.2854
  113ANI     C7 2281   2.966   1.834   3.880  0.1369  0.1592  0.2318
  113ANI     H1 2282   2.785   1.581   3.685  0.2439 -0.4580  0.6201
  113ANI     H2 2283   2.689   1.694   3.594 -1.0216 -0.2327  1.9124
  113ANI     H3 2284   2.843   1.636   3.520  1.2030 -1.2256  2.1668
  113ANI     H4 2285   2.650   1.719   3.812  0.7664 -0.3612 -0.4152
  113ANI     H5 2286   2.626   1.757   4.060  1.0785  0.4510  2.9239
  113ANI     H6 2287   2.811   1.885   4.182  5.3057  3.5712  0.1157
  113ANI     H7 2288   3.030   1.920   4.065  0.1877 -0.4725 -0.3898
  113ANI     H8 2289   3.059   1.865   3.833 -0.8025  1.5312 -0.7335
  114ANI     C1 2290   0.421   0.507   0.159 -0.1286 -0.2347  0.3310
  114ANI     O1 2291   0.451   0.370   0.127 -0.2209  0.4314 -0.1342
  114ANI     C2 2292   0.565   0.331   0.062 -0.6308  0.7574 -0.1824
  114ANI     C3 2293   0.562   0.213  -0.012  0.9039  0.0638 -0.3066
  114ANI     C4 2294   0.675   0.165  -0.079  0.1997  0.4896 -0.2182
  114ANI     C5 2295   0.784   0.257  -0.097 -0.4394  0.3785 -0.8075
  114ANI     C6 2296   0.781   0.374  -0.019  0.0216  0.9316  0.6557
  114ANI     C7 2297   0.674   0.413   0.055 -0.0333 -0.4659  0.2428
  114ANI     H1 2298   0.417   0.575   0.073 -0.1451  0.6858  1.0444
  114ANI     H2 2299   0.325   0.503   0.211  0.4661  2.3122  1.7024
  114ANI     H3 2300   0.492   0.544   0.234  0.0132 -1.1447  0.6488
  114ANI     H4 2301   0.477   0.146  -0.002  1.4040 -0.3028  1.6452
  114ANI     H5 2302   0.674   0.067  -0.126  0.5028  0.0238  0.7471
  114ANI     H6 2303   0.867   0.239  -0.164 -0.9073  0.1704 -1.3423
  114ANI     H7 2304   0.866   0.442  -0.017  0.8626 -0.0244 -1.3762
  114ANI     H8 2305   0.671   0.497   0.123 -3.4623 -1.2590  1.1593
  115ANI     C1 2306   0.930   1.431   3.659  0.3922 -0.2249  0.4080
  115ANI     O1 2307   1.006   1.459   3.541 -0.1623 -0.4425 -0.3425
  115ANI     C2 2308   0.972   1.409   3.417  0.6210  0.5190 -0.2095
  115ANI     C3 2309   1.056   1.447   3.310  0.3296  0.1612  0.5192
  115ANI     C4 2310   1.033   1.396   3.183  0.1600 -0.1925  0.0719
  115ANI     C5 2311   0.933   1.299   3.165 -0.3688  0.3264 -0.6455
  115ANI     C6 2312   0.845   1.264   3.272  0.8394  0.3421  0.2211
  115ANI     C7 2313   0.869   1.318   3.398  0.9228  0.3753 -0.6066
  115ANI     H1 2314   0.918   1.322   3.666  0.3201 -0.1818  0.9297
  115ANI     H2 2315   0.979   1.461   3.752  2.5787 -0.9830 -0.4788
  115ANI     H3 2316   0.828   1.473   3.662  1.0148  1.3907 -0.2012
  115ANI     H4 2317   1.142   1.512   3.326  1.4415 -1.7737  2.7381
  115ANI     H5 2318   1.099   1.431   3.104 -0.1675  0.7095  0.1961
  115ANI     H6 2319   0.928   1.249   3.068 -1.1235 -1.8521  0.4966
  115ANI     H7 2320   0.763   1.199   3.246  2.0902 -1.0277 -0.3328
  115ANI     H8 2321   0.801   1.300   3.480  0.4356 -1.0664 -1.3160
  116ANI     C1 2322   0.767   3.419   0.599 -0.1176 -0.2481 -0.0690
  116ANI     O1 2323   0.778   3.512   0.492  0.1426  0.6310 -0.2667
  116ANI     C2 2324   0.887   3.530   0.412  0.2651 -0.2016  0.0619
  116ANI     C3 2325   1.007   3.454   0.427 -0.0386  0.4876 -0.2375
  116ANI     C4 2326   1.115   3.486   0.351  0.4358 -0.2476 -0.5312
  116ANI     C5 2327   1.118   3.596   0.267 -0.2261 -0.1921 -0.1743
  116ANI     C6 2328   0.998   3.660   0.238  0.0465 -0.4207 -0.8171
  116ANI     C7 2329   0.878   3.623   0.304 -0.2144  0.1503  0.0476
  116ANI     H1 2330   0.825   3.449   0.687  0.3050 -1.3005  0.0182
  116ANI     H2 2331   0.664   3.416   0.638 -0.8193 -0.6666 -1.8974
  116ANI     H3 2332   0.791   3.316   0.568  2.3097  0.9665 -2.4060
  116ANI     H4 2333   1.019   3.378   0.504  0.2727 -2.2643 -2.9286
  116ANI     H5 2334   1.206   3.427   0.350  0.9277  0.4256  1.5166
  116ANI     H6 2335   1.206   3.631   0.215 -0.4720  1.0807  0.2370
  116ANI     H7 2336   0.999   3.731   0.156  0.3368 -2.3628 -2.5230
  116ANI     H8 2337   0.785   3.669   0.272  0.1117  0.8087  0.0329
  117ANI     C1 2338   2.191   1.372   3.103  0.2438 -0.7629  0.4366
  117ANI     O1 2339   2.050   1.383   3.077  0.4260  0.0201  0.3512
  117ANI     C2 2340   2.000   1.411   2.951  0.0356 -0.3412 -0.3439
  117ANI     C3 2341   2.082   1.449   2.847 -0.2073  0.7458  0.6439
  117ANI     C4 2342   2.038   1.471   2.714 -0.6698  0.6887  0.2084
  117ANI     C5 2343   1.901   1.441   2.689 -0.3132 -0.2202 -0.2346
  117ANI     C6 2344   1.810   1.419   2.800  0.7364 -0.0082  0.7691
  117ANI     C7 2345   1.860   1.399   2.931  0.5332  0.2232 -0.2710
  117ANI     H1 2346   2.206   1.385   3.211 -0.0973  3.1021  0.0883
  117ANI     H2 2347   2.228   1.279   3.057  0.0070 -0.8905  0.5004
  117ANI     H3 2348   2.255   1.448   3.058 -1.5822 -0.2951 -1.4539
  117ANI     H4 2349   2.188   1.458   2.865 -0.2302  1.2916  0.4987
  117ANI     H5 2350   2.109   1.493   2.634  0.3353  2.0900  1.4624
  117ANI     H6 2351   1.867   1.440   2.586  0.8673  1.6745 -0.6631
  117ANI     H7 2352   1.706   1.409   2.772  0.4783  2.9421  0.5926
  117ANI     H8 2353   1.795   1.364   3.010  0.1042 -1.5751 -1.3995
  118ANI     C1 2354   2.664   1.121   0.460  0.1039 -0.5849  0.3051
  118ANI     O1 2355   2.606   0.995   0.460 -0.2033 -0.0354  0.2361
  118ANI     C2 2356   2.471   0.982   0.436  0.5817 -0.2125 -0.1548
  118ANI     C3 2357   2.401   1.077   0.365 -0.0132  0.4815 -0.3392
  118ANI     C4 2358   2.267   1.050   0.351  0.3244 -0.0823 -0.3276
  118ANI     C5 2359   2.210   0.937   0.400  0.1071  0.2853  0.0148
  118ANI     C6 2360   2.285   0.838   0.467  0.3223 -0.1999  0.2956
  118ANI     C7 2361   2.417   0.863   0.483 -0.4662 -0.2223  0.1467
  118ANI     H1 2362   2.646   1.165   0.361 -1.0575  1.7820  1.5368
  118ANI     H2 2363   2.625   1.190   0.536 -0.5211 -1.7466  1.0448
  118ANI     H3 2364   2.772   1.124   0.482 -0.1926  3.2784  1.5865
  118ANI     H4 2365   2.439   1.170   0.324  0.2937  0.4379 -0.1527
  118ANI     H5 2366   2.197   1.113   0.297  0.2161 -0.8390 -1.0792
  118ANI     H6 2367   2.103   0.925   0.384  0.1943  1.2457 -1.4062
  118ANI     H7 2368   2.241   0.746   0.504 -0.7920 -0.1258 -0.7761
  118ANI     H8 2369   2.480   0.790   0.534  0.1181 -0.5857 -1.0550
  119ANI     C1 2370   2.475   1.944   3.453  0.2521 -0.4892  0.4656
  119ANI     O1 2371   2.381   1.862   3.531 -0.5517 -0.3622 -0.2043
  119ANI     C2 2372   2.373   1.875   3.669  0.3640 -0.0650 -0.6511
  119ANI     C3 2373   2.359   1.757   3.754  0.3870 -0.3149  0.2870
  119ANI     C4 2374   2.334   1.777   3.893  0.1394 -0.3829 -0.5556
  119ANI     C5 2375   2.345   1.903   3.954  0.6996 -0.5589  0.1928
  119ANI     C6 2376   2.358   2.021   3.876  0.2854 -0.2484  0.1429
  119ANI     C7 2377   2.371   2.001   3.735  0.4824  0.2567  0.5022
  119ANI     H1 2378   2.477   2.042   3.502  0.1489  0.3771 -1.2321
  119ANI     H2 2379   2.580   1.912   3.460  0.6830  1.3412  3.4310
  119ANI     H3 2380   2.446   1.957   3.349 -1.0712  1.0957  1.0098
  119ANI     H4 2381   2.372   1.656   3.718  2.4693  0.9172 -2.5693
  119ANI     H5 2382   2.314   1.686   3.948  1.5816 -1.5865 -1.9956
  119ANI     H6 2383   2.337   1.919   4.061  1.0190 -1.1703  0.3124
  119ANI     H7 2384   2.359   2.121   3.918 -0.7629  0.4321 -1.4100
  119ANI     H8 2385   2.389   2.094   3.681 -0.4793 -0.6534 -1.4387
  120ANI     C1 2386   3.211   2.080   1.222 -0.3978 -0.2417 -0.1567
  120ANI     O1 2387   3.323   2.002   1.263  0.2864 -0.1404 -0.2877
  120ANI     C2 2388   3.362   1.889   1.197  0.0709  0.2429 -0.3718
  120ANI     C3 2389   3.277   1.826   1.109  0.7890  0.6465  0.2980
  120ANI     C4 2390   3.326   1.707   1.043  0.3459 -0.3027  0.4057
  120ANI     C5 2391   3.454   1.662   1.065 -0.9135 -0.3054 -0.3807
  120ANI     C6 2392   3.536   1.720   1.159  0.1877  0.0924 -0.4613
  120ANI     C7 2393   3.493   1.841   1.221  0.6320 -0.2384  0.0387
  120ANI     H1 2394   3.200   2.168   1.287  0.0362 -0.0718 -0.3084
  120ANI     H2 2395   3.232   2.123   1.123  3.0141 -0.6780  0.3017
  120ANI     H3 2396   3.113   2.032   1.211 -1.4526  1.3344  2.0669
  120ANI     H4 2397   3.186   1.875   1.075  1.6066  1.6410 -0.5008
  120ANI     H5 2398   3.271   1.664   0.960  0.6875  0.8042 -0.4047
  120ANI     H6 2399   3.488   1.576   1.009  1.1994 -0.2255  0.7383
  120ANI     H7 2400   3.632   1.679   1.187  0.1548  1.1140  1.1997
  120ANI     H8 2401   3.566   1.892   1.283  2.0029 -0.9697 -0.9632
  121ANI     C1 2402   1.785   3.280   2.855  1.2121  0.1362 -0.1085
  121ANI     O1 2403   1.825   3.352   2.729  0.0269  0.1585 -0.1115
  121ANI     C2 2404   1.928   3.446   2.729  0.6323  0.4103  0.2585
  121ANI     C3 2405   2.002   3.465   2.613 -1.1152  0.4147 -0.4096
  121ANI     C4 2406   2.105   3.552   2.613 -0.2314  0.9466  0.0448
  121ANI     C5 2407   2.117   3.641   2.724  0.6062  0.0164  0.4755
  121ANI     C6 2408   2.050   3.622   2.847  0.4498 -0.0107 -0.0057
  121ANI     C7 2409   1.951   3.517   2.847  0.0370  0.9926 -0.1240
  121ANI     H1 2410   1.703   3.213   2.831  0.5670  0.5130  0.9764
  121ANI     H2 2411   1.864   3.237   2.918  0.1546 -2.5733 -0.5638
  121ANI     H3 2412   1.735   3.349   2.925 -0.3581 -2.2529  1.1728
  121ANI     H4 2413   1.986   3.403   2.525 -2.1549  0.2192 -0.0984
  121ANI     H5 2414   2.163   3.571   2.524  0.4906 -1.7372 -0.1136
  121ANI     H6 2415   2.197   3.715   2.719 -0.2823  0.9694  0.2507
  121ANI     H7 2416   2.057   3.681   2.938  0.3903 -0.1054  0.0605
  121ANI     H8 2417   1.887   3.505   2.933 -0.4230  3.2634 -0.1058
  122ANI     C1 2418   1.892   2.494   0.232  0.1016  0.7112 -0.5216
  122ANI     O1 2419   1.898   2.615   0.302 -0.0182  0.4752  0.2277
  122ANI     C2 2420   1.827   2.638   0.414  0.5207  0.5017 -0.4540
  122ANI     C3 2421   1.740   2.543   0.474  0.2571  1.0626  0.0490
  122ANI     C4 2422   1.669   2.581   0.589  0.3228 -0.4839 -0.8261
  122ANI     C5 2423   1.669   2.711   0.643  0.0058  0.1451  0.2122
  122ANI     C6 2424   1.758   2.800   0.583 -0.7904 -0.2479 -0.2848
  122ANI     C7 2425   1.841   2.761   0.474  0.2634 -0.7832 -0.1092
  122ANI     H1 2426   1.925   2.418   0.304 -3.0549 -1.4458 -1.2241
  122ANI     H2 2427   1.792   2.484   0.188 -0.3463  0.7452  0.4678
  122ANI     H3 2428   1.958   2.492   0.145  0.0787  1.2312 -0.5539
  122ANI     H4 2429   1.733   2.439   0.441  0.4777  0.9474  0.3620
  122ANI     H5 2430   1.602   2.512   0.640 -0.1078  0.4816 -0.0645
  122ANI     H6 2431   1.608   2.740   0.728  0.2592 -0.5706  0.6465
  122ANI     H7 2432   1.771   2.897   0.629 -0.5230 -1.0376  1.3397
  122ANI     H8 2433   1.903   2.832   0.419 -0.9915  0.9285  0.6535
  123ANI     C1 2434   0.883   1.960   2.877 -0.2197  0.1858  0.4462
  123ANI     O1 2435   0.947   1.973   2.748  0.1692 -0.3147 -0.2985
  123ANI     C2 2436   1.055   1.892   2.712  0.4812 -0.0528  0.4498
  123ANI     C3 2437   1.133   1.930   2.603 -0.6467  0.3085 -0.5138
  123ANI     C4 2438   1.249   1.857   2.574  0.3837  0.2690  0.4576
  123ANI     C5 2439   1.291   1.749   2.659 -0.3850 -0.1649 -0.4240
  123ANI     C6 2440   1.218   1.715   2.768  0.2893 -0.0728  0.1221
  123ANI     C7 2441   1.094   1.783   2.788 -0.2283  0.0196  0.4853
  123ANI     H1 2442   0.955   1.950   2.959 -0.8086  2.7693  1.3297
  123ANI     H2 2443   0.821   2.048   2.900  0.2571  0.0183  2.4884
  123ANI     H3 2444   0.824   1.868   2.880 -0.6466  0.4603  0.5690
  123ANI     H4 2445   1.103   2.008   2.534  1.1537 -0.1647 -1.8996
  123ANI     H5 2446   1.305   1.891   2.487 -2.5003  0.0600 -1.5451
  123ANI     H6 2447   1.390   1.706   2.645 -1.0256 -2.3650  1.3941
  123ANI     H7 2448   1.258   1.639   2.835 -2.5391 -0.7492  1.0861
  123ANI     H8 2449   1.043   1.752   2.878 -2.0595 -1.2585 -0.9689
  124ANI     C1 2450   1.694   1.447   1.564  0.2379 -0.3491 -0.2965
  124ANI     O1 2451   1.830   1.457   1.577  0.1392 -0.3684 -0.1235
  124ANI     C2 2452   1.895   1.564   1.519  0.4609 -0.4180 -0.2799
  124ANI     C3 2453   1.824   1.660   1.438 -0.9923  0.6430  0.1608
  124ANI     C4 2454   1.900   1.765   1.379  0.5307  0.2577 -0.0996
  124ANI     C5 2455   2.040   1.771   1.403  0.0636 -0.0616  0.1884
  124ANI     C6 2456   2.107   1.675   1.478 -0.1717  0.5603 -0.0418
  124ANI     C7 2457   2.036   1.577   1.538  0.0159  0.2354  0.3880
  124ANI     H1 2458   1.667   1.351   1.609  0.1017 -0.0113  0.3515
  124ANI     H2 2459   1.634   1.529   1.606  2.4277  1.2958 -0.3049
  124ANI     H3 2460   1.673   1.444   1.456 -0.3704 -0.5679 -0.1773
  124ANI     H4 2461   1.718   1.656   1.412 -1.0906 -0.0077  0.6488
  124ANI     H5 2462   1.849   1.840   1.319 -0.1937 -1.1397 -1.2664
  124ANI     H6 2463   2.097   1.850   1.355  1.6125 -1.1015  0.2476
  124ANI     H7 2464   2.215   1.674   1.492  0.0528 -0.6337 -1.6987
  124ANI     H8 2465   2.089   1.503   1.597  0.9799  1.3379  0.9448
  125ANI     C1 2466   1.352   0.558   0.562  0.8400  0.0112  0.5969
  125ANI     O1 2467   1.403   0.528   0.687  0.2539  0.2544  0.2204
  125ANI     C2 2468   1.475   0.612   0.769  0.5708 -0.3214  0.3691
  125ANI     C3 2469   1.524   0.738   0.738 -0.3313 -0.0078  0.1531
  125ANI     C4 2470   1.614   0.798   0.822  0.1820  0.5584  0.2389
  125ANI     C5 2471   1.648   0.732   0.941  0.0376 -0.2156 -0.0684
  125ANI     C6 2472   1.601   0.603   0.975 -0.0348  0.0970  0.3904
  125ANI     C7 2473   1.508   0.548   0.891 -0.1129 -0.5215 -0.1205
  125ANI     H1 2474   1.271   0.489   0.534  0.0861  0.8066  0.7591
  125ANI     H2 2475   1.317   0.661   0.548 -0.1166 -0.3070  0.5530
  125ANI     H3 2476   1.429   0.561   0.484  0.8048  0.3574  0.5746
  125ANI     H4 2477   1.506   0.791   0.645  1.4769  0.4884  0.0651
  125ANI     H5 2478   1.656   0.896   0.799 -0.5540  1.4222  2.4004
  125ANI     H6 2479   1.726   0.779   0.999  1.3030 -0.8533 -1.2044
  125ANI     H7 2480   1.644   0.553   1.061  1.4637 -2.5788 -1.8365
  125ANI     H8 2481   1.469   0.451   0.923 -0.7483 -0.2325 -0.0161
  126ANI     C1 2482   1.021   1.858   0.339 -0.4919  0.6960  0.0768
  126ANI     O1 2483   1.137   1.768   0.311 -0.3840  0.6341  0.3993
  126ANI     C2 2484   1.229   1.738   0.408  0.2629  0.4274  0.4090
  126ANI     C3 2485   1.231   1.797   0.531 -0.1895 -0.1272 -0.1361
  126ANI     C4 2486   1.336   1.777   0.620 -0.0041  0.6175 -0.1379
  126ANI     C5 2487   1.452   1.707   0.575  0.5215 -0.1368  0.0542
  126ANI     C6 2488   1.447   1.632   0.458 -0.4477 -0.0680  0.4243
  126ANI     C7 2489   1.334   1.646   0.372  0.1701 -0.2295 -0.0843
  126ANI     H1 2490   0.956   1.813   0.414  1.3401  0.2437  1.4264
  126ANI     H2 2491   1.044   1.965   0.349 -1.8549  1.0371 -0.3294
  126ANI     H3 2492   0.966   1.848   0.244  0.5996  0.9756 -0.6041
  126ANI     H4 2493   1.154   1.869   0.554 -0.8771 -0.7621 -0.4184
  126ANI     H5 2494   1.327   1.836   0.711 -1.9765 -0.1563  0.2052
  126ANI     H6 2495   1.532   1.695   0.647 -0.3445 -2.5811  0.6555
  126ANI     H7 2496   1.533   1.570   0.436 -0.2267 -0.1381  1.4929
  126ANI     H8 2497   1.325   1.593   0.278 -1.2626 -0.4758  0.1691
  127ANI     C1 2498   2.304   1.221   2.244  0.4528 -0.8748  0.0926
  127ANI     O1 2499   2.182   1.297   2.251 -0.1342  0.1063 -0.1749
  127ANI     C2 2500   2.060   1.233   2.244  0.1223 -0.5112 -0.7010
  127ANI     C3 2501   2.048   1.092   2.229  0.1044  0.1014 -0.2441
  127ANI     C4 2502   1.917   1.032   2.238 -0.0053 -0.2605 -0.0254
  127ANI     C5 2503   1.812   1.110   2.259 -0.0461  0.1777  0.5709
  127ANI     C6 2504   1.818   1.244   2.263 -0.0648  0.4692  0.2278
  127ANI     C7 2505   1.944   1.308   2.256 -0.6563  0.7075 -0.4623
  127ANI     H1 2506   2.392   1.286   2.254 -1.3319  1.6594 -0.3716
  127ANI     H2 2507   2.301   1.143   2.321  0.9404 -1.2890 -0.3088
  127ANI     H3 2508   2.316   1.169   2.148  1.6881  1.8088 -1.2537
  127ANI     H4 2509   2.139   1.033   2.230  0.1371  0.1735  1.2739
  127ANI     H5 2510   1.910   0.925   2.226  1.8123 -0.6149  1.7042
  127ANI     H6 2511   1.713   1.064   2.256  1.2723 -2.7372 -0.5267
  127ANI     H7 2512   1.725   1.296   2.283 -1.4787 -1.4673 -1.1014
  127ANI     H8 2513   1.956   1.415   2.245  0.2363  0.6905  0.3227
  128ANI     C1 2514   2.321   1.550   1.193  0.5625  0.6280  0.5046
  128ANI     O1 2515   2.396   1.664   1.233 -0.0604 -0.1060  0.2458
  128ANI     C2 2516   2.487   1.648   1.338 -0.6645  0.7488  0.8857
  128ANI     C3 2517   2.563   1.756   1.379 -0.5872 -0.2818 -0.0811
  128ANI     C4 2518   2.660   1.753   1.483  0.4522  0.3985 -0.9767
  128ANI     C5 2519   2.677   1.629   1.548  1.0435  0.3086 -0.0268
  128ANI     C6 2520   2.614   1.513   1.501 -0.0813 -0.0009  0.0884
  128ANI     C7 2521   2.518   1.523   1.396 -0.3523 -0.1709  0.4686
  128ANI     H1 2522   2.266   1.509   1.279  0.0431 -1.6201 -0.8318
  128ANI     H2 2523   2.249   1.568   1.112  0.2303 -0.3673  0.5674
  128ANI     H3 2524   2.379   1.471   1.142 -1.8882 -1.3370  0.6253
  128ANI     H4 2525   2.545   1.854   1.334  1.9402  1.0092  1.6081
  128ANI     H5 2526   2.722   1.832   1.524  0.8832  0.0414 -0.9353
  128ANI     H6 2527   2.751   1.627   1.626 -2.4356  1.4701  3.4801
  128ANI     H7 2528   2.645   1.416   1.538 -0.3812  0.1418  0.7189
  128ANI     H8 2529   2.473   1.438   1.345  0.9021  1.4026 -3.4847
  129ANI     C1 2530   1.769   0.363   2.599 -0.1137 -0.2192  0.2150
  129ANI     O1 2531   1.717   0.474   2.681 -0.1281 -0.7312 -0.5749
  129ANI     C2 2532   1.664   0.589   2.623 -0.4117  0.2487  0.3593
  129ANI     C3 2533   1.699   0.627   2.493  0.5961  0.2378 -0.3542
  129ANI     C4 2534   1.641   0.738   2.427 -0.1004  0.2709  0.3832
  129ANI     C5 2535   1.536   0.808   2.492 -0.0744 -0.6291 -1.0404
  129ANI     C6 2536   1.510   0.779   2.631 -0.5352  0.2166  0.0939
  129ANI     C7 2537   1.568   0.672   2.692 -0.1424 -0.4329  0.2307
  129ANI     H1 2538   1.808   0.280   2.659  2.8381 -0.2754 -1.6735
  129ANI     H2 2539   1.686   0.311   2.548 -1.2050  1.7073 -0.0018
  129ANI     H3 2540   1.855   0.391   2.538  1.2128 -1.0120  1.6850
  129ANI     H4 2541   1.775   0.570   2.441  0.7132 -1.0650  1.2182
  129ANI     H5 2542   1.667   0.754   2.323  1.0514  0.3080  0.6681
  129ANI     H6 2543   1.490   0.892   2.442  1.2861  0.0415 -1.1803
  129ANI     H7 2544   1.439   0.842   2.684 -0.5220  1.8459 -1.7988
  129ANI     H8 2545   1.536   0.644   2.792  1.4184 -3.2127  0.0069
  130ANI     C1 2546   0.486   1.161   0.404 -0.2617  0.4738 -0.4086
  130ANI     O1 2547   0.419   1.131   0.290  0.8975 -0.3919  0.3340
  130ANI     C2 2548   0.472   1.129   0.165  0.4779  0.2595  0.0631
  130ANI     C3 2549   0.376   1.112   0.059 -0.2681 -0.0185  0.0457
  130ANI     C4 2550   0.425   1.098  -0.074 -0.3831 -0.1024  0.1126
  130ANI     C5 2551   0.565   1.104  -0.098 -0.2425 -0.3685  0.4842
  130ANI     C6 2552   0.657   1.130   0.005 -0.1563 -0.8420 -0.8611
  130ANI     C7 2553   0.612   1.136   0.139 -0.1783 -0.1807  0.0297
  130ANI     H1 2554   0.522   1.265   0.398 -0.5970  0.6783  0.9714
  130ANI     H2 2555   0.427   1.157   0.496  1.4050  0.0306  0.6603
  130ANI     H3 2556   0.567   1.088   0.419  0.9935  1.8181 -0.4892
  130ANI     H4 2557   0.273   1.107   0.093 -0.2965  1.5294  0.2039
  130ANI     H5 2558   0.360   1.080  -0.159  1.1672 -0.2205 -1.0787
  130ANI     H6 2559   0.603   1.097  -0.199 -1.5787  2.2214 -0.2380
  130ANI     H7 2560   0.764   1.130  -0.010 -0.5024  0.0726 -3.4653
  130ANI     H8 2561   0.694   1.151   0.209 -0.1491 -0.0475 -0.0321
  131ANI     C1 2562   3.259   0.611   3.218 -0.4366 -0.0097  0.4721
  131ANI     O1 2563   3.235   0.727   3.294  0.8101 -0.0540  0.5892
  131ANI     C2 2564   3.331   0.783   3.378  0.5837 -0.6846  0.7149
  131ANI     C3 2565   3.438   0.711   3.420 -0.0005 -0.8148 -0.4256
  131ANI     C4 2566   3.539   0.769   3.507 -0.4774  0.0969  0.3297
  131ANI     C5 2567   3.517   0.904   3.548 -0.1540  0.3095 -0.2526
  131ANI     C6 2568   3.401   0.977   3.503 -0.3364 -0.0482 -0.4488
  131ANI     C7 2569   3.313   0.915   3.414  0.0770  0.6313 -0.0441
  131ANI     H1 2570   3.277   0.524   3.284  0.0387  1.2343  2.0212
  131ANI     H2 2571   3.169   0.588   3.160 -0.3217  0.7426 -0.0056
  131ANI     H3 2572   3.343   0.623   3.149  0.4957 -0.2251  1.5493
  131ANI     H4 2573   3.465   0.611   3.389 -1.0353 -1.0215 -0.6535
  131ANI     H5 2574   3.631   0.717   3.530 -0.9877 -0.8739  0.1882
  131ANI     H6 2575   3.578   0.946   3.628 -0.8808  0.2072  0.3662
  131ANI     H7 2576   3.392   1.082   3.530  0.8240 -0.5661  2.1598
  131ANI     H8 2577   3.230   0.965   3.365 -0.6454  1.7169  2.1906
  132ANI     C1 2578   0.396   2.233   1.334 -0.2484  0.1087 -0.9490
  132ANI     O1 2579   0.401   2.315   1.455 -0.1146 -0.0576  0.3506
  132ANI     C2 2580   0.313   2.418   1.483 -0.3516 -0.0900 -0.3048
  132ANI     C3 2581   0.177   2.410   1.445  0.1120  0.2893  0.5437
  132ANI     C4 2582   0.084   2.521   1.471 -0.2251 -0.2523  0.1788
  132ANI     C5 2583   0.124   2.622   1.554 -0.3810  0.0816  0.5797
  132ANI     C6 2584   0.260   2.634   1.584  0.8926 -0.1027 -0.6641
  132ANI     C7 2585   0.350   2.536   1.549 -0.3627 -0.4963 -0.0864
  132ANI     H1 2586   0.404   2.293   1.242 -1.6587  0.0941 -1.0938
  132ANI     H2 2587   0.478   2.161   1.331 -0.5179 -0.2582  0.2821
  132ANI     H3 2588   0.296   2.190   1.320 -1.0905  1.2087  1.3499
  132ANI     H4 2589   0.143   2.317   1.400 -0.2213  0.8523 -0.3714
  132ANI     H5 2590  -0.021   2.512   1.444 -0.9995  0.1822  2.9193
  132ANI     H6 2591   0.051   2.695   1.589 -0.1210  0.1208  1.0354
  132ANI     H7 2592   0.288   2.717   1.649  0.5319  0.3168 -1.0358
  132ANI     H8 2593   0.451   2.556   1.583 -0.6634  2.1507 -0.6549
  133ANI     C1 2594   0.075   0.998   2.317  0.0460 -0.7318  0.1399
  133ANI     O1 2595  -0.069   0.975   2.275 -0.6281 -0.4007 -0.5329
  133ANI     C2 2596  -0.178   1.056   2.310  0.5388  0.1189  0.5257
  133ANI     C3 2597  -0.304   1.032   2.250  0.3011 -0.5076  0.4212
  133ANI     C4 2598  -0.414   1.119   2.278  0.2861  0.2706  0.5051
  133ANI     C5 2599  -0.398   1.225   2.371  0.2422  0.0199 -0.5769
  133ANI     C6 2600  -0.273   1.247   2.429  0.5066  0.2287 -0.3289
  133ANI     C7 2601  -0.165   1.165   2.391  0.7443 -0.7985  0.3127
  133ANI     H1 2602   0.115   1.085   2.264 -0.2821 -0.4963  0.2710
  133ANI     H2 2603   0.068   1.024   2.424 -2.6373 -0.0703 -0.1491
  133ANI     H3 2604   0.142   0.913   2.302  1.7502  0.5097  0.5524
  133ANI     H4 2605  -0.319   0.949   2.181 -1.5060  0.2088 -0.0947
  133ANI     H5 2606  -0.516   1.111   2.240 -0.3667  1.2798  1.9660
  133ANI     H6 2607  -0.484   1.291   2.380 -0.1575 -0.6091  0.3419
  133ANI     H7 2608  -0.257   1.342   2.480 -2.0862  0.1424  0.7339
  133ANI     H8 2609  -0.068   1.198   2.426  0.2952  3.4199 -1.9743
  134ANI     C1 2610   1.028   2.811   0.923  0.1075  0.2442  0.0282
  134ANI     O1 2611   1.080   2.695   0.864  0.4360 -0.4784  0.1324
  134ANI     C2 2612   1.163   2.689   0.752 -0.2945  0.0174 -0.2871
  134ANI     C3 2613   1.220   2.565   0.710  0.3750  0.4907  0.4392
  134ANI     C4 2614   1.303   2.554   0.594 -0.3811 -0.0989 -0.2586
  134ANI     C5 2615   1.347   2.674   0.528 -0.5742  0.3242 -0.2069
  134ANI     C6 2616   1.295   2.796   0.572 -0.5989  0.0829  0.2068
  134ANI     C7 2617   1.204   2.801   0.677  0.5235  0.0608 -0.5500
  134ANI     H1 2618   0.977   2.867   0.844 -1.3314  1.1942  1.5965
  134ANI     H2 2619   0.946   2.775   0.986  1.0393 -1.0287  0.5511
  134ANI     H3 2620   1.104   2.876   0.968 -2.5276  1.6457  2.6637
  134ANI     H4 2621   1.187   2.476   0.763  2.4619 -2.6602 -3.2397
  134ANI     H5 2622   1.345   2.459   0.564  1.8163  0.8142 -0.1755
  134ANI     H6 2623   1.421   2.667   0.449 -0.3269  0.6627 -0.0058
  134ANI     H7 2624   1.316   2.893   0.528  1.3630  0.1465  1.2239
  134ANI     H8 2625   1.173   2.899   0.712  0.0882 -0.9813  2.0353
  135ANI     C1 2626   0.533   2.024   3.265  0.6694 -0.2726  0.0056
  135ANI     O1 2627   0.567   1.897   3.206  0.0144 -0.2385  0.1376
  135ANI     C2 2628   0.701   1.861   3.188 -0.1755 -0.2076  0.4341
  135ANI     C3 2629   0.807   1.944   3.221  0.3117  0.2809  0.2492
  135ANI     C4 2630   0.944   1.894   3.214  0.1150  0.1075  0.0461
  135ANI     C5 2631   0.974   1.768   3.153  0.4288  0.4168 -0.3307
  135ANI     C6 2632   0.869   1.689   3.109  0.3205  0.5342  0.0309
  135ANI     C7 2633   0.737   1.739   3.124 -0.1377 -0.0122 -0.0168
  135ANI     H1 2634   0.424   2.034   3.254  0.8796  1.9445 -0.3121
  135ANI     H2 2635   0.571   2.038   3.367  0.4664 -0.0081  0.0468
  135ANI     H3 2636   0.572   2.103   3.199  0.1006  0.2580  0.2882
  135ANI     H4 2637   0.788   2.039   3.271  0.1137 -0.3995  1.4998
  135ANI     H5 2638   1.026   1.948   3.262 -0.7082  0.1084  1.4805
  135ANI     H6 2639   1.080   1.746   3.162  0.4260  1.1277  1.6613
  135ANI     H7 2640   0.888   1.597   3.054 -0.6543 -0.3459  1.1533
  135ANI     H8 2641   0.656   1.683   3.079 -0.6672  1.4349 -0.9040
  136ANI     C1 2642   1.644   2.873   1.172  0.0274 -0.1637  0.1718
  136ANI     O1 2643   1.585   2.952   1.074  0.2162  0.0557  0.1406
  136ANI     C2 2644   1.467   3.013   1.090  0.0652  0.0056  0.2480
  136ANI     C3 2645   1.387   3.001   1.209 -0.3438  0.1724 -0.8821
  136ANI     C4 2646   1.272   3.075   1.232  0.1046  0.6995  0.1864
  136ANI     C5 2647   1.223   3.151   1.127 -0.2480 -0.3802  0.3923
  136ANI     C6 2648   1.290   3.156   1.002 -0.0578  0.1561 -0.1942
  136ANI     C7 2649   1.418   3.095   0.989 -0.0364 -0.0392 -0.1208
  136ANI     H1 2650   1.569   2.798   1.198 -1.4721  1.3407  0.2881
  136ANI     H2 2651   1.735   2.825   1.133 -0.6410 -1.3836  0.1021
  136ANI     H3 2652   1.665   2.936   1.260 -0.4345 -0.2014  0.3094
  136ANI     H4 2653   1.414   2.935   1.290 -1.0696  2.0046  0.9016
  136ANI     H5 2654   1.209   3.069   1.321  0.0000 -3.0409 -0.0607
  136ANI     H6 2655   1.131   3.205   1.147 -0.3053 -0.8618  1.4686
  136ANI     H7 2656   1.249   3.207   0.915  2.4981  0.8180 -1.0749
  136ANI     H8 2657   1.480   3.111   0.901  0.0838  0.2963  0.0249
  137ANI     C1 2658   3.141   0.850   1.154  0.5014 -0.1565  0.0404
  137ANI     O1 2659   3.065   0.952   1.082 -0.2666 -0.0477 -0.1501
  137ANI     C2 2660   2.978   0.906   0.977 -0.2839  0.3108 -0.0818
  137ANI     C3 2661   2.963   0.772   0.938 -0.4483 -0.2634 -0.0526
  137ANI     C4 2662   2.880   0.739   0.832  0.3307  0.2109 -0.1438
  137ANI     C5 2663   2.797   0.840   0.776 -0.7871 -0.2657 -0.0499
  137ANI     C6 2664   2.813   0.972   0.816 -0.0716 -0.5211 -0.3951
  137ANI     C7 2665   2.898   1.005   0.919 -0.3046  0.2188 -0.1255
  137ANI     H1 2666   3.076   0.798   1.225  1.2187 -0.8933  0.1705
  137ANI     H2 2667   3.192   0.780   1.087 -0.5285  0.5395 -1.5094
  137ANI     H3 2668   3.212   0.902   1.220  0.3817 -0.2927  0.2756
  137ANI     H4 2669   3.016   0.692   0.988  1.1480 -0.1508 -1.5051
  137ANI     H5 2670   2.892   0.635   0.803 -0.6822  0.0644 -0.0741
  137ANI     H6 2671   2.715   0.820   0.707  0.5660  0.5677 -1.9594
  137ANI     H7 2672   2.738   1.040   0.776 -2.3199 -2.1136  0.9933
  137ANI     H8 2673   2.911   1.107   0.951 -0.2352  0.3537 -0.5734
  138ANI     C1 2674   1.090   2.468   2.257  0.3045 -0.1607 -0.0498
  138ANI     O1 2675   1.095   2.325   2.251  0.1328  0.1194  0.2248
  138ANI     C2 2676   1.211   2.253   2.253  0.7012 -0.9356  0.1651
  138ANI     C3 2677   1.338   2.318   2.264 -0.0483  0.3770 -0.9312
  138ANI     C4 2678   1.457   2.238   2.259  0.6627  0.2886  0.0752
  138ANI     C5 2679   1.444   2.098   2.252 -0.1161 -0.5025  0.4024
  138ANI     C6 2680   1.318   2.032   2.257 -0.2212  0.1786 -1.2153
  138ANI     C7 2681   1.199   2.113   2.260  0.1763 -0.6544  0.2093
  138ANI     H1 2682   0.989   2.505   2.236  0.3278 -0.2084 -0.2505
  138ANI     H2 2683   1.126   2.509   2.352 -2.1692  0.7281  0.5462
  138ANI     H3 2684   1.158   2.515   2.184 -0.4982  0.6088 -0.3209
  138ANI     H4 2685   1.354   2.426   2.264  1.6004  0.2021  3.1739
  138ANI     H5 2686   1.552   2.290   2.262  1.2030 -0.7505  1.3794
  138ANI     H6 2687   1.534   2.037   2.249  0.8219  0.8976 -0.4419
  138ANI     H7 2688   1.325   1.924   2.252 -0.6784  0.0874 -0.0654
  138ANI     H8 2689   1.103   2.063   2.265  0.7653 -1.9107 -0.9268
  139ANI     C1 2690   0.019   2.150   3.262 -0.3574  0.0185 -0.5436
  139ANI     O1 2691   0.125   2.232   3.238  0.1139 -0.1936  0.2833
  139ANI     C2 2692   0.143   2.282   3.108 -0.7675 -0.1590 -0.6082
  139ANI     C3 2693   0.083   2.226   2.993  0.2160  0.8757  0.3731
  139ANI     C4 2694   0.100   2.285   2.867 -0.6902  0.1585 -0.4918
  139ANI     C5 2695   0.183   2.403   2.852 -0.2127  0.0932  0.0864
  139ANI     C6 2696   0.236   2.452   2.971  0.1786  0.0391 -0.6048
  139ANI     C7 2697   0.220   2.396   3.092  0.2731  0.1160 -0.3534
  139ANI     H1 2698  -0.073   2.204   3.239 -1.3969 -0.8522  1.4545
  139ANI     H2 2699   0.024   2.061   3.198 -2.1979 -1.1216  0.8503
  139ANI     H3 2700   0.011   2.112   3.364 -0.8779 -0.5043 -0.7745
  139ANI     H4 2701   0.017   2.140   3.004  0.0736  0.6306 -2.1529
  139ANI     H5 2702   0.047   2.237   2.785 -0.8651  0.3067 -0.4666
  139ANI     H6 2703   0.198   2.445   2.754 -0.2700  0.5983  0.2941
  139ANI     H7 2704   0.291   2.544   2.959  0.2424  0.0506 -0.2052
  139ANI     H8 2705   0.258   2.441   3.184 -0.6178  0.4007 -0.1173
  140ANI     C1 2706   2.235   2.625   2.687 -0.3063  0.1194 -0.0252
  140ANI     O1 2707   2.183   2.732   2.600 -0.1776  0.5389 -0.7824
  140ANI     C2 2708   2.178   2.864   2.648  0.0769  0.3558 -0.1444
  140ANI     C3 2709   2.261   2.907   2.756  0.1020  0.8375 -0.1547
  140ANI     C4 2710   2.269   3.043   2.786 -0.2262  0.2299 -0.3558
  140ANI     C5 2711   2.195   3.125   2.708 -0.1320  0.1001  0.3839
  140ANI     C6 2712   2.101   3.087   2.606  0.1423  0.7916 -0.0106
  140ANI     C7 2713   2.095   2.954   2.579  0.3831  0.4803 -0.1911
  140ANI     H1 2714   2.205   2.528   2.646  2.6974 -1.4764  1.3603
  140ANI     H2 2715   2.344   2.637   2.700 -0.1659 -0.3669 -0.6885
  140ANI     H3 2716   2.193   2.616   2.787  1.0538  1.4955  0.7054
  140ANI     H4 2717   2.322   2.836   2.810  0.9873  1.7140  0.0148
  140ANI     H5 2718   2.327   3.083   2.868 -0.6076 -1.8523  0.9457
  140ANI     H6 2719   2.188   3.229   2.736 -0.8744  0.2504 -0.3454
  140ANI     H7 2720   2.035   3.157   2.557 -1.7017 -0.3560  0.7894
  140ANI     H8 2721   2.037   2.906   2.501  0.4846 -0.0545  0.0515
  141ANI     C1 2722   3.179   0.293   0.031 -0.4557  0.1607 -0.1239
  141ANI     O1 2723   3.121   0.266  -0.099 -0.0694 -0.0962 -0.0785
  141ANI     C2 2724   3.211   0.271  -0.208 -0.0680 -0.3141 -0.0760
  141ANI     C3 2725   3.355   0.260  -0.207  0.5586 -0.0628 -1.1896
  141ANI     C4 2726   3.426   0.235  -0.322 -0.5420  0.2778 -0.3065
  141ANI     C5 2727   3.360   0.236  -0.441  0.1004  0.2460 -0.5236
  141ANI     C6 2728   3.221   0.252  -0.452 -0.5872  0.0388 -0.1104
  141ANI     C7 2729   3.144   0.271  -0.335  0.1126 -0.2005  1.1865
  141ANI     H1 2730   3.104   0.335   0.100 -0.9034  0.2183 -0.6459
  141ANI     H2 2731   3.224   0.203   0.074  1.3308  1.9849  1.9496
  141ANI     H3 2732   3.250   0.377   0.027  0.9588 -1.0930 -2.1817
  141ANI     H4 2733   3.402   0.254  -0.109 -0.4849 -1.5329 -0.7578
  141ANI     H5 2734   3.530   0.205  -0.323  0.3409  3.1796 -2.7823
  141ANI     H6 2735   3.416   0.211  -0.531  0.3450 -2.5720  0.3717
  141ANI     H7 2736   3.186   0.250  -0.555  2.5636 -2.2559 -1.1998
  141ANI     H8 2737   3.039   0.299  -0.337  0.5039  1.2049 -0.9978
  142ANI     C1 2738   2.997   2.128   0.556  0.1421 -0.5857  0.0267
  142ANI     O1 2739   3.139   2.150   0.578 -0.3757  0.4841 -0.0889
  142ANI     C2 2740   3.189   2.278   0.600 -0.1921  0.0846  0.7615
  142ANI     C3 2741   3.294   2.287   0.687 -0.0262  0.0518 -0.1360
  142ANI     C4 2742   3.338   2.419   0.715 -0.4402 -0.7251  0.3395
  142ANI     C5 2743   3.282   2.533   0.656  0.3446  0.6554  0.0922
  142ANI     C6 2744   3.172   2.526   0.570  0.1105  0.4462  0.0644
  142ANI     C7 2745   3.132   2.392   0.536 -0.3831 -0.1928 -0.2135
  142ANI     H1 2746   2.971   2.024   0.533 -1.7151  0.1469 -1.4078
  142ANI     H2 2747   2.933   2.163   0.637 -0.1298  1.2224 -0.9307
  142ANI     H3 2748   2.970   2.174   0.460 -3.0482 -1.8041  0.2765
  142ANI     H4 2749   3.343   2.208   0.744 -0.5035 -0.1540 -0.0081
  142ANI     H5 2750   3.414   2.439   0.789 -0.4883 -1.3588  0.5582
  142ANI     H6 2751   3.303   2.638   0.678  1.0281  1.0081 -2.0742
  142ANI     H7 2752   3.122   2.614   0.531  1.8222  0.5408 -1.9958
  142ANI     H8 2753   3.057   2.375   0.459  0.4607  1.8540 -1.5172
  143ANI     C1 2754   1.742   1.044   2.939  0.4055  0.5613  0.2754
  143ANI     O1 2755   1.713   0.955   3.046  0.0075 -0.3166  0.1099
  143ANI     C2 2756   1.618   0.984   3.132  0.4590 -0.5112 -0.6548
  143ANI     C3 2757   1.639   0.920   3.257  0.5818  0.2756  0.2225
  143ANI     C4 2758   1.546   0.938   3.355  0.5633 -0.1430 -0.3959
  143ANI     C5 2759   1.427   1.008   3.329 -0.0331 -0.5021  0.2698
  143ANI     C6 2760   1.411   1.085   3.207 -0.2221  0.3832 -0.0209
  143ANI     C7 2761   1.507   1.072   3.100 -0.5776  0.0802  0.6918
  143ANI     H1 2762   1.851   1.046   2.929  0.5483 -2.1796  1.0427
  143ANI     H2 2763   1.709   0.998   2.845 -0.2056  0.2275  0.6465
  143ANI     H3 2764   1.698   1.145   2.944 -0.5478  0.0944  1.8164
  143ANI     H4 2765   1.716   0.846   3.270 -1.4989 -1.6904  1.6935
  143ANI     H5 2766   1.554   0.873   3.441 -1.1917  1.0410  0.6858
  143ANI     H6 2767   1.353   1.009   3.409 -1.4357  0.8490 -1.0193
  143ANI     H7 2768   1.328   1.153   3.186 -1.0440 -0.9428 -1.2094
  143ANI     H8 2769   1.497   1.117   3.002 -2.3278 -1.9401 -0.1160
  144ANI     C1 2770   3.293   2.043   2.258 -0.0711  0.0218  0.5601
  144ANI     O1 2771   3.218   1.925   2.240 -0.4956  0.4898 -0.8055
  144ANI     C2 2772   3.276   1.808   2.225  0.2976 -0.6921  0.4404
  144ANI     C3 2773   3.420   1.792   2.230 -0.6991 -0.1114 -0.3034
  144ANI     C4 2774   3.472   1.662   2.226 -0.3006 -0.5956 -0.2471
  144ANI     C5 2775   3.386   1.550   2.216  0.6313  0.3677  0.3275
  144ANI     C6 2776   3.244   1.567   2.212 -0.8060 -0.8119 -0.0972
  144ANI     C7 2777   3.189   1.700   2.212 -0.0021  0.2106  0.0262
  144ANI     H1 2778   3.234   2.134   2.237 -2.5973 -1.9748 -1.2773
  144ANI     H2 2779   3.341   2.048   2.356  0.6568 -1.5676  0.2858
  144ANI     H3 2780   3.365   2.060   2.178 -2.2854 -0.5379 -1.6238
  144ANI     H4 2781   3.489   1.875   2.244 -1.2829  0.5165 -1.1446
  144ANI     H5 2782   3.579   1.647   2.233  0.3428  2.6735 -2.0404
  144ANI     H6 2783   3.431   1.451   2.212  0.1912  0.1875 -0.2583
  144ANI     H7 2784   3.179   1.481   2.197 -0.3570 -1.4533  1.4922
  144ANI     H8 2785   3.085   1.714   2.186 -0.0428  0.4425  0.3115
  145ANI     C1 2786   0.836   1.137   0.698  0.1058  0.1678 -0.1089
  145ANI     O1 2787   0.702   1.147   0.749  0.2347  0.6391 -0.0078
  145ANI     C2 2788   0.607   1.045   0.763 -0.0033 -0.9119 -0.5743
  145ANI     C3 2789   0.628   0.917   0.718 -0.1803  0.3769  0.2352
  145ANI     C4 2790   0.532   0.822   0.718  0.4975 -0.0047 -0.4402
  145ANI     C5 2791   0.405   0.857   0.770 -0.8132 -0.1456 -0.3011
  145ANI     C6 2792   0.380   0.987   0.812 -0.1113 -0.8009 -0.2886
  145ANI     C7 2793   0.482   1.087   0.811 -0.0299  0.2902  0.2048
  145ANI     H1 2794   0.845   1.090   0.599  0.6774  0.2617 -0.1052
  145ANI     H2 2795   0.874   1.240   0.695  0.2805  0.0724 -1.7338
  145ANI     H3 2796   0.899   1.077   0.766 -0.9694 -2.7028 -1.5545
  145ANI     H4 2797   0.724   0.879   0.683 -0.4619  0.2410 -0.3915
  145ANI     H5 2798   0.556   0.721   0.686  0.4649 -0.4235  0.8260
  145ANI     H6 2799   0.320   0.792   0.749 -0.8990  0.2901 -1.3561
  145ANI     H7 2800   0.279   1.018   0.839  0.4212 -1.5086  2.7606
  145ANI     H8 2801   0.467   1.188   0.848  1.6429  1.5179 -2.2698
  146ANI     C1 2802   2.424   3.402   1.550  0.0813 -0.0588  0.0453
  146ANI     O1 2803   2.528   3.306   1.561 -0.1665 -0.1588  0.0941
  146ANI     C2 2804   2.656   3.341   1.547  0.1015  0.2592 -0.5978
  146ANI     C3 2805   2.707   3.474   1.556  0.8291 -0.7550 -0.3498
  146ANI     C4 2806   2.839   3.506   1.559 -0.6441  0.1881  0.2592
  146ANI     C5 2807   2.931   3.399   1.554 -0.1345  0.4860  0.2073
  146ANI     C6 2808   2.879   3.262   1.541  0.5876  0.6203  0.1032
  146ANI     C7 2809   2.744   3.243   1.536  0.2208  0.6820 -0.3231
  146ANI     H1 2810   2.325   3.356   1.553  0.2019 -0.3886 -0.7700
  146ANI     H2 2811   2.430   3.467   1.638  2.0632  0.5934 -0.5506
  146ANI     H3 2812   2.434   3.464   1.459  1.7746 -1.1388 -0.5216
  146ANI     H4 2813   2.636   3.555   1.568  0.8299 -0.9735  1.2553
  146ANI     H5 2814   2.878   3.607   1.566  1.4617 -0.5675 -0.0746
  146ANI     H6 2815   3.037   3.421   1.552  0.1368 -0.4941  2.7500
  146ANI     H7 2816   2.953   3.183   1.541 -0.0874 -0.0376 -2.7293
  146ANI     H8 2817   2.705   3.142   1.545  0.5807  0.5128 -0.6088
  147ANI     C1 2818   0.017   1.182   0.258  0.7247 -0.1194 -0.0353
  147ANI     O1 2819  -0.053   1.273   0.348 -0.1797 -0.5801 -0.1676
  147ANI     C2 2820   0.020   1.349   0.448  0.3078  0.3017 -0.1913
  147ANI     C3 2821   0.158   1.334   0.471  0.8826  0.6407  0.4398
  147ANI     C4 2822   0.220   1.406   0.572 -0.1230  0.5341 -0.1777
  147ANI     C5 2823   0.141   1.495   0.650 -0.1051  0.3985  0.5554
  147ANI     C6 2824   0.008   1.515   0.625 -0.8898 -0.0748 -0.1561
  147ANI     C7 2825  -0.056   1.442   0.513 -0.4208  0.2686 -0.2117
  147ANI     H1 2826  -0.062   1.147   0.189  0.1797  1.3990 -0.2100
  147ANI     H2 2827   0.084   1.244   0.197 -0.2081 -1.8223 -2.9149
  147ANI     H3 2828   0.079   1.107   0.308  0.2118  0.4670  1.5021
  147ANI     H4 2829   0.224   1.271   0.412  1.1496  1.2026  0.1318
  147ANI     H5 2830   0.326   1.396   0.590  0.1691 -1.6791 -2.7332
  147ANI     H6 2831   0.200   1.549   0.723 -2.1853  1.0429  1.8072
  147ANI     H7 2832  -0.042   1.588   0.687  0.1333  0.3326  0.1957
  147ANI     H8 2833  -0.163   1.453   0.499 -0.7104 -1.5810  0.3580
  148ANI     C1 2834   2.629   3.316   0.956  0.3117 -0.2587 -0.6328
  148ANI     O1 2835   2.566   3.186   0.969 -0.2731 -0.1783 -0.3083
  148ANI     C2 2836   2.434   3.156   0.948  0.2566  0.4201 -0.6435
  148ANI     C3 2837   2.369   3.047   1.014 -0.1880  0.3334  0.1131
  148ANI     C4 2838   2.237   3.003   0.991  0.0267  0.3670  0.0250
  148ANI     C5 2839   2.162   3.086   0.907 -0.3635  1.1236 -0.3212
  148ANI     C6 2840   2.219   3.202   0.849 -0.0213 -0.1922  0.2070
  148ANI     C7 2841   2.354   3.236   0.866 -0.6917 -0.6204 -0.1151
  148ANI     H1 2842   2.732   3.327   0.993  1.2629 -2.6337 -2.4400
  148ANI     H2 2843   2.642   3.351   0.853 -0.9238  0.1462 -0.6527
  148ANI     H3 2844   2.577   3.401   1.002  0.4554  0.4896 -1.8321
  148ANI     H4 2845   2.419   2.994   1.095 -1.0861  1.4879  1.4627
  148ANI     H5 2846   2.191   2.919   1.042  0.9014 -0.1963 -0.1034
  148ANI     H6 2847   2.062   3.056   0.878  0.1440 -1.3445  0.3537
  148ANI     H7 2848   2.160   3.264   0.783 -0.0886  0.6650  1.0503
  148ANI     H8 2849   2.388   3.326   0.817  0.0837  0.8530  3.0367
  149ANI     C1 2850   2.982   2.609   2.263  0.3190  0.5404 -0.8193
  149ANI     O1 2851   3.116   2.556   2.230  0.3009 -0.2135  0.5053
  149ANI     C2 2852   3.205   2.509   2.317  0.0952 -0.5224 -0.1083
  149ANI     C3 2853   3.203   2.557   2.447 -0.4565 -0.4811  0.3360
  149ANI     C4 2854   3.300   2.502   2.537  0.2473 -0.1888  0.0380
  149ANI     C5 2855   3.389   2.412   2.494  0.5750  0.3130  0.3232
  149ANI     C6 2856   3.391   2.362   2.359 -0.6307 -0.1385  0.7831
  149ANI     C7 2857   3.301   2.423   2.270 -0.1558 -0.4397  0.2498
  149ANI     H1 2858   2.934   2.637   2.168 -0.1858  0.0212 -0.7185
  149ANI     H2 2859   2.925   2.530   2.313  1.1365 -0.4293 -1.3878
  149ANI     H3 2860   2.982   2.700   2.324 -0.2928  0.0452 -0.0694
  149ANI     H4 2861   3.139   2.641   2.474  0.6497  0.0498  1.3785
  149ANI     H5 2862   3.291   2.523   2.643  1.5270 -1.3600  0.4089
  149ANI     H6 2863   3.462   2.385   2.570  1.0493  4.2303  1.3587
  149ANI     H7 2864   3.472   2.294   2.337  1.0551  0.9147  3.4896
  149ANI     H8 2865   3.307   2.403   2.164  0.2468  1.3534 -0.0939
  150ANI     C1 2866   2.081   1.676   3.462 -0.3387 -0.0581  0.3842
  150ANI     O1 2867   2.044   1.570   3.553 -0.2849 -0.0141  0.0738
  150ANI     C2 2868   1.940   1.486   3.528  0.0853  0.3561 -0.6386
  150ANI     C3 2869   1.928   1.442   3.400  0.0589  0.1216 -0.2355
  150ANI     C4 2870   1.818   1.357   3.363 -0.7827 -0.5215 -0.1795
  150ANI     C5 2871   1.733   1.322   3.465 -0.1498 -0.4288 -0.0423
  150ANI     C6 2872   1.746   1.372   3.595  0.5405 -0.3522  0.1788
  150ANI     C7 2873   1.853   1.447   3.630  0.1560  0.3247 -0.8532
  150ANI     H1 2874   2.176   1.725   3.483 -0.9502  0.2822  2.5441
  150ANI     H2 2875   2.099   1.637   3.361  1.3603 -1.4942  1.2181
  150ANI     H3 2876   2.005   1.755   3.470  1.0374  1.3525 -0.1372
  150ANI     H4 2877   1.991   1.467   3.315  1.7950  0.3556  1.1012
  150ANI     H5 2878   1.822   1.310   3.265  2.1284  0.9310 -0.8211
  150ANI     H6 2879   1.657   1.245   3.451  0.4132 -0.9048 -0.5515
  150ANI     H7 2880   1.672   1.336   3.666  1.0269 -2.7614 -0.4831
  150ANI     H8 2881   1.870   1.484   3.731  1.0100  0.3584 -1.0023
  151ANI     C1 2882   1.790   2.156   0.024  0.5007  0.4469 -0.6157
  151ANI     O1 2883   1.823   2.284  -0.024  0.4827  0.1245  0.2536
  151ANI     C2 2884   1.751   2.369  -0.102  0.1018 -0.0732 -0.3945
  151ANI     C3 2885   1.614   2.338  -0.125  0.8682  0.0613  0.4982
  151ANI     C4 2886   1.533   2.412  -0.206  0.0966  0.5310 -0.1152
  151ANI     C5 2887   1.591   2.531  -0.268  0.4705  0.6697 -0.3050
  151ANI     C6 2888   1.729   2.555  -0.240  0.0725 -0.4864  0.0862
  151ANI     C7 2889   1.809   2.476  -0.156  0.2047 -0.9092  0.9413
  151ANI     H1 2890   1.724   2.178   0.109  1.4243 -0.4693  0.3537
  151ANI     H2 2891   1.745   2.094  -0.054 -3.1348  1.6918  0.3755
  151ANI     H3 2892   1.879   2.098   0.051  0.5673  0.5817 -0.5407
  151ANI     H4 2893   1.571   2.248  -0.081 -1.2060 -0.4166 -2.3859
  151ANI     H5 2894   1.428   2.388  -0.220  0.3294 -0.1150 -0.7593
  151ANI     H6 2895   1.536   2.599  -0.333 -2.2873 -0.9789  0.2264
  151ANI     H7 2896   1.772   2.637  -0.298 -3.1912  1.7973  0.7165
  151ANI     H8 2897   1.913   2.505  -0.148 -0.0386 -0.2952  2.0858
  152ANI     C1 2898   3.239   2.887   0.405 -0.1548  0.4934 -0.2184
  152ANI     O1 2899   3.116   2.930   0.340  0.5479  0.1803  0.0973
  152ANI     C2 2900   3.115   2.972   0.207  0.4250 -0.8563  0.0255
  152ANI     C3 2901   3.232   2.985   0.125  0.0156 -0.2337 -0.1846
  152ANI     C4 2902   3.219   3.019  -0.009  0.1741  1.0299 -0.1654
  152ANI     C5 2903   3.095   3.052  -0.068  0.0096  0.4014 -0.0263
  152ANI     C6 2904   2.979   3.038   0.017 -0.6737  0.4099 -0.4809
  152ANI     C7 2905   2.987   3.011   0.152 -0.1540 -0.0721 -0.1251
  152ANI     H1 2906   3.295   2.977   0.430 -1.4671  0.5010  2.9719
  152ANI     H2 2907   3.220   2.823   0.492  0.1401 -1.4923 -1.5784
  152ANI     H3 2908   3.303   2.828   0.337 -0.9552 -0.4214 -0.1925
  152ANI     H4 2909   3.328   2.950   0.162 -0.1200 -0.0305  0.3684
  152ANI     H5 2910   3.307   3.035  -0.071  2.8458 -1.1965  2.8405
  152ANI     H6 2911   3.078   3.084  -0.170 -3.6924  1.0586  0.7135
  152ANI     H7 2912   2.882   3.068  -0.020 -1.8924 -1.9384  0.7485
  152ANI     H8 2913   2.896   3.012   0.212 -1.0330  1.4179 -1.4551
  153ANI     C1 2914   2.822   0.592   1.205  0.2550 -0.4204 -0.1749
  153ANI     O1 2915   2.678   0.576   1.192  0.2045 -0.1550 -0.1821
  153ANI     C2 2916   2.598   0.669   1.134 -0.2136  0.1576  0.1786
  153ANI     C3 2917   2.643   0.793   1.079 -0.0117 -0.3094 -0.8113
  153ANI     C4 2918   2.554   0.884   1.019 -0.2141  0.8823 -0.0471
  153ANI     C5 2919   2.420   0.851   1.003  0.1181 -0.7112 -0.1105
  153ANI     C6 2920   2.371   0.727   1.053  0.2251 -0.2074 -0.3979
  153ANI     C7 2921   2.460   0.636   1.120 -0.0864 -0.3409  0.1420
  153ANI     H1 2922   2.857   0.691   1.237  0.9735 -0.1267 -1.8389
  153ANI     H2 2923   2.864   0.518   1.274 -0.3076  0.0985  0.7343
  153ANI     H3 2924   2.869   0.587   1.106 -1.2892  0.3866 -0.9700
  153ANI     H4 2925   2.744   0.831   1.091 -0.2378  0.3314 -0.8830
  153ANI     H5 2926   2.591   0.974   0.970  3.1648 -1.4271 -1.9068
  153ANI     H6 2927   2.350   0.922   0.962  1.3652 -0.1286 -1.2895
  153ANI     H7 2928   2.266   0.698   1.049  0.0737 -0.4433  3.6235
  153ANI     H8 2929   2.432   0.543   1.168 -0.0413 -0.7256 -0.5586
  154ANI     C1 2930   2.573   2.437   1.267 -0.2705 -0.4292 -0.4821
  154ANI     O1 2931   2.546   2.511   1.390 -0.5066  0.6167  0.3375
  154ANI     C2 2932   2.522   2.646   1.396 -0.2240 -0.4644  0.3089
  154ANI     C3 2933   2.560   2.740   1.292 -0.7782 -0.1985  0.1917
  154ANI     C4 2934   2.539   2.882   1.312 -0.6768  0.3076 -0.7335
  154ANI     C5 2935   2.476   2.926   1.431 -0.5472  0.2477 -0.1437
  154ANI     C6 2936   2.443   2.835   1.535 -0.5491  0.0489 -0.7188
  154ANI     C7 2937   2.463   2.701   1.514  0.6787  0.8553  0.4447
  154ANI     H1 2938   2.484   2.436   1.203 -0.2289  2.3644 -0.6150
  154ANI     H2 2939   2.658   2.477   1.211 -0.6735  0.1274 -0.7014
  154ANI     H3 2940   2.599   2.338   1.306 -1.8385  0.1307  2.1589
  154ANI     H4 2941   2.612   2.705   1.203  3.3073  2.9267  1.2296
  154ANI     H5 2942   2.592   2.952   1.248  0.8953 -1.3151 -1.2288
  154ANI     H6 2943   2.462   3.033   1.446  1.2851  0.7499 -1.8200
  154ANI     H7 2944   2.408   2.867   1.633 -0.1304  0.2978 -0.6496
  154ANI     H8 2945   2.437   2.629   1.590 -2.1636 -0.6666 -1.8822
  155ANI     C1 2946   3.046   1.855   1.481 -0.5869 -0.8847 -0.2445
  155ANI     O1 2947   2.974   1.966   1.529 -0.4365 -0.1904 -0.0769
  155ANI     C2 2948   3.037   2.086   1.547  0.0381 -0.1598 -0.8471
  155ANI     C3 2949   3.179   2.095   1.567  0.8151 -0.3004 -0.5050
  155ANI     C4 2950   3.234   2.227   1.595 -0.2600 -0.2843  0.6346
  155ANI     C5 2951   3.154   2.338   1.599 -0.0109  0.5164  1.0753
  155ANI     C6 2952   3.018   2.324   1.586 -0.2682 -0.0575 -0.2499
  155ANI     C7 2953   2.960   2.199   1.554 -0.4712  0.9223  0.0263
  155ANI     H1 2954   3.128   1.828   1.550  1.2326  4.3375 -0.1326
  155ANI     H2 2955   2.979   1.769   1.480 -0.6662 -0.8164 -0.7205
  155ANI     H3 2956   3.085   1.881   1.382 -2.8356  0.0056 -0.9122
  155ANI     H4 2957   3.239   2.005   1.573  0.9212 -0.1731  0.4049
  155ANI     H5 2958   3.340   2.247   1.612 -0.2539  1.3791 -1.2638
  155ANI     H6 2959   3.206   2.432   1.617 -0.2805  0.6959  0.9280
  155ANI     H7 2960   2.954   2.412   1.584  0.0173  0.1414 -0.6557
  155ANI     H8 2961   2.852   2.193   1.542 -0.5443 -0.3703  1.1823
  156ANI     C1 2962   1.186   1.762   1.520 -0.4487 -0.0690 -0.2096
  156ANI     O1 2963   1.215   1.621   1.566 -0.1111  0.1435  0.0510
  156ANI     C2 2964   1.276   1.521   1.496  0.3341  0.0727  0.9333
  156ANI     C3 2965   1.321   1.534   1.363  0.3580 -0.0268 -0.6470
  156ANI     C4 2966   1.385   1.432   1.290  0.1338  0.2923 -0.0503
  156ANI     C5 2967   1.414   1.313   1.357  0.1646  0.2406  0.5524
  156ANI     C6 2968   1.372   1.292   1.493 -0.6345  0.0002 -0.0611
  156ANI     C7 2969   1.304   1.399   1.559  0.3484 -0.3423  0.2703
  156ANI     H1 2970   1.109   1.763   1.442 -0.5768  0.2400 -0.0801
  156ANI     H2 2971   1.142   1.823   1.600  0.1804  0.3142 -0.1539
  156ANI     H3 2972   1.269   1.821   1.481 -0.0865  0.4157  1.2634
  156ANI     H4 2973   1.321   1.633   1.317 -0.4041 -0.8699 -2.5264
  156ANI     H5 2974   1.417   1.439   1.187  1.1195 -0.5145  0.1971
  156ANI     H6 2975   1.465   1.228   1.310  1.2226  1.7423 -1.1008
  156ANI     H7 2976   1.398   1.198   1.539  2.9000  0.7114 -0.4823
  156ANI     H8 2977   1.279   1.394   1.664  1.3100  0.3412  0.5469
  157ANI     C1 2978   2.072   0.110   1.513 -0.1275 -0.3423  0.2774
  157ANI     O1 2979   2.013  -0.016   1.562 -0.1247  0.0135  0.2860
  157ANI     C2 2980   2.018  -0.128   1.480 -0.6596 -0.1493 -0.6568
  157ANI     C3 2981   1.937  -0.240   1.517 -0.5626 -0.2320 -0.1555
  157ANI     C4 2982   1.930  -0.359   1.434 -0.4412 -0.3928 -0.3106
  157ANI     C5 2983   2.009  -0.355   1.313  0.5192 -0.0813 -0.4524
  157ANI     C6 2984   2.098  -0.247   1.281  0.4318 -0.2450 -0.4567
  157ANI     C7 2985   2.102  -0.131   1.370  0.1874  0.8467  0.2679
  157ANI     H1 2986   2.075   0.122   1.404  0.2464 -2.1068  0.0789
  157ANI     H2 2987   2.004   0.188   1.551 -0.5859  0.8223 -2.8168
  157ANI     H3 2988   2.171   0.124   1.559 -0.1355 -0.9723  0.4833
  157ANI     H4 2989   1.878  -0.231   1.608  2.8566 -0.4736  2.1478
  157ANI     H5 2990   1.865  -0.441   1.460 -0.4690  0.0202  0.9752
  157ANI     H6 2991   2.009  -0.443   1.251  2.7960  0.5750 -1.4415
  157ANI     H7 2992   2.155  -0.248   1.189 -2.6430  0.2675 -2.4458
  157ANI     H8 2993   2.162  -0.045   1.342 -3.4918  3.3057 -0.4511
  158ANI     C1 2994   2.110   2.408   1.495  0.0902 -0.2258 -0.6837
  158ANI     O1 2995   2.249   2.381   1.535 -1.1293  0.2390  0.1171
  158ANI     C2 2996   2.296   2.248   1.549 -0.0326 -0.5790  0.3426
  158ANI     C3 2997   2.438   2.214   1.531  0.2230 -0.2109  0.3980
  158ANI     C4 2998   2.477   2.083   1.545 -0.2513 -0.0590  0.3724
  158ANI     C5 2999   2.385   1.983   1.571  0.2104  0.5613 -0.1547
  158ANI     C6 3000   2.250   2.011   1.579  0.1046 -0.1433  0.0489
  158ANI     C7 3001   2.202   2.147   1.572 -0.2410  0.0101 -0.2981
  158ANI     H1 3002   2.100   2.517   1.499 -0.8608 -0.2877 -1.3642
  158ANI     H2 3003   2.083   2.366   1.397 -1.9534 -0.2876 -0.1154
  158ANI     H3 3004   2.040   2.361   1.564  0.7602 -1.4005 -0.7944
  158ANI     H4 3005   2.515   2.290   1.517 -0.3982  0.1566 -1.1185
  158ANI     H5 3006   2.583   2.057   1.542  0.0272  1.1638 -0.9843
  158ANI     H6 3007   2.427   1.884   1.578 -0.5899  0.2662  0.5766
  158ANI     H7 3008   2.176   1.933   1.596 -2.1837  2.1817  1.0762
  158ANI     H8 3009   2.097   2.169   1.591 -0.1133  1.0303 -0.7436
  159ANI     C1 3010   0.932   0.206   2.393  0.0577  0.0017 -0.1996
  159ANI     O1 3011   0.975   0.334   2.446 -0.2876 -0.3028 -0.2732
  159ANI     C2 3012   1.087   0.352   2.527 -0.8206  0.5233 -0.3121
  159ANI     C3 3013   1.132   0.480   2.546  0.1799  0.1073 -0.7449
  159ANI     C4 3014   1.250   0.498   2.628 -0.0846  0.4903  0.4914
  159ANI     C5 3015   1.320   0.394   2.679 -0.6265  0.0855 -0.4403
  159ANI     C6 3016   1.276   0.267   2.660  0.2935  0.2116 -0.1168
  159ANI     C7 3017   1.162   0.248   2.581 -0.0901  0.7333 -0.9071
  159ANI     H1 3018   0.837   0.212   2.339 -0.3879 -3.0692  0.1282
  159ANI     H2 3019   1.010   0.173   2.323  1.1578  1.6659  0.2331
  159ANI     H3 3020   0.918   0.125   2.465  1.6519  0.2978  0.4572
  159ANI     H4 3021   1.085   0.569   2.505  0.8341  0.8532  0.1026
  159ANI     H5 3022   1.295   0.596   2.642 -0.0331  0.4913  0.3230
  159ANI     H6 3023   1.413   0.420   2.729 -0.1300  0.3068 -1.4717
  159ANI     H7 3024   1.334   0.177   2.683 -1.4210 -1.2157 -1.2809
  159ANI     H8 3025   1.136   0.147   2.549 -0.1559  0.4156  0.1364
  160ANI     C1 3026   0.779   2.821   1.207 -0.6230  0.3395 -0.3125
  160ANI     O1 3027   0.724   2.902   1.102  0.0349 -0.3351 -0.1571
  160ANI     C2 3028   0.666   3.022   1.125 -0.5865 -0.0834  0.8156
  160ANI     C3 3029   0.733   3.126   1.184 -0.0580 -0.7137  0.7608
  160ANI     C4 3030   0.669   3.250   1.208 -0.4133  0.4409 -0.1409
  160ANI     C5 3031   0.542   3.271   1.159  0.2911  0.1761  0.2179
  160ANI     C6 3032   0.475   3.165   1.097  0.3310  0.6670  0.0656
  160ANI     C7 3033   0.536   3.038   1.083 -0.6424 -0.2288  0.1978
  160ANI     H1 3034   0.877   2.866   1.231 -0.3524  0.2800 -1.3065
  160ANI     H2 3035   0.721   2.809   1.299  0.6996  0.3308  0.5453
  160ANI     H3 3036   0.797   2.723   1.161  0.1928 -1.2126  3.0940
  160ANI     H4 3037   0.835   3.110   1.217  0.5113 -0.6182 -0.9351
  160ANI     H5 3038   0.720   3.332   1.260 -1.8208  2.0903 -1.3092
  160ANI     H6 3039   0.474   3.348   1.195 -1.5250 -1.3756  0.2130
  160ANI     H7 3040   0.376   3.179   1.054  0.0187 -0.2680  0.4561
  160ANI     H8 3041   0.499   2.952   1.028 -2.4565  0.3607  0.4850
  161ANI     C1 3042   2.188   1.094   0.705  0.0834 -0.6327  0.5899
  161ANI     O1 3043   2.143   1.062   0.840  0.2563 -0.0691  0.3587
  161ANI     C2 3044   2.087   0.938   0.873  0.5463 -1.2257  0.2557
  161ANI     C3 3045   2.027   0.922   1.000 -0.3488  0.5746 -0.3295
  161ANI     C4 3046   1.967   0.809   1.043 -0.2813 -0.0981 -0.0941
  161ANI     C5 3047   1.968   0.703   0.951  0.1494  0.2469 -0.4448
  161ANI     C6 3048   2.042   0.705   0.834 -0.3982 -0.2575  0.4328
  161ANI     C7 3049   2.104   0.825   0.795 -0.4763 -0.0904 -0.3205
  161ANI     H1 3050   2.105   1.087   0.634 -0.0237  1.3969  0.4750
  161ANI     H2 3051   2.216   1.200   0.705  0.5665 -0.7273 -1.9325
  161ANI     H3 3052   2.276   1.036   0.677  1.4243  0.8763  1.6064
  161ANI     H4 3053   2.004   1.007   1.063  1.7299 -0.0253  1.2928
  161ANI     H5 3054   1.913   0.798   1.138 -2.3621  2.2721 -0.9412
  161ANI     H6 3055   1.916   0.615   0.988  1.5038  0.2755  1.6076
  161ANI     H7 3056   2.039   0.617   0.770  1.4080 -1.2108  1.6274
  161ANI     H8 3057   2.159   0.829   0.702  0.6583 -3.6541  0.1034
  162ANI     C1 3058   1.977   1.840   2.695  0.5440  0.0956  0.1618
  162ANI     O1 3059   1.950   1.953   2.781  0.2373 -0.4678  0.5443
  162ANI     C2 3060   1.958   2.079   2.739  0.1379  0.4361 -0.2491
  162ANI     C3 3061   2.008   2.114   2.617  0.4536  0.3821  0.0710
  162ANI     C4 3062   1.999   2.250   2.584 -0.3573  0.2348  0.5095
  162ANI     C5 3063   1.940   2.344   2.669 -0.2566  0.5395 -0.6475
  162ANI     C6 3064   1.901   2.304   2.803  0.3760  0.8102  0.5719
  162ANI     C7 3065   1.902   2.172   2.830 -0.0922 -0.7892 -0.4151
  162ANI     H1 3066   1.918   1.853   2.603 -1.3680 -2.7409  0.9333
  162ANI     H2 3067   2.081   1.830   2.662  0.9264  1.2902  0.9978
  162ANI     H3 3068   1.944   1.741   2.730  1.1214 -0.4236 -0.7156
  162ANI     H4 3069   2.046   2.045   2.541  0.0458  1.8918 -1.5240
  162ANI     H5 3070   2.028   2.280   2.483 -1.8468 -0.3547 -0.1062
  162ANI     H6 3071   1.939   2.447   2.634 -0.3852  0.9765  0.5969
  162ANI     H7 3072   1.848   2.376   2.866 -0.9372  1.0726 -0.7940
  162ANI     H8 3073   1.865   2.136   2.926  0.6065  1.6173  0.8004
  163ANI     C1 3074   1.386   1.143   2.284  0.2681 -0.8142  0.8158
  163ANI     O1 3075   1.451   1.265   2.238  0.0575 -0.3363  0.2662
  163ANI     C2 3076   1.382   1.385   2.238 -0.1478  0.5272  0.2164
  163ANI     C3 3077   1.241   1.400   2.218 -0.0009  0.2244  0.1763
  163ANI     C4 3078   1.178   1.525   2.218 -0.5326  1.1652 -0.4171
  163ANI     C5 3079   1.257   1.634   2.261 -0.1414 -0.1411 -0.7995
  163ANI     C6 3080   1.391   1.619   2.282 -0.1261  0.3772 -0.3814
  163ANI     C7 3081   1.461   1.494   2.262 -0.6157 -0.2462  0.5972
  163ANI     H1 3082   1.296   1.119   2.226  1.3551 -2.1544 -0.3544
  163ANI     H2 3083   1.459   1.061   2.274  2.3458  1.0632 -0.1187
  163ANI     H3 3084   1.342   1.159   2.383 -0.7655  2.1986 -0.0529
  163ANI     H4 3085   1.170   1.322   2.193 -0.3374  0.5681  0.0652
  163ANI     H5 3086   1.078   1.540   2.179 -0.5658  2.0728  0.0131
  163ANI     H6 3087   1.213   1.734   2.259 -0.5474 -0.2911  0.1287
  163ANI     H7 3088   1.446   1.705   2.319 -1.6817 -0.0531  3.1268
  163ANI     H8 3089   1.567   1.478   2.280 -0.2425  0.3716 -0.9909
  164ANI     C1 3090   2.910   3.007   2.294  0.6451  0.2120  0.0702
  164ANI     O1 3091   2.801   3.013   2.390  0.4336  0.2738  0.0226
  164ANI     C2 3092   2.686   2.940   2.361 -0.0782  0.7839  0.6875
  164ANI     C3 3093   2.678   2.831   2.265 -0.3646 -0.6539  0.3482
  164ANI     C4 3094   2.554   2.769   2.251  0.2618 -0.6093  0.5636
  164ANI     C5 3095   2.438   2.829   2.304  0.0003 -0.2108 -0.4796
  164ANI     C6 3096   2.448   2.934   2.401 -0.0330  0.0044  0.0606
  164ANI     C7 3097   2.571   2.989   2.419  0.0661  0.4649 -0.7532
  164ANI     H1 3098   2.958   2.910   2.313 -0.4203 -0.3242  0.0770
  164ANI     H2 3099   2.882   3.035   2.192  1.1761 -0.1116 -0.1629
  164ANI     H3 3100   2.987   3.081   2.322  2.1009 -1.2915  0.1085
  164ANI     H4 3101   2.768   2.800   2.213 -0.4982 -0.3708 -0.0526
  164ANI     H5 3102   2.537   2.694   2.174  0.3977 -1.0599  0.9707
  164ANI     H6 3103   2.338   2.788   2.291 -0.3266  0.9867 -1.9083
  164ANI     H7 3104   2.361   2.981   2.447 -1.1693 -1.0615 -0.9290
  164ANI     H8 3105   2.582   3.072   2.488 -3.4904 -0.9446  1.6850
  165ANI     C1 3106   1.315   2.724   3.349 -0.2801  0.6752  0.0571
  165ANI     O1 3107   1.339   2.627   3.246 -0.1690 -0.0538 -0.0516
  165ANI     C2 3108   1.315   2.664   3.112 -0.5339  0.2337 -0.0464
  165ANI     C3 3109   1.311   2.565   3.008 -0.4131  0.6072 -0.3423
  165ANI     C4 3110   1.287   2.593   2.872 -0.3062 -0.0428 -0.6445
  165ANI     C5 3111   1.263   2.728   2.840 -0.5834  0.0260  0.6259
  165ANI     C6 3112   1.252   2.822   2.947 -0.2544 -0.1207  0.5266
  165ANI     C7 3113   1.285   2.794   3.080  1.0940  0.9328  0.2878
  165ANI     H1 3114   1.399   2.794   3.347 -1.1912  1.7742 -0.1598
  165ANI     H2 3115   1.220   2.778   3.339 -0.5468  0.6308  2.1301
  165ANI     H3 3116   1.334   2.677   3.447  0.8714  0.2100 -0.3837
  165ANI     H4 3117   1.332   2.461   3.032  1.9949  0.9764 -0.7106
  165ANI     H5 3118   1.313   2.519   2.797  0.8073 -1.3259  0.9755
  165ANI     H6 3119   1.238   2.749   2.736 -1.1695  0.2520  0.8100
  165ANI     H7 3120   1.224   2.922   2.917 -1.5710 -0.9677 -1.1182
  165ANI     H8 3121   1.286   2.874   3.154  1.2886  1.7461 -0.5722
  166ANI     C1 3122   1.185   2.504   3.691  0.0588  0.1663  0.4180
  166ANI     O1 3123   1.055   2.502   3.629  0.6493  0.3533 -0.9167
  166ANI     C2 3124   0.983   2.391   3.614 -0.1126  0.6631 -0.7574
  166ANI     C3 3125   1.021   2.264   3.658  0.0195 -0.3301  0.0027
  166ANI     C4 3126   0.938   2.152   3.629 -0.2822 -0.2452  0.0309
  166ANI     C5 3127   0.811   2.172   3.572 -0.0771 -0.4911 -0.3741
  166ANI     C6 3128   0.775   2.301   3.537 -0.2761  0.2318  0.7191
  166ANI     C7 3129   0.857   2.410   3.554  0.3999  0.5149 -1.1833
  166ANI     H1 3130   1.224   2.599   3.653  0.2335  0.9022  2.4005
  166ANI     H2 3131   1.182   2.506   3.801 -0.1002 -0.0389  0.4180
  166ANI     H3 3132   1.248   2.417   3.667 -0.9720 -0.3495 -0.4441
  166ANI     H4 3133   1.114   2.244   3.709  0.0852 -1.0540 -0.4022
  166ANI     H5 3134   0.974   2.053   3.652 -1.2087 -0.7662 -0.7439
  166ANI     H6 3135   0.742   2.088   3.568 -0.6689 -0.3811  4.2953
  166ANI     H7 3136   0.674   2.323   3.504 -0.1418 -0.2547 -0.0211
  166ANI     H8 3137   0.822   2.512   3.538 -0.9062  0.5929  1.7248
  167ANI     C1 3138   0.061   0.048   2.510  0.1850 -0.7846 -0.5523
  167ANI     O1 3139   0.190   0.010   2.565  0.4099  0.2872  0.1826
  167ANI     C2 3140   0.197  -0.098   2.653 -0.1892 -0.7131  0.0433
  167ANI     C3 3141   0.086  -0.169   2.707 -0.6816  0.1703  0.2238
  167ANI     C4 3142   0.110  -0.275   2.799  0.1821  0.3829  0.1817
  167ANI     C5 3143   0.238  -0.306   2.834  0.4096 -0.8130  0.2379
  167ANI     C6 3144   0.347  -0.239   2.780 -0.1729 -0.2601  0.5091
  167ANI     C7 3145   0.325  -0.138   2.689  0.6554  0.2558  0.1557
  167ANI     H1 3146   0.072   0.127   2.434 -2.8768  0.7172  0.4409
  167ANI     H2 3147   0.019  -0.040   2.460 -1.5258  1.4325 -3.1868
  167ANI     H3 3148   0.001   0.074   2.598  0.7625 -0.7087 -0.1828
  167ANI     H4 3149  -0.015  -0.133   2.688  0.2384  1.6502 -2.0393
  167ANI     H5 3150   0.023  -0.329   2.835  0.3242 -0.1044 -0.1989
  167ANI     H6 3151   0.251  -0.367   2.923 -0.0967 -1.1044  0.1110
  167ANI     H7 3152   0.449  -0.253   2.815 -0.0529  0.5416  0.4788
  167ANI     H8 3153   0.412  -0.084   2.653  0.8305  0.1295  0.3853
  168ANI     C1 3154   2.262   3.178   3.352 -1.3241  0.5395 -0.1041
  168ANI     O1 3155   2.158   3.199   3.256  0.2242 -0.0301  0.0019
  168ANI     C2 3156   2.068   3.308   3.270  0.6786  0.1548  0.9711
  168ANI     C3 3157   2.114   3.427   3.330 -0.2649 -0.2633 -0.3496
  168ANI     C4 3158   2.029   3.535   3.345 -0.5184 -0.0006 -0.3821
  168ANI     C5 3159   1.902   3.523   3.301  0.8561 -0.0993 -0.1967
  168ANI     C6 3160   1.852   3.406   3.236  0.4149 -0.1010  0.3858
  168ANI     C7 3161   1.941   3.296   3.219 -0.0797  0.0269 -0.5341
  168ANI     H1 3162   2.308   3.079   3.336 -1.6679  0.2544  0.6545
  168ANI     H2 3163   2.346   3.248   3.345 -1.0860  0.4208  1.4409
  168ANI     H3 3164   2.217   3.174   3.452 -1.6540 -2.0037 -0.3145
  168ANI     H4 3165   2.222   3.429   3.346 -0.1139 -2.5403 -0.9935
  168ANI     H5 3166   2.057   3.632   3.384 -0.8592 -0.1406  0.2205
  168ANI     H6 3167   1.833   3.606   3.315  1.3456  0.4814 -1.1588
  168ANI     H7 3168   1.749   3.393   3.203 -0.0004 -0.9294  1.9392
  168ANI     H8 3169   1.908   3.211   3.160 -0.3222  0.0720 -0.4664
  169ANI     C1 3170   2.317   2.474   2.272 -0.6541 -0.6193 -0.4211
  169ANI     O1 3171   2.209   2.386   2.230  0.1584 -0.5114 -0.5726
  169ANI     C2 3172   2.074   2.419   2.241  0.4309 -0.4608  0.2643
  169ANI     C3 3173   2.038   2.547   2.293  0.5711 -0.4785  0.1674
  169ANI     C4 3174   1.902   2.590   2.281 -0.1818 -0.4725  0.4350
  169ANI     C5 3175   1.803   2.508   2.230 -0.2989 -0.0367 -1.1296
  169ANI     C6 3176   1.839   2.370   2.200 -0.6218  0.1150 -0.3628
  169ANI     C7 3177   1.980   2.329   2.202  0.5823 -0.6421  0.0959
  169ANI     H1 3178   2.318   2.570   2.218  2.2834  0.6916  1.8110
  169ANI     H2 3179   2.305   2.502   2.377  0.7290  1.4631 -0.7863
  169ANI     H3 3180   2.411   2.422   2.253 -0.1229 -0.1519  0.8831
  169ANI     H4 3181   2.111   2.613   2.338  0.0929  0.2948 -0.1897
  169ANI     H5 3182   1.887   2.692   2.318 -0.8768  0.6195 -2.6901
  169ANI     H6 3183   1.700   2.541   2.216 -0.3494  0.4519  0.3669
  169ANI     H7 3184   1.761   2.300   2.174 -1.1773  0.6185 -0.0631
  169ANI     H8 3185   2.014   2.230   2.173  2.0617  0.3925 -1.7821
  170ANI     C1 3186   0.760   2.036   2.273  0.3719  0.2113 -0.2024
  170ANI     O1 3187   0.791   1.900   2.250  0.1814  0.0734  0.5458
  170ANI     C2 3188   0.684   1.818   2.241 -0.3687 -0.5390 -0.2373
  170ANI     C3 3189   0.549   1.857   2.264 -0.0010 -0.6866  0.4334
  170ANI     C4 3190   0.447   1.754   2.270  0.0401  0.4424  0.2799
  170ANI     C5 3191   0.485   1.624   2.239  0.0978 -0.0028 -0.7505
  170ANI     C6 3192   0.614   1.589   2.214 -0.5356 -0.1969 -0.9605
  170ANI     C7 3193   0.715   1.681   2.218  0.0747 -0.1294  0.4324
  170ANI     H1 3194   0.703   2.084   2.192  0.7736  1.1616  0.0666
  170ANI     H2 3195   0.696   2.051   2.362 -2.0378 -2.3408 -1.4142
  170ANI     H3 3196   0.858   2.080   2.294  0.0419 -1.3569  5.6697
  170ANI     H4 3197   0.524   1.962   2.277  0.3374 -0.3373 -1.6211
  170ANI     H5 3198   0.342   1.779   2.284 -0.0873  0.3302 -0.4583
  170ANI     H6 3199   0.409   1.547   2.228 -1.2338  1.3973 -1.4766
  170ANI     H7 3200   0.642   1.491   2.176 -1.2533 -0.5958 -0.4775
  170ANI     H8 3201   0.820   1.656   2.201 -0.2193  0.3787 -2.3877
  171ANI     C1 3202   1.562   2.992   3.646 -0.5596 -0.1313 -0.4544
  171ANI     O1 3203   1.629   3.112   3.607 -0.1394  0.2656  0.3854
  171ANI     C2 3204   1.614   3.232   3.669  0.3229  0.8055 -0.5415
  171ANI     C3 3205   1.535   3.254   3.783  0.3320  0.4842 -0.0960
  171ANI     C4 3206   1.504   3.386   3.831 -0.2127  0.0241  0.2578
  171ANI     C5 3207   1.563   3.500   3.771 -0.1793  0.5119 -0.2282
  171ANI     C6 3208   1.659   3.475   3.667  0.5310 -0.1548  0.3697
  171ANI     C7 3209   1.684   3.342   3.620 -0.2863 -0.0108  0.0543
  171ANI     H1 3210   1.583   2.904   3.584  0.2302  0.4269 -0.9915
  171ANI     H2 3211   1.589   2.965   3.749 -2.7797 -3.2205 -0.6047
  171ANI     H3 3212   1.455   3.017   3.642 -0.7422 -1.2346 -4.2977
  171ANI     H4 3213   1.478   3.172   3.827  1.3276  0.5616  1.3777
  171ANI     H5 3214   1.425   3.404   3.904 -0.1281 -0.4235  0.4549
  171ANI     H6 3215   1.530   3.596   3.809 -1.4556 -0.1146  0.3003
  171ANI     H7 3216   1.713   3.557   3.619 -0.7929 -0.9275 -2.5566
  171ANI     H8 3217   1.752   3.324   3.537  1.6219 -0.7573  1.7462
  172ANI     C1 3218   0.311   1.725   3.206  0.1584  0.3724 -0.1004
  172ANI     O1 3219   0.185   1.760   3.142 -0.3645  1.0196 -0.8066
  172ANI     C2 3220   0.066   1.772   3.213  0.4826 -0.1849 -0.0379
  172ANI     C3 3221   0.071   1.774   3.353  1.1272 -1.0561 -0.2198
  172ANI     C4 3222  -0.047   1.807   3.426 -0.5764 -0.4164 -0.2516
  172ANI     C5 3223  -0.164   1.835   3.361 -0.1990  0.3294  0.3829
  172ANI     C6 3224  -0.170   1.831   3.215 -0.0585 -0.0696  0.0554
  172ANI     C7 3225  -0.055   1.800   3.143  0.4054  0.7053  0.2002
  172ANI     H1 3226   0.297   1.634   3.265  0.6076  0.0853 -0.4243
  172ANI     H2 3227   0.390   1.724   3.129 -0.1796  3.9136 -0.6080
  172ANI     H3 3228   0.340   1.809   3.270  1.3429 -0.8763  1.0251
  172ANI     H4 3229   0.160   1.750   3.410  1.1153 -0.7694 -0.0807
  172ANI     H5 3230  -0.045   1.790   3.533  1.2817 -1.3965 -0.4288
  172ANI     H6 3231  -0.257   1.858   3.412  0.0821  3.0909 -0.2757
  172ANI     H7 3232  -0.259   1.860   3.160  1.1824 -1.1875 -2.5884
  172ANI     H8 3233  -0.052   1.799   3.035  1.7866 -1.1058  0.2356
  173ANI     C1 3234   1.825   1.049   1.576  0.2992 -0.1355  0.3233
  173ANI     O1 3235   1.846   1.009   1.438  0.0275 -0.1103 -0.0020
  173ANI     C2 3236   1.814   1.089   1.330  0.5488  0.7252  0.0039
  173ANI     C3 3237   1.827   1.228   1.329 -0.1354  0.7500 -0.2501
  173ANI     C4 3238   1.779   1.307   1.225  0.3324  0.6060  0.1366
  173ANI     C5 3239   1.731   1.239   1.109  0.0585  0.1616  0.3424
  173ANI     C6 3240   1.712   1.098   1.113 -0.3043  0.0135 -0.2832
  173ANI     C7 3241   1.754   1.026   1.223 -0.1942  0.6453 -0.1976
  173ANI     H1 3242   1.876   1.145   1.595 -1.0984  0.7143 -0.1103
  173ANI     H2 3243   1.721   1.059   1.608  0.7093  1.4309  1.2415
  173ANI     H3 3244   1.871   0.984   1.651  1.2322  1.2214  0.9609
  173ANI     H4 3245   1.885   1.275   1.408 -1.0807 -0.4393  1.1801
  173ANI     H5 3246   1.799   1.414   1.225 -1.1036  0.8856  1.2726
  173ANI     H6 3247   1.703   1.302   1.025 -1.0010  0.2765  0.7633
  173ANI     H7 3248   1.660   1.050   1.031  1.5341 -0.5920 -1.1309
  173ANI     H8 3249   1.726   0.922   1.239 -1.3169  0.4836 -2.8728
  174ANI     C1 3250   0.227   0.141   2.891  0.3383  0.0807 -0.3348
  174ANI     O1 3251   0.214   0.215   3.014  0.0521  0.3321  0.1288
  174ANI     C2 3252   0.237   0.348   3.021  0.1176  0.1528 -0.0466
  174ANI     C3 3253   0.257   0.406   3.147 -0.3782  0.7051 -0.6312
  174ANI     C4 3254   0.289   0.541   3.156 -0.3004 -0.6455 -0.3848
  174ANI     C5 3255   0.293   0.621   3.046  0.2370  0.1789 -0.3414
  174ANI     C6 3256   0.262   0.569   2.918 -1.0348 -0.1538 -0.6705
  174ANI     C7 3257   0.238   0.432   2.910 -0.3793  0.8726 -0.8040
  174ANI     H1 3258   0.175   0.048   2.917  1.1776  0.3721  2.5387
  174ANI     H2 3259   0.164   0.180   2.810  0.3385  0.5003 -0.1287
  174ANI     H3 3260   0.330   0.111   2.865  0.1177 -0.3167 -0.7758
  174ANI     H4 3261   0.257   0.344   3.236  0.4471 -0.1794 -1.2355
  174ANI     H5 3262   0.314   0.582   3.254  0.4724 -0.8825 -0.4795
  174ANI     H6 3263   0.319   0.726   3.063 -2.7520  0.6748  1.6300
  174ANI     H7 3264   0.265   0.635   2.832 -1.9761  0.2355 -0.4155
  174ANI     H8 3265   0.221   0.400   2.807  1.7078 -0.0670 -0.8791
  175ANI     C1 3266   1.969   0.713   3.334 -0.0523 -0.6064  0.0843
  175ANI     O1 3267   2.051   0.619   3.261  0.0710  0.1670 -0.6072
  175ANI     C2 3268   2.030   0.580   3.127 -0.1115 -0.1210 -0.3591
  175ANI     C3 3269   1.914   0.618   3.058 -0.4135 -0.1916  0.3159
  175ANI     C4 3270   1.897   0.585   2.927 -1.0084  0.4010 -0.3894
  175ANI     C5 3271   1.994   0.515   2.860  0.3158 -0.0129  0.8847
  175ANI     C6 3272   2.117   0.489   2.927  0.2317 -0.5632  0.8080
  175ANI     C7 3273   2.134   0.518   3.057 -0.4657 -0.2309 -0.1364
  175ANI     H1 3274   1.990   0.698   3.440  0.0119 -2.5304 -0.1688
  175ANI     H2 3275   2.000   0.814   3.304  0.6061 -0.3978  1.4200
  175ANI     H3 3276   1.867   0.682   3.309 -0.1240  0.5749 -1.1345
  175ANI     H4 3277   1.828   0.667   3.101 -0.4949  0.6548 -0.7892
  175ANI     H5 3278   1.800   0.609   2.885 -1.7780 -1.8514  0.0219
  175ANI     H6 3279   1.984   0.478   2.758 -2.0964 -0.9113  1.3995
  175ANI     H7 3280   2.204   0.461   2.869  0.5741 -0.4633  1.2732
  175ANI     H8 3281   2.227   0.500   3.111 -1.1679  2.7633  2.1701
  176ANI     C1 3282   1.614   2.089   2.622 -0.8233  0.8222  0.5011
  176ANI     O1 3283   1.700   2.053   2.510  0.6135 -0.5164 -0.6096
  176ANI     C2 3284   1.723   1.923   2.471  0.5524 -1.0252 -0.1239
  176ANI     C3 3285   1.811   1.908   2.366 -0.4580  0.2731 -0.4651
  176ANI     C4 3286   1.845   1.777   2.324  0.1214  0.4247 -0.3935
  176ANI     C5 3287   1.781   1.666   2.375  0.3929  0.2786  0.1566
  176ANI     C6 3288   1.683   1.683   2.480  0.2689 -0.5546  0.3863
  176ANI     C7 3289   1.655   1.810   2.528 -0.0338 -0.4888  0.8394
  176ANI     H1 3290   1.654   2.067   2.722 -0.8795  4.3646  1.3680
  176ANI     H2 3291   1.606   2.198   2.621  0.6456  0.9441 -2.4662
  176ANI     H3 3292   1.512   2.050   2.607 -0.0819 -2.2084  2.6790
  176ANI     H4 3293   1.854   1.994   2.317  1.2312  0.5428  1.4436
  176ANI     H5 3294   1.920   1.762   2.248  1.3230 -0.3247  0.9137
  176ANI     H6 3295   1.801   1.568   2.332 -0.7969 -0.6704  1.7449
  176ANI     H7 3296   1.632   1.603   2.533  0.5741 -2.7922 -2.5201
  176ANI     H8 3297   1.584   1.833   2.607  0.2526 -0.5865  1.1208
  177ANI     C1 3298   3.108   2.217   3.088  0.0058 -0.4893 -0.4858
  177ANI     O1 3299   3.172   2.231   2.965  0.1688 -0.2384  0.3306
  177ANI     C2 3300   3.139   2.144   2.864  0.6024 -0.0600  0.2091
  177ANI     C3 3301   3.056   2.032   2.872  0.3045 -0.5327 -0.0548
  177ANI     C4 3302   3.022   1.956   2.752 -0.1438  0.5466  0.7101
  177ANI     C5 3303   3.068   2.002   2.626 -0.5610  0.3079  0.1200
  177ANI     C6 3304   3.151   2.115   2.615 -0.0507 -0.2640  0.5904
  177ANI     C7 3305   3.181   2.184   2.735  0.1042  0.0582 -0.5100
  177ANI     H1 3306   3.144   2.300   3.151 -1.3065  0.5461 -1.0676
  177ANI     H2 3307   2.999   2.216   3.076 -0.0930  0.3919  0.2737
  177ANI     H3 3308   3.133   2.121   3.135 -2.5554 -0.9396  0.0439
  177ANI     H4 3309   3.033   1.991   2.970  0.0686 -1.0033 -0.3066
  177ANI     H5 3310   2.965   1.864   2.755 -0.7049  0.9477  3.1730
  177ANI     H6 3311   3.043   1.959   2.530  2.0288  2.0169 -1.3512
  177ANI     H7 3312   3.183   2.154   2.519  2.5257 -1.5039  0.9012
  177ANI     H8 3313   3.232   2.279   2.725  0.2105  0.0034 -0.4960
  178ANI     C1 3314   0.225   3.318   3.215 -0.3975  0.5578  0.3431
  178ANI     O1 3315   0.121   3.216   3.207  0.1150 -0.2671  0.4321
  178ANI     C2 3316   0.100   3.118   3.306  0.2582 -0.5608 -0.8445
  178ANI     C3 3317   0.199   3.079   3.399 -0.0883 -0.4263 -0.2171
  178ANI     C4 3318   0.183   2.983   3.506  0.0728  0.6810  0.3030
  178ANI     C5 3319   0.055   2.924   3.509 -0.2810  0.3544 -0.3355
  178ANI     C6 3320  -0.046   2.964   3.416 -0.0882 -0.2551 -0.3187
  178ANI     C7 3321  -0.022   3.056   3.314 -0.5858 -0.7349  0.1021
  178ANI     H1 3322   0.197   3.410   3.162 -1.2293  0.2492  0.2492
  178ANI     H2 3323   0.226   3.355   3.318 -1.0227  0.4384  0.3921
  178ANI     H3 3324   0.323   3.278   3.185  0.0943  1.5142  0.6581
  178ANI     H4 3325   0.298   3.123   3.388 -1.6534  2.8780 -1.6970
  178ANI     H5 3326   0.259   2.945   3.574  1.4568  1.3277 -0.8467
  178ANI     H6 3327   0.047   2.834   3.571 -1.7694 -0.4464 -1.6485
  178ANI     H7 3328  -0.139   2.908   3.426  0.1593 -0.6462 -0.1710
  178ANI     H8 3329  -0.096   3.081   3.238  0.3891  2.3671  0.0936
  179ANI     C1 3330   3.210   0.555   0.756 -0.3083  0.1506  0.2782
  179ANI     O1 3331   3.099   0.481   0.797 -0.3288 -0.1061  0.3062
  179ANI     C2 3332   3.097   0.423   0.920 -0.1204 -0.3575  0.5854
  179ANI     C3 3333   2.991   0.327   0.947 -0.4312 -0.4602 -0.8037
  179ANI     C4 3334   2.985   0.267   1.075 -0.1020  0.2636  0.2547
  179ANI     C5 3335   3.071   0.308   1.179  0.0617 -0.6591 -0.0097
  179ANI     C6 3336   3.165   0.413   1.152 -0.7290 -0.2667 -0.0668
  179ANI     C7 3337   3.189   0.453   1.020 -0.0443 -0.7151  0.1488
  179ANI     H1 3338   3.298   0.490   0.750 -0.8120 -0.6517  1.3405
  179ANI     H2 3339   3.200   0.597   0.655 -2.5315  0.6689  0.6921
  179ANI     H3 3340   3.223   0.645   0.817  0.9544  1.3145 -1.6308
  179ANI     H4 3341   2.918   0.301   0.871 -2.3004  1.4311  0.2547
  179ANI     H5 3342   2.905   0.195   1.086 -0.4442  0.5337 -0.4901
  179ANI     H6 3343   3.059   0.266   1.278  1.4349 -0.6774  0.1606
  179ANI     H7 3344   3.223   0.452   1.235 -0.1255  0.4071 -0.7996
  179ANI     H8 3345   3.281   0.509   1.005 -1.2196  1.6153  1.3571
  180ANI     C1 3346   3.044   3.094   1.189  0.2661 -0.0610  0.0298
  180ANI     O1 3347   3.091   3.182   1.289 -0.4782  0.2990  0.0398
  180ANI     C2 3348   3.223   3.197   1.305  0.2968 -0.5175  0.1963
  180ANI     C3 3349   3.278   3.251   1.430  0.2123  0.8067 -0.6984
  180ANI     C4 3350   3.414   3.261   1.453 -0.1034  0.3298  0.0240
  180ANI     C5 3351   3.504   3.232   1.351 -0.8392 -0.2913 -0.1714
  180ANI     C6 3352   3.460   3.178   1.226 -0.1475  0.8448  0.1434
  180ANI     C7 3353   3.323   3.161   1.204  0.6671 -0.5865 -0.0626
  180ANI     H1 3354   3.024   3.134   1.088  0.4397 -0.3382 -0.1163
  180ANI     H2 3355   3.115   3.010   1.180 -1.4232 -1.4420 -0.6238
  180ANI     H3 3356   2.969   3.031   1.236  0.6942 -0.5793  0.0240
  180ANI     H4 3357   3.207   3.259   1.512 -0.4264  1.2955 -1.2951
  180ANI     H5 3358   3.456   3.303   1.544  0.6825 -0.3367 -0.0296
  180ANI     H6 3359   3.609   3.251   1.370 -0.4561 -2.5203  0.1404
  180ANI     H7 3360   3.529   3.175   1.143 -0.1308 -1.5887  0.2284
  180ANI     H8 3361   3.289   3.124   1.108 -0.0242 -3.0139  1.0999
  181ANI     C1 3362   0.008   0.934   0.851  0.3978 -0.5402  0.0217
  181ANI     O1 3363   0.072   0.806   0.844  0.6970  0.5857 -0.2662
  181ANI     C2 3364   0.101   0.734   0.955  1.0724 -0.3572  0.0473
  181ANI     C3 3365   0.138   0.596   0.943  0.1948 -0.0358 -0.0303
  181ANI     C4 3366   0.165   0.521   1.065  0.5340 -0.0065  0.3742
  181ANI     C5 3367   0.160   0.582   1.194  0.3138 -0.1557  0.3410
  181ANI     C6 3368   0.117   0.720   1.208  0.3347  1.0604  0.1007
  181ANI     C7 3369   0.092   0.791   1.086 -0.1584 -0.3763  0.0021
  181ANI     H1 3370   0.079   0.995   0.908 -3.0784  0.5640  3.4835
  181ANI     H2 3371  -0.013   0.978   0.753 -0.2073 -1.6687 -0.3670
  181ANI     H3 3372  -0.091   0.919   0.897 -0.3310  3.2304 -0.1278
  181ANI     H4 3373   0.138   0.542   0.848  2.4161 -2.5600  1.3487
  181ANI     H5 3374   0.167   0.413   1.062 -2.0125 -0.0916 -0.0198
  181ANI     H6 3375   0.180   0.522   1.282  1.6802  1.4196  1.1534
  181ANI     H7 3376   0.108   0.760   1.309 -1.0129 -1.2002  0.9070
  181ANI     H8 3377   0.065   0.896   1.095  0.5844 -0.2171  0.3587
  182ANI     C1 3378   1.182   2.924   2.321  0.3007  0.0433  0.2403
  182ANI     O1 3379   1.079   2.853   2.393  0.2621 -0.0519 -0.0863
  182ANI     C2 3380   0.949   2.894   2.383  0.5983 -1.3028  1.3590
  182ANI     C3 3381   0.904   2.999   2.292 -0.1218 -0.2181  1.0855
  182ANI     C4 3382   0.765   3.036   2.291 -0.0655 -0.3474 -0.0542
  182ANI     C5 3383   0.674   2.960   2.371 -0.7858 -0.6288  0.3167
  182ANI     C6 3384   0.719   2.862   2.458 -0.0513  0.6922 -0.3949
  182ANI     C7 3385   0.854   2.831   2.467 -0.1491 -0.2077  0.2915
  182ANI     H1 3386   1.271   2.922   2.386 -0.3600  1.6880  1.2467
  182ANI     H2 3387   1.204   2.887   2.221  2.1289  2.5711 -0.3420
  182ANI     H3 3388   1.150   3.029   2.318  0.4894  0.1148  0.6330
  182ANI     H4 3389   0.979   3.052   2.234  0.0413  0.1177  1.5977
  182ANI     H5 3390   0.727   3.117   2.229  1.5269  1.3154  1.1032
  182ANI     H6 3391   0.566   2.971   2.358 -0.9666 -0.7144  1.6891
  182ANI     H7 3392   0.656   2.801   2.521  1.8307 -1.2081 -0.2863
  182ANI     H8 3393   0.886   2.751   2.533  2.9409 -0.6615 -1.6099
  183ANI     C1 3394   0.614   0.543   2.945 -0.4581  0.0920  0.4013
  183ANI     O1 3395   0.751   0.575   2.933 -0.1248  0.9817 -0.0970
  183ANI     C2 3396   0.797   0.650   2.821  0.0476 -0.1768 -0.4341
  183ANI     C3 3397   0.708   0.720   2.739 -0.1397 -0.8392 -0.3513
  183ANI     C4 3398   0.763   0.795   2.636 -0.4213 -0.3557  1.3821
  183ANI     C5 3399   0.901   0.799   2.600 -0.0434 -0.2920 -0.0399
  183ANI     C6 3400   0.991   0.726   2.683  0.0456 -0.6315  0.5163
  183ANI     C7 3401   0.937   0.644   2.793  1.2515 -0.6510  0.9758
  183ANI     H1 3402   0.580   0.470   2.870  1.3497 -0.7934  0.4123
  183ANI     H2 3403   0.601   0.498   3.044  3.5209 -1.9102  0.1150
  183ANI     H3 3404   0.546   0.629   2.941  0.0718  0.4752 -0.9692
  183ANI     H4 3405   0.601   0.730   2.756  0.3650  1.5196  1.7124
  183ANI     H5 3406   0.699   0.859   2.575 -0.7046  0.4911  2.5460
  183ANI     H6 3407   0.932   0.860   2.515 -0.3143 -0.7702 -0.4838
  183ANI     H7 3408   1.098   0.740   2.673  0.2847 -1.5977  1.6415
  183ANI     H8 3409   0.996   0.587   2.864  0.8824  1.6425  3.1944
  184ANI     C1 3410   2.817   0.901   2.621 -0.3388  0.0171  0.7731
  184ANI     O1 3411   2.783   0.768   2.585 -0.3015 -0.0668  0.1672
  184ANI     C2 3412   2.713   0.690   2.678  0.3924  0.3901 -1.0356
  184ANI     C3 3413   2.640   0.740   2.791 -0.0463 -0.6609  0.1861
  184ANI     C4 3414   2.569   0.649   2.876  0.0617 -0.4458  0.0089
  184ANI     C5 3415   2.575   0.510   2.855 -0.3414  0.3794 -0.8571
  184ANI     C6 3416   2.654   0.460   2.748 -0.5143  0.0588  0.1122
  184ANI     C7 3417   2.713   0.553   2.657  0.5899 -0.9496 -0.3511
  184ANI     H1 3418   2.877   0.891   2.712  1.0062  0.7234 -0.0149
  184ANI     H2 3419   2.874   0.954   2.543 -1.2247  0.0946  0.1662
  184ANI     H3 3420   2.723   0.956   2.629 -0.6803 -0.5302  0.5435
  184ANI     H4 3421   2.634   0.848   2.803 -1.8806 -0.9339  1.9526
  184ANI     H5 3422   2.505   0.695   2.950 -0.0862  2.0822 -1.6366
  184ANI     H6 3423   2.516   0.444   2.917  0.6990  1.0042  0.8667
  184ANI     H7 3424   2.656   0.353   2.726  1.8399  0.1869 -0.3477
  184ANI     H8 3425   2.759   0.523   2.563  1.2705 -0.6972 -0.1035
  185ANI     C1 3426   0.448   1.008   3.336 -0.1522  0.8494  1.2052
  185ANI     O1 3427   0.535   0.915   3.271 -0.6635  0.2559  0.2255
  185ANI     C2 3428   0.565   0.797   3.328 -0.0874 -0.8534  0.5908
  185ANI     C3 3429   0.644   0.715   3.244 -0.0811  0.7128 -1.1220
  185ANI     C4 3430   0.679   0.587   3.290  0.1795  0.1063 -0.0864
  185ANI     C5 3431   0.633   0.540   3.410  0.4364  0.7845  0.2392
  185ANI     C6 3432   0.547   0.621   3.491  0.2345  0.0248  0.7310
  185ANI     C7 3433   0.517   0.752   3.454 -0.5382  0.5601  0.0094
  185ANI     H1 3434   0.470   1.021   3.443 -1.1347 -0.6592  1.6048
  185ANI     H2 3435   0.462   1.104   3.285 -0.5810 -0.7952 -2.1577
  185ANI     H3 3436   0.347   0.968   3.322 -0.2604  0.7294  2.2681
  185ANI     H4 3437   0.675   0.745   3.144  0.9166 -1.0501 -1.3412
  185ANI     H5 3438   0.734   0.522   3.223 -2.3244 -0.3094 -1.8330
  185ANI     H6 3439   0.657   0.438   3.441 -0.4457  1.1071  2.0734
  185ANI     H7 3440   0.522   0.574   3.586  0.7897 -0.1391  0.7962
  185ANI     H8 3441   0.455   0.811   3.521 -1.2513  0.3671 -0.4676
  186ANI     C1 3442   0.022   1.572   1.460 -0.4824  0.1241 -0.0947
  186ANI     O1 3443  -0.101   1.569   1.525  0.4776  0.6382  0.3245
  186ANI     C2 3444  -0.214   1.531   1.456  0.7597  0.0440  0.2310
  186ANI     C3 3445  -0.230   1.560   1.321 -0.0483 -0.3960 -0.1834
  186ANI     C4 3446  -0.340   1.515   1.252 -0.8348  0.0177  0.0199
  186ANI     C5 3447  -0.439   1.441   1.310  0.0312 -0.9102 -0.3933
  186ANI     C6 3448  -0.437   1.424   1.445  0.2238  0.1310 -0.2288
  186ANI     C7 3449  -0.323   1.464   1.515 -0.5627 -0.3791  0.0412
  186ANI     H1 3450   0.043   1.487   1.394 -0.6736  2.1171 -2.7916
  186ANI     H2 3451   0.042   1.665   1.406  1.8237 -0.2441  0.0540
  186ANI     H3 3452   0.101   1.559   1.536 -0.3410  0.7629 -0.1287
  186ANI     H4 3453  -0.153   1.600   1.256  1.9467 -1.4784  1.4498
  186ANI     H5 3454  -0.336   1.518   1.143 -1.1087  1.3601  0.0414
  186ANI     H6 3455  -0.510   1.387   1.249 -1.1778  2.1532 -1.8027
  186ANI     H7 3456  -0.517   1.371   1.497  1.3513 -0.8043  0.5778
  186ANI     H8 3457  -0.318   1.441   1.621 -1.7553 -0.5220  0.0787
  187ANI     C1 3458   0.367   0.908   2.534  0.2665 -0.1326  0.0216
  187ANI     O1 3459   0.249   0.825   2.560 -0.3823 -0.7935 -0.6923
  187ANI     C2 3460   0.135   0.873   2.613 -0.4174 -0.9605 -0.0934
  187ANI     C3 3461   0.125   1.001   2.673  0.2844 -0.1155  0.5408
  187ANI     C4 3462   0.009   1.049   2.718 -0.3599  0.5046  0.0891
  187ANI     C5 3463  -0.111   0.976   2.711 -0.5165  0.2447  0.0054
  187ANI     C6 3464  -0.103   0.842   2.666  0.3214 -0.6600  0.6561
  187ANI     C7 3465   0.021   0.793   2.621 -0.8672  0.0354 -0.2712
  187ANI     H1 3466   0.458   0.864   2.490  1.4581  3.0865 -0.9165
  187ANI     H2 3467   0.345   1.001   2.481 -1.0105 -0.0228  0.7481
  187ANI     H3 3468   0.404   0.935   2.633  1.1337 -0.3931 -0.2206
  187ANI     H4 3469   0.218   1.058   2.677  0.3862 -0.2680  0.3671
  187ANI     H5 3470   0.017   1.150   2.759  1.0884  0.7701 -0.8122
  187ANI     H6 3471  -0.197   1.010   2.766  0.2301 -0.3521  1.5780
  187ANI     H7 3472  -0.187   0.772   2.668 -0.4748  0.2593 -0.1284
  187ANI     H8 3473   0.021   0.694   2.576 -0.8033 -0.0105 -0.1719
  188ANI     C1 3474   1.043   0.194   2.974 -0.3643  0.1038  0.3889
  188ANI     O1 3475   0.963   0.075   2.995  1.0750 -0.1402  0.3356
  188ANI     C2 3476   0.826   0.073   2.990  0.0547  0.5323 -0.0947
  188ANI     C3 3477   0.773  -0.047   3.028  0.4433 -0.5120  0.0980
  188ANI     C4 3478   0.638  -0.062   3.026 -0.0818 -0.5711 -0.3289
  188ANI     C5 3479   0.552   0.048   3.009  0.0698  0.3618  0.7377
  188ANI     C6 3480   0.615   0.172   2.982  0.8892 -0.5963  0.6663
  188ANI     C7 3481   0.753   0.181   2.956  0.0084 -0.6068  0.2699
  188ANI     H1 3482   1.143   0.184   3.018 -0.4005  1.3421  0.7588
  188ANI     H2 3483   1.059   0.210   2.867 -1.0839 -1.3902  0.0394
  188ANI     H3 3484   1.004   0.283   3.024  1.8458 -0.5250  3.3584
  188ANI     H4 3485   0.839  -0.123   3.069  0.1966 -1.9102 -2.0133
  188ANI     H5 3486   0.584  -0.152   3.053 -1.6326  0.5918  0.5306
  188ANI     H6 3487   0.445   0.039   3.030  0.4166  0.7076  2.7197
  188ANI     H7 3488   0.554   0.260   2.968 -1.0059 -1.5575  2.6205
  188ANI     H8 3489   0.797   0.280   2.947  0.0771 -0.7275 -0.7355
  189ANI     C1 3490   0.576   2.974   0.328 -0.1380 -0.3899 -0.7679
  189ANI     O1 3491   0.654   3.094   0.329  0.2807 -0.0101  0.6389
  189ANI     C2 3492   0.713   3.143   0.208 -0.4580  0.4424  0.3730
  189ANI     C3 3493   0.677   3.089   0.083  0.2338 -0.3487  0.6003
  189ANI     C4 3494   0.728   3.152  -0.029 -0.1068  0.0494  0.4418
  189ANI     C5 3495   0.832   3.251  -0.024  0.7363 -0.5831 -0.0929
  189ANI     C6 3496   0.862   3.301   0.107  0.0519  0.2588  0.3751
  189ANI     C7 3497   0.799   3.248   0.219 -0.6696 -0.7969  0.6104
  189ANI     H1 3498   0.545   2.961   0.432  1.3365  0.7614 -0.1702
  189ANI     H2 3499   0.484   2.989   0.269 -1.8622  0.4835  2.0602
  189ANI     H3 3500   0.626   2.889   0.280 -0.9005 -0.9599 -0.5647
  189ANI     H4 3501   0.599   3.014   0.073  0.6409 -0.8504  1.1478
  189ANI     H5 3502   0.685   3.116  -0.122 -0.5752  0.3594  0.5399
  189ANI     H6 3503   0.877   3.282  -0.118 -0.9161 -2.6935 -1.6403
  189ANI     H7 3504   0.947   3.368   0.115  1.2753 -1.1946 -0.0748
  189ANI     H8 3505   0.825   3.273   0.322  1.0103 -0.8926  0.2239
  190ANI     C1 3506   3.068   1.075   1.512 -0.3435 -0.1099 -0.3252
  190ANI     O1 3507   3.154   0.960   1.521  0.1134 -0.2878  0.0052
  190ANI     C2 3508   3.102   0.831   1.523 -0.0543  0.0341 -0.5771
  190ANI     C3 3509   2.970   0.798   1.550 -0.1108 -0.0857  0.6769
  190ANI     C4 3510   2.928   0.664   1.544 -0.0976  0.4695 -0.0549
  190ANI     C5 3511   3.017   0.561   1.497  0.0007  0.1388  0.7835
  190ANI     C6 3512   3.151   0.597   1.470  0.1360 -0.7887 -0.4190
  190ANI     C7 3513   3.192   0.731   1.479  0.2255  0.1064  0.0077
  190ANI     H1 3514   2.997   1.083   1.595 -0.1833 -2.4103  0.0750
  190ANI     H2 3515   3.121   1.171   1.511 -1.5459  0.5770  0.6271
  190ANI     H3 3516   3.024   1.063   1.413  1.5459  0.3099 -1.2331
  190ANI     H4 3517   2.898   0.878   1.566 -0.4386  0.3274 -2.5042
  190ANI     H5 3518   2.826   0.645   1.575  0.5663 -0.3244  1.7328
  190ANI     H6 3519   2.981   0.460   1.481 -0.0355  0.7377 -3.2612
  190ANI     H7 3520   3.220   0.518   1.441  2.3748  0.9924 -0.0556
  190ANI     H8 3521   3.289   0.751   1.435  0.1391  2.7347  0.9008
  191ANI     C1 3522   2.259   1.525   2.377  0.1242 -0.1262  0.5072
  191ANI     O1 3523   2.266   1.640   2.462 -0.3270  0.6619  0.2166
  191ANI     C2 3524   2.244   1.774   2.417 -0.3708  0.6224  1.4051
  191ANI     C3 3525   2.281   1.870   2.508 -0.4336 -0.2359  0.8269
  191ANI     C4 3526   2.265   2.006   2.483 -0.7256 -0.4202  0.1070
  191ANI     C5 3527   2.225   2.050   2.356  0.3912  0.0649  0.0230
  191ANI     C6 3528   2.186   1.956   2.257 -0.3301 -0.3253 -0.5733
  191ANI     C7 3529   2.200   1.815   2.285  0.4550 -0.0219 -0.4119
  191ANI     H1 3530   2.358   1.520   2.331  0.7446  0.0345  1.7868
  191ANI     H2 3531   2.230   1.437   2.437  1.3368 -0.1720  1.0438
  191ANI     H3 3532   2.186   1.533   2.296 -0.0438  0.1483  0.6844
  191ANI     H4 3533   2.316   1.845   2.607  3.1013  2.6637  0.4312
  191ANI     H5 3534   2.293   2.077   2.561  0.6170  1.3023 -1.8671
  191ANI     H6 3535   2.207   2.153   2.328 -1.5495  0.1786  1.5866
  191ANI     H7 3536   2.144   1.996   2.165  0.4704 -1.6135 -1.5239
  191ANI     H8 3537   2.179   1.740   2.209  1.7315 -1.3690  0.5244
  192ANI     C1 3538   2.457   0.031   2.620 -0.4463  0.1144 -0.2550
  192ANI     O1 3539   2.508   0.151   2.555 -0.1670  0.6512 -0.6884
  192ANI     C2 3540   2.601   0.144   2.449 -0.5597  1.3688 -0.4783
  192ANI     C3 3541   2.639   0.018   2.391 -0.3070 -1.0877  0.0956
  192ANI     C4 3542   2.727   0.018   2.278  0.5989 -0.1355  0.2834
  192ANI     C5 3543   2.797   0.135   2.243 -0.1795 -0.3064  0.3449
  192ANI     C6 3544   2.752   0.259   2.291 -0.4967 -0.1216 -0.0687
  192ANI     C7 3545   2.657   0.261   2.399 -0.2356  0.0754 -0.8361
  192ANI     H1 3546   2.387  -0.032   2.562  0.1424  0.5279 -1.4261
  192ANI     H2 3547   2.537  -0.034   2.657 -0.8392  1.2137  2.5939
  192ANI     H3 3548   2.401   0.059   2.710 -2.6603 -2.4044 -0.7578
  192ANI     H4 3549   2.603  -0.076   2.430 -2.3296 -0.4993 -0.3305
  192ANI     H5 3550   2.755  -0.071   2.222 -1.4364 -0.1748 -0.7243
  192ANI     H6 3551   2.880   0.138   2.173 -0.3612  1.2410  0.1737
  192ANI     H7 3552   2.800   0.353   2.264 -0.0554  0.8397  3.7097
  192ANI     H8 3553   2.626   0.354   2.445 -2.1452 -1.8281  1.9199
  193ANI     C1 3554   3.389   1.902   0.784  0.6048  0.2607  0.3586
  193ANI     O1 3555   3.275   1.855   0.713  0.0386 -0.1165  0.2724
  193ANI     C2 3556   3.278   1.854   0.580 -0.1072 -0.0304  0.2908
  193ANI     C3 3557   3.351   1.947   0.505  0.4065  0.2788 -0.4419
  193ANI     C4 3558   3.373   1.930   0.365  0.9548  0.4870 -0.2133
  193ANI     C5 3559   3.302   1.831   0.295  0.0175  0.1343 -0.0194
  193ANI     C6 3560   3.227   1.743   0.370 -0.1602 -0.2578 -0.6742
  193ANI     C7 3561   3.215   1.750   0.505  0.4988 -0.4118 -0.2727
  193ANI     H1 3562   3.408   2.002   0.743  2.9741 -0.7515 -1.1630
  193ANI     H2 3563   3.384   1.910   0.893  4.3404 -0.5608  0.6685
  193ANI     H3 3564   3.479   1.840   0.777  1.5062  1.4008  1.7100
  193ANI     H4 3565   3.398   2.036   0.546 -1.1177  1.3717 -1.0041
  193ANI     H5 3566   3.429   2.003   0.309  1.2202  1.6268  1.5025
  193ANI     H6 3567   3.312   1.822   0.187  2.3447  0.0402  0.1700
  193ANI     H7 3568   3.181   1.660   0.316  1.2931  0.0487 -2.4213
  193ANI     H8 3569   3.158   1.675   0.559 -0.6254 -0.2910 -1.2699
  194ANI     C1 3570   1.300   1.337   0.514  0.1825 -0.9869  0.6141
  194ANI     O1 3571   1.365   1.277   0.623  0.1199 -0.7522 -0.6083
  194ANI     C2 3572   1.308   1.267   0.749  0.3273  0.0992  0.5086
  194ANI     C3 3573   1.167   1.292   0.783  0.0883 -0.0586 -0.6960
  194ANI     C4 3574   1.127   1.257   0.911 -0.0054 -0.7113 -0.6338
  194ANI     C5 3575   1.210   1.214   1.008 -0.6187 -0.1831  0.3536
  194ANI     C6 3576   1.344   1.200   0.975  0.1303 -1.2131 -0.3038
  194ANI     C7 3577   1.396   1.225   0.850  0.0751 -0.4720  0.7229
  194ANI     H1 3578   1.372   1.342   0.431  0.6725  0.3537  1.1006
  194ANI     H2 3579   1.213   1.277   0.486 -2.3775  3.1003 -0.5616
  194ANI     H3 3580   1.262   1.435   0.545  0.1363 -1.3950  1.8834
  194ANI     H4 3581   1.088   1.317   0.713  0.1417 -0.0364 -0.7487
  194ANI     H5 3582   1.023   1.267   0.939  0.0712 -0.4334 -0.4513
  194ANI     H6 3583   1.183   1.193   1.111  2.9734  0.2278  1.4371
  194ANI     H7 3584   1.414   1.160   1.049  0.8074 -0.6135 -0.6182
  194ANI     H8 3585   1.499   1.200   0.825 -0.3292 -0.2101 -1.2809
  195ANI     C1 3586   2.024   0.078   0.992 -0.0633 -0.3796  0.3132
  195ANI     O1 3587   2.084   0.195   1.052 -0.0175 -0.4682  0.0331
  195ANI     C2 3588   2.199   0.193   1.123 -0.5039  0.2905 -0.2232
  195ANI     C3 3589   2.284   0.088   1.113 -0.1934 -0.3606  0.0019
  195ANI     C4 3590   2.405   0.076   1.185  0.4057 -0.8240  0.3949
  195ANI     C5 3591   2.436   0.192   1.265  0.2183  0.1518  0.1838
  195ANI     C6 3592   2.350   0.309   1.265 -0.2444  0.2198  0.6242
  195ANI     C7 3593   2.226   0.308   1.200 -0.0294  0.0850 -0.1593
  195ANI     H1 3594   2.098   0.045   0.919  1.0496 -2.0825  2.1645
  195ANI     H2 3595   2.000   0.007   1.073  1.1968 -2.5342 -1.1661
  195ANI     H3 3596   1.940   0.101   0.925  1.3980  0.1642 -1.3755
  195ANI     H4 3597   2.275   0.002   1.048  2.0847 -0.2182 -0.5370
  195ANI     H5 3598   2.470  -0.011   1.184  2.2303  0.5145 -1.0649
  195ANI     H6 3599   2.524   0.203   1.327  0.2419 -0.2285  0.2187
  195ANI     H7 3600   2.373   0.400   1.320 -2.7417  0.9952  0.4422
  195ANI     H8 3601   2.154   0.389   1.199  0.0764  0.2324  1.7745
  196ANI     C1 3602   1.747   3.092   0.300  0.0818  0.6775 -0.2812
  196ANI     O1 3603   1.652   3.096   0.402 -0.2146 -0.5537  0.0319
  196ANI     C2 3604   1.592   3.214   0.443 -0.2324 -0.2428 -0.0650
  196ANI     C3 3605   1.613   3.332   0.360 -0.8116  0.1237 -0.1477
  196ANI     C4 3606   1.545   3.453   0.405 -0.6994  0.7463 -0.6357
  196ANI     C5 3607   1.477   3.455   0.527  0.4074 -0.5429  0.1449
  196ANI     C6 3608   1.469   3.335   0.606 -0.3870  0.0468 -0.0342
  196ANI     C7 3609   1.524   3.217   0.568  0.2772  0.6297  0.0901
  196ANI     H1 3610   1.810   3.181   0.303  0.1889  0.7057 -2.5246
  196ANI     H2 3611   1.814   3.005   0.309 -1.3514 -0.3134  1.0194
  196ANI     H3 3612   1.706   3.090   0.198 -0.3935  0.8299 -0.0923
  196ANI     H4 3613   1.639   3.314   0.256  0.5056  0.4609  0.1164
  196ANI     H5 3614   1.559   3.541   0.343  0.2858  0.4675 -0.8076
  196ANI     H6 3615   1.416   3.541   0.557 -2.1601 -1.9260 -0.9250
  196ANI     H7 3616   1.404   3.335   0.693 -0.3072  2.9340  0.0700
  196ANI     H8 3617   1.508   3.128   0.628  0.7019  1.5820  1.6624
  197ANI     C1 3618   0.794   0.135   1.119  0.6278  0.2106  0.0562
  197ANI     O1 3619   0.762   0.133   1.256 -0.2931 -0.0250  0.3484
  197ANI     C2 3620   0.841   0.201   1.344  0.4118 -0.2618  0.1627
  197ANI     C3 3621   0.975   0.239   1.321  0.5580  0.3446 -0.2993
  197ANI     C4 3622   1.043   0.311   1.419  0.2119 -0.3666  0.5059
  197ANI     C5 3623   0.979   0.358   1.532  0.0735  0.0144  0.4159
  197ANI     C6 3624   0.843   0.326   1.556  0.4988 -0.2149 -0.2904
  197ANI     C7 3625   0.783   0.241   1.460  0.5753  0.3398 -0.6939
  197ANI     H1 3626   0.787   0.235   1.074  0.2445  0.6407  1.0474
  197ANI     H2 3627   0.895   0.097   1.104  0.3210 -0.4979 -0.2572
  197ANI     H3 3628   0.723   0.068   1.068  1.0477  0.5533 -0.9905
  197ANI     H4 3629   1.028   0.200   1.235 -0.7642 -0.7048 -0.6558
  197ANI     H5 3630   1.146   0.339   1.399  0.9459 -2.8559  0.5616
  197ANI     H6 3631   1.032   0.419   1.605  1.9927  1.1673 -1.8623
  197ANI     H7 3632   0.787   0.377   1.634  2.4204  3.7525 -1.4102
  197ANI     H8 3633   0.681   0.211   1.482  0.2299  1.3474 -0.9181
  198ANI     C1 3634   0.432   2.710   0.765 -0.3549 -0.3546 -0.0687
  198ANI     O1 3635   0.500   2.586   0.735  0.2550  0.2659  0.0824
  198ANI     C2 3636   0.556   2.511   0.836 -0.4223 -0.2363  0.1237
  198ANI     C3 3637   0.581   2.569   0.967  1.0214  0.7444  0.0936
  198ANI     C4 3638   0.651   2.500   1.065 -0.2320 -0.4253  0.5602
  198ANI     C5 3639   0.697   2.368   1.037 -0.0415 -0.9587  0.4681
  198ANI     C6 3640   0.662   2.303   0.914 -0.1959 -0.4795  0.3738
  198ANI     C7 3641   0.593   2.377   0.811 -0.3711  0.6097 -0.7786
  198ANI     H1 3642   0.364   2.694   0.849 -0.1026  1.0021  0.4042
  198ANI     H2 3643   0.506   2.788   0.787  0.3987 -1.1215  0.1416
  198ANI     H3 3644   0.376   2.745   0.676 -1.0200  0.8159  0.7924
  198ANI     H4 3645   0.544   2.668   0.991 -2.4620 -0.2666 -0.8333
  198ANI     H5 3646   0.669   2.547   1.162  0.4906  0.2191  0.1225
  198ANI     H6 3647   0.760   2.314   1.107  2.3460 -0.1440 -0.9942
  198ANI     H7 3648   0.688   2.200   0.893  0.4653  0.2886 -2.8131
  198ANI     H8 3649   0.589   2.337   0.710 -0.0160 -1.6613  0.0790
  199ANI     C1 3650   1.767   2.387   3.249 -0.2712 -0.4405 -0.8339
  199ANI     O1 3651   1.860   2.292   3.183  0.0924  0.3713  0.1972
  199ANI     C2 3652   1.940   2.208   3.261 -0.2575 -0.5673  0.1315
  199ANI     C3 3653   2.047   2.141   3.207 -0.3644  0.5839  0.5569
  199ANI     C4 3654   2.135   2.058   3.275  0.2891  0.0636  0.1479
  199ANI     C5 3655   2.114   2.045   3.413  0.1863  0.1881 -0.3998
  199ANI     C6 3656   2.005   2.111   3.474  0.6398  0.6903  0.3857
  199ANI     C7 3657   1.915   2.189   3.400 -0.3566 -0.4204  0.7340
  199ANI     H1 3658   1.822   2.460   3.308  0.9303 -0.4294 -1.9615
  199ANI     H2 3659   1.709   2.436   3.170 -0.4375  1.4598  0.4345
  199ANI     H3 3660   1.709   2.322   3.317  1.9601 -0.4138  1.1739
  199ANI     H4 3661   2.052   2.157   3.099 -0.8151 -0.6828  0.3411
  199ANI     H5 3662   2.212   1.998   3.229  0.6550  0.7819 -0.1801
  199ANI     H6 3663   2.190   1.992   3.469 -1.1208 -0.1824  1.0680
  199ANI     H7 3664   1.983   2.107   3.581  2.4737  0.5896  0.7932
  199ANI     H8 3665   1.831   2.234   3.453 -0.1905 -0.5342  1.0973
  200ANI     C1 3666   1.197   3.356   1.499  0.3117 -0.0322  0.2173
  200ANI     O1 3667   1.338   3.359   1.540 -0.5521 -0.3834  0.2854
  200ANI     C2 3668   1.413   3.473   1.554  0.2641  0.4566  0.9578
  200ANI     C3 3669   1.550   3.464   1.534  0.3765  0.9285  0.2703
  200ANI     C4 3670   1.640   3.573   1.528  0.0249 -0.5336  0.4000
  200ANI     C5 3671   1.578   3.699   1.548  0.0515 -0.1237 -0.5486
  200ANI     C6 3672   1.438   3.713   1.562 -0.0224  0.3491 -0.1967
  200ANI     C7 3673   1.352   3.602   1.568 -0.6052  0.2491 -0.2886
  200ANI     H1 3674   1.155   3.255   1.511  0.2339 -0.1613 -1.0368
  200ANI     H2 3675   1.139   3.427   1.559  0.2879 -0.6433  0.9171
  200ANI     H3 3676   1.184   3.396   1.398  3.5309  1.6911  0.4338
  200ANI     H4 3677   1.599   3.367   1.520 -0.7037  0.4447 -0.2018
  200ANI     H5 3678   1.747   3.558   1.517 -0.1351 -0.8394 -0.8381
  200ANI     H6 3679   1.635   3.790   1.530 -2.4010  1.5328 -0.1820
  200ANI     H7 3680   1.396   3.813   1.559 -0.4568  0.1683  0.0074
  200ANI     H8 3681   1.244   3.613   1.572 -0.6918 -0.3862 -0.7755
  201ANI     C1 3682   0.403   3.121   0.735  0.1894  0.5365  0.5207
  201ANI     O1 3683   0.297   3.204   0.700  0.0021 -0.2657  0.1668
  201ANI     C2 3684   0.315   3.314   0.628  0.3047 -0.3927  0.6337
  201ANI     C3 3685   0.423   3.333   0.537  0.6505  0.6732  0.0442
  201ANI     C4 3686   0.426   3.448   0.465 -0.1357  0.3932 -0.3560
  201ANI     C5 3687   0.326   3.545   0.474  0.3352 -0.3326 -0.3842
  201ANI     C6 3688   0.216   3.522   0.562 -0.0784  0.0039 -0.7017
  201ANI     C7 3689   0.214   3.409   0.639 -0.3994 -0.5881  0.4603
  201ANI     H1 3690   0.445   3.063   0.652 -0.1383  0.8487  0.1337
  201ANI     H2 3691   0.487   3.169   0.787  0.6171 -1.0326  1.3424
  201ANI     H3 3692   0.373   3.035   0.796 -2.0197 -0.2693 -1.6049
  201ANI     H4 3693   0.509   3.267   0.526 -0.2494 -0.8175  1.5493
  201ANI     H5 3694   0.501   3.465   0.389 -0.6590 -1.6352 -1.3460
  201ANI     H6 3695   0.335   3.628   0.404 -0.3278  0.5573  0.5499
  201ANI     H7 3696   0.130   3.588   0.574  0.8327  1.1193 -0.3052
  201ANI     H8 3697   0.129   3.396   0.705 -0.0946 -1.2156  0.7345
  202ANI     C1 3698   0.960   1.307   1.563  0.0492 -0.2337 -0.0818
  202ANI     O1 3699   0.883   1.352   1.456  0.0852 -0.1386  0.3704
  202ANI     C2 3700   0.848   1.266   1.354  0.5889 -0.2105  0.1011
  202ANI     C3 3701   0.755   1.313   1.260  0.2442  0.4854 -0.3070
  202ANI     C4 3702   0.711   1.230   1.153 -0.5817 -0.1970 -0.6594
  202ANI     C5 3703   0.757   1.091   1.152  0.0199 -0.6702 -0.3459
  202ANI     C6 3704   0.842   1.048   1.253 -0.3622 -0.3581  0.8318
  202ANI     C7 3705   0.894   1.139   1.352  0.1929  0.2074 -0.5743
  202ANI     H1 3706   1.049   1.264   1.516 -0.8246 -3.3121  0.9883
  202ANI     H2 3707   0.985   1.393   1.628 -0.3200 -0.1928  0.0069
  202ANI     H3 3708   0.907   1.230   1.620 -1.0141  0.9067  0.4961
  202ANI     H4 3709   0.720   1.416   1.258 -1.0797  0.0141 -2.0109
  202ANI     H5 3710   0.642   1.264   1.077 -2.9035 -0.0109  1.4570
  202ANI     H6 3711   0.717   1.019   1.081 -0.7788  1.1679 -1.7979
  202ANI     H7 3712   0.890   0.951   1.243  0.3021 -0.0164  0.6735
  202ANI     H8 3713   0.947   1.095   1.436  0.2757  1.3466 -0.0242
  203ANI     C1 3714   2.956   2.854   2.652  0.3225  0.1420 -0.0359
  203ANI     O1 3715   3.088   2.877   2.698  0.2600  0.4602  0.4571
  203ANI     C2 3716   3.154   2.779   2.767 -0.3720  0.0668  0.1580
  203ANI     C3 3717   3.091   2.660   2.812  0.1420  0.2413 -0.0026
  203ANI     C4 3718   3.164   2.560   2.880  0.5173  0.1304 -0.6131
  203ANI     C5 3719   3.300   2.578   2.913  0.1405 -0.6383 -0.0555
  203ANI     C6 3720   3.358   2.702   2.873 -0.1189  0.0362  0.1054
  203ANI     C7 3721   3.288   2.802   2.803  0.2333  0.4353 -0.5299
  203ANI     H1 3722   2.913   2.949   2.618  0.6181  0.4946  0.5589
  203ANI     H2 3723   2.955   2.777   2.575  2.7488  1.0509 -1.0071
  203ANI     H3 3724   2.880   2.825   2.726  0.4137 -0.0161 -0.0051
  203ANI     H4 3725   2.986   2.640   2.791  0.0777  0.7701 -0.2011
  203ANI     H5 3726   3.108   2.473   2.911 -0.7452  1.5834  1.3111
  203ANI     H6 3727   3.353   2.506   2.973 -0.5785  0.1454  1.5524
  203ANI     H7 3728   3.462   2.725   2.892  0.2468 -1.2049 -0.2992
  203ANI     H8 3729   3.343   2.892   2.777  1.2800  0.2260  0.8544
  204ANI     C1 3730   0.303   2.715   1.141  0.7146 -0.7058 -0.1766
  204ANI     O1 3731   0.270   2.825   1.051 -0.3642 -0.1103  0.1810
  204ANI     C2 3732   0.142   2.825   0.999 -0.1924 -0.3383 -0.6393
  204ANI     C3 3733   0.050   2.720   1.009  0.4428 -0.1249 -0.5718
  204ANI     C4 3734  -0.082   2.732   0.957 -0.1113 -0.1072 -0.0947
  204ANI     C5 3735  -0.121   2.847   0.889  0.0107  0.0065  0.4909
  204ANI     C6 3736  -0.030   2.955   0.895  0.1368 -0.1038  0.0039
  204ANI     C7 3737   0.099   2.942   0.943  0.0082  0.3015  0.6118
  204ANI     H1 3738   0.400   2.726   1.191  0.1349  3.3065  0.2581
  204ANI     H2 3739   0.235   2.690   1.223 -0.4202 -2.3803 -1.5704
  204ANI     H3 3740   0.311   2.624   1.081  2.5234 -0.5817 -0.1643
  204ANI     H4 3741   0.073   2.627   1.059 -1.0608  0.1306  0.6089
  204ANI     H5 3742  -0.145   2.643   0.948 -1.3675  0.9334 -1.8777
  204ANI     H6 3743  -0.222   2.854   0.850 -1.1048 -1.1191  3.0590
  204ANI     H7 3744  -0.067   3.054   0.871  0.8533  0.0964 -0.2952
  204ANI     H8 3745   0.166   3.027   0.932  0.8502 -0.4706 -0.4188
  205ANI     C1 3746   2.272   2.220   0.549 -0.5599  0.1382 -0.2082
  205ANI     O1 3747   2.189   2.231   0.433  0.3748  0.0788  0.2202
  205ANI     C2 3748   2.223   2.294   0.311 -0.4292  0.1876 -0.1029
  205ANI     C3 3749   2.149   2.266   0.196  0.1627 -0.3409 -0.2377
  205ANI     C4 3750   2.179   2.330   0.083 -0.3277 -0.1242  0.5243
  205ANI     C5 3751   2.292   2.422   0.079  0.3836  0.0186 -0.2114
  205ANI     C6 3752   2.359   2.453   0.194 -0.3182  0.3437 -0.4182
  205ANI     C7 3753   2.323   2.391   0.319 -0.8212  0.0985  0.1570
  205ANI     H1 3754   2.379   2.206   0.532 -0.5616  0.4422 -0.4627
  205ANI     H2 3755   2.251   2.306   0.613  1.1398  0.8360 -0.5735
  205ANI     H3 3756   2.235   2.141   0.616 -0.1403  0.6891  0.6884
  205ANI     H4 3757   2.063   2.200   0.196  1.6852 -2.3709 -1.1722
  205ANI     H5 3758   2.120   2.312  -0.006  0.6722  0.4143 -0.2530
  205ANI     H6 3759   2.325   2.462  -0.016 -0.5118  2.6819  0.5458
  205ANI     H7 3760   2.441   2.525   0.199 -0.5170  0.5261  0.4225
  205ANI     H8 3761   2.371   2.421   0.411  0.4113 -0.6565 -0.2247
  206ANI     C1 3762   2.029   2.731   3.337 -0.0556  0.0285 -0.8326
  206ANI     O1 3763   2.140   2.754   3.431 -0.6964  0.4008 -0.1366
  206ANI     C2 3764   2.238   2.665   3.473  0.3119 -1.0528 -0.7409
  206ANI     C3 3765   2.232   2.530   3.438 -0.0866  0.1084  0.1008
  206ANI     C4 3766   2.332   2.441   3.489  0.5771 -0.3225 -0.1232
  206ANI     C5 3767   2.441   2.486   3.571 -0.1828 -0.6032  0.7330
  206ANI     C6 3768   2.435   2.625   3.611 -0.1820 -0.2531  0.0981
  206ANI     C7 3769   2.338   2.715   3.553  0.0439 -0.0087  0.0870
  206ANI     H1 3770   1.962   2.656   3.379 -1.6069  0.7265 -2.0031
  206ANI     H2 3771   1.965   2.820   3.325  0.4001  0.0824 -3.1328
  206ANI     H3 3772   2.069   2.698   3.240  1.3886 -0.9414  0.0693
  206ANI     H4 3773   2.159   2.487   3.370  1.5134 -4.0450  0.8749
  206ANI     H5 3774   2.346   2.341   3.451  1.5055 -0.1308 -0.2866
  206ANI     H6 3775   2.523   2.420   3.597 -0.6570 -1.6990 -0.4302
  206ANI     H7 3776   2.516   2.664   3.672  1.6050 -0.6025 -1.9666
  206ANI     H8 3777   2.325   2.818   3.584 -0.0845 -0.2497  0.8474
  207ANI     C1 3778   3.002   0.883   3.032 -0.6551 -0.1352  0.0418
  207ANI     O1 3779   2.934   1.001   2.985  0.1452 -0.6064 -0.4368
  207ANI     C2 3780   2.793   1.015   2.992  0.1640  0.3102  0.0548
  207ANI     C3 3781   2.720   0.941   3.084  0.4107  0.7485 -0.2144
  207ANI     C4 3782   2.582   0.954   3.100  0.1562  0.5022  1.1838
  207ANI     C5 3783   2.516   1.043   3.017  0.0038  0.4452 -0.4513
  207ANI     C6 3784   2.590   1.121   2.927  0.1780 -0.5316 -0.3906
  207ANI     C7 3785   2.727   1.105   2.906  0.3199 -0.7418 -0.6706
  207ANI     H1 3786   3.011   0.891   3.141 -0.6014  0.9688 -0.0367
  207ANI     H2 3787   2.945   0.793   3.003  1.0352 -1.5522  1.0087
  207ANI     H3 3788   3.105   0.871   2.995 -0.9687 -2.0181 -0.2853
  207ANI     H4 3789   2.772   0.878   3.156 -0.9179 -0.1475 -0.0300
  207ANI     H5 3790   2.530   0.886   3.165 -0.3139 -1.9508 -1.6556
  207ANI     H6 3791   2.411   1.066   3.034  0.1410 -0.4635  1.7985
  207ANI     H7 3792   2.532   1.186   2.862  0.7498  0.2930 -0.0828
  207ANI     H8 3793   2.774   1.160   2.825 -0.9984  1.2310 -0.1245
  208ANI     C1 3794   0.870   0.615   2.304 -0.4883  0.0440 -0.2810
  208ANI     O1 3795   0.779   0.726   2.269  0.3092 -0.8728  0.5081
  208ANI     C2 3796   0.647   0.695   2.259  0.1069 -0.2621 -0.7239
  208ANI     C3 3797   0.592   0.564   2.255  0.5154 -0.0908 -0.1864
  208ANI     C4 3798   0.453   0.544   2.229  0.3287 -0.1956  0.5108
  208ANI     C5 3799   0.370   0.661   2.218 -0.2456  0.3403 -0.1454
  208ANI     C6 3800   0.426   0.792   2.231  0.0197 -0.2748 -0.9311
  208ANI     C7 3801   0.564   0.808   2.235 -0.8117 -0.3995 -0.0561
  208ANI     H1 3802   0.901   0.564   2.212 -0.5615  0.7270 -0.6881
  208ANI     H2 3803   0.958   0.653   2.358 -0.2236 -1.1373  0.1139
  208ANI     H3 3804   0.823   0.544   2.372  1.3534  0.6593  1.6900
  208ANI     H4 3805   0.654   0.474   2.254  1.5793  0.6097  1.7777
  208ANI     H5 3806   0.408   0.445   2.231 -0.0658 -0.0440 -0.6198
  208ANI     H6 3807   0.264   0.640   2.218  0.1647 -1.9306 -0.2275
  208ANI     H7 3808   0.359   0.877   2.219 -0.1324 -0.3226 -0.4436
  208ANI     H8 3809   0.611   0.905   2.225 -0.5499 -0.8346 -3.5664
  209ANI     C1 3810   2.441   0.349   0.456  0.4456  0.4858 -0.3559
  209ANI     O1 3811   2.427   0.437   0.352  0.0558 -0.2085  0.4843
  209ANI     C2 3812   2.486   0.429   0.231 -0.0277 -1.3026 -0.0140
  209ANI     C3 3813   2.567   0.323   0.188  0.8796  0.0824 -0.3493
  209ANI     C4 3814   2.622   0.327   0.062 -0.4692  0.0618 -0.2128
  209ANI     C5 3815   2.607   0.439  -0.022  0.0559 -0.0777  0.3263
  209ANI     C6 3816   2.520   0.541   0.010  1.1321  0.4483  0.5355
  209ANI     C7 3817   2.462   0.531   0.139 -0.2365 -0.2254 -0.5661
  209ANI     H1 3818   2.404   0.250   0.427  1.3717  0.1558 -0.4271
  209ANI     H2 3819   2.542   0.327   0.491  0.4188 -2.4198 -1.9768
  209ANI     H3 3820   2.391   0.383   0.548  0.7693  0.5072 -0.1887
  209ANI     H4 3821   2.593   0.243   0.257 -0.0686 -1.0065 -1.2307
  209ANI     H5 3822   2.687   0.243   0.036  0.7274  0.0701  2.5919
  209ANI     H6 3823   2.653   0.442  -0.120  0.6501  3.1821  0.6429
  209ANI     H7 3824   2.508   0.624  -0.059 -0.3894  0.5728  0.9383
  209ANI     H8 3825   2.401   0.610   0.180 -0.8661 -0.3506 -1.2333
  210ANI     C1 3826   1.400   2.469   0.207 -0.1588  0.0091  0.0959
  210ANI     O1 3827   1.400   2.352   0.135  0.4825  0.1349 -0.5079
  210ANI     C2 3828   1.413   2.233   0.197 -0.4409 -0.3828  0.5151
  210ANI     C3 3829   1.474   2.231   0.321 -0.1149  0.5745  0.2134
  210ANI     C4 3830   1.495   2.109   0.392 -0.2318 -0.0699 -0.2318
  210ANI     C5 3831   1.446   1.990   0.336  0.1815 -0.3276 -0.2756
  210ANI     C6 3832   1.380   1.997   0.212  0.3399  0.5834  0.2341
  210ANI     C7 3833   1.368   2.116   0.141 -0.1856 -0.2151  0.5365
  210ANI     H1 3834   1.504   2.493   0.233 -0.6130 -0.9618  3.0473
  210ANI     H2 3835   1.352   2.545   0.144 -1.5842 -0.3822  0.6836
  210ANI     H3 3836   1.337   2.460   0.297  1.6525  0.7344  1.4696
  210ANI     H4 3837   1.503   2.324   0.369  1.1181  1.4287 -2.0948
  210ANI     H5 3838   1.536   2.096   0.492  0.4820 -1.6296 -0.7081
  210ANI     H6 3839   1.460   1.894   0.384  3.1198 -0.3276 -0.9978
  210ANI     H7 3840   1.350   1.908   0.157 -3.7032  1.2834  1.1611
  210ANI     H8 3841   1.328   2.123   0.040  1.4999 -0.1803 -0.1369
  211ANI     C1 3842   1.351   1.340   3.436 -0.1088  0.1357  0.1230
  211ANI     O1 3843   1.380   1.398   3.566  0.2507  0.5044  0.2903
  211ANI     C2 3844   1.411   1.329   3.680 -0.0928  0.4766 -0.6326
  211ANI     C3 3845   1.421   1.188   3.669 -0.0818  0.5686  0.3822
  211ANI     C4 3846   1.450   1.112   3.786 -0.2910  0.2146 -0.0298
  211ANI     C5 3847   1.465   1.182   3.907 -0.2869 -0.2611  0.0724
  211ANI     C6 3848   1.466   1.322   3.911  0.1783 -0.0301 -0.7194
  211ANI     C7 3849   1.432   1.395   3.796 -0.1204 -0.0072 -0.1483
  211ANI     H1 3850   1.441   1.285   3.408  1.2713  0.6478  3.2817
  211ANI     H2 3851   1.257   1.283   3.431  0.1363 -0.2456 -0.1318
  211ANI     H3 3852   1.341   1.424   3.366 -1.4310 -0.0996  0.0113
  211ANI     H4 3853   1.408   1.132   3.577 -0.4759 -2.5420  2.2519
  211ANI     H5 3854   1.451   1.005   3.767 -0.9750  0.2699 -0.4075
  211ANI     H6 3855   1.491   1.132   4.001  0.7886  0.8539  0.3856
  211ANI     H7 3856   1.485   1.373   4.005 -1.0454 -1.3527  0.2624
  211ANI     H8 3857   1.420   1.502   3.782 -0.0410  0.2141  1.4249
  212ANI     C1 3858   0.194   2.003   1.523  0.2797 -0.6121 -0.9127
  212ANI     O1 3859   0.304   1.967   1.447  0.8725 -0.1926  0.1687
  212ANI     C2 3860   0.366   1.840   1.451 -0.2623  0.1775  0.3002
  212ANI     C3 3861   0.338   1.757   1.555 -0.2450 -0.0283 -0.6506
  212ANI     C4 3862   0.386   1.620   1.553  0.0271  0.2455  0.3602
  212ANI     C5 3863   0.477   1.580   1.449 -0.5611 -0.5526 -0.3764
  212ANI     C6 3864   0.511   1.671   1.347 -0.1669 -0.0391  0.0882
  212ANI     C7 3865   0.453   1.797   1.345  0.1504  0.2166 -0.0346
  212ANI     H1 3866   0.221   1.987   1.629  1.1968  1.0559 -0.8811
  212ANI     H2 3867   0.173   2.110   1.511 -2.6049 -1.2740 -2.2297
  212ANI     H3 3868   0.109   1.935   1.507  0.6455 -1.8753  2.1353
  212ANI     H4 3869   0.266   1.782   1.632  0.3600 -0.8558  0.1863
  212ANI     H5 3870   0.355   1.549   1.629 -0.9705 -1.4524 -1.5853
  212ANI     H6 3871   0.505   1.476   1.441 -2.4832 -1.1576  0.3896
  212ANI     H7 3872   0.588   1.636   1.278  0.5666 -0.0930  0.9299
  212ANI     H8 3873   0.496   1.866   1.274  1.0581 -0.8380 -0.5347
  213ANI     C1 3874   1.096   0.610   0.004  0.9257  0.2554 -0.0926
  213ANI     O1 3875   1.046   0.581   0.133  0.2829  0.3666 -0.2161
  213ANI     C2 3876   0.946   0.652   0.191 -0.9185  0.2353 -0.6547
  213ANI     C3 3877   0.887   0.588   0.302  1.2560 -0.2662  0.4804
  213ANI     C4 3878   0.785   0.661   0.374 -0.4950  0.3571 -0.0112
  213ANI     C5 3879   0.741   0.788   0.328 -0.3972  0.1010  0.1226
  213ANI     C6 3880   0.792   0.836   0.203  0.8114  0.1512  0.5227
  213ANI     C7 3881   0.900   0.775   0.143 -0.8004 -0.5222  0.2681
  213ANI     H1 3882   1.157   0.524  -0.028 -0.0174 -0.4153 -0.0967
  213ANI     H2 3883   1.017   0.626  -0.070  0.2049  0.2638  0.6704
  213ANI     H3 3884   1.166   0.694   0.001  0.3514  0.8517  2.3621
  213ANI     H4 3885   0.910   0.489   0.341 -3.4069 -1.9300 -0.5585
  213ANI     H5 3886   0.737   0.618   0.461 -1.5853  1.9250  0.1823
  213ANI     H6 3887   0.657   0.845   0.368 -0.3539 -0.8803  1.6477
  213ANI     H7 3888   0.752   0.931   0.168  0.1664 -0.8037 -1.3853
  213ANI     H8 3889   0.937   0.825   0.054 -2.1721 -0.4963 -0.3106
  214ANI     C1 3890   0.039   1.497   3.754 -0.1285  0.2479 -0.1604
  214ANI     O1 3891   0.179   1.492   3.767  0.4369 -0.0667  0.2652
  214ANI     C2 3892   0.236   1.538   3.886 -0.1430 -0.4080 -0.1470
  214ANI     C3 3893   0.165   1.615   3.981  0.3029  0.1347  0.7172
  214ANI     C4 3894   0.226   1.641   4.105 -0.1685 -0.6951 -0.1188
  214ANI     C5 3895   0.354   1.605   4.137  0.3633  0.4399  0.5494
  214ANI     C6 3896   0.426   1.533   4.038 -0.1191  0.5287 -0.2841
  214ANI     C7 3897   0.371   1.500   3.916 -0.4333 -0.4640  0.9609
  214ANI     H1 3898   0.001   1.451   3.662  0.3386  1.3626 -0.9171
  214ANI     H2 3899  -0.004   1.443   3.839 -0.9269 -0.5460 -1.0638
  214ANI     H3 3900   0.007   1.602   3.754 -1.8167 -0.2549  0.7079
  214ANI     H4 3901   0.064   1.652   3.965  1.0194  1.3618 -1.1572
  214ANI     H5 3902   0.166   1.700   4.174 -2.0549 -0.0755 -2.2235
  214ANI     H6 3903   0.400   1.647   4.226  1.4026  0.1748  0.1533
  214ANI     H7 3904   0.523   1.487   4.051  0.4758  1.1601 -2.2904
  214ANI     H8 3905   0.427   1.444   3.843  1.1412  2.1445  0.0868
  215ANI     C1 3906   0.328   2.090   0.599  0.2349  0.4078  0.7366
  215ANI     O1 3907   0.261   2.056   0.718 -0.1355  0.4307  0.2594
  215ANI     C2 3908   0.233   2.136   0.818 -0.4596  0.0542  0.0388
  215ANI     C3 3909   0.244   2.278   0.815  0.4656  0.2022 -0.2306
  215ANI     C4 3910   0.222   2.358   0.931  0.0007  0.0985 -0.4703
  215ANI     C5 3911   0.175   2.290   1.045  0.0256  0.0227 -0.2580
  215ANI     C6 3912   0.158   2.148   1.051  0.2245 -0.2056 -0.3395
  215ANI     C7 3913   0.193   2.074   0.939  0.4500  0.4803  0.2482
  215ANI     H1 3914   0.425   2.133   0.627  0.7139 -0.3826  0.3218
  215ANI     H2 3915   0.343   2.000   0.538  2.0408  0.9041  0.3908
  215ANI     H3 3916   0.270   2.155   0.532 -1.3761 -0.1193  1.5912
  215ANI     H4 3917   0.282   2.329   0.727 -2.1224  1.8707 -0.4540
  215ANI     H5 3918   0.233   2.466   0.923  0.9436  0.1248  0.9737
  215ANI     H6 3919   0.143   2.344   1.134 -1.8881  0.1866 -1.0258
  215ANI     H7 3920   0.122   2.109   1.146  0.0657  0.5487 -0.0814
  215ANI     H8 3921   0.194   1.967   0.956 -1.2309  0.3690 -0.3611
  216ANI     C1 3922   0.758   3.180   3.377 -0.2484  0.2273  0.2929
  216ANI     O1 3923   0.626   3.190   3.437 -0.1692  0.7450  0.1774
  216ANI     C2 3924   0.563   3.313   3.438 -0.4533 -0.4189 -0.4488
  216ANI     C3 3925   0.598   3.431   3.360  0.4687  0.0082 -0.2789
  216ANI     C4 3926   0.527   3.548   3.392  1.4667 -0.4185 -0.4556
  216ANI     C5 3927   0.427   3.552   3.496 -0.2721  0.9961 -0.4383
  216ANI     C6 3928   0.387   3.434   3.560 -0.0056 -0.7305  0.9526
  216ANI     C7 3929   0.458   3.320   3.532  0.2084  0.1692 -0.8784
  216ANI     H1 3930   0.744   3.184   3.269 -0.4061  0.7017  0.3321
  216ANI     H2 3931   0.811   3.274   3.394 -1.6534  1.2052 -0.6444
  216ANI     H3 3932   0.817   3.090   3.397  0.0860  0.3991  0.0702
  216ANI     H4 3933   0.671   3.433   3.280  1.0253 -3.6878  0.0752
  216ANI     H5 3934   0.562   3.637   3.340 -1.9929  2.7187  2.2502
  216ANI     H6 3935   0.379   3.646   3.521  1.9879  2.3122 -0.9380
  216ANI     H7 3936   0.313   3.437   3.640 -0.7447 -0.1184  0.2477
  216ANI     H8 3937   0.439   3.232   3.593  0.5715  0.5835 -0.1611
  217ANI     C1 3938   1.132   1.794   3.527 -0.3030  0.3653  0.3479
  217ANI     O1 3939   1.184   1.922   3.492 -0.1206 -0.8736  0.0104
  217ANI     C2 3940   1.319   1.942   3.459 -0.6339  0.4491  0.0132
  217ANI     C3 3941   1.412   1.832   3.436  0.1255 -0.2616 -0.1082
  217ANI     C4 3942   1.546   1.857   3.408  0.5119  0.5334 -0.5057
  217ANI     C5 3943   1.593   1.995   3.407 -0.3635 -0.1418 -0.3218
  217ANI     C6 3944   1.499   2.102   3.422 -0.6126  0.4428 -0.2469
  217ANI     C7 3945   1.369   2.076   3.448 -0.6160  0.2596  0.3205
  217ANI     H1 3946   1.041   1.798   3.587 -0.7685 -0.8860 -0.2458
  217ANI     H2 3947   1.115   1.721   3.446  0.7748 -1.6054  1.8626
  217ANI     H3 3948   1.208   1.740   3.584  0.5285  0.5464 -0.5793
  217ANI     H4 3949   1.380   1.729   3.447  0.5837 -0.7357 -2.9606
  217ANI     H5 3950   1.621   1.781   3.390  1.8831  1.5645  0.7253
  217ANI     H6 3951   1.699   2.017   3.396 -1.0495  1.7992 -3.7145
  217ANI     H7 3952   1.526   2.207   3.411 -0.4889  0.2317 -2.1312
  217ANI     H8 3953   1.304   2.163   3.451  0.1410  0.8815 -1.0440
  218ANI     C1 3954   2.324   0.163   3.040 -0.0763  0.4709  0.7878
  218ANI     O1 3955   2.434   0.088   3.096  0.8593  0.6071 -0.2642
  218ANI     C2 3956   2.567   0.093   3.060  0.4086 -0.3590  0.6678
  218ANI     C3 3957   2.659   0.034   3.149  0.2628 -0.1636 -0.2430
  218ANI     C4 3958   2.803   0.049   3.120  0.6821 -0.9167 -0.0435
  218ANI     C5 3959   2.846   0.115   3.005  0.3431 -0.0362 -0.4529
  218ANI     C6 3960   2.747   0.169   2.915 -0.0617 -0.5275 -0.1987
  218ANI     C7 3961   2.611   0.169   2.946 -0.3315 -0.0213 -0.1553
  218ANI     H1 3962   2.349   0.269   3.025  0.3186  0.3535  0.6094
  218ANI     H2 3963   2.300   0.113   2.946  2.5156  2.2431 -0.9002
  218ANI     H3 3964   2.237   0.152   3.106 -0.1701  1.8065  0.8901
  218ANI     H4 3965   2.614   0.009   3.245  0.9754 -1.1865 -0.1754
  218ANI     H5 3966   2.876   0.019   3.195 -0.7849  1.8067  2.5731
  218ANI     H6 3967   2.951   0.135   2.987  0.4264 -0.5061 -0.4899
  218ANI     H7 3968   2.785   0.230   2.834  0.8342  1.5896  1.7552
  218ANI     H8 3969   2.539   0.222   2.884 -0.4210  3.7720  3.0501
   3.40320   3.43847   3.80000
