HFIP comparator n4
 3225
    1GR      C1    1   0.000   0.000   1.900  0.0000  0.0000  0.0000
    1GR      C2    2   0.142   0.000   1.900  0.0000  0.0000  0.0000
    1GR      C3    3   0.213   0.123   1.900  0.0000  0.0000  0.0000
    1GR      C4    4   0.354   0.123   1.900  0.0000  0.0000  0.0000
    1GR      C5    5   0.000   0.246   1.900  0.0000  0.0000  0.0000
    1GR      C6    6   0.142   0.246   1.900  0.0000  0.0000  0.0000
    1GR      C7    7   0.213   0.368   1.900  0.0000  0.0000  0.0000
    1GR      C8    8   0.354   0.368   1.900  0.0000  0.0000  0.0000
    1GR      C9    9   0.000   0.491   1.900  0.0000  0.0000  0.0000
    1GR     C10   10   0.142   0.491   1.900  0.0000  0.0000  0.0000
    1GR     C11   11   0.213   0.614   1.900  0.0000  0.0000  0.0000
    1GR     C12   12   0.354   0.614   1.900  0.0000  0.0000  0.0000
    1GR     C13   13   0.000   0.737   1.900  0.0000  0.0000  0.0000
    1GR     C14   14   0.142   0.737   1.900  0.0000  0.0000  0.0000
    1GR     C15   15   0.213   0.860   1.900  0.0000  0.0000  0.0000
    1GR     C16   16   0.354   0.860   1.900  0.0000  0.0000  0.0000
    1GR     C17   17   0.000   0.982   1.900  0.0000  0.0000  0.0000
    1GR     C18   18   0.142   0.982   1.900  0.0000  0.0000  0.0000
    1GR     C19   19   0.213   1.105   1.900  0.0000  0.0000  0.0000
    1GR     C20   20   0.354   1.105   1.900  0.0000  0.0000  0.0000
    1GR     C21   21   0.000   1.228   1.900  0.0000  0.0000  0.0000
    1GR     C22   22   0.142   1.228   1.900  0.0000  0.0000  0.0000
    1GR     C23   23   0.213   1.351   1.900  0.0000  0.0000  0.0000
    1GR     C24   24   0.354   1.351   1.900  0.0000  0.0000  0.0000
    1GR     C25   25   0.000   1.474   1.900  0.0000  0.0000  0.0000
    1GR     C26   26   0.142   1.474   1.900  0.0000  0.0000  0.0000
    1GR     C27   27   0.213   1.596   1.900  0.0000  0.0000  0.0000
    1GR     C28   28   0.354   1.596   1.900  0.0000  0.0000  0.0000
    1GR     C29   29   0.000   1.719   1.900  0.0000  0.0000  0.0000
    1GR     C30   30   0.142   1.719   1.900  0.0000  0.0000  0.0000
    1GR     C31   31   0.213   1.842   1.900  0.0000  0.0000  0.0000
    1GR     C32   32   0.354   1.842   1.900  0.0000  0.0000  0.0000
    1GR     C33   33   0.000   1.965   1.900  0.0000  0.0000  0.0000
    1GR     C34   34   0.142   1.965   1.900  0.0000  0.0000  0.0000
    1GR     C35   35   0.213   2.088   1.900  0.0000  0.0000  0.0000
    1GR     C36   36   0.354   2.088   1.900  0.0000  0.0000  0.0000
    1GR     C37   37   0.000   2.210   1.900  0.0000  0.0000  0.0000
    1GR     C38   38   0.142   2.210   1.900  0.0000  0.0000  0.0000
    1GR     C39   39   0.213   2.333   1.900  0.0000  0.0000  0.0000
    1GR     C40   40   0.354   2.333   1.900  0.0000  0.0000  0.0000
    1GR     C41   41   0.000   2.456   1.900  0.0000  0.0000  0.0000
    1GR     C42   42   0.142   2.456   1.900  0.0000  0.0000  0.0000
    1GR     C43   43   0.213   2.579   1.900  0.0000  0.0000  0.0000
    1GR     C44   44   0.354   2.579   1.900  0.0000  0.0000  0.0000
    1GR     C45   45   0.000   2.702   1.900  0.0000  0.0000  0.0000
    1GR     C46   46   0.142   2.702   1.900  0.0000  0.0000  0.0000
    1GR     C47   47   0.213   2.824   1.900  0.0000  0.0000  0.0000
    1GR     C48   48   0.354   2.824   1.900  0.0000  0.0000  0.0000
    1GR     C49   49   0.000   2.947   1.900  0.0000  0.0000  0.0000
    1GR     C50   50   0.142   2.947   1.900  0.0000  0.0000  0.0000
    1GR     C51   51   0.213   3.070   1.900  0.0000  0.0000  0.0000
    1GR     C52   52   0.354   3.070   1.900  0.0000  0.0000  0.0000
    1GR     C53   53   0.000   3.193   1.900  0.0000  0.0000  0.0000
    1GR     C54   54   0.142   3.193   1.900  0.0000  0.0000  0.0000
    1GR     C55   55   0.213   3.316   1.900  0.0000  0.0000  0.0000
    1GR     C56   56   0.354   3.316   1.900  0.0000  0.0000  0.0000
    1GR     C57   57   0.425   0.000   1.900  0.0000  0.0000  0.0000
    1GR     C58   58   0.567   0.000   1.900  0.0000  0.0000  0.0000
    1GR     C59   59   0.638   0.123   1.900  0.0000  0.0000  0.0000
    1GR     C60   60   0.780   0.123   1.900  0.0000  0.0000  0.0000
    1GR     C61   61   0.425   0.246   1.900  0.0000  0.0000  0.0000
    1GR     C62   62   0.567   0.246   1.900  0.0000  0.0000  0.0000
    1GR     C63   63   0.638   0.368   1.900  0.0000  0.0000  0.0000
    1GR     C64   64   0.780   0.368   1.900  0.0000  0.0000  0.0000
    1GR     C65   65   0.425   0.491   1.900  0.0000  0.0000  0.0000
    1GR     C66   66   0.567   0.491   1.900  0.0000  0.0000  0.0000
    1GR     C67   67   0.638   0.614   1.900  0.0000  0.0000  0.0000
    1GR     C68   68   0.780   0.614   1.900  0.0000  0.0000  0.0000
    1GR     C69   69   0.425   0.737   1.900  0.0000  0.0000  0.0000
    1GR     C70   70   0.567   0.737   1.900  0.0000  0.0000  0.0000
    1GR     C71   71   0.638   0.860   1.900  0.0000  0.0000  0.0000
    1GR     C72   72   0.780   0.860   1.900  0.0000  0.0000  0.0000
    1GR     C73   73   0.425   0.982   1.900  0.0000  0.0000  0.0000
    1GR     C74   74   0.567   0.982   1.900  0.0000  0.0000  0.0000
    1GR     C75   75   0.638   1.105   1.900  0.0000  0.0000  0.0000
    1GR     C76   76   0.780   1.105   1.900  0.0000  0.0000  0.0000
    1GR     C77   77   0.425   1.228   1.900  0.0000  0.0000  0.0000
    1GR     C78   78   0.567   1.228   1.900  0.0000  0.0000  0.0000
    1GR     C79   79   0.638   1.351   1.900  0.0000  0.0000  0.0000
    1GR     C80   80   0.780   1.351   1.900  0.0000  0.0000  0.0000
    1GR     C81   81   0.425   1.474   1.900  0.0000  0.0000  0.0000
    1GR     C82   82   0.567   1.474   1.900  0.0000  0.0000  0.0000
    1GR     C83   83   0.638   1.596   1.900  0.0000  0.0000  0.0000
    1GR     C84   84   0.780   1.596   1.900  0.0000  0.0000  0.0000
    1GR     C85   85   0.425   1.719   1.900  0.0000  0.0000  0.0000
    1GR     C86   86   0.567   1.719   1.900  0.0000  0.0000  0.0000
    1GR     C87   87   0.638   1.842   1.900  0.0000  0.0000  0.0000
    1GR     C88   88   0.780   1.842   1.900  0.0000  0.0000  0.0000
    1GR     C89   89   0.425   1.965   1.900  0.0000  0.0000  0.0000
    1GR     C90   90   0.567   1.965   1.900  0.0000  0.0000  0.0000
    1GR     C91   91   0.638   2.088   1.900  0.0000  0.0000  0.0000
    1GR     C92   92   0.780   2.088   1.900  0.0000  0.0000  0.0000
    1GR     C93   93   0.425   2.210   1.900  0.0000  0.0000  0.0000
    1GR     C94   94   0.567   2.210   1.900  0.0000  0.0000  0.0000
    1GR     C95   95   0.638   2.333   1.900  0.0000  0.0000  0.0000
    1GR     C96   96   0.780   2.333   1.900  0.0000  0.0000  0.0000
    1GR     C97   97   0.425   2.456   1.900  0.0000  0.0000  0.0000
    1GR     C98   98   0.567   2.456   1.900  0.0000  0.0000  0.0000
    1GR     C99   99   0.638   2.579   1.900  0.0000  0.0000  0.0000
    1GR    C100  100   0.780   2.579   1.900  0.0000  0.0000  0.0000
    1GR    C101  101   0.425   2.702   1.900  0.0000  0.0000  0.0000
    1GR    C102  102   0.567   2.702   1.900  0.0000  0.0000  0.0000
    1GR    C103  103   0.638   2.824   1.900  0.0000  0.0000  0.0000
    1GR    C104  104   0.780   2.824   1.900  0.0000  0.0000  0.0000
    1GR    C105  105   0.425   2.947   1.900  0.0000  0.0000  0.0000
    1GR    C106  106   0.567   2.947   1.900  0.0000  0.0000  0.0000
    1GR    C107  107   0.638   3.070   1.900  0.0000  0.0000  0.0000
    1GR    C108  108   0.780   3.070   1.900  0.0000  0.0000  0.0000
    1GR    C109  109   0.425   3.193   1.900  0.0000  0.0000  0.0000
    1GR    C110  110   0.567   3.193   1.900  0.0000  0.0000  0.0000
    1GR    C111  111   0.638   3.316   1.900  0.0000  0.0000  0.0000
    1GR    C112  112   0.780   3.316   1.900  0.0000  0.0000  0.0000
    1GR    C113  113   0.851   0.000   1.900  0.0000  0.0000  0.0000
    1GR    C114  114   0.993   0.000   1.900  0.0000  0.0000  0.0000
    1GR    C115  115   1.064   0.123   1.900  0.0000  0.0000  0.0000
    1GR    C116  116   1.205   0.123   1.900  0.0000  0.0000  0.0000
    1GR    C117  117   0.851   0.246   1.900  0.0000  0.0000  0.0000
    1GR    C118  118   0.993   0.246   1.900  0.0000  0.0000  0.0000
    1GR    C119  119   1.064   0.368   1.900  0.0000  0.0000  0.0000
    1GR    C120  120   1.205   0.368   1.900  0.0000  0.0000  0.0000
    1GR    C121  121   0.851   0.491   1.900  0.0000  0.0000  0.0000
    1GR    C122  122   0.993   0.491   1.900  0.0000  0.0000  0.0000
    1GR    C123  123   1.064   0.614   1.900  0.0000  0.0000  0.0000
    1GR    C124  124   1.205   0.614   1.900  0.0000  0.0000  0.0000
    1GR    C125  125   0.851   0.737   1.900  0.0000  0.0000  0.0000
    1GR    C126  126   0.993   0.737   1.900  0.0000  0.0000  0.0000
    1GR    C127  127   1.064   0.860   1.900  0.0000  0.0000  0.0000
    1GR    C128  128   1.205   0.860   1.900  0.0000  0.0000  0.0000
    1GR    C129  129   0.851   0.982   1.900  0.0000  0.0000  0.0000
    1GR    C130  130   0.993   0.982   1.900  0.0000  0.0000  0.0000
    1GR    C131  131   1.064   1.105   1.900  0.0000  0.0000  0.0000
    1GR    C132  132   1.205   1.105   1.900  0.0000  0.0000  0.0000
    1GR    C133  133   0.851   1.228   1.900  0.0000  0.0000  0.0000
    1GR    C134  134   0.993   1.228   1.900  0.0000  0.0000  0.0000
    1GR    C135  135   1.064   1.351   1.900  0.0000  0.0000  0.0000
    1GR    C136  136   1.205   1.351   1.900  0.0000  0.0000  0.0000
    1GR    C137  137   0.851   1.474   1.900  0.0000  0.0000  0.0000
    1GR    C138  138   0.993   1.474   1.900  0.0000  0.0000  0.0000
    1GR    C139  139   1.064   1.596   1.900  0.0000  0.0000  0.0000
    1GR    C140  140   1.205   1.596   1.900  0.0000  0.0000  0.0000
    1GR    C141  141   0.851   1.719   1.900  0.0000  0.0000  0.0000
    1GR    C142  142   0.993   1.719   1.900  0.0000  0.0000  0.0000
    1GR    C143  143   1.064   1.842   1.900  0.0000  0.0000  0.0000
    1GR    C144  144   1.205   1.842   1.900  0.0000  0.0000  0.0000
    1GR    C145  145   0.851   1.965   1.900  0.0000  0.0000  0.0000
    1GR    C146  146   0.993   1.965   1.900  0.0000  0.0000  0.0000
    1GR    C147  147   1.064   2.088   1.900  0.0000  0.0000  0.0000
    1GR    C148  148   1.205   2.088   1.900  0.0000  0.0000  0.0000
    1GR    C149  149   0.851   2.210   1.900  0.0000  0.0000  0.0000
    1GR    C150  150   0.993   2.210   1.900  0.0000  0.0000  0.0000
    1GR    C151  151   1.064   2.333   1.900  0.0000  0.0000  0.0000
    1GR    C152  152   1.205   2.333   1.900  0.0000  0.0000  0.0000
    1GR    C153  153   0.851   2.456   1.900  0.0000  0.0000  0.0000
    1GR    C154  154   0.993   2.456   1.900  0.0000  0.0000  0.0000
    1GR    C155  155   1.064   2.579   1.900  0.0000  0.0000  0.0000
    1GR    C156  156   1.205   2.579   1.900  0.0000  0.0000  0.0000
    1GR    C157  157   0.851   2.702   1.900  0.0000  0.0000  0.0000
    1GR    C158  158   0.993   2.702   1.900  0.0000  0.0000  0.0000
    1GR    C159  159   1.064   2.824   1.900  0.0000  0.0000  0.0000
    1GR    C160  160   1.205   2.824   1.900  0.0000  0.0000  0.0000
    1GR    C161  161   0.851   2.947   1.900  0.0000  0.0000  0.0000
    1GR    C162  162   0.993   2.947   1.900  0.0000  0.0000  0.0000
    1GR    C163  163   1.064   3.070   1.900  0.0000  0.0000  0.0000
    1GR    C164  164   1.205   3.070   1.900  0.0000  0.0000  0.0000
    1GR    C165  165   0.851   3.193   1.900  0.0000  0.0000  0.0000
    1GR    C166  166   0.993   3.193   1.900  0.0000  0.0000  0.0000
    1GR    C167  167   1.064   3.316   1.900  0.0000  0.0000  0.0000
    1GR    C168  168   1.205   3.316   1.900  0.0000  0.0000  0.0000
    1GR    C169  169   1.276   0.000   1.900  0.0000  0.0000  0.0000
    1GR    C170  170   1.418   0.000   1.900  0.0000  0.0000  0.0000
    1GR    C171  171   1.489   0.123   1.900  0.0000  0.0000  0.0000
    1GR    C172  172   1.631   0.123   1.900  0.0000  0.0000  0.0000
    1GR    C173  173   1.276   0.246   1.900  0.0000  0.0000  0.0000
    1GR    C174  174   1.418   0.246   1.900  0.0000  0.0000  0.0000
    1GR    C175  175   1.489   0.368   1.900  0.0000  0.0000  0.0000
    1GR    C176  176   1.631   0.368   1.900  0.0000  0.0000  0.0000
    1GR    C177  177   1.276   0.491   1.900  0.0000  0.0000  0.0000
    1GR    C178  178   1.418   0.491   1.900  0.0000  0.0000  0.0000
    1GR    C179  179   1.489   0.614   1.900  0.0000  0.0000  0.0000
    1GR    C180  180   1.631   0.614   1.900  0.0000  0.0000  0.0000
    1GR    C181  181   1.276   0.737   1.900  0.0000  0.0000  0.0000
    1GR    C182  182   1.418   0.737   1.900  0.0000  0.0000  0.0000
    1GR    C183  183   1.489   0.860   1.900  0.0000  0.0000  0.0000
    1GR    C184  184   1.631   0.860   1.900  0.0000  0.0000  0.0000
    1GR    C185  185   1.276   0.982   1.900  0.0000  0.0000  0.0000
    1GR    C186  186   1.418   0.982   1.900  0.0000  0.0000  0.0000
    1GR    C187  187   1.489   1.105   1.900  0.0000  0.0000  0.0000
    1GR    C188  188   1.631   1.105   1.900  0.0000  0.0000  0.0000
    1GR    C189  189   1.276   1.228   1.900  0.0000  0.0000  0.0000
    1GR    C190  190   1.418   1.228   1.900  0.0000  0.0000  0.0000
    1GR    C191  191   1.489   1.351   1.900  0.0000  0.0000  0.0000
    1GR    C192  192   1.631   1.351   1.900  0.0000  0.0000  0.0000
    1GR    C193  193   1.276   1.474   1.900  0.0000  0.0000  0.0000
    1GR    C194  194   1.418   1.474   1.900  0.0000  0.0000  0.0000
    1GR    C195  195   1.489   1.596   1.900  0.0000  0.0000  0.0000
    1GR    C196  196   1.631   1.596   1.900  0.0000  0.0000  0.0000
    1GR    C197  197   1.276   1.719   1.900  0.0000  0.0000  0.0000
    1GR    C198  198   1.418   1.719   1.900  0.0000  0.0000  0.0000
    1GR    C199  199   1.489   1.842   1.900  0.0000  0.0000  0.0000
    1GR    C200  200   1.631   1.842   1.900  0.0000  0.0000  0.0000
    1GR    C201  201   1.276   1.965   1.900  0.0000  0.0000  0.0000
    1GR    C202  202   1.418   1.965   1.900  0.0000  0.0000  0.0000
    1GR    C203  203   1.489   2.088   1.900  0.0000  0.0000  0.0000
    1GR    C204  204   1.631   2.088   1.900  0.0000  0.0000  0.0000
    1GR    C205  205   1.276   2.210   1.900  0.0000  0.0000  0.0000
    1GR    C206  206   1.418   2.210   1.900  0.0000  0.0000  0.0000
    1GR    C207  207   1.489   2.333   1.900  0.0000  0.0000  0.0000
    1GR    C208  208   1.631   2.333   1.900  0.0000  0.0000  0.0000
    1GR    C209  209   1.276   2.456   1.900  0.0000  0.0000  0.0000
    1GR    C210  210   1.418   2.456   1.900  0.0000  0.0000  0.0000
    1GR    C211  211   1.489   2.579   1.900  0.0000  0.0000  0.0000
    1GR    C212  212   1.631   2.579   1.900  0.0000  0.0000  0.0000
    1GR    C213  213   1.276   2.702   1.900  0.0000  0.0000  0.0000
    1GR    C214  214   1.418   2.702   1.900  0.0000  0.0000  0.0000
    1GR    C215  215   1.489   2.824   1.900  0.0000  0.0000  0.0000
    1GR    C216  216   1.631   2.824   1.900  0.0000  0.0000  0.0000
    1GR    C217  217   1.276   2.947   1.900  0.0000  0.0000  0.0000
    1GR    C218  218   1.418   2.947   1.900  0.0000  0.0000  0.0000
    1GR    C219  219   1.489   3.070   1.900  0.0000  0.0000  0.0000
    1GR    C220  220   1.631   3.070   1.900  0.0000  0.0000  0.0000
    1GR    C221  221   1.276   3.193   1.900  0.0000  0.0000  0.0000
    1GR    C222  222   1.418   3.193   1.900  0.0000  0.0000  0.0000
    1GR    C223  223   1.489   3.316   1.900  0.0000  0.0000  0.0000
    1GR    C224  224   1.631   3.316   1.900  0.0000  0.0000  0.0000
    1GR    C225  225   1.702   0.000   1.900  0.0000  0.0000  0.0000
    1GR    C226  226   1.843   0.000   1.900  0.0000  0.0000  0.0000
    1GR    C227  227   1.914   0.123   1.900  0.0000  0.0000  0.0000
    1GR    C228  228   2.056   0.123   1.900  0.0000  0.0000  0.0000
    1GR    C229  229   1.702   0.246   1.900  0.0000  0.0000  0.0000
    1GR    C230  230   1.843   0.246   1.900  0.0000  0.0000  0.0000
    1GR    C231  231   1.914   0.368   1.900  0.0000  0.0000  0.0000
    1GR    C232  232   2.056   0.368   1.900  0.0000  0.0000  0.0000
    1GR    C233  233   1.702   0.491   1.900  0.0000  0.0000  0.0000
    1GR    C234  234   1.843   0.491   1.900  0.0000  0.0000  0.0000
    1GR    C235  235   1.914   0.614   1.900  0.0000  0.0000  0.0000
    1GR    C236  236   2.056   0.614   1.900  0.0000  0.0000  0.0000
    1GR    C237  237   1.702   0.737   1.900  0.0000  0.0000  0.0000
    1GR    C238  238   1.843   0.737   1.900  0.0000  0.0000  0.0000
    1GR    C239  239   1.914   0.860   1.900  0.0000  0.0000  0.0000
    1GR    C240  240   2.056   0.860   1.900  0.0000  0.0000  0.0000
    1GR    C241  241   1.702   0.982   1.900  0.0000  0.0000  0.0000
    1GR    C242  242   1.843   0.982   1.900  0.0000  0.0000  0.0000
    1GR    C243  243   1.914   1.105   1.900  0.0000  0.0000  0.0000
    1GR    C244  244   2.056   1.105   1.900  0.0000  0.0000  0.0000
    1GR    C245  245   1.702   1.228   1.900  0.0000  0.0000  0.0000
    1GR    C246  246   1.843   1.228   1.900  0.0000  0.0000  0.0000
    1GR    C247  247   1.914   1.351   1.900  0.0000  0.0000  0.0000
    1GR    C248  248   2.056   1.351   1.900  0.0000  0.0000  0.0000
    1GR    C249  249   1.702   1.474   1.900  0.0000  0.0000  0.0000
    1GR    C250  250   1.843   1.474   1.900  0.0000  0.0000  0.0000
    1GR    C251  251   1.914   1.596   1.900  0.0000  0.0000  0.0000
    1GR    C252  252   2.056   1.596   1.900  0.0000  0.0000  0.0000
    1GR    C253  253   1.702   1.719   1.900  0.0000  0.0000  0.0000
    1GR    C254  254   1.843   1.719   1.900  0.0000  0.0000  0.0000
    1GR    C255  255   1.914   1.842   1.900  0.0000  0.0000  0.0000
    1GR    C256  256   2.056   1.842   1.900  0.0000  0.0000  0.0000
    1GR    C257  257   1.702   1.965   1.900  0.0000  0.0000  0.0000
    1GR    C258  258   1.843   1.965   1.900  0.0000  0.0000  0.0000
    1GR    C259  259   1.914   2.088   1.900  0.0000  0.0000  0.0000
    1GR    C260  260   2.056   2.088   1.900  0.0000  0.0000  0.0000
    1GR    C261  261   1.702   2.210   1.900  0.0000  0.0000  0.0000
    1GR    C262  262   1.843   2.210   1.900  0.0000  0.0000  0.0000
    1GR    C263  263   1.914   2.333   1.900  0.0000  0.0000  0.0000
    1GR    C264  264   2.056   2.333   1.900  0.0000  0.0000  0.0000
    1GR    C265  265   1.702   2.456   1.900  0.0000  0.0000  0.0000
    1GR    C266  266   1.843   2.456   1.900  0.0000  0.0000  0.0000
    1GR    C267  267   1.914   2.579   1.900  0.0000  0.0000  0.0000
    1GR    C268  268   2.056   2.579   1.900  0.0000  0.0000  0.0000
    1GR    C269  269   1.702   2.702   1.900  0.0000  0.0000  0.0000
    1GR    C270  270   1.843   2.702   1.900  0.0000  0.0000  0.0000
    1GR    C271  271   1.914   2.824   1.900  0.0000  0.0000  0.0000
    1GR    C272  272   2.056   2.824   1.900  0.0000  0.0000  0.0000
    1GR    C273  273   1.702   2.947   1.900  0.0000  0.0000  0.0000
    1GR    C274  274   1.843   2.947   1.900  0.0000  0.0000  0.0000
    1GR    C275  275   1.914   3.070   1.900  0.0000  0.0000  0.0000
    1GR    C276  276   2.056   3.070   1.900  0.0000  0.0000  0.0000
    1GR    C277  277   1.702   3.193   1.900  0.0000  0.0000  0.0000
    1GR    C278  278   1.843   3.193   1.900  0.0000  0.0000  0.0000
    1GR    C279  279   1.914   3.316   1.900  0.0000  0.0000  0.0000
    1GR    C280  280   2.056   3.316   1.900  0.0000  0.0000  0.0000
    1GR    C281  281   2.127   0.000   1.900  0.0000  0.0000  0.0000
    1GR    C282  282   2.269   3.438   1.900  0.0000  0.0000  0.0000
    1GR    C283  283   2.340   0.123   1.900  0.0000  0.0000  0.0000
    1GR    C284  284   2.481   0.123   1.900  0.0000  0.0000  0.0000
    1GR    C285  285   2.127   0.246   1.900  0.0000  0.0000  0.0000
    1GR    C286  286   2.269   0.246   1.900  0.0000  0.0000  0.0000
    1GR    C287  287   2.340   0.368   1.900  0.0000  0.0000  0.0000
    1GR    C288  288   2.481   0.368   1.900  0.0000  0.0000  0.0000
    1GR    C289  289   2.127   0.491   1.900  0.0000  0.0000  0.0000
    1GR    C290  290   2.269   0.491   1.900  0.0000  0.0000  0.0000
    1GR    C291  291   2.340   0.614   1.900  0.0000  0.0000  0.0000
    1GR    C292  292   2.481   0.614   1.900  0.0000  0.0000  0.0000
    1GR    C293  293   2.127   0.737   1.900  0.0000  0.0000  0.0000
    1GR    C294  294   2.269   0.737   1.900  0.0000  0.0000  0.0000
    1GR    C295  295   2.340   0.860   1.900  0.0000  0.0000  0.0000
    1GR    C296  296   2.481   0.860   1.900  0.0000  0.0000  0.0000
    1GR    C297  297   2.127   0.982   1.900  0.0000  0.0000  0.0000
    1GR    C298  298   2.269   0.982   1.900  0.0000  0.0000  0.0000
    1GR    C299  299   2.340   1.105   1.900  0.0000  0.0000  0.0000
    1GR    C300  300   2.481   1.105   1.900  0.0000  0.0000  0.0000
    1GR    C301  301   2.127   1.228   1.900  0.0000  0.0000  0.0000
    1GR    C302  302   2.269   1.228   1.900  0.0000  0.0000  0.0000
    1GR    C303  303   2.340   1.351   1.900  0.0000  0.0000  0.0000
    1GR    C304  304   2.481   1.351   1.900  0.0000  0.0000  0.0000
    1GR    C305  305   2.127   1.474   1.900  0.0000  0.0000  0.0000
    1GR    C306  306   2.269   1.474   1.900  0.0000  0.0000  0.0000
    1GR    C307  307   2.340   1.596   1.900  0.0000  0.0000  0.0000
    1GR    C308  308   2.481   1.596   1.900  0.0000  0.0000  0.0000
    1GR    C309  309   2.127   1.719   1.900  0.0000  0.0000  0.0000
    1GR    C310  310   2.269   1.719   1.900  0.0000  0.0000  0.0000
    1GR    C311  311   2.340   1.842   1.900  0.0000  0.0000  0.0000
    1GR    C312  312   2.481   1.842   1.900  0.0000  0.0000  0.0000
    1GR    C313  313   2.127   1.965   1.900  0.0000  0.0000  0.0000
    1GR    C314  314   2.269   1.965   1.900  0.0000  0.0000  0.0000
    1GR    C315  315   2.340   2.088   1.900  0.0000  0.0000  0.0000
    1GR    C316  316   2.481   2.088   1.900  0.0000  0.0000  0.0000
    1GR    C317  317   2.127   2.210   1.900  0.0000  0.0000  0.0000
    1GR    C318  318   2.269   2.210   1.900  0.0000  0.0000  0.0000
    1GR    C319  319   2.340   2.333   1.900  0.0000  0.0000  0.0000
    1GR    C320  320   2.481   2.333   1.900  0.0000  0.0000  0.0000
    1GR    C321  321   2.127   2.456   1.900  0.0000  0.0000  0.0000
    1GR    C322  322   2.269   2.456   1.900  0.0000  0.0000  0.0000
    1GR    C323  323   2.340   2.579   1.900  0.0000  0.0000  0.0000
    1GR    C324  324   2.481   2.579   1.900  0.0000  0.0000  0.0000
    1GR    C325  325   2.127   2.702   1.900  0.0000  0.0000  0.0000
    1GR    C326  326   2.269   2.702   1.900  0.0000  0.0000  0.0000
    1GR    C327  327   2.340   2.824   1.900  0.0000  0.0000  0.0000
    1GR    C328  328   2.481   2.824   1.900  0.0000  0.0000  0.0000
    1GR    C329  329   2.127   2.947   1.900  0.0000  0.0000  0.0000
    1GR    C330  330   2.269   2.947   1.900  0.0000  0.0000  0.0000
    1GR    C331  331   2.340   3.070   1.900  0.0000  0.0000  0.0000
    1GR    C332  332   2.481   3.070   1.900  0.0000  0.0000  0.0000
    1GR    C333  333   2.127   3.193   1.900  0.0000  0.0000  0.0000
    1GR    C334  334   2.269   3.193   1.900  0.0000  0.0000  0.0000
    1GR    C335  335   2.340   3.316   1.900  0.0000  0.0000  0.0000
    1GR    C336  336   2.481   3.316   1.900  0.0000  0.0000  0.0000
    1GR    C337  337   2.552   0.000   1.900  0.0000  0.0000  0.0000
    1GR    C338  338   2.694   0.000   1.900  0.0000  0.0000  0.0000
    1GR    C339  339   2.765   0.123   1.900  0.0000  0.0000  0.0000
    1GR    C340  340   2.907   0.123   1.900  0.0000  0.0000  0.0000
    1GR    C341  341   2.552   0.246   1.900  0.0000  0.0000  0.0000
    1GR    C342  342   2.694   0.246   1.900  0.0000  0.0000  0.0000
    1GR    C343  343   2.765   0.368   1.900  0.0000  0.0000  0.0000
    1GR    C344  344   2.907   0.368   1.900  0.0000  0.0000  0.0000
    1GR    C345  345   2.552   0.491   1.900  0.0000  0.0000  0.0000
    1GR    C346  346   2.694   0.491   1.900  0.0000  0.0000  0.0000
    1GR    C347  347   2.765   0.614   1.900  0.0000  0.0000  0.0000
    1GR    C348  348   2.907   0.614   1.900  0.0000  0.0000  0.0000
    1GR    C349  349   2.552   0.737   1.900  0.0000  0.0000  0.0000
    1GR    C350  350   2.694   0.737   1.900  0.0000  0.0000  0.0000
    1GR    C351  351   2.765   0.860   1.900  0.0000  0.0000  0.0000
    1GR    C352  352   2.907   0.860   1.900  0.0000  0.0000  0.0000
    1GR    C353  353   2.552   0.982   1.900  0.0000  0.0000  0.0000
    1GR    C354  354   2.694   0.982   1.900  0.0000  0.0000  0.0000
    1GR    C355  355   2.765   1.105   1.900  0.0000  0.0000  0.0000
    1GR    C356  356   2.907   1.105   1.900  0.0000  0.0000  0.0000
    1GR    C357  357   2.552   1.228   1.900  0.0000  0.0000  0.0000
    1GR    C358  358   2.694   1.228   1.900  0.0000  0.0000  0.0000
    1GR    C359  359   2.765   1.351   1.900  0.0000  0.0000  0.0000
    1GR    C360  360   2.907   1.351   1.900  0.0000  0.0000  0.0000
    1GR    C361  361   2.552   1.474   1.900  0.0000  0.0000  0.0000
    1GR    C362  362   2.694   1.474   1.900  0.0000  0.0000  0.0000
    1GR    C363  363   2.765   1.596   1.900  0.0000  0.0000  0.0000
    1GR    C364  364   2.907   1.596   1.900  0.0000  0.0000  0.0000
    1GR    C365  365   2.552   1.719   1.900  0.0000  0.0000  0.0000
    1GR    C366  366   2.694   1.719   1.900  0.0000  0.0000  0.0000
    1GR    C367  367   2.765   1.842   1.900  0.0000  0.0000  0.0000
    1GR    C368  368   2.907   1.842   1.900  0.0000  0.0000  0.0000
    1GR    C369  369   2.552   1.965   1.900  0.0000  0.0000  0.0000
    1GR    C370  370   2.694   1.965   1.900  0.0000  0.0000  0.0000
    1GR    C371  371   2.765   2.088   1.900  0.0000  0.0000  0.0000
    1GR    C372  372   2.907   2.088   1.900  0.0000  0.0000  0.0000
    1GR    C373  373   2.552   2.210   1.900  0.0000  0.0000  0.0000
    1GR    C374  374   2.694   2.210   1.900  0.0000  0.0000  0.0000
    1GR    C375  375   2.765   2.333   1.900  0.0000  0.0000  0.0000
    1GR    C376  376   2.907   2.333   1.900  0.0000  0.0000  0.0000
    1GR    C377  377   2.552   2.456   1.900  0.0000  0.0000  0.0000
    1GR    C378  378   2.694   2.456   1.900  0.0000  0.0000  0.0000
    1GR    C379  379   2.765   2.579   1.900  0.0000  0.0000  0.0000
    1GR    C380  380   2.907   2.579   1.900  0.0000  0.0000  0.0000
    1GR    C381  381   2.552   2.702   1.900  0.0000  0.0000  0.0000
    1GR    C382  382   2.694   2.702   1.900  0.0000  0.0000  0.0000
    1GR    C383  383   2.765   2.824   1.900  0.0000  0.0000  0.0000
    1GR    C384  384   2.907   2.824   1.900  0.0000  0.0000  0.0000
    1GR    C385  385   2.552   2.947   1.900  0.0000  0.0000  0.0000
    1GR    C386  386   2.694   2.947   1.900  0.0000  0.0000  0.0000
    1GR    C387  387   2.765   3.070   1.900  0.0000  0.0000  0.0000
    1GR    C388  388   2.907   3.070   1.900  0.0000  0.0000  0.0000
    1GR    C389  389   2.552   3.193   1.900  0.0000  0.0000  0.0000
    1GR    C390  390   2.694   3.193   1.900  0.0000  0.0000  0.0000
    1GR    C391  391   2.765   3.316   1.900  0.0000  0.0000  0.0000
    1GR    C392  392   2.907   3.316   1.900  0.0000  0.0000  0.0000
    1GR    C393  393   2.978   0.000   1.900  0.0000  0.0000  0.0000
    1GR    C394  394   3.120   0.000   1.900  0.0000  0.0000  0.0000
    1GR    C395  395   3.191   0.123   1.900  0.0000  0.0000  0.0000
    1GR    C396  396   3.332   0.123   1.900  0.0000  0.0000  0.0000
    1GR    C397  397   2.978   0.246   1.900  0.0000  0.0000  0.0000
    1GR    C398  398   3.120   0.246   1.900  0.0000  0.0000  0.0000
    1GR    C399  399   3.191   0.368   1.900  0.0000  0.0000  0.0000
    1GR    C400  400   3.332   0.368   1.900  0.0000  0.0000  0.0000
    1GR    C401  401   2.978   0.491   1.900  0.0000  0.0000  0.0000
    1GR    C402  402   3.120   0.491   1.900  0.0000  0.0000  0.0000
    1GR    C403  403   3.191   0.614   1.900  0.0000  0.0000  0.0000
    1GR    C404  404   3.332   0.614   1.900  0.0000  0.0000  0.0000
    1GR    C405  405   2.978   0.737   1.900  0.0000  0.0000  0.0000
    1GR    C406  406   3.120   0.737   1.900  0.0000  0.0000  0.0000
    1GR    C407  407   3.191   0.860   1.900  0.0000  0.0000  0.0000
    1GR    C408  408   3.332   0.860   1.900  0.0000  0.0000  0.0000
    1GR    C409  409   2.978   0.982   1.900  0.0000  0.0000  0.0000
    1GR    C410  410   3.120   0.982   1.900  0.0000  0.0000  0.0000
    1GR    C411  411   3.191   1.105   1.900  0.0000  0.0000  0.0000
    1GR    C412  412   3.332   1.105   1.900  0.0000  0.0000  0.0000
    1GR    C413  413   2.978   1.228   1.900  0.0000  0.0000  0.0000
    1GR    C414  414   3.120   1.228   1.900  0.0000  0.0000  0.0000
    1GR    C415  415   3.191   1.351   1.900  0.0000  0.0000  0.0000
    1GR    C416  416   3.332   1.351   1.900  0.0000  0.0000  0.0000
    1GR    C417  417   2.978   1.474   1.900  0.0000  0.0000  0.0000
    1GR    C418  418   3.120   1.474   1.900  0.0000  0.0000  0.0000
    1GR    C419  419   3.191   1.596   1.900  0.0000  0.0000  0.0000
    1GR    C420  420   3.332   1.596   1.900  0.0000  0.0000  0.0000
    1GR    C421  421   2.978   1.719   1.900  0.0000  0.0000  0.0000
    1GR    C422  422   3.120   1.719   1.900  0.0000  0.0000  0.0000
    1GR    C423  423   3.191   1.842   1.900  0.0000  0.0000  0.0000
    1GR    C424  424   3.332   1.842   1.900  0.0000  0.0000  0.0000
    1GR    C425  425   2.978   1.965   1.900  0.0000  0.0000  0.0000
    1GR    C426  426   3.120   1.965   1.900  0.0000  0.0000  0.0000
    1GR    C427  427   3.191   2.088   1.900  0.0000  0.0000  0.0000
    1GR    C428  428   3.332   2.088   1.900  0.0000  0.0000  0.0000
    1GR    C429  429   2.978   2.210   1.900  0.0000  0.0000  0.0000
    1GR    C430  430   3.120   2.210   1.900  0.0000  0.0000  0.0000
    1GR    C431  431   3.191   2.333   1.900  0.0000  0.0000  0.0000
    1GR    C432  432   3.332   2.333   1.900  0.0000  0.0000  0.0000
    1GR    C433  433   2.978   2.456   1.900  0.0000  0.0000  0.0000
    1GR    C434  434   3.120   2.456   1.900  0.0000  0.0000  0.0000
    1GR    C435  435   3.191   2.579   1.900  0.0000  0.0000  0.0000
    1GR    C436  436   3.332   2.579   1.900  0.0000  0.0000  0.0000
    1GR    C437  437   2.978   2.702   1.900  0.0000  0.0000  0.0000
    1GR    C438  438   3.120   2.702   1.900  0.0000  0.0000  0.0000
    1GR    C439  439   3.191   2.824   1.900  0.0000  0.0000  0.0000
    1GR    C440  440   3.332   2.824   1.900  0.0000  0.0000  0.0000
    1GR    C441  441   2.978   2.947   1.900  0.0000  0.0000  0.0000
    1GR    C442  442   3.120   2.947   1.900  0.0000  0.0000  0.0000
    1GR    C443  443   3.191   3.070   1.900  0.0000  0.0000  0.0000
    1GR    C444  444   3.332   3.070   1.900  0.0000  0.0000  0.0000
    1GR    C445  445   2.978   3.193   1.900  0.0000  0.0000  0.0000
    1GR    C446  446   3.120   3.193   1.900  0.0000  0.0000  0.0000
    1GR    C447  447   3.191   3.316   1.900  0.0000  0.0000  0.0000
    1GR    C448  448   3.332   3.316   1.900  0.0000  0.0000  0.0000
    2PMMA   CX1  449   0.918   0.327   2.418  0.4736 -0.3760 -0.0659
    2PMMA   CA2  450   1.028   0.434   2.402  0.0950  0.1851 -0.3770
    2PMMA   CX3  451   1.108   0.401   2.268  0.1298 -0.6823 -0.2219
    2PMMA    C4  452   0.941   0.566   2.399  0.0065  0.3391 -0.4337
    2PMMA    O5  453   0.903   0.614   2.503  0.8091  0.4286 -0.9634
    2PMMA   OS6  454   0.937   0.631   2.280 -0.1443 -0.8777  0.2370
    2PMMA   CE7  455   0.878   0.761   2.259  0.9718 -0.5712 -0.3709
    2PMMA   CX8  456   1.121   0.435   2.532  0.8117  0.7830 -0.1205
    2PMMA   CA9  457   1.254   0.520   2.543  0.4739 -0.6535  0.3013
    2PMMA  CX10  458   1.367   0.459   2.458  0.0112 -0.4400  0.1026
    2PMMA   C11  459   1.287   0.492   2.694 -0.2198 -0.5336  0.5504
    2PMMA   O12  460   1.362   0.404   2.728 -0.6033 -0.1448  0.2271
    2PMMA  OS13  461   1.223   0.578   2.775 -0.1754 -0.3394  0.0158
    2PMMA  CE14  462   1.221   0.554   2.913 -0.0325  0.1821 -0.6613
    2PMMA  CX15  463   1.228   0.671   2.515  0.5793 -0.2983 -0.9962
    2PMMA  CA16  464   1.343   0.779   2.527 -0.8988 -0.6292  0.1483
    2PMMA  CX17  465   1.264   0.917   2.523 -0.4019  0.3745  0.2493
    2PMMA   C18  466   1.429   0.764   2.654 -0.6294 -0.1014  0.3304
    2PMMA   O19  467   1.417   0.832   2.752 -0.1499 -0.1154 -0.4057
    2PMMA  OS20  468   1.518   0.665   2.644  0.2947 -0.5642  0.3512
    2PMMA  CE21  469   1.612   0.641   2.745 -0.0503  0.4087  0.1777
    2PMMA  CX22  470   1.446   0.786   2.410  0.1951  0.7045  0.2605
    2PMMA  CA23  471   1.549   0.895   2.376 -0.3180 -0.2325 -0.1327
    2PMMA  CX24  472   1.639   0.928   2.497  0.2277  0.8856 -0.2263
    2PMMA   C25  473   1.494   1.026   2.316 -0.1481  0.7057 -0.3051
    2PMMA   O26  474   1.385   1.046   2.266 -0.2679 -0.0869  0.8092
    2PMMA  OS27  475   1.586   1.128   2.323  0.4247  0.3454 -0.4440
    2PMMA  CE28  476   1.578   1.245   2.244  0.1684 -0.0293 -0.4978
    2PMMA  CX29  477   1.637   0.855   2.258  0.2206  0.4141 -0.2195
    2PMMA  HC30  478   0.858   0.342   2.508 -2.8792  1.4099 -2.5058
    2PMMA  HC31  479   0.850   0.335   2.332  0.1500 -2.0381  0.0108
    2PMMA  HC32  480   0.959   0.225   2.416 -1.5640 -1.2088 -1.0489
    2PMMA  HC33  481   1.166   0.484   2.224  0.8125 -0.3848  1.2096
    2PMMA  HC34  482   1.041   0.365   2.189 -2.0203  2.7570 -0.0931
    2PMMA  HC35  483   1.176   0.318   2.288  1.5590 -0.1990 -2.8101
    2PMMA  H136  484   0.772   0.767   2.285  1.8717  1.2930  3.0789
    2PMMA  H137  485   0.895   0.785   2.154 -1.4118  1.2483 -0.3801
    2PMMA  H138  486   0.936   0.828   2.322  1.4253 -0.1492 -1.2227
    2PMMA  HC39  487   1.060   0.463   2.619 -0.0602  1.3662 -0.9130
    2PMMA  HC40  488   1.144   0.330   2.551  0.3390  0.9637  1.5607
    2PMMA  HC41  489   1.378   0.350   2.455  2.6403 -0.2400  1.3325
    2PMMA  HC42  490   1.362   0.491   2.353  0.4526 -0.7906 -0.0304
    2PMMA  HC43  491   1.468   0.483   2.493 -0.3332  0.8122  0.2878
    2PMMA  H144  492   1.321   0.552   2.957  0.4392 -4.2389 -1.6868
    2PMMA  H145  493   1.180   0.453   2.916 -0.6127  0.3614 -1.9944
    2PMMA  H146  494   1.161   0.627   2.968 -0.8748 -0.0421 -1.2652
    2PMMA  HC47  495   1.186   0.673   2.414 -0.2056 -2.9195 -0.7463
    2PMMA  HC48  496   1.147   0.693   2.585 -0.4258  0.2153 -2.2945
    2PMMA  HC49  497   1.217   0.942   2.427  0.9630  1.6253 -0.1275
    2PMMA  HC50  498   1.333   1.001   2.537 -0.4482  0.9708 -2.7759
    2PMMA  HC51  499   1.186   0.919   2.599 -0.2750 -0.9943  0.4356
    2PMMA  H152  500   1.567   0.610   2.840 -0.7062 -1.8611 -0.8488
    2PMMA  H153  501   1.669   0.731   2.768 -1.0517  1.1671 -0.2661
    2PMMA  H154  502   1.676   0.557   2.715 -0.6242  0.0666 -0.0846
    2PMMA  HC55  503   1.503   0.693   2.408 -0.0600  0.5438  0.4852
    2PMMA  HC56  504   1.389   0.784   2.317  2.8963  1.1334 -1.4405
    2PMMA  HC57  505   1.669   0.832   2.541 -2.9870 -1.0759 -2.1454
    2PMMA  HC58  506   1.734   0.975   2.471  1.5334 -2.2088 -1.3295
    2PMMA  HC59  507   1.595   0.978   2.584  0.8319  0.5541  0.2754
    2PMMA  H160  508   1.534   1.220   2.147  1.1745  1.5746 -1.3994
    2PMMA  H161  509   1.677   1.292   2.233 -0.8117  1.8012 -1.7590
    2PMMA  H162  510   1.513   1.316   2.295 -0.1368  0.6911 -1.8637
    2PMMA  HC63  511   1.728   0.915   2.249  1.5940 -1.4712  0.7426
    2PMMA  HC64  512   1.681   0.759   2.287  0.4334  0.6165  0.1327
    2PMMA  HC65  513   1.575   0.836   2.170 -1.1259  0.7580  0.6357
    3HFI     O1  514   1.929   2.872   3.730  0.7555 -0.5476 -0.5087
    3HFI     C1  515   1.786   2.890   3.710 -0.1471 -0.3332  0.4342
    3HFI     C2  516   1.744   3.036   3.735  0.6343  0.7179  0.0764
    3HFI     F1  517   1.612   3.055   3.723 -0.4192  0.1963  0.2830
    3HFI     F2  518   1.797   3.120   3.649 -0.0546  0.3762 -0.0987
    3HFI     F3  519   1.772   3.071   3.866 -0.3301  0.2769 -0.2543
    3HFI     C3  520   1.709   2.779   3.786  0.4259  0.1822 -1.0867
    3HFI     F4  521   1.593   2.749   3.720  0.2526 -0.1115 -0.5513
    3HFI     F5  522   1.676   2.810   3.914  0.1842  0.3043 -0.6026
    3HFI     F6  523   1.789   2.668   3.795 -0.6318 -0.2253  0.4503
    3HFI     H1  524   1.947   2.780   3.756  2.0441  0.5820  2.7928
    3HFI     H2  525   1.770   2.870   3.603  1.4332  1.3364 -0.1339
    4HFI     O1  526   0.284   1.623   3.706 -0.1610  0.2964 -0.4634
    4HFI     C1  527   0.157   1.552   3.742 -0.3551 -0.8404 -0.3278
    4HFI     C2  528   0.031   1.633   3.717  0.2876  0.1302  0.0955
    4HFI     F1  529   0.037   1.680   3.589  0.4830  0.2771  0.0060
    4HFI     F2  530   0.024   1.735   3.798 -0.4076 -0.3689 -0.0908
    4HFI     F3  531  -0.086   1.558   3.713  0.3616  0.3378  0.3780
    4HFI     C3  532   0.158   1.490   3.879  0.7852 -0.6838  0.5396
    4HFI     F4  533   0.194   1.584   3.968 -0.1892 -0.5475  0.7319
    4HFI     F5  534   0.247   1.386   3.881 -0.0214  0.3967  0.3613
    4HFI     F6  535   0.030   1.442   3.907 -0.5501  0.4637 -0.2243
    4HFI     H1  536   0.297   1.697   3.768  1.6212  0.0592 -0.5198
    4HFI     H2  537   0.139   1.470   3.670 -2.0978  0.3161 -1.2585
    5HFI     O1  538   1.678   0.831   0.176 -0.5252  0.2675  0.0323
    5HFI     C1  539   1.778   0.878   0.265 -0.2647  0.1178  0.7944
    5HFI     C2  540   1.791   0.796   0.397 -0.3511  0.2211  0.4296
    5HFI     F1  541   1.916   0.803   0.456 -0.6359  0.2344 -0.1134
    5HFI     F2  542   1.777   0.669   0.365 -0.2050  0.0896 -0.2213
    5HFI     F3  543   1.707   0.833   0.496 -0.2891  0.3003 -0.3170
    5HFI     C3  544   1.774   1.028   0.284  0.2632 -0.4123 -0.0894
    5HFI     F4  545   1.800   1.092   0.168 -0.0549 -0.1509 -0.2097
    5HFI     F5  546   1.862   1.067   0.377 -0.3879  0.4496 -0.1299
    5HFI     F6  547   1.654   1.067   0.320  0.3697 -0.0076 -0.4182
    5HFI     H1  548   1.693   0.740   0.145  2.4053  1.7336 -3.3233
    5HFI     H2  549   1.876   0.871   0.217  0.0897  0.4486  1.4615
    6HFI     O1  550   2.837   0.815   0.846  0.1975 -0.3410 -0.1597
    6HFI     C1  551   2.964   0.760   0.824 -0.8434 -0.5483 -0.1646
    6HFI     C2  552   3.065   0.811   0.937  0.4545 -0.2613  0.2766
    6HFI     F1  553   3.095   0.941   0.925  0.0453 -0.2533 -0.2948
    6HFI     F2  554   3.183   0.745   0.923 -0.3353 -0.6288 -0.0230
    6HFI     F3  555   3.029   0.792   1.065  0.0990  0.0483 -0.3985
    6HFI     C3  556   3.020   0.780   0.674  1.1976 -0.1504  0.5900
    6HFI     F4  557   3.051   0.914   0.648 -0.2883  0.1951 -0.5522
    6HFI     F5  558   2.929   0.732   0.583  0.4018 -0.1983 -0.3952
    6HFI     F6  559   3.132   0.712   0.655 -0.3408  0.4216 -0.1907
    6HFI     H1  560   2.774   0.780   0.780 -0.6153  0.3949  0.2159
    6HFI     H2  561   2.957   0.655   0.854 -3.4145  0.2509  2.3103
    7HFI     O1  562   0.284   2.419   0.227  0.2934 -0.0128 -0.7064
    7HFI     C1  563   0.191   2.392   0.334 -0.0111 -0.0322 -0.0532
    7HFI     C2  564   0.166   2.527   0.407 -0.5452 -0.1295 -0.1071
    7HFI     F1  565   0.117   2.609   0.310  0.1043 -0.2579 -0.3373
    7HFI     F2  566   0.278   2.586   0.469 -0.6189 -0.1010  0.1852
    7HFI     F3  567   0.071   2.505   0.504 -0.3179  0.1213 -0.2684
    7HFI     C3  568   0.237   2.282   0.440 -0.7610 -0.1094 -0.4328
    7HFI     F4  569   0.154   2.266   0.543 -0.7478  0.0845  0.1456
    7HFI     F5  570   0.362   2.320   0.489  0.2521 -0.2676 -0.1371
    7HFI     F6  571   0.259   2.155   0.397 -0.6027 -0.5116  0.4718
    7HFI     H1  572   0.357   2.355   0.233 -0.7537 -1.1824 -0.1745
    7HFI     H2  573   0.092   2.365   0.296 -0.1581  1.7416 -0.9734
    8HFI     O1  574   3.343   1.958   0.880  0.0738  0.3001  0.5331
    8HFI     C1  575   3.216   2.001   0.928  0.2744 -0.9261 -0.2521
    8HFI     C2  576   3.225   2.153   0.976  0.3416  0.3216 -0.2184
    8HFI     F1  577   3.270   2.170   1.101  0.0876 -0.0277  0.4692
    8HFI     F2  578   3.103   2.208   0.968 -0.2662  0.2602  0.3595
    8HFI     F3  579   3.311   2.226   0.903  0.0899  0.0646 -0.8078
    8HFI     C3  580   3.155   1.908   1.028  0.0630  0.4758 -0.0107
    8HFI     F4  581   3.065   1.980   1.104 -0.3732  0.4103 -0.2648
    8HFI     F5  582   3.246   1.857   1.111 -0.1050  0.1289  0.1087
    8HFI     F6  583   3.088   1.804   0.976  0.2753  0.2528  0.3968
    8HFI     H1  584   3.398   1.949   0.960  2.1803  0.6350 -0.8522
    8HFI     H2  585   3.141   2.007   0.848  0.0351 -2.3184 -0.1419
    9HFI     O1  586   1.708   0.267   1.423  0.4091  0.0037  1.0579
    9HFI     C1  587   1.731   0.128   1.398  0.1486  0.3641 -0.4723
    9HFI     C2  588   1.632   0.068   1.305  1.0383  0.3030  0.2467
    9HFI     F1  589   1.630   0.127   1.183  0.5804  0.1044 -0.0337
    9HFI     F2  590   1.508   0.075   1.363 -0.0045 -0.5861 -0.4768
    9HFI     F3  591   1.656  -0.055   1.285  0.2465 -0.4199  0.6665
    9HFI     C3  592   1.748   0.056   1.530  0.0604  0.5775 -0.0304
    9HFI     F4  593   1.859   0.110   1.589 -0.2563 -0.2249 -0.1345
    9HFI     F5  594   1.766  -0.077   1.520  0.0438  0.3727  0.3393
    9HFI     F6  595   1.640   0.082   1.607  0.0464 -0.4457 -0.0733
    9HFI     H1  596   1.621   0.292   1.389  0.4291 -0.0504  0.9686
    9HFI     H2  597   1.829   0.116   1.350 -1.4532 -2.6553 -3.1407
   10HFI     O1  598   3.269   2.623   3.676  0.1654 -0.0049 -0.1748
   10HFI     C1  599   3.367   2.558   3.767  0.2950  0.1688  0.4871
   10HFI     C2  600   3.517   2.598   3.716 -0.3388  0.3295  0.1682
   10HFI     F1  601   3.540   2.727   3.744  0.2017  0.3640 -0.6956
   10HFI     F2  602   3.528   2.588   3.580  0.2158  0.0807 -0.1055
   10HFI     F3  603   3.619   2.520   3.765  0.1169 -0.3127 -0.8093
   10HFI     C3  604   3.342   2.403   3.772  0.9427  0.6127 -0.1884
   10HFI     F4  605   3.208   2.372   3.783 -0.4514  0.3962  0.3864
   10HFI     F5  606   3.406   2.357   3.883  0.3714  0.0447  0.3346
   10HFI     F6  607   3.386   2.340   3.655  0.0778  0.3330  0.0434
   10HFI     H1  608   3.295   2.597   3.586  0.0611  0.8112 -0.4452
   10HFI     H2  609   3.360   2.591   3.872  2.1868  0.3695  0.5790
   11HFI     O1  610   0.772   0.370   0.661 -0.2267 -0.0020  0.1966
   11HFI     C1  611   0.836   0.406   0.534 -0.1680 -0.0140  0.0839
   11HFI     C2  612   0.747   0.383   0.414 -0.3434 -0.1042  0.1971
   11HFI     F1  613   0.635   0.464   0.400 -0.5281  0.0220 -0.1323
   11HFI     F2  614   0.696   0.259   0.411  0.3779 -0.2412 -0.4511
   11HFI     F3  615   0.813   0.387   0.295 -0.4891 -0.1327 -0.1398
   11HFI     C3  616   0.982   0.342   0.514 -0.5022 -0.4375 -0.1077
   11HFI     F4  617   1.039   0.384   0.399  0.7159 -0.1749 -0.0227
   11HFI     F5  618   0.976   0.208   0.507  0.0373  0.2393  0.0068
   11HFI     F6  619   1.064   0.370   0.616 -0.4187 -0.2045 -0.4795
   11HFI     H1  620   0.835   0.318   0.714 -0.7082  0.2290  0.9875
   11HFI     H2  621   0.869   0.510   0.535 -0.0715 -0.0382 -0.3481
   12HFI     O1  622   1.405   1.605   0.836 -0.1324  0.0740 -0.6028
   12HFI     C1  623   1.333   1.608   0.958  0.0315 -0.1366  0.0773
   12HFI     C2  624   1.211   1.510   0.958 -0.1353 -0.4152  0.1802
   12HFI     F1  625   1.175   1.483   1.087  0.4106 -0.2325  0.5326
   12HFI     F2  626   1.253   1.398   0.897  0.0251 -0.1379 -0.4446
   12HFI     F3  627   1.101   1.557   0.892 -0.0805 -0.5865 -0.0187
   12HFI     C3  628   1.294   1.765   0.992  0.1966  0.3813 -0.2747
   12HFI     F4  629   1.251   1.841   0.883  0.4497  0.2843 -0.0578
   12HFI     F5  630   1.405   1.822   1.028 -0.5118  0.0159  0.1669
   12HFI     F6  631   1.198   1.758   1.094 -0.5212 -0.1884  0.0127
   12HFI     H1  632   1.420   1.515   0.803  0.1891 -0.9989  2.3188
   12HFI     H2  633   1.388   1.578   1.048  1.1550  0.9261 -0.2373
   13HFI     O1  634   2.036   0.040   0.785  0.9371  0.4257 -0.2001
   13HFI     C1  635   1.936  -0.052   0.842  0.1698  0.6969  0.1562
   13HFI     C2  636   1.789   0.001   0.840  0.4963  0.7871 -0.0540
   13HFI     F1  637   1.750   0.006   0.712 -0.2811  0.3102  0.2161
   13HFI     F2  638   1.774   0.124   0.889 -0.0161 -0.0641 -0.2665
   13HFI     F3  639   1.699  -0.081   0.899  0.1200  0.5534  0.6120
   13HFI     C3  640   1.973  -0.085   0.991 -0.4196 -0.0345 -0.3344
   13HFI     F4  641   1.884  -0.152   1.074 -0.2760 -0.1775  0.2471
   13HFI     F5  642   1.999   0.033   1.052 -0.7568 -0.2746 -0.2178
   13HFI     F6  643   2.090  -0.154   0.989 -0.3940  0.1820 -0.0150
   13HFI     H1  644   2.115  -0.008   0.754  0.9062  1.2506 -1.5906
   13HFI     H2  645   1.933  -0.150   0.793  1.3827  0.8780 -0.2818
   14HFI     O1  646   2.415   0.683   0.524  0.1639 -0.3380  0.0503
   14HFI     C1  647   2.475   0.542   0.534  0.5370  0.2691  0.0962
   14HFI     C2  648   2.627   0.552   0.544 -0.5967  0.5036 -0.0239
   14HFI     F1  649   2.686   0.433   0.496  0.4735 -0.1629  0.2218
   14HFI     F2  650   2.669   0.577   0.673  0.2653  0.1366 -0.0569
   14HFI     F3  651   2.673   0.657   0.469  0.0302 -0.0498  0.0068
   14HFI     C3  652   2.421   0.442   0.418  0.1450 -0.3252 -0.5113
   14HFI     F4  653   2.455   0.474   0.296 -0.3899 -0.6041 -0.4389
   14HFI     F5  654   2.285   0.444   0.422 -0.0149 -0.1580  0.0608
   14HFI     F6  655   2.450   0.310   0.444  0.3099  0.0367 -0.0426
   14HFI     H1  656   2.321   0.685   0.549  0.6152 -0.2407  1.8341
   14HFI     H2  657   2.442   0.489   0.624 -1.4003  1.6481  0.2488
   15HFI     O1  658   0.247   3.367   1.317 -0.0636 -0.2950  0.3631
   15HFI     C1  659   0.205   3.284   1.437  0.3093  0.0755  0.0214
   15HFI     C2  660   0.072   3.337   1.502 -0.1423 -0.1350  0.3187
   15HFI     F1  661  -0.022   3.334   1.412 -0.2123 -0.7342  0.7566
   15HFI     F2  662   0.084   3.464   1.535 -0.3712 -0.0748 -0.3131
   15HFI     F3  663   0.026   3.259   1.601 -0.1448 -0.4039  0.3340
   15HFI     C3  664   0.330   3.266   1.540  0.6249 -0.2729  0.7626
   15HFI     F4  665   0.293   3.177   1.634 -0.0228 -0.4944 -0.2276
   15HFI     F5  666   0.352   3.382   1.596  0.5076  0.1745  0.0608
   15HFI     F6  667   0.438   3.223   1.476  0.0212  0.6570  0.1354
   15HFI     H1  668   0.265   3.458   1.345 -1.4842  0.7476 -1.9891
   15HFI     H2  669   0.182   3.182   1.405  2.5829  0.1596 -2.0774
   16HFI     O1  670   0.745   2.728   0.542  0.4854  0.2931  0.0017
   16HFI     C1  671   0.799   2.607   0.600  0.0771 -0.2512 -1.0828
   16HFI     C2  672   0.951   2.617   0.638  0.8292 -0.0447 -0.1466
   16HFI     F1  673   1.024   2.630   0.529  0.0233  0.1750  0.2468
   16HFI     F2  674   0.994   2.514   0.710  0.4774  0.3748 -0.0728
   16HFI     F3  675   0.981   2.724   0.714  0.1806  0.2519  0.1149
   16HFI     C3  676   0.770   2.486   0.507 -0.3206  0.0710  0.3091
   16HFI     F4  677   0.816   2.506   0.382 -0.2331  0.1327  0.0291
   16HFI     F5  678   0.633   2.463   0.490  0.2429 -0.0201  0.2712
   16HFI     F6  679   0.830   2.371   0.547  0.1689 -0.2741  0.1400
   16HFI     H1  680   0.813   2.757   0.478  0.1934  1.8170  0.3438
   16HFI     H2  681   0.749   2.592   0.696 -2.1659  1.1155 -1.9904
   17HFI     O1  682   2.783   1.750   1.325  0.1480 -0.2344 -0.0933
   17HFI     C1  683   2.809   1.891   1.343 -0.1585  0.6058  0.1950
   17HFI     C2  684   2.937   1.908   1.420  0.0047  0.1064  0.3895
   17HFI     F1  685   2.931   1.867   1.551  0.4064  0.0475  0.5296
   17HFI     F2  686   2.962   2.040   1.425 -0.5173 -0.3826  0.5788
   17HFI     F3  687   3.041   1.844   1.364  0.2915 -0.0122 -0.0835
   17HFI     C3  688   2.682   1.968   1.395  0.3865  0.4573  1.0469
   17HFI     F4  689   2.661   1.940   1.521  0.3583  0.2127 -0.0914
   17HFI     F5  690   2.580   1.912   1.336  0.2517  0.2045 -0.1247
   17HFI     F6  691   2.683   2.097   1.368  0.6087 -0.1740  0.1529
   17HFI     H1  692   2.689   1.736   1.346  0.0040  0.9593  0.0755
   17HFI     H2  693   2.846   1.939   1.252 -1.5438  0.7477 -0.3102
   18HFI     O1  694   1.312   0.775   3.752  0.2718  0.0687 -0.9645
   18HFI     C1  695   1.362   0.863   3.649 -0.0960  0.3795  0.2783
   18HFI     C2  696   1.487   0.795   3.579  0.4601 -0.0762 -1.1104
   18HFI     F1  697   1.592   0.786   3.668 -0.0613 -0.2972  0.2480
   18HFI     F2  698   1.533   0.861   3.470  0.1180  0.1513 -0.6289
   18HFI     F3  699   1.453   0.676   3.536 -0.2391 -0.5688 -0.4135
   18HFI     C3  700   1.391   1.009   3.705  0.2896  0.3667 -0.1465
   18HFI     F4  701   1.483   1.006   3.803  0.1379 -0.0469  0.1815
   18HFI     F5  702   1.275   1.055   3.753 -0.3198 -0.5900  0.3705
   18HFI     F6  703   1.432   1.099   3.608  0.1388 -0.1880  0.0103
   18HFI     H1  704   1.310   0.824   3.836 -0.5676 -1.0927 -0.2958
   18HFI     H2  705   1.291   0.875   3.566 -0.8155  0.2284  0.8666
   19HFI     O1  706   2.235   2.537   0.469  0.0013  0.3512  0.3196
   19HFI     C1  707   2.093   2.543   0.432  0.2652 -0.0511  0.5201
   19HFI     C2  708   2.017   2.402   0.436 -0.2597 -0.1685 -0.1229
   19HFI     F1  709   2.033   2.358   0.559 -0.3287  0.0475 -0.0015
   19HFI     F2  710   2.074   2.310   0.360  0.1074 -0.3051  0.5140
   19HFI     F3  711   1.884   2.404   0.413 -0.6857  0.0676 -0.2025
   19HFI     C3  712   2.066   2.619   0.295  0.4896  0.3896 -0.3197
   19HFI     F4  713   2.132   2.736   0.285  0.0261 -0.3160 -0.3876
   19HFI     F5  714   1.938   2.641   0.286  0.1975  0.0385  0.2160
   19HFI     F6  715   2.108   2.548   0.186  0.0928  0.1928 -0.1131
   19HFI     H1  716   2.293   2.568   0.397  0.5748 -1.2395  0.0961
   19HFI     H2  717   2.052   2.603   0.514  1.2541  0.7293  0.4454
   20HFI     O1  718   1.195   3.122   1.360 -0.1025  0.8200 -0.3938
   20HFI     C1  719   1.320   3.185   1.410  0.8008 -0.0734 -0.0931
   20HFI     C2  720   1.429   3.077   1.435 -0.1940  0.5012  0.6446
   20HFI     F1  721   1.555   3.133   1.436  0.0738  0.1402 -0.3771
   20HFI     F2  722   1.440   2.979   1.341  0.0850 -0.3101 -0.1080
   20HFI     F3  723   1.416   3.019   1.554  0.3739 -0.4571  0.2166
   20HFI     C3  724   1.281   3.272   1.530  0.0247 -0.5250  0.0199
   20HFI     F4  725   1.396   3.311   1.593  0.1122  0.2118 -0.2876
   20HFI     F5  726   1.193   3.219   1.617  0.0603  0.0354 -0.0609
   20HFI     F6  727   1.226   3.386   1.489 -0.1888  0.2284  0.1835
   20HFI     H1  728   1.214   3.045   1.304  1.8198  0.6342  0.4760
   20HFI     H2  729   1.357   3.257   1.336  4.0184 -0.6844  0.8174
   21HFI     O1  730   1.733   1.401   3.759 -0.1557  0.3524  0.0564
   21HFI     C1  731   1.792   1.525   3.709 -0.0422  0.1600 -0.0384
   21HFI     C2  732   1.904   1.587   3.809  0.4982 -0.1083 -0.3662
   21HFI     F1  733   2.011   1.506   3.809  0.0600  0.0611  0.6980
   21HFI     F2  734   1.863   1.603   3.935 -0.4322 -0.2731 -0.3452
   21HFI     F3  735   1.949   1.709   3.775 -0.5374 -0.2768  0.1380
   21HFI     C3  736   1.680   1.635   3.687  1.0570  0.0728  0.3056
   21HFI     F4  737   1.562   1.589   3.640  0.2282  0.4710  0.2062
   21HFI     F5  738   1.717   1.735   3.603 -0.0942 -0.0336  0.8886
   21HFI     F6  739   1.648   1.693   3.809  0.3743  0.0335  0.2905
   21HFI     H1  740   1.707   1.414   3.851 -3.3010 -0.5620 -0.6340
   21HFI     H2  741   1.839   1.502   3.613  1.7007  0.6760  0.6747
   22HFI     O1  742   2.477   1.744   3.687 -0.0337  0.1978 -0.5927
   22HFI     C1  743   2.357   1.814   3.739 -0.0425 -0.0667  0.3423
   22HFI     C2  744   2.257   1.852   3.624 -0.0276  0.0203 -0.2891
   22HFI     F1  745   2.149   1.909   3.678  0.2210 -0.3710 -0.3575
   22HFI     F2  746   2.218   1.742   3.553  0.3113 -0.0098  0.1085
   22HFI     F3  747   2.304   1.933   3.533 -0.6311  0.0054  0.1333
   22HFI     C3  748   2.397   1.929   3.825 -0.6537  0.6384  0.0982
   22HFI     F4  749   2.292   1.990   3.872  0.4996 -0.2330 -0.3181
   22HFI     F5  750   2.478   2.009   3.752  0.2426 -0.5459  0.0606
   22HFI     F6  751   2.469   1.879   3.931  0.1586 -0.5704  0.1496
   22HFI     H1  752   2.555   1.780   3.734  0.7490 -0.9442 -1.0128
   22HFI     H2  753   2.295   1.762   3.813 -2.3420 -1.6285 -2.5530
   23HFI     O1  754   2.405   2.589   0.245 -0.5096  0.2219 -0.2552
   23HFI     C1  755   2.482   2.701   0.197 -0.3312 -0.3997  0.0562
   23HFI     C2  756   2.603   2.655   0.106  0.6715 -0.5167 -0.1543
   23HFI     F1  757   2.701   2.589   0.177  0.2656  0.5722  0.0537
   23HFI     F2  758   2.659   2.753   0.033 -0.1517 -0.8110  0.2329
   23HFI     F3  759   2.555   2.567   0.012  0.1704 -0.5336  0.6074
   23HFI     C3  760   2.516   2.799   0.312  0.3603 -0.3358 -0.1381
   23HFI     F4  761   2.410   2.810   0.403 -0.1879  0.2546  0.0989
   23HFI     F5  762   2.534   2.923   0.273  0.0998 -0.2292  0.0463
   23HFI     F6  763   2.625   2.764   0.389 -0.6265  0.0510  0.5374
   23HFI     H1  764   2.411   2.513   0.185 -2.3295 -0.4940  0.4599
   23HFI     H2  765   2.420   2.762   0.130 -0.3998  0.4882  0.9199
   24HFI     O1  766   3.324   0.924   1.282 -0.1211  0.1071 -0.1818
   24HFI     C1  767   3.377   0.979   1.411  0.2907 -0.0071 -0.1459
   24HFI     C2  768   3.476   0.880   1.480 -0.1267  0.0165  0.3677
   24HFI     F1  769   3.427   0.768   1.528  0.0927  0.3948  0.2077
   24HFI     F2  770   3.540   0.934   1.583  0.1407  0.1086 -0.0101
   24HFI     F3  771   3.572   0.834   1.384 -0.6020 -0.4978  0.3002
   24HFI     C3  772   3.265   1.035   1.510 -0.8504  0.0260  0.1184
   24HFI     F4  773   3.326   1.102   1.613  0.1114 -0.0893  0.0857
   24HFI     F5  774   3.195   0.932   1.558 -0.8121  0.5976  0.0754
   24HFI     F6  775   3.183   1.125   1.450  0.1736 -0.2261 -0.4704
   24HFI     H1  776   3.407   0.907   1.234 -0.2022 -0.9291  0.0239
   24HFI     H2  777   3.446   1.061   1.387  1.3776 -0.8118  0.1911
   25HFI     O1  778   2.171   2.207   0.977  0.4376  0.2135  0.2109
   25HFI     C1  779   2.297   2.286   0.980 -0.1662 -1.1034  0.1839
   25HFI     C2  780   2.318   2.370   0.856  0.0739 -0.1180  0.6895
   25HFI     F1  781   2.397   2.477   0.889  0.1267  0.3845  0.5023
   25HFI     F2  782   2.204   2.427   0.814 -0.2633 -0.7684  0.1461
   25HFI     F3  783   2.369   2.308   0.750  0.4437  0.6051  0.0253
   25HFI     C3  784   2.416   2.192   1.012 -0.2254 -0.0534 -0.3808
   25HFI     F4  785   2.427   2.159   1.144 -0.8025  0.0376  0.5562
   25HFI     F5  786   2.530   2.257   0.992  0.0917 -0.6531 -0.2320
   25HFI     F6  787   2.418   2.086   0.938 -0.3258  0.0743  0.2472
   25HFI     H1  788   2.159   2.160   0.892  2.0384  0.5529 -0.2122
   25HFI     H2  789   2.288   2.358   1.062  0.3055 -0.7066 -0.1087
   26HFI     O1  790   2.836   1.908   3.213 -0.4085  0.2054 -0.1390
   26HFI     C1  791   2.842   1.863   3.347 -0.0430  0.2911 -0.4258
   26HFI     C2  792   2.907   1.719   3.354 -0.6427 -0.0651  0.2327
   26HFI     F1  793   3.032   1.722   3.310 -0.0303  0.0519 -0.4422
   26HFI     F2  794   2.849   1.633   3.265 -0.0601 -0.2682  0.0897
   26HFI     F3  795   2.913   1.665   3.480 -0.0976  0.6729  0.4554
   26HFI     C3  796   2.702   1.868   3.416  0.5336 -0.2962  0.6788
   26HFI     F4  797   2.716   1.837   3.549  0.2098 -0.2462  0.4216
   26HFI     F5  798   2.638   1.771   3.359  0.0198  0.3453 -0.1493
   26HFI     F6  799   2.641   1.991   3.409  0.0652 -0.0935  0.6045
   26HFI     H1  800   2.751   1.870   3.184 -1.6703  2.9294 -0.1629
   26HFI     H2  801   2.908   1.926   3.408  0.4138  0.0336 -0.6537
   27HFI     O1  802   2.645   1.579   0.781 -0.2746  0.1320 -0.1815
   27HFI     C1  803   2.745   1.661   0.867  0.3179  0.3437  0.0253
   27HFI     C2  804   2.751   1.591   1.012 -0.0500 -0.5291  0.0176
   27HFI     F1  805   2.772   1.462   1.005  0.5705 -0.0638 -0.6047
   27HFI     F2  806   2.648   1.623   1.090 -0.5446 -0.5996 -0.5342
   27HFI     F3  807   2.852   1.646   1.078 -0.0058 -0.0766  0.2730
   27HFI     C3  808   2.707   1.809   0.866  0.2057 -0.1489  0.2596
   27HFI     F4  809   2.818   1.880   0.901 -0.5609  0.1273 -0.0318
   27HFI     F5  810   2.604   1.837   0.951 -0.1709 -0.5642 -0.2597
   27HFI     F6  811   2.678   1.849   0.741 -0.3739 -0.4552  0.5885
   27HFI     H1  812   2.553   1.604   0.798 -0.7120 -1.2250 -0.4347
   27HFI     H2  813   2.844   1.645   0.822  0.4732 -2.5812  1.2508
   28HFI     O1  814   2.022   2.548   3.641 -0.3153  0.3674 -0.0307
   28HFI     C1  815   2.151   2.507   3.581  0.7544 -1.0588 -0.3746
   28HFI     C2  816   2.214   2.382   3.644 -0.1348  0.5192  0.1982
   28HFI     F1  817   2.250   2.399   3.777 -0.3027 -0.0493 -0.2945
   28HFI     F2  818   2.321   2.337   3.576 -0.7097 -0.1826  0.3934
   28HFI     F3  819   2.121   2.288   3.637  0.2170  0.2888 -0.9191
   28HFI     C3  820   2.253   2.631   3.586 -0.3305  0.0416 -0.4436
   28HFI     F4  821   2.301   2.657   3.709 -0.6147  0.1304  0.2532
   28HFI     F5  822   2.189   2.740   3.533  0.2467  0.1233 -0.4165
   28HFI     F6  823   2.357   2.614   3.505 -0.9392  0.1299 -0.0596
   28HFI     H1  824   1.961   2.472   3.650  0.7036 -0.5678 -0.8627
   28HFI     H2  825   2.125   2.479   3.478 -1.2390  2.8403 -1.0043
   29HFI     O1  826   2.007   0.556   1.530  0.4241  1.0711 -0.1629
   29HFI     C1  827   1.909   0.524   1.427 -0.0015  0.1377 -0.6524
   29HFI     C2  828   1.959   0.554   1.279  0.8316 -0.7682  0.1753
   29HFI     F1  829   1.868   0.509   1.202  0.1336 -0.1343 -0.0159
   29HFI     F2  830   2.076   0.490   1.254  0.0937 -0.4727  0.1622
   29HFI     F3  831   1.974   0.689   1.252  0.2683  0.1985 -0.2059
   29HFI     C3  832   1.774   0.591   1.467 -0.2672 -1.2995  0.2650
   29HFI     F4  833   1.741   0.579   1.595 -0.0472  0.0507  0.5048
   29HFI     F5  834   1.666   0.554   1.388  0.2317 -0.6491 -0.3013
   29HFI     F6  835   1.797   0.722   1.442  0.0271 -0.1441 -0.1506
   29HFI     H1  836   2.004   0.646   1.567 -1.2951  0.8874  0.1849
   29HFI     H2  837   1.898   0.415   1.433 -2.1481  0.3330 -0.7225
   30HFI     O1  838   2.841   0.532   3.729 -0.1789  0.8038  0.3837
   30HFI     C1  839   2.760   0.418   3.767 -0.0568  0.3619 -0.0443
   30HFI     C2  840   2.764   0.385   3.919 -0.7736 -0.0601  0.2362
   30HFI     F1  841   2.748   0.495   3.993  0.3589 -0.0570  0.1663
   30HFI     F2  842   2.878   0.321   3.959  0.0931  0.4615  0.0450
   30HFI     F3  843   2.661   0.307   3.950  0.2297  0.5592  0.3610
   30HFI     C3  844   2.788   0.294   3.683 -0.5459  0.0033 -0.3392
   30HFI     F4  845   2.783   0.333   3.555  0.2705 -0.0562 -0.1234
   30HFI     F5  846   2.699   0.191   3.692  0.0318  0.0488 -0.1571
   30HFI     F6  847   2.911   0.239   3.701 -0.0163  0.3058 -0.1254
   30HFI     H1  848   2.870   0.582   3.807  3.0284 -0.3023 -0.0245
   30HFI     H2  849   2.656   0.446   3.747 -0.7973 -1.5868  0.9828
   31HFI     O1  850   2.979   2.009   0.146 -0.2816 -0.1899 -0.5922
   31HFI     C1  851   2.929   1.914   0.048  0.0533  0.3218  0.6851
   31HFI     C2  852   2.863   1.791   0.113 -0.5065  0.0895  0.4135
   31HFI     F1  853   2.793   1.727   0.025  0.1140 -0.3469 -0.4814
   31HFI     F2  854   2.774   1.839   0.202 -0.2109  0.0757  0.2879
   31HFI     F3  855   2.949   1.715   0.174  0.0089  0.7211  0.0596
   31HFI     C3  856   3.043   1.882  -0.056  0.5854 -0.2604  0.1894
   31HFI     F4  857   3.048   1.758  -0.109  0.4306 -0.6488 -0.5439
   31HFI     F5  858   3.164   1.907  -0.002 -0.2738 -0.6006 -0.1729
   31HFI     F6  859   3.021   1.966  -0.166  0.0221 -0.0394  0.0318
   31HFI     H1  860   3.074   2.023   0.132 -0.0055  0.6121  1.7568
   31HFI     H2  861   2.849   1.961  -0.011 -0.4956  0.1918  1.3304
   32HFI     O1  862   0.492   0.338   1.285  0.1008  0.5713 -0.0583
   32HFI     C1  863   0.429   0.397   1.401  0.0314 -0.5923  0.3163
   32HFI     C2  864   0.522   0.509   1.449  0.2529  0.0515  0.0297
   32HFI     F1  865   0.512   0.611   1.360 -0.8162  0.0193  0.2503
   32HFI     F2  866   0.658   0.476   1.445  0.2161 -0.2968 -0.2562
   32HFI     F3  867   0.487   0.554   1.577 -0.5803 -0.1027 -0.3353
   32HFI     C3  868   0.401   0.291   1.506  0.1278 -0.8143  0.1181
   32HFI     F4  869   0.319   0.344   1.605  0.0279  0.2249 -0.0967
   32HFI     F5  870   0.513   0.246   1.567  0.1451  0.4007  0.3082
   32HFI     F6  871   0.343   0.178   1.452  0.4268 -0.3164 -0.0852
   32HFI     H1  872   0.560   0.281   1.324 -1.7316  0.1083  2.6140
   32HFI     H2  873   0.333   0.432   1.362  0.9300 -0.3083 -1.6916
   33HFI     O1  874   2.191   1.503   0.797 -0.0901 -0.0179  0.1403
   33HFI     C1  875   2.172   1.612   0.889 -0.0308 -0.6659  0.0551
   33HFI     C2  876   2.296   1.696   0.905 -0.3500 -0.1186 -0.4987
   33HFI     F1  877   2.339   1.736   0.781 -0.4799  0.0213 -0.3054
   33HFI     F2  878   2.392   1.624   0.961  0.2616  0.2691 -0.2335
   33HFI     F3  879   2.286   1.807   0.974  0.7754  0.0345 -0.5639
   33HFI     C3  880   2.114   1.564   1.033  0.7796  0.5492 -0.3400
   33HFI     F4  881   2.091   1.675   1.108 -0.0681 -0.6572 -0.0721
   33HFI     F5  882   2.202   1.486   1.096  0.4633  0.4270  0.6527
   33HFI     F6  883   2.003   1.498   1.009  0.2058  0.4402  0.2896
   33HFI     H1  884   2.210   1.420   0.843  2.7787 -0.0638 -1.0294
   33HFI     H2  885   2.090   1.672   0.850 -0.4729 -2.3297 -1.6234
   34HFI     O1  886   1.288   1.824   0.503 -0.3256 -0.2570 -0.1693
   34HFI     C1  887   1.358   1.957   0.483 -0.1023 -0.2186 -0.1606
   34HFI     C2  888   1.449   2.005   0.602  0.2884  0.7601 -0.0727
   34HFI     F1  889   1.383   2.034   0.717  0.2078  0.2877 -0.0971
   34HFI     F2  890   1.522   2.110   0.569  0.7804 -0.1911 -0.1198
   34HFI     F3  891   1.539   1.904   0.637 -0.3154  0.4051 -0.3894
   34HFI     C3  892   1.258   2.071   0.445  0.1910 -0.3063 -0.1513
   34HFI     F4  893   1.164   2.020   0.357  0.1182 -0.2662  0.0846
   34HFI     F5  894   1.324   2.170   0.378  0.1596 -0.0445  0.0174
   34HFI     F6  895   1.193   2.123   0.546 -0.3015  0.2835 -0.1711
   34HFI     H1  896   1.281   1.815   0.600 -1.3151 -2.3804 -0.4109
   34HFI     H2  897   1.432   1.952   0.402  0.4731 -0.1706  0.3594
   35HFI     O1  898   0.537   2.943   0.089 -0.3446  0.0048  0.5648
   35HFI     C1  899   0.637   2.841   0.044  0.3898 -0.9848 -0.4631
   35HFI     C2  900   0.600   2.764  -0.088 -0.5297  0.0030 -0.9565
   35HFI     F1  901   0.713   2.726  -0.148 -0.2678 -0.0734  0.0274
   35HFI     F2  902   0.534   2.846  -0.175  0.3022 -0.0449  0.1414
   35HFI     F3  903   0.526   2.657  -0.052  0.3750 -0.0514 -0.2449
   35HFI     C3  904   0.679   2.751   0.168 -0.4016  0.0070 -0.0571
   35HFI     F4  905   0.752   2.819   0.267 -0.0577  0.3257 -0.1348
   35HFI     F5  906   0.750   2.645   0.133  0.2558 -0.3487  0.5920
   35HFI     F6  907   0.563   2.709   0.225 -1.1433 -0.7319 -0.4388
   35HFI     H1  908   0.455   2.946   0.037 -0.1989 -1.9236  0.1938
   35HFI     H2  909   0.730   2.892   0.018 -0.0970 -0.6868 -1.6572
   36HFI     O1  910   2.674   3.125   1.487 -0.2033  0.0443  0.3975
   36HFI     C1  911   2.570   3.078   1.402 -0.2863  0.0221  0.6133
   36HFI     C2  912   2.509   2.943   1.452 -0.2952 -0.0260  0.2773
   36HFI     F1  913   2.443   2.957   1.568  0.2176 -0.6829  0.3174
   36HFI     F2  914   2.613   2.860   1.476  0.4389 -0.3517  0.4841
   36HFI     F3  915   2.426   2.888   1.363 -0.5443 -0.0284 -0.3213
   36HFI     C3  916   2.615   3.082   1.254  0.2793  0.3689 -0.1227
   36HFI     F4  917   2.517   3.059   1.165 -0.0430  0.4047 -0.5026
   36HFI     F5  918   2.712   2.993   1.231  0.1979 -0.5498 -0.3071
   36HFI     F6  919   2.653   3.203   1.219  0.3579 -0.0087  0.8073
   36HFI     H1  920   2.748   3.062   1.485 -0.7762 -0.5999 -0.5180
   36HFI     H2  921   2.487   3.149   1.413 -0.4283  0.0192 -0.3320
   37HFI     O1  922   0.001   2.711   1.439  0.2950 -0.6028 -0.6899
   37HFI     C1  923   0.115   2.674   1.524  0.4832  0.2548 -0.0366
   37HFI     C2  924   0.249   2.749   1.479 -0.4300 -0.4050 -0.1711
   37HFI     F1  925   0.262   2.738   1.344  0.0259 -0.1654 -0.0000
   37HFI     F2  926   0.365   2.711   1.542  0.3961 -0.9326  0.2467
   37HFI     F3  927   0.238   2.876   1.514  0.3485 -0.4326  0.0590
   37HFI     C3  928   0.119   2.523   1.525 -0.6353  0.2066  0.8476
   37HFI     F4  929   0.131   2.487   1.393 -0.0982 -0.0302  0.0996
   37HFI     F5  930   0.001   2.474   1.570 -0.1071 -0.0164 -0.0382
   37HFI     F6  931   0.221   2.473   1.601 -0.0513  0.3062 -0.1517
   37HFI     H1  932   0.006   2.662   1.355 -1.2448 -0.8263 -0.6500
   37HFI     H2  933   0.088   2.704   1.626 -2.4361 -0.0576 -0.6886
   38HFI     O1  934   3.239   0.604   1.337  0.2517  0.1844 -0.7884
   38HFI     C1  935   3.200   0.468   1.384  0.2001  0.0043 -0.8960
   38HFI     C2  936   3.081   0.477   1.483 -0.1921 -0.8074  0.1827
   38HFI     F1  937   3.050   0.360   1.555 -0.3903 -0.2912  0.4549
   38HFI     F2  938   2.965   0.500   1.414 -0.4764 -0.1922 -0.0020
   38HFI     F3  939   3.093   0.577   1.568 -0.3245  0.1175  0.0454
   38HFI     C3  940   3.319   0.396   1.448  0.6783  0.5526 -0.0650
   38HFI     F4  941   3.329   0.438   1.570 -0.3466 -0.5801  0.0178
   38HFI     F5  942   3.433   0.402   1.374 -0.2830 -0.1836  0.5379
   38HFI     F6  943   3.300   0.265   1.461 -0.2708  0.2890  0.3979
   38HFI     H1  944   3.212   0.668   1.404  0.1616  1.2908 -1.8681
   38HFI     H2  945   3.178   0.412   1.292  1.7302 -0.1804 -1.1631
   39HFI     O1  946   0.864   2.982   1.352 -0.0285 -0.0590 -0.1897
   39HFI     C1  947   0.726   2.929   1.367  0.4014 -0.3255  0.1209
   39HFI     C2  948   0.680   2.907   1.508  0.3313 -0.6633  0.3168
   39HFI     F1  949   0.751   2.984   1.593 -0.1030 -0.1265 -0.2594
   39HFI     F2  950   0.699   2.780   1.549 -0.0026  0.6246 -0.5454
   39HFI     F3  951   0.552   2.941   1.528  0.0218 -0.7921 -0.6950
   39HFI     C3  952   0.710   2.803   1.279  0.5045 -0.0736  0.1224
   39HFI     F4  953   0.780   2.705   1.329  0.4167 -0.3267 -0.8454
   39HFI     F5  954   0.761   2.824   1.162  0.0749  0.5833  0.0067
   39HFI     F6  955   0.586   2.755   1.274  0.1199 -0.4576  0.4718
   39HFI     H1  956   0.931   2.914   1.369  0.5227  0.2114 -1.2008
   39HFI     H2  957   0.652   2.996   1.321 -1.5018 -1.5885  1.2452
   40HFI     O1  958   3.065   2.715   0.275 -0.2646 -0.1560 -0.1769
   40HFI     C1  959   3.063   2.635   0.405 -0.1389 -0.2661  0.8222
   40HFI     C2  960   3.106   2.482   0.377 -0.0581 -0.3455 -0.6912
   40HFI     F1  961   3.119   2.413   0.493  0.1208 -0.0021 -0.0799
   40HFI     F2  962   3.227   2.470   0.322  0.1923  0.1792  0.0140
   40HFI     F3  963   3.020   2.425   0.294  0.2036  0.5239  0.4778
   40HFI     C3  964   2.927   2.642   0.483 -0.2271 -0.2226  0.7380
   40HFI     F4  965   2.948   2.603   0.612 -0.6705 -0.3594 -0.1063
   40HFI     F5  966   2.829   2.572   0.425 -0.5392 -0.0409  0.2492
   40HFI     F6  967   2.886   2.771   0.483  0.2829  0.5622  0.1386
   40HFI     H1  968   2.975   2.741   0.250 -0.6555 -0.6855  0.6297
   40HFI     H2  969   3.147   2.667   0.467 -0.3940 -0.1400  1.1037
   41HFI     O1  970   0.977   1.481   0.604 -0.5921  0.0240 -0.4720
   41HFI     C1  971   0.863   1.391   0.582 -0.0926 -0.6588 -0.1867
   41HFI     C2  972   0.866   1.263   0.666  0.4060 -0.6465 -0.2208
   41HFI     F1  973   0.857   1.298   0.800  0.2474 -0.4625  0.2304
   41HFI     F2  974   0.988   1.207   0.648 -0.4267 -0.5829 -0.5215
   41HFI     F3  975   0.757   1.178   0.641  0.4889 -0.1277  0.1891
   41HFI     C3  976   0.848   1.368   0.432  0.6332  0.3006  0.2350
   41HFI     F4  977   0.957   1.310   0.377  0.0685 -0.5674 -0.4298
   41HFI     F5  978   0.826   1.481   0.371 -0.2384 -0.0793  0.0977
   41HFI     F6  979   0.733   1.288   0.395  0.1291  0.1224  0.3043
   41HFI     H1  980   0.963   1.568   0.562  3.6835  0.7315 -0.6215
   41HFI     H2  981   0.768   1.436   0.613  1.0982  0.7096  1.5509
   42HFI     O1  982   2.666   1.287   0.848  0.1563  0.1310  0.0759
   42HFI     C1  983   2.749   1.216   0.753 -0.7575  0.4842 -0.6215
   42HFI     C2  984   2.839   1.308   0.659  0.0797 -0.0425 -0.7001
   42HFI     F1  985   2.757   1.382   0.581 -0.6075 -0.1020 -0.2236
   42HFI     F2  986   2.914   1.230   0.579 -0.4219 -0.0160 -0.1681
   42HFI     F3  987   2.921   1.385   0.734 -0.7084 -0.3250  0.4577
   42HFI     C3  988   2.669   1.108   0.664 -0.8130 -0.0943  0.3400
   42HFI     F4  989   2.757   1.021   0.629 -0.2252 -0.2812 -0.0581
   42HFI     F5  990   2.619   1.163   0.552  0.3890  0.0520  0.0413
   42HFI     F6  991   2.564   1.058   0.741 -0.0550  0.6603 -0.0821
   42HFI     H1  992   2.625   1.363   0.803 -1.8996 -0.6304  0.6303
   42HFI     H2  993   2.818   1.159   0.816 -0.4198 -0.2921 -1.6740
   43HFI     O1  994   1.320   2.420   0.529 -0.3513  0.4963  0.0262
   43HFI     C1  995   1.378   2.533   0.449 -0.6038 -0.3954  0.8621
   43HFI     C2  996   1.495   2.481   0.353  0.0126  0.1843  0.6427
   43HFI     F1  997   1.593   2.407   0.416 -0.5535 -0.3504 -0.1894
   43HFI     F2  998   1.554   2.592   0.307 -0.1461 -0.5738  0.2610
   43HFI     F3  999   1.448   2.412   0.249  0.4026  0.1052 -0.2873
   43HFI     C3 1000   1.427   2.647   0.541  0.2017 -0.0588  0.1829
   43HFI     F4 1001   1.337   2.667   0.632  0.1983 -0.0689 -0.0866
   43HFI     F5 1002   1.438   2.765   0.479 -0.5007 -0.2837  0.3200
   43HFI     F6 1003   1.543   2.612   0.596 -0.2915  0.6783 -0.4912
   43HFI     H1 1004   1.224   2.422   0.539 -0.4491 -0.3874 -0.6981
   43HFI     H2 1005   1.294   2.575   0.393 -0.5038 -0.8591  0.3459
   44HFI     O1 1006   2.905   2.338   1.300 -0.2939  0.1240 -0.0184
   44HFI     C1 1007   2.976   2.442   1.359 -0.5794  0.3354 -0.2141
   44HFI     C2 1008   3.126   2.456   1.295 -0.6577 -0.8912 -0.2190
   44HFI     F1 1009   3.191   2.568   1.336 -0.1931  0.1707  0.0513
   44HFI     F2 1010   3.123   2.470   1.162 -0.5327 -0.3798  0.2965
   44HFI     F3 1011   3.202   2.348   1.326 -0.4532  0.0206 -0.5253
   44HFI     C3 1012   2.983   2.433   1.520  0.3759  0.1223 -0.0352
   44HFI     F4 1013   3.059   2.531   1.573  0.4196  0.0797  0.0680
   44HFI     F5 1014   3.038   2.319   1.567 -0.0709 -0.1605  0.0078
   44HFI     F6 1015   2.859   2.451   1.569  0.2979  0.1730  0.6406
   44HFI     H1 1016   2.903   2.266   1.365 -1.4955  0.3628  0.2268
   44HFI     H2 1017   2.932   2.539   1.332 -3.0006 -0.2370  1.5119
   45HFI     O1 1018   2.508   1.342   1.594  0.1220 -0.1602 -0.0399
   45HFI     C1 1019   2.501   1.385   1.454  0.0726 -0.1599 -0.2856
   45HFI     C2 1020   2.481   1.536   1.444 -0.3570 -0.3920  0.1728
   45HFI     F1 1021   2.395   1.583   1.538 -0.0679 -0.2357  0.2885
   45HFI     F2 1022   2.444   1.582   1.327 -0.0505 -0.0538  0.3766
   45HFI     F3 1023   2.606   1.589   1.470 -0.1778 -0.1806  0.2369
   45HFI     C3 1024   2.390   1.302   1.386 -0.2295 -0.2763 -0.5839
   45HFI     F4 1025   2.392   1.310   1.253 -0.0360  0.2774  0.2458
   45HFI     F5 1026   2.269   1.351   1.423  0.1836  0.6067  0.3980
   45HFI     F6 1027   2.398   1.168   1.415 -0.2026 -0.1586  0.1357
   45HFI     H1 1028   2.486   1.419   1.650  2.7301  0.2879  0.4530
   45HFI     H2 1029   2.587   1.360   1.391  1.1919 -0.8280  1.4745
   46HFI     O1 1030   3.297   2.028   1.440 -0.3752 -0.5406  0.4452
   46HFI     C1 1031   3.438   1.982   1.471  0.7215  0.4241  0.7586
   46HFI     C2 1032   3.534   2.092   1.514  0.1310  0.5920 -0.1603
   46HFI     F1 1033   3.569   2.166   1.409 -0.1136 -0.1314  0.6161
   46HFI     F2 1034   3.645   2.046   1.567 -0.3210 -0.2114 -0.0300
   46HFI     F3 1035   3.474   2.166   1.605 -0.4961 -0.1576 -0.2959
   46HFI     C3 1036   3.484   1.894   1.348 -0.6121 -0.0208  0.0366
   46HFI     F4 1037   3.406   1.784   1.325 -0.4095  0.4666 -0.1226
   46HFI     F5 1038   3.613   1.856   1.358  0.4943  0.2406  0.0584
   46HFI     F6 1039   3.476   1.958   1.232  0.4568 -0.2765 -0.0973
   46HFI     H1 1040   3.309   2.097   1.373  2.2893 -2.6395 -1.3530
   46HFI     H2 1041   3.445   1.918   1.561  1.5544  1.3675  1.3726
   47HFI     O1 1042   0.405   3.211   1.124 -0.0573 -0.1117 -0.3963
   47HFI     C1 1043   0.335   3.107   1.048 -0.9599  0.5505 -0.4775
   47HFI     C2 1044   0.179   3.139   1.032  0.2533 -0.1365 -0.4898
   47HFI     F1 1045   0.113   3.062   0.939 -0.2595  0.0551  0.4192
   47HFI     F2 1046   0.159   3.268   1.004  0.4084 -0.1375  0.0989
   47HFI     F3 1047   0.113   3.116   1.146  0.6626 -0.4438 -0.3032
   47HFI     C3 1048   0.369   2.971   1.116  0.1712  0.6783  0.9349
   47HFI     F4 1049   0.500   2.940   1.084 -0.1815  0.1427 -0.7559
   47HFI     F5 1050   0.292   2.878   1.074  0.4576  0.1642  0.4939
   47HFI     F6 1051   0.358   2.978   1.250  0.0843  0.2467  0.0887
   47HFI     H1 1052   0.345   3.244   1.193  2.6367  1.2003  1.3805
   47HFI     H2 1053   0.378   3.104   0.947  0.9455  0.5837  0.2985
   48HFI     O1 1054   2.744   2.169   0.202  0.2445  0.5189  0.3511
   48HFI     C1 1055   2.723   2.248   0.332 -0.4509  1.0185 -0.1364
   48HFI     C2 1056   2.776   2.167   0.457 -0.4735  0.1938  0.0218
   48HFI     F1 1057   2.912   2.149   0.450 -0.5606 -0.0680 -0.2648
   48HFI     F2 1058   2.699   2.056   0.484 -0.3014  0.3260  0.5903
   48HFI     F3 1059   2.757   2.255   0.566 -0.1388  0.8759 -0.4531
   48HFI     C3 1060   2.584   2.297   0.347  0.7033 -0.2815 -0.8501
   48HFI     F4 1061   2.575   2.399   0.438 -0.6777 -0.2938 -0.0905
   48HFI     F5 1062   2.494   2.204   0.376 -0.2359 -0.0439 -0.4297
   48HFI     F6 1063   2.536   2.352   0.232 -0.3483 -0.3444  0.6887
   48HFI     H1 1064   2.830   2.125   0.212  0.1923 -0.2995 -2.4610
   48HFI     H2 1065   2.789   2.335   0.322 -0.4024  1.1811  1.4642
   49HFI     O1 1066   3.086   3.426   1.292  0.1376  0.0230  0.1904
   49HFI     C1 1067   3.001   3.503   1.378  0.0416 -0.4544  0.0594
   49HFI     C2 1068   2.974   3.433   1.519 -0.1085  0.7751 -0.1940
   49HFI     F1 1069   2.945   3.307   1.481  0.5635 -0.3401  0.1609
   49HFI     F2 1070   2.875   3.489   1.585  0.2444  0.1835 -0.1302
   49HFI     F3 1071   3.087   3.441   1.597 -0.7115  0.0611  0.4440
   49HFI     C3 1072   2.871   3.536   1.301 -0.5589  0.2582  0.5603
   49HFI     F4 1073   2.791   3.428   1.288 -0.4760  0.0026 -0.3188
   49HFI     F5 1074   2.890   3.593   1.178  0.3480 -0.5319 -0.6794
   49HFI     F6 1075   2.796   3.626   1.362 -0.2701  0.1977  0.0001
   49HFI     H1 1076   3.034   3.352   1.256  0.6353  0.0231 -0.5356
   49HFI     H2 1077   3.048   3.600   1.397 -0.8642  0.3317 -1.5499
   50HFI     O1 1078   2.710   0.178   0.904  0.0134  0.0392  0.0661
   50HFI     C1 1079   2.619   0.232   1.001  0.0108 -0.0067 -0.3687
   50HFI     C2 1080   2.470   0.232   0.941  0.6587  0.1657  0.1677
   50HFI     F1 1081   2.439   0.103   0.900 -0.3110  0.3698 -0.0828
   50HFI     F2 1082   2.447   0.317   0.833  0.3633 -0.1947  0.5392
   50HFI     F3 1083   2.381   0.267   1.031 -0.1966 -0.0604  0.0626
   50HFI     C3 1084   2.653   0.378   1.039  0.1762 -0.1616  0.5904
   50HFI     F4 1085   2.591   0.411   1.149 -0.1840 -0.2616  0.1094
   50HFI     F5 1086   2.618   0.470   0.944  0.2712 -0.3515  0.1925
   50HFI     F6 1087   2.783   0.392   1.063 -0.3760  0.0230 -0.0217
   50HFI     H1 1088   2.658   0.129   0.837  0.4862  0.5450 -0.6729
   50HFI     H2 1089   2.634   0.182   1.097 -0.9527 -0.2858 -0.3649
   51HFI     O1 1090   0.090   1.582   2.978 -0.2982  0.0846 -0.0974
   51HFI     C1 1091   0.208   1.568   2.895 -0.8337  0.0791 -0.5443
   51HFI     C2 1092   0.212   1.679   2.792  0.2799  0.3143  0.3695
   51HFI     F1 1093   0.313   1.665   2.701  0.7557 -0.4202  0.2121
   51HFI     F2 1094   0.237   1.796   2.854 -0.5935  0.0157 -0.2128
   51HFI     F3 1095   0.092   1.691   2.728  0.1912  0.0055  0.2344
   51HFI     C3 1096   0.218   1.428   2.839 -0.3771 -0.8154  0.5530
   51HFI     F4 1097   0.348   1.416   2.802 -0.1513 -0.1461  0.1098
   51HFI     F5 1098   0.144   1.403   2.725  0.0985 -0.2753 -0.2934
   51HFI     F6 1099   0.190   1.338   2.925 -0.0083 -0.1301 -0.2641
   51HFI     H1 1100   0.012   1.546   2.932  0.0636  0.0801 -0.6969
   51HFI     H2 1101   0.289   1.584   2.968 -1.4488  2.8935 -0.4077
   52HFI     O1 1102   3.207   0.214   1.126 -0.2049 -0.2078  0.6414
   52HFI     C1 1103   3.282   0.239   1.006  0.1784  0.0610  0.8227
   52HFI     C2 1104   3.411   0.150   0.989 -0.3864  0.3867  0.3899
   52HFI     F1 1105   3.511   0.173   1.082 -0.1054  0.1161 -0.4193
   52HFI     F2 1106   3.456   0.158   0.860  0.6717  0.3465 -0.4911
   52HFI     F3 1107   3.370   0.028   1.009 -0.1404  0.0650  0.3300
   52HFI     C3 1108   3.307   0.391   0.984  0.1530 -0.4227  0.0786
   52HFI     F4 1109   3.386   0.445   1.082  0.1852 -0.0550 -0.3100
   52HFI     F5 1110   3.187   0.455   0.989 -0.3725  0.1343  0.2624
   52HFI     F6 1111   3.374   0.419   0.870 -0.2144  0.2306 -0.5650
   52HFI     H1 1112   3.194   0.118   1.130 -2.9807 -0.0396 -2.2509
   52HFI     H2 1113   3.228   0.205   0.917  2.1155 -1.8525  0.3285
   53HFI     O1 1114   1.811   1.217   0.879 -0.3620  0.2848 -0.0701
   53HFI     C1 1115   1.683   1.198   0.955 -0.2013  0.2083  0.5142
   53HFI     C2 1116   1.560   1.222   0.864 -0.2446 -0.5668  0.8158
   53HFI     F1 1117   1.565   1.139   0.756 -0.0595 -0.1560 -0.9530
   53HFI     F2 1118   1.550   1.349   0.821 -0.4005 -0.1936 -0.5692
   53HFI     F3 1119   1.444   1.183   0.929 -0.1013  0.4822 -0.2389
   53HFI     C3 1120   1.682   1.297   1.073 -0.6502  0.1717 -0.8155
   53HFI     F4 1121   1.672   1.425   1.028  0.3671  0.3248 -0.7268
   53HFI     F5 1122   1.800   1.280   1.146 -0.3801  0.3207 -0.2315
   53HFI     F6 1123   1.580   1.275   1.159  0.3444  0.4942 -0.1949
   53HFI     H1 1124   1.794   1.220   0.783 -0.9265 -1.0041 -0.0215
   53HFI     H2 1125   1.672   1.095   0.991 -0.6479  0.0910  0.0596
   54HFI     O1 1126   1.705   2.310   0.179  0.0897 -0.0543  0.6252
   54HFI     C1 1127   1.737   2.190   0.105 -0.8284 -0.1897  0.0739
   54HFI     C2 1128   1.760   2.070   0.203 -0.1537  0.3545 -0.0375
   54HFI     F1 1129   1.746   1.958   0.129 -0.0401 -0.2030 -0.5313
   54HFI     F2 1130   1.668   2.073   0.305  0.4321 -0.4016 -0.2358
   54HFI     F3 1131   1.881   2.073   0.259  0.1874  0.1731 -0.2220
   54HFI     C3 1132   1.851   2.214   0.014 -0.0189 -0.5851  0.9931
   54HFI     F4 1133   1.892   2.111  -0.063 -0.0991  0.3002  0.0487
   54HFI     F5 1134   1.962   2.256   0.081  0.0156  0.6903  0.3776
   54HFI     F6 1135   1.824   2.316  -0.071  0.1826  0.6272  0.1528
   54HFI     H1 1136   1.697   2.298   0.275 -2.3088  0.7605  0.5714
   54HFI     H2 1137   1.655   2.167   0.035  2.0833  0.4960 -3.7413
   55HFI     O1 1138   1.002   3.369   1.307  0.2297  0.5390  0.5400
   55HFI     C1 1139   0.886   3.429   1.374  0.0344  0.2344  0.7323
   55HFI     C2 1140   0.875   3.583   1.357 -0.6796 -0.0125  0.2544
   55HFI     F1 1141   0.746   3.621   1.365 -0.2464 -0.6630  0.0970
   55HFI     F2 1142   0.917   3.618   1.235  0.4703 -0.1661  0.7664
   55HFI     F3 1143   0.956   3.649   1.444 -0.0523 -0.2028 -0.3027
   55HFI     C3 1144   0.852   3.392   1.525  0.1382  0.4077  0.2207
   55HFI     F4 1145   0.961   3.430   1.604  0.3006  0.7159 -0.0136
   55HFI     F5 1146   0.846   3.253   1.528  0.3400 -0.4189 -0.0273
   55HFI     F6 1147   0.737   3.449   1.572 -0.1746 -1.3358 -0.1812
   55HFI     H1 1148   0.991   3.272   1.316 -0.1220  0.0644 -3.9917
   55HFI     H2 1149   0.805   3.381   1.317  0.4614 -0.3823  0.6440
   56HFI     O1 1150   3.304   2.867   1.018  0.4050  0.6776  0.0794
   56HFI     C1 1151   3.296   2.737   0.942 -0.5060 -0.6708 -0.3439
   56HFI     C2 1152   3.415   2.643   0.950  0.0603  0.4331 -0.5056
   56HFI     F1 1153   3.452   2.619   1.083 -0.3638  0.2086  0.1798
   56HFI     F2 1154   3.524   2.697   0.892  0.0255 -0.0121 -0.2102
   56HFI     F3 1155   3.405   2.525   0.897  0.1316 -0.0158 -0.4424
   56HFI     C3 1156   3.240   2.760   0.800 -0.4802  0.2364 -0.6559
   56HFI     F4 1157   3.329   2.828   0.724 -0.0974  0.5935  0.1436
   56HFI     F5 1158   3.127   2.842   0.802  0.0901  0.4437 -0.3291
   56HFI     F6 1159   3.207   2.644   0.743 -0.3115  0.0650  0.1703
   56HFI     H1 1160   3.327   2.939   0.957  0.8654  0.3901 -0.0905
   56HFI     H2 1161   3.216   2.686   0.996 -0.7650 -0.1668 -0.2525
   57HFI     O1 1162   0.763   3.352   0.442 -0.1967  0.4358 -0.0400
   57HFI     C1 1163   0.621   3.313   0.455  0.2366  0.0088  0.1412
   57HFI     C2 1164   0.531   3.335   0.328 -0.3434 -0.8011  0.7090
   57HFI     F1 1165   0.577   3.259   0.224 -0.0323 -0.3547 -0.2848
   57HFI     F2 1166   0.526   3.470   0.294  0.0033 -0.4669  0.0242
   57HFI     F3 1167   0.401   3.292   0.342  0.2116 -0.3061  0.0361
   57HFI     C3 1168   0.549   3.386   0.580 -0.4026 -0.2747  0.7032
   57HFI     F4 1169   0.559   3.517   0.567 -0.2216 -0.0992 -0.1374
   57HFI     F5 1170   0.607   3.348   0.700 -0.3090 -0.1543  0.6576
   57HFI     F6 1171   0.420   3.364   0.591 -0.7326  0.5732  0.4431
   57HFI     H1 1172   0.776   3.443   0.409  0.1958 -0.2756 -1.9217
   57HFI     H2 1173   0.607   3.209   0.486  1.1794 -0.1051  0.1717
   58HFI     O1 1174   2.419   0.698   1.540  0.0383 -0.3134  0.4732
   58HFI     C1 1175   2.469   0.558   1.542 -0.4935 -0.3216  0.5056
   58HFI     C2 1176   2.617   0.539   1.526 -0.4497 -0.1084  0.0564
   58HFI     F1 1177   2.679   0.607   1.629 -0.6515  0.4524 -0.3244
   58HFI     F2 1178   2.662   0.593   1.415 -0.3390  0.1995  0.3668
   58HFI     F3 1179   2.665   0.417   1.532  0.0602  0.1516  0.2532
   58HFI     C3 1180   2.388   0.465   1.437 -0.1629 -0.8756  0.0904
   58HFI     F4 1181   2.445   0.347   1.413  0.3299  0.3747  0.2766
   58HFI     F5 1182   2.365   0.530   1.318  0.0412 -0.6220  0.2814
   58HFI     F6 1183   2.267   0.425   1.482  0.1750 -0.4164 -0.1454
   58HFI     H1 1184   2.492   0.737   1.591 -0.2550  0.1183  0.5714
   58HFI     H2 1185   2.439   0.515   1.638 -1.2703 -0.2847  0.2840
   59HFI     O1 1186   1.451   0.359   1.304 -0.0083  0.8762 -0.0371
   59HFI     C1 1187   1.333   0.365   1.390 -0.0190  0.1883 -0.0764
   59HFI     C2 1188   1.220   0.446   1.330  0.3981  0.4591 -0.9519
   59HFI     F1 1189   1.100   0.407   1.372  0.0400 -0.2654 -0.0575
   59HFI     F2 1190   1.231   0.415   1.195  0.4284  0.0416  0.2787
   59HFI     F3 1191   1.234   0.578   1.350  0.0163  0.7313  0.1028
   59HFI     C3 1192   1.364   0.405   1.532  0.4987 -0.0761 -0.5745
   59HFI     F4 1193   1.448   0.317   1.588 -0.0303 -0.0330 -0.1301
   59HFI     F5 1194   1.260   0.400   1.616  0.0827 -0.0657  0.4280
   59HFI     F6 1195   1.418   0.527   1.536 -0.0653 -0.3018  0.3257
   59HFI     H1 1196   1.415   0.355   1.213  4.4881 -1.9833 -1.8793
   59HFI     H2 1197   1.302   0.260   1.386  0.7684 -0.1172  1.5239
   60HFI     O1 1198   2.040   2.041   0.482 -0.0473 -0.2506  0.1044
   60HFI     C1 1199   2.182   2.002   0.498 -0.1497  0.1772 -0.0524
   60HFI     C2 1200   2.224   1.867   0.436 -0.5315 -0.5394 -0.1295
   60HFI     F1 1201   2.171   1.852   0.312  0.0295  0.0334 -0.3191
   60HFI     F2 1202   2.177   1.768   0.511 -0.5040  0.3145 -0.5927
   60HFI     F3 1203   2.358   1.859   0.432 -0.2202 -0.3649  0.6098
   60HFI     C3 1204   2.212   2.001   0.648  0.0007 -0.0451 -0.0176
   60HFI     F4 1205   2.336   1.980   0.669  0.0945 -0.0193  0.4721
   60HFI     F5 1206   2.137   1.915   0.724  0.2610 -0.3553 -0.0156
   60HFI     F6 1207   2.185   2.126   0.698 -1.1642 -0.4916 -0.0371
   60HFI     H1 1208   2.041   2.097   0.402 -0.3118  0.5406  0.6586
   60HFI     H2 1209   2.252   2.073   0.452  1.4815 -1.5356 -0.2429
   61HFI     O1 1210   0.332   0.615   0.505  0.0123  0.0416  0.2753
   61HFI     C1 1211   0.251   0.506   0.551  0.1678 -0.6836 -0.0379
   61HFI     C2 1212   0.338   0.378   0.558 -0.0996  0.3373 -0.7439
   61HFI     F1 1213   0.355   0.332   0.433  0.6366 -0.3973  0.1884
   61HFI     F2 1214   0.278   0.275   0.623 -0.2734  0.2066  0.3067
   61HFI     F3 1215   0.456   0.404   0.620 -0.1742 -0.5454 -1.0394
   61HFI     C3 1216   0.119   0.491   0.476 -0.4433  0.6130  0.0011
   61HFI     F4 1217   0.027   0.412   0.549 -0.3824  0.1965 -0.0146
   61HFI     F5 1218   0.140   0.431   0.355 -0.0461 -0.6457  0.7119
   61HFI     F6 1219   0.063   0.607   0.454 -0.3656 -0.1752  0.2470
   61HFI     H1 1220   0.377   0.586   0.424 -0.9601 -0.4253 -0.1083
   61HFI     H2 1221   0.234   0.525   0.658 -0.3455 -1.2081 -0.0246
   62HFI     O1 1222   2.144   1.957   1.233 -0.4720 -0.0062  0.6013
   62HFI     C1 1223   2.118   1.982   1.375 -0.5615  0.0214 -0.3250
   62HFI     C2 1224   2.128   2.130   1.420  0.5498 -0.5285 -0.0600
   62HFI     F1 1225   2.109   2.138   1.558 -0.1767 -0.3669  0.3969
   62HFI     F2 1226   2.028   2.203   1.366  0.0899  0.0040  0.2584
   62HFI     F3 1227   2.246   2.184   1.391  0.6747  0.3176  0.2541
   62HFI     C3 1228   2.205   1.891   1.468  0.3094 -1.0643  0.0673
   62HFI     F4 1229   2.333   1.931   1.487  0.5864  0.1113 -0.5906
   62HFI     F5 1230   2.202   1.774   1.407 -0.0375 -0.1543  0.0920
   62HFI     F6 1231   2.151   1.865   1.588 -0.2855 -0.3617  0.9348
   62HFI     H1 1232   2.209   1.885   1.221  0.5188  0.8378  0.8775
   62HFI     H2 1233   2.015   1.952   1.397 -0.2921  0.7501  2.0185
   63HFI     O1 1234   0.178   1.756   0.988  0.6271 -0.5087  0.1617
   63HFI     C1 1235   0.325   1.775   0.985 -0.3523  0.1486 -0.4465
   63HFI     C2 1236   0.364   1.930   0.996 -1.0174  0.1837  0.3376
   63HFI     F1 1237   0.350   1.978   1.123  0.2750 -0.1045  0.1810
   63HFI     F2 1238   0.272   2.000   0.921 -0.1439  0.5305 -0.1714
   63HFI     F3 1239   0.489   1.955   0.956  0.4403  0.1736 -0.2673
   63HFI     C3 1240   0.385   1.700   0.858  0.1612  0.2533 -0.6350
   63HFI     F4 1241   0.320   1.575   0.849  0.0194  0.1444  0.0903
   63HFI     F5 1242   0.519   1.675   0.875  0.1816  0.0101  0.4118
   63HFI     F6 1243   0.365   1.758   0.736 -0.1379  0.1357 -0.3960
   63HFI     H1 1244   0.147   1.777   0.898  0.8119  3.2586  0.9051
   63HFI     H2 1245   0.371   1.727   1.072  0.0508  0.2896 -0.5846
   64HFI     O1 1246   2.840   0.867   1.294  0.1828  0.3833  0.2784
   64HFI     C1 1247   2.789   1.001   1.341 -0.2277  0.7160  0.1552
   64HFI     C2 1248   2.836   1.123   1.257 -0.2523 -0.2869  0.4110
   64HFI     F1 1249   2.957   1.173   1.298  0.5662  0.1466  0.4946
   64HFI     F2 1250   2.743   1.218   1.268 -0.7185 -0.0026  0.1558
   64HFI     F3 1251   2.844   1.097   1.129  0.0264  0.4566 -0.5950
   64HFI     C3 1252   2.809   1.008   1.495 -0.4245 -0.0976 -0.8547
   64HFI     F4 1253   2.781   0.901   1.564 -0.5149 -0.1858 -0.2244
   64HFI     F5 1254   2.741   1.113   1.542  0.4040 -0.0489 -0.1199
   64HFI     F6 1255   2.934   1.035   1.528 -0.7457  0.3489  0.4777
   64HFI     H1 1256   2.874   0.881   1.204 -1.0251 -1.6375 -0.5312
   64HFI     H2 1257   2.681   0.996   1.322 -0.8438  0.6713  3.3200
   65HFI     O1 1258   0.648   2.412   1.292  0.6054 -0.4295 -0.2749
   65HFI     C1 1259   0.599   2.295   1.373 -0.0980  0.0226  0.3037
   65HFI     C2 1260   0.561   2.346   1.516  0.6230  0.8947  0.1182
   65HFI     F1 1261   0.516   2.471   1.510  0.3219  0.1884 -0.1629
   65HFI     F2 1262   0.663   2.339   1.594 -0.5339  0.6756 -0.3450
   65HFI     F3 1263   0.464   2.270   1.566 -0.4299 -0.4035 -0.2744
   65HFI     C3 1264   0.685   2.171   1.369 -0.4154 -0.4971  0.1054
   65HFI     F4 1265   0.809   2.186   1.419  0.3111 -0.2400 -0.5073
   65HFI     F5 1266   0.689   2.127   1.242 -0.2549  0.0348 -0.6107
   65HFI     F6 1267   0.626   2.070   1.441 -0.1125  0.2293  0.2994
   65HFI     H1 1268   0.709   2.454   1.355  0.4605 -0.9025  0.1932
   65HFI     H2 1269   0.501   2.266   1.331  0.4663 -1.7735  0.1693
   66HFI     O1 1270   0.532   2.938   0.485  0.3300  0.1070 -0.5218
   66HFI     C1 1271   0.399   2.888   0.516  0.5326 -0.1584 -0.0212
   66HFI     C2 1272   0.291   2.907   0.404  0.5452 -0.4646 -0.2427
   66HFI     F1 1273   0.293   3.032   0.352  0.0538 -0.2993  0.2287
   66HFI     F2 1274   0.168   2.884   0.443  0.1437  0.2130  0.0486
   66HFI     F3 1275   0.313   2.829   0.299 -0.1930  0.1544  0.0922
   66HFI     C3 1276   0.352   2.925   0.660  0.3214 -0.2745  0.6112
   66HFI     F4 1277   0.311   3.058   0.677 -0.1550  0.2712  0.5720
   66HFI     F5 1278   0.456   2.914   0.747  0.3589  0.5099  0.1877
   66HFI     F6 1279   0.260   2.839   0.699 -0.1891 -0.1679 -0.7942
   66HFI     H1 1280   0.590   2.876   0.532 -1.3569 -1.0231  0.0992
   66HFI     H2 1281   0.410   2.779   0.513 -0.3441 -0.2903  1.3351
   67HFI     O1 1282   2.618   1.354   3.309  0.3151  0.5062  0.1777
   67HFI     C1 1283   2.579   1.283   3.432  0.0915  0.0162  0.5290
   67HFI     C2 1284   2.476   1.175   3.407 -0.0855  0.0050 -1.3584
   67HFI     F1 1285   2.501   1.102   3.300  0.1283 -0.5173  0.6211
   67HFI     F2 1286   2.354   1.223   3.384  0.3764 -0.2141  0.5262
   67HFI     F3 1287   2.473   1.087   3.511 -0.4060 -0.0064  0.6772
   67HFI     C3 1288   2.528   1.392   3.540 -0.1219 -0.1963 -0.4354
   67HFI     F4 1289   2.545   1.338   3.664 -0.5399  0.3346 -0.3215
   67HFI     F5 1290   2.397   1.436   3.533 -0.1974 -0.0665 -0.7249
   67HFI     F6 1291   2.612   1.501   3.528  0.3294  0.1679 -0.1140
   67HFI     H1 1292   2.651   1.442   3.336  0.0968  0.9515 -0.9734
   67HFI     H2 1293   2.660   1.233   3.486 -0.0200 -1.2589 -0.4539
   68HFI     O1 1294   1.557   1.420   0.188 -0.1037  0.5244 -0.4617
   68HFI     C1 1295   1.419   1.381   0.217 -0.8965  0.2416  0.2229
   68HFI     C2 1296   1.322   1.405   0.097 -0.7152 -0.2996 -0.6001
   68HFI     F1 1297   1.368   1.368  -0.020  0.2753  0.0937  0.6093
   68HFI     F2 1298   1.296   1.537   0.084 -0.1930  0.0365 -0.3971
   68HFI     F3 1299   1.205   1.348   0.117  0.1656 -0.4732  0.2099
   68HFI     C3 1300   1.362   1.440   0.349 -0.4944  0.2556 -0.6341
   68HFI     F4 1301   1.428   1.402   0.460  0.3081  0.8950 -0.0544
   68HFI     F5 1302   1.228   1.402   0.366  0.3368 -0.2270  0.0303
   68HFI     F6 1303   1.359   1.578   0.346 -0.4715 -0.4352 -0.0662
   68HFI     H1 1304   1.598   1.441   0.274 -0.8444  1.6540 -0.3643
   68HFI     H2 1305   1.411   1.274   0.240 -1.5489  0.4703  1.0474
   69HFI     O1 1306   1.662   2.849   1.074 -0.0348 -0.0814 -0.0012
   69HFI     C1 1307   1.590   2.899   0.959  0.5246 -0.0986  0.0570
   69HFI     C2 1308   1.612   3.050   0.943 -0.0232 -0.4579  0.1748
   69HFI     F1 1309   1.566   3.112   1.050 -0.2055  0.2781  0.1111
   69HFI     F2 1310   1.537   3.097   0.840 -0.2830 -0.1053 -0.4350
   69HFI     F3 1311   1.741   3.088   0.922  0.5065  0.0527  0.9399
   69HFI     C3 1312   1.444   2.848   0.954 -0.3600  0.5216  0.1664
   69HFI     F4 1313   1.444   2.710   0.979 -0.3629  0.5265  0.3012
   69HFI     F5 1314   1.383   2.863   0.837  0.7461 -0.3652  0.0273
   69HFI     F6 1315   1.374   2.911   1.049 -0.2046 -0.3287  0.3809
   69HFI     H1 1316   1.638   2.903   1.152 -0.9856 -1.2391  0.5218
   69HFI     H2 1317   1.631   2.853   0.868 -1.6332 -1.0614 -0.4672
   70HFI     O1 1318   1.729   2.440   1.352 -0.1155 -0.1614 -0.3885
   70HFI     C1 1319   1.715   2.534   1.468  0.0986 -0.2755 -0.0932
   70HFI     C2 1320   1.595   2.632   1.443  0.8007 -0.5280 -0.0854
   70HFI     F1 1321   1.486   2.575   1.402  0.2212  0.0437 -0.2077
   70HFI     F2 1322   1.626   2.729   1.350 -0.3757  0.1891  0.5116
   70HFI     F3 1323   1.561   2.708   1.556  0.1022  0.1081 -0.2154
   70HFI     C3 1324   1.850   2.603   1.508 -0.5656 -0.1987  1.0265
   70HFI     F4 1325   1.937   2.616   1.405  0.1861 -0.8491  0.2220
   70HFI     F5 1326   1.906   2.517   1.590 -0.0743 -0.0357 -0.1043
   70HFI     F6 1327   1.838   2.725   1.565 -0.5916 -0.0880 -0.3763
   70HFI     H1 1328   1.744   2.490   1.269  0.8096 -2.4208 -1.6360
   70HFI     H2 1329   1.679   2.484   1.559 -4.7691  1.3039 -0.9880
   71HFI     O1 1330   1.610   1.583   1.281 -0.0111 -0.2369 -0.1739
   71HFI     C1 1331   1.657   1.517   1.406  0.1855 -0.1592 -0.3149
   71HFI     C2 1332   1.550   1.448   1.497 -0.3500 -0.3706  0.2640
   71HFI     F1 1333   1.502   1.341   1.433  0.2567  0.0553 -0.1824
   71HFI     F2 1334   1.450   1.526   1.523 -0.2645  0.0585 -0.4223
   71HFI     F3 1335   1.599   1.412   1.615 -0.5216 -0.0282 -0.1344
   71HFI     C3 1336   1.750   1.625   1.487 -0.1017 -0.3776  0.2306
   71HFI     F4 1337   1.672   1.729   1.533 -0.3257 -0.3426 -0.1618
   71HFI     F5 1338   1.846   1.678   1.405 -0.6361  0.1162 -0.6243
   71HFI     F6 1339   1.809   1.584   1.598  0.3007  0.0955 -0.2585
   71HFI     H1 1340   1.555   1.656   1.313 -0.0080  0.3187 -1.4070
   71HFI     H2 1341   1.729   1.437   1.383 -0.1988 -0.5662 -0.1146
   72HFI     O1 1342   0.340   0.805   3.369  0.1648  0.1944  0.2750
   72HFI     C1 1343   0.421   0.758   3.265 -0.4839  0.1273  0.4855
   72HFI     C2 1344   0.499   0.880   3.206 -0.0838 -0.1722 -0.3260
   72HFI     F1 1345   0.414   0.975   3.159 -0.2118 -0.0025  0.2448
   72HFI     F2 1346   0.585   0.830   3.109 -0.3506 -0.0332  0.5752
   72HFI     F3 1347   0.576   0.942   3.292 -0.1317 -0.0125  0.0187
   72HFI     C3 1348   0.334   0.679   3.165  0.3453 -0.2801 -0.1888
   72HFI     F4 1349   0.248   0.762   3.090 -0.3790 -0.1379 -1.1497
   72HFI     F5 1350   0.245   0.593   3.228 -0.1651 -0.0229  0.2134
   72HFI     F6 1351   0.410   0.601   3.081 -0.4973  0.1547  0.5586
   72HFI     H1 1352   0.266   0.858   3.333 -0.7114 -1.3570 -0.2635
   72HFI     H2 1353   0.496   0.692   3.311  1.2337  1.7996  0.1496
   73HFI     O1 1354   0.835   2.993   0.837  0.3308 -0.1292 -0.7079
   73HFI     C1 1355   0.869   3.061   0.962  0.4596  0.2628 -0.1734
   73HFI     C2 1356   0.803   3.201   0.971  0.5596 -0.2230 -0.3972
   73HFI     F1 1357   0.867   3.288   0.884 -0.1415 -0.2906 -0.4004
   73HFI     F2 1358   0.795   3.268   1.085  0.6522 -0.2163 -0.0544
   73HFI     F3 1359   0.671   3.197   0.934 -0.0003  0.2600 -0.2307
   73HFI     C3 1360   1.025   3.065   0.986 -0.0723 -0.0440  0.0199
   73HFI     F4 1361   1.074   2.943   1.023 -0.4832  0.0479  0.3149
   73HFI     F5 1362   1.058   3.155   1.087  0.5726 -0.3456  0.2409
   73HFI     F6 1363   1.091   3.099   0.870  0.6652  0.5563  0.4397
   73HFI     H1 1364   0.865   3.047   0.762 -1.7538  1.4261 -0.4626
   73HFI     H2 1365   0.825   3.013   1.050  0.1616 -0.4440 -0.7012
   74HFI     O1 1366   1.196   2.365   0.867 -0.2667 -0.0535 -0.0292
   74HFI     C1 1367   1.281   2.434   0.966 -0.0828  0.3203  0.0541
   74HFI     C2 1368   1.403   2.351   1.008 -0.0131  0.3851 -1.1736
   74HFI     F1 1369   1.373   2.237   1.065  0.3951 -0.0494  0.2187
   74HFI     F2 1370   1.480   2.424   1.094 -0.3639  0.8575 -0.5563
   74HFI     F3 1371   1.479   2.319   0.899 -0.4048 -0.0549 -0.2907
   74HFI     C3 1372   1.201   2.495   1.079  0.3222 -0.5946 -0.6310
   74HFI     F4 1373   1.144   2.399   1.156  0.1895 -0.6502  0.1713
   74HFI     F5 1374   1.103   2.578   1.021 -0.0152 -0.4366 -0.5596
   74HFI     F6 1375   1.271   2.565   1.165 -0.0799  0.3877  0.2913
   74HFI     H1 1376   1.160   2.294   0.923 -2.0118 -0.2736 -1.3856
   74HFI     H2 1377   1.329   2.518   0.912 -0.9684 -0.5578 -2.1466
   75HFI     O1 1378   2.213   0.194   1.315 -0.0802  0.2624  0.2659
   75HFI     C1 1379   2.262   0.061   1.353 -0.8711 -0.8225  0.6413
   75HFI     C2 1380   2.279   0.051   1.507  0.3715 -1.1256  0.1678
   75HFI     F1 1381   2.153   0.073   1.563  0.5606  0.5219  0.2713
   75HFI     F2 1382   2.366   0.132   1.568 -0.2995 -0.6021  0.1386
   75HFI     F3 1383   2.313  -0.079   1.536 -0.1052 -0.0524 -0.2455
   75HFI     C3 1384   2.384   0.015   1.264 -0.0396 -0.7247  0.6853
   75HFI     F4 1385   2.482   0.099   1.285  0.0348  0.4533 -0.3160
   75HFI     F5 1386   2.355   0.019   1.135 -0.1646  0.0653 -0.1328
   75HFI     F6 1387   2.425  -0.106   1.291 -0.5333 -0.3756 -0.3906
   75HFI     H1 1388   2.289   0.248   1.286  1.9711 -1.7986  1.6165
   75HFI     H2 1389   2.194  -0.022   1.330 -0.1111 -1.4536  0.6751
   76HFI     O1 1390   2.955   0.184   0.444 -0.3203 -0.2044 -0.0982
   76HFI     C1 1391   2.992   0.314   0.495  0.4392 -0.6734 -0.2183
   76HFI     C2 1392   3.136   0.350   0.452  0.3481  0.5568  0.6395
   76HFI     F1 1393   3.225   0.258   0.506  0.3185 -1.2577 -0.3316
   76HFI     F2 1394   3.160   0.481   0.485  0.2409 -0.5048 -0.2777
   76HFI     F3 1395   3.150   0.343   0.313  0.2416  0.7918  0.0668
   76HFI     C3 1396   2.973   0.311   0.653 -0.3278 -0.5413  0.1257
   76HFI     F4 1397   3.059   0.239   0.725 -0.3381  0.1358  0.0274
   76HFI     F5 1398   2.848   0.272   0.680 -0.1543 -0.4270  0.0542
   76HFI     F6 1399   2.980   0.435   0.707 -0.4960 -0.0871  0.8472
   76HFI     H1 1400   2.951   0.175   0.347 -1.9483 -1.2182  0.0355
   76HFI     H2 1401   2.924   0.389   0.453 -0.3565 -0.1312  1.9576
   77HFI     O1 1402   1.148   1.952   0.015 -0.0672 -0.7542  0.2182
   77HFI     C1 1403   1.264   1.967  -0.075 -0.3815 -0.9036  0.0686
   77HFI     C2 1404   1.256   1.857  -0.176  0.4123 -0.5066 -0.0838
   77HFI     F1 1405   1.143   1.867  -0.241 -0.1866  0.0385  0.0294
   77HFI     F2 1406   1.256   1.730  -0.125  0.2906 -0.1894  0.2178
   77HFI     F3 1407   1.370   1.866  -0.256 -0.0190 -0.5725  0.2229
   77HFI     C3 1408   1.399   1.962   0.008  0.4116 -0.2313 -0.6172
   77HFI     F4 1409   1.515   1.971  -0.063 -0.0052 -0.0009 -0.2574
   77HFI     F5 1410   1.396   1.856   0.092  0.8040 -0.3060 -0.0389
   77HFI     F6 1411   1.398   2.073   0.087 -0.4799  0.2300 -0.1306
   77HFI     H1 1412   1.134   1.857   0.032 -1.4061 -0.4608  0.7842
   77HFI     H2 1413   1.264   2.065  -0.124  0.3779 -0.7967  0.2685
   78HFI     O1 1414   2.006   0.436   0.199  0.2345 -0.5726  0.2328
   78HFI     C1 1415   2.009   0.483   0.062  0.2801  0.3539 -0.1187
   78HFI     C2 1416   2.104   0.598   0.046  0.5585 -0.1810 -0.2208
   78HFI     F1 1417   2.218   0.588   0.120  0.4066  0.0924  0.1340
   78HFI     F2 1418   2.042   0.715   0.089  0.2952 -0.3341  0.0676
   78HFI     F3 1419   2.144   0.616  -0.078  0.5557 -0.2091  0.6581
   78HFI     C3 1420   1.869   0.495  -0.006 -0.2789  1.1171  0.7189
   78HFI     F4 1421   1.878   0.516  -0.142  0.3909  0.1365 -0.1013
   78HFI     F5 1422   1.803   0.595   0.056 -0.1443 -0.2640 -0.2387
   78HFI     F6 1423   1.802   0.380   0.020  0.0630 -0.1566 -0.3740
   78HFI     H1 1424   2.088   0.460   0.245 -0.1909  1.1923  0.1309
   78HFI     H2 1425   2.059   0.405   0.004 -0.1930 -0.0213 -0.0246
   79HFI     O1 1426   0.002   3.336   0.350  0.1588 -0.0920 -0.0675
   79HFI     C1 1427  -0.004   3.255   0.473 -0.9792  0.0565 -0.6259
   79HFI     C2 1428  -0.120   3.141   0.470 -0.2044  0.5757 -0.6751
   79HFI     F1 1429  -0.109   3.067   0.361  0.3345 -0.0649  0.2786
   79HFI     F2 1430  -0.242   3.194   0.465 -0.2310 -0.0818  0.5985
   79HFI     F3 1431  -0.108   3.054   0.578 -0.1958  0.1314  0.1237
   79HFI     C3 1432  -0.019   3.349   0.593  0.6600  0.0072 -0.5639
   79HFI     F4 1433   0.078   3.437   0.594 -0.4966  0.5930  0.5944
   79HFI     F5 1434  -0.023   3.288   0.712 -0.2689 -0.0213  0.1030
   79HFI     F6 1435  -0.125   3.421   0.581 -0.6764 -0.3337  0.4077
   79HFI     H1 1436  -0.040   3.422   0.366 -0.7553 -0.3652 -0.9779
   79HFI     H2 1437   0.093   3.204   0.484 -1.0325 -0.3198 -1.7861
   80HFI     O1 1438   0.468   2.341   3.224  0.0987  0.5290  0.0303
   80HFI     C1 1439   0.451   2.447   3.323 -0.9722  0.7241 -0.1968
   80HFI     C2 1440   0.425   2.383   3.459  0.2347  0.6512  0.1492
   80HFI     F1 1441   0.321   2.292   3.456  0.4600  0.8311 -0.0193
   80HFI     F2 1442   0.389   2.475   3.551  0.1823  0.3370  0.1036
   80HFI     F3 1443   0.539   2.323   3.509  0.3085 -0.3003 -0.1982
   80HFI     C3 1444   0.353   2.555   3.266 -0.2064  1.0101 -0.0528
   80HFI     F4 1445   0.362   2.675   3.331 -0.3459  0.2197  0.2329
   80HFI     F5 1446   0.226   2.516   3.270  0.2857  0.3630 -0.0759
   80HFI     F6 1447   0.379   2.581   3.129  0.0147  0.0207 -0.3950
   80HFI     H1 1448   0.471   2.392   3.142 -0.3886  0.4926 -0.0121
   80HFI     H2 1449   0.542   2.500   3.356  0.4469 -1.0787 -1.1292
   81HFI     O1 1450   0.031   1.782   0.573 -0.4581 -0.0572  0.0792
   81HFI     C1 1451  -0.093   1.838   0.546 -0.2550 -0.4613 -0.3986
   81HFI     C2 1452  -0.214   1.738   0.558 -0.5758  0.1430 -0.2742
   81HFI     F1 1453  -0.227   1.674   0.676 -0.0741  0.2180 -0.1160
   81HFI     F2 1454  -0.201   1.643   0.469 -0.0567  0.6477 -0.2821
   81HFI     F3 1455  -0.338   1.795   0.530 -0.1510 -0.2390 -0.0181
   81HFI     C3 1456  -0.093   1.906   0.404 -0.1157  0.2917  0.1543
   81HFI     F4 1457  -0.063   1.810   0.309  0.0554  0.1930  0.0248
   81HFI     F5 1458   0.005   2.002   0.383  0.3350  0.5407 -0.3279
   81HFI     F6 1459  -0.212   1.954   0.365 -0.1601  0.4442 -0.4034
   81HFI     H1 1460   0.082   1.774   0.490 -1.0993 -1.6830 -0.1830
   81HFI     H2 1461  -0.112   1.918   0.618  0.7889 -1.0878  0.6024
   82HFI     O1 1462   1.871   2.999   1.482 -0.4702 -0.5441 -0.5080
   82HFI     C1 1463   1.998   2.999   1.402  0.4753 -0.2300 -0.2729
   82HFI     C2 1464   2.115   3.037   1.486  0.1557 -0.1049 -0.1033
   82HFI     F1 1465   2.222   3.083   1.411 -0.1333 -0.3751 -0.4573
   82HFI     F2 1466   2.156   2.928   1.565  0.3023 -1.1476 -0.2337
   82HFI     F3 1467   2.085   3.135   1.576  0.4352 -0.3724 -0.1369
   82HFI     C3 1468   1.973   3.078   1.272  0.2187 -0.0008  0.0390
   82HFI     F4 1469   1.860   3.042   1.219 -0.2807  0.0966 -0.0945
   82HFI     F5 1470   2.064   3.066   1.169 -0.2867 -0.4660  0.1613
   82HFI     F6 1471   1.968   3.203   1.311  0.2573  0.2882  0.1920
   82HFI     H1 1472   1.854   3.092   1.504 -2.5858 -1.1324  0.5331
   82HFI     H2 1473   2.011   2.893   1.375 -1.2446 -0.5584  0.1389
   83HFI     O1 1474   2.638   0.889   1.067 -0.0565 -0.5232  0.1373
   83HFI     C1 1475   2.520   0.807   1.071  0.0885  0.2293  0.1383
   83HFI     C2 1476   2.455   0.779   0.923  0.1138  0.9355 -0.6628
   83HFI     F1 1477   2.553   0.751   0.831 -0.5768  0.1541 -0.1184
   83HFI     F2 1478   2.382   0.874   0.862 -0.0136 -0.3898  0.1548
   83HFI     F3 1479   2.371   0.680   0.925 -0.2365  0.2607 -0.3158
   83HFI     C3 1480   2.411   0.871   1.160  0.7495 -0.4113 -0.2065
   83HFI     F4 1481   2.452   0.851   1.287  0.5108  0.2637 -0.3701
   83HFI     F5 1482   2.294   0.802   1.151 -0.0381 -0.0686  0.8676
   83HFI     F6 1483   2.379   1.005   1.135  0.1813 -0.0256 -0.1528
   83HFI     H1 1484   2.699   0.837   1.012 -0.1977 -0.0485 -0.4751
   83HFI     H2 1485   2.539   0.710   1.118  0.9558  0.2917 -0.0765
   84HFI     O1 1486   3.152   3.344   2.726  0.7684  0.0287  0.1457
   84HFI     C1 1487   3.169   3.285   2.859 -0.2720  0.2404  0.6920
   84HFI     C2 1488   3.309   3.242   2.891  0.1252  0.0922  0.2564
   84HFI     F1 1489   3.313   3.190   3.015  0.2384  0.1780 -0.1470
   84HFI     F2 1490   3.385   3.359   2.885 -0.5666  0.3006 -0.2260
   84HFI     F3 1491   3.357   3.150   2.808  0.4353 -0.5470 -1.0396
   84HFI     C3 1492   3.076   3.162   2.872  0.6988  0.1183 -0.6162
   84HFI     F4 1493   2.955   3.194   2.827 -0.3131  0.3802 -0.2027
   84HFI     F5 1494   3.067   3.106   2.997 -0.4833  0.4080 -0.3632
   84HFI     F6 1495   3.122   3.055   2.793  0.8857 -0.6030 -0.1038
   84HFI     H1 1496   3.188   3.281   2.661 -0.2796 -2.6102  2.0221
   84HFI     H2 1497   3.133   3.358   2.933 -1.5328  1.0314 -0.6718
   85HFI     O1 1498   1.229   2.522   1.597 -0.2235  0.3926 -0.1906
   85HFI     C1 1499   1.148   2.552   1.481 -0.8558 -0.2536 -0.3578
   85HFI     C2 1500   1.125   2.708   1.465 -0.1235  0.9257 -0.2386
   85HFI     F1 1501   1.240   2.785   1.466 -0.5860  0.0982  0.5904
   85HFI     F2 1502   1.041   2.755   1.560  0.6614 -0.3931  0.1731
   85HFI     F3 1503   1.056   2.734   1.345  0.1310 -0.1818 -0.0432
   85HFI     C3 1504   1.023   2.459   1.477 -0.5901 -0.4524  0.4298
   85HFI     F4 1505   0.937   2.482   1.575  1.0861  0.0244 -0.2204
   85HFI     F5 1506   1.054   2.324   1.491 -0.5981 -0.4271 -0.4370
   85HFI     F6 1507   0.953   2.477   1.361  0.3714  0.3985  0.4855
   85HFI     H1 1508   1.174   2.525   1.678  0.2470  2.8837  0.0963
   85HFI     H2 1509   1.212   2.529   1.395 -1.4418  0.8377 -1.0986
   86HFI     O1 1510   1.171   2.006   1.350  0.1318 -0.7026  0.5893
   86HFI     C1 1511   1.123   1.885   1.408  0.2135 -0.0001  0.1245
   86HFI     C2 1512   0.997   1.910   1.495 -0.3069 -0.0526 -0.3281
   86HFI     F1 1513   0.893   1.910   1.406 -0.1473  0.3523  0.5478
   86HFI     F2 1514   1.003   2.020   1.573  0.0274  0.0819 -0.2114
   86HFI     F3 1515   0.979   1.807   1.572  0.0910 -0.4204 -0.1553
   86HFI     C3 1516   1.238   1.832   1.502 -0.2759 -0.1697 -0.3412
   86HFI     F4 1517   1.254   1.910   1.610 -0.0582 -0.0947 -0.0810
   86HFI     F5 1518   1.361   1.836   1.446 -0.3261 -0.1788 -0.3887
   86HFI     F6 1519   1.216   1.701   1.535 -0.3197  0.2252  0.0272
   86HFI     H1 1520   1.186   2.066   1.425 -2.2342  2.1657 -1.1289
   86HFI     H2 1521   1.100   1.815   1.327 -2.4618 -0.4374  1.2066
   87HFI     O1 1522   0.938   1.822   0.256  0.3483 -0.1170  0.0000
   87HFI     C1 1523   0.801   1.845   0.323 -0.1449 -0.0697 -0.1792
   87HFI     C2 1524   0.723   1.966   0.263  0.3201 -1.1069 -0.3088
   87HFI     F1 1525   0.590   1.940   0.259  0.1257 -0.2852  0.5174
   87HFI     F2 1526   0.758   1.979   0.137 -0.0237  0.0846  0.5344
   87HFI     F3 1527   0.731   2.085   0.321 -0.4511 -0.5111 -0.2432
   87HFI     C3 1528   0.800   1.849   0.472 -0.7901 -0.1671 -0.8147
   87HFI     F4 1529   0.883   1.944   0.516  0.5258  0.1978  0.1564
   87HFI     F5 1530   0.847   1.731   0.517 -0.4201 -0.1687  0.2171
   87HFI     F6 1531   0.669   1.872   0.520 -0.8700  0.1708  0.1156
   87HFI     H1 1532   0.995   1.892   0.291  1.1446 -0.3379 -0.8472
   87HFI     H2 1533   0.733   1.767   0.287  0.4338 -1.5026  1.7697
   88HFI     O1 1534   3.090   1.501   0.975  0.5746  0.2740  0.7394
   88HFI     C1 1535   3.201   1.431   0.920 -0.4377 -0.5262  0.4787
   88HFI     C2 1536   3.205   1.285   0.962 -0.7135  0.6912  0.0229
   88HFI     F1 1537   3.301   1.217   0.903  0.1437 -0.6772 -0.2229
   88HFI     F2 1538   3.087   1.221   0.933  0.4722 -0.4319  0.4799
   88HFI     F3 1539   3.226   1.269   1.097 -0.4968  0.1921  0.3279
   88HFI     C3 1540   3.332   1.505   0.949  0.1375 -1.1440  0.9491
   88HFI     F4 1541   3.325   1.625   0.887 -0.8921 -0.4172  0.1911
   88HFI     F5 1542   3.445   1.440   0.907  0.4541  0.3658 -0.1059
   88HFI     F6 1543   3.336   1.526   1.079 -0.4300 -0.1029 -0.1897
   88HFI     H1 1544   3.105   1.528   1.068  0.2554  3.6028 -0.0923
   88HFI     H2 1545   3.184   1.427   0.811  0.0496  2.7786  0.2266
   89HFI     O1 1546   0.142   0.898   1.118 -0.2206 -0.3776  0.0531
   89HFI     C1 1547   0.123   0.784   1.030 -0.3871  0.0506 -0.6099
   89HFI     C2 1548   0.228   0.672   1.059  0.4479  0.1417  0.0614
   89HFI     F1 1549   0.349   0.724   1.076 -0.0313 -0.3072  0.1694
   89HFI     F2 1550   0.242   0.584   0.953  0.5171 -0.3178  0.5325
   89HFI     F3 1551   0.206   0.602   1.170 -0.4004  0.0599  0.0367
   89HFI     C3 1552   0.125   0.833   0.881 -0.4794 -0.1822  0.4457
   89HFI     F4 1553   0.023   0.908   0.863 -0.4268 -0.1989  0.5793
   89HFI     F5 1554   0.108   0.729   0.797  0.5119  0.1619 -0.2010
   89HFI     F6 1555   0.246   0.897   0.855  0.2088  0.0795 -0.0472
   89HFI     H1 1556   0.237   0.921   1.120 -0.6164  1.2898  0.8085
   89HFI     H2 1557   0.027   0.732   1.046 -0.0085  0.0681  1.8245
   90HFI     O1 1558   0.397   1.023   1.101  0.6323 -0.5433 -0.2907
   90HFI     C1 1559   0.432   1.159   1.102  0.2837 -0.0902 -0.3958
   90HFI     C2 1560   0.320   1.248   1.037  0.4626 -0.3088  0.4336
   90HFI     F1 1561   0.360   1.377   1.031  0.4959 -0.0345  0.3090
   90HFI     F2 1562   0.207   1.241   1.110  0.0598  0.0228  0.0183
   90HFI     F3 1563   0.288   1.205   0.916  0.2754 -0.1236 -0.2164
   90HFI     C3 1564   0.577   1.188   1.052  0.4159 -0.2922  0.6710
   90HFI     F4 1565   0.631   1.296   1.103 -0.1668  0.3670  0.1284
   90HFI     F5 1566   0.579   1.199   0.918  0.3861  0.1317  0.4977
   90HFI     F6 1567   0.658   1.086   1.084  0.0179  0.3578  0.1268
   90HFI     H1 1568   0.481   0.973   1.102  0.7438 -0.3450  0.2457
   90HFI     H2 1569   0.429   1.181   1.209 -1.1567 -1.3353 -0.1685
   91HFI     O1 1570   0.605   0.418   0.886 -0.5233 -0.3387 -0.2699
   91HFI     C1 1571   0.615   0.537   0.974 -0.3768  0.8127  0.1659
   91HFI     C2 1572   0.602   0.660   0.886  0.1071 -0.5520 -0.0539
   91HFI     F1 1573   0.583   0.773   0.962  0.0284 -1.3591 -0.1857
   91HFI     F2 1574   0.498   0.659   0.800  0.1506  0.3663  0.0223
   91HFI     F3 1575   0.709   0.682   0.811 -0.1498  0.6413  0.2579
   91HFI     C3 1576   0.745   0.524   1.057  0.3280  0.2137  0.5235
   91HFI     F4 1577   0.852   0.511   0.975 -0.0428 -0.2666  0.1204
   91HFI     F5 1578   0.735   0.415   1.131  0.4261 -0.1624 -0.0851
   91HFI     F6 1579   0.763   0.629   1.135 -0.6316 -0.0801  0.0993
   91HFI     H1 1580   0.625   0.440   0.794  1.9051  0.8922  0.5068
   91HFI     H2 1581   0.532   0.543   1.046 -1.9500  2.5806 -1.7342
   92HFI     O1 1582   2.713   3.257   0.941  0.3150  0.5347 -0.4304
   92HFI     C1 1583   2.846   3.223   0.884  0.1663  0.1584  0.5761
   92HFI     C2 1584   2.932   3.148   0.984  1.0187  0.3278  0.4721
   92HFI     F1 1585   2.857   3.046   1.032 -0.2070  0.0898 -0.4969
   92HFI     F2 1586   2.979   3.219   1.089  0.2217  0.1421 -0.2666
   92HFI     F3 1587   3.034   3.094   0.923  0.3269  0.3325 -0.3958
   92HFI     C3 1588   2.914   3.343   0.811 -0.1453 -0.1490 -0.4405
   92HFI     F4 1589   2.965   3.437   0.896  0.7443  0.0028  0.2771
   92HFI     F5 1590   2.823   3.396   0.727  0.1286 -0.0223 -0.3069
   92HFI     F6 1591   3.019   3.302   0.734 -0.5447 -0.4865  0.5353
   92HFI     H1 1592   2.669   3.171   0.955  1.5066  0.0176  0.2390
   92HFI     H2 1593   2.836   3.155   0.798 -0.4367  1.0391 -0.0686
   93HFI     O1 1594   0.258   1.659   0.424  0.2608 -0.4677  0.2401
   93HFI     C1 1595   0.340   1.556   0.493 -0.4174 -0.8011 -0.3710
   93HFI     C2 1596   0.478   1.535   0.420  0.4238 -0.2746 -0.4924
   93HFI     F1 1597   0.561   1.465   0.498 -0.2182 -0.5258 -0.2032
   93HFI     F2 1598   0.529   1.662   0.403 -0.4872 -0.0467  0.1789
   93HFI     F3 1599   0.464   1.483   0.298 -0.1821 -0.1288 -0.5864
   93HFI     C3 1600   0.261   1.422   0.515  0.3764 -0.3001  0.5932
   93HFI     F4 1601   0.320   1.354   0.615 -0.1291 -0.6699  1.0840
   93HFI     F5 1602   0.251   1.341   0.406 -0.4970  0.0506 -0.1578
   93HFI     F6 1603   0.138   1.456   0.558 -0.4846 -0.0028 -0.1335
   93HFI     H1 1604   0.286   1.660   0.331  2.0931 -1.9091  0.7252
   93HFI     H2 1605   0.372   1.605   0.586  0.8616 -0.0695 -1.1755
   94HFI     O1 1606   0.415   2.539   1.152 -0.2780  0.1058 -0.1129
   94HFI     C1 1607   0.410   2.508   1.015  0.2357  0.1898 -0.0522
   94HFI     C2 1608   0.387   2.351   0.999  0.4087 -0.3532  0.1857
   94HFI     F1 1609   0.503   2.290   0.991  0.2451  0.5684  0.2962
   94HFI     F2 1610   0.324   2.336   0.880  0.0725  0.5237 -0.5655
   94HFI     F3 1611   0.310   2.294   1.098 -0.0364 -0.0586 -0.3810
   94HFI     C3 1612   0.537   2.569   0.934 -0.5705  0.0750  0.3870
   94HFI     F4 1613   0.552   2.708   0.951  0.1801  0.3924 -0.0028
   94HFI     F5 1614   0.529   2.547   0.803  0.4316 -0.2618  0.3319
   94HFI     F6 1615   0.653   2.512   0.978 -0.4702  0.2508 -0.4254
   94HFI     H1 1616   0.485   2.489   1.196 -1.0998 -1.6531 -0.7737
   94HFI     H2 1617   0.324   2.557   0.966  0.6506 -0.5044 -1.5150
   95HFI     O1 1618   0.293   0.899   0.348 -0.0766  0.3710 -0.0053
   95HFI     C1 1619   0.318   1.014   0.441 -0.5179 -0.1057 -0.4991
   95HFI     C2 1620   0.454   0.999   0.514 -0.2426  0.2528 -0.5927
   95HFI     F1 1621   0.557   0.976   0.433 -0.4190  1.0601  0.4774
   95HFI     F2 1622   0.457   0.901   0.597  0.3889 -0.1456  0.0253
   95HFI     F3 1623   0.476   1.111   0.588 -0.2894  0.3500 -0.3058
   95HFI     C3 1624   0.194   1.024   0.536  0.2861  0.6192  1.1156
   95HFI     F4 1625   0.083   1.065   0.473 -0.0248 -0.1942 -0.2273
   95HFI     F5 1626   0.215   1.105   0.643 -0.3095  0.1571 -0.4355
   95HFI     F6 1627   0.178   0.894   0.575 -0.3233  0.4414 -0.2125
   95HFI     H1 1628   0.304   0.817   0.400  3.2480  0.1772 -0.8631
   95HFI     H2 1629   0.319   1.101   0.374  0.1100 -0.2115 -0.6318
   96HFI     O1 1630   2.495   3.223   0.285 -0.0997 -0.6419  0.5326
   96HFI     C1 1631   2.618   3.292   0.324  0.3199  0.1705 -0.0170
   96HFI     C2 1632   2.666   3.382   0.206 -0.6617  0.4302 -0.4090
   96HFI     F1 1633   2.709   3.501   0.261  0.2743 -0.0860  0.5602
   96HFI     F2 1634   2.570   3.422   0.118 -0.0300 -0.1219 -0.2723
   96HFI     F3 1635   2.764   3.325   0.133  0.2605 -0.2760  0.0079
   96HFI     C3 1636   2.721   3.199   0.383 -0.3635  0.0702  0.7415
   96HFI     F4 1637   2.755   3.105   0.293 -0.1825  0.2536 -0.1755
   96HFI     F5 1638   2.677   3.135   0.492 -0.2599  0.1169  0.0904
   96HFI     F6 1639   2.833   3.269   0.419  0.4608 -0.0347 -0.0340
   96HFI     H1 1640   2.527   3.152   0.227  1.2444 -1.1982  1.9046
   96HFI     H2 1641   2.596   3.367   0.401 -0.9536 -0.2742  0.0628
   97HFI     O1 1642   3.282   2.948   1.587  0.2139 -0.5463 -0.0580
   97HFI     C1 1643   3.195   3.021   1.493 -0.0227  0.0133  0.5038
   97HFI     C2 1644   3.049   2.983   1.502  0.4851  0.4721 -0.4181
   97HFI     F1 1645   3.031   2.849   1.524 -0.1074  0.4613 -0.3219
   97HFI     F2 1646   2.981   3.012   1.394 -0.0371 -0.0099 -0.4623
   97HFI     F3 1647   2.988   3.043   1.601  0.3588  0.1443  0.5512
   97HFI     C3 1648   3.253   3.021   1.350 -0.1809 -0.1132 -0.0239
   97HFI     F4 1649   3.221   3.127   1.290 -0.0205  0.2545 -0.3862
   97HFI     F5 1650   3.195   2.921   1.274  0.1933  0.5923  0.3512
   97HFI     F6 1651   3.382   3.018   1.353  0.1500  0.4244  0.4177
   97HFI     H1 1652   3.321   2.871   1.542 -0.4596 -0.7944 -0.2270
   97HFI     H2 1653   3.189   3.126   1.525  2.5853 -0.2715  2.0368
   98HFI     O1 1654   3.080   1.544   1.293 -0.0026  0.2713 -0.1509
   98HFI     C1 1655   3.088   1.457   1.412 -0.0400  0.0997 -0.0509
   98HFI     C2 1656   2.955   1.454   1.496 -0.5542 -0.2300  0.2143
   98HFI     F1 1657   2.948   1.354   1.588  0.0095  0.2167  0.5888
   98HFI     F2 1658   2.850   1.446   1.419  0.1715 -0.3671 -0.0322
   98HFI     F3 1659   2.942   1.571   1.558  0.2345 -0.3108  0.4691
   98HFI     C3 1660   3.213   1.499   1.498 -0.6396  1.0680  0.0209
   98HFI     F4 1661   3.218   1.633   1.531 -0.0338  0.3595  0.3310
   98HFI     F5 1662   3.326   1.469   1.428  0.0090 -0.3246 -0.4014
   98HFI     F6 1663   3.219   1.419   1.606  0.4110 -0.1809 -0.1676
   98HFI     H1 1664   3.063   1.633   1.328 -3.0507 -1.2809  2.5599
   98HFI     H2 1665   3.103   1.355   1.375  0.2683  0.5819 -1.2913
   99HFI     O1 1666   1.935   0.994   1.324  0.1419 -0.3427 -0.1363
   99HFI     C1 1667   2.010   1.052   1.432  0.0834 -0.7583 -0.6021
   99HFI     C2 1668   2.093   0.956   1.519  0.6208  0.1275 -0.1072
   99HFI     F1 1669   2.177   1.017   1.600 -0.2185  0.3078  0.3824
   99HFI     F2 1670   2.171   0.872   1.442 -0.2386  0.4614 -0.0025
   99HFI     F3 1671   2.022   0.869   1.591  0.6220  0.1874 -0.4534
   99HFI     C3 1672   1.926   1.135   1.530  0.0834 -1.2645  0.2276
   99HFI     F4 1673   1.844   1.221   1.458 -0.1465  0.0547 -0.1460
   99HFI     F5 1674   2.002   1.222   1.600  0.1133  0.1699 -0.0388
   99HFI     F6 1675   1.844   1.056   1.611 -0.3615  0.1018  0.1474
   99HFI     H1 1676   1.991   0.920   1.294  0.6321 -0.4490  1.0249
   99HFI     H2 1677   2.074   1.132   1.394 -5.9915  4.6577 -0.2601
  100HFI     O1 1678   0.837   1.349   1.567  0.2954 -0.5972  0.4492
  100HFI     C1 1679   0.939   1.437   1.507 -0.0419  0.8972  0.1110
  100HFI     C2 1680   0.881   1.532   1.403  0.0316 -0.1714  0.1480
  100HFI     F1 1681   0.810   1.468   1.310 -0.5780  0.3038 -0.2646
  100HFI     F2 1682   0.982   1.599   1.345  0.6133 -0.3563  0.4417
  100HFI     F3 1683   0.802   1.619   1.473  0.2444  0.0990 -0.9070
  100HFI     C3 1684   1.061   1.354   1.452  0.0191  0.0414 -0.2084
  100HFI     F4 1685   1.098   1.267   1.548  0.0518  0.2527  0.4518
  100HFI     F5 1686   1.164   1.437   1.444  0.1280 -0.3477  0.4173
  100HFI     F6 1687   1.041   1.298   1.329  0.2400 -0.1232  0.1160
  100HFI     H1 1688   0.839   1.262   1.521  4.0559 -0.0262 -0.6133
  100HFI     H2 1689   0.967   1.509   1.585 -1.9545  1.0295  0.6998
  101HFI     O1 1690   1.464   0.735   1.170  0.1739  0.3022 -0.2902
  101HFI     C1 1691   1.583   0.679   1.096  0.5912 -0.6866  0.6289
  101HFI     C2 1692   1.676   0.791   1.033 -0.0261  0.5549  0.2036
  101HFI     F1 1693   1.685   0.889   1.121 -0.4579 -0.5146 -0.5959
  101HFI     F2 1694   1.639   0.847   0.915 -0.2326  0.1224  0.3916
  101HFI     F3 1695   1.808   0.747   1.025  0.2409  0.0758  0.3857
  101HFI     C3 1696   1.545   0.571   0.985 -0.1190  0.5227 -0.5244
  101HFI     F4 1697   1.437   0.609   0.922 -0.7583  0.0829 -0.3119
  101HFI     F5 1698   1.519   0.445   1.034 -0.0553 -0.0964  0.3159
  101HFI     F6 1699   1.639   0.555   0.900  0.2926 -0.1119  0.1437
  101HFI     H1 1700   1.386   0.709   1.118 -0.0376 -0.9765  0.6383
  101HFI     H2 1701   1.653   0.628   1.163 -1.2685 -1.8184  1.7477
  102HFI     O1 1702   3.105   0.897   0.315  0.5647 -0.1497  0.4982
  102HFI     C1 1703   3.135   0.765   0.260 -0.2798  0.3089 -0.5386
  102HFI     C2 1704   3.251   0.789   0.155  0.1002  0.6841 -0.8242
  102HFI     F1 1705   3.286   0.678   0.080 -0.2135  0.1065 -0.0941
  102HFI     F2 1706   3.362   0.838   0.217  0.1400  0.2549 -0.2449
  102HFI     F3 1707   3.215   0.884   0.068 -0.1310 -0.2447 -0.5231
  102HFI     C3 1708   3.010   0.703   0.197 -0.1895  0.0950 -0.0870
  102HFI     F4 1709   3.042   0.576   0.163 -0.0415  0.3812  1.0572
  102HFI     F5 1710   2.973   0.780   0.096  0.0134 -0.5681  0.3870
  102HFI     F6 1711   2.910   0.691   0.290 -0.4101  0.4417  0.3186
  102HFI     H1 1712   3.188   0.940   0.340  0.8384  0.9736 -2.1866
  102HFI     H2 1713   3.172   0.700   0.341 -3.1432 -2.1201 -1.0927
  103HFI     O1 1714   1.520   2.081   1.315 -0.6623  0.0269  0.2936
  103HFI     C1 1715   1.546   2.176   1.418  0.3327 -0.2337  0.3283
  103HFI     C2 1716   1.654   2.129   1.521 -0.0638  0.2210 -0.1353
  103HFI     F1 1717   1.692   2.232   1.598  0.3833  0.2991  0.0696
  103HFI     F2 1718   1.759   2.091   1.448  0.2379  0.3895  0.1805
  103HFI     F3 1719   1.625   2.022   1.601 -0.0208 -0.1794  0.4148
  103HFI     C3 1720   1.418   2.237   1.480  0.1088 -0.8329  0.1250
  103HFI     F4 1721   1.355   2.310   1.397 -0.2329  0.0373  0.2450
  103HFI     F5 1722   1.442   2.321   1.580 -0.1830  0.0919  0.7484
  103HFI     F6 1723   1.337   2.145   1.539 -0.4905  0.1090  0.0393
  103HFI     H1 1724   1.602   2.035   1.291 -0.4399 -0.0388  1.1639
  103HFI     H2 1725   1.587   2.265   1.368  0.5910 -0.2493  0.5122
  104HFI     O1 1726   2.125   0.278   3.597  0.5295 -0.0534 -0.1140
  104HFI     C1 1727   2.206   0.153   3.595 -0.7452  0.6302  0.2786
  104HFI     C2 1728   2.323   0.156   3.700  0.7332  0.5198 -0.1821
  104HFI     F1 1729   2.284   0.161   3.826  0.5944  0.0496  0.3533
  104HFI     F2 1730   2.394   0.274   3.684 -0.5074 -0.1977  0.2619
  104HFI     F3 1731   2.399   0.048   3.694 -0.1947  0.1072  0.1913
  104HFI     C3 1732   2.273   0.124   3.454 -0.0550  0.5262 -0.6305
  104HFI     F4 1733   2.378   0.202   3.425 -0.1633  0.0323  0.3736
  104HFI     F5 1734   2.183   0.139   3.355  0.2929 -0.0475  0.4400
  104HFI     F6 1735   2.317  -0.004   3.449 -0.1415  0.3305 -0.5398
  104HFI     H1 1736   2.121   0.303   3.504  0.1934 -2.2213 -0.6993
  104HFI     H2 1737   2.136   0.073   3.620  1.3445 -1.9131 -1.6641
  105HFI     O1 1738   0.997   2.156   0.156 -0.2180  0.1668  0.5410
  105HFI     C1 1739   0.978   2.297   0.125  0.0659  0.2161  0.0222
  105HFI     C2 1740   0.929   2.316  -0.021 -0.6903  0.4215  0.9607
  105HFI     F1 1741   1.019   2.270  -0.116  0.0475  0.0220 -0.7204
  105HFI     F2 1742   0.899   2.440  -0.065 -0.6793 -0.4051 -0.3248
  105HFI     F3 1743   0.816   2.245  -0.037 -0.0371  0.1451  0.3603
  105HFI     C3 1744   1.102   2.386   0.164 -0.1331 -0.6605  0.3747
  105HFI     F4 1745   1.077   2.520   0.156  0.3528  0.7641  0.2444
  105HFI     F5 1746   1.213   2.374   0.087 -0.7585  0.2501  0.1854
  105HFI     F6 1747   1.140   2.356   0.290  0.0029 -0.4040  0.2115
  105HFI     H1 1748   1.056   2.108   0.095 -0.5165 -0.0188  0.4013
  105HFI     H2 1749   0.909   2.338   0.200  0.8729 -0.7208  1.2915
  106HFI     O1 1750   0.832   2.243   0.801 -0.3004  0.0506  0.5395
  106HFI     C1 1751   0.809   2.147   0.912 -0.8093  0.2491 -0.5280
  106HFI     C2 1752   0.921   2.157   1.024  0.0403  0.4662 -0.2727
  106HFI     F1 1753   0.921   2.054   1.113  0.1713  0.0849  0.3386
  106HFI     F2 1754   0.900   2.268   1.105 -0.1519 -0.2937  0.2094
  106HFI     F3 1755   1.045   2.165   0.969 -0.6486 -0.5444 -0.2611
  106HFI     C3 1756   0.808   2.003   0.851 -0.6143 -0.5859  0.2343
  106HFI     F4 1757   0.717   1.997   0.754 -0.4325 -0.6318 -1.1128
  106HFI     F5 1758   0.772   1.914   0.940  0.1835 -0.5276 -0.4264
  106HFI     F6 1759   0.930   1.965   0.804 -0.0473  0.1936  0.7531
  106HFI     H1 1760   0.873   2.187   0.733 -1.4437  0.1700 -0.2446
  106HFI     H2 1761   0.719   2.168   0.971 -1.0908  0.2232 -0.9520
  107HFI     O1 1762   1.786   2.167   1.127  0.1107  0.0846  0.4025
  107HFI     C1 1763   1.732   2.077   1.012  0.0297  0.4992 -0.1679
  107HFI     C2 1764   1.770   1.917   1.034  0.3262  0.4895  0.3387
  107HFI     F1 1765   1.901   1.894   1.015 -0.3188  0.2435 -0.0678
  107HFI     F2 1766   1.694   1.840   0.953 -0.5935 -0.3710 -0.6145
  107HFI     F3 1767   1.731   1.881   1.161  0.2067 -0.5890  0.0543
  107HFI     C3 1768   1.787   2.122   0.874  0.4996  0.0582  0.8695
  107HFI     F4 1769   1.907   2.165   0.899  0.2828 -0.0117  0.4308
  107HFI     F5 1770   1.720   2.227   0.823  0.2339 -0.0016  0.2762
  107HFI     F6 1771   1.788   2.025   0.783 -0.4274  0.5466  0.1805
  107HFI     H1 1772   1.883   2.169   1.123  0.0191 -0.2003 -3.0282
  107HFI     H2 1773   1.622   2.072   1.018  0.1608 -0.5691  2.2273
  108HFI     O1 1774   2.173   0.602   0.689  0.1138  0.0544  0.3364
  108HFI     C1 1775   2.050   0.535   0.719  0.1267 -0.0096 -0.1633
  108HFI     C2 1776   2.043   0.465   0.854 -0.7381  0.9682 -0.2550
  108HFI     F1 1777   1.919   0.416   0.884 -0.1115 -0.2581 -0.3010
  108HFI     F2 1778   2.064   0.552   0.955 -0.3267  0.5857  0.0556
  108HFI     F3 1779   2.132   0.363   0.865 -0.2629 -0.3505 -0.0885
  108HFI     C3 1780   2.002   0.449   0.601 -0.5220 -0.0556 -0.1124
  108HFI     F4 1781   2.083   0.346   0.576  0.3514  0.0771 -0.1542
  108HFI     F5 1782   1.995   0.517   0.484 -0.0906 -0.2950  0.0822
  108HFI     F6 1783   1.884   0.389   0.628 -0.5673  0.1195  0.1047
  108HFI     H1 1784   2.181   0.665   0.762  0.1703 -0.8973  1.1636
  108HFI     H2 1785   1.970   0.610   0.729  0.2124  0.0055  0.4505
  109HFI     O1 1786   0.427   1.421   1.333 -0.0616  0.3474 -0.4556
  109HFI     C1 1787   0.303   1.436   1.409  0.2539  0.0088  0.3810
  109HFI     C2 1788   0.304   1.556   1.501  0.0601  0.6589 -0.4374
  109HFI     F1 1789   0.362   1.651   1.433  0.0751  0.4559 -0.0134
  109HFI     F2 1790   0.388   1.537   1.608 -0.0640  0.3314  0.4877
  109HFI     F3 1791   0.176   1.591   1.537 -0.2128  0.1484  0.1102
  109HFI     C3 1792   0.266   1.306   1.492 -0.5474 -0.1830  0.1955
  109HFI     F4 1793   0.248   1.205   1.402  0.3030  0.4114 -0.2407
  109HFI     F5 1794   0.156   1.319   1.558  0.3274  0.3807 -0.7947
  109HFI     F6 1795   0.366   1.259   1.575 -0.3220 -0.1025  0.1031
  109HFI     H1 1796   0.500   1.429   1.397 -2.2854 -0.4255  2.3070
  109HFI     H2 1797   0.216   1.447   1.343  0.4946  2.3383  0.3858
  110HFI     O1 1798   1.682   0.294   0.447 -0.6398  0.2376  0.5546
  110HFI     C1 1799   1.536   0.296   0.461  0.1016 -0.0098  0.1747
  110HFI     C2 1800   1.481   0.441   0.485 -0.0454 -0.0784 -0.7353
  110HFI     F1 1801   1.502   0.517   0.378  0.2665  0.1452 -0.7339
  110HFI     F2 1802   1.553   0.491   0.585 -0.2116 -0.6218  0.4663
  110HFI     F3 1803   1.350   0.440   0.503 -0.1759  0.0868 -0.8286
  110HFI     C3 1804   1.477   0.202   0.575 -0.4805 -0.2392 -0.4195
  110HFI     F4 1805   1.517   0.079   0.553  0.0828 -1.0476 -0.0847
  110HFI     F5 1806   1.340   0.198   0.578 -0.1240  0.2304 -0.1547
  110HFI     F6 1807   1.524   0.242   0.696 -0.4596 -0.0673 -0.3367
  110HFI     H1 1808   1.718   0.363   0.506 -0.0313  0.3474  0.0520
  110HFI     H2 1809   1.499   0.263   0.363 -0.4150 -1.8970  0.9833
  111HFI     O1 1810   0.844   1.096   1.486 -0.2115 -0.1045 -0.5288
  111HFI     C1 1811   0.737   1.003   1.521  0.6051  0.5118 -0.4598
  111HFI     C2 1812   0.786   0.855   1.527  0.7690  0.6446  0.0225
  111HFI     F1 1813   0.891   0.840   1.609 -0.1312  0.2001 -0.4888
  111HFI     F2 1814   0.833   0.818   1.411 -0.0511  0.1866 -0.1531
  111HFI     F3 1815   0.695   0.762   1.559  0.5129  0.2373 -0.3705
  111HFI     C3 1816   0.606   1.027   1.445  0.2339 -0.5839 -1.0965
  111HFI     F4 1817   0.594   1.162   1.413 -0.0385  0.0084  0.3109
  111HFI     F5 1818   0.499   0.990   1.513 -0.1789 -0.1401  0.3283
  111HFI     F6 1819   0.613   0.956   1.326 -0.0269  0.1194 -0.2313
  111HFI     H1 1820   0.920   1.057   1.441 -1.7898 -0.0835 -3.3164
  111HFI     H2 1821   0.705   1.018   1.625  1.3715 -1.8401  0.1456
  112HFI     O1 1822   2.005   2.642   0.791  0.1092  0.3052  0.4092
  112HFI     C1 1823   1.958   2.665   0.928  0.5836  0.3451 -0.3182
  112HFI     C2 1824   2.070   2.686   1.033 -0.7869  0.0192  0.4044
  112HFI     F1 1825   2.113   2.563   1.088 -0.1887 -0.2792  0.0844
  112HFI     F2 1826   2.028   2.763   1.133  0.4351  0.1625  0.2304
  112HFI     F3 1827   2.172   2.750   0.965 -0.4388 -0.0169  0.0525
  112HFI     C3 1828   1.856   2.563   0.982 -0.5384 -0.0597 -0.1222
  112HFI     F4 1829   1.836   2.564   1.115  0.6847  0.6099 -0.1821
  112HFI     F5 1830   1.903   2.440   0.949  0.1532  0.2292 -0.5420
  112HFI     F6 1831   1.734   2.576   0.925 -0.0002 -0.2430  0.2747
  112HFI     H1 1832   2.077   2.577   0.783  1.7374  1.9410  1.2635
  112HFI     H2 1833   1.902   2.760   0.929  0.4030  0.3132 -3.3827
  113HFI     O1 1834   1.323   1.026   1.306  0.0340  0.5723 -0.2622
  113HFI     C1 1835   1.363   0.937   1.420  0.3414 -0.0641  0.3564
  113HFI     C2 1836   1.261   0.939   1.531  0.0913  0.4231  0.1428
  113HFI     F1 1837   1.276   1.042   1.609 -0.5054  0.3717 -0.3723
  113HFI     F2 1838   1.252   0.828   1.608  0.3629 -0.0443 -0.7418
  113HFI     F3 1839   1.133   0.954   1.480  0.1007  0.1988  0.1117
  113HFI     C3 1840   1.507   0.967   1.472  0.1774 -0.5244 -0.3884
  113HFI     F4 1841   1.532   0.884   1.578 -0.4200 -0.0738  0.3025
  113HFI     F5 1842   1.525   1.089   1.516  0.3433 -0.1801 -0.1914
  113HFI     F6 1843   1.603   0.944   1.380  0.2864  0.6335 -0.2516
  113HFI     H1 1844   1.331   1.115   1.344  0.3508  0.5986 -0.3865
  113HFI     H2 1845   1.374   0.837   1.374  1.3123  1.5415 -3.0943
  114HFI     O1 1846   0.863   3.122   0.589 -0.0957  0.0229  0.1411
  114HFI     C1 1847   1.002   3.094   0.558 -0.0510 -0.1617 -0.5448
  114HFI     C2 1848   1.098   3.219   0.578 -0.6519  0.1199 -0.4150
  114HFI     F1 1849   1.215   3.189   0.650 -0.2986 -0.3913  0.1030
  114HFI     F2 1850   1.034   3.319   0.650 -0.3260 -0.3138  0.4578
  114HFI     F3 1851   1.133   3.274   0.464 -0.3471  0.0244  0.6927
  114HFI     C3 1852   1.022   3.022   0.425 -0.5716  0.2700  1.1806
  114HFI     F4 1853   0.965   2.903   0.430 -0.1888 -0.1730  0.2943
  114HFI     F5 1854   1.148   2.997   0.392  0.1057 -0.7202 -0.1855
  114HFI     F6 1855   0.962   3.084   0.324 -0.4055  0.0732 -0.4929
  114HFI     H1 1856   0.834   3.213   0.571 -0.0860  0.8633  3.9071
  114HFI     H2 1857   1.039   3.021   0.631  2.0102  1.7546  0.4271
  115HFI     O1 1858   2.416   2.580   1.249 -0.5063  0.1021 -0.2064
  115HFI     C1 1859   2.397   2.511   1.381 -0.4006  0.1806 -0.1782
  115HFI     C2 1860   2.259   2.550   1.441 -0.0004 -0.4070 -0.0875
  115HFI     F1 1861   2.155   2.489   1.376  0.0046  0.1424 -0.2715
  115HFI     F2 1862   2.247   2.687   1.428 -0.0445 -0.3668  0.9870
  115HFI     F3 1863   2.255   2.537   1.579 -0.4428 -0.0269  0.1513
  115HFI     C3 1864   2.520   2.524   1.483  0.7032 -0.3835  0.0107
  115HFI     F4 1865   2.515   2.418   1.564 -0.3397  0.3486 -0.0919
  115HFI     F5 1866   2.525   2.630   1.564  0.0862 -0.2654 -0.1669
  115HFI     F6 1867   2.639   2.521   1.418  0.5811  0.1936 -0.2932
  115HFI     H1 1868   2.411   2.676   1.260  0.2613  0.0157  0.9006
  115HFI     H2 1869   2.387   2.403   1.361 -0.8868 -0.2204  2.0465
  116HFI     O1 1870   1.216   0.067   1.163  0.4056  0.4978 -0.3537
  116HFI     C1 1871   1.210   0.034   1.019 -0.0821  0.2798 -0.1533
  116HFI     C2 1872   1.356   0.018   0.967  0.8044  0.2796  0.7339
  116HFI     F1 1873   1.418   0.136   0.977  0.2050  0.0802 -0.5021
  116HFI     F2 1874   1.378  -0.028   0.845 -0.0261  0.6593  0.5626
  116HFI     F3 1875   1.413  -0.067   1.053  0.4220 -0.1982  0.5112
  116HFI     C3 1876   1.128   0.139   0.939  0.4411  0.3861  0.2410
  116HFI     F4 1877   1.174   0.267   0.955  0.2932  0.1345  0.0326
  116HFI     F5 1878   0.994   0.130   0.958 -0.4826 -0.2361 -0.4913
  116HFI     F6 1879   1.143   0.118   0.806 -0.5029  0.4302 -0.1680
  116HFI     H1 1880   1.125   0.089   1.190  0.0331  1.0177 -1.9689
  116HFI     H2 1881   1.169  -0.067   1.013  0.9256 -0.1835  0.6945
  117HFI     O1 1882   0.877   0.916   0.938  0.2690 -0.2694  0.4709
  117HFI     C1 1883   1.012   0.946   0.960  0.0146  0.5391 -0.1439
  117HFI     C2 1884   1.103   0.816   0.966 -0.6983 -0.5509  0.0830
  117HFI     F1 1885   1.053   0.727   1.054  0.6973 -0.0257  0.7433
  117HFI     F2 1886   1.231   0.842   1.013 -0.8780 -0.7088 -0.0689
  117HFI     F3 1887   1.114   0.755   0.851 -0.1158  0.1247 -0.7167
  117HFI     C3 1888   1.034   1.030   1.088  0.6485 -0.1403  0.1716
  117HFI     F4 1889   0.942   1.132   1.102 -0.2242  0.1083  0.0872
  117HFI     F5 1890   1.156   1.092   1.090  0.0903  0.1402  0.3373
  117HFI     F6 1891   1.017   0.971   1.202  0.2097 -0.5597  0.1475
  117HFI     H1 1892   0.825   0.963   1.006 -1.4738 -0.5911 -0.5965
  117HFI     H2 1893   1.055   1.004   0.878 -1.9682 -0.0517 -1.6462
  118HFI     O1 1894   0.317   0.426   2.464 -0.4660  0.1184  0.4025
  118HFI     C1 1895   0.435   0.398   2.381 -0.0349  0.7464  0.9330
  118HFI     C2 1896   0.490   0.528   2.313  0.0414 -0.1405 -0.2318
  118HFI     F1 1897   0.413   0.583   2.215 -0.3203 -0.1330 -0.1348
  118HFI     F2 1898   0.617   0.512   2.272  0.1359  0.3717 -0.1971
  118HFI     F3 1899   0.495   0.629   2.397  0.2559 -0.1369  0.1474
  118HFI     C3 1900   0.408   0.286   2.276  0.1691 -0.2170 -0.1221
  118HFI     F4 1901   0.329   0.345   2.176  0.2145 -0.0565 -0.6132
  118HFI     F5 1902   0.352   0.180   2.330 -0.0992  0.9244 -0.2075
  118HFI     F6 1903   0.520   0.239   2.214 -0.5165  0.4502 -0.3774
  118HFI     H1 1904   0.270   0.502   2.426 -0.6959  0.8168  2.0407
  118HFI     H2 1905   0.517   0.351   2.437  0.6498 -1.1377 -1.5315
  119HFI     O1 1906   0.374   2.901   2.965 -0.1418 -0.0710 -0.1948
  119HFI     C1 1907   0.416   3.041   2.940  0.1132  0.0231  0.7391
  119HFI     C2 1908   0.366   3.142   3.050  0.1036 -0.5376 -0.3026
  119HFI     F1 1909   0.413   3.098   3.168  0.2852 -0.6595  0.2529
  119HFI     F2 1910   0.232   3.154   3.059  0.4810 -0.5666  0.5264
  119HFI     F3 1911   0.414   3.266   3.032 -0.0920  0.6361 -0.1873
  119HFI     C3 1912   0.380   3.083   2.797  0.8253  0.3864  0.1150
  119HFI     F4 1913   0.418   3.212   2.770  0.2736  0.0449  0.2032
  119HFI     F5 1914   0.243   3.075   2.779 -0.2186 -0.5796 -0.1675
  119HFI     F6 1915   0.428   2.997   2.702  0.0392 -0.9989 -0.3109
  119HFI     H1 1916   0.278   2.888   2.955 -0.3734 -1.5598  3.2801
  119HFI     H2 1917   0.525   3.046   2.942  0.0915  0.9315  0.1724
  120HFI     O1 1918   1.385   2.536   2.455  0.3645  0.4779  0.1121
  120HFI     C1 1919   1.487   2.469   2.379  0.1926 -0.0593  0.2279
  120HFI     C2 1920   1.562   2.571   2.293 -0.3999 -0.7112  0.3772
  120HFI     F1 1921   1.610   2.671   2.365  1.5092  0.1939  0.4981
  120HFI     F2 1922   1.482   2.626   2.202  0.5053  0.1661 -0.1341
  120HFI     F3 1923   1.668   2.516   2.230  0.2258 -0.0501  0.1815
  120HFI     C3 1924   1.428   2.349   2.289 -0.7624 -0.0253 -0.0654
  120HFI     F4 1925   1.375   2.251   2.369  0.4869  0.0843  0.1860
  120HFI     F5 1926   1.521   2.305   2.215  0.0020  0.0389 -0.1667
  120HFI     F6 1927   1.330   2.394   2.217 -0.1414 -0.1192  0.2843
  120HFI     H1 1928   1.321   2.576   2.395 -1.5790 -1.7134  0.6910
  120HFI     H2 1929   1.566   2.428   2.443  1.1888 -0.0505 -0.9842
  121HFI     O1 1930   1.401   3.229   2.510 -1.4023 -0.0092  0.5264
  121HFI     C1 1931   1.325   3.311   2.416 -0.7605  0.7114 -0.4442
  121HFI     C2 1932   1.172   3.320   2.447  0.2840 -0.0607 -0.1132
  121HFI     F1 1933   1.143   3.303   2.579  0.0643 -0.1857  0.0388
  121HFI     F2 1934   1.114   3.224   2.379  0.0291  0.2693 -0.0605
  121HFI     F3 1935   1.117   3.441   2.415 -0.0613  0.1615 -0.0524
  121HFI     C3 1936   1.366   3.270   2.277  0.3527 -0.2733  0.1308
  121HFI     F4 1937   1.497   3.285   2.261 -0.1835 -0.0360  0.1178
  121HFI     F5 1938   1.307   3.347   2.192 -0.3855  0.0871  0.1183
  121HFI     F6 1939   1.346   3.139   2.250 -0.3880  0.0396  0.7022
  121HFI     H1 1940   1.396   3.137   2.479  1.0992 -0.3393  0.9735
  121HFI     H2 1941   1.369   3.412   2.420 -1.7556  1.1667 -0.6943
  122HFI     O1 1942   2.682   1.733   2.482 -0.7521  0.0150 -0.5018
  122HFI     C1 1943   2.816   1.755   2.470 -0.3249  0.3118  0.3909
  122HFI     C2 1944   2.866   1.847   2.576  0.2695 -0.4205 -0.1379
  122HFI     F1 1945   2.836   1.976   2.544  0.0562  0.3807  0.0848
  122HFI     F2 1946   2.999   1.835   2.587 -0.1390  0.2291 -0.1292
  122HFI     F3 1947   2.807   1.819   2.696  0.0429  0.1324 -0.0988
  122HFI     C3 1948   2.851   1.796   2.323  0.4271  0.4203  0.3845
  122HFI     F4 1949   2.835   1.682   2.249 -0.1993 -0.0874 -0.0028
  122HFI     F5 1950   2.972   1.855   2.303  0.1219  0.4024  0.1026
  122HFI     F6 1951   2.767   1.881   2.271 -0.2473  0.0440 -0.0931
  122HFI     H1 1952   2.662   1.654   2.535 -1.5909 -0.7196 -1.8781
  122HFI     H2 1953   2.881   1.668   2.487 -0.3540  0.1047 -0.5402
  123HFI     O1 1954   2.079   1.177   3.395  0.6965  0.4321  0.4912
  123HFI     C1 1955   2.000   1.127   3.510  0.0322  0.4268 -0.2890
  123HFI     C2 1956   2.090   1.075   3.633 -0.6569 -0.1674  0.2656
  123HFI     F1 1957   2.024   1.014   3.733  0.2083  0.3374  0.2742
  123HFI     F2 1958   2.166   1.168   3.693  0.1258 -0.3172 -0.7776
  123HFI     F3 1959   2.175   0.976   3.584  0.2309 -0.3237 -0.1501
  123HFI     C3 1960   1.901   1.019   3.460  0.1623  0.5638  0.4208
  123HFI     F4 1961   1.964   0.915   3.401  1.0624 -0.2092  0.2548
  123HFI     F5 1962   1.816   1.072   3.370 -0.0534 -0.2098 -0.1720
  123HFI     F6 1963   1.817   0.966   3.556 -0.0792 -0.0324 -0.2399
  123HFI     H1 1964   2.130   1.102   3.359 -0.9911 -0.4402 -0.1304
  123HFI     H2 1965   1.936   1.206   3.550  0.4671 -0.3210  1.9669
  124HFI     O1 1966   0.925   1.044   3.187  0.9766  0.2616  0.4662
  124HFI     C1 1967   0.967   1.159   3.266 -0.7525  0.0633  0.2594
  124HFI     C2 1968   0.981   1.129   3.415 -0.1671 -0.0034 -0.2686
  124HFI     F1 1969   0.989   1.238   3.488 -0.5299  0.3744  0.3686
  124HFI     F2 1970   1.089   1.057   3.438 -0.0155  0.1392 -0.1337
  124HFI     F3 1971   0.883   1.057   3.461  0.2918 -0.0141  0.1093
  124HFI     C3 1972   0.872   1.283   3.235 -0.2571 -0.1405 -0.0637
  124HFI     F4 1973   0.907   1.395   3.294 -0.3001  0.5850 -0.2727
  124HFI     F5 1974   0.756   1.249   3.276 -0.5319  0.3075 -0.5202
  124HFI     F6 1975   0.869   1.302   3.099  0.4841  0.4917 -0.2637
  124HFI     H1 1976   0.831   1.050   3.164  0.7740  0.4721  1.3431
  124HFI     H2 1977   1.068   1.191   3.237 -0.5759 -2.7067 -2.3851
  125HFI     O1 1978   3.127   1.214   3.748  0.1486  0.5324 -0.2568
  125HFI     C1 1979   3.009   1.245   3.824 -0.0848 -0.2340 -0.0274
  125HFI     C2 1980   2.907   1.329   3.747 -0.1222  0.4216 -0.6669
  125HFI     F1 1981   2.872   1.271   3.631  0.0298 -0.3610 -0.0802
  125HFI     F2 1982   2.956   1.447   3.713 -0.3379  0.3666 -0.0790
  125HFI     F3 1983   2.792   1.356   3.819  0.1053  0.1659  0.3619
  125HFI     C3 1984   3.045   1.301   3.965  0.4659 -0.0231 -0.0541
  125HFI     F4 1985   3.109   1.418   3.954 -0.3226  0.0899 -0.0532
  125HFI     F5 1986   3.131   1.213   4.017 -0.1404 -0.3534  0.0107
  125HFI     F6 1987   2.944   1.312   4.047 -0.5607  0.4889 -0.3374
  125HFI     H1 1988   3.205   1.247   3.795  0.1358  0.8068 -0.4244
  125HFI     H2 1989   2.953   1.153   3.841 -0.7922  0.4642  1.4780
  126HFI     O1 1990   2.098   2.896   2.350  0.5511 -0.3504  0.1688
  126HFI     C1 1991   2.014   2.978   2.268  0.2497  0.4558 -0.7730
  126HFI     C2 1992   2.027   3.129   2.305  0.2700  0.3569  0.2726
  126HFI     F1 1993   1.993   3.153   2.435 -0.1331 -0.3219 -0.1617
  126HFI     F2 1994   1.956   3.203   2.216  0.0457  0.5729  0.2096
  126HFI     F3 1995   2.159   3.170   2.302  0.1803 -0.3405 -0.0637
  126HFI     C3 1996   1.870   2.921   2.297  0.4173  0.0093 -0.4367
  126HFI     F4 1997   1.778   3.001   2.227  0.0807  0.6476 -0.0463
  126HFI     F5 1998   1.839   2.914   2.432  0.4901  0.3573 -0.2972
  126HFI     F6 1999   1.861   2.799   2.247  0.2511  0.0965 -0.1124
  126HFI     H1 2000   2.188   2.886   2.314  0.8460 -1.3993  1.1815
  126HFI     H2 2001   2.029   2.956   2.162  1.4550 -1.2699 -0.2810
  127HFI     O1 2002   0.184   1.049   3.468 -0.3148  0.5781  0.1120
  127HFI     C1 2003   0.196   1.029   3.618 -0.6031 -0.2120  0.6086
  127HFI     C2 2004   0.080   1.099   3.697 -0.4123 -0.1214 -0.0751
  127HFI     F1 2005   0.095   1.070   3.829 -0.7644 -0.0423 -0.1102
  127HFI     F2 2006  -0.043   1.052   3.665  0.1256  0.2335 -0.4358
  127HFI     F3 2007   0.082   1.229   3.691 -0.2848 -0.4356 -0.2584
  127HFI     C3 2008   0.339   1.068   3.670 -0.1155 -0.3929  0.0480
  127HFI     F4 2009   0.356   1.206   3.660  0.4944  0.0687  0.0428
  127HFI     F5 2010   0.435   1.006   3.602  0.4112 -0.0231 -0.0867
  127HFI     F6 2011   0.347   1.035   3.795  0.2662 -0.0862 -0.7012
  127HFI     H1 2012   0.189   1.144   3.447  0.9762  0.4838 -0.0714
  127HFI     H2 2013   0.190   0.922   3.641  0.0169 -0.7773 -1.6522
  128HFI     O1 2014   0.593   2.908   2.339 -0.0800 -0.0166 -0.3034
  128HFI     C1 2015   0.492   2.828   2.399 -0.0181  0.1203  0.1308
  128HFI     C2 2016   0.552   2.705   2.467 -0.0364  0.4150  0.0057
  128HFI     F1 2017   0.454   2.623   2.513  0.0990 -0.1372  0.5784
  128HFI     F2 2018   0.627   2.741   2.575 -0.2074  0.2692  0.3287
  128HFI     F3 2019   0.629   2.630   2.385  0.0431  0.7239 -0.2306
  128HFI     C3 2020   0.375   2.801   2.296 -0.0775 -0.0371 -0.3105
  128HFI     F4 2021   0.343   2.906   2.227  0.1300  0.0682  0.3866
  128HFI     F5 2022   0.272   2.770   2.373 -0.1231  0.4111 -0.1556
  128HFI     F6 2023   0.403   2.701   2.205  0.1131  0.0485  0.7072
  128HFI     H1 2024   0.677   2.860   2.352 -0.9134 -1.3452  0.2566
  128HFI     H2 2025   0.434   2.890   2.469 -0.7998 -1.8065  1.2174
  129HFI     O1 2026   1.952   1.950   3.109  0.1278  0.8218  0.4656
  129HFI     C1 2027   2.016   2.060   3.031 -0.1214 -0.1215  0.5385
  129HFI     C2 2028   1.927   2.110   2.910 -1.1937 -0.5637  0.1224
  129HFI     F1 2029   1.896   2.013   2.820 -0.0128  0.2914 -0.4336
  129HFI     F2 2030   1.989   2.209   2.846  0.1654  0.3540 -0.3793
  129HFI     F3 2031   1.814   2.172   2.967  0.3991 -0.3920  0.0607
  129HFI     C3 2032   2.150   2.005   2.973  0.1234 -0.1115  0.0242
  129HFI     F4 2033   2.218   2.098   2.896  0.2079  0.0338  0.0915
  129HFI     F5 2034   2.124   1.893   2.900 -0.3296 -0.1739 -0.1098
  129HFI     F6 2035   2.237   1.974   3.075  0.2919 -0.1807  0.4222
  129HFI     H1 2036   2.000   1.868   3.089  1.2879  1.9734 -1.5391
  129HFI     H2 2037   2.054   2.138   3.098  2.7248 -0.9107 -0.0814
  130HFI     O1 2038   1.777   3.212   0.464  0.2279  0.1826  0.0513
  130HFI     C1 2039   1.728   3.093   0.408 -0.0074 -0.0248  0.2215
  130HFI     C2 2040   1.579   3.110   0.362  0.7092  0.2168 -0.6073
  130HFI     F1 2041   1.497   3.142   0.466  0.4309 -0.5087 -0.2412
  130HFI     F2 2042   1.527   2.994   0.312  0.0425  0.2036  0.3254
  130HFI     F3 2043   1.575   3.203   0.270  0.0181  0.5707  0.1262
  130HFI     C3 2044   1.751   2.969   0.504 -0.1303  0.6705 -0.5682
  130HFI     F4 2045   1.679   2.972   0.617 -0.1223 -0.5439  0.0816
  130HFI     F5 2046   1.882   2.951   0.533  0.4203 -0.3742 -0.5177
  130HFI     F6 2047   1.712   2.857   0.438  0.0088 -0.1736  0.5060
  130HFI     H1 2048   1.699   3.267   0.479 -0.7205 -0.9182 -0.7584
  130HFI     H2 2049   1.789   3.078   0.318  2.2680  1.8369  1.3673
  131HFI     O1 2050   0.074   3.333   0.080  0.2091 -0.1660 -0.3995
  131HFI     C1 2051   0.182   3.229   0.069 -0.1053 -0.5100 -0.6565
  131HFI     C2 2052   0.290   3.291  -0.025  0.1812  0.0912 -0.0600
  131HFI     F1 2053   0.362   3.384   0.050 -0.9493 -0.1660  0.0357
  131HFI     F2 2054   0.240   3.351  -0.136 -0.3186 -0.5208 -0.5096
  131HFI     F3 2055   0.376   3.200  -0.075  0.4297  0.3373 -0.0615
  131HFI     C3 2056   0.120   3.088   0.027 -0.0931 -0.0578  0.6191
  131HFI     F4 2057   0.090   3.084  -0.103 -0.2636 -0.3844 -0.3512
  131HFI     F5 2058   0.007   3.058   0.097  0.3730 -0.2257 -0.1576
  131HFI     F6 2059   0.194   2.982   0.050 -0.1084 -0.1825 -0.0171
  131HFI     H1 2060   0.041   3.328   0.172  1.4611  1.0525  0.1383
  131HFI     H2 2061   0.230   3.215   0.167  3.0866  2.4350 -1.7122
  132HFI     O1 2062   1.267   2.837   0.153 -0.1475 -0.6698 -0.4379
  132HFI     C1 2063   1.217   2.905   0.035 -0.3921 -0.5033 -0.2783
  132HFI     C2 2064   1.221   3.059   0.045 -0.2372  0.8792 -0.7216
  132HFI     F1 2065   1.336   3.091   0.116 -0.5113  0.0926  0.3780
  132HFI     F2 2066   1.117   3.109   0.118 -0.5133  0.0790 -0.3467
  132HFI     F3 2067   1.245   3.122  -0.076  0.3970 -0.0884  0.1786
  132HFI     C3 2068   1.080   2.856  -0.027  0.1593  0.2497  0.4456
  132HFI     F4 2069   1.085   2.728  -0.065  0.1250  0.3397  0.0233
  132HFI     F5 2070   1.041   2.923  -0.132  0.4986  0.2156 -0.1813
  132HFI     F6 2071   0.977   2.855   0.064 -0.3290 -0.5120 -0.0451
  132HFI     H1 2072   1.355   2.874   0.173 -0.9199  0.1486  1.5849
  132HFI     H2 2073   1.285   2.885  -0.049 -1.1806 -1.7745 -0.6249
  133HFI     O1 2074   2.928   0.814   2.237 -0.6292  0.3286 -0.4461
  133HFI     C1 2075   2.800   0.765   2.303 -0.0356  0.1796 -0.9147
  133HFI     C2 2076   2.766   0.845   2.436 -1.0872 -0.2522  0.0744
  133HFI     F1 2077   2.785   0.981   2.421  0.1724  0.1937 -0.0495
  133HFI     F2 2078   2.833   0.801   2.544 -0.0992 -0.2428 -0.4842
  133HFI     F3 2079   2.638   0.829   2.470 -0.2570 -0.0061  0.3829
  133HFI     C3 2080   2.800   0.611   2.318  0.1213 -0.2404 -1.2138
  133HFI     F4 2081   2.695   0.567   2.393 -0.3864  0.4326  0.7488
  133HFI     F5 2082   2.918   0.561   2.376 -0.3280 -0.1477 -0.2307
  133HFI     F6 2083   2.788   0.560   2.197 -0.3309  0.4989 -0.6891
  133HFI     H1 2084   2.961   0.889   2.289  1.6762 -0.9146 -0.0443
  133HFI     H2 2085   2.717   0.784   2.233 -0.4779  2.9412  0.3022
  134HFI     O1 2086   2.944   2.800   3.705 -0.9874 -0.2970 -0.4308
  134HFI     C1 2087   3.027   2.907   3.768  0.0272  0.3928  0.4354
  134HFI     C2 2088   2.954   2.988   3.875 -0.2224 -0.2984 -0.2837
  134HFI     F1 2089   2.889   2.909   3.963  0.0542  0.5118  0.1037
  134HFI     F2 2090   2.856   3.055   3.809 -0.7507  0.2377  0.0119
  134HFI     F3 2091   3.024   3.080   3.950 -0.0783  0.5151 -0.1525
  134HFI     C3 2092   3.094   2.991   3.656 -0.0119 -0.1292 -0.1022
  134HFI     F4 2093   3.188   2.914   3.594 -0.3811 -0.3974 -0.1529
  134HFI     F5 2094   3.159   3.106   3.703 -0.2292  0.2302 -0.1142
  134HFI     F6 2095   3.003   3.027   3.568  0.8894  0.2513  0.3254
  134HFI     H1 2096   2.983   2.773   3.620 -0.6556  1.6223 -0.9058
  134HFI     H2 2097   3.110   2.866   3.827 -1.7382 -0.9196  2.0500
  135HFI     O1 2098   3.382   2.285   2.484  0.3834  0.3763 -0.2447
  135HFI     C1 2099   3.281   2.279   2.377  0.1819  0.0972  0.4288
  135HFI     C2 2100   3.285   2.141   2.299  0.0798  0.0036  0.6440
  135HFI     F1 2101   3.286   2.039   2.387  0.3327 -0.0295 -0.2394
  135HFI     F2 2102   3.392   2.139   2.212  0.3301  0.2136  0.1192
  135HFI     F3 2103   3.169   2.127   2.229 -0.4504 -0.4745 -0.0139
  135HFI     C3 2104   3.280   2.412   2.289  0.4477 -0.2491 -0.4297
  135HFI     F4 2105   3.153   2.431   2.235 -0.0504  0.4326 -0.6552
  135HFI     F5 2106   3.373   2.421   2.193  0.0455  0.1943 -0.0572
  135HFI     F6 2107   3.305   2.525   2.371  0.0626  0.1793 -0.4681
  135HFI     H1 2108   3.422   2.198   2.501 -1.3951 -0.3843  0.1282
  135HFI     H2 2109   3.178   2.288   2.413  0.0986  2.6523 -0.3760
  136HFI     O1 2110   0.920   2.136   2.471 -0.2773 -0.3274 -0.1332
  136HFI     C1 2111   0.947   2.241   2.370 -0.7771  0.1345  0.3952
  136HFI     C2 2112   1.023   2.376   2.429  0.9927  0.0590 -0.2601
  136HFI     F1 2113   1.140   2.346   2.489  0.3525 -0.6683 -0.0071
  136HFI     F2 2114   0.938   2.436   2.525 -0.4154  0.1027  0.5399
  136HFI     F3 2115   1.047   2.461   2.321 -0.2743 -0.2917 -0.6880
  136HFI     C3 2116   0.822   2.267   2.290 -0.2613  0.4435  0.7630
  136HFI     F4 2117   0.832   2.361   2.192  0.3038 -0.2949  0.2368
  136HFI     F5 2118   0.711   2.304   2.356  0.0895  0.2957 -0.3548
  136HFI     F6 2119   0.787   2.152   2.229 -0.6922 -0.5913 -0.2205
  136HFI     H1 2120   0.974   2.057   2.455 -1.5456 -1.0462 -0.9998
  136HFI     H2 2121   1.027   2.199   2.308 -0.3393 -0.9833  1.7101
  137HFI     O1 2122   3.043   1.523   2.621  0.2144 -0.3501  0.6501
  137HFI     C1 2123   3.033   1.462   2.744  0.2105 -0.0767  0.6005
  137HFI     C2 2124   3.172   1.437   2.809 -0.3512  0.3159  0.3169
  137HFI     F1 2125   3.239   1.336   2.753  0.3083 -0.2283 -0.3730
  137HFI     F2 2126   3.154   1.398   2.940 -0.2361 -0.0614  0.3277
  137HFI     F3 2127   3.255   1.549   2.802 -0.1794  0.1891  0.2342
  137HFI     C3 2128   2.932   1.337   2.755 -0.7426  0.5354 -0.1508
  137HFI     F4 2129   2.830   1.377   2.684  0.4264  0.2045 -0.1889
  137HFI     F5 2130   2.894   1.313   2.880 -0.5952  0.4112  0.5325
  137HFI     F6 2131   2.983   1.219   2.704  0.1082  0.4824 -0.0499
  137HFI     H1 2132   3.136   1.551   2.612  0.3143 -0.6368  0.7834
  137HFI     H2 2133   2.993   1.532   2.818  1.6047 -0.2602  1.5593
  138HFI     O1 2134   3.079   1.012   2.387  0.4849  0.3595  0.1803
  138HFI     C1 2135   3.143   1.134   2.322 -0.3060 -0.0911 -0.6852
  138HFI     C2 2136   3.272   1.167   2.397 -0.1903 -0.0325 -0.0418
  138HFI     F1 2137   3.349   1.059   2.393 -0.0999 -0.5428  0.0078
  138HFI     F2 2138   3.250   1.183   2.530  0.5687  0.0636  0.1746
  138HFI     F3 2139   3.338   1.272   2.349  0.0550 -0.1294 -0.0456
  138HFI     C3 2140   3.049   1.254   2.310  0.2300  1.1529 -0.0875
  138HFI     F4 2141   3.027   1.304   2.429 -0.1357 -0.0099 -0.0111
  138HFI     F5 2142   2.925   1.209   2.262  0.1951  0.3231  0.5933
  138HFI     F6 2143   3.100   1.352   2.227 -0.1889 -0.5533  0.8717
  138HFI     H1 2144   3.107   1.009   2.480  0.7916  0.3137  0.0849
  138HFI     H2 2145   3.167   1.102   2.220  0.4202 -2.8592  0.3320
  139HFI     O1 2146   0.393   2.227   3.740 -0.1918 -0.0778 -0.0615
  139HFI     C1 2147   0.311   2.110   3.716 -0.2697 -0.0869  0.0366
  139HFI     C2 2148   0.259   2.060   3.852  0.4053  0.1855 -0.2344
  139HFI     F1 2149   0.353   2.035   3.940 -0.7278  0.1752  0.2405
  139HFI     F2 2150   0.191   1.944   3.835  0.3438 -0.2800  0.1484
  139HFI     F3 2151   0.179   2.157   3.902  0.3397 -0.6131  0.0090
  139HFI     C3 2152   0.376   1.992   3.642 -0.2871 -0.4808  0.1344
  139HFI     F4 2153   0.454   1.915   3.715 -0.0254 -0.4346  0.4222
  139HFI     F5 2154   0.445   2.044   3.541  0.0430 -0.0417 -0.2473
  139HFI     F6 2155   0.284   1.904   3.597 -0.0684 -0.0948  0.6999
  139HFI     H1 2156   0.471   2.233   3.683 -0.1355  0.4563  0.0742
  139HFI     H2 2157   0.217   2.137   3.666  1.3822 -0.7818 -3.5681
  140HFI     O1 2158   1.948   1.603   0.650  0.2364  0.2662  0.2175
  140HFI     C1 2159   1.826   1.585   0.565  0.7282 -0.4024 -0.5870
  140HFI     C2 2160   1.822   1.439   0.508  0.0974 -0.4336  0.1444
  140HFI     F1 2161   1.830   1.354   0.607 -0.4624 -0.2459 -0.0829
  140HFI     F2 2162   1.919   1.412   0.416 -0.6874  0.9871 -0.3144
  140HFI     F3 2163   1.702   1.419   0.448  0.3603  0.0764 -0.1238
  140HFI     C3 2164   1.810   1.701   0.459  0.1293  0.3794 -0.8177
  140HFI     F4 2165   1.703   1.689   0.374  0.3898 -0.7332  0.4647
  140HFI     F5 2166   1.923   1.714   0.388 -0.1298 -0.1128 -0.6822
  140HFI     F6 2167   1.791   1.816   0.523 -0.1728 -0.0551 -0.2061
  140HFI     H1 2168   2.027   1.584   0.596 -0.7421 -1.1575 -0.7226
  140HFI     H2 2169   1.733   1.600   0.622  1.6052  1.0924  0.4816
  141HFI     O1 2170   2.448   2.780   3.291  0.3108  0.0107  0.5172
  141HFI     C1 2171   2.578   2.837   3.311 -0.0542 -0.2767  0.4677
  141HFI     C2 2172   2.671   2.785   3.199 -0.0505  0.1614 -0.5716
  141HFI     F1 2173   2.623   2.809   3.076 -0.6371 -0.8493  0.0063
  141HFI     F2 2174   2.685   2.654   3.202 -0.0246 -0.0093  0.1685
  141HFI     F3 2175   2.798   2.844   3.209  0.2197 -0.3243 -0.1290
  141HFI     C3 2176   2.634   2.792   3.450  0.3003  0.0431  0.1005
  141HFI     F4 2177   2.628   2.663   3.472  0.0550 -0.1326 -0.2472
  141HFI     F5 2178   2.567   2.860   3.546 -0.5795 -0.3117  0.2556
  141HFI     F6 2179   2.763   2.832   3.464 -0.3852  0.2065 -0.3154
  141HFI     H1 2180   2.464   2.688   3.261 -1.8155 -0.3152  0.3360
  141HFI     H2 2181   2.586   2.946   3.307  1.6615 -0.3448  1.3994
  142HFI     O1 2182   2.098   1.239   0.895  0.0122 -0.4289  0.1998
  142HFI     C1 2183   2.137   1.106   0.846  0.4069 -0.0895  0.0016
  142HFI     C2 2184   2.124   1.106   0.688 -0.1746  0.3927 -1.0403
  142HFI     F1 2185   2.167   0.980   0.628  0.6785 -0.3039 -0.1068
  142HFI     F2 2186   2.193   1.208   0.624 -0.1078  0.7720 -0.1346
  142HFI     F3 2187   1.994   1.128   0.652  0.7442 -0.3353  0.3072
  142HFI     C3 2188   2.064   0.990   0.916  0.4060  0.0120 -0.3139
  142HFI     F4 2189   2.044   1.032   1.043 -0.8230  0.1130 -0.3668
  142HFI     F5 2190   2.132   0.872   0.917  0.1144  0.2920 -0.8635
  142HFI     F6 2191   1.947   0.967   0.861  0.0664  0.5965  0.1736
  142HFI     H1 2192   2.009   1.239   0.936  0.7934  2.2235  2.0121
  142HFI     H2 2193   2.242   1.094   0.873 -0.1342  0.0605  2.2826
  143HFI     O1 2194   1.385   0.141   2.656  0.3325 -0.6175  0.3374
  143HFI     C1 2195   1.500   0.071   2.701 -0.3292 -0.0751 -0.1521
  143HFI     C2 2196   1.523   0.078   2.854 -0.7857 -0.2748 -0.3073
  143HFI     F1 2197   1.551   0.209   2.887 -0.2076 -0.6464  0.7821
  143HFI     F2 2198   1.626  -0.002   2.894  0.4832  0.1810  0.1724
  143HFI     F3 2199   1.419   0.040   2.932  0.0836 -0.1655  0.0568
  143HFI     C3 2200   1.625   0.127   2.618 -0.4314 -0.1655  0.5343
  143HFI     F4 2201   1.744   0.083   2.671 -0.0815 -0.4301 -0.7845
  143HFI     F5 2202   1.631   0.264   2.614  0.3000  0.0548 -0.5233
  143HFI     F6 2203   1.621   0.076   2.498 -0.7446 -0.3265  0.3763
  143HFI     H1 2204   1.390   0.229   2.697 -1.1985 -0.4078  0.0676
  143HFI     H2 2205   1.488  -0.030   2.661 -1.5955  0.0553 -0.1334
  144HFI     O1 2206   1.594   2.233   3.486  0.3910  0.3042  0.6558
  144HFI     C1 2207   1.505   2.350   3.501  0.1448  0.9320  0.7898
  144HFI     C2 2208   1.566   2.470   3.429  0.3588  0.4008  0.3649
  144HFI     F1 2209   1.463   2.563   3.419  0.6724 -0.3178  1.0119
  144HFI     F2 2210   1.607   2.444   3.300  0.0461  0.1856  0.1512
  144HFI     F3 2211   1.665   2.522   3.497  0.0128 -0.6866 -0.2586
  144HFI     C3 2212   1.458   2.378   3.646 -0.2563  0.4745 -0.7291
  144HFI     F4 2213   1.348   2.460   3.645 -0.1544 -0.2871  0.0474
  144HFI     F5 2214   1.552   2.440   3.720 -0.6064 -0.2714  0.3598
  144HFI     F6 2215   1.427   2.260   3.706  0.2929 -0.1165  0.1485
  144HFI     H1 2216   1.608   2.215   3.392 -0.3119 -1.1702  0.8228
  144HFI     H2 2217   1.411   2.327   3.450 -0.2540 -0.8697  2.2796
  145HFI     O1 2218   2.893   3.233   3.294 -0.2012  0.1044  0.3510
  145HFI     C1 2219   2.790   3.341   3.297 -0.2049  1.0795 -0.6181
  145HFI     C2 2220   2.843   3.481   3.265  0.0043  0.4729  0.1112
  145HFI     F1 2221   2.915   3.479   3.152 -0.4399 -0.3282 -0.5474
  145HFI     F2 2222   2.925   3.527   3.360  0.5035 -0.2867 -0.2314
  145HFI     F3 2223   2.739   3.569   3.244 -0.9321 -0.3174 -0.3444
  145HFI     C3 2224   2.719   3.338   3.433  0.4141  0.7397  0.0841
  145HFI     F4 2225   2.802   3.372   3.536  0.3527 -0.3725 -0.3600
  145HFI     F5 2226   2.680   3.208   3.467 -0.0694 -0.7083 -0.2198
  145HFI     F6 2227   2.608   3.428   3.437  0.2261  0.1628 -0.0683
  145HFI     H1 2228   2.978   3.265   3.330 -1.3712  2.0335  1.4769
  145HFI     H2 2229   2.705   3.316   3.233  0.1557 -0.0620 -0.6677
  146HFI     O1 2230   3.366   1.789   2.200 -0.6839  0.3878  0.2895
  146HFI     C1 2231   3.425   1.724   2.324 -0.3328 -0.2724  0.0421
  146HFI     C2 2232   3.574   1.688   2.301  0.2396  0.0679  0.1080
  146HFI     F1 2233   3.584   1.586   2.209  0.0669  0.0804  0.1732
  146HFI     F2 2234   3.632   1.640   2.410 -0.1276  0.3605  0.1978
  146HFI     F3 2235   3.642   1.798   2.255  0.1356 -0.3983  0.2037
  146HFI     C3 2236   3.338   1.598   2.368 -0.1776 -0.1724 -0.6511
  146HFI     F4 2237   3.394   1.533   2.469 -0.2996 -0.0533 -0.6579
  146HFI     F5 2238   3.313   1.524   2.256 -0.3450 -0.5851  0.3628
  146HFI     F6 2239   3.215   1.642   2.421 -0.6840 -0.1939 -0.0108
  146HFI     H1 2240   3.425   1.774   2.125 -0.5430  1.1742  0.2367
  146HFI     H2 2241   3.432   1.795   2.408 -0.0280  0.4626 -0.5920
  147HFI     O1 2242   0.063   0.231   2.696  0.2465 -0.1966 -0.4158
  147HFI     C1 2243   0.191   0.273   2.742  0.1394  0.3711 -0.6356
  147HFI     C2 2244   0.292   0.156   2.729 -0.4440 -0.5154  0.2851
  147HFI     F1 2245   0.293   0.109   2.603 -0.5671 -0.0652  0.0961
  147HFI     F2 2246   0.263   0.049   2.805 -0.1583 -0.1947 -0.1137
  147HFI     F3 2247   0.418   0.194   2.758  0.0759  0.2087  0.5617
  147HFI     C3 2248   0.186   0.327   2.883 -0.0715  0.5039 -0.0331
  147HFI     F4 2249   0.126   0.241   2.971  0.0641 -0.0069 -0.2309
  147HFI     F5 2250   0.112   0.437   2.885  0.1779 -0.5070  0.4943
  147HFI     F6 2251   0.308   0.368   2.939 -0.4658  0.1235  0.7856
  147HFI     H1 2252   0.080   0.219   2.601 -1.9330 -0.0438 -0.8534
  147HFI     H2 2253   0.225   0.357   2.681  2.1652  0.0064 -0.0265
  148HFI     O1 2254   0.010   0.071   2.474 -0.1937  0.4080  0.3879
  148HFI     C1 2255   0.077  -0.037   2.408  0.1919 -0.0293  0.2439
  148HFI     C2 2256   0.028  -0.054   2.259  0.8481  0.2994  0.3424
  148HFI     F1 2257   0.058   0.054   2.184  0.0465  0.1755 -0.0770
  148HFI     F2 2258  -0.103  -0.076   2.250 -0.0497 -0.1095  0.3569
  148HFI     F3 2259   0.091  -0.159   2.202 -0.2598  0.0186 -0.2561
  148HFI     C3 2260   0.064  -0.171   2.484 -0.0191 -0.1929 -0.2698
  148HFI     F4 2261   0.116  -0.155   2.607 -0.3724  0.1740  0.0560
  148HFI     F5 2262   0.137  -0.269   2.430  0.3186 -0.1997 -0.6847
  148HFI     F6 2263  -0.058  -0.221   2.495  0.0386  0.0817 -0.0459
  148HFI     H1 2264  -0.076   0.093   2.434 -0.2122  0.1925  0.3092
  148HFI     H2 2265   0.182  -0.010   2.392  0.0399 -0.2746 -1.2861
  149HFI     O1 2266   2.393   1.312   2.417 -0.2254 -0.4634  0.3406
  149HFI     C1 2267   2.456   1.359   2.297 -0.2348  0.0384  0.6238
  149HFI     C2 2268   2.610   1.330   2.298 -0.0505 -0.2724  0.1454
  149HFI     F1 2269   2.666   1.328   2.178  0.3397 -0.0981 -0.1208
  149HFI     F2 2270   2.633   1.208   2.342  0.0343 -0.5401  0.0373
  149HFI     F3 2271   2.680   1.407   2.378  0.0075 -0.1380  0.2157
  149HFI     C3 2272   2.436   1.511   2.279  0.6707  0.1490 -0.7465
  149HFI     F4 2273   2.531   1.583   2.233  0.0001 -0.4194  0.8144
  149HFI     F5 2274   2.408   1.572   2.398  0.1202 -0.1812  0.3465
  149HFI     F6 2275   2.327   1.522   2.203  0.0494 -0.0665  0.2390
  149HFI     H1 2276   2.456   1.324   2.490  0.9657 -0.7783 -0.6164
  149HFI     H2 2277   2.414   1.316   2.205  1.3887 -0.3800  0.0703
  150HFI     O1 2278   0.528   0.966   2.355  0.2198 -0.2217 -0.1302
  150HFI     C1 2279   0.430   1.057   2.293 -0.3714 -0.1582 -0.2935
  150HFI     C2 2280   0.465   1.209   2.326  0.3659 -0.3370 -0.0822
  150HFI     F1 2281   0.369   1.294   2.276 -0.0793  0.6796 -0.3858
  150HFI     F2 2282   0.584   1.237   2.263  0.2899  0.0210  0.2511
  150HFI     F3 2283   0.478   1.230   2.456 -0.4300  0.3751 -0.6057
  150HFI     C3 2284   0.283   1.022   2.333 -0.2587 -0.2296  0.4967
  150HFI     F4 2285   0.255   1.051   2.461  0.3237  0.2924  0.0542
  150HFI     F5 2286   0.271   0.888   2.322 -0.0459 -0.3044 -0.4083
  150HFI     F6 2287   0.189   1.074   2.249 -0.4522 -0.0109  0.1202
  150HFI     H1 2288   0.611   1.014   2.365  0.0982  0.0622 -0.5027
  150HFI     H2 2289   0.427   1.056   2.184 -0.4506  1.4283 -0.3051
  151HFI     O1 2290   2.918   0.675   3.476 -0.0890 -0.3666 -0.3124
  151HFI     C1 2291   2.851   0.798   3.444  0.7668  0.1551 -0.4555
  151HFI     C2 2292   2.845   0.896   3.560  0.1414 -0.1601 -0.0786
  151HFI     F1 2293   2.967   0.950   3.581 -0.0947 -0.2109 -0.2733
  151HFI     F2 2294   2.804   0.831   3.671  0.1171 -0.3338 -0.0956
  151HFI     F3 2295   2.756   0.997   3.531 -0.6588  0.3403 -0.2200
  151HFI     C3 2296   2.709   0.777   3.388  0.0025 -0.5372 -0.0071
  151HFI     F4 2297   2.669   0.886   3.309 -0.0788 -0.0782  0.3886
  151HFI     F5 2298   2.619   0.743   3.479 -0.5989 -0.1080  0.4314
  151HFI     F6 2299   2.702   0.675   3.304 -0.1985  0.0727 -0.7826
  151HFI     H1 2300   2.854   0.623   3.528 -2.4172  0.8592 -1.8369
  151HFI     H2 2301   2.906   0.851   3.365 -1.0708  2.3762 -0.3149
  152HFI     O1 2302   0.780   0.975   0.247 -0.3249  0.1132  0.4586
  152HFI     C1 2303   0.722   0.901   0.136 -0.3833 -0.1305 -0.1780
  152HFI     C2 2304   0.706   0.747   0.155  0.7795 -0.4522  0.6775
  152HFI     F1 2305   0.811   0.703   0.225 -0.5815 -0.7905  0.1744
  152HFI     F2 2306   0.709   0.677   0.034 -0.1603  0.0915  0.2544
  152HFI     F3 2307   0.599   0.707   0.226 -0.1480  0.3486 -0.4404
  152HFI     C3 2308   0.806   0.934   0.004 -0.6208 -0.2851 -0.1902
  152HFI     F4 2309   0.732   0.911  -0.105  0.0466 -0.1910  0.0349
  152HFI     F5 2310   0.920   0.870  -0.018 -0.4229 -0.1148 -0.0127
  152HFI     F6 2311   0.842   1.065  -0.008 -0.4826  0.1886  0.5031
  152HFI     H1 2312   0.715   0.996   0.317 -0.1301  3.6526 -0.3160
  152HFI     H2 2313   0.623   0.941   0.111  0.5011  2.6891  0.6333
  153HFI     O1 2314   1.937   1.948   2.220 -0.4311 -0.6222  0.3823
  153HFI     C1 2315   1.797   1.918   2.271  0.4715 -0.3835 -0.0584
  153HFI     C2 2316   1.708   2.042   2.296 -0.5704  1.2647 -0.3712
  153HFI     F1 2317   1.580   2.010   2.291  0.5055  0.4291 -0.5270
  153HFI     F2 2318   1.731   2.133   2.195  0.2600 -0.3367 -0.7346
  153HFI     F3 2319   1.733   2.100   2.418  0.0377  0.2414 -0.3172
  153HFI     C3 2320   1.795   1.822   2.399 -0.1362  0.1275 -0.2795
  153HFI     F4 2321   1.890   1.867   2.484 -0.5532  0.0707  0.4483
  153HFI     F5 2322   1.822   1.693   2.362 -0.3111 -0.0305  0.6610
  153HFI     F6 2323   1.673   1.823   2.456 -0.3134  0.1589 -0.1044
  153HFI     H1 2324   1.935   2.038   2.184 -0.6938 -0.9805 -0.5075
  153HFI     H2 2325   1.738   1.870   2.192  0.9454  0.5768 -1.0148
  154HFI     O1 2326   2.259   3.046   0.477  0.4536 -0.1307  0.0977
  154HFI     C1 2327   2.308   3.076   0.616 -0.3214  0.1025 -0.3958
  154HFI     C2 2328   2.233   3.014   0.729  0.3783  0.2993 -0.0085
  154HFI     F1 2329   2.181   2.892   0.697  0.5391 -0.0217  0.4930
  154HFI     F2 2330   2.128   3.087   0.763  0.3813 -0.3929  0.0668
  154HFI     F3 2331   2.312   3.009   0.833 -0.0192  0.0035  0.5644
  154HFI     C3 2332   2.341   3.229   0.642  0.7030  0.1835  0.3107
  154HFI     F4 2333   2.399   3.280   0.529 -0.1421  0.3416 -0.6492
  154HFI     F5 2334   2.422   3.233   0.754 -0.0668 -0.0490  0.3202
  154HFI     F6 2335   2.238   3.304   0.663  0.0419 -0.4453  0.1775
  154HFI     H1 2336   2.315   3.094   0.413 -0.8459  0.0600 -0.9191
  154HFI     H2 2337   2.404   3.023   0.622 -1.9835 -3.1178 -1.0633
  155HFI     O1 2338   1.878   2.449   2.455 -0.0143  0.0523  0.0916
  155HFI     C1 2339   1.991   2.489   2.375 -0.9683  0.3354 -0.2333
  155HFI     C2 2340   2.058   2.371   2.293  0.3121  0.0666 -0.5489
  155HFI     F1 2341   2.148   2.423   2.204  0.3864 -0.3013 -0.0138
  155HFI     F2 2342   1.972   2.304   2.210 -0.4734 -0.3373 -0.3022
  155HFI     F3 2343   2.122   2.274   2.365  0.1399 -0.0509 -0.6453
  155HFI     C3 2344   2.101   2.561   2.461  0.7858 -0.3927 -0.2501
  155HFI     F4 2345   2.211   2.601   2.400  0.3283 -0.2993  0.1704
  155HFI     F5 2346   2.138   2.476   2.562  0.2580 -0.6890 -0.3589
  155HFI     F6 2347   2.048   2.668   2.519  0.4186  0.5071 -0.0458
  155HFI     H1 2348   1.908   2.384   2.521  0.5598  0.0935 -0.1239
  155HFI     H2 2349   1.950   2.564   2.307  2.4412  0.6051 -2.0741
  156HFI     O1 2350   0.127   2.516   2.581  0.5279 -0.4188  0.4254
  156HFI     C1 2351   0.164   2.609   2.694  0.1347 -0.2984  0.4325
  156HFI     C2 2352   0.152   2.522   2.825 -0.1165 -0.9479  0.2374
  156HFI     F1 2353   0.246   2.423   2.825  0.1355 -0.4515 -0.0103
  156HFI     F2 2354   0.025   2.464   2.821 -0.0674  0.5583 -0.3432
  156HFI     F3 2355   0.156   2.598   2.935 -0.6051  0.0095  0.2056
  156HFI     C3 2356   0.074   2.733   2.703  0.4240  0.5299  0.4481
  156HFI     F4 2357  -0.055   2.697   2.737  0.5799  0.6063  0.1203
  156HFI     F5 2358   0.067   2.795   2.578 -0.1055  0.1339  0.3813
  156HFI     F6 2359   0.129   2.821   2.790  0.0394  0.2235 -0.1958
  156HFI     H1 2360   0.045   2.470   2.604  1.2445 -1.2199  1.4203
  156HFI     H2 2361   0.267   2.642   2.677  0.3100 -0.0850  1.7971
  157HFI     O1 2362   2.518   2.110   3.174 -0.4061  0.1614  0.4543
  157HFI     C1 2363   2.554   2.244   3.152 -0.1693 -0.3096  0.3094
  157HFI     C2 2364   2.425   2.331   3.153 -0.3479 -0.7898  0.0846
  157HFI     F1 2365   2.354   2.317   3.041  0.4014 -0.2517 -0.1104
  157HFI     F2 2366   2.458   2.461   3.175 -0.0399 -0.3752 -0.6092
  157HFI     F3 2367   2.344   2.301   3.261  0.5974  0.3976  0.4044
  157HFI     C3 2368   2.623   2.261   3.012 -0.6058  0.5805  0.6863
  157HFI     F4 2369   2.642   2.392   2.979 -0.0169 -0.3209 -0.9824
  157HFI     F5 2370   2.554   2.199   2.912 -0.2025 -0.1069  0.6601
  157HFI     F6 2371   2.748   2.195   3.019  0.9314  0.2163 -0.2115
  157HFI     H1 2372   2.472   2.078   3.094 -1.1064  2.7115 -0.2159
  157HFI     H2 2373   2.630   2.275   3.226 -1.1202 -0.5222  1.3984
  158HFI     O1 2374   2.578   1.623   0.402  0.1285 -0.1631 -0.6192
  158HFI     C1 2375   2.531   1.490   0.350 -0.2593  0.0699  0.4476
  158HFI     C2 2376   2.462   1.504   0.212  0.2795  0.9201  0.0111
  158HFI     F1 2377   2.546   1.558   0.128  0.3228 -0.0262  0.3674
  158HFI     F2 2378   2.349   1.587   0.211 -0.1703  0.2012  0.0959
  158HFI     F3 2379   2.425   1.390   0.153  0.4908  0.1438  0.1248
  158HFI     C3 2380   2.427   1.427   0.450 -0.3004  0.5964 -0.3618
  158HFI     F4 2381   2.478   1.408   0.567  0.3808 -0.0331 -0.1407
  158HFI     F5 2382   2.385   1.312   0.401 -0.6702 -0.0852  0.1477
  158HFI     F6 2383   2.321   1.511   0.474  0.7024  0.4662  0.3758
  158HFI     H1 2384   2.626   1.661   0.327 -0.4245 -0.4896 -1.1502
  158HFI     H2 2385   2.614   1.419   0.341 -1.9730 -1.8642 -0.2432
  159HFI     O1 2386   3.285   3.423   3.709  0.4939 -0.4242 -0.3633
  159HFI     C1 2387   3.185   3.515   3.768 -0.5745  0.3125  0.0555
  159HFI     C2 2388   3.228   3.664   3.744  0.0775  0.5805  0.3665
  159HFI     F1 2389   3.361   3.691   3.771 -0.4170  0.1543  0.0692
  159HFI     F2 2390   3.150   3.744   3.816 -0.1069 -0.2388 -0.5492
  159HFI     F3 2391   3.205   3.692   3.613 -0.1801 -0.3683 -0.1737
  159HFI     C3 2392   3.162   3.474   3.915 -0.1220 -0.4350 -0.4509
  159HFI     F4 2393   3.257   3.523   3.999 -0.1819 -0.0560  0.2278
  159HFI     F5 2394   3.161   3.337   3.932 -0.1239  0.1439 -0.2987
  159HFI     F6 2395   3.048   3.525   3.963 -0.6475 -0.1671  0.0512
  159HFI     H1 2396   3.344   3.392   3.780 -0.8347  0.4869  1.1845
  159HFI     H2 2397   3.092   3.495   3.713 -1.5871 -0.8443  2.1361
  160HFI     O1 2398   1.609   0.511   3.145 -0.6280  0.0787  0.5101
  160HFI     C1 2399   1.731   0.439   3.188 -0.9644 -0.2976 -0.5186
  160HFI     C2 2400   1.768   0.492   3.331 -0.0830 -0.0055  0.3693
  160HFI     F1 2401   1.770   0.629   3.332  0.2026  0.2307 -0.4004
  160HFI     F2 2402   1.885   0.457   3.374 -0.3822  0.6469  0.7573
  160HFI     F3 2403   1.678   0.445   3.417 -0.0734  0.6929 -0.0124
  160HFI     C3 2404   1.848   0.478   3.083 -0.1736  0.6566 -0.0996
  160HFI     F4 2405   1.876   0.601   3.091  0.0205 -0.2988 -0.0867
  160HFI     F5 2406   1.809   0.449   2.956 -0.0317  0.2767  0.3121
  160HFI     F6 2407   1.965   0.413   3.106 -0.1326  0.1695 -0.2350
  160HFI     H1 2408   1.630   0.606   3.150 -2.4580  0.4436  1.8121
  160HFI     H2 2409   1.726   0.330   3.190 -3.2609 -0.1871  1.3712
  161HFI     O1 2410   3.359   2.810   3.415 -0.6336 -0.1339 -0.0041
  161HFI     C1 2411   3.327   2.749   3.286 -0.4142 -0.4949 -0.1005
  161HFI     C2 2412   3.356   2.853   3.176 -0.0147  0.7227 -0.3309
  161HFI     F1 2413   3.488   2.885   3.171 -0.4193 -0.1371 -0.1207
  161HFI     F2 2414   3.286   2.970   3.192 -0.1010 -0.1447 -0.1608
  161HFI     F3 2415   3.334   2.802   3.054  0.2518 -0.1832 -0.4554
  161HFI     C3 2416   3.189   2.687   3.296  0.6822 -0.0345  0.5721
  161HFI     F4 2417   3.164   2.604   3.188  0.0107 -0.3146 -0.0387
  161HFI     F5 2418   3.090   2.780   3.320 -0.4225 -0.2075  0.4944
  161HFI     F6 2419   3.183   2.605   3.404 -0.1360 -0.2341  0.0287
  161HFI     H1 2420   3.410   2.889   3.390 -0.4962 -0.3363 -0.3643
  161HFI     H2 2421   3.401   2.668   3.273 -0.0391 -0.2124  0.2372
  162HFI     O1 2422   0.767   0.044   2.766 -0.4598 -0.4657 -1.1174
  162HFI     C1 2423   0.895  -0.033   2.786  0.0874  0.4714 -0.0569
  162HFI     C2 2424   0.860  -0.180   2.818  1.2928  0.1241  0.3854
  162HFI     F1 2425   0.784  -0.233   2.720  0.4325 -0.0271 -0.3808
  162HFI     F2 2426   0.783  -0.185   2.927  0.5166  0.2767  0.1244
  162HFI     F3 2427   0.958  -0.267   2.840 -0.4235 -0.3676 -0.1772
  162HFI     C3 2428   1.000   0.023   2.889  0.0928  0.1775  0.2178
  162HFI     F4 2429   1.038   0.145   2.856 -0.3206  0.0941 -0.2707
  162HFI     F5 2430   1.111  -0.061   2.889  0.0140  0.4301 -0.4060
  162HFI     F6 2431   0.950   0.031   3.011 -0.4095 -0.4373 -0.4947
  162HFI     H1 2432   0.763   0.111   2.837  1.7355 -3.0030  1.5884
  162HFI     H2 2433   0.948  -0.037   2.690  0.2221 -0.3963  0.0490
  163HFI     O1 2434   2.244   0.727   2.277 -0.1039 -0.0411 -0.1801
  163HFI     C1 2435   2.190   0.860   2.257 -0.7165  0.1531  0.3379
  163HFI     C2 2436   2.298   0.975   2.284 -0.5281  0.0769  0.5448
  163HFI     F1 2437   2.423   0.951   2.236  0.1190  0.0441 -0.1019
  163HFI     F2 2438   2.316   1.001   2.412  0.1926  0.1170  0.0668
  163HFI     F3 2439   2.256   1.098   2.228  0.6842  0.3116  0.1646
  163HFI     C3 2440   2.065   0.881   2.338  0.4210  0.0680 -0.7950
  163HFI     F4 2441   2.000   0.992   2.297 -0.3129 -0.0178 -0.1667
  163HFI     F5 2442   2.081   0.889   2.471 -0.0735  0.2927 -0.0950
  163HFI     F6 2443   1.978   0.788   2.312 -0.0626  0.0646  0.8618
  163HFI     H1 2444   2.188   0.678   2.339 -0.2842  0.6064  0.1708
  163HFI     H2 2445   2.154   0.871   2.155 -0.5599 -0.1312  0.2498
  164HFI     O1 2446   2.510   1.602   3.084 -0.4969 -0.0329 -0.1911
  164HFI     C1 2447   2.501   1.661   2.950 -0.2807  0.0480  0.0191
  164HFI     C2 2448   2.575   1.574   2.840  0.4060 -0.0426 -0.7993
  164HFI     F1 2449   2.514   1.456   2.839 -0.5761  0.4813 -0.1426
  164HFI     F2 2450   2.696   1.559   2.873 -0.3624  0.6338 -0.0026
  164HFI     F3 2451   2.562   1.630   2.720 -0.2535  0.0518  0.3351
  164HFI     C3 2452   2.559   1.805   2.944  0.2781 -0.1252  0.1090
  164HFI     F4 2453   2.689   1.802   2.980  0.2236  0.0433 -0.2487
  164HFI     F5 2454   2.496   1.893   3.034 -0.3897  0.1877  0.6115
  164HFI     F6 2455   2.548   1.866   2.822 -0.2944  0.0185  0.0897
  164HFI     H1 2456   2.495   1.506   3.079  0.8553 -0.2112 -0.9886
  164HFI     H2 2457   2.397   1.669   2.918  0.2019 -0.1175 -1.6155
  165HFI     O1 2458   1.646   0.252   2.300  0.2827  0.2712  0.2551
  165HFI     C1 2459   1.770   0.290   2.240 -0.6317  0.0954  0.6002
  165HFI     C2 2460   1.885   0.200   2.283 -0.0638  0.5625  0.1923
  165HFI     F1 2461   1.989   0.217   2.205  1.0593 -0.0873  0.1208
  165HFI     F2 2462   1.858   0.068   2.272 -0.4516  0.2374  0.3275
  165HFI     F3 2463   1.923   0.223   2.410 -0.7413  0.2724  0.1197
  165HFI     C3 2464   1.784   0.444   2.246 -0.3644 -0.4611 -0.1714
  165HFI     F4 2465   1.669   0.494   2.194  0.1499  0.7166  0.3402
  165HFI     F5 2466   1.896   0.492   2.187 -0.0399 -0.1385  0.3725
  165HFI     F6 2467   1.794   0.482   2.374  0.0520  0.2598  0.1042
  165HFI     H1 2468   1.656   0.187   2.372  2.0507  0.3881  0.1336
  165HFI     H2 2469   1.763   0.281   2.131 -3.3899 -1.9445  0.8862
  166HFI     O1 2470   1.293   1.310   3.486 -0.1057  0.1243 -0.5958
  166HFI     C1 2471   1.356   1.438   3.460  0.1586  0.2975 -0.1164
  166HFI     C2 2472   1.264   1.521   3.368  0.2553 -0.2550  0.7103
  166HFI     F1 2473   1.304   1.655   3.369  0.5520 -0.5518 -0.6899
  166HFI     F2 2474   1.141   1.520   3.407 -0.1704 -0.6509  0.5899
  166HFI     F3 2475   1.257   1.484   3.233  0.7580  0.0555 -0.5091
  166HFI     C3 2476   1.494   1.410   3.396 -0.1069  0.4219  1.0731
  166HFI     F4 2477   1.485   1.341   3.280 -0.5815  0.0674  0.0208
  166HFI     F5 2478   1.573   1.341   3.480 -0.2649 -0.1275 -0.0408
  166HFI     F6 2479   1.567   1.523   3.373 -0.5591 -0.2137  0.2493
  166HFI     H1 2480   1.323   1.273   3.571 -0.2446 -1.3460 -1.1736
  166HFI     H2 2481   1.370   1.506   3.545 -0.4863  0.5088 -0.1769
  167HFI     O1 2482   3.116   2.191   2.722  0.7261 -0.4088 -0.5054
  167HFI     C1 2483   3.121   2.101   2.841 -0.1796  0.0192  0.2802
  167HFI     C2 2484   3.132   2.174   2.972 -0.3729  0.3294 -0.4793
  167HFI     F1 2485   3.108   2.077   3.061 -0.3637  0.3539  0.3524
  167HFI     F2 2486   3.039   2.264   2.984  0.4498 -0.6682  0.6316
  167HFI     F3 2487   3.254   2.224   2.994 -0.4481 -0.2653  0.1880
  167HFI     C3 2488   3.243   2.000   2.812 -0.1904  0.1749  0.1475
  167HFI     F4 2489   3.218   1.958   2.687 -0.0176 -0.3698 -0.2659
  167HFI     F5 2490   3.252   1.888   2.887 -0.1915  0.1713 -0.1647
  167HFI     F6 2491   3.369   2.058   2.816 -0.4923  0.3411  0.0165
  167HFI     H1 2492   3.026   2.228   2.721  0.3434 -1.3357 -2.3174
  167HFI     H2 2493   3.029   2.041   2.843 -0.8956  0.8960 -2.7837
  168HFI     O1 2494   0.575   3.202   2.219 -0.2811 -0.5480 -0.2357
  168HFI     C1 2495   0.619   3.316   2.303  0.1255 -0.8947  0.5075
  168HFI     C2 2496   0.768   3.338   2.320  0.8071  0.1286 -0.8939
  168HFI     F1 2497   0.787   3.448   2.400 -0.2122 -0.2945  0.1038
  168HFI     F2 2498   0.833   3.354   2.205 -0.1591 -0.2747  0.0938
  168HFI     F3 2499   0.829   3.245   2.386 -0.3423 -0.0727 -0.0824
  168HFI     C3 2500   0.531   3.304   2.436  0.1932  0.3752  0.5330
  168HFI     F4 2501   0.546   3.188   2.509 -0.3264 -0.1699  0.4046
  168HFI     F5 2502   0.405   3.312   2.397 -0.0415 -0.1002 -0.1710
  168HFI     F6 2503   0.556   3.409   2.517  0.0807  0.2628 -0.0888
  168HFI     H1 2504   0.592   3.120   2.269 -1.2369 -1.3778 -1.2612
  168HFI     H2 2505   0.580   3.407   2.255 -0.5656 -1.1214  0.6343
  169HFI     O1 2506   0.863   2.887   2.527  0.4003  0.1581 -0.9139
  169HFI     C1 2507   0.965   2.943   2.439  0.3601  0.3607  0.3616
  169HFI     C2 2508   0.939   2.911   2.289  0.3195 -0.2443  0.1043
  169HFI     F1 2509   0.835   2.981   2.244 -0.1538  0.0664  0.0763
  169HFI     F2 2510   0.912   2.776   2.265  0.0172 -0.3532 -0.4031
  169HFI     F3 2511   1.049   2.953   2.219 -0.0409 -0.3688  0.2910
  169HFI     C3 2512   1.110   2.901   2.493  0.3400 -0.4043 -0.7498
  169HFI     F4 2513   1.116   2.934   2.627 -0.6899  0.3092  0.7391
  169HFI     F5 2514   1.218   2.955   2.428  0.3618 -0.0181 -0.6783
  169HFI     F6 2515   1.128   2.767   2.488  0.4378  0.0742  0.0979
  169HFI     H1 2516   0.912   2.874   2.610  0.3302  1.4357 -0.6521
  169HFI     H2 2517   0.957   3.052   2.434 -3.3852  0.1537  0.3449
  170HFI     O1 2518   1.092   0.195   3.345 -0.0364  0.3161 -0.2831
  170HFI     C1 2519   1.234   0.163   3.346  0.7619 -0.4625  0.5016
  170HFI     C2 2520   1.324   0.270   3.264  0.3918 -0.8608  0.4898
  170HFI     F1 2521   1.455   0.245   3.272  0.2740 -0.0062  0.0234
  170HFI     F2 2522   1.305   0.396   3.318 -0.3360 -0.4416 -0.1153
  170HFI     F3 2523   1.288   0.270   3.133  0.0935 -0.4464 -0.0869
  170HFI     C3 2524   1.247   0.012   3.301 -0.2853 -0.2951  0.6466
  170HFI     F4 2525   1.374  -0.026   3.303 -0.3122 -0.1192  0.2683
  170HFI     F5 2526   1.208  -0.006   3.170 -0.1658 -0.6675 -0.0484
  170HFI     F6 2527   1.184  -0.087   3.373  0.2225 -0.0829  0.1083
  170HFI     H1 2528   1.057   0.194   3.254  1.0152  0.1384 -0.7068
  170HFI     H2 2529   1.278   0.164   3.446  1.0589  0.1339  0.3642
  171HFI     O1 2530   3.069   0.839   2.860 -0.6116  0.3510  0.2648
  171HFI     C1 2531   2.955   0.896   2.933 -0.2022 -0.2707  0.0689
  171HFI     C2 2532   2.998   1.001   3.035  0.1106 -0.6664 -0.3166
  171HFI     F1 2533   3.082   0.964   3.130  0.1166  0.8466 -0.3492
  171HFI     F2 2534   2.891   1.046   3.104 -0.7184 -0.0037 -0.4780
  171HFI     F3 2535   3.058   1.100   2.959  0.3499 -0.1788 -0.2042
  171HFI     C3 2536   2.862   0.780   2.984 -0.5338  0.0459 -0.1939
  171HFI     F4 2537   2.865   0.675   2.903  0.3070 -0.5940  0.5003
  171HFI     F5 2538   2.730   0.808   2.986  0.3427  0.0976 -0.3252
  171HFI     F6 2539   2.898   0.740   3.112  0.0692  0.2306  0.1367
  171HFI     H1 2540   3.038   0.756   2.820 -0.3605  0.9208 -1.1252
  171HFI     H2 2541   2.884   0.943   2.863  0.2843  3.1016  1.7071
  172HFI     O1 2542   0.818   0.767   3.263  0.1692 -0.1106  0.0554
  172HFI     C1 2543   0.901   0.716   3.365  0.8265 -0.4752  0.0741
  172HFI     C2 2544   1.042   0.666   3.320  0.5311 -0.1097 -0.1888
  172HFI     F1 2545   1.091   0.758   3.235  0.3068  0.1850  0.0820
  172HFI     F2 2546   1.037   0.545   3.257 -0.2571 -0.3723 -0.3360
  172HFI     F3 2547   1.119   0.652   3.423 -0.2493 -0.3778 -0.0581
  172HFI     C3 2548   0.835   0.631   3.476  0.3822 -0.6263 -0.0663
  172HFI     F4 2549   0.910   0.621   3.586  0.3345  0.0775 -0.4585
  172HFI     F5 2550   0.815   0.507   3.436  0.0666  0.6031  0.2500
  172HFI     F6 2551   0.712   0.670   3.509  0.0506  0.1315  0.2301
  172HFI     H1 2552   0.860   0.765   3.175  0.1202 -0.1839  0.0332
  172HFI     H2 2553   0.926   0.800   3.431 -2.0351  0.2055  0.3960
  173HFI     O1 2554   0.857   2.342   3.303 -0.5460 -0.2511  0.4747
  173HFI     C1 2555   0.936   2.442   3.376  0.1509  0.1905  0.3164
  173HFI     C2 2556   0.907   2.588   3.331 -0.0938 -0.1811  0.1880
  173HFI     F1 2557   0.953   2.602   3.205 -0.0722  0.2640 -0.0105
  173HFI     F2 2558   0.964   2.685   3.408 -0.0714  0.2302 -0.2091
  173HFI     F3 2559   0.775   2.607   3.338 -0.6214  0.1782 -0.2723
  173HFI     C3 2560   1.086   2.409   3.382 -0.0285 -0.7414 -0.2279
  173HFI     F4 2561   1.152   2.445   3.269 -0.1431 -0.3065 -0.0914
  173HFI     F5 2562   1.114   2.279   3.400 -0.5118  0.3973  0.5236
  173HFI     F6 2563   1.146   2.481   3.484  0.1122 -0.8816  0.3212
  173HFI     H1 2564   0.895   2.257   3.329 -1.0661 -1.1905 -1.7730
  173HFI     H2 2565   0.900   2.446   3.480  0.3417  1.8836  0.3209
  174HFI     O1 2566   1.230   1.127   0.434  0.1378 -0.5494  0.1754
  174HFI     C1 2567   1.271   0.990   0.445  0.2579  0.4903  0.0630
  174HFI     C2 2568   1.231   0.911   0.315 -0.2241  0.4525 -0.2740
  174HFI     F1 2569   1.229   0.994   0.209 -0.7177  0.6381 -0.0678
  174HFI     F2 2570   1.115   0.848   0.316  0.4855  0.0127 -0.6870
  174HFI     F3 2571   1.332   0.819   0.290 -0.3903  0.4630  1.1583
  174HFI     C3 2572   1.231   0.914   0.573  0.2196  0.2248 -0.6857
  174HFI     F4 2573   1.302   0.969   0.679 -0.1385 -0.2825  0.0029
  174HFI     F5 2574   1.278   0.780   0.566  0.0759 -0.1308 -0.0030
  174HFI     F6 2575   1.099   0.910   0.600 -0.2573  0.9196  0.1853
  174HFI     H1 2576   1.144   1.142   0.477 -0.4282  0.6943 -1.3611
  174HFI     H2 2577   1.381   0.982   0.449  0.5862  3.2586 -2.4420
  175HFI     O1 2578   0.708   0.735   2.677  0.3461 -0.2511 -0.3334
  175HFI     C1 2579   0.692   0.654   2.794 -0.2651  0.0780  0.0483
  175HFI     C2 2580   0.830   0.614   2.865 -0.3235 -0.3997 -0.1333
  175HFI     F1 2581   0.927   0.675   2.797  0.1943  0.6414  0.3231
  175HFI     F2 2582   0.851   0.483   2.876 -0.2424 -0.2346  0.2377
  175HFI     F3 2583   0.831   0.668   2.985 -0.0077  0.3611  0.2912
  175HFI     C3 2584   0.606   0.521   2.771 -0.5291 -0.3548  0.5206
  175HFI     F4 2585   0.678   0.447   2.689 -0.7340  0.5988  0.0890
  175HFI     F5 2586   0.485   0.546   2.716 -0.1442 -0.5747 -0.0801
  175HFI     F6 2587   0.591   0.461   2.895 -0.5908  0.2642  0.2024
  175HFI     H1 2588   0.790   0.707   2.631 -0.1952 -0.4771 -1.1820
  175HFI     H2 2589   0.637   0.717   2.865  0.3540  0.5900  0.0885
  176HFI     O1 2590   0.510   2.212   2.535  0.0379  0.5462  0.5479
  176HFI     C1 2591   0.418   2.125   2.459  0.5511 -0.3070  0.0064
  176HFI     C2 2592   0.346   2.195   2.333  0.7470  0.5010  0.2137
  176HFI     F1 2593   0.282   2.308   2.372  0.0499 -0.0830  0.0881
  176HFI     F2 2594   0.254   2.114   2.271 -0.5965  0.0173  0.0514
  176HFI     F3 2595   0.429   2.229   2.243 -0.1604 -0.6505  0.6953
  176HFI     C3 2596   0.315   2.052   2.552  0.0580 -0.4580 -0.6018
  176HFI     F4 2597   0.252   1.950   2.485  0.2595 -0.5257  0.2571
  176HFI     F5 2598   0.222   2.128   2.613  0.3250 -0.0740 -0.5681
  176HFI     F6 2599   0.386   1.994   2.648  0.0440 -0.0739 -0.3540
  176HFI     H1 2600   0.553   2.277   2.476  0.9000  1.2596  1.9260
  176HFI     H2 2601   0.485   2.045   2.426  1.4516  1.4110 -2.4433
  177HFI     O1 2602   1.236   0.371   3.663 -0.5752  0.4355  0.5002
  177HFI     C1 2603   1.315   0.326   3.783 -0.4610  0.0311  0.5448
  177HFI     C2 2604   1.243   0.364   3.923 -0.3309 -0.3986  0.0308
  177HFI     F1 2605   1.283   0.283   4.021  0.1272  0.2186  0.1948
  177HFI     F2 2606   1.109   0.345   3.918 -0.2554  0.2305  0.0408
  177HFI     F3 2607   1.273   0.491   3.965 -0.4107  0.4402 -0.1762
  177HFI     C3 2608   1.463   0.385   3.781  0.4263  0.5834  0.2075
  177HFI     F4 2609   1.532   0.319   3.684 -0.3991  0.1276 -0.5340
  177HFI     F5 2610   1.521   0.361   3.901 -0.2368  0.0435 -0.8282
  177HFI     F6 2611   1.470   0.520   3.761  0.0836  0.0025  0.3043
  177HFI     H1 2612   1.256   0.464   3.644 -1.8550  0.4213 -1.0851
  177HFI     H2 2613   1.335   0.219   3.776 -0.4017  0.1618 -1.5547
  178HFI     O1 2614   1.354   1.766   3.106 -0.4454  1.0411  0.0830
  178HFI     C1 2615   1.372   1.869   3.000 -0.2145 -1.3081  0.0684
  178HFI     C2 2616   1.459   1.999   3.048 -0.4699 -0.0171  0.4265
  178HFI     F1 2617   1.577   1.967   3.108  0.4421 -0.2354  0.5074
  178HFI     F2 2618   1.393   2.070   3.135  0.2145  0.1057  0.5327
  178HFI     F3 2619   1.488   2.079   2.939 -0.1178  0.2644 -0.3901
  178HFI     C3 2620   1.237   1.903   2.929  1.0779  0.1812 -0.4984
  178HFI     F4 2621   1.248   1.993   2.831 -0.2853 -0.4754  0.2510
  178HFI     F5 2622   1.157   1.952   3.023  0.0587 -0.0176 -0.4210
  178HFI     F6 2623   1.183   1.789   2.881  0.1866  0.4965 -0.2181
  178HFI     H1 2624   1.412   1.690   3.089  1.0284  2.2157 -0.2360
  178HFI     H2 2625   1.435   1.827   2.921  0.3893 -1.8338  0.8184
  179HFI     O1 2626   2.305   0.972   2.954  0.3152 -0.6667 -0.4884
  179HFI     C1 2627   2.422   1.055   2.962 -0.2988  0.1267 -0.0883
  179HFI     C2 2628   2.382   1.198   2.991 -0.2709  0.4462  0.3985
  179HFI     F1 2629   2.298   1.194   3.099  0.4577 -0.4228  0.7201
  179HFI     F2 2630   2.323   1.255   2.891 -0.5667 -0.2374  0.1988
  179HFI     F3 2631   2.491   1.270   3.030 -0.1547 -0.5406  0.0633
  179HFI     C3 2632   2.522   1.045   2.838 -0.1579 -0.4161 -0.2296
  179HFI     F4 2633   2.531   0.919   2.792  0.1222 -0.1233 -0.2310
  179HFI     F5 2634   2.652   1.077   2.881  0.0909 -0.4592 -0.1407
  179HFI     F6 2635   2.503   1.126   2.733 -0.5276  0.0569  0.1256
  179HFI     H1 2636   2.323   0.877   2.967 -1.1313 -0.5600  2.6886
  179HFI     H2 2637   2.483   1.024   3.048  2.0521 -2.5068 -2.6279
  180HFI     O1 2638   2.692   3.228   2.942 -1.1242 -0.3118  0.0833
  180HFI     C1 2639   2.564   3.199   2.867 -0.1069 -0.1775 -0.1392
  180HFI     C2 2640   2.461   3.161   2.977  0.1809 -0.7634  0.1328
  180HFI     F1 2641   2.418   3.275   3.031 -0.4730  0.0174  0.4370
  180HFI     F2 2642   2.505   3.072   3.068  0.0955  0.2851 -0.1395
  180HFI     F3 2643   2.350   3.107   2.921  0.0160 -0.3340  0.3311
  180HFI     C3 2644   2.585   3.103   2.762 -0.0931  0.5792  0.1292
  180HFI     F4 2645   2.483   3.083   2.683  0.3272  0.1120 -0.3876
  180HFI     F5 2646   2.625   2.980   2.808 -0.0218  0.2810  0.0473
  180HFI     F6 2647   2.688   3.145   2.682 -0.1140 -0.8699 -0.7559
  180HFI     H1 2648   2.772   3.224   2.886 -0.4745  0.9870  0.8788
  180HFI     H2 2649   2.523   3.289   2.820 -2.2402 -1.0521 -0.0537
  181HFI     O1 2650   2.869   2.542   3.494 -0.0637  0.9421  0.4527
  181HFI     C1 2651   2.918   2.412   3.539  0.4490 -0.1468  0.3364
  181HFI     C2 2652   2.893   2.307   3.424  0.1480  0.7237 -0.1296
  181HFI     F1 2653   2.939   2.345   3.305  0.5897  0.0902  0.7045
  181HFI     F2 2654   2.761   2.285   3.413 -0.2798 -0.3181 -0.1293
  181HFI     F3 2655   2.958   2.191   3.436 -0.1025 -0.3207 -0.1623
  181HFI     C3 2656   2.859   2.365   3.673  0.6186  0.1884 -0.0156
  181HFI     F4 2657   2.887   2.233   3.698 -0.6777  0.4356 -0.3761
  181HFI     F5 2658   2.728   2.370   3.664 -0.1308 -0.6706 -0.3535
  181HFI     F6 2659   2.897   2.438   3.777  0.3270 -0.4119  0.0650
  181HFI     H1 2660   2.781   2.522   3.459  0.8532 -0.4959 -1.1324
  181HFI     H2 2661   3.024   2.430   3.560  0.3883 -0.1451  0.6490
  182HFI     O1 2662   1.090   1.058   2.214 -0.2377  0.6771  0.2098
  182HFI     C1 2663   1.037   1.173   2.274  1.2418 -0.2161  0.0388
  182HFI     C2 2664   1.145   1.263   2.338  0.6782  0.3361 -0.6450
  182HFI     F1 2665   1.098   1.378   2.371  0.1064 -0.1532 -0.6532
  182HFI     F2 2666   1.227   1.304   2.238 -0.2070 -0.1052 -0.3748
  182HFI     F3 2667   1.204   1.218   2.449 -0.5155  0.0877 -0.1727
  182HFI     C3 2668   0.914   1.142   2.368  0.6513 -0.2386  0.5853
  182HFI     F4 2669   0.809   1.089   2.301  0.4984  0.6080  0.3054
  182HFI     F5 2670   0.871   1.253   2.432  0.6022 -0.4394  0.8522
  182HFI     F6 2671   0.953   1.058   2.466 -0.0137  0.0679 -0.2227
  182HFI     H1 2672   1.180   1.038   2.245 -0.8000 -2.4165  0.0021
  182HFI     H2 2673   0.987   1.233   2.197 -3.0970 -1.3850  1.7925
  183HFI     O1 2674   1.981   3.094   3.106 -0.2083 -0.4248 -0.1179
  183HFI     C1 2675   1.953   3.107   3.246  0.3317  0.2380  0.1119
  183HFI     C2 2676   2.065   3.168   3.336 -0.0529  0.6904  0.0750
  183HFI     F1 2677   2.015   3.176   3.464 -0.3639 -0.0314 -0.1761
  183HFI     F2 2678   2.101   3.298   3.295 -0.4860  0.8514  0.4985
  183HFI     F3 2679   2.175   3.095   3.336 -0.1346 -0.0293 -0.4988
  183HFI     C3 2680   1.889   2.983   3.303 -0.5131  0.1343 -0.4917
  183HFI     F4 2681   1.981   2.901   3.361  0.1232 -0.4300 -0.1646
  183HFI     F5 2682   1.835   2.906   3.203  0.1087 -0.0555 -0.3223
  183HFI     F6 2683   1.796   3.013   3.394 -0.4608 -0.5118 -0.1266
  183HFI     H1 2684   1.957   3.175   3.058 -0.3954 -0.2062  0.3370
  183HFI     H2 2685   1.878   3.186   3.245  1.8940  1.7613  0.5257
  184HFI     O1 2686   3.393   1.914   3.252 -0.4250  0.0601 -0.0372
  184HFI     C1 2687   3.390   2.062   3.245  0.2062  0.5272 -0.5800
  184HFI     C2 2688   3.525   2.129   3.225 -0.0269  0.1940 -0.7848
  184HFI     F1 2689   3.578   2.089   3.107  0.0513  0.2710  0.0288
  184HFI     F2 2690   3.627   2.100   3.312 -0.2032  0.6085 -0.0860
  184HFI     F3 2691   3.511   2.260   3.212  0.2917 -0.0972  0.1853
  184HFI     C3 2692   3.308   2.105   3.374 -0.2095  0.2334  0.0018
  184HFI     F4 2693   3.276   2.237   3.359  0.3401  0.4387 -0.0051
  184HFI     F5 2694   3.370   2.080   3.493  0.3862  0.1649  0.2221
  184HFI     F6 2695   3.190   2.042   3.371  0.2503  0.1673 -0.3086
  184HFI     H1 2696   3.476   1.884   3.291 -0.1274 -0.2304 -0.8731
  184HFI     H2 2697   3.322   2.091   3.164 -0.9858 -0.1849  0.1434
  185HFI     O1 2698   1.297   1.808   2.509  0.1842  0.0313  0.0343
  185HFI     C1 2699   1.229   1.757   2.384 -0.5009  0.2002 -0.2111
  185HFI     C2 2700   1.319   1.661   2.310  0.0569  0.1677 -0.1440
  185HFI     F1 2701   1.263   1.602   2.202  0.4463 -0.1310  0.5095
  185HFI     F2 2702   1.363   1.563   2.381  0.2050 -0.2594 -0.3963
  185HFI     F3 2703   1.431   1.729   2.264 -0.2295  0.4489  0.1783
  185HFI     C3 2704   1.158   1.868   2.299  0.8377 -0.0653 -0.7513
  185HFI     F4 2705   1.076   1.943   2.380  0.6898 -0.1243  0.0684
  185HFI     F5 2706   1.077   1.812   2.204 -0.2590  0.6470  0.0768
  185HFI     F6 2707   1.243   1.956   2.239  0.2407  0.2662 -0.8175
  185HFI     H1 2708   1.378   1.849   2.475  0.3586 -0.1967  0.1776
  185HFI     H2 2709   1.151   1.687   2.416 -0.0055 -1.1681 -1.9060
  186HFI     O1 2710   2.381   2.113   2.500  0.2506  0.0082 -0.3141
  186HFI     C1 2711   2.370   1.983   2.434 -0.3102  0.3861 -0.7060
  186HFI     C2 2712   2.363   1.983   2.281 -0.4788  0.1671 -0.0581
  186HFI     F1 2713   2.243   2.005   2.232 -0.1293 -0.2186 -0.4002
  186HFI     F2 2714   2.415   1.869   2.229 -0.1697  0.3586 -0.0563
  186HFI     F3 2715   2.442   2.081   2.233 -0.2864  0.1471 -0.0740
  186HFI     C3 2716   2.256   1.902   2.504  0.2111 -0.0971  0.0142
  186HFI     F4 2717   2.288   1.869   2.631  0.0706 -0.3599  0.1347
  186HFI     F5 2718   2.219   1.784   2.444  0.5425  0.1404  0.3371
  186HFI     F6 2719   2.142   1.978   2.513 -0.3557  0.3499  0.1164
  186HFI     H1 2720   2.406   2.186   2.440  1.9351  0.9269  1.4358
  186HFI     H2 2721   2.456   1.919   2.459  0.1622  1.7386  1.2807
  187HFI     O1 2722   2.119   0.576   2.477 -0.1764  0.3548 -0.0896
  187HFI     C1 2723   2.168   0.533   2.614 -0.6173 -0.0137 -0.4216
  187HFI     C2 2724   2.057   0.476   2.695  0.0326 -0.1928  0.5943
  187HFI     F1 2725   1.998   0.372   2.634 -0.0530 -0.0736 -0.3231
  187HFI     F2 2726   1.967   0.566   2.721  0.6800 -0.2270  0.2917
  187HFI     F3 2727   2.099   0.432   2.811 -0.1500 -0.1734  0.3149
  187HFI     C3 2728   2.249   0.648   2.683 -0.1897  0.1339 -0.7093
  187HFI     F4 2729   2.173   0.745   2.735  0.0184  0.0702  0.0252
  187HFI     F5 2730   2.336   0.711   2.604 -0.2403  0.1974 -0.4668
  187HFI     F6 2731   2.317   0.595   2.791  0.0958 -0.2593  0.1625
  187HFI     H1 2732   2.033   0.619   2.489 -0.2912 -0.2153  1.3007
  187HFI     H2 2733   2.244   0.453   2.614 -0.5212  0.0473  2.3143
  188HFI     O1 2734   0.527   1.589   2.253 -0.2473 -0.0079 -0.1215
  188HFI     C1 2735   0.668   1.640   2.244  0.2833  0.3772  0.4528
  188HFI     C2 2736   0.776   1.550   2.315  0.3430 -0.4938  1.1669
  188HFI     F1 2737   0.895   1.605   2.301 -0.2153 -0.1551 -0.1790
  188HFI     F2 2738   0.782   1.433   2.251  0.0121 -0.5497  0.4871
  188HFI     F3 2739   0.749   1.517   2.440 -0.1493 -0.1981 -0.1017
  188HFI     C3 2740   0.675   1.794   2.295  0.4803 -0.3042 -0.1674
  188HFI     F4 2741   0.786   1.853   2.245  0.4034 -0.2900 -0.2743
  188HFI     F5 2742   0.669   1.796   2.434  0.3774  0.2899 -0.1236
  188HFI     F6 2743   0.564   1.866   2.253  0.3770  0.0360  0.0260
  188HFI     H1 2744   0.506   1.570   2.346  0.0046 -1.5261 -0.3591
  188HFI     H2 2745   0.698   1.642   2.139 -2.4252  0.0140 -0.3709
  189HFI     O1 2746   0.634   2.732   3.096 -0.0387  0.3739 -0.1582
  189HFI     C1 2747   0.717   2.687   2.989  0.3929 -0.1272  0.1065
  189HFI     C2 2748   0.778   2.809   2.909  0.7014  0.1285 -0.8692
  189HFI     F1 2749   0.846   2.888   3.000  0.6137 -0.0031  0.2408
  189HFI     F2 2750   0.677   2.881   2.858  0.1690 -0.2785 -0.2214
  189HFI     F3 2751   0.866   2.786   2.810  0.3100  0.1136 -0.3908
  189HFI     C3 2752   0.647   2.578   2.894 -0.7276  0.6040 -0.0389
  189HFI     F4 2753   0.638   2.453   2.955  0.2951  0.2780  0.0740
  189HFI     F5 2754   0.709   2.560   2.779  0.0587  0.4683 -0.1816
  189HFI     F6 2755   0.521   2.618   2.875  0.2204  0.2977 -0.2513
  189HFI     H1 2756   0.558   2.784   3.063 -0.3549  0.5677  0.8685
  189HFI     H2 2757   0.796   2.628   3.037  0.1274 -1.4316 -1.0212
  190HFI     O1 2758   0.006   3.188   3.355 -0.4646  0.3361  0.7219
  190HFI     C1 2759   0.003   3.335   3.379 -0.1590 -0.4214  0.7960
  190HFI     C2 2760  -0.134   3.391   3.349 -0.2667  0.1031  0.1592
  190HFI     F1 2761  -0.139   3.515   3.385  0.2726  0.0959 -0.7640
  190HFI     F2 2762  -0.233   3.326   3.423 -0.5220  0.5685  0.6056
  190HFI     F3 2763  -0.162   3.376   3.222 -0.0480 -0.0961  0.3533
  190HFI     C3 2764   0.129   3.411   3.314  0.1203  0.1696 -0.1034
  190HFI     F4 2765   0.147   3.537   3.362  0.5046 -0.0968 -0.2814
  190HFI     F5 2766   0.126   3.418   3.181  0.3858  0.1321  0.1043
  190HFI     F6 2767   0.245   3.351   3.346  0.3847 -0.2608 -0.0364
  190HFI     H1 2768   0.038   3.164   3.266 -2.2497 -1.1630  0.4795
  190HFI     H2 2769   0.006   3.354   3.487  2.3152  2.0007  0.3699
  191HFI     O1 2770   0.736   1.335   0.086  0.1013 -0.4318  0.4215
  191HFI     C1 2771   0.783   1.406  -0.036 -0.6768 -0.1584 -0.4186
  191HFI     C2 2772   0.861   1.537   0.001  0.2323 -0.0615 -0.3470
  191HFI     F1 2773   0.783   1.629   0.056  0.1154 -0.1251  0.0532
  191HFI     F2 2774   0.921   1.585  -0.110  0.0960  0.3037 -0.2682
  191HFI     F3 2775   0.960   1.514   0.090  0.3992 -0.1173  0.3482
  191HFI     C3 2776   0.655   1.432  -0.120 -0.6555  0.7895  0.7056
  191HFI     F4 2777   0.610   1.311  -0.163  0.3108 -0.3045  0.1025
  191HFI     F5 2778   0.679   1.508  -0.230  0.2842 -0.4616  0.7736
  191HFI     F6 2779   0.557   1.492  -0.045  0.6864  0.3258  0.2388
  191HFI     H1 2780   0.812   1.312   0.143  0.4216  3.1730  1.6076
  191HFI     H2 2781   0.853   1.350  -0.100  0.8765 -0.8444  1.8111
  192HFI     O1 2782   0.929   0.129   3.596  0.7717  0.2950  0.1923
  192HFI     C1 2783   0.947   0.111   3.740  0.2278  0.0684  0.9786
  192HFI     C2 2784   1.056   0.002   3.770  0.0323 -0.0208  0.0408
  192HFI     F1 2785   1.170   0.028   3.701  0.0673 -0.1815 -0.2999
  192HFI     F2 2786   1.018  -0.125   3.729 -0.1760  0.3567 -0.1477
  192HFI     F3 2787   1.091   0.001   3.905  0.6091  0.8310 -0.7132
  192HFI     C3 2788   0.814   0.069   3.807 -0.5344  0.3254 -0.0535
  192HFI     F4 2789   0.832   0.053   3.938  0.4482 -0.1665 -0.7510
  192HFI     F5 2790   0.762  -0.045   3.763  0.2889 -0.1761 -0.4664
  192HFI     F6 2791   0.726   0.167   3.786  0.5591 -0.3917  0.0098
  192HFI     H1 2792   0.863   0.068   3.559  0.2369  0.0562  1.5321
  192HFI     H2 2793   0.980   0.200   3.794  1.2086 -0.4225  1.2022
  193HFI     O1 2794   2.081   2.870   2.833 -0.3309  0.1441 -0.7518
  193HFI     C1 2795   2.086   2.727   2.842  0.7929 -0.6564  0.1223
  193HFI     C2 2796   1.985   2.667   2.952  0.2160 -0.0919  0.5549
  193HFI     F1 2797   2.019   2.711   3.076  0.3586  0.0036  0.3705
  193HFI     F2 2798   1.977   2.532   2.947  0.1185  0.1787  0.3024
  193HFI     F3 2799   1.865   2.713   2.921  0.1451 -0.3511 -0.2367
  193HFI     C3 2800   2.233   2.687   2.861  0.2898 -0.3842  0.5393
  193HFI     F4 2801   2.310   2.743   2.764 -0.1081 -0.2165  0.0292
  193HFI     F5 2802   2.260   2.559   2.872 -0.2287 -0.0027  0.1366
  193HFI     F6 2803   2.275   2.735   2.978 -0.1725 -0.3199 -0.2576
  193HFI     H1 2804   2.171   2.903   2.816 -0.5085  1.1202  0.1341
  193HFI     H2 2805   2.061   2.688   2.743 -2.3068  2.7807 -0.5636
  194HFI     O1 2806   3.243   2.754   2.195 -0.0531  0.0193 -0.0208
  194HFI     C1 2807   3.131   2.836   2.233 -0.0268 -0.3564  0.1915
  194HFI     C2 2808   3.171   2.982   2.277 -0.3792  0.9971 -0.7529
  194HFI     F1 2809   3.211   2.967   2.408 -0.6548 -0.0729 -0.1435
  194HFI     F2 2810   3.068   3.066   2.275  0.5539 -0.3372 -0.3805
  194HFI     F3 2811   3.271   3.033   2.200 -0.1889 -0.2118  0.5286
  194HFI     C3 2812   3.017   2.776   2.307  0.0081 -0.8694  0.0831
  194HFI     F4 2813   2.903   2.847   2.303 -0.0699  0.2152 -0.0852
  194HFI     F5 2814   3.048   2.759   2.436 -0.4752 -0.2672 -0.0342
  194HFI     F6 2815   2.986   2.645   2.263  0.1716  0.3579  0.0651
  194HFI     H1 2816   3.293   2.729   2.275  1.4826 -0.1672 -1.0018
  194HFI     H2 2817   3.075   2.845   2.139  0.5879  1.8232  0.0117
  195HFI     O1 2818   1.260   2.305   2.810 -0.6333 -0.0040  0.0599
  195HFI     C1 2819   1.291   2.446   2.849  0.5345 -0.7664 -0.0632
  195HFI     C2 2820   1.407   2.459   2.954  0.2571 -0.7753 -0.1494
  195HFI     F1 2821   1.496   2.365   2.944 -0.1827 -0.2391 -0.0092
  195HFI     F2 2822   1.361   2.450   3.077 -0.6121  0.3153  0.0386
  195HFI     F3 2823   1.460   2.582   2.945 -0.4213 -0.2713 -0.1636
  195HFI     C3 2824   1.171   2.541   2.883 -0.0923  0.3910 -0.3501
  195HFI     F4 2825   1.112   2.570   2.766 -0.6618  0.0972  0.0150
  195HFI     F5 2826   1.197   2.655   2.946  0.3497 -0.4635 -0.0558
  195HFI     F6 2827   1.074   2.476   2.954  0.5359  0.2134  0.4128
  195HFI     H1 2828   1.248   2.252   2.890 -2.6054  1.0589  0.5127
  195HFI     H2 2829   1.342   2.495   2.765 -2.4011 -0.9657 -2.0173
  196HFI     O1 2830   2.310   0.072   2.249 -0.0353 -0.2954  0.0393
  196HFI     C1 2831   2.364   0.154   2.358  0.3631 -0.3823 -0.2491
  196HFI     C2 2832   2.429   0.288   2.316 -0.4077  0.7855 -0.8129
  196HFI     F1 2833   2.513   0.269   2.218  0.1498  0.3753 -0.1231
  196HFI     F2 2834   2.489   0.365   2.418  0.3843 -0.0913 -0.3882
  196HFI     F3 2835   2.333   0.372   2.269  0.4306 -0.4288 -0.0236
  196HFI     C3 2836   2.447   0.068   2.455 -0.3016 -0.7065 -0.0558
  196HFI     F4 2837   2.561   0.020   2.398  0.0047 -0.0019  0.2357
  196HFI     F5 2838   2.370  -0.032   2.503 -0.3940  0.3931 -0.0392
  196HFI     F6 2839   2.492   0.141   2.562  0.1032  0.6332 -0.0663
  196HFI     H1 2840   2.346  -0.019   2.247  0.0410 -0.2261 -3.0314
  196HFI     H2 2841   2.281   0.190   2.419 -0.9212 -2.7351 -0.5334
  197HFI     O1 2842   3.295   0.949   2.715 -0.1205  0.3350  0.4639
  197HFI     C1 2843   3.431   0.949   2.757  0.3152  0.2097  0.5085
  197HFI     C2 2844   3.492   0.811   2.716 -0.2216  0.3084  0.3206
  197HFI     F1 2845   3.501   0.813   2.583  0.2589  0.3146  0.7302
  197HFI     F2 2846   3.416   0.711   2.760 -0.3092  0.3334  0.2000
  197HFI     F3 2847   3.620   0.794   2.758  0.2596 -0.1809 -0.2327
  197HFI     C3 2848   3.444   0.994   2.903 -0.4732 -0.8624 -0.5906
  197HFI     F4 2849   3.387   1.113   2.904 -0.0545  0.0464 -0.4386
  197HFI     F5 2850   3.576   1.008   2.936 -0.0882  0.3494 -0.0745
  197HFI     F6 2851   3.369   0.921   2.989 -0.5627 -0.2688  0.2237
  197HFI     H1 2852   3.240   0.909   2.784  0.4341 -0.1912  0.6107
  197HFI     H2 2853   3.483   1.022   2.692  1.1425 -2.4163 -1.8989
  198HFI     O1 2854   1.581   1.638   3.011 -0.0223 -0.4613 -0.3227
  198HFI     C1 2855   1.601   1.576   2.883  0.1868 -0.2622  0.0059
  198HFI     C2 2856   1.661   1.683   2.782 -0.8316  0.3211 -0.2297
  198HFI     F1 2857   1.586   1.798   2.758  0.0624 -0.3994  0.1096
  198HFI     F2 2858   1.684   1.621   2.667 -0.2385 -0.0370  1.0310
  198HFI     F3 2859   1.778   1.720   2.828  0.4609  0.1821  0.1572
  198HFI     C3 2860   1.469   1.508   2.835  0.2163  0.4326 -0.4867
  198HFI     F4 2861   1.382   1.599   2.786  0.0031 -0.0955 -0.1833
  198HFI     F5 2862   1.411   1.444   2.942  0.2476 -0.1501 -0.3060
  198HFI     F6 2863   1.495   1.418   2.741 -0.0793  0.5934 -0.0957
  198HFI     H1 2864   1.657   1.628   3.070  1.2219  1.4066 -1.5287
  198HFI     H2 2865   1.677   1.497   2.888 -0.3169 -0.8664 -1.3356
  199HFI     O1 2866   2.816   2.573   1.100  0.4193 -0.3596  0.3078
  199HFI     C1 2867   2.745   2.539   0.985  0.3097 -0.4306 -0.0860
  199HFI     C2 2868   2.822   2.423   0.911  0.1039  0.3820  0.2560
  199HFI     F1 2869   2.946   2.467   0.894 -0.2330  0.4339  0.2067
  199HFI     F2 2870   2.778   2.406   0.787 -0.1688  0.0724 -0.0120
  199HFI     F3 2871   2.830   2.308   0.979  0.3070 -1.0112 -0.3037
  199HFI     C3 2872   2.715   2.665   0.895  0.2215  0.3300  0.3884
  199HFI     F4 2873   2.831   2.716   0.850 -0.2021 -0.0821 -0.0692
  199HFI     F5 2874   2.651   2.757   0.963 -0.3698 -0.3380  0.1598
  199HFI     F6 2875   2.643   2.637   0.788 -0.3970  0.8795  0.3096
  199HFI     H1 2876   2.864   2.491   1.119 -0.7647 -1.1880 -0.1538
  199HFI     H2 2877   2.645   2.502   1.014 -0.5218  1.6006 -0.2852
  200HFI     O1 2878   1.510   1.007   2.905 -0.2137  0.0727  0.3679
  200HFI     C1 2879   1.422   1.066   2.999 -0.3718  0.3871 -0.4616
  200HFI     C2 2880   1.395   0.969   3.117 -0.2408 -0.7076  0.2910
  200HFI     F1 2881   1.391   0.844   3.078 -0.4243  0.1754  0.2202
  200HFI     F2 2882   1.297   1.000   3.206  0.3580  0.1010 -0.0106
  200HFI     F3 2883   1.509   0.975   3.187 -0.5572 -0.0175  0.7586
  200HFI     C3 2884   1.293   1.111   2.933 -0.0815 -0.3626 -0.2280
  200HFI     F4 2885   1.207   1.008   2.897 -0.6898  0.0822 -0.2845
  200HFI     F5 2886   1.319   1.172   2.811  0.0240  0.9951  0.2015
  200HFI     F6 2887   1.223   1.195   3.010  0.0049 -0.2273 -0.1529
  200HFI     H1 2888   1.460   0.935   2.862  1.0598  0.5366 -1.9688
  200HFI     H2 2889   1.471   1.148   3.052  3.9100 -1.5430 -1.2420
  201HFI     O1 2890   1.672   3.351   3.323  0.8407  0.1031  0.4974
  201HFI     C1 2891   1.703   3.372   3.461  0.4829  0.0372 -0.1301
  201HFI     C2 2892   1.595   3.391   3.569  0.2000  0.0956 -0.5696
  201HFI     F1 2893   1.645   3.396   3.694 -0.0304  0.4924 -0.1080
  201HFI     F2 2894   1.519   3.278   3.553 -0.6241 -0.0918  0.4249
  201HFI     F3 2895   1.521   3.498   3.549  0.3683 -0.0044 -0.4009
  201HFI     C3 2896   1.812   3.488   3.472  0.0017  0.4934  0.0122
  201HFI     F4 2897   1.750   3.609   3.429 -0.6568 -0.5776 -0.1762
  201HFI     F5 2898   1.922   3.467   3.384 -0.0064 -0.9978  0.3469
  201HFI     F6 2899   1.860   3.508   3.596 -0.1646 -0.1202  0.2487
  201HFI     H1 2900   1.580   3.367   3.295  1.4435 -0.5806 -2.0720
  201HFI     H2 2901   1.751   3.278   3.490  0.7987  0.9138  2.3627
  202HFI     O1 2902   1.604   2.894   2.919 -0.0288  0.1942 -0.5403
  202HFI     C1 2903   1.648   2.958   2.798 -0.5726  0.4938  0.0169
  202HFI     C2 2904   1.622   3.108   2.802 -0.8231 -0.4470  0.1175
  202HFI     F1 2905   1.643   3.152   2.928 -0.1401 -0.1381  0.2046
  202HFI     F2 2906   1.495   3.150   2.772  0.0513  0.6512 -0.3902
  202HFI     F3 2907   1.710   3.174   2.728 -0.2833  0.0867  0.3898
  202HFI     C3 2908   1.595   2.894   2.664  0.5701  0.2360  0.1338
  202HFI     F4 2909   1.659   2.780   2.641 -0.6394  0.1370  0.3066
  202HFI     F5 2910   1.610   2.971   2.553 -0.1111 -0.3088  0.2495
  202HFI     F6 2911   1.464   2.867   2.674  0.2812 -0.2000  0.4248
  202HFI     H1 2912   1.512   2.869   2.906  0.6225 -1.2441 -2.6790
  202HFI     H2 2913   1.756   2.961   2.780 -0.3562  1.3477  1.4105
  203HFI     O1 2914   2.400   0.742   3.115 -0.1967  0.4517 -0.5726
  203HFI     C1 2915   2.281   0.683   3.182 -0.6975  0.4064 -0.9057
  203HFI     C2 2916   2.265   0.750   3.325 -0.7020  0.0340 -0.2279
  203HFI     F1 2917   2.353   0.702   3.414 -0.2588 -0.0600 -0.0117
  203HFI     F2 2918   2.141   0.726   3.376  0.4059  0.4249 -0.1937
  203HFI     F3 2919   2.286   0.884   3.321  0.5349  0.3974  0.2547
  203HFI     C3 2920   2.281   0.526   3.191 -0.0356 -0.6612 -0.0906
  203HFI     F4 2921   2.404   0.482   3.210  0.0056  0.0305  0.0345
  203HFI     F5 2922   2.233   0.471   3.081  0.2245  0.0517  0.2612
  203HFI     F6 2923   2.204   0.479   3.294 -0.0325  0.1614 -0.0064
  203HFI     H1 2924   2.474   0.690   3.150 -2.7458 -1.2343  2.5587
  203HFI     H2 2925   2.191   0.700   3.122 -1.3877 -0.7236 -0.2279
  204HFI     O1 2926   2.017   3.352   0.490  0.1333  0.1466 -0.2534
  204HFI     C1 2927   2.038   3.466   0.393  0.8616  0.9110  0.4060
  204HFI     C2 2928   1.932   3.469   0.281  0.4492  0.6102 -0.0641
  204HFI     F1 2929   1.806   3.466   0.341 -0.3205 -0.6313 -0.1205
  204HFI     F2 2930   1.934   3.362   0.199  0.3649 -0.0242  0.1640
  204HFI     F3 2931   1.938   3.582   0.204 -0.1548  0.0477 -0.5423
  204HFI     C3 2932   2.183   3.491   0.342 -0.1945 -0.1493  0.1040
  204HFI     F4 2933   2.209   3.398   0.246 -0.3008 -0.2948  0.0246
  204HFI     F5 2934   2.271   3.487   0.446  0.4311 -0.2521 -0.2467
  204HFI     F6 2935   2.185   3.617   0.286  0.0883  0.4394  0.1451
  204HFI     H1 2936   1.935   3.309   0.462  0.4460 -1.2906  0.9693
  204HFI     H2 2937   2.027   3.560   0.449 -1.8250 -0.6419  2.5817
  205HFI     O1 2938   3.233   0.193   2.854 -0.2582 -0.0954  0.3190
  205HFI     C1 2939   3.204   0.337   2.861  0.2357  0.1646 -1.0539
  205HFI     C2 2940   3.137   0.386   2.995 -0.3983  0.1273  0.4056
  205HFI     F1 2941   3.206   0.331   3.098  0.4153  0.2419  0.6365
  205HFI     F2 2942   3.006   0.351   3.001 -0.0374  0.0412  0.3835
  205HFI     F3 2943   3.143   0.517   3.005  0.4041  0.2758  0.1008
  205HFI     C3 2944   3.127   0.383   2.737 -0.0195 -0.6305 -0.0391
  205HFI     F4 2945   3.008   0.311   2.722 -0.5662 -0.3044  0.0960
  205HFI     F5 2946   3.199   0.359   2.629  0.2223  0.4599 -1.0351
  205HFI     F6 2947   3.099   0.516   2.743 -0.2839 -0.0155  0.0898
  205HFI     H1 2948   3.316   0.174   2.900  0.6533  1.9868 -0.3825
  205HFI     H2 2949   3.296   0.396   2.855 -0.4461  1.4207  0.3000
  206HFI     O1 2950   1.258   3.015   3.431 -0.6723  0.0144  0.6528
  206HFI     C1 2951   1.330   2.920   3.346  0.4181  0.4387 -0.0266
  206HFI     C2 2952   1.477   2.949   3.346 -0.3650  0.0830 -0.2631
  206HFI     F1 2953   1.528   2.947   3.473 -0.0987 -0.6575 -0.5058
  206HFI     F2 2954   1.511   3.070   3.298 -0.3732 -0.2442  0.3183
  206HFI     F3 2955   1.545   2.860   3.275 -0.2260  0.0171  0.4174
  206HFI     C3 2956   1.261   2.909   3.203 -0.6698 -0.3191  0.6415
  206HFI     F4 2957   1.129   2.898   3.211 -0.1866 -0.4012 -0.1106
  206HFI     F5 2958   1.307   2.803   3.138 -0.5041  0.0900  0.2525
  206HFI     F6 2959   1.298   3.013   3.128  0.3733 -0.1157  0.0413
  206HFI     H1 2960   1.176   3.045   3.388 -1.0946  0.3381  1.6788
  206HFI     H2 2961   1.316   2.817   3.381 -1.1708  0.4905 -0.4366
  207HFI     O1 2962   2.706   0.184   2.728 -0.0898 -0.0068  0.3284
  207HFI     C1 2963   2.673   0.277   2.842  0.5555 -0.1085  0.0468
  207HFI     C2 2964   2.558   0.212   2.939  0.7754  0.0948 -0.7505
  207HFI     F1 2965   2.440   0.205   2.875  0.0535  0.1187  0.0474
  207HFI     F2 2966   2.540   0.284   3.047 -0.4715  0.1054  0.2067
  207HFI     F3 2967   2.594   0.083   2.980  0.2493  0.4265  0.2993
  207HFI     C3 2968   2.631   0.427   2.789  0.3433 -0.2224 -0.0896
  207HFI     F4 2969   2.523   0.414   2.707 -0.2745  0.3401 -0.3529
  207HFI     F5 2970   2.736   0.478   2.720 -0.1909  0.6019  0.1233
  207HFI     F6 2971   2.597   0.517   2.892  0.1780 -0.7360 -0.1870
  207HFI     H1 2972   2.658   0.214   2.650 -0.4269  2.0222  1.2850
  207HFI     H2 2973   2.761   0.294   2.905  0.8913  2.0333 -0.9807
  208HFI     O1 2974   1.765   0.956   2.824  0.3251 -0.5393  0.0843
  208HFI     C1 2975   1.860   1.049   2.897 -0.6829 -0.0844  0.1960
  208HFI     C2 2976   1.926   0.979   3.017  0.3586 -0.1690  0.1751
  208HFI     F1 2977   1.834   0.919   3.096  0.2749 -0.0783 -0.9794
  208HFI     F2 2978   1.981   1.072   3.102 -0.4253 -0.4718 -0.6507
  208HFI     F3 2979   2.017   0.889   2.980  0.3065  0.2657 -0.8108
  208HFI     C3 2980   1.799   1.190   2.924  0.9335 -0.1449 -1.0544
  208HFI     F4 2981   1.725   1.201   3.031 -0.0590 -0.1144 -0.0690
  208HFI     F5 2982   1.722   1.223   2.821 -0.0118 -0.7973 -0.0855
  208HFI     F6 2983   1.891   1.290   2.934  0.2398  0.2402 -0.3146
  208HFI     H1 2984   1.674   0.967   2.856 -0.1353 -1.2637 -0.9443
  208HFI     H2 2985   1.936   1.057   2.818 -2.4273 -0.3701 -1.5656
  209HFI     O1 2986   2.767   2.498   2.210  0.9887  0.5983  0.0849
  209HFI     C1 2987   2.706   2.426   2.327  0.3024 -0.7397 -0.2156
  209HFI     C2 2988   2.778   2.293   2.359 -1.3029 -0.1631  0.2469
  209HFI     F1 2989   2.697   2.213   2.438 -0.1867  0.1999  0.1801
  209HFI     F2 2990   2.891   2.322   2.421 -0.2554 -0.4409 -0.1494
  209HFI     F3 2991   2.818   2.227   2.247  0.0850 -0.1050  0.4016
  209HFI     C3 2992   2.554   2.408   2.287 -0.5362 -0.2646 -0.7803
  209HFI     F4 2993   2.557   2.332   2.182  0.1609  0.2109 -0.2342
  209HFI     F5 2994   2.505   2.526   2.255  0.1500  0.4044 -0.2322
  209HFI     F6 2995   2.482   2.351   2.384  0.8827 -0.6168  0.5118
  209HFI     H1 2996   2.858   2.464   2.201  0.8370  0.6948 -2.0008
  209HFI     H2 2997   2.709   2.491   2.416  0.7110  0.3181 -0.9833
  210HFI     O1 2998   3.137   0.123   2.421  0.4788 -0.0274  0.8088
  210HFI     C1 2999   3.018   0.082   2.347  0.9766  0.0619  0.6463
  210HFI     C2 3000   2.943   0.204   2.290 -0.9192 -0.1800  0.0796
  210HFI     F1 3001   2.843   0.177   2.213  0.4029  0.0039 -0.2257
  210HFI     F2 3002   3.030   0.285   2.225  0.7681 -0.2252  0.3502
  210HFI     F3 3003   2.896   0.280   2.397  0.4053  0.3652 -0.7470
  210HFI     C3 3004   2.936  -0.026   2.424 -0.7718 -0.5576 -0.3566
  210HFI     F4 3005   2.857   0.045   2.505 -0.1696 -0.3162 -0.1816
  210HFI     F5 3006   3.007  -0.113   2.499 -0.2525  0.1892  0.4360
  210HFI     F6 3007   2.850  -0.094   2.337 -0.4258  0.3512  0.0956
  210HFI     H1 3008   3.111   0.180   2.495 -0.4665  0.5546  0.0502
  210HFI     H2 3009   3.056   0.037   2.255  0.4921 -0.2138  0.5785
  211HFI     O1 3010   0.357   1.417   3.339  0.1769  0.0618  0.2477
  211HFI     C1 3011   0.366   1.523   3.245 -0.5974 -0.2851 -0.5530
  211HFI     C2 3012   0.506   1.518   3.167  0.3530 -0.5376  0.0987
  211HFI     F1 3013   0.504   1.402   3.105  0.0245 -0.2503 -0.0188
  211HFI     F2 3014   0.615   1.525   3.238  0.0181 -0.3440  0.0915
  211HFI     F3 3015   0.507   1.615   3.066 -0.0297 -0.5478  0.0589
  211HFI     C3 3016   0.354   1.658   3.322 -0.5281 -0.1126 -0.5919
  211HFI     F4 3017   0.241   1.675   3.386 -0.7036  0.2079 -0.9202
  211HFI     F5 3018   0.379   1.762   3.236  0.7259  0.2770 -0.3570
  211HFI     F6 3019   0.451   1.666   3.416 -0.2208 -0.0440  0.0051
  211HFI     H1 3020   0.445   1.401   3.377 -0.6650 -1.0250  1.8146
  211HFI     H2 3021   0.286   1.517   3.170 -3.0602 -0.9017  2.0474
  212HFI     O1 3022   0.567   0.449   3.327  0.1167  0.6375  0.1197
  212HFI     C1 3023   0.555   0.345   3.228  0.0547 -0.2433 -0.2914
  212HFI     C2 3024   0.474   0.232   3.286  0.0493 -0.2582 -0.5778
  212HFI     F1 3025   0.350   0.285   3.305  0.0168  0.3104 -0.0501
  212HFI     F2 3026   0.535   0.188   3.399 -0.1118  0.0465 -0.3037
  212HFI     F3 3027   0.469   0.132   3.190  0.2365 -0.2519  0.1155
  212HFI     C3 3028   0.689   0.296   3.177 -0.2458 -0.2714  0.3543
  212HFI     F4 3029   0.764   0.412   3.163  0.3548 -0.2028  0.2861
  212HFI     F5 3030   0.688   0.236   3.057 -0.4112  0.4453 -0.3062
  212HFI     F6 3031   0.747   0.221   3.269 -0.0764  0.1147 -0.3802
  212HFI     H1 3032   0.594   0.414   3.414  0.4603  0.2708 -0.1388
  212HFI     H2 3033   0.496   0.368   3.138 -0.0528 -0.6346 -0.3244
  213HFI     O1 3034   0.664   1.021   2.628  0.5044 -0.1610 -0.3717
  213HFI     C1 3035   0.636   1.090   2.751  0.4493  0.5846 -0.4753
  213HFI     C2 3036   0.743   1.058   2.859 -0.4859 -0.5127 -0.1790
  213HFI     F1 3037   0.860   1.086   2.807  0.3789 -1.1280  0.8504
  213HFI     F2 3038   0.750   0.934   2.893  0.3799  0.8058  0.1449
  213HFI     F3 3039   0.722   1.128   2.971 -0.0798 -0.4628  0.2155
  213HFI     C3 3040   0.496   1.055   2.804  0.5339 -0.1609  0.5129
  213HFI     F4 3041   0.457   1.130   2.910 -0.1848 -0.1673 -0.2044
  213HFI     F5 3042   0.484   0.920   2.840 -0.3137 -0.1955  0.0069
  213HFI     F6 3043   0.403   1.082   2.705 -0.3689  0.2426  0.0465
  213HFI     H1 3044   0.683   0.927   2.644  2.8915  0.9177  3.9550
  213HFI     H2 3045   0.631   1.199   2.744 -0.9032  0.5555 -0.0553
  214HFI     O1 3046   3.161   0.499   3.390 -0.1098  0.0347 -0.6266
  214HFI     C1 3047   3.283   0.572   3.417 -0.4905 -0.0001  0.3266
  214HFI     C2 3048   3.308   0.614   3.566 -0.0945 -0.2248  0.0840
  214HFI     F1 3049   3.400   0.717   3.579 -0.2637  0.1612 -0.1626
  214HFI     F2 3050   3.345   0.511   3.647 -0.4969 -0.6092 -0.7023
  214HFI     F3 3051   3.196   0.658   3.616 -0.4310 -0.2181  0.0328
  214HFI     C3 3052   3.286   0.702   3.318 -0.3539  0.3890  0.3496
  214HFI     F4 3053   3.185   0.786   3.356  0.1561 -0.0150  0.1571
  214HFI     F5 3054   3.260   0.660   3.191  0.1742 -0.7684  0.2591
  214HFI     F6 3055   3.406   0.762   3.312  0.4354  0.0841 -0.4209
  214HFI     H1 3056   3.085   0.548   3.425  1.3129  1.6597  0.3133
  214HFI     H2 3057   3.363   0.507   3.378 -0.5339 -0.4256  0.9453
  215HFI     O1 3058   3.112   2.630   2.896  0.2598 -0.1181  0.1312
  215HFI     C1 3059   3.022   2.680   2.791 -0.2434 -0.1309  0.4460
  215HFI     C2 3060   2.895   2.756   2.839 -0.1288 -0.4203 -0.3376
  215HFI     F1 3061   2.832   2.823   2.737 -0.0469 -0.1600  0.2687
  215HFI     F2 3062   2.939   2.848   2.928  0.7235 -0.1154  0.2112
  215HFI     F3 3063   2.811   2.664   2.901  0.4421  0.3990 -0.0605
  215HFI     C3 3064   2.986   2.561   2.687 -0.3915 -0.0364 -0.3701
  215HFI     F4 3065   2.899   2.595   2.586 -0.1481  0.2700  0.0098
  215HFI     F5 3066   2.928   2.442   2.737 -0.1245 -0.2010  0.0226
  215HFI     F6 3067   3.100   2.521   2.631 -0.4476 -0.2107  0.0399
  215HFI     H1 3068   3.053   2.610   2.971 -1.0870 -0.8102 -1.0894
  215HFI     H2 3069   3.077   2.749   2.725  1.6900 -1.8959  0.1615
  216HFI     O1 3070   0.773   3.116   3.563  0.4375  0.5170  0.0902
  216HFI     C1 3071   0.731   3.158   3.434 -0.2771 -0.1277 -1.1100
  216HFI     C2 3072   0.778   3.066   3.318  0.0676 -0.5667 -0.6109
  216HFI     F1 3073   0.910   3.068   3.302  0.1223 -0.1722 -1.0147
  216HFI     F2 3074   0.718   3.088   3.206 -0.0234 -0.4405  0.6363
  216HFI     F3 3075   0.750   2.935   3.351  0.2941  0.4001  0.1337
  216HFI     C3 3076   0.783   3.307   3.410 -0.4219 -0.2544 -0.4720
  216HFI     F4 3077   0.909   3.317   3.445 -0.4137  0.1640 -0.3151
  216HFI     F5 3078   0.719   3.397   3.489 -0.2257  0.3070  0.3764
  216HFI     F6 3079   0.770   3.348   3.278 -0.7449  0.1059 -0.2874
  216HFI     H1 3080   0.839   3.176   3.602  0.1719  0.3414  0.8144
  216HFI     H2 3081   0.622   3.168   3.434 -0.3421 -0.8516 -1.5481
  217HFI     O1 3082   1.892   3.316   2.992  0.1143 -0.1573  0.3362
  217HFI     C1 3083   2.012   3.393   2.945  0.4041  0.1830  0.3549
  217HFI     C2 3084   2.000   3.547   2.978  0.2973 -0.1280 -0.3291
  217HFI     F1 3085   2.109   3.620   2.934 -0.0405  0.0656  0.0577
  217HFI     F2 3086   1.985   3.575   3.109  0.6965 -0.2016  0.0005
  217HFI     F3 3087   1.889   3.589   2.921  0.1666  0.1276  0.7464
  217HFI     C3 3088   2.064   3.351   2.805  0.2730  0.0755 -0.0738
  217HFI     F4 3089   2.001   3.414   2.703  0.0029 -0.7523  0.4786
  217HFI     F5 3090   2.032   3.217   2.789  0.5281 -0.3366 -0.0152
  217HFI     F6 3091   2.195   3.373   2.788  0.1928  0.4703 -0.2253
  217HFI     H1 3092   1.813   3.352   2.949  0.0867 -0.5627  0.0452
  217HFI     H2 3093   2.098   3.368   3.009 -1.8930 -2.3340  2.5570
  218HFI     O1 3094   2.212   3.288   3.771  0.1809  0.2186  0.1736
  218HFI     C1 3095   2.206   3.147   3.766 -0.3558  0.0493  0.0003
  218HFI     C2 3096   2.168   3.073   3.901 -0.5232 -0.0698 -0.2066
  218HFI     F1 3097   2.250   3.118   4.006  0.0917 -0.3067  0.6535
  218HFI     F2 3098   2.188   2.943   3.889  0.1151  0.4455  0.1526
  218HFI     F3 3099   2.040   3.097   3.934  0.4034 -0.2950 -0.1186
  218HFI     C3 3100   2.334   3.097   3.699 -0.1521  0.5499 -0.3090
  218HFI     F4 3101   2.313   2.968   3.651  0.1819 -0.6127 -0.4969
  218HFI     F5 3102   2.438   3.097   3.787 -0.0510 -0.1878 -0.4084
  218HFI     F6 3103   2.374   3.169   3.591  0.1049  0.1595  0.2279
  218HFI     H1 3104   2.288   3.309   3.829  0.5705 -1.0055  0.1390
  218HFI     H2 3105   2.120   3.124   3.702 -1.8390 -0.3105  2.0591
  219HFI     O1 3106   2.192   1.485   3.342 -0.3729  0.4077 -0.0552
  219HFI     C1 3107   2.094   1.485   3.234 -0.0580  0.1113 -0.5562
  219HFI     C2 3108   2.142   1.581   3.118 -1.1058 -0.6395  0.2038
  219HFI     F1 3109   2.180   1.705   3.169 -0.3819  0.3577 -0.1787
  219HFI     F2 3110   2.053   1.601   3.016  0.2893  0.0079  0.1280
  219HFI     F3 3111   2.256   1.524   3.059 -0.2473  0.8644  0.0057
  219HFI     C3 3112   1.961   1.548   3.283 -0.1510 -0.3922  0.3405
  219HFI     F4 3113   1.862   1.545   3.192  0.1664  0.1868 -0.2414
  219HFI     F5 3114   1.967   1.669   3.337  0.8179  0.2808  0.1161
  219HFI     F6 3115   1.909   1.472   3.381 -0.7601 -0.0300  0.3146
  219HFI     H1 3116   2.166   1.429   3.417  0.2188  3.2142  2.3151
  219HFI     H2 3117   2.083   1.388   3.183 -0.4804  0.2384 -0.7140
  220HFI     O1 3118   2.376   2.868   2.268 -0.2658 -0.6250 -0.2623
  220HFI     C1 3119   2.458   2.951   2.357  0.0962  0.6778  0.0941
  220HFI     C2 3120   2.529   3.073   2.294  0.8508 -0.2283 -0.3008
  220HFI     F1 3121   2.447   3.128   2.204  0.1168 -0.5226 -0.2806
  220HFI     F2 3122   2.644   3.045   2.230 -0.1144 -0.4115  0.0232
  220HFI     F3 3123   2.556   3.171   2.383  0.3028  0.3003 -0.0703
  220HFI     C3 3124   2.548   2.851   2.443  0.1622 -0.0352 -0.0001
  220HFI     F4 3125   2.478   2.771   2.525 -0.5020 -0.0067  0.2163
  220HFI     F5 3126   2.639   2.922   2.517 -1.4896 -0.5126  0.1530
  220HFI     F6 3127   2.621   2.771   2.362 -0.1052  0.2411  0.4203
  220HFI     H1 3128   2.429   2.810   2.211 -2.8159 -1.2277 -2.1285
  220HFI     H2 3129   2.393   3.002   2.429 -0.6394  0.1020 -0.1459
  221HFI     O1 3130   0.743   1.386   2.870 -0.4076  0.3627 -0.1003
  221HFI     C1 3131   0.815   1.476   2.783  0.1322  0.2337 -0.4646
  221HFI     C2 3132   0.964   1.453   2.799 -0.6224 -0.2187  0.0272
  221HFI     F1 3133   1.001   1.468   2.929  0.2051  0.0738 -0.2685
  221HFI     F2 3134   1.041   1.528   2.721  0.7551  0.0001 -0.5021
  221HFI     F3 3135   1.000   1.328   2.771  0.0740 -0.1261  0.2424
  221HFI     C3 3136   0.777   1.622   2.808  0.3146 -0.2167  0.2543
  221HFI     F4 3137   0.639   1.637   2.797 -0.0009  0.2366 -0.6517
  221HFI     F5 3138   0.830   1.698   2.710  0.2847 -0.4151 -0.3562
  221HFI     F6 3139   0.826   1.666   2.927  0.0661  0.6185  0.4483
  221HFI     H1 3140   0.784   1.383   2.958 -2.4906 -1.0874  0.8819
  221HFI     H2 3141   0.787   1.451   2.680  1.8930 -2.9487 -0.2382
  222HFI     O1 3142   0.648   1.971   2.753 -0.1761 -0.0816  0.0657
  222HFI     C1 3143   0.647   2.070   2.857  0.3129  0.4515 -0.4172
  222HFI     C2 3144   0.795   2.137   2.874  0.5052  0.1918  0.2754
  222HFI     F1 3145   0.900   2.047   2.887 -0.1796 -0.0927  0.7935
  222HFI     F2 3146   0.784   2.205   2.985  0.6765  0.0020 -0.1366
  222HFI     F3 3147   0.823   2.228   2.780 -0.2535  0.1557  0.4026
  222HFI     C3 3148   0.602   1.998   2.988  0.1235  0.0773  0.2858
  222HFI     F4 3149   0.693   1.918   3.040 -0.2464  0.5464  0.0367
  222HFI     F5 3150   0.490   1.923   2.968  0.2158 -0.3329  0.1549
  222HFI     F6 3151   0.555   2.082   3.077 -0.0029 -0.3379  0.1453
  222HFI     H1 3152   0.561   1.929   2.754 -0.9473  1.4258 -1.2887
  222HFI     H2 3153   0.587   2.156   2.825 -1.8085 -1.1390 -0.8093
  223HFI     O1 3154   2.499   0.976   0.328  0.1206 -0.2377  0.2339
  223HFI     C1 3155   2.476   1.005   0.187 -0.1453 -0.1431  0.1558
  223HFI     C2 3156   2.398   0.894   0.122  0.9451 -0.2924  1.4784
  223HFI     F1 3157   2.385   0.912  -0.013 -0.3269 -0.5295 -0.2210
  223HFI     F2 3158   2.274   0.890   0.168 -0.3310  0.3694  0.2559
  223HFI     F3 3159   2.448   0.771   0.140 -0.0607 -0.0507  0.2737
  223HFI     C3 3160   2.619   1.038   0.119 -0.1383 -0.2132  0.0638
  223HFI     F4 3161   2.668   1.160   0.165 -0.1635 -0.1124  0.2037
  223HFI     F5 3162   2.609   1.052  -0.017 -0.2919 -0.3843 -0.2973
  223HFI     F6 3163   2.718   0.950   0.153 -0.0164 -0.1335 -0.0877
  223HFI     H1 3164   2.422   0.945   0.379 -0.9925  2.5850  0.4025
  223HFI     H2 3165   2.415   1.096   0.175  0.6989  0.4698  0.3836
  224HFI     O1 3166   3.207   1.179   3.438  0.3883 -0.1286 -0.1588
  224HFI     C1 3167   3.227   1.265   3.326 -0.4265  0.1205  0.0601
  224HFI     C2 3168   3.370   1.244   3.261 -0.6547 -0.2183 -0.4307
  224HFI     F1 3169   3.474   1.291   3.336  0.0750 -0.4368  0.3965
  224HFI     F2 3170   3.387   1.304   3.135  0.0125 -0.0318  0.2007
  224HFI     F3 3171   3.398   1.112   3.246  0.2644 -0.1730  0.5267
  224HFI     C3 3172   3.192   1.409   3.362  0.1576  0.1351  0.0802
  224HFI     F4 3173   3.073   1.402   3.422 -0.4039  0.3996  0.8130
  224HFI     F5 3174   3.188   1.491   3.259  0.2917  0.5996 -0.1013
  224HFI     F6 3175   3.277   1.468   3.452  0.2840  0.0285 -0.0788
  224HFI     H1 3176   3.173   1.223   3.518  2.3445  0.4598  0.3959
  224HFI     H2 3177   3.159   1.229   3.248 -2.5856  0.1031  1.8643
  225HFI     O1 3178   0.478   0.353   0.085 -0.3480  0.7608  0.2463
  225HFI     C1 3179   0.337   0.391   0.046  0.0184  0.6326 -0.2605
  225HFI     C2 3180   0.323   0.360  -0.110 -0.7297 -0.4227 -0.3136
  225HFI     F1 3181   0.426   0.420  -0.179 -0.4036 -0.1095  0.2686
  225HFI     F2 3182   0.207   0.412  -0.160 -0.1013 -0.1922  0.0656
  225HFI     F3 3183   0.327   0.223  -0.133 -0.4140 -0.1390  0.2867
  225HFI     C3 3184   0.300   0.534   0.084 -0.0801 -0.6082  0.2838
  225HFI     F4 3185   0.351   0.640   0.015  0.7583  0.6587  0.2781
  225HFI     F5 3186   0.336   0.557   0.209 -0.0710  0.1581  0.0916
  225HFI     F6 3187   0.166   0.562   0.079  0.0469 -0.5850 -0.1281
  225HFI     H1 3188   0.532   0.413   0.031 -0.1060  0.9520  0.7000
  225HFI     H2 3189   0.261   0.325   0.090 -0.6341  1.3806 -0.2692
  226HFI     O1 3190   2.124   1.398   2.393  0.0565  0.5510  0.1963
  226HFI     C1 3191   2.039   1.432   2.503 -0.2905 -0.1036 -0.4197
  226HFI     C2 3192   2.128   1.453   2.627  0.2950  0.4982  0.4519
  226HFI     F1 3193   2.220   1.350   2.644  0.5899 -0.7103 -0.1877
  226HFI     F2 3194   2.062   1.468   2.744 -0.5266  0.5092  0.3106
  226HFI     F3 3195   2.194   1.568   2.608 -0.4501 -0.2815 -0.1165
  226HFI     C3 3196   1.924   1.337   2.513 -0.0421 -0.0872 -0.8135
  226HFI     F4 3197   1.838   1.383   2.602  0.4893 -0.2753 -0.3154
  226HFI     F5 3198   1.967   1.216   2.551  0.5473  0.0110 -0.1107
  226HFI     F6 3199   1.859   1.332   2.394 -0.0378  0.2889  0.0240
  226HFI     H1 3200   2.195   1.344   2.432 -1.5187 -0.7268  1.3450
  226HFI     H2 3201   2.009   1.535   2.481  0.7071  0.6193  1.5571
  227HFI     O1 3202   0.173   0.621   2.361  0.6708 -0.0306  0.1646
  227HFI     C1 3203   0.044   0.581   2.304 -0.4945 -0.2207  0.4035
  227HFI     C2 3204  -0.049   0.707   2.279  0.1170 -0.2149  0.6417
  227HFI     F1 3205  -0.100   0.750   2.394  0.0784  0.1916 -0.0141
  227HFI     F2 3206  -0.153   0.674   2.197  0.7960 -0.1624 -0.0057
  227HFI     F3 3207   0.025   0.802   2.217  0.1047  0.3847  0.6476
  227HFI     C3 3208  -0.025   0.472   2.391 -0.1851 -1.0776 -0.3972
  227HFI     F4 3209   0.032   0.354   2.381  0.4434 -0.5360  0.1775
  227HFI     F5 3210  -0.157   0.465   2.366  0.3815 -0.1357 -0.0921
  227HFI     F6 3211  -0.014   0.500   2.521 -0.7167  0.5129  0.4033
  227HFI     H1 3212   0.180   0.717   2.377  0.6155 -0.2138  1.2802
  227HFI     H2 3213   0.051   0.546   2.200 -2.2706  1.2276 -0.2284
  228HFI     O1 3214   0.975   2.036   3.314  0.3889  0.6089 -0.3939
  228HFI     C1 3215   0.857   1.954   3.340 -0.0236 -0.9972  0.0579
  228HFI     C2 3216   0.806   1.979   3.478  0.5827  0.3617  0.1730
  228HFI     F1 3217   0.784   2.115   3.493  0.5288  0.0299  0.6672
  228HFI     F2 3218   0.899   1.950   3.566  0.4845  0.9018 -0.9500
  228HFI     F3 3219   0.695   1.904   3.499  0.5422 -0.3672 -0.0675
  228HFI     C3 3220   0.881   1.811   3.305  0.0487 -0.6518  0.4875
  228HFI     F4 3221   0.773   1.739   3.301  0.2982  0.4337 -0.3629
  228HFI     F5 3222   0.970   1.756   3.394  0.0242 -0.4365  0.2096
  228HFI     F6 3223   0.930   1.791   3.180 -0.5885  0.2591  0.0229
  228HFI     H1 3224   1.048   1.972   3.318 -0.3011 -0.2052 -0.6620
  228HFI     H2 3225   0.777   1.992   3.276 -0.0471 -2.8668 -1.0923
   3.40320   3.43847   3.80000
