DMF comparator n4
 4173
    1GR      C1    1   0.000   0.000   1.900  0.0000  0.0000  0.0000
    1GR      C2    2   0.142   0.000   1.900  0.0000  0.0000  0.0000
    1GR      C3    3   0.213   0.123   1.900  0.0000  0.0000  0.0000
    1GR      C4    4   0.354   0.123   1.900  0.0000  0.0000  0.0000
    1GR      C5    5   0.000   0.246   1.900  0.0000  0.0000  0.0000
    1GR      C6    6   0.142   0.246   1.900  0.0000  0.0000  0.0000
    1GR      C7    7   0.213   0.368   1.900  0.0000  0.0000  0.0000
    1GR      C8    8   0.354   0.368   1.900  0.0000  0.0000  0.0000
    1GR      C9    9   0.000   0.491   1.900  0.0000  0.0000  0.0000
    1GR     C10   10   0.142   0.491   1.900  0.0000  0.0000  0.0000
    1GR     C11   11   0.213   0.614   1.900  0.0000  0.0000  0.0000
    1GR     C12   12   0.354   0.614   1.900  0.0000  0.0000  0.0000
    1GR     C13   13   0.000   0.737   1.900  0.0000  0.0000  0.0000
    1GR     C14   14   0.142   0.737   1.900  0.0000  0.0000  0.0000
    1GR     C15   15   0.213   0.860   1.900  0.0000  0.0000  0.0000
    1GR     C16   16   0.354   0.860   1.900  0.0000  0.0000  0.0000
    1GR     C17   17   0.000   0.982   1.900  0.0000  0.0000  0.0000
    1GR     C18   18   0.142   0.982   1.900  0.0000  0.0000  0.0000
    1GR     C19   19   0.213   1.105   1.900  0.0000  0.0000  0.0000
    1GR     C20   20   0.354   1.105   1.900  0.0000  0.0000  0.0000
    1GR     C21   21   0.000   1.228   1.900  0.0000  0.0000  0.0000
    1GR     C22   22   0.142   1.228   1.900  0.0000  0.0000  0.0000
    1GR     C23   23   0.213   1.351   1.900  0.0000  0.0000  0.0000
    1GR     C24   24   0.354   1.351   1.900  0.0000  0.0000  0.0000
    1GR     C25   25   0.000   1.474   1.900  0.0000  0.0000  0.0000
    1GR     C26   26   0.142   1.474   1.900  0.0000  0.0000  0.0000
    1GR     C27   27   0.213   1.596   1.900  0.0000  0.0000  0.0000
    1GR     C28   28   0.354   1.596   1.900  0.0000  0.0000  0.0000
    1GR     C29   29   0.000   1.719   1.900  0.0000  0.0000  0.0000
    1GR     C30   30   0.142   1.719   1.900  0.0000  0.0000  0.0000
    1GR     C31   31   0.213   1.842   1.900  0.0000  0.0000  0.0000
    1GR     C32   32   0.354   1.842   1.900  0.0000  0.0000  0.0000
    1GR     C33   33   0.000   1.965   1.900  0.0000  0.0000  0.0000
    1GR     C34   34   0.142   1.965   1.900  0.0000  0.0000  0.0000
    1GR     C35   35   0.213   2.088   1.900  0.0000  0.0000  0.0000
    1GR     C36   36   0.354   2.088   1.900  0.0000  0.0000  0.0000
    1GR     C37   37   0.000   2.210   1.900  0.0000  0.0000  0.0000
    1GR     C38   38   0.142   2.210   1.900  0.0000  0.0000  0.0000
    1GR     C39   39   0.213   2.333   1.900  0.0000  0.0000  0.0000
    1GR     C40   40   0.354   2.333   1.900  0.0000  0.0000  0.0000
    1GR     C41   41   0.000   2.456   1.900  0.0000  0.0000  0.0000
    1GR     C42   42   0.142   2.456   1.900  0.0000  0.0000  0.0000
    1GR     C43   43   0.213   2.579   1.900  0.0000  0.0000  0.0000
    1GR     C44   44   0.354   2.579   1.900  0.0000  0.0000  0.0000
    1GR     C45   45   0.000   2.702   1.900  0.0000  0.0000  0.0000
    1GR     C46   46   0.142   2.702   1.900  0.0000  0.0000  0.0000
    1GR     C47   47   0.213   2.824   1.900  0.0000  0.0000  0.0000
    1GR     C48   48   0.354   2.824   1.900  0.0000  0.0000  0.0000
    1GR     C49   49   0.000   2.947   1.900  0.0000  0.0000  0.0000
    1GR     C50   50   0.142   2.947   1.900  0.0000  0.0000  0.0000
    1GR     C51   51   0.213   3.070   1.900  0.0000  0.0000  0.0000
    1GR     C52   52   0.354   3.070   1.900  0.0000  0.0000  0.0000
    1GR     C53   53   0.000   3.193   1.900  0.0000  0.0000  0.0000
    1GR     C54   54   0.142   3.193   1.900  0.0000  0.0000  0.0000
    1GR     C55   55   0.213   3.316   1.900  0.0000  0.0000  0.0000
    1GR     C56   56   0.354   3.316   1.900  0.0000  0.0000  0.0000
    1GR     C57   57   0.425   0.000   1.900  0.0000  0.0000  0.0000
    1GR     C58   58   0.567   0.000   1.900  0.0000  0.0000  0.0000
    1GR     C59   59   0.638   0.123   1.900  0.0000  0.0000  0.0000
    1GR     C60   60   0.780   0.123   1.900  0.0000  0.0000  0.0000
    1GR     C61   61   0.425   0.246   1.900  0.0000  0.0000  0.0000
    1GR     C62   62   0.567   0.246   1.900  0.0000  0.0000  0.0000
    1GR     C63   63   0.638   0.368   1.900  0.0000  0.0000  0.0000
    1GR     C64   64   0.780   0.368   1.900  0.0000  0.0000  0.0000
    1GR     C65   65   0.425   0.491   1.900  0.0000  0.0000  0.0000
    1GR     C66   66   0.567   0.491   1.900  0.0000  0.0000  0.0000
    1GR     C67   67   0.638   0.614   1.900  0.0000  0.0000  0.0000
    1GR     C68   68   0.780   0.614   1.900  0.0000  0.0000  0.0000
    1GR     C69   69   0.425   0.737   1.900  0.0000  0.0000  0.0000
    1GR     C70   70   0.567   0.737   1.900  0.0000  0.0000  0.0000
    1GR     C71   71   0.638   0.860   1.900  0.0000  0.0000  0.0000
    1GR     C72   72   0.780   0.860   1.900  0.0000  0.0000  0.0000
    1GR     C73   73   0.425   0.982   1.900  0.0000  0.0000  0.0000
    1GR     C74   74   0.567   0.982   1.900  0.0000  0.0000  0.0000
    1GR     C75   75   0.638   1.105   1.900  0.0000  0.0000  0.0000
    1GR     C76   76   0.780   1.105   1.900  0.0000  0.0000  0.0000
    1GR     C77   77   0.425   1.228   1.900  0.0000  0.0000  0.0000
    1GR     C78   78   0.567   1.228   1.900  0.0000  0.0000  0.0000
    1GR     C79   79   0.638   1.351   1.900  0.0000  0.0000  0.0000
    1GR     C80   80   0.780   1.351   1.900  0.0000  0.0000  0.0000
    1GR     C81   81   0.425   1.474   1.900  0.0000  0.0000  0.0000
    1GR     C82   82   0.567   1.474   1.900  0.0000  0.0000  0.0000
    1GR     C83   83   0.638   1.596   1.900  0.0000  0.0000  0.0000
    1GR     C84   84   0.780   1.596   1.900  0.0000  0.0000  0.0000
    1GR     C85   85   0.425   1.719   1.900  0.0000  0.0000  0.0000
    1GR     C86   86   0.567   1.719   1.900  0.0000  0.0000  0.0000
    1GR     C87   87   0.638   1.842   1.900  0.0000  0.0000  0.0000
    1GR     C88   88   0.780   1.842   1.900  0.0000  0.0000  0.0000
    1GR     C89   89   0.425   1.965   1.900  0.0000  0.0000  0.0000
    1GR     C90   90   0.567   1.965   1.900  0.0000  0.0000  0.0000
    1GR     C91   91   0.638   2.088   1.900  0.0000  0.0000  0.0000
    1GR     C92   92   0.780   2.088   1.900  0.0000  0.0000  0.0000
    1GR     C93   93   0.425   2.210   1.900  0.0000  0.0000  0.0000
    1GR     C94   94   0.567   2.210   1.900  0.0000  0.0000  0.0000
    1GR     C95   95   0.638   2.333   1.900  0.0000  0.0000  0.0000
    1GR     C96   96   0.780   2.333   1.900  0.0000  0.0000  0.0000
    1GR     C97   97   0.425   2.456   1.900  0.0000  0.0000  0.0000
    1GR     C98   98   0.567   2.456   1.900  0.0000  0.0000  0.0000
    1GR     C99   99   0.638   2.579   1.900  0.0000  0.0000  0.0000
    1GR    C100  100   0.780   2.579   1.900  0.0000  0.0000  0.0000
    1GR    C101  101   0.425   2.702   1.900  0.0000  0.0000  0.0000
    1GR    C102  102   0.567   2.702   1.900  0.0000  0.0000  0.0000
    1GR    C103  103   0.638   2.824   1.900  0.0000  0.0000  0.0000
    1GR    C104  104   0.780   2.824   1.900  0.0000  0.0000  0.0000
    1GR    C105  105   0.425   2.947   1.900  0.0000  0.0000  0.0000
    1GR    C106  106   0.567   2.947   1.900  0.0000  0.0000  0.0000
    1GR    C107  107   0.638   3.070   1.900  0.0000  0.0000  0.0000
    1GR    C108  108   0.780   3.070   1.900  0.0000  0.0000  0.0000
    1GR    C109  109   0.425   3.193   1.900  0.0000  0.0000  0.0000
    1GR    C110  110   0.567   3.193   1.900  0.0000  0.0000  0.0000
    1GR    C111  111   0.638   3.316   1.900  0.0000  0.0000  0.0000
    1GR    C112  112   0.780   3.316   1.900  0.0000  0.0000  0.0000
    1GR    C113  113   0.851   0.000   1.900  0.0000  0.0000  0.0000
    1GR    C114  114   0.993   0.000   1.900  0.0000  0.0000  0.0000
    1GR    C115  115   1.064   0.123   1.900  0.0000  0.0000  0.0000
    1GR    C116  116   1.205   0.123   1.900  0.0000  0.0000  0.0000
    1GR    C117  117   0.851   0.246   1.900  0.0000  0.0000  0.0000
    1GR    C118  118   0.993   0.246   1.900  0.0000  0.0000  0.0000
    1GR    C119  119   1.064   0.368   1.900  0.0000  0.0000  0.0000
    1GR    C120  120   1.205   0.368   1.900  0.0000  0.0000  0.0000
    1GR    C121  121   0.851   0.491   1.900  0.0000  0.0000  0.0000
    1GR    C122  122   0.993   0.491   1.900  0.0000  0.0000  0.0000
    1GR    C123  123   1.064   0.614   1.900  0.0000  0.0000  0.0000
    1GR    C124  124   1.205   0.614   1.900  0.0000  0.0000  0.0000
    1GR    C125  125   0.851   0.737   1.900  0.0000  0.0000  0.0000
    1GR    C126  126   0.993   0.737   1.900  0.0000  0.0000  0.0000
    1GR    C127  127   1.064   0.860   1.900  0.0000  0.0000  0.0000
    1GR    C128  128   1.205   0.860   1.900  0.0000  0.0000  0.0000
    1GR    C129  129   0.851   0.982   1.900  0.0000  0.0000  0.0000
    1GR    C130  130   0.993   0.982   1.900  0.0000  0.0000  0.0000
    1GR    C131  131   1.064   1.105   1.900  0.0000  0.0000  0.0000
    1GR    C132  132   1.205   1.105   1.900  0.0000  0.0000  0.0000
    1GR    C133  133   0.851   1.228   1.900  0.0000  0.0000  0.0000
    1GR    C134  134   0.993   1.228   1.900  0.0000  0.0000  0.0000
    1GR    C135  135   1.064   1.351   1.900  0.0000  0.0000  0.0000
    1GR    C136  136   1.205   1.351   1.900  0.0000  0.0000  0.0000
    1GR    C137  137   0.851   1.474   1.900  0.0000  0.0000  0.0000
    1GR    C138  138   0.993   1.474   1.900  0.0000  0.0000  0.0000
    1GR    C139  139   1.064   1.596   1.900  0.0000  0.0000  0.0000
    1GR    C140  140   1.205   1.596   1.900  0.0000  0.0000  0.0000
    1GR    C141  141   0.851   1.719   1.900  0.0000  0.0000  0.0000
    1GR    C142  142   0.993   1.719   1.900  0.0000  0.0000  0.0000
    1GR    C143  143   1.064   1.842   1.900  0.0000  0.0000  0.0000
    1GR    C144  144   1.205   1.842   1.900  0.0000  0.0000  0.0000
    1GR    C145  145   0.851   1.965   1.900  0.0000  0.0000  0.0000
    1GR    C146  146   0.993   1.965   1.900  0.0000  0.0000  0.0000
    1GR    C147  147   1.064   2.088   1.900  0.0000  0.0000  0.0000
    1GR    C148  148   1.205   2.088   1.900  0.0000  0.0000  0.0000
    1GR    C149  149   0.851   2.210   1.900  0.0000  0.0000  0.0000
    1GR    C150  150   0.993   2.210   1.900  0.0000  0.0000  0.0000
    1GR    C151  151   1.064   2.333   1.900  0.0000  0.0000  0.0000
    1GR    C152  152   1.205   2.333   1.900  0.0000  0.0000  0.0000
    1GR    C153  153   0.851   2.456   1.900  0.0000  0.0000  0.0000
    1GR    C154  154   0.993   2.456   1.900  0.0000  0.0000  0.0000
    1GR    C155  155   1.064   2.579   1.900  0.0000  0.0000  0.0000
    1GR    C156  156   1.205   2.579   1.900  0.0000  0.0000  0.0000
    1GR    C157  157   0.851   2.702   1.900  0.0000  0.0000  0.0000
    1GR    C158  158   0.993   2.702   1.900  0.0000  0.0000  0.0000
    1GR    C159  159   1.064   2.824   1.900  0.0000  0.0000  0.0000
    1GR    C160  160   1.205   2.824   1.900  0.0000  0.0000  0.0000
    1GR    C161  161   0.851   2.947   1.900  0.0000  0.0000  0.0000
    1GR    C162  162   0.993   2.947   1.900  0.0000  0.0000  0.0000
    1GR    C163  163   1.064   3.070   1.900  0.0000  0.0000  0.0000
    1GR    C164  164   1.205   3.070   1.900  0.0000  0.0000  0.0000
    1GR    C165  165   0.851   3.193   1.900  0.0000  0.0000  0.0000
    1GR    C166  166   0.993   3.193   1.900  0.0000  0.0000  0.0000
    1GR    C167  167   1.064   3.316   1.900  0.0000  0.0000  0.0000
    1GR    C168  168   1.205   3.316   1.900  0.0000  0.0000  0.0000
    1GR    C169  169   1.276   0.000   1.900  0.0000  0.0000  0.0000
    1GR    C170  170   1.418   0.000   1.900  0.0000  0.0000  0.0000
    1GR    C171  171   1.489   0.123   1.900  0.0000  0.0000  0.0000
    1GR    C172  172   1.631   0.123   1.900  0.0000  0.0000  0.0000
    1GR    C173  173   1.276   0.246   1.900  0.0000  0.0000  0.0000
    1GR    C174  174   1.418   0.246   1.900  0.0000  0.0000  0.0000
    1GR    C175  175   1.489   0.368   1.900  0.0000  0.0000  0.0000
    1GR    C176  176   1.631   0.368   1.900  0.0000  0.0000  0.0000
    1GR    C177  177   1.276   0.491   1.900  0.0000  0.0000  0.0000
    1GR    C178  178   1.418   0.491   1.900  0.0000  0.0000  0.0000
    1GR    C179  179   1.489   0.614   1.900  0.0000  0.0000  0.0000
    1GR    C180  180   1.631   0.614   1.900  0.0000  0.0000  0.0000
    1GR    C181  181   1.276   0.737   1.900  0.0000  0.0000  0.0000
    1GR    C182  182   1.418   0.737   1.900  0.0000  0.0000  0.0000
    1GR    C183  183   1.489   0.860   1.900  0.0000  0.0000  0.0000
    1GR    C184  184   1.631   0.860   1.900  0.0000  0.0000  0.0000
    1GR    C185  185   1.276   0.982   1.900  0.0000  0.0000  0.0000
    1GR    C186  186   1.418   0.982   1.900  0.0000  0.0000  0.0000
    1GR    C187  187   1.489   1.105   1.900  0.0000  0.0000  0.0000
    1GR    C188  188   1.631   1.105   1.900  0.0000  0.0000  0.0000
    1GR    C189  189   1.276   1.228   1.900  0.0000  0.0000  0.0000
    1GR    C190  190   1.418   1.228   1.900  0.0000  0.0000  0.0000
    1GR    C191  191   1.489   1.351   1.900  0.0000  0.0000  0.0000
    1GR    C192  192   1.631   1.351   1.900  0.0000  0.0000  0.0000
    1GR    C193  193   1.276   1.474   1.900  0.0000  0.0000  0.0000
    1GR    C194  194   1.418   1.474   1.900  0.0000  0.0000  0.0000
    1GR    C195  195   1.489   1.596   1.900  0.0000  0.0000  0.0000
    1GR    C196  196   1.631   1.596   1.900  0.0000  0.0000  0.0000
    1GR    C197  197   1.276   1.719   1.900  0.0000  0.0000  0.0000
    1GR    C198  198   1.418   1.719   1.900  0.0000  0.0000  0.0000
    1GR    C199  199   1.489   1.842   1.900  0.0000  0.0000  0.0000
    1GR    C200  200   1.631   1.842   1.900  0.0000  0.0000  0.0000
    1GR    C201  201   1.276   1.965   1.900  0.0000  0.0000  0.0000
    1GR    C202  202   1.418   1.965   1.900  0.0000  0.0000  0.0000
    1GR    C203  203   1.489   2.088   1.900  0.0000  0.0000  0.0000
    1GR    C204  204   1.631   2.088   1.900  0.0000  0.0000  0.0000
    1GR    C205  205   1.276   2.210   1.900  0.0000  0.0000  0.0000
    1GR    C206  206   1.418   2.210   1.900  0.0000  0.0000  0.0000
    1GR    C207  207   1.489   2.333   1.900  0.0000  0.0000  0.0000
    1GR    C208  208   1.631   2.333   1.900  0.0000  0.0000  0.0000
    1GR    C209  209   1.276   2.456   1.900  0.0000  0.0000  0.0000
    1GR    C210  210   1.418   2.456   1.900  0.0000  0.0000  0.0000
    1GR    C211  211   1.489   2.579   1.900  0.0000  0.0000  0.0000
    1GR    C212  212   1.631   2.579   1.900  0.0000  0.0000  0.0000
    1GR    C213  213   1.276   2.702   1.900  0.0000  0.0000  0.0000
    1GR    C214  214   1.418   2.702   1.900  0.0000  0.0000  0.0000
    1GR    C215  215   1.489   2.824   1.900  0.0000  0.0000  0.0000
    1GR    C216  216   1.631   2.824   1.900  0.0000  0.0000  0.0000
    1GR    C217  217   1.276   2.947   1.900  0.0000  0.0000  0.0000
    1GR    C218  218   1.418   2.947   1.900  0.0000  0.0000  0.0000
    1GR    C219  219   1.489   3.070   1.900  0.0000  0.0000  0.0000
    1GR    C220  220   1.631   3.070   1.900  0.0000  0.0000  0.0000
    1GR    C221  221   1.276   3.193   1.900  0.0000  0.0000  0.0000
    1GR    C222  222   1.418   3.193   1.900  0.0000  0.0000  0.0000
    1GR    C223  223   1.489   3.316   1.900  0.0000  0.0000  0.0000
    1GR    C224  224   1.631   3.316   1.900  0.0000  0.0000  0.0000
    1GR    C225  225   1.702   0.000   1.900  0.0000  0.0000  0.0000
    1GR    C226  226   1.843   0.000   1.900  0.0000  0.0000  0.0000
    1GR    C227  227   1.914   0.123   1.900  0.0000  0.0000  0.0000
    1GR    C228  228   2.056   0.123   1.900  0.0000  0.0000  0.0000
    1GR    C229  229   1.702   0.246   1.900  0.0000  0.0000  0.0000
    1GR    C230  230   1.843   0.246   1.900  0.0000  0.0000  0.0000
    1GR    C231  231   1.914   0.368   1.900  0.0000  0.0000  0.0000
    1GR    C232  232   2.056   0.368   1.900  0.0000  0.0000  0.0000
    1GR    C233  233   1.702   0.491   1.900  0.0000  0.0000  0.0000
    1GR    C234  234   1.843   0.491   1.900  0.0000  0.0000  0.0000
    1GR    C235  235   1.914   0.614   1.900  0.0000  0.0000  0.0000
    1GR    C236  236   2.056   0.614   1.900  0.0000  0.0000  0.0000
    1GR    C237  237   1.702   0.737   1.900  0.0000  0.0000  0.0000
    1GR    C238  238   1.843   0.737   1.900  0.0000  0.0000  0.0000
    1GR    C239  239   1.914   0.860   1.900  0.0000  0.0000  0.0000
    1GR    C240  240   2.056   0.860   1.900  0.0000  0.0000  0.0000
    1GR    C241  241   1.702   0.982   1.900  0.0000  0.0000  0.0000
    1GR    C242  242   1.843   0.982   1.900  0.0000  0.0000  0.0000
    1GR    C243  243   1.914   1.105   1.900  0.0000  0.0000  0.0000
    1GR    C244  244   2.056   1.105   1.900  0.0000  0.0000  0.0000
    1GR    C245  245   1.702   1.228   1.900  0.0000  0.0000  0.0000
    1GR    C246  246   1.843   1.228   1.900  0.0000  0.0000  0.0000
    1GR    C247  247   1.914   1.351   1.900  0.0000  0.0000  0.0000
    1GR    C248  248   2.056   1.351   1.900  0.0000  0.0000  0.0000
    1GR    C249  249   1.702   1.474   1.900  0.0000  0.0000  0.0000
    1GR    C250  250   1.843   1.474   1.900  0.0000  0.0000  0.0000
    1GR    C251  251   1.914   1.596   1.900  0.0000  0.0000  0.0000
    1GR    C252  252   2.056   1.596   1.900  0.0000  0.0000  0.0000
    1GR    C253  253   1.702   1.719   1.900  0.0000  0.0000  0.0000
    1GR    C254  254   1.843   1.719   1.900  0.0000  0.0000  0.0000
    1GR    C255  255   1.914   1.842   1.900  0.0000  0.0000  0.0000
    1GR    C256  256   2.056   1.842   1.900  0.0000  0.0000  0.0000
    1GR    C257  257   1.702   1.965   1.900  0.0000  0.0000  0.0000
    1GR    C258  258   1.843   1.965   1.900  0.0000  0.0000  0.0000
    1GR    C259  259   1.914   2.088   1.900  0.0000  0.0000  0.0000
    1GR    C260  260   2.056   2.088   1.900  0.0000  0.0000  0.0000
    1GR    C261  261   1.702   2.210   1.900  0.0000  0.0000  0.0000
    1GR    C262  262   1.843   2.210   1.900  0.0000  0.0000  0.0000
    1GR    C263  263   1.914   2.333   1.900  0.0000  0.0000  0.0000
    1GR    C264  264   2.056   2.333   1.900  0.0000  0.0000  0.0000
    1GR    C265  265   1.702   2.456   1.900  0.0000  0.0000  0.0000
    1GR    C266  266   1.843   2.456   1.900  0.0000  0.0000  0.0000
    1GR    C267  267   1.914   2.579   1.900  0.0000  0.0000  0.0000
    1GR    C268  268   2.056   2.579   1.900  0.0000  0.0000  0.0000
    1GR    C269  269   1.702   2.702   1.900  0.0000  0.0000  0.0000
    1GR    C270  270   1.843   2.702   1.900  0.0000  0.0000  0.0000
    1GR    C271  271   1.914   2.824   1.900  0.0000  0.0000  0.0000
    1GR    C272  272   2.056   2.824   1.900  0.0000  0.0000  0.0000
    1GR    C273  273   1.702   2.947   1.900  0.0000  0.0000  0.0000
    1GR    C274  274   1.843   2.947   1.900  0.0000  0.0000  0.0000
    1GR    C275  275   1.914   3.070   1.900  0.0000  0.0000  0.0000
    1GR    C276  276   2.056   3.070   1.900  0.0000  0.0000  0.0000
    1GR    C277  277   1.702   3.193   1.900  0.0000  0.0000  0.0000
    1GR    C278  278   1.843   3.193   1.900  0.0000  0.0000  0.0000
    1GR    C279  279   1.914   3.316   1.900  0.0000  0.0000  0.0000
    1GR    C280  280   2.056   3.316   1.900  0.0000  0.0000  0.0000
    1GR    C281  281   2.127   0.000   1.900  0.0000  0.0000  0.0000
    1GR    C282  282   2.269   0.000   1.900  0.0000  0.0000  0.0000
    1GR    C283  283   2.340   0.123   1.900  0.0000  0.0000  0.0000
    1GR    C284  284   2.481   0.123   1.900  0.0000  0.0000  0.0000
    1GR    C285  285   2.127   0.246   1.900  0.0000  0.0000  0.0000
    1GR    C286  286   2.269   0.246   1.900  0.0000  0.0000  0.0000
    1GR    C287  287   2.340   0.368   1.900  0.0000  0.0000  0.0000
    1GR    C288  288   2.481   0.368   1.900  0.0000  0.0000  0.0000
    1GR    C289  289   2.127   0.491   1.900  0.0000  0.0000  0.0000
    1GR    C290  290   2.269   0.491   1.900  0.0000  0.0000  0.0000
    1GR    C291  291   2.340   0.614   1.900  0.0000  0.0000  0.0000
    1GR    C292  292   2.481   0.614   1.900  0.0000  0.0000  0.0000
    1GR    C293  293   2.127   0.737   1.900  0.0000  0.0000  0.0000
    1GR    C294  294   2.269   0.737   1.900  0.0000  0.0000  0.0000
    1GR    C295  295   2.340   0.860   1.900  0.0000  0.0000  0.0000
    1GR    C296  296   2.481   0.860   1.900  0.0000  0.0000  0.0000
    1GR    C297  297   2.127   0.982   1.900  0.0000  0.0000  0.0000
    1GR    C298  298   2.269   0.982   1.900  0.0000  0.0000  0.0000
    1GR    C299  299   2.340   1.105   1.900  0.0000  0.0000  0.0000
    1GR    C300  300   2.481   1.105   1.900  0.0000  0.0000  0.0000
    1GR    C301  301   2.127   1.228   1.900  0.0000  0.0000  0.0000
    1GR    C302  302   2.269   1.228   1.900  0.0000  0.0000  0.0000
    1GR    C303  303   2.340   1.351   1.900  0.0000  0.0000  0.0000
    1GR    C304  304   2.481   1.351   1.900  0.0000  0.0000  0.0000
    1GR    C305  305   2.127   1.474   1.900  0.0000  0.0000  0.0000
    1GR    C306  306   2.269   1.474   1.900  0.0000  0.0000  0.0000
    1GR    C307  307   2.340   1.596   1.900  0.0000  0.0000  0.0000
    1GR    C308  308   2.481   1.596   1.900  0.0000  0.0000  0.0000
    1GR    C309  309   2.127   1.719   1.900  0.0000  0.0000  0.0000
    1GR    C310  310   2.269   1.719   1.900  0.0000  0.0000  0.0000
    1GR    C311  311   2.340   1.842   1.900  0.0000  0.0000  0.0000
    1GR    C312  312   2.481   1.842   1.900  0.0000  0.0000  0.0000
    1GR    C313  313   2.127   1.965   1.900  0.0000  0.0000  0.0000
    1GR    C314  314   2.269   1.965   1.900  0.0000  0.0000  0.0000
    1GR    C315  315   2.340   2.088   1.900  0.0000  0.0000  0.0000
    1GR    C316  316   2.481   2.088   1.900  0.0000  0.0000  0.0000
    1GR    C317  317   2.127   2.210   1.900  0.0000  0.0000  0.0000
    1GR    C318  318   2.269   2.210   1.900  0.0000  0.0000  0.0000
    1GR    C319  319   2.340   2.333   1.900  0.0000  0.0000  0.0000
    1GR    C320  320   2.481   2.333   1.900  0.0000  0.0000  0.0000
    1GR    C321  321   2.127   2.456   1.900  0.0000  0.0000  0.0000
    1GR    C322  322   2.269   2.456   1.900  0.0000  0.0000  0.0000
    1GR    C323  323   2.340   2.579   1.900  0.0000  0.0000  0.0000
    1GR    C324  324   2.481   2.579   1.900  0.0000  0.0000  0.0000
    1GR    C325  325   2.127   2.702   1.900  0.0000  0.0000  0.0000
    1GR    C326  326   2.269   2.702   1.900  0.0000  0.0000  0.0000
    1GR    C327  327   2.340   2.824   1.900  0.0000  0.0000  0.0000
    1GR    C328  328   2.481   2.824   1.900  0.0000  0.0000  0.0000
    1GR    C329  329   2.127   2.947   1.900  0.0000  0.0000  0.0000
    1GR    C330  330   2.269   2.947   1.900  0.0000  0.0000  0.0000
    1GR    C331  331   2.340   3.070   1.900  0.0000  0.0000  0.0000
    1GR    C332  332   2.481   3.070   1.900  0.0000  0.0000  0.0000
    1GR    C333  333   2.127   3.193   1.900  0.0000  0.0000  0.0000
    1GR    C334  334   2.269   3.193   1.900  0.0000  0.0000  0.0000
    1GR    C335  335   2.340   3.316   1.900  0.0000  0.0000  0.0000
    1GR    C336  336   2.481   3.316   1.900  0.0000  0.0000  0.0000
    1GR    C337  337   2.552   0.000   1.900  0.0000  0.0000  0.0000
    1GR    C338  338   2.694   0.000   1.900  0.0000  0.0000  0.0000
    1GR    C339  339   2.765   0.123   1.900  0.0000  0.0000  0.0000
    1GR    C340  340   2.907   0.123   1.900  0.0000  0.0000  0.0000
    1GR    C341  341   2.552   0.246   1.900  0.0000  0.0000  0.0000
    1GR    C342  342   2.694   0.246   1.900  0.0000  0.0000  0.0000
    1GR    C343  343   2.765   0.368   1.900  0.0000  0.0000  0.0000
    1GR    C344  344   2.907   0.368   1.900  0.0000  0.0000  0.0000
    1GR    C345  345   2.552   0.491   1.900  0.0000  0.0000  0.0000
    1GR    C346  346   2.694   0.491   1.900  0.0000  0.0000  0.0000
    1GR    C347  347   2.765   0.614   1.900  0.0000  0.0000  0.0000
    1GR    C348  348   2.907   0.614   1.900  0.0000  0.0000  0.0000
    1GR    C349  349   2.552   0.737   1.900  0.0000  0.0000  0.0000
    1GR    C350  350   2.694   0.737   1.900  0.0000  0.0000  0.0000
    1GR    C351  351   2.765   0.860   1.900  0.0000  0.0000  0.0000
    1GR    C352  352   2.907   0.860   1.900  0.0000  0.0000  0.0000
    1GR    C353  353   2.552   0.982   1.900  0.0000  0.0000  0.0000
    1GR    C354  354   2.694   0.982   1.900  0.0000  0.0000  0.0000
    1GR    C355  355   2.765   1.105   1.900  0.0000  0.0000  0.0000
    1GR    C356  356   2.907   1.105   1.900  0.0000  0.0000  0.0000
    1GR    C357  357   2.552   1.228   1.900  0.0000  0.0000  0.0000
    1GR    C358  358   2.694   1.228   1.900  0.0000  0.0000  0.0000
    1GR    C359  359   2.765   1.351   1.900  0.0000  0.0000  0.0000
    1GR    C360  360   2.907   1.351   1.900  0.0000  0.0000  0.0000
    1GR    C361  361   2.552   1.474   1.900  0.0000  0.0000  0.0000
    1GR    C362  362   2.694   1.474   1.900  0.0000  0.0000  0.0000
    1GR    C363  363   2.765   1.596   1.900  0.0000  0.0000  0.0000
    1GR    C364  364   2.907   1.596   1.900  0.0000  0.0000  0.0000
    1GR    C365  365   2.552   1.719   1.900  0.0000  0.0000  0.0000
    1GR    C366  366   2.694   1.719   1.900  0.0000  0.0000  0.0000
    1GR    C367  367   2.765   1.842   1.900  0.0000  0.0000  0.0000
    1GR    C368  368   2.907   1.842   1.900  0.0000  0.0000  0.0000
    1GR    C369  369   2.552   1.965   1.900  0.0000  0.0000  0.0000
    1GR    C370  370   2.694   1.965   1.900  0.0000  0.0000  0.0000
    1GR    C371  371   2.765   2.088   1.900  0.0000  0.0000  0.0000
    1GR    C372  372   2.907   2.088   1.900  0.0000  0.0000  0.0000
    1GR    C373  373   2.552   2.210   1.900  0.0000  0.0000  0.0000
    1GR    C374  374   2.694   2.210   1.900  0.0000  0.0000  0.0000
    1GR    C375  375   2.765   2.333   1.900  0.0000  0.0000  0.0000
    1GR    C376  376   2.907   2.333   1.900  0.0000  0.0000  0.0000
    1GR    C377  377   2.552   2.456   1.900  0.0000  0.0000  0.0000
    1GR    C378  378   2.694   2.456   1.900  0.0000  0.0000  0.0000
    1GR    C379  379   2.765   2.579   1.900  0.0000  0.0000  0.0000
    1GR    C380  380   2.907   2.579   1.900  0.0000  0.0000  0.0000
    1GR    C381  381   2.552   2.702   1.900  0.0000  0.0000  0.0000
    1GR    C382  382   2.694   2.702   1.900  0.0000  0.0000  0.0000
    1GR    C383  383   2.765   2.824   1.900  0.0000  0.0000  0.0000
    1GR    C384  384   2.907   2.824   1.900  0.0000  0.0000  0.0000
    1GR    C385  385   2.552   2.947   1.900  0.0000  0.0000  0.0000
    1GR    C386  386   2.694   2.947   1.900  0.0000  0.0000  0.0000
    1GR    C387  387   2.765   3.070   1.900  0.0000  0.0000  0.0000
    1GR    C388  388   2.907   3.070   1.900  0.0000  0.0000  0.0000
    1GR    C389  389   2.552   3.193   1.900  0.0000  0.0000  0.0000
    1GR    C390  390   2.694   3.193   1.900  0.0000  0.0000  0.0000
    1GR    C391  391   2.765   3.316   1.900  0.0000  0.0000  0.0000
    1GR    C392  392   2.907   3.316   1.900  0.0000  0.0000  0.0000
    1GR    C393  393   2.978   0.000   1.900  0.0000  0.0000  0.0000
    1GR    C394  394   3.120   0.000   1.900  0.0000  0.0000  0.0000
    1GR    C395  395   3.191   0.123   1.900  0.0000  0.0000  0.0000
    1GR    C396  396   3.332   0.123   1.900  0.0000  0.0000  0.0000
    1GR    C397  397   2.978   0.246   1.900  0.0000  0.0000  0.0000
    1GR    C398  398   3.120   0.246   1.900  0.0000  0.0000  0.0000
    1GR    C399  399   3.191   0.368   1.900  0.0000  0.0000  0.0000
    1GR    C400  400   3.332   0.368   1.900  0.0000  0.0000  0.0000
    1GR    C401  401   2.978   0.491   1.900  0.0000  0.0000  0.0000
    1GR    C402  402   3.120   0.491   1.900  0.0000  0.0000  0.0000
    1GR    C403  403   3.191   0.614   1.900  0.0000  0.0000  0.0000
    1GR    C404  404   3.332   0.614   1.900  0.0000  0.0000  0.0000
    1GR    C405  405   2.978   0.737   1.900  0.0000  0.0000  0.0000
    1GR    C406  406   3.120   0.737   1.900  0.0000  0.0000  0.0000
    1GR    C407  407   3.191   0.860   1.900  0.0000  0.0000  0.0000
    1GR    C408  408   3.332   0.860   1.900  0.0000  0.0000  0.0000
    1GR    C409  409   2.978   0.982   1.900  0.0000  0.0000  0.0000
    1GR    C410  410   3.120   0.982   1.900  0.0000  0.0000  0.0000
    1GR    C411  411   3.191   1.105   1.900  0.0000  0.0000  0.0000
    1GR    C412  412   3.332   1.105   1.900  0.0000  0.0000  0.0000
    1GR    C413  413   2.978   1.228   1.900  0.0000  0.0000  0.0000
    1GR    C414  414   3.120   1.228   1.900  0.0000  0.0000  0.0000
    1GR    C415  415   3.191   1.351   1.900  0.0000  0.0000  0.0000
    1GR    C416  416   3.332   1.351   1.900  0.0000  0.0000  0.0000
    1GR    C417  417   2.978   1.474   1.900  0.0000  0.0000  0.0000
    1GR    C418  418   3.120   1.474   1.900  0.0000  0.0000  0.0000
    1GR    C419  419   3.191   1.596   1.900  0.0000  0.0000  0.0000
    1GR    C420  420   3.332   1.596   1.900  0.0000  0.0000  0.0000
    1GR    C421  421   2.978   1.719   1.900  0.0000  0.0000  0.0000
    1GR    C422  422   3.120   1.719   1.900  0.0000  0.0000  0.0000
    1GR    C423  423   3.191   1.842   1.900  0.0000  0.0000  0.0000
    1GR    C424  424   3.332   1.842   1.900  0.0000  0.0000  0.0000
    1GR    C425  425   2.978   1.965   1.900  0.0000  0.0000  0.0000
    1GR    C426  426   3.120   1.965   1.900  0.0000  0.0000  0.0000
    1GR    C427  427   3.191   2.088   1.900  0.0000  0.0000  0.0000
    1GR    C428  428   3.332   2.088   1.900  0.0000  0.0000  0.0000
    1GR    C429  429   2.978   2.210   1.900  0.0000  0.0000  0.0000
    1GR    C430  430   3.120   2.210   1.900  0.0000  0.0000  0.0000
    1GR    C431  431   3.191   2.333   1.900  0.0000  0.0000  0.0000
    1GR    C432  432   3.332   2.333   1.900  0.0000  0.0000  0.0000
    1GR    C433  433   2.978   2.456   1.900  0.0000  0.0000  0.0000
    1GR    C434  434   3.120   2.456   1.900  0.0000  0.0000  0.0000
    1GR    C435  435   3.191   2.579   1.900  0.0000  0.0000  0.0000
    1GR    C436  436   3.332   2.579   1.900  0.0000  0.0000  0.0000
    1GR    C437  437   2.978   2.702   1.900  0.0000  0.0000  0.0000
    1GR    C438  438   3.120   2.702   1.900  0.0000  0.0000  0.0000
    1GR    C439  439   3.191   2.824   1.900  0.0000  0.0000  0.0000
    1GR    C440  440   3.332   2.824   1.900  0.0000  0.0000  0.0000
    1GR    C441  441   2.978   2.947   1.900  0.0000  0.0000  0.0000
    1GR    C442  442   3.120   2.947   1.900  0.0000  0.0000  0.0000
    1GR    C443  443   3.191   3.070   1.900  0.0000  0.0000  0.0000
    1GR    C444  444   3.332   3.070   1.900  0.0000  0.0000  0.0000
    1GR    C445  445   2.978   3.193   1.900  0.0000  0.0000  0.0000
    1GR    C446  446   3.120   3.193   1.900  0.0000  0.0000  0.0000
    1GR    C447  447   3.191   3.316   1.900  0.0000  0.0000  0.0000
    1GR    C448  448   3.332   3.316   1.900  0.0000  0.0000  0.0000
    2PMMA   CX1  449   2.392   0.827   2.786 -0.8023  0.3534 -0.1489
    2PMMA   CA2  450   2.437   0.680   2.793  0.0301  0.3719 -0.2736
    2PMMA   CX3  451   2.560   0.675   2.696 -0.3368  0.8698 -0.4171
    2PMMA    C4  452   2.471   0.638   2.937 -0.3252  0.8492  0.5426
    2PMMA    O5  453   2.402   0.665   3.030 -0.0278 -0.0820  0.4288
    2PMMA   OS6  454   2.592   0.586   2.950  0.6001 -0.2201 -0.4054
    2PMMA   CE7  455   2.645   0.556   3.084  0.7365  0.5269 -0.8227
    2PMMA   CX8  456   2.314   0.597   2.738  0.0872  0.1619  0.0233
    2PMMA   CA9  457   2.325   0.447   2.714  0.7963 -0.4490 -0.0337
    2PMMA  CX10  458   2.400   0.431   2.578 -0.3557 -0.4726 -0.4915
    2PMMA   C11  459   2.174   0.405   2.686  0.5510 -0.0134 -0.3474
    2PMMA   O12  460   2.130   0.380   2.577  0.0266  0.6190 -0.8985
    2PMMA  OS13  461   2.106   0.405   2.804  1.1617  0.2779 -0.3584
    2PMMA  CE14  462   1.971   0.366   2.806 -0.5681 -0.4441  0.1174
    2PMMA  CX15  463   2.397   0.364   2.828  0.1299 -0.0096  0.5342
    2PMMA  CA16  464   2.399   0.202   2.823  0.0033  0.1601 -0.1438
    2PMMA  CX17  465   2.443   0.159   2.967 -0.2919 -0.5195 -0.0285
    2PMMA   C18  466   2.250   0.145   2.804 -0.1248  0.5450 -0.4029
    2PMMA   O19  467   2.173   0.115   2.893 -0.4178  0.3897 -0.3182
    2PMMA  OS20  468   2.226   0.114   2.674 -0.4744  0.2657  0.1135
    2PMMA  CE21  469   2.109   0.034   2.639  0.6057  0.3207 -0.0627
    2PMMA  CX22  470   2.513   0.151   2.725 -0.1793 -0.4572 -0.3880
    2PMMA  CA23  471   2.590   0.014   2.728  0.0137 -0.5507  0.2112
    2PMMA  CX24  472   2.490  -0.109   2.728  0.3884  0.5328 -0.8196
    2PMMA   C25  473   2.687   0.002   2.846 -0.4138 -0.2695 -0.0862
    2PMMA   O26  474   2.761   0.086   2.889  0.0003 -0.2651 -0.0190
    2PMMA  OS27  475   2.660  -0.111   2.926 -0.0073 -0.1110 -0.0859
    2PMMA  CE28  476   2.729  -0.131   3.053 -0.2438  0.3139 -0.0989
    2PMMA  CX29  477   2.684   0.004   2.605  0.4228  0.0410  0.5752
    2PMMA  HC30  478   2.468   0.888   2.837  0.5239  0.2481 -1.9625
    2PMMA  HC31  479   2.388   0.869   2.685  0.5500  0.1772 -0.2778
    2PMMA  HC32  480   2.293   0.839   2.832 -1.5347 -4.5137 -0.1880
    2PMMA  HC33  481   2.609   0.577   2.689 -2.8193 -0.4134 -0.1266
    2PMMA  HC34  482   2.643   0.741   2.725  0.5980 -0.0558 -0.9318
    2PMMA  HC35  483   2.529   0.706   2.595  0.6543 -1.2028 -1.3871
    2PMMA  H136  484   2.746   0.515   3.083 -0.0760 -1.7620  2.2781
    2PMMA  H137  485   2.579   0.481   3.126  1.3269  1.4557  1.9045
    2PMMA  H138  486   2.631   0.645   3.147 -0.7227  0.0455 -0.4689
    2PMMA  HC39  487   2.249   0.610   2.824  1.1662  3.7921  0.3673
    2PMMA  HC40  488   2.276   0.651   2.651 -0.7077  0.5046  0.5848
    2PMMA  HC41  489   2.378   0.510   2.507 -0.2364  0.7755  0.8386
    2PMMA  HC42  490   2.509   0.424   2.589 -0.4249 -0.4479  0.2584
    2PMMA  HC43  491   2.371   0.339   2.526  0.3245 -0.4649 -0.8941
    2PMMA  H144  492   1.929   0.366   2.907 -0.5177  1.5384  0.1587
    2PMMA  H145  493   1.957   0.264   2.771  1.5093 -1.7429  2.8777
    2PMMA  H146  494   1.918   0.435   2.740  2.0861  1.4409 -0.1310
    2PMMA  HC47  495   2.504   0.383   2.823  0.1003 -0.3843 -3.8011
    2PMMA  HC48  496   2.363   0.397   2.926  1.1556 -0.4436  1.0348
    2PMMA  HC49  497   2.541   0.199   2.997  1.3451 -3.2971 -1.4732
    2PMMA  HC50  498   2.446   0.052   2.990  1.9203 -0.7473 -1.1782
    2PMMA  HC51  499   2.376   0.197   3.045 -1.7563 -1.1905 -0.9441
    2PMMA  H152  500   2.119  -0.070   2.670 -2.3267 -0.0346 -0.2302
    2PMMA  H153  501   2.098   0.050   2.531  0.3908 -0.5809 -0.1801
    2PMMA  H154  502   2.019   0.079   2.680  0.3930 -0.2876  0.1410
    2PMMA  HC55  503   2.471   0.154   2.624  0.6767 -2.1613 -0.8107
    2PMMA  HC56  504   2.589   0.230   2.724  0.7845 -1.3394  1.1734
    2PMMA  HC57  505   2.536  -0.208   2.728 -0.0680  0.2725  2.2567
    2PMMA  HC58  506   2.424  -0.112   2.816 -0.0511  0.0238 -1.1535
    2PMMA  HC59  507   2.419  -0.101   2.644  0.8438  0.5707 -1.2011
    2PMMA  H160  508   2.823  -0.185   3.038 -0.9483 -0.9042 -0.1693
    2PMMA  H161  509   2.671  -0.192   3.123  0.2768  0.4575  0.4686
    2PMMA  H162  510   2.747  -0.035   3.101 -0.0416 -0.1574  0.7921
    2PMMA  HC63  511   2.754  -0.079   2.602  0.4684  0.0766  0.6363
    2PMMA  HC64  512   2.621   0.002   2.515  0.1779  1.1905  0.7084
    2PMMA  HC65  513   2.745   0.095   2.612 -0.1211  0.4437  0.2117
    3DMF     C1  514   2.314   0.939   0.975  0.5168 -0.0662 -0.2486
    3DMF     N1  515   2.299   1.073   1.033  0.4173 -0.4311 -0.2856
    3DMF     C2  516   2.410   1.135   1.108  0.1697 -0.4728  0.5045
    3DMF     C3  517   2.172   1.129   1.038 -0.5786 -0.4624 -0.3917
    3DMF     O1  518   2.076   1.079   0.982 -0.0888 -0.4785 -0.8652
    3DMF     H1  519   2.241   0.928   0.894 -0.7618 -1.7141  1.0891
    3DMF     H2  520   2.285   0.870   1.055 -1.5120  0.8674 -0.1502
    3DMF     H3  521   2.416   0.917   0.940  0.4995 -0.0369 -0.3171
    3DMF     H4  522   2.499   1.074   1.090 -0.1952 -0.9479  0.2888
    3DMF     H5  523   2.391   1.128   1.216  0.4793 -0.5189  0.5578
    3DMF     H6  524   2.436   1.235   1.072 -2.2794 -0.4034 -1.1955
    3DMF     H7  525   2.170   1.219   1.102  1.3152  0.3504 -1.4307
    4DMF     C1  526   1.934   0.826   0.802  0.0852 -0.4781  0.6420
    4DMF     N1  527   1.955   0.692   0.746 -0.5028 -0.2528  0.1197
    4DMF     C2  528   2.036   0.598   0.825 -0.0441  0.4407 -0.1378
    4DMF     C3  529   1.878   0.659   0.635 -0.0252  0.7742  0.2937
    4DMF     O1  530   1.788   0.725   0.590 -0.2066 -0.1590  0.5098
    4DMF     H1  531   2.032   0.868   0.828  0.3177  0.5664 -1.7305
    4DMF     H2  532   1.875   0.818   0.893  0.3782  1.7505  1.0618
    4DMF     H3  533   1.882   0.895   0.734  2.0754  2.3877  1.9089
    4DMF     H4  534   2.072   0.516   0.762  1.7991  0.0308  1.3855
    4DMF     H5  535   1.975   0.567   0.910  0.2649 -1.2579 -0.5207
    4DMF     H6  536   2.125   0.655   0.856 -0.8337  1.9381 -0.5937
    4DMF     H7  537   1.893   0.552   0.611  0.2125  1.0420 -0.7675
    5DMF     C1  538   2.034   1.991   3.306  0.9474 -0.4738 -0.2685
    5DMF     N1  539   2.121   1.876   3.285 -0.0705  0.0544  0.3171
    5DMF     C2  540   2.184   1.856   3.150  0.8998 -0.4790  0.0028
    5DMF     C3  541   2.151   1.791   3.396 -0.3694  0.4521  0.4448
    5DMF     O1  542   2.103   1.805   3.504  0.7548 -0.1549 -0.1540
    5DMF     H1  543   1.930   1.963   3.284  0.5596  2.0050 -1.8446
    5DMF     H2  544   2.077   2.072   3.245  0.2112 -1.5273 -2.2623
    5DMF     H3  545   2.040   2.028   3.409 -0.5263 -1.9805  0.3844
    5DMF     H4  546   2.244   1.940   3.113  0.0934 -1.0877 -2.8661
    5DMF     H5  547   2.104   1.834   3.079 -1.0605 -0.5427  2.1789
    5DMF     H6  548   2.256   1.773   3.157  3.2990  1.4845 -0.5799
    5DMF     H7  549   2.225   1.711   3.377 -0.1352  1.0144 -1.0377
    6DMF     C1  550   0.748   0.211   0.813  0.0848 -0.6395  0.2663
    6DMF     N1  551   0.605   0.223   0.822  0.1056  0.6802  0.2201
    6DMF     C2  552   0.550   0.359   0.833 -0.3597 -0.1742  0.1058
    6DMF     C3  553   0.518   0.122   0.781  0.0411 -0.4788  0.8717
    6DMF     O1  554   0.560   0.008   0.753  0.2748  0.1603 -0.1391
    6DMF     H1  555   0.784   0.314   0.809  0.1398 -0.5692  2.0936
    6DMF     H2  556   0.785   0.156   0.726 -0.0980  1.0855 -0.9091
    6DMF     H3  557   0.784   0.159   0.903 -0.2500  2.2635  2.1240
    6DMF     H4  558   0.502   0.368   0.931  0.2736 -2.5413  0.6680
    6DMF     H5  559   0.473   0.372   0.756 -1.8105 -1.0993  1.3657
    6DMF     H6  560   0.621   0.442   0.820  1.2723 -1.5895 -0.2012
    6DMF     H7  561   0.413   0.151   0.768  0.4081 -0.2949 -2.0997
    7DMF     C1  562   3.157   3.044   0.835  0.0332 -0.9679 -0.0433
    7DMF     N1  563   3.153   2.923   0.915 -0.2039 -0.0367 -0.6413
    7DMF     C2  564   3.247   2.815   0.878 -0.0512  0.1906 -0.4113
    7DMF     C3  565   3.052   2.900   1.007  0.2197  0.5026 -0.0158
    7DMF     O1  566   2.968   2.982   1.038  0.7345 -0.6099 -0.0919
    7DMF     H1  567   3.061   3.091   0.810  1.5587  2.1167 -0.3262
    7DMF     H2  568   3.206   3.018   0.740  1.1282 -1.0188  0.5367
    7DMF     H3  569   3.227   3.116   0.877  0.6078 -0.3498 -2.0075
    7DMF     H4  570   3.309   2.814   0.968 -0.8089  0.6238  0.1213
    7DMF     H5  571   3.306   2.832   0.786 -0.1664 -0.9359 -0.7053
    7DMF     H6  572   3.183   2.727   0.862  0.3777 -0.9244  3.6228
    7DMF     H7  573   3.047   2.802   1.059  1.0127 -0.5112 -1.7839
    8DMF     C1  574   0.374   0.329   0.502  0.2640 -0.1075  0.6811
    8DMF     N1  575   0.350   0.269   0.366  0.1876  0.7178 -0.0666
    8DMF     C2  576   0.456   0.289   0.263 -0.9313  0.6962  0.4541
    8DMF     C3  577   0.222   0.209   0.321  0.2229 -0.0880  0.1116
    8DMF     O1  578   0.126   0.207   0.389 -0.0156  0.1058  0.4992
    8DMF     H1  579   0.457   0.400   0.490  1.9983 -2.0328  0.9305
    8DMF     H2  580   0.399   0.251   0.575 -0.5527  0.9441  2.0915
    8DMF     H3  581   0.280   0.377   0.530  0.3698  1.4181 -1.4755
    8DMF     H4  582   0.554   0.261   0.303 -0.7947 -1.2879 -1.1675
    8DMF     H5  583   0.458   0.395   0.237  0.8098  1.1953  2.5040
    8DMF     H6  584   0.428   0.235   0.172 -2.9389 -0.0096  1.4712
    8DMF     H7  585   0.224   0.167   0.218 -0.1750  2.5007 -0.9959
    9DMF     C1  586   2.898   1.196   0.368 -0.1172  0.8625 -0.3905
    9DMF     N1  587   3.001   1.092   0.334 -0.0720  0.5203 -0.4645
    9DMF     C2  588   3.121   1.135   0.269 -0.1292  0.3550 -0.1709
    9DMF     C3  589   2.968   0.950   0.358 -0.7049 -0.7406  0.5831
    9DMF     O1  590   2.856   0.910   0.382 -0.3262  0.2059 -0.4415
    9DMF     H1  591   2.859   1.161   0.464  1.0991 -1.0894 -0.5651
    9DMF     H2  592   2.814   1.201   0.297 -1.0957  2.1764  0.8504
    9DMF     H3  593   2.959   1.287   0.376  0.7894  0.2079  0.2500
    9DMF     H4  594   3.164   1.215   0.331 -0.7676 -0.3775  1.2554
    9DMF     H5  595   3.092   1.159   0.166  1.1446 -0.4868 -0.7335
    9DMF     H6  596   3.187   1.049   0.260 -1.0675 -0.3766 -0.1656
    9DMF     H7  597   3.050   0.879   0.333 -2.2829 -2.3051 -0.2952
   10DMF     C1  598   0.006   2.605   0.529  0.0160  0.0474  0.3674
   10DMF     N1  599  -0.093   2.489   0.542  0.8361 -0.0235 -0.2037
   10DMF     C2  600  -0.124   2.404   0.428 -0.2453 -0.6137  0.6269
   10DMF     C3  601  -0.153   2.468   0.671 -0.1835  0.3907 -0.4139
   10DMF     O1  602  -0.135   2.538   0.766  0.0967 -0.4434  0.3295
   10DMF     H1  603  -0.010   2.678   0.610 -1.2615  1.1136 -0.8193
   10DMF     H2  604  -0.020   2.647   0.431 -0.0563  0.8043  0.7047
   10DMF     H3  605   0.112   2.575   0.522 -0.1821 -0.2780 -1.3099
   10DMF     H4  606  -0.045   2.333   0.403  1.9365  2.0870 -0.3929
   10DMF     H5  607  -0.120   2.464   0.336  1.4059 -0.5328  0.7306
   10DMF     H6  608  -0.221   2.361   0.455 -1.4717  0.6351 -1.5808
   10DMF     H7  609  -0.227   2.385   0.671  1.2964 -0.9430  0.5219
   11DMF     C1  610   2.071   1.137   3.282  0.0124  0.0484 -0.3371
   11DMF     N1  611   2.207   1.087   3.304  0.2716  0.8517 -0.4405
   11DMF     C2  612   2.313   1.185   3.282  0.5307 -0.3078  0.4937
   11DMF     C3  613   2.226   0.950   3.313  0.7235 -0.0187 -0.5102
   11DMF     O1  614   2.134   0.872   3.316 -0.2272  0.4426 -0.8601
   11DMF     H1  615   2.046   1.194   3.372  0.3751  0.7104 -0.6527
   11DMF     H2  616   2.004   1.050   3.287 -0.9823  0.9045  2.5976
   11DMF     H3  617   2.053   1.184   3.184 -0.0486 -2.0792 -1.3670
   11DMF     H4  618   2.273   1.286   3.267 -1.0096 -1.0943 -0.8192
   11DMF     H5  619   2.368   1.167   3.189 -1.3536 -1.0743 -0.4833
   11DMF     H6  620   2.376   1.190   3.372  0.6583  1.3511  0.3178
   11DMF     H7  621   2.332   0.919   3.305  1.3309  1.6662  0.7857
   12DMF     C1  622   1.378   0.118   1.495 -0.0803  0.2401 -0.1077
   12DMF     N1  623   1.257   0.197   1.533  0.2593  0.5162  0.2428
   12DMF     C2  624   1.132   0.122   1.558  0.3308  0.4733  0.0962
   12DMF     C3  625   1.257   0.328   1.545  0.7514 -0.7165 -0.1860
   12DMF     O1  626   1.356   0.394   1.522  0.0952  0.8544 -0.2818
   12DMF     H1  627   1.450   0.109   1.578 -1.9098 -2.6272  1.2461
   12DMF     H2  628   1.427   0.151   1.403  0.3718 -0.1958 -0.0246
   12DMF     H3  629   1.350   0.018   1.461 -0.7236 -0.2981  1.9251
   12DMF     H4  630   1.137   0.060   1.648  1.9136 -0.8607 -0.8811
   12DMF     H5  631   1.113   0.062   1.468 -0.4725 -1.4288  1.5130
   12DMF     H6  632   1.050   0.192   1.572 -0.0435  0.3876 -1.5813
   12DMF     H7  633   1.159   0.364   1.582  0.9918 -0.0967 -0.1439
   13DMF     C1  634   1.155   2.564   3.749 -0.1596  0.1986  0.2535
   13DMF     N1  635   1.234   2.443   3.730 -0.6855 -0.5276  0.2552
   13DMF     C2  636   1.262   2.353   3.841  0.6572 -0.3000 -0.4618
   13DMF     C3  637   1.271   2.390   3.606  0.1728  0.6219 -0.6236
   13DMF     O1  638   1.257   2.457   3.507 -0.4984 -0.1943  0.0903
   13DMF     H1  639   1.054   2.540   3.714 -1.1424  2.9724  1.0014
   13DMF     H2  640   1.205   2.649   3.700  1.0258 -0.2479  0.6673
   13DMF     H3  641   1.150   2.595   3.855  0.1790  0.9592  0.0529
   13DMF     H4  642   1.227   2.254   3.810  0.3703 -0.1213 -0.7125
   13DMF     H5  643   1.198   2.389   3.923  1.9720 -0.3231  0.5884
   13DMF     H6  644   1.367   2.357   3.870 -0.3780  0.8846  3.4335
   13DMF     H7  645   1.306   2.285   3.608 -0.0339  0.5732  0.6893
   14DMF     C1  646   0.226   3.095   0.462  0.0949  0.3727 -1.0211
   14DMF     N1  647   0.217   2.949   0.504 -0.6320 -0.1395  0.0150
   14DMF     C2  648   0.270   2.850   0.414 -0.0496  0.1932 -0.5156
   14DMF     C3  649   0.149   2.907   0.622 -0.1374 -0.3044 -0.2140
   14DMF     O1  650   0.097   2.982   0.701  0.4542 -0.2498  0.0987
   14DMF     H1  651   0.279   3.143   0.545  0.8472  0.4752 -1.5491
   14DMF     H2  652   0.129   3.146   0.457  0.4633  1.1713 -0.1328
   14DMF     H3  653   0.277   3.107   0.365  1.0225  0.7441 -0.4938
   14DMF     H4  654   0.192   2.832   0.339 -2.4916 -2.1857  2.4609
   14DMF     H5  655   0.287   2.756   0.466 -3.0087 -0.7600 -1.1641
   14DMF     H6  656   0.366   2.879   0.370 -0.0218  0.5762 -0.2096
   14DMF     H7  657   0.165   2.800   0.643  3.2999  0.6730  2.8255
   15DMF     C1  658   3.075   2.204   0.158  0.4630 -0.1211  0.2961
   15DMF     N1  659   2.930   2.208   0.175 -0.9234  0.5991  0.6872
   15DMF     C2  660   2.862   2.089   0.231 -0.1934 -0.1424  0.1213
   15DMF     C3  661   2.854   2.326   0.179  0.6395 -0.3371 -0.0407
   15DMF     O1  662   2.893   2.432   0.130  0.1441  0.4856  0.4770
   15DMF     H1  663   3.099   2.183   0.053  2.7826 -0.0190  0.7761
   15DMF     H2  664   3.115   2.115   0.209 -0.1410 -0.7587 -0.3230
   15DMF     H3  665   3.129   2.294   0.188  0.0881 -0.6805  2.7195
   15DMF     H4  666   2.883   2.003   0.167 -2.3757  0.4865 -1.5026
   15DMF     H5  667   2.753   2.079   0.230 -0.1818 -0.5129  1.5476
   15DMF     H6  668   2.880   2.077   0.339  2.3253 -0.5142 -0.3125
   15DMF     H7  669   2.749   2.307   0.207  1.3170 -0.2119  2.6952
   16DMF     C1  670   3.217   2.001   3.372  0.1836 -0.1782 -0.2926
   16DMF     N1  671   3.305   1.955   3.267  0.1169  0.0488 -0.4345
   16DMF     C2  672   3.252   1.891   3.148 -0.1836  0.8023 -0.2131
   16DMF     C3  673   3.444   1.967   3.281  0.1884 -0.0433  0.4051
   16DMF     O1  674   3.498   2.028   3.371  0.0221 -0.2778  0.4776
   16DMF     H1  675   3.201   1.938   3.460 -0.2452 -0.4415 -0.5555
   16DMF     H2  676   3.116   2.022   3.334  0.5495  0.5420 -0.8701
   16DMF     H3  677   3.260   2.091   3.417  0.0706  0.4688 -1.4401
   16DMF     H4  678   3.322   1.905   3.064 -0.5188  1.7091 -0.3438
   16DMF     H5  679   3.162   1.940   3.111 -0.3169  0.4293 -0.3855
   16DMF     H6  680   3.243   1.783   3.165  2.6582  0.2842 -1.6327
   16DMF     H7  681   3.496   1.910   3.203 -1.0446 -0.2857 -0.2466
   17DMF     C1  682   0.780   0.382   1.568 -0.5744  0.0412 -0.3019
   17DMF     N1  683   0.776   0.530   1.575  0.6560 -0.2225 -0.3116
   17DMF     C2  684   0.649   0.595   1.557  0.9006 -0.1386 -0.2477
   17DMF     C3  685   0.893   0.603   1.560  1.0183 -0.1667  0.3970
   17DMF     O1  686   0.999   0.544   1.566  0.0196 -0.1142 -0.1710
   17DMF     H1  687   0.686   0.344   1.610  0.3302 -0.7234  1.0484
   17DMF     H2  688   0.862   0.334   1.623  0.4642 -0.9071 -2.6002
   17DMF     H3  689   0.789   0.347   1.464 -0.4421 -1.1973  0.1240
   17DMF     H4  690   0.613   0.631   1.654  0.3055  1.1523 -0.9320
   17DMF     H5  691   0.583   0.520   1.512  0.5510 -0.2009  0.3655
   17DMF     H6  692   0.673   0.681   1.493 -0.4520 -0.2639 -0.9468
   17DMF     H7  693   0.874   0.709   1.538 -2.1749 -0.9957 -1.2188
   18DMF     C1  694   2.268   1.369   1.485  0.2039 -0.1061 -0.4781
   18DMF     N1  695   2.413   1.355   1.509 -0.0695 -0.7670  0.3703
   18DMF     C2  696   2.469   1.215   1.506 -0.2982  0.0530  0.4483
   18DMF     C3  697   2.498   1.462   1.541  0.0343  0.3369 -0.0613
   18DMF     O1  698   2.456   1.578   1.547  0.1292  0.3123  0.9017
   18DMF     H1  699   2.221   1.353   1.583 -0.3664  2.7020 -0.2522
   18DMF     H2  700   2.234   1.299   1.408 -4.0875 -0.2308  1.3586
   18DMF     H3  701   2.242   1.469   1.449 -0.9923 -0.2971 -0.1797
   18DMF     H4  702   2.523   1.192   1.600 -0.3374 -0.6053  0.3156
   18DMF     H5  703   2.551   1.222   1.433 -0.2650  0.1570  0.4950
   18DMF     H6  704   2.400   1.143   1.461 -0.4640  0.9277 -0.6913
   18DMF     H7  705   2.603   1.432   1.556 -0.2783 -1.3443 -1.1147
   19DMF     C1  706   3.025   2.233   0.840 -0.3347  0.0628 -0.7494
   19DMF     N1  707   3.023   2.295   0.973 -0.0676  0.0990  0.5209
   19DMF     C2  708   3.022   2.446   0.979  0.3986  0.5025 -0.3639
   19DMF     C3  709   3.025   2.220   1.091 -0.1836  0.3893 -0.8792
   19DMF     O1  710   3.026   2.092   1.085 -0.2988 -0.0790 -0.9171
   19DMF     H1  711   3.126   2.204   0.809 -0.8658 -1.3316 -1.1699
   19DMF     H2  712   2.977   2.298   0.766  0.7454  0.3468 -1.2177
   19DMF     H3  713   2.959   2.146   0.841 -0.3364 -0.0320 -3.8458
   19DMF     H4  714   2.995   2.488   0.881  0.5277  1.0203 -0.1788
   19DMF     H5  715   3.124   2.473   1.009  1.5693 -2.7718 -1.1068
   19DMF     H6  716   2.943   2.469   1.051  0.3720 -0.3356 -0.1164
   19DMF     H7  717   3.034   2.277   1.185  0.0117  0.8087 -1.1512
   20DMF     C1  718   1.064   1.201   1.568  0.5488 -0.6117 -0.4382
   20DMF     N1  719   0.926   1.261   1.572  0.1123  0.0165  0.0952
   20DMF     C2  720   0.906   1.405   1.547 -0.0463  0.1621  0.6866
   20DMF     C3  721   0.810   1.178   1.580 -0.0113  0.2996  0.3366
   20DMF     O1  722   0.804   1.054   1.581 -0.0646 -0.3376 -0.1044
   20DMF     H1  723   1.095   1.179   1.465  1.0585 -0.3297 -0.3475
   20DMF     H2  724   1.054   1.105   1.619  3.2292 -0.9208 -0.3933
   20DMF     H3  725   1.140   1.263   1.619 -0.0309 -0.0368 -0.2665
   20DMF     H4  726   0.803   1.438   1.530  0.1795 -0.1134 -1.3998
   20DMF     H5  727   0.964   1.452   1.466 -2.3949  1.5639 -0.2260
   20DMF     H6  728   0.929   1.453   1.643  1.0287  0.3628  0.3391
   20DMF     H7  729   0.716   1.236   1.589 -1.6756 -2.4114  1.1101
   21DMF     C1  730   2.543   3.083   0.678  0.5708  0.3785  0.0019
   21DMF     N1  731   2.658   3.063   0.770 -0.1490  0.5915  0.2288
   21DMF     C2  732   2.785   3.032   0.715  0.3335  0.0290 -0.1038
   21DMF     C3  733   2.647   3.090   0.912 -0.5429 -0.0904  0.1964
   21DMF     O1  734   2.534   3.117   0.952 -0.6761 -0.3720 -0.0158
   21DMF     H1  735   2.568   3.114   0.576 -1.5896 -1.1051 -1.0363
   21DMF     H2  736   2.478   3.166   0.710  1.6332  1.2144  0.0167
   21DMF     H3  737   2.480   2.993   0.676  0.6324  0.3235  0.4683
   21DMF     H4  738   2.830   2.949   0.772  1.8410  1.5469  0.9386
   21DMF     H5  739   2.849   3.119   0.735  1.1605 -0.5063 -0.3779
   21DMF     H6  740   2.783   3.010   0.608  0.7654 -1.6971  0.2203
   21DMF     H7  741   2.736   3.073   0.975 -1.0039  0.2946  0.9571
   22DMF     C1  742   3.054   1.829   0.482  0.0980  0.2501  0.5844
   22DMF     N1  743   2.951   1.731   0.453  0.0751  0.5642  0.6087
   22DMF     C2  744   2.811   1.779   0.401 -0.1687  0.8499  0.1636
   22DMF     C3  745   2.968   1.597   0.477 -0.4114  0.2511 -0.1284
   22DMF     O1  746   3.072   1.554   0.530  0.4154  0.2203 -0.1591
   22DMF     H1  747   3.074   1.897   0.398  1.6712 -1.2130 -0.2727
   22DMF     H2  748   3.147   1.780   0.515  0.6943  1.5028  0.7817
   22DMF     H3  749   3.023   1.891   0.566  1.1398 -0.4482  1.4928
   22DMF     H4  750   2.816   1.801   0.294  0.3617  0.7390  0.1637
   22DMF     H5  751   2.782   1.869   0.456 -0.6551 -0.4524  2.1174
   22DMF     H6  752   2.738   1.698   0.417 -0.8447  1.4343  0.0385
   22DMF     H7  753   2.894   1.525   0.440  0.4837 -0.7323 -0.0367
   23DMF     C1  754   1.299   1.746   0.278 -0.3563  0.1323  0.1419
   23DMF     N1  755   1.409   1.840   0.231  0.4385  0.2785 -0.6787
   23DMF     C2  756   1.377   1.983   0.192  0.5640  0.2635 -0.7636
   23DMF     C3  757   1.540   1.790   0.218  0.7350  0.4047 -0.1043
   23DMF     O1  758   1.555   1.668   0.219  0.5889 -0.2337 -0.1320
   23DMF     H1  759   1.311   1.706   0.379 -2.1998 -0.5939  0.0926
   23DMF     H2  760   1.293   1.665   0.205 -0.0701 -2.3172  2.7703
   23DMF     H3  761   1.200   1.793   0.276 -0.2917  0.2822  0.5304
   23DMF     H4  762   1.314   2.000   0.104 -0.6640  0.7282  0.1903
   23DMF     H5  763   1.471   2.040   0.190  1.0237 -0.4883 -0.9409
   23DMF     H6  764   1.320   2.035   0.270  2.6531  4.1587 -1.6937
   23DMF     H7  765   1.622   1.863   0.210  1.1569  0.0342  0.8192
   24DMF     C1  766   1.681   1.576   3.721 -0.2384 -0.7534 -0.0662
   24DMF     N1  767   1.814   1.626   3.708 -0.8866 -0.5402  0.0279
   24DMF     C2  768   1.868   1.700   3.824 -0.1748 -0.6563  0.1006
   24DMF     C3  769   1.903   1.561   3.622 -0.4264  0.2673  0.5086
   24DMF     O1  770   1.858   1.479   3.543 -0.0811  0.2460 -0.4278
   24DMF     H1  771   1.670   1.493   3.650 -0.1124 -0.4620 -0.4260
   24DMF     H2  772   1.596   1.644   3.703  0.0885 -0.6056 -1.0480
   24DMF     H3  773   1.684   1.532   3.822 -0.3354 -0.4652  0.0617
   24DMF     H4  774   1.832   1.803   3.823  3.2139  0.5851 -0.1786
   24DMF     H5  775   1.977   1.692   3.829  0.0398  1.5177 -0.6469
   24DMF     H6  776   1.822   1.651   3.911 -0.1490  0.4714  0.7542
   24DMF     H7  777   2.011   1.584   3.628 -0.5063  0.8614 -0.2904
   25DMF     C1  778   2.716   0.094   0.572  0.1430  0.5421 -0.7301
   25DMF     N1  779   2.860   0.114   0.542 -0.1723  0.3707 -0.4472
   25DMF     C2  780   2.916   0.248   0.494 -0.4825  0.0095  0.4295
   25DMF     C3  781   2.955   0.018   0.576  0.2251 -0.2059 -0.3694
   25DMF     O1  782   2.925  -0.079   0.639 -0.2457  0.5847 -0.3267
   25DMF     H1  783   2.682   0.017   0.501 -0.5851  0.1792  0.0045
   25DMF     H2  784   2.662   0.188   0.560 -1.5840 -0.3261 -0.0001
   25DMF     H3  785   2.697   0.055   0.673 -0.1115  0.1073 -0.9440
   25DMF     H4  786   3.026   0.247   0.498 -0.5049  0.1671  1.0742
   25DMF     H5  787   2.874   0.333   0.549 -0.3102 -0.9051  2.0172
   25DMF     H6  788   2.884   0.255   0.389  0.2330 -2.6057 -0.0255
   25DMF     H7  789   3.057   0.052   0.550  1.2362 -2.9371 -0.1600
   26DMF     C1  790   0.244   2.870   1.544  0.1123  0.6516  0.6288
   26DMF     N1  791   0.223   2.721   1.553 -0.0430 -0.1476  0.1904
   26DMF     C2  792   0.334   2.632   1.539  0.0736 -0.5732 -0.4093
   26DMF     C3  793   0.090   2.667   1.569 -0.5651  0.6691 -0.2947
   26DMF     O1  794  -0.007   2.731   1.556 -0.2119 -0.6122  0.7617
   26DMF     H1  795   0.342   2.896   1.502 -0.0684 -0.0611 -0.2644
   26DMF     H2  796   0.236   2.913   1.644  0.2265  0.3471  0.7690
   26DMF     H3  797   0.159   2.905   1.484  1.1102  0.8073 -0.7359
   26DMF     H4  798   0.428   2.688   1.539  0.6448 -1.4366 -3.3090
   26DMF     H5  799   0.336   2.579   1.442  1.0594 -0.1715 -0.6144
   26DMF     H6  800   0.344   2.565   1.625  2.3069  0.8540  0.4795
   26DMF     H7  801   0.090   2.561   1.601 -0.3420  0.4286 -1.0607
   27DMF     C1  802   3.107   1.166   1.059  0.1704  0.2796  0.8145
   27DMF     N1  803   3.181   1.034   1.071 -0.8546 -0.8807 -0.0453
   27DMF     C2  804   3.211   1.008   1.211  0.5173  0.3782 -0.6223
   27DMF     C3  805   3.233   0.952   0.966 -0.7560 -0.1239  0.4404
   27DMF     O1  806   3.233   0.982   0.849  0.0604  0.3017  0.4867
   27DMF     H1  807   3.054   1.177   0.964 -1.4366 -1.0796  1.5313
   27DMF     H2  808   3.164   1.257   1.083 -1.9363  1.7130  0.4759
   27DMF     H3  809   3.022   1.167   1.129  1.2656 -1.6176  2.2222
   27DMF     H4  810   3.241   0.903   1.221  1.4992  0.4851 -2.2213
   27DMF     H5  811   3.125   1.031   1.275  0.8125  1.4614 -0.6090
   27DMF     H6  812   3.295   1.072   1.243  2.9066 -2.2851 -1.3721
   27DMF     H7  813   3.279   0.858   1.001 -0.3589  0.3181  1.1157
   28DMF     C1  814   0.290   0.195   1.559 -0.4950 -0.7361  0.5344
   28DMF     N1  815   0.224   0.319   1.554  0.1157 -0.2915 -0.1518
   28DMF     C2  816   0.305   0.445   1.569  0.3214  0.3092 -0.3063
   28DMF     C3  817   0.088   0.331   1.530  0.2343  0.4227  0.8835
   28DMF     O1  818   0.012   0.235   1.526  0.2633 -0.0727 -0.0377
   28DMF     H1  819   0.390   0.196   1.603 -0.6027  0.8374  0.7602
   28DMF     H2  820   0.309   0.181   1.452 -0.5918  0.1602  0.3974
   28DMF     H3  821   0.235   0.111   1.605 -1.4334  0.0146  0.8106
   28DMF     H4  822   0.406   0.436   1.610 -0.5136  0.4840  1.8892
   28DMF     H5  823   0.245   0.515   1.629 -1.0854 -2.5599  1.7292
   28DMF     H6  824   0.316   0.495   1.472  0.3978  0.4791 -0.2104
   28DMF     H7  825   0.060   0.435   1.508 -0.0748 -0.3099 -2.4208
   29DMF     C1  826   1.744   1.934   1.198  0.1884 -0.4678 -0.2058
   29DMF     N1  827   1.702   1.870   1.082 -0.1320  0.3286  0.1505
   29DMF     C2  828   1.721   1.726   1.077  0.7172 -0.1389 -0.2608
   29DMF     C3  829   1.609   1.934   0.999  0.2767  0.7744 -0.5874
   29DMF     O1  830   1.565   2.039   1.021 -0.0099  0.4618 -0.3310
   29DMF     H1  831   1.786   1.860   1.268 -0.6630  0.2852  1.1216
   29DMF     H2  832   1.659   1.971   1.257  0.6142  1.7659 -0.9400
   29DMF     H3  833   1.812   2.018   1.180  0.9531 -0.8571  0.8030
   29DMF     H4  834   1.825   1.692   1.084 -0.3675 -3.8827 -0.9814
   29DMF     H5  835   1.676   1.674   0.991  0.3152 -1.2899  0.6430
   29DMF     H6  836   1.671   1.686   1.166 -1.3489  2.2931 -0.2783
   29DMF     H7  837   1.578   1.863   0.921  1.7872  0.6933 -1.1352
   30DMF     C1  838   2.741   1.734   1.550 -0.3503  0.5721 -0.6587
   30DMF     N1  839   2.780   1.843   1.460 -0.0070  0.3028  0.0206
   30DMF     C2  840   2.691   1.969   1.453  0.9596 -0.6418  0.3495
   30DMF     C3  841   2.888   1.830   1.375 -0.0588 -0.5358 -0.5555
   30DMF     O1  842   2.947   1.725   1.371 -0.1194  0.3670 -0.2783
   30DMF     H1  843   2.667   1.772   1.622 -0.2307  0.9378 -0.7263
   30DMF     H2  844   2.826   1.702   1.611  0.2071  2.5435 -0.3479
   30DMF     H3  845   2.707   1.648   1.491  0.5042 -0.4197  0.2964
   30DMF     H4  846   2.620   1.964   1.370 -0.7830  0.9081  1.7204
   30DMF     H5  847   2.753   2.059   1.443  1.0273 -0.8329 -0.9704
   30DMF     H6  848   2.638   1.977   1.549 -0.5210 -0.4504 -0.4721
   30DMF     H7  849   2.909   1.918   1.312  0.8076  0.7537  1.4597
   31DMF     C1  850   3.270   3.034   0.419  0.8722 -0.1985  0.8094
   31DMF     N1  851   3.131   3.047   0.362 -1.1053  0.0399 -0.5107
   31DMF     C2  852   3.039   3.118   0.450 -0.1155  0.4900 -0.2824
   31DMF     C3  853   3.096   2.992   0.242 -1.0234 -0.0747  0.4856
   31DMF     O1  854   3.179   2.940   0.167  0.7848 -0.3200 -0.1827
   31DMF     H1  855   3.268   3.073   0.522  1.2438  0.5518  0.5351
   31DMF     H2  856   3.348   3.088   0.363  0.1138  0.4819  0.3941
   31DMF     H3  857   3.290   2.927   0.428  2.4627 -0.0804 -0.9404
   31DMF     H4  858   2.965   3.046   0.488 -0.3149  1.4237  1.1391
   31DMF     H5  859   2.982   3.192   0.394  0.7612  2.1814  1.0144
   31DMF     H6  860   3.076   3.158   0.545 -0.6986  0.7886 -0.1819
   31DMF     H7  861   2.988   2.998   0.219 -0.9650  0.1913  0.2821
   32DMF     C1  862   2.412   0.557   0.786  0.6712 -0.7300  0.3153
   32DMF     N1  863   2.557   0.531   0.806  0.5891  0.1170  0.3995
   32DMF     C2  864   2.622   0.587   0.923  0.3577  0.2992 -0.0012
   32DMF     C3  865   2.629   0.460   0.708  0.1661  0.7327  0.5386
   32DMF     O1  866   2.588   0.412   0.607 -0.0883 -0.3344 -0.0570
   32DMF     H1  867   2.390   0.663   0.768  2.3683 -0.3946  0.0554
   32DMF     H2  868   2.360   0.515   0.873 -0.1583 -2.1881 -0.8522
   32DMF     H3  869   2.391   0.503   0.693  1.3727 -0.0873 -0.2323
   32DMF     H4  870   2.560   0.674   0.950  0.6844  0.8460 -0.9888
   32DMF     H5  871   2.727   0.598   0.895  0.4005 -0.0587  0.0248
   32DMF     H6  872   2.613   0.511   1.002  0.1667  1.0983  0.7589
   32DMF     H7  873   2.736   0.458   0.734  0.2421  1.4069  0.2660
   33DMF     C1  874   2.289   0.920   3.650  0.3544 -0.5045 -0.1658
   33DMF     N1  875   2.346   0.811   3.727  0.6456  0.7810 -0.1037
   33DMF     C2  876   2.259   0.752   3.829  0.1646 -0.3323 -0.1819
   33DMF     C3  877   2.467   0.756   3.694 -0.2207  0.2120 -0.3421
   33DMF     O1  878   2.543   0.807   3.611 -0.2169  0.8821  0.1050
   33DMF     H1  879   2.201   0.885   3.595  1.8327 -0.4287 -2.6210
   33DMF     H2  880   2.363   0.957   3.579  0.4148 -1.7434 -0.7618
   33DMF     H3  881   2.246   0.997   3.716  1.7417 -0.5411  0.8028
   33DMF     H4  882   2.305   0.668   3.882 -0.5577 -0.3262  0.4655
   33DMF     H5  883   2.161   0.721   3.790 -0.7960  2.5572 -0.2148
   33DMF     H6  884   2.231   0.832   3.899 -1.5613 -1.3377  0.2990
   33DMF     H7  885   2.490   0.656   3.735 -3.0167 -0.3796 -0.0893
   34DMF     C1  886   1.267   0.020   0.843  1.0263 -0.4704  0.5469
   34DMF     N1  887   1.150  -0.057   0.801 -0.3315 -0.2566 -0.3800
   34DMF     C2  888   1.098  -0.154   0.894  0.1457  0.2446 -0.5228
   34DMF     C3  889   1.116  -0.060   0.660  0.1210 -0.0193  0.0874
   34DMF     O1  890   1.172   0.016   0.582 -0.2717 -0.6334  0.1185
   34DMF     H1  891   1.355  -0.021   0.791  0.4851 -0.5297 -0.3485
   34DMF     H2  892   1.287   0.028   0.950  1.0488  0.4221  0.4831
   34DMF     H3  893   1.246   0.118   0.798 -1.1985 -1.0225  0.3669
   34DMF     H4  894   1.100  -0.110   0.995  0.8122 -2.1283  0.5294
   34DMF     H5  895   1.162  -0.242   0.878 -0.1314 -0.1924  0.6740
   34DMF     H6  896   0.997  -0.185   0.865 -0.0390  0.2644  0.0809
   34DMF     H7  897   1.026  -0.121   0.639  0.5901 -1.8636  3.1471
   35DMF     C1  898   0.032   1.971   0.482  0.3312 -0.1038 -0.0939
   35DMF     N1  899  -0.047   1.939   0.601 -0.0720  0.3091  0.3098
   35DMF     C2  900  -0.013   1.815   0.672  0.0808 -0.5598 -0.1357
   35DMF     C3  901  -0.138   2.030   0.649  0.1744  0.3063 -0.7595
   35DMF     O1  902  -0.172   2.131   0.585 -0.1395  0.0408 -0.3104
   35DMF     H1  903   0.058   1.880   0.427  0.9288 -1.3082  2.1225
   35DMF     H2  904   0.131   2.016   0.500 -0.5297  2.5302 -1.5643
   35DMF     H3  905  -0.024   2.038   0.415  0.0663 -0.4626 -0.2319
   35DMF     H4  906   0.058   1.756   0.612  0.7088  0.2785 -0.2257
   35DMF     H5  907  -0.111   1.766   0.679 -0.7020  1.0188  0.2206
   35DMF     H6  908   0.038   1.842   0.765 -1.1346  0.8546  0.1448
   35DMF     H7  909  -0.166   2.008   0.754  0.2407  0.5919 -0.6819
   36DMF     C1  910   0.865   1.470   0.445 -0.3188 -0.5425 -0.0974
   36DMF     N1  911   0.873   1.611   0.475 -0.2755 -0.1560  0.1671
   36DMF     C2  912   0.974   1.691   0.415 -0.6912  0.6532 -0.1615
   36DMF     C3  913   0.791   1.661   0.577  0.0612  0.2466 -0.9775
   36DMF     O1  914   0.706   1.594   0.633  0.0511 -0.2883  0.1091
   36DMF     H1  915   0.895   1.444   0.343  2.9592 -0.5717  0.7943
   36DMF     H2  916   0.763   1.438   0.467 -0.6993  1.8145  1.7670
   36DMF     H3  917   0.941   1.408   0.496 -1.6320 -0.6226  1.8237
   36DMF     H4  918   1.015   1.747   0.500 -1.3996  1.8339 -0.5807
   36DMF     H5  919   0.943   1.761   0.337  0.5977  1.6275  0.1831
   36DMF     H6  920   1.055   1.633   0.370 -0.3942  0.8364  0.1353
   36DMF     H7  921   0.808   1.766   0.606 -0.9404  0.4723 -1.1706
   37DMF     C1  922   2.346   2.168   1.126 -0.8625 -0.0186  0.7939
   37DMF     N1  923   2.389   2.101   1.008 -0.5192  0.6835 -0.3505
   37DMF     C2  924   2.482   1.988   1.002 -0.1973 -0.3556  0.1307
   37DMF     C3  925   2.357   2.156   0.889  0.5430 -0.2185 -0.5773
   37DMF     O1  926   2.276   2.245   0.883  0.5082 -0.3653 -0.1874
   37DMF     H1  927   2.367   2.097   1.208  1.5113 -1.5984 -1.1288
   37DMF     H2  928   2.241   2.196   1.113 -0.6437 -0.3348 -1.9306
   37DMF     H3  929   2.408   2.258   1.135 -0.4646  0.1328 -2.7866
   37DMF     H4  930   2.555   2.000   0.921 -0.7091 -1.9105 -0.5769
   37DMF     H5  931   2.424   1.900   0.974  0.1573 -0.4718 -0.2474
   37DMF     H6  932   2.530   1.979   1.101  2.1509 -2.1168 -1.0934
   37DMF     H7  933   2.400   2.112   0.797  1.9924  0.4919 -0.2588
   38DMF     C1  934   1.434   2.913   3.309  0.2001  1.3315 -0.1014
   38DMF     N1  935   1.353   2.990   3.220 -0.2883 -0.5481 -0.6348
   38DMF     C2  936   1.312   3.130   3.256 -0.2854  0.2965  0.0062
   38DMF     C3  937   1.339   2.946   3.084 -0.9130 -0.6676  0.2523
   38DMF     O1  938   1.373   2.832   3.055 -0.4322  0.1449  0.0741
   38DMF     H1  939   1.393   2.929   3.410  2.8476  0.0771  1.2182
   38DMF     H2  940   1.530   2.964   3.311 -0.8368  3.3401  2.8393
   38DMF     H3  941   1.437   2.806   3.285  1.9544  2.0413 -3.2975
   38DMF     H4  942   1.237   3.121   3.335 -0.4159 -2.1123 -0.3820
   38DMF     H5  943   1.260   3.175   3.170  3.2150  2.6204 -1.0043
   38DMF     H6  944   1.400   3.186   3.292 -0.0751 -0.6898  1.0506
   38DMF     H7  945   1.303   3.027   3.018  0.1853 -1.0181 -0.8059
   39DMF     C1  946   1.298   3.192   1.544 -0.0551  0.9985 -0.0349
   39DMF     N1  947   1.322   3.041   1.548 -0.0416  0.0122  0.0183
   39DMF     C2  948   1.460   2.989   1.532  0.2680  0.4629 -0.2159
   39DMF     C3  949   1.213   2.957   1.529  0.7338  0.1508 -1.1747
   39DMF     O1  950   1.100   2.997   1.524 -0.4674  0.0484 -0.5813
   39DMF     H1  951   1.366   3.228   1.622  0.1798  0.5790 -0.0467
   39DMF     H2  952   1.198   3.222   1.576 -0.1962 -0.6018  1.0354
   39DMF     H3  953   1.322   3.234   1.445 -0.3116 -1.8717 -1.3498
   39DMF     H4  954   1.481   2.924   1.618  1.3851  1.1619  0.0591
   39DMF     H5  955   1.527   3.076   1.524 -0.2593  0.8749 -0.2169
   39DMF     H6  956   1.468   2.930   1.440 -4.0698  0.4299 -0.6438
   39DMF     H7  957   1.238   2.849   1.523  1.2778  0.3211 -1.9648
   40DMF     C1  958   1.384   1.187   0.448 -0.1753 -0.5677  0.3347
   40DMF     N1  959   1.395   1.329   0.456  0.1923  0.0455 -0.6008
   40DMF     C2  960   1.532   1.381   0.489 -0.0523 -0.5048  0.1927
   40DMF     C3  961   1.282   1.417   0.457 -0.0462 -0.4402  0.3397
   40DMF     O1  962   1.175   1.376   0.429  0.1262 -0.2452 -0.1704
   40DMF     H1  963   1.418   1.168   0.345  0.9603  2.2423  0.1615
   40DMF     H2  964   1.285   1.147   0.472  1.2777 -3.8750  1.1736
   40DMF     H3  965   1.457   1.132   0.510  1.1500  0.4539 -0.2976
   40DMF     H4  966   1.564   1.451   0.410 -1.4343 -1.0466 -0.8715
   40DMF     H5  967   1.602   1.297   0.491 -0.5290 -1.0986 -3.6360
   40DMF     H6  968   1.531   1.435   0.585 -0.6924  1.9055 -1.1130
   40DMF     H7  969   1.305   1.515   0.503  0.3866 -0.0618 -0.6797
   41DMF     C1  970   0.841   1.166   0.313 -0.0321  0.2115  0.0401
   41DMF     N1  971   0.858   1.021   0.303 -0.1325  0.8125  0.0880
   41DMF     C2  972   0.984   0.970   0.254  0.3353 -0.9398  0.6417
   41DMF     C3  973   0.777   0.935   0.376  0.6073 -0.0291 -0.5740
   41DMF     O1  974   0.673   0.966   0.430 -0.3530 -0.1032 -0.2446
   41DMF     H1  975   0.804   1.207   0.218 -1.8680  0.1086  0.6865
   41DMF     H2  976   0.933   1.214   0.346 -0.3840  0.4434  0.6832
   41DMF     H3  977   0.769   1.194   0.390  1.7500 -0.1627  1.8864
   41DMF     H4  978   1.019   1.021   0.164 -2.0744 -0.1064  0.1358
   41DMF     H5  979   0.969   0.869   0.214  0.2253 -0.5067 -0.4320
   41DMF     H6  980   1.057   0.975   0.336  0.4696  3.0821  0.3498
   41DMF     H7  981   0.816   0.833   0.391 -2.1003 -1.0410 -0.0492
   42DMF     C1  982   1.980   3.137   0.730 -0.6702 -0.0488 -0.0603
   42DMF     N1  983   2.096   3.155   0.823  0.7095  0.3484 -0.8493
   42DMF     C2  984   2.214   3.067   0.811 -0.6657  0.4669 -0.1792
   42DMF     C3  985   2.086   3.245   0.938 -0.2556 -0.2808  0.0027
   42DMF     O1  986   1.992   3.319   0.962  0.1505  0.3556 -0.3815
   42DMF     H1  987   1.917   3.227   0.723 -1.4439 -0.6478 -0.7921
   42DMF     H2  988   1.930   3.043   0.755 -1.5387  0.3038 -0.4445
   42DMF     H3  989   2.027   3.139   0.631 -0.0486  1.5918  0.2467
   42DMF     H4  990   2.253   3.067   0.708 -0.1287  0.5669  0.0228
   42DMF     H5  991   2.187   2.965   0.842 -0.4385  0.1259 -1.0785
   42DMF     H6  992   2.296   3.098   0.877 -0.0250  0.0571 -0.7695
   42DMF     H7  993   2.171   3.226   1.006  0.2964 -2.7578 -1.3348
   43DMF     C1  994   2.248   2.863   1.139 -0.7479  0.0055 -0.1696
   43DMF     N1  995   2.323   2.756   1.077  0.1202 -0.1169 -0.1193
   43DMF     C2  996   2.408   2.800   0.965  0.0214 -0.0433 -0.3807
   43DMF     C3  997   2.294   2.619   1.093 -0.1149 -0.3410  0.1035
   43DMF     O1  998   2.210   2.580   1.168 -0.1572 -0.8381 -0.1768
   43DMF     H1  999   2.171   2.905   1.072  1.8419  1.2417 -2.4382
   43DMF     H2 1000   2.317   2.946   1.160 -3.4289  3.0182 -2.6308
   43DMF     H3 1001   2.204   2.839   1.237 -0.1426  0.3307  0.1868
   43DMF     H4 1002   2.505   2.751   0.971 -0.4356 -1.1342 -1.8406
   43DMF     H5 1003   2.422   2.909   0.963 -2.6077  0.3166 -1.7170
   43DMF     H6 1004   2.353   2.777   0.873 -3.6510  0.9538  1.4286
   43DMF     H7 1005   2.343   2.555   1.017 -1.5995  0.2769 -1.4200
   44DMF     C1 1006   1.618   1.043   1.511 -0.2413  0.4235 -0.4268
   44DMF     N1 1007   1.537   1.072   1.394  0.2112 -0.4853 -0.8274
   44DMF     C2 1008   1.600   1.034   1.267  0.2461  0.4381  0.1061
   44DMF     C3 1009   1.400   1.105   1.399  0.8478  0.5087  0.0074
   44DMF     O1 1010   1.337   1.113   1.508  0.5188 -0.2280  0.1411
   44DMF     H1 1011   1.577   0.948   1.550  0.2661 -0.3552 -1.7423
   44DMF     H2 1012   1.601   1.117   1.590 -0.7004 -1.2406  1.0880
   44DMF     H3 1013   1.724   1.026   1.489 -0.7472 -1.5145 -1.5416
   44DMF     H4 1014   1.601   0.926   1.248  0.4789  0.4315  0.1483
   44DMF     H5 1015   1.704   1.069   1.265  0.6855 -0.7763  0.9403
   44DMF     H6 1016   1.549   1.092   1.190  2.9124  0.2402 -1.8980
   44DMF     H7 1017   1.360   1.126   1.298  1.1823  1.4369  0.0683
   45DMF     C1 1018   2.309   0.163   1.005 -0.7096 -0.1742 -0.9770
   45DMF     N1 1019   2.340   0.125   0.867  0.2726 -0.5417 -0.0984
   45DMF     C2 1020   2.426   0.011   0.840 -0.3221  0.6800  0.3344
   45DMF     C3 1021   2.259   0.189   0.768  0.3919 -0.1054  0.0839
   45DMF     O1 1022   2.180   0.282   0.799 -0.1502 -0.0783 -0.0327
   45DMF     H1 1023   2.316   0.272   1.016 -1.1206 -0.1822 -0.6240
   45DMF     H2 1024   2.373   0.120   1.083 -0.4694  0.9984 -0.5164
   45DMF     H3 1025   2.208   0.127   1.025 -0.3190  0.8111  3.3467
   45DMF     H4 1026   2.416  -0.010   0.733 -0.0299  2.1180  0.0140
   45DMF     H5 1027   2.383  -0.075   0.894 -0.0066 -0.1017 -0.6555
   45DMF     H6 1028   2.527   0.030   0.880 -0.5461 -0.0180  1.2554
   45DMF     H7 1029   2.268   0.149   0.665 -0.8401 -1.0940  0.3502
   46DMF     C1 1030   1.666   2.411   1.474  0.5456  0.2917  0.2454
   46DMF     N1 1031   1.719   2.538   1.513  0.5619 -0.3739 -0.3512
   46DMF     C2 1032   1.864   2.554   1.532  0.1276 -0.5658  0.0330
   46DMF     C3 1033   1.630   2.640   1.539 -0.5306  0.6032  0.8002
   46DMF     O1 1034   1.513   2.631   1.534 -0.1547  0.1372 -0.0185
   46DMF     H1 1035   1.567   2.388   1.516  0.7944  2.0410  1.8818
   46DMF     H2 1036   1.742   2.337   1.501  2.1673  1.5971 -0.6155
   46DMF     H3 1037   1.646   2.402   1.367  0.4439 -0.9544  0.3623
   46DMF     H4 1038   1.915   2.507   1.446  1.9954 -0.0983  0.8682
   46DMF     H5 1039   1.892   2.508   1.627 -1.5405 -0.3437  0.6488
   46DMF     H6 1040   1.889   2.660   1.537 -2.0450  0.1039 -2.1840
   46DMF     H7 1041   1.686   2.732   1.563  0.6083  0.5164 -1.3824
   47DMF     C1 1042   0.321   1.455   1.545  0.2218 -0.8697  0.6293
   47DMF     N1 1043   0.393   1.584   1.537 -0.1643  0.4444 -0.1959
   47DMF     C2 1044   0.539   1.578   1.554 -0.2452  0.1397 -0.1418
   47DMF     C3 1045   0.328   1.711   1.535 -0.5305  0.2497 -0.0171
   47DMF     O1 1046   0.203   1.727   1.522  0.0235 -0.6076 -0.0326
   47DMF     H1 1047   0.386   1.382   1.595  0.4678 -2.7244 -2.2408
   47DMF     H2 1048   0.293   1.423   1.444 -0.2425 -1.8014  1.0429
   47DMF     H3 1049   0.238   1.473   1.614  0.6669  0.9048  0.7244
   47DMF     H4 1050   0.565   1.492   1.618  2.6153  1.6204  0.7532
   47DMF     H5 1051   0.575   1.673   1.596  1.3785  0.1967 -1.5931
   47DMF     H6 1052   0.590   1.560   1.458  1.2395 -0.2431  0.6961
   47DMF     H7 1053   0.403   1.792   1.543 -0.5851  0.7488 -3.6886
   48DMF     C1 1054   0.770   2.134   0.249  0.0003 -0.5592  0.2741
   48DMF     N1 1055   0.708   2.181   0.373  0.0021 -0.7478  0.1529
   48DMF     C2 1056   0.686   2.330   0.376 -0.1925 -0.8669  0.2705
   48DMF     C3 1057   0.704   2.105   0.488 -0.3880  1.0287 -0.4816
   48DMF     O1 1058   0.739   1.984   0.494  0.2275 -0.7228 -0.0147
   48DMF     H1 1059   0.722   2.158   0.153  2.0805 -0.6761 -0.8387
   48DMF     H2 1060   0.758   2.025   0.237  2.6061 -1.2639  3.5936
   48DMF     H3 1061   0.877   2.157   0.242  0.2041 -0.7634  2.4274
   48DMF     H4 1062   0.731   2.375   0.465 -1.4530 -1.2157  1.0779
   48DMF     H5 1063   0.582   2.361   0.370  0.0093 -0.5032 -1.9322
   48DMF     H6 1064   0.736   2.376   0.289 -2.8999  1.0564 -0.2973
   48DMF     H7 1065   0.658   2.154   0.575  0.4690 -0.8016  1.0232
   49DMF     C1 1066   3.171   3.333   1.537 -0.0387 -0.5898  0.6082
   49DMF     N1 1067   3.143   3.187   1.524  0.3623  0.0357  0.0702
   49DMF     C2 1068   3.009   3.140   1.540  0.6071 -0.6600  0.4626
   49DMF     C3 1069   3.251   3.103   1.544  0.2052  0.1999  0.3680
   49DMF     O1 1070   3.360   3.138   1.569  0.4081 -0.2531  0.4833
   49DMF     H1 1071   3.222   3.365   1.445 -0.6207 -1.2128  0.0615
   49DMF     H2 1072   3.239   3.364   1.617  0.1508  0.3009  0.1089
   49DMF     H3 1073   3.080   3.392   1.552 -0.4251 -1.4491  1.6774
   49DMF     H4 1074   2.984   3.091   1.445  0.6846 -1.2553  0.7486
   49DMF     H5 1075   2.937   3.220   1.559 -0.1516 -1.2632  0.1813
   49DMF     H6 1076   2.989   3.063   1.616 -1.1217 -0.8738 -0.1816
   49DMF     H7 1077   3.225   2.995   1.550 -0.8467  0.3709 -0.7164
   50DMF     C1 1078   1.442   0.886   0.143  0.4031  0.0037 -0.2578
   50DMF     N1 1079   1.539   0.833   0.244  0.3540 -0.1163 -0.9276
   50DMF     C2 1080   1.500   0.838   0.384 -0.4835  0.0810 -0.1230
   50DMF     C3 1081   1.644   0.757   0.206 -0.3255 -0.0775  0.2620
   50DMF     O1 1082   1.667   0.720   0.089 -0.3829  0.5841 -0.0879
   50DMF     H1 1083   1.341   0.895   0.184  0.0937  0.0487 -1.0243
   50DMF     H2 1084   1.445   0.821   0.055  0.8707  0.6234 -0.7033
   50DMF     H3 1085   1.469   0.991   0.124 -0.5617  0.4460  0.7618
   50DMF     H4 1086   1.575   0.889   0.446  0.3521 -0.6383 -0.5218
   50DMF     H5 1087   1.491   0.736   0.424  0.1838  0.3908  0.8442
   50DMF     H6 1088   1.404   0.886   0.406 -0.0216  0.4277  1.2047
   50DMF     H7 1089   1.683   0.701   0.292  0.8205 -0.3059 -0.3925
   51DMF     C1 1090   1.520   3.134   0.794  0.2325  0.1092 -0.6886
   51DMF     N1 1091   1.501   3.007   0.721 -0.3814 -0.5507  0.2898
   51DMF     C2 1092   1.598   2.973   0.616 -0.5542 -0.6658 -0.2719
   51DMF     C3 1093   1.379   2.941   0.733  0.2994 -0.1131 -0.2787
   51DMF     O1 1094   1.305   2.970   0.822  0.1918 -0.0624  0.0486
   51DMF     H1 1095   1.626   3.160   0.797 -0.2641  2.1544 -0.0616
   51DMF     H2 1096   1.491   3.129   0.900 -0.3494 -1.0202 -0.8885
   51DMF     H3 1097   1.463   3.211   0.741  0.9382  1.3455  0.3260
   51DMF     H4 1098   1.657   3.064   0.601  0.2520 -0.9144  1.2549
   51DMF     H5 1099   1.544   2.961   0.521  0.1072  3.0104 -1.2187
   51DMF     H6 1100   1.660   2.887   0.646 -1.2987 -1.5326 -1.1836
   51DMF     H7 1101   1.360   2.872   0.649  3.0811 -0.6535 -0.4964
   52DMF     C1 1102   3.286   1.671   0.283 -0.0395 -0.9104  0.1184
   52DMF     N1 1103   3.359   1.575   0.192 -0.0053  0.3371 -0.2810
   52DMF     C2 1104   3.339   1.432   0.195 -0.1362  0.6925 -0.5987
   52DMF     C3 1105   3.466   1.622   0.115 -0.3101  0.6530  0.3319
   52DMF     O1 1106   3.490   1.743   0.102  0.5831  0.3064 -0.2405
   52DMF     H1 1107   3.178   1.672   0.268 -0.2660 -0.2509  1.7448
   52DMF     H2 1108   3.328   1.772   0.269 -1.0502 -0.4044  0.6909
   52DMF     H3 1109   3.304   1.653   0.390  0.4482  0.8113  0.3436
   52DMF     H4 1110   3.240   1.409   0.155 -0.1465  0.6799 -0.5667
   52DMF     H5 1111   3.330   1.395   0.298  0.1373 -0.1154 -0.8664
   52DMF     H6 1112   3.419   1.374   0.147  1.0054  0.9088  0.9775
   52DMF     H7 1113   3.525   1.540   0.071 -0.7276  0.0736  0.8304
   53DMF     C1 1114   2.884   0.475   1.546 -0.7501  0.4969 -0.1077
   53DMF     N1 1115   2.976   0.354   1.558 -0.0043 -0.7042  0.0306
   53DMF     C2 1116   2.922   0.222   1.572  0.6254 -0.3585 -0.0006
   53DMF     C3 1117   3.115   0.375   1.559  0.3498  0.2643  0.5800
   53DMF     O1 1118   3.171   0.484   1.535 -0.5818  0.2098 -0.0728
   53DMF     H1 1119   2.784   0.442   1.515 -0.4392 -1.3015  0.7446
   53DMF     H2 1120   2.931   0.546   1.477 -2.0139 -1.0130 -2.6284
   53DMF     H3 1121   2.892   0.522   1.644 -3.3725  1.4081 -0.2880
   53DMF     H4 1122   2.998   0.147   1.598  1.0567 -1.0789 -3.0790
   53DMF     H5 1123   2.860   0.200   1.484 -0.2887  0.4220  0.4532
   53DMF     H6 1124   2.855   0.233   1.657  0.8781 -0.1060  0.1654
   53DMF     H7 1125   3.168   0.280   1.578  0.0976 -0.0552 -0.2990
   54DMF     C1 1126   0.562   1.368   0.095  1.0281 -0.2042 -0.3865
   54DMF     N1 1127   0.619   1.268  -0.001  0.5024  0.3667 -0.1852
   54DMF     C2 1128   0.536   1.168  -0.064 -0.0893 -0.2823 -0.2945
   54DMF     C3 1129   0.754   1.276  -0.038  0.5077 -0.0663  0.2565
   54DMF     O1 1130   0.828   1.356   0.022 -0.3289  0.0284 -0.0389
   54DMF     H1 1131   0.594   1.471   0.077  2.0925 -0.5998 -0.7559
   54DMF     H2 1132   0.572   1.351   0.203  0.3966  1.7193 -0.0063
   54DMF     H3 1133   0.453   1.365   0.081  0.9328 -0.2442  0.3323
   54DMF     H4 1134   0.432   1.199  -0.080  0.1120 -0.1164 -1.3001
   54DMF     H5 1135   0.534   1.079   0.001  0.2656 -0.2022 -0.1753
   54DMF     H6 1136   0.573   1.142  -0.164  1.0982  2.5490 -0.6249
   54DMF     H7 1137   0.782   1.202  -0.114 -0.6804 -2.0020  1.6509
   55DMF     C1 1138   0.705   2.084   1.214 -0.5347  0.4695 -0.2669
   55DMF     N1 1139   0.632   2.207   1.182  0.5302  0.1752  0.3679
   55DMF     C2 1140   0.700   2.337   1.220 -0.2942 -0.4760  0.8405
   55DMF     C3 1141   0.510   2.208   1.108 -0.1036  0.1087  0.4471
   55DMF     O1 1142   0.467   2.102   1.068 -0.1260  0.0068 -0.5956
   55DMF     H1 1143   0.649   2.020   1.283  0.3677  0.0081  0.0413
   55DMF     H2 1144   0.801   2.103   1.263 -0.3670  0.0310 -0.4248
   55DMF     H3 1145   0.714   2.030   1.119  0.7849 -0.5842  0.4542
   55DMF     H4 1146   0.761   2.329   1.311 -1.2122  0.9421  1.6036
   55DMF     H5 1147   0.615   2.406   1.230 -0.4039 -0.5842  0.6582
   55DMF     H6 1148   0.771   2.362   1.141  0.4458  2.1037  2.2468
   55DMF     H7 1149   0.463   2.301   1.072 -0.5477 -1.2556 -2.6670
   56DMF     C1 1150   1.867   2.586   0.545 -0.4038  0.3648  0.1186
   56DMF     N1 1151   2.015   2.620   0.564 -0.5128 -0.2790  0.3723
   56DMF     C2 1152   2.112   2.575   0.452  0.7483  0.0024  0.3694
   56DMF     C3 1153   2.059   2.714   0.665  0.9762 -0.3057  0.0985
   56DMF     O1 1154   1.983   2.759   0.752  0.2476  0.7879 -0.4240
   56DMF     H1 1155   1.837   2.596   0.440 -1.0302 -2.6708 -0.0347
   56DMF     H2 1156   1.797   2.647   0.603  1.3587  2.2536  0.3190
   56DMF     H3 1157   1.857   2.485   0.586 -1.2311 -0.3527 -1.7662
   56DMF     H4 1158   2.062   2.575   0.354  0.2470  2.0214  0.6054
   56DMF     H5 1159   2.159   2.477   0.470 -1.5574 -1.4297 -1.0381
   56DMF     H6 1160   2.194   2.647   0.444  0.9119 -0.3094 -0.7783
   56DMF     H7 1161   2.164   2.737   0.640  0.9639  0.3341  0.6357
   57DMF     C1 1162   1.502   0.834   0.739  0.4441  0.0838 -0.0132
   57DMF     N1 1163   1.413   0.847   0.845 -0.6260  0.3430 -0.0367
   57DMF     C2 1164   1.270   0.859   0.809  0.2647  0.0295  0.1455
   57DMF     C3 1165   1.457   0.852   0.981 -0.2750 -0.8182 -0.2493
   57DMF     O1 1166   1.570   0.829   1.008 -0.1931  0.3647  0.2487
   57DMF     H1 1167   1.448   0.805   0.648  0.1926 -0.2418  0.2448
   57DMF     H2 1168   1.567   0.748   0.760  2.5542  1.5553 -0.2868
   57DMF     H3 1169   1.568   0.921   0.722  1.3740 -0.5666  0.2043
   57DMF     H4 1170   1.196   0.850   0.889  0.8116  1.3257  0.8231
   57DMF     H5 1171   1.248   0.779   0.737  0.6498  0.7237 -0.7589
   57DMF     H6 1172   1.259   0.950   0.748  0.4640 -1.2340 -1.8045
   57DMF     H7 1173   1.373   0.879   1.047  0.3744 -1.0515  0.6768
   58DMF     C1 1174   1.969   2.269   1.331  0.2322  0.6305 -0.0151
   58DMF     N1 1175   2.032   2.269   1.463 -0.4144  0.6763  0.0699
   58DMF     C2 1176   2.164   2.329   1.486 -0.4379 -0.6680 -0.4769
   58DMF     C3 1177   1.979   2.183   1.570  0.3520 -0.7876  0.4916
   58DMF     O1 1178   1.866   2.141   1.570 -0.1055 -0.0493 -0.0969
   58DMF     H1 1179   1.865   2.234   1.336  0.2694  0.3723 -1.1013
   58DMF     H2 1180   2.021   2.199   1.265  0.8989 -1.0813  2.2729
   58DMF     H3 1181   1.988   2.362   1.277  0.5020  0.6325  0.0816
   58DMF     H4 1182   2.143   2.421   1.542  0.5166 -0.7485  0.0166
   58DMF     H5 1183   2.223   2.347   1.395  0.0746  0.5597  0.0860
   58DMF     H6 1184   2.213   2.266   1.561 -1.5511 -1.6110 -0.5296
   58DMF     H7 1185   2.048   2.173   1.655 -0.8631 -0.5851  1.5084
   59DMF     C1 1186   0.611   1.859   0.026 -0.0606  0.4401 -0.1806
   59DMF     N1 1187   0.572   1.810   0.163 -0.2184 -0.5993  0.5264
   59DMF     C2 1188   0.655   1.713   0.222 -0.6837  0.9522 -0.1472
   59DMF     C3 1189   0.494   1.890   0.250 -0.1244 -0.2883 -0.0028
   59DMF     O1 1190   0.440   1.991   0.220 -0.0398 -0.0972  0.3852
   59DMF     H1 1191   0.594   1.967   0.016  1.5958  0.6372 -0.9539
   59DMF     H2 1192   0.542   1.824  -0.052 -0.6461 -2.9659  1.7691
   59DMF     H3 1193   0.712   1.831  -0.004 -0.6535 -1.5937 -0.3654
   59DMF     H4 1194   0.592   1.644   0.280  0.5912  0.9890  1.3198
   59DMF     H5 1195   0.718   1.765   0.296  1.3325 -0.9374 -0.5115
   59DMF     H6 1196   0.711   1.659   0.146 -0.2708  2.4108 -0.9109
   59DMF     H7 1197   0.491   1.844   0.350 -0.8109  2.1989  1.1482
   60DMF     C1 1198   0.168   0.509   3.261 -0.1370 -0.5674 -0.2585
   60DMF     N1 1199   0.240   0.613   3.179  0.5817  0.5005  0.4600
   60DMF     C2 1200   0.359   0.572   3.108  0.5770 -0.6346  0.2222
   60DMF     C3 1201   0.188   0.742   3.158  1.0721 -0.1386 -0.4525
   60DMF     O1 1202   0.080   0.776   3.209  0.5079 -0.6800  0.5486
   60DMF     H1 1203   0.241   0.465   3.330 -1.9139  0.5031  2.3450
   60DMF     H2 1204   0.135   0.424   3.200 -3.0182 -0.1780  0.7020
   60DMF     H3 1205   0.079   0.552   3.308  0.5674  1.1227 -0.4296
   60DMF     H4 1206   0.439   0.646   3.098  0.0101 -0.0043  0.3186
   60DMF     H5 1207   0.320   0.561   3.006 -0.3979  1.3236  0.3504
   60DMF     H6 1208   0.400   0.477   3.144  2.0124  0.1456  0.6631
   60DMF     H7 1209   0.241   0.807   3.086  2.3493 -1.5499 -0.8085
   61DMF     C1 1210   2.370   0.635   3.396 -0.1201  0.8298 -0.1899
   61DMF     N1 1211   2.365   0.504   3.468  1.0459  0.6362 -0.0335
   61DMF     C2 1212   2.241   0.459   3.538 -0.1722  0.4256 -0.5188
   61DMF     C3 1213   2.480   0.427   3.489  0.4188  0.7277 -0.2634
   61DMF     O1 1214   2.583   0.450   3.428 -0.5216  0.5340 -0.3476
   61DMF     H1 1215   2.468   0.681   3.417 -0.1448 -0.1787  2.2353
   61DMF     H2 1216   2.302   0.706   3.444 -0.6024 -0.2446  0.7355
   61DMF     H3 1217   2.354   0.626   3.288 -1.3057  0.8426 -0.0147
   61DMF     H4 1218   2.269   0.388   3.617  0.0401 -0.6249 -1.5116
   61DMF     H5 1219   2.177   0.405   3.467 -0.2538  0.2345 -0.3020
   61DMF     H6 1220   2.184   0.543   3.578  0.4613 -0.4885  2.4657
   61DMF     H7 1221   2.467   0.349   3.567 -0.7448  0.5939 -0.5796
   62DMF     C1 1222   1.862   1.503   0.422  0.1585  0.2944  0.3663
   62DMF     N1 1223   1.985   1.512   0.343 -0.0940 -0.3791  0.3191
   62DMF     C2 1224   2.041   1.383   0.308 -0.7377  0.0198  0.0313
   62DMF     C3 1225   2.063   1.626   0.325 -0.4960 -0.6759 -0.2015
   62DMF     O1 1226   2.009   1.741   0.331 -0.0021 -0.0532  0.8695
   62DMF     H1 1227   1.789   1.439   0.371 -1.7901  0.5325  2.7834
   62DMF     H2 1228   1.823   1.605   0.432 -0.2587  0.0799  0.9089
   62DMF     H3 1229   1.880   1.444   0.512 -0.2073 -0.0486  0.2132
   62DMF     H4 1230   2.132   1.386   0.246 -1.1776 -0.3143 -0.6508
   62DMF     H5 1231   1.968   1.321   0.253 -0.7527  0.0566  0.0094
   62DMF     H6 1232   2.071   1.327   0.397  0.0070 -0.6919 -0.6490
   62DMF     H7 1233   2.161   1.599   0.283  0.3531  0.1364  1.2276
   63DMF     C1 1234   2.752   2.337   1.455 -0.2708 -0.6486 -0.2110
   63DMF     N1 1235   2.606   2.327   1.443  0.7252 -0.2841  0.0146
   63DMF     C2 1236   2.533   2.265   1.553 -0.2761  0.4240  0.3131
   63DMF     C3 1237   2.531   2.403   1.352 -0.3819 -0.5034 -0.0464
   63DMF     O1 1238   2.584   2.453   1.253  0.1207 -0.2398 -0.1207
   63DMF     H1 1239   2.810   2.326   1.362 -0.3859  0.6192 -0.4397
   63DMF     H2 1240   2.788   2.264   1.529  0.9464  0.5880  0.4517
   63DMF     H3 1241   2.768   2.439   1.493  1.4900  0.5942 -3.9641
   63DMF     H4 1242   2.585   2.175   1.590  0.4037  0.3072 -0.8829
   63DMF     H5 1243   2.435   2.229   1.517 -0.2977  1.1697 -0.3817
   63DMF     H6 1244   2.536   2.333   1.639  0.6330 -1.8950  2.1848
   63DMF     H7 1245   2.422   2.401   1.371 -0.1616  2.0457  1.8554
   64DMF     C1 1246   3.315   0.609   0.997  0.0430 -0.1600  0.1826
   64DMF     N1 1247   3.215   0.568   1.094  0.2076  0.0937 -0.2569
   64DMF     C2 1248   3.239   0.436   1.159  0.8449  0.8876  0.0631
   64DMF     C3 1249   3.101   0.640   1.129 -0.4609 -0.1075 -0.6466
   64DMF     O1 1250   3.062   0.745   1.073  0.1680 -0.3204 -0.4116
   64DMF     H1 1251   3.375   0.681   1.054 -1.9497  0.4691  1.5354
   64DMF     H2 1252   3.281   0.655   0.903  1.7093 -0.0032 -0.3659
   64DMF     H3 1253   3.384   0.531   0.962 -1.0824 -1.1235  0.0932
   64DMF     H4 1254   3.187   0.417   1.253  0.8489  0.2900 -0.0522
   64DMF     H5 1255   3.342   0.417   1.193  0.1988  0.0767  1.5839
   64DMF     H6 1256   3.214   0.355   1.089  0.9159 -0.3511  1.4493
   64DMF     H7 1257   3.042   0.586   1.205 -1.4896  0.3242 -1.1258
   65DMF     C1 1258   0.282   0.634   0.749 -0.4021 -0.4201  0.1504
   65DMF     N1 1259   0.336   0.741   0.664  0.4982 -0.1650 -0.5797
   65DMF     C2 1260   0.325   0.734   0.527 -0.2520  0.7453 -0.1574
   65DMF     C3 1261   0.395   0.849   0.720 -0.2552  0.1381  0.0377
   65DMF     O1 1262   0.411   0.856   0.839  0.0734  0.1851 -0.4330
   65DMF     H1 1263   0.365   0.593   0.808 -0.7267 -0.0670  0.8667
   65DMF     H2 1264   0.244   0.547   0.695  1.3741 -1.6580  0.8517
   65DMF     H3 1265   0.202   0.667   0.817  0.1885  1.1361  0.1196
   65DMF     H4 1266   0.423   0.701   0.490  0.8033  1.1780  2.1657
   65DMF     H5 1267   0.294   0.824   0.471 -2.4372  0.6464  0.8326
   65DMF     H6 1268   0.275   0.645   0.488 -0.7481  1.5026 -1.2870
   65DMF     H7 1269   0.439   0.916   0.644  2.9844 -1.0194  0.8350
   66DMF     C1 1270   0.643   1.351   1.029 -0.5754  0.6048  0.4839
   66DMF     N1 1271   0.605   1.239   1.105 -1.0548  0.4710  0.0237
   66DMF     C2 1272   0.549   1.123   1.034  0.2865  0.3924  0.4238
   66DMF     C3 1273   0.619   1.234   1.248  0.0482 -0.0432 -0.1703
   66DMF     O1 1274   0.666   1.314   1.320  0.3689  0.2314 -0.2708
   66DMF     H1 1275   0.751   1.356   1.045 -0.2941 -0.6795 -1.0624
   66DMF     H2 1276   0.600   1.445   1.068 -0.2290  1.1193 -0.3595
   66DMF     H3 1277   0.615   1.329   0.926  0.0505  0.9109  0.2455
   66DMF     H4 1278   0.552   1.037   1.102  0.4090  0.3398  0.3521
   66DMF     H5 1279   0.610   1.093   0.948 -0.4911 -0.6217  0.2080
   66DMF     H6 1280   0.453   1.137   0.982  0.8884  1.0588 -0.5177
   66DMF     H7 1281   0.583   1.139   1.292  2.0053 -2.2956 -3.2479
   67DMF     C1 1282   2.124   1.919   0.907 -0.3660  0.9727  0.1633
   67DMF     N1 1283   2.091   1.835   0.783  0.6445 -0.6410  0.4800
   67DMF     C2 1284   1.956   1.786   0.760 -0.3061  0.4008  0.3463
   67DMF     C3 1285   2.196   1.773   0.719 -0.7470  0.0489  0.1808
   67DMF     O1 1286   2.314   1.804   0.723 -0.0481  0.5943  0.0167
   67DMF     H1 1287   2.129   2.023   0.872  0.2144  0.3908 -1.5422
   67DMF     H2 1288   2.221   1.903   0.955  0.9950  1.3895 -2.3167
   67DMF     H3 1289   2.041   1.908   0.977 -0.1671 -2.6463 -0.1005
   67DMF     H4 1290   1.969   1.712   0.680  0.8694  0.0763  0.8171
   67DMF     H5 1291   1.892   1.869   0.728  0.7465  1.4058  0.7976
   67DMF     H6 1292   1.925   1.733   0.851  2.2268  0.4677  1.3065
   67DMF     H7 1293   2.178   1.684   0.655  0.9201  0.6954 -1.2281
   68DMF     C1 1294   2.253   1.462  -0.018  0.1448  0.3690 -0.2732
   68DMF     N1 1295   2.210   1.333  -0.086  0.3103 -0.0090 -0.5653
   68DMF     C2 1296   2.072   1.294  -0.065 -0.0868  0.0575 -0.4124
   68DMF     C3 1297   2.284   1.263  -0.177  0.4377 -0.4458  0.5690
   68DMF     O1 1298   2.402   1.291  -0.188 -0.5968 -0.3438  0.3208
   68DMF     H1 1299   2.354   1.444   0.020  0.5167 -0.6167 -1.6910
   68DMF     H2 1300   2.186   1.497   0.062 -0.4596  1.3430 -1.1775
   68DMF     H3 1301   2.266   1.542  -0.092 -0.2537  0.4976 -0.2060
   68DMF     H4 1302   2.016   1.296  -0.160 -1.0285  0.1722  0.1323
   68DMF     H5 1303   2.011   1.357   0.002  1.3104  0.5235  0.4386
   68DMF     H6 1304   2.053   1.191  -0.032 -0.3556  0.7894  1.7890
   68DMF     H7 1305   2.238   1.170  -0.215 -1.9704  0.1378  1.9997
   69DMF     C1 1306   1.188   1.607   3.039 -0.6837  0.1977 -0.0650
   69DMF     N1 1307   1.110   1.482   3.069  0.4281 -0.4086  0.1726
   69DMF     C2 1308   1.096   1.442   3.211  0.2076 -0.1521 -0.1423
   69DMF     C3 1309   1.057   1.400   2.962 -0.0163 -0.2471  1.1411
   69DMF     O1 1310   1.068   1.425   2.843  0.3037  0.3442 -0.9938
   69DMF     H1 1311   1.183   1.623   2.930  4.1688  0.2564 -0.3585
   69DMF     H2 1312   1.292   1.612   3.071 -0.7337 -0.9811  0.3233
   69DMF     H3 1313   1.129   1.688   3.083  0.7480  0.9445  0.5023
   69DMF     H4 1314   1.036   1.522   3.257 -0.6123  0.3668 -2.0693
   69DMF     H5 1315   1.197   1.439   3.253  0.4732  2.2224 -0.5643
   69DMF     H6 1316   1.054   1.342   3.228  1.7387 -0.3272  2.9895
   69DMF     H7 1317   0.999   1.313   2.999 -2.3727 -0.0499 -1.9543
   70DMF     C1 1318   2.368   2.856   0.277 -0.1467  0.4647  0.9409
   70DMF     N1 1319   2.481   2.814   0.362 -0.1672  0.4284 -0.1444
   70DMF     C2 1320   2.606   2.764   0.304 -0.0886 -0.0219  0.1904
   70DMF     C3 1321   2.458   2.793   0.500 -0.2234  0.8198  0.0858
   70DMF     O1 1322   2.354   2.826   0.551  0.0391  0.0055 -0.0757
   70DMF     H1 1323   2.386   2.809   0.180  0.1001  0.4955  0.9716
   70DMF     H2 1324   2.374   2.964   0.258 -1.5037  0.6709  1.6228
   70DMF     H3 1325   2.268   2.824   0.309 -0.5296  1.2234  0.5339
   70DMF     H4 1326   2.607   2.655   0.296 -0.6730 -0.1542  1.6838
   70DMF     H5 1327   2.696   2.798   0.358 -0.0630  0.4233 -0.1317
   70DMF     H6 1328   2.601   2.798   0.200 -1.0966 -2.2936 -0.5294
   70DMF     H7 1329   2.548   2.761   0.556  0.4873  0.3292 -1.3064
   71DMF     C1 1330   0.707   0.793   0.951 -0.0480 -0.2838  0.9440
   71DMF     N1 1331   0.827   0.717   0.986  0.3607 -0.3103  0.0319
   71DMF     C2 1332   0.961   0.753   0.934 -0.3760  0.3528 -0.0319
   71DMF     C3 1333   0.824   0.612   1.078  0.2327 -0.2893  0.2821
   71DMF     O1 1334   0.722   0.565   1.118  0.7306  0.1394  0.0394
   71DMF     H1 1335   0.693   0.886   1.008  0.0703  0.2392  0.1356
   71DMF     H2 1336   0.622   0.725   0.955  0.9246 -1.6568 -0.8329
   71DMF     H3 1337   0.708   0.827   0.847  0.0171 -2.0007  0.3676
   71DMF     H4 1338   0.960   0.859   0.906 -2.2163  0.2078 -0.5807
   71DMF     H5 1339   0.976   0.685   0.849  2.1938  0.4038  0.3332
   71DMF     H6 1340   1.038   0.726   1.008 -0.2908 -1.5621 -0.7916
   71DMF     H7 1341   0.921   0.566   1.103 -0.4469 -2.1155 -0.3701
   72DMF     C1 1342   0.068   2.185   3.649 -0.3012 -0.0607  0.1741
   72DMF     N1 1343   0.160   2.140   3.751 -0.2803 -0.1425  0.2266
   72DMF     C2 1344   0.300   2.111   3.719 -0.4873  0.1452  0.9567
   72DMF     C3 1345   0.129   2.136   3.885  0.5570 -0.1289  1.0144
   72DMF     O1 1346   0.017   2.166   3.923 -0.3250  0.4343 -0.0483
   72DMF     H1 1347   0.115   2.217   3.555 -1.0233  0.3189 -0.0585
   72DMF     H2 1348   0.020   2.275   3.688 -1.2601 -1.1081  1.4489
   72DMF     H3 1349  -0.020   2.121   3.637  2.0522 -3.0502 -1.8828
   72DMF     H4 1350   0.365   2.150   3.799 -0.0319  0.4874  0.4255
   72DMF     H5 1351   0.320   2.157   3.622  1.2741  0.0229  1.2579
   72DMF     H6 1352   0.311   2.002   3.727 -0.4791 -0.0892 -1.8821
   72DMF     H7 1353   0.214   2.106   3.950  1.2270 -0.2069  0.1098
   73DMF     C1 1354   0.376   0.205   3.419  0.1329  0.0739  0.1722
   73DMF     N1 1355   0.256   0.229   3.505 -0.4301  0.1793 -0.0297
   73DMF     C2 1356   0.279   0.266   3.644  0.6242 -0.4926  0.3018
   73DMF     C3 1357   0.122   0.245   3.448  0.0728  1.0405 -0.1508
   73DMF     O1 1358   0.101   0.205   3.337  0.3233 -0.1335 -0.1575
   73DMF     H1 1359   0.353   0.193   3.312  0.8423  1.0046 -0.0934
   73DMF     H2 1360   0.424   0.109   3.444  0.5568  0.8561  2.4392
   73DMF     H3 1361   0.442   0.293   3.415 -0.3285  0.3870 -0.5650
   73DMF     H4 1362   0.194   0.323   3.684  0.6798 -1.3290  1.6287
   73DMF     H5 1363   0.372   0.319   3.667 -1.1718  1.4018  3.4501
   73DMF     H6 1364   0.278   0.174   3.703  0.1397 -0.6065  0.1249
   73DMF     H7 1365   0.052   0.289   3.521 -1.2018 -0.4637 -0.4426
   74DMF     C1 1366   1.996   0.825   1.535 -0.3561  0.5594 -0.4485
   74DMF     N1 1367   2.142   0.823   1.555 -0.2604 -0.0120  0.7571
   74DMF     C2 1368   2.214   0.704   1.524  0.0220  0.5274 -0.3928
   74DMF     C3 1369   2.213   0.944   1.561 -0.7893  0.7784 -0.6513
   74DMF     O1 1370   2.153   1.046   1.575  0.4264 -0.3295  0.0206
   74DMF     H1 1371   1.941   0.826   1.630 -1.2850  0.3093 -0.9753
   74DMF     H2 1372   1.956   0.737   1.483  1.0066  0.8637 -2.0317
   74DMF     H3 1373   1.963   0.913   1.478 -1.1448  1.5989  1.5315
   74DMF     H4 1374   2.242   0.645   1.613  0.0872  0.8360 -0.2094
   74DMF     H5 1375   2.305   0.720   1.465 -0.4318 -4.8466 -2.8408
   74DMF     H6 1376   2.167   0.641   1.448 -0.7963  0.3919  0.2171
   74DMF     H7 1377   2.322   0.926   1.554 -0.6282  1.0159  1.0310
   75DMF     C1 1378   2.479   1.971   0.065  0.2662 -0.2912  0.0707
   75DMF     N1 1379   2.345   1.922   0.017  0.0543 -0.2327 -0.4730
   75DMF     C2 1380   2.274   1.835   0.115 -0.2921  0.1114  0.5278
   75DMF     C3 1381   2.288   1.965  -0.102 -0.8737 -0.1683  0.7624
   75DMF     O1 1382   2.349   2.033  -0.181 -0.1305 -0.2694  0.1271
   75DMF     H1 1383   2.562   1.957  -0.006 -1.0224  0.7669 -1.6916
   75DMF     H2 1384   2.506   1.927   0.161 -0.5215 -1.5250 -0.2597
   75DMF     H3 1385   2.469   2.078   0.085 -0.9151 -0.4429  0.2905
   75DMF     H4 1386   2.228   1.759   0.051 -0.3479  0.7355 -0.1700
   75DMF     H5 1387   2.203   1.896   0.173  0.5598  1.7183 -0.1091
   75DMF     H6 1388   2.345   1.794   0.189 -0.8558  3.7722  3.2519
   75DMF     H7 1389   2.180   1.943  -0.118 -0.7476 -0.3136  0.0929
   76DMF     C1 1390   1.611   1.855   0.605  0.1559 -0.0459  0.2962
   76DMF     N1 1391   1.687   1.979   0.560  0.4383  0.3758  0.5968
   76DMF     C2 1392   1.792   1.965   0.460 -0.0906  0.3925  0.0339
   76DMF     C3 1393   1.638   2.104   0.612 -0.3485 -0.1116  0.3924
   76DMF     O1 1394   1.536   2.107   0.681  0.5447  0.3178 -0.2939
   76DMF     H1 1395   1.687   1.783   0.636  0.4758 -0.2628 -0.9689
   76DMF     H2 1396   1.554   1.815   0.521 -1.3234  0.2327  1.1476
   76DMF     H3 1397   1.554   1.868   0.698  0.5397  0.8843  0.4099
   76DMF     H4 1398   1.813   2.059   0.408 -0.4913  1.2713  1.4372
   76DMF     H5 1399   1.759   1.890   0.387  0.2894 -0.2663  0.5320
   76DMF     H6 1400   1.881   1.925   0.510 -1.0018 -1.7237  0.0161
   76DMF     H7 1401   1.695   2.193   0.582 -1.1994  0.2462 -0.1898
   77DMF     C1 1402   2.854   1.180   1.550  0.6203  1.0226  0.1381
   77DMF     N1 1403   2.829   1.289   1.455 -0.8286  0.1124 -1.1233
   77DMF     C2 1404   2.816   1.266   1.313 -0.3105 -0.0562  0.5121
   77DMF     C3 1405   2.867   1.416   1.491  0.1035 -0.0765  0.1295
   77DMF     O1 1406   2.927   1.434   1.597  0.5156 -0.2088 -0.9274
   77DMF     H1 1407   2.963   1.166   1.546  0.5094 -0.0722  0.8275
   77DMF     H2 1408   2.811   1.086   1.514  3.4588 -0.4087  0.3538
   77DMF     H3 1409   2.812   1.201   1.650 -0.0843  2.2418 -0.4038
   77DMF     H4 1410   2.807   1.354   1.248  2.4331 -1.2118 -1.5071
   77DMF     H5 1411   2.730   1.201   1.289 -0.1683  0.3017 -1.0254
   77DMF     H6 1412   2.901   1.203   1.285 -0.8681 -0.5128 -0.1717
   77DMF     H7 1413   2.830   1.493   1.420 -0.1603 -0.0760  0.2685
   78DMF     C1 1414   1.126   2.547   0.455 -0.7206  0.8392 -0.2676
   78DMF     N1 1415   1.278   2.549   0.454 -0.5298 -0.4260  0.4780
   78DMF     C2 1416   1.354   2.451   0.530 -0.3523  0.5318  0.1795
   78DMF     C3 1417   1.339   2.628   0.356 -0.7156 -0.2687 -0.3838
   78DMF     O1 1418   1.275   2.713   0.299  0.1469 -0.7744 -0.2350
   78DMF     H1 1419   1.093   2.475   0.530  0.1170  0.6398 -0.0919
   78DMF     H2 1420   1.089   2.516   0.356  0.2930  1.0459 -0.7155
   78DMF     H3 1421   1.090   2.646   0.487  2.4377  1.7083  0.7684
   78DMF     H4 1422   1.319   2.446   0.634 -2.6018 -1.3663 -0.6242
   78DMF     H5 1423   1.461   2.468   0.514 -0.0620 -2.1725 -1.0630
   78DMF     H6 1424   1.345   2.348   0.495 -0.3691  0.4000  0.5686
   78DMF     H7 1425   1.450   2.632   0.356 -0.7592  1.1547 -1.0297
   79DMF     C1 1426   3.164   1.603   0.930  0.2895 -0.0616 -0.3831
   79DMF     N1 1427   3.089   1.650   1.045  0.0383  1.0147 -0.0255
   79DMF     C2 1428   3.110   1.782   1.097  0.1737 -0.0051  0.1621
   79DMF     C3 1429   2.974   1.579   1.089  0.3577  0.0373 -0.0011
   79DMF     O1 1430   2.944   1.474   1.050 -0.2093  0.2678  0.0829
   79DMF     H1 1431   3.097   1.579   0.846  0.4828 -2.0707  0.0112
   79DMF     H2 1432   3.238   1.530   0.964  0.4649  0.5930  0.6542
   79DMF     H3 1433   3.234   1.684   0.905 -2.1307  2.1279 -0.3357
   79DMF     H4 1434   3.170   1.845   1.031  2.4543  0.5206  2.6095
   79DMF     H5 1435   3.151   1.780   1.199 -1.0496  0.7695  0.6850
   79DMF     H6 1436   3.013   1.833   1.099 -0.7635 -1.8017  2.1522
   79DMF     H7 1437   2.913   1.621   1.171  1.5865 -2.1808  2.1179
   80DMF     C1 1438   1.891   0.462   1.541  0.6283 -0.3744  0.1184
   80DMF     N1 1439   1.755   0.460   1.590 -0.0872  0.2404 -0.3970
   80DMF     C2 1440   1.672   0.335   1.587  0.1170  0.2807 -0.5147
   80DMF     C3 1441   1.681   0.577   1.581 -0.4812  0.1825 -0.1899
   80DMF     O1 1442   1.734   0.684   1.564  0.3792  0.2146  0.3386
   80DMF     H1 1443   1.890   0.494   1.437  0.9466 -3.8343 -1.0152
   80DMF     H2 1444   1.938   0.364   1.555  2.1818  0.4158  0.5968
   80DMF     H3 1445   1.946   0.536   1.601  0.3870  0.3176 -0.5000
   80DMF     H4 1446   1.640   0.310   1.485  2.2839 -0.9400 -0.9246
   80DMF     H5 1447   1.587   0.340   1.657  1.8405 -1.4630  1.8068
   80DMF     H6 1448   1.736   0.252   1.621 -0.5333 -0.3574 -0.8245
   80DMF     H7 1449   1.572   0.561   1.571 -0.6828  1.3970 -0.0781
   81DMF     C1 1450   3.090   2.735   1.516 -0.1263 -0.4646  0.3675
   81DMF     N1 1451   3.049   2.602   1.472 -0.2927 -0.1306 -0.4479
   81DMF     C2 1452   3.041   2.499   1.576 -0.3310 -0.1741  0.4315
   81DMF     C3 1453   3.039   2.563   1.338  0.4152  0.0151 -0.2178
   81DMF     O1 1454   3.059   2.637   1.247  0.0084  0.1526  0.3319
   81DMF     H1 1455   3.149   2.791   1.442 -0.6895 -0.5199 -0.1209
   81DMF     H2 1456   3.151   2.738   1.608  0.0081  2.1705  0.2431
   81DMF     H3 1457   3.000   2.791   1.545  0.0551  0.4861 -0.8967
   81DMF     H4 1458   2.987   2.546   1.659  2.1405  1.3360  1.2549
   81DMF     H5 1459   3.144   2.468   1.602  0.5909  2.2576 -0.1900
   81DMF     H6 1460   2.991   2.407   1.543  1.6504 -0.3726 -2.2171
   81DMF     H7 1461   3.023   2.455   1.324  2.9765 -0.5738  0.9899
   82DMF     C1 1462   1.014   1.926   0.819  0.2929 -0.0410 -0.3602
   82DMF     N1 1463   1.040   2.049   0.741  0.1088  0.2716 -0.3556
   82DMF     C2 1464   1.092   2.039   0.604 -0.2069  0.1635  1.0469
   82DMF     C3 1465   1.020   2.172   0.810  0.6614 -0.0764  0.0941
   82DMF     O1 1466   0.956   2.184   0.911 -1.0835  0.0886  0.2131
   82DMF     H1 1467   0.998   1.937   0.927  0.8494 -0.4125 -0.2394
   82DMF     H2 1468   1.091   1.852   0.798 -0.8299 -1.2141 -0.4060
   82DMF     H3 1469   0.923   1.885   0.774  0.5587  0.5421 -1.4405
   82DMF     H4 1470   1.166   2.115   0.578 -0.8663  0.0319 -1.3375
   82DMF     H5 1471   1.018   2.048   0.523 -0.8585  0.1694  1.6371
   82DMF     H6 1472   1.131   1.937   0.590 -0.7161 -0.0100  0.8735
   82DMF     H7 1473   1.060   2.257   0.751  0.1732  0.3188  0.3304
   83DMF     C1 1474   3.321   2.192   1.511  0.6338  0.7944 -1.4210
   83DMF     N1 1475   3.232   2.067   1.503 -0.1169 -0.7941 -0.0301
   83DMF     C2 1476   3.298   1.939   1.543 -0.1940  0.5400  0.6565
   83DMF     C3 1477   3.095   2.073   1.498 -0.0344 -0.2122 -0.6160
   83DMF     O1 1478   3.042   2.173   1.462 -0.2773 -0.4191  0.4953
   83DMF     H1 1479   3.416   2.166   1.463  0.9783 -0.8392  0.0863
   83DMF     H2 1480   3.344   2.213   1.616  2.8505 -1.6265 -1.3711
   83DMF     H3 1481   3.266   2.274   1.464  1.1265  0.6385 -2.2754
   83DMF     H4 1482   3.229   1.855   1.562 -0.9858  1.0637  0.1103
   83DMF     H5 1483   3.369   1.952   1.625  0.6868 -0.2800  0.0412
   83DMF     H6 1484   3.365   1.904   1.463 -0.5445  1.0609  0.1332
   83DMF     H7 1485   3.044   1.976   1.515  0.0371 -0.2263 -0.4760
   84DMF     C1 1486   0.669   3.434   3.583 -0.1139  0.0469 -0.2336
   84DMF     N1 1487   0.724   3.447   3.724  0.5832  0.2113  0.6286
   84DMF     C2 1488   0.698   3.573   3.790  0.2638 -0.3068 -0.0228
   84DMF     C3 1489   0.774   3.342   3.796 -0.5579  0.1583 -0.3554
   84DMF     O1 1490   0.781   3.230   3.742  0.4173 -0.2745 -0.1978
   84DMF     H1 1491   0.639   3.533   3.546  1.8047  0.1158 -1.6952
   84DMF     H2 1492   0.581   3.369   3.585  0.0168 -0.0906  1.2030
   84DMF     H3 1493   0.745   3.390   3.518  0.3622  1.0023 -0.3291
   84DMF     H4 1494   0.591   3.584   3.814  0.0772 -0.2603 -0.8422
   84DMF     H5 1495   0.734   3.649   3.720 -0.7805 -0.7186 -1.0375
   84DMF     H6 1496   0.749   3.587   3.885 -1.7335 -0.5060  1.1155
   84DMF     H7 1497   0.798   3.356   3.903 -1.2176 -1.6519  0.0469
   85DMF     C1 1498   2.773   1.054   0.753 -0.6975 -0.4821 -0.2692
   85DMF     N1 1499   2.656   1.133   0.801 -0.0892  0.0624  0.2139
   85DMF     C2 1500   2.681   1.253   0.885  0.5289 -0.0529 -0.0940
   85DMF     C3 1501   2.526   1.110   0.748 -0.7308  0.3875  0.1734
   85DMF     O1 1502   2.511   1.019   0.667  0.2671 -0.2205 -0.6092
   85DMF     H1 1503   2.790   1.084   0.649  0.1481 -0.2260 -0.0609
   85DMF     H2 1504   2.741   0.949   0.753  0.0104 -0.7319  1.9294
   85DMF     H3 1505   2.865   1.054   0.813  0.2716 -1.8138 -1.7208
   85DMF     H4 1506   2.721   1.335   0.823  1.8380 -0.6598 -0.0712
   85DMF     H5 1507   2.755   1.225   0.961 -0.5239 -2.0936  0.1972
   85DMF     H6 1508   2.588   1.273   0.939  0.4834  0.1874 -0.2589
   85DMF     H7 1509   2.452   1.173   0.802 -0.2394  0.2482  1.0116
   86DMF     C1 1510   2.240   2.324   3.728  0.7453 -0.1504 -0.1965
   86DMF     N1 1511   2.271   2.460   3.773  0.0874 -0.3371  0.4918
   86DMF     C2 1512   2.269   2.562   3.669 -0.0781 -0.5745 -0.8919
   86DMF     C3 1513   2.294   2.489   3.911 -0.0651 -0.1676 -0.0787
   86DMF     O1 1514   2.283   2.407   3.998 -0.0566  0.3434 -0.2122
   86DMF     H1 1515   2.253   2.251   3.808  2.1005  0.3381  0.0374
   86DMF     H2 1516   2.312   2.301   3.649 -0.5551  0.5269 -1.6160
   86DMF     H3 1517   2.135   2.323   3.695  1.1059  0.5324 -1.3795
   86DMF     H4 1518   2.244   2.664   3.700  1.5129 -0.4973  0.1780
   86DMF     H5 1519   2.184   2.533   3.605 -1.1434 -1.3079  0.8285
   86DMF     H6 1520   2.368   2.569   3.622 -0.8533 -0.2360 -2.4927
   86DMF     H7 1521   2.305   2.598   3.922 -1.4487  0.1962 -2.0760
   87DMF     C1 1522   1.292   0.797   3.466  0.1971  0.1906  0.1919
   87DMF     N1 1523   1.156   0.868   3.457 -0.0994 -0.0638 -0.0860
   87DMF     C2 1524   1.079   0.872   3.333 -0.1624  0.4255 -0.6147
   87DMF     C3 1525   1.102   0.907   3.577  0.0977  0.6802 -0.1357
   87DMF     O1 1526   1.158   0.900   3.687 -0.3080  0.0166 -0.1700
   87DMF     H1 1527   1.276   0.694   3.500  3.4552  0.0617  1.5721
   87DMF     H2 1528   1.361   0.856   3.527  0.8331 -1.0447  0.6869
   87DMF     H3 1529   1.338   0.794   3.367 -1.4873  0.2637 -0.6091
   87DMF     H4 1530   1.112   0.796   3.261  2.8577 -0.5673  1.7165
   87DMF     H5 1531   1.092   0.971   3.287  1.8988  1.2990  1.7367
   87DMF     H6 1532   0.977   0.845   3.362 -0.4459 -1.0127 -2.8072
   87DMF     H7 1533   1.001   0.950   3.566 -1.3765 -2.4384  0.6891
   88DMF     C1 1534   3.262   1.334   1.537  0.1506 -0.1361 -0.3365
   88DMF     N1 1535   3.287   1.365   1.391  0.5389 -0.2028  0.3738
   88DMF     C2 1536   3.187   1.449   1.320  0.6358 -0.0516  0.3788
   88DMF     C3 1537   3.413   1.329   1.331 -0.9324 -0.0944  0.2853
   88DMF     O1 1538   3.499   1.277   1.397  0.2394  0.4878 -0.0366
   88DMF     H1 1539   3.354   1.361   1.590  0.0009 -0.1183 -0.0796
   88DMF     H2 1540   3.234   1.229   1.555 -2.8826  0.4344 -1.4292
   88DMF     H3 1541   3.172   1.380   1.580  0.6539 -0.6229  1.2704
   88DMF     H4 1542   3.188   1.428   1.213  0.1770  2.7572 -0.2067
   88DMF     H5 1543   3.201   1.557   1.311  1.0481 -0.2784 -1.9362
   88DMF     H6 1544   3.087   1.419   1.354  0.7418 -1.5779 -0.5966
   88DMF     H7 1545   3.419   1.351   1.223 -0.3380 -1.3349  0.0631
   89DMF     C1 1546   0.571   3.303   3.253 -0.1547 -0.7151 -0.2937
   89DMF     N1 1547   0.687   3.230   3.304 -0.1029 -0.7234  0.0872
   89DMF     C2 1548   0.663   3.092   3.340 -0.7578  0.0726  0.3199
   89DMF     C3 1549   0.817   3.276   3.297 -0.3920  0.0519 -0.2465
   89DMF     O1 1550   0.845   3.389   3.257 -0.0427 -0.1759  0.1364
   89DMF     H1 1551   0.579   3.309   3.144  5.5738 -1.7652 -0.0941
   89DMF     H2 1552   0.564   3.407   3.287 -1.3093 -0.3076 -1.7493
   89DMF     H3 1553   0.476   3.252   3.275 -0.5041 -0.3286 -0.9001
   89DMF     H4 1554   0.743   3.060   3.409 -0.4963 -0.4540 -0.2181
   89DMF     H5 1555   0.671   3.025   3.253  0.7246  0.1872  0.3534
   89DMF     H6 1556   0.571   3.083   3.399 -0.8299  1.3075  0.4012
   89DMF     H7 1557   0.898   3.208   3.329  2.0835  3.6316  1.3748
   90DMF     C1 1558   1.350   3.199   1.121 -0.3019  0.2882 -0.4973
   90DMF     N1 1559   1.235   3.121   1.184 -0.3413  0.0371  0.0835
   90DMF     C2 1560   1.250   2.969   1.169  0.2700 -0.0397  0.1717
   90DMF     C3 1561   1.132   3.183   1.257  0.3872  0.0696 -0.2094
   90DMF     O1 1562   1.131   3.301   1.271 -0.4335  0.0744  0.5930
   90DMF     H1 1563   1.352   3.301   1.161  0.6906  0.3378 -0.6454
   90DMF     H2 1564   1.334   3.212   1.014 -1.5786  0.9523 -0.2278
   90DMF     H3 1565   1.444   3.145   1.139 -0.3252  0.1040 -0.9279
   90DMF     H4 1566   1.338   2.934   1.224 -2.0332 -1.5216  3.0204
   90DMF     H5 1567   1.250   2.950   1.061 -1.5912  0.6948  0.0122
   90DMF     H6 1568   1.160   2.919   1.208 -0.4014  2.2658  1.6741
   90DMF     H7 1569   1.055   3.113   1.293 -0.4572 -0.3906 -2.8124
   91DMF     C1 1570   1.990   2.689   0.091  0.3312  1.2968  0.1930
   91DMF     N1 1571   2.014   2.768  -0.024 -0.1293 -0.3232  0.5283
   91DMF     C2 1572   1.950   2.733  -0.154  0.0534  0.8964 -0.2599
   91DMF     C3 1573   2.102   2.875  -0.017 -0.0407  0.3076 -0.7029
   91DMF     O1 1574   2.169   2.906   0.082 -0.1888  0.5904 -0.6815
   91DMF     H1 1575   1.984   2.753   0.179 -2.3766 -0.8401  1.6776
   91DMF     H2 1576   2.072   2.618   0.109 -0.0195  0.8120 -0.1074
   91DMF     H3 1577   1.894   2.638   0.075  0.0747  2.0810 -0.8289
   91DMF     H4 1578   1.938   2.626  -0.175 -1.0177  1.1280 -0.8365
   91DMF     H5 1579   2.018   2.768  -0.233 -0.4590 -0.5179 -1.3494
   91DMF     H6 1580   1.853   2.783  -0.165  0.9852  2.5283 -1.3239
   91DMF     H7 1581   2.112   2.929  -0.113 -3.3046  1.6404 -0.3607
   92DMF     C1 1582   3.327   2.080   1.148 -0.0429  0.3668 -0.3354
   92DMF     N1 1583   3.469   2.125   1.114 -0.5772 -0.4575 -0.3146
   92DMF     C2 1584   3.553   2.145   1.229  0.0986  0.3558 -0.6877
   92DMF     C3 1585   3.529   2.094   0.986  0.2256  0.3119  0.4986
   92DMF     O1 1586   3.465   2.056   0.888 -0.3120 -0.3474  0.7344
   92DMF     H1 1587   3.273   2.106   1.056  0.6317 -1.5635 -1.2840
   92DMF     H2 1588   3.287   2.133   1.236  2.2580  2.0325 -0.2468
   92DMF     H3 1589   3.323   1.975   1.179  0.8401  1.2323  2.8239
   92DMF     H4 1590   3.660   2.137   1.207  1.4514  0.8245  5.1768
   92DMF     H5 1591   3.531   2.072   1.308 -0.6400  0.1522 -1.0741
   92DMF     H6 1592   3.540   2.248   1.263  0.8519 -0.8310  3.4072
   92DMF     H7 1593   3.638   2.111   0.977 -0.0843  1.6758 -0.9156
   93DMF     C1 1594   0.831   3.310   1.515  0.3823 -0.3752 -0.7202
   93DMF     N1 1595   0.679   3.291   1.509  0.1224  0.1468 -0.5999
   93DMF     C2 1596   0.622   3.165   1.557  0.1247 -0.4754  0.6780
   93DMF     C3 1597   0.592   3.401   1.483 -0.2271  0.0888 -0.3076
   93DMF     O1 1598   0.637   3.510   1.456 -0.0897  0.7079 -0.3622
   93DMF     H1 1599   0.861   3.415   1.519 -0.7328 -0.1248  1.3764
   93DMF     H2 1600   0.864   3.261   1.422 -1.6136  0.9787 -2.1725
   93DMF     H3 1601   0.857   3.244   1.599 -1.9303 -0.0723  0.2577
   93DMF     H4 1602   0.571   3.114   1.474  0.2524 -1.7725  1.3882
   93DMF     H5 1603   0.557   3.179   1.644  2.0084  1.3118  1.8519
   93DMF     H6 1604   0.706   3.098   1.579  2.0199  1.2746 -1.0993
   93DMF     H7 1605   0.485   3.377   1.471  0.6118 -3.0645 -2.1655
   94DMF     C1 1606   2.615   0.362   0.132  0.3279  0.5022 -0.5429
   94DMF     N1 1607   2.550   0.250   0.057 -0.4121 -0.2348  1.2640
   94DMF     C2 1608   2.635   0.127   0.025 -0.7602 -0.0338 -0.0441
   94DMF     C3 1609   2.415   0.256   0.020 -0.4071  0.0504 -0.3837
   94DMF     O1 1610   2.341   0.351   0.045 -0.1070 -0.2262 -0.2920
   94DMF     H1 1611   2.646   0.327   0.231 -0.8006 -0.0714 -0.3742
   94DMF     H2 1612   2.557   0.455   0.131  1.2238  1.0529 -0.8372
   94DMF     H3 1613   2.707   0.395   0.083 -0.0848  1.5080 -0.6479
   94DMF     H4 1614   2.610   0.076  -0.068  0.5350 -1.3462  0.2982
   94DMF     H5 1615   2.608   0.052   0.101  1.5657  1.5223  2.4403
   94DMF     H6 1616   2.742   0.149   0.037 -1.3380  1.4328  3.0659
   94DMF     H7 1617   2.374   0.166  -0.029  0.9497 -0.5108 -0.5000
   95DMF     C1 1618   0.342   0.741   1.164 -0.1290  0.2943 -0.1128
   95DMF     N1 1619   0.330   0.861   1.254 -0.1577  0.2945 -0.3635
   95DMF     C2 1620   0.288   0.987   1.191 -0.6746 -1.0745  0.3655
   95DMF     C3 1621   0.343   0.854   1.397  0.1910 -0.2471  0.0293
   95DMF     O1 1622   0.361   0.754   1.453  0.1321  0.4669  0.1416
   95DMF     H1 1623   0.353   0.779   1.062  0.5471  0.0362 -0.1413
   95DMF     H2 1624   0.254   0.676   1.154  0.5702 -0.1599 -3.8999
   95DMF     H3 1625   0.431   0.681   1.189  0.0046  1.2520  1.7773
   95DMF     H4 1626   0.298   0.979   1.082  0.2914 -1.2745  0.4624
   95DMF     H5 1627   0.342   1.071   1.235 -0.4407 -1.4504  0.8038
   95DMF     H6 1628   0.185   1.008   1.223 -0.0494  0.9107  1.0789
   95DMF     H7 1629   0.326   0.951   1.446 -1.5852  0.2746 -1.5544
   96DMF     C1 1630   1.629   2.890   1.109 -0.0714  0.4707 -0.3807
   96DMF     N1 1631   1.780   2.900   1.138  0.2896  0.0121  0.2421
   96DMF     C2 1632   1.874   2.923   1.028  0.8576  0.3948  0.3702
   96DMF     C3 1633   1.823   2.890   1.265  0.5581 -0.2898 -0.1786
   96DMF     O1 1634   1.747   2.874   1.360 -0.1728  0.4227 -0.1081
   96DMF     H1 1635   1.603   2.841   1.014  1.4764  1.0564 -1.1317
   96DMF     H2 1636   1.586   2.990   1.096  0.8417  0.8401 -0.5914
   96DMF     H3 1637   1.582   2.833   1.190  1.9355 -0.2520  0.3145
   96DMF     H4 1638   1.943   2.838   1.018 -2.2069 -2.1318 -0.3852
   96DMF     H5 1639   1.914   3.024   1.041 -1.3609  1.3706 -0.0053
   96DMF     H6 1640   1.817   2.913   0.935  1.9349 -0.5238 -0.2053
   96DMF     H7 1641   1.932   2.904   1.275  0.2583  1.9058  0.1273
   97DMF     C1 1642   0.036   0.985   1.527 -0.4119  0.4980  0.4194
   97DMF     N1 1643  -0.065   0.878   1.558 -0.2096  0.0171  0.0980
   97DMF     C2 1644  -0.010   0.739   1.569  0.0009 -0.1478  0.5355
   97DMF     C3 1645  -0.205   0.906   1.547 -0.0338 -0.1644  0.2744
   97DMF     O1 1646  -0.248   1.019   1.536  0.2427 -0.4276 -0.0558
   97DMF     H1 1647   0.012   1.076   1.583  1.2617  1.1432  0.1086
   97DMF     H2 1648   0.022   1.008   1.421 -2.3648 -0.1517  0.5062
   97DMF     H3 1649   0.138   0.950   1.548 -0.2333 -0.4337 -1.8373
   97DMF     H4 1650  -0.077   0.671   1.623 -1.1221  0.9113  0.4990
   97DMF     H5 1651   0.078   0.751   1.634  1.0265  0.9529 -1.0185
   97DMF     H6 1652   0.027   0.701   1.473  1.2709 -0.6753  1.2169
   97DMF     H7 1653  -0.267   0.814   1.539 -1.8727  1.1880 -1.5180
   98DMF     C1 1654   0.990   2.359   1.544  0.6815  0.1337 -0.1926
   98DMF     N1 1655   1.120   2.431   1.551 -0.0216 -0.2256 -0.2524
   98DMF     C2 1656   1.137   2.569   1.504  0.5574 -0.0788  0.6818
   98DMF     C3 1657   1.242   2.356   1.568 -0.5476  0.8360 -0.0263
   98DMF     O1 1658   1.245   2.232   1.589  0.2482 -0.4407 -0.0741
   98DMF     H1 1659   1.000   2.276   1.615  1.5959  0.6225  0.2620
   98DMF     H2 1660   0.970   2.322   1.442  1.7476 -1.0513  0.0163
   98DMF     H3 1661   0.911   2.427   1.578 -0.1830 -0.3599 -1.1588
   98DMF     H4 1662   1.201   2.577   1.414 -1.4350  1.3173 -0.6496
   98DMF     H5 1663   1.192   2.618   1.585  1.3181 -1.5726  1.0954
   98DMF     H6 1664   1.037   2.613   1.494  1.1075  1.7269  2.8572
   98DMF     H7 1665   1.337   2.414   1.563  1.3995 -2.1966  0.6984
   99DMF     C1 1666   2.759   0.827   1.539 -0.4064 -0.1428  0.1381
   99DMF     N1 1667   2.731   0.824   1.388 -0.3787 -0.5324 -0.5163
   99DMF     C2 1668   2.843   0.800   1.295 -0.5949  0.0351  0.1463
   99DMF     C3 1669   2.602   0.855   1.336 -0.0689 -0.1532 -0.4248
   99DMF     O1 1670   2.507   0.898   1.391  0.3796 -0.6692  0.3180
   99DMF     H1 1671   2.752   0.730   1.588  1.3403  0.1807  1.0796
   99DMF     H2 1672   2.687   0.888   1.595 -0.5788 -1.0147  0.8702
   99DMF     H3 1673   2.857   0.875   1.550 -1.5167  2.3534 -0.4203
   99DMF     H4 1674   2.861   0.892   1.238 -0.1187 -0.6971 -0.9244
   99DMF     H5 1675   2.826   0.714   1.228  1.3426 -0.8014  0.6869
   99DMF     H6 1676   2.937   0.787   1.350 -0.4352  0.6916  0.0364
   99DMF     H7 1677   2.603   0.843   1.226  1.2208 -2.3588 -0.2100
  100DMF     C1 1678   3.335   3.253   2.592 -0.3087  0.3267 -0.3119
  100DMF     N1 1679   3.251   3.151   2.658 -0.4773  0.0592  0.6053
  100DMF     C2 1680   3.229   3.157   2.805 -0.3702  0.5991 -0.0841
  100DMF     C3 1681   3.175   3.064   2.576 -0.9785 -0.2285  0.6539
  100DMF     O1 1682   3.192   3.048   2.458  0.5973 -0.3861  0.8680
  100DMF     H1 1683   3.278   3.318   2.524  0.2369 -0.6203 -1.7169
  100DMF     H2 1684   3.412   3.196   2.538 -2.3153 -2.0370 -0.7821
  100DMF     H3 1685   3.400   3.312   2.658  0.9196  0.0139 -1.2088
  100DMF     H4 1686   3.187   3.252   2.839  0.7632  0.6362  1.2210
  100DMF     H5 1687   3.317   3.128   2.863  0.4320  1.5071 -0.8349
  100DMF     H6 1688   3.161   3.075   2.832 -0.6981  1.0704  0.5357
  100DMF     H7 1689   3.096   3.018   2.638 -1.9533  3.0189  1.9333
  101DMF     C1 1690   1.047   1.256   1.163  0.3770 -0.2950 -0.6720
  101DMF     N1 1691   1.043   1.104   1.154  0.3477  0.4126 -0.1396
  101DMF     C2 1692   0.924   1.029   1.198 -0.0177  0.2138  0.0248
  101DMF     C3 1693   1.154   1.034   1.112  0.1672  0.4702  0.3012
  101DMF     O1 1694   1.259   1.089   1.097 -0.1013  0.0875  0.6513
  101DMF     H1 1695   1.110   1.298   1.085 -0.3556  1.3790 -0.3798
  101DMF     H2 1696   1.088   1.285   1.261 -3.3048  2.7227  0.0923
  101DMF     H3 1697   0.943   1.293   1.161  0.0036 -0.9894  2.5324
  101DMF     H4 1698   0.896   1.054   1.302 -0.0922 -0.8641  0.2695
  101DMF     H5 1699   0.948   0.922   1.202  1.6342  0.5865  0.5500
  101DMF     H6 1700   0.843   1.052   1.128  1.0634  2.4114 -0.5726
  101DMF     H7 1701   1.129   0.926   1.107 -1.2223  0.7314  1.4413
  102DMF     C1 1702   2.487   1.504   1.212 -0.3203  0.0457  0.4897
  102DMF     N1 1703   2.374   1.577   1.171  0.4438  0.3507 -0.2347
  102DMF     C2 1704   2.352   1.703   1.242  0.0105 -0.1360  0.1563
  102DMF     C3 1705   2.319   1.556   1.046 -0.3552 -0.0128 -1.0286
  102DMF     O1 1706   2.356   1.465   0.975 -0.3767 -0.2021  0.2871
  102DMF     H1 1707   2.543   1.475   1.122 -0.3609  1.6518 -0.0657
  102DMF     H2 1708   2.456   1.412   1.262 -0.1077 -0.1834  0.2033
  102DMF     H3 1709   2.551   1.564   1.278 -1.2758 -0.8243  2.2242
  102DMF     H4 1710   2.249   1.700   1.278  0.4440  1.3919  1.5626
  102DMF     H5 1711   2.379   1.793   1.187  2.7812  0.0039  1.6306
  102DMF     H6 1712   2.412   1.709   1.334 -0.6389 -1.4432  0.6939
  102DMF     H7 1713   2.251   1.633   1.006  1.2450  0.9903 -1.8481
  103DMF     C1 1714   2.183   2.752   1.539  0.0599 -0.1003  0.2085
  103DMF     N1 1715   2.326   2.787   1.532 -0.0368  0.8730  0.2739
  103DMF     C2 1716   2.369   2.922   1.519 -0.1080 -0.5321  0.2022
  103DMF     C3 1717   2.424   2.687   1.557  0.4888 -0.3194 -0.6090
  103DMF     O1 1718   2.382   2.572   1.562 -0.0097 -0.3579 -0.5295
  103DMF     H1 1719   2.138   2.791   1.447  2.4680 -1.1660 -1.5008
  103DMF     H2 1720   2.135   2.806   1.621 -0.1850  1.1276 -0.7326
  103DMF     H3 1721   2.169   2.645   1.561  2.9089 -0.5402  0.0654
  103DMF     H4 1722   2.395   2.963   1.617  0.2310  1.2441 -0.6020
  103DMF     H5 1723   2.292   2.989   1.478  1.5588  0.6807 -0.9872
  103DMF     H6 1724   2.453   2.938   1.451  1.8046 -0.7606  2.4549
  103DMF     H7 1725   2.525   2.727   1.579 -0.2820  1.0714  0.5191
  104DMF     C1 1726   2.057   2.316   3.396  0.4726  0.1170  0.6500
  104DMF     N1 1727   1.999   2.424   3.306  0.4610 -0.2165 -0.1986
  104DMF     C2 1728   1.894   2.394   3.205 -0.0202  0.2254 -0.1044
  104DMF     C3 1729   2.075   2.536   3.285  0.0046  0.4987  0.4470
  104DMF     O1 1730   2.176   2.559   3.346  0.3780 -0.7359  0.5019
  104DMF     H1 1731   2.146   2.278   3.346 -0.3685  0.7628 -1.3702
  104DMF     H2 1732   1.984   2.236   3.415  1.3940 -0.8173  0.2629
  104DMF     H3 1733   2.086   2.355   3.495  0.3127  0.2454  0.6454
  104DMF     H4 1734   1.871   2.479   3.140 -0.3866 -0.7828 -1.3154
  104DMF     H5 1735   1.800   2.374   3.259 -0.2848 -1.4699 -1.1510
  104DMF     H6 1736   1.914   2.300   3.153  2.5861  1.2447 -1.0342
  104DMF     H7 1737   2.033   2.598   3.204  0.9208  0.5561  0.0097
  105DMF     C1 1738   1.378   1.525   1.253  0.1565  0.0270 -0.5566
  105DMF     N1 1739   1.430   1.480   1.374  0.4124  0.4430 -0.2669
  105DMF     C2 1740   1.559   1.416   1.379  0.0361 -0.1747  0.1940
  105DMF     C3 1741   1.348   1.463   1.489  0.1703  1.0977  0.4498
  105DMF     O1 1742   1.238   1.506   1.503 -0.2815  0.1896  0.6057
  105DMF     H1 1743   1.341   1.627   1.268  0.3115 -0.0210  0.1839
  105DMF     H2 1744   1.289   1.466   1.227  0.3615 -0.2287 -0.6790
  105DMF     H3 1745   1.447   1.512   1.169  1.2916  1.8340  0.0628
  105DMF     H4 1746   1.582   1.360   1.471  1.0042 -1.4087 -0.7747
  105DMF     H5 1747   1.629   1.498   1.360 -1.2199  1.0209  0.6769
  105DMF     H6 1748   1.581   1.352   1.292 -0.5984 -0.9349  0.5787
  105DMF     H7 1749   1.394   1.405   1.571 -0.0604 -0.4521 -0.4857
  106DMF     C1 1750   0.815   1.867   2.634 -0.5029  0.1620  1.0404
  106DMF     N1 1751   0.946   1.921   2.607  0.0460  0.5376  0.5550
  106DMF     C2 1752   0.962   2.069   2.641 -0.3264  0.3445  0.2252
  106DMF     C3 1753   1.045   1.850   2.542  0.1441 -0.2935  0.0621
  106DMF     O1 1754   1.035   1.728   2.521  0.3024  0.2786  0.3248
  106DMF     H1 1755   0.762   1.836   2.543  0.5808  1.5319 -0.0656
  106DMF     H2 1756   0.751   1.944   2.678 -1.1541  2.1849 -3.2480
  106DMF     H3 1757   0.824   1.782   2.704  0.2206  0.5117  1.3786
  106DMF     H4 1758   0.897   2.132   2.579  1.2446  1.6460 -0.1269
  106DMF     H5 1759   1.068   2.092   2.629 -0.2743  0.2970  0.5960
  106DMF     H6 1760   0.930   2.079   2.745 -0.1825 -2.0694  0.5491
  106DMF     H7 1761   1.121   1.917   2.497 -1.0058 -0.9662 -3.0092
  107DMF     C1 1762   2.468   0.007   1.542  0.3262 -0.6448 -0.0406
  107DMF     N1 1763   2.528  -0.098   1.463  0.1154 -0.4346 -0.1911
  107DMF     C2 1764   2.612  -0.191   1.540 -0.2353 -0.5675  0.2221
  107DMF     C3 1765   2.488  -0.129   1.330 -0.5776 -0.0347  0.4538
  107DMF     O1 1766   2.406  -0.063   1.271  0.7010 -0.1839 -0.0347
  107DMF     H1 1767   2.537   0.021   1.627  1.1463 -0.6143 -0.7039
  107DMF     H2 1768   2.376  -0.029   1.589 -0.1558  2.3082  1.4160
  107DMF     H3 1769   2.461   0.108   1.501 -0.7551 -0.8501 -0.3547
  107DMF     H4 1770   2.718  -0.169   1.526 -0.1146 -1.4367 -0.3030
  107DMF     H5 1771   2.591  -0.296   1.516 -1.3841 -0.5817  1.2583
  107DMF     H6 1772   2.592  -0.179   1.647 -1.2632 -0.0981 -0.0192
  107DMF     H7 1773   2.526  -0.227   1.298 -2.0944 -0.8833  1.1848
  108DMF     C1 1774   2.475   1.575   0.575  0.8011  0.1944 -0.1594
  108DMF     N1 1775   2.516   1.477   0.472 -0.0963  0.2746 -0.4104
  108DMF     C2 1776   2.627   1.398   0.511 -0.0514  0.0475 -0.3614
  108DMF     C3 1777   2.480   1.504   0.338  0.2570 -0.2953 -0.2813
  108DMF     O1 1778   2.391   1.578   0.303 -0.5598  0.0352  0.5870
  108DMF     H1 1779   2.552   1.653   0.579  0.5102  0.4826 -0.0944
  108DMF     H2 1780   2.475   1.526   0.673 -2.8852 -0.6953 -0.5267
  108DMF     H3 1781   2.378   1.622   0.552 -0.7161 -1.6385  2.2472
  108DMF     H4 1782   2.606   1.340   0.601  0.3378  0.5738  0.0747
  108DMF     H5 1783   2.711   1.462   0.539 -1.1743  2.0592 -1.4634
  108DMF     H6 1784   2.642   1.324   0.432  0.3053  1.6239 -1.8073
  108DMF     H7 1785   2.539   1.443   0.267  0.2859  0.5456 -0.9940
  109DMF     C1 1786   1.145   0.853   1.421 -0.3618 -0.2581 -0.1623
  109DMF     N1 1787   1.248   0.748   1.400 -0.2553  0.2506  0.2642
  109DMF     C2 1788   1.340   0.724   1.512  0.3095 -0.5537 -0.7037
  109DMF     C3 1789   1.232   0.650   1.301  0.0068 -0.2178  0.0164
  109DMF     O1 1790   1.138   0.649   1.225 -0.1469  0.4215  0.0462
  109DMF     H1 1791   1.141   0.869   1.530 -0.8484 -0.3745 -0.1643
  109DMF     H2 1792   1.048   0.821   1.381 -1.2106  1.0925  0.7641
  109DMF     H3 1793   1.180   0.943   1.369 -2.1953  0.7281  0.2841
  109DMF     H4 1794   1.277   0.668   1.582  0.6732  0.0265  0.1021
  109DMF     H5 1795   1.368   0.826   1.542 -2.4041  0.0309 -0.0520
  109DMF     H6 1796   1.426   0.669   1.472  0.9652 -1.5123  1.9042
  109DMF     H7 1797   1.299   0.564   1.319 -2.7040 -2.4293 -0.0700
  110DMF     C1 1798   1.018   2.800   0.872 -0.5450 -0.0771  1.1975
  110DMF     N1 1799   1.032   2.678   0.954  0.0534  0.7150 -0.3795
  110DMF     C2 1800   1.151   2.592   0.926  0.3637  0.1371  0.1533
  110DMF     C3 1801   0.951   2.658   1.059  0.4408 -0.3711  0.2176
  110DMF     O1 1802   0.856   2.732   1.084  0.3059  0.1728  0.2396
  110DMF     H1 1803   0.924   2.785   0.818 -0.8992  0.2257  1.7352
  110DMF     H2 1804   1.107   2.811   0.809 -1.4593 -0.5686 -0.1875
  110DMF     H3 1805   1.012   2.895   0.926  1.5463  0.0862  1.1857
  110DMF     H4 1806   1.242   2.647   0.953  0.2231  0.5580 -0.2197
  110DMF     H5 1807   1.172   2.566   0.822 -0.3580 -0.6504  0.2021
  110DMF     H6 1808   1.169   2.508   0.994 -1.5917 -1.0783 -0.7747
  110DMF     H7 1809   0.985   2.571   1.119  2.2595 -0.1548 -0.4788
  111DMF     C1 1810   1.215   0.137   3.614  0.4247 -0.0216  0.2819
  111DMF     N1 1811   1.102   0.083   3.530  0.0151  0.2277  0.3118
  111DMF     C2 1812   1.069  -0.056   3.541 -0.1591  1.2544  0.0089
  111DMF     C3 1813   0.999   0.169   3.481 -0.8970  0.6889 -0.3293
  111DMF     O1 1814   1.011   0.291   3.469 -0.5039  0.1060 -0.0773
  111DMF     H1 1815   1.290   0.058   3.628 -2.7880 -3.0999  0.8527
  111DMF     H2 1816   1.181   0.145   3.718  3.0824 -0.5746  1.2398
  111DMF     H3 1817   1.258   0.230   3.574 -0.7243 -0.1154 -1.1789
  111DMF     H4 1818   1.053  -0.091   3.644 -2.9925 -0.8496 -1.0983
  111DMF     H5 1819   1.143  -0.117   3.488 -0.5352 -0.2711  1.2026
  111DMF     H6 1820   0.977  -0.072   3.485  0.6039  0.5061 -1.0377
  111DMF     H7 1821   0.902   0.119   3.467 -0.3809 -0.7449  0.9820
  112DMF     C1 1822   2.711   2.971   1.296  0.2183 -0.9917  0.0267
  112DMF     N1 1823   2.748   2.833   1.329  0.7561 -0.0883 -0.8227
  112DMF     C2 1824   2.760   2.739   1.220 -0.6750  0.2256 -0.0092
  112DMF     C3 1825   2.759   2.790   1.465 -0.1825 -0.0871 -0.5764
  112DMF     O1 1826   2.728   2.849   1.562  0.2956 -0.0881 -0.1644
  112DMF     H1 1827   2.695   2.994   1.190 -0.0064 -0.8435  0.0935
  112DMF     H2 1828   2.775   3.047   1.342  1.1454 -0.8943 -1.3810
  112DMF     H3 1829   2.615   2.991   1.345  1.2055 -0.1854  1.6628
  112DMF     H4 1830   2.671   2.721   1.158 -0.0834 -0.0292 -0.7961
  112DMF     H5 1831   2.801   2.644   1.257  1.8539  1.6184  0.8689
  112DMF     H6 1832   2.830   2.780   1.146  0.2917 -0.0795  0.7121
  112DMF     H7 1833   2.797   2.687   1.472  1.9360  0.7038 -0.0303
  113DMF     C1 1834   1.316   2.230   1.244 -0.3770  0.1009 -0.1906
  113DMF     N1 1835   1.207   2.174   1.170  0.2893  0.4724 -0.2896
  113DMF     C2 1836   1.199   2.033   1.147  0.0312 -0.0720  0.5996
  113DMF     C3 1837   1.084   2.244   1.169 -0.5131  0.3783 -0.0350
  113DMF     O1 1838   1.070   2.362   1.196 -0.1154 -0.4659  0.3630
  113DMF     H1 1839   1.308   2.212   1.352  0.4575 -1.0105 -0.3156
  113DMF     H2 1840   1.310   2.339   1.235  0.1194  0.1451  0.0185
  113DMF     H3 1841   1.412   2.201   1.201  0.4670  0.8669  1.1362
  113DMF     H4 1842   1.100   1.999   1.180  0.4924 -0.6998  1.3488
  113DMF     H5 1843   1.271   1.979   1.208 -1.7037 -2.4055  0.6572
  113DMF     H6 1844   1.212   1.995   1.045  1.2755 -0.0453  0.7496
  113DMF     H7 1845   1.001   2.178   1.141  0.3703 -0.1614 -1.4564
  114DMF     C1 1846   2.476   0.415   1.553 -0.2520  0.3009 -0.3766
  114DMF     N1 1847   2.378   0.426   1.436  0.0510 -0.0904  0.7100
  114DMF     C2 1848   2.256   0.352   1.454 -0.5674  0.4242 -0.3801
  114DMF     C3 1849   2.424   0.464   1.307 -0.6896  0.3548 -0.5016
  114DMF     O1 1850   2.535   0.509   1.291  0.0893  0.5080 -0.7854
  114DMF     H1 1851   2.503   0.518   1.577 -1.0669  0.2814  0.6860
  114DMF     H2 1852   2.571   0.364   1.535 -2.2482 -3.6872 -0.3942
  114DMF     H3 1853   2.425   0.361   1.635 -0.6307 -0.6000 -1.1865
  114DMF     H4 1854   2.200   0.345   1.360  0.4931 -1.5191 -0.9075
  114DMF     H5 1855   2.209   0.424   1.522  0.3828  2.1455 -1.5259
  114DMF     H6 1856   2.264   0.254   1.504  0.6910  1.7803  2.1686
  114DMF     H7 1857   2.346   0.461   1.229 -1.3531  1.9207  0.0777
  115DMF     C1 1858   1.486   1.784   1.446 -0.2885  0.6238  0.1923
  115DMF     N1 1859   1.565   1.889   1.510  0.2628  0.2768 -1.1408
  115DMF     C2 1860   1.498   2.010   1.563 -0.6614  0.1766 -0.5856
  115DMF     C3 1861   1.702   1.857   1.556 -0.3583  0.1109 -0.3681
  115DMF     O1 1862   1.748   1.750   1.538  0.0234  0.2150 -0.1680
  115DMF     H1 1863   1.553   1.698   1.429  2.4873  2.9200 -0.9928
  115DMF     H2 1864   1.437   1.814   1.353  1.5688  3.0355 -0.0680
  115DMF     H3 1865   1.406   1.756   1.516 -1.0460  1.6784 -0.2544
  115DMF     H4 1866   1.572   2.078   1.607  0.8948  0.1992 -3.1539
  115DMF     H5 1867   1.419   1.973   1.630 -0.9200  0.4774 -0.7276
  115DMF     H6 1868   1.448   2.068   1.485  0.1461 -0.0650 -1.2934
  115DMF     H7 1869   1.737   1.933   1.629  1.9962  0.2963 -1.6470
  116DMF     C1 1870   0.539   3.004   0.851  0.2900 -0.7004  0.2667
  116DMF     N1 1871   0.566   3.131   0.925  0.2154 -0.3812  0.2302
  116DMF     C2 1872   0.472   3.182   1.018 -0.4184  0.4200 -0.4132
  116DMF     C3 1873   0.674   3.208   0.886 -0.2180 -1.1810 -0.1302
  116DMF     O1 1874   0.763   3.156   0.819  0.2875 -0.4342 -0.6328
  116DMF     H1 1875   0.583   2.920   0.907 -1.3635 -1.4990  0.3953
  116DMF     H2 1876   0.581   3.002   0.750 -0.4143  0.3101 -0.0572
  116DMF     H3 1877   0.432   2.981   0.849  0.0100  0.3215  2.0975
  116DMF     H4 1878   0.475   3.122   1.110 -2.7284 -0.1568 -0.6836
  116DMF     H5 1879   0.377   3.178   0.963  0.1510  1.2922 -1.4661
  116DMF     H6 1880   0.489   3.288   1.040 -0.2334  0.0655  1.2286
  116DMF     H7 1881   0.675   3.315   0.914 -1.6058 -1.4646  1.0482
  117DMF     C1 1882   2.826   0.225   0.895 -0.4507  0.7217  0.2775
  117DMF     N1 1883   2.784   0.242   1.033 -0.7879 -0.2029 -0.8447
  117DMF     C2 1884   2.675   0.161   1.084  0.0161  0.0740 -0.0515
  117DMF     C3 1885   2.821   0.352   1.105 -0.5085 -0.4472 -0.0635
  117DMF     O1 1886   2.890   0.441   1.055  0.2121 -0.1539  0.3810
  117DMF     H1 1887   2.866   0.319   0.855 -2.6548  0.8049 -1.8321
  117DMF     H2 1888   2.739   0.188   0.839 -0.2214  0.5326  0.0440
  117DMF     H3 1889   2.907   0.150   0.899 -0.2790  0.7390 -1.9041
  117DMF     H4 1890   2.590   0.227   1.064  0.4152 -0.2331 -2.9325
  117DMF     H5 1891   2.692   0.136   1.189  1.5035  0.1121 -0.2741
  117DMF     H6 1892   2.669   0.067   1.028 -0.6944  0.4056 -0.5386
  117DMF     H7 1893   2.791   0.358   1.211 -2.0595  5.4015 -0.6472
  118DMF     C1 1894   2.685   1.673   0.884  0.5077 -0.9422 -0.1657
  118DMF     N1 1895   2.757   1.800   0.908  0.0178 -0.2218 -0.1567
  118DMF     C2 1896   2.826   1.871   0.794  0.6525  0.3346  0.1150
  118DMF     C3 1897   2.754   1.856   1.037  0.6189  0.1443 -0.1605
  118DMF     O1 1898   2.702   1.793   1.136  0.2120  0.7612 -0.1256
  118DMF     H1 1899   2.649   1.658   0.781 -0.2597 -0.4849  0.0366
  118DMF     H2 1900   2.606   1.661   0.959  1.1729 -0.3762  0.6301
  118DMF     H3 1901   2.763   1.595   0.892  0.3340 -1.5238 -3.5012
  118DMF     H4 1902   2.771   1.962   0.766 -2.7374 -1.9100 -0.8966
  118DMF     H5 1903   2.828   1.801   0.709  1.5784  0.7539 -0.2153
  118DMF     H6 1904   2.932   1.890   0.809  0.4691  1.1994  0.3249
  118DMF     H7 1905   2.807   1.952   1.052  1.6813 -0.4941  0.2140
  119DMF     C1 1906   1.520   2.424   0.898  0.7382  0.7103  0.2611
  119DMF     N1 1907   1.598   2.552   0.921  0.3533 -0.3062  0.1378
  119DMF     C2 1908   1.674   2.572   1.039 -0.0870  0.2082  0.1840
  119DMF     C3 1909   1.598   2.643   0.817  1.0222 -0.2684  0.1976
  119DMF     O1 1910   1.516   2.633   0.723  0.8572  0.1470  0.0771
  119DMF     H1 1911   1.422   2.440   0.945  0.5541  0.7372 -0.1268
  119DMF     H2 1912   1.563   2.337   0.947 -0.0392  0.0708 -0.1819
  119DMF     H3 1913   1.500   2.400   0.793  0.1120  1.7166  0.1387
  119DMF     H4 1914   1.616   2.625   1.115  0.3947 -0.1062  0.7805
  119DMF     H5 1915   1.772   2.621   1.028  0.0175 -0.0912 -0.2617
  119DMF     H6 1916   1.691   2.473   1.083 -1.3022  0.4283  1.1693
  119DMF     H7 1917   1.670   2.725   0.836 -0.0355  1.0491 -1.3836
  120DMF     C1 1918   0.137   1.070   0.527 -0.5425  0.2194  0.0838
  120DMF     N1 1919   0.282   1.095   0.489 -0.1886  0.6783  0.0068
  120DMF     C2 1920   0.362   1.163   0.592  0.3991  0.2511 -0.0755
  120DMF     C3 1921   0.338   1.068   0.363  0.0270  0.0003 -0.5192
  120DMF     O1 1922   0.275   1.016   0.274  0.3828  0.0668 -0.4707
  120DMF     H1 1923   0.126   0.961   0.529 -1.4500  0.2835 -1.0615
  120DMF     H2 1924   0.078   1.117   0.447 -0.1554  0.6109  0.0270
  120DMF     H3 1925   0.109   1.114   0.623  2.6607 -1.3801  1.8492
  120DMF     H4 1926   0.313   1.142   0.688 -2.4016  0.9365 -1.3028
  120DMF     H5 1927   0.372   1.271   0.575 -2.2313  0.5331  0.0533
  120DMF     H6 1928   0.461   1.115   0.596  0.3259  0.0073 -0.9057
  120DMF     H7 1929   0.444   1.101   0.365 -0.4837  1.6216  0.7163
  121DMF     C1 1930   0.261   1.661   0.381  0.9404 -0.0149  0.3776
  121DMF     N1 1931   0.361   1.628   0.480 -0.6518 -0.2314  0.1829
  121DMF     C2 1932   0.390   1.716   0.596  0.0001 -0.0299  0.0790
  121DMF     C3 1933   0.429   1.505   0.473  0.9865  0.0554 -0.3274
  121DMF     O1 1934   0.411   1.431   0.377 -0.1344  0.0978 -0.7060
  121DMF     H1 1935   0.239   1.769   0.377  0.8155 -0.0934 -1.1081
  121DMF     H2 1936   0.169   1.603   0.390  0.7627  0.2283  0.1294
  121DMF     H3 1937   0.289   1.635   0.278 -1.4589  0.8483 -0.5218
  121DMF     H4 1938   0.412   1.660   0.688 -1.0824  0.5648  0.7197
  121DMF     H5 1939   0.301   1.774   0.623 -1.5475 -1.5815 -1.5844
  121DMF     H6 1940   0.477   1.782   0.582  0.5756 -0.8154 -0.0659
  121DMF     H7 1941   0.488   1.480   0.563 -0.6649  2.7173  1.5357
  122DMF     C1 1942   0.848   1.773   1.473  0.3668 -0.3013  0.6704
  122DMF     N1 1943   0.953   1.867   1.524  0.6874 -0.9015  0.7345
  122DMF     C2 1944   1.090   1.816   1.526 -0.9342  0.0511  0.0415
  122DMF     C3 1945   0.926   1.997   1.569  0.0693  0.4585 -0.2370
  122DMF     O1 1946   0.811   2.046   1.579 -0.0908  0.2372  0.6886
  122DMF     H1 1947   0.846   1.788   1.365 -0.6089 -0.6504  0.6383
  122DMF     H2 1948   0.750   1.812   1.503  0.1814  1.3407 -1.9503
  122DMF     H3 1949   0.870   1.670   1.505 -1.2878 -0.5379  1.1039
  122DMF     H4 1950   1.162   1.883   1.576  0.4900 -0.8979 -0.6872
  122DMF     H5 1951   1.123   1.806   1.422  1.4732 -3.2651  1.0634
  122DMF     H6 1952   1.102   1.717   1.570  1.9170 -0.5100 -1.8502
  122DMF     H7 1953   1.018   2.049   1.601  0.2176  0.5522 -0.8032
  123DMF     C1 1954  -0.000   0.557   0.314 -0.3156 -0.3639  0.0577
  123DMF     N1 1955   0.037   0.693   0.258  0.2590 -0.7279 -0.3668
  123DMF     C2 1956   0.159   0.709   0.182 -1.0242 -0.3264 -0.0833
  123DMF     C3 1957  -0.024   0.814   0.296  0.7076 -0.3398 -1.4790
  123DMF     O1 1958  -0.127   0.821   0.363 -0.2701  0.2295  0.0142
  123DMF     H1 1959  -0.007   0.488   0.229  0.0172 -0.3716  0.0386
  123DMF     H2 1960  -0.103   0.561   0.352 -0.7699 -2.7159 -0.8521
  123DMF     H3 1961   0.073   0.527   0.390  1.1714  2.3723 -0.2385
  123DMF     H4 1962   0.238   0.748   0.247  0.5799  0.7342 -2.5983
  123DMF     H5 1963   0.129   0.784   0.107 -2.9954 -0.2992  0.7040
  123DMF     H6 1964   0.193   0.618   0.133 -1.0585 -0.8186  0.7964
  123DMF     H7 1965   0.032   0.903   0.261  0.7605  0.5382  0.7573
  124DMF     C1 1966   3.354   0.123   0.955 -0.5166 -0.7152  0.1631
  124DMF     N1 1967   3.338   0.225   0.845 -0.5944 -0.6635  0.7015
  124DMF     C2 1968   3.212   0.226   0.772 -0.4717  0.3623  0.6018
  124DMF     C3 1969   3.437   0.316   0.809 -0.2482  0.4134  0.1159
  124DMF     O1 1970   3.551   0.315   0.854  0.4085  0.2331 -0.1914
  124DMF     H1 1971   3.454   0.118   0.999 -0.6709 -1.6421  0.4331
  124DMF     H2 1972   3.334   0.026   0.908 -0.3631  0.0495 -1.5137
  124DMF     H3 1973   3.284   0.149   1.035 -1.1169 -0.0622 -0.5697
  124DMF     H4 1974   3.195   0.124   0.736 -1.7822  1.0457 -0.7990
  124DMF     H5 1975   3.216   0.287   0.680  0.0083  1.3722  1.2877
  124DMF     H6 1976   3.129   0.251   0.840  1.0139 -0.3566  2.7300
  124DMF     H7 1977   3.412   0.391   0.732 -1.7882 -1.4396 -1.2690
  125DMF     C1 1978   0.648   0.554   3.479 -0.4282 -0.0092  1.0378
  125DMF     N1 1979   0.534   0.599   3.558 -0.1823  0.2105 -0.6362
  125DMF     C2 1980   0.438   0.697   3.505 -0.2883  0.7715 -0.1000
  125DMF     C3 1981   0.516   0.549   3.684 -0.3150 -0.7341  0.0470
  125DMF     O1 1982   0.602   0.476   3.733 -0.4369  0.0713 -0.0922
  125DMF     H1 1983   0.652   0.596   3.378 -0.9632  1.6346  1.6780
  125DMF     H2 1984   0.658   0.445   3.488  0.5912 -0.0555 -0.4701
  125DMF     H3 1985   0.741   0.589   3.526  0.8533 -1.8943 -0.0388
  125DMF     H4 1986   0.458   0.798   3.543  1.4083  1.4071 -2.5569
  125DMF     H5 1987   0.334   0.666   3.522 -0.6100  2.7783  1.7875
  125DMF     H6 1988   0.463   0.693   3.398  0.6263  0.3438  0.1207
  125DMF     H7 1989   0.420   0.582   3.728  0.0677  1.0206 -0.3784
  126DMF     C1 1990   0.277   2.044   1.552  0.6104 -0.4673 -0.1073
  126DMF     N1 1991   0.377   2.154   1.527  0.9102 -0.0804 -0.0200
  126DMF     C2 1992   0.520   2.132   1.559  0.1571  0.2737 -0.1019
  126DMF     C3 1993   0.326   2.290   1.515  0.1664  0.4203 -0.0637
  126DMF     O1 1994   0.209   2.323   1.495  0.4620  0.7445  0.0420
  126DMF     H1 1995   0.328   1.980   1.625 -0.1731 -1.2182 -0.2233
  126DMF     H2 1996   0.265   1.977   1.467 -1.2521 -1.4734  0.9235
  126DMF     H3 1997   0.182   2.086   1.587  0.6674 -0.9303  0.6057
  126DMF     H4 1998   0.583   2.222   1.556  1.8753 -0.8675  1.1979
  126DMF     H5 1999   0.562   2.055   1.493 -1.7501 -1.3711  0.5592
  126DMF     H6 2000   0.523   2.095   1.662  0.4656  0.8732  0.1036
  126DMF     H7 2001   0.408   2.358   1.545  0.2059 -0.1188  1.0684
  127DMF     C1 2002   0.249   2.491   1.156 -0.2274  0.0732  0.1186
  127DMF     N1 2003   0.132   2.462   1.067  0.3628 -0.2085 -0.0013
  127DMF     C2 2004  -0.004   2.506   1.113 -0.3934  0.3540  0.1272
  127DMF     C3 2005   0.146   2.407   0.939 -0.3178 -0.3508  0.0703
  127DMF     O1 2006   0.254   2.360   0.904 -0.2326  0.3141  0.1214
  127DMF     H1 2007   0.208   2.541   1.244  0.6178 -0.0706  0.5978
  127DMF     H2 2008   0.320   2.556   1.104  0.1077 -0.6465 -0.3341
  127DMF     H3 2009   0.290   2.396   1.194 -1.6632  0.3465  2.4364
  127DMF     H4 2010  -0.044   2.592   1.058 -0.3337  0.3295  0.0457
  127DMF     H5 2011  -0.001   2.534   1.219  0.0234  0.4865  0.0819
  127DMF     H6 2012  -0.071   2.420   1.099  0.8948 -0.6076 -0.2713
  127DMF     H7 2013   0.052   2.392   0.882  0.9985  1.7032 -2.7647
  128DMF     C1 2014   2.006   3.108   1.509  0.4414 -0.2404 -0.2499
  128DMF     N1 2015   2.092   3.193   1.438  0.2205 -0.0116  0.1594
  128DMF     C2 2016   2.120   3.322   1.512 -0.5748  0.1890 -0.3190
  128DMF     C3 2017   2.126   3.184   1.302  1.1890  0.2622  0.3044
  128DMF     O1 2018   2.089   3.092   1.237  0.1564 -0.1866 -1.0046
  128DMF     H1 2019   2.031   3.108   1.616  1.2950  3.0364 -0.3826
  128DMF     H2 2020   2.011   3.006   1.469  0.1076  0.0483 -1.0472
  128DMF     H3 2021   1.906   3.153   1.498  0.6959  0.5028  0.4559
  128DMF     H4 2022   2.032   3.359   1.567 -0.2631 -1.0985  1.0720
  128DMF     H5 2023   2.147   3.403   1.443 -1.3339 -1.0417 -2.1180
  128DMF     H6 2024   2.187   3.306   1.597 -0.3651  3.3116  0.1621
  128DMF     H7 2025   2.182   3.271   1.262  2.3981 -1.3589 -1.6261
  129DMF     C1 2026   1.020   1.899   0.060  0.0919  0.2760 -0.2934
  129DMF     N1 2027   1.086   1.772   0.040 -0.0112  0.0671  0.2285
  129DMF     C2 2028   1.008   1.650   0.069  0.5428 -0.2875  0.5388
  129DMF     C3 2029   1.201   1.760  -0.045  0.6749 -0.0851 -0.1345
  129DMF     O1 2030   1.238   1.858  -0.112 -0.1886  0.2415 -0.1986
  129DMF     H1 2031   0.937   1.889   0.132  1.4537  1.4547  1.4745
  129DMF     H2 2032   0.986   1.944  -0.034  1.5102  0.8272 -0.5417
  129DMF     H3 2033   1.091   1.972   0.101  1.5994 -1.2389 -0.1648
  129DMF     H4 2034   0.905   1.674   0.100  1.0710  2.4550  0.3602
  129DMF     H5 2035   1.070   1.600   0.145  0.5278 -2.5953 -0.9420
  129DMF     H6 2036   1.008   1.590  -0.022 -0.0477  1.1928 -0.4496
  129DMF     H7 2037   1.230   1.653  -0.055  0.7767 -0.1600  0.9234
  130DMF     C1 2038   0.634   3.200   0.268 -0.3375 -0.0783  0.7277
  130DMF     N1 2039   0.627   3.272   0.395  0.1180  0.8249  0.0153
  130DMF     C2 2040   0.610   3.193   0.512 -0.9357  1.0537 -0.4475
  130DMF     C3 2041   0.640   3.416   0.403  0.0952  0.4084  0.6735
  130DMF     O1 2042   0.680   3.480   0.304 -0.5580 -0.3703  0.1082
  130DMF     H1 2043   0.593   3.100   0.285  0.5344 -0.6420 -0.4177
  130DMF     H2 2044   0.738   3.185   0.237 -0.8000  0.4095 -1.1443
  130DMF     H3 2045   0.582   3.262   0.193 -1.1236 -1.4513  0.1306
  130DMF     H4 2046   0.657   3.231   0.603  2.4165 -1.4649 -1.0000
  130DMF     H5 2047   0.663   3.098   0.496 -0.0269  1.6452 -0.9735
  130DMF     H6 2048   0.507   3.184   0.548  0.3746  0.1000  3.3372
  130DMF     H7 2049   0.626   3.463   0.502  2.6593  2.4679  0.1289
  131DMF     C1 2050   1.177   3.371   0.116  0.1047  0.0090 -0.3344
  131DMF     N1 2051   1.066   3.437   0.197 -0.2565 -0.0738 -1.1552
  131DMF     C2 2052   1.038   3.576   0.169 -0.2690 -0.2926 -0.5612
  131DMF     C3 2053   1.003   3.371   0.302  1.0021  0.1753  0.1853
  131DMF     O1 2054   1.011   3.252   0.327 -0.4747 -0.0933 -0.3083
  131DMF     H1 2055   1.133   3.280   0.072 -1.2265 -0.6318  2.2368
  131DMF     H2 2056   1.250   3.329   0.187 -1.0792 -1.1750  0.2128
  131DMF     H3 2057   1.223   3.429   0.036  0.7395 -2.4073 -1.7864
  131DMF     H4 2058   0.971   3.619   0.244  0.0883  0.8547 -0.8767
  131DMF     H5 2059   1.009   3.589   0.064  2.1534 -2.1327 -1.5110
  131DMF     H6 2060   1.128   3.639   0.180 -0.1017 -0.7135  0.5888
  131DMF     H7 2061   0.930   3.429   0.360  0.1442 -0.6096 -0.0906
  132DMF     C1 2062   0.316   3.227   1.299 -0.1269 -0.4045 -0.0752
  132DMF     N1 2063   0.218   3.280   1.403  0.8887  0.9010  0.5911
  132DMF     C2 2064   0.130   3.388   1.359  0.0887 -0.7263 -0.0490
  132DMF     C3 2065   0.236   3.267   1.537 -0.2359  0.0986 -0.3075
  132DMF     O1 2066   0.332   3.216   1.591  0.1678  0.0389 -0.5837
  132DMF     H1 2067   0.410   3.279   1.320  0.3369 -0.9127 -0.8764
  132DMF     H2 2068   0.284   3.254   1.198 -0.4638 -0.0738  0.1196
  132DMF     H3 2069   0.331   3.118   1.305  0.5098 -0.3380 -0.4478
  132DMF     H4 2070   0.092   3.368   1.258  3.5594 -1.1296 -1.3465
  132DMF     H5 2071   0.178   3.486   1.356 -2.0121  0.3091 -0.6343
  132DMF     H6 2072   0.047   3.381   1.430 -0.7058  0.4146 -0.8530
  132DMF     H7 2073   0.164   3.320   1.601 -1.3262 -3.3493  1.4624
  133DMF     C1 2074   1.740   1.147   0.217 -0.4239  0.0707  0.1491
  133DMF     N1 2075   1.819   1.046   0.294  0.4017 -0.1856  0.4509
  133DMF     C2 2076   1.920   0.964   0.221 -0.5093  0.5635 -0.1376
  133DMF     C3 2077   1.804   1.037   0.432  0.0587 -0.2113 -0.0312
  133DMF     O1 2078   1.725   1.108   0.489  0.4097  0.1008 -0.4463
  133DMF     H1 2079   1.783   1.166   0.119 -0.6390  1.2618  0.2842
  133DMF     H2 2080   1.727   1.241   0.272 -0.8354  0.9040 -1.3393
  133DMF     H3 2081   1.640   1.106   0.194 -0.4569 -0.2722  0.8583
  133DMF     H4 2082   1.986   1.037   0.173  0.1398  0.5438  0.7318
  133DMF     H5 2083   1.872   0.892   0.152 -0.4815  1.8264 -1.4958
  133DMF     H6 2084   1.966   0.899   0.296  1.1194  2.5485  0.6151
  133DMF     H7 2085   1.864   0.964   0.488 -1.1558 -0.9188  0.3777
  134DMF     C1 2086   0.729   2.677   1.535  0.0798 -0.0240  0.1145
  134DMF     N1 2087   0.743   2.734   1.400 -0.2057  0.2277 -0.2511
  134DMF     C2 2088   0.835   2.845   1.374  0.6292  0.0757  1.0767
  134DMF     C3 2089   0.652   2.692   1.300  0.4091  0.2864 -0.1892
  134DMF     O1 2090   0.569   2.605   1.324 -0.3428  0.7786  0.1165
  134DMF     H1 2091   0.661   2.592   1.546  1.2354 -1.4245 -3.1065
  134DMF     H2 2092   0.709   2.751   1.614 -1.8523 -2.1189  1.6666
  134DMF     H3 2093   0.821   2.624   1.563 -0.9172 -0.9196  1.8393
  134DMF     H4 2094   0.780   2.921   1.318  2.1859  0.5594  0.1747
  134DMF     H5 2095   0.923   2.805   1.322 -0.2874  0.9729 -1.2373
  134DMF     H6 2096   0.871   2.895   1.465  1.6193  0.4936  0.4748
  134DMF     H7 2097   0.652   2.761   1.214 -1.2960 -0.2750 -0.6705
  135DMF     C1 2098   0.713   0.974   3.490 -0.3194 -0.5906  0.4072
  135DMF     N1 2099   0.726   1.039   3.363 -0.2655 -0.1931 -0.0999
  135DMF     C2 2100   0.772   1.177   3.344  0.5827  0.1627 -0.3616
  135DMF     C3 2101   0.688   0.967   3.250  0.5381 -0.3370  0.1711
  135DMF     O1 2102   0.649   0.852   3.249  0.0828 -0.1423  0.1119
  135DMF     H1 2103   0.606   0.965   3.514 -0.5038 -0.7720 -0.4821
  135DMF     H2 2104   0.757   1.043   3.563 -1.0155 -1.0767  1.2936
  135DMF     H3 2105   0.766   0.878   3.487  1.6802  0.5098 -0.5424
  135DMF     H4 2106   0.705   1.249   3.393 -0.6383 -0.2768 -1.3823
  135DMF     H5 2107   0.786   1.201   3.238  1.2017 -1.5900 -0.6860
  135DMF     H6 2108   0.870   1.198   3.389 -1.3709  3.3864  2.6708
  135DMF     H7 2109   0.711   1.028   3.161 -1.5084  0.1093 -0.0799
  136DMF     C1 2110   1.169   2.930   0.035  0.3532  0.3380  0.4667
  136DMF     N1 2111   1.064   2.963  -0.064  0.1064  0.4827  0.1680
  136DMF     C2 2112   0.934   2.888  -0.059  0.5156 -0.7642 -0.3976
  136DMF     C3 2113   1.084   3.046  -0.170  0.1709 -0.4495  0.1564
  136DMF     O1 2114   1.182   3.113  -0.178 -0.6218 -0.4639 -0.0070
  136DMF     H1 2115   1.269   2.945  -0.009 -0.7009  2.3728 -1.3691
  136DMF     H2 2116   1.164   2.831   0.080  2.1348  0.4627  1.0045
  136DMF     H3 2117   1.153   3.000   0.118  1.7536 -1.2127  2.0732
  136DMF     H4 2118   0.955   2.793  -0.009  2.7671 -0.7846 -1.3057
  136DMF     H5 2119   0.893   2.868  -0.158 -1.7032  0.4923  0.2431
  136DMF     H6 2120   0.862   2.949  -0.003  2.0227  3.2329 -2.5840
  136DMF     H7 2121   1.001   3.052  -0.242 -0.9156  0.9397  1.4863
  137DMF     C1 2122   2.641   2.265   0.673  0.3050 -1.1475  0.1415
  137DMF     N1 2123   2.643   2.336   0.806  0.1802 -0.2035 -1.1811
  137DMF     C2 2124   2.603   2.482   0.808 -0.2506 -0.5060  0.8284
  137DMF     C3 2125   2.683   2.265   0.924  0.0482  0.5678  0.0930
  137DMF     O1 2126   2.724   2.152   0.915  0.3848 -0.1227 -0.0076
  137DMF     H1 2127   2.750   2.258   0.658  0.4215  0.5830  0.0510
  137DMF     H2 2128   2.581   2.335   0.613 -1.4075 -2.8564 -0.1711
  137DMF     H3 2129   2.596   2.166   0.668 -3.0318  0.3718 -1.0468
  137DMF     H4 2130   2.589   2.516   0.911  0.4045  0.8005  0.4974
  137DMF     H5 2131   2.513   2.502   0.749  1.8015  2.4986 -1.4479
  137DMF     H6 2132   2.681   2.537   0.755 -1.0866  2.4050  2.5450
  137DMF     H7 2133   2.673   2.324   1.016 -2.2916  1.2459 -0.5642
  138DMF     C1 2134   2.539   2.658   3.376 -0.1511 -0.0539 -0.1134
  138DMF     N1 2135   2.574   2.518   3.344 -0.3729 -0.3968 -0.2673
  138DMF     C2 2136   2.495   2.413   3.410 -0.0754  0.4588 -0.1250
  138DMF     C3 2137   2.682   2.492   3.256  0.4157  0.9275  0.2912
  138DMF     O1 2138   2.745   2.576   3.196 -0.3384 -0.0338  0.3064
  138DMF     H1 2139   2.459   2.654   3.451 -1.0718 -0.1509 -1.0874
  138DMF     H2 2140   2.501   2.707   3.285 -1.3471  1.2720  1.0871
  138DMF     H3 2141   2.628   2.715   3.405 -0.3420  1.8797 -3.1392
  138DMF     H4 2142   2.399   2.399   3.358 -0.2814 -1.5742  0.7193
  138DMF     H5 2143   2.479   2.431   3.517 -1.1057 -3.2237  0.4342
  138DMF     H6 2144   2.554   2.321   3.402 -1.6570 -0.8892  2.8864
  138DMF     H7 2145   2.710   2.385   3.266 -0.1251  0.7061 -0.4716
  139DMF     C1 2146   2.115   1.922   1.384  0.0971  0.4214 -1.5978
  139DMF     N1 2147   2.181   1.837   1.491  0.3249 -0.0312 -0.0040
  139DMF     C2 2148   2.119   1.713   1.543  0.1417 -0.0893 -0.4170
  139DMF     C3 2149   2.314   1.871   1.536  0.2540 -0.5542 -0.0041
  139DMF     O1 2150   2.366   1.979   1.510  0.2539 -0.0807 -0.3971
  139DMF     H1 2151   2.146   1.891   1.283  0.0718 -2.5108 -0.7653
  139DMF     H2 2152   2.145   2.027   1.393  0.5331  0.1373  0.4758
  139DMF     H3 2153   2.006   1.906   1.385  0.4344 -2.0585 -1.0384
  139DMF     H4 2154   2.203   1.655   1.584  0.4789  0.7492  0.1035
  139DMF     H5 2155   2.062   1.662   1.464  2.8524 -1.7206 -1.3892
  139DMF     H6 2156   2.041   1.733   1.617  0.5577 -2.0651  0.6067
  139DMF     H7 2157   2.364   1.790   1.593  1.3436  0.9027  1.1419
  140DMF     C1 2158   0.157   0.011   0.627 -0.1487 -0.0139  0.5453
  140DMF     N1 2159   0.114  -0.106   0.710  0.0728  0.0957 -0.2752
  140DMF     C2 2160   0.219  -0.171   0.789 -0.2755 -0.4108 -0.5479
  140DMF     C3 2161  -0.013  -0.171   0.697  0.1239 -0.1951  1.5956
  140DMF     O1 2162  -0.098  -0.130   0.613 -0.2821 -0.3275 -0.8676
  140DMF     H1 2163   0.068   0.056   0.580 -0.2991  0.4433  1.2628
  140DMF     H2 2164   0.237   0.003   0.552 -1.3107 -2.1127 -0.5037
  140DMF     H3 2165   0.191   0.089   0.696  0.9128 -0.5608  0.6409
  140DMF     H4 2166   0.225  -0.119   0.886 -0.0336  0.3558 -0.9687
  140DMF     H5 2167   0.321  -0.154   0.752  0.8689  0.0541  2.6196
  140DMF     H6 2168   0.202  -0.278   0.801  0.2512 -0.5829 -1.3338
  140DMF     H7 2169  -0.026  -0.257   0.766  0.1428 -0.0368  1.7983
  141DMF     C1 2170   1.240   1.823   3.381 -0.1507 -0.2683 -0.1270
  141DMF     N1 2171   1.340   1.713   3.382  0.3842 -0.0763 -0.4238
  141DMF     C2 2172   1.463   1.721   3.308  1.0617 -0.2209 -0.1720
  141DMF     C3 2173   1.315   1.589   3.444  0.2875 -0.1536 -0.0910
  141DMF     O1 2174   1.221   1.576   3.521  0.2020 -0.1147 -0.1842
  141DMF     H1 2175   1.208   1.843   3.278 -0.4424  1.3564  0.2618
  141DMF     H2 2176   1.291   1.917   3.408  0.5496  0.3349 -3.3369
  141DMF     H3 2177   1.155   1.807   3.449 -2.3071 -1.8560 -3.1208
  141DMF     H4 2178   1.462   1.660   3.217 -0.4536  0.7811 -0.8348
  141DMF     H5 2179   1.546   1.673   3.362  1.6028 -0.2905 -1.0569
  141DMF     H6 2180   1.482   1.825   3.278 -0.0181 -0.1103 -0.4799
  141DMF     H7 2181   1.382   1.504   3.423 -0.7323 -1.1467  0.6037
  142DMF     C1 2182   2.999   0.571   0.731  0.3531 -0.1869  0.3058
  142DMF     N1 2183   3.073   0.692   0.695  0.0904  0.4462  0.1655
  142DMF     C2 2184   2.999   0.823   0.696 -0.7631 -0.0220  0.3616
  142DMF     C3 2185   3.208   0.688   0.647 -0.3912 -0.6908 -0.5290
  142DMF     O1 2186   3.258   0.583   0.608  0.4501  0.5407 -0.2776
  142DMF     H1 2187   2.973   0.512   0.642  1.5748 -0.3769  0.0729
  142DMF     H2 2188   2.913   0.594   0.796  0.7759  0.0486  0.7869
  142DMF     H3 2189   3.061   0.504   0.792  1.3561  1.7429  1.4668
  142DMF     H4 2190   3.031   0.887   0.779  1.9166  0.6227 -1.0957
  142DMF     H5 2191   2.891   0.809   0.706 -0.7971 -1.5324 -1.7875
  142DMF     H6 2192   3.024   0.883   0.607 -0.9749 -0.7659 -0.2078
  142DMF     H7 2193   3.261   0.785   0.645  1.6101 -1.7744 -2.4655
  143DMF     C1 2194   1.969   1.201   1.335 -0.6990  0.1997  0.2930
  143DMF     N1 2195   1.940   1.340   1.386 -0.5824 -0.3061  0.4901
  143DMF     C2 2196   1.896   1.352   1.533 -0.3055  0.4418 -0.4035
  143DMF     C3 2197   1.905   1.450   1.301  0.5010 -0.2030 -0.0640
  143DMF     O1 2198   1.923   1.459   1.184 -0.2398 -0.4767 -0.2113
  143DMF     H1 2199   1.883   1.137   1.355 -0.2265 -0.3306  0.6530
  143DMF     H2 2200   2.065   1.158   1.366  0.4299  3.4836  1.6614
  143DMF     H3 2201   1.977   1.217   1.226 -1.2583 -0.8553  0.0922
  143DMF     H4 2202   1.790   1.324   1.528  0.2380 -1.5779 -1.1012
  143DMF     H5 2203   1.905   1.451   1.581  2.9324  0.4762 -0.9717
  143DMF     H6 2204   1.944   1.273   1.593  0.8335  0.5655 -1.1272
  143DMF     H7 2205   1.862   1.531   1.364  0.5676  0.5683 -1.0042
  144DMF     C1 2206   1.429   0.418  -0.003 -0.4111  0.1876 -0.0446
  144DMF     N1 2207   1.444   0.372   0.139  0.7491 -0.0083 -0.5978
  144DMF     C2 2208   1.421   0.459   0.251 -0.0797 -0.3874 -0.7370
  144DMF     C3 2209   1.457   0.233   0.160 -0.1386  0.0891 -0.0479
  144DMF     O1 2210   1.458   0.152   0.073  0.0312 -0.5066  0.0769
  144DMF     H1 2211   1.431   0.527  -0.007 -1.0289  0.1784 -0.7397
  144DMF     H2 2212   1.331   0.387  -0.040 -0.7260 -0.3056  1.1873
  144DMF     H3 2213   1.502   0.375  -0.074  1.4907  1.4931  1.0761
  144DMF     H4 2214   1.314   0.481   0.259 -0.1977 -0.5749 -1.6824
  144DMF     H5 2215   1.466   0.559   0.253 -0.9144 -0.0306  0.8934
  144DMF     H6 2216   1.433   0.404   0.345  0.7804  0.1905 -0.5065
  144DMF     H7 2217   1.477   0.194   0.261  1.4857 -1.3908 -0.8931
  145DMF     C1 2218   1.866   2.193   0.879 -0.1279  0.4721  0.1803
  145DMF     N1 2219   1.960   2.296   0.849 -0.2524  0.0034 -0.0139
  145DMF     C2 2220   1.993   2.381   0.963 -0.5898 -0.6868  0.7423
  145DMF     C3 2221   2.015   2.320   0.721 -0.3154 -0.5407 -0.0036
  145DMF     O1 2222   1.995   2.255   0.617  0.3880 -0.4348  0.0589
  145DMF     H1 2223   1.868   2.109   0.808 -2.4201  0.4394  0.1163
  145DMF     H2 2224   1.762   2.222   0.861 -0.3468 -1.7048 -2.3599
  145DMF     H3 2225   1.866   2.149   0.979  2.0815  1.6659  0.7209
  145DMF     H4 2226   2.042   2.328   1.046  1.1539 -0.0830  0.1263
  145DMF     H5 2227   1.904   2.429   1.005  0.4505  0.8216  1.2581
  145DMF     H6 2228   2.059   2.464   0.933  0.0617 -1.5322 -0.2130
  145DMF     H7 2229   2.085   2.405   0.730 -1.2765  0.2292  0.3676
  146DMF     C1 2230   0.728   2.834   0.386 -0.6951 -0.1480  0.3013
  146DMF     N1 2231   0.870   2.864   0.378  0.1177  0.4937  0.8947
  146DMF     C2 2232   0.916   2.972   0.467  0.1757  0.9362  0.3015
  146DMF     C3 2233   0.957   2.783   0.306  0.9851  0.3311 -0.4691
  146DMF     O1 2234   0.917   2.689   0.235 -0.3355  0.3995 -0.3950
  146DMF     H1 2235   0.684   2.871   0.479  0.7513  1.6238  0.3135
  146DMF     H2 2236   0.715   2.725   0.382 -2.5470  0.0224  1.0983
  146DMF     H3 2237   0.679   2.874   0.297 -1.0782 -0.1164  0.5261
  146DMF     H4 2238   1.021   2.994   0.442 -0.5075  2.1021 -1.6290
  146DMF     H5 2239   0.903   2.943   0.572  1.1310  0.9682  0.4393
  146DMF     H6 2240   0.865   3.063   0.433 -0.4581  0.4176 -0.1267
  146DMF     H7 2241   1.063   2.817   0.313  1.6274 -1.9210  1.0008
  147DMF     C1 2242   2.992   3.323   1.250  0.0104  0.2317 -0.5869
  147DMF     N1 2243   3.032   3.407   1.142 -0.5300  0.3959  0.3760
  147DMF     C2 2244   3.021   3.361   0.999  0.4606  0.4717  0.2750
  147DMF     C3 2245   3.055   3.538   1.171 -0.3575  0.0817  0.5920
  147DMF     O1 2246   3.046   3.592   1.282 -0.6487 -0.0367  0.0152
  147DMF     H1 2247   3.081   3.286   1.302 -0.1217 -0.9074 -1.1463
  147DMF     H2 2248   2.947   3.231   1.211  0.4774 -0.5945  0.7880
  147DMF     H3 2249   2.927   3.369   1.324 -1.0896  0.0259 -1.4119
  147DMF     H4 2250   2.925   3.381   0.951 -0.0064  0.5956  1.2466
  147DMF     H5 2251   3.044   3.254   0.998  0.7388  0.5337 -1.6243
  147DMF     H6 2252   3.100   3.401   0.934  0.9207  1.9425  1.6928
  147DMF     H7 2253   3.075   3.600   1.082 -4.1236  0.0008 -0.3833
  148DMF     C1 2254   1.707   0.497   1.001 -0.0741 -0.0685 -0.4177
  148DMF     N1 2255   1.593   0.454   1.085  0.2961  0.1414  0.1120
  148DMF     C2 2256   1.460   0.480   1.041  0.1836 -0.0723 -0.2531
  148DMF     C3 2257   1.614   0.387   1.210 -0.2349 -0.0256  0.2835
  148DMF     O1 2258   1.727   0.358   1.253  0.0906 -0.3403 -0.5160
  148DMF     H1 2259   1.799   0.491   1.060  0.9180  1.0912 -1.8149
  148DMF     H2 2260   1.693   0.598   0.960 -1.7205  0.1951  0.7777
  148DMF     H3 2261   1.711   0.425   0.918 -0.8069  0.6300 -1.0711
  148DMF     H4 2262   1.396   0.419   1.105  2.5907  0.6637  2.9333
  148DMF     H5 2263   1.449   0.452   0.935  1.6696  0.7135 -0.6296
  148DMF     H6 2264   1.439   0.587   1.054  1.2260  0.1059 -0.0313
  148DMF     H7 2265   1.519   0.340   1.242 -0.8665  0.5485 -0.7055
  149DMF     C1 2266   2.007   0.836   1.170  0.1134 -0.5668 -0.2518
  149DMF     N1 2267   1.946   0.706   1.217  0.3927  0.3793 -0.0601
  149DMF     C2 2268   1.802   0.705   1.251 -0.0084  0.6606  0.5113
  149DMF     C3 2269   2.020   0.585   1.205  0.3904  0.1943  0.3320
  149DMF     O1 2270   2.132   0.580   1.157 -0.2760  0.8954  0.2159
  149DMF     H1 2271   2.064   0.870   1.257 -1.3786 -0.7725  0.8340
  149DMF     H2 2272   1.926   0.905   1.141 -0.2060 -0.9646 -0.3184
  149DMF     H3 2273   2.071   0.821   1.083 -0.6566 -0.1074 -0.9036
  149DMF     H4 2274   1.780   0.608   1.296  0.1439  0.2063 -0.3791
  149DMF     H5 2275   1.741   0.745   1.169  1.4126  0.7330 -0.5438
  149DMF     H6 2276   1.791   0.778   1.332 -1.0903 -0.1249  1.0776
  149DMF     H7 2277   1.966   0.492   1.232  2.4195 -0.4879  2.2355
  150DMF     C1 2278   0.319   2.237   0.435 -0.3727  0.5213  0.4691
  150DMF     N1 2279   0.366   2.229   0.577 -0.1570  0.0215 -0.4889
  150DMF     C2 2280   0.367   2.102   0.651  0.3330 -0.3733  0.1769
  150DMF     C3 2281   0.413   2.345   0.639  0.1478  0.4710  0.1480
  150DMF     O1 2282   0.417   2.460   0.587 -0.1322  0.2097 -0.1862
  150DMF     H1 2283   0.366   2.323   0.386  0.9733  0.7546  2.1304
  150DMF     H2 2284   0.213   2.262   0.429  0.2784  3.0726 -1.1360
  150DMF     H3 2285   0.340   2.140   0.387 -1.6174  0.1819  0.6027
  150DMF     H4 2286   0.427   2.091   0.742 -1.5354 -2.2491  1.2491
  150DMF     H5 2287   0.396   2.014   0.593 -0.7266 -0.4631 -0.2245
  150DMF     H6 2288   0.266   2.077   0.687  0.2563  0.7759  0.7825
  150DMF     H7 2289   0.466   2.319   0.733  1.1316 -1.6904 -0.9640
  151DMF     C1 2290   0.756   1.667   1.087  0.0468 -0.6945  0.1959
  151DMF     N1 2291   0.635   1.749   1.072  0.0639  0.0767  0.2799
  151DMF     C2 2292   0.618   1.806   0.933 -0.0349  0.3024  0.5122
  151DMF     C3 2293   0.554   1.789   1.184 -1.1678 -0.2794  0.2371
  151DMF     O1 2294   0.589   1.764   1.303  0.2926 -0.1211  0.2430
  151DMF     H1 2295   0.745   1.601   1.174  2.2920 -1.5231 -0.1143
  151DMF     H2 2296   0.839   1.739   1.090  0.1599 -0.7448 -1.6261
  151DMF     H3 2297   0.786   1.617   0.994  1.8052 -0.5646  0.6806
  151DMF     H4 2298   0.538   1.882   0.933 -1.1121 -0.8006  1.9512
  151DMF     H5 2299   0.582   1.731   0.862  0.1596  1.7357 -1.1350
  151DMF     H6 2300   0.708   1.852   0.890  0.5801 -0.5311  0.9111
  151DMF     H7 2301   0.468   1.848   1.149 -1.2470 -1.8306 -2.2801
  152DMF     C1 2302   1.383   3.011   0.303 -0.2958  0.2038  0.2364
  152DMF     N1 2303   1.393   3.137   0.382  0.7485  0.2722  0.3112
  152DMF     C2 2304   1.294   3.169   0.484 -0.4303  0.6376  0.3884
  152DMF     C3 2305   1.486   3.233   0.347  0.7355  0.4516  0.0515
  152DMF     O1 2306   1.567   3.216   0.258 -0.5257  0.0592  0.0752
  152DMF     H1 2307   1.447   2.929   0.336 -0.1314 -0.0831 -0.7757
  152DMF     H2 2308   1.405   3.035   0.198  0.2602 -1.3493 -0.0151
  152DMF     H3 2309   1.279   2.978   0.295 -0.3572  0.4440  0.0206
  152DMF     H4 2310   1.355   3.218   0.561  0.3801  0.2435  0.0040
  152DMF     H5 2311   1.256   3.074   0.525 -0.2453  1.8301  3.4724
  152DMF     H6 2312   1.228   3.241   0.435 -0.2655  0.1894 -0.5142
  152DMF     H7 2313   1.484   3.323   0.410 -0.7404  0.0855  0.5525
  153DMF     C1 2314   0.952   2.050   3.527  0.7180  0.7877 -0.4193
  153DMF     N1 2315   0.974   2.196   3.522  0.8372 -0.1296  0.2931
  153DMF     C2 2316   0.919   2.279   3.636  0.4448  0.2006  0.4197
  153DMF     C3 2317   1.012   2.256   3.398  0.1306 -0.3188  0.1272
  153DMF     O1 2318   1.046   2.195   3.298  0.7591  0.3406  0.8404
  153DMF     H1 2319   0.928   2.013   3.427  0.3806 -0.3061  0.0579
  153DMF     H2 2320   0.877   2.017   3.600  0.2126 -0.7135 -1.5886
  153DMF     H3 2321   1.036   1.987   3.560 -1.6674 -2.6096 -0.5525
  153DMF     H4 2322   0.865   2.367   3.597  0.4050  0.3931  0.9036
  153DMF     H5 2323   0.994   2.310   3.710  0.5356 -0.3282  0.5501
  153DMF     H6 2324   0.855   2.212   3.695 -0.9677 -0.2342 -1.5744
  153DMF     H7 2325   1.008   2.367   3.404 -0.2547 -0.3280  0.0369
  154DMF     C1 2326   1.689   1.214   0.788  0.1540  0.2850 -0.5693
  154DMF     N1 2327   1.721   1.237   0.924  0.2540 -0.5105  0.0145
  154DMF     C2 2328   1.773   1.113   0.989  0.1444 -1.0862  0.3494
  154DMF     C3 2329   1.682   1.348   0.998 -0.5280 -0.6907  0.6619
  154DMF     O1 2330   1.618   1.444   0.959 -0.3079 -0.1222 -0.3534
  154DMF     H1 2331   1.585   1.247   0.771  0.0726 -0.3823 -1.4321
  154DMF     H2 2332   1.692   1.107   0.764  0.1893  0.1909 -0.1468
  154DMF     H3 2333   1.764   1.265   0.727 -0.9339  1.5470 -0.8872
  154DMF     H4 2334   1.840   1.055   0.924  1.1843  1.5664 -1.0340
  154DMF     H5 2335   1.691   1.042   1.001 -1.5795  0.6006 -1.0531
  154DMF     H6 2336   1.826   1.143   1.081  2.3616 -0.5423 -1.0749
  154DMF     H7 2337   1.713   1.339   1.103 -0.3188  2.2451  0.8762
  155DMF     C1 2338   3.005   0.754   3.488  0.2096  0.7392  0.2655
  155DMF     N1 2339   2.912   0.717   3.595  0.7293  0.2157  0.5010
  155DMF     C2 2340   2.825   0.602   3.572  0.3989  0.6176  0.4972
  155DMF     C3 2341   2.884   0.808   3.701  0.5041 -0.0428 -0.4125
  155DMF     O1 2342   2.956   0.907   3.719  0.1092 -0.3234 -0.1660
  155DMF     H1 2343   2.968   0.772   3.387  1.0578  0.2186 -0.1417
  155DMF     H2 2344   3.068   0.666   3.467 -3.0729 -1.9143  1.1087
  155DMF     H3 2345   3.067   0.839   3.519  0.1746  0.4173  1.2496
  155DMF     H4 2346   2.729   0.632   3.526  0.1209 -0.0586  0.6410
  155DMF     H5 2347   2.805   0.554   3.668  1.3742  0.1389  0.4619
  155DMF     H6 2348   2.869   0.533   3.499 -4.3980  0.3470 -2.3841
  155DMF     H7 2349   2.805   0.778   3.773  1.6428 -0.4699  0.6717
  156DMF     C1 2350   1.696   3.371   1.464  0.4525  0.0528  0.5220
  156DMF     N1 2351   1.735   3.460   1.345  0.0903 -0.7086  0.0826
  156DMF     C2 2352   1.653   3.448   1.221 -0.7982 -0.1474 -0.2624
  156DMF     C3 2353   1.844   3.544   1.354  0.0751  0.1538  0.0556
  156DMF     O1 2354   1.912   3.563   1.454  0.0573 -0.0737 -0.4423
  156DMF     H1 2355   1.670   3.268   1.438  1.6897  0.1876 -1.3695
  156DMF     H2 2356   1.612   3.418   1.517 -0.9337 -1.4201 -0.3141
  156DMF     H3 2357   1.777   3.368   1.538  0.4033 -1.2150  0.5239
  156DMF     H4 2358   1.696   3.506   1.139  2.6528  0.7653  2.0708
  156DMF     H5 2359   1.550   3.471   1.249 -1.0264 -1.5776  0.1335
  156DMF     H6 2360   1.658   3.340   1.199 -1.4898 -1.0444  3.5919
  156DMF     H7 2361   1.868   3.606   1.266 -1.4131  0.5451 -0.0871
  157DMF     C1 2362   1.268   1.383   0.832  0.4634 -0.3332  0.2894
  157DMF     N1 2363   1.131   1.339   0.798 -0.1117  0.1511  0.0239
  157DMF     C2 2364   1.116   1.206   0.738  0.0547 -0.5438  0.0845
  157DMF     C3 2365   1.019   1.431   0.806 -0.1248  0.2722 -0.7453
  157DMF     O1 2366   1.028   1.542   0.861 -0.5409  0.2518  0.0700
  157DMF     H1 2367   1.289   1.482   0.793 -0.5920 -0.5785 -0.9167
  157DMF     H2 2368   1.339   1.315   0.784 -1.5749 -0.4240 -2.7565
  157DMF     H3 2369   1.276   1.380   0.942  0.8790 -1.8295  0.2326
  157DMF     H4 2370   1.009   1.191   0.717 -0.2007 -0.1179  1.0545
  157DMF     H5 2371   1.155   1.135   0.812 -1.1785 -3.6485 -2.1673
  157DMF     H6 2372   1.183   1.193   0.652  1.4917 -1.1340  1.2833
  157DMF     H7 2373   0.923   1.385   0.777  0.5876 -1.2687 -0.7206
  158DMF     C1 2374   0.204   1.047   2.962  0.2085 -0.0948 -0.8595
  158DMF     N1 2375   0.303   0.992   2.864  0.2308  0.0095 -0.3133
  158DMF     C2 2376   0.421   0.916   2.922  0.1292  0.3542 -0.5646
  158DMF     C3 2377   0.280   1.017   2.722 -0.0183 -0.4659 -0.2119
  158DMF     O1 2378   0.177   1.071   2.691 -0.0914 -0.5469 -0.4053
  158DMF     H1 2379   0.104   1.008   2.942  0.2603 -2.1942  2.5939
  158DMF     H2 2380   0.188   1.155   2.954  0.4771  0.1440  1.5548
  158DMF     H3 2381   0.223   1.025   3.068  3.5869  0.3217 -1.3211
  158DMF     H4 2382   0.387   0.825   2.973 -0.6672  1.5364  1.0352
  158DMF     H5 2383   0.463   0.982   2.998  2.4161 -1.4704 -0.1928
  158DMF     H6 2384   0.501   0.883   2.854  2.6300  1.6210  1.6485
  158DMF     H7 2385   0.353   0.965   2.658  0.2454  1.3703 -1.4174
  159DMF     C1 2386   2.897   2.553   0.526  0.5718  0.1467 -0.0417
  159DMF     N1 2387   2.969   2.675   0.560 -0.3875  0.1887 -0.2414
  159DMF     C2 2388   3.058   2.736   0.469  0.4591 -0.0032  0.1648
  159DMF     C3 2389   2.959   2.728   0.689 -0.2709 -0.0050 -0.0096
  159DMF     O1 2390   2.878   2.683   0.776 -0.1340  0.0648  0.0102
  159DMF     H1 2391   2.879   2.556   0.418  0.9613  1.5347 -0.0851
  159DMF     H2 2392   2.799   2.559   0.575 -0.1357 -0.0998 -1.3818
  159DMF     H3 2393   2.948   2.465   0.566 -2.5521 -0.6796  2.2786
  159DMF     H4 2394   2.990   2.792   0.404  0.6090  1.5935  1.3595
  159DMF     H5 2395   3.109   2.665   0.403 -1.7629 -0.9029 -0.6304
  159DMF     H6 2396   3.113   2.816   0.519  0.1638 -0.5799  1.4419
  159DMF     H7 2397   3.037   2.801   0.717  0.7858 -0.9248 -0.5074
  160DMF     C1 2398   3.194   2.147   2.897 -0.5691 -0.5340 -0.0220
  160DMF     N1 2399   3.212   2.035   2.800 -0.0195 -0.4016  0.6670
  160DMF     C2 2400   3.092   1.960   2.757 -0.1158  0.2678  0.6911
  160DMF     C3 2401   3.341   1.988   2.776  0.0550 -0.7951 -0.6590
  160DMF     O1 2402   3.442   2.038   2.823  0.1958 -0.1382 -0.1191
  160DMF     H1 2403   3.246   2.122   2.991  0.2937 -2.9745 -1.1101
  160DMF     H2 2404   3.088   2.133   2.925  0.0484 -2.7605  1.3487
  160DMF     H3 2405   3.219   2.249   2.865 -1.7335 -0.4814 -0.8161
  160DMF     H4 2406   3.077   1.875   2.824 -1.8136 -0.7141 -0.9002
  160DMF     H5 2407   3.115   1.905   2.665  1.2628 -2.4662  2.6047
  160DMF     H6 2408   2.997   2.015   2.748 -0.2841 -0.0041  0.7989
  160DMF     H7 2409   3.341   1.898   2.711  0.3458  0.0554 -1.8638
  161DMF     C1 2410   0.913   3.040   2.623 -0.5823  0.3360 -0.1899
  161DMF     N1 2411   0.885   3.109   2.753 -0.1940  0.3633  0.2297
  161DMF     C2 2412   0.839   3.252   2.748  0.2999 -0.2576 -0.1257
  161DMF     C3 2413   0.925   3.049   2.870 -0.0829  0.4932  0.2347
  161DMF     O1 2414   0.982   2.942   2.871  0.4257 -0.3257  0.0234
  161DMF     H1 2415   0.879   2.935   2.624 -1.5375  0.6292 -1.2570
  161DMF     H2 2416   1.019   3.054   2.599 -0.2046 -0.8052  0.7299
  161DMF     H3 2417   0.857   3.101   2.552 -2.4538  1.0885  1.8752
  161DMF     H4 2418   0.839   3.301   2.650 -2.0176  1.6565  0.7725
  161DMF     H5 2419   0.904   3.307   2.818  0.6306 -1.9082  0.8782
  161DMF     H6 2420   0.734   3.265   2.778 -0.0272 -0.0581 -1.3616
  161DMF     H7 2421   0.905   3.115   2.956 -2.5122  0.8436 -0.5708
  162DMF     C1 2422   0.438   0.793   2.457 -0.3880 -0.3193 -0.2619
  162DMF     N1 2423   0.417   0.872   2.333 -0.8706  0.5233  0.4743
  162DMF     C2 2424   0.338   0.993   2.338 -0.5053 -0.2778  0.6106
  162DMF     C3 2425   0.472   0.829   2.213  0.5367  0.0206 -0.2310
  162DMF     O1 2426   0.545   0.733   2.209  0.2366  0.3948  0.2574
  162DMF     H1 2427   0.537   0.822   2.494 -0.4797  0.3052 -0.5049
  162DMF     H2 2428   0.451   0.685   2.440 -0.5447 -0.5614  1.1353
  162DMF     H3 2429   0.355   0.806   2.527  0.6966  0.5722  0.8630
  162DMF     H4 2430   0.261   0.994   2.259 -0.3543  1.6516  0.4664
  162DMF     H5 2431   0.411   1.074   2.344  0.3613 -1.2137  3.1922
  162DMF     H6 2432   0.278   1.002   2.429 -0.4419  1.6970  0.4772
  162DMF     H7 2433   0.463   0.904   2.132 -0.3280  0.7663  0.5389
  163DMF     C1 2434   2.324   3.195   3.052  0.6615  0.0179  0.2191
  163DMF     N1 2435   2.177   3.221   3.076 -0.0270 -0.3190 -0.1804
  163DMF     C2 2436   2.089   3.182   2.963  0.3855 -0.6999 -0.3629
  163DMF     C3 2437   2.133   3.292   3.187 -0.6731  0.4580  0.1429
  163DMF     O1 2438   2.211   3.315   3.275 -0.3700 -0.1143  0.2524
  163DMF     H1 2439   2.392   3.272   3.089  1.1060  0.5641 -1.6804
  163DMF     H2 2440   2.348   3.178   2.946  2.0449 -1.6611  0.7884
  163DMF     H3 2441   2.337   3.099   3.104  0.6938  0.2355  0.6091
  163DMF     H4 2442   2.007   3.126   3.008  1.1606 -1.3598  0.2470
  163DMF     H5 2443   2.150   3.128   2.889 -2.0886 -1.7053 -1.7154
  163DMF     H6 2444   2.041   3.271   2.920 -0.7000  0.0835  2.3569
  163DMF     H7 2445   2.026   3.317   3.184 -0.8998 -0.5870 -1.4719
  164DMF     C1 2446   2.782   1.785   2.613 -0.8884 -0.6765  0.2283
  164DMF     N1 2447   2.682   1.790   2.720 -0.0729 -0.7213 -0.2403
  164DMF     C2 2448   2.678   1.905   2.804  0.4707  0.4637  0.4317
  164DMF     C3 2449   2.588   1.686   2.732 -0.2008 -0.0932  0.0218
  164DMF     O1 2450   2.581   1.597   2.647  0.3319  0.0495  0.6277
  164DMF     H1 2451   2.866   1.854   2.628 -1.7287 -0.0251  2.0187
  164DMF     H2 2452   2.737   1.812   2.516 -2.5625 -2.8302  0.3437
  164DMF     H3 2453   2.825   1.684   2.617  2.3915  0.7402  2.0092
  164DMF     H4 2454   2.604   1.892   2.883 -0.0080 -1.0877 -0.2535
  164DMF     H5 2455   2.638   1.987   2.742 -0.6366  0.4491  1.1190
  164DMF     H6 2456   2.781   1.930   2.834  1.0828 -0.4458 -0.8363
  164DMF     H7 2457   2.516   1.693   2.816 -0.0411 -2.3033  0.3855
  165DMF     C1 2458   2.507   1.594   3.412 -0.6572 -0.2633  0.5496
  165DMF     N1 2459   2.615   1.663   3.480  0.2144  0.3369  0.0911
  165DMF     C2 2460   2.577   1.787   3.558 -0.0181 -0.3317  0.0563
  165DMF     C3 2461   2.752   1.615   3.473  0.0234 -0.3426  0.9082
  165DMF     O1 2462   2.780   1.513   3.416  0.2503 -0.5159 -0.0106
  165DMF     H1 2463   2.428   1.562   3.481 -0.4803 -0.7120  0.5469
  165DMF     H2 2464   2.532   1.506   3.351 -1.0185  0.6267 -0.9177
  165DMF     H3 2465   2.449   1.668   3.354  1.1824  0.9199  0.1752
  165DMF     H4 2466   2.468   1.786   3.577 -0.1660 -0.4707 -0.8111
  165DMF     H5 2467   2.602   1.885   3.516  0.2217 -0.7891 -0.8563
  165DMF     H6 2468   2.630   1.783   3.654  0.4066 -1.3611 -0.2230
  165DMF     H7 2469   2.831   1.680   3.517  0.7654 -0.2269 -0.5842
  166DMF     C1 2470   3.105   3.406   0.247  0.4604  0.3857 -0.2391
  166DMF     N1 2471   3.231   3.484   0.243 -0.1384  0.4360 -0.1365
  166DMF     C2 2472   3.352   3.402   0.264 -0.5383 -0.1320  0.1608
  166DMF     C3 2473   3.236   3.619   0.266  0.1002 -0.0120  0.1425
  166DMF     O1 2474   3.138   3.685   0.270 -0.4335 -0.4026 -0.2052
  166DMF     H1 2475   3.096   3.386   0.354 -0.3879  1.3940 -0.1042
  166DMF     H2 2476   3.108   3.326   0.173 -1.8417  0.5858 -0.5928
  166DMF     H3 2477   3.016   3.468   0.226 -0.5700 -1.5694 -1.7978
  166DMF     H4 2478   3.399   3.419   0.362 -1.1691  0.0860  0.4307
  166DMF     H5 2479   3.435   3.428   0.198 -0.6308 -2.0413 -0.7165
  166DMF     H6 2480   3.343   3.295   0.246  1.5471 -0.1509 -0.8990
  166DMF     H7 2481   3.339   3.659   0.258 -0.4203  0.9226 -2.3961
  167DMF     C1 2482   0.253   1.806   2.776  0.1941 -0.6937 -0.7205
  167DMF     N1 2483   0.357   1.787   2.878  0.0490  0.2590  0.2779
  167DMF     C2 2484   0.326   1.816   3.017 -0.6061  0.1756  0.2224
  167DMF     C3 2485   0.489   1.751   2.843  0.1711 -0.0065 -0.2439
  167DMF     O1 2486   0.532   1.736   2.730  0.1686  0.1186  0.2200
  167DMF     H1 2487   0.287   1.772   2.677  2.4580  1.3717 -0.7127
  167DMF     H2 2488   0.243   1.916   2.780  1.1818 -0.6941  3.0405
  167DMF     H3 2489   0.158   1.756   2.796 -0.3432  1.7395  3.2193
  167DMF     H4 2490   0.223   1.854   3.020 -1.0577 -0.9433 -0.7079
  167DMF     H5 2491   0.386   1.900   3.053  0.5602 -0.7354  0.4420
  167DMF     H6 2492   0.338   1.724   3.076 -0.2942 -0.3613 -0.6610
  167DMF     H7 2493   0.551   1.725   2.930  0.7893 -0.9844 -0.9576
  168DMF     C1 2494   0.201   2.888   3.624  0.1141 -0.0508 -0.5495
  168DMF     N1 2495   0.099   2.938   3.719 -0.2549 -0.3049  0.6933
  168DMF     C2 2496   0.110   2.894   3.860 -0.4857 -0.8860  0.3752
  168DMF     C3 2497  -0.001   3.030   3.683 -0.0945  0.3632 -0.7923
  168DMF     O1 2498  -0.005   3.095   3.581 -0.3698 -0.3174  0.4832
  168DMF     H1 2499   0.262   2.972   3.589  0.4910  0.4534  1.2644
  168DMF     H2 2500   0.147   2.832   3.547 -2.5892  0.7441  0.7255
  168DMF     H3 2501   0.271   2.816   3.668 -0.2902  0.4940  1.0570
  168DMF     H4 2502   0.114   2.979   3.928  0.5684  1.6521 -2.7213
  168DMF     H5 2503   0.187   2.818   3.883 -1.4118 -1.7591  0.6272
  168DMF     H6 2504   0.011   2.852   3.881 -1.3549  1.6706  1.5297
  168DMF     H7 2505  -0.084   3.042   3.756  0.3327 -0.3002 -0.1910
  169DMF     C1 2506   1.578   0.456   0.568 -0.5366 -0.1826 -0.1325
  169DMF     N1 2507   1.461   0.390   0.604 -0.6224 -0.2733  0.2759
  169DMF     C2 2508   1.466   0.251   0.643 -0.2466 -0.4487  0.6119
  169DMF     C3 2509   1.339   0.463   0.600  0.3445 -0.0214 -0.0190
  169DMF     O1 2510   1.330   0.580   0.586  0.8807 -0.4111  0.7315
  169DMF     H1 2511   1.655   0.385   0.537 -0.3152 -0.4987  1.1309
  169DMF     H2 2512   1.608   0.535   0.638  1.6181  0.0383 -1.2567
  169DMF     H3 2513   1.566   0.514   0.475  0.1240 -2.0288 -1.3935
  169DMF     H4 2514   1.493   0.179   0.564  0.8306  1.3741 -0.7066
  169DMF     H5 2515   1.369   0.212   0.674  0.1400 -1.4545  0.5761
  169DMF     H6 2516   1.518   0.239   0.739  0.4780  3.1740  0.7494
  169DMF     H7 2517   1.248   0.401   0.609 -0.3441  1.3600  2.8491
  170DMF     C1 2518   2.614   3.061   2.492  0.5956 -0.2804 -0.6385
  170DMF     N1 2519   2.704   3.156   2.426  0.0311  0.0900 -0.5290
  170DMF     C2 2520   2.658   3.204   2.291 -0.2829  0.0808 -0.3183
  170DMF     C3 2521   2.835   3.184   2.468  0.3554 -0.4802 -0.3185
  170DMF     O1 2522   2.875   3.143   2.572 -0.2691 -0.1117 -0.3269
  170DMF     H1 2523   2.651   3.009   2.581  2.6627  0.3016 -1.1331
  170DMF     H2 2524   2.571   2.990   2.420 -1.2803  1.1708 -1.0027
  170DMF     H3 2525   2.529   3.119   2.532  1.0687  1.1619 -1.6544
  170DMF     H4 2526   2.576   3.140   2.255  0.2517 -0.1611 -1.1305
  170DMF     H5 2527   2.737   3.215   2.215  0.1508  1.1133  0.2811
  170DMF     H6 2528   2.613   3.301   2.313 -0.4060 -0.5448  2.2757
  170DMF     H7 2529   2.885   3.263   2.409  0.8511 -0.6368 -0.1043
  171DMF     C1 2530   1.856   0.343   3.294  0.3038  0.2624  0.1390
  171DMF     N1 2531   1.978   0.357   3.212 -0.1390  0.6978 -0.0220
  171DMF     C2 2532   2.036   0.490   3.187  0.3713  0.4206  0.1358
  171DMF     C3 2533   2.036   0.238   3.167 -0.6924 -0.0922 -0.4471
  171DMF     O1 2534   1.992   0.128   3.194 -0.0728 -0.3710 -0.0387
  171DMF     H1 2535   1.831   0.433   3.351 -1.6005  0.4826 -1.0237
  171DMF     H2 2536   1.873   0.263   3.367  0.7739  0.4832  0.2753
  171DMF     H3 2537   1.769   0.317   3.233  0.8219 -0.6918 -0.2048
  171DMF     H4 2538   1.968   0.567   3.146 -1.7811 -0.7071  1.5057
  171DMF     H5 2539   2.126   0.490   3.125  0.8092  0.0510  0.7681
  171DMF     H6 2540   2.045   0.532   3.288  2.6184 -0.9635  0.5290
  171DMF     H7 2541   2.129   0.247   3.108  0.2937 -1.2623  0.8676
  172DMF     C1 2542   2.110   3.106   0.375 -0.2403  0.4437  0.1757
  172DMF     N1 2543   1.970   3.103   0.372  0.3204 -0.0423  0.0277
  172DMF     C2 2544   1.909   2.969   0.405  0.1158  0.2922 -0.1314
  172DMF     C3 2545   1.886   3.218   0.349 -0.4244  0.7285  0.5499
  172DMF     O1 2546   1.925   3.328   0.322 -0.0081 -0.3752 -0.9938
  172DMF     H1 2547   2.147   3.107   0.271 -0.0082  1.7361  0.2630
  172DMF     H2 2548   2.144   3.018   0.431  0.0751  1.8034  2.1989
  172DMF     H3 2549   2.138   3.194   0.435  1.5598 -0.6370  0.9614
  172DMF     H4 2550   1.819   2.991   0.462  0.3109 -1.2230  0.7924
  172DMF     H5 2551   1.977   2.901   0.458  0.0532  1.2181  1.1317
  172DMF     H6 2552   1.871   2.928   0.310  1.5655  1.0531 -1.0607
  172DMF     H7 2553   1.780   3.188   0.353 -0.1607 -0.2898  0.0522
  173DMF     C1 2554   1.828   0.292   2.465 -0.2316  0.2787  0.1446
  173DMF     N1 2555   1.759   0.302   2.339 -0.3858  0.1950 -0.3427
  173DMF     C2 2556   1.724   0.436   2.295  0.2290 -0.0145  0.5040
  173DMF     C3 2557   1.744   0.192   2.256  0.1692 -0.0750 -0.4779
  173DMF     O1 2558   1.802   0.085   2.273  0.3559  0.0337 -0.3664
  173DMF     H1 2559   1.859   0.395   2.489  1.0471  0.2662 -1.3315
  173DMF     H2 2560   1.913   0.223   2.452  1.2456  2.3083 -1.4008
  173DMF     H3 2561   1.757   0.260   2.541 -1.1521 -0.4069 -0.9892
  173DMF     H4 2562   1.647   0.421   2.218  0.9055  0.9151 -0.3564
  173DMF     H5 2563   1.814   0.474   2.247  0.2590  0.5106  0.9688
  173DMF     H6 2564   1.678   0.503   2.369  1.6204  0.9690  0.4870
  173DMF     H7 2565   1.675   0.219   2.174 -0.1130 -0.8760 -0.5009
  174DMF     C1 2566   1.586   1.400   2.637  0.3565 -0.2009  0.3290
  174DMF     N1 2567   1.484   1.512   2.664 -0.2707  0.3440  0.4060
  174DMF     C2 2568   1.342   1.494   2.681 -0.1716 -0.3698 -0.5541
  174DMF     C3 2569   1.528   1.641   2.682 -1.0462 -0.2117 -0.0807
  174DMF     O1 2570   1.644   1.678   2.680  0.2542  0.4586 -0.5047
  174DMF     H1 2571   1.532   1.312   2.600 -0.1238  0.7279 -1.2332
  174DMF     H2 2572   1.627   1.361   2.731  0.8688  1.3985  0.7864
  174DMF     H3 2573   1.672   1.436   2.579 -0.4409  1.1023 -0.0779
  174DMF     H4 2574   1.318   1.388   2.663 -2.0503 -0.1052  0.2020
  174DMF     H5 2575   1.292   1.542   2.595 -0.5788 -0.3227 -0.2944
  174DMF     H6 2576   1.309   1.523   2.781 -0.7721 -0.8092 -0.6203
  174DMF     H7 2577   1.445   1.711   2.704 -1.8526 -1.5775  1.3509
  175DMF     C1 2578   1.718   1.209   3.592  0.0833 -0.1423 -0.2267
  175DMF     N1 2579   1.680   1.079   3.651 -0.1232 -0.3466  0.6172
  175DMF     C2 2580   1.544   1.027   3.649  0.3368  0.3087  0.8009
  175DMF     C3 2581   1.777   0.982   3.692 -0.3478 -0.1681  0.0160
  175DMF     O1 2582   1.897   1.013   3.693  0.1585  0.4071 -0.6430
  175DMF     H1 2583   1.630   1.267   3.563 -0.3036  0.6256  2.3382
  175DMF     H2 2584   1.789   1.196   3.509 -3.3862 -2.5319 -2.9761
  175DMF     H3 2585   1.778   1.264   3.666  1.4397 -0.6067 -0.9676
  175DMF     H4 2586   1.544   0.918   3.643  1.5860  0.2862  1.1039
  175DMF     H5 2587   1.499   1.055   3.553  2.6457  1.8741  0.1393
  175DMF     H6 2588   1.484   1.058   3.735 -1.0552 -1.2244  0.4085
  175DMF     H7 2589   1.743   0.880   3.717  0.1490 -1.0599 -2.7114
  176DMF     C1 2590   2.422   2.086   3.314 -0.3771 -1.0628  0.3852
  176DMF     N1 2591   2.499   2.051   3.193  0.4403  0.1442 -0.0761
  176DMF     C2 2592   2.569   1.919   3.188 -0.1427  0.3508 -0.1801
  176DMF     C3 2593   2.525   2.144   3.091 -0.2609  0.0990  0.1153
  176DMF     O1 2594   2.493   2.264   3.087  0.6177  0.0104  0.4662
  176DMF     H1 2595   2.485   2.103   3.402  0.8994  0.4068 -0.7771
  176DMF     H2 2596   2.349   2.009   3.341 -1.8202 -0.6328 -2.0933
  176DMF     H3 2597   2.376   2.183   3.292  0.0242 -0.5382  1.7942
  176DMF     H4 2598   2.642   1.923   3.107 -0.3236  0.3307 -0.3456
  176DMF     H5 2599   2.501   1.835   3.166  0.0956 -0.0934  0.7217
  176DMF     H6 2600   2.627   1.899   3.279  2.6829  0.9306 -1.8225
  176DMF     H7 2601   2.576   2.088   3.009 -1.2708 -0.5458 -0.0810
  177DMF     C1 2602   3.103   1.365   2.259 -0.0409 -0.4602 -0.4252
  177DMF     N1 2603   3.229   1.309   2.226  0.1724  0.1902 -0.4122
  177DMF     C2 2604   3.234   1.165   2.222  0.1441  0.1460 -0.5258
  177DMF     C3 2605   3.340   1.389   2.199 -0.0272 -0.8332 -0.3277
  177DMF     O1 2606   3.341   1.505   2.229  0.0810  0.2720 -0.1514
  177DMF     H1 2607   3.078   1.349   2.365 -0.0313 -0.1268 -0.3703
  177DMF     H2 2608   3.023   1.313   2.205 -2.3411  0.0425  2.3582
  177DMF     H3 2609   3.096   1.475   2.252  1.3418 -0.3238  0.3187
  177DMF     H4 2610   3.222   1.137   2.327 -1.9888  0.9682 -0.5300
  177DMF     H5 2611   3.328   1.133   2.175 -0.4995 -2.0926 -0.3349
  177DMF     H6 2612   3.147   1.138   2.161 -2.4278  2.6400  1.8976
  177DMF     H7 2613   3.433   1.336   2.171  0.2180 -1.2967  1.3150
  178DMF     C1 2614   1.204   0.517   3.076 -0.2089  0.4346  0.3557
  178DMF     N1 2615   1.085   0.438   3.088  0.3860  0.2043 -0.1435
  178DMF     C2 2616   0.989   0.480   3.191  0.5484  0.0061 -0.2033
  178DMF     C3 2617   1.079   0.310   3.040 -0.5920  0.1009 -0.4323
  178DMF     O1 2618   1.167   0.264   2.972  0.0823  0.1727 -0.2347
  178DMF     H1 2619   1.217   0.581   3.164 -1.6105  0.0091  0.8855
  178DMF     H2 2620   1.184   0.586   2.992  0.3099 -0.9330 -0.9116
  178DMF     H3 2621   1.292   0.456   3.052 -0.9248 -0.8850  1.0563
  178DMF     H4 2622   1.034   0.473   3.291  0.1555 -1.2849 -0.1089
  178DMF     H5 2623   0.900   0.417   3.184  0.3380  0.2837  0.0018
  178DMF     H6 2624   0.947   0.579   3.172  0.9418  0.3222  0.5642
  178DMF     H7 2625   0.992   0.250   3.071 -0.0629 -0.5121 -0.1424
  179DMF     C1 2626   1.334   2.358   2.273  1.0201 -0.2102  0.1379
  179DMF     N1 2627   1.250   2.243   2.242  0.7601  0.2278 -0.9804
  179DMF     C2 2628   1.319   2.113   2.260 -0.2035 -0.7809 -0.3287
  179DMF     C3 2629   1.109   2.254   2.249  0.4642  0.1652 -0.8168
  179DMF     O1 2630   1.051   2.357   2.273  0.0292 -0.1665  0.2804
  179DMF     H1 2631   1.332   2.402   2.373 -0.6560  1.5903 -0.6688
  179DMF     H2 2632   1.292   2.424   2.196  0.3775 -0.6148  0.1305
  179DMF     H3 2633   1.437   2.337   2.240  1.2338  0.7413  0.1858
  179DMF     H4 2634   1.419   2.120   2.215 -0.9663 -1.8383 -2.2706
  179DMF     H5 2635   1.263   2.034   2.207 -0.5904 -1.2663  0.7781
  179DMF     H6 2636   1.311   2.078   2.364  0.6420 -0.7444 -0.2513
  179DMF     H7 2637   1.062   2.157   2.227  1.9343 -1.0126  1.0697
  180DMF     C1 2638   0.001   0.483   2.972 -0.4979  0.1398 -0.1299
  180DMF     N1 2639  -0.033   0.586   2.874 -0.0867 -0.2664  0.7526
  180DMF     C2 2640  -0.167   0.572   2.822 -0.2753  0.3306  0.4653
  180DMF     C3 2641   0.063   0.672   2.808  0.2741  0.2120  0.3815
  180DMF     O1 2642   0.179   0.677   2.839 -0.1400  0.7301  0.0666
  180DMF     H1 2643   0.107   0.458   2.984 -0.7746 -0.0139  2.1615
  180DMF     H2 2644  -0.051   0.389   2.949 -1.0242  1.1287 -3.2083
  180DMF     H3 2645  -0.035   0.511   3.072  0.5909  0.7749  0.0992
  180DMF     H4 2646  -0.177   0.485   2.756  0.3205  0.6242 -0.0209
  180DMF     H5 2647  -0.194   0.671   2.784  1.5317  1.0476  0.9493
  180DMF     H6 2648  -0.242   0.556   2.901 -1.5027 -2.3327 -1.1994
  180DMF     H7 2649   0.028   0.737   2.726  1.1075  1.2462  0.8309
  181DMF     C1 2650   2.786   2.523   2.260  0.0213  0.4333 -0.4868
  181DMF     N1 2651   2.673   2.622   2.266 -0.2562 -0.0256  0.3248
  181DMF     C2 2652   2.712   2.766   2.245 -0.7704 -0.4452 -0.3939
  181DMF     C3 2653   2.536   2.590   2.254  0.2759  0.0106 -0.1583
  181DMF     O1 2654   2.497   2.477   2.236 -0.5600 -0.4035 -0.0804
  181DMF     H1 2655   2.766   2.451   2.181 -2.6036  1.0164 -0.3987
  181DMF     H2 2656   2.797   2.479   2.360 -0.5032 -1.4570 -1.2573
  181DMF     H3 2657   2.878   2.577   2.233  0.3550 -0.0151 -0.2523
  181DMF     H4 2658   2.728   2.815   2.341 -2.3770 -2.2651  0.8449
  181DMF     H5 2659   2.630   2.815   2.192  0.1204  0.6378 -0.7957
  181DMF     H6 2660   2.805   2.773   2.187 -0.7634 -0.3816 -0.3744
  181DMF     H7 2661   2.470   2.678   2.245  0.1093 -0.1103 -0.1266
  182DMF     C1 2662   0.353   0.144   1.126 -0.5133 -0.2947 -0.4427
  182DMF     N1 2663   0.465   0.215   1.191 -0.5667  0.3299 -0.2605
  182DMF     C2 2664   0.448   0.346   1.254  0.1329 -0.3348  0.3608
  182DMF     C3 2665   0.591   0.164   1.180 -0.6567  0.0935 -0.8539
  182DMF     O1 2666   0.606   0.046   1.148 -0.4677  0.3977 -0.5075
  182DMF     H1 2667   0.384   0.109   1.027 -1.7016 -2.0588 -0.2154
  182DMF     H2 2668   0.269   0.214   1.123  0.8943  1.3882 -1.6183
  182DMF     H3 2669   0.332   0.048   1.175  1.7647 -1.2130 -1.1680
  182DMF     H4 2670   0.343   0.373   1.268  1.0340  3.8967 -0.3126
  182DMF     H5 2671   0.498   0.415   1.186 -1.3174 -1.2268 -1.6469
  182DMF     H6 2672   0.502   0.346   1.350  1.4059  0.4649 -0.3424
  182DMF     H7 2673   0.671   0.240   1.195  0.7733 -1.8220  1.5219
  183DMF     C1 2674   1.755   0.048   0.858 -0.3195  0.1406 -0.6934
  183DMF     N1 2675   1.805   0.097   0.727 -0.7733 -0.5419 -0.1046
  183DMF     C2 2676   1.887   0.220   0.726 -0.1800  0.1563  0.3303
  183DMF     C3 2677   1.795   0.018   0.610  0.1818 -0.0588 -0.3807
  183DMF     O1 2678   1.734  -0.093   0.603 -0.1164  0.4435  0.1220
  183DMF     H1 2679   1.747  -0.061   0.854  0.6564  0.1156 -2.7154
  183DMF     H2 2680   1.657   0.094   0.876  0.7716  2.3371 -0.2236
  183DMF     H3 2681   1.819   0.077   0.941  3.1414 -0.9013 -2.8928
  183DMF     H4 2682   1.932   0.253   0.821  0.5698  1.9999 -0.6357
  183DMF     H5 2683   1.825   0.306   0.699 -0.8735  0.4185  2.6971
  183DMF     H6 2684   1.963   0.222   0.646 -0.6812  0.8442 -0.1289
  183DMF     H7 2685   1.829   0.072   0.520 -1.3006 -0.4359 -1.1796
  184DMF     C1 2686   3.314   1.282   0.748 -0.1740  0.5605  0.2676
  184DMF     N1 2687   3.418   1.372   0.676  0.1083 -0.1995  0.5818
  184DMF     C2 2688   3.365   1.485   0.592  0.5330  0.3589 -0.7257
  184DMF     C3 2689   3.543   1.392   0.731  0.4697 -0.2583  0.2121
  184DMF     O1 2690   3.586   1.322   0.821 -0.3014 -0.0561  0.4988
  184DMF     H1 2691   3.216   1.333   0.754  0.5305  2.2286 -1.6508
  184DMF     H2 2692   3.346   1.269   0.852  0.5558  1.2565  0.1346
  184DMF     H3 2693   3.308   1.184   0.700 -1.3910  0.3099  0.9157
  184DMF     H4 2694   3.308   1.428   0.517 -0.2300  1.3214 -0.8837
  184DMF     H5 2695   3.446   1.546   0.551 -0.1319  1.5810 -0.2345
  184DMF     H6 2696   3.287   1.545   0.642  1.8441  0.0669  1.7667
  184DMF     H7 2697   3.611   1.457   0.674 -2.1088  0.3935 -2.2304
  185DMF     C1 2698   1.040   2.708   3.417  0.2581 -0.3245  0.4916
  185DMF     N1 2699   1.059   2.757   3.276  0.0353  0.2980 -0.1182
  185DMF     C2 2700   1.103   2.660   3.179 -0.2124 -0.5919 -0.3406
  185DMF     C3 2701   1.026   2.884   3.234 -0.6824  0.0550  0.1554
  185DMF     O1 2702   0.980   2.973   3.305  0.2536 -0.2352  0.3507
  185DMF     H1 2703   0.947   2.756   3.449  1.7461  2.2402  1.1138
  185DMF     H2 2704   1.129   2.742   3.472  1.0163 -1.2134 -0.1610
  185DMF     H3 2705   1.030   2.598   3.415 -1.0801 -0.1976 -0.4341
  185DMF     H4 2706   1.084   2.702   3.080  0.2328 -1.9485 -1.0072
  185DMF     H5 2707   1.054   2.562   3.189  2.1298 -1.8280 -0.6586
  185DMF     H6 2708   1.210   2.651   3.202 -0.5975 -0.5065  1.5684
  185DMF     H7 2709   1.044   2.897   3.125  3.9576  0.8756  0.9197
  186DMF     C1 2710   0.271   1.208   3.474 -0.1187  0.3387  0.1523
  186DMF     N1 2711   0.164   1.176   3.567 -0.4747  0.1498  0.1337
  186DMF     C2 2712   0.074   1.069   3.522 -0.0170  0.3908 -0.2825
  186DMF     C3 2713   0.148   1.226   3.700  0.9511 -0.4404 -0.0297
  186DMF     O1 2714   0.202   1.331   3.743 -0.5011 -0.4966 -0.4320
  186DMF     H1 2715   0.220   1.235   3.380  1.8297  0.9649 -0.7557
  186DMF     H2 2716   0.327   1.115   3.469 -1.9841 -0.8029 -0.1159
  186DMF     H3 2717   0.331   1.294   3.507 -0.4236  0.8465 -0.5883
  186DMF     H4 2718   0.134   0.992   3.474 -0.3836 -1.7136  2.4962
  186DMF     H5 2719   0.007   1.111   3.446  0.1097  0.9902 -0.0746
  186DMF     H6 2720   0.021   1.023   3.607  0.5066  0.5478  0.1279
  186DMF     H7 2721   0.079   1.181   3.773  0.7802 -0.3347 -0.1251
  187DMF     C1 2722   0.795   2.006   2.263  0.2129 -0.2455  0.4627
  187DMF     N1 2723   0.845   1.869   2.232  0.3715 -0.9160  0.4600
  187DMF     C2 2724   0.749   1.755   2.235  0.6617  0.3925 -0.4152
  187DMF     C3 2725   0.978   1.838   2.234 -0.8645 -0.8451 -0.1639
  187DMF     O1 2726   1.066   1.921   2.246  0.0131  0.5158 -0.2894
  187DMF     H1 2727   0.804   2.025   2.371 -0.6924 -0.4786  0.5807
  187DMF     H2 2728   0.692   2.020   2.229  0.0985 -0.0760  0.8738
  187DMF     H3 2729   0.855   2.077   2.205  0.5023 -0.9874 -0.1550
  187DMF     H4 2730   0.724   1.730   2.338  3.1980 -0.5545  0.0019
  187DMF     H5 2731   0.778   1.655   2.202  2.4039 -0.1071  2.5025
  187DMF     H6 2732   0.657   1.792   2.189 -0.9895 -0.9965  1.6721
  187DMF     H7 2733   0.999   1.730   2.222  0.4347 -0.6367  0.2083
  188DMF     C1 2734   1.298   1.094   2.536 -0.4851 -0.3120 -0.2034
  188DMF     N1 2735   1.215   0.988   2.605 -0.6246  0.0187 -0.0320
  188DMF     C2 2736   1.090   1.029   2.670 -0.3809 -0.4829 -0.7166
  188DMF     C3 2737   1.276   0.863   2.626  0.2165  0.3912  0.2809
  188DMF     O1 2738   1.391   0.831   2.584  0.1426 -0.0344 -0.4287
  188DMF     H1 2739   1.310   1.070   2.430 -0.8293 -1.3334 -0.0164
  188DMF     H2 2740   1.401   1.094   2.574 -0.3666  2.2645 -0.4442
  188DMF     H3 2741   1.264   1.196   2.559 -2.7307 -1.5047  2.0278
  188DMF     H4 2742   1.078   0.975   2.765  1.6144 -1.4482 -0.9875
  188DMF     H5 2743   0.999   1.028   2.609 -1.2421 -1.6773  0.5553
  188DMF     H6 2744   1.087   1.133   2.707 -2.6378 -0.5542 -0.6473
  188DMF     H7 2745   1.215   0.785   2.675  1.3997 -0.4582  0.4361
  189DMF     C1 2746   1.156   0.022   2.594  0.3799  0.5366 -0.7966
  189DMF     N1 2747   1.186  -0.092   2.685 -0.5543  0.2070  0.8758
  189DMF     C2 2748   1.158  -0.070   2.828 -0.3487  0.4229 -0.1170
  189DMF     C3 2749   1.213  -0.220   2.634 -0.7277 -0.0295  0.2375
  189DMF     O1 2750   1.226  -0.248   2.512 -0.7537 -0.5880  0.7215
  189DMF     H1 2751   1.054   0.058   2.614  0.3967 -0.4323  1.1918
  189DMF     H2 2752   1.163  -0.003   2.488 -0.0628  0.1681 -0.7447
  189DMF     H3 2753   1.229   0.103   2.605 -1.8139  2.7825 -2.0667
  189DMF     H4 2754   1.075   0.001   2.842 -1.2402 -0.6262  0.0319
  189DMF     H5 2755   1.243  -0.039   2.890 -0.7324  1.9581 -0.3218
  189DMF     H6 2756   1.123  -0.170   2.857  0.7982 -0.6039 -2.1261
  189DMF     H7 2757   1.213  -0.291   2.719  1.3799 -2.1783 -1.5162
  190DMF     C1 2758   2.957   3.260   3.710 -0.3054  0.0987  0.1614
  190DMF     N1 2759   3.084   3.277   3.643  0.2030 -0.5595 -0.3009
  190DMF     C2 2760   3.208   3.300   3.720 -0.3276  0.1119 -0.2015
  190DMF     C3 2761   3.094   3.267   3.501 -0.3425  0.0269  0.2304
  190DMF     O1 2762   3.002   3.280   3.429 -0.4066  0.0328  0.3084
  190DMF     H1 2763   2.960   3.302   3.811  0.6650 -0.6685  0.4569
  190DMF     H2 2764   2.936   3.153   3.722  1.1357  0.0086  2.1343
  190DMF     H3 2765   2.877   3.305   3.650 -1.8877 -0.4517  1.8270
  190DMF     H4 2766   3.295   3.297   3.653  0.7877 -0.3845  1.2482
  190DMF     H5 2767   3.214   3.226   3.801 -2.0988  1.6987  1.4184
  190DMF     H6 2768   3.205   3.398   3.770  0.3824  0.8586 -1.5784
  190DMF     H7 2769   3.195   3.251   3.459 -1.0405 -0.0488 -1.4460
  191DMF     C1 2770   1.935   0.696   2.587  0.3674 -0.0872  0.1157
  191DMF     N1 2771   1.876   0.830   2.586  0.0292 -0.6211  0.2677
  191DMF     C2 2772   1.723   0.832   2.571  0.0085  0.6472  0.1724
  191DMF     C3 2773   1.945   0.948   2.543  0.0835  0.6901  0.1007
  191DMF     O1 2774   2.068   0.949   2.516 -0.2338  0.3961  0.2335
  191DMF     H1 2775   1.878   0.632   2.518 -3.3162  3.4319 -0.2626
  191DMF     H2 2776   1.932   0.656   2.689 -0.8224  0.0302  0.1318
  191DMF     H3 2777   2.042   0.704   2.565  0.0075  0.2138 -1.6081
  191DMF     H4 2778   1.689   0.876   2.665 -0.2792  0.2632  0.2494
  191DMF     H5 2779   1.681   0.732   2.555 -0.3794  0.8026  0.2256
  191DMF     H6 2780   1.707   0.885   2.476  1.7239 -0.9510 -1.0603
  191DMF     H7 2781   1.883   1.039   2.546 -3.7739 -1.9188  2.5381
  192DMF     C1 2782   2.604   3.170   0.333  0.4747 -0.0316 -0.2257
  192DMF     N1 2783   2.586   3.179   0.186 -0.0153  0.1185 -0.3093
  192DMF     C2 2784   2.449   3.213   0.144  0.0872 -0.6946 -0.5934
  192DMF     C3 2785   2.685   3.152   0.090  0.2803  0.0283 -0.3126
  192DMF     O1 2786   2.800   3.121   0.128  0.4928  0.2388 -0.7399
  192DMF     H1 2787   2.671   3.085   0.350  0.0086 -0.2523  0.5269
  192DMF     H2 2788   2.507   3.147   0.378 -0.1345  1.2168 -0.8778
  192DMF     H3 2789   2.641   3.263   0.378  0.2503  0.0521 -0.2145
  192DMF     H4 2790   2.437   3.316   0.110  0.0558 -0.9073 -1.2261
  192DMF     H5 2791   2.375   3.198   0.224  1.1881  1.7320  0.9227
  192DMF     H6 2792   2.416   3.140   0.068  3.7597 -1.7493 -1.2866
  192DMF     H7 2793   2.650   3.145  -0.015 -1.0949  0.6791  0.0975
  193DMF     C1 2794   0.913   0.624   2.233  0.2732  0.7059 -0.6401
  193DMF     N1 2795   1.008   0.529   2.301 -1.3644  0.5720  0.7473
  193DMF     C2 2796   1.026   0.396   2.240  0.3757 -0.3770 -0.1596
  193DMF     C3 2797   1.073   0.563   2.424  0.4567  0.1520 -0.0791
  193DMF     O1 2798   1.048   0.674   2.477  0.3536  0.4240  0.6302
  193DMF     H1 2799   0.825   0.569   2.197  0.1174 -1.5086  2.8644
  193DMF     H2 2800   0.964   0.664   2.145  0.0231 -1.0301 -1.5988
  193DMF     H3 2801   0.881   0.705   2.300  1.7676  0.0341  0.9393
  193DMF     H4 2802   1.041   0.320   2.318 -0.2570  1.5833  1.9441
  193DMF     H5 2803   1.109   0.395   2.169  0.6877 -0.8904  0.2049
  193DMF     H6 2804   0.933   0.363   2.192  0.0303 -1.4148  1.1957
  193DMF     H7 2805   1.132   0.484   2.474 -0.3548 -0.1795  0.3567
  194DMF     C1 2806   2.797   2.414   3.611 -0.5005 -0.1263  0.3867
  194DMF     N1 2807   2.717   2.285   3.624  1.0747  0.2872 -0.3158
  194DMF     C2 2808   2.595   2.272   3.701 -0.1493 -0.9175  0.1699
  194DMF     C3 2809   2.756   2.168   3.545  1.0545  0.1463  0.1727
  194DMF     O1 2810   2.855   2.170   3.476  0.3569 -0.2866  0.4023
  194DMF     H1 2811   2.832   2.432   3.509 -2.4964 -0.0545 -0.3077
  194DMF     H2 2812   2.884   2.400   3.677 -0.2610  0.0576  0.1088
  194DMF     H3 2813   2.736   2.499   3.642 -0.3206  0.7385 -1.5813
  194DMF     H4 2814   2.523   2.222   3.635 -0.1623  2.0419 -2.1778
  194DMF     H5 2815   2.554   2.371   3.725  1.7449  0.5248 -2.2535
  194DMF     H6 2816   2.628   2.203   3.778  0.8009 -1.3738 -0.6406
  194DMF     H7 2817   2.683   2.085   3.546  0.1268  0.9044  3.5635
  195DMF     C1 2818   2.285   2.884   2.525  0.7212  0.0880  0.1073
  195DMF     N1 2819   2.271   3.020   2.468  0.3185 -0.2715 -0.2486
  195DMF     C2 2820   2.228   3.129   2.556  0.0854  0.0459  0.1980
  195DMF     C3 2821   2.317   3.047   2.342 -0.2285 -0.5620 -0.0929
  195DMF     O1 2822   2.359   2.956   2.273  0.7281 -0.3810  0.7072
  195DMF     H1 2823   2.225   2.814   2.465  2.3379 -0.3140 -1.0584
  195DMF     H2 2824   2.238   2.876   2.624 -0.9598  0.7133 -0.6118
  195DMF     H3 2825   2.387   2.850   2.545  0.3931 -1.1015 -0.2038
  195DMF     H4 2826   2.278   3.107   2.651  1.4496  2.5050  0.1114
  195DMF     H5 2827   2.119   3.132   2.571 -0.1102 -3.7332 -0.0523
  195DMF     H6 2828   2.263   3.222   2.510  0.6032  0.3000  1.0999
  195DMF     H7 2829   2.308   3.153   2.313  0.5700 -0.7833 -1.2254
  196DMF     C1 2830   2.235   1.337   2.973  0.3447 -0.5994  1.1485
  196DMF     N1 2831   2.379   1.368   2.997 -0.0286  0.1916  0.1884
  196DMF     C2 2832   2.486   1.302   2.928 -0.3677 -0.4552 -0.2632
  196DMF     C3 2833   2.404   1.478   3.090 -0.0727 -0.5128 -0.0730
  196DMF     O1 2834   2.314   1.542   3.141  0.1759  0.1398 -0.4038
  196DMF     H1 2835   2.181   1.428   2.944  2.6270 -0.0277 -1.4748
  196DMF     H2 2836   2.196   1.312   3.072  2.0046  0.1515  2.0168
  196DMF     H3 2837   2.223   1.254   2.903  1.9992  0.2055 -0.1257
  196DMF     H4 2838   2.476   1.193   2.928 -0.3862 -0.4500  0.7184
  196DMF     H5 2839   2.585   1.336   2.960  1.0059 -2.7478 -1.8770
  196DMF     H6 2840   2.476   1.327   2.821 -1.0549  2.3459  0.4355
  196DMF     H7 2841   2.511   1.497   3.107  0.4435 -1.4569 -2.1795
  197DMF     C1 2842   0.487   2.541   3.197  0.5777 -0.1951 -0.2892
  197DMF     N1 2843   0.371   2.512   3.288 -0.2135 -0.1945  0.2167
  197DMF     C2 2844   0.237   2.532   3.240  0.1730 -0.1142 -0.3794
  197DMF     C3 2845   0.397   2.470   3.421  0.1014 -0.3357 -0.2856
  197DMF     O1 2846   0.509   2.439   3.457  0.5390 -0.2795  0.6077
  197DMF     H1 2847   0.552   2.603   3.260  1.1317 -0.1574 -0.8958
  197DMF     H2 2848   0.455   2.593   3.106  0.8635 -0.6339 -0.6371
  197DMF     H3 2849   0.531   2.443   3.175 -1.9240 -2.1472  2.9482
  197DMF     H4 2850   0.226   2.505   3.134 -1.0056 -1.3962  0.0541
  197DMF     H5 2851   0.212   2.637   3.260  0.3425 -0.0830 -0.3259
  197DMF     H6 2852   0.164   2.465   3.286  2.5136 -0.7656  2.6046
  197DMF     H7 2853   0.306   2.463   3.483  0.6853 -0.0955  0.6030
  198DMF     C1 2854   0.220   1.789   2.272  0.4399 -0.1525  0.2975
  198DMF     N1 2855   0.285   1.861   2.374  0.0128  0.1371  0.3542
  198DMF     C2 2856   0.433   1.854   2.389 -0.2793  1.0112  0.4162
  198DMF     C3 2857   0.210   1.939   2.461  0.0822 -0.3883  0.2781
  198DMF     O1 2858   0.087   1.945   2.470  0.6179 -0.3021  0.5326
  198DMF     H1 2859   0.166   1.699   2.305  2.3165 -1.1354  0.7468
  198DMF     H2 2860   0.289   1.765   2.191  0.3100  1.5089 -0.3245
  198DMF     H3 2861   0.153   1.850   2.211  1.5916  0.5225 -0.2930
  198DMF     H4 2862   0.473   1.766   2.338  1.6010  0.9667  1.8977
  198DMF     H5 2863   0.467   1.849   2.493  2.5791  4.1202 -0.2986
  198DMF     H6 2864   0.483   1.948   2.362  0.6520  0.4014  0.0224
  198DMF     H7 2865   0.280   2.012   2.506 -0.1925  1.4231 -2.1579
  199DMF     C1 2866   2.897   0.600   2.789  1.0299 -0.0793 -0.2669
  199DMF     N1 2867   2.869   0.469   2.735 -0.0089 -0.1291 -0.0917
  199DMF     C2 2868   2.885   0.356   2.831 -0.6275  0.1722  0.0702
  199DMF     C3 2869   2.842   0.441   2.593  0.3041  0.0707 -0.3971
  199DMF     O1 2870   2.821   0.531   2.516  0.7355  0.8024  0.2232
  199DMF     H1 2871   2.804   0.644   2.828  0.3578 -0.5784 -1.2931
  199DMF     H2 2872   2.939   0.672   2.718 -2.0412 -1.8016 -4.0196
  199DMF     H3 2873   2.968   0.596   2.873 -0.9329  2.7813  1.6166
  199DMF     H4 2874   2.992   0.334   2.839 -0.0194  2.0268 -2.3961
  199DMF     H5 2875   2.830   0.275   2.784  0.2861 -0.1106 -0.5302
  199DMF     H6 2876   2.841   0.379   2.929 -0.0508  0.7123  0.2101
  199DMF     H7 2877   2.842   0.333   2.570  1.8841  0.2746 -1.4046
  200DMF     C1 2878   3.049   0.053   2.651 -0.2123 -0.0361  0.6417
  200DMF     N1 2879   3.172   0.132   2.665 -0.4399  0.1315  1.1260
  200DMF     C2 2880   3.259   0.120   2.784  0.5391  0.4905  0.0646
  200DMF     C3 2881   3.199   0.231   2.570 -0.0176  0.0544 -0.3793
  200DMF     O1 2882   3.116   0.248   2.484 -0.1332  0.5998  0.4020
  200DMF     H1 2883   3.010   0.042   2.549  0.8183  0.1864  0.2150
  200DMF     H2 2884   2.971   0.107   2.706  0.8820  1.5025  0.7061
  200DMF     H3 2885   3.074  -0.048   2.686  1.9595  0.8952  1.8666
  200DMF     H4 2886   3.355   0.077   2.753  0.2987 -0.7357  0.9818
  200DMF     H5 2887   3.212   0.049   2.854  1.6275  1.9268  2.2791
  200DMF     H6 2888   3.287   0.213   2.834  1.3435  0.7323 -0.8179
  200DMF     H7 2889   3.294   0.286   2.578  0.2723 -0.6626  1.5423
  201DMF     C1 2890   0.247   0.180   2.826  0.7260 -0.0834 -0.0872
  201DMF     N1 2891   0.285   0.070   2.916  0.4618 -0.6308 -0.2394
  201DMF     C2 2892   0.335   0.111   3.043 -0.8289  0.3271  0.4663
  201DMF     C3 2893   0.266  -0.060   2.882  0.1913  0.0971 -0.1246
  201DMF     O1 2894   0.219  -0.086   2.768 -0.3022  0.2854 -0.0838
  201DMF     H1 2895   0.245   0.277   2.877 -2.5543 -0.3328  0.3726
  201DMF     H2 2896   0.148   0.164   2.781  0.0185  1.9810  0.6895
  201DMF     H3 2897   0.324   0.190   2.748  0.4552  0.2162 -0.3153
  201DMF     H4 2898   0.364   0.020   3.097 -2.0451 -1.3606 -1.6489
  201DMF     H5 2899   0.252   0.156   3.099  0.6954  1.7216  1.6361
  201DMF     H6 2900   0.417   0.183   3.031 -0.9221 -0.0478 -3.0686
  201DMF     H7 2901   0.294  -0.135   2.959 -1.6779 -1.3391 -0.8022
  202DMF     C1 2902   0.926   0.422   3.792  0.0811 -0.1057  0.2153
  202DMF     N1 2903   1.039   0.515   3.778  0.5817 -0.0098 -0.3615
  202DMF     C2 2904   1.112   0.542   3.650 -0.6074  0.0542  0.0929
  202DMF     C3 2905   1.086   0.586   3.897 -0.3239 -0.2280  0.1536
  202DMF     O1 2906   1.018   0.590   3.997  0.2030 -0.2527  0.5191
  202DMF     H1 2907   0.958   0.323   3.757  2.0716  0.2620  0.9830
  202DMF     H2 2908   0.842   0.459   3.731  1.2644 -1.2233 -2.1668
  202DMF     H3 2909   0.900   0.415   3.899 -0.4356 -3.0844 -0.0628
  202DMF     H4 2910   1.043   0.563   3.567 -1.4041 -0.6279  0.5678
  202DMF     H5 2911   1.168   0.452   3.625 -2.6946 -1.5890  1.0956
  202DMF     H6 2912   1.177   0.629   3.665 -2.3856  1.5566 -0.5922
  202DMF     H7 2913   1.172   0.653   3.883 -1.3597  1.1765  0.4233
  203DMF     C1 2914   0.869   0.857   2.944  0.5503 -0.0228 -0.8338
  203DMF     N1 2915   0.872   0.761   2.824 -0.5313 -0.4795  0.0870
  203DMF     C2 2916   0.957   0.643   2.826  0.3983 -0.3479 -0.1035
  203DMF     C3 2917   0.795   0.778   2.710  0.3839  0.0674  0.1326
  203DMF     O1 2918   0.703   0.860   2.693  0.5497  0.1572 -0.5289
  203DMF     H1 2919   0.801   0.939   2.916 -0.3773 -0.6135 -0.3471
  203DMF     H2 2920   0.971   0.895   2.957  0.1882  0.3319  1.2993
  203DMF     H3 2921   0.829   0.803   3.031  0.6980 -1.5154 -1.6903
  203DMF     H4 2922   1.054   0.672   2.869  0.5784 -0.7625 -0.2221
  203DMF     H5 2923   0.974   0.600   2.726 -1.0983  0.4120 -0.6848
  203DMF     H6 2924   0.909   0.570   2.892  2.0807 -0.4065  1.0993
  203DMF     H7 2925   0.815   0.698   2.636  2.6352  0.0491  0.7074
  204DMF     C1 2926   1.406   1.308   2.953 -0.0868 -1.0143  0.1198
  204DMF     N1 2927   1.390   1.171   2.915  0.3500 -0.4565 -0.2101
  204DMF     C2 2928   1.496   1.103   2.847  0.8244  0.3310  0.1943
  204DMF     C3 2929   1.278   1.097   2.957  0.8965  0.2728 -0.1810
  204DMF     O1 2930   1.194   1.152   3.024 -0.0305 -0.0867 -0.3935
  204DMF     H1 2931   1.447   1.366   2.870 -1.1314  0.9149  0.9177
  204DMF     H2 2932   1.486   1.314   3.028  1.1840 -0.5071 -1.2533
  204DMF     H3 2933   1.314   1.358   2.987  0.2568  0.9437 -1.6869
  204DMF     H4 2934   1.560   1.170   2.788  0.5549  1.5149  1.2160
  204DMF     H5 2935   1.473   1.031   2.769  2.8794  2.1851 -2.2077
  204DMF     H6 2936   1.558   1.067   2.931 -0.8016 -1.0874  0.8169
  204DMF     H7 2937   1.283   0.988   2.938  1.1890 -0.1682  2.2498
  205DMF     C1 2938   1.745   1.567   2.979 -0.5460  0.3345  0.2179
  205DMF     N1 2939   1.851   1.539   3.081 -0.6886 -0.1404 -0.4806
  205DMF     C2 2940   1.908   1.656   3.154 -0.0053  0.1511 -0.1250
  205DMF     C3 2941   1.888   1.411   3.117  0.0284 -0.0923 -0.2173
  205DMF     O1 2942   1.858   1.310   3.054 -0.4998 -0.2037  1.2647
  205DMF     H1 2943   1.787   1.624   2.896  1.3971 -0.6424  0.5048
  205DMF     H2 2944   1.668   1.628   3.028 -1.0509 -1.0398  1.1727
  205DMF     H3 2945   1.700   1.475   2.938  1.3604 -1.0125  1.0881
  205DMF     H4 2946   1.831   1.694   3.223  0.8169  0.4848  0.6166
  205DMF     H5 2947   1.933   1.732   3.080 -2.2560  0.1767 -0.9099
  205DMF     H6 2948   2.000   1.636   3.210  0.2568 -0.0493 -0.6231
  205DMF     H7 2949   1.960   1.411   3.202  1.2015  1.2282 -1.1893
  206DMF     C1 2950   2.367   0.246   0.373  0.1135  0.2623  0.4026
  206DMF     N1 2951   2.248   0.154   0.355 -0.3792  0.4360  0.1084
  206DMF     C2 2952   2.125   0.209   0.306 -0.1479 -0.2251  0.4066
  206DMF     C3 2953   2.241   0.028   0.425 -0.4433 -0.8450 -0.4930
  206DMF     O1 2954   2.334  -0.006   0.496  0.4064 -0.1304  0.0283
  206DMF     H1 2955   2.455   0.205   0.322  0.3610 -0.7917  1.6475
  206DMF     H2 2956   2.398   0.250   0.479 -1.4598  2.7145  0.8080
  206DMF     H3 2957   2.349   0.349   0.342 -0.0258 -0.4472 -1.9474
  206DMF     H4 2958   2.043   0.208   0.378 -0.9804 -1.1380 -0.5470
  206DMF     H5 2959   2.082   0.150   0.224  1.6281 -0.8949 -0.0712
  206DMF     H6 2960   2.138   0.311   0.267  0.0966  0.8151  3.1498
  206DMF     H7 2961   2.155  -0.035   0.395 -3.3133  2.6668  0.0204
  207DMF     C1 2962   2.748   0.970   2.334 -0.0020 -0.1945  0.2500
  207DMF     N1 2963   2.751   0.828   2.292  0.6136 -0.4890  0.0157
  207DMF     C2 2964   2.637   0.744   2.319  0.0476 -0.1079 -0.7795
  207DMF     C3 2965   2.870   0.760   2.272 -0.7978 -0.0158  0.4517
  207DMF     O1 2966   2.977   0.816   2.246  0.2331 -0.0757  0.8172
  207DMF     H1 2967   2.839   0.993   2.391  1.6202  0.1767 -2.4292
  207DMF     H2 2968   2.667   0.980   2.408 -0.5119  1.4440 -0.5155
  207DMF     H3 2969   2.728   1.044   2.256  0.6355  0.4296  0.6686
  207DMF     H4 2970   2.658   0.688   2.411 -0.3149  1.5500  0.3347
  207DMF     H5 2971   2.638   0.668   2.240  0.5371  1.3462 -2.1907
  207DMF     H6 2972   2.541   0.796   2.330  0.6975  0.9246 -0.0125
  207DMF     H7 2973   2.859   0.650   2.273 -0.5270 -0.0441  0.3971
  208DMF     C1 2974   0.501   0.838   0.152 -0.3676  0.3504  0.4948
  208DMF     N1 2975   0.639   0.796   0.122 -0.8601 -0.2794  0.0179
  208DMF     C2 2976   0.708   0.876   0.013  0.2476  0.2869 -0.2374
  208DMF     C3 2977   0.687   0.668   0.162 -0.0234 -0.2603 -0.5614
  208DMF     O1 2978   0.626   0.594   0.242  0.0045 -0.5473  0.5302
  208DMF     H1 2979   0.466   0.913   0.081  0.3754  1.0105  0.8120
  208DMF     H2 2980   0.509   0.872   0.256  0.6019 -1.9169  1.1970
  208DMF     H3 2981   0.434   0.752   0.145  2.3145 -1.7947 -0.0697
  208DMF     H4 2982   0.726   0.976   0.054 -0.7108 -1.1829  4.1344
  208DMF     H5 2983   0.645   0.886  -0.076 -0.1843 -1.6440 -0.1845
  208DMF     H6 2984   0.801   0.831  -0.024  1.0440  0.7245  1.1819
  208DMF     H7 2985   0.784   0.635   0.121  1.6599  3.3221  0.3010
  209DMF     C1 2986   3.260   2.681   2.474  0.0193 -0.3081 -0.9459
  209DMF     N1 2987   3.130   2.733   2.421 -0.2172  0.3439 -1.0474
  209DMF     C2 2988   3.008   2.747   2.514  0.3282 -0.8431  0.2176
  209DMF     C3 2989   3.123   2.793   2.293  0.3574 -0.1896 -0.1651
  209DMF     O1 2990   3.225   2.815   2.226  0.3489  0.0857 -0.8821
  209DMF     H1 2991   3.248   2.671   2.582 -0.9714 -1.1369 -1.1211
  209DMF     H2 2992   3.334   2.761   2.460  1.6720 -2.2375 -3.8616
  209DMF     H3 2993   3.284   2.577   2.449  0.3362 -0.7337  1.0380
  209DMF     H4 2994   2.933   2.689   2.459 -0.6255 -0.7809  1.4414
  209DMF     H5 2995   2.971   2.849   2.531  3.1475  0.3430 -0.5004
  209DMF     H6 2996   3.023   2.697   2.610 -0.0976 -0.3288  0.5568
  209DMF     H7 2997   3.022   2.833   2.272 -1.0610 -3.4071  0.2307
  210DMF     C1 2998   0.186   1.403   3.116 -0.3939  0.1983 -0.1299
  210DMF     N1 2999   0.085   1.464   3.026 -0.4089 -0.8017 -0.2982
  210DMF     C2 3000   0.031   1.390   2.909 -0.1710  0.4192 -0.0746
  210DMF     C3 3001   0.018   1.581   3.061  0.4313 -0.3815  0.1690
  210DMF     O1 3002   0.059   1.654   3.149  0.3337 -0.4879 -0.6593
  210DMF     H1 3003   0.221   1.302   3.089 -0.9058  0.6616 -2.6812
  210DMF     H2 3004   0.146   1.390   3.217  2.1594 -0.4952  0.8348
  210DMF     H3 3005   0.276   1.466   3.113 -0.5964  0.5019  0.2191
  210DMF     H4 3006  -0.045   1.321   2.949  2.2746 -1.9136  0.6363
  210DMF     H5 3007   0.112   1.335   2.861 -0.4998 -0.2463  0.1316
  210DMF     H6 3008  -0.022   1.457   2.839  1.6471  3.0784  1.0076
  210DMF     H7 3009  -0.073   1.595   3.000 -0.1648  1.9252  1.4957
  211DMF     C1 3010   0.063   2.413   2.228  0.2938  0.1490  0.4795
  211DMF     N1 3011   0.078   2.291   2.316 -0.1866  0.2048 -0.7736
  211DMF     C2 3012   0.075   2.161   2.250 -0.2350 -0.0553 -0.0295
  211DMF     C3 3013   0.122   2.306   2.451  0.6790  0.2699  0.3742
  211DMF     O1 3014   0.122   2.413   2.511  0.1815  0.2994  0.4913
  211DMF     H1 3015   0.127   2.405   2.140  2.2584 -0.5121  1.9192
  211DMF     H2 3016   0.106   2.490   2.294  1.8560 -1.6590  1.6378
  211DMF     H3 3017  -0.044   2.434   2.219  0.2843  1.5155  3.1033
  211DMF     H4 3018   0.032   2.168   2.149  0.9058 -1.0720 -0.5961
  211DMF     H5 3019   0.003   2.092   2.296 -0.8548  1.2348  0.9784
  211DMF     H6 3020   0.177   2.123   2.251 -0.1637  0.1347  0.0635
  211DMF     H7 3021   0.161   2.215   2.501  0.3362 -0.9186 -1.4964
  212DMF     C1 3022   1.745   2.382   2.251  0.0663  0.3601 -0.5944
  212DMF     N1 3023   1.699   2.449   2.369  0.5679  0.5161 -0.3868
  212DMF     C2 3024   1.682   2.387   2.498  0.4379  0.3162  0.4030
  212DMF     C3 3025   1.647   2.582   2.358 -0.0695 -0.0661 -0.5708
  212DMF     O1 3026   1.648   2.641   2.253 -0.5029  0.0972  0.0563
  212DMF     H1 3027   1.811   2.455   2.202  0.0399  1.5464  1.1199
  212DMF     H2 3028   1.661   2.347   2.189  1.3934 -1.4618 -1.4359
  212DMF     H3 3029   1.817   2.302   2.276 -0.3059 -0.7892 -2.9492
  212DMF     H4 3030   1.669   2.473   2.566 -0.3643  0.9514 -0.5353
  212DMF     H5 3031   1.769   2.330   2.533 -0.1278  0.3514  1.8931
  212DMF     H6 3032   1.589   2.329   2.498  0.7752 -0.2228  0.6384
  212DMF     H7 3033   1.598   2.626   2.447  0.5565 -0.9679  0.2353
  213DMF     C1 3034   3.373   3.361   3.092  0.1472  0.0485 -0.0603
  213DMF     N1 3035   3.353   3.230   3.144  0.1754  0.3427 -0.0993
  213DMF     C2 3036   3.213   3.194   3.179  0.0461  0.5679 -0.2808
  213DMF     C3 3037   3.455   3.142   3.170 -0.1663 -0.5162  0.0279
  213DMF     O1 3038   3.575   3.170   3.140 -0.3080  0.5081 -0.2494
  213DMF     H1 3039   3.398   3.355   2.985  0.2529  1.3218 -0.1233
  213DMF     H2 3040   3.463   3.410   3.131 -0.6913  1.5735  0.0429
  213DMF     H3 3041   3.285   3.427   3.097 -0.6741 -1.1953  3.0457
  213DMF     H4 3042   3.157   3.168   3.088 -0.2390  2.8318 -0.7794
  213DMF     H5 3043   3.159   3.270   3.237 -0.9217 -1.1073  1.0764
  213DMF     H6 3044   3.223   3.105   3.243  1.1857  0.3844 -0.7039
  213DMF     H7 3045   3.421   3.049   3.220 -2.1616 -0.3044 -0.8932
  214DMF     C1 3046   0.750   1.776   3.299  0.1165  0.8113  0.2530
  214DMF     N1 3047   0.774   1.680   3.408  0.8746  0.6705  0.0176
  214DMF     C2 3048   0.790   1.721   3.549  0.5718  0.4278  0.1938
  214DMF     C3 3049   0.774   1.536   3.381 -0.2365  0.0574 -0.0665
  214DMF     O1 3050   0.768   1.491   3.267 -0.1669  0.3659 -0.2616
  214DMF     H1 3051   0.677   1.855   3.319  2.8896  3.2214  1.1890
  214DMF     H2 3052   0.722   1.728   3.204  0.3620  1.4114 -0.1223
  214DMF     H3 3053   0.844   1.828   3.282  1.1229 -0.6253  1.2672
  214DMF     H4 3054   0.864   1.651   3.590 -0.1600  0.5828  1.8163
  214DMF     H5 3055   0.697   1.702   3.604  1.6662 -1.6218  1.4580
  214DMF     H6 3056   0.814   1.827   3.559  0.0487  0.8290 -2.5794
  214DMF     H7 3057   0.803   1.475   3.468 -1.4706  0.9111  0.9559
  215DMF     C1 3058   0.621   1.186   2.872  0.2132 -0.4725 -0.1331
  215DMF     N1 3059   0.606   1.312   2.954 -0.6513  0.3213 -0.5398
  215DMF     C2 3060   0.667   1.434   2.891  0.4558 -0.7157 -0.6021
  215DMF     C3 3061   0.536   1.324   3.073 -0.5995 -0.0253 -0.5256
  215DMF     O1 3062   0.497   1.227   3.124 -0.3835 -0.0013 -0.0342
  215DMF     H1 3063   0.638   1.101   2.938  0.6222  0.2765  0.7399
  215DMF     H2 3064   0.712   1.197   2.812 -0.6877 -3.0794 -2.0620
  215DMF     H3 3065   0.534   1.178   2.805 -0.4063 -0.9491  0.7114
  215DMF     H4 3066   0.706   1.507   2.963  0.3369  0.8362 -2.0919
  215DMF     H5 3067   0.589   1.494   2.843 -1.2019 -1.8780  0.6321
  215DMF     H6 3068   0.750   1.433   2.818 -1.0790 -0.8642 -2.3711
  215DMF     H7 3069   0.536   1.423   3.123  0.0681 -1.3840  2.2842
  216DMF     C1 3070   2.967   1.313   2.907  0.6164  0.4086  0.3446
  216DMF     N1 3071   2.952   1.414   2.801 -0.5587  0.6561  0.0491
  216DMF     C2 3072   2.833   1.402   2.721 -0.0017  0.0534 -0.5487
  216DMF     C3 3073   3.034   1.527   2.805  0.6041 -0.7118 -0.5644
  216DMF     O1 3074   3.134   1.529   2.871 -0.5113  0.4526 -0.3589
  216DMF     H1 3075   2.993   1.369   2.998 -1.9743  0.6197  1.0003
  216DMF     H2 3076   3.034   1.230   2.883 -2.6162 -1.9891 -0.7050
  216DMF     H3 3077   2.864   1.278   2.918 -0.2602  2.5214 -0.7660
  216DMF     H4 3078   2.755   1.457   2.776  0.1501  1.0590 -1.3137
  216DMF     H5 3079   2.806   1.299   2.697  1.7028 -0.5813  0.1367
  216DMF     H6 3080   2.848   1.456   2.626  1.0662  0.1531 -0.3359
  216DMF     H7 3081   2.986   1.617   2.763 -0.3078 -0.6119  0.6481
  217DMF     C1 3082   1.267   1.954   2.844 -0.1263  0.2462 -0.6111
  217DMF     N1 3083   1.355   1.991   2.956 -0.1196 -0.2748  0.1076
  217DMF     C2 3084   1.329   2.116   3.038 -0.5390 -0.4607 -0.3577
  217DMF     C3 3085   1.458   1.902   2.997  0.0710  0.6311 -0.5441
  217DMF     O1 3086   1.464   1.788   2.950 -0.0858  0.0484 -0.1025
  217DMF     H1 3087   1.320   1.946   2.748 -0.0403 -2.0242 -0.3892
  217DMF     H2 3088   1.193   2.034   2.826 -0.0525  0.6918  1.0283
  217DMF     H3 3089   1.217   1.859   2.862 -0.9714  0.7745 -0.1202
  217DMF     H4 3090   1.226   2.125   3.074 -0.5468  2.2056 -0.8906
  217DMF     H5 3091   1.335   2.196   2.962 -1.4449 -1.4616 -1.5119
  217DMF     H6 3092   1.408   2.124   3.113  0.0754  1.0325 -1.1373
  217DMF     H7 3093   1.530   1.947   3.067 -1.3769  0.8034  0.8607
  218DMF     C1 3094   0.362   1.445   2.238  0.4963  0.7082 -0.4197
  218DMF     N1 3095   0.395   1.426   2.377 -0.1036 -0.0916 -0.6492
  218DMF     C2 3096   0.297   1.361   2.469  0.0693  0.1612  0.6312
  218DMF     C3 3097   0.514   1.473   2.428  0.3246  0.4261  0.3176
  218DMF     O1 3098   0.598   1.522   2.357  0.6865 -0.2461 -0.0808
  218DMF     H1 3099   0.255   1.434   2.215  0.9362  0.0520 -2.1596
  218DMF     H2 3100   0.411   1.372   2.173  0.4565  0.8996 -0.6663
  218DMF     H3 3101   0.394   1.544   2.204 -1.2377  0.8118 -1.8057
  218DMF     H4 3102   0.260   1.270   2.420 -1.2695  1.3665 -0.6530
  218DMF     H5 3103   0.216   1.429   2.498 -1.2104  0.2067 -2.8130
  218DMF     H6 3104   0.360   1.318   2.547  1.1905  0.8838  0.1341
  218DMF     H7 3105   0.528   1.465   2.537  0.1042 -0.2234  0.2954
  219DMF     C1 3106   0.141   2.944   1.120 -0.0531 -0.4752 -0.5774
  219DMF     N1 3107   0.006   2.980   1.158  0.4312  0.0352  0.2922
  219DMF     C2 3108  -0.071   2.892   1.252 -0.1269 -0.4700 -1.0691
  219DMF     C3 3109  -0.053   3.100   1.116 -0.0303  0.6109  1.0292
  219DMF     O1 3110   0.007   3.184   1.045  0.0945 -0.0856  0.0176
  219DMF     H1 3111   0.193   3.023   1.065  0.5498 -1.0362 -0.8272
  219DMF     H2 3112   0.148   2.849   1.066  0.5265 -1.2566  0.8470
  219DMF     H3 3113   0.207   2.924   1.206  0.0399 -3.2042 -1.2272
  219DMF     H4 3114  -0.177   2.901   1.226 -1.3117 -0.6400  3.4492
  219DMF     H5 3115  -0.056   2.908   1.359 -0.7216  1.3000 -1.2318
  219DMF     H6 3116  -0.034   2.789   1.239 -1.5081 -0.5854 -4.6647
  219DMF     H7 3117  -0.158   3.120   1.143 -0.4939 -0.3712 -0.0103
  220DMF     C1 3118   3.013   1.741   2.292  0.0590 -0.5337 -0.2415
  220DMF     N1 3119   3.150   1.746   2.333  0.8038 -0.2283 -0.2183
  220DMF     C2 3120   3.242   1.803   2.247  0.3768 -0.3975  0.9504
  220DMF     C3 3121   3.199   1.688   2.450 -0.3819 -0.0888  0.1302
  220DMF     O1 3122   3.119   1.660   2.543 -0.6381  0.7502 -0.3986
  220DMF     H1 3123   2.951   1.798   2.363 -1.2464  0.7161 -2.3291
  220DMF     H2 3124   2.972   1.640   2.280  0.3472 -0.3443 -3.1312
  220DMF     H3 3125   3.002   1.784   2.192  1.1293 -2.7741 -1.3649
  220DMF     H4 3126   3.249   1.733   2.164  1.4121 -1.2633  1.7509
  220DMF     H5 3127   3.340   1.815   2.295  0.2673  3.1458  0.4396
  220DMF     H6 3128   3.203   1.901   2.216 -0.5392 -0.6836  1.2075
  220DMF     H7 3129   3.309   1.676   2.444 -0.5708 -3.2224  2.0230
  221DMF     C1 3130   1.805   0.117   0.184  0.1148  0.1275  0.2019
  221DMF     N1 3131   1.801   0.250   0.114 -0.0068 -0.0824  0.3847
  221DMF     C2 3132   1.794   0.238  -0.031 -0.5985 -0.0189  0.1112
  221DMF     C3 3133   1.786   0.377   0.180 -0.3132  0.5635  0.1697
  221DMF     O1 3134   1.785   0.395   0.302  0.5463  0.6684 -0.0083
  221DMF     H1 3135   1.785   0.138   0.290 -0.9041 -0.7290  0.1768
  221DMF     H2 3136   1.907   0.078   0.175  0.8420  1.5637  1.7763
  221DMF     H3 3137   1.725   0.053   0.146 -0.1774 -1.2369  3.0068
  221DMF     H4 3138   1.890   0.210  -0.076 -0.3806  0.9885 -0.0589
  221DMF     H5 3139   1.753   0.331  -0.072  0.3315  0.1546 -0.4288
  221DMF     H6 3140   1.711   0.173  -0.062 -0.5416 -0.3137  0.5742
  221DMF     H7 3141   1.784   0.466   0.114  0.7255 -1.0091 -2.0700
  222DMF     C1 3142   2.926   1.788   3.116 -0.7718 -0.7288  0.1677
  222DMF     N1 3143   2.914   1.644   3.147  0.4225 -0.3779  0.5182
  222DMF     C2 3144   3.033   1.567   3.189 -0.2348  0.5380 -0.1492
  222DMF     C3 3145   2.797   1.580   3.116 -0.5820 -0.2010  0.4350
  222DMF     O1 3146   2.713   1.629   3.046 -0.2766 -0.0974  0.5963
  222DMF     H1 3147   2.966   1.795   3.014 -0.7287  3.4872  0.4057
  222DMF     H2 3148   2.976   1.860   3.182 -0.2481  0.4674 -1.5204
  222DMF     H3 3149   2.824   1.824   3.101 -0.8754 -0.5732  1.2061
  222DMF     H4 3150   3.115   1.598   3.123 -0.5168  0.8954 -0.3349
  222DMF     H5 3151   3.012   1.460   3.200  1.1781 -0.0664 -2.8928
  222DMF     H6 3152   3.066   1.602   3.288 -0.5772  0.3608  0.0258
  222DMF     H7 3153   2.791   1.480   3.161  2.5769 -1.2754 -1.3511
  223DMF     C1 3154   1.129   1.224   0.036 -0.5293 -0.2871 -0.1832
  223DMF     N1 3155   1.225   1.267  -0.060  0.2501  0.1071  0.3019
  223DMF     C2 3156   1.337   1.351  -0.020 -0.0341 -0.1952 -0.8459
  223DMF     C3 3157   1.196   1.252  -0.201 -0.3799 -0.0709 -0.3629
  223DMF     O1 3158   1.098   1.187  -0.240  0.1952  0.3332  0.2553
  223DMF     H1 3159   1.179   1.169   0.117  0.2278  0.1652 -0.3350
  223DMF     H2 3160   1.054   1.162  -0.014  0.8745 -0.5339 -2.0419
  223DMF     H3 3161   1.080   1.315   0.073  0.5509 -0.7304  2.4510
  223DMF     H4 3162   1.328   1.377   0.086 -0.9557  0.3744 -1.0580
  223DMF     H5 3163   1.340   1.447  -0.074 -0.5217  0.2820 -0.0412
  223DMF     H6 3164   1.431   1.298  -0.041 -0.2000 -1.3950  1.3117
  223DMF     H7 3165   1.283   1.286  -0.260  0.3899 -1.1499  0.1425
  224DMF     C1 3166   1.791   2.202   0.074 -0.8372 -0.4427  0.5733
  224DMF     N1 3167   1.797   2.274   0.206  0.4561  0.5134 -0.9685
  224DMF     C2 3168   1.937   2.311   0.258 -0.0009  0.0940  0.0227
  224DMF     C3 3169   1.676   2.342   0.253 -0.4202 -0.2447 -0.2681
  224DMF     O1 3170   1.561   2.310   0.223 -0.6124 -0.5219  0.0186
  224DMF     H1 3171   1.692   2.159   0.052 -0.8565 -1.4434  2.5071
  224DMF     H2 3172   1.868   2.125   0.073  0.6665  1.0237  1.2781
  224DMF     H3 3173   1.815   2.275  -0.005 -0.2915  0.1687  1.3009
  224DMF     H4 3174   2.009   2.232   0.235  0.9906  0.5958  1.3537
  224DMF     H5 3175   1.938   2.339   0.365  2.2013 -0.4223  0.1571
  224DMF     H6 3176   1.973   2.407   0.219 -1.6689  0.5537 -0.4325
  224DMF     H7 3177   1.703   2.412   0.335 -0.1127 -1.7360  0.9354
  225DMF     C1 3178   0.766   0.642   0.629 -0.4629  0.6223  1.1251
  225DMF     N1 3179   0.882   0.589   0.559 -0.1236 -0.2224 -0.5729
  225DMF     C2 3180   0.871   0.458   0.496 -0.0384 -0.2518 -0.5016
  225DMF     C3 3181   0.988   0.673   0.519  0.3076  0.2818  0.4483
  225DMF     O1 3182   0.994   0.794   0.541  0.6487  0.5259  0.5205
  225DMF     H1 3183   0.748   0.586   0.721  2.0085 -2.3740 -0.0982
  225DMF     H2 3184   0.680   0.638   0.561 -0.5536 -0.7464  1.3100
  225DMF     H3 3185   0.770   0.747   0.657  0.5369  0.8278  0.2770
  225DMF     H4 3186   0.945   0.383   0.528 -1.0055 -0.8282  0.4465
  225DMF     H5 3187   0.885   0.476   0.389  0.8634  0.8773 -0.2006
  225DMF     H6 3188   0.770   0.415   0.506 -0.5220  0.7223 -1.1684
  225DMF     H7 3189   1.057   0.624   0.448 -2.6128 -2.0314 -0.8575
  226DMF     C1 3190   2.072   2.566   2.868  0.0313 -0.1637 -0.6973
  226DMF     N1 3191   2.168   2.500   2.955 -0.2571 -0.5971 -0.8762
  226DMF     C2 3192   2.271   2.586   3.014 -0.0350 -0.3009  0.4916
  226DMF     C3 3193   2.169   2.364   2.978 -0.9226 -0.5430  0.2440
  226DMF     O1 3194   2.082   2.292   2.931  0.1942  0.0364  0.0195
  226DMF     H1 3195   2.041   2.666   2.902 -0.7625 -0.7319  0.2934
  226DMF     H2 3196   1.975   2.516   2.857 -0.0664 -0.0127 -0.5157
  226DMF     H3 3197   2.121   2.563   2.770  0.7700  1.4144 -0.3876
  226DMF     H4 3198   2.229   2.671   3.069 -1.5087  0.7745 -2.1979
  226DMF     H5 3199   2.334   2.634   2.938 -0.7837 -1.0039 -0.5759
  226DMF     H6 3200   2.328   2.531   3.090  0.9914  2.8265  2.0680
  226DMF     H7 3201   2.245   2.334   3.052  0.1299 -0.3014 -0.7275
  227DMF     C1 3202   1.733   2.671   2.793  0.1796  0.0297 -0.6733
  227DMF     N1 3203   1.805   2.796   2.829 -0.0073 -0.0284 -0.3759
  227DMF     C2 3204   1.750   2.879   2.941  0.1467  0.5122 -0.7980
  227DMF     C3 3205   1.914   2.846   2.756  0.3015 -0.0034 -0.0164
  227DMF     O1 3206   1.972   2.780   2.670 -1.1864 -0.2056 -0.4617
  227DMF     H1 3207   1.762   2.580   2.849 -4.3145 -0.8752  0.4561
  227DMF     H2 3208   1.763   2.649   2.690  0.5931 -1.8011 -0.1865
  227DMF     H3 3209   1.624   2.683   2.794 -0.1719 -2.6951 -0.7688
  227DMF     H4 3210   1.738   2.818   3.032  1.8445  1.5066  0.1237
  227DMF     H5 3211   1.653   2.919   2.911 -0.0328  0.7956  0.1610
  227DMF     H6 3212   1.827   2.953   2.967  0.7571 -0.3970  0.0011
  227DMF     H7 3213   1.929   2.952   2.783 -2.1951  0.7550 -1.4639
  228DMF     C1 3214   0.435   2.296   2.260 -0.4097  0.2380 -0.3419
  228DMF     N1 3215   0.422   2.374   2.382 -0.1657  0.0833  0.1321
  228DMF     C2 3216   0.399   2.518   2.378 -0.3027 -0.7365  1.0064
  228DMF     C3 3217   0.427   2.312   2.512  0.0741 -0.0131 -0.5559
  228DMF     O1 3218   0.419   2.191   2.525  0.3141  0.1172  0.3841
  228DMF     H1 3219   0.446   2.353   2.168  1.8606 -1.5873 -1.2596
  228DMF     H2 3220   0.348   2.230   2.246 -1.0421  0.8692  0.5842
  228DMF     H3 3221   0.528   2.238   2.255 -0.0716  0.9768 -3.7519
  228DMF     H4 3222   0.476   2.583   2.420 -2.2814  2.4164 -0.0552
  228DMF     H5 3223   0.303   2.543   2.426 -0.3760 -1.2273  1.1174
  228DMF     H6 3224   0.393   2.551   2.273 -3.1622 -1.8528  0.7735
  228DMF     H7 3225   0.422   2.384   2.595 -1.3765  0.1128 -0.7389
  229DMF     C1 3226   3.404   2.765   2.988 -0.0315 -0.5264 -0.1356
  229DMF     N1 3227   3.364   2.681   2.874  0.1774 -0.8942 -0.7674
  229DMF     C2 3228   3.448   2.676   2.755 -0.5551 -0.1139  0.1062
  229DMF     C3 3229   3.240   2.597   2.878 -0.4897  0.4998  0.0167
  229DMF     O1 3230   3.168   2.593   2.972 -0.3016  0.0313 -0.2996
  229DMF     H1 3231   3.389   2.712   3.082  0.2382  0.0666  0.2491
  229DMF     H2 3232   3.340   2.854   2.978  1.7808  0.8231 -0.0313
  229DMF     H3 3233   3.512   2.786   2.991 -0.4995  1.9973  0.8743
  229DMF     H4 3234   3.431   2.583   2.699 -1.1549 -0.9560  1.6804
  229DMF     H5 3235   3.554   2.675   2.783 -0.2375  0.9325 -0.9904
  229DMF     H6 3236   3.428   2.767   2.696 -0.2263  0.3675  0.7371
  229DMF     H7 3237   3.219   2.526   2.797  1.0875 -0.4323  0.3907
  230DMF     C1 3238   2.027   2.560   2.439  0.1437  0.0520 -0.4796
  230DMF     N1 3239   2.100   2.517   2.314  0.1005  0.0102 -0.0198
  230DMF     C2 3240   2.131   2.625   2.218 -0.3781  0.6448 -0.5209
  230DMF     C3 3241   2.167   2.397   2.317  0.3616 -0.0666  0.3544
  230DMF     O1 3242   2.151   2.304   2.394  0.2983 -0.1421 -0.6148
  230DMF     H1 3243   2.091   2.587   2.523 -0.6607 -1.2609  0.5821
  230DMF     H2 3244   1.970   2.472   2.473 -2.4633  2.2844  1.0733
  230DMF     H3 3245   1.955   2.638   2.410 -2.7473 -1.0835  3.2248
  230DMF     H4 3246   2.213   2.598   2.151  0.4377  1.5219  0.1042
  230DMF     H5 3247   2.145   2.726   2.260  0.3538  0.6023 -0.6579
  230DMF     H6 3248   2.044   2.632   2.152 -1.3072  1.5352  0.7623
  230DMF     H7 3249   2.244   2.389   2.238  0.7777  1.3620  0.6085
  231DMF     C1 3250   2.827   2.959   2.840 -0.3055  0.4756 -0.1429
  231DMF     N1 3251   2.858   2.832   2.913  0.3681 -0.3613  0.0772
  231DMF     C2 3252   2.840   2.706   2.843 -0.1331  0.2225 -0.2117
  231DMF     C3 3253   2.898   2.834   3.052  0.2935  0.2687 -0.2884
  231DMF     O1 3254   2.918   2.938   3.113  0.1484  0.3974 -0.4650
  231DMF     H1 3255   2.772   3.034   2.899  3.5002  2.7560  0.6892
  231DMF     H2 3256   2.758   2.924   2.763  0.9458 -0.0050 -1.0616
  231DMF     H3 3257   2.915   3.015   2.805 -1.5182  1.0521 -2.3810
  231DMF     H4 3258   2.780   2.725   2.754 -0.4047  2.4001  0.4019
  231DMF     H5 3259   2.796   2.625   2.903 -2.5940  0.5545 -1.5266
  231DMF     H6 3260   2.945   2.684   2.821  0.5797  2.8200  0.4102
  231DMF     H7 3261   2.903   2.739   3.107  2.3088  0.2825 -0.4364
  232DMF     C1 3262   2.994   0.965   3.066 -0.2757  1.0338 -0.3162
  232DMF     N1 3263   3.111   0.913   3.136 -1.1179 -0.0213  0.4738
  232DMF     C2 3264   3.131   0.760   3.138  0.0361 -0.3346 -0.2835
  232DMF     C3 3265   3.208   0.998   3.180  0.6544  0.5309 -0.1249
  232DMF     O1 3266   3.195   1.115   3.192 -0.0802  0.0329  0.4219
  232DMF     H1 3267   3.026   1.052   3.008  1.7138  1.4554  1.3472
  232DMF     H2 3268   2.911   0.988   3.135 -0.4087 -0.6914  0.1154
  232DMF     H3 3269   2.948   0.898   2.993  0.6609  1.1250 -0.9860
  232DMF     H4 3270   3.032   0.713   3.153 -0.5760  0.1300 -2.6295
  232DMF     H5 3271   3.204   0.743   3.217 -0.1072 -1.6923 -0.4271
  232DMF     H6 3272   3.181   0.725   3.047  0.3272  0.2958 -0.3616
  232DMF     H7 3273   3.298   0.937   3.203  0.5491  0.3645 -0.1526
  233DMF     C1 3274   1.514   0.639   3.156 -0.3630 -0.1850 -0.0735
  233DMF     N1 3275   1.567   0.630   3.015  0.0998  0.5458 -0.2586
  233DMF     C2 3276   1.709   0.581   3.003  0.4190 -0.3600  0.6487
  233DMF     C3 3277   1.511   0.705   2.911  0.4675 -0.0026 -0.1978
  233DMF     O1 3278   1.400   0.755   2.919  0.3721 -0.2208  0.5635
  233DMF     H1 3279   1.603   0.606   3.211 -1.1696 -2.0774  0.1624
  233DMF     H2 3280   1.431   0.567   3.160  0.4294 -1.2075 -1.6531
  233DMF     H3 3281   1.481   0.739   3.188  0.0854  0.1031 -0.5144
  233DMF     H4 3282   1.742   0.497   3.066  2.5604  0.1346  0.2293
  233DMF     H5 3283   1.777   0.662   3.033  1.2548 -0.0513 -1.9756
  233DMF     H6 3284   1.724   0.553   2.898 -2.6226  0.6778 -0.1174
  233DMF     H7 3285   1.579   0.718   2.825 -0.2798 -0.2151 -0.8257
  234DMF     C1 3286   1.543   0.498   2.616 -0.7887  0.4647  0.6473
  234DMF     N1 3287   1.449   0.437   2.715 -0.3891  0.0314  0.0302
  234DMF     C2 3288   1.303   0.476   2.704 -0.3904  0.3877 -0.2701
  234DMF     C3 3289   1.483   0.316   2.782 -0.4512  0.6009  0.4408
  234DMF     O1 3290   1.597   0.260   2.771 -0.1639 -0.3147 -0.6344
  234DMF     H1 3291   1.644   0.458   2.627 -0.2298  2.0706  1.5643
  234DMF     H2 3292   1.560   0.604   2.640  0.3858  0.4822 -0.2401
  234DMF     H3 3293   1.501   0.499   2.514  2.4388  0.3477 -0.7255
  234DMF     H4 3294   1.302   0.562   2.636  0.6426  0.3407 -0.3509
  234DMF     H5 3295   1.280   0.495   2.809  0.2062 -1.8162  0.2976
  234DMF     H6 3296   1.244   0.388   2.676 -2.6929  1.9518 -0.4519
  234DMF     H7 3297   1.400   0.282   2.846 -0.6094  0.4825  0.1759
  235DMF     C1 3298   2.531   3.040   3.325 -0.0347  0.4499  0.5778
  235DMF     N1 3299   2.636   3.011   3.426 -0.7914 -0.2303  0.0830
  235DMF     C2 3300   2.773   3.055   3.402 -0.2350  0.0970 -0.0252
  235DMF     C3 3301   2.596   2.968   3.554 -0.2157 -0.4425  0.2864
  235DMF     O1 3302   2.480   2.946   3.579  0.8188 -0.4882 -0.1633
  235DMF     H1 3303   2.495   3.142   3.346 -2.7169 -0.0212 -1.3899
  235DMF     H2 3304   2.444   2.975   3.341 -1.0683  1.3161 -1.3397
  235DMF     H3 3305   2.570   3.045   3.223  0.1003  3.7635  0.7318
  235DMF     H4 3306   2.818   2.993   3.323 -4.0400 -0.0314 -2.1799
  235DMF     H5 3307   2.830   3.045   3.495  1.1711  0.2105 -0.8494
  235DMF     H6 3308   2.780   3.161   3.374  2.4006 -0.0900 -0.2330
  235DMF     H7 3309   2.683   2.933   3.614 -0.7082 -1.4502  0.4198
  236DMF     C1 3310   0.316   2.495   0.008 -0.3585 -0.6695 -0.4355
  236DMF     N1 3311   0.424   2.466   0.104 -0.0099 -0.0163 -0.6852
  236DMF     C2 3312   0.526   2.362   0.073  0.3060  0.0462  0.2898
  236DMF     C3 3313   0.445   2.549   0.216  0.4057  0.6642  0.4256
  236DMF     O1 3314   0.365   2.637   0.244  0.4531  0.1236 -0.5930
  236DMF     H1 3315   0.299   2.401  -0.047 -0.9658 -1.3348  0.8740
  236DMF     H2 3316   0.350   2.562  -0.071 -1.0402  2.0170  1.4788
  236DMF     H3 3317   0.223   2.530   0.054 -0.7604 -0.0703 -1.6986
  236DMF     H4 3318   0.519   2.339  -0.035  1.8790  0.7400  0.0226
  236DMF     H5 3319   0.526   2.283   0.149  0.5445  0.7314  1.0016
  236DMF     H6 3320   0.620   2.415   0.091  0.8787 -0.9034  0.1565
  236DMF     H7 3321   0.546   2.550   0.259  0.3123 -0.8565  0.7144
  237DMF     C1 3322   0.201   2.375   2.901  0.6529  0.4743 -0.2792
  237DMF     N1 3323   0.344   2.326   2.888  0.0480 -0.3303  0.0625
  237DMF     C2 3324   0.365   2.182   2.886 -0.5668 -0.3468  0.5512
  237DMF     C3 3325   0.450   2.417   2.877  0.5266  0.6263  0.0352
  237DMF     O1 3326   0.436   2.537   2.872  0.2806  0.4715 -0.5944
  237DMF     H1 3327   0.156   2.355   2.999 -1.8179  0.5707 -1.3717
  237DMF     H2 3328   0.134   2.337   2.824 -0.7610 -1.1281  1.6720
  237DMF     H3 3329   0.209   2.483   2.890 -0.2629  0.3539 -2.3927
  237DMF     H4 3330   0.340   2.144   2.787 -0.3971 -0.9374  0.7353
  237DMF     H5 3331   0.306   2.143   2.970 -0.4489 -0.1174  0.7434
  237DMF     H6 3332   0.472   2.162   2.903 -0.5465 -0.7117  0.0043
  237DMF     H7 3333   0.547   2.366   2.869  0.9625  1.5589 -0.6855
  238DMF     C1 3334   2.950   0.540   0.148  0.3431 -0.7662  0.6373
  238DMF     N1 3335   2.865   0.593   0.263 -0.5789 -0.4754 -0.1886
  238DMF     C2 3336   2.945   0.609   0.385 -0.0194  0.5457 -0.3180
  238DMF     C3 3337   2.739   0.655   0.246 -0.8238  0.1522  0.5668
  238DMF     O1 3338   2.681   0.676   0.140  0.1846  0.2759  0.1096
  238DMF     H1 3339   2.938   0.431   0.149 -1.9473 -0.5390 -0.0166
  238DMF     H2 3340   3.054   0.573   0.155  0.2509 -0.4552  0.5298
  238DMF     H3 3341   2.908   0.581   0.055 -0.0619 -0.6177  0.8865
  238DMF     H4 3342   3.008   0.522   0.408  1.6003  1.2222 -2.1321
  238DMF     H5 3343   2.872   0.627   0.465 -0.8946 -0.3717 -0.8990
  238DMF     H6 3344   3.008   0.698   0.377 -0.5017  0.9413  0.2629
  238DMF     H7 3345   2.703   0.687   0.346 -1.2345  1.4251  0.0253
  239DMF     C1 3346   1.020   1.260   2.377  0.5265 -0.0945 -0.2579
  239DMF     N1 3347   0.957   1.386   2.420 -0.0559  0.6630  0.0950
  239DMF     C2 3348   0.902   1.394   2.556 -0.4844  0.4911  0.0869
  239DMF     C3 3349   0.941   1.498   2.331  0.6712 -0.4176 -0.3269
  239DMF     O1 3350   0.996   1.506   2.226 -0.1285  0.3599 -0.4327
  239DMF     H1 3351   0.993   1.174   2.440  1.0792  0.0233  0.1424
  239DMF     H2 3352   1.129   1.271   2.384  0.2623  3.3206 -0.7177
  239DMF     H3 3353   0.992   1.241   2.273 -2.3831  1.1884  0.2442
  239DMF     H4 3354   0.792   1.391   2.551 -0.3710 -2.0857 -2.1981
  239DMF     H5 3355   0.941   1.486   2.601  0.1688  1.5599 -2.5431
  239DMF     H6 3356   0.945   1.311   2.613 -1.0810  1.8160  2.5089
  239DMF     H7 3357   0.881   1.574   2.385 -2.0571 -1.4399 -1.8122
  240DMF     C1 3358   1.456   0.856   2.253 -0.3763  0.2059  0.4330
  240DMF     N1 3359   1.331   0.786   2.218 -0.2614 -0.6570  0.3049
  240DMF     C2 3360   1.211   0.870   2.234 -0.1124 -0.2574  0.2718
  240DMF     C3 3361   1.322   0.645   2.199  0.2842  0.3492 -0.7079
  240DMF     O1 3362   1.419   0.576   2.178  0.2505  0.2250  0.0333
  240DMF     H1 3363   1.457   0.949   2.194  0.6163 -0.1444 -0.1058
  240DMF     H2 3364   1.546   0.802   2.222  0.3096  0.6840  1.5575
  240DMF     H3 3365   1.467   0.886   2.358 -2.5084  2.8275 -0.0273
  240DMF     H4 3366   1.179   0.861   2.339  0.6926 -1.0821  0.4551
  240DMF     H5 3367   1.133   0.827   2.170  0.3848 -1.8814  0.7325
  240DMF     H6 3368   1.223   0.976   2.208 -3.1005  0.7653  2.8035
  240DMF     H7 3369   1.216   0.612   2.198  0.3121  0.0719  1.7423
  241DMF     C1 3370   1.365   0.213   2.266  0.1955 -0.3415  0.4896
  241DMF     N1 3371   1.351   0.066   2.267  0.1927 -0.2834  0.7180
  241DMF     C2 3372   1.473  -0.016   2.271 -0.3446 -0.5239 -0.0232
  241DMF     C3 3373   1.229   0.007   2.265 -0.2307  0.8715  0.3125
  241DMF     O1 3374   1.128   0.067   2.256 -0.4565  0.0466  0.3811
  241DMF     H1 3375   1.304   0.256   2.185  1.5288 -2.4381 -1.7071
  241DMF     H2 3376   1.463   0.245   2.230  0.5744 -1.0732  0.8652
  241DMF     H3 3377   1.346   0.243   2.370 -0.9330 -2.0258  0.7898
  241DMF     H4 3378   1.446  -0.119   2.245  0.3851 -0.2701 -1.8186
  241DMF     H5 3379   1.518  -0.016   2.372  1.6170  0.7873 -0.8666
  241DMF     H6 3380   1.534   0.018   2.187 -0.7490 -1.3853 -0.6628
  241DMF     H7 3381   1.236  -0.103   2.263 -2.4450  0.7061  1.1052
  242DMF     C1 3382   0.424   1.949   3.435 -0.0913  0.3545  0.3126
  242DMF     N1 3383   0.497   2.059   3.399  0.5412 -0.1151  0.0240
  242DMF     C2 3384   0.437   2.133   3.276  0.5949 -0.2527 -0.2482
  242DMF     C3 3385   0.602   2.110   3.476  0.0892  0.2160 -0.1362
  242DMF     O1 3386   0.637   2.074   3.585  0.2699  0.4472 -0.7064
  242DMF     H1 3387   0.315   1.961   3.436 -0.2109 -0.6088  2.4184
  242DMF     H2 3388   0.448   1.898   3.530  1.3506 -2.2400 -1.4030
  242DMF     H3 3389   0.453   1.874   3.361  1.6653  0.6512  0.6852
  242DMF     H4 3390   0.465   2.239   3.274 -0.6962  0.1008  0.4821
  242DMF     H5 3391   0.328   2.122   3.276  0.2925  2.3329 -0.9765
  242DMF     H6 3392   0.486   2.096   3.185  0.5487  0.7078 -0.6772
  242DMF     H7 3393   0.663   2.186   3.424  1.2974  0.2539  1.3226
  243DMF     C1 3394   2.629   0.970   3.191 -0.0540  0.0544 -0.3475
  243DMF     N1 3395   2.678   1.060   3.302  0.5591  0.4686  0.9691
  243DMF     C2 3396   2.755   1.005   3.416  0.7493  0.0368  0.1968
  243DMF     C3 3397   2.656   1.203   3.302 -0.2663  0.3153 -0.2209
  243DMF     O1 3398   2.615   1.263   3.204 -0.6270 -0.4200  0.6278
  243DMF     H1 3399   2.519   0.973   3.187 -0.1686 -2.7644 -0.2047
  243DMF     H2 3400   2.655   0.864   3.190 -1.2318 -0.2708 -2.8657
  243DMF     H3 3401   2.665   1.024   3.102 -1.3123  1.9415  0.2438
  243DMF     H4 3402   2.719   1.043   3.512  0.7737  4.0289 -1.2406
  243DMF     H5 3403   2.862   1.028   3.409  1.4663 -2.1933  2.9539
  243DMF     H6 3404   2.739   0.897   3.423  2.8459 -0.3004  0.1332
  243DMF     H7 3405   2.699   1.249   3.393  1.4014 -0.0564 -0.8051
  244DMF     C1 3406   2.528   1.090   0.316  0.6900  0.5253 -0.0077
  244DMF     N1 3407   2.500   1.105   0.177 -0.4459  0.0928  0.5197
  244DMF     C2 3408   2.605   1.072   0.076  0.2049 -0.2276  0.1436
  244DMF     C3 3409   2.368   1.121   0.130 -0.0138  0.1853 -0.2155
  244DMF     O1 3410   2.270   1.116   0.196  0.7134  0.0232 -0.1452
  244DMF     H1 3411   2.457   1.149   0.375 -0.5619  1.3147 -2.2190
  244DMF     H2 3412   2.632   1.117   0.338  1.0816 -1.0185  0.0850
  244DMF     H3 3413   2.514   0.983   0.337 -1.6092  0.6537 -0.8123
  244DMF     H4 3414   2.707   1.079   0.115 -0.0291 -3.3974  1.4713
  244DMF     H5 3415   2.611   1.145  -0.006 -3.4589 -0.2842 -0.2557
  244DMF     H6 3416   2.587   0.970   0.041  1.8458  0.0001 -1.4837
  244DMF     H7 3417   2.373   1.130   0.020  1.0957  3.7213  0.0726
  245DMF     C1 3418   3.236   2.428   3.470 -0.6497  0.1160  0.2381
  245DMF     N1 3419   3.264   2.511   3.590 -0.2178 -0.0836 -0.0435
  245DMF     C2 3420   3.170   2.514   3.711 -0.0641 -0.0483 -0.8456
  245DMF     C3 3421   3.396   2.571   3.603 -0.1264  0.2423 -0.0428
  245DMF     O1 3422   3.482   2.542   3.525 -0.7467 -0.0083  0.0628
  245DMF     H1 3423   3.223   2.492   3.382 -1.4102 -0.4267 -0.0416
  245DMF     H2 3424   3.147   2.368   3.489  0.7781 -1.3881  2.3966
  245DMF     H3 3425   3.314   2.352   3.457 -0.1009  0.7056 -0.0047
  245DMF     H4 3426   3.228   2.522   3.804 -0.4902  2.8685 -0.7709
  245DMF     H5 3427   3.103   2.428   3.704  0.5390 -0.8299  2.2567
  245DMF     H6 3428   3.106   2.603   3.705  1.0790  1.0672  2.0510
  245DMF     H7 3429   3.399   2.623   3.701 -1.1831 -1.3601  0.8708
  246DMF     C1 3430   3.324   1.473   3.583 -0.1769  0.0483 -0.2174
  246DMF     N1 3431   3.246   1.362   3.520 -0.3381  0.0402 -0.1650
  246DMF     C2 3432   3.225   1.372   3.378  0.3325  0.7507  0.3746
  246DMF     C3 3433   3.196   1.253   3.583  0.3690  0.1100  0.8490
  246DMF     O1 3434   3.220   1.234   3.703  0.0254 -0.2304 -0.2345
  246DMF     H1 3435   3.336   1.460   3.691  1.5017 -0.2063 -0.4169
  246DMF     H2 3436   3.283   1.569   3.550 -0.4483 -0.2300 -0.6949
  246DMF     H3 3437   3.423   1.477   3.536  0.9453 -0.9879  1.9746
  246DMF     H4 3438   3.258   1.470   3.342  2.5663  0.4824  1.6199
  246DMF     H5 3439   3.128   1.335   3.344  1.0460  0.8794 -1.8618
  246DMF     H6 3440   3.295   1.299   3.336  1.0708  1.8856 -0.3891
  246DMF     H7 3441   3.137   1.180   3.525  0.9426 -1.3586  2.0734
  247DMF     C1 3442   1.510   1.660   2.340  0.2198 -0.4918 -0.4235
  247DMF     N1 3443   1.376   1.601   2.311  0.3511  0.4979 -0.3056
  247DMF     C2 3444   1.265   1.691   2.289  0.0183 -0.3685  0.8536
  247DMF     C3 3445   1.348   1.468   2.311 -0.4592  0.5601 -1.2618
  247DMF     O1 3446   1.435   1.380   2.338 -0.4544 -0.2633  0.0112
  247DMF     H1 3447   1.559   1.663   2.242 -2.7728 -1.0548 -1.9970
  247DMF     H2 3448   1.567   1.590   2.402 -0.6155  0.3315  1.3112
  247DMF     H3 3449   1.515   1.762   2.382  1.6370 -0.4226 -0.7383
  247DMF     H4 3450   1.186   1.638   2.344  1.6488 -1.9944  1.6804
  247DMF     H5 3451   1.232   1.705   2.186 -0.1966  0.4217  1.0232
  247DMF     H6 3452   1.280   1.789   2.335  3.5696  0.6972 -2.4056
  247DMF     H7 3453   1.247   1.440   2.276 -0.0468 -0.0329 -1.9907
  248DMF     C1 3454   0.565   2.837   3.759  0.1895  0.1092  0.1415
  248DMF     N1 3455   0.609   2.757   3.638  0.6496 -0.6609  0.3027
  248DMF     C2 3456   0.683   2.639   3.669  0.5779  0.0575 -0.7079
  248DMF     C3 3457   0.576   2.790   3.504  0.0884  0.1033  0.1192
  248DMF     O1 3458   0.483   2.859   3.470  0.0504  0.2384  0.3887
  248DMF     H1 3459   0.648   2.846   3.830  1.4024  1.9102 -1.4267
  248DMF     H2 3460   0.477   2.785   3.798 -0.1686 -0.7782 -1.7693
  248DMF     H3 3461   0.525   2.938   3.742  0.9998  0.4687  0.3526
  248DMF     H4 3462   0.766   2.663   3.737  0.1017  1.3398 -0.5815
  248DMF     H5 3463   0.720   2.592   3.577 -0.8012 -1.2995 -0.5836
  248DMF     H6 3464   0.612   2.566   3.709  0.7099 -0.2021 -0.9409
  248DMF     H7 3465   0.647   2.737   3.437  1.6957  1.9118  0.3606
  249DMF     C1 3466   0.583   0.459   2.363 -0.0556  0.1367 -0.6391
  249DMF     N1 3467   0.643   0.329   2.330  0.0945  0.2247  0.0864
  249DMF     C2 3468   0.572   0.242   2.235  0.2553 -0.1149  0.3058
  249DMF     C3 3469   0.767   0.291   2.385 -0.1177 -0.2478  0.3025
  249DMF     O1 3470   0.814   0.357   2.481 -0.8472 -0.2647 -0.1258
  249DMF     H1 3471   0.529   0.460   2.459  1.5540  1.0739  0.2868
  249DMF     H2 3472   0.520   0.492   2.280 -1.8883  0.2453  0.7576
  249DMF     H3 3473   0.658   0.540   2.361  0.3559 -0.1810  1.1432
  249DMF     H4 3474   0.647   0.185   2.179 -0.4829  0.1871 -1.0102
  249DMF     H5 3475   0.509   0.306   2.172 -0.7410 -0.2866  1.1125
  249DMF     H6 3476   0.519   0.170   2.299 -0.8607  1.3684  1.0804
  249DMF     H7 3477   0.820   0.208   2.334 -0.5835 -0.0955 -0.4464
  250DMF     C1 3478   2.513   1.893   2.264  0.4755 -0.9313  0.5120
  250DMF     N1 3479   2.533   2.038   2.245  0.0819 -0.2343 -0.2050
  250DMF     C2 3480   2.416   2.130   2.253 -0.0461 -0.2880 -0.1040
  250DMF     C3 3481   2.655   2.091   2.245 -0.6312  0.1541  0.3239
  250DMF     O1 3482   2.755   2.023   2.230  0.4070 -0.0482  0.1074
  250DMF     H1 3483   2.403   1.889   2.269  0.3254  0.6118 -1.1216
  250DMF     H2 3484   2.562   1.844   2.349 -0.9286 -0.5989  1.5481
  250DMF     H3 3485   2.526   1.839   2.170  0.2001 -1.3958  0.7400
  250DMF     H4 3486   2.425   2.191   2.344  3.9553  3.2191 -2.6207
  250DMF     H5 3487   2.323   2.072   2.257  0.5067 -1.1041  1.0427
  250DMF     H6 3488   2.412   2.200   2.168 -0.6255  2.3629  2.0266
  250DMF     H7 3489   2.655   2.202   2.246 -1.3307  0.1863 -1.2380
  251DMF     C1 3490   0.678   1.182   2.259 -0.4683  0.6744  0.6545
  251DMF     N1 3491   0.727   1.083   2.358 -0.0525  0.1034  0.1415
  251DMF     C2 3492   0.805   0.973   2.309  0.0444 -0.8193  0.0167
  251DMF     C3 3493   0.717   1.105   2.494 -0.0628 -0.3946 -0.5845
  251DMF     O1 3494   0.642   1.190   2.533 -0.4017  0.2612  0.3452
  251DMF     H1 3495   0.569   1.196   2.251 -0.5283 -0.8123 -1.2335
  251DMF     H2 3496   0.708   1.161   2.156 -1.9589  0.7835  0.1762
  251DMF     H3 3497   0.719   1.283   2.273 -0.5819  1.1984 -2.5982
  251DMF     H4 3498   0.732   0.892   2.304 -0.2249 -0.5179 -1.1373
  251DMF     H5 3499   0.881   0.945   2.383  2.3499  0.1111 -1.9172
  251DMF     H6 3500   0.858   0.999   2.217 -0.7083 -0.5957 -0.3598
  251DMF     H7 3501   0.779   1.039   2.558 -0.7571 -0.8764 -0.4020
  252DMF     C1 3502   2.937   0.350   3.280  0.3936  0.0131  1.0738
  252DMF     N1 3503   3.048   0.275   3.224  0.1054 -0.1776 -0.0037
  252DMF     C2 3504   3.027   0.138   3.187 -0.8251  0.4570  0.3497
  252DMF     C3 3505   3.181   0.326   3.228 -0.4028  0.2790 -0.3244
  252DMF     O1 3506   3.200   0.441   3.256  0.5173 -0.5934 -0.2810
  252DMF     H1 3507   2.958   0.456   3.262  1.1299 -0.2610  0.2576
  252DMF     H2 3508   2.928   0.337   3.388  0.8347 -1.1799  0.9774
  252DMF     H3 3509   2.852   0.313   3.222 -0.7155  0.7286  2.2160
  252DMF     H4 3510   3.122   0.092   3.159 -0.4495  0.6730  1.2561
  252DMF     H5 3511   2.950   0.120   3.110 -2.0816 -0.0711  1.6968
  252DMF     H6 3512   2.998   0.101   3.287  4.7510  0.2147  2.0472
  252DMF     H7 3513   3.257   0.247   3.219 -2.6736 -1.9852 -0.0712
  253DMF     C1 3514   1.953   1.530   2.531 -0.0930 -0.1805  0.1926
  253DMF     N1 3515   1.988   1.493   2.667 -1.1225  0.7195 -0.2127
  253DMF     C2 3516   2.047   1.592   2.755  0.2878 -0.2233 -0.2090
  253DMF     C3 3517   1.943   1.368   2.716  0.0801 -1.1676  0.4434
  253DMF     O1 3518   1.900   1.279   2.638 -0.1058  0.5151  0.3724
  253DMF     H1 3519   2.028   1.487   2.464  1.3560  0.3067  1.4899
  253DMF     H2 3520   1.945   1.639   2.520 -2.5595 -0.2158  1.2709
  253DMF     H3 3521   1.857   1.483   2.505 -0.5611  0.9870 -0.2412
  253DMF     H4 3522   1.986   1.683   2.753  2.9167  1.6065 -0.5560
  253DMF     H5 3523   2.150   1.611   2.720  0.4204  1.1513  0.9056
  253DMF     H6 3524   2.051   1.563   2.861  1.9156  0.2335 -0.1196
  253DMF     H7 3525   1.965   1.352   2.823 -1.4840 -2.8086  0.5400
  254DMF     C1 3526   0.777   2.710   2.737  0.3376  0.0677 -0.5191
  254DMF     N1 3527   0.803   2.601   2.829  0.1699 -0.1024 -0.8040
  254DMF     C2 3528   0.820   2.641   2.971 -0.3155 -0.0610 -0.1971
  254DMF     C3 3529   0.782   2.464   2.794 -0.2437 -0.1360  0.3965
  254DMF     O1 3530   0.724   2.426   2.685 -0.2028 -0.8651  0.1540
  254DMF     H1 3531   0.698   2.682   2.667 -0.7338 -1.2969  1.2123
  254DMF     H2 3532   0.865   2.723   2.672  1.5821  1.6968  1.4256
  254DMF     H3 3533   0.755   2.807   2.782  1.3741 -0.6868  1.7111
  254DMF     H4 3534   0.722   2.647   3.019 -0.0157  1.5805  0.2518
  254DMF     H5 3535   0.861   2.742   2.983 -1.7237  0.2717  1.9551
  254DMF     H6 3536   0.887   2.563   3.010  0.5142  1.0823  0.7040
  254DMF     H7 3537   0.810   2.390   2.872  0.1012 -2.4120 -1.8122
  255DMF     C1 3538   2.688   0.044   3.417  0.2420  0.1860  0.7385
  255DMF     N1 3539   2.539   0.038   3.413  0.0679  0.3383 -0.0241
  255DMF     C2 3540   2.476   0.102   3.302 -0.1722  0.1255 -0.2170
  255DMF     C3 3541   2.472  -0.047   3.503 -0.4910  0.2407  0.1305
  255DMF     O1 3542   2.525  -0.097   3.602 -0.2139  0.4826 -0.2882
  255DMF     H1 3543   2.729  -0.053   3.388  0.7312  0.7463 -0.4505
  255DMF     H2 3544   2.728   0.074   3.515 -2.0336  1.7234  1.2373
  255DMF     H3 3545   2.723   0.121   3.347  0.5965  0.2555  0.9947
  255DMF     H4 3546   2.432   0.196   3.336 -0.5533 -0.7935  1.9899
  255DMF     H5 3547   2.387   0.044   3.274  0.0729 -0.2685 -0.1911
  255DMF     H6 3548   2.540   0.105   3.213  2.7349  0.5843  1.8169
  255DMF     H7 3549   2.366  -0.064   3.478 -0.5914 -0.3017  0.8939
  256DMF     C1 3550   2.144   0.574   2.273  0.6809  0.7543 -0.3108
  256DMF     N1 3551   2.132   0.723   2.253  0.7939  0.0531  0.1351
  256DMF     C2 3552   2.255   0.809   2.267  0.4396 -0.5414 -0.1091
  256DMF     C3 3553   2.002   0.786   2.250 -0.0195 -0.5875  0.1352
  256DMF     O1 3554   1.897   0.729   2.250  0.1979 -0.4810  0.1271
  256DMF     H1 3555   2.245   0.529   2.276 -0.2491 -1.5832 -2.3214
  256DMF     H2 3556   2.089   0.527   2.191 -0.2503  2.8608 -0.9080
  256DMF     H3 3557   2.083   0.544   2.358 -0.8488 -0.0850 -1.6822
  256DMF     H4 3558   2.263   0.846   2.370 -2.4301  0.5223 -0.2162
  256DMF     H5 3559   2.239   0.887   2.191  1.0329 -0.0003  0.3091
  256DMF     H6 3560   2.341   0.747   2.241 -0.1812 -1.2585 -0.4528
  256DMF     H7 3561   2.014   0.895   2.234  0.6958 -0.9513 -1.8671
  257DMF     C1 3562   2.014   0.821   2.983 -0.4586  0.1575 -0.1035
  257DMF     N1 3563   1.974   0.951   2.938  0.0054  0.9202 -0.4255
  257DMF     C2 3564   2.078   1.042   2.885 -0.6630  0.0612 -0.4847
  257DMF     C3 3565   1.837   0.985   2.931 -0.3545 -0.1854 -1.0950
  257DMF     O1 3566   1.748   0.901   2.945 -0.2041  0.3664 -0.5098
  257DMF     H1 3567   1.968   0.800   3.080 -0.6798 -0.2032 -0.2850
  257DMF     H2 3568   2.123   0.809   2.993 -0.3407  1.2675 -0.0113
  257DMF     H3 3569   1.977   0.742   2.917  0.5323 -0.0916 -0.3646
  257DMF     H4 3570   2.041   1.140   2.918 -2.6379 -0.6662 -0.4645
  257DMF     H5 3571   2.083   1.028   2.777  0.0241 -1.4408 -0.2778
  257DMF     H6 3572   2.177   1.022   2.928 -1.1379 -1.2691  0.0288
  257DMF     H7 3573   1.814   1.089   2.902 -1.8144 -0.3721 -0.6801
  258DMF     C1 3574   2.500   1.940   0.457 -0.8659 -0.1627  0.3833
  258DMF     N1 3575   2.403   2.039   0.413  0.2042  0.7208 -0.0458
  258DMF     C2 3576   2.264   2.023   0.456 -0.0287  0.4573 -0.1013
  258DMF     C3 3577   2.455   2.157   0.350  0.1058 -0.0422 -0.1189
  258DMF     O1 3578   2.576   2.178   0.329  0.7706 -0.1250  0.4457
  258DMF     H1 3579   2.451   1.845   0.479 -1.4503 -0.1451 -0.7850
  258DMF     H2 3580   2.520   1.971   0.560 -2.8557  0.4979  0.5820
  258DMF     H3 3581   2.584   1.937   0.385 -0.6844 -3.3426  0.6571
  258DMF     H4 3582   2.220   1.931   0.414  1.4178 -1.1461  1.7840
  258DMF     H5 3583   2.204   2.104   0.414  0.0360 -0.4278 -1.9706
  258DMF     H6 3584   2.266   2.027   0.565  1.5027  0.6920 -0.1284
  258DMF     H7 3585   2.372   2.228   0.331  0.7425  0.1615 -2.2330
  259DMF     C1 3586   1.521   0.119   3.301  0.3096 -0.5891  0.9431
  259DMF     N1 3587   1.460   0.251   3.328 -0.5127 -0.0227 -0.0300
  259DMF     C2 3588   1.330   0.281   3.271 -0.2100 -0.3694  0.2667
  259DMF     C3 3589   1.513   0.330   3.429 -0.7547  0.0188  0.1242
  259DMF     O1 3590   1.610   0.299   3.499 -0.3044 -0.0754  0.4843
  259DMF     H1 3591   1.629   0.129   3.283 -0.2897 -0.0969 -2.6989
  259DMF     H2 3592   1.488   0.084   3.203 -1.4311 -2.6453  2.2444
  259DMF     H3 3593   1.502   0.058   3.390  1.5483  1.0226  2.3462
  259DMF     H4 3594   1.311   0.248   3.168 -1.0555 -0.0894  0.3274
  259DMF     H5 3595   1.304   0.386   3.289  1.1159 -0.1074  0.6707
  259DMF     H6 3596   1.253   0.229   3.330 -0.9705  0.4016 -0.0359
  259DMF     H7 3597   1.457   0.425   3.437  0.7112  1.0747 -1.8099
  260DMF     C1 3598   2.272   0.853   0.445 -0.0389  0.2329  0.4931
  260DMF     N1 3599   2.288   0.726   0.368 -0.0483 -0.0767 -0.2611
  260DMF     C2 3600   2.430   0.688   0.345  0.0821  0.6585 -0.0615
  260DMF     C3 3601   2.181   0.641   0.336 -0.1004 -0.2999  0.1237
  260DMF     O1 3602   2.066   0.677   0.369 -0.3845  0.1744  0.0694
  260DMF     H1 3603   2.170   0.867   0.481 -0.5303 -0.1892 -0.6943
  260DMF     H2 3604   2.298   0.936   0.378  1.8231 -0.6860  0.0268
  260DMF     H3 3605   2.341   0.855   0.530 -0.0853 -1.5153  0.5908
  260DMF     H4 3606   2.473   0.677   0.446  1.5500 -0.5793 -0.8022
  260DMF     H5 3607   2.474   0.776   0.298 -1.5747  0.8067 -1.3705
  260DMF     H6 3608   2.439   0.598   0.283 -2.5458  0.6936 -0.5362
  260DMF     H7 3609   2.205   0.541   0.295 -1.2089 -0.9018  0.8965
  261DMF     C1 3610   2.281   1.393   2.246 -0.0707  0.0265  0.2906
  261DMF     N1 3611   2.280   1.417   2.389 -0.2803 -0.0299  0.5054
  261DMF     C2 3612   2.274   1.290   2.476  0.6547  0.4226  0.4220
  261DMF     C3 3613   2.272   1.537   2.453  0.1264  0.3789 -0.2870
  261DMF     O1 3614   2.263   1.640   2.392 -0.3631 -0.2886  0.0867
  261DMF     H1 3615   2.238   1.478   2.193 -1.2592 -0.6364  0.1668
  261DMF     H2 3616   2.227   1.304   2.211 -0.0261  0.2351 -0.3084
  261DMF     H3 3617   2.388   1.384   2.225  0.1381  3.1123 -0.1653
  261DMF     H4 3618   2.307   1.209   2.410  1.1227  0.8095  0.1784
  261DMF     H5 3619   2.171   1.268   2.507  0.7379  0.8687  1.0318
  261DMF     H6 3620   2.338   1.309   2.563  2.0687 -0.2627 -0.4564
  261DMF     H7 3621   2.271   1.529   2.563 -1.2871  1.7423 -0.1821
  262DMF     C1 3622   1.066   0.308   0.979  0.2180  1.3672 -0.0962
  262DMF     N1 3623   1.057   0.229   1.103  0.0073 -0.1957  0.3362
  262DMF     C2 3624   0.927   0.190   1.153  0.2623 -0.1706 -0.0162
  262DMF     C3 3625   1.163   0.172   1.174  0.0291  0.0098 -0.1356
  262DMF     O1 3626   1.278   0.207   1.144  0.0222 -1.0377 -0.6477
  262DMF     H1 3627   1.090   0.410   1.011  0.1504  1.2004  0.4747
  262DMF     H2 3628   0.969   0.299   0.928 -0.6890 -0.3185  1.8598
  262DMF     H3 3629   1.144   0.265   0.914  0.0408 -1.0174  1.2410
  262DMF     H4 3630   0.855   0.269   1.125 -0.9810 -0.5648  1.9210
  262DMF     H5 3631   0.924   0.186   1.263 -1.1765 -1.9044 -0.0869
  262DMF     H6 3632   0.890   0.096   1.110  0.5981 -0.0912 -0.4759
  262DMF     H7 3633   1.141   0.106   1.259  3.0627 -0.5930  0.2512
  263DMF     C1 3634   0.389   2.815   2.588  0.8339 -0.2328  0.6433
  263DMF     N1 3635   0.364   2.952   2.634  0.1740 -0.4863 -0.3490
  263DMF     C2 3636   0.235   2.967   2.696 -0.1002 -0.0507 -0.0865
  263DMF     C3 3637   0.456   3.058   2.611  0.6449 -0.0133 -0.0231
  263DMF     O1 3638   0.570   3.041   2.552  0.4469  0.2115 -0.0894
  263DMF     H1 3639   0.404   2.815   2.479 -2.0371  1.3116  0.1893
  263DMF     H2 3640   0.301   2.750   2.603 -1.0199  1.5169 -2.0808
  263DMF     H3 3641   0.475   2.773   2.641  2.9595  1.0008 -1.7274
  263DMF     H4 3642   0.225   3.072   2.726 -0.9446  0.0444 -0.7037
  263DMF     H5 3643   0.240   2.909   2.790 -0.2891 -1.9990 -1.2400
  263DMF     H6 3644   0.155   2.935   2.629  1.1143 -0.2596 -1.4617
  263DMF     H7 3645   0.426   3.157   2.649 -3.0698 -1.9741  2.4294
  264DMF     C1 3646   2.759   1.328   2.232  0.0275  0.4441  0.7266
  264DMF     N1 3647   2.710   1.398   2.347 -0.1506 -0.1057  0.3714
  264DMF     C2 3648   2.668   1.534   2.338  0.1297 -0.3699  0.2004
  264DMF     C3 3649   2.682   1.329   2.468 -0.3636 -0.0265 -0.3891
  264DMF     O1 3650   2.708   1.210   2.491  0.5939 -0.2153  0.1309
  264DMF     H1 3651   2.825   1.396   2.177 -1.8643  0.8198 -1.1218
  264DMF     H2 3652   2.677   1.309   2.163 -0.3298 -0.9350  1.5129
  264DMF     H3 3653   2.807   1.237   2.271  0.0716  0.2863  0.2997
  264DMF     H4 3654   2.561   1.555   2.349 -0.0843  0.5854 -3.2434
  264DMF     H5 3655   2.679   1.560   2.232 -1.1274  0.5062  0.2754
  264DMF     H6 3656   2.738   1.590   2.403  0.4093 -0.7167  0.1996
  264DMF     H7 3657   2.629   1.386   2.547 -0.5185 -0.1433 -0.4097
  265DMF     C1 3658   3.050   1.713   3.787 -0.0708  0.5416 -0.1506
  265DMF     N1 3659   3.083   1.854   3.753 -0.4822 -0.7710 -0.3186
  265DMF     C2 3660   3.219   1.912   3.773  0.7021  0.6320 -0.8457
  265DMF     C3 3661   2.976   1.930   3.696  0.2056  0.4388 -0.2164
  265DMF     O1 3662   2.862   1.888   3.672  0.4949 -0.0629 -0.2222
  265DMF     H1 3663   3.038   1.649   3.699 -1.0970 -1.8333  1.6506
  265DMF     H2 3664   2.960   1.719   3.851  1.1440 -0.7966  1.7371
  265DMF     H3 3665   3.139   1.668   3.831  0.0448 -0.0392 -0.9737
  265DMF     H4 3666   3.263   1.954   3.682  1.9499 -0.0672 -0.5734
  265DMF     H5 3667   3.289   1.833   3.803 -0.9950 -0.6858 -0.2375
  265DMF     H6 3668   3.204   1.985   3.854 -0.8684 -1.2120  0.5895
  265DMF     H7 3669   3.008   2.035   3.684  1.9085 -0.0800 -0.2810
  266DMF     C1 3670   0.712   2.715   2.248 -0.4017 -0.0794  0.4674
  266DMF     N1 3671   0.807   2.618   2.303 -0.2339 -0.0870  0.0343
  266DMF     C2 3672   0.759   2.485   2.345 -0.6307 -0.5816  0.2849
  266DMF     C3 3673   0.942   2.652   2.325  0.3778 -0.8574 -0.3681
  266DMF     O1 3674   0.997   2.755   2.300 -0.3133 -0.3167 -0.5010
  266DMF     H1 3675   0.766   2.805   2.215  0.6062 -1.4764 -1.8422
  266DMF     H2 3676   0.630   2.736   2.317 -0.2118  0.2713  0.5879
  266DMF     H3 3677   0.672   2.670   2.156  0.9492  2.2965 -1.3687
  266DMF     H4 3678   0.847   2.431   2.382  0.5567  0.9364 -0.2791
  266DMF     H5 3679   0.725   2.439   2.251  2.2180 -0.5670 -0.8110
  266DMF     H6 3680   0.684   2.493   2.425 -1.9285  2.5744 -1.1646
  266DMF     H7 3681   0.995   2.573   2.382  0.5609 -0.8155 -0.4806
  267DMF     C1 3682   1.116   2.396   2.601  0.0928  0.2580 -0.1062
  267DMF     N1 3683   1.174   2.504   2.683  0.0079  0.0056 -0.2858
  267DMF     C2 3684   1.230   2.616   2.606  0.1551  0.1251  0.5462
  267DMF     C3 3685   1.183   2.488   2.825  0.2219  0.4514  0.2634
  267DMF     O1 3686   1.138   2.391   2.882  0.2015 -0.0777 -0.3708
  267DMF     H1 3687   1.170   2.384   2.506 -1.0047 -0.3045 -0.6702
  267DMF     H2 3688   1.012   2.423   2.583 -0.7094 -1.1056  2.2571
  267DMF     H3 3689   1.116   2.303   2.660 -0.0579  1.7605  2.3112
  267DMF     H4 3690   1.262   2.688   2.682  1.6139  0.6576 -0.5539
  267DMF     H5 3691   1.160   2.663   2.536  1.5619  0.7689 -0.4410
  267DMF     H6 3692   1.326   2.591   2.559  0.7732  2.4670  0.4886
  267DMF     H7 3693   1.226   2.578   2.872 -0.7548  0.5396  1.0072
  268DMF     C1 3694   2.251   1.952   2.570  0.0198 -0.1559  0.3429
  268DMF     N1 3695   2.178   2.004   2.686 -0.5271  0.0585 -0.1913
  268DMF     C2 3696   2.060   2.089   2.661 -0.1681 -0.6491 -0.1465
  268DMF     C3 3697   2.237   2.020   2.808 -0.1121 -0.2913 -0.5289
  268DMF     O1 3698   2.354   1.985   2.837 -0.5275 -0.3749 -0.4520
  268DMF     H1 3699   2.239   1.844   2.555  1.8659 -0.1802 -1.0697
  268DMF     H2 3700   2.358   1.967   2.584 -0.4034  1.6700  1.8530
  268DMF     H3 3701   2.217   1.993   2.474  1.8625  1.1732  0.2454
  268DMF     H4 3702   2.027   2.077   2.557 -0.9025 -3.0314  0.3350
  268DMF     H5 3703   2.100   2.189   2.680  2.8890 -1.6272 -1.0754
  268DMF     H6 3704   1.982   2.062   2.733 -1.0025  2.0375 -0.0242
  268DMF     H7 3705   2.176   2.083   2.876 -0.1686 -0.1614 -0.7021
  269DMF     C1 3706   1.689   3.307   3.119  0.4963  0.6778  0.1726
  269DMF     N1 3707   1.638   3.402   3.026  0.0978 -0.0713  0.4549
  269DMF     C2 3708   1.707   3.532   3.015 -0.8362  0.3598 -1.0202
  269DMF     C3 3709   1.516   3.384   2.959  0.4560  0.4107  0.4615
  269DMF     O1 3710   1.452   3.280   2.977 -0.3086  0.2109  0.0980
  269DMF     H1 3711   1.626   3.312   3.209  1.8609  3.0832  1.0431
  269DMF     H2 3712   1.789   3.335   3.155 -0.1224  1.5231  1.2493
  269DMF     H3 3713   1.693   3.206   3.075  1.7896  1.9153 -2.6868
  269DMF     H4 3714   1.632   3.612   3.004 -0.6208  0.5155 -1.3686
  269DMF     H5 3715   1.776   3.530   2.930 -0.3242  0.8095 -0.6152
  269DMF     H6 3716   1.773   3.549   3.100 -1.1117 -2.6265 -0.1411
  269DMF     H7 3717   1.487   3.466   2.891  0.2484 -0.3241 -0.3487
  270DMF     C1 3718   1.761   2.188   2.894 -0.7538  0.8328  0.2523
  270DMF     N1 3719   1.699   2.062   2.857  0.2774 -0.7373 -0.3556
  270DMF     C2 3720   1.627   2.058   2.730 -0.3475 -0.4014  0.0512
  270DMF     C3 3721   1.733   1.946   2.924  0.3927  1.0804 -0.1077
  270DMF     O1 3722   1.797   1.946   3.027  0.4204  0.6393 -0.6135
  270DMF     H1 3723   1.815   2.232   2.809 -0.4220 -0.9134 -0.4639
  270DMF     H2 3724   1.835   2.163   2.970 -0.8776 -2.0366 -0.5345
  270DMF     H3 3725   1.691   2.257   2.944 -2.0785  0.3368 -0.8832
  270DMF     H4 3726   1.564   2.148   2.734  1.6509  1.0759 -0.7600
  270DMF     H5 3727   1.566   1.967   2.731  0.3450 -0.9059  2.8255
  270DMF     H6 3728   1.700   2.072   2.649  0.3772 -0.1821  0.7331
  270DMF     H7 3729   1.690   1.857   2.874 -1.0767  1.6334  0.1586
  271DMF     C1 3730   1.357   1.135   3.320  0.2030 -0.3393  0.2564
  271DMF     N1 3731   1.497   1.124   3.283 -0.3268 -0.0099  0.8109
  271DMF     C2 3732   1.556   0.982   3.256  0.0620  0.4523  0.1511
  271DMF     C3 3733   1.573   1.237   3.269  0.2931 -0.8542  0.2711
  271DMF     O1 3734   1.534   1.353   3.295  0.4209 -0.7968  0.1538
  271DMF     H1 3735   1.299   1.063   3.260  2.0759 -1.5494 -0.1410
  271DMF     H2 3736   1.308   1.230   3.295  1.3155  0.2121  0.1649
  271DMF     H3 3737   1.333   1.108   3.423 -0.4484 -0.7953 -0.0061
  271DMF     H4 3738   1.666   0.986   3.248  0.2936 -2.9051  1.0992
  271DMF     H5 3739   1.522   0.946   3.158 -1.0753  0.7432  0.4301
  271DMF     H6 3740   1.530   0.915   3.339 -3.0369  0.2168 -0.9383
  271DMF     H7 3741   1.679   1.215   3.244  0.6643  0.8572  0.3067
  272DMF     C1 3742   0.884   3.265   2.271 -0.5576  0.3768 -0.3838
  272DMF     N1 3743   0.748   3.217   2.261  0.2720 -0.1157  0.4000
  272DMF     C2 3744   0.727   3.070   2.244 -0.0058  0.1876  1.0474
  272DMF     C3 3745   0.642   3.295   2.312 -0.8057 -0.4542 -0.1402
  272DMF     O1 3746   0.657   3.414   2.350  0.8827 -0.3223  0.4328
  272DMF     H1 3747   0.902   3.331   2.185  0.4707 -0.4299 -0.8065
  272DMF     H2 3748   0.958   3.184   2.263  2.7611  3.4366 -2.5761
  272DMF     H3 3749   0.900   3.304   2.372 -0.8271 -1.3086  0.3303
  272DMF     H4 3750   0.701   3.025   2.340 -1.8606  1.0442  0.9624
  272DMF     H5 3751   0.824   3.031   2.209  0.2847  0.5039  1.4967
  272DMF     H6 3752   0.654   3.055   2.164 -1.6053  4.5336  1.5439
  272DMF     H7 3753   0.546   3.241   2.315 -2.0927  1.7062 -0.8895
  273DMF     C1 3754   1.592   2.590   3.105 -0.4009  0.3027  0.7351
  273DMF     N1 3755   1.536   2.509   3.214  0.0061  0.0280  0.2556
  273DMF     C2 3756   1.419   2.424   3.179  0.3327  0.0032 -0.1306
  273DMF     C3 3757   1.574   2.538   3.350  0.1059 -0.0748  0.2566
  273DMF     O1 3758   1.664   2.611   3.371  0.1824  0.8296 -0.6060
  273DMF     H1 3759   1.508   2.649   3.066  1.4557  1.6607 -1.2853
  273DMF     H2 3760   1.638   2.531   3.025 -1.7991  0.2748 -0.0621
  273DMF     H3 3761   1.660   2.662   3.151  1.8107 -1.2642 -0.0119
  273DMF     H4 3762   1.434   2.412   3.071  1.3235  0.3729 -0.0416
  273DMF     H5 3763   1.328   2.479   3.207  1.6728  1.5717  1.2557
  273DMF     H6 3764   1.420   2.330   3.235 -1.4618 -0.3943 -0.7423
  273DMF     H7 3765   1.514   2.484   3.425  1.2657 -0.2503  1.0662
  274DMF     C1 3766   2.084   3.399   2.258 -0.1209  0.0754 -0.0641
  274DMF     N1 3767   2.174   3.517   2.276  0.4129  0.3366  0.1305
  274DMF     C2 3768   2.124   3.649   2.246  0.2013 -0.4341  0.2810
  274DMF     C3 3769   2.303   3.495   2.320  0.0106 -0.4436  0.1720
  274DMF     O1 3770   2.359   3.385   2.327 -0.2477 -0.6460 -0.6257
  274DMF     H1 3771   2.029   3.410   2.164 -0.8270  1.0831  0.4509
  274DMF     H2 3772   2.013   3.395   2.342  0.9957 -0.5577  0.8735
  274DMF     H3 3773   2.134   3.301   2.262 -2.0287 -0.9022  0.2253
  274DMF     H4 3774   2.118   3.706   2.340  1.3353  0.4219 -0.1494
  274DMF     H5 3775   2.020   3.637   2.213 -0.1412 -1.5862  1.6966
  274DMF     H6 3776   2.190   3.704   2.177  4.1689 -3.2118  1.6602
  274DMF     H7 3777   2.360   3.586   2.346 -2.1625  0.6347  1.2647
  275DMF     C1 3778   3.147   2.302   2.440 -0.3034  1.2453 -0.5632
  275DMF     N1 3779   3.033   2.252   2.504 -0.0602 -0.1051 -0.8446
  275DMF     C2 3780   2.963   2.138   2.448 -0.9275 -0.9675  0.4745
  275DMF     C3 3781   2.982   2.308   2.618  0.7892 -0.5527 -0.5045
  275DMF     O1 3782   3.035   2.402   2.679  0.0316 -0.0666  0.2161
  275DMF     H1 3783   3.140   2.412   2.432 -0.6274  1.4227  1.6438
  275DMF     H2 3784   3.163   2.251   2.345 -3.4754  0.6178 -0.8031
  275DMF     H3 3785   3.232   2.292   2.509  0.0333 -0.1295 -1.1712
  275DMF     H4 3786   2.989   2.042   2.493  0.6659 -0.1899  1.2569
  275DMF     H5 3787   2.978   2.134   2.339  0.5125 -2.3670  0.7066
  275DMF     H6 3788   2.857   2.159   2.462 -0.2628  1.1888  2.6052
  275DMF     H7 3789   2.889   2.262   2.656  0.4557  0.2226 -0.3570
  276DMF     C1 3790   0.668   2.644   0.697 -0.4296  0.5820 -0.0989
  276DMF     N1 3791   0.663   2.526   0.787  0.2648  0.0914  0.0605
  276DMF     C2 3792   0.570   2.538   0.905  0.3732  0.3798  0.6487
  276DMF     C3 3793   0.744   2.414   0.779 -0.2879  0.1127 -1.3940
  276DMF     O1 3794   0.817   2.392   0.681  0.1284 -0.3347 -0.5927
  276DMF     H1 3795   0.720   2.725   0.749 -1.3372  1.1772 -0.1108
  276DMF     H2 3796   0.569   2.677   0.663 -1.0092 -0.2188  0.7749
  276DMF     H3 3797   0.720   2.630   0.601  3.1711  1.4171  1.6390
  276DMF     H4 3798   0.469   2.565   0.870 -0.1863 -1.4554  0.7905
  276DMF     H5 3799   0.608   2.610   0.979  0.2246 -1.8157  2.9138
  276DMF     H6 3800   0.570   2.441   0.954 -3.3626 -1.6947 -3.0754
  276DMF     H7 3801   0.735   2.341   0.861  0.7997  3.0623  1.4577
  277DMF     C1 3802   0.369   2.949   2.244 -0.9681  0.2405  0.0651
  277DMF     N1 3803   0.226   2.945   2.286 -0.3059 -0.3962  0.1403
  277DMF     C2 3804   0.140   2.834   2.252  0.3412 -0.1502  0.1166
  277DMF     C3 3805   0.163   3.051   2.356 -0.4834 -0.0470 -0.2185
  277DMF     O1 3806   0.220   3.143   2.397 -0.3373  0.0116 -0.0570
  277DMF     H1 3807   0.418   2.852   2.252  0.7396  0.9816 -1.3764
  277DMF     H2 3808   0.426   3.026   2.297  0.4697 -0.3280 -0.6336
  277DMF     H3 3809   0.355   2.988   2.143 -0.7246 -1.1568 -0.5114
  277DMF     H4 3810   0.189   2.753   2.198 -1.8734 -1.1507 -0.4757
  277DMF     H5 3811   0.051   2.855   2.191 -0.1091  3.0949  1.7623
  277DMF     H6 3812   0.113   2.779   2.344  0.0026 -2.3713 -1.2824
  277DMF     H7 3813   0.055   3.030   2.368 -0.9215  1.8141 -0.7548
  278DMF     C1 3814   1.651   2.511   3.792 -0.6335  0.6861 -0.0756
  278DMF     N1 3815   1.631   2.655   3.805 -0.9479  0.2296  0.0436
  278DMF     C2 3816   1.550   2.717   3.695 -0.2860  0.1550 -0.0249
  278DMF     C3 3817   1.632   2.712   3.930  0.9321 -0.3652  0.9521
  278DMF     O1 3818   1.669   2.658   4.031  0.0886  0.1904 -0.6159
  278DMF     H1 3819   1.646   2.474   3.688 -1.0907  2.7537 -0.8196
  278DMF     H2 3820   1.567   2.468   3.848 -0.3897 -0.8804 -0.8691
  278DMF     H3 3821   1.748   2.481   3.834 -0.2824 -0.1849 -1.4668
  278DMF     H4 3822   1.491   2.803   3.730 -1.1397 -0.7782  0.8784
  278DMF     H5 3823   1.484   2.647   3.643 -1.5247  1.8383 -0.7537
  278DMF     H6 3824   1.619   2.738   3.612  0.7108 -1.1954  0.4381
  278DMF     H7 3825   1.588   2.814   3.932  2.7849  0.4404  1.0889
  279DMF     C1 3826   2.876   2.153   3.142  0.2277  0.2209 -0.2113
  279DMF     N1 3827   2.902   2.265   3.054 -0.9715  0.1702  0.0440
  279DMF     C2 3828   2.998   2.362   3.101 -0.0521  0.1759 -0.0400
  279DMF     C3 3829   2.846   2.284   2.926 -0.0730  0.1865 -0.2494
  279DMF     O1 3830   2.775   2.191   2.871  0.0074 -0.3667 -0.3615
  279DMF     H1 3831   2.797   2.175   3.215  0.3880  1.6999 -0.4801
  279DMF     H2 3832   2.965   2.126   3.201  0.4844 -0.7030 -1.0093
  279DMF     H3 3833   2.834   2.068   3.086  2.4689 -1.9472  1.2799
  279DMF     H4 3834   2.994   2.464   3.061  1.6901 -0.0676 -0.8994
  279DMF     H5 3835   3.097   2.331   3.066 -0.4234 -1.9981  0.7519
  279DMF     H6 3836   3.015   2.368   3.209  2.6217  3.8506 -0.5641
  279DMF     H7 3837   2.874   2.379   2.878 -2.0777  0.9920  0.1256
  280DMF     C1 3838   1.351   2.765   2.259  0.2977  0.4824  0.2577
  280DMF     N1 3839   1.322   2.881   2.336 -0.4219 -1.0050 -0.5043
  280DMF     C2 3840   1.212   2.969   2.289  0.5988 -0.1550 -0.6171
  280DMF     C3 3841   1.415   2.927   2.426 -0.4075  0.0909 -0.3477
  280DMF     O1 3842   1.524   2.870   2.447 -0.6585 -0.5792 -0.0314
  280DMF     H1 3843   1.386   2.683   2.324 -2.5565 -0.9961  0.0208
  280DMF     H2 3844   1.418   2.794   2.177 -2.5778 -0.4196 -2.5343
  280DMF     H3 3845   1.256   2.739   2.210 -0.5458  1.3479  1.4106
  280DMF     H4 3846   1.135   2.966   2.367  0.2176 -1.1656 -1.0307
  280DMF     H5 3847   1.168   2.934   2.195  0.4355  0.3732 -0.7433
  280DMF     H6 3848   1.257   3.069   2.280 -0.9444  0.7942  1.7343
  280DMF     H7 3849   1.386   3.025   2.470 -0.0710 -0.0080  0.1009
  281DMF     C1 3850   2.061   3.384   3.738 -0.2233 -0.1933 -0.1936
  281DMF     N1 3851   2.034   3.413   3.600 -0.4545  0.2008 -1.1341
  281DMF     C2 3852   1.918   3.352   3.529  0.2068 -0.1178  0.0189
  281DMF     C3 3853   2.119   3.508   3.528  0.5400 -0.2615  0.2764
  281DMF     O1 3854   2.219   3.562   3.579  0.5230  0.1843 -0.7830
  281DMF     H1 3855   2.024   3.475   3.788  2.3877  1.3069 -0.8703
  281DMF     H2 3856   2.169   3.376   3.758 -0.2906  1.8438  1.1440
  281DMF     H3 3857   2.003   3.296   3.766 -1.6280  1.0373  0.8610
  281DMF     H4 3858   1.945   3.258   3.479  0.7810 -0.1318  0.3468
  281DMF     H5 3859   1.879   3.421   3.454 -0.9644 -2.7512 -1.8592
  281DMF     H6 3860   1.839   3.335   3.602 -0.5592  1.2058 -0.4948
  281DMF     H7 3861   2.094   3.527   3.422  2.0202 -0.7353 -0.1684
  282DMF     C1 3862   2.634   1.445   3.787  0.1403  0.2112 -0.0038
  282DMF     N1 3863   2.779   1.417   3.801  0.2299  0.5091 -0.5264
  282DMF     C2 3864   2.858   1.369   3.690 -0.3120 -0.5993 -0.0955
  282DMF     C3 3865   2.840   1.448   3.923 -0.3498  0.1340 -0.2475
  282DMF     O1 3866   2.780   1.485   4.020 -0.2336 -0.2877  0.1066
  282DMF     H1 3867   2.619   1.479   3.684 -0.5222 -0.4952 -0.1433
  282DMF     H2 3868   2.581   1.507   3.860 -3.1588 -1.2852 -1.0298
  282DMF     H3 3869   2.582   1.349   3.794  2.1009 -0.9248 -0.6153
  282DMF     H4 3870   2.895   1.269   3.715  1.5056  0.6613  2.4805
  282DMF     H5 3871   2.952   1.424   3.679 -2.1314  2.4456 -0.9450
  282DMF     H6 3872   2.784   1.365   3.609 -0.9330 -1.3720  0.4991
  282DMF     H7 3873   2.949   1.440   3.906 -0.3252  1.7012 -0.8728
  283DMF     C1 3874   2.666   0.128   2.248 -0.2181  0.0784  0.1532
  283DMF     N1 3875   2.737   0.259   2.256  0.7816 -0.2783 -0.2614
  283DMF     C2 3876   2.883   0.262   2.239 -0.1635  0.1078 -0.2931
  283DMF     C3 3877   2.665   0.374   2.280  0.0240 -0.2684 -0.8064
  283DMF     O1 3878   2.542   0.380   2.294 -0.8810  0.3908 -0.2672
  283DMF     H1 3879   2.599   0.116   2.162 -0.1622  2.2114 -0.1976
  283DMF     H2 3880   2.597   0.113   2.332  1.2068  2.0343  1.7316
  283DMF     H3 3881   2.732   0.040   2.248  0.7173  0.7730  0.1775
  283DMF     H4 3882   2.938   0.254   2.333  1.8391  1.8801 -1.2692
  283DMF     H5 3883   2.904   0.365   2.206  1.1461 -0.0825 -0.0539
  283DMF     H6 3884   2.925   0.188   2.170 -1.3964 -1.3240  0.4698
  283DMF     H7 3885   2.738   0.454   2.299  1.1043 -0.8409 -2.4175
  284DMF     C1 3886   0.712   1.947   3.001 -0.5453 -0.3230  0.0286
  284DMF     N1 3887   0.824   2.031   3.047  0.0669 -0.2620  0.0041
  284DMF     C2 3888   0.958   1.966   3.053  0.4324  0.1817 -0.3730
  284DMF     C3 3889   0.813   2.171   3.056  0.4350  0.5799  0.5258
  284DMF     O1 3890   0.710   2.232   3.030  0.4441  0.1727 -0.0483
  284DMF     H1 3891   0.661   1.993   2.915  1.0894 -3.4010 -2.7209
  284DMF     H2 3892   0.645   1.930   3.086  0.7187 -2.2472  0.6737
  284DMF     H3 3893   0.748   1.853   2.957 -0.2009  1.5206 -3.8724
  284DMF     H4 3894   0.957   1.864   3.013 -0.1292  0.3720 -0.8479
  284DMF     H5 3895   0.984   1.964   3.160  1.1109 -0.8980 -0.5519
  284DMF     H6 3896   1.034   2.014   2.991 -0.9339 -1.7347 -3.6386
  284DMF     H7 3897   0.906   2.221   3.086  0.7522  0.6337 -0.5279
  285DMF     C1 3898   2.010   2.042   2.251  0.0794  0.2933 -0.5765
  285DMF     N1 3899   1.921   1.923   2.262  0.3311 -0.2658 -0.5096
  285DMF     C2 3900   1.987   1.791   2.284  0.6462 -0.0053  0.4229
  285DMF     C3 3901   1.783   1.931   2.242  0.2569 -0.1265 -0.2702
  285DMF     O1 3902   1.729   2.038   2.222  0.3033 -0.0839  0.2231
  285DMF     H1 3903   1.959   2.114   2.187  2.3352  0.8671 -1.7793
  285DMF     H2 3904   2.105   2.010   2.207 -0.5627  0.4427 -2.1028
  285DMF     H3 3905   2.034   2.085   2.349  0.1410 -1.9333  0.4215
  285DMF     H4 3906   1.939   1.731   2.363  0.8766 -1.3772 -0.4672
  285DMF     H5 3907   2.093   1.803   2.308  0.9245  0.3857 -0.9779
  285DMF     H6 3908   1.984   1.729   2.194  0.0842 -3.4545  2.7060
  285DMF     H7 3909   1.733   1.833   2.251 -0.4657  0.3916  1.5719
  286DMF     C1 3910   1.545   1.966   3.660  0.4498  0.3836 -0.4514
  286DMF     N1 3911   1.647   2.013   3.558  0.5028  0.6979 -0.0094
  286DMF     C2 3912   1.748   1.910   3.512  0.4293  0.1644 -0.4216
  286DMF     C3 3913   1.647   2.145   3.510 -0.5934  0.0460 -0.5185
  286DMF     O1 3914   1.588   2.237   3.556 -0.0089 -0.1408  0.1078
  286DMF     H1 3915   1.591   1.908   3.740 -0.8550 -1.9772 -1.3720
  286DMF     H2 3916   1.474   1.899   3.610  0.1313 -0.9084  1.6962
  286DMF     H3 3917   1.476   2.044   3.693 -1.0040  1.1288 -4.8466
  286DMF     H4 3918   1.850   1.939   3.538 -0.4836  1.2672  2.0699
  286DMF     H5 3919   1.735   1.892   3.405  0.8738 -1.8296 -0.1631
  286DMF     H6 3920   1.729   1.817   3.568 -0.7296  0.8280  0.3253
  286DMF     H7 3921   1.724   2.157   3.432  0.8728  3.0891  1.3105
  287DMF     C1 3922   1.788   0.803   3.433 -0.3848  0.7271  0.2022
  287DMF     N1 3923   1.799   0.687   3.531  0.2455 -0.1532 -0.0834
  287DMF     C2 3924   1.930   0.627   3.573 -0.3775 -0.2389  0.0683
  287DMF     C3 3925   1.677   0.619   3.568 -0.2246 -0.1994  0.3811
  287DMF     O1 3926   1.574   0.657   3.516  0.6000 -0.6604 -0.1499
  287DMF     H1 3927   1.708   0.865   3.474 -0.3035  1.6415 -1.0151
  287DMF     H2 3928   1.745   0.771   3.337  0.8471 -0.1880 -0.0520
  287DMF     H3 3929   1.881   0.860   3.420 -0.9340  1.6404  0.2799
  287DMF     H4 3930   2.010   0.681   3.521  0.4677 -0.5011  1.0800
  287DMF     H5 3931   1.940   0.523   3.539 -1.7009 -0.2622 -0.2799
  287DMF     H6 3932   1.933   0.650   3.680  0.2214 -0.9918  0.2104
  287DMF     H7 3933   1.690   0.537   3.640  0.8116 -0.3829 -0.0000
  288DMF     C1 3934   0.548   2.864   2.938 -0.0071 -0.1687 -0.6563
  288DMF     N1 3935   0.475   2.952   3.034 -0.0626  0.2831 -0.1391
  288DMF     C2 3936   0.397   2.893   3.144  0.6164  0.0870  0.4030
  288DMF     C3 3937   0.458   3.087   3.014  0.0478 -0.1785  0.6325
  288DMF     O1 3938   0.500   3.145   2.918  0.1932  0.0381 -0.1216
  288DMF     H1 3939   0.646   2.834   2.978 -0.2714 -1.9866 -1.3294
  288DMF     H2 3940   0.554   2.916   2.841  1.3988  1.6959  0.4087
  288DMF     H3 3941   0.501   2.764   2.934  0.0035 -0.1979 -0.0577
  288DMF     H4 3942   0.394   2.786   3.123  2.4066  0.2453 -0.7162
  288DMF     H5 3943   0.295   2.930   3.130  0.6611  0.4478  1.0086
  288DMF     H6 3944   0.438   2.904   3.246 -0.4101  1.6417  0.6640
  288DMF     H7 3945   0.403   3.145   3.091 -1.0762  0.9543 -0.9799
  289DMF     C1 3946   1.907   2.961   3.331 -0.4157  0.1539 -0.2722
  289DMF     N1 3947   2.050   2.966   3.331 -0.3639 -0.2895 -0.1632
  289DMF     C2 3948   2.133   3.028   3.438  0.3197  0.8002 -0.1723
  289DMF     C3 3949   2.118   2.917   3.217 -0.1451  0.5768 -0.4198
  289DMF     O1 3950   2.063   2.860   3.121  0.7675 -0.4792 -0.7195
  289DMF     H1 3951   1.869   3.011   3.421  2.9748  0.4473  1.0657
  289DMF     H2 3952   1.881   2.855   3.331  1.2059 -0.2936 -2.9605
  289DMF     H3 3953   1.859   3.005   3.242  0.8003  0.4562 -0.7848
  289DMF     H4 3954   2.215   2.962   3.469  1.1338  1.3670 -1.0656
  289DMF     H5 3955   2.072   3.049   3.527  0.0576 -1.7001  0.2705
  289DMF     H6 3956   2.182   3.118   3.397  0.2890  0.7707 -0.2726
  289DMF     H7 3957   2.225   2.946   3.212  0.0786 -0.3994 -1.3623
  290DMF     C1 3958   0.307   3.250   3.714  0.8497  0.0544  0.2165
  290DMF     N1 3959   0.246   3.316   3.599 -0.6522  0.3290  0.5252
  290DMF     C2 3960   0.275   3.271   3.466  0.4459  0.5015  0.5787
  290DMF     C3 3961   0.131   3.397   3.620  0.4027  0.2183  0.4714
  290DMF     O1 3962   0.096   3.422   3.734  0.1197  0.9325  0.8035
  290DMF     H1 3963   0.302   3.309   3.806  1.6717 -1.6518  1.3816
  290DMF     H2 3964   0.416   3.241   3.698  0.8742  2.3614 -1.0321
  290DMF     H3 3965   0.262   3.151   3.732  1.9564 -0.1497  2.0006
  290DMF     H4 3966   0.276   3.357   3.398 -0.8863  0.3467  0.3636
  290DMF     H5 3967   0.195   3.203   3.435  0.3384 -0.6713  3.3884
  290DMF     H6 3968   0.360   3.202   3.458  1.7306  2.0402  0.6625
  290DMF     H7 3969   0.077   3.439   3.533  1.2195  2.5972  1.0706
  291DMF     C1 3970   3.053   1.119   2.595  0.1229  0.9196 -0.0751
  291DMF     N1 3971   3.183   1.122   2.664  0.3889  0.1530 -0.1661
  291DMF     C2 3972   3.276   1.223   2.616 -0.4932  0.7586 -0.0548
  291DMF     C3 3973   3.230   1.016   2.747 -0.7272 -0.0552 -0.2930
  291DMF     O1 3974   3.161   0.918   2.776  0.2087  0.4581 -0.7320
  291DMF     H1 3975   3.012   1.018   2.581 -0.1699  1.1227 -0.7184
  291DMF     H2 3976   3.061   1.167   2.497 -1.0623  1.2599 -0.0148
  291DMF     H3 3977   2.984   1.178   2.656 -0.6431 -0.0095 -0.0177
  291DMF     H4 3978   3.356   1.222   2.691 -1.8548 -0.4941  1.4215
  291DMF     H5 3979   3.226   1.321   2.610 -0.4043  0.9483  1.9362
  291DMF     H6 3980   3.323   1.190   2.523 -0.9710 -0.0532 -0.0110
  291DMF     H7 3981   3.335   1.038   2.771 -1.4256  1.5246  1.4279
  292DMF     C1 3982   2.231   1.345   0.611 -0.3177  0.3193  0.5998
  292DMF     N1 3983   2.124   1.289   0.697  0.5731  0.2107  0.1901
  292DMF     C2 3984   2.071   1.157   0.657 -0.0630  0.1475 -0.1727
  292DMF     C3 3985   2.059   1.367   0.791 -0.6007 -0.4084 -0.0482
  292DMF     O1 3986   2.097   1.485   0.796  0.7260  0.0926  0.5367
  292DMF     H1 3987   2.288   1.267   0.559 -0.8717 -0.7651  1.6186
  292DMF     H2 3988   2.299   1.410   0.668  0.7353  1.1038 -1.4950
  292DMF     H3 3989   2.180   1.407   0.535  2.0700 -2.9385 -3.8993
  292DMF     H4 3990   2.074   1.145   0.548  1.0344  0.5988 -0.1928
  292DMF     H5 3991   1.969   1.155   0.699  0.8188  1.7798  2.1371
  292DMF     H6 3992   2.130   1.076   0.703  0.6491  1.5514  1.4303
  292DMF     H7 3993   2.002   1.315   0.870 -0.8527 -0.3595 -0.1978
  293DMF     C1 3994   0.354   1.585   3.385 -0.1529  0.1698  0.3314
  293DMF     N1 3995   0.332   1.616   3.522 -0.1630  0.8966 -0.4058
  293DMF     C2 3996   0.231   1.712   3.565 -0.2980 -0.0466  0.0912
  293DMF     C3 3997   0.425   1.571   3.619 -0.9416  0.4591 -0.3637
  293DMF     O1 3998   0.532   1.516   3.581 -0.0679 -0.4889  0.1808
  293DMF     H1 3999   0.461   1.584   3.361 -0.1494 -0.5427  0.3831
  293DMF     H2 4000   0.308   1.658   3.317 -0.7878  0.2578  0.8505
  293DMF     H3 4001   0.306   1.489   3.365 -1.5321  0.3285  2.6275
  293DMF     H4 4002   0.134   1.661   3.561 -1.3049  1.8759 -0.5118
  293DMF     H5 4003   0.225   1.794   3.493 -0.6445  1.1174  1.4221
  293DMF     H6 4004   0.244   1.747   3.668 -1.4328 -1.1348  0.6201
  293DMF     H7 4005   0.401   1.591   3.725 -4.2075  1.2521 -1.2130
  294DMF     C1 4006   3.281   0.251   3.731  0.4227  0.3373  0.1499
  294DMF     N1 4007   3.156   0.200   3.670  0.8007  0.0914  0.6516
  294DMF     C2 4008   3.035   0.227   3.753 -0.1378 -0.3878 -0.5399
  294DMF     C3 4009   3.147   0.142   3.542  0.2284 -0.2254 -0.2571
  294DMF     O1 4010   3.249   0.103   3.486  0.7003 -0.8037 -0.0466
  294DMF     H1 4011   3.305   0.344   3.680 -1.4598  0.6800 -0.1322
  294DMF     H2 4012   3.359   0.179   3.703 -1.2699 -1.2975 -0.4506
  294DMF     H3 4013   3.258   0.276   3.836 -0.5527 -1.0386  0.2871
  294DMF     H4 4014   3.018   0.153   3.832  0.9458  0.5185  0.5528
  294DMF     H5 4015   2.951   0.228   3.682 -1.8884 -2.7916  1.3469
  294DMF     H6 4016   3.046   0.326   3.798 -1.2270 -0.3757 -0.2677
  294DMF     H7 4017   3.042   0.132   3.508  0.2304 -0.3966 -0.2140
  295DMF     C1 4018   3.377   0.753   3.475 -0.2174 -0.1729 -0.1600
  295DMF     N1 4019   3.349   0.703   3.613  0.8658 -0.1400  0.4703
  295DMF     C2 4020   3.264   0.785   3.702  0.1396 -0.8762 -0.2803
  295DMF     C3 4021   3.407   0.592   3.663 -0.0601  0.2416 -0.5134
  295DMF     O1 4022   3.485   0.526   3.601  0.2190  0.2698  0.4126
  295DMF     H1 4023   3.339   0.851   3.444 -0.1906  0.5089  1.8598
  295DMF     H2 4024   3.329   0.682   3.407  0.9871 -0.7825 -0.3892
  295DMF     H3 4025   3.487   0.760   3.477 -0.3398  2.1591  2.3579
  295DMF     H4 4026   3.316   0.799   3.797  0.2310  1.0799 -0.5878
  295DMF     H5 4027   3.168   0.733   3.712  0.1359 -0.8217 -0.0267
  295DMF     H6 4028   3.259   0.889   3.667 -2.4547  0.2548  3.2065
  295DMF     H7 4029   3.368   0.565   3.763  0.6378  1.3234  0.0553
  296DMF     C1 4030   1.569   3.116   3.588 -0.1639 -0.6642 -0.1439
  296DMF     N1 4031   1.624   3.204   3.699  0.0723 -0.1878  0.3779
  296DMF     C2 4032   1.527   3.307   3.736  0.3163 -0.0728  0.3380
  296DMF     C3 4033   1.707   3.144   3.800 -0.0725  0.0067  0.2825
  296DMF     O1 4034   1.765   3.044   3.790  0.4425 -0.2087  0.0733
  296DMF     H1 4035   1.524   3.178   3.509  0.8930 -0.5344 -0.6588
  296DMF     H2 4036   1.491   3.060   3.640 -1.0223  1.8124  1.3578
  296DMF     H3 4037   1.646   3.048   3.550 -1.0005 -2.2353  0.9447
  296DMF     H4 4038   1.422   3.279   3.721  1.1231 -2.1142 -1.6905
  296DMF     H5 4039   1.537   3.398   3.675 -2.1115  0.8959  1.2901
  296DMF     H6 4040   1.529   3.334   3.842 -1.2228  2.2578 -0.1845
  296DMF     H7 4041   1.725   3.211   3.886 -1.0571 -1.3618  1.5768
  297DMF     C1 4042   1.814   3.196   2.282 -0.0419 -0.1188 -0.0599
  297DMF     N1 4043   1.771   3.064   2.236 -0.0041  0.5138  0.1998
  297DMF     C2 4044   1.873   2.954   2.249  0.1973  0.0910  0.0654
  297DMF     C3 4045   1.638   3.030   2.218 -0.2128  0.0561 -1.2063
  297DMF     O1 4046   1.552   3.115   2.241  0.3192 -0.1190  0.3972
  297DMF     H1 4047   1.825   3.258   2.193  1.0897  0.0289  0.1834
  297DMF     H2 4048   1.913   3.177   2.325 -0.3691 -1.6864  0.0284
  297DMF     H3 4049   1.740   3.238   2.352  1.3253  0.4296  1.0804
  297DMF     H4 4050   1.823   2.859   2.229 -0.9949 -0.2564  4.2556
  297DMF     H5 4051   1.898   2.947   2.355 -1.5145 -0.7425  0.4265
  297DMF     H6 4052   1.962   2.975   2.188  0.7071  0.6496  0.9976
  297DMF     H7 4053   1.619   2.924   2.191  1.9139 -0.6061 -0.2156
  298DMF     C1 4054   0.125   0.157   2.245 -0.8657 -0.0649  0.4185
  298DMF     N1 4055   0.193   0.046   2.315  0.0852 -0.2178  0.5859
  298DMF     C2 4056   0.299  -0.031   2.245  0.2589  0.0345 -0.1503
  298DMF     C3 4057   0.163   0.031   2.448  0.2094 -0.0359 -0.0062
  298DMF     O1 4058   0.077   0.102   2.505  0.6380  0.1523 -0.1261
  298DMF     H1 4059   0.036   0.189   2.301 -2.0950 -2.0780 -0.3538
  298DMF     H2 4060   0.081   0.106   2.158 -2.2799  1.6297  0.1020
  298DMF     H3 4061   0.187   0.245   2.224  0.8309 -0.8191  2.1477
  298DMF     H4 4062   0.378  -0.058   2.316  2.3022  0.7085 -2.1072
  298DMF     H5 4063   0.350   0.036   2.175  1.1879 -0.6209 -0.1144
  298DMF     H6 4064   0.253  -0.115   2.191  0.1708 -0.8008  1.1914
  298DMF     H7 4065   0.219  -0.050   2.500 -0.5208 -0.7695 -0.3366
  299DMF     C1 4066   0.700   0.056   2.979  0.1880 -0.4552 -0.5822
  299DMF     N1 4067   0.688   0.153   2.878 -0.2072  0.5247 -0.1809
  299DMF     C2 4068   0.649   0.102   2.742  0.3346 -0.3988 -0.2720
  299DMF     C3 4069   0.750   0.276   2.882  0.2930  0.1202 -0.4470
  299DMF     O1 4070   0.783   0.338   2.984 -0.0635 -0.2001 -0.3886
  299DMF     H1 4071   0.806   0.037   3.001 -0.6231 -1.2373  3.0810
  299DMF     H2 4072   0.636  -0.030   2.955 -1.4995  0.3891  0.7171
  299DMF     H3 4073   0.651   0.096   3.069  2.0380 -0.4805  0.4587
  299DMF     H4 4074   0.728   0.126   2.670  0.5422  1.0653  0.4340
  299DMF     H5 4075   0.569   0.171   2.712  0.5397  0.8002  1.8567
  299DMF     H6 4076   0.631  -0.005   2.723 -3.4306 -0.2415  1.9762
  299DMF     H7 4077   0.757   0.320   2.781  1.0454  1.4003  0.1504
  300DMF     C1 4078   1.952   1.253   2.268  0.2531 -0.0712  0.2036
  300DMF     N1 4079   1.805   1.258   2.242 -0.0651 -0.2318  0.6410
  300DMF     C2 4080   1.728   1.129   2.272 -0.4162  0.1720  0.4893
  300DMF     C3 4081   1.736   1.380   2.218 -0.1038  0.1299  0.3267
  300DMF     O1 4082   1.803   1.482   2.215 -0.0443 -0.4811 -0.1508
  300DMF     H1 4083   1.988   1.150   2.259 -0.3411 -0.4462  1.8724
  300DMF     H2 4084   1.979   1.299   2.364  0.7913  1.0322 -0.4627
  300DMF     H3 4085   1.988   1.321   2.190  1.0866  0.1838  0.8035
  300DMF     H4 4086   1.674   1.107   2.179  0.5130 -1.5609  0.3380
  300DMF     H5 4087   1.664   1.139   2.361  1.6510  0.9890  1.9166
  300DMF     H6 4088   1.794   1.047   2.301 -0.9941 -0.0368  1.2369
  300DMF     H7 4089   1.626   1.371   2.215 -0.2158 -0.1013  3.4068
  301DMF     C1 4090   3.070   2.890   3.655 -0.0561 -0.3290 -0.0933
  301DMF     N1 4091   3.031   2.849   3.512  1.1227  0.1755 -0.0088
  301DMF     C2 4092   3.100   2.904   3.390  0.2464  0.7498 -0.4854
  301DMF     C3 4093   2.918   2.764   3.500  0.4116 -0.6965 -0.3516
  301DMF     O1 4094   2.853   2.729   3.600  0.4936  0.4053  0.4917
  301DMF     H1 4095   3.141   2.974   3.652 -0.3377 -0.0941 -0.2221
  301DMF     H2 4096   3.115   2.801   3.701 -1.8155 -1.8592 -1.2763
  301DMF     H3 4097   2.980   2.925   3.708 -1.0543  1.9605 -3.1653
  301DMF     H4 4098   3.078   3.012   3.389  0.5984  0.8209 -0.4919
  301DMF     H5 4099   3.053   2.858   3.302 -1.2483 -0.0120  0.6912
  301DMF     H6 4100   3.207   2.881   3.383  0.3349  0.7296  0.8471
  301DMF     H7 4101   2.892   2.736   3.397 -0.8764  1.5105 -0.6682
  302DMF     C1 4102   3.185   0.015   2.274 -0.1376 -0.2512  0.2460
  302DMF     N1 4103   3.220  -0.122   2.251  0.2982  0.6185 -0.4922
  302DMF     C2 4104   3.366  -0.158   2.234 -0.2397 -0.3693  0.0125
  302DMF     C3 4105   3.118  -0.216   2.225 -0.2097 -0.1300  0.2417
  302DMF     O1 4106   3.004  -0.180   2.207 -0.7212 -0.4088  0.1627
  302DMF     H1 4107   3.258   0.078   2.326  0.1138  0.4132 -0.8865
  302DMF     H2 4108   3.105   0.020   2.349 -2.5833 -1.6514 -2.1911
  302DMF     H3 4109   3.150   0.077   2.190 -0.1563 -1.3575 -0.5724
  302DMF     H4 4110   3.407  -0.122   2.139 -2.9333  0.7088 -0.7890
  302DMF     H5 4111   3.369  -0.267   2.231  0.5010 -0.3288 -1.5388
  302DMF     H6 4112   3.425  -0.125   2.321 -0.0856  0.7116 -0.4885
  302DMF     H7 4113   3.147  -0.322   2.210 -3.4865 -0.9021 -1.2658
  303DMF     C1 4114   0.189   1.746   1.131  0.3274 -0.3442  0.0692
  303DMF     N1 4115   0.256   1.619   1.090  0.5016  0.2020 -0.4206
  303DMF     C2 4116   0.324   1.538   1.199 -0.0375 -0.8094  0.4838
  303DMF     C3 4117   0.270   1.583   0.954  0.8677 -0.0126 -0.1120
  303DMF     O1 4118   0.247   1.662   0.863 -0.1449 -0.5620  0.1548
  303DMF     H1 4119   0.261   1.829   1.141  1.1888 -0.9486 -1.0652
  303DMF     H2 4120   0.138   1.745   1.228  0.5591  0.5844  0.2140
  303DMF     H3 4121   0.123   1.781   1.050 -0.2238 -2.2952 -0.3361
  303DMF     H4 4122   0.257   1.464   1.245  0.1813 -0.3568  1.5366
  303DMF     H5 4123   0.366   1.600   1.279 -0.5631 -0.2988  0.3667
  303DMF     H6 4124   0.407   1.481   1.155 -0.1080 -0.4815 -0.0845
  303DMF     H7 4125   0.323   1.489   0.933 -1.3073 -1.6539  1.4285
  304DMF     C1 4126   1.738   3.392   2.632  0.2805 -0.6131 -0.0832
  304DMF     N1 4127   1.708   3.251   2.635 -0.0604 -1.1341  0.2729
  304DMF     C2 4128   1.576   3.199   2.607  0.1619  0.9855  0.1888
  304DMF     C3 4129   1.800   3.162   2.682 -0.6089  0.0240 -0.5071
  304DMF     O1 4130   1.902   3.201   2.735 -0.5888 -0.2400  0.0389
  304DMF     H1 4131   1.778   3.418   2.533 -0.9766 -0.2586 -0.5080
  304DMF     H2 4132   1.799   3.426   2.716 -0.0353 -2.0221  0.7285
  304DMF     H3 4133   1.647   3.453   2.626  0.5255 -0.2571 -0.1952
  304DMF     H4 4134   1.562   3.198   2.499 -0.2800 -1.4019  0.2356
  304DMF     H5 4135   1.493   3.257   2.649 -1.1137 -0.9470  0.4074
  304DMF     H6 4136   1.570   3.097   2.649  2.6890  0.6539 -0.1925
  304DMF     H7 4137   1.763   3.058   2.678 -2.6453  0.7002  0.2450
  305DMF     C1 4138   3.337   0.466   2.278  0.1074  0.1451 -0.2593
  305DMF     N1 4139   3.457   0.534   2.326  0.3671 -0.5477 -0.2013
  305DMF     C2 4140   3.563   0.570   2.229  0.0812  0.0856 -0.5759
  305DMF     C3 4141   3.474   0.556   2.465 -0.1330 -0.2786 -0.3646
  305DMF     O1 4142   3.388   0.524   2.547 -0.0660  0.3895 -0.1346
  305DMF     H1 4143   3.362   0.413   2.186  0.6286 -0.8452  0.4397
  305DMF     H2 4144   3.263   0.545   2.262 -0.3133 -0.4360 -1.2246
  305DMF     H3 4145   3.294   0.391   2.345 -1.5307  1.1715 -0.1344
  305DMF     H4 4146   3.634   0.639   2.276  1.0955 -0.5060 -1.2433
  305DMF     H5 4147   3.512   0.618   2.144 -1.6182  1.0466  0.9301
  305DMF     H6 4148   3.616   0.478   2.204 -0.5030 -0.8489  1.5188
  305DMF     H7 4149   3.568   0.607   2.495 -0.7774  1.6436 -1.5227
  306DMF     C1 4150   0.006   0.903   2.468  0.5742 -0.1791  0.3644
  306DMF     N1 4151  -0.103   0.830   2.403 -0.0033  0.2027  0.4076
  306DMF     C2 4152  -0.218   0.779   2.478  0.1119 -0.4988  0.2913
  306DMF     C3 4153  -0.100   0.814   2.261  0.0355 -0.3619 -0.2038
  306DMF     O1 4154   0.003   0.827   2.197  0.1533  0.2102  0.4487
  306DMF     H1 4155   0.014   0.999   2.416 -0.9326 -1.1167 -1.6362
  306DMF     H2 4156   0.104   0.854   2.478  1.0573  0.4691 -1.0393
  306DMF     H3 4157  -0.039   0.927   2.565  2.9878  4.0944  0.5621
  306DMF     H4 4158  -0.245   0.677   2.449 -0.8776 -0.1302 -0.1167
  306DMF     H5 4159  -0.300   0.852   2.473  0.5068  0.0607  1.8981
  306DMF     H6 4160  -0.190   0.777   2.584  0.4917  1.7928  0.2753
  306DMF     H7 4161  -0.191   0.766   2.220 -0.4535 -0.7401  1.2609
  307DMF     C1 4162   2.535   2.415   2.749 -0.2031  0.0049  0.4513
  307DMF     N1 4163   2.432   2.466   2.663  0.3033  0.0325 -0.5578
  307DMF     C2 4164   2.334   2.362   2.617 -0.7136 -0.1563  0.1164
  307DMF     C3 4165   2.446   2.594   2.600  0.3003 -0.5856  0.0602
  307DMF     O1 4166   2.522   2.683   2.639  0.1205 -0.2508  0.1355
  307DMF     H1 4167   2.491   2.351   2.826 -1.0546 -0.0737 -0.0998
  307DMF     H2 4168   2.595   2.491   2.801 -0.5218 -0.6418  1.7722
  307DMF     H3 4169   2.603   2.344   2.699 -0.2218  0.2745  0.0417
  307DMF     H4 4170   2.389   2.312   2.536 -2.0043  0.8685 -1.4200
  307DMF     H5 4171   2.241   2.411   2.586 -0.8097 -0.6887 -0.4530
  307DMF     H6 4172   2.314   2.293   2.699 -0.8711 -0.4151 -0.1423
  307DMF     H7 4173   2.381   2.601   2.510  3.0333  0.8717 -1.8838
   3.40320   3.43847   3.80000
