HFIP comparator n4
 3225
    1GR      C1    1   0.000   0.000   1.900  0.0000  0.0000  0.0000
    1GR      C2    2   0.142   0.000   1.900  0.0000  0.0000  0.0000
    1GR      C3    3   0.213   0.123   1.900  0.0000  0.0000  0.0000
    1GR      C4    4   0.354   0.123   1.900  0.0000  0.0000  0.0000
    1GR      C5    5   0.000   0.246   1.900  0.0000  0.0000  0.0000
    1GR      C6    6   0.142   0.246   1.900  0.0000  0.0000  0.0000
    1GR      C7    7   0.213   0.368   1.900  0.0000  0.0000  0.0000
    1GR      C8    8   0.354   0.368   1.900  0.0000  0.0000  0.0000
    1GR      C9    9   0.000   0.491   1.900  0.0000  0.0000  0.0000
    1GR     C10   10   0.142   0.491   1.900  0.0000  0.0000  0.0000
    1GR     C11   11   0.213   0.614   1.900  0.0000  0.0000  0.0000
    1GR     C12   12   0.354   0.614   1.900  0.0000  0.0000  0.0000
    1GR     C13   13   3.403   0.737   1.900  0.0000  0.0000  0.0000
    1GR     C14   14   0.142   0.737   1.900  0.0000  0.0000  0.0000
    1GR     C15   15   0.213   0.860   1.900  0.0000  0.0000  0.0000
    1GR     C16   16   0.354   0.860   1.900  0.0000  0.0000  0.0000
    1GR     C17   17   0.000   0.982   1.900  0.0000  0.0000  0.0000
    1GR     C18   18   0.142   0.982   1.900  0.0000  0.0000  0.0000
    1GR     C19   19   0.213   1.105   1.900  0.0000  0.0000  0.0000
    1GR     C20   20   0.354   1.105   1.900  0.0000  0.0000  0.0000
    1GR     C21   21   0.000   1.228   1.900  0.0000  0.0000  0.0000
    1GR     C22   22   0.142   1.228   1.900  0.0000  0.0000  0.0000
    1GR     C23   23   0.213   1.351   1.900  0.0000  0.0000  0.0000
    1GR     C24   24   0.354   1.351   1.900  0.0000  0.0000  0.0000
    1GR     C25   25   0.000   1.474   1.900  0.0000  0.0000  0.0000
    1GR     C26   26   0.142   1.474   1.900  0.0000  0.0000  0.0000
    1GR     C27   27   0.213   1.596   1.900  0.0000  0.0000  0.0000
    1GR     C28   28   0.354   1.596   1.900  0.0000  0.0000  0.0000
    1GR     C29   29   0.000   1.719   1.900  0.0000  0.0000  0.0000
    1GR     C30   30   0.142   1.719   1.900  0.0000  0.0000  0.0000
    1GR     C31   31   0.213   1.842   1.900  0.0000  0.0000  0.0000
    1GR     C32   32   0.354   1.842   1.900  0.0000  0.0000  0.0000
    1GR     C33   33   0.000   1.965   1.900  0.0000  0.0000  0.0000
    1GR     C34   34   0.142   1.965   1.900  0.0000  0.0000  0.0000
    1GR     C35   35   0.213   2.088   1.900  0.0000  0.0000  0.0000
    1GR     C36   36   0.354   2.088   1.900  0.0000  0.0000  0.0000
    1GR     C37   37   0.000   2.210   1.900  0.0000  0.0000  0.0000
    1GR     C38   38   0.142   2.210   1.900  0.0000  0.0000  0.0000
    1GR     C39   39   0.213   2.333   1.900  0.0000  0.0000  0.0000
    1GR     C40   40   0.354   2.333   1.900  0.0000  0.0000  0.0000
    1GR     C41   41   0.000   2.456   1.900  0.0000  0.0000  0.0000
    1GR     C42   42   0.142   2.456   1.900  0.0000  0.0000  0.0000
    1GR     C43   43   0.213   2.579   1.900  0.0000  0.0000  0.0000
    1GR     C44   44   0.354   2.579   1.900  0.0000  0.0000  0.0000
    1GR     C45   45   0.000   2.702   1.900  0.0000  0.0000  0.0000
    1GR     C46   46   0.142   2.702   1.900  0.0000  0.0000  0.0000
    1GR     C47   47   0.213   2.824   1.900  0.0000  0.0000  0.0000
    1GR     C48   48   0.354   2.824   1.900  0.0000  0.0000  0.0000
    1GR     C49   49   0.000   2.947   1.900  0.0000  0.0000  0.0000
    1GR     C50   50   0.142   2.947   1.900  0.0000  0.0000  0.0000
    1GR     C51   51   0.213   3.070   1.900  0.0000  0.0000  0.0000
    1GR     C52   52   0.354   3.070   1.900  0.0000  0.0000  0.0000
    1GR     C53   53   0.000   3.193   1.900  0.0000  0.0000  0.0000
    1GR     C54   54   0.142   3.193   1.900  0.0000  0.0000  0.0000
    1GR     C55   55   0.213   3.316   1.900  0.0000  0.0000  0.0000
    1GR     C56   56   0.354   3.316   1.900  0.0000  0.0000  0.0000
    1GR     C57   57   0.425   0.000   1.900  0.0000  0.0000  0.0000
    1GR     C58   58   0.567   0.000   1.900  0.0000  0.0000  0.0000
    1GR     C59   59   0.638   0.123   1.900  0.0000  0.0000  0.0000
    1GR     C60   60   0.780   0.123   1.900  0.0000  0.0000  0.0000
    1GR     C61   61   0.425   0.246   1.900  0.0000  0.0000  0.0000
    1GR     C62   62   0.567   0.246   1.900  0.0000  0.0000  0.0000
    1GR     C63   63   0.638   0.368   1.900  0.0000  0.0000  0.0000
    1GR     C64   64   0.780   0.368   1.900  0.0000  0.0000  0.0000
    1GR     C65   65   0.425   0.491   1.900  0.0000  0.0000  0.0000
    1GR     C66   66   0.567   0.491   1.900  0.0000  0.0000  0.0000
    1GR     C67   67   0.638   0.614   1.900  0.0000  0.0000  0.0000
    1GR     C68   68   0.780   0.614   1.900  0.0000  0.0000  0.0000
    1GR     C69   69   0.425   0.737   1.900  0.0000  0.0000  0.0000
    1GR     C70   70   0.567   0.737   1.900  0.0000  0.0000  0.0000
    1GR     C71   71   0.638   0.860   1.900  0.0000  0.0000  0.0000
    1GR     C72   72   0.780   0.860   1.900  0.0000  0.0000  0.0000
    1GR     C73   73   0.425   0.982   1.900  0.0000  0.0000  0.0000
    1GR     C74   74   0.567   0.982   1.900  0.0000  0.0000  0.0000
    1GR     C75   75   0.638   1.105   1.900  0.0000  0.0000  0.0000
    1GR     C76   76   0.780   1.105   1.900  0.0000  0.0000  0.0000
    1GR     C77   77   0.425   1.228   1.900  0.0000  0.0000  0.0000
    1GR     C78   78   0.567   1.228   1.900  0.0000  0.0000  0.0000
    1GR     C79   79   0.638   1.351   1.900  0.0000  0.0000  0.0000
    1GR     C80   80   0.780   1.351   1.900  0.0000  0.0000  0.0000
    1GR     C81   81   0.425   1.474   1.900  0.0000  0.0000  0.0000
    1GR     C82   82   0.567   1.474   1.900  0.0000  0.0000  0.0000
    1GR     C83   83   0.638   1.596   1.900  0.0000  0.0000  0.0000
    1GR     C84   84   0.780   1.596   1.900  0.0000  0.0000  0.0000
    1GR     C85   85   0.425   1.719   1.900  0.0000  0.0000  0.0000
    1GR     C86   86   0.567   1.719   1.900  0.0000  0.0000  0.0000
    1GR     C87   87   0.638   1.842   1.900  0.0000  0.0000  0.0000
    1GR     C88   88   0.780   1.842   1.900  0.0000  0.0000  0.0000
    1GR     C89   89   0.425   1.965   1.900  0.0000  0.0000  0.0000
    1GR     C90   90   0.567   1.965   1.900  0.0000  0.0000  0.0000
    1GR     C91   91   0.638   2.088   1.900  0.0000  0.0000  0.0000
    1GR     C92   92   0.780   2.088   1.900  0.0000  0.0000  0.0000
    1GR     C93   93   0.425   2.210   1.900  0.0000  0.0000  0.0000
    1GR     C94   94   0.567   2.210   1.900  0.0000  0.0000  0.0000
    1GR     C95   95   0.638   2.333   1.900  0.0000  0.0000  0.0000
    1GR     C96   96   0.780   2.333   1.900  0.0000  0.0000  0.0000
    1GR     C97   97   0.425   2.456   1.900  0.0000  0.0000  0.0000
    1GR     C98   98   0.567   2.456   1.900  0.0000  0.0000  0.0000
    1GR     C99   99   0.638   2.579   1.900  0.0000  0.0000  0.0000
    1GR    C100  100   0.780   2.579   1.900  0.0000  0.0000  0.0000
    1GR    C101  101   0.425   2.702   1.900  0.0000  0.0000  0.0000
    1GR    C102  102   0.567   2.702   1.900  0.0000  0.0000  0.0000
    1GR    C103  103   0.638   2.824   1.900  0.0000  0.0000  0.0000
    1GR    C104  104   0.780   2.824   1.900  0.0000  0.0000  0.0000
    1GR    C105  105   0.425   2.947   1.900  0.0000  0.0000  0.0000
    1GR    C106  106   0.567   2.947   1.900  0.0000  0.0000  0.0000
    1GR    C107  107   0.638   3.070   1.900  0.0000  0.0000  0.0000
    1GR    C108  108   0.780   3.070   1.900  0.0000  0.0000  0.0000
    1GR    C109  109   0.425   3.193   1.900  0.0000  0.0000  0.0000
    1GR    C110  110   0.567   3.193   1.900  0.0000  0.0000  0.0000
    1GR    C111  111   0.638   3.316   1.900  0.0000  0.0000  0.0000
    1GR    C112  112   0.780   3.316   1.900  0.0000  0.0000  0.0000
    1GR    C113  113   0.851   0.000   1.900  0.0000  0.0000  0.0000
    1GR    C114  114   0.993   0.000   1.900  0.0000  0.0000  0.0000
    1GR    C115  115   1.064   0.123   1.900  0.0000  0.0000  0.0000
    1GR    C116  116   1.205   0.123   1.900  0.0000  0.0000  0.0000
    1GR    C117  117   0.851   0.246   1.900  0.0000  0.0000  0.0000
    1GR    C118  118   0.993   0.246   1.900  0.0000  0.0000  0.0000
    1GR    C119  119   1.064   0.368   1.900  0.0000  0.0000  0.0000
    1GR    C120  120   1.205   0.368   1.900  0.0000  0.0000  0.0000
    1GR    C121  121   0.851   0.491   1.900  0.0000  0.0000  0.0000
    1GR    C122  122   0.993   0.491   1.900  0.0000  0.0000  0.0000
    1GR    C123  123   1.064   0.614   1.900  0.0000  0.0000  0.0000
    1GR    C124  124   1.205   0.614   1.900  0.0000  0.0000  0.0000
    1GR    C125  125   0.851   0.737   1.900  0.0000  0.0000  0.0000
    1GR    C126  126   0.993   0.737   1.900  0.0000  0.0000  0.0000
    1GR    C127  127   1.064   0.860   1.900  0.0000  0.0000  0.0000
    1GR    C128  128   1.205   0.860   1.900  0.0000  0.0000  0.0000
    1GR    C129  129   0.851   0.982   1.900  0.0000  0.0000  0.0000
    1GR    C130  130   0.993   0.982   1.900  0.0000  0.0000  0.0000
    1GR    C131  131   1.064   1.105   1.900  0.0000  0.0000  0.0000
    1GR    C132  132   1.205   1.105   1.900  0.0000  0.0000  0.0000
    1GR    C133  133   0.851   1.228   1.900  0.0000  0.0000  0.0000
    1GR    C134  134   0.993   1.228   1.900  0.0000  0.0000  0.0000
    1GR    C135  135   1.064   1.351   1.900  0.0000  0.0000  0.0000
    1GR    C136  136   1.205   1.351   1.900  0.0000  0.0000  0.0000
    1GR    C137  137   0.851   1.474   1.900  0.0000  0.0000  0.0000
    1GR    C138  138   0.993   1.474   1.900  0.0000  0.0000  0.0000
    1GR    C139  139   1.064   1.596   1.900  0.0000  0.0000  0.0000
    1GR    C140  140   1.205   1.596   1.900  0.0000  0.0000  0.0000
    1GR    C141  141   0.851   1.719   1.900  0.0000  0.0000  0.0000
    1GR    C142  142   0.993   1.719   1.900  0.0000  0.0000  0.0000
    1GR    C143  143   1.064   1.842   1.900  0.0000  0.0000  0.0000
    1GR    C144  144   1.205   1.842   1.900  0.0000  0.0000  0.0000
    1GR    C145  145   0.851   1.965   1.900  0.0000  0.0000  0.0000
    1GR    C146  146   0.993   1.965   1.900  0.0000  0.0000  0.0000
    1GR    C147  147   1.064   2.088   1.900  0.0000  0.0000  0.0000
    1GR    C148  148   1.205   2.088   1.900  0.0000  0.0000  0.0000
    1GR    C149  149   0.851   2.210   1.900  0.0000  0.0000  0.0000
    1GR    C150  150   0.993   2.210   1.900  0.0000  0.0000  0.0000
    1GR    C151  151   1.064   2.333   1.900  0.0000  0.0000  0.0000
    1GR    C152  152   1.205   2.333   1.900  0.0000  0.0000  0.0000
    1GR    C153  153   0.851   2.456   1.900  0.0000  0.0000  0.0000
    1GR    C154  154   0.993   2.456   1.900  0.0000  0.0000  0.0000
    1GR    C155  155   1.064   2.579   1.900  0.0000  0.0000  0.0000
    1GR    C156  156   1.205   2.579   1.900  0.0000  0.0000  0.0000
    1GR    C157  157   0.851   2.702   1.900  0.0000  0.0000  0.0000
    1GR    C158  158   0.993   2.702   1.900  0.0000  0.0000  0.0000
    1GR    C159  159   1.064   2.824   1.900  0.0000  0.0000  0.0000
    1GR    C160  160   1.205   2.824   1.900  0.0000  0.0000  0.0000
    1GR    C161  161   0.851   2.947   1.900  0.0000  0.0000  0.0000
    1GR    C162  162   0.993   2.947   1.900  0.0000  0.0000  0.0000
    1GR    C163  163   1.064   3.070   1.900  0.0000  0.0000  0.0000
    1GR    C164  164   1.205   3.070   1.900  0.0000  0.0000  0.0000
    1GR    C165  165   0.851   3.193   1.900  0.0000  0.0000  0.0000
    1GR    C166  166   0.993   3.193   1.900  0.0000  0.0000  0.0000
    1GR    C167  167   1.064   3.316   1.900  0.0000  0.0000  0.0000
    1GR    C168  168   1.205   3.316   1.900  0.0000  0.0000  0.0000
    1GR    C169  169   1.276   0.000   1.900  0.0000  0.0000  0.0000
    1GR    C170  170   1.418   0.000   1.900  0.0000  0.0000  0.0000
    1GR    C171  171   1.489   0.123   1.900  0.0000  0.0000  0.0000
    1GR    C172  172   1.631   0.123   1.900  0.0000  0.0000  0.0000
    1GR    C173  173   1.276   0.246   1.900  0.0000  0.0000  0.0000
    1GR    C174  174   1.418   0.246   1.900  0.0000  0.0000  0.0000
    1GR    C175  175   1.489   0.368   1.900  0.0000  0.0000  0.0000
    1GR    C176  176   1.631   0.368   1.900  0.0000  0.0000  0.0000
    1GR    C177  177   1.276   0.491   1.900  0.0000  0.0000  0.0000
    1GR    C178  178   1.418   0.491   1.900  0.0000  0.0000  0.0000
    1GR    C179  179   1.489   0.614   1.900  0.0000  0.0000  0.0000
    1GR    C180  180   1.631   0.614   1.900  0.0000  0.0000  0.0000
    1GR    C181  181   1.276   0.737   1.900  0.0000  0.0000  0.0000
    1GR    C182  182   1.418   0.737   1.900  0.0000  0.0000  0.0000
    1GR    C183  183   1.489   0.860   1.900  0.0000  0.0000  0.0000
    1GR    C184  184   1.631   0.860   1.900  0.0000  0.0000  0.0000
    1GR    C185  185   1.276   0.982   1.900  0.0000  0.0000  0.0000
    1GR    C186  186   1.418   0.982   1.900  0.0000  0.0000  0.0000
    1GR    C187  187   1.489   1.105   1.900  0.0000  0.0000  0.0000
    1GR    C188  188   1.631   1.105   1.900  0.0000  0.0000  0.0000
    1GR    C189  189   1.276   1.228   1.900  0.0000  0.0000  0.0000
    1GR    C190  190   1.418   1.228   1.900  0.0000  0.0000  0.0000
    1GR    C191  191   1.489   1.351   1.900  0.0000  0.0000  0.0000
    1GR    C192  192   1.631   1.351   1.900  0.0000  0.0000  0.0000
    1GR    C193  193   1.276   1.474   1.900  0.0000  0.0000  0.0000
    1GR    C194  194   1.418   1.474   1.900  0.0000  0.0000  0.0000
    1GR    C195  195   1.489   1.596   1.900  0.0000  0.0000  0.0000
    1GR    C196  196   1.631   1.596   1.900  0.0000  0.0000  0.0000
    1GR    C197  197   1.276   1.719   1.900  0.0000  0.0000  0.0000
    1GR    C198  198   1.418   1.719   1.900  0.0000  0.0000  0.0000
    1GR    C199  199   1.489   1.842   1.900  0.0000  0.0000  0.0000
    1GR    C200  200   1.631   1.842   1.900  0.0000  0.0000  0.0000
    1GR    C201  201   1.276   1.965   1.900  0.0000  0.0000  0.0000
    1GR    C202  202   1.418   1.965   1.900  0.0000  0.0000  0.0000
    1GR    C203  203   1.489   2.088   1.900  0.0000  0.0000  0.0000
    1GR    C204  204   1.631   2.088   1.900  0.0000  0.0000  0.0000
    1GR    C205  205   1.276   2.210   1.900  0.0000  0.0000  0.0000
    1GR    C206  206   1.418   2.210   1.900  0.0000  0.0000  0.0000
    1GR    C207  207   1.489   2.333   1.900  0.0000  0.0000  0.0000
    1GR    C208  208   1.631   2.333   1.900  0.0000  0.0000  0.0000
    1GR    C209  209   1.276   2.456   1.900  0.0000  0.0000  0.0000
    1GR    C210  210   1.418   2.456   1.900  0.0000  0.0000  0.0000
    1GR    C211  211   1.489   2.579   1.900  0.0000  0.0000  0.0000
    1GR    C212  212   1.631   2.579   1.900  0.0000  0.0000  0.0000
    1GR    C213  213   1.276   2.702   1.900  0.0000  0.0000  0.0000
    1GR    C214  214   1.418   2.702   1.900  0.0000  0.0000  0.0000
    1GR    C215  215   1.489   2.824   1.900  0.0000  0.0000  0.0000
    1GR    C216  216   1.631   2.824   1.900  0.0000  0.0000  0.0000
    1GR    C217  217   1.276   2.947   1.900  0.0000  0.0000  0.0000
    1GR    C218  218   1.418   2.947   1.900  0.0000  0.0000  0.0000
    1GR    C219  219   1.489   3.070   1.900  0.0000  0.0000  0.0000
    1GR    C220  220   1.631   3.070   1.900  0.0000  0.0000  0.0000
    1GR    C221  221   1.276   3.193   1.900  0.0000  0.0000  0.0000
    1GR    C222  222   1.418   3.193   1.900  0.0000  0.0000  0.0000
    1GR    C223  223   1.489   3.316   1.900  0.0000  0.0000  0.0000
    1GR    C224  224   1.631   3.316   1.900  0.0000  0.0000  0.0000
    1GR    C225  225   1.702   0.000   1.900  0.0000  0.0000  0.0000
    1GR    C226  226   1.843   0.000   1.900  0.0000  0.0000  0.0000
    1GR    C227  227   1.914   0.123   1.900  0.0000  0.0000  0.0000
    1GR    C228  228   2.056   0.123   1.900  0.0000  0.0000  0.0000
    1GR    C229  229   1.702   0.246   1.900  0.0000  0.0000  0.0000
    1GR    C230  230   1.843   0.246   1.900  0.0000  0.0000  0.0000
    1GR    C231  231   1.914   0.368   1.900  0.0000  0.0000  0.0000
    1GR    C232  232   2.056   0.368   1.900  0.0000  0.0000  0.0000
    1GR    C233  233   1.702   0.491   1.900  0.0000  0.0000  0.0000
    1GR    C234  234   1.843   0.491   1.900  0.0000  0.0000  0.0000
    1GR    C235  235   1.914   0.614   1.900  0.0000  0.0000  0.0000
    1GR    C236  236   2.056   0.614   1.900  0.0000  0.0000  0.0000
    1GR    C237  237   1.702   0.737   1.900  0.0000  0.0000  0.0000
    1GR    C238  238   1.843   0.737   1.900  0.0000  0.0000  0.0000
    1GR    C239  239   1.914   0.860   1.900  0.0000  0.0000  0.0000
    1GR    C240  240   2.056   0.860   1.900  0.0000  0.0000  0.0000
    1GR    C241  241   1.702   0.982   1.900  0.0000  0.0000  0.0000
    1GR    C242  242   1.843   0.982   1.900  0.0000  0.0000  0.0000
    1GR    C243  243   1.914   1.105   1.900  0.0000  0.0000  0.0000
    1GR    C244  244   2.056   1.105   1.900  0.0000  0.0000  0.0000
    1GR    C245  245   1.702   1.228   1.900  0.0000  0.0000  0.0000
    1GR    C246  246   1.843   1.228   1.900  0.0000  0.0000  0.0000
    1GR    C247  247   1.914   1.351   1.900  0.0000  0.0000  0.0000
    1GR    C248  248   2.056   1.351   1.900  0.0000  0.0000  0.0000
    1GR    C249  249   1.702   1.474   1.900  0.0000  0.0000  0.0000
    1GR    C250  250   1.843   1.474   1.900  0.0000  0.0000  0.0000
    1GR    C251  251   1.914   1.596   1.900  0.0000  0.0000  0.0000
    1GR    C252  252   2.056   1.596   1.900  0.0000  0.0000  0.0000
    1GR    C253  253   1.702   1.719   1.900  0.0000  0.0000  0.0000
    1GR    C254  254   1.843   1.719   1.900  0.0000  0.0000  0.0000
    1GR    C255  255   1.914   1.842   1.900  0.0000  0.0000  0.0000
    1GR    C256  256   2.056   1.842   1.900  0.0000  0.0000  0.0000
    1GR    C257  257   1.702   1.965   1.900  0.0000  0.0000  0.0000
    1GR    C258  258   1.843   1.965   1.900  0.0000  0.0000  0.0000
    1GR    C259  259   1.914   2.088   1.900  0.0000  0.0000  0.0000
    1GR    C260  260   2.056   2.088   1.900  0.0000  0.0000  0.0000
    1GR    C261  261   1.702   2.210   1.900  0.0000  0.0000  0.0000
    1GR    C262  262   1.843   2.210   1.900  0.0000  0.0000  0.0000
    1GR    C263  263   1.914   2.333   1.900  0.0000  0.0000  0.0000
    1GR    C264  264   2.056   2.333   1.900  0.0000  0.0000  0.0000
    1GR    C265  265   1.702   2.456   1.900  0.0000  0.0000  0.0000
    1GR    C266  266   1.843   2.456   1.900  0.0000  0.0000  0.0000
    1GR    C267  267   1.914   2.579   1.900  0.0000  0.0000  0.0000
    1GR    C268  268   2.056   2.579   1.900  0.0000  0.0000  0.0000
    1GR    C269  269   1.702   2.702   1.900  0.0000  0.0000  0.0000
    1GR    C270  270   1.843   2.702   1.900  0.0000  0.0000  0.0000
    1GR    C271  271   1.914   2.824   1.900  0.0000  0.0000  0.0000
    1GR    C272  272   2.056   2.824   1.900  0.0000  0.0000  0.0000
    1GR    C273  273   1.702   2.947   1.900  0.0000  0.0000  0.0000
    1GR    C274  274   1.843   2.947   1.900  0.0000  0.0000  0.0000
    1GR    C275  275   1.914   3.070   1.900  0.0000  0.0000  0.0000
    1GR    C276  276   2.056   3.070   1.900  0.0000  0.0000  0.0000
    1GR    C277  277   1.702   3.193   1.900  0.0000  0.0000  0.0000
    1GR    C278  278   1.843   3.193   1.900  0.0000  0.0000  0.0000
    1GR    C279  279   1.914   3.316   1.900  0.0000  0.0000  0.0000
    1GR    C280  280   2.056   3.316   1.900  0.0000  0.0000  0.0000
    1GR    C281  281   2.127   0.000   1.900  0.0000  0.0000  0.0000
    1GR    C282  282   2.269   0.000   1.900  0.0000  0.0000  0.0000
    1GR    C283  283   2.340   0.123   1.900  0.0000  0.0000  0.0000
    1GR    C284  284   2.481   0.123   1.900  0.0000  0.0000  0.0000
    1GR    C285  285   2.127   0.246   1.900  0.0000  0.0000  0.0000
    1GR    C286  286   2.269   0.246   1.900  0.0000  0.0000  0.0000
    1GR    C287  287   2.340   0.368   1.900  0.0000  0.0000  0.0000
    1GR    C288  288   2.481   0.368   1.900  0.0000  0.0000  0.0000
    1GR    C289  289   2.127   0.491   1.900  0.0000  0.0000  0.0000
    1GR    C290  290   2.269   0.491   1.900  0.0000  0.0000  0.0000
    1GR    C291  291   2.340   0.614   1.900  0.0000  0.0000  0.0000
    1GR    C292  292   2.481   0.614   1.900  0.0000  0.0000  0.0000
    1GR    C293  293   2.127   0.737   1.900  0.0000  0.0000  0.0000
    1GR    C294  294   2.269   0.737   1.900  0.0000  0.0000  0.0000
    1GR    C295  295   2.340   0.860   1.900  0.0000  0.0000  0.0000
    1GR    C296  296   2.481   0.860   1.900  0.0000  0.0000  0.0000
    1GR    C297  297   2.127   0.982   1.900  0.0000  0.0000  0.0000
    1GR    C298  298   2.269   0.982   1.900  0.0000  0.0000  0.0000
    1GR    C299  299   2.340   1.105   1.900  0.0000  0.0000  0.0000
    1GR    C300  300   2.481   1.105   1.900  0.0000  0.0000  0.0000
    1GR    C301  301   2.127   1.228   1.900  0.0000  0.0000  0.0000
    1GR    C302  302   2.269   1.228   1.900  0.0000  0.0000  0.0000
    1GR    C303  303   2.340   1.351   1.900  0.0000  0.0000  0.0000
    1GR    C304  304   2.481   1.351   1.900  0.0000  0.0000  0.0000
    1GR    C305  305   2.127   1.474   1.900  0.0000  0.0000  0.0000
    1GR    C306  306   2.269   1.474   1.900  0.0000  0.0000  0.0000
    1GR    C307  307   2.340   1.596   1.900  0.0000  0.0000  0.0000
    1GR    C308  308   2.481   1.596   1.900  0.0000  0.0000  0.0000
    1GR    C309  309   2.127   1.719   1.900  0.0000  0.0000  0.0000
    1GR    C310  310   2.269   1.719   1.900  0.0000  0.0000  0.0000
    1GR    C311  311   2.340   1.842   1.900  0.0000  0.0000  0.0000
    1GR    C312  312   2.481   1.842   1.900  0.0000  0.0000  0.0000
    1GR    C313  313   2.127   1.965   1.900  0.0000  0.0000  0.0000
    1GR    C314  314   2.269   1.965   1.900  0.0000  0.0000  0.0000
    1GR    C315  315   2.340   2.088   1.900  0.0000  0.0000  0.0000
    1GR    C316  316   2.481   2.088   1.900  0.0000  0.0000  0.0000
    1GR    C317  317   2.127   2.210   1.900  0.0000  0.0000  0.0000
    1GR    C318  318   2.269   2.210   1.900  0.0000  0.0000  0.0000
    1GR    C319  319   2.340   2.333   1.900  0.0000  0.0000  0.0000
    1GR    C320  320   2.481   2.333   1.900  0.0000  0.0000  0.0000
    1GR    C321  321   2.127   2.456   1.900  0.0000  0.0000  0.0000
    1GR    C322  322   2.269   2.456   1.900  0.0000  0.0000  0.0000
    1GR    C323  323   2.340   2.579   1.900  0.0000  0.0000  0.0000
    1GR    C324  324   2.481   2.579   1.900  0.0000  0.0000  0.0000
    1GR    C325  325   2.127   2.702   1.900  0.0000  0.0000  0.0000
    1GR    C326  326   2.269   2.702   1.900  0.0000  0.0000  0.0000
    1GR    C327  327   2.340   2.824   1.900  0.0000  0.0000  0.0000
    1GR    C328  328   2.481   2.824   1.900  0.0000  0.0000  0.0000
    1GR    C329  329   2.127   2.947   1.900  0.0000  0.0000  0.0000
    1GR    C330  330   2.269   2.947   1.900  0.0000  0.0000  0.0000
    1GR    C331  331   2.340   3.070   1.900  0.0000  0.0000  0.0000
    1GR    C332  332   2.481   3.070   1.900  0.0000  0.0000  0.0000
    1GR    C333  333   2.127   3.193   1.900  0.0000  0.0000  0.0000
    1GR    C334  334   2.269   3.193   1.900  0.0000  0.0000  0.0000
    1GR    C335  335   2.340   3.316   1.900  0.0000  0.0000  0.0000
    1GR    C336  336   2.481   3.316   1.900  0.0000  0.0000  0.0000
    1GR    C337  337   2.552   0.000   1.900  0.0000  0.0000  0.0000
    1GR    C338  338   2.694   0.000   1.900  0.0000  0.0000  0.0000
    1GR    C339  339   2.765   0.123   1.900  0.0000  0.0000  0.0000
    1GR    C340  340   2.907   0.123   1.900  0.0000  0.0000  0.0000
    1GR    C341  341   2.552   0.246   1.900  0.0000  0.0000  0.0000
    1GR    C342  342   2.694   0.246   1.900  0.0000  0.0000  0.0000
    1GR    C343  343   2.765   0.368   1.900  0.0000  0.0000  0.0000
    1GR    C344  344   2.907   0.368   1.900  0.0000  0.0000  0.0000
    1GR    C345  345   2.552   0.491   1.900  0.0000  0.0000  0.0000
    1GR    C346  346   2.694   0.491   1.900  0.0000  0.0000  0.0000
    1GR    C347  347   2.765   0.614   1.900  0.0000  0.0000  0.0000
    1GR    C348  348   2.907   0.614   1.900  0.0000  0.0000  0.0000
    1GR    C349  349   2.552   0.737   1.900  0.0000  0.0000  0.0000
    1GR    C350  350   2.694   0.737   1.900  0.0000  0.0000  0.0000
    1GR    C351  351   2.765   0.860   1.900  0.0000  0.0000  0.0000
    1GR    C352  352   2.907   0.860   1.900  0.0000  0.0000  0.0000
    1GR    C353  353   2.552   0.982   1.900  0.0000  0.0000  0.0000
    1GR    C354  354   2.694   0.982   1.900  0.0000  0.0000  0.0000
    1GR    C355  355   2.765   1.105   1.900  0.0000  0.0000  0.0000
    1GR    C356  356   2.907   1.105   1.900  0.0000  0.0000  0.0000
    1GR    C357  357   2.552   1.228   1.900  0.0000  0.0000  0.0000
    1GR    C358  358   2.694   1.228   1.900  0.0000  0.0000  0.0000
    1GR    C359  359   2.765   1.351   1.900  0.0000  0.0000  0.0000
    1GR    C360  360   2.907   1.351   1.900  0.0000  0.0000  0.0000
    1GR    C361  361   2.552   1.474   1.900  0.0000  0.0000  0.0000
    1GR    C362  362   2.694   1.474   1.900  0.0000  0.0000  0.0000
    1GR    C363  363   2.765   1.596   1.900  0.0000  0.0000  0.0000
    1GR    C364  364   2.907   1.596   1.900  0.0000  0.0000  0.0000
    1GR    C365  365   2.552   1.719   1.900  0.0000  0.0000  0.0000
    1GR    C366  366   2.694   1.719   1.900  0.0000  0.0000  0.0000
    1GR    C367  367   2.765   1.842   1.900  0.0000  0.0000  0.0000
    1GR    C368  368   2.907   1.842   1.900  0.0000  0.0000  0.0000
    1GR    C369  369   2.552   1.965   1.900  0.0000  0.0000  0.0000
    1GR    C370  370   2.694   1.965   1.900  0.0000  0.0000  0.0000
    1GR    C371  371   2.765   2.088   1.900  0.0000  0.0000  0.0000
    1GR    C372  372   2.907   2.088   1.900  0.0000  0.0000  0.0000
    1GR    C373  373   2.552   2.210   1.900  0.0000  0.0000  0.0000
    1GR    C374  374   2.694   2.210   1.900  0.0000  0.0000  0.0000
    1GR    C375  375   2.765   2.333   1.900  0.0000  0.0000  0.0000
    1GR    C376  376   2.907   2.333   1.900  0.0000  0.0000  0.0000
    1GR    C377  377   2.552   2.456   1.900  0.0000  0.0000  0.0000
    1GR    C378  378   2.694   2.456   1.900  0.0000  0.0000  0.0000
    1GR    C379  379   2.765   2.579   1.900  0.0000  0.0000  0.0000
    1GR    C380  380   2.907   2.579   1.900  0.0000  0.0000  0.0000
    1GR    C381  381   2.552   2.702   1.900  0.0000  0.0000  0.0000
    1GR    C382  382   2.694   2.702   1.900  0.0000  0.0000  0.0000
    1GR    C383  383   2.765   2.824   1.900  0.0000  0.0000  0.0000
    1GR    C384  384   2.907   2.824   1.900  0.0000  0.0000  0.0000
    1GR    C385  385   2.552   2.947   1.900  0.0000  0.0000  0.0000
    1GR    C386  386   2.694   2.947   1.900  0.0000  0.0000  0.0000
    1GR    C387  387   2.765   3.070   1.900  0.0000  0.0000  0.0000
    1GR    C388  388   2.907   3.070   1.900  0.0000  0.0000  0.0000
    1GR    C389  389   2.552   3.193   1.900  0.0000  0.0000  0.0000
    1GR    C390  390   2.694   3.193   1.900  0.0000  0.0000  0.0000
    1GR    C391  391   2.765   3.316   1.900  0.0000  0.0000  0.0000
    1GR    C392  392   2.907   3.316   1.900  0.0000  0.0000  0.0000
    1GR    C393  393   2.978   0.000   1.900  0.0000  0.0000  0.0000
    1GR    C394  394   3.120   0.000   1.900  0.0000  0.0000  0.0000
    1GR    C395  395   3.191   0.123   1.900  0.0000  0.0000  0.0000
    1GR    C396  396   3.332   0.123   1.900  0.0000  0.0000  0.0000
    1GR    C397  397   2.978   0.246   1.900  0.0000  0.0000  0.0000
    1GR    C398  398   3.120   0.246   1.900  0.0000  0.0000  0.0000
    1GR    C399  399   3.191   0.368   1.900  0.0000  0.0000  0.0000
    1GR    C400  400   3.332   0.368   1.900  0.0000  0.0000  0.0000
    1GR    C401  401   2.978   0.491   1.900  0.0000  0.0000  0.0000
    1GR    C402  402   3.120   0.491   1.900  0.0000  0.0000  0.0000
    1GR    C403  403   3.191   0.614   1.900  0.0000  0.0000  0.0000
    1GR    C404  404   3.332   0.614   1.900  0.0000  0.0000  0.0000
    1GR    C405  405   2.978   0.737   1.900  0.0000  0.0000  0.0000
    1GR    C406  406   3.120   0.737   1.900  0.0000  0.0000  0.0000
    1GR    C407  407   3.191   0.860   1.900  0.0000  0.0000  0.0000
    1GR    C408  408   3.332   0.860   1.900  0.0000  0.0000  0.0000
    1GR    C409  409   2.978   0.982   1.900  0.0000  0.0000  0.0000
    1GR    C410  410   3.120   0.982   1.900  0.0000  0.0000  0.0000
    1GR    C411  411   3.191   1.105   1.900  0.0000  0.0000  0.0000
    1GR    C412  412   3.332   1.105   1.900  0.0000  0.0000  0.0000
    1GR    C413  413   2.978   1.228   1.900  0.0000  0.0000  0.0000
    1GR    C414  414   3.120   1.228   1.900  0.0000  0.0000  0.0000
    1GR    C415  415   3.191   1.351   1.900  0.0000  0.0000  0.0000
    1GR    C416  416   3.332   1.351   1.900  0.0000  0.0000  0.0000
    1GR    C417  417   2.978   1.474   1.900  0.0000  0.0000  0.0000
    1GR    C418  418   3.120   1.474   1.900  0.0000  0.0000  0.0000
    1GR    C419  419   3.191   1.596   1.900  0.0000  0.0000  0.0000
    1GR    C420  420   3.332   1.596   1.900  0.0000  0.0000  0.0000
    1GR    C421  421   2.978   1.719   1.900  0.0000  0.0000  0.0000
    1GR    C422  422   3.120   1.719   1.900  0.0000  0.0000  0.0000
    1GR    C423  423   3.191   1.842   1.900  0.0000  0.0000  0.0000
    1GR    C424  424   3.332   1.842   1.900  0.0000  0.0000  0.0000
    1GR    C425  425   2.978   1.965   1.900  0.0000  0.0000  0.0000
    1GR    C426  426   3.120   1.965   1.900  0.0000  0.0000  0.0000
    1GR    C427  427   3.191   2.088   1.900  0.0000  0.0000  0.0000
    1GR    C428  428   3.332   2.088   1.900  0.0000  0.0000  0.0000
    1GR    C429  429   2.978   2.210   1.900  0.0000  0.0000  0.0000
    1GR    C430  430   3.120   2.210   1.900  0.0000  0.0000  0.0000
    1GR    C431  431   3.191   2.333   1.900  0.0000  0.0000  0.0000
    1GR    C432  432   3.332   2.333   1.900  0.0000  0.0000  0.0000
    1GR    C433  433   2.978   2.456   1.900  0.0000  0.0000  0.0000
    1GR    C434  434   3.120   2.456   1.900  0.0000  0.0000  0.0000
    1GR    C435  435   3.191   2.579   1.900  0.0000  0.0000  0.0000
    1GR    C436  436   3.332   2.579   1.900  0.0000  0.0000  0.0000
    1GR    C437  437   2.978   2.702   1.900  0.0000  0.0000  0.0000
    1GR    C438  438   3.120   2.702   1.900  0.0000  0.0000  0.0000
    1GR    C439  439   3.191   2.824   1.900  0.0000  0.0000  0.0000
    1GR    C440  440   3.332   2.824   1.900  0.0000  0.0000  0.0000
    1GR    C441  441   2.978   2.947   1.900  0.0000  0.0000  0.0000
    1GR    C442  442   3.120   2.947   1.900  0.0000  0.0000  0.0000
    1GR    C443  443   3.191   3.070   1.900  0.0000  0.0000  0.0000
    1GR    C444  444   3.332   3.070   1.900  0.0000  0.0000  0.0000
    1GR    C445  445   2.978   3.193   1.900  0.0000  0.0000  0.0000
    1GR    C446  446   3.120   3.193   1.900  0.0000  0.0000  0.0000
    1GR    C447  447   3.191   3.316   1.900  0.0000  0.0000  0.0000
    1GR    C448  448   3.332   3.316   1.900  0.0000  0.0000  0.0000
    2PMMA   CX1  449   0.140   2.475   2.791  0.1292 -0.5545 -0.1357
    2PMMA   CA2  450   0.254   2.365   2.803 -0.2721 -0.3608 -0.0883
    2PMMA   CX3  451   0.373   2.392   2.708 -0.0555  0.2332  0.0563
    2PMMA    C4  452   0.293   2.381   2.951 -0.0607  1.1191 -1.6554
    2PMMA    O5  453   0.264   2.300   3.040  0.2804 -0.2256 -0.0375
    2PMMA   OS6  454   0.358   2.494   2.974  0.2307  0.7219 -0.2386
    2PMMA   CE7  455   0.395   2.520   3.108 -0.0518  0.2421  0.2314
    2PMMA   CX8  456   0.191   2.224   2.773  0.2345  0.5236 -0.0009
    2PMMA   CA9  457   0.263   2.085   2.747  0.0965  0.5620  0.3773
    2PMMA  CX10  458   0.341   2.095   2.608  0.8918  0.3016 -0.7241
    2PMMA   C11  459   0.146   1.984   2.731  0.1079  0.2132 -0.1395
    2PMMA   O12  460   0.110   1.940   2.627 -0.3185 -0.3429  0.3185
    2PMMA  OS13  461   0.083   1.964   2.851  0.3437 -0.0622 -0.6454
    2PMMA  CE14  462  -0.030   1.878   2.846 -0.4738  0.0278  0.7564
    2PMMA  CX15  463   0.353   2.045   2.866  0.5937 -0.6437  0.2849
    2PMMA  CA16  464   0.449   1.924   2.882 -1.3069 -0.3565  0.4640
    2PMMA  CX17  465   0.490   1.903   3.034 -0.0556  0.0968  0.7440
    2PMMA   C18  466   0.367   1.794   2.851 -0.3699  0.4105  0.4359
    2PMMA   O19  467   0.318   1.721   2.935 -1.0332 -0.2302 -0.2061
    2PMMA  OS20  468   0.386   1.756   2.720  0.3426  0.2597 -0.2983
    2PMMA  CE21  469   0.354   1.629   2.678 -0.9196 -0.0116 -0.4095
    2PMMA  CX22  470   0.577   1.940   2.789 -0.5999  0.0405 -0.2122
    2PMMA  CA23  471   0.710   1.870   2.818 -0.0326  0.2415 -0.5004
    2PMMA  CX24  472   0.701   1.718   2.808 -0.3258  0.9516  0.1179
    2PMMA   C25  473   0.787   1.918   2.939  0.3450  0.4233  0.7305
    2PMMA   O26  474   0.779   2.027   2.995  0.1233 -0.0796 -0.6984
    2PMMA  OS27  475   0.868   1.826   2.992  0.4528 -0.0645 -0.1901
    2PMMA  CE28  476   0.963   1.833   3.096  0.3499 -0.5969 -0.4958
    2PMMA  CX29  477   0.802   1.910   2.708 -0.0629  0.0771  0.6306
    2PMMA  HC30  478   0.095   2.479   2.691  0.1210  2.0504 -0.0731
    2PMMA  HC31  479   0.064   2.465   2.869 -0.3933  2.4531 -0.2075
    2PMMA  HC32  480   0.178   2.577   2.802  0.1671  0.0071 -4.5641
    2PMMA  HC33  481   0.457   2.338   2.752 -1.1796 -1.2516  0.4328
    2PMMA  HC34  482   0.402   2.497   2.707 -0.4968  0.3573  0.3665
    2PMMA  HC35  483   0.354   2.349   2.609  2.5776 -1.6041  0.2904
    2PMMA  H136  484   0.464   2.603   3.124  0.0091  0.6917 -2.1259
    2PMMA  H137  485   0.444   2.431   3.148  1.7103  0.9799 -0.2212
    2PMMA  H138  486   0.305   2.539   3.166 -0.0672 -0.2489  0.3669
    2PMMA  HC39  487   0.120   2.202   2.853 -0.5960 -2.6816 -1.5322
    2PMMA  HC40  488   0.122   2.230   2.688  0.6395  0.9721 -0.3051
    2PMMA  HC41  489   0.289   2.147   2.527  0.8813 -0.4942 -1.2347
    2PMMA  HC42  490   0.433   2.152   2.624  0.2520  1.0218  0.4766
    2PMMA  HC43  491   0.377   1.997   2.576  0.6047 -0.5255  1.3747
    2PMMA  H144  492  -0.082   1.881   2.943  0.9884  0.1861  1.5561
    2PMMA  H145  493   0.002   1.777   2.821  1.4984  1.1273 -1.2058
    2PMMA  H146  494  -0.098   1.910   2.767  0.2443  0.2189  0.2155
    2PMMA  HC47  495   0.409   2.136   2.890  1.3979 -1.0870  0.1117
    2PMMA  HC48  496   0.285   2.034   2.952 -1.7554  1.0509 -1.2973
    2PMMA  HC49  497   0.544   1.986   3.080 -1.0012  0.9084  0.4147
    2PMMA  HC50  498   0.547   1.810   3.046 -2.0741 -1.3526 -0.6174
    2PMMA  HC51  499   0.400   1.888   3.093 -1.2099 -2.1895 -1.4928
    2PMMA  H152  500   0.380   1.619   2.572 -3.0643 -0.9658 -0.8573
    2PMMA  H153  501   0.249   1.601   2.686 -0.5614 -1.4185 -0.5988
    2PMMA  H154  502   0.407   1.559   2.743  0.4297  0.6249 -0.7824
    2PMMA  HC55  503   0.546   1.922   2.686 -3.7692  2.0908  0.3290
    2PMMA  HC56  504   0.602   2.046   2.792 -2.3268  0.4213  1.6857
    2PMMA  HC57  505   0.801   1.674   2.808 -1.7476 -2.4207  0.3989
    2PMMA  HC58  506   0.658   1.690   2.905  0.7611  1.9719  0.9138
    2PMMA  HC59  507   0.641   1.681   2.724 -0.5716  2.6918 -0.5024
    2PMMA  H160  508   1.037   1.753   3.090 -2.2309 -2.9982 -0.9338
    2PMMA  H161  509   0.913   1.825   3.193 -0.7557  2.7488 -0.7092
    2PMMA  H162  510   1.017   1.928   3.094  0.2164 -0.4281  1.9199
    2PMMA  HC63  511   0.900   1.862   2.714 -0.8368 -1.7405 -0.6327
    2PMMA  HC64  512   0.772   1.882   2.606  1.4948  2.0379 -0.3865
    2PMMA  HC65  513   0.819   2.018   2.703 -0.5192  0.2618  2.6014
    3HFI     O1  514   2.203   2.018   0.584 -0.2413  0.2261  0.9328
    3HFI     C1  515   2.335   2.037   0.518  0.1151 -0.4733  0.2683
    3HFI     C2  516   2.450   1.982   0.599 -0.0288 -0.5601 -0.3409
    3HFI     F1  517   2.408   1.869   0.666 -0.3477 -0.2027 -0.1210
    3HFI     F2  518   2.508   2.067   0.687 -0.3877  0.0320 -0.5764
    3HFI     F3  519   2.552   1.933   0.527  0.5348 -0.4100  0.4239
    3HFI     C3  520   2.361   2.184   0.478  0.6117 -0.1146 -1.3949
    3HFI     F4  521   2.272   2.227   0.382 -0.3363  0.2783  0.1316
    3HFI     F5  522   2.491   2.199   0.430  0.1511  0.0196 -0.1207
    3HFI     F6  523   2.343   2.268   0.577  0.1606  0.2947  0.3254
    3HFI     H1  524   2.189   2.093   0.645 -0.1303  0.5766  0.5240
    3HFI     H2  525   2.340   1.975   0.427 -0.3841 -0.8927  0.5211
    4HFI     O1  526   0.172   2.954   0.957  0.9772  0.5928  0.3798
    4HFI     C1  527   0.099   3.032   0.861 -0.2474  0.4750 -0.1197
    4HFI     C2  528  -0.055   3.027   0.871  0.7016 -0.1749 -0.1902
    4HFI     F1  529  -0.109   2.908   0.833  0.1732  0.1824  0.1578
    4HFI     F2  530  -0.123   3.127   0.805 -0.3299  0.1006 -0.5112
    4HFI     F3  531  -0.092   3.026   1.002 -0.0322  0.0981 -0.1620
    4HFI     C3  532   0.154   3.028   0.714  0.7010 -0.5884  0.6176
    4HFI     F4  533   0.102   3.124   0.642 -0.1301 -0.5704  0.8477
    4HFI     F5  534   0.125   2.906   0.653 -0.7095  0.4443 -0.1138
    4HFI     F6  535   0.290   3.037   0.714  0.1419  0.5414 -0.2571
    4HFI     H1  536   0.183   2.862   0.927 -1.5293 -1.3922  5.0101
    4HFI     H2  537   0.121   3.137   0.884  3.5941 -0.7394  2.2447
    5HFI     O1  538   3.068   1.091   0.202  0.0286 -0.0699 -0.7594
    5HFI     C1  539   3.075   1.079   0.343  0.7414  0.0623  0.4438
    5HFI     C2  540   3.047   1.206   0.424  0.0930 -0.7274  1.1258
    5HFI     F1  541   2.935   1.269   0.376  0.1949  0.2767 -0.4212
    5HFI     F2  542   3.149   1.290   0.414 -0.0701 -0.2647 -0.1001
    5HFI     F3  543   3.027   1.173   0.557  0.8962 -0.4791  0.5511
    5HFI     C3  544   3.205   1.007   0.389 -0.0797  0.2727 -0.1565
    5HFI     F4  545   3.310   1.079   0.347 -0.3538 -0.0838  0.5168
    5HFI     F5  546   3.229   0.883   0.339 -0.1006 -0.6356  0.1319
    5HFI     F6  547   3.218   0.990   0.522  0.4811  0.3036 -0.2329
    5HFI     H1  548   3.152   1.104   0.155  0.0862 -0.7210 -0.8400
    5HFI     H2  549   2.997   1.007   0.370  1.3218 -0.7105  0.0884
    6HFI     O1  550   3.179   0.364   0.476  0.1065 -0.5421  0.5992
    6HFI     C1  551   3.057   0.295   0.510  0.6638 -0.5135  0.4624
    6HFI     C2  552   2.937   0.403   0.520  0.4120  0.4507  0.6949
    6HFI     F1  553   2.967   0.517   0.585  0.7808  0.1771  0.2082
    6HFI     F2  554   2.817   0.354   0.557 -0.3594  0.3185  0.1351
    6HFI     F3  555   2.922   0.445   0.390  0.0342 -0.1614  0.0865
    6HFI     C3  556   3.068   0.204   0.640 -0.4075  0.1967 -0.1730
    6HFI     F4  557   2.956   0.137   0.675  0.1125 -0.3485 -0.4509
    6HFI     F5  558   3.107   0.277   0.744  0.4974 -0.1627 -0.0416
    6HFI     F6  559   3.171   0.114   0.622  0.0660 -0.0099 -0.1677
    6HFI     H1  560   3.189   0.448   0.522  2.0380  0.5325 -1.6676
    6HFI     H2  561   3.026   0.225   0.431 -1.7193 -0.3474  1.2147
    7HFI     O1  562   3.180   2.496   0.023 -0.2956 -0.7944 -0.1762
    7HFI     C1  563   3.204   2.354   0.040  0.0468 -0.2399  0.4015
    7HFI     C2  564   3.355   2.322   0.078  0.3020  0.0627  0.5393
    7HFI     F1  565   3.444   2.315  -0.021  0.3534  0.3309  0.2622
    7HFI     F2  566   3.360   2.205   0.152 -0.2263 -0.1221  0.3147
    7HFI     F3  567   3.394   2.426   0.158 -0.6018 -0.3503  0.9647
    7HFI     C3  568   3.147   2.272  -0.073 -0.1849  0.5630 -0.0903
    7HFI     F4  569   3.016   2.298  -0.091 -0.0941 -0.0565 -0.5370
    7HFI     F5  570   3.149   2.140  -0.040 -0.3867 -0.5666  0.1056
    7HFI     F6  571   3.218   2.283  -0.190  0.2525  0.4341  0.3207
    7HFI     H1  572   3.177   2.529   0.115 -0.9386 -0.7016 -0.2262
    7HFI     H2  573   3.139   2.311   0.117  1.0791 -0.2382  1.2862
    8HFI     O1  574   2.638   0.796   1.344 -0.4655  0.1347 -0.2072
    8HFI     C1  575   2.520   0.716   1.375 -0.1317  0.2782 -0.0037
    8HFI     C2  576   2.402   0.729   1.275 -0.5159 -0.0679 -0.0202
    8HFI     F1  577   2.319   0.611   1.287 -0.2679  0.6619  0.1185
    8HFI     F2  578   2.459   0.733   1.148  0.5434 -0.0407  0.0121
    8HFI     F3  579   2.326   0.840   1.293 -0.0489  0.7388 -0.5941
    8HFI     C3  580   2.472   0.732   1.527 -0.7009 -0.0405 -0.1501
    8HFI     F4  581   2.425   0.852   1.553 -0.3423 -0.0196 -0.0401
    8HFI     F5  582   2.577   0.717   1.604 -0.2518 -0.0423  0.7502
    8HFI     F6  583   2.377   0.645   1.561  0.1746  0.7468  0.1721
    8HFI     H1  584   2.629   0.871   1.283 -0.4265 -0.6513 -1.1837
    8HFI     H2  585   2.553   0.612   1.370 -1.9053 -0.2493 -1.5917
    9HFI     O1  586   2.626   1.333   0.937  0.7962  0.6464 -0.4545
    9HFI     C1  587   2.640   1.183   0.934 -0.8263 -0.0482  0.4666
    9HFI     C2  588   2.583   1.130   1.066  0.1963 -0.0682 -0.4834
    9HFI     F1  589   2.637   1.010   1.101 -0.4642  0.0291 -0.0125
    9HFI     F2  590   2.451   1.117   1.048  0.6551  0.4532  0.4858
    9HFI     F3  591   2.603   1.216   1.167  0.1601 -0.2710 -0.4374
    9HFI     C3  592   2.785   1.151   0.911  0.4759 -0.8988 -0.5052
    9HFI     F4  593   2.806   1.028   0.891 -0.1978  0.0370  0.3823
    9HFI     F5  594   2.860   1.186   1.015  0.6125  0.0051  0.0008
    9HFI     F6  595   2.831   1.213   0.799 -0.1407 -0.0109 -0.1744
    9HFI     H1  596   2.613   1.352   0.842  2.5978 -0.5806 -0.9751
    9HFI     H2  597   2.581   1.137   0.854  0.5779 -0.7644 -0.1666
   10HFI     O1  598   2.955   2.739   1.251 -0.2479  0.1291 -0.6435
   10HFI     C1  599   2.949   2.758   1.109  0.6989 -0.7663 -0.2704
   10HFI     C2  600   3.011   2.645   1.033 -0.3039 -0.0794  0.6956
   10HFI     F1  601   2.974   2.526   1.081  0.4930 -0.3710 -0.0366
   10HFI     F2  602   3.148   2.661   1.038 -0.1451  0.3989 -0.4204
   10HFI     F3  603   2.979   2.643   0.901 -0.0933 -0.1986  0.0019
   10HFI     C3  604   2.981   2.906   1.078  0.3458  0.2796  0.5829
   10HFI     F4  605   2.870   2.982   1.088 -0.3173  0.2260 -0.2242
   10HFI     F5  606   3.021   2.927   0.951  0.4665  0.0743  0.5779
   10HFI     F6  607   3.069   2.958   1.165 -0.0880  0.0240 -0.1064
   10HFI     H1  608   2.966   2.826   1.294  0.2213 -1.1541  1.8766
   10HFI     H2  609   2.841   2.746   1.097  0.0290 -0.2605  4.3547
   11HFI     O1  610   0.020   0.608   0.059  0.3828 -0.9138 -0.5679
   11HFI     C1  611   0.104   0.681  -0.042  0.5523  0.2489 -0.1475
   11HFI     C2  612   0.085   0.618  -0.186 -0.1884 -0.9350 -0.3446
   11HFI     F1  613   0.129   0.488  -0.180 -0.0401  0.3478  0.3784
   11HFI     F2  614   0.150   0.682  -0.282  0.3038  0.2345  0.3487
   11HFI     F3  615  -0.049   0.630  -0.216 -0.3612 -0.4526 -0.0410
   11HFI     C3  616   0.257   0.695   0.002 -0.3210  0.2249 -0.3485
   11HFI     F4  617   0.267   0.774   0.116 -0.4549 -0.3030  0.0924
   11HFI     F5  618   0.338   0.760  -0.088  0.2336 -0.6806 -0.1699
   11HFI     F6  619   0.312   0.572   0.034  0.3366  0.2944  0.6241
   11HFI     H1  620   0.080   0.539   0.094  1.4186 -0.3492 -1.1837
   11HFI     H2  621   0.076   0.787  -0.043 -0.1397  0.0666  0.1237
   12HFI     O1  622   1.919   2.238   0.092  0.1023  0.1919 -0.0656
   12HFI     C1  623   1.852   2.333   0.182  0.6654  0.0380  0.6004
   12HFI     C2  624   1.931   2.469   0.169  0.4375 -0.5073 -0.1966
   12HFI     F1  625   1.864   2.566   0.234  0.0382  0.3205  0.2677
   12HFI     F2  626   1.956   2.508   0.041 -0.1336  0.3115 -0.3275
   12HFI     F3  627   2.052   2.457   0.228 -0.1370  0.5248  0.3708
   12HFI     C3  628   1.832   2.279   0.330 -0.0257  0.3952  0.2469
   12HFI     F4  629   1.956   2.260   0.380  0.1224 -0.4681  0.2272
   12HFI     F5  630   1.774   2.154   0.341  0.0352 -0.2350  0.3142
   12HFI     F6  631   1.765   2.373   0.405  0.0535  0.3235 -0.5358
   12HFI     H1  632   1.894   2.148   0.118 -0.4325  0.4460  0.3181
   12HFI     H2  633   1.751   2.364   0.151  0.9717  0.6430  0.1978
   13HFI     O1  634   3.318   2.897   3.617  0.3970  0.4382 -0.2074
   13HFI     C1  635   3.373   2.760   3.623 -0.2469  0.0964  0.1710
   13HFI     C2  636   3.501   2.759   3.718 -0.4947 -0.0601  0.7822
   13HFI     F1  637   3.555   2.634   3.713  0.3063  0.2274 -0.1361
   13HFI     F2  638   3.480   2.796   3.844 -0.2516 -0.7497 -0.4030
   13HFI     F3  639   3.592   2.849   3.668 -0.6447  0.2154  0.8368
   13HFI     C3  640   3.392   2.692   3.486  0.6435 -1.1243  0.1895
   13HFI     F4  641   3.275   2.693   3.418  0.3130 -0.0221  0.1085
   13HFI     F5  642   3.431   2.561   3.493  0.5997 -0.3329 -0.5402
   13HFI     F6  643   3.482   2.756   3.407 -0.5443  0.7473 -0.4614
   13HFI     H1  644   3.338   2.932   3.528  1.6584 -0.8485 -0.4556
   13HFI     H2  645   3.305   2.693   3.677  2.5102 -1.1945  2.1698
   14HFI     O1  646   2.002   1.588   0.767 -0.2655  0.5487  0.3663
   14HFI     C1  647   1.994   1.626   0.906  0.2710 -0.0468  0.5019
   14HFI     C2  648   1.858   1.691   0.926  0.6972  0.1784  0.3627
   14HFI     F1  649   1.859   1.817   0.874  0.6624 -0.6127 -0.2550
   14HFI     F2  650   1.824   1.715   1.056 -0.3328  0.3626  0.1996
   14HFI     F3  651   1.756   1.622   0.861  0.0418  0.3817 -0.6399
   14HFI     C3  652   2.115   1.723   0.954 -0.1545 -0.0131 -0.2720
   14HFI     F4  653   2.136   1.826   0.872 -0.1504  0.1560 -0.0182
   14HFI     F5  654   2.228   1.648   0.953  0.3910 -0.2458  0.0223
   14HFI     F6  655   2.103   1.768   1.080  0.6384 -0.1884  0.4512
   14HFI     H1  656   2.040   1.668   0.727 -1.4456 -0.1123 -2.1493
   14HFI     H2  657   1.989   1.541   0.976 -0.1163  0.2001  0.7810
   15HFI     O1  658   0.049   0.803   1.452  0.2442  0.2337 -0.0876
   15HFI     C1  659   0.106   0.918   1.512 -0.7250 -0.4424  0.3997
   15HFI     C2  660   0.014   1.051   1.505 -0.3565 -0.0946 -0.1984
   15HFI     F1  661   0.002   1.095   1.379  0.7424 -0.5915  0.5167
   15HFI     F2  662   0.065   1.159   1.570  0.4488 -0.4062 -0.7169
   15HFI     F3  663  -0.112   1.035   1.563 -0.3280  0.0512  0.1152
   15HFI     C3  664   0.249   0.955   1.449  0.2259 -0.5688  0.0073
   15HFI     F4  665   0.255   0.969   1.314  0.1068 -0.5626 -0.3924
   15HFI     F5  666   0.343   0.865   1.486 -0.8264 -0.3000 -0.2140
   15HFI     F6  667   0.300   1.074   1.503 -0.4862  0.0172 -0.0060
   15HFI     H1  668   0.033   0.836   1.362 -1.0068  1.2278  0.4824
   15HFI     H2  669   0.125   0.898   1.618  2.3652  0.4387  0.0788
   16HFI     O1  670   3.186   2.240   0.416  0.0797 -0.4105 -0.2548
   16HFI     C1  671   3.106   2.331   0.500  0.6255 -0.8126 -0.6575
   16HFI     C2  672   3.123   2.483   0.457  0.6840 -0.0112 -0.3791
   16HFI     F1  673   3.017   2.554   0.510  0.0005 -0.2579  0.4811
   16HFI     F2  674   3.130   2.501   0.322  0.1794  0.5641 -0.4824
   16HFI     F3  675   3.241   2.530   0.508  0.0704 -0.0232 -0.0279
   16HFI     C3  676   3.125   2.308   0.652 -1.0527 -0.1339  0.1723
   16HFI     F4  677   3.045   2.385   0.731 -0.1230  0.1803 -0.5264
   16HFI     F5  678   3.256   2.322   0.687 -0.0609  0.3208 -0.1987
   16HFI     F6  679   3.092   2.179   0.680  0.1889 -0.4199  0.2758
   16HFI     H1  680   3.276   2.248   0.452 -0.2319  1.4055  0.1743
   16HFI     H2  681   3.001   2.310   0.476  0.8757  0.7791 -3.3540
   17HFI     O1  682   1.814   2.733   1.290 -0.0145 -0.5952  0.5686
   17HFI     C1  683   1.713   2.774   1.380  0.6082 -0.2606  0.5546
   17HFI     C2  684   1.650   2.917   1.356 -0.4579  0.1522  0.4847
   17HFI     F1  685   1.739   3.015   1.373 -0.2326  0.2154  0.3353
   17HFI     F2  686   1.542   2.944   1.440 -0.1632 -0.6676 -0.2045
   17HFI     F3  687   1.608   2.925   1.229  0.1552 -0.2212  0.0953
   17HFI     C3  688   1.764   2.754   1.530  0.6930  0.3311  0.2103
   17HFI     F4  689   1.828   2.632   1.549 -0.5429  0.4473 -0.6800
   17HFI     F5  690   1.662   2.763   1.616  0.2722 -0.2242 -0.1726
   17HFI     F6  691   1.861   2.838   1.560  0.4204 -0.1685 -0.2177
   17HFI     H1  692   1.896   2.728   1.343 -0.9950  0.6058  2.2684
   17HFI     H2  693   1.628   2.704   1.374 -0.5221  1.2897 -2.3231
   18HFI     O1  694   1.580   2.049   0.106  0.2782 -0.6528  0.3849
   18HFI     C1  695   1.453   2.087   0.035 -0.5256  0.0598  0.2583
   18HFI     C2  696   1.490   2.158  -0.095 -0.3336  0.6602  0.3862
   18HFI     F1  697   1.568   2.081  -0.165 -0.2067  0.5120  0.1220
   18HFI     F2  698   1.562   2.274  -0.077  0.0622 -0.1357  0.3909
   18HFI     F3  699   1.389   2.179  -0.173  0.4209  0.0029  0.5171
   18HFI     C3  700   1.348   2.164   0.120 -0.1078 -0.8475 -0.0606
   18HFI     F4  701   1.341   2.116   0.244 -0.2429  0.4114 -0.0680
   18HFI     F5  702   1.226   2.140   0.068  0.0285 -0.4401  0.2440
   18HFI     F6  703   1.370   2.297   0.118 -0.3845  0.0722  0.2029
   18HFI     H1  704   1.566   1.967   0.156  2.6175 -1.0420  0.4569
   18HFI     H2  705   1.394   1.998   0.009 -3.0874  2.4236 -2.4776
   19HFI     O1  706   0.524   2.160   1.056 -0.0540 -0.0204  0.6711
   19HFI     C1  707   0.487   2.039   0.993 -0.6467  0.8238  0.4003
   19HFI     C2  708   0.335   2.027   0.962 -1.3483 -0.1775  0.1934
   19HFI     F1  709   0.314   1.930   0.880  0.4020 -0.1046 -0.5014
   19HFI     F2  710   0.298   2.140   0.889 -0.1220  0.4235 -0.0114
   19HFI     F3  711   0.259   2.008   1.070  0.0806 -0.2785  0.3799
   19HFI     C3  712   0.550   1.927   1.078 -0.5449  0.3490  0.0807
   19HFI     F4  713   0.683   1.917   1.058 -0.0609 -0.4702 -0.1720
   19HFI     F5  714   0.495   1.804   1.055 -0.2895 -0.5164 -0.0239
   19HFI     F6  715   0.529   1.961   1.210 -0.4542  0.7133 -0.4932
   19HFI     H1  716   0.455   2.171   1.123 -1.2554  3.2166 -1.0090
   19HFI     H2  717   0.546   2.039   0.900 -3.3926 -0.4511 -1.4009
   20HFI     O1  718   2.065   1.178   1.315 -0.5515 -0.2086  0.1244
   20HFI     C1  719   1.941   1.176   1.388 -0.7118 -0.5352 -0.7501
   20HFI     C2  720   1.881   1.322   1.397 -0.2233 -0.1136 -0.0311
   20HFI     F1  721   1.842   1.369   1.283 -0.1757  0.2618  0.4148
   20HFI     F2  722   1.977   1.406   1.445 -0.1051  0.2839 -0.1545
   20HFI     F3  723   1.778   1.329   1.480  0.0581  0.1325 -0.0576
   20HFI     C3  724   1.961   1.117   1.528 -0.0348  0.2149 -0.2233
   20HFI     F4  725   2.019   1.005   1.520 -0.0895  0.1284  0.2704
   20HFI     F5  726   1.846   1.094   1.600 -0.2485 -0.3914 -0.1429
   20HFI     F6  727   2.057   1.184   1.608 -0.2003 -0.4960  0.6865
   20HFI     H1  728   2.131   1.239   1.353  1.3095 -2.2619  0.3213
   20HFI     H2  729   1.874   1.108   1.335  0.1764 -1.4848 -0.6601
   21HFI     O1  730   3.365   3.399   0.851 -0.2191  0.2130 -0.1885
   21HFI     C1  731   3.431   3.500   0.785 -0.6988  0.2617  0.2023
   21HFI     C2  732   3.499   3.458   0.649 -0.0669  0.0740  0.1660
   21HFI     F1  733   3.410   3.390   0.565  0.1102  0.5505  0.6002
   21HFI     F2  734   3.602   3.377   0.657 -0.1087  0.0943 -0.2121
   21HFI     F3  735   3.538   3.566   0.572  0.0278  0.2533 -0.1267
   21HFI     C3  736   3.540   3.573   0.876  0.1381 -0.1926  0.1091
   21HFI     F4  737   3.642   3.485   0.909 -0.1059  0.2166 -0.2190
   21HFI     F5  738   3.484   3.614   0.993 -0.0659  0.3519  0.1898
   21HFI     F6  739   3.591   3.688   0.829  0.3685  0.0371  0.4874
   21HFI     H1  740   3.272   3.398   0.820 -0.4743 -0.3499  0.5795
   21HFI     H2  741   3.352   3.572   0.761 -2.7927 -3.0854 -3.6024
   22HFI     O1  742   3.144   0.153   3.273 -0.4419  0.0168 -0.0694
   22HFI     C1  743   3.077   0.029   3.250  0.4187 -0.2780 -0.2106
   22HFI     C2  744   3.170  -0.078   3.188 -0.2103 -0.5521 -0.2515
   22HFI     F1  745   3.279  -0.086   3.267 -0.2137  0.1074 -0.0623
   22HFI     F2  746   3.208  -0.041   3.066 -0.1730 -0.3043 -0.0873
   22HFI     F3  747   3.122  -0.205   3.185 -0.3283  0.1172 -0.3716
   22HFI     C3  748   2.951   0.048   3.162 -0.1729 -0.3615  0.0196
   22HFI     F4  749   2.867   0.134   3.236 -0.3649 -0.0823  0.4123
   22HFI     F5  750   2.881  -0.066   3.134 -0.1197  0.0643 -0.3518
   22HFI     F6  751   2.983   0.110   3.046  0.2532  0.4399 -0.0295
   22HFI     H1  752   3.174   0.197   3.192  0.7747 -1.8650 -0.6692
   22HFI     H2  753   3.045  -0.012   3.346  0.9329 -1.6368 -0.6078
   23HFI     O1  754   2.185   1.967   1.262 -0.5968 -0.3998 -0.4939
   23HFI     C1  755   2.100   1.935   1.372  0.0274  0.3218 -0.7050
   23HFI     C2  756   2.060   2.044   1.468 -0.4336  0.0678 -0.1908
   23HFI     F1  757   2.160   2.105   1.530  0.2649 -0.1380 -0.4381
   23HFI     F2  758   1.973   2.004   1.564  0.4744 -0.3206 -0.2809
   23HFI     F3  759   1.990   2.137   1.392 -0.0076 -0.5163  0.3625
   23HFI     C3  760   2.156   1.809   1.453 -1.1653  0.0316  0.0713
   23HFI     F4  761   2.183   1.713   1.363 -0.4934  0.5964 -0.0236
   23HFI     F5  762   2.073   1.753   1.541 -0.0936 -0.0986  0.5660
   23HFI     F6  763   2.269   1.837   1.525 -0.1278 -0.4802  0.0852
   23HFI     H1  764   2.244   1.891   1.252 -1.6061 -1.0927 -1.4041
   23HFI     H2  765   2.010   1.889   1.328 -0.8222 -1.4164  2.6636
   24HFI     O1  766   1.336   0.905   0.871 -0.0192  0.8300 -0.2343
   24HFI     C1  767   1.191   0.904   0.890  0.3483  0.5119 -0.0064
   24HFI     C2  768   1.148   0.835   1.018  0.2301  0.3564  0.1395
   24HFI     F1  769   1.224   0.868   1.121  0.4207 -0.4844  0.1476
   24HFI     F2  770   1.171   0.701   0.998 -0.4153 -0.2538  0.0868
   24HFI     F3  771   1.019   0.857   1.052  0.0743 -0.3708 -0.4679
   24HFI     C3  772   1.111   0.855   0.765  0.2338  0.1680  0.6303
   24HFI     F4  773   1.081   0.954   0.674 -0.0938 -0.5871 -0.1605
   24HFI     F5  774   0.989   0.805   0.799  0.3624 -0.1644  0.4863
   24HFI     F6  775   1.173   0.757   0.699 -0.8563  0.0636  0.1847
   24HFI     H1  776   1.361   0.812   0.857 -2.3698  0.0150  0.6983
   24HFI     H2  777   1.152   1.007   0.889 -1.1654 -0.0314  1.3836
   25HFI     O1  778   0.714   0.665   0.439 -0.1475  0.1160  0.5606
   25HFI     C1  779   0.644   0.590   0.336  0.0693 -0.6640 -0.4729
   25HFI     C2  780   0.649   0.675   0.204  0.7603 -0.6291 -0.5012
   25HFI     F1  781   0.770   0.672   0.150 -0.0504  0.0034  0.1959
   25HFI     F2  782   0.612   0.797   0.222 -0.0353  0.1526 -0.2294
   25HFI     F3  783   0.571   0.621   0.104 -0.3745  0.1411  0.0608
   25HFI     C3  784   0.493   0.560   0.370  0.4378  0.4911 -0.5282
   25HFI     F4  785   0.402   0.662   0.359  0.1621  0.2356  0.1575
   25HFI     F5  786   0.492   0.529   0.499 -0.0552 -0.3415 -0.3467
   25HFI     F6  787   0.445   0.455   0.303 -0.4568  0.1162 -0.4959
   25HFI     H1  788   0.707   0.612   0.521 -2.7774  0.5617  0.6855
   25HFI     H2  789   0.693   0.493   0.320 -1.1068 -1.2396 -0.6202
   26HFI     O1  790   2.424   2.495   2.877  0.0061  0.6417 -0.4911
   26HFI     C1  791   2.410   2.437   3.013 -0.0599 -0.2908 -0.4689
   26HFI     C2  792   2.321   2.307   3.023  0.1434 -0.4621  0.2792
   26HFI     F1  793   2.330   2.240   3.140  0.4039 -0.0188  0.3148
   26HFI     F2  794   2.368   2.225   2.921 -0.0723 -0.3518 -0.3148
   26HFI     F3  795   2.194   2.344   2.985  0.2914 -0.4029  0.1561
   26HFI     C3  796   2.380   2.544   3.117 -0.1767 -0.6922 -0.2132
   26HFI     F4  797   2.348   2.494   3.239  0.3016 -0.0703 -0.2429
   26HFI     F5  798   2.280   2.629   3.078  0.0435  0.4483  0.1360
   26HFI     F6  799   2.490   2.627   3.134  0.1550 -0.0601 -0.0167
   26HFI     H1  800   2.456   2.586   2.892 -0.1685  0.8680 -1.4235
   26HFI     H2  801   2.505   2.397   3.051 -0.2041  0.3020  0.5601
   27HFI     O1  802   1.824   2.610   0.989  0.2306 -0.1735  0.2355
   27HFI     C1  803   1.689   2.617   0.933  0.4427  0.0269  0.2772
   27HFI     C2  804   1.672   2.753   0.852  0.1645  0.0817  0.1065
   27HFI     F1  805   1.546   2.750   0.790  0.2659 -0.7023 -0.2285
   27HFI     F2  806   1.770   2.767   0.760  0.6551  0.4756  0.2657
   27HFI     F3  807   1.685   2.861   0.936 -0.0972  0.1372 -0.0672
   27HFI     C3  808   1.577   2.583   1.037  0.0932  0.3387  0.6388
   27HFI     F4  809   1.465   2.535   0.974  0.3803 -0.5012  0.3277
   27HFI     F5  810   1.542   2.681   1.122  0.2752  0.4986  0.4169
   27HFI     F6  811   1.618   2.479   1.125  0.6242 -0.4199 -0.2495
   27HFI     H1  812   1.820   2.580   1.082 -1.6849  1.3142  0.6771
   27HFI     H2  813   1.673   2.545   0.852  0.2385  0.2917  0.0818
   28HFI     O1  814   0.274   0.997   3.437 -0.0286 -0.2647 -0.4026
   28HFI     C1  815   0.418   0.958   3.460  0.0464  0.1812  0.3484
   28HFI     C2  816   0.493   1.066   3.547  0.0181  0.8450 -0.3081
   28HFI     F1  817   0.481   1.186   3.490 -0.1747  0.6041  0.4201
   28HFI     F2  818   0.624   1.042   3.565 -0.1300  0.4879  0.0037
   28HFI     F3  819   0.428   1.073   3.662 -0.1858  0.4869  0.4409
   28HFI     C3  820   0.496   0.918   3.326 -0.1902  0.4117  0.1891
   28HFI     F4  821   0.441   0.818   3.267  0.2824 -0.1815 -0.3020
   28HFI     F5  822   0.627   0.882   3.350 -0.0701  0.2013 -0.0714
   28HFI     F6  823   0.489   1.018   3.237 -0.4262  0.1268  0.3222
   28HFI     H1  824   0.270   1.079   3.386 -1.0443  0.9966  1.6299
   28HFI     H2  825   0.417   0.866   3.520 -3.0329 -0.2468 -0.2883
   29HFI     O1  826   0.816   2.308   0.657  0.0552 -0.1044 -0.4148
   29HFI     C1  827   0.715   2.412   0.638 -0.4360 -0.9807 -1.1337
   29HFI     C2  828   0.783   2.554   0.661  0.9686 -0.1015  0.2730
   29HFI     F1  829   0.893   2.574   0.583 -0.1674 -0.2607  0.0828
   29HFI     F2  830   0.819   2.557   0.785  0.4300  0.2320  0.0052
   29HFI     F3  831   0.686   2.653   0.642 -0.7592 -0.1051 -0.3574
   29HFI     C3  832   0.581   2.400   0.725 -0.0567  0.0699 -0.7268
   29HFI     F4  833   0.532   2.270   0.727  0.0948 -0.0488  0.0330
   29HFI     F5  834   0.473   2.473   0.676 -0.1729 -0.2004  0.2064
   29HFI     F6  835   0.597   2.436   0.857 -0.5319  0.2190  0.5225
   29HFI     H1  836   0.815   2.278   0.750  1.0963  1.1542  0.0239
   29HFI     H2  837   0.683   2.415   0.533 -0.3339  1.7395 -1.1133
   30HFI     O1  838   3.329   2.466   0.948  0.0032 -0.9531 -0.3456
   30HFI     C1  839   3.468   2.438   0.970  0.6842 -0.3533  0.2551
   30HFI     C2  840   3.491   2.394   1.115  0.3682 -0.4441 -0.2208
   30HFI     F1  841   3.620   2.360   1.127  1.2126 -0.3147  0.1900
   30HFI     F2  842   3.411   2.291   1.149  0.2900  0.0093 -0.8101
   30HFI     F3  843   3.464   2.499   1.207  0.1567 -0.5061 -0.0603
   30HFI     C3  844   3.558   2.560   0.929  0.3682  0.2175  0.3920
   30HFI     F4  845   3.537   2.670   0.999  0.3658 -0.1290 -0.3426
   30HFI     F5  846   3.527   2.592   0.803 -0.9174 -0.3225  0.4053
   30HFI     F6  847   3.692   2.526   0.931 -0.7181  0.7667 -0.5460
   30HFI     H1  848   3.312   2.536   0.883  2.3205 -0.5472 -0.5587
   30HFI     H2  849   3.500   2.358   0.902 -3.1772 -0.2762 -1.7455
   31HFI     O1  850   2.083   0.411   1.165  0.6241 -0.2946 -0.0959
   31HFI     C1  851   2.107   0.299   1.083 -0.0399  0.1084  0.6789
   31HFI     C2  852   2.263   0.269   1.064 -0.4460  0.0254 -0.1097
   31HFI     F1  853   2.313   0.371   0.990 -0.0848 -0.2806  0.0617
   31HFI     F2  854   2.289   0.143   1.009  0.0715 -0.0601 -0.0166
   31HFI     F3  855   2.332   0.268   1.181 -0.0354 -0.4381  0.1785
   31HFI     C3  856   2.031   0.293   0.945 -0.0340 -0.0839 -0.5856
   31HFI     F4  857   1.963   0.177   0.942 -0.3559 -0.3285  0.0837
   31HFI     F5  858   2.124   0.284   0.843  0.1052 -0.1470 -0.0145
   31HFI     F6  859   1.944   0.390   0.929 -0.0291 -0.1945 -0.3537
   31HFI     H1  860   2.079   0.491   1.111 -1.4371 -1.1247 -1.2362
   31HFI     H2  861   2.062   0.219   1.145 -0.7658  0.0992  0.1533
   32HFI     O1  862   3.197   1.497   1.483  0.1459 -0.0834 -0.0486
   32HFI     C1  863   3.182   1.633   1.548 -0.0392 -0.6923 -0.5159
   32HFI     C2  864   3.050   1.700   1.526  0.5079  0.2186  0.1697
   32HFI     F1  865   3.027   1.722   1.394  0.0622 -0.5197 -0.2835
   32HFI     F2  866   3.034   1.813   1.590  0.2979 -0.2273  0.0694
   32HFI     F3  867   2.955   1.616   1.569 -0.1345 -0.4923 -0.0112
   32HFI     C3  868   3.309   1.729   1.526 -0.7411 -0.4409  0.3265
   32HFI     F4  869   3.289   1.864   1.539  0.5224  0.0232 -0.1363
   32HFI     F5  870   3.355   1.711   1.395 -0.3157  0.0820 -0.3182
   32HFI     F6  871   3.408   1.681   1.608 -0.5986 -0.1921 -0.0375
   32HFI     H1  872   3.247   1.507   1.401  0.6313 -3.3836 -0.2559
   32HFI     H2  873   3.177   1.617   1.656 -1.3804  1.8326 -0.1496
   33HFI     O1  874   3.267   2.784   1.288  0.4330 -0.1599  0.4178
   33HFI     C1  875   3.322   2.866   1.397  0.6057  0.3134 -0.1276
   33HFI     C2  876   3.458   2.808   1.443 -0.5751 -0.1831 -0.8846
   33HFI     F1  877   3.518   2.877   1.544  0.1916  0.3287  0.2881
   33HFI     F2  878   3.542   2.810   1.341 -0.0084  0.5363  0.0966
   33HFI     F3  879   3.446   2.675   1.480  0.6113 -0.0717  0.5277
   33HFI     C3  880   3.221   2.887   1.512  0.8107  0.0382  0.1157
   33HFI     F4  881   3.264   2.981   1.598  0.1632  0.1927 -0.0090
   33HFI     F5  882   3.203   2.770   1.577 -0.0929  0.4283  0.3483
   33HFI     F6  883   3.097   2.923   1.462  0.0406 -0.0159 -0.2053
   33HFI     H1  884   3.259   2.695   1.327 -0.0979 -1.0062 -1.5838
   33HFI     H2  885   3.347   2.964   1.355  0.9047  0.1736 -0.2778
   34HFI     O1  886   3.367   0.418   1.316  0.4912  0.0197  0.1297
   34HFI     C1  887   3.492   0.365   1.386 -0.0656  0.5520 -0.7187
   34HFI     C2  888   3.476   0.362   1.536  0.2932  0.2456 -0.4873
   34HFI     F1  889   3.363   0.301   1.574  0.2584  0.1095 -0.6076
   34HFI     F2  890   3.458   0.491   1.574  0.1205  0.3595  0.2761
   34HFI     F3  891   3.574   0.308   1.607  0.0535 -0.2895  0.1376
   34HFI     C3  892   3.621   0.434   1.326 -0.7009  0.1112 -0.1336
   34HFI     F4  893   3.649   0.550   1.390  0.7571 -0.0332 -0.2786
   34HFI     F5  894   3.598   0.460   1.192  0.4852 -0.2277  0.2503
   34HFI     F6  895   3.730   0.355   1.324 -0.0955  0.1659 -0.2537
   34HFI     H1  896   3.340   0.510   1.336  0.9450  0.4984 -1.3961
   34HFI     H2  897   3.508   0.260   1.359  0.6854  1.3475 -3.4604
   35HFI     O1  898   3.358   0.725   2.805 -0.0270 -0.0340 -0.2653
   35HFI     C1  899   3.463   0.792   2.887  0.4585 -0.7839 -0.0995
   35HFI     C2  900   3.439   0.946   2.881 -0.0750 -0.2554  0.0147
   35HFI     F1  901   3.493   0.996   2.771 -0.0734 -0.2936 -0.0731
   35HFI     F2  902   3.483   1.019   2.987 -0.4513 -0.0875  0.1555
   35HFI     F3  903   3.308   0.969   2.875  0.2772 -0.1729 -0.2307
   35HFI     C3  904   3.605   0.755   2.846  0.2052 -0.6497 -0.4277
   35HFI     F4  905   3.612   0.621   2.837 -0.6205 -0.1945 -0.4723
   35HFI     F5  906   3.696   0.790   2.938  0.7942  0.1449  0.1311
   35HFI     F6  907   3.651   0.810   2.731  0.3704 -0.3055 -0.2524
   35HFI     H1  908   3.384   0.744   2.713 -2.5504 -2.0745 -1.4627
   35HFI     H2  909   3.457   0.756   2.990 -3.1546  1.0437  0.3813
   36HFI     O1  910   2.779   0.536   1.143  0.3730 -0.1790  0.9839
   36HFI     C1  911   2.732   0.514   1.009 -0.3741  0.1934  0.3093
   36HFI     C2  912   2.741   0.358   0.967  0.7974  0.5226 -0.5269
   36HFI     F1  913   2.669   0.297   1.056 -0.0289  0.1141  0.6914
   36HFI     F2  914   2.859   0.300   0.981 -0.0742  0.3611 -0.0992
   36HFI     F3  915   2.690   0.327   0.848 -0.1596  0.4768 -0.0502
   36HFI     C3  916   2.803   0.597   0.899  0.3405  0.6196 -0.4734
   36HFI     F4  917   2.934   0.559   0.876 -0.1749 -0.1494  0.0836
   36HFI     F5  918   2.800   0.729   0.931 -0.3290 -0.4127 -0.2894
   36HFI     F6  919   2.735   0.586   0.787 -0.1704  0.1092  0.1609
   36HFI     H1  920   2.766   0.457   1.197 -0.7809 -1.5507 -1.2228
   36HFI     H2  921   2.627   0.542   0.998 -0.1357  0.7441 -0.5950
   37HFI     O1  922   0.368   3.133   1.296  0.0128 -0.4005  0.1204
   37HFI     C1  923   0.322   3.275   1.311  0.2259 -0.5641 -0.2862
   37HFI     C2  924   0.183   3.276   1.378 -0.5130  0.1035  0.3958
   37HFI     F1  925   0.104   3.183   1.317  0.0181  0.1065 -0.0984
   37HFI     F2  926   0.113   3.396   1.374  0.5613 -0.1755 -0.3399
   37HFI     F3  927   0.191   3.243   1.511 -0.3664 -0.0592  0.2567
   37HFI     C3  928   0.306   3.352   1.176 -0.6344 -0.0921  0.2390
   37HFI     F4  929   0.272   3.484   1.191 -0.3250  0.1860  0.6247
   37HFI     F5  930   0.217   3.286   1.091 -0.1999  0.0029  0.0077
   37HFI     F6  931   0.424   3.351   1.106 -0.0709 -0.3727  0.1455
   37HFI     H1  932   0.294   3.072   1.310  0.8089 -1.0208  1.7741
   37HFI     H2  933   0.400   3.334   1.361 -0.7143  1.2993 -0.9641
   38HFI     O1  934   3.294   2.147   0.929 -0.0230  0.0386  0.4163
   38HFI     C1  935   3.217   2.076   1.028 -0.3899 -0.2518 -0.7233
   38HFI     C2  936   3.208   1.924   0.997 -1.0378 -0.1167 -0.3442
   38HFI     F1  937   3.323   1.859   0.977 -0.4103 -0.1953  0.0995
   38HFI     F2  938   3.132   1.900   0.898 -0.2933  0.2672 -0.0041
   38HFI     F3  939   3.156   1.869   1.109 -0.1853  0.1335 -0.1137
   38HFI     C3  940   3.078   2.150   1.038 -0.3702 -0.1366 -0.5008
   38HFI     F4  941   3.006   2.091   1.136  0.1010  0.8941 -0.5822
   38HFI     F5  942   3.006   2.138   0.924 -0.1608 -0.2185  0.1164
   38HFI     F6  943   3.085   2.279   1.072  0.1850  0.0575  0.7110
   38HFI     H1  944   3.268   2.124   0.838 -0.3282  0.7409  0.3254
   38HFI     H2  945   3.274   2.087   1.121 -0.2356 -1.5988 -0.6452
   39HFI     O1  946   3.307   1.595   1.085  0.8494  0.4483  0.6966
   39HFI     C1  947   3.420   1.506   1.074 -0.3834 -0.3562 -0.4508
   39HFI     C2  948   3.423   1.403   1.188 -0.4385 -0.5302 -0.0202
   39HFI     F1  949   3.410   1.465   1.303  0.0376 -0.0800  0.0288
   39HFI     F2  950   3.536   1.322   1.194  0.0984  0.4674 -0.1906
   39HFI     F3  951   3.317   1.329   1.187 -0.4753  0.7088 -0.4111
   39HFI     C3  952   3.561   1.574   1.059  0.6631  0.3261 -0.5456
   39HFI     F4  953   3.658   1.486   1.030  0.6937  0.3705  0.0607
   39HFI     F5  954   3.603   1.660   1.152  0.0808  0.7886 -0.4164
   39HFI     F6  955   3.546   1.649   0.953  0.1841 -0.3753 -0.3996
   39HFI     H1  956   3.334   1.681   1.048  0.0882 -0.2177 -1.5281
   39HFI     H2  957   3.408   1.445   0.984  1.8301 -0.2262 -0.8672
   40HFI     O1  958   2.757   0.822   2.924 -0.5009  0.1722 -0.7083
   40HFI     C1  959   2.811   0.893   2.805 -1.5390 -1.0512 -0.0475
   40HFI     C2  960   2.968   0.896   2.805  0.4112  0.3319  0.4253
   40HFI     F1  961   3.010   0.901   2.679 -0.3369 -0.4745 -0.1472
   40HFI     F2  962   3.018   0.787   2.865 -1.0191  0.0042  0.2887
   40HFI     F3  963   3.009   0.995   2.883  0.2683 -0.2227 -0.3333
   40HFI     C3  964   2.752   1.036   2.787 -0.1984  0.1045 -0.4344
   40HFI     F4  965   2.618   1.016   2.756 -0.1291 -0.6228 -0.1960
   40HFI     F5  966   2.804   1.100   2.680 -0.2201 -0.4452 -0.4625
   40HFI     F6  967   2.766   1.112   2.894  0.2209 -0.1503  0.2348
   40HFI     H1  968   2.662   0.828   2.908 -0.6624  0.3406  0.2431
   40HFI     H2  969   2.786   0.839   2.714 -0.3577 -0.3172 -0.8248
   41HFI     O1  970   2.657   2.632   0.877  0.4091  0.0794 -0.6207
   41HFI     C1  971   2.696   2.490   0.887 -0.1566 -0.0953  0.3939
   41HFI     C2  972   2.676   2.415   0.749 -0.8100  0.3208  0.5900
   41HFI     F1  973   2.749   2.488   0.653 -0.1935  0.1137 -0.4531
   41HFI     F2  974   2.547   2.407   0.716 -0.3821  0.3740  0.0186
   41HFI     F3  975   2.724   2.289   0.749  0.3044 -0.1600 -0.1283
   41HFI     C3  976   2.624   2.416   1.002  0.1948  0.0535 -0.7502
   41HFI     F4  977   2.659   2.289   1.010  0.0677 -0.4505 -0.0852
   41HFI     F5  978   2.489   2.426   1.000 -0.1301 -0.1777  0.2087
   41HFI     F6  979   2.661   2.468   1.123 -0.1076  0.4888 -0.0842
   41HFI     H1  980   2.560   2.630   0.868  0.4409 -2.4557 -0.9175
   41HFI     H2  981   2.802   2.477   0.912  0.2650  1.4489 -0.5068
   42HFI     O1  982   1.973   1.043   3.662  0.1990  0.3168  0.1581
   42HFI     C1  983   1.876   1.067   3.554 -0.0478 -0.1983  0.1643
   42HFI     C2  984   1.945   1.073   3.410 -0.6506  0.0144  0.0051
   42HFI     F1  985   1.992   0.953   3.383 -0.1277  0.6868  0.2125
   42HFI     F2  986   2.044   1.162   3.404 -0.5479  0.1360 -0.1325
   42HFI     F3  987   1.851   1.099   3.311  0.1956  0.4040 -0.2723
   42HFI     C3  988   1.792   1.186   3.587  0.7299 -0.1008  0.8346
   42HFI     F4  989   1.685   1.194   3.506  0.6770  0.5791 -1.0312
   42HFI     F5  990   1.861   1.304   3.587 -0.9482 -0.3905  0.1596
   42HFI     F6  991   1.748   1.171   3.715 -0.9007  0.2842  0.1228
   42HFI     H1  992   1.971   1.114   3.728 -1.6364  0.6998 -0.2913
   42HFI     H2  993   1.806   0.983   3.557  0.7009 -0.8256  0.3168
   43HFI     O1  994   1.480   0.573   3.761 -0.0244  0.4678 -0.1387
   43HFI     C1  995   1.426   0.517   3.880  0.7765  0.4491 -0.1730
   43HFI     C2  996   1.505   0.558   4.009 -0.6503 -0.3775  0.6651
   43HFI     F1  997   1.436   0.538   4.125  0.3074 -0.0652 -0.0152
   43HFI     F2  998   1.518   0.696   4.001 -0.7819 -0.4106 -0.2643
   43HFI     F3  999   1.630   0.502   4.015 -0.4594 -0.6698  0.5645
   43HFI     C3 1000   1.405   0.366   3.859  0.1424  0.1674  0.4604
   43HFI     F4 1001   1.358   0.308   3.973  0.0840  0.4012 -0.8277
   43HFI     F5 1002   1.524   0.300   3.833  0.2363  0.3988  0.2320
   43HFI     F6 1003   1.316   0.339   3.761  0.2469  0.3295 -0.0398
   43HFI     H1 1004   1.575   0.556   3.765 -0.1202 -0.1275 -0.2822
   43HFI     H2 1005   1.322   0.552   3.890  0.8594  0.4853  0.5482
   44HFI     O1 1006   0.825   2.666   3.789  0.2068  0.1598  0.0027
   44HFI     C1 1007   0.928   2.590   3.863  0.7841  1.0512  0.7317
   44HFI     C2 1008   0.970   2.466   3.778 -0.0467 -0.1959 -0.3087
   44HFI     F1 1009   0.984   2.509   3.645  0.0764  0.4559  0.7388
   44HFI     F2 1010   0.882   2.360   3.794  0.0989 -0.1554 -0.3389
   44HFI     F3 1011   1.095   2.423   3.808  0.0913 -0.1742  0.1743
   44HFI     C3 1012   0.885   2.556   4.008  0.0702  0.5070 -0.3695
   44HFI     F4 1013   0.962   2.464   4.076  0.0477 -0.1601 -0.1766
   44HFI     F5 1014   0.757   2.516   4.014 -0.0818  0.3537  0.0038
   44HFI     F6 1015   0.874   2.662   4.095  0.5264 -0.0032 -0.0286
   44HFI     H1 1016   0.736   2.665   3.828 -1.5140  1.6224 -3.6369
   44HFI     H2 1017   1.014   2.657   3.869  0.1517  1.7670  1.8679
   45HFI     O1 1018   2.100   0.410   1.474 -1.0337  0.4048  0.0106
   45HFI     C1 1019   1.989   0.471   1.558  0.4889  0.3061  0.5936
   45HFI     C2 1020   1.862   0.383   1.535  0.3784  0.5002 -0.1272
   45HFI     F1 1021   1.764   0.417   1.619  0.0052 -0.4581  0.6763
   45HFI     F2 1022   1.888   0.253   1.565  0.3961  0.1540 -0.1765
   45HFI     F3 1023   1.814   0.389   1.410  0.5062  0.1119  0.1596
   45HFI     C3 1024   1.965   0.616   1.511  0.1768 -0.0808 -0.0123
   45HFI     F4 1025   1.990   0.634   1.375  0.2653  0.5246 -0.7828
   45HFI     F5 1026   2.045   0.706   1.579 -0.6541  0.2491 -0.4523
   45HFI     F6 1027   1.841   0.658   1.540  0.2296 -0.1267  0.1367
   45HFI     H1 1028   2.084   0.314   1.472 -0.2142  0.2149  1.5817
   45HFI     H2 1029   2.018   0.474   1.664 -0.0937 -0.8620  0.7949
   46HFI     O1 1030   1.828   3.115   1.060  0.1585 -0.1137 -0.6195
   46HFI     C1 1031   1.784   3.227   0.978  0.2425  0.9017 -0.7326
   46HFI     C2 1032   1.683   3.306   1.069  0.3394  0.6840 -0.6329
   46HFI     F1 1033   1.606   3.230   1.146  0.3749  0.4010 -0.1977
   46HFI     F2 1034   1.600   3.383   1.000 -0.4390  0.1785  0.2963
   46HFI     F3 1035   1.746   3.394   1.150  0.1589  0.0239 -0.0987
   46HFI     C3 1036   1.726   3.206   0.836  0.1607  0.3128 -0.3993
   46HFI     F4 1037   1.617   3.124   0.837 -0.4634 -0.2509 -0.0642
   46HFI     F5 1038   1.825   3.141   0.767 -0.0641 -0.4548 -0.6051
   46HFI     F6 1039   1.705   3.319   0.774 -0.0651 -0.1744 -0.1447
   46HFI     H1 1040   1.807   3.034   1.011  0.9122 -0.4339 -0.4274
   46HFI     H2 1041   1.875   3.288   0.965  0.5745  0.6594  0.3875
   47HFI     O1 1042   3.080   0.967   3.298  0.0709  0.0588 -0.0298
   47HFI     C1 1043   3.177   1.062   3.255  0.0855 -0.5590  0.2842
   47HFI     C2 1044   3.311   1.074   3.341 -0.1616 -0.6273 -0.0529
   47HFI     F1 1045   3.349   0.949   3.379  0.6060  0.4506 -0.0597
   47HFI     F2 1046   3.292   1.138   3.458 -0.2570  0.1764  0.2895
   47HFI     F3 1047   3.418   1.124   3.277  0.3187 -0.5670 -0.2297
   47HFI     C3 1048   3.116   1.194   3.212  0.3526 -0.7469 -0.3962
   47HFI     F4 1049   3.206   1.287   3.178  0.4158  0.3243 -0.0185
   47HFI     F5 1050   3.038   1.254   3.311  0.4148  0.1125  1.0180
   47HFI     F6 1051   3.026   1.182   3.114 -0.0996  0.6981  0.0315
   47HFI     H1 1052   3.077   0.962   3.395 -0.4979 -3.5740 -0.1384
   47HFI     H2 1053   3.203   1.023   3.156 -2.2183 -1.4104 -0.0214
   48HFI     O1 1054   2.747   0.191   1.480  0.6485 -0.0194  0.6234
   48HFI     C1 1055   2.608   0.149   1.498 -0.1776 -0.5809  0.2528
   48HFI     C2 1056   2.555   0.019   1.422  0.1185 -0.2914  0.6265
   48HFI     F1 1057   2.664  -0.065   1.399 -0.2774  0.2286  0.1839
   48HFI     F2 1058   2.507   0.047   1.300  0.3903  0.0083 -0.5036
   48HFI     F3 1059   2.455  -0.041   1.494 -0.5219  0.3562  0.0726
   48HFI     C3 1060   2.514   0.269   1.478 -0.4270  0.9384 -0.4185
   48HFI     F4 1061   2.386   0.230   1.490  0.5238  0.1791 -0.0407
   48HFI     F5 1062   2.533   0.326   1.362  0.1702 -0.3514  0.4410
   48HFI     F6 1063   2.525   0.359   1.568  0.2896 -0.1213 -0.1382
   48HFI     H1 1064   2.778   0.167   1.391 -0.6572 -1.2476  0.4814
   48HFI     H2 1065   2.601   0.119   1.603  1.9998 -1.7352  0.1068
   49HFI     O1 1066   2.400   2.494   1.290  0.2549 -0.0105  0.4961
   49HFI     C1 1067   2.297   2.430   1.380  0.3986 -0.6316 -0.1683
   49HFI     C2 1068   2.157   2.487   1.363  0.3877 -0.5157 -0.1277
   49HFI     F1 1069   2.076   2.418   1.447 -0.1661 -0.0245  0.0663
   49HFI     F2 1070   2.100   2.469   1.240 -0.3136 -0.0408 -0.0080
   49HFI     F3 1071   2.152   2.618   1.399 -0.4295 -1.0948 -0.1794
   49HFI     C3 1072   2.348   2.438   1.522  0.1174 -0.3709 -0.6973
   49HFI     F4 1073   2.476   2.404   1.529  0.0460  0.0205 -0.1530
   49HFI     F5 1074   2.290   2.347   1.605 -0.0999  0.3901  0.3002
   49HFI     F6 1075   2.340   2.562   1.574  0.1389 -0.3053 -0.1481
   49HFI     H1 1076   2.487   2.453   1.304  0.7092 -0.3188 -2.9658
   49HFI     H2 1077   2.291   2.325   1.348 -0.5236 -1.1575  1.6497
   50HFI     O1 1078   1.322   3.427   1.348  0.1059 -0.0222  0.1981
   50HFI     C1 1079   1.399   3.319   1.404 -0.4619  0.7995  0.3027
   50HFI     C2 1080   1.311   3.212   1.486 -0.1378 -0.0111  0.1447
   50HFI     F1 1081   1.383   3.134   1.566 -0.0752 -0.4270 -0.2792
   50HFI     F2 1082   1.265   3.132   1.386  0.1917 -0.1780 -0.3737
   50HFI     F3 1083   1.204   3.268   1.548  0.1460  0.1220 -0.2605
   50HFI     C3 1084   1.523   3.376   1.484  0.4800 -0.0689  0.2198
   50HFI     F4 1085   1.588   3.483   1.427 -0.0714  0.0792  0.0978
   50HFI     F5 1086   1.614   3.281   1.500 -0.1042 -0.3640  0.2318
   50HFI     F6 1087   1.491   3.419   1.611 -0.1204  0.2497  0.4759
   50HFI     H1 1088   1.249   3.448   1.408 -0.7996  3.8909 -2.1126
   50HFI     H2 1089   1.442   3.260   1.322 -0.1722  0.1834  0.8841
   51HFI     O1 1090   2.665   1.176   3.146 -0.4144 -0.0836 -0.1804
   51HFI     C1 1091   2.544   1.269   3.146  0.5799 -0.7391  0.0880
   51HFI     C2 1092   2.467   1.270   3.286 -0.1812  0.0833  0.0944
   51HFI     F1 1093   2.540   1.289   3.386  0.1941 -0.4842 -0.4316
   51HFI     F2 1094   2.405   1.156   3.301  0.2500  0.0671  0.5234
   51HFI     F3 1095   2.376   1.371   3.296  0.2265  0.2888  0.0005
   51HFI     C3 1096   2.441   1.246   3.031  0.2739  0.5059  0.0817
   51HFI     F4 1097   2.511   1.253   2.917 -0.2431  0.8051  0.2023
   51HFI     F5 1098   2.339   1.342   3.027  0.5790 -0.0682  0.2666
   51HFI     F6 1099   2.388   1.115   3.031 -0.6198 -0.3691  0.0095
   51HFI     H1 1100   2.704   1.177   3.057 -2.3210 -1.3423 -1.0531
   51HFI     H2 1101   2.575   1.373   3.127 -0.7909 -0.7156 -2.2618
   52HFI     O1 1102   2.651   1.405   0.651  0.1831 -0.0386  0.2523
   52HFI     C1 1103   2.540   1.490   0.625 -0.1468  0.2753  0.7138
   52HFI     C2 1104   2.403   1.454   0.698  0.2368  0.3616  1.1798
   52HFI     F1 1105   2.291   1.521   0.667 -0.0780  0.4505  0.3985
   52HFI     F2 1106   2.422   1.474   0.829  0.1800 -0.4165 -0.2471
   52HFI     F3 1107   2.381   1.324   0.679 -0.0069  0.5393 -0.4835
   52HFI     C3 1108   2.515   1.522   0.474  0.5697  0.3895  0.5545
   52HFI     F4 1109   2.629   1.525   0.408  0.1108 -0.0709  0.1114
   52HFI     F5 1110   2.452   1.635   0.461 -0.0315  0.1118  0.1136
   52HFI     F6 1111   2.440   1.430   0.406  0.1420 -0.1176  0.3178
   52HFI     H1 1112   2.720   1.432   0.587 -1.8813  2.4589 -1.0192
   52HFI     H2 1113   2.567   1.585   0.671  2.8439 -0.6376  0.9790
   53HFI     O1 1114   1.529   1.662   1.044 -0.1795 -0.5263 -0.4265
   53HFI     C1 1115   1.429   1.771   1.047  0.0115 -0.3922  0.1552
   53HFI     C2 1116   1.500   1.905   1.081 -0.2486  0.2156 -0.2792
   53HFI     F1 1117   1.573   1.952   0.976 -0.0948 -0.0489 -0.2972
   53HFI     F2 1118   1.583   1.886   1.187 -0.2507  0.0134 -0.0841
   53HFI     F3 1119   1.422   2.007   1.123 -0.4417 -0.0549 -0.3782
   53HFI     C3 1120   1.304   1.743   1.133  0.2530 -0.0946  0.0792
   53HFI     F4 1121   1.194   1.821   1.101 -0.2051 -0.3179  0.6915
   53HFI     F5 1122   1.335   1.787   1.260  0.1416  0.3121 -0.3590
   53HFI     F6 1123   1.268   1.610   1.137  0.5451  0.1576 -0.4252
   53HFI     H1 1124   1.561   1.643   1.134  1.5569 -1.6256 -1.2368
   53HFI     H2 1125   1.386   1.788   0.948  2.0996  0.9136 -0.5650
   54HFI     O1 1126   1.260   2.658   3.708  0.0520 -0.1467  0.1751
   54HFI     C1 1127   1.347   2.705   3.812  0.2661 -0.1397  0.3134
   54HFI     C2 1128   1.323   2.850   3.851  0.5434  0.4165  0.4163
   54HFI     F1 1129   1.417   2.899   3.939 -0.4039 -0.4121  0.0089
   54HFI     F2 1130   1.202   2.859   3.911  0.3223 -0.0093 -0.1183
   54HFI     F3 1131   1.332   2.930   3.742  0.1520 -0.3196  0.2204
   54HFI     C3 1132   1.497   2.672   3.769 -0.7163  0.0155 -0.4019
   54HFI     F4 1133   1.540   2.766   3.683 -0.2820 -0.2643 -0.2050
   54HFI     F5 1134   1.502   2.554   3.711  0.0850 -0.3718  0.0570
   54HFI     F6 1135   1.583   2.660   3.870 -0.3901 -0.5386  0.2708
   54HFI     H1 1136   1.296   2.574   3.676  1.6137  0.4369  0.3263
   54HFI     H2 1137   1.332   2.653   3.907  2.3875 -0.1282  0.6791
   55HFI     O1 1138   2.026   0.889   0.097 -0.1915  0.1022  0.1132
   55HFI     C1 1139   1.924   0.789   0.136  0.0683 -0.3779  0.1172
   55HFI     C2 1140   1.984   0.658   0.181 -0.0422  0.0001 -0.0576
   55HFI     F1 1141   1.910   0.554   0.231  0.2167  0.2064  0.1051
   55HFI     F2 1142   2.073   0.684   0.276 -0.4004 -0.0377 -0.3755
   55HFI     F3 1143   2.048   0.595   0.081  0.1596 -0.2769  0.2502
   55HFI     C3 1144   1.825   0.771   0.021 -0.4721 -0.3266 -0.2696
   55HFI     F4 1145   1.771   0.649   0.029 -0.0072 -0.3560 -0.0334
   55HFI     F5 1146   1.900   0.777  -0.092  0.6768 -0.1853  0.1123
   55HFI     F6 1147   1.727   0.862   0.019  0.6472 -0.3465  0.4787
   55HFI     H1 1148   2.044   0.884   0.002 -1.1605 -0.3479 -0.0610
   55HFI     H2 1149   1.858   0.820   0.219  0.3947 -1.4306  0.7742
   56HFI     O1 1150   2.162   3.234   0.852  0.2890 -0.0632  0.3703
   56HFI     C1 1151   2.196   3.347   0.774 -0.1790 -0.5169 -0.1281
   56HFI     C2 1152   2.107   3.361   0.649 -0.8207 -0.4383  0.1612
   56HFI     F1 1153   2.145   3.467   0.573  0.2623 -0.1499 -0.1400
   56HFI     F2 1154   1.978   3.374   0.678 -0.7234 -0.4138  0.4466
   56HFI     F3 1155   2.122   3.254   0.569  0.5737  0.4547  0.1081
   56HFI     C3 1156   2.349   3.362   0.750  0.4724  0.0066 -0.0583
   56HFI     F4 1157   2.416   3.358   0.874 -0.7686  0.0055  0.2470
   56HFI     F5 1158   2.385   3.478   0.686 -0.0500 -0.2615  0.3540
   56HFI     F6 1159   2.393   3.255   0.684 -0.3097 -0.1343  0.1235
   56HFI     H1 1160   2.236   3.171   0.853 -0.2464 -0.7088  0.2975
   56HFI     H2 1161   2.174   3.440   0.827  1.9341  1.2064 -2.1558
   57HFI     O1 1162   2.329   1.016   3.744 -0.3612 -0.4738 -0.6655
   57HFI     C1 1163   2.414   0.930   3.667 -0.0281 -0.5456  0.1716
   57HFI     C2 1164   2.342   0.790   3.658 -0.6389 -0.2755  0.1252
   57HFI     F1 1165   2.350   0.731   3.772  0.7070  0.0509  0.4201
   57HFI     F2 1166   2.396   0.716   3.560 -0.1455 -0.0584  0.0920
   57HFI     F3 1167   2.219   0.799   3.622 -0.1070 -0.2498 -0.4605
   57HFI     C3 1168   2.560   0.931   3.719  0.3018 -0.6187 -0.0443
   57HFI     F4 1169   2.647   0.905   3.618  0.1138  0.0988 -0.1159
   57HFI     F5 1170   2.577   0.844   3.823 -0.6248 -0.5137  0.4125
   57HFI     F6 1171   2.593   1.053   3.769 -0.2402 -0.0486 -0.1746
   57HFI     H1 1172   2.355   1.109   3.730  0.2304 -0.8336 -2.1618
   57HFI     H2 1173   2.408   0.966   3.563 -0.4411 -0.3282  0.2720
   58HFI     O1 1174   1.532   1.587   0.556  0.5905 -0.2313 -0.2915
   58HFI     C1 1175   1.487   1.489   0.453  1.1814 -0.9219 -0.5615
   58HFI     C2 1176   1.602   1.429   0.366  0.1309  0.1504 -0.6300
   58HFI     F1 1177   1.567   1.317   0.290  0.1476  0.4219  0.2440
   58HFI     F2 1178   1.695   1.385   0.452  0.2103  0.7444  0.1790
   58HFI     F3 1179   1.664   1.521   0.285  0.1191 -0.1956 -0.2718
   58HFI     C3 1180   1.371   1.556   0.369  0.1396  1.0043  0.1001
   58HFI     F4 1181   1.321   1.454   0.296  0.2676  0.4844 -0.0924
   58HFI     F5 1182   1.418   1.659   0.294  0.2479 -0.2166  0.0592
   58HFI     F6 1183   1.271   1.609   0.443 -0.2859 -0.4950 -0.2371
   58HFI     H1 1184   1.607   1.559   0.611  0.4818 -1.1524 -0.5863
   58HFI     H2 1185   1.429   1.406   0.495  1.6236 -0.8951  0.1070
   59HFI     O1 1186   2.367   2.802   1.266  0.3640 -0.2016 -0.2370
   59HFI     C1 1187   2.308   2.899   1.165 -1.1202 -0.4739 -0.1970
   59HFI     C2 1188   2.170   2.862   1.131 -0.4037  0.6577 -0.1352
   59HFI     F1 1189   2.179   2.744   1.075 -0.2466 -0.0826 -0.1653
   59HFI     F2 1190   2.109   2.950   1.050 -0.1768 -0.1281  0.1761
   59HFI     F3 1191   2.091   2.843   1.245  0.5210 -0.1939 -0.2392
   59HFI     C3 1192   2.404   2.907   1.040 -0.1554 -0.4227  0.0811
   59HFI     F4 1193   2.402   2.794   0.968 -0.1375 -0.3603 -0.2130
   59HFI     F5 1194   2.531   2.935   1.070 -0.3148  0.0547  0.1356
   59HFI     F6 1195   2.363   3.006   0.954  0.2504 -0.5644  0.2269
   59HFI     H1 1196   2.357   2.712   1.229 -2.3464  0.0539 -0.2681
   59HFI     H2 1197   2.296   2.996   1.215 -1.3389 -0.1935 -0.7837
   60HFI     O1 1198   2.833   1.444   3.030  0.5075 -0.4397 -0.3384
   60HFI     C1 1199   2.866   1.525   2.916  0.4027 -0.7277  0.5706
   60HFI     C2 1200   2.996   1.606   2.933  0.4164  0.7782 -0.2864
   60HFI     F1 1201   3.036   1.674   2.829  0.6986 -0.1051 -1.1280
   60HFI     F2 1202   3.088   1.516   2.972  0.3752  0.0215 -0.5091
   60HFI     F3 1203   2.983   1.702   3.032 -0.1806 -0.1036 -0.3543
   60HFI     C3 1204   2.744   1.621   2.872  0.0028  0.5143 -0.1672
   60HFI     F4 1205   2.653   1.559   2.797 -0.0341 -0.0016 -0.4444
   60HFI     F5 1206   2.783   1.727   2.794 -0.2850  0.1792  0.2186
   60HFI     F6 1207   2.683   1.672   2.981  0.0665  0.4443 -0.3789
   60HFI     H1 1208   2.902   1.462   3.097  0.6966 -0.7873 -0.4409
   60HFI     H2 1209   2.883   1.453   2.834  0.0259 -2.2505  1.8087
   61HFI     O1 1210   2.845   2.817   0.330 -0.3348  0.1561 -0.2153
   61HFI     C1 1211   2.784   2.813   0.469  0.1804  0.4036  0.2521
   61HFI     C2 1212   2.640   2.869   0.468  0.4105  0.6574  0.3307
   61HFI     F1 1213   2.583   2.867   0.585  0.2813 -0.3533  0.2315
   61HFI     F2 1214   2.574   2.773   0.397  0.3035 -0.0201  0.0392
   61HFI     F3 1215   2.633   2.992   0.406 -0.4036  0.3786 -0.2076
   61HFI     C3 1216   2.871   2.881   0.577  0.1718 -0.4652  0.3440
   61HFI     F4 1217   2.994   2.833   0.590 -0.1051  0.4647  0.0687
   61HFI     F5 1218   2.818   2.863   0.701 -0.1232 -0.0989 -0.3337
   61HFI     F6 1219   2.875   3.013   0.548  0.1323 -0.0963  0.4329
   61HFI     H1 1220   2.829   2.906   0.296 -0.7996 -0.0540 -0.5522
   61HFI     H2 1221   2.777   2.710   0.505  0.5231 -0.4041 -1.9143
   62HFI     O1 1222   0.477   1.527   1.302 -0.4633 -0.1340 -0.1651
   62HFI     C1 1223   0.373   1.555   1.403 -0.0450 -0.5394 -0.9712
   62HFI     C2 1224   0.426   1.672   1.492  0.7149  0.5367 -0.2473
   62HFI     F1 1225   0.443   1.780   1.418 -0.8089 -0.6567  0.7061
   62HFI     F2 1226   0.550   1.632   1.546  0.0035 -0.2166  0.7818
   62HFI     F3 1227   0.338   1.704   1.587 -0.3304  0.1352  0.0626
   62HFI     C3 1228   0.334   1.433   1.492  0.1481  0.4029 -0.1437
   62HFI     F4 1229   0.317   1.330   1.408  0.0131 -0.3426  0.0632
   62HFI     F5 1230   0.214   1.457   1.554  0.2331 -0.0834 -0.6508
   62HFI     F6 1231   0.424   1.402   1.586 -0.0013  0.4589 -0.2371
   62HFI     H1 1232   0.548   1.591   1.319 -0.5126 -0.1065 -0.0603
   62HFI     H2 1233   0.277   1.582   1.357 -1.2004 -1.1406  1.0131
   63HFI     O1 1234   2.141   2.458   0.563  0.0180  0.1516  0.1119
   63HFI     C1 1235   2.148   2.604   0.601 -0.1197 -0.1532 -0.4183
   63HFI     C2 1236   2.242   2.675   0.503 -0.3830  0.0186 -0.8572
   63HFI     F1 1237   2.268   2.800   0.545 -0.8009  0.1779  0.1570
   63HFI     F2 1238   2.187   2.690   0.378 -0.4265  0.1125 -0.0637
   63HFI     F3 1239   2.359   2.605   0.490  0.1313 -0.1966 -0.0004
   63HFI     C3 1240   2.185   2.633   0.750  0.5906 -0.1569 -0.1553
   63HFI     F4 1241   2.316   2.591   0.776 -0.1499  0.5949  0.0671
   63HFI     F5 1242   2.098   2.554   0.828  0.3462 -0.2819 -0.2982
   63HFI     F6 1243   2.169   2.758   0.786  0.3682 -0.2817 -0.2988
   63HFI     H1 1244   2.136   2.450   0.466 -0.6716  1.4156  0.0308
   63HFI     H2 1245   2.053   2.654   0.580 -1.4242 -1.7422  1.4866
   64HFI     O1 1246   2.499   1.846   1.379  0.4099  0.0925 -0.0760
   64HFI     C1 1247   2.583   1.966   1.388 -0.0510 -0.4191  0.2015
   64HFI     C2 1248   2.596   2.013   1.533 -0.2713 -0.7315  0.6666
   64HFI     F1 1249   2.657   2.129   1.543  0.8161  0.3520  0.1543
   64HFI     F2 1250   2.661   1.919   1.602 -0.3262 -0.2086  0.0390
   64HFI     F3 1251   2.478   2.022   1.596  0.2730 -0.4790  0.1168
   64HFI     C3 1252   2.551   2.077   1.282 -0.2035  0.1531  0.0930
   64HFI     F4 1253   2.434   2.142   1.319  0.2005  0.2695  0.1281
   64HFI     F5 1254   2.530   2.026   1.157 -0.3132 -0.0556  0.0583
   64HFI     F6 1255   2.644   2.173   1.263  0.1227  0.4348 -0.6455
   64HFI     H1 1256   2.512   1.793   1.459 -1.0005  2.0434  1.5039
   64HFI     H2 1257   2.689   1.941   1.371 -0.8661 -2.4536 -2.1926
   65HFI     O1 1258   3.191   2.218   1.333  0.7371  0.5684  0.3529
   65HFI     C1 1259   3.086   2.300   1.397  0.1641 -0.0817  0.9238
   65HFI     C2 1260   3.115   2.453   1.420  0.6363 -0.1823 -0.2458
   65HFI     F1 1261   3.181   2.472   1.538 -0.1897  0.3594 -0.1471
   65HFI     F2 1262   2.998   2.525   1.427  0.3188 -0.0979  0.7200
   65HFI     F3 1263   3.184   2.515   1.326  0.1015 -0.8149 -0.4217
   65HFI     C3 1264   3.036   2.241   1.526 -0.0723  0.0222  1.0259
   65HFI     F4 1265   2.961   2.128   1.490  0.4219  0.2205 -0.4091
   65HFI     F5 1266   2.951   2.323   1.591 -0.8639  0.1723  0.0856
   65HFI     F6 1267   3.138   2.199   1.604 -0.2036  0.5084 -0.2621
   65HFI     H1 1268   3.271   2.272   1.330 -0.2008  2.1151  2.0975
   65HFI     H2 1269   2.997   2.293   1.333  1.8053 -0.0422 -1.4098
   66HFI     O1 1270   2.493   2.019   3.687 -0.7878 -0.5875  0.6589
   66HFI     C1 1271   2.362   2.085   3.689  0.2391  0.1057  0.0519
   66HFI     C2 1272   2.371   2.234   3.659  0.2895 -0.1927 -0.3135
   66HFI     F1 1273   2.448   2.255   3.554  0.2403  0.2037 -0.6138
   66HFI     F2 1274   2.423   2.302   3.762 -0.1731  0.4247 -0.1619
   66HFI     F3 1275   2.250   2.282   3.631  0.1786 -0.0100 -0.1552
   66HFI     C3 1276   2.296   2.061   3.834 -0.2806 -0.0985  0.3319
   66HFI     F4 1277   2.282   1.921   3.856  0.2794  0.3960  0.1845
   66HFI     F5 1278   2.178   2.119   3.851  0.2414 -0.1110  0.2202
   66HFI     F6 1279   2.370   2.105   3.940  0.1823 -0.5852 -0.3566
   66HFI     H1 1280   2.534   2.064   3.763 -3.0683 -4.0179  4.0644
   66HFI     H2 1281   2.290   2.049   3.616  0.5574  1.4466 -0.9466
   67HFI     O1 1282   2.873   0.746   0.169 -0.3770  0.0260  0.0619
   67HFI     C1 1283   2.906   0.706   0.032 -0.2695 -0.4543  0.1648
   67HFI     C2 1284   2.848   0.569  -0.012  0.4689 -0.3031  0.1977
   67HFI     F1 1285   2.719   0.585  -0.050  0.5249  0.5108  0.0196
   67HFI     F2 1286   2.842   0.483   0.089  1.0683  0.0494  0.0359
   67HFI     F3 1287   2.917   0.508  -0.112 -0.3123 -0.0637 -0.0978
   67HFI     C3 1288   3.063   0.721   0.003  0.1923 -0.3511 -0.1952
   67HFI     F4 1289   3.115   0.833   0.074 -0.0369  0.1579  0.0982
   67HFI     F5 1290   3.091   0.739  -0.128 -0.3774 -0.3655  0.3061
   67HFI     F6 1291   3.124   0.605   0.049  0.2605  0.3372 -0.5684
   67HFI     H1 1292   2.894   0.674   0.231  2.5218  0.0449 -0.8198
   67HFI     H2 1293   2.856   0.768  -0.043 -1.4308 -1.0258  0.4549
   68HFI     O1 1294   1.876   1.611   3.607  0.0452 -0.0766  0.0323
   68HFI     C1 1295   1.827   1.707   3.705 -0.2924 -0.4202 -0.8506
   68HFI     C2 1296   1.668   1.701   3.708 -0.2181  0.1456 -0.3211
   68HFI     F1 1297   1.613   1.730   3.591 -0.3367  0.2776  0.1486
   68HFI     F2 1298   1.626   1.791   3.799 -0.3166 -0.0527 -0.4629
   68HFI     F3 1299   1.615   1.582   3.753  0.8415 -0.2753 -0.3380
   68HFI     C3 1300   1.885   1.843   3.677 -0.7952 -0.0966 -0.0650
   68HFI     F4 1301   1.857   1.936   3.775 -0.5106 -0.2306 -0.2219
   68HFI     F5 1302   1.851   1.900   3.557  0.4779 -0.0358 -0.1715
   68HFI     F6 1303   2.023   1.830   3.686  0.5498  0.5414  0.2315
   68HFI     H1 1304   1.947   1.658   3.561 -0.0255  1.6072  1.6337
   68HFI     H2 1305   1.856   1.688   3.808  2.4608 -1.6222 -1.8086
   69HFI     O1 1306   2.464   0.864   2.959  0.4758 -0.3447 -0.1778
   69HFI     C1 1307   2.415   0.759   3.052  0.1715 -0.1414  0.0887
   69HFI     C2 1308   2.268   0.712   3.018  0.0762  0.4910  0.7879
   69HFI     F1 1309   2.176   0.807   3.051 -0.0889 -0.7620 -0.1879
   69HFI     F2 1310   2.237   0.596   3.082  0.3794  0.2730  0.2859
   69HFI     F3 1311   2.261   0.685   2.887  0.0687  0.1752 -0.1248
   69HFI     C3 1312   2.445   0.793   3.207  0.8091 -0.2220  0.2694
   69HFI     F4 1313   2.560   0.858   3.220 -0.6069 -0.3290  0.0440
   69HFI     F5 1314   2.453   0.685   3.282 -0.0401  0.4335  0.3374
   69HFI     F6 1315   2.350   0.867   3.259  0.2737 -0.1165 -0.1657
   69HFI     H1 1316   2.399   0.937   2.956  0.9638  0.2161  1.8240
   69HFI     H2 1317   2.460   0.663   3.026  2.1952  1.3640 -2.1970
   70HFI     O1 1318   1.916   3.390   1.440  0.9752 -0.0346  0.0882
   70HFI     C1 1319   1.998   3.285   1.379 -0.0628 -0.3146 -0.4126
   70HFI     C2 1320   2.059   3.194   1.494 -0.2297 -0.0637  0.7840
   70HFI     F1 1321   2.107   3.071   1.441  0.4672  0.2327 -0.0503
   70HFI     F2 1322   1.963   3.162   1.583 -0.3911 -0.3773  0.1357
   70HFI     F3 1323   2.169   3.247   1.557 -0.0860  0.0887  0.0740
   70HFI     C3 1324   2.111   3.347   1.289  0.0399  0.1815 -0.3804
   70HFI     F4 1325   2.195   3.434   1.356  0.1612 -0.2711  0.0890
   70HFI     F5 1326   2.053   3.422   1.196  0.0584  0.3262  0.1541
   70HFI     F6 1327   2.182   3.249   1.226  0.0516  0.4655 -0.4026
   70HFI     H1 1328   1.828   3.356   1.464  0.5698  0.7243 -0.2952
   70HFI     H2 1329   1.942   3.219   1.312  0.5242 -1.3872  0.1516
   71HFI     O1 1330   0.958   1.814   3.725  0.8898  0.4969  0.1387
   71HFI     C1 1331   0.998   1.678   3.729 -0.3899 -0.2326 -0.0102
   71HFI     C2 1332   0.877   1.594   3.776 -0.1889 -0.5161 -0.0756
   71HFI     F1 1333   0.837   1.630   3.902  0.0622 -0.2372 -0.2502
   71HFI     F2 1334   0.901   1.462   3.766 -0.1514 -0.4390  0.2784
   71HFI     F3 1335   0.776   1.612   3.695  0.1853 -0.9186 -0.4127
   71HFI     C3 1336   1.131   1.656   3.815  0.2641  0.0494  1.1264
   71HFI     F4 1337   1.172   1.533   3.838 -0.1469  0.2265  0.6346
   71HFI     F5 1338   1.107   1.706   3.937 -0.2658 -0.1372 -0.0998
   71HFI     F6 1339   1.233   1.731   3.760 -0.1455  0.3610 -0.4438
   71HFI     H1 1340   0.957   1.855   3.813 -0.7436  1.5616 -0.3670
   71HFI     H2 1341   1.025   1.628   3.635 -0.5580  1.7217 -1.1208
   72HFI     O1 1342   0.902   0.246   0.531  0.3432 -0.6733 -0.6323
   72HFI     C1 1343   1.019   0.320   0.584  0.3188 -0.1797 -0.2716
   72HFI     C2 1344   0.982   0.416   0.696  1.1812 -0.2180  0.1264
   72HFI     F1 1345   0.934   0.341   0.796  0.1656 -0.0823 -0.4564
   72HFI     F2 1346   0.886   0.510   0.671 -0.5412  0.1778  0.3402
   72HFI     F3 1347   1.084   0.485   0.751  0.1297 -0.0628  0.1803
   72HFI     C3 1348   1.094   0.394   0.469  0.4146 -0.4711  0.0200
   72HFI     F4 1349   1.210   0.439   0.510  0.5330 -0.4016  0.3158
   72HFI     F5 1350   1.029   0.493   0.412 -0.6384  0.2759  0.3783
   72HFI     F6 1351   1.116   0.302   0.371  0.2859  0.1881  0.1460
   72HFI     H1 1352   0.877   0.187   0.604  2.5947 -0.8087  0.0936
   72HFI     H2 1353   1.091   0.249   0.627  0.7566  0.6154  0.3234
   73HFI     O1 1354   1.046   1.497   2.699  0.1978 -0.2933 -0.0890
   73HFI     C1 1355   1.110   1.388   2.761 -0.8514 -0.0404 -0.2783
   73HFI     C2 1356   1.157   1.424   2.900 -0.1339 -0.1560  0.2417
   73HFI     F1 1357   1.222   1.539   2.902  0.0567 -0.0076  0.4587
   73HFI     F2 1358   1.237   1.333   2.955  0.0372 -0.0957  0.1840
   73HFI     F3 1359   1.055   1.439   2.982 -0.0366  0.1312 -0.1120
   73HFI     C3 1360   1.221   1.326   2.679 -0.2320 -0.1377  0.3383
   73HFI     F4 1361   1.178   1.284   2.553 -0.0053 -0.1487  0.0973
   73HFI     F5 1362   1.266   1.205   2.730 -0.0638  0.0129  0.7312
   73HFI     F6 1363   1.330   1.408   2.659  0.2088 -0.5350  0.1593
   73HFI     H1 1364   1.001   1.463   2.620 -2.6346 -0.1878  1.4408
   73HFI     H2 1365   1.035   1.310   2.779  1.2599 -1.5852  2.0498
   74HFI     O1 1366   3.146   3.034   3.763 -0.8297  0.0298  0.1813
   74HFI     C1 1367   3.023   3.005   3.690 -0.5515  0.2793 -0.3059
   74HFI     C2 1368   2.987   2.854   3.689  0.2454 -0.0956  0.1990
   74HFI     F1 1369   3.001   2.798   3.809 -0.3011 -0.2446  0.4937
   74HFI     F2 1370   3.060   2.778   3.606 -0.3868  0.2974 -0.3911
   74HFI     F3 1371   2.856   2.841   3.662  0.7848  0.2945  0.0304
   74HFI     C3 1372   3.031   3.063   3.547  0.5425 -0.1111 -0.2704
   74HFI     F4 1373   3.130   3.014   3.477  0.5482  0.2062 -0.6019
   74HFI     F5 1374   3.037   3.196   3.548 -0.2983 -0.2222  0.1756
   74HFI     F6 1375   2.914   3.029   3.475 -0.3080  0.4771  0.3688
   74HFI     H1 1376   3.221   2.998   3.713  0.2559  0.7309  1.2447
   74HFI     H2 1377   2.941   3.062   3.736  1.2756  1.0172  2.1592
   75HFI     O1 1378   1.478   0.934   1.538  0.0323 -0.2637 -0.1099
   75HFI     C1 1379   1.471   1.051   1.452 -0.4445 -0.0432  0.5713
   75HFI     C2 1380   1.325   1.082   1.410 -0.0174  0.0301 -0.3080
   75HFI     F1 1381   1.307   1.175   1.317  0.3173 -0.4659 -0.0663
   75HFI     F2 1382   1.266   1.136   1.520  0.1956 -0.2498 -0.4080
   75HFI     F3 1383   1.257   0.969   1.376 -0.2750 -0.2874 -0.9940
   75HFI     C3 1384   1.562   1.029   1.330 -0.4684 -0.0959 -0.6287
   75HFI     F4 1385   1.508   0.947   1.236 -0.2152  0.3511 -0.8293
   75HFI     F5 1386   1.685   0.975   1.372  0.2403 -0.5518 -0.2984
   75HFI     F6 1387   1.582   1.152   1.281 -0.0771 -0.4699  0.0484
   75HFI     H1 1388   1.450   0.853   1.491 -0.6376 -0.5114  0.6969
   75HFI     H2 1389   1.508   1.135   1.512  0.5714  1.1252 -1.6067
   76HFI     O1 1390   2.583   0.394   3.543 -0.5396  0.5170  0.5553
   76HFI     C1 1391   2.446   0.372   3.504 -0.1748 -0.0118  0.2277
   76HFI     C2 1392   2.365   0.314   3.625 -0.4186 -0.3918 -0.0917
   76HFI     F1 1393   2.418   0.194   3.668 -0.0776 -0.2066 -0.5603
   76HFI     F2 1394   2.234   0.313   3.596  0.0152 -0.2854 -0.1257
   76HFI     F3 1395   2.381   0.393   3.726 -0.3708 -0.2930 -0.5668
   76HFI     C3 1396   2.421   0.296   3.374 -0.4246  0.3924 -0.2790
   76HFI     F4 1397   2.456   0.163   3.385 -0.2943  0.0732 -0.5174
   76HFI     F5 1398   2.502   0.341   3.276  0.2472 -0.0106 -0.7276
   76HFI     F6 1399   2.293   0.303   3.337 -0.2008 -0.2494  0.0221
   76HFI     H1 1400   2.629   0.430   3.465 -0.4222  0.7961  0.7511
   76HFI     H2 1401   2.408   0.473   3.484  1.9819  0.6164 -0.7885
   77HFI     O1 1402   3.250   1.964   0.528 -0.6552  0.5034  0.2238
   77HFI     C1 1403   3.392   1.945   0.490  0.6655  0.2787 -0.1377
   77HFI     C2 1404   3.436   1.796   0.521 -0.2507  0.0989  0.8033
   77HFI     F1 1405   3.404   1.760   0.645  0.3617 -0.0261 -0.3145
   77HFI     F2 1406   3.572   1.770   0.499 -0.1455  0.1963  0.1140
   77HFI     F3 1407   3.368   1.712   0.443  0.2568  0.3213 -0.4672
   77HFI     C3 1408   3.488   2.047   0.551 -0.8108  0.1545 -0.1735
   77HFI     F4 1409   3.513   2.032   0.682  0.7547  0.2429 -0.3826
   77HFI     F5 1410   3.439   2.166   0.541  0.2651 -0.0960 -0.6350
   77HFI     F6 1411   3.605   2.050   0.488  0.1879 -0.3351  0.5187
   77HFI     H1 1412   3.219   1.891   0.584 -0.6896 -1.8542 -2.7030
   77HFI     H2 1413   3.406   1.966   0.383 -1.4075 -0.4492 -0.5840
   78HFI     O1 1414   1.007   2.857   3.664 -0.0858  0.6719  0.4462
   78HFI     C1 1415   0.993   3.000   3.695  0.0097 -0.7903 -0.0363
   78HFI     C2 1416   0.875   3.020   3.788  0.4266 -0.3598  0.3171
   78HFI     F1 1417   0.885   2.953   3.904 -0.0037 -0.1034 -0.5004
   78HFI     F2 1418   0.755   2.978   3.731 -0.2550 -0.0721 -0.5125
   78HFI     F3 1419   0.863   3.150   3.832  0.0443 -0.1707 -0.1856
   78HFI     C3 1420   0.987   3.083   3.560 -0.8839  0.1154  0.4468
   78HFI     F4 1421   1.094   3.061   3.485  0.3812 -0.2669  0.0141
   78HFI     F5 1422   0.989   3.212   3.583  0.2999 -0.5434 -0.5131
   78HFI     F6 1423   0.882   3.049   3.486  0.4610 -0.3158  0.2402
   78HFI     H1 1424   0.920   2.815   3.649  1.5610 -2.6960 -0.0730
   78HFI     H2 1425   1.085   3.032   3.746 -0.4138  0.1359  0.1590
   79HFI     O1 1426   2.003   3.102   0.213  0.4313 -0.1352 -0.4001
   79HFI     C1 1427   1.862   3.091   0.244  0.4735  0.0078 -0.3507
   79HFI     C2 1428   1.844   3.007   0.379  0.6605 -0.1032  0.0764
   79HFI     F1 1429   1.898   2.883   0.372 -0.3630 -0.1139 -0.2864
   79HFI     F2 1430   1.711   2.984   0.393  0.0038 -0.1676 -0.2929
   79HFI     F3 1431   1.899   3.066   0.487 -0.3900  0.1499  0.2386
   79HFI     C3 1432   1.786   3.028   0.126  0.1272  0.1936  0.0947
   79HFI     F4 1433   1.817   2.896   0.110  0.5081  0.0410  0.0706
   79HFI     F5 1434   1.819   3.085   0.006  0.5628 -0.0000 -0.3657
   79HFI     F6 1435   1.653   3.034   0.141 -0.3365 -0.0740  0.4078
   79HFI     H1 1436   2.026   3.053   0.132  1.6862 -0.4705  0.1477
   79HFI     H2 1437   1.825   3.187   0.281 -2.0800  0.1919 -3.2270
   80HFI     O1 1438   1.660   3.098   2.810  0.7089  0.4431  0.3684
   80HFI     C1 1439   1.695   2.961   2.789 -0.3951  0.6215 -0.1181
   80HFI     C2 1440   1.794   2.942   2.673  0.0180  0.3056 -0.2549
   80HFI     F1 1441   1.883   2.842   2.694  0.1834 -0.2453 -0.1506
   80HFI     F2 1442   1.871   3.047   2.665 -0.4004 -0.2113 -0.2071
   80HFI     F3 1443   1.730   2.919   2.562  0.3522 -0.2658 -0.1837
   80HFI     C3 1444   1.570   2.873   2.773 -0.3820  0.0309  0.5271
   80HFI     F4 1445   1.509   2.855   2.895 -0.3029  0.2886  0.3927
   80HFI     F5 1446   1.589   2.747   2.736 -0.1302  0.7100  0.6494
   80HFI     F6 1447   1.478   2.923   2.689  0.7612  0.0308  0.6641
   80HFI     H1 1448   1.619   3.129   2.727  0.8582 -0.2802  0.0174
   80HFI     H2 1449   1.757   2.927   2.873 -0.6139 -1.8796 -0.9469
   81HFI     O1 1450   2.446   2.847   1.544  0.0891  0.1089 -0.1461
   81HFI     C1 1451   2.585   2.892   1.548 -0.0046 -0.3575 -0.4479
   81HFI     C2 1452   2.619   3.031   1.466  0.0333  0.3399  0.8620
   81HFI     F1 1453   2.560   3.132   1.522  0.8165 -0.2262  0.1987
   81HFI     F2 1454   2.584   3.034   1.337  0.2847  0.5442  0.0939
   81HFI     F3 1455   2.754   3.056   1.469 -0.0207  0.1169  0.5867
   81HFI     C3 1456   2.694   2.786   1.513  0.9446 -0.5686  0.4937
   81HFI     F4 1457   2.662   2.668   1.571  0.1857 -0.4668  0.0254
   81HFI     F5 1458   2.812   2.813   1.559  0.4279  0.0592  0.0348
   81HFI     F6 1459   2.701   2.759   1.382  0.1280 -0.2126 -0.1396
   81HFI     H1 1460   2.434   2.811   1.454 -0.0679  0.8874 -0.4389
   81HFI     H2 1461   2.611   2.930   1.647 -1.6584  0.8137 -0.4373
   82HFI     O1 1462   0.564   1.500   3.465 -0.7794  0.2598 -0.6612
   82HFI     C1 1463   0.636   1.476   3.343 -0.7134 -0.5664  0.4423
   82HFI     C2 1464   0.782   1.430   3.365 -0.5335 -0.2977  0.3732
   82HFI     F1 1465   0.849   1.513   3.445 -0.4179  0.5543 -0.3014
   82HFI     F2 1466   0.850   1.418   3.246  0.3982 -0.7028 -0.0055
   82HFI     F3 1467   0.792   1.304   3.422 -0.5556  0.0923  0.0093
   82HFI     C3 1468   0.627   1.609   3.260 -0.1327 -0.2008 -0.1778
   82HFI     F4 1469   0.669   1.592   3.126  0.5054  0.5187 -0.1498
   82HFI     F5 1470   0.694   1.715   3.321  0.0269 -0.5587 -0.3743
   82HFI     F6 1471   0.498   1.645   3.259 -0.5882  0.0195 -0.2122
   82HFI     H1 1472   0.603   1.443   3.534 -0.1989 -0.1643 -1.3288
   82HFI     H2 1473   0.589   1.398   3.281  1.0066 -1.7820  0.6504
   83HFI     O1 1474   0.529   2.130   3.447  0.2774  0.4826 -0.2382
   83HFI     C1 1475   0.535   2.142   3.596 -0.4326 -0.1336  0.4332
   83HFI     C2 1476   0.559   1.997   3.659  0.0933 -0.5691 -0.4629
   83HFI     F1 1477   0.582   2.001   3.792  0.2031  0.4392 -0.5551
   83HFI     F2 1478   0.673   1.939   3.604  0.2583  0.1162  0.5708
   83HFI     F3 1479   0.452   1.917   3.635  0.3197  0.0015 -0.1634
   83HFI     C3 1480   0.407   2.212   3.654  0.3143  0.3950  0.1814
   83HFI     F4 1481   0.409   2.220   3.792  0.3331  0.2454  0.4729
   83HFI     F5 1482   0.295   2.147   3.627  0.4556 -0.6160 -0.5084
   83HFI     F6 1483   0.400   2.338   3.613 -0.0786  0.1519 -0.1789
   83HFI     H1 1484   0.459   2.065   3.430 -1.4576  2.7360 -1.9929
   83HFI     H2 1485   0.622   2.200   3.630  0.0431 -0.9639  0.6350
   84HFI     O1 1486   1.298   2.217   2.552 -0.4227  0.0570 -0.1586
   84HFI     C1 1487   1.293   2.232   2.698 -0.0580 -0.5597 -0.2579
   84HFI     C2 1488   1.143   2.190   2.744  0.2014  0.6429 -0.9570
   84HFI     F1 1489   1.055   2.226   2.650  0.0985  0.1577 -0.3461
   84HFI     F2 1490   1.105   2.264   2.857  0.2717 -0.0459  0.2180
   84HFI     F3 1491   1.144   2.060   2.773  0.2222 -0.2346 -0.3509
   84HFI     C3 1492   1.334   2.372   2.741 -0.2116 -1.0243 -0.0879
   84HFI     F4 1493   1.444   2.412   2.673  0.5420  0.3660  0.1041
   84HFI     F5 1494   1.365   2.379   2.874  0.2246  0.0848 -0.1329
   84HFI     F6 1495   1.231   2.456   2.706 -0.5332  0.1538 -0.1200
   84HFI     H1 1496   1.392   2.213   2.527 -0.7588 -0.0836 -1.4507
   84HFI     H2 1497   1.360   2.156   2.740 -0.8684 -1.2078 -0.1257
   85HFI     O1 1498   2.941   0.752   1.386 -0.2072 -0.3047  0.0484
   85HFI     C1 1499   2.972   0.658   1.494  0.2823  0.2956  0.5709
   85HFI     C2 1500   3.124   0.655   1.512  0.3268 -0.1426  0.3091
   85HFI     F1 1501   3.160   0.557   1.597  0.5358 -0.1375  0.1866
   85HFI     F2 1502   3.173   0.770   1.573 -0.1022  0.2350 -0.8501
   85HFI     F3 1503   3.184   0.638   1.392  0.2445  0.6019  0.0426
   85HFI     C3 1504   2.896   0.519   1.480  0.0587 -0.1042 -0.0382
   85HFI     F4 1505   2.931   0.454   1.371  0.0139 -0.3404  0.1225
   85HFI     F5 1506   2.766   0.544   1.476  0.6864 -0.5286 -0.3783
   85HFI     F6 1507   2.923   0.437   1.585  0.1577  0.8827 -0.5753
   85HFI     H1 1508   2.843   0.749   1.386 -0.1637 -2.1057  0.2368
   85HFI     H2 1509   2.935   0.693   1.590 -1.8315 -0.0593 -0.0951
   86HFI     O1 1510   0.705   1.382   1.491  0.1632  0.1893  0.1344
   86HFI     C1 1511   0.837   1.439   1.453  0.0993  0.2265 -0.3716
   86HFI     C2 1512   0.835   1.504   1.309 -0.2299  0.5634 -0.1753
   86HFI     F1 1513   0.806   1.415   1.218 -0.2156 -0.3166 -0.1872
   86HFI     F2 1514   0.953   1.569   1.279 -0.1529  0.0793  0.3437
   86HFI     F3 1515   0.739   1.596   1.312 -0.2781  0.1417  0.0515
   86HFI     C3 1516   0.941   1.326   1.451  0.1056 -0.1606  0.7523
   86HFI     F4 1517   1.059   1.373   1.398  0.0912 -0.4370  0.2932
   86HFI     F5 1518   0.909   1.219   1.378  0.1382  0.3001 -0.9484
   86HFI     F6 1519   0.965   1.290   1.581 -0.3565 -0.1976 -0.0737
   86HFI     H1 1520   0.711   1.332   1.574  1.2679  0.3255  0.1433
   86HFI     H2 1521   0.862   1.516   1.526  2.5672 -0.1896 -0.7390
   87HFI     O1 1522   0.717   0.748   1.584  0.4756  0.3721 -0.1899
   87HFI     C1 1523   0.700   0.845   1.474  0.3106 -1.5146 -0.4262
   87HFI     C2 1524   0.833   0.859   1.389 -0.8453  0.0288 -0.0703
   87HFI     F1 1525   0.817   0.957   1.298 -0.0438  0.6006 -0.1899
   87HFI     F2 1526   0.846   0.738   1.331  0.4341 -0.6276 -0.2030
   87HFI     F3 1527   0.942   0.875   1.468  0.1133 -0.3649 -0.1361
   87HFI     C3 1528   0.653   0.982   1.528 -0.5642  0.7197  0.2108
   87HFI     F4 1529   0.562   0.960   1.619 -0.2606 -0.0903  0.0769
   87HFI     F5 1530   0.600   1.046   1.418 -0.6139  0.1036  0.0380
   87HFI     F6 1531   0.751   1.065   1.578 -0.3320 -0.0863 -0.2432
   87HFI     H1 1532   0.757   0.666   1.550 -2.5079 -0.9618 -0.6152
   87HFI     H2 1533   0.622   0.809   1.406 -0.8166  0.1696 -0.0370
   88HFI     O1 1534   1.907   1.508   2.828 -0.9761 -0.4482  0.5855
   88HFI     C1 1535   1.815   1.610   2.768 -0.3476  0.0215  0.4403
   88HFI     C2 1536   1.832   1.744   2.853  1.0116 -0.1334 -0.1490
   88HFI     F1 1537   1.953   1.788   2.829 -0.2334  0.1782 -0.1550
   88HFI     F2 1538   1.829   1.725   2.984 -0.5615 -0.5584  0.1034
   88HFI     F3 1539   1.740   1.834   2.826  0.6335 -0.3829 -0.5365
   88HFI     C3 1540   1.667   1.556   2.771  0.4609 -0.3745 -0.7043
   88HFI     F4 1541   1.657   1.443   2.700 -0.2803  0.3446  0.2273
   88HFI     F5 1542   1.582   1.652   2.719 -0.2347  0.0628 -0.2555
   88HFI     F6 1543   1.617   1.527   2.900 -1.0058 -0.2418  0.2085
   88HFI     H1 1544   1.881   1.419   2.800 -3.1139  0.7114 -1.3860
   88HFI     H2 1545   1.845   1.638   2.666  1.7338 -1.0792  0.7206
   89HFI     O1 1546   2.732   1.319   1.457  0.2125 -0.1132 -0.1960
   89HFI     C1 1547   2.782   1.195   1.506  0.3637 -0.7739  0.6437
   89HFI     C2 1548   2.908   1.149   1.436 -0.0678  0.1962 -0.1921
   89HFI     F1 1549   2.886   1.110   1.308 -0.1625 -0.2842 -0.2802
   89HFI     F2 1550   2.971   1.044   1.502  0.1323 -0.2083 -0.2091
   89HFI     F3 1551   2.993   1.253   1.429 -0.1635 -0.0358 -0.7313
   89HFI     C3 1552   2.668   1.086   1.506 -0.0908 -0.1399  0.4727
   89HFI     F4 1553   2.564   1.130   1.575 -0.1766 -0.2796  0.0012
   89HFI     F5 1554   2.702   0.967   1.552  0.1409 -0.0990 -0.8600
   89HFI     F6 1555   2.627   1.066   1.376  0.2229  0.2755  0.2380
   89HFI     H1 1556   2.800   1.377   1.419 -1.2492  2.0718  0.3874
   89HFI     H2 1557   2.814   1.206   1.611 -1.2097 -0.0342  1.0596
   90HFI     O1 1558   0.280   2.379   1.524 -0.0513 -0.5845  0.0916
   90HFI     C1 1559   0.302   2.230   1.547 -0.4871  0.0916  0.1342
   90HFI     C2 1560   0.445   2.186   1.502  0.0993  0.0173 -0.4037
   90HFI     F1 1561   0.474   2.204   1.371 -0.1622  0.2272  0.4371
   90HFI     F2 1562   0.466   2.054   1.518  0.0661 -0.0797 -0.1342
   90HFI     F3 1563   0.543   2.265   1.564 -0.5344 -0.4499  0.9263
   90HFI     C3 1564   0.188   2.142   1.494  0.5758 -0.3081  0.2214
   90HFI     F4 1565   0.222   2.075   1.383  0.3789 -0.1717 -0.3664
   90HFI     F5 1566   0.074   2.214   1.470  0.3548  0.5340  0.0777
   90HFI     F6 1567   0.152   2.043   1.584 -0.0545 -0.4971 -0.6200
   90HFI     H1 1568   0.185   2.393   1.514  0.2211  1.6998  0.5142
   90HFI     H2 1569   0.310   2.216   1.656  1.3680  2.6403  0.3889
   91HFI     O1 1570   0.477   2.558   0.438 -0.2933 -0.3675 -0.2721
   91HFI     C1 1571   0.416   2.476   0.331  0.0652  0.0073  0.1626
   91HFI     C2 1572   0.379   2.562   0.209 -0.5134  0.0495  1.0732
   91HFI     F1 1573   0.483   2.637   0.171 -0.4010 -0.0745  0.0396
   91HFI     F2 1574   0.270   2.640   0.236 -0.3171 -0.0301  0.3611
   91HFI     F3 1575   0.349   2.492   0.091  0.2742  0.0200  0.1116
   91HFI     C3 1576   0.303   2.390   0.383 -0.0783  1.2211  0.0014
   91HFI     F4 1577   0.359   2.296   0.467  0.4439  0.4706 -0.6040
   91HFI     F5 1578   0.242   2.320   0.292  0.3047  0.4301  0.5356
   91HFI     F6 1579   0.205   2.454   0.460  0.0514 -0.4134  0.2336
   91HFI     H1 1580   0.433   2.645   0.436  0.3173 -0.0653 -0.8069
   91HFI     H2 1581   0.492   2.406   0.294  0.1635  0.1331  0.1240
   92HFI     O1 1582   1.949   0.864   1.240  0.2182 -0.2083  0.1573
   92HFI     C1 1583   1.889   0.864   1.101 -0.3712 -0.0182 -0.0808
   92HFI     C2 1584   1.874   0.719   1.050  0.5070  0.5468  0.3881
   92HFI     F1 1585   1.990   0.656   1.051 -0.0102  0.0943 -0.2966
   92HFI     F2 1586   1.810   0.704   0.931 -0.1395 -0.3422  0.1333
   92HFI     F3 1587   1.792   0.648   1.130 -0.7567 -0.1027  0.6610
   92HFI     C3 1588   1.959   0.957   1.004 -0.2398 -0.0208  0.4697
   92HFI     F4 1589   2.085   0.923   0.992 -0.3977 -0.3373  0.0443
   92HFI     F5 1590   1.960   1.089   1.051  0.1305 -0.1834 -0.3300
   92HFI     F6 1591   1.906   0.964   0.880  0.0832 -0.0193  0.1511
   92HFI     H1 1592   2.036   0.822   1.237  1.2254  1.8046  0.3640
   92HFI     H2 1593   1.785   0.897   1.114  0.3544  2.5168 -0.4964
   93HFI     O1 1594   1.165   2.347   0.554 -0.3557  0.5183  0.6965
   93HFI     C1 1595   1.204   2.493   0.531 -0.4785  0.4900  0.2308
   93HFI     C2 1596   1.327   2.512   0.432  1.4279 -0.0350  0.7629
   93HFI     F1 1597   1.373   2.639   0.442 -0.8047  0.2788  0.4737
   93HFI     F2 1598   1.298   2.479   0.305 -0.2892 -0.6015  0.3935
   93HFI     F3 1599   1.425   2.425   0.473 -0.5487 -0.1323  0.1010
   93HFI     C3 1600   1.231   2.566   0.662  1.1224  0.2934 -0.3816
   93HFI     F4 1601   1.344   2.526   0.721 -0.2273 -0.3824  0.2865
   93HFI     F5 1602   1.132   2.543   0.748  0.1961  0.5460 -0.4622
   93HFI     F6 1603   1.230   2.698   0.655 -0.7024 -0.0401  0.4979
   93HFI     H1 1604   1.207   2.317   0.636  1.3993  0.7320 -0.1003
   93HFI     H2 1605   1.121   2.544   0.481 -1.8309 -0.1845  1.7377
   94HFI     O1 1606   2.055   1.776   0.569 -0.2719  0.6550  0.1450
   94HFI     C1 1607   1.999   1.728   0.442 -0.8349  0.3395  0.5356
   94HFI     C2 1608   2.114   1.674   0.341  0.2972  0.6199 -0.8483
   94HFI     F1 1609   2.194   1.778   0.313 -0.3020 -0.3264  0.2248
   94HFI     F2 1610   2.061   1.626   0.229 -0.3195  0.1521  0.6633
   94HFI     F3 1611   2.191   1.578   0.396  0.2850  0.0942  0.1534
   94HFI     C3 1612   1.906   1.834   0.385  0.1080 -0.4768  0.0859
   94HFI     F4 1613   1.795   1.857   0.467 -0.2840 -0.3472  0.4107
   94HFI     F5 1614   1.858   1.790   0.268 -0.1227  0.2562  0.1050
   94HFI     F6 1615   1.970   1.953   0.371 -0.0309 -0.7618 -0.4403
   94HFI     H1 1616   2.090   1.866   0.560  2.6363 -0.4935 -0.7062
   94HFI     H2 1617   1.928   1.648   0.464 -0.9327  0.4765  0.7127
   95HFI     O1 1618   1.691   0.519   3.192 -0.1487  0.2098  0.3218
   95HFI     C1 1619   1.740   0.469   3.320  0.1819 -0.3368  0.1898
   95HFI     C2 1620   1.824   0.585   3.389 -0.1289  0.2728  0.2842
   95HFI     F1 1621   1.742   0.697   3.397  0.0596  0.0924  0.2681
   95HFI     F2 1622   1.931   0.623   3.317  0.2379 -0.3046 -0.0950
   95HFI     F3 1623   1.869   0.551   3.519 -0.2588  0.0520 -0.2325
   95HFI     C3 1624   1.813   0.333   3.317 -0.1360  0.4256  0.4558
   95HFI     F4 1625   1.792   0.266   3.429  0.0195  0.1528  0.1404
   95HFI     F5 1626   1.951   0.344   3.300  0.2620 -0.2211 -0.2983
   95HFI     F6 1627   1.754   0.262   3.215 -0.1961 -0.2277  0.1620
   95HFI     H1 1628   1.710   0.456   3.121 -0.0458 -2.1222  2.3436
   95HFI     H2 1629   1.657   0.450   3.389 -0.7427  3.9119  0.3537
   96HFI     O1 1630   2.966   2.394   2.828  0.9463 -0.0566  0.1149
   96HFI     C1 1631   2.975   2.291   2.922 -0.5279  0.6409  0.1606
   96HFI     C2 1632   3.122   2.232   2.928  0.4416  0.4178 -0.2540
   96HFI     F1 1633   3.143   2.148   2.830 -0.0256 -0.2469 -0.5320
   96HFI     F2 1634   3.133   2.163   3.048  0.7506 -0.5616  0.0912
   96HFI     F3 1635   3.218   2.325   2.920  0.0655 -0.4449  0.0111
   96HFI     C3 1636   2.865   2.177   2.889 -0.3000 -0.5638  0.1684
   96HFI     F4 1637   2.739   2.226   2.904 -0.0259  0.0487  0.4265
   96HFI     F5 1638   2.875   2.070   2.972 -0.4793 -0.2773  0.3292
   96HFI     F6 1639   2.866   2.131   2.763  0.5861  0.4219 -0.0919
   96HFI     H1 1640   2.986   2.360   2.739 -0.7806  2.5551 -1.3348
   96HFI     H2 1641   2.959   2.327   3.024 -0.4657 -0.0818  0.4342
   97HFI     O1 1642   1.024   2.461   1.217  0.0377 -0.1857 -1.1021
   97HFI     C1 1643   1.014   2.409   1.082  0.7755 -0.3688 -0.0860
   97HFI     C2 1644   0.877   2.339   1.058 -0.1374 -0.4090 -0.0590
   97HFI     F1 1645   0.778   2.437   1.062 -0.5291  0.3722  0.1463
   97HFI     F2 1646   0.847   2.249   1.157 -0.1289  0.1959  0.1234
   97HFI     F3 1647   0.870   2.270   0.938  0.0147  0.1638 -0.1690
   97HFI     C3 1648   1.131   2.308   1.046  0.8746  0.0022  0.1243
   97HFI     F4 1649   1.144   2.280   0.920  0.0711  0.0414 -0.1195
   97HFI     F5 1650   1.104   2.186   1.109  0.7705 -0.5524 -0.5520
   97HFI     F6 1651   1.253   2.348   1.096 -0.1403  0.7960  0.1239
   97HFI     H1 1652   0.967   2.402   1.269 -1.3912  1.8336 -0.3513
   97HFI     H2 1653   1.023   2.496   1.016  2.0234  0.2935  0.9140
   98HFI     O1 1654   3.220   3.289   1.303 -0.6282 -0.7221 -0.4103
   98HFI     C1 1655   3.170   3.391   1.396  0.4559 -0.1169 -0.0012
   98HFI     C2 1656   3.056   3.322   1.486 -0.5960  0.4676 -0.1750
   98HFI     F1 1657   3.121   3.243   1.578  0.0415 -0.0131  0.2799
   98HFI     F2 1658   2.975   3.245   1.411 -0.3566 -0.0203  0.3918
   98HFI     F3 1659   2.988   3.417   1.550 -0.2071  0.3273 -0.4514
   98HFI     C3 1660   3.111   3.519   1.318  0.7353 -0.1047 -0.4524
   98HFI     F4 1661   3.197   3.566   1.223  0.5178  0.3986 -0.1635
   98HFI     F5 1662   3.099   3.617   1.405  0.7092 -0.5301  0.1314
   98HFI     F6 1663   2.986   3.500   1.265 -0.3405  0.2364 -0.3590
   98HFI     H1 1664   3.149   3.247   1.250 -0.1957 -1.8467 -0.1168
   98HFI     H2 1665   3.243   3.433   1.466  0.9761 -1.7154  0.4407
   99HFI     O1 1666   2.959   1.944   0.419 -0.2056 -0.0939  0.2907
   99HFI     C1 1667   2.921   1.801   0.387  0.1395  0.4510 -0.0333
   99HFI     C2 1668   2.953   1.714   0.516 -0.0970  0.2565  0.1711
   99HFI     F1 1669   3.074   1.744   0.577 -0.0943 -0.4390  0.0890
   99HFI     F2 1670   2.958   1.583   0.484 -0.1131  0.5496 -0.6707
   99HFI     F3 1671   2.847   1.731   0.600 -0.3608  0.1845  0.0971
   99HFI     C3 1672   2.995   1.754   0.253 -0.2974  0.2020  0.5539
   99HFI     F4 1673   2.969   1.839   0.155 -0.5079  0.6056 -0.1675
   99HFI     F5 1674   2.958   1.628   0.212 -0.0556 -0.8722 -0.9585
   99HFI     F6 1675   3.124   1.746   0.275 -0.3607 -0.5618  0.4026
   99HFI     H1 1676   3.055   1.954   0.410 -0.0224 -0.7143  1.4340
   99HFI     H2 1677   2.814   1.802   0.365  0.3265  0.4932 -0.9680
  100HFI     O1 1678   2.211   0.518   0.540  0.3485 -0.0873 -0.2495
  100HFI     C1 1679   2.238   0.568   0.671 -0.4833  0.6650 -0.0779
  100HFI     C2 1680   2.120   0.655   0.725  0.1120  0.5060  0.0179
  100HFI     F1 1681   2.006   0.579   0.721  0.0803  0.1068 -0.6425
  100HFI     F2 1682   2.105   0.765   0.643 -0.1422 -0.7334 -0.0862
  100HFI     F3 1683   2.147   0.697   0.848 -0.1829 -0.2577  0.0601
  100HFI     C3 1684   2.375   0.633   0.686 -0.0164 -0.6700  0.0006
  100HFI     F4 1685   2.403   0.652   0.818  0.1761 -0.1176 -0.5101
  100HFI     F5 1686   2.376   0.754   0.625 -0.3543 -0.2071  0.2438
  100HFI     F6 1687   2.466   0.551   0.636 -0.2487 -0.1505 -0.2763
  100HFI     H1 1688   2.291   0.473   0.507  0.7374  1.1058 -0.9907
  100HFI     H2 1689   2.240   0.485   0.743  0.1638  1.0683  0.3797
  101HFI     O1 1690   0.503   3.085   1.017  0.2980 -0.3559  0.1767
  101HFI     C1 1691   0.569   2.981   0.930 -0.6302 -0.1402  0.7253
  101HFI     C2 1692   0.529   2.831   0.964  0.6534  0.2231  0.1593
  101HFI     F1 1693   0.408   2.794   0.918 -0.3111 -0.3293  0.1043
  101HFI     F2 1694   0.529   2.821   1.097 -0.3489 -0.0481  0.1785
  101HFI     F3 1695   0.624   2.750   0.913  0.3205 -0.0395 -0.2033
  101HFI     C3 1696   0.721   3.003   0.925  0.5021  0.2264  0.5089
  101HFI     F4 1697   0.770   2.959   0.807  0.0053 -0.5171 -0.1505
  101HFI     F5 1698   0.788   2.945   1.026  0.3132 -0.1518 -0.6435
  101HFI     F6 1699   0.756   3.136   0.928 -0.3312  0.1181 -0.1423
  101HFI     H1 1700   0.501   3.082   1.114  0.0956  4.2609  0.4649
  101HFI     H2 1701   0.532   3.004   0.830  0.0481 -1.3206  0.1863
  102HFI     O1 1702   1.910   3.311   3.576 -0.1414 -0.1333 -0.2804
  102HFI     C1 1703   2.057   3.283   3.554 -0.2885 -0.0489 -0.3278
  102HFI     C2 1704   2.126   3.376   3.449 -0.1083 -0.3023 -0.1349
  102HFI     F1 1705   2.074   3.495   3.443  0.0341 -0.5706 -0.1321
  102HFI     F2 1706   2.116   3.316   3.330 -0.0833 -0.6679  0.2766
  102HFI     F3 1707   2.261   3.387   3.483 -0.7762  1.1723 -0.5196
  102HFI     C3 1708   2.070   3.132   3.525  0.2654 -0.2788 -0.2959
  102HFI     F4 1709   2.197   3.100   3.477 -0.1690  0.0457  0.1096
  102HFI     F5 1710   1.981   3.104   3.426 -0.8091  0.0363  0.3969
  102HFI     F6 1711   2.046   3.063   3.634  0.0588  0.1815  0.1825
  102HFI     H1 1712   1.874   3.323   3.487  0.9858  1.6672 -0.5111
  102HFI     H2 1713   2.111   3.303   3.647  1.2352 -1.2251 -0.9400
  103HFI     O1 1714   1.315   2.616   1.306 -0.5570 -0.2552 -0.6826
  103HFI     C1 1715   1.206   2.620   1.406 -0.5237  0.0620  0.4321
  103HFI     C2 1716   1.209   2.761   1.472  0.6553  0.2217  0.2336
  103HFI     F1 1717   1.331   2.796   1.522 -0.6220  0.0855 -0.1248
  103HFI     F2 1718   1.125   2.780   1.574 -0.1308 -0.1700  0.0113
  103HFI     F3 1719   1.166   2.847   1.376  0.5068  0.4199 -0.1505
  103HFI     C3 1720   1.208   2.498   1.508  0.0763 -0.3196 -0.4772
  103HFI     F4 1721   1.089   2.498   1.579 -0.1006 -0.5302 -0.3925
  103HFI     F5 1722   1.305   2.506   1.606 -0.2976  0.4486  0.2759
  103HFI     F6 1723   1.216   2.382   1.444 -0.0193  0.0495 -0.1195
  103HFI     H1 1724   1.304   2.686   1.239 -0.7275 -0.0048 -0.3981
  103HFI     H2 1725   1.106   2.616   1.361  0.0966 -2.1846 -0.8309
  104HFI     O1 1726   0.816   0.494   1.499 -0.3098 -0.0969 -0.2982
  104HFI     C1 1727   0.792   0.360   1.558  0.7725  0.3528 -0.5558
  104HFI     C2 1728   0.902   0.260   1.508  0.1608  0.1098  0.0329
  104HFI     F1 1729   0.893   0.129   1.542 -0.2911 -0.1827 -0.0653
  104HFI     F2 1730   1.020   0.292   1.569  0.1017 -0.3131 -0.1966
  104HFI     F3 1731   0.933   0.270   1.371 -0.3541 -0.0058 -0.4434
  104HFI     C3 1732   0.642   0.313   1.533 -0.9097 -0.4197 -0.3789
  104HFI     F4 1733   0.566   0.414   1.594 -0.1662 -1.2552  0.0716
  104HFI     F5 1734   0.608   0.205   1.598 -0.0255  0.1545  0.5892
  104HFI     F6 1735   0.611   0.303   1.398 -0.5359 -0.1152 -0.3338
  104HFI     H1 1736   0.807   0.481   1.403 -1.1392 -2.5311  0.0919
  104HFI     H2 1737   0.802   0.357   1.667 -4.1535  0.0386 -0.0026
  105HFI     O1 1738   3.326   1.381   3.654 -0.1473 -0.1485 -0.2314
  105HFI     C1 1739   3.440   1.350   3.744  0.0598 -0.3795 -0.3361
  105HFI     C2 1740   3.550   1.253   3.690  0.3694 -0.1889 -0.9951
  105HFI     F1 1741   3.517   1.121   3.702  0.4000 -0.0506  0.3951
  105HFI     F2 1742   3.672   1.281   3.752 -0.1548  0.1341  0.1057
  105HFI     F3 1743   3.568   1.274   3.558  0.2747  0.3990  0.0308
  105HFI     C3 1744   3.384   1.285   3.877  0.1787 -0.2952  0.2515
  105HFI     F4 1745   3.313   1.379   3.946  0.1853  0.0616 -0.3405
  105HFI     F5 1746   3.485   1.246   3.960  0.3428  0.2603  0.0018
  105HFI     F6 1747   3.302   1.189   3.856  0.0742 -0.2814  0.3562
  105HFI     H1 1748   3.326   1.319   3.579  3.1803  0.5626 -0.9209
  105HFI     H2 1749   3.490   1.445   3.769  1.3461 -0.8096 -1.2082
  106HFI     O1 1750   0.149   0.285   3.194 -0.0139  0.1407  0.3102
  106HFI     C1 1751   0.195   0.302   3.338  0.2965  0.2966  0.3044
  106HFI     C2 1752   0.345   0.350   3.343  0.9662  0.1908  0.9064
  106HFI     F1 1753   0.381   0.388   3.461  0.4856 -0.1962 -0.0142
  106HFI     F2 1754   0.369   0.451   3.256  0.1971  0.4354  0.1174
  106HFI     F3 1755   0.412   0.244   3.310 -0.4739  0.0123 -0.2315
  106HFI     C3 1756   0.161   0.173   3.424 -0.1339  0.6109  0.1604
  106HFI     F4 1757   0.217   0.058   3.366 -0.4005  0.0149  0.5071
  106HFI     F5 1758   0.028   0.161   3.421  0.7196  0.0804  0.6120
  106HFI     F6 1759   0.202   0.176   3.556 -0.6894  0.4642  0.2299
  106HFI     H1 1760   0.128   0.193   3.172  2.3113 -0.5124  0.6710
  106HFI     H2 1761   0.133   0.382   3.380 -0.4345 -0.8936  1.5451
  107HFI     O1 1762   1.027   2.051   1.517  0.0293 -0.3669  0.3002
  107HFI     C1 1763   0.977   1.922   1.560  0.6021  0.4804  0.0476
  107HFI     C2 1764   1.086   1.810   1.552 -0.0324 -0.2043  0.3207
  107HFI     F1 1765   1.199   1.857   1.595  0.4724 -0.1088 -0.7560
  107HFI     F2 1766   1.113   1.779   1.419  0.0426  0.8835  0.2582
  107HFI     F3 1767   1.054   1.697   1.617  0.0710 -0.2038 -0.1698
  107HFI     C3 1768   0.844   1.893   1.488 -0.5487  0.1592 -0.3409
  107HFI     F4 1769   0.758   2.000   1.499 -0.5961  0.0355 -0.4021
  107HFI     F5 1770   0.777   1.788   1.543 -0.0225 -0.1798 -0.1054
  107HFI     F6 1771   0.862   1.873   1.357 -0.0129  0.3410  0.0100
  107HFI     H1 1772   1.058   2.037   1.426 -1.7232 -1.4598 -0.1651
  107HFI     H2 1773   0.950   1.931   1.666  2.3176  0.5913  0.4959
  108HFI     O1 1774   3.381   1.260   0.797 -0.5719  0.1674  0.3384
  108HFI     C1 1775   3.513   1.269   0.736 -0.2209 -0.5436 -0.4337
  108HFI     C2 1776   3.521   1.387   0.640 -0.3825 -0.8194  0.0536
  108HFI     F1 1777   3.447   1.350   0.531 -0.0375 -0.6545 -0.3962
  108HFI     F2 1778   3.647   1.408   0.592  0.2581 -0.4502 -0.2078
  108HFI     F3 1779   3.481   1.506   0.695  0.0609  0.8327  0.2344
  108HFI     C3 1780   3.558   1.134   0.678 -0.0880 -0.4214  0.7733
  108HFI     F4 1781   3.480   1.091   0.579  0.2660 -0.1286  0.2230
  108HFI     F5 1782   3.558   1.041   0.782 -0.4329 -0.2315  0.2063
  108HFI     F6 1783   3.683   1.142   0.629  0.3479  0.2192  0.4527
  108HFI     H1 1784   3.313   1.240   0.730 -1.6834  1.2660  1.1100
  108HFI     H2 1785   3.590   1.305   0.806  1.5108 -1.7812 -1.6675
  109HFI     O1 1786   1.267   0.866   0.390  0.6152  0.3073  0.1052
  109HFI     C1 1787   1.172   0.934   0.297 -0.1753  0.4638  0.1064
  109HFI     C2 1788   1.117   1.073   0.359  0.4191  0.6253  0.2996
  109HFI     F1 1789   1.213   1.147   0.422  0.0788  0.1909 -0.0043
  109HFI     F2 1790   1.006   1.052   0.449  0.3551 -0.3760 -0.2569
  109HFI     F3 1791   1.060   1.151   0.264  0.3223 -0.1432  1.1053
  109HFI     C3 1792   1.059   0.834   0.255  0.6204  0.6255 -0.4110
  109HFI     F4 1793   1.105   0.715   0.211 -0.7206  0.7227 -0.2782
  109HFI     F5 1794   0.984   0.891   0.150  0.4045  0.4591  0.2942
  109HFI     F6 1795   0.975   0.809   0.356 -0.0979  0.0082  0.2464
  109HFI     H1 1796   1.225   0.843   0.475 -0.7531  0.8233 -0.4214
  109HFI     H2 1797   1.225   0.959   0.204 -0.2759 -1.7233 -0.5733
  110HFI     O1 1798   1.700   2.486   2.924  0.5353 -0.3005  0.4159
  110HFI     C1 1799   1.803   2.388   2.881  0.3044 -0.1036 -0.0870
  110HFI     C2 1800   1.894   2.445   2.765 -1.3747 -0.3222  0.6999
  110HFI     F1 1801   1.828   2.441   2.648  0.1244 -0.8535  0.3380
  110HFI     F2 1802   2.003   2.374   2.751  0.4558 -0.1437  0.5851
  110HFI     F3 1803   1.933   2.570   2.793 -0.3322 -0.3008  0.4595
  110HFI     C3 1804   1.751   2.240   2.863 -0.4256 -0.1782 -0.2398
  110HFI     F4 1805   1.676   2.233   2.751  0.1219  0.2792 -1.1124
  110HFI     F5 1806   1.675   2.197   2.960 -0.1295 -0.4015  0.2941
  110HFI     F6 1807   1.854   2.149   2.848 -0.4921 -0.3398  0.4532
  110HFI     H1 1808   1.662   2.521   2.842 -0.3050  1.1272  1.3936
  110HFI     H2 1809   1.866   2.377   2.970 -2.0303  0.4464  1.6635
  111HFI     O1 1810   0.643   3.059   1.284  0.2220 -0.1210  0.4206
  111HFI     C1 1811   0.742   3.129   1.367 -0.3450 -0.2931 -0.4493
  111HFI     C2 1812   0.673   3.217   1.478 -0.1061 -0.1539 -0.6161
  111HFI     F1 1813   0.562   3.148   1.527 -0.9668 -0.0370 -0.1676
  111HFI     F2 1814   0.633   3.330   1.433  0.0829 -0.1784  0.1839
  111HFI     F3 1815   0.755   3.239   1.589 -0.1439  0.6706 -0.2357
  111HFI     C3 1816   0.856   3.195   1.292 -0.2812 -0.1493  0.6165
  111HFI     F4 1817   0.935   3.106   1.225  0.3329 -0.1988 -0.8415
  111HFI     F5 1818   0.941   3.258   1.378  0.5184  0.2487 -0.2013
  111HFI     F6 1819   0.820   3.292   1.204 -0.0185 -0.1367 -0.0005
  111HFI     H1 1820   0.554   3.091   1.308 -0.3374 -2.4202  1.5751
  111HFI     H2 1821   0.797   3.053   1.425 -3.0417 -1.2841  0.9202
  112HFI     O1 1822   2.411   1.066   0.524  0.0693  0.1977 -0.3808
  112HFI     C1 1823   2.556   1.062   0.498 -0.1076  0.1791 -0.3496
  112HFI     C2 1824   2.583   1.071   0.346  1.0955 -0.4946 -0.5105
  112HFI     F1 1825   2.711   1.045   0.308  0.0031 -0.4167 -0.2571
  112HFI     F2 1826   2.536   1.191   0.305  0.0579 -0.3946 -0.5521
  112HFI     F3 1827   2.505   0.975   0.291  0.2438  0.3542  0.5503
  112HFI     C3 1828   2.629   0.949   0.573 -0.4828 -0.0085 -1.0888
  112HFI     F4 1829   2.756   0.990   0.582 -0.2700  0.4104 -0.0556
  112HFI     F5 1830   2.628   0.832   0.510 -0.1934  0.3449 -0.0117
  112HFI     F6 1831   2.595   0.933   0.703  0.3196  0.0745  0.2328
  112HFI     H1 1832   2.368   0.991   0.478 -1.4308  0.5032  0.5110
  112HFI     H2 1833   2.599   1.155   0.538  0.2403  0.4054 -1.2191
  113HFI     O1 1834   2.350   1.247   1.379  0.0743 -0.1462 -0.3756
  113HFI     C1 1835   2.413   1.371   1.363  0.1120 -0.4277  0.4318
  113HFI     C2 1836   2.403   1.454   1.494 -0.1932 -0.2004  0.4832
  113HFI     F1 1837   2.472   1.566   1.499 -0.2126  0.3515 -0.0300
  113HFI     F2 1838   2.453   1.378   1.591  0.0480 -0.3950  0.1116
  113HFI     F3 1839   2.278   1.488   1.527 -0.1816  0.1195  0.2564
  113HFI     C3 1840   2.354   1.444   1.235  0.3465 -0.3421 -0.4041
  113HFI     F4 1841   2.222   1.474   1.249  0.0508 -0.1978 -0.0795
  113HFI     F5 1842   2.365   1.361   1.132  0.3877  0.0833  0.5133
  113HFI     F6 1843   2.418   1.562   1.206 -0.2808  0.0992 -0.4193
  113HFI     H1 1844   2.364   1.204   1.465 -2.6634 -1.2271 -0.4434
  113HFI     H2 1845   2.520   1.359   1.344 -0.1196  0.1031 -1.2795
  114HFI     O1 1846   1.832   0.606   2.756 -0.4843  0.2805 -0.4219
  114HFI     C1 1847   1.853   0.463   2.756 -0.3013  0.3733  0.0655
  114HFI     C2 1848   1.827   0.404   2.895 -0.0246  0.1957  0.2452
  114HFI     F1 1849   1.832   0.272   2.899  0.2805  0.1981 -0.3047
  114HFI     F2 1850   1.709   0.447   2.944  0.2646  0.4180  0.0273
  114HFI     F3 1851   1.920   0.448   2.990  0.3535  0.0956 -0.0411
  114HFI     C3 1852   1.987   0.429   2.688 -0.6145 -0.3720 -0.7454
  114HFI     F4 1853   2.085   0.482   2.768 -0.2042 -0.5600  0.5406
  114HFI     F5 1854   2.002   0.484   2.565  0.3910 -0.1575 -0.3695
  114HFI     F6 1855   2.016   0.299   2.681  0.3852 -0.1540 -0.4703
  114HFI     H1 1856   1.893   0.643   2.822 -2.3697  1.1955  0.8562
  114HFI     H2 1857   1.776   0.425   2.687 -0.9560  3.0717 -0.7753
  115HFI     O1 1858   1.639   2.154   1.316 -0.3340  0.5129 -0.6526
  115HFI     C1 1859   1.597   2.187   1.455  0.4281  0.0986  0.2631
  115HFI     C2 1860   1.478   2.113   1.499 -0.8363 -0.8018  0.2847
  115HFI     F1 1861   1.433   2.157   1.621  0.2735  0.4085 -0.1783
  115HFI     F2 1862   1.488   1.975   1.503  0.0062 -0.0594 -0.1464
  115HFI     F3 1863   1.378   2.141   1.412  0.1890 -0.4226  0.1867
  115HFI     C3 1864   1.599   2.349   1.474 -0.3674  1.1186 -0.7193
  115HFI     F4 1865   1.568   2.388   1.599  0.2282  0.4929 -0.2296
  115HFI     F5 1866   1.512   2.411   1.398  0.2817  0.1394  0.3104
  115HFI     F6 1867   1.716   2.397   1.442  0.0282 -0.1818 -0.1048
  115HFI     H1 1868   1.555   2.164   1.267  0.2719  1.4661 -1.5122
  115HFI     H2 1869   1.681   2.160   1.520 -0.9399 -0.4313  1.8483
  116HFI     O1 1870   0.343   2.749   2.722  0.6437 -0.0049 -0.9863
  116HFI     C1 1871   0.478   2.783   2.761  0.3498 -0.1776  0.1562
  116HFI     C2 1872   0.495   2.885   2.874  0.3919 -0.3112  0.2240
  116HFI     F1 1873   0.406   2.853   2.978 -0.6231  0.0660 -0.1518
  116HFI     F2 1874   0.455   3.005   2.839 -0.0108  0.2733  0.2971
  116HFI     F3 1875   0.617   2.893   2.925 -0.0256  0.0650  0.4540
  116HFI     C3 1876   0.572   2.805   2.646  0.1781  0.0399  1.0877
  116HFI     F4 1877   0.704   2.788   2.679 -0.0065  0.1334 -0.1414
  116HFI     F5 1878   0.555   2.928   2.594 -0.6006 -0.3357 -0.2195
  116HFI     F6 1879   0.551   2.713   2.551 -0.3944 -0.4307 -0.1584
  116HFI     H1 1880   0.293   2.831   2.705  0.4800 -0.1448 -1.1761
  116HFI     H2 1881   0.514   2.691   2.809  1.1839 -0.3990 -0.8694
  117HFI     O1 1882   0.737   2.471   1.368 -0.6546  0.0674  0.1607
  117HFI     C1 1883   0.695   2.616   1.388  0.0907 -0.0500 -0.2453
  117HFI     C2 1884   0.771   2.671   1.512  0.5063  0.0656  0.2322
  117HFI     F1 1885   0.906   2.662   1.483 -0.0920  0.4321 -0.0624
  117HFI     F2 1886   0.754   2.598   1.620 -0.1229 -0.1031 -0.1228
  117HFI     F3 1887   0.740   2.802   1.546 -0.1359 -0.3449  0.1834
  117HFI     C3 1888   0.542   2.638   1.402  0.0671 -0.3275 -0.1483
  117HFI     F4 1889   0.504   2.763   1.404 -0.5832 -0.5484 -0.4267
  117HFI     F5 1890   0.503   2.581   1.516 -0.5841 -0.3015  0.1045
  117HFI     F6 1891   0.469   2.577   1.298 -0.5858 -0.5784  0.3289
  117HFI     H1 1892   0.690   2.409   1.426  1.5982  0.1802  2.2183
  117HFI     H2 1893   0.732   2.684   1.310 -0.1774 -1.2769 -1.4778
  118HFI     O1 1894   3.359   3.386   2.418 -0.0826  0.4012 -0.7285
  118HFI     C1 1895   3.450   3.380   2.307 -0.3811  0.2660 -0.2823
  118HFI     C2 1896   3.512   3.242   2.312  0.0421  0.2725 -1.1060
  118HFI     F1 1897   3.418   3.145   2.289 -0.1665 -0.1240 -0.0433
  118HFI     F2 1898   3.557   3.216   2.433 -0.7629 -0.5154  0.3386
  118HFI     F3 1899   3.607   3.224   2.222  0.2722  0.0606  0.3509
  118HFI     C3 1900   3.558   3.491   2.323  0.0933  0.0380  0.6501
  118HFI     F4 1901   3.497   3.608   2.323 -0.6906 -0.0326 -0.0350
  118HFI     F5 1902   3.648   3.490   2.217 -0.0571 -0.2473  0.8015
  118HFI     F6 1903   3.622   3.477   2.439 -0.5538 -0.4402 -0.1974
  118HFI     H1 1904   3.385   3.318   2.482 -0.4259 -1.4716 -2.5386
  118HFI     H2 1905   3.399   3.387   2.210 -3.4417 -1.9056  1.0983
  119HFI     O1 1906   2.990   0.429   3.398 -0.0556  0.2616 -0.1529
  119HFI     C1 1907   2.961   0.536   3.300  0.0739  0.0609  0.0954
  119HFI     C2 1908   3.098   0.608   3.271  0.0883  0.0893 -0.6686
  119HFI     F1 1909   3.145   0.670   3.376  0.0111 -0.4208  0.2351
  119HFI     F2 1910   3.083   0.704   3.167 -0.2391  0.3150  0.3826
  119HFI     F3 1911   3.194   0.515   3.241  0.3040  0.7586  0.2211
  119HFI     C3 1912   2.855   0.641   3.350  0.1082  0.5805  0.0083
  119HFI     F4 1913   2.888   0.698   3.470 -0.4620 -0.4532 -0.3692
  119HFI     F5 1914   2.745   0.570   3.360  0.2198  0.3180  0.1776
  119HFI     F6 1915   2.826   0.742   3.265  0.2810 -0.5009  0.1990
  119HFI     H1 1916   3.022   0.471   3.480 -0.8934 -0.2236  0.4309
  119HFI     H2 1917   2.937   0.495   3.201  0.0288 -1.1652  0.5957
  120HFI     O1 1918   1.079   1.984   2.262 -0.4441 -0.0816 -0.3637
  120HFI     C1 1919   1.155   1.860   2.286  0.2637 -0.4568  0.3137
  120HFI     C2 1920   1.059   1.738   2.297 -1.0643  0.0822 -0.7081
  120HFI     F1 1921   1.132   1.622   2.293 -0.3891 -0.0148 -0.1043
  120HFI     F2 1922   0.977   1.740   2.191  0.8069  0.0854 -0.1881
  120HFI     F3 1923   0.987   1.738   2.409 -0.2398  0.5060 -0.6481
  120HFI     C3 1924   1.251   1.865   2.414  0.1594 -0.1831 -0.1143
  120HFI     F4 1925   1.183   1.893   2.523 -0.2500  0.0643  0.2871
  120HFI     F5 1926   1.344   1.957   2.397  0.0063 -0.8894 -0.0831
  120HFI     F6 1927   1.314   1.752   2.437 -0.4146  0.0539 -0.0162
  120HFI     H1 1928   1.016   2.018   2.328  1.0187  1.1069  0.4333
  120HFI     H2 1929   1.215   1.837   2.197 -0.8192  1.8408 -1.0565
  121HFI     O1 1930   1.597   2.685   2.178  0.3571  0.0569  0.0346
  121HFI     C1 1931   1.503   2.609   2.267 -0.0495  0.1675  0.0944
  121HFI     C2 1932   1.460   2.705   2.380 -0.2683  0.0591 -0.1056
  121HFI     F1 1933   1.557   2.781   2.430  0.2617  0.3250  0.1238
  121HFI     F2 1934   1.399   2.646   2.480  0.0743 -0.1203 -0.2888
  121HFI     F3 1935   1.377   2.786   2.321  0.3957  0.4245  0.1831
  121HFI     C3 1936   1.563   2.478   2.310  0.4833 -0.1990 -0.5043
  121HFI     F4 1937   1.673   2.494   2.379 -0.2544 -0.2396  0.5349
  121HFI     F5 1938   1.585   2.394   2.203 -0.2715  0.2658  0.1503
  121HFI     F6 1939   1.471   2.412   2.384 -0.6587  0.3546  0.4618
  121HFI     H1 1940   1.542   2.738   2.117 -1.2130 -1.0760  0.4599
  121HFI     H2 1941   1.409   2.587   2.214 -0.4226 -1.0454  1.2299
  122HFI     O1 1942   1.883   3.306   2.426 -0.0880 -0.3586  0.0016
  122HFI     C1 1943   1.880   3.447   2.414  0.6440 -0.5152 -0.9658
  122HFI     C2 1944   1.778   3.519   2.513  0.0834  0.0821  0.0728
  122HFI     F1 1945   1.826   3.506   2.638  0.1128 -0.4802  0.6652
  122HFI     F2 1946   1.651   3.473   2.517  0.6709 -0.2648  0.0109
  122HFI     F3 1947   1.780   3.656   2.496  0.5806 -0.0356  0.3338
  122HFI     C3 1948   1.869   3.484   2.267 -0.8085  0.1714  0.0233
  122HFI     F4 1949   1.758   3.446   2.211 -0.0454  0.4551  0.1055
  122HFI     F5 1950   1.966   3.422   2.204 -0.3779 -0.0770 -0.1836
  122HFI     F6 1951   1.887   3.614   2.246 -0.2395  0.4544 -0.2534
  122HFI     H1 1952   1.953   3.265   2.371 -1.4003 -0.6245 -1.5041
  122HFI     H2 1953   1.981   3.475   2.448  1.1225 -0.5723 -2.2959
  123HFI     O1 1954   1.612   1.599   1.291  0.3942 -0.0381  0.0815
  123HFI     C1 1955   1.582   1.670   1.418 -0.1755  0.0342  0.2580
  123HFI     C2 1956   1.711   1.716   1.480 -0.3182 -0.4444 -0.2484
  123HFI     F1 1957   1.776   1.785   1.391  0.2517 -0.3708  0.3708
  123HFI     F2 1958   1.788   1.612   1.524  0.2680 -0.3536 -0.0455
  123HFI     F3 1959   1.686   1.808   1.582 -0.5504 -0.4795 -0.4622
  123HFI     C3 1960   1.493   1.596   1.516  0.1894 -0.1961 -0.3916
  123HFI     F4 1961   1.393   1.544   1.453 -0.7458  0.2116  0.1105
  123HFI     F5 1962   1.437   1.673   1.612  0.0640  0.2704 -0.0124
  123HFI     F6 1963   1.558   1.497   1.580 -0.3241 -0.0101  0.2769
  123HFI     H1 1964   1.641   1.510   1.317  0.5104 -0.8347 -2.6212
  123HFI     H2 1965   1.525   1.758   1.388  0.8823  0.8458  0.5931
  124HFI     O1 1966   0.209   3.017   2.700 -0.3419  0.1207 -0.2578
  124HFI     C1 1967   0.123   3.072   2.805  0.4439  0.5078 -0.5231
  124HFI     C2 1968   0.037   2.965   2.878 -0.7245 -0.1309  0.2048
  124HFI     F1 1969  -0.055   3.025   2.963  0.4329  0.4926 -0.4899
  124HFI     F2 1970   0.111   2.889   2.964 -0.0447  0.3090  0.0389
  124HFI     F3 1971  -0.023   2.877   2.793  0.3455 -0.4444 -0.1328
  124HFI     C3 1972   0.033   3.181   2.746  0.3192 -0.4409 -0.4910
  124HFI     F4 1973   0.105   3.270   2.680  0.3567 -0.1358  0.1087
  124HFI     F5 1974  -0.029   3.251   2.846 -0.2538 -0.5106  0.3312
  124HFI     F6 1975  -0.056   3.134   2.653 -0.1739  0.1826 -0.0760
  124HFI     H1 1976   0.203   3.086   2.631 -0.0293  0.5795  0.1611
  124HFI     H2 1977   0.182   3.109   2.890  0.7502 -1.0094 -0.0447
  125HFI     O1 1978   0.689   1.170   1.005  0.1200  0.2554 -0.1453
  125HFI     C1 1979   0.673   1.252   0.886  0.0174 -0.3049  0.8300
  125HFI     C2 1980   0.552   1.340   0.908 -0.2018 -0.0719  0.1408
  125HFI     F1 1981   0.572   1.427   1.010 -0.1870  0.3795 -0.3829
  125HFI     F2 1982   0.435   1.272   0.929  0.0817  0.4823  0.1605
  125HFI     F3 1983   0.536   1.406   0.792  0.3535 -0.5914 -0.3812
  125HFI     C3 1984   0.683   1.171   0.753 -0.0404 -0.7841 -0.3900
  125HFI     F4 1985   0.569   1.104   0.709  0.3419  0.1395 -0.3160
  125HFI     F5 1986   0.793   1.087   0.764  0.2552 -0.3201 -0.2991
  125HFI     F6 1987   0.706   1.252   0.647  0.7645  0.4331 -0.1409
  125HFI     H1 1988   0.684   1.222   1.087 -0.6123  1.8171 -1.1583
  125HFI     H2 1989   0.765   1.311   0.891  1.3319 -2.2090 -0.4728
  126HFI     O1 1990   0.840   2.479   2.450 -0.6535 -0.3130 -0.3386
  126HFI     C1 1991   0.925   2.573   2.380  0.1185 -0.0888  0.0421
  126HFI     C2 1992   0.842   2.676   2.300  0.1678  0.3787 -0.2417
  126HFI     F1 1993   0.925   2.748   2.216 -0.3663  0.4653 -0.8719
  126HFI     F2 1994   0.769   2.764   2.372 -0.5495  0.0241 -0.0703
  126HFI     F3 1995   0.751   2.608   2.223  0.0536  0.0276  0.1707
  126HFI     C3 1996   1.039   2.508   2.309 -0.1659 -0.3390  0.9889
  126HFI     F4 1997   1.119   2.431   2.389  0.0264  0.5893  0.2990
  126HFI     F5 1998   1.122   2.601   2.261 -0.4737  0.2163 -0.5748
  126HFI     F6 1999   1.000   2.427   2.202 -0.2667  0.0713  0.2577
  126HFI     H1 2000   0.834   2.495   2.546  2.3524  2.3852 -0.5186
  126HFI     H2 2001   0.979   2.639   2.449  2.7293 -1.4127 -0.6851
  127HFI     O1 2002   2.279   0.257   2.828 -0.1133  0.6949 -0.5081
  127HFI     C1 2003   2.228   0.132   2.878 -0.7320 -0.0828  0.3876
  127HFI     C2 2004   2.187   0.134   3.035 -0.4944 -0.4399  0.5834
  127HFI     F1 2005   2.147   0.021   3.089 -0.0574 -0.1546 -0.0314
  127HFI     F2 2006   2.084   0.219   3.056  0.1858 -0.5308 -0.4042
  127HFI     F3 2007   2.294   0.175   3.105 -0.1282  0.1054  0.0414
  127HFI     C3 2008   2.304   0.007   2.834  0.0600 -0.0358  0.3802
  127HFI     F4 2009   2.323   0.017   2.699  0.0851 -0.4367 -0.3151
  127HFI     F5 2010   2.228  -0.098   2.857 -0.0967 -0.1383 -0.0401
  127HFI     F6 2011   2.424  -0.009   2.890 -0.4202 -0.4623 -0.3981
  127HFI     H1 2012   2.315   0.302   2.906  0.3406 -0.8682  0.2144
  127HFI     H2 2013   2.125   0.118   2.842 -1.1498 -0.1432  1.5903
  128HFI     O1 2014   0.917   0.309   2.487 -0.3300  0.1627  0.3041
  128HFI     C1 2015   0.815   0.354   2.392  0.1073 -0.2468 -0.3626
  128HFI     C2 2016   0.796   0.243   2.290 -0.8697  0.0873 -1.0588
  128HFI     F1 2017   0.718   0.280   2.189 -0.8193  0.2695  0.4811
  128HFI     F2 2018   0.742   0.140   2.354  0.3942  0.2771  0.2126
  128HFI     F3 2019   0.912   0.205   2.250  0.1825  0.9446  0.6199
  128HFI     C3 2020   0.861   0.487   2.332  0.4019  0.7500  0.1074
  128HFI     F4 2021   0.769   0.539   2.249 -0.8561 -0.2302 -0.3373
  128HFI     F5 2022   0.982   0.464   2.265  0.2353 -0.5195  0.1806
  128HFI     F6 2023   0.893   0.582   2.427 -0.4600 -0.1252 -0.3150
  128HFI     H1 2024   0.995   0.303   2.430 -1.6540 -2.4714 -1.3840
  128HFI     H2 2025   0.721   0.368   2.446  1.8204  0.5589  2.5286
  129HFI     O1 2026   3.123   0.348   2.720 -0.3990  0.1334 -0.3489
  129HFI     C1 2027   3.257   0.379   2.768 -0.1879  0.6980 -0.1593
  129HFI     C2 2028   3.373   0.278   2.717  0.0789 -0.7887  0.1833
  129HFI     F1 2029   3.366   0.153   2.768  0.3280 -0.1444 -0.4133
  129HFI     F2 2030   3.492   0.328   2.755 -0.2842 -0.1731 -0.3666
  129HFI     F3 2031   3.369   0.275   2.586 -0.0261 -0.4609  0.1557
  129HFI     C3 2032   3.260   0.387   2.923 -0.0161  0.1137  0.6864
  129HFI     F4 2033   3.149   0.448   2.977  0.2723  0.1540 -0.2420
  129HFI     F5 2034   3.381   0.438   2.972 -0.1079 -0.0324  0.0284
  129HFI     F6 2035   3.251   0.264   2.978 -0.1638  0.1402 -0.4359
  129HFI     H1 2036   3.123   0.276   2.655  0.4419  0.7457 -1.0529
  129HFI     H2 2037   3.303   0.471   2.730  2.6187 -0.8095 -0.5729
  130HFI     O1 2038   1.467   0.514   1.165  0.3086  0.1368 -1.0704
  130HFI     C1 2039   1.436   0.431   1.048  0.3610  0.0173  0.6812
  130HFI     C2 2040   1.484   0.280   1.072 -0.4517 -0.2443  0.7130
  130HFI     F1 2041   1.601   0.279   1.136  0.2806  0.1571 -0.2861
  130HFI     F2 2042   1.498   0.225   0.950 -0.1890  0.5229  0.0936
  130HFI     F3 2043   1.393   0.213   1.146 -0.4333  0.4561 -0.1594
  130HFI     C3 2044   1.475   0.504   0.922 -0.0009 -0.4588  0.1918
  130HFI     F4 2045   1.446   0.635   0.915 -0.5149  0.5512  0.7242
  130HFI     F5 2046   1.399   0.444   0.828 -0.2813  0.0959 -0.6739
  130HFI     F6 2047   1.601   0.493   0.885  0.5777 -0.0410 -0.0315
  130HFI     H1 2048   1.559   0.490   1.186  0.6927  2.2225 -0.2492
  130HFI     H2 2049   1.327   0.426   1.040  0.2442  1.2815  1.4457
  131HFI     O1 2050   1.475   1.475   0.833  0.3886  0.5514  0.0240
  131HFI     C1 2051   1.497   1.333   0.873  0.3850  0.5252 -0.0210
  131HFI     C2 2052   1.398   1.290   0.990 -0.1802  0.1189  0.2302
  131HFI     F1 2053   1.432   1.346   1.108 -0.1280 -0.1248  0.4562
  131HFI     F2 2054   1.392   1.156   0.997  0.0059  0.0839  0.4486
  131HFI     F3 2055   1.271   1.323   0.969  0.1641 -0.1712  0.3463
  131HFI     C3 2056   1.644   1.308   0.909  0.0457 -0.2869 -0.0642
  131HFI     F4 2057   1.670   1.400   1.003 -0.4337  0.3865 -0.5425
  131HFI     F5 2058   1.728   1.331   0.801 -0.8280  0.0575  0.2588
  131HFI     F6 2059   1.666   1.180   0.954 -0.4047  0.2897  0.6772
  131HFI     H1 2060   1.528   1.529   0.894  0.6805 -0.3411  0.5740
  131HFI     H2 2061   1.480   1.270   0.785 -1.6918  0.6863  0.2286
  132HFI     O1 2062   2.470   3.104   0.234 -0.3438  0.1361 -0.1230
  132HFI     C1 2063   2.472   3.032   0.110  0.0998 -0.4647  0.2719
  132HFI     C2 2064   2.614   3.024   0.048 -0.6015  0.4754  0.5631
  132HFI     F1 2065   2.607   2.944  -0.060 -0.4808 -0.3980  0.3201
  132HFI     F2 2066   2.702   2.963   0.128 -0.3138 -0.4029  0.2304
  132HFI     F3 2067   2.661   3.150   0.015 -1.0260 -0.0356  0.3662
  132HFI     C3 2068   2.362   3.085   0.008  0.5802 -0.7161 -0.5802
  132HFI     F4 2069   2.348   3.010  -0.099  0.0760  0.3258  0.5004
  132HFI     F5 2070   2.396   3.205  -0.044 -0.1217 -0.4070  0.0589
  132HFI     F6 2071   2.237   3.101   0.068  0.0790 -0.3461  0.2785
  132HFI     H1 2072   2.540   3.064   0.288  0.4392 -1.6116 -2.3514
  132HFI     H2 2073   2.440   2.927   0.116 -1.8698  0.1891  1.6215
  133HFI     O1 2074   0.914   0.581   2.980  0.1084 -0.5143  0.5403
  133HFI     C1 2075   0.784   0.530   3.024  0.3033 -0.5708 -0.0521
  133HFI     C2 2076   0.799   0.393   3.094 -0.2135  0.8552  0.8665
  133HFI     F1 2077   0.684   0.346   3.165  0.0383  0.6407 -0.0953
  133HFI     F2 2078   0.901   0.400   3.185  0.2607 -0.8861  0.1680
  133HFI     F3 2079   0.839   0.289   3.009 -0.3354  0.4401  0.1700
  133HFI     C3 2080   0.688   0.528   2.900 -0.0112 -0.5612 -0.5356
  133HFI     F4 2081   0.707   0.416   2.823  0.0611  0.5043 -0.1388
  133HFI     F5 2082   0.710   0.634   2.819  0.3079  0.2116 -0.2644
  133HFI     F6 2083   0.556   0.526   2.939  0.1729  0.0165  0.1959
  133HFI     H1 2084   0.934   0.555   2.888  1.2451  0.0107  0.6290
  133HFI     H2 2085   0.738   0.604   3.090  0.7611 -1.0066  0.7718
  134HFI     O1 2086   3.207   1.845   3.150  0.5018  0.1900  0.2785
  134HFI     C1 2087   3.132   1.812   3.271  0.6467 -0.9263 -0.7030
  134HFI     C2 2088   3.131   1.924   3.374 -0.1958 -0.1003  0.3324
  134HFI     F1 2089   3.255   1.965   3.401 -0.0767  0.0606 -0.0217
  134HFI     F2 2090   3.065   1.884   3.488 -0.0206  0.3048  0.6862
  134HFI     F3 2091   3.067   2.031   3.319  0.0213 -0.1283  0.3521
  134HFI     C3 2092   3.193   1.677   3.324 -0.2338 -0.1935 -0.1117
  134HFI     F4 2093   3.106   1.619   3.408  0.7713 -0.1445 -0.3736
  134HFI     F5 2094   3.319   1.683   3.378 -0.2050  0.2480 -0.0043
  134HFI     F6 2095   3.211   1.588   3.219 -0.2853  0.0555  0.2959
  134HFI     H1 2096   3.302   1.863   3.158  1.2412 -2.4998 -1.8412
  134HFI     H2 2097   3.026   1.789   3.251  0.6638 -2.7937  1.1734
  135HFI     O1 2098   2.465   3.018   2.485  0.3765 -0.1743  0.1429
  135HFI     C1 2099   2.491   3.126   2.396  1.0017  0.1402 -0.2668
  135HFI     C2 2100   2.374   3.159   2.304 -0.3662 -0.2637 -0.1637
  135HFI     F1 2101   2.256   3.151   2.369 -0.2745 -0.1335 -0.2169
  135HFI     F2 2102   2.355   3.080   2.198  0.6079  0.1103 -0.0341
  135HFI     F3 2103   2.386   3.286   2.249 -0.3843 -0.1557 -0.4920
  135HFI     C3 2104   2.629   3.110   2.320 -0.1812 -0.3491 -0.4937
  135HFI     F4 2105   2.735   3.114   2.406 -1.0451 -0.5592  0.3400
  135HFI     F5 2106   2.644   3.205   2.222 -0.2041  0.2113  0.3505
  135HFI     F6 2107   2.625   2.989   2.263 -0.1015  0.0557 -0.2844
  135HFI     H1 2108   2.473   2.935   2.435  2.0445  1.8566 -3.1263
  135HFI     H2 2109   2.508   3.214   2.460 -0.3640  0.5857 -0.5045
  136HFI     O1 2110   1.605   3.144   2.519 -0.0111 -0.8189  0.1587
  136HFI     C1 2111   1.485   3.115   2.434 -0.0998  0.2799 -0.2873
  136HFI     C2 2112   1.514   3.116   2.279  0.2466  0.5262 -0.8257
  136HFI     F1 2113   1.415   3.054   2.221  0.4782 -0.2937  0.1052
  136HFI     F2 2114   1.641   3.053   2.263  0.2904 -0.0426 -0.6086
  136HFI     F3 2115   1.524   3.244   2.235 -0.4922 -0.3240  0.3413
  136HFI     C3 2116   1.361   3.201   2.471 -0.5082  0.2123  0.0429
  136HFI     F4 2117   1.382   3.333   2.444 -0.2413 -0.6666  0.2002
  136HFI     F5 2118   1.334   3.187   2.602  0.0263 -0.4658  0.2413
  136HFI     F6 2119   1.252   3.171   2.405 -0.1020  0.2172 -0.0162
  136HFI     H1 2120   1.673   3.198   2.475 -1.4087  1.5898  0.8766
  136HFI     H2 2121   1.443   3.016   2.453 -1.4502  1.0873  1.0083
  137HFI     O1 2122   0.646   1.057   2.253 -0.4981  0.7255 -0.4876
  137HFI     C1 2123   0.618   0.972   2.362 -0.2950 -0.5226  0.1148
  137HFI     C2 2124   0.753   0.934   2.444 -0.5001 -0.6867 -0.2412
  137HFI     F1 2125   0.847   0.895   2.357 -0.2070  0.2184  0.1498
  137HFI     F2 2126   0.724   0.827   2.528  0.4072 -0.3151  0.0972
  137HFI     F3 2127   0.808   1.030   2.516  0.0448 -0.4982 -0.2286
  137HFI     C3 2128   0.534   0.849   2.300 -0.4203  0.1903  0.2182
  137HFI     F4 2129   0.617   0.767   2.229  0.4367  0.0698  0.4287
  137HFI     F5 2130   0.443   0.907   2.214  0.0316 -0.6576 -0.0603
  137HFI     F6 2131   0.471   0.773   2.396 -0.0199  0.0132  0.1764
  137HFI     H1 2132   0.622   1.011   2.170  0.8097 -1.2084  0.1766
  137HFI     H2 2133   0.549   1.019   2.433  0.6028  0.7281  0.1748
  138HFI     O1 2134   2.245   1.418   2.215  0.4124 -0.0074 -0.4212
  138HFI     C1 2135   2.105   1.395   2.255 -0.4738  0.1463 -0.5548
  138HFI     C2 2136   2.050   1.509   2.349  0.1030  0.0748  0.6495
  138HFI     F1 2137   2.009   1.616   2.275  0.1532 -0.0364 -0.0703
  138HFI     F2 2138   2.145   1.553   2.433  0.6446  0.6679 -0.1033
  138HFI     F3 2139   1.944   1.465   2.416  0.2521 -0.6164 -0.3699
  138HFI     C3 2140   2.080   1.254   2.307  0.5647  0.0166 -0.0145
  138HFI     F4 2141   2.097   1.241   2.439  0.1421 -0.8981 -0.2611
  138HFI     F5 2142   2.175   1.169   2.258  0.0081 -0.3582  0.5287
  138HFI     F6 2143   1.960   1.205   2.271 -0.1509  0.3371  0.2601
  138HFI     H1 2144   2.280   1.476   2.285 -1.7271  1.9030 -0.8667
  138HFI     H2 2145   2.044   1.399   2.164 -0.9728 -2.6706 -0.3663
  139HFI     O1 2146   1.352   1.449   2.353  0.0657  0.0124  0.2980
  139HFI     C1 2147   1.477   1.405   2.280 -1.1250 -0.6715 -0.0786
  139HFI     C2 2148   1.542   1.280   2.331  0.4434  0.8931  0.5524
  139HFI     F1 2149   1.453   1.187   2.373  0.2046  0.2008 -0.2975
  139HFI     F2 2150   1.632   1.289   2.429  0.2522  0.0860 -0.0488
  139HFI     F3 2151   1.605   1.220   2.225 -0.1452  0.0584 -0.0530
  139HFI     C3 2152   1.582   1.520   2.260 -0.4861  0.0049  0.2769
  139HFI     F4 2153   1.535   1.626   2.199 -0.2838 -0.0348 -0.3117
  139HFI     F5 2154   1.690   1.484   2.187  0.0613  0.3354 -0.2997
  139HFI     F6 2155   1.630   1.556   2.382  0.2126 -0.9606  0.3212
  139HFI     H1 2156   1.366   1.454   2.450 -1.8570  3.2517  0.4671
  139HFI     H2 2157   1.449   1.370   2.180 -0.0260  0.0763 -0.6617
  140HFI     O1 2158   1.020   2.200   0.328 -0.6386  0.2834 -0.2648
  140HFI     C1 2159   0.928   2.088   0.344  0.1436 -0.6366 -0.6130
  140HFI     C2 2160   0.994   1.954   0.295 -0.8847 -0.3569  0.2475
  140HFI     F1 2161   1.127   1.960   0.324 -0.4356  0.0527 -0.0785
  140HFI     F2 2162   0.990   1.938   0.159 -0.2405  0.2223 -0.2335
  140HFI     F3 2163   0.940   1.840   0.357  0.6500 -0.2677 -0.5802
  140HFI     C3 2164   0.782   2.119   0.288 -0.6189  0.4535 -0.8237
  140HFI     F4 2165   0.691   2.022   0.327 -0.6432 -0.2457 -0.1321
  140HFI     F5 2166   0.778   2.123   0.153  0.2208 -0.0107 -0.8204
  140HFI     F6 2167   0.730   2.230   0.333 -0.2451  0.1195 -0.0456
  140HFI     H1 2168   0.980   2.282   0.362  0.8665 -0.3536  3.2332
  140HFI     H2 2169   0.912   2.079   0.452 -1.8428 -2.9826 -1.0658
  141HFI     O1 2170   0.505   3.294   0.776  0.3487 -0.1766  0.8746
  141HFI     C1 2171   0.598   3.398   0.724  0.5896  0.3479  0.0347
  141HFI     C2 2172   0.641   3.504   0.836 -0.2907 -0.6911 -0.4442
  141HFI     F1 2173   0.705   3.431   0.936  0.0317  0.1703  0.5387
  141HFI     F2 2174   0.543   3.566   0.891 -0.1035 -0.1318  0.2316
  141HFI     F3 2175   0.727   3.595   0.787  0.0165 -0.3182 -0.1153
  141HFI     C3 2176   0.538   3.462   0.589 -1.0312 -0.5503  0.3235
  141HFI     F4 2177   0.447   3.553   0.629  0.7165  0.5707 -0.1416
  141HFI     F5 2178   0.474   3.374   0.510 -0.2076  0.2881  0.2920
  141HFI     F6 2179   0.628   3.534   0.516 -0.3432  0.5471  0.0676
  141HFI     H1 2180   0.434   3.333   0.830  0.4316 -0.6439  1.3318
  141HFI     H2 2181   0.698   3.364   0.696  1.1787  1.7859  0.3195
  142HFI     O1 2182   2.239   1.730   2.862  0.2152  0.0683  0.2082
  142HFI     C1 2183   2.367   1.766   2.799  0.0528  0.1366 -0.2569
  142HFI     C2 2184   2.409   1.907   2.854  0.2051 -0.1228 -1.2949
  142HFI     F1 2185   2.395   1.913   2.984  0.5840 -0.4850 -0.0257
  142HFI     F2 2186   2.337   2.003   2.792  0.3473 -0.0282  0.2822
  142HFI     F3 2187   2.542   1.924   2.823  0.2248 -0.4342  0.1658
  142HFI     C3 2188   2.346   1.768   2.647  0.3272 -0.3106  0.2960
  142HFI     F4 2189   2.449   1.816   2.577 -0.0375 -0.0202  0.0142
  142HFI     F5 2190   2.236   1.831   2.621  0.1265 -0.5154 -0.1713
  142HFI     F6 2191   2.320   1.641   2.605  0.4994  0.2302 -0.0013
  142HFI     H1 2192   2.167   1.763   2.805 -0.7890  1.2435  2.0643
  142HFI     H2 2193   2.443   1.688   2.814  0.9123  0.9294 -0.4936
  143HFI     O1 2194   1.191   0.678   3.242 -0.1670 -0.1452 -0.0492
  143HFI     C1 2195   1.310   0.600   3.217  0.2387 -0.3339  0.1294
  143HFI     C2 2196   1.310   0.539   3.077 -0.4622  0.1053  0.7552
  143HFI     F1 2197   1.421   0.466   3.047 -0.4498 -0.3179  0.8126
  143HFI     F2 2198   1.296   0.639   2.989 -0.3033  0.5053  0.2594
  143HFI     F3 2199   1.207   0.457   3.065  0.8697 -0.3353 -0.2084
  143HFI     C3 2200   1.323   0.501   3.338 -0.2054 -0.3381 -0.2384
  143HFI     F4 2201   1.314   0.581   3.456  0.1784  0.0265 -0.1820
  143HFI     F5 2202   1.441   0.439   3.345  0.4853  0.5211 -0.2937
  143HFI     F6 2203   1.218   0.416   3.345 -0.4618  0.7499 -0.2011
  143HFI     H1 2204   1.195   0.712   3.334 -2.9073  0.5158 -0.1247
  143HFI     H2 2205   1.395   0.668   3.226  1.2773 -1.6284  0.2107
  144HFI     O1 2206   0.930   1.968   3.425 -0.7295 -0.1037  0.2699
  144HFI     C1 2207   0.999   2.096   3.445 -0.5696 -0.1486 -0.1242
  144HFI     C2 2208   1.058   2.111   3.592 -0.0757 -0.3052  0.1288
  144HFI     F1 2209   1.158   2.013   3.593 -0.6141 -0.0719  0.0280
  144HFI     F2 2210   0.966   2.084   3.684 -0.4751 -0.3414  0.9527
  144HFI     F3 2211   1.102   2.238   3.609 -0.3291  0.5261 -0.1753
  144HFI     C3 2212   0.909   2.216   3.403  0.8704 -0.3448 -0.6202
  144HFI     F4 2213   0.831   2.176   3.298 -0.2577 -0.0198 -0.1164
  144HFI     F5 2214   0.982   2.328   3.366  0.0400  0.5608  0.5362
  144HFI     F6 2215   0.830   2.249   3.511 -0.2900  0.0366 -0.2260
  144HFI     H1 2216   0.885   1.945   3.508 -1.7897 -1.0078 -0.5365
  144HFI     H2 2217   1.090   2.109   3.386 -0.4570 -1.1942 -0.1937
  145HFI     O1 2218   2.703   2.267   0.027 -0.2225  0.3244  0.4298
  145HFI     C1 2219   2.705   2.313   0.168 -0.4882 -0.2982 -0.4797
  145HFI     C2 2220   2.735   2.467   0.178 -0.7015  0.4605 -0.3349
  145HFI     F1 2221   2.858   2.488   0.139 -0.4530 -0.0002  0.4290
  145HFI     F2 2222   2.726   2.514   0.305  0.2427 -0.1822 -0.2723
  145HFI     F3 2223   2.650   2.540   0.105  0.1770 -0.1461 -0.0888
  145HFI     C3 2224   2.807   2.229   0.244 -0.0139  0.6142  0.0132
  145HFI     F4 2225   2.790   2.245   0.373  0.1657 -0.1310  0.1451
  145HFI     F5 2226   2.932   2.248   0.213  0.0069 -0.4161  0.1177
  145HFI     F6 2227   2.775   2.093   0.218  0.1632  0.6208 -0.5932
  145HFI     H1 2228   2.720   2.349  -0.023 -2.0398  0.3045 -0.2347
  145HFI     H2 2229   2.605   2.296   0.209  0.2105 -1.9609  0.5932
  146HFI     O1 2230   1.326   3.380   3.568  0.0846 -0.2101 -0.6785
  146HFI     C1 2231   1.437   3.398   3.470  0.2981 -0.5849  0.3244
  146HFI     C2 2232   1.563   3.338   3.526 -0.4751 -0.2432 -0.6548
  146HFI     F1 2233   1.557   3.222   3.594  0.0620  0.2914  0.0711
  146HFI     F2 2234   1.620   3.423   3.612  0.3360 -0.4271  0.4256
  146HFI     F3 2235   1.653   3.323   3.432 -0.3530 -0.1630  0.4695
  146HFI     C3 2236   1.450   3.552   3.428 -0.7811 -0.4882  0.2666
  146HFI     F4 2237   1.538   3.572   3.325 -0.5356 -0.0904 -0.2766
  146HFI     F5 2238   1.485   3.636   3.529  0.4987  0.3514  0.3183
  146HFI     F6 2239   1.331   3.594   3.383 -0.2175  0.1400 -0.0509
  146HFI     H1 2240   1.240   3.409   3.532 -1.7728 -1.3205  2.6459
  146HFI     H2 2241   1.412   3.332   3.386  0.2727 -1.0137  0.6660
  147HFI     O1 2242   0.421   3.285   3.492 -0.1920 -0.2680  0.2801
  147HFI     C1 2243   0.326   3.177   3.464 -0.8925  0.4303  0.0636
  147HFI     C2 2244   0.305   3.156   3.301  0.7780 -0.1901  0.0037
  147HFI     F1 2245   0.410   3.162   3.222  0.2173  0.1013 -0.2309
  147HFI     F2 2246   0.212   3.238   3.251 -0.1326 -0.0897 -0.1427
  147HFI     F3 2247   0.249   3.036   3.274  0.1970  0.0543 -0.0781
  147HFI     C3 2248   0.197   3.183   3.549  0.0838 -0.1057 -0.1018
  147HFI     F4 2249   0.137   3.303   3.558 -0.0889 -0.1884  0.6729
  147HFI     F5 2250   0.227   3.152   3.676  0.0188 -0.6223  0.5021
  147HFI     F6 2251   0.098   3.100   3.517  0.5169  0.2216  0.1710
  147HFI     H1 2252   0.416   3.347   3.417  1.6471  1.9836  1.9353
  147HFI     H2 2253   0.370   3.082   3.497  0.5125  0.3448 -1.9695
  148HFI     O1 2254   0.693   3.140   2.486 -0.4012  0.3494  0.3410
  148HFI     C1 2255   0.701   3.256   2.401 -0.0376 -0.5318  0.2840
  148HFI     C2 2256   0.567   3.276   2.320 -0.0996  0.8910 -0.9051
  148HFI     F1 2257   0.472   3.310   2.408  0.1595  0.7287 -0.2955
  148HFI     F2 2258   0.532   3.149   2.262 -0.5980  0.4173  0.0316
  148HFI     F3 2259   0.563   3.370   2.217  0.1638 -0.8949  0.1859
  148HFI     C3 2260   0.826   3.240   2.310  0.5615 -0.0794 -0.1340
  148HFI     F4 2261   0.834   3.354   2.235  0.5460 -0.6786 -0.0182
  148HFI     F5 2262   0.807   3.140   2.231  0.1852 -0.1282  0.1588
  148HFI     F6 2263   0.943   3.227   2.385  0.9669 -0.0950 -0.0387
  148HFI     H1 2264   0.700   3.056   2.438  1.1847  0.1684  0.8608
  148HFI     H2 2265   0.698   3.344   2.466 -1.4441  0.1605 -0.6895
  149HFI     O1 2266   2.254   1.672   3.183 -0.3711 -0.4962  0.2107
  149HFI     C1 2267   2.113   1.714   3.190  0.3169  0.5585 -0.0164
  149HFI     C2 2268   2.100   1.867   3.222 -0.4834 -0.0900 -0.1980
  149HFI     F1 2269   1.981   1.922   3.208 -0.0190  0.0317 -0.3192
  149HFI     F2 2270   2.172   1.926   3.125 -0.1338 -0.0240 -0.0208
  149HFI     F3 2271   2.145   1.902   3.342  0.3073  0.3320 -0.0786
  149HFI     C3 2272   2.015   1.616   3.269 -0.0067  0.2920  0.0798
  149HFI     F4 2273   2.054   1.596   3.394  0.0705  0.4237 -0.0276
  149HFI     F5 2274   2.015   1.495   3.206  0.5336  0.2828  0.1134
  149HFI     F6 2275   1.885   1.655   3.282 -0.3524  0.4511 -0.1726
  149HFI     H1 2276   2.271   1.619   3.103  1.1899  0.7677 -0.3039
  149HFI     H2 2277   2.076   1.704   3.087 -1.3780  0.0915  0.6141
  150HFI     O1 2278   1.267   1.119   3.782  0.1089 -0.0835 -0.0906
  150HFI     C1 2279   1.354   1.077   3.668  0.6649  0.4629  0.6543
  150HFI     C2 2280   1.284   1.097   3.531 -0.1216  0.2251 -0.3115
  150HFI     F1 2281   1.256   1.229   3.507 -0.3780  0.4647  0.5564
  150HFI     F2 2282   1.161   1.031   3.547 -0.5085 -0.1172  0.4383
  150HFI     F3 2283   1.342   1.038   3.427  0.1542  0.2909  0.1125
  150HFI     C3 2284   1.399   0.928   3.703 -0.3975 -0.4114 -0.2280
  150HFI     F4 2285   1.299   0.833   3.695  0.4762 -0.2204 -0.2547
  150HFI     F5 2286   1.451   0.925   3.827 -0.8463  0.2311  0.1434
  150HFI     F6 2287   1.497   0.887   3.620  0.1886  0.0233 -0.3158
  150HFI     H1 2288   1.215   1.194   3.748 -2.9813 -1.2872  1.7437
  150HFI     H2 2289   1.447   1.135   3.678  0.6282  0.5238  0.6361
  151HFI     O1 2290   1.210   1.572   0.810 -0.6823  0.2387 -0.0722
  151HFI     C1 2291   1.084   1.515   0.760 -0.3107 -0.4368  0.3522
  151HFI     C2 2292   0.968   1.531   0.863  0.7268  0.2302 -0.4054
  151HFI     F1 2293   0.951   1.661   0.895 -0.5228  0.4567 -0.4982
  151HFI     F2 2294   0.982   1.458   0.977  0.4539  0.3352 -0.1565
  151HFI     F3 2295   0.857   1.492   0.790  0.2993 -0.4737  0.0396
  151HFI     C3 2296   1.097   1.381   0.699  0.3878 -0.3944  0.8756
  151HFI     F4 2297   1.043   1.278   0.768 -0.0959 -0.5042 -0.2356
  151HFI     F5 2298   1.227   1.347   0.686 -0.4387  0.3082  0.2143
  151HFI     F6 2299   1.042   1.385   0.574 -0.2427  0.3113 -0.3423
  151HFI     H1 2300   1.289   1.516   0.795 -1.1198 -0.4226  0.0545
  151HFI     H2 2301   1.040   1.571   0.676  0.4421 -0.1446  0.1437
  152HFI     O1 2302   2.168   1.115   0.286  0.0505  0.4414  0.3680
  152HFI     C1 2303   2.092   1.232   0.314  0.0828  0.4613 -0.0836
  152HFI     C2 2304   2.045   1.229   0.462 -0.1098  0.1805  0.3547
  152HFI     F1 2305   1.998   1.349   0.510  0.5033 -0.1243 -0.1685
  152HFI     F2 2306   2.153   1.196   0.543 -0.3089 -0.0259 -0.1793
  152HFI     F3 2307   1.949   1.137   0.476 -0.4616  0.1550 -0.3067
  152HFI     C3 2308   1.975   1.265   0.207  0.3413  0.8172  0.1757
  152HFI     F4 2309   1.917   1.384   0.238  0.1363  0.3821 -0.4166
  152HFI     F5 2310   1.876   1.166   0.202 -0.6610  0.5812  0.1249
  152HFI     F6 2311   2.022   1.274   0.080 -0.1531 -0.2241  0.1176
  152HFI     H1 2312   2.117   1.034   0.271  1.2760 -0.3462  0.3516
  152HFI     H2 2313   2.161   1.317   0.311 -0.3232  0.8978  2.0762
  153HFI     O1 2314   0.048   2.000   2.383 -0.3956 -0.1598  0.5021
  153HFI     C1 2315   0.053   1.869   2.314  0.0815  0.4740  0.2649
  153HFI     C2 2316  -0.047   1.765   2.376 -0.0837  0.0063 -0.1905
  153HFI     F1 2317  -0.155   1.822   2.406  0.1797  0.0220 -0.0484
  153HFI     F2 2318  -0.003   1.698   2.486 -0.5684 -0.3593 -0.0039
  153HFI     F3 2319  -0.079   1.674   2.284 -0.3880 -0.6042 -0.2625
  153HFI     C3 2320   0.191   1.825   2.292  0.9440  0.2333 -0.2472
  153HFI     F4 2321   0.190   1.715   2.216 -0.1125  0.7755  0.3325
  153HFI     F5 2322   0.251   1.791   2.403  0.1940 -0.4923 -0.4278
  153HFI     F6 2323   0.263   1.918   2.224 -0.3458 -0.0007  0.5138
  153HFI     H1 2324   0.066   1.979   2.477  1.2235 -0.1136  0.2136
  153HFI     H2 2325   0.010   1.884   2.215  0.5472 -1.2939 -0.2249
  154HFI     O1 2326   3.064   0.746   1.074 -0.0430  0.0180 -0.2661
  154HFI     C1 2327   3.184   0.816   1.024  0.5887  0.0804 -0.0406
  154HFI     C2 2328   3.271   0.883   1.135  0.2000 -0.0624  0.0181
  154HFI     F1 2329   3.366   0.804   1.183  0.4142  0.1227  0.5105
  154HFI     F2 2330   3.190   0.921   1.236  0.1254  0.4717  0.0432
  154HFI     F3 2331   3.350   0.988   1.088  0.6435  0.1386 -0.1792
  154HFI     C3 2332   3.149   0.922   0.908  0.4095 -0.0703  0.4551
  154HFI     F4 2333   3.262   0.944   0.838  0.4656  0.6307  0.5615
  154HFI     F5 2334   3.099   1.040   0.953  0.3599  0.5487 -0.3244
  154HFI     F6 2335   3.057   0.867   0.820  0.6509  0.1360  0.4842
  154HFI     H1 2336   3.024   0.810   1.135  0.8098  2.5090 -2.2148
  154HFI     H2 2337   3.248   0.743   0.972 -0.0316 -0.5085  0.0165
  155HFI     O1 2338   0.814   2.193   2.325  0.0721  0.0649 -0.1437
  155HFI     C1 2339   0.694   2.135   2.273  0.2163 -0.1812 -0.3458
  155HFI     C2 2340   0.572   2.236   2.277 -0.1195 -0.5840 -0.2035
  155HFI     F1 2341   0.597   2.350   2.208 -0.7773  0.0272 -0.3762
  155HFI     F2 2342   0.535   2.269   2.405 -0.2043  0.1745  0.5051
  155HFI     F3 2343   0.465   2.186   2.213  0.4357  0.4853  0.4472
  155HFI     C3 2344   0.667   1.998   2.337  0.1421  0.5143  0.0561
  155HFI     F4 2345   0.625   2.010   2.466  0.0730 -0.4322  0.0371
  155HFI     F5 2346   0.772   1.912   2.326  0.1076 -0.2396  0.3727
  155HFI     F6 2347   0.561   1.939   2.275 -0.0467 -0.4459 -0.0192
  155HFI     H1 2348   0.802   2.282   2.364  0.1011  0.3878 -0.8637
  155HFI     H2 2349   0.713   2.112   2.167 -0.7337  0.5336 -0.6714
  156HFI     O1 2350   0.874   0.837   3.087  0.5932 -0.3976  1.0058
  156HFI     C1 2351   0.978   0.932   3.067 -1.0403  0.2300 -0.2080
  156HFI     C2 2352   0.965   1.054   3.166 -0.0795  0.3671 -0.2276
  156HFI     F1 2353   0.842   1.105   3.142  0.0282  0.5133 -0.3070
  156HFI     F2 2354   1.058   1.154   3.160  0.0571  0.0736 -0.2930
  156HFI     F3 2355   0.969   1.002   3.291 -0.0261  0.4466 -0.1508
  156HFI     C3 2356   1.001   0.963   2.922  0.6689 -0.2101 -0.1471
  156HFI     F4 2357   0.969   0.853   2.844  0.2978  0.4791 -0.2389
  156HFI     F5 2358   1.131   1.003   2.901  0.0089 -0.1661  0.0522
  156HFI     F6 2359   0.925   1.062   2.870 -0.6006  0.0958  0.0847
  156HFI     H1 2360   0.907   0.753   3.051  0.8364  0.7321 -1.4461
  156HFI     H2 2361   1.074   0.888   3.095 -1.4668 -0.2911  0.4437
  157HFI     O1 2362   1.442   0.653   1.414 -0.1435  0.1997  0.0556
  157HFI     C1 2363   1.372   0.581   1.517  0.0598 -0.0852  0.5051
  157HFI     C2 2364   1.378   0.426   1.500 -0.1480  0.8411  0.3265
  157HFI     F1 2365   1.504   0.382   1.477  0.1435  0.0194 -0.3119
  157HFI     F2 2366   1.297   0.387   1.397 -0.3898  0.2073  0.9136
  157HFI     F3 2367   1.332   0.364   1.600  0.1164  0.2623  0.3748
  157HFI     C3 2368   1.226   0.632   1.519 -0.2596 -1.0087  0.3240
  157HFI     F4 2369   1.183   0.640   1.393 -0.1027 -0.5157  0.2173
  157HFI     F5 2370   1.222   0.752   1.581  0.6699  0.2677  0.0899
  157HFI     F6 2371   1.149   0.551   1.586  0.5588  0.2002  0.3684
  157HFI     H1 2372   1.413   0.623   1.326 -0.2996  0.6693 -0.0540
  157HFI     H2 2373   1.420   0.589   1.615 -2.1701  1.1159  1.5486
  158HFI     O1 2374   2.818   3.301   0.795 -0.3226 -0.0882  0.1118
  158HFI     C1 2375   2.879   3.255   0.913 -0.6204 -0.0995 -0.2824
  158HFI     C2 2376   2.777   3.277   1.029 -0.4154 -0.1430  0.1944
  158HFI     F1 2377   2.737   3.401   1.038 -0.1339  0.1490 -0.2042
  158HFI     F2 2378   2.844   3.253   1.143  0.6731 -0.6521  0.0521
  158HFI     F3 2379   2.668   3.193   1.022 -0.0682 -0.0110 -0.0500
  158HFI     C3 2380   3.026   3.319   0.923  0.2861  0.3375 -0.3146
  158HFI     F4 2381   3.015   3.446   0.960  0.0535  0.3074 -0.2849
  158HFI     F5 2382   3.081   3.325   0.799  0.3674  0.3387 -0.3109
  158HFI     F6 2383   3.099   3.255   1.015  0.7020  0.3431 -0.3257
  158HFI     H1 2384   2.723   3.309   0.812 -0.8653 -3.5046 -0.8140
  158HFI     H2 2385   2.895   3.147   0.897  0.5287  0.0109  0.0943
  159HFI     O1 2386   0.831   2.763   3.405  0.0600  1.0916 -0.5157
  159HFI     C1 2387   0.691   2.727   3.379  0.0676  0.1571 -0.0525
  159HFI     C2 2388   0.603   2.849   3.332  0.4140 -0.2542 -0.6861
  159HFI     F1 2389   0.598   2.946   3.428  0.6438  0.9575  0.0370
  159HFI     F2 2390   0.481   2.813   3.304 -0.2609  0.2545  0.2108
  159HFI     F3 2391   0.662   2.898   3.219 -0.0526  0.0178  0.8108
  159HFI     C3 2392   0.627   2.641   3.491  0.3778  0.5019 -0.7869
  159HFI     F4 2393   0.587   2.714   3.600 -0.6837  0.0724 -0.6059
  159HFI     F5 2394   0.703   2.536   3.538 -0.0399 -0.2675  0.3200
  159HFI     F6 2395   0.517   2.582   3.444  0.2629  0.1756  0.0650
  159HFI     H1 2396   0.882   2.680   3.408 -1.8272 -0.2095 -2.4964
  159HFI     H2 2397   0.691   2.662   3.290 -1.4110  0.9240 -0.6373
  160HFI     O1 2398   1.560   2.752   3.380 -0.4232 -0.3173  0.0956
  160HFI     C1 2399   1.661   2.830   3.311 -0.5494  0.8568 -0.1596
  160HFI     C2 2400   1.613   2.973   3.280 -0.0687 -0.4103  0.7571
  160HFI     F1 2401   1.707   3.064   3.260 -0.1334  0.1066  0.6819
  160HFI     F2 2402   1.537   3.019   3.380 -0.2608  0.2607  0.3617
  160HFI     F3 2403   1.528   2.983   3.171 -0.3274 -0.3658 -0.2004
  160HFI     C3 2404   1.714   2.766   3.186 -0.4162  0.4046 -0.1005
  160HFI     F4 2405   1.789   2.656   3.218  0.0521  0.5228 -0.7958
  160HFI     F5 2406   1.792   2.852   3.115  0.8055 -0.0510 -0.4264
  160HFI     F6 2407   1.612   2.723   3.105 -0.0564  0.3138  0.2804
  160HFI     H1 2408   1.496   2.810   3.425 -0.0381  0.1214  0.0773
  160HFI     H2 2409   1.747   2.844   3.379 -0.9882 -0.8892  0.7819
  161HFI     O1 2410   0.085   0.732   0.828  0.4080  0.5889 -0.0656
  161HFI     C1 2411   0.103   0.618   0.738 -1.0265 -0.5904  0.6360
  161HFI     C2 2412   0.145   0.678   0.596 -0.7801  0.2026 -0.8853
  161HFI     F1 2413   0.065   0.784   0.559  1.0715  0.2495  0.1581
  161HFI     F2 2414   0.145   0.585   0.492 -0.0022  0.0080 -0.0274
  161HFI     F3 2415   0.276   0.728   0.610  0.1693  0.7812 -0.3185
  161HFI     C3 2416  -0.024   0.531   0.726  0.4599 -0.0641  0.4428
  161HFI     F4 2417  -0.011   0.422   0.644  0.4943 -0.6016  0.1735
  161HFI     F5 2418  -0.116   0.609   0.665 -0.3181  0.3520  0.0014
  161HFI     F6 2419  -0.069   0.485   0.847 -0.1158 -0.0683  0.4980
  161HFI     H1 2420   0.137   0.806   0.791 -0.5590  0.4603 -1.7300
  161HFI     H2 2421   0.182   0.554   0.780  0.1980 -0.1142 -0.9015
  162HFI     O1 2422   2.895   2.824   2.524 -0.9003 -0.7615  0.1176
  162HFI     C1 2423   3.007   2.784   2.438  0.5746  0.5052 -0.2822
  162HFI     C2 2424   3.139   2.775   2.521 -0.1148 -0.6995 -0.0112
  162HFI     F1 2425   3.125   2.718   2.645  0.4907 -0.7629  0.1795
  162HFI     F2 2426   3.184   2.898   2.545  0.1717 -0.1662  0.1652
  162HFI     F3 2427   3.240   2.725   2.456  0.1653 -0.0188 -0.4142
  162HFI     C3 2428   3.017   2.852   2.308 -0.4769 -0.6393 -0.7004
  162HFI     F4 2429   3.027   2.990   2.323  0.1118  0.4618  0.2244
  162HFI     F5 2430   2.908   2.835   2.242  0.3738  0.5049  0.1117
  162HFI     F6 2431   3.120   2.813   2.236  0.5800  0.1081 -0.0290
  162HFI     H1 2432   2.893   2.920   2.534  2.3762 -0.6400  0.0451
  162HFI     H2 2433   2.999   2.680   2.405  2.6947 -0.0968  0.9213
  163HFI     O1 2434   0.802   1.552   2.493 -0.1407  0.4812  0.3480
  163HFI     C1 2435   0.704   1.492   2.398 -0.0156 -0.9778  0.2664
  163HFI     C2 2436   0.774   1.385   2.314  0.2548  0.0181  0.1231
  163HFI     F1 2437   0.690   1.323   2.226 -0.6918 -0.2120 -0.3013
  163HFI     F2 2438   0.833   1.290   2.391  0.0459 -0.4002  0.1770
  163HFI     F3 2439   0.881   1.440   2.242 -0.4532 -0.4100 -0.1407
  163HFI     C3 2440   0.631   1.597   2.313 -0.2636 -0.6266 -0.1712
  163HFI     F4 2441   0.538   1.540   2.231 -0.4558  0.5467  0.2155
  163HFI     F5 2442   0.715   1.671   2.228 -0.8363 -0.4284  0.2264
  163HFI     F6 2443   0.566   1.686   2.389  0.3851 -0.2962  0.5170
  163HFI     H1 2444   0.857   1.612   2.440  0.7193 -0.1742  0.4787
  163HFI     H2 2445   0.629   1.437   2.455 -1.7111  1.1457  0.1350
  164HFI     O1 2446   0.086   2.662   2.244 -0.5248  0.2122 -0.5817
  164HFI     C1 2447   0.226   2.680   2.262 -0.0523 -0.3468  0.1102
  164HFI     C2 2448   0.290   2.550   2.327  0.1012  0.6604  0.1084
  164HFI     F1 2449   0.425   2.550   2.321  0.2407 -0.8912 -0.0169
  164HFI     F2 2450   0.245   2.446   2.256  0.1601 -0.2801  0.1841
  164HFI     F3 2451   0.253   2.539   2.457  0.0467 -0.0578  0.0925
  164HFI     C3 2452   0.257   2.813   2.338 -0.5900 -0.8497  0.1895
  164HFI     F4 2453   0.188   2.824   2.457 -0.1912  0.2442  0.5178
  164HFI     F5 2454   0.229   2.920   2.258  0.2693 -0.1479  0.3108
  164HFI     F6 2455   0.388   2.832   2.365  0.1840 -0.2989 -0.5039
  164HFI     H1 2456   0.041   2.707   2.318 -0.1741  2.0975 -1.5070
  164HFI     H2 2457   0.268   2.699   2.162 -0.8723  2.7857  0.3153
  165HFI     O1 2458   2.483   3.152   3.427  0.6988  0.1405  0.0593
  165HFI     C1 2459   2.582   3.060   3.367 -0.4576 -0.0680  0.3641
  165HFI     C2 2460   2.634   3.114   3.226  0.0040 -0.1365 -0.2977
  165HFI     F1 2461   2.588   3.243   3.209 -0.0894 -0.7912  0.1984
  165HFI     F2 2462   2.609   3.042   3.117  0.1324 -0.0859 -0.1065
  165HFI     F3 2463   2.770   3.117   3.236 -0.1273 -0.4158  0.1992
  165HFI     C3 2464   2.520   2.921   3.361  0.8234 -0.3776  0.4461
  165HFI     F4 2465   2.410   2.907   3.278  0.1806 -0.1056 -0.0876
  165HFI     F5 2466   2.470   2.878   3.475  0.3885 -0.0916  0.1524
  165HFI     F6 2467   2.612   2.827   3.330 -0.1527 -0.7003  0.0319
  165HFI     H1 2468   2.393   3.123   3.405  0.6422  0.9450 -0.8003
  165HFI     H2 2469   2.664   3.045   3.438 -2.2622  3.1690  3.2716
  166HFI     O1 2470   1.059   3.022   0.923  0.3019  0.2392 -0.3233
  166HFI     C1 2471   1.157   2.922   0.928  0.0889  0.3430  0.4414
  166HFI     C2 2472   1.090   2.798   0.984 -0.2435  0.0035  0.2618
  166HFI     F1 2473   1.175   2.691   0.992 -0.3345 -0.3489 -0.2897
  166HFI     F2 2474   0.992   2.756   0.901 -0.3385 -0.0235  0.5086
  166HFI     F3 2475   1.038   2.824   1.109  0.3578 -0.2643 -0.0701
  166HFI     C3 2476   1.291   2.954   1.002  0.0630 -0.2744 -0.6718
  166HFI     F4 2477   1.356   3.063   0.952 -0.6373 -0.0340 -0.1886
  166HFI     F5 2478   1.371   2.844   1.005 -0.3809 -0.7448  0.1984
  166HFI     F6 2479   1.263   2.978   1.130 -0.0202  0.2851 -0.2970
  166HFI     H1 2480   1.019   3.032   1.011  2.0857  1.0494  0.4316
  166HFI     H2 2481   1.194   2.909   0.826  0.7465  1.5219  0.5129
  167HFI     O1 2482   2.331   2.390   2.425  0.0074  0.0436 -0.1218
  167HFI     C1 2483   2.242   2.312   2.336 -0.1311  0.3126 -0.1865
  167HFI     C2 2484   2.092   2.318   2.392 -0.5398 -0.0527  0.4167
  167HFI     F1 2485   2.005   2.282   2.290  0.4551  0.4518  0.5971
  167HFI     F2 2486   2.058   2.440   2.431 -0.2303 -0.0314 -0.4381
  167HFI     F3 2487   2.079   2.243   2.494 -0.6596 -0.0909 -0.1277
  167HFI     C3 2488   2.292   2.173   2.300 -0.6306  0.1981 -0.3301
  167HFI     F4 2489   2.343   2.104   2.403 -0.4969 -0.3534 -0.1350
  167HFI     F5 2490   2.393   2.188   2.208  0.3099  0.4687 -0.0729
  167HFI     F6 2491   2.198   2.093   2.243 -0.3918 -0.6805 -0.2304
  167HFI     H1 2492   2.333   2.342   2.510  2.6939  1.0406  0.4410
  167HFI     H2 2493   2.229   2.379   2.250 -1.6682  1.3342  0.8140
  168HFI     O1 2494   2.660   2.687   2.460  0.3907  0.6578 -0.4533
  168HFI     C1 2495   2.636   2.552   2.415  0.1708  0.0641  0.3297
  168HFI     C2 2496   2.649   2.451   2.531  0.1961  0.3198  0.0431
  168HFI     F1 2497   2.609   2.329   2.486 -0.1890 -0.0216  0.5487
  168HFI     F2 2498   2.575   2.482   2.639  0.2170 -0.1049  0.0130
  168HFI     F3 2499   2.778   2.429   2.577  0.0564 -0.5537 -0.3899
  168HFI     C3 2500   2.704   2.525   2.281  0.0741  0.0297 -0.3385
  168HFI     F4 2501   2.835   2.542   2.293  0.0404 -0.2549  0.0625
  168HFI     F5 2502   2.660   2.619   2.191  0.2776  0.2246 -0.2590
  168HFI     F6 2503   2.680   2.394   2.233 -0.1778 -0.1410 -0.0179
  168HFI     H1 2504   2.755   2.707   2.470  0.6828 -0.3191 -1.1729
  168HFI     H2 2505   2.531   2.542   2.387  0.2329 -1.9621  0.7073
  169HFI     O1 2506   2.310   3.115   3.078 -0.1277  0.4426  0.0535
  169HFI     C1 2507   2.228   3.003   3.022  0.4052 -0.4741  0.0920
  169HFI     C2 2508   2.292   2.960   2.887 -0.4037  0.5628 -0.4226
  169HFI     F1 2509   2.433   2.931   2.899 -0.4577  0.0085  0.0444
  169HFI     F2 2510   2.282   3.052   2.796 -0.3855  0.2768 -0.1327
  169HFI     F3 2511   2.234   2.847   2.837  0.4108 -0.3008 -0.0999
  169HFI     C3 2512   2.073   3.046   3.010 -0.0652  0.3330  0.3689
  169HFI     F4 2513   2.017   2.973   2.911 -0.0144 -0.0145  0.0807
  169HFI     F5 2514   2.050   3.176   2.988 -0.3742  0.1056 -0.3861
  169HFI     F6 2515   2.009   3.021   3.129 -0.1374  0.3897 -0.2646
  169HFI     H1 2516   2.291   3.193   3.023  0.2604  0.0934 -0.5866
  169HFI     H2 2517   2.234   2.915   3.087 -1.9031  0.5307  1.7119
  170HFI     O1 2518   0.046   2.163   3.113 -0.7530 -0.4306  0.4559
  170HFI     C1 2519   0.048   2.146   3.260 -0.1290  0.2049  0.1820
  170HFI     C2 2520   0.090   2.268   3.337  0.1357 -0.0220 -0.4359
  170HFI     F1 2521   0.024   2.372   3.274  0.0852 -0.1569 -0.1599
  170HFI     F2 2522   0.222   2.290   3.321  0.0540 -0.1167 -0.0075
  170HFI     F3 2523   0.056   2.269   3.463  0.1840  0.1470  0.5699
  170HFI     C3 2524   0.128   2.022   3.298  0.1397  0.1058  0.3112
  170HFI     F4 2525   0.077   1.906   3.247  0.3817 -0.2758 -0.3309
  170HFI     F5 2526   0.129   2.013   3.429 -0.6545  0.1572 -0.1362
  170HFI     F6 2527   0.258   2.028   3.265  0.4346  0.0294  0.3960
  170HFI     H1 2528   0.132   2.201   3.086 -1.0994 -0.3298 -0.5365
  170HFI     H2 2529  -0.059   2.131   3.277 -0.2502 -2.2012 -2.2574
  171HFI     O1 2530   0.185   1.869   0.234 -0.0103 -0.3593 -0.8153
  171HFI     C1 2531   0.198   1.820   0.097  0.3453  0.2868  0.0208
  171HFI     C2 2532   0.050   1.801   0.044  0.1776  0.0998  0.0085
  171HFI     F1 2533  -0.007   1.696   0.114 -0.0642  0.0231  0.2489
  171HFI     F2 2534   0.034   1.778  -0.089 -0.0652  0.4674  0.1631
  171HFI     F3 2535  -0.025   1.918   0.065 -0.1940 -0.0710 -0.2066
  171HFI     C3 2536   0.298   1.691   0.073  0.3949  0.0733  0.0001
  171HFI     F4 2537   0.427   1.725   0.075  0.1311  0.3150  0.0483
  171HFI     F5 2538   0.279   1.641  -0.053 -0.7241  0.1744 -0.2287
  171HFI     F6 2539   0.284   1.599   0.166  0.4597 -0.1557 -0.1274
  171HFI     H1 2540   0.275   1.876   0.269 -0.1008 -1.5677 -0.3197
  171HFI     H2 2541   0.232   1.907   0.039  0.0581 -0.7194 -1.6813
  172HFI     O1 2542   0.648   3.131   0.341  0.4100 -0.0133 -0.6264
  172HFI     C1 2543   0.537   3.034   0.332 -0.4340  0.7815 -0.7504
  172HFI     C2 2544   0.557   2.920   0.432 -0.0540 -0.5671 -0.0037
  172HFI     F1 2545   0.634   2.823   0.389  0.0587  0.4111 -0.6544
  172HFI     F2 2546   0.434   2.857   0.455  0.3329  0.2664 -0.0642
  172HFI     F3 2547   0.595   2.961   0.553  0.0618  0.0431  0.3190
  172HFI     C3 2548   0.498   2.989   0.188  0.3975 -0.1603  0.1161
  172HFI     F4 2549   0.501   3.086   0.100  0.2784 -0.0132  0.4192
  172HFI     F5 2550   0.374   2.933   0.183  0.0114  0.1017  0.1066
  172HFI     F6 2551   0.587   2.895   0.145 -0.0367  0.0535 -0.5160
  172HFI     H1 2552   0.647   3.195   0.267  1.6469 -2.5026 -2.8632
  172HFI     H2 2553   0.444   3.077   0.372  0.0212  0.6060  0.5317
  173HFI     O1 2554   2.670   0.469   2.710 -0.4009 -0.2160  0.0652
  173HFI     C1 2555   2.757   0.393   2.801  0.7638  0.5383  0.0094
  173HFI     C2 2556   2.791   0.245   2.750  0.1439 -0.4242  0.3676
  173HFI     F1 2557   2.834   0.255   2.622 -0.5025  0.6292 -0.7566
  173HFI     F2 2558   2.692   0.159   2.757  0.2356  0.4680  0.6726
  173HFI     F3 2559   2.895   0.194   2.822  0.5362 -0.5478  0.0216
  173HFI     C3 2560   2.685   0.377   2.936  0.2555 -0.1720 -0.3810
  173HFI     F4 2561   2.689   0.494   3.011 -0.2312  0.0105  0.0758
  173HFI     F5 2562   2.739   0.280   3.012  0.2784 -0.1028  0.2176
  173HFI     F6 2563   2.556   0.345   2.922 -0.2749 -0.0844  0.1194
  173HFI     H1 2564   2.617   0.410   2.655  0.0944  1.2690 -2.0957
  173HFI     H2 2565   2.856   0.439   2.810  1.0853 -0.2939  0.7807
  174HFI     O1 2566   2.882   3.149   2.935 -0.8160  0.2686  0.2594
  174HFI     C1 2567   2.812   3.232   2.842 -0.2676 -0.3488 -0.0816
  174HFI     C2 2568   2.681   3.164   2.805  0.4220  0.3969  0.2813
  174HFI     F1 2569   2.685   3.032   2.775 -0.0160 -0.0784  0.3330
  174HFI     F2 2570   2.621   3.221   2.694 -0.1461 -0.3308 -0.5491
  174HFI     F3 2571   2.590   3.189   2.906  0.0396 -0.5130 -0.2130
  174HFI     C3 2572   2.907   3.265   2.717  0.6933 -0.2284  0.2077
  174HFI     F4 2573   2.848   3.345   2.623  0.0681  0.1783  0.1223
  174HFI     F5 2574   2.944   3.149   2.651 -0.2391  1.0128  0.1016
  174HFI     F6 2575   3.017   3.325   2.752 -0.0994  0.2329  0.3167
  174HFI     H1 2576   2.866   3.181   3.025 -0.3196  1.5210 -0.0862
  174HFI     H2 2577   2.784   3.336   2.867  0.1482 -0.7071  1.9675
  175HFI     O1 2578   0.803   0.634   3.341 -0.3057  0.1060 -0.2668
  175HFI     C1 2579   0.867   0.568   3.453 -0.2432 -0.6255 -0.6045
  175HFI     C2 2580   0.759   0.492   3.519 -0.0717  0.5085  0.0936
  175HFI     F1 2581   0.719   0.382   3.446 -0.4611 -0.0177  0.2371
  175HFI     F2 2582   0.652   0.573   3.536 -0.1296 -0.6324 -0.1407
  175HFI     F3 2583   0.804   0.445   3.639 -0.1549 -0.7288  0.4451
  175HFI     C3 2584   0.936   0.675   3.543  0.4124  0.1703 -0.6504
  175HFI     F4 2585   1.018   0.751   3.468 -0.2090 -0.0654 -0.1789
  175HFI     F5 2586   1.011   0.626   3.645  0.3859  0.6380  0.3388
  175HFI     F6 2587   0.835   0.761   3.594 -0.7251  0.0202  0.2875
  175HFI     H1 2588   0.747   0.709   3.366  0.9146  1.2178 -0.8307
  175HFI     H2 2589   0.947   0.500   3.420 -0.2019 -0.6744 -0.4027
  176HFI     O1 2590   2.974   1.849   2.255 -0.0496  0.0642 -0.0940
  176HFI     C1 2591   2.829   1.840   2.259 -0.2238  0.1091  0.0517
  176HFI     C2 2592   2.758   1.965   2.312  0.0032  1.0098 -0.2176
  176HFI     F1 2593   2.768   2.058   2.211 -0.2665 -0.2978  0.5478
  176HFI     F2 2594   2.823   2.008   2.423 -0.2044 -0.2551  0.0976
  176HFI     F3 2595   2.620   1.961   2.336 -0.5166 -0.3908 -0.0188
  176HFI     C3 2596   2.779   1.715   2.338  0.3724  0.7566  0.5380
  176HFI     F4 2597   2.806   1.721   2.468  0.6045  0.0452 -0.8948
  176HFI     F5 2598   2.841   1.610   2.281  0.0578  0.1463 -0.1566
  176HFI     F6 2599   2.641   1.699   2.321  0.6075 -0.1299 -0.0441
  176HFI     H1 2600   2.997   1.938   2.287 -0.8544  0.6150 -1.0129
  176HFI     H2 2601   2.788   1.815   2.160 -0.7436 -0.5185  0.4134
  177HFI     O1 2602   0.633   0.800   1.092  0.2643 -0.2410  0.2282
  177HFI     C1 2603   0.664   0.693   1.005  0.2660 -0.2942  0.1291
  177HFI     C2 2604   0.612   0.722   0.863 -0.0738  0.4248  0.1861
  177HFI     F1 2605   0.481   0.726   0.856  0.3316  0.1867  0.1914
  177HFI     F2 2606   0.654   0.636   0.778 -0.4549  0.2729 -0.0096
  177HFI     F3 2607   0.659   0.834   0.812  0.2826 -0.2285 -0.1274
  177HFI     C3 2608   0.627   0.558   1.071  0.3828 -1.2336 -0.0728
  177HFI     F4 2609   0.663   0.556   1.197  0.3205  0.0675  0.5394
  177HFI     F5 2610   0.697   0.462   1.010  0.0494 -0.4650 -0.7057
  177HFI     F6 2611   0.495   0.526   1.063  0.9890 -0.3949 -0.0130
  177HFI     H1 2612   0.623   0.885   1.046  0.1195  0.6564  1.8670
  177HFI     H2 2613   0.774   0.690   1.005  0.3393  1.7427 -0.2035
  178HFI     O1 2614   2.964   2.868   2.852  0.1174 -0.2056  0.3109
  178HFI     C1 2615   2.941   2.759   2.949  0.0022 -0.0993  0.0534
  178HFI     C2 2616   2.797   2.724   2.976 -1.0704 -0.1757  0.6094
  178HFI     F1 2617   2.749   2.694   2.853 -0.6016 -0.0920  0.2099
  178HFI     F2 2618   2.722   2.826   3.021  0.0708  0.4139 -0.3023
  178HFI     F3 2619   2.785   2.612   3.055  0.5780  0.2634 -0.7053
  178HFI     C3 2620   3.026   2.780   3.079 -0.3699  0.0075 -0.2621
  178HFI     F4 2621   3.159   2.772   3.045 -0.4356 -0.7333 -0.5802
  178HFI     F5 2622   3.018   2.679   3.173  0.5173 -0.5285 -0.4227
  178HFI     F6 2623   3.009   2.899   3.137  0.1058  0.0607 -0.4102
  178HFI     H1 2624   2.958   2.949   2.906 -1.8375  0.1236 -0.3638
  178HFI     H2 2625   2.976   2.665   2.904 -1.5973 -0.4329 -0.5097
  179HFI     O1 2626   3.069   1.553   2.462 -0.4120 -0.0598 -0.5490
  179HFI     C1 2627   3.130   1.422   2.430 -0.1074 -0.3994  0.4831
  179HFI     C2 2628   3.127   1.381   2.275  0.1278  0.3301 -0.7812
  179HFI     F1 2629   3.009   1.323   2.249  0.3428  0.2380 -0.0341
  179HFI     F2 2630   3.227   1.295   2.245  0.2720 -0.0549 -0.2912
  179HFI     F3 2631   3.133   1.492   2.199  0.3872 -0.8110 -0.4273
  179HFI     C3 2632   3.065   1.312   2.519 -0.7117 -0.6209 -0.5339
  179HFI     F4 2633   2.939   1.290   2.480 -0.3823 -0.3657 -0.0935
  179HFI     F5 2634   3.056   1.342   2.653 -0.0282  0.0362  0.0664
  179HFI     F6 2635   3.143   1.202   2.509  0.3461  0.1013  0.2094
  179HFI     H1 2636   2.998   1.579   2.399  0.1294  0.8748 -0.7867
  179HFI     H2 2637   3.237   1.411   2.449 -0.1788 -0.8723  0.6062
  180HFI     O1 2638   0.243   0.580   2.434 -0.5427 -0.3411 -0.8379
  180HFI     C1 2639   0.304   0.443   2.430  0.0050 -0.1959  0.8950
  180HFI     C2 2640   0.415   0.423   2.543 -0.6457 -0.0834  0.1423
  180HFI     F1 2641   0.365   0.411   2.668  0.3365  0.3005 -0.5396
  180HFI     F2 2642   0.507   0.521   2.544 -0.2890 -0.4737  0.4194
  180HFI     F3 2643   0.481   0.305   2.518 -0.0718  0.6754 -0.1455
  180HFI     C3 2644   0.353   0.414   2.292  0.5677  0.2036  0.7882
  180HFI     F4 2645   0.379   0.284   2.276 -0.1495 -0.0965  0.3408
  180HFI     F5 2646   0.464   0.485   2.276  0.4418  0.1851 -0.0299
  180HFI     F6 2647   0.263   0.453   2.197  0.1950 -0.2667  0.1690
  180HFI     H1 2648   0.311   0.645   2.411 -1.2309  1.0880  1.0565
  180HFI     H2 2649   0.229   0.365   2.442 -0.8140  0.7289  1.9350
  181HFI     O1 2650   2.080   2.734   3.799  0.2747  0.2324 -0.5572
  181HFI     C1 2651   2.203   2.707   3.726  0.3514 -0.2006 -0.0971
  181HFI     C2 2652   2.173   2.649   3.582  0.3144  0.2167 -1.1706
  181HFI     F1 2653   2.126   2.747   3.504 -0.5807 -0.4259 -0.2570
  181HFI     F2 2654   2.079   2.551   3.590  0.6498  0.0958  0.2076
  181HFI     F3 2655   2.272   2.592   3.518 -0.4226  0.1229  0.7169
  181HFI     C3 2656   2.298   2.623   3.812  0.6143 -0.0026 -0.5027
  181HFI     F4 2657   2.319   2.665   3.937 -0.0211  0.6311  0.1338
  181HFI     F5 2658   2.422   2.623   3.759 -0.8359  0.3667  0.5745
  181HFI     F6 2659   2.251   2.496   3.816 -0.0197 -0.4190 -0.6309
  181HFI     H1 2660   2.026   2.653   3.790  1.8463 -0.7914 -0.9331
  181HFI     H2 2661   2.257   2.798   3.697  1.4047 -0.7520  0.1079
  182HFI     O1 2662   1.445   2.189   3.310 -0.0438  0.0260  0.9128
  182HFI     C1 2663   1.478   2.087   3.214 -0.8935  0.2655 -0.1705
  182HFI     C2 2664   1.366   1.998   3.164  0.4431  0.0153  0.4469
  182HFI     F1 2665   1.273   2.064   3.092  0.1130  0.1203 -0.6276
  182HFI     F2 2666   1.305   1.933   3.267 -0.0475  0.0022 -0.3597
  182HFI     F3 2667   1.403   1.902   3.076 -0.2030 -0.0500  0.2650
  182HFI     C3 2668   1.595   1.993   3.279 -0.1788 -0.2302  0.7007
  182HFI     F4 2669   1.643   1.895   3.197  0.1792  0.1050  0.7941
  182HFI     F5 2670   1.546   1.936   3.397  0.0992 -0.4386  0.1488
  182HFI     F6 2671   1.703   2.065   3.323  0.3549 -0.1512 -0.5797
  182HFI     H1 2672   1.521   2.232   3.353  0.4835  0.1840 -0.1575
  182HFI     H2 2673   1.520   2.131   3.123  0.2561  1.3971  0.8978
  183HFI     O1 2674   2.732   3.438   3.738 -0.2949 -0.8538 -0.3722
  183HFI     C1 2675   2.847   3.524   3.772 -0.2913 -0.1352 -0.7624
  183HFI     C2 2676   2.924   3.575   3.650 -0.0479  0.6841 -0.1314
  183HFI     F1 2677   3.019   3.648   3.693 -0.2238 -0.2599  0.2024
  183HFI     F2 2678   2.847   3.642   3.570 -0.1761 -0.2761 -0.4331
  183HFI     F3 2679   2.980   3.474   3.584  0.3083 -0.2997  0.0316
  183HFI     C3 2680   2.933   3.449   3.876 -0.3750 -0.1933  0.0924
  183HFI     F4 2681   2.861   3.391   3.972  0.3979  0.1392 -0.1451
  183HFI     F5 2682   3.026   3.524   3.939 -0.1217 -0.1365 -0.1127
  183HFI     F6 2683   3.003   3.351   3.815  0.3932 -0.1401 -0.2378
  183HFI     H1 2684   2.664   3.501   3.709 -0.1187  0.9850  2.9308
  183HFI     H2 2685   2.816   3.609   3.834  1.9109 -0.4404  0.8328
  184HFI     O1 2686   1.455   0.796   2.303  0.2372 -0.2045  0.0141
  184HFI     C1 2687   1.361   0.876   2.380  0.0597 -0.1817 -0.6484
  184HFI     C2 2688   1.306   0.800   2.502 -0.4846  0.3335  0.0268
  184HFI     F1 2689   1.242   0.686   2.458 -0.4357 -0.3027  0.1191
  184HFI     F2 2690   1.219   0.872   2.574  0.4353 -0.0370 -0.1594
  184HFI     F3 2691   1.405   0.755   2.588  0.1018 -0.1447  0.0675
  184HFI     C3 2692   1.246   0.925   2.291 -0.1627 -0.2849  0.4503
  184HFI     F4 2693   1.158   1.000   2.356 -0.2791  0.4166 -0.1792
  184HFI     F5 2694   1.184   0.828   2.228 -0.1523  0.4475  0.5226
  184HFI     F6 2695   1.300   0.993   2.185  0.0689 -0.3210  0.1509
  184HFI     H1 2696   1.411   0.777   2.219  0.0633 -0.7056  0.2164
  184HFI     H2 2697   1.413   0.964   2.421  1.1048 -1.1291  0.1135
  185HFI     O1 2698   1.884   1.225   2.746 -0.2359 -0.0474  0.2395
  185HFI     C1 2699   1.993   1.125   2.714  0.1202 -0.3593  0.7283
  185HFI     C2 2700   1.956   0.981   2.756  0.0649 -0.0723  0.4705
  185HFI     F1 2701   1.848   0.942   2.680 -0.5351  0.3040 -0.4782
  185HFI     F2 2702   1.912   0.985   2.881 -0.1799 -0.3261  0.0075
  185HFI     F3 2703   2.050   0.884   2.748 -0.1663 -0.0196  0.0343
  185HFI     C3 2704   2.135   1.174   2.769 -0.0285  0.3385 -0.2262
  185HFI     F4 2705   2.141   1.158   2.901  0.4285 -0.6600  0.1652
  185HFI     F5 2706   2.161   1.306   2.741 -0.3815  0.3063 -0.6659
  185HFI     F6 2707   2.235   1.098   2.711  0.4820  0.0820 -0.2881
  185HFI     H1 2708   1.803   1.175   2.765  0.4177 -0.0692  3.2148
  185HFI     H2 2709   2.007   1.124   2.605 -0.2729 -1.4439  0.6827
  186HFI     O1 2710   1.974   1.928   2.245 -0.7440  0.3169 -0.4775
  186HFI     C1 2711   1.892   1.988   2.348 -0.2069 -0.5272 -0.7168
  186HFI     C2 2712   1.865   1.885   2.471  0.2234 -0.0655  0.4594
  186HFI     F1 2713   1.861   1.948   2.587  0.4053 -0.1736 -0.1931
  186HFI     F2 2714   1.962   1.792   2.481 -0.5949 -0.0578 -0.5310
  186HFI     F3 2715   1.750   1.814   2.454 -0.1741  0.8196  0.5702
  186HFI     C3 2716   1.757   2.045   2.299 -0.1270 -0.3314 -0.1848
  186HFI     F4 2717   1.668   1.952   2.260 -0.1513  0.9221  0.4744
  186HFI     F5 2718   1.780   2.136   2.206  0.0194  0.3202 -0.1284
  186HFI     F6 2719   1.704   2.108   2.407 -0.0907 -0.4192  0.3655
  186HFI     H1 2720   2.035   1.981   2.191 -0.8858 -1.2088 -2.1777
  186HFI     H2 2721   1.957   2.063   2.395 -0.5427  0.5157 -1.9003
  187HFI     O1 2722   0.667   2.283   2.964  0.4305 -0.7977 -0.2629
  187HFI     C1 2723   0.784   2.350   2.920  0.2750 -0.2069 -0.9507
  187HFI     C2 2724   0.827   2.467   3.015 -0.5169 -0.0035  0.1049
  187HFI     F1 2725   0.960   2.506   3.003 -0.1533  0.7125  0.3988
  187HFI     F2 2726   0.807   2.431   3.145  0.1399 -0.1671 -0.7837
  187HFI     F3 2727   0.759   2.580   2.992 -0.6966  0.4067 -0.1127
  187HFI     C3 2728   0.766   2.398   2.772  0.4152  0.1562 -0.5501
  187HFI     F4 2729   0.730   2.301   2.682  0.0828 -0.1082 -0.2548
  187HFI     F5 2730   0.879   2.447   2.727  0.2804  0.6465 -0.2954
  187HFI     F6 2731   0.670   2.492   2.757 -0.4235 -0.3420 -0.1562
  187HFI     H1 2732   0.693   2.198   3.003  0.8127 -0.6775 -0.2540
  187HFI     H2 2733   0.868   2.280   2.926  1.5892  1.4617  1.1546
  188HFI     O1 2734   0.555   1.069   0.165  0.2169 -0.0879 -0.2860
  188HFI     C1 2735   0.583   1.151   0.284  0.0625  0.3969 -0.7958
  188HFI     C2 2736   0.457   1.183   0.366  0.1998 -0.2523  0.3376
  188HFI     F1 2737   0.484   1.268   0.465  0.0655  0.3203  0.2605
  188HFI     F2 2738   0.413   1.068   0.410  0.4484  0.1667 -0.8107
  188HFI     F3 2739   0.352   1.237   0.297 -0.7943 -0.3655  0.1819
  188HFI     C3 2740   0.659   1.279   0.243  0.5632 -0.7622 -0.3372
  188HFI     F4 2741   0.574   1.370   0.190 -0.9120  0.1556  0.2111
  188HFI     F5 2742   0.754   1.249   0.152 -0.0084  0.2088  0.1741
  188HFI     F6 2743   0.720   1.332   0.352  0.6470  0.4590  0.2360
  188HFI     H1 2744   0.558   0.972   0.179 -1.5607 -0.1762 -0.3622
  188HFI     H2 2745   0.643   1.094   0.356  2.1184  0.5998 -2.3185
  189HFI     O1 2746   2.456   0.265   0.454  0.0577  0.2984  0.4727
  189HFI     C1 2747   2.461   0.189   0.334 -0.1649  0.2038 -0.5143
  189HFI     C2 2748   2.504   0.035   0.357 -0.0698  0.1702 -0.0558
  189HFI     F1 2749   2.535  -0.033   0.242  0.1084 -0.0305 -0.4405
  189HFI     F2 2750   2.394  -0.029   0.406  0.0076 -0.7408  0.3365
  189HFI     F3 2751   2.610   0.020   0.441  0.6628  0.0322  0.3392
  189HFI     C3 2752   2.546   0.262   0.230  0.0924 -0.0370  0.0038
  189HFI     F4 2753   2.677   0.255   0.259 -0.2424 -0.0429  0.3593
  189HFI     F5 2754   2.510   0.385   0.215  0.3468 -0.4372  0.3621
  189HFI     F6 2755   2.529   0.208   0.108 -0.7585  0.4280 -0.0545
  189HFI     H1 2756   2.499   0.220   0.529  0.2952  1.3695  0.9944
  189HFI     H2 2757   2.360   0.188   0.291 -0.3167 -0.0174 -0.1646
  190HFI     O1 2758   2.594   2.341   3.298 -0.0083 -0.1338 -0.0448
  190HFI     C1 2759   2.706   2.426   3.335  0.4089 -0.2293  0.2327
  190HFI     C2 2760   2.837   2.338   3.335  0.2150 -0.1844  0.0556
  190HFI     F1 2761   2.948   2.416   3.329  0.1612 -0.2981  0.1570
  190HFI     F2 2762   2.849   2.257   3.225 -0.1283 -0.1724  0.4193
  190HFI     F3 2763   2.867   2.271   3.448 -0.1151 -0.2363  0.0658
  190HFI     C3 2764   2.693   2.495   3.478 -0.2782 -0.4539  0.3180
  190HFI     F4 2765   2.793   2.582   3.507 -0.2464 -0.4202 -0.1640
  190HFI     F5 2766   2.686   2.408   3.581 -0.1056 -0.0092  0.1191
  190HFI     F6 2767   2.580   2.569   3.487 -0.2250 -0.1910 -0.1122
  190HFI     H1 2768   2.574   2.275   3.366 -0.2243  0.4720  0.4861
  190HFI     H2 2769   2.716   2.500   3.255 -1.1713  1.1979  1.3104
  191HFI     O1 2770   2.436   1.855   3.475 -0.2940 -0.2694 -0.1039
  191HFI     C1 2771   2.527   1.821   3.372 -0.6789  0.1139 -0.0239
  191HFI     C2 2772   2.596   1.679   3.385 -0.3803 -0.0857  0.6789
  191HFI     F1 2773   2.627   1.630   3.262  0.7034 -0.6274 -0.7149
  191HFI     F2 2774   2.523   1.588   3.440  0.0762  0.0382  0.0615
  191HFI     F3 2775   2.710   1.683   3.459  0.3492  0.3540 -0.1984
  191HFI     C3 2776   2.627   1.927   3.332  0.7224 -0.2264 -0.2621
  191HFI     F4 2777   2.570   2.035   3.271 -0.1618 -0.2503  0.5811
  191HFI     F5 2778   2.729   1.888   3.253 -0.4181  0.1323  0.7437
  191HFI     F6 2779   2.690   1.977   3.452 -0.1775  0.6370 -0.0314
  191HFI     H1 2780   2.488   1.878   3.554 -0.8259 -1.1489  0.5202
  191HFI     H2 2781   2.468   1.814   3.280  2.0275 -2.2230 -1.6542
  192HFI     O1 2782   0.854   3.165   0.639  0.0555  0.1806 -0.5678
  192HFI     C1 2783   0.929   3.132   0.519 -0.5089 -0.6344  0.5872
  192HFI     C2 2784   1.036   3.028   0.545 -0.6473  0.3383 -0.1949
  192HFI     F1 2785   0.977   2.910   0.583  0.1624  0.3955  0.4097
  192HFI     F2 2786   1.119   3.063   0.641  0.1371  0.3174  0.3505
  192HFI     F3 2787   1.113   3.005   0.432  0.0479 -0.2786  0.5723
  192HFI     C3 2788   0.981   3.263   0.447  1.1212  0.1271 -0.2817
  192HFI     F4 2789   0.902   3.367   0.483  0.2570 -0.1409  0.0787
  192HFI     F5 2790   0.969   3.239   0.313 -0.6336 -0.1675  0.0477
  192HFI     F6 2791   1.108   3.293   0.477 -0.1323  0.2236  0.6796
  192HFI     H1 2792   0.908   3.135   0.714 -1.0411 -0.5159 -0.0448
  192HFI     H2 2793   0.880   3.066   0.447 -0.4179  0.3365 -0.3839
  193HFI     O1 2794   2.152   0.905   2.469  0.1931  0.6269 -0.3876
  193HFI     C1 2795   2.280   0.842   2.428 -0.4858 -0.8365 -0.2750
  193HFI     C2 2796   2.279   0.797   2.287 -0.2470 -0.1831 -0.5627
  193HFI     F1 2797   2.201   0.687   2.279  0.0189 -0.6656 -0.2833
  193HFI     F2 2798   2.399   0.756   2.241 -0.1688  0.0911 -0.1166
  193HFI     F3 2799   2.228   0.885   2.208 -0.1389 -0.1392  0.5285
  193HFI     C3 2800   2.317   0.730   2.534  0.1197 -0.2510 -0.1076
  193HFI     F4 2801   2.368   0.786   2.647  0.0974 -0.0277  0.5474
  193HFI     F5 2802   2.408   0.636   2.491  0.0759 -0.1064  0.4894
  193HFI     F6 2803   2.210   0.662   2.571 -0.4451 -0.4035  0.0290
  193HFI     H1 2804   2.089   0.833   2.484 -2.7896  3.0414 -0.7384
  193HFI     H2 2805   2.357   0.920   2.431 -0.2386 -1.1185  0.9515
  194HFI     O1 2806   3.225   2.137   2.261 -0.1988  0.0410 -0.1771
  194HFI     C1 2807   3.158   2.243   2.336 -0.3870 -0.0345  0.1399
  194HFI     C2 2808   3.235   2.373   2.315  0.5654 -0.4343 -0.4947
  194HFI     F1 2809   3.348   2.384   2.382  0.5329 -0.2885  0.0309
  194HFI     F2 2810   3.157   2.484   2.334 -0.9694  0.0409 -0.1866
  194HFI     F3 2811   3.267   2.372   2.184  0.1416 -0.3273 -0.1864
  194HFI     C3 2812   3.153   2.199   2.483 -0.0368  0.1987 -1.0094
  194HFI     F4 2813   3.085   2.082   2.487  0.2953  0.9553  0.2110
  194HFI     F5 2814   3.079   2.288   2.557 -0.5455  0.3262  0.2280
  194HFI     F6 2815   3.269   2.184   2.545 -0.4387  0.3888  0.4605
  194HFI     H1 2816   3.316   2.136   2.296  0.1280  1.9490 -0.8754
  194HFI     H2 2817   3.058   2.249   2.291  0.2977 -0.1101 -1.4357
  195HFI     O1 2818   0.555   1.303   3.056  0.4631  0.2184 -0.0048
  195HFI     C1 2819   0.587   1.218   2.944  0.2057  0.0453  0.1105
  195HFI     C2 2820   0.673   1.291   2.839  0.0394 -0.7526 -0.3332
  195HFI     F1 2821   0.591   1.383   2.785  0.0687 -0.0180  0.4478
  195HFI     F2 2822   0.717   1.213   2.742 -0.5044 -0.2111 -0.8152
  195HFI     F3 2823   0.779   1.354   2.896 -0.1081 -0.2083 -0.2961
  195HFI     C3 2824   0.465   1.138   2.891 -0.2638  0.8144  0.2764
  195HFI     F4 2825   0.396   1.085   3.000  0.3247 -0.1618  0.0647
  195HFI     F5 2826   0.507   1.033   2.814  0.5705  0.2986 -0.1385
  195HFI     F6 2827   0.385   1.220   2.820  0.1858 -0.2026  0.1290
  195HFI     H1 2828   0.492   1.374   3.036  0.7539  1.0221  1.7665
  195HFI     H2 2829   0.651   1.134   2.972 -1.3049 -0.5257  1.9320
  196HFI     O1 2830   2.774   1.279   0.040  0.0774  0.1128 -0.0306
  196HFI     C1 2831   2.886   1.316  -0.045  0.1267 -0.0724 -0.0603
  196HFI     C2 2832   2.850   1.454  -0.128  0.2054  0.3712 -0.1615
  196HFI     F1 2833   2.935   1.475  -0.232 -0.5586 -0.1105 -0.3826
  196HFI     F2 2834   2.860   1.567  -0.048 -0.1406 -0.0739  0.3677
  196HFI     F3 2835   2.725   1.449  -0.175 -0.6248  0.3509 -0.9260
  196HFI     C3 2836   2.918   1.197  -0.140  0.2199  0.1481  0.3470
  196HFI     F4 2837   3.043   1.202  -0.184  0.0897 -0.2196  0.6662
  196HFI     F5 2838   2.828   1.187  -0.245  0.0853 -0.2140 -0.6591
  196HFI     F6 2839   2.906   1.087  -0.062 -0.1864  0.1666 -0.3876
  196HFI     H1 2840   2.799   1.287   0.134 -1.0896  0.6638  0.2429
  196HFI     H2 2841   2.975   1.324   0.019  0.8014  0.1839 -1.0182
  197HFI     O1 2842   2.411   1.311   3.760  0.2862  0.3346  0.0261
  197HFI     C1 2843   2.390   1.454   3.727 -0.4813  0.7969 -0.0064
  197HFI     C2 2844   2.430   1.550   3.845 -0.0491 -0.0760  0.3866
  197HFI     F1 2845   2.349   1.537   3.951 -0.7243 -0.2371 -0.1545
  197HFI     F2 2846   2.422   1.678   3.805 -0.2361 -0.0190  0.4238
  197HFI     F3 2847   2.554   1.519   3.880 -0.0930 -0.6330  0.1127
  197HFI     C3 2848   2.253   1.480   3.656 -0.6929 -0.2731  0.3082
  197HFI     F4 2849   2.238   1.604   3.609  0.6445  0.3340  0.1774
  197HFI     F5 2850   2.151   1.462   3.742  0.0344 -0.3899 -0.5169
  197HFI     F6 2851   2.230   1.401   3.551 -0.3094  0.1793  0.4326
  197HFI     H1 2852   2.484   1.309   3.824 -0.3549 -2.5683  0.7513
  197HFI     H2 2853   2.461   1.469   3.645 -0.1138 -1.2445 -0.1011
  198HFI     O1 2854   1.036   3.302   0.990  0.2191 -0.2384  0.0317
  198HFI     C1 2855   1.112   3.427   0.977 -0.7101 -0.2249  0.2755
  198HFI     C2 2856   1.038   3.536   1.056  0.4722 -0.0303  0.0312
  198HFI     F1 2857   0.922   3.564   0.993 -0.1673 -0.7189  0.6153
  198HFI     F2 2858   1.120   3.646   1.058  0.1771 -0.0382  0.0083
  198HFI     F3 2859   1.017   3.504   1.189 -0.1879 -0.0028  0.1020
  198HFI     C3 2860   1.133   3.470   0.829 -0.3914  0.1435 -0.3468
  198HFI     F4 2861   1.024   3.493   0.752 -0.7500 -0.1828 -0.0716
  198HFI     F5 2862   1.206   3.374   0.768 -0.1294  0.1384  0.2700
  198HFI     F6 2863   1.210   3.583   0.812  0.7000  0.5162  0.1940
  198HFI     H1 2864   0.944   3.316   0.961  0.6953  1.5839 -0.6529
  198HFI     H2 2865   1.210   3.415   1.024 -0.6137 -1.2365 -0.1659
  199HFI     O1 2866   0.701   3.353   0.177 -0.5242 -0.4341  0.2095
  199HFI     C1 2867   0.610   3.426   0.086  0.2565 -0.0793 -0.3682
  199HFI     C2 2868   0.649   3.419  -0.061  0.5568 -0.6265 -0.5881
  199HFI     F1 2869   0.550   3.482  -0.139  0.7635  0.2989 -0.4000
  199HFI     F2 2870   0.654   3.290  -0.101  0.7187 -0.2150  0.5274
  199HFI     F3 2871   0.766   3.489  -0.083 -0.1966 -0.0386 -0.0557
  199HFI     C3 2872   0.587   3.577   0.134  0.3752 -0.0574  0.6517
  199HFI     F4 2873   0.544   3.570   0.260  0.0087  0.8899  0.1559
  199HFI     F5 2874   0.494   3.635   0.065  0.3561  0.3193  0.2886
  199HFI     F6 2875   0.703   3.653   0.135 -0.2650  0.5007  0.0346
  199HFI     H1 2876   0.765   3.412   0.219 -0.6909 -0.3652  0.3663
  199HFI     H2 2877   0.513   3.376   0.088  0.3121 -0.2355 -1.2314
  200HFI     O1 2878   0.343   1.471   3.005 -0.1440  1.0275  0.6663
  200HFI     C1 2879   0.223   1.417   3.059 -0.0860  0.0389  0.1565
  200HFI     C2 2880   0.098   1.446   2.976 -0.3458  0.0249 -1.0824
  200HFI     F1 2881   0.008   1.347   2.996  0.4273  0.0838 -0.8688
  200HFI     F2 2882   0.133   1.437   2.842  0.0002 -0.1665 -0.3041
  200HFI     F3 2883   0.043   1.567   2.998 -0.0670 -0.0076 -0.5706
  200HFI     C3 2884   0.217   1.436   3.212 -0.0451 -0.6344 -0.1595
  200HFI     F4 2885   0.218   1.574   3.241  0.0533  0.2339 -0.2817
  200HFI     F5 2886   0.327   1.375   3.276  0.2446 -0.2113  0.0319
  200HFI     F6 2887   0.100   1.381   3.259  0.3417  0.2922 -0.0357
  200HFI     H1 2888   0.324   1.562   2.977  2.3204  0.5895 -2.8111
  200HFI     H2 2889   0.236   1.309   3.050 -0.5299 -0.0493  0.5314
  201HFI     O1 2890   0.548   0.128   2.933  0.2423  0.4917  0.4924
  201HFI     C1 2891   0.479  -0.000   2.905 -0.5320  0.2839  0.1723
  201HFI     C2 2892   0.429  -0.017   2.749 -0.6015  0.4306 -0.2138
  201HFI     F1 2893   0.517   0.024   2.659 -0.4231 -0.2860 -0.4085
  201HFI     F2 2894   0.323   0.058   2.718 -0.1591  0.4554 -0.2495
  201HFI     F3 2895   0.394  -0.153   2.717 -0.5720  0.1097 -0.3232
  201HFI     C3 2896   0.357  -0.022   3.003  0.4912  0.0588  0.5816
  201HFI     F4 2897   0.395  -0.004   3.131  0.2078 -0.1897 -0.2590
  201HFI     F5 2898   0.288  -0.141   2.984 -0.1580  0.1133 -0.4236
  201HFI     F6 2899   0.261   0.073   2.987  0.0350  0.3138  0.3133
  201HFI     H1 2900   0.501   0.166   3.008  0.3747 -1.6596  1.7007
  201HFI     H2 2901   0.550  -0.083   2.920 -1.8523 -0.7199  0.9494
  202HFI     O1 2902   0.834   0.052   2.595 -0.5199  0.4976  0.0784
  202HFI     C1 2903   0.871   0.020   2.733 -0.5348 -0.3444  0.5926
  202HFI     C2 2904   0.992   0.099   2.777  0.5966  0.2100  0.3993
  202HFI     F1 2905   0.961   0.231   2.773 -0.0426  0.2967  0.0667
  202HFI     F2 2906   1.088   0.084   2.694 -0.3814  0.0201  0.3890
  202HFI     F3 2907   1.023   0.072   2.899  0.1316  0.3854 -0.0245
  202HFI     C3 2908   0.890  -0.130   2.760 -0.0588 -0.0527 -0.2834
  202HFI     F4 2909   0.769  -0.194   2.759  0.3615  0.1270 -0.1701
  202HFI     F5 2910   0.943  -0.156   2.881  0.0265 -0.2445  0.1026
  202HFI     F6 2911   0.972  -0.190   2.668  0.3869  0.0389 -0.4406
  202HFI     H1 2912   0.870   0.141   2.577 -0.2262  0.7855  2.0232
  202HFI     H2 2913   0.798   0.061   2.804  0.4115 -1.3281  2.1564
  203HFI     O1 2914   1.696   1.155   2.984 -0.3974  0.7689 -0.4950
  203HFI     C1 2915   1.566   1.097   2.988 -0.3464 -0.1938  0.0592
  203HFI     C2 2916   1.523   1.033   3.124  0.2595 -0.3677  0.1515
  203HFI     F1 2917   1.400   0.984   3.116 -0.0894  0.2746 -0.1227
  203HFI     F2 2918   1.529   1.129   3.229 -0.3228 -0.5497 -0.4024
  203HFI     F3 2919   1.610   0.936   3.154 -0.2322  0.3375  0.3674
  203HFI     C3 2920   1.555   1.001   2.863 -0.3397  0.4378  0.0849
  203HFI     F4 2921   1.435   0.956   2.861 -0.3250  0.0408 -0.4358
  203HFI     F5 2922   1.635   0.891   2.878 -0.5513 -0.1208 -0.2660
  203HFI     F6 2923   1.588   1.054   2.743  0.2704 -0.8614  0.1275
  203HFI     H1 2924   1.740   1.147   3.070 -0.0211 -1.6619 -0.8796
  203HFI     H2 2925   1.494   1.179   2.975 -0.7428 -0.3324  1.2947
  204HFI     O1 2926   3.380   0.088   0.021  0.1535 -0.3999 -0.2454
  204HFI     C1 2927   3.517   0.103   0.076  0.1860 -0.0248  0.7733
  204HFI     C2 2928   3.552  -0.032   0.142  0.1051  0.1278 -0.5790
  204HFI     F1 2929   3.544  -0.133   0.055 -0.2338  0.3358  0.3308
  204HFI     F2 2930   3.465  -0.058   0.241 -0.5782 -0.5391  0.3857
  204HFI     F3 2931   3.676  -0.031   0.186 -0.1178  0.2106  0.2918
  204HFI     C3 2932   3.526   0.231   0.165 -0.2315 -0.2875  0.1681
  204HFI     F4 2933   3.650   0.251   0.214 -0.0549 -0.1503 -0.1599
  204HFI     F5 2934   3.439   0.225   0.271  0.1236 -0.2182  0.1718
  204HFI     F6 2935   3.496   0.349   0.096 -0.1411  0.5472  0.1957
  204HFI     H1 2936   3.313   0.061   0.087  0.6141 -1.7264 -0.3131
  204HFI     H2 2937   3.588   0.118  -0.006 -1.1148 -0.4710 -0.4418
  205HFI     O1 2938   1.258   2.640   3.041 -0.1410 -0.4274  0.2065
  205HFI     C1 2939   1.297   2.649   3.180  0.6462 -0.1100  0.4649
  205HFI     C2 2940   1.331   2.506   3.236 -0.6107  0.0315 -0.3522
  205HFI     F1 2941   1.456   2.470   3.199  0.0710 -0.2069 -0.3277
  205HFI     F2 2942   1.246   2.414   3.184  0.5932  0.2341 -0.9964
  205HFI     F3 2943   1.328   2.500   3.377 -0.1797 -0.0753  0.2032
  205HFI     C3 2944   1.193   2.718   3.270 -0.4940  0.5687 -0.8526
  205HFI     F4 2945   1.080   2.641   3.307 -0.0283  0.0221  0.5031
  205HFI     F5 2946   1.145   2.822   3.200  0.2256 -0.0331  0.1654
  205HFI     F6 2947   1.250   2.770   3.379  0.1076 -0.0483 -0.2349
  205HFI     H1 2948   1.226   2.554   3.008  0.0852  0.3183 -2.0638
  205HFI     H2 2949   1.384   2.713   3.199 -0.0092  1.1031 -0.5491
  206HFI     O1 2950   3.248   3.197   0.162  0.2801 -0.4343 -0.2983
  206HFI     C1 2951   3.240   3.153   0.303 -0.5015 -0.2636  1.0509
  206HFI     C2 2952   3.244   2.995   0.318 -0.1198  0.0340 -0.6860
  206HFI     F1 2953   3.120   2.932   0.302  0.5834 -0.2807  0.1362
  206HFI     F2 2954   3.296   2.970   0.445  0.3710  0.0178  0.0147
  206HFI     F3 2955   3.331   2.947   0.222 -0.5457 -0.0651 -0.3127
  206HFI     C3 2956   3.131   3.230   0.376  0.2816 -0.2925 -0.6878
  206HFI     F4 2957   3.010   3.201   0.323  0.4117 -0.2253 -0.3620
  206HFI     F5 2958   3.146   3.364   0.370 -0.4314  0.1107 -0.3582
  206HFI     F6 2959   3.125   3.196   0.502  0.0100 -0.6956 -0.4948
  206HFI     H1 2960   3.227   3.129   0.096 -0.3553 -0.2993 -0.2472
  206HFI     H2 2961   3.340   3.176   0.343 -1.0309  0.2426  2.1167
  207HFI     O1 2962   1.899   2.162   3.496  0.4765  0.0629  0.5024
  207HFI     C1 2963   1.926   2.300   3.458 -0.0028  0.8230 -0.0790
  207HFI     C2 2964   1.810   2.389   3.506  0.7796 -0.5053 -0.1684
  207HFI     F1 2965   1.804   2.391   3.644  0.1715 -0.8049  0.0736
  207HFI     F2 2966   1.686   2.353   3.460 -0.1288  0.3182 -0.3119
  207HFI     F3 2967   1.831   2.516   3.466  0.0091  0.2218 -0.1277
  207HFI     C3 2968   1.961   2.315   3.307  0.1082  0.8084  0.0774
  207HFI     F4 2969   1.849   2.334   3.230  0.0873  0.0217 -0.1326
  207HFI     F5 2970   2.027   2.206   3.261  0.0847 -0.5202  0.1974
  207HFI     F6 2971   2.042   2.419   3.292  0.5868 -0.1751 -0.1380
  207HFI     H1 2972   1.818   2.133   3.451  1.5146 -2.1824 -0.0072
  207HFI     H2 2973   2.011   2.334   3.518 -0.8243 -0.7857  2.0662
  208HFI     O1 2974   1.183   0.221   2.425 -0.2982  0.6640 -0.1024
  208HFI     C1 2975   1.278   0.327   2.430 -0.6356  0.3340  0.2739
  208HFI     C2 2976   1.348   0.354   2.302 -0.4618  0.1638 -0.4397
  208HFI     F1 2977   1.459   0.279   2.285  0.2141 -0.8352 -0.0242
  208HFI     F2 2978   1.377   0.487   2.294  0.6663 -0.1372 -0.0805
  208HFI     F3 2979   1.270   0.325   2.196 -0.2889 -0.3247 -0.3505
  208HFI     C3 2980   1.363   0.320   2.555 -0.0702 -0.2275  0.9730
  208HFI     F4 2981   1.472   0.402   2.543 -0.0345  0.0972  0.0995
  208HFI     F5 2982   1.418   0.192   2.575  0.0683 -0.4678 -0.0336
  208HFI     F6 2983   1.295   0.345   2.669  0.1044 -0.1809  0.4391
  208HFI     H1 2984   1.240   0.143   2.413  0.9591  1.4843  0.4948
  208HFI     H2 2985   1.221   0.421   2.441 -2.2299 -0.3946 -1.3454
  209HFI     O1 2986   0.007   0.773   2.542 -0.4410 -0.1959 -0.5093
  209HFI     C1 2987  -0.105   0.770   2.456 -0.0126  0.3389  0.2687
  209HFI     C2 2988  -0.167   0.626   2.442  0.9161 -0.1704  0.0387
  209HFI     F1 2989  -0.237   0.597   2.552 -0.3501  0.4197  0.4934
  209HFI     F2 2990  -0.073   0.533   2.416 -0.0942  0.0785 -0.1882
  209HFI     F3 2991  -0.245   0.619   2.337  0.6659 -0.1063 -0.3744
  209HFI     C3 2992  -0.084   0.841   2.316 -0.4609  0.6128 -0.8606
  209HFI     F4 2993   0.020   0.787   2.242 -0.5924 -0.6552  0.1524
  209HFI     F5 2994  -0.055   0.967   2.342  0.2883 -0.1165 -0.4522
  209HFI     F6 2995  -0.193   0.850   2.242  0.3958 -0.3459  0.4017
  209HFI     H1 2996   0.080   0.722   2.502 -1.1322  2.0454 -4.8915
  209HFI     H2 2997  -0.186   0.834   2.492 -1.8261 -1.1335 -1.0143
  210HFI     O1 2998   3.147   0.105   2.484 -0.3149 -0.4515  0.7071
  210HFI     C1 2999   3.044   0.114   2.385  0.3924  0.1236 -0.3574
  210HFI     C2 3000   3.035  -0.004   2.290 -0.5633 -0.3010 -0.1595
  210HFI     F1 3001   3.056  -0.122   2.354  0.4696  0.3693 -0.2888
  210HFI     F2 3002   3.132  -0.003   2.199  0.1585  0.8499  0.0295
  210HFI     F3 3003   2.913  -0.024   2.239  0.1922 -0.4499  0.0197
  210HFI     C3 3004   3.052   0.252   2.309  0.3479 -0.6108 -0.2794
  210HFI     F4 3005   3.045   0.355   2.400  0.0773 -0.3880 -0.0694
  210HFI     F5 3006   2.951   0.265   2.221  0.2017  0.2894 -0.1455
  210HFI     F6 3007   3.170   0.262   2.244  0.6610  0.4676  0.0226
  210HFI     H1 3008   3.213   0.050   2.438 -0.9454  0.2425 -1.0546
  210HFI     H2 3009   2.942   0.116   2.426 -0.6697  1.2937 -2.9541
  211HFI     O1 3010   2.888   0.641   2.206 -0.2412 -0.2547 -0.2599
  211HFI     C1 3011   2.792   0.723   2.288 -0.0933  0.2959 -0.4601
  211HFI     C2 3012   2.856   0.861   2.323  0.0204 -0.4222 -0.0725
  211HFI     F1 3013   2.979   0.840   2.384  0.0443 -0.7161  0.0351
  211HFI     F2 3014   2.772   0.935   2.405 -0.2288  0.3279  0.4420
  211HFI     F3 3015   2.873   0.928   2.206  0.1895 -0.0901  0.0578
  211HFI     C3 3016   2.770   0.653   2.420  0.5172  0.4279  0.3817
  211HFI     F4 3017   2.887   0.626   2.478  0.0193  0.2855 -0.1596
  211HFI     F5 3018   2.718   0.530   2.390  0.0477 -0.0312 -0.2673
  211HFI     F6 3019   2.685   0.716   2.504 -0.0014 -0.2128 -0.0182
  211HFI     H1 3020   2.968   0.613   2.253 -0.1976 -1.8935 -1.2821
  211HFI     H2 3021   2.694   0.736   2.239  0.5390  0.8925 -1.5850
  212HFI     O1 3022   2.008   2.656   2.216  0.2791 -0.0706 -0.0284
  212HFI     C1 3023   2.066   2.735   2.331  0.0488  0.0617  0.2923
  212HFI     C2 3024   1.993   2.875   2.328  0.6663  0.4908 -0.1615
  212HFI     F1 3025   1.859   2.849   2.330 -0.0658 -0.3173  0.4962
  212HFI     F2 3026   2.019   2.943   2.214  0.1187 -0.6678 -0.2134
  212HFI     F3 3027   2.035   2.944   2.428  0.4000 -0.3131  0.5644
  212HFI     C3 3028   2.219   2.751   2.316  0.2416 -0.0608 -0.2426
  212HFI     F4 3029   2.276   2.635   2.286  0.3233 -0.1684 -0.0985
  212HFI     F5 3030   2.276   2.798   2.433 -0.6197  0.0225  0.1834
  212HFI     F6 3031   2.260   2.835   2.226 -0.2748  0.3660  0.2203
  212HFI     H1 3032   1.924   2.690   2.182  0.9171  0.8242 -0.7475
  212HFI     H2 3033   2.042   2.705   2.434 -1.6292  0.6832  0.0854
  213HFI     O1 3034   2.138   2.195   0.808  0.9239  0.4830  0.2943
  213HFI     C1 3035   2.008   2.148   0.858 -0.2587 -0.4199 -0.3903
  213HFI     C2 3036   1.896   2.153   0.747 -0.3055  0.1644  0.0810
  213HFI     F1 3037   1.887   2.279   0.692 -0.2956  0.1403  0.1128
  213HFI     F2 3038   1.773   2.125   0.804 -0.6198  0.4807  0.3429
  213HFI     F3 3039   1.923   2.063   0.651 -0.1253 -0.0907  0.4652
  213HFI     C3 3040   1.976   2.221   0.997 -0.0911  0.1591 -0.0240
  213HFI     F4 3041   1.932   2.353   0.973  0.2316  0.3908  0.3904
  213HFI     F5 3042   2.085   2.228   1.076  0.2205 -0.5551 -0.2515
  213HFI     F6 3043   1.880   2.145   1.061  0.1328 -0.6780  0.8914
  213HFI     H1 3044   2.152   2.280   0.853 -0.8886  1.1682 -0.3966
  213HFI     H2 3045   2.026   2.044   0.885  0.0218 -0.3678 -0.3732
  214HFI     O1 3046   2.794   1.518   1.168 -0.4819 -0.5620  0.4359
  214HFI     C1 3047   2.866   1.615   1.084  0.5551 -0.4820  0.1891
  214HFI     C2 3048   2.763   1.717   1.030 -0.3474  0.1973  0.2414
  214HFI     F1 3049   2.665   1.660   0.964 -0.2307  0.0991 -0.7777
  214HFI     F2 3050   2.823   1.811   0.949 -0.3162 -0.1519  0.2361
  214HFI     F3 3051   2.706   1.780   1.135  0.2692 -0.1707 -0.7914
  214HFI     C3 3052   2.954   1.550   0.966  0.3907  0.2676 -0.5138
  214HFI     F4 3053   3.032   1.644   0.902 -0.0396  0.9381  0.6424
  214HFI     F5 3054   2.886   1.481   0.871 -1.0969  0.0267 -0.3606
  214HFI     F6 3055   3.035   1.458   1.020 -0.0767 -0.3426  0.0029
  214HFI     H1 3056   2.741   1.474   1.100 -1.2010  0.5109  0.2929
  214HFI     H2 3057   2.945   1.668   1.137 -1.6935 -0.0133  3.2359
  215HFI     O1 3058   1.778   0.077   0.069 -0.1146 -0.1910  0.1713
  215HFI     C1 3059   1.902   0.154   0.103  0.0372 -0.7271  0.1672
  215HFI     C2 3060   1.943   0.268  -0.002  0.2065  0.4296  0.4915
  215HFI     F1 3061   1.839   0.359  -0.006  0.1638  0.6962 -0.2684
  215HFI     F2 3062   1.950   0.221  -0.131 -0.6219  0.2923  0.1440
  215HFI     F3 3063   2.055   0.336   0.026  0.0398  0.1608  0.4560
  215HFI     C3 3064   2.018   0.068   0.156 -1.0379 -0.1668 -0.1590
  215HFI     F4 3065   1.976   0.012   0.273  0.2148  0.2069 -0.3251
  215HFI     F5 3066   2.131   0.143   0.184 -0.4809 -0.2246  0.0570
  215HFI     F6 3067   2.056  -0.032   0.080  0.2900 -0.8667  0.2465
  215HFI     H1 3068   1.713   0.140   0.032  0.7489  0.7666  0.2418
  215HFI     H2 3069   1.870   0.223   0.181  1.1813 -0.1842  0.1697
  216HFI     O1 3070   1.434   1.652   3.343  0.0633  0.1591 -0.3027
  216HFI     C1 3071   1.337   1.550   3.294 -0.2781  0.4761 -0.6447
  216HFI     C2 3072   1.217   1.542   3.389 -0.4372  0.8913  0.3720
  216HFI     F1 3073   1.173   1.670   3.401 -0.3941 -0.1801 -0.0387
  216HFI     F2 3074   1.246   1.502   3.515 -0.0630  0.2235 -0.3092
  216HFI     F3 3075   1.120   1.464   3.336  0.1899  0.1555  0.2719
  216HFI     C3 3076   1.399   1.411   3.275  0.5067  0.1826  0.2055
  216HFI     F4 3077   1.501   1.419   3.189  0.3102 -0.2546 -0.5857
  216HFI     F5 3078   1.314   1.312   3.241  0.4051 -0.3211 -0.4038
  216HFI     F6 3079   1.457   1.383   3.394 -0.1597  0.0711  0.7439
  216HFI     H1 3080   1.478   1.627   3.426  0.3461  2.4569  0.2731
  216HFI     H2 3081   1.293   1.582   3.199  3.2408  1.3986 -2.0340
  217HFI     O1 3082   0.294   1.176   2.201  0.8500 -0.5787 -0.2406
  217HFI     C1 3083   0.224   1.227   2.319 -0.4807 -0.1205  0.1499
  217HFI     C2 3084   0.185   1.373   2.314  0.7028 -0.3025  0.0181
  217HFI     F1 3085   0.288   1.448   2.290 -0.0039  0.2401 -0.0210
  217HFI     F2 3086   0.124   1.411   2.430 -0.2126 -0.0918  0.3922
  217HFI     F3 3087   0.097   1.401   2.217  0.5326  0.1913  0.3907
  217HFI     C3 3088   0.291   1.180   2.445 -0.2572  0.6566 -0.0664
  217HFI     F4 3089   0.218   1.202   2.553 -0.0084 -0.3861 -0.0526
  217HFI     F5 3090   0.406   1.240   2.477  0.5406  0.0488  0.1291
  217HFI     F6 3091   0.315   1.047   2.434  0.3029 -0.7778  0.4757
  217HFI     H1 3092   0.360   1.245   2.184 -0.1992  0.7287  0.8100
  217HFI     H2 3093   0.124   1.183   2.315 -0.5013 -0.0765  0.1893
  218HFI     O1 3094   1.620   0.946   0.347 -0.2131  0.1927 -0.3023
  218HFI     C1 3095   1.666   0.949   0.484 -0.2541  0.5830 -0.0846
  218HFI     C2 3096   1.749   0.815   0.529 -0.4738  0.2654  0.8066
  218HFI     F1 3097   1.789   0.815   0.655 -0.0652  0.3755  0.1965
  218HFI     F2 3098   1.864   0.806   0.456 -0.3179  0.2603  0.3131
  218HFI     F3 3099   1.678   0.704   0.497  0.2508  0.5930 -0.0076
  218HFI     C3 3100   1.551   0.978   0.576 -0.1733  0.7345 -0.1390
  218HFI     F4 3101   1.587   1.025   0.703  0.2050  0.1009  0.4805
  218HFI     F5 3102   1.476   0.869   0.595  0.1357  0.1047 -0.1375
  218HFI     F6 3103   1.479   1.082   0.523  0.1505 -0.0494  0.5035
  218HFI     H1 3104   1.589   0.858   0.320 -0.2036 -0.0123  0.3445
  218HFI     H2 3105   1.724   1.039   0.509  0.5349  0.7388 -2.3379
  219HFI     O1 3106   1.719   0.186   0.742  0.8092 -0.0961  0.4104
  219HFI     C1 3107   1.691   0.184   0.602  0.7042  0.7353 -0.2898
  219HFI     C2 3108   1.782   0.293   0.527  0.7119 -0.3399 -0.0454
  219HFI     F1 3109   1.772   0.281   0.391 -0.0081  0.0220  0.4811
  219HFI     F2 3110   1.914   0.277   0.552 -0.3801  0.4166 -0.0643
  219HFI     F3 3111   1.751   0.419   0.547 -0.4198  0.2232  0.0914
  219HFI     C3 3112   1.542   0.207   0.571 -0.0514 -0.7098  0.4161
  219HFI     F4 3113   1.524   0.197   0.431  0.0246  0.4276 -0.2068
  219HFI     F5 3114   1.504   0.325   0.613  0.3123  0.6894  0.7406
  219HFI     F6 3115   1.456   0.122   0.621 -0.3932  0.1942 -0.1580
  219HFI     H1 3116   1.677   0.254   0.796  1.8334  0.3080  0.7078
  219HFI     H2 3117   1.725   0.085   0.569 -0.8655 -0.0348  0.3465
  220HFI     O1 3118   1.936   0.736   2.462 -0.0626  0.6105 -0.5327
  220HFI     C1 3119   1.813   0.733   2.381 -0.4117  0.5312 -0.1728
  220HFI     C2 3120   1.789   0.607   2.297  0.0334  0.0098 -0.0286
  220HFI     F1 3121   1.884   0.592   2.196 -0.3257  0.2527 -0.3143
  220HFI     F2 3122   1.665   0.596   2.240 -0.3161 -0.1431 -0.1325
  220HFI     F3 3123   1.798   0.493   2.373 -0.0949  0.2843 -0.0151
  220HFI     C3 3124   1.793   0.865   2.293  0.4747  0.4114  0.5684
  220HFI     F4 3125   1.907   0.897   2.224  0.4843 -0.1329 -0.3508
  220HFI     F5 3126   1.768   0.965   2.379  0.3866  0.1843 -0.1195
  220HFI     F6 3127   1.697   0.859   2.202  0.3991 -0.2785  0.5762
  220HFI     H1 3128   1.973   0.647   2.467  1.4506  1.2808  0.5641
  220HFI     H2 3129   1.732   0.726   2.455  0.9617 -2.2046  1.1436
  221HFI     O1 3130   0.428   1.620   0.656  0.2836 -0.5031  0.5813
  221HFI     C1 3131   0.535   1.677   0.574  0.2763  0.4094 -0.7145
  221HFI     C2 3132   0.594   1.808   0.626  0.1580  0.1607  0.0119
  221HFI     F1 3133   0.705   1.836   0.567 -0.2431  0.0787  0.1453
  221HFI     F2 3134   0.622   1.803   0.758 -0.0932 -0.4541 -0.1071
  221HFI     F3 3135   0.515   1.909   0.609 -0.2124 -0.4638  0.5425
  221HFI     C3 3136   0.510   1.691   0.416  0.3724  0.5633  0.0498
  221HFI     F4 3137   0.618   1.727   0.347 -0.0457  0.2574  0.0638
  221HFI     F5 3138   0.407   1.780   0.390  0.1612 -0.0101  0.1494
  221HFI     F6 3139   0.476   1.570   0.372 -0.2299 -0.0220 -0.3299
  221HFI     H1 3140   0.423   1.524   0.642 -1.6248 -0.5180  1.2012
  221HFI     H2 3141   0.614   1.604   0.594 -0.2182  0.6625  2.3196
  222HFI     O1 3142   2.467   0.278   2.582 -0.3050 -0.0865  0.0684
  222HFI     C1 3143   2.459   0.260   2.439 -0.0459  0.3131 -0.4757
  222HFI     C2 3144   2.308   0.267   2.384 -0.6698  1.0264  0.4761
  222HFI     F1 3145   2.305   0.267   2.250 -0.3097  0.3023  0.0671
  222HFI     F2 3146   2.244   0.379   2.426  0.0831 -0.2428 -0.9156
  222HFI     F3 3147   2.239   0.162   2.430 -0.4052  0.3301  0.1722
  222HFI     C3 3148   2.538   0.139   2.393  0.2085  0.1633  0.3918
  222HFI     F4 3149   2.513   0.110   2.262 -0.6116 -0.0789 -0.1501
  222HFI     F5 3150   2.507   0.024   2.466 -0.0918  0.1696 -0.3845
  222HFI     F6 3151   2.674   0.161   2.408  0.3427  0.2756  0.3995
  222HFI     H1 3152   2.394   0.228   2.621 -0.9922  1.4028  0.6972
  222HFI     H2 3153   2.511   0.349   2.401  0.6430 -0.9550 -2.5431
  223HFI     O1 3154   1.339   2.166   0.702  0.5836 -0.4660  0.1219
  223HFI     C1 3155   1.298   2.047   0.634 -0.8345  0.6318 -0.5065
  223HFI     C2 3156   1.200   1.970   0.719 -0.7313 -0.2190 -0.0470
  223HFI     F1 3157   1.186   1.848   0.667 -0.4490  0.5027  0.0068
  223HFI     F2 3158   1.078   2.020   0.730  0.3749  0.1224 -0.6701
  223HFI     F3 3159   1.248   1.960   0.847 -0.0203  0.3923 -0.1213
  223HFI     C3 3160   1.424   1.969   0.591  0.1219 -0.5229  0.7691
  223HFI     F4 3161   1.528   2.059   0.563  0.0402  0.4410  0.0333
  223HFI     F5 3162   1.403   1.906   0.474  0.0217  0.1516 -0.6485
  223HFI     F6 3163   1.472   1.886   0.688  0.1173 -0.4657 -0.3367
  223HFI     H1 3164   1.420   2.150   0.753  1.6852 -0.2080 -1.5014
  223HFI     H2 3165   1.242   2.073   0.544  1.4392 -2.7365 -3.0466
  224HFI     O1 3166   0.688   0.079   3.404 -0.9322  0.3182  0.6379
  224HFI     C1 3167   0.805  -0.009   3.390  0.3549  0.3630  0.2286
  224HFI     C2 3168   0.942   0.076   3.402  0.1216  0.1167  0.6744
  224HFI     F1 3169   0.974   0.139   3.292 -0.1538  0.1213 -0.1276
  224HFI     F2 3170   1.048  -0.003   3.435  0.0128  0.1387  0.2451
  224HFI     F3 3171   0.936   0.170   3.503 -0.4081  0.1160  0.4417
  224HFI     C3 3172   0.793  -0.098   3.267  0.2323  1.1423  0.0069
  224HFI     F4 3173   0.740  -0.217   3.298  0.5342  0.0320 -0.1768
  224HFI     F5 3174   0.916  -0.121   3.211  0.2646 -0.1867 -0.6637
  224HFI     F6 3175   0.710  -0.042   3.176 -0.3478  0.2163  0.5874
  224HFI     H1 3176   0.714   0.173   3.412 -1.3091  0.4989 -0.1724
  224HFI     H2 3177   0.809  -0.079   3.474  1.4407 -1.3481 -1.2022
  225HFI     O1 3178   1.257   3.238   3.788  0.2107  0.1419  0.2288
  225HFI     C1 3179   1.238   3.327   3.907 -0.3012  0.1988  0.3878
  225HFI     C2 3180   1.139   3.442   3.894 -0.0749 -0.6182 -0.1156
  225HFI     F1 3181   1.024   3.401   3.824  0.1590  0.3987  0.1535
  225HFI     F2 3182   1.201   3.538   3.825 -0.4873 -0.1705 -0.3070
  225HFI     F3 3183   1.088   3.487   4.012  0.3357 -0.2350  0.1965
  225HFI     C3 3184   1.371   3.371   3.962 -0.2881  0.9445 -0.2482
  225HFI     F4 3185   1.361   3.465   4.060  0.2086 -0.3859  0.3750
  225HFI     F5 3186   1.436   3.430   3.862  0.0452 -0.5030  0.4669
  225HFI     F6 3187   1.451   3.271   4.007  0.0095  0.3171  0.0176
  225HFI     H1 3188   1.313   3.295   3.732 -1.3934  1.2605 -0.3044
  225HFI     H2 3189   1.188   3.259   3.977 -1.2898 -1.3210 -1.7215
  226HFI     O1 3190   2.428   1.146   2.449  0.1703  0.2638 -0.3036
  226HFI     C1 3191   2.555   1.207   2.423  0.4485 -0.0942 -0.2920
  226HFI     C2 3192   2.549   1.354   2.476  0.2496 -0.8709  0.1754
  226HFI     F1 3193   2.668   1.414   2.462  0.1074 -0.8869  0.5120
  226HFI     F2 3194   2.519   1.342   2.602  0.5750  0.0370  0.2132
  226HFI     F3 3195   2.452   1.426   2.419 -0.2784 -0.3387  0.6888
  226HFI     C3 3196   2.605   1.189   2.280 -0.2921  0.7351  0.2768
  226HFI     F4 3197   2.591   1.057   2.247  0.1293 -0.3082  0.5517
  226HFI     F5 3198   2.738   1.225   2.269 -0.1086  0.5201  0.2260
  226HFI     F6 3199   2.536   1.253   2.184  0.0378 -0.4130 -0.5188
  226HFI     H1 3200   2.353   1.187   2.401  0.8391  1.1307 -0.6200
  226HFI     H2 3201   2.629   1.156   2.485 -1.9128 -0.4325  2.3682
  227HFI     O1 3202   1.147   3.078   2.800 -0.1188 -0.0683 -0.5036
  227HFI     C1 3203   1.098   2.950   2.855 -0.2318  0.4965  0.1474
  227HFI     C2 3204   1.066   2.843   2.748  0.2071 -0.1305  0.7585
  227HFI     F1 3205   1.175   2.820   2.662 -0.2391 -0.1493 -0.0391
  227HFI     F2 3206   0.954   2.875   2.675 -0.2088  0.0860 -0.2065
  227HFI     F3 3207   1.040   2.725   2.812  0.2940 -0.2573 -0.6574
  227HFI     C3 3208   0.969   2.975   2.946 -0.2965 -0.6992 -0.3104
  227HFI     F4 3209   0.922   2.859   3.004  0.0632  0.4710  0.0533
  227HFI     F5 3210   0.866   3.036   2.875  0.0684  0.5190  0.2990
  227HFI     F6 3211   0.999   3.065   3.041 -0.4823  0.1549 -0.3277
  227HFI     H1 3212   1.104   3.099   2.715  0.3197 -0.3113 -0.7897
  227HFI     H2 3213   1.171   2.907   2.924  0.5612 -1.0863 -1.6124
  228HFI     O1 3214   1.256   3.356   2.875  0.2441 -0.2063 -0.1549
  228HFI     C1 3215   1.389   3.389   2.926  0.1833  0.2867  0.1843
  228HFI     C2 3216   1.438   3.278   3.027  0.0252  0.5046  0.2288
  228HFI     F1 3217   1.355   3.282   3.141 -0.1762 -0.0512  0.4404
  228HFI     F2 3218   1.568   3.306   3.064 -0.1529  0.2957 -0.2263
  228HFI     F3 3219   1.430   3.149   2.981 -0.0446  0.4065 -0.5774
  228HFI     C3 3220   1.391   3.534   2.992 -0.2392  0.5955  0.0935
  228HFI     F4 3221   1.348   3.629   2.898 -0.4643 -0.0491 -0.2469
  228HFI     F5 3222   1.514   3.584   3.034  0.6336  0.5457  0.3796
  228HFI     F6 3223   1.305   3.546   3.096  0.2055  0.5689  0.5465
  228HFI     H1 3224   1.219   3.272   2.907  1.8583 -1.7256 -2.1155
  228HFI     H2 3225   1.458   3.381   2.841 -1.1623  1.2193 -1.0305
   3.40320   3.43847   3.80000
