DMF comparator n4
 4173
    1GR      C1    1   0.000   0.000   1.900  0.0000  0.0000  0.0000
    1GR      C2    2   0.142   0.000   1.900  0.0000  0.0000  0.0000
    1GR      C3    3   0.213   0.123   1.900  0.0000  0.0000  0.0000
    1GR      C4    4   0.354   0.123   1.900  0.0000  0.0000  0.0000
    1GR      C5    5   0.000   0.246   1.900  0.0000  0.0000  0.0000
    1GR      C6    6   0.142   0.246   1.900  0.0000  0.0000  0.0000
    1GR      C7    7   0.213   0.368   1.900  0.0000  0.0000  0.0000
    1GR      C8    8   0.354   0.368   1.900  0.0000  0.0000  0.0000
    1GR      C9    9   0.000   0.491   1.900  0.0000  0.0000  0.0000
    1GR     C10   10   0.142   0.491   1.900  0.0000  0.0000  0.0000
    1GR     C11   11   0.213   0.614   1.900  0.0000  0.0000  0.0000
    1GR     C12   12   0.354   0.614   1.900  0.0000  0.0000  0.0000
    1GR     C13   13   0.000   0.737   1.900  0.0000  0.0000  0.0000
    1GR     C14   14   0.142   0.737   1.900  0.0000  0.0000  0.0000
    1GR     C15   15   0.213   0.860   1.900  0.0000  0.0000  0.0000
    1GR     C16   16   0.354   0.860   1.900  0.0000  0.0000  0.0000
    1GR     C17   17   0.000   0.982   1.900  0.0000  0.0000  0.0000
    1GR     C18   18   0.142   0.982   1.900  0.0000  0.0000  0.0000
    1GR     C19   19   0.213   1.105   1.900  0.0000  0.0000  0.0000
    1GR     C20   20   0.354   1.105   1.900  0.0000  0.0000  0.0000
    1GR     C21   21   0.000   1.228   1.900  0.0000  0.0000  0.0000
    1GR     C22   22   0.142   1.228   1.900  0.0000  0.0000  0.0000
    1GR     C23   23   0.213   1.351   1.900  0.0000  0.0000  0.0000
    1GR     C24   24   0.354   1.351   1.900  0.0000  0.0000  0.0000
    1GR     C25   25   0.000   1.474   1.900  0.0000  0.0000  0.0000
    1GR     C26   26   0.142   1.474   1.900  0.0000  0.0000  0.0000
    1GR     C27   27   0.213   1.596   1.900  0.0000  0.0000  0.0000
    1GR     C28   28   0.354   1.596   1.900  0.0000  0.0000  0.0000
    1GR     C29   29   0.000   1.719   1.900  0.0000  0.0000  0.0000
    1GR     C30   30   0.142   1.719   1.900  0.0000  0.0000  0.0000
    1GR     C31   31   0.213   1.842   1.900  0.0000  0.0000  0.0000
    1GR     C32   32   0.354   1.842   1.900  0.0000  0.0000  0.0000
    1GR     C33   33   0.000   1.965   1.900  0.0000  0.0000  0.0000
    1GR     C34   34   0.142   1.965   1.900  0.0000  0.0000  0.0000
    1GR     C35   35   0.213   2.088   1.900  0.0000  0.0000  0.0000
    1GR     C36   36   0.354   2.088   1.900  0.0000  0.0000  0.0000
    1GR     C37   37   0.000   2.210   1.900  0.0000  0.0000  0.0000
    1GR     C38   38   0.142   2.210   1.900  0.0000  0.0000  0.0000
    1GR     C39   39   0.213   2.333   1.900  0.0000  0.0000  0.0000
    1GR     C40   40   0.354   2.333   1.900  0.0000  0.0000  0.0000
    1GR     C41   41   0.000   2.456   1.900  0.0000  0.0000  0.0000
    1GR     C42   42   0.142   2.456   1.900  0.0000  0.0000  0.0000
    1GR     C43   43   0.213   2.579   1.900  0.0000  0.0000  0.0000
    1GR     C44   44   0.354   2.579   1.900  0.0000  0.0000  0.0000
    1GR     C45   45   0.000   2.702   1.900  0.0000  0.0000  0.0000
    1GR     C46   46   0.142   2.702   1.900  0.0000  0.0000  0.0000
    1GR     C47   47   0.213   2.824   1.900  0.0000  0.0000  0.0000
    1GR     C48   48   0.354   2.824   1.900  0.0000  0.0000  0.0000
    1GR     C49   49   0.000   2.947   1.900  0.0000  0.0000  0.0000
    1GR     C50   50   0.142   2.947   1.900  0.0000  0.0000  0.0000
    1GR     C51   51   0.213   3.070   1.900  0.0000  0.0000  0.0000
    1GR     C52   52   0.354   3.070   1.900  0.0000  0.0000  0.0000
    1GR     C53   53   0.000   3.193   1.900  0.0000  0.0000  0.0000
    1GR     C54   54   0.142   3.193   1.900  0.0000  0.0000  0.0000
    1GR     C55   55   0.213   3.316   1.900  0.0000  0.0000  0.0000
    1GR     C56   56   0.354   3.316   1.900  0.0000  0.0000  0.0000
    1GR     C57   57   0.425   0.000   1.900  0.0000  0.0000  0.0000
    1GR     C58   58   0.567   0.000   1.900  0.0000  0.0000  0.0000
    1GR     C59   59   0.638   0.123   1.900  0.0000  0.0000  0.0000
    1GR     C60   60   0.780   0.123   1.900  0.0000  0.0000  0.0000
    1GR     C61   61   0.425   0.246   1.900  0.0000  0.0000  0.0000
    1GR     C62   62   0.567   0.246   1.900  0.0000  0.0000  0.0000
    1GR     C63   63   0.638   0.368   1.900  0.0000  0.0000  0.0000
    1GR     C64   64   0.780   0.368   1.900  0.0000  0.0000  0.0000
    1GR     C65   65   0.425   0.491   1.900  0.0000  0.0000  0.0000
    1GR     C66   66   0.567   0.491   1.900  0.0000  0.0000  0.0000
    1GR     C67   67   0.638   0.614   1.900  0.0000  0.0000  0.0000
    1GR     C68   68   0.780   0.614   1.900  0.0000  0.0000  0.0000
    1GR     C69   69   0.425   0.737   1.900  0.0000  0.0000  0.0000
    1GR     C70   70   0.567   0.737   1.900  0.0000  0.0000  0.0000
    1GR     C71   71   0.638   0.860   1.900  0.0000  0.0000  0.0000
    1GR     C72   72   0.780   0.860   1.900  0.0000  0.0000  0.0000
    1GR     C73   73   0.425   0.982   1.900  0.0000  0.0000  0.0000
    1GR     C74   74   0.567   0.982   1.900  0.0000  0.0000  0.0000
    1GR     C75   75   0.638   1.105   1.900  0.0000  0.0000  0.0000
    1GR     C76   76   0.780   1.105   1.900  0.0000  0.0000  0.0000
    1GR     C77   77   0.425   1.228   1.900  0.0000  0.0000  0.0000
    1GR     C78   78   0.567   1.228   1.900  0.0000  0.0000  0.0000
    1GR     C79   79   0.638   1.351   1.900  0.0000  0.0000  0.0000
    1GR     C80   80   0.780   1.351   1.900  0.0000  0.0000  0.0000
    1GR     C81   81   0.425   1.474   1.900  0.0000  0.0000  0.0000
    1GR     C82   82   0.567   1.474   1.900  0.0000  0.0000  0.0000
    1GR     C83   83   0.638   1.596   1.900  0.0000  0.0000  0.0000
    1GR     C84   84   0.780   1.596   1.900  0.0000  0.0000  0.0000
    1GR     C85   85   0.425   1.719   1.900  0.0000  0.0000  0.0000
    1GR     C86   86   0.567   1.719   1.900  0.0000  0.0000  0.0000
    1GR     C87   87   0.638   1.842   1.900  0.0000  0.0000  0.0000
    1GR     C88   88   0.780   1.842   1.900  0.0000  0.0000  0.0000
    1GR     C89   89   0.425   1.965   1.900  0.0000  0.0000  0.0000
    1GR     C90   90   0.567   1.965   1.900  0.0000  0.0000  0.0000
    1GR     C91   91   0.638   2.088   1.900  0.0000  0.0000  0.0000
    1GR     C92   92   0.780   2.088   1.900  0.0000  0.0000  0.0000
    1GR     C93   93   0.425   2.210   1.900  0.0000  0.0000  0.0000
    1GR     C94   94   0.567   2.210   1.900  0.0000  0.0000  0.0000
    1GR     C95   95   0.638   2.333   1.900  0.0000  0.0000  0.0000
    1GR     C96   96   0.780   2.333   1.900  0.0000  0.0000  0.0000
    1GR     C97   97   0.425   2.456   1.900  0.0000  0.0000  0.0000
    1GR     C98   98   0.567   2.456   1.900  0.0000  0.0000  0.0000
    1GR     C99   99   0.638   2.579   1.900  0.0000  0.0000  0.0000
    1GR    C100  100   0.780   2.579   1.900  0.0000  0.0000  0.0000
    1GR    C101  101   0.425   2.702   1.900  0.0000  0.0000  0.0000
    1GR    C102  102   0.567   2.702   1.900  0.0000  0.0000  0.0000
    1GR    C103  103   0.638   2.824   1.900  0.0000  0.0000  0.0000
    1GR    C104  104   0.780   2.824   1.900  0.0000  0.0000  0.0000
    1GR    C105  105   0.425   2.947   1.900  0.0000  0.0000  0.0000
    1GR    C106  106   0.567   2.947   1.900  0.0000  0.0000  0.0000
    1GR    C107  107   0.638   3.070   1.900  0.0000  0.0000  0.0000
    1GR    C108  108   0.780   3.070   1.900  0.0000  0.0000  0.0000
    1GR    C109  109   0.425   3.193   1.900  0.0000  0.0000  0.0000
    1GR    C110  110   0.567   3.193   1.900  0.0000  0.0000  0.0000
    1GR    C111  111   0.638   3.316   1.900  0.0000  0.0000  0.0000
    1GR    C112  112   0.780   3.316   1.900  0.0000  0.0000  0.0000
    1GR    C113  113   0.851   0.000   1.900  0.0000  0.0000  0.0000
    1GR    C114  114   0.993   0.000   1.900  0.0000  0.0000  0.0000
    1GR    C115  115   1.064   0.123   1.900  0.0000  0.0000  0.0000
    1GR    C116  116   1.205   0.123   1.900  0.0000  0.0000  0.0000
    1GR    C117  117   0.851   0.246   1.900  0.0000  0.0000  0.0000
    1GR    C118  118   0.993   0.246   1.900  0.0000  0.0000  0.0000
    1GR    C119  119   1.064   0.368   1.900  0.0000  0.0000  0.0000
    1GR    C120  120   1.205   0.368   1.900  0.0000  0.0000  0.0000
    1GR    C121  121   0.851   0.491   1.900  0.0000  0.0000  0.0000
    1GR    C122  122   0.993   0.491   1.900  0.0000  0.0000  0.0000
    1GR    C123  123   1.064   0.614   1.900  0.0000  0.0000  0.0000
    1GR    C124  124   1.205   0.614   1.900  0.0000  0.0000  0.0000
    1GR    C125  125   0.851   0.737   1.900  0.0000  0.0000  0.0000
    1GR    C126  126   0.993   0.737   1.900  0.0000  0.0000  0.0000
    1GR    C127  127   1.064   0.860   1.900  0.0000  0.0000  0.0000
    1GR    C128  128   1.205   0.860   1.900  0.0000  0.0000  0.0000
    1GR    C129  129   0.851   0.982   1.900  0.0000  0.0000  0.0000
    1GR    C130  130   0.993   0.982   1.900  0.0000  0.0000  0.0000
    1GR    C131  131   1.064   1.105   1.900  0.0000  0.0000  0.0000
    1GR    C132  132   1.205   1.105   1.900  0.0000  0.0000  0.0000
    1GR    C133  133   0.851   1.228   1.900  0.0000  0.0000  0.0000
    1GR    C134  134   0.993   1.228   1.900  0.0000  0.0000  0.0000
    1GR    C135  135   1.064   1.351   1.900  0.0000  0.0000  0.0000
    1GR    C136  136   1.205   1.351   1.900  0.0000  0.0000  0.0000
    1GR    C137  137   0.851   1.474   1.900  0.0000  0.0000  0.0000
    1GR    C138  138   0.993   1.474   1.900  0.0000  0.0000  0.0000
    1GR    C139  139   1.064   1.596   1.900  0.0000  0.0000  0.0000
    1GR    C140  140   1.205   1.596   1.900  0.0000  0.0000  0.0000
    1GR    C141  141   0.851   1.719   1.900  0.0000  0.0000  0.0000
    1GR    C142  142   0.993   1.719   1.900  0.0000  0.0000  0.0000
    1GR    C143  143   1.064   1.842   1.900  0.0000  0.0000  0.0000
    1GR    C144  144   1.205   1.842   1.900  0.0000  0.0000  0.0000
    1GR    C145  145   0.851   1.965   1.900  0.0000  0.0000  0.0000
    1GR    C146  146   0.993   1.965   1.900  0.0000  0.0000  0.0000
    1GR    C147  147   1.064   2.088   1.900  0.0000  0.0000  0.0000
    1GR    C148  148   1.205   2.088   1.900  0.0000  0.0000  0.0000
    1GR    C149  149   0.851   2.210   1.900  0.0000  0.0000  0.0000
    1GR    C150  150   0.993   2.210   1.900  0.0000  0.0000  0.0000
    1GR    C151  151   1.064   2.333   1.900  0.0000  0.0000  0.0000
    1GR    C152  152   1.205   2.333   1.900  0.0000  0.0000  0.0000
    1GR    C153  153   0.851   2.456   1.900  0.0000  0.0000  0.0000
    1GR    C154  154   0.993   2.456   1.900  0.0000  0.0000  0.0000
    1GR    C155  155   1.064   2.579   1.900  0.0000  0.0000  0.0000
    1GR    C156  156   1.205   2.579   1.900  0.0000  0.0000  0.0000
    1GR    C157  157   0.851   2.702   1.900  0.0000  0.0000  0.0000
    1GR    C158  158   0.993   2.702   1.900  0.0000  0.0000  0.0000
    1GR    C159  159   1.064   2.824   1.900  0.0000  0.0000  0.0000
    1GR    C160  160   1.205   2.824   1.900  0.0000  0.0000  0.0000
    1GR    C161  161   0.851   2.947   1.900  0.0000  0.0000  0.0000
    1GR    C162  162   0.993   2.947   1.900  0.0000  0.0000  0.0000
    1GR    C163  163   1.064   3.070   1.900  0.0000  0.0000  0.0000
    1GR    C164  164   1.205   3.070   1.900  0.0000  0.0000  0.0000
    1GR    C165  165   0.851   3.193   1.900  0.0000  0.0000  0.0000
    1GR    C166  166   0.993   3.193   1.900  0.0000  0.0000  0.0000
    1GR    C167  167   1.064   3.316   1.900  0.0000  0.0000  0.0000
    1GR    C168  168   1.205   3.316   1.900  0.0000  0.0000  0.0000
    1GR    C169  169   1.276   0.000   1.900  0.0000  0.0000  0.0000
    1GR    C170  170   1.418   0.000   1.900  0.0000  0.0000  0.0000
    1GR    C171  171   1.489   0.123   1.900  0.0000  0.0000  0.0000
    1GR    C172  172   1.631   0.123   1.900  0.0000  0.0000  0.0000
    1GR    C173  173   1.276   0.246   1.900  0.0000  0.0000  0.0000
    1GR    C174  174   1.418   0.246   1.900  0.0000  0.0000  0.0000
    1GR    C175  175   1.489   0.368   1.900  0.0000  0.0000  0.0000
    1GR    C176  176   1.631   0.368   1.900  0.0000  0.0000  0.0000
    1GR    C177  177   1.276   0.491   1.900  0.0000  0.0000  0.0000
    1GR    C178  178   1.418   0.491   1.900  0.0000  0.0000  0.0000
    1GR    C179  179   1.489   0.614   1.900  0.0000  0.0000  0.0000
    1GR    C180  180   1.631   0.614   1.900  0.0000  0.0000  0.0000
    1GR    C181  181   1.276   0.737   1.900  0.0000  0.0000  0.0000
    1GR    C182  182   1.418   0.737   1.900  0.0000  0.0000  0.0000
    1GR    C183  183   1.489   0.860   1.900  0.0000  0.0000  0.0000
    1GR    C184  184   1.631   0.860   1.900  0.0000  0.0000  0.0000
    1GR    C185  185   1.276   0.982   1.900  0.0000  0.0000  0.0000
    1GR    C186  186   1.418   0.982   1.900  0.0000  0.0000  0.0000
    1GR    C187  187   1.489   1.105   1.900  0.0000  0.0000  0.0000
    1GR    C188  188   1.631   1.105   1.900  0.0000  0.0000  0.0000
    1GR    C189  189   1.276   1.228   1.900  0.0000  0.0000  0.0000
    1GR    C190  190   1.418   1.228   1.900  0.0000  0.0000  0.0000
    1GR    C191  191   1.489   1.351   1.900  0.0000  0.0000  0.0000
    1GR    C192  192   1.631   1.351   1.900  0.0000  0.0000  0.0000
    1GR    C193  193   1.276   1.474   1.900  0.0000  0.0000  0.0000
    1GR    C194  194   1.418   1.474   1.900  0.0000  0.0000  0.0000
    1GR    C195  195   1.489   1.596   1.900  0.0000  0.0000  0.0000
    1GR    C196  196   1.631   1.596   1.900  0.0000  0.0000  0.0000
    1GR    C197  197   1.276   1.719   1.900  0.0000  0.0000  0.0000
    1GR    C198  198   1.418   1.719   1.900  0.0000  0.0000  0.0000
    1GR    C199  199   1.489   1.842   1.900  0.0000  0.0000  0.0000
    1GR    C200  200   1.631   1.842   1.900  0.0000  0.0000  0.0000
    1GR    C201  201   1.276   1.965   1.900  0.0000  0.0000  0.0000
    1GR    C202  202   1.418   1.965   1.900  0.0000  0.0000  0.0000
    1GR    C203  203   1.489   2.088   1.900  0.0000  0.0000  0.0000
    1GR    C204  204   1.631   2.088   1.900  0.0000  0.0000  0.0000
    1GR    C205  205   1.276   2.210   1.900  0.0000  0.0000  0.0000
    1GR    C206  206   1.418   2.210   1.900  0.0000  0.0000  0.0000
    1GR    C207  207   1.489   2.333   1.900  0.0000  0.0000  0.0000
    1GR    C208  208   1.631   2.333   1.900  0.0000  0.0000  0.0000
    1GR    C209  209   1.276   2.456   1.900  0.0000  0.0000  0.0000
    1GR    C210  210   1.418   2.456   1.900  0.0000  0.0000  0.0000
    1GR    C211  211   1.489   2.579   1.900  0.0000  0.0000  0.0000
    1GR    C212  212   1.631   2.579   1.900  0.0000  0.0000  0.0000
    1GR    C213  213   1.276   2.702   1.900  0.0000  0.0000  0.0000
    1GR    C214  214   1.418   2.702   1.900  0.0000  0.0000  0.0000
    1GR    C215  215   1.489   2.824   1.900  0.0000  0.0000  0.0000
    1GR    C216  216   1.631   2.824   1.900  0.0000  0.0000  0.0000
    1GR    C217  217   1.276   2.947   1.900  0.0000  0.0000  0.0000
    1GR    C218  218   1.418   2.947   1.900  0.0000  0.0000  0.0000
    1GR    C219  219   1.489   3.070   1.900  0.0000  0.0000  0.0000
    1GR    C220  220   1.631   3.070   1.900  0.0000  0.0000  0.0000
    1GR    C221  221   1.276   3.193   1.900  0.0000  0.0000  0.0000
    1GR    C222  222   1.418   3.193   1.900  0.0000  0.0000  0.0000
    1GR    C223  223   1.489   3.316   1.900  0.0000  0.0000  0.0000
    1GR    C224  224   1.631   3.316   1.900  0.0000  0.0000  0.0000
    1GR    C225  225   1.702   0.000   1.900  0.0000  0.0000  0.0000
    1GR    C226  226   1.843   0.000   1.900  0.0000  0.0000  0.0000
    1GR    C227  227   1.914   0.123   1.900  0.0000  0.0000  0.0000
    1GR    C228  228   2.056   0.123   1.900  0.0000  0.0000  0.0000
    1GR    C229  229   1.702   0.246   1.900  0.0000  0.0000  0.0000
    1GR    C230  230   1.843   0.246   1.900  0.0000  0.0000  0.0000
    1GR    C231  231   1.914   0.368   1.900  0.0000  0.0000  0.0000
    1GR    C232  232   2.056   0.368   1.900  0.0000  0.0000  0.0000
    1GR    C233  233   1.702   0.491   1.900  0.0000  0.0000  0.0000
    1GR    C234  234   1.843   0.491   1.900  0.0000  0.0000  0.0000
    1GR    C235  235   1.914   0.614   1.900  0.0000  0.0000  0.0000
    1GR    C236  236   2.056   0.614   1.900  0.0000  0.0000  0.0000
    1GR    C237  237   1.702   0.737   1.900  0.0000  0.0000  0.0000
    1GR    C238  238   1.843   0.737   1.900  0.0000  0.0000  0.0000
    1GR    C239  239   1.914   0.860   1.900  0.0000  0.0000  0.0000
    1GR    C240  240   2.056   0.860   1.900  0.0000  0.0000  0.0000
    1GR    C241  241   1.702   0.982   1.900  0.0000  0.0000  0.0000
    1GR    C242  242   1.843   0.982   1.900  0.0000  0.0000  0.0000
    1GR    C243  243   1.914   1.105   1.900  0.0000  0.0000  0.0000
    1GR    C244  244   2.056   1.105   1.900  0.0000  0.0000  0.0000
    1GR    C245  245   1.702   1.228   1.900  0.0000  0.0000  0.0000
    1GR    C246  246   1.843   1.228   1.900  0.0000  0.0000  0.0000
    1GR    C247  247   1.914   1.351   1.900  0.0000  0.0000  0.0000
    1GR    C248  248   2.056   1.351   1.900  0.0000  0.0000  0.0000
    1GR    C249  249   1.702   1.474   1.900  0.0000  0.0000  0.0000
    1GR    C250  250   1.843   1.474   1.900  0.0000  0.0000  0.0000
    1GR    C251  251   1.914   1.596   1.900  0.0000  0.0000  0.0000
    1GR    C252  252   2.056   1.596   1.900  0.0000  0.0000  0.0000
    1GR    C253  253   1.702   1.719   1.900  0.0000  0.0000  0.0000
    1GR    C254  254   1.843   1.719   1.900  0.0000  0.0000  0.0000
    1GR    C255  255   1.914   1.842   1.900  0.0000  0.0000  0.0000
    1GR    C256  256   2.056   1.842   1.900  0.0000  0.0000  0.0000
    1GR    C257  257   1.702   1.965   1.900  0.0000  0.0000  0.0000
    1GR    C258  258   1.843   1.965   1.900  0.0000  0.0000  0.0000
    1GR    C259  259   1.914   2.088   1.900  0.0000  0.0000  0.0000
    1GR    C260  260   2.056   2.088   1.900  0.0000  0.0000  0.0000
    1GR    C261  261   1.702   2.210   1.900  0.0000  0.0000  0.0000
    1GR    C262  262   1.843   2.210   1.900  0.0000  0.0000  0.0000
    1GR    C263  263   1.914   2.333   1.900  0.0000  0.0000  0.0000
    1GR    C264  264   2.056   2.333   1.900  0.0000  0.0000  0.0000
    1GR    C265  265   1.702   2.456   1.900  0.0000  0.0000  0.0000
    1GR    C266  266   1.843   2.456   1.900  0.0000  0.0000  0.0000
    1GR    C267  267   1.914   2.579   1.900  0.0000  0.0000  0.0000
    1GR    C268  268   2.056   2.579   1.900  0.0000  0.0000  0.0000
    1GR    C269  269   1.702   2.702   1.900  0.0000  0.0000  0.0000
    1GR    C270  270   1.843   2.702   1.900  0.0000  0.0000  0.0000
    1GR    C271  271   1.914   2.824   1.900  0.0000  0.0000  0.0000
    1GR    C272  272   2.056   2.824   1.900  0.0000  0.0000  0.0000
    1GR    C273  273   1.702   2.947   1.900  0.0000  0.0000  0.0000
    1GR    C274  274   1.843   2.947   1.900  0.0000  0.0000  0.0000
    1GR    C275  275   1.914   3.070   1.900  0.0000  0.0000  0.0000
    1GR    C276  276   2.056   3.070   1.900  0.0000  0.0000  0.0000
    1GR    C277  277   1.702   3.193   1.900  0.0000  0.0000  0.0000
    1GR    C278  278   1.843   3.193   1.900  0.0000  0.0000  0.0000
    1GR    C279  279   1.914   3.316   1.900  0.0000  0.0000  0.0000
    1GR    C280  280   2.056   3.316   1.900  0.0000  0.0000  0.0000
    1GR    C281  281   2.127   0.000   1.900  0.0000  0.0000  0.0000
    1GR    C282  282   2.269   0.000   1.900  0.0000  0.0000  0.0000
    1GR    C283  283   2.340   0.123   1.900  0.0000  0.0000  0.0000
    1GR    C284  284   2.481   0.123   1.900  0.0000  0.0000  0.0000
    1GR    C285  285   2.127   0.246   1.900  0.0000  0.0000  0.0000
    1GR    C286  286   2.269   0.246   1.900  0.0000  0.0000  0.0000
    1GR    C287  287   2.340   0.368   1.900  0.0000  0.0000  0.0000
    1GR    C288  288   2.481   0.368   1.900  0.0000  0.0000  0.0000
    1GR    C289  289   2.127   0.491   1.900  0.0000  0.0000  0.0000
    1GR    C290  290   2.269   0.491   1.900  0.0000  0.0000  0.0000
    1GR    C291  291   2.340   0.614   1.900  0.0000  0.0000  0.0000
    1GR    C292  292   2.481   0.614   1.900  0.0000  0.0000  0.0000
    1GR    C293  293   2.127   0.737   1.900  0.0000  0.0000  0.0000
    1GR    C294  294   2.269   0.737   1.900  0.0000  0.0000  0.0000
    1GR    C295  295   2.340   0.860   1.900  0.0000  0.0000  0.0000
    1GR    C296  296   2.481   0.860   1.900  0.0000  0.0000  0.0000
    1GR    C297  297   2.127   0.982   1.900  0.0000  0.0000  0.0000
    1GR    C298  298   2.269   0.982   1.900  0.0000  0.0000  0.0000
    1GR    C299  299   2.340   1.105   1.900  0.0000  0.0000  0.0000
    1GR    C300  300   2.481   1.105   1.900  0.0000  0.0000  0.0000
    1GR    C301  301   2.127   1.228   1.900  0.0000  0.0000  0.0000
    1GR    C302  302   2.269   1.228   1.900  0.0000  0.0000  0.0000
    1GR    C303  303   2.340   1.351   1.900  0.0000  0.0000  0.0000
    1GR    C304  304   2.481   1.351   1.900  0.0000  0.0000  0.0000
    1GR    C305  305   2.127   1.474   1.900  0.0000  0.0000  0.0000
    1GR    C306  306   2.269   1.474   1.900  0.0000  0.0000  0.0000
    1GR    C307  307   2.340   1.596   1.900  0.0000  0.0000  0.0000
    1GR    C308  308   2.481   1.596   1.900  0.0000  0.0000  0.0000
    1GR    C309  309   2.127   1.719   1.900  0.0000  0.0000  0.0000
    1GR    C310  310   2.269   1.719   1.900  0.0000  0.0000  0.0000
    1GR    C311  311   2.340   1.842   1.900  0.0000  0.0000  0.0000
    1GR    C312  312   2.481   1.842   1.900  0.0000  0.0000  0.0000
    1GR    C313  313   2.127   1.965   1.900  0.0000  0.0000  0.0000
    1GR    C314  314   2.269   1.965   1.900  0.0000  0.0000  0.0000
    1GR    C315  315   2.340   2.088   1.900  0.0000  0.0000  0.0000
    1GR    C316  316   2.481   2.088   1.900  0.0000  0.0000  0.0000
    1GR    C317  317   2.127   2.210   1.900  0.0000  0.0000  0.0000
    1GR    C318  318   2.269   2.210   1.900  0.0000  0.0000  0.0000
    1GR    C319  319   2.340   2.333   1.900  0.0000  0.0000  0.0000
    1GR    C320  320   2.481   2.333   1.900  0.0000  0.0000  0.0000
    1GR    C321  321   2.127   2.456   1.900  0.0000  0.0000  0.0000
    1GR    C322  322   2.269   2.456   1.900  0.0000  0.0000  0.0000
    1GR    C323  323   2.340   2.579   1.900  0.0000  0.0000  0.0000
    1GR    C324  324   2.481   2.579   1.900  0.0000  0.0000  0.0000
    1GR    C325  325   2.127   2.702   1.900  0.0000  0.0000  0.0000
    1GR    C326  326   2.269   2.702   1.900  0.0000  0.0000  0.0000
    1GR    C327  327   2.340   2.824   1.900  0.0000  0.0000  0.0000
    1GR    C328  328   2.481   2.824   1.900  0.0000  0.0000  0.0000
    1GR    C329  329   2.127   2.947   1.900  0.0000  0.0000  0.0000
    1GR    C330  330   2.269   2.947   1.900  0.0000  0.0000  0.0000
    1GR    C331  331   2.340   3.070   1.900  0.0000  0.0000  0.0000
    1GR    C332  332   2.481   3.070   1.900  0.0000  0.0000  0.0000
    1GR    C333  333   2.127   3.193   1.900  0.0000  0.0000  0.0000
    1GR    C334  334   2.269   3.193   1.900  0.0000  0.0000  0.0000
    1GR    C335  335   2.340   3.316   1.900  0.0000  0.0000  0.0000
    1GR    C336  336   2.481   3.316   1.900  0.0000  0.0000  0.0000
    1GR    C337  337   2.552   0.000   1.900  0.0000  0.0000  0.0000
    1GR    C338  338   2.694   0.000   1.900  0.0000  0.0000  0.0000
    1GR    C339  339   2.765   0.123   1.900  0.0000  0.0000  0.0000
    1GR    C340  340   2.907   0.123   1.900  0.0000  0.0000  0.0000
    1GR    C341  341   2.552   0.246   1.900  0.0000  0.0000  0.0000
    1GR    C342  342   2.694   0.246   1.900  0.0000  0.0000  0.0000
    1GR    C343  343   2.765   0.368   1.900  0.0000  0.0000  0.0000
    1GR    C344  344   2.907   0.368   1.900  0.0000  0.0000  0.0000
    1GR    C345  345   2.552   0.491   1.900  0.0000  0.0000  0.0000
    1GR    C346  346   2.694   0.491   1.900  0.0000  0.0000  0.0000
    1GR    C347  347   2.765   0.614   1.900  0.0000  0.0000  0.0000
    1GR    C348  348   2.907   0.614   1.900  0.0000  0.0000  0.0000
    1GR    C349  349   2.552   0.737   1.900  0.0000  0.0000  0.0000
    1GR    C350  350   2.694   0.737   1.900  0.0000  0.0000  0.0000
    1GR    C351  351   2.765   0.860   1.900  0.0000  0.0000  0.0000
    1GR    C352  352   2.907   0.860   1.900  0.0000  0.0000  0.0000
    1GR    C353  353   2.552   0.982   1.900  0.0000  0.0000  0.0000
    1GR    C354  354   2.694   0.982   1.900  0.0000  0.0000  0.0000
    1GR    C355  355   2.765   1.105   1.900  0.0000  0.0000  0.0000
    1GR    C356  356   2.907   1.105   1.900  0.0000  0.0000  0.0000
    1GR    C357  357   2.552   1.228   1.900  0.0000  0.0000  0.0000
    1GR    C358  358   2.694   1.228   1.900  0.0000  0.0000  0.0000
    1GR    C359  359   2.765   1.351   1.900  0.0000  0.0000  0.0000
    1GR    C360  360   2.907   1.351   1.900  0.0000  0.0000  0.0000
    1GR    C361  361   2.552   1.474   1.900  0.0000  0.0000  0.0000
    1GR    C362  362   2.694   1.474   1.900  0.0000  0.0000  0.0000
    1GR    C363  363   2.765   1.596   1.900  0.0000  0.0000  0.0000
    1GR    C364  364   2.907   1.596   1.900  0.0000  0.0000  0.0000
    1GR    C365  365   2.552   1.719   1.900  0.0000  0.0000  0.0000
    1GR    C366  366   2.694   1.719   1.900  0.0000  0.0000  0.0000
    1GR    C367  367   2.765   1.842   1.900  0.0000  0.0000  0.0000
    1GR    C368  368   2.907   1.842   1.900  0.0000  0.0000  0.0000
    1GR    C369  369   2.552   1.965   1.900  0.0000  0.0000  0.0000
    1GR    C370  370   2.694   1.965   1.900  0.0000  0.0000  0.0000
    1GR    C371  371   2.765   2.088   1.900  0.0000  0.0000  0.0000
    1GR    C372  372   2.907   2.088   1.900  0.0000  0.0000  0.0000
    1GR    C373  373   2.552   2.210   1.900  0.0000  0.0000  0.0000
    1GR    C374  374   2.694   2.210   1.900  0.0000  0.0000  0.0000
    1GR    C375  375   2.765   2.333   1.900  0.0000  0.0000  0.0000
    1GR    C376  376   2.907   2.333   1.900  0.0000  0.0000  0.0000
    1GR    C377  377   2.552   2.456   1.900  0.0000  0.0000  0.0000
    1GR    C378  378   2.694   2.456   1.900  0.0000  0.0000  0.0000
    1GR    C379  379   2.765   2.579   1.900  0.0000  0.0000  0.0000
    1GR    C380  380   2.907   2.579   1.900  0.0000  0.0000  0.0000
    1GR    C381  381   2.552   2.702   1.900  0.0000  0.0000  0.0000
    1GR    C382  382   2.694   2.702   1.900  0.0000  0.0000  0.0000
    1GR    C383  383   2.765   2.824   1.900  0.0000  0.0000  0.0000
    1GR    C384  384   2.907   2.824   1.900  0.0000  0.0000  0.0000
    1GR    C385  385   2.552   2.947   1.900  0.0000  0.0000  0.0000
    1GR    C386  386   2.694   2.947   1.900  0.0000  0.0000  0.0000
    1GR    C387  387   2.765   3.070   1.900  0.0000  0.0000  0.0000
    1GR    C388  388   2.907   3.070   1.900  0.0000  0.0000  0.0000
    1GR    C389  389   2.552   3.193   1.900  0.0000  0.0000  0.0000
    1GR    C390  390   2.694   3.193   1.900  0.0000  0.0000  0.0000
    1GR    C391  391   2.765   3.316   1.900  0.0000  0.0000  0.0000
    1GR    C392  392   2.907   3.316   1.900  0.0000  0.0000  0.0000
    1GR    C393  393   2.978   0.000   1.900  0.0000  0.0000  0.0000
    1GR    C394  394   3.120   0.000   1.900  0.0000  0.0000  0.0000
    1GR    C395  395   3.191   0.123   1.900  0.0000  0.0000  0.0000
    1GR    C396  396   3.332   0.123   1.900  0.0000  0.0000  0.0000
    1GR    C397  397   2.978   0.246   1.900  0.0000  0.0000  0.0000
    1GR    C398  398   3.120   0.246   1.900  0.0000  0.0000  0.0000
    1GR    C399  399   3.191   0.368   1.900  0.0000  0.0000  0.0000
    1GR    C400  400   3.332   0.368   1.900  0.0000  0.0000  0.0000
    1GR    C401  401   2.978   0.491   1.900  0.0000  0.0000  0.0000
    1GR    C402  402   3.120   0.491   1.900  0.0000  0.0000  0.0000
    1GR    C403  403   3.191   0.614   1.900  0.0000  0.0000  0.0000
    1GR    C404  404   3.332   0.614   1.900  0.0000  0.0000  0.0000
    1GR    C405  405   2.978   0.737   1.900  0.0000  0.0000  0.0000
    1GR    C406  406   3.120   0.737   1.900  0.0000  0.0000  0.0000
    1GR    C407  407   3.191   0.860   1.900  0.0000  0.0000  0.0000
    1GR    C408  408   3.332   0.860   1.900  0.0000  0.0000  0.0000
    1GR    C409  409   2.978   0.982   1.900  0.0000  0.0000  0.0000
    1GR    C410  410   3.120   0.982   1.900  0.0000  0.0000  0.0000
    1GR    C411  411   3.191   1.105   1.900  0.0000  0.0000  0.0000
    1GR    C412  412   3.332   1.105   1.900  0.0000  0.0000  0.0000
    1GR    C413  413   2.978   1.228   1.900  0.0000  0.0000  0.0000
    1GR    C414  414   3.120   1.228   1.900  0.0000  0.0000  0.0000
    1GR    C415  415   3.191   1.351   1.900  0.0000  0.0000  0.0000
    1GR    C416  416   3.332   1.351   1.900  0.0000  0.0000  0.0000
    1GR    C417  417   2.978   1.474   1.900  0.0000  0.0000  0.0000
    1GR    C418  418   3.120   1.474   1.900  0.0000  0.0000  0.0000
    1GR    C419  419   3.191   1.596   1.900  0.0000  0.0000  0.0000
    1GR    C420  420   3.332   1.596   1.900  0.0000  0.0000  0.0000
    1GR    C421  421   2.978   1.719   1.900  0.0000  0.0000  0.0000
    1GR    C422  422   3.120   1.719   1.900  0.0000  0.0000  0.0000
    1GR    C423  423   3.191   1.842   1.900  0.0000  0.0000  0.0000
    1GR    C424  424   3.332   1.842   1.900  0.0000  0.0000  0.0000
    1GR    C425  425   2.978   1.965   1.900  0.0000  0.0000  0.0000
    1GR    C426  426   3.120   1.965   1.900  0.0000  0.0000  0.0000
    1GR    C427  427   3.191   2.088   1.900  0.0000  0.0000  0.0000
    1GR    C428  428   3.332   2.088   1.900  0.0000  0.0000  0.0000
    1GR    C429  429   2.978   2.210   1.900  0.0000  0.0000  0.0000
    1GR    C430  430   3.120   2.210   1.900  0.0000  0.0000  0.0000
    1GR    C431  431   3.191   2.333   1.900  0.0000  0.0000  0.0000
    1GR    C432  432   3.332   2.333   1.900  0.0000  0.0000  0.0000
    1GR    C433  433   2.978   2.456   1.900  0.0000  0.0000  0.0000
    1GR    C434  434   3.120   2.456   1.900  0.0000  0.0000  0.0000
    1GR    C435  435   3.191   2.579   1.900  0.0000  0.0000  0.0000
    1GR    C436  436   3.332   2.579   1.900  0.0000  0.0000  0.0000
    1GR    C437  437   2.978   2.702   1.900  0.0000  0.0000  0.0000
    1GR    C438  438   3.120   2.702   1.900  0.0000  0.0000  0.0000
    1GR    C439  439   3.191   2.824   1.900  0.0000  0.0000  0.0000
    1GR    C440  440   3.332   2.824   1.900  0.0000  0.0000  0.0000
    1GR    C441  441   2.978   2.947   1.900  0.0000  0.0000  0.0000
    1GR    C442  442   3.120   2.947   1.900  0.0000  0.0000  0.0000
    1GR    C443  443   3.191   3.070   1.900  0.0000  0.0000  0.0000
    1GR    C444  444   3.332   3.070   1.900  0.0000  0.0000  0.0000
    1GR    C445  445   2.978   3.193   1.900  0.0000  0.0000  0.0000
    1GR    C446  446   3.120   3.193   1.900  0.0000  0.0000  0.0000
    1GR    C447  447   3.191   3.316   1.900  0.0000  0.0000  0.0000
    1GR    C448  448   3.332   3.316   1.900  0.0000  0.0000  0.0000
    2PMMA   CX1  449   1.468   0.026   2.491  0.2729  0.3038 -0.1356
    2PMMA   CA2  450   1.349  -0.029   2.404  0.0209 -0.4331  1.4066
    2PMMA   CX3  451   1.354   0.022   2.255 -0.6341  0.3387  0.2375
    2PMMA    C4  452   1.362  -0.178   2.421  0.0497  0.0132 -0.9499
    2PMMA    O5  453   1.328  -0.236   2.525 -0.7790 -0.2286  0.1896
    2PMMA   OS6  454   1.390  -0.248   2.310  0.0863  0.6506  0.9637
    2PMMA   CE7  455   1.386  -0.389   2.305 -0.0326  0.7104 -0.4681
    2PMMA   CX8  456   1.218   0.029   2.463 -0.6586 -1.1119 -0.6185
    2PMMA   CA9  457   1.068  -0.021   2.426  0.7485 -0.3632  0.3863
    2PMMA  CX10  458   1.064  -0.166   2.371 -0.6093 -0.5418  0.3078
    2PMMA   C11  459   1.021   0.075   2.313  0.9181  0.1721  0.1641
    2PMMA   O12  460   1.013   0.037   2.199  0.1380 -0.4152 -0.1889
    2PMMA  OS13  461   0.989   0.210   2.343  0.5180 -0.3283 -0.0195
    2PMMA  CE14  462   0.946   0.304   2.249 -0.2094  0.1981 -0.3571
    2PMMA  CX15  463   0.985  -0.003   2.559  0.1434 -0.2871 -0.3740
    2PMMA  CA16  464   0.830  -0.033   2.578 -0.1532  0.5557 -0.4945
    2PMMA  CX17  465   0.749   0.037   2.471  0.0654  0.0379 -0.2700
    2PMMA   C18  466   0.805  -0.182   2.568  0.4826  0.1560  0.6882
    2PMMA   O19  467   0.753  -0.228   2.468  0.2619 -0.4817 -0.5098
    2PMMA  OS20  468   0.864  -0.261   2.660  0.2897  0.2891  0.4725
    2PMMA  CE21  469   0.886  -0.400   2.630  0.3416 -0.9112 -0.2432
    2PMMA  CX22  470   0.775   0.007   2.721 -0.7654  0.8104  0.1572
    2PMMA  CA23  471   0.630  -0.002   2.771  0.6948  0.4521 -0.3784
    2PMMA  CX24  472   0.574  -0.144   2.755 -0.1462 -0.1523  0.3200
    2PMMA   C25  473   0.526   0.095   2.712  0.7293  0.1173 -0.3107
    2PMMA   O26  474   0.410   0.069   2.689 -0.1237  0.3372 -0.1831
    2PMMA  OS27  475   0.580   0.206   2.660  0.8352  0.3934  0.4315
    2PMMA  CE28  476   0.497   0.303   2.582  0.1620 -0.5671 -0.7917
    2PMMA  CX29  477   0.635   0.019   2.922  0.0015  0.1732  0.1030
    2PMMA  HC30  478   1.567  -0.013   2.463  0.3855 -0.7470  1.6435
    2PMMA  HC31  479   1.475   0.136   2.492  4.3165  0.1178  0.2053
    2PMMA  HC32  480   1.460   0.005   2.598  0.0909  1.3966  0.0735
    2PMMA  HC33  481   1.281  -0.020   2.186 -0.3168  0.0007  0.1035
    2PMMA  HC34  482   1.457   0.001   2.222  0.0340  3.1182  0.4373
    2PMMA  HC35  483   1.344   0.130   2.247 -1.9978  0.1483 -0.7157
    2PMMA  H136  484   1.438  -0.427   2.393  1.0970 -0.1085 -1.4684
    2PMMA  H137  485   1.440  -0.430   2.219  1.2152 -0.5747  0.9093
    2PMMA  H138  486   1.280  -0.412   2.293 -0.4032  2.3246 -0.4082
    2PMMA  HC39  487   1.238   0.028   2.571 -3.7436  0.8355  0.0358
    2PMMA  HC40  488   1.216   0.139   2.463 -3.3454 -1.1040  2.7192
    2PMMA  HC41  489   1.134  -0.193   2.291  0.5101  2.9753 -0.0145
    2PMMA  HC42  490   1.078  -0.239   2.451  1.1557 -2.2103 -1.4652
    2PMMA  HC43  491   0.966  -0.188   2.329 -0.2309  1.5887 -1.8084
    2PMMA  H144  492   0.927   0.400   2.299  0.3471 -0.6542  1.5054
    2PMMA  H145  493   0.852   0.270   2.204  1.0190 -1.8440 -1.4081
    2PMMA  H146  494   1.020   0.329   2.173 -0.5921  1.3144 -0.3790
    2PMMA  HC47  495   1.030  -0.066   2.636  0.9376 -0.6614 -1.1459
    2PMMA  HC48  496   1.002   0.103   2.581 -0.0363 -0.0936 -1.1418
    2PMMA  HC49  497   0.777   0.143   2.464 -2.6308  0.7535 -0.6166
    2PMMA  HC50  498   0.642   0.028   2.490 -0.3950  4.1202 -0.5396
    2PMMA  HC51  499   0.775  -0.012   2.376  3.5713 -2.5510  1.9117
    2PMMA  H152  500   0.912  -0.460   2.718 -1.4642 -2.8253 -0.9678
    2PMMA  H153  501   0.973  -0.411   2.565 -0.1724 -0.1560 -1.0649
    2PMMA  H154  502   0.798  -0.434   2.574 -0.1160  0.4351 -0.3553
    2PMMA  HC55  503   0.847  -0.042   2.788 -0.7125  1.2560  0.4301
    2PMMA  HC56  504   0.798   0.114   2.733  3.0316  0.1575 -0.6994
    2PMMA  HC57  505   0.481  -0.157   2.811 -1.9524  0.4008 -2.4626
    2PMMA  HC58  506   0.556  -0.156   2.648 -2.1174  1.2180  0.4752
    2PMMA  HC59  507   0.638  -0.225   2.792  0.0575 -0.1318  0.0127
    2PMMA  H160  508   0.417   0.349   2.640  0.9904  0.1714 -0.2190
    2PMMA  H161  509   0.444   0.258   2.498 -0.6176 -2.4419  0.6720
    2PMMA  H162  510   0.556   0.385   2.538  2.0738  1.5330  5.2254
    2PMMA  HC63  511   0.685   0.110   2.955 -0.9282  0.3447  1.0862
    2PMMA  HC64  512   0.545  -0.010   2.978 -0.7676 -0.5958 -1.5017
    2PMMA  HC65  513   0.706  -0.054   2.962 -0.0829  0.9343  1.6834
    3DMF     C1  514   2.857   0.919   0.581  0.2172  0.6459 -0.3784
    3DMF     N1  515   2.878   0.855   0.711  0.1433  0.3037  0.3430
    3DMF     C2  516   2.782   0.752   0.747 -0.0107 -0.2737 -0.4857
    3DMF     C3  517   2.974   0.901   0.804  0.0356 -0.6061 -0.1581
    3DMF     O1  518   3.046   1.005   0.789 -0.0280  0.6086  0.1386
    3DMF     H1  519   2.801   0.860   0.508 -1.7510  2.0677 -0.0652
    3DMF     H2  520   2.949   0.962   0.541  1.0959  1.5158  2.4304
    3DMF     H3  521   2.796   1.007   0.605 -0.0710  0.3107  0.1417
    3DMF     H4  522   2.727   0.779   0.838 -0.5653  0.0831 -0.9191
    3DMF     H5  523   2.842   0.661   0.756  2.5108  1.2520 -1.2711
    3DMF     H6  524   2.708   0.730   0.669  1.4996 -0.6123 -1.8492
    3DMF     H7  525   2.984   0.843   0.898 -2.8630  2.0153  1.8262
    4DMF     C1  526   0.135   2.333   2.793  0.0627 -0.3843  0.7210
    4DMF     N1  527   0.274   2.333   2.745 -0.3658  0.3602 -0.6218
    4DMF     C2  528   0.318   2.226   2.653 -0.0732 -0.4976 -0.2501
    4DMF     C3  529   0.357   2.427   2.797  1.0276 -0.3387  0.6009
    4DMF     O1  530   0.330   2.494   2.890  0.2814 -0.2364 -0.6138
    4DMF     H1  531   0.091   2.433   2.783  0.2485 -0.5490 -2.3563
    4DMF     H2  532   0.122   2.310   2.899 -3.1921 -0.3513  0.3899
    4DMF     H3  533   0.082   2.251   2.743  0.7626 -2.3222  3.0268
    4DMF     H4  534   0.417   2.240   2.606 -0.0351  2.0783  0.5340
    4DMF     H5  535   0.242   2.214   2.575  2.5605  0.3053 -3.0403
    4DMF     H6  536   0.321   2.139   2.720  0.1416  1.0927  1.8626
    4DMF     H7  537   0.449   2.430   2.737  1.5136  2.4267  1.4428
    5DMF     C1  538   3.213   0.841   3.767  0.5762  0.1901  0.4045
    5DMF     N1  539   3.200   0.907   3.640  0.5988  0.3115  0.2712
    5DMF     C2  540   3.182   0.821   3.530  0.2104 -0.9595 -0.2584
    5DMF     C3  541   3.184   1.044   3.621  0.3686 -0.0348 -0.0761
    5DMF     O1  542   3.190   1.120   3.712 -0.1462 -0.0538  0.4004
    5DMF     H1  543   3.110   0.821   3.797  1.4050 -0.3740  2.9958
    5DMF     H2  544   3.263   0.916   3.830  0.6612  1.8530 -1.6055
    5DMF     H3  545   3.283   0.756   3.770  0.5914  0.2425  2.2760
    5DMF     H4  546   3.281   0.811   3.485 -0.9399 -1.7958 -2.7216
    5DMF     H5  547   3.121   0.873   3.454 -0.9927  0.5294  1.6839
    5DMF     H6  548   3.138   0.728   3.567  0.6650 -1.1023 -0.0851
    5DMF     H7  549   3.167   1.074   3.517 -0.9100  0.9911  0.4210
    6DMF     C1  550   0.083   2.767   0.393  0.1059 -0.8864 -0.2395
    6DMF     N1  551   0.202   2.685   0.382  0.4124 -0.5190  0.0003
    6DMF     C2  552   0.207   2.563   0.458 -0.2423 -0.2643  0.2206
    6DMF     C3  553   0.302   2.721   0.287 -0.0486  0.0621  0.6204
    6DMF     O1  554   0.304   2.826   0.218 -0.0751  0.0656 -0.2922
    6DMF     H1  555  -0.005   2.701   0.397  0.8715 -1.9171 -0.2134
    6DMF     H2  556   0.086   2.836   0.308 -2.2687 -1.5954 -0.9597
    6DMF     H3  557   0.087   2.821   0.488 -0.7003 -1.1596 -0.0429
    6DMF     H4  558   0.189   2.481   0.387  1.9664  0.6673 -1.5071
    6DMF     H5  559   0.115   2.557   0.517 -0.4186  2.1335  0.2390
    6DMF     H6  560   0.302   2.541   0.509 -0.8869 -0.0832  1.5190
    6DMF     H7  561   0.358   2.630   0.256 -1.1092 -0.3199 -0.2266
    7DMF     C1  562   1.356   2.665   0.036 -0.1960  1.0848 -0.2116
    7DMF     N1  563   1.438   2.655  -0.092  0.3400 -0.1637 -0.0228
    7DMF     C2  564   1.400   2.736  -0.209 -0.2686 -0.1556  0.4936
    7DMF     C3  565   1.541   2.557  -0.107 -0.0017 -0.4364 -0.0676
    7DMF     O1  566   1.591   2.499  -0.009  0.3863  0.9184 -0.2652
    7DMF     H1  567   1.333   2.771   0.054  0.5922  1.0524  1.0796
    7DMF     H2  568   1.403   2.613   0.121  0.6595  0.0640 -1.2828
    7DMF     H3  569   1.269   2.600   0.021  0.0187  1.3538 -2.8390
    7DMF     H4  570   1.402   2.844  -0.192  0.1631  0.1987 -1.6511
    7DMF     H5  571   1.292   2.719  -0.221 -0.1602 -0.4087 -0.1500
    7DMF     H6  572   1.441   2.708  -0.307 -2.7994 -0.3020 -0.5635
    7DMF     H7  573   1.585   2.546  -0.208 -0.8396  1.3900 -0.6513
    8DMF     C1  574   0.038   1.477   1.341 -0.6752  0.1507  0.3997
    8DMF     N1  575  -0.085   1.494   1.407 -0.1283 -0.6405  0.1351
    8DMF     C2  576  -0.101   1.463   1.548  0.4858  0.0702  0.6241
    8DMF     C3  577  -0.200   1.532   1.336 -0.0765  0.1259  0.4679
    8DMF     O1  578  -0.192   1.570   1.225  0.3982 -0.5611  0.1900
    8DMF     H1  579   0.077   1.565   1.289  2.6094 -1.1220  0.5444
    8DMF     H2  580   0.026   1.398   1.266  0.6885  0.1127  0.1987
    8DMF     H3  581   0.117   1.445   1.411  0.0926  2.5449  0.6725
    8DMF     H4  582  -0.199   1.498   1.582  0.4722  0.7182 -0.0565
    8DMF     H5  583  -0.014   1.492   1.608 -0.6469 -0.1730  2.4486
    8DMF     H6  584  -0.111   1.354   1.554 -0.4981  0.0150 -1.6444
    8DMF     H7  585  -0.293   1.524   1.395 -0.6361  1.0807 -0.2984
    9DMF     C1  586   3.137   1.330   0.345 -0.3711 -0.4079 -0.6934
    9DMF     N1  587   2.995   1.338   0.395  0.0190  0.1316 -0.1596
    9DMF     C2  588   2.975   1.293   0.536  0.3588 -0.1276  0.0372
    9DMF     C3  589   2.890   1.400   0.320  0.7857 -0.0092  0.2153
    9DMF     O1  590   2.919   1.460   0.215 -0.2641  0.4652  0.6288
    9DMF     H1  591   3.169   1.232   0.381  1.4666  1.2836  2.5215
    9DMF     H2  592   3.191   1.406   0.402  0.0516 -1.4426  0.2992
    9DMF     H3  593   3.162   1.350   0.240  3.7239 -0.1984  0.2478
    9DMF     H4  594   2.873   1.314   0.570  0.7456 -1.7884  2.3745
    9DMF     H5  595   3.048   1.346   0.599 -2.6444  1.2559  2.4714
    9DMF     H6  596   2.990   1.184   0.545  1.8522 -0.0316 -1.0686
    9DMF     H7  597   2.791   1.397   0.369  0.8079  1.9816  0.4455
   10DMF     C1  598   0.677   2.291   0.180 -0.3183 -0.3554  1.0558
   10DMF     N1  599   0.563   2.333   0.099  0.2986 -0.0815  0.6222
   10DMF     C2  600   0.473   2.232   0.030 -0.1743 -0.3663 -0.6386
   10DMF     C3  601   0.528   2.468   0.078  0.0545 -0.1408  0.3115
   10DMF     O1  602   0.584   2.567   0.125  0.2840  0.2482 -0.2447
   10DMF     H1  603   0.653   2.191   0.218 -2.4152  0.1771  1.1783
   10DMF     H2  604   0.703   2.352   0.268  0.3084  0.7582  0.1089
   10DMF     H3  605   0.770   2.269   0.127 -2.0512 -2.8167 -1.0395
   10DMF     H4  606   0.515   2.203  -0.067 -2.6586  0.9894 -2.1767
   10DMF     H5  607   0.377   2.280   0.008 -0.2733 -0.7630 -1.0541
   10DMF     H6  608   0.459   2.144   0.093  1.3747  0.3215  0.7061
   10DMF     H7  609   0.448   2.469   0.002 -0.8499  1.5569  1.2506
   11DMF     C1  610   1.349   3.342   0.270  0.7977  0.1909 -0.9934
   11DMF     N1  611   1.283   3.269   0.164 -0.1691 -0.5481  0.3388
   11DMF     C2  612   1.135   3.289   0.137  0.5375 -0.4047 -0.1226
   11DMF     C3  613   1.343   3.143   0.126  0.0607 -0.4686  0.2041
   11DMF     O1  614   1.454   3.111   0.156 -0.2345  0.3011 -0.3060
   11DMF     H1  615   1.276   3.373   0.346  0.8172  1.8523 -1.6184
   11DMF     H2  616   1.382   3.439   0.230  0.8645  0.7855  0.4620
   11DMF     H3  617   1.420   3.280   0.325 -1.6501 -0.2202  1.8253
   11DMF     H4  618   1.093   3.199   0.091 -0.0542  0.4664 -1.3066
   11DMF     H5  619   1.119   3.369   0.065 -1.7518  0.8832  1.7503
   11DMF     H6  620   1.100   3.309   0.239  2.5248 -0.0146  0.4927
   11DMF     H7  621   1.274   3.079   0.068 -1.4100 -0.3585  1.7747
   12DMF     C1  622   1.605   1.943   0.798  0.6480 -0.1480 -0.0086
   12DMF     N1  623   1.509   2.047   0.788  0.7658  0.1090 -0.0875
   12DMF     C2  624   1.418   2.048   0.908  0.2755 -0.0575  0.1832
   12DMF     C3  625   1.512   2.159   0.701  0.5476  0.4503  0.6250
   12DMF     O1  626   1.601   2.171   0.615 -0.0476  0.0106 -0.1696
   12DMF     H1  627   1.711   1.972   0.793  1.0832 -1.8214 -1.0098
   12DMF     H2  628   1.588   1.874   0.714  3.5942  1.9699 -2.4430
   12DMF     H3  629   1.590   1.896   0.896  1.2810  1.2490  0.7682
   12DMF     H4  630   1.406   1.953   0.962  2.0616  0.1133  0.9185
   12DMF     H5  631   1.316   2.070   0.874 -0.0842 -1.2542  0.4373
   12DMF     H6  632   1.442   2.125   0.982 -0.3478 -0.2929  0.6364
   12DMF     H7  633   1.422   2.224   0.703 -1.8279 -2.5943 -1.8987
   13DMF     C1  634   3.369   2.905   0.998  0.1606 -0.6997 -0.7817
   13DMF     N1  635   3.493   2.961   1.055 -0.6543 -0.0790  0.7571
   13DMF     C2  636   3.511   2.936   1.199 -0.6215 -0.1025  0.1475
   13DMF     C3  637   3.587   3.027   0.978 -0.3960 -0.3314 -0.3847
   13DMF     O1  638   3.580   3.046   0.861  0.2482 -0.2950  0.2991
   13DMF     H1  639   3.319   2.845   1.075  2.5013  0.7143  1.9398
   13DMF     H2  640   3.399   2.847   0.910  1.6792 -3.0063  1.1703
   13DMF     H3  641   3.312   2.993   0.966  1.8709 -0.1708 -2.4794
   13DMF     H4  642   3.456   2.844   1.223 -1.7547  0.2191 -1.1765
   13DMF     H5  643   3.466   3.025   1.244 -0.1685  0.5058 -0.5741
   13DMF     H6  644   3.618   2.913   1.208 -0.7888 -1.6598 -1.5351
   13DMF     H7  645   3.676   3.058   1.036 -1.5200  1.6000  0.3543
   14DMF     C1  646   1.458   0.257   1.486 -0.1180 -0.9663  0.5910
   14DMF     N1  647   1.309   0.257   1.507 -0.0921  0.3214 -0.5671
   14DMF     C2  648   1.251   0.129   1.543  0.4003 -0.2612 -0.4036
   14DMF     C3  649   1.233   0.374   1.517 -0.7538 -0.1929 -0.0509
   14DMF     O1  650   1.270   0.486   1.508 -0.0200  0.1837  0.2026
   14DMF     H1  651   1.512   0.217   1.572 -0.6486 -1.9878  0.4508
   14DMF     H2  652   1.501   0.358   1.487  3.5721 -2.4805  1.8797
   14DMF     H3  653   1.484   0.215   1.388 -0.9383  1.0424 -0.5233
   14DMF     H4  654   1.173   0.131   1.621  2.0936 -0.1292  1.3155
   14DMF     H5  655   1.336   0.065   1.569 -1.8866 -2.2728  2.4262
   14DMF     H6  656   1.208   0.078   1.456  2.4794  0.1502 -1.6912
   14DMF     H7  657   1.130   0.351   1.550 -1.0859 -1.8306 -2.2095
   15DMF     C1  658   1.611   3.078   2.692 -0.3829  0.6391 -0.1341
   15DMF     N1  659   1.722   3.125   2.775  0.1023 -0.7723  0.1089
   15DMF     C2  660   1.816   3.024   2.832  0.1020  0.3042  0.1418
   15DMF     C3  661   1.744   3.265   2.794 -0.0337 -0.2713  0.1632
   15DMF     O1  662   1.680   3.360   2.755 -0.1120  0.7233  0.2001
   15DMF     H1  663   1.651   2.999   2.628 -0.1305 -0.6244  1.5550
   15DMF     H2  664   1.562   3.158   2.634  0.3373  0.0860 -1.5278
   15DMF     H3  665   1.550   3.021   2.763  0.0640 -1.0304 -1.0524
   15DMF     H4  666   1.834   3.037   2.939  2.7870  0.4345 -0.2848
   15DMF     H5  667   1.909   3.009   2.776 -0.7167 -1.7380 -0.7156
   15DMF     H6  668   1.774   2.924   2.818 -0.4093  0.6638 -0.9558
   15DMF     H7  669   1.829   3.269   2.865 -0.2153 -2.2535  0.5409
   16DMF     C1  670   1.652   2.849   0.111 -0.2335  0.6130 -0.0079
   16DMF     N1  671   1.753   2.789   0.206  0.4640 -0.1377  0.0342
   16DMF     C2  672   1.718   2.671   0.293  0.4071 -0.1544  0.0345
   16DMF     C3  673   1.882   2.845   0.212 -0.0146  0.5561 -0.1372
   16DMF     O1  674   1.914   2.941   0.146  0.1800  1.0879 -0.1692
   16DMF     H1  675   1.684   2.953   0.095  1.9649 -0.1988 -1.2160
   16DMF     H2  676   1.553   2.842   0.157  0.5131  0.1158  1.5552
   16DMF     H3  677   1.631   2.792   0.020  1.8848  0.1169 -0.2091
   16DMF     H4  678   1.802   2.606   0.320 -0.6729 -1.7953 -0.5039
   16DMF     H5  679   1.660   2.600   0.233 -0.7509  1.8130 -1.1918
   16DMF     H6  680   1.658   2.697   0.381  0.2612 -0.9545  0.1791
   16DMF     H7  681   1.951   2.799   0.284 -1.1496  0.5181  0.9329
   17DMF     C1  682   3.324   1.841   0.963 -0.7288  0.2567 -0.3080
   17DMF     N1  683   3.450   1.894   1.018  0.3286 -0.1863  0.4860
   17DMF     C2  684   3.460   1.925   1.162  0.4113 -0.4289 -0.1848
   17DMF     C3  685   3.558   1.905   0.937  0.1132 -0.3173 -0.0031
   17DMF     O1  686   3.553   1.870   0.823  0.3153  0.4849 -0.1064
   17DMF     H1  687   3.340   1.760   0.891 -1.9317 -1.0065  0.8097
   17DMF     H2  688   3.269   1.925   0.919 -0.0523  0.9087  0.0859
   17DMF     H3  689   3.276   1.790   1.048 -2.1555  1.6808 -0.2386
   17DMF     H4  690   3.365   1.976   1.182  0.2539 -0.8552  0.1714
   17DMF     H5  691   3.529   2.005   1.193 -0.7321  0.4548  0.0862
   17DMF     H6  692   3.480   1.840   1.228  2.0251 -0.1657 -0.3054
   17DMF     H7  693   3.650   1.929   0.992  0.9843  0.0935 -1.6158
   18DMF     C1  694   0.823   2.579   1.139 -0.1119 -0.7553 -0.5254
   18DMF     N1  695   0.776   2.490   1.026 -0.5393 -0.4567 -0.6491
   18DMF     C2  696   0.742   2.548   0.896  0.1200  0.2678 -0.4979
   18DMF     C3  697   0.745   2.357   1.051 -0.3075  0.2963 -1.0015
   18DMF     O1  698   0.764   2.308   1.163 -0.0838  0.6092  0.1213
   18DMF     H1  699   0.905   2.526   1.189  0.8171  1.3456  0.2455
   18DMF     H2  700   0.740   2.606   1.205  0.2180  1.6559 -1.0389
   18DMF     H3  701   0.858   2.673   1.095  0.0018  0.2036  1.5628
   18DMF     H4  702   0.687   2.643   0.903  2.1035  1.3058  1.6248
   18DMF     H5  703   0.689   2.479   0.830 -1.3276  0.9675 -0.0956
   18DMF     H6  704   0.838   2.573   0.850  0.4587  1.1735  0.6614
   18DMF     H7  705   0.696   2.303   0.968  0.7021 -0.0547 -1.3756
   19DMF     C1  706   1.018   0.212   0.989 -0.3545  0.0990  0.0252
   19DMF     N1  707   1.091   0.256   1.109  0.0224 -0.9254  0.2219
   19DMF     C2  708   1.073   0.397   1.145 -0.2734  0.3441  0.5591
   19DMF     C3  709   1.164   0.167   1.187  0.4356 -0.1107 -0.3037
   19DMF     O1  710   1.177   0.048   1.159 -0.3902 -0.6196 -0.6354
   19DMF     H1  711   1.017   0.292   0.913  1.3800  2.0096  1.9444
   19DMF     H2  712   0.912   0.200   1.012 -0.9973  2.1399 -1.6636
   19DMF     H3  713   1.058   0.116   0.953  0.4403  0.0221  1.0856
   19DMF     H4  714   0.972   0.401   1.186  0.0591  3.8949  1.1742
   19DMF     H5  715   1.082   0.464   1.058 -3.0929  1.0581  0.7916
   19DMF     H6  716   1.145   0.433   1.220 -0.9437  1.9486  0.4463
   19DMF     H7  717   1.219   0.216   1.270 -0.5715 -0.3303  0.5079
   20DMF     C1  718   2.122   1.257   1.446 -1.1447 -0.1233 -0.0917
   20DMF     N1  719   2.206   1.143   1.504 -0.1765 -0.1154  0.1339
   20DMF     C2  720   2.143   1.016   1.518  0.1630 -0.5873 -0.3074
   20DMF     C3  721   2.345   1.149   1.485 -0.1083 -1.0954 -0.1335
   20DMF     O1  722   2.405   1.254   1.453 -0.3746  0.3306  0.3792
   20DMF     H1  723   2.151   1.272   1.342  1.9775 -1.3694  0.5540
   20DMF     H2  724   2.146   1.343   1.510 -1.5516  1.1731 -1.6484
   20DMF     H3  725   2.017   1.230   1.461 -0.3151 -3.6370 -0.2914
   20DMF     H4  726   2.202   0.934   1.561 -0.7955 -2.2939 -2.1558
   20DMF     H5  727   2.123   0.986   1.414 -0.4077 -0.6779 -0.1781
   20DMF     H6  728   2.046   1.024   1.570  0.5353  0.4835  0.2272
   20DMF     H7  729   2.389   1.049   1.504  0.3632 -0.6199  1.3975
   21DMF     C1  730   2.537   1.311   1.094 -0.0680  0.6420  0.0450
   21DMF     N1  731   2.433   1.418   1.107  0.7953  0.7253  0.2168
   21DMF     C2  732   2.449   1.522   1.206 -0.7293  0.7050 -0.3177
   21DMF     C3  733   2.334   1.428   1.004  0.3001 -0.0314  0.5938
   21DMF     O1  734   2.335   1.360   0.901 -0.0794 -0.1407 -0.0400
   21DMF     H1  735   2.628   1.350   1.142 -0.4096  1.2559  0.2011
   21DMF     H2  736   2.558   1.304   0.987 -0.0377 -0.3107  0.1132
   21DMF     H3  737   2.509   1.212   1.132 -1.4869  1.0327  0.0431
   21DMF     H4  738   2.472   1.614   1.151  0.3467 -0.4521 -1.8354
   21DMF     H5  739   2.525   1.493   1.280 -1.0315  0.8229  0.0418
   21DMF     H6  740   2.353   1.536   1.258 -1.7340 -2.8012 -1.1722
   21DMF     H7  741   2.250   1.499   1.020 -0.3182 -0.8277  0.9127
   22DMF     C1  742   3.360   1.153   3.203  0.8624 -0.7590 -1.1027
   22DMF     N1  743   3.493   1.192   3.255  0.8725  0.0113  0.2350
   22DMF     C2  744   3.530   1.328   3.233 -0.1163  0.4772 -0.1008
   22DMF     C3  745   3.574   1.100   3.311  0.3318  0.0011  0.0781
   22DMF     O1  746   3.525   0.991   3.344  0.5149  0.1782 -0.0396
   22DMF     H1  747   3.371   1.114   3.101  3.5700 -0.9812 -0.7640
   22DMF     H2  748   3.295   1.241   3.211  0.6746 -1.1268  1.7982
   22DMF     H3  749   3.319   1.077   3.271 -2.3582  1.6511 -0.2133
   22DMF     H4  750   3.563   1.341   3.129  0.6685  1.4613  0.2575
   22DMF     H5  751   3.616   1.352   3.297  1.1711  0.0626 -1.6419
   22DMF     H6  752   3.448   1.393   3.266 -0.7636 -1.5386  2.4449
   22DMF     H7  753   3.677   1.134   3.332  0.6449 -1.5380  1.1556
   23DMF     C1  754   1.641   1.067   0.961  0.3221  0.2936 -0.3529
   23DMF     N1  755   1.654   1.112   1.097 -0.0841  0.3552 -0.7034
   23DMF     C2  756   1.537   1.077   1.182 -0.3001  0.1814 -0.1051
   23DMF     C3  757   1.762   1.180   1.150  0.6910 -0.0784 -0.2627
   23DMF     O1  758   1.855   1.214   1.080 -0.1862  0.5350  0.1308
   23DMF     H1  759   1.707   1.127   0.897 -2.0189  1.4647 -1.7328
   23DMF     H2  760   1.544   1.096   0.918  0.0857 -0.2072 -0.1550
   23DMF     H3  761   1.666   0.963   0.938  1.3358  0.5495 -0.4225
   23DMF     H4  762   1.533   1.136   1.274  1.0946  0.4445 -0.2041
   23DMF     H5  763   1.543   0.971   1.210 -0.6193 -0.0960 -1.0439
   23DMF     H6  764   1.446   1.089   1.122  1.0055  0.8933 -1.9975
   23DMF     H7  765   1.744   1.208   1.255 -0.6838  2.0168 -1.0351
   24DMF     C1  766   1.145   3.087   1.207  0.0240 -0.8861  1.2071
   24DMF     N1  767   1.241   2.981   1.182 -0.2267  0.3137 -0.7987
   24DMF     C2  768   1.383   3.009   1.208  0.1812  0.3730 -0.7215
   24DMF     C3  769   1.197   2.845   1.200  1.1492 -0.0460 -0.1061
   24DMF     O1  770   1.075   2.814   1.197  0.3738  0.0264 -0.3265
   24DMF     H1  771   1.044   3.044   1.205  0.1209 -1.1632  2.0424
   24DMF     H2  772   1.164   3.162   1.129  1.1732 -2.4542 -0.0703
   24DMF     H3  773   1.159   3.136   1.304 -0.9403  0.7319  0.5405
   24DMF     H4  774   1.406   3.114   1.232  0.1801  0.5594 -1.5113
   24DMF     H5  775   1.443   2.971   1.125  0.5545 -1.0154  0.1851
   24DMF     H6  776   1.410   2.949   1.295 -0.4185  2.5634  1.0548
   24DMF     H7  777   1.280   2.772   1.197  0.7318 -0.6060  1.5905
   25DMF     C1  778   2.170   1.206   2.644  0.4987 -0.3947 -0.3677
   25DMF     N1  779   2.151   1.063   2.608  0.2878 -0.0345 -0.2103
   25DMF     C2  780   2.269   0.971   2.613 -0.1193 -0.1236  0.0009
   25DMF     C3  781   2.041   1.024   2.534  1.3233 -0.2082 -0.0787
   25DMF     O1  782   1.945   1.090   2.511  0.3486 -0.3892 -0.1691
   25DMF     H1  783   2.195   1.218   2.751 -1.1931  1.7855 -0.1908
   25DMF     H2  784   2.078   1.259   2.619  0.5364 -0.9165 -1.6363
   25DMF     H3  785   2.252   1.252   2.588  0.1106  1.3176  0.4223
   25DMF     H4  786   2.236   0.867   2.610  1.4231 -0.6343  0.5818
   25DMF     H5  787   2.323   0.991   2.707 -0.4980  0.7718  0.0384
   25DMF     H6  788   2.335   0.998   2.530  0.8380 -0.3487  0.6784
   25DMF     H7  789   2.050   0.920   2.499  1.2987 -0.0616 -0.5225
   26DMF     C1  790   2.584   3.095   1.507  0.0523  0.9815 -0.1542
   26DMF     N1  791   2.442   3.128   1.521 -0.4398  0.0473 -0.1301
   26DMF     C2  792   2.390   3.257   1.473 -0.0609  0.7448 -0.0996
   26DMF     C3  793   2.351   3.032   1.564 -0.1210 -0.2160 -0.2307
   26DMF     O1  794   2.390   2.919   1.592 -0.1231 -0.1618 -0.0040
   26DMF     H1  795   2.597   3.002   1.450  0.4119  0.0247  1.4587
   26DMF     H2  796   2.628   3.107   1.607  1.1023 -0.4682 -0.4258
   26DMF     H3  797   2.629   3.174   1.444 -0.9871  0.6489 -1.3380
   26DMF     H4  798   2.428   3.280   1.372  2.2360 -1.4335  0.2225
   26DMF     H5  799   2.413   3.340   1.542  1.2382 -0.5332  1.0202
   26DMF     H6  800   2.280   3.254   1.469 -0.1644  2.2733  1.1293
   26DMF     H7  801   2.249   3.069   1.584  0.8673  1.7251  1.4011
   27DMF     C1  802   1.315   2.316   3.617  0.5871  0.7126 -0.0317
   27DMF     N1  803   1.209   2.337   3.515  0.1201  0.5493 -0.0326
   27DMF     C2  804   1.212   2.451   3.430  0.0001  0.0328 -0.1585
   27DMF     C3  805   1.101   2.247   3.500 -0.2977 -0.1370  0.2141
   27DMF     O1  806   1.088   2.148   3.573 -0.3951 -0.0256  0.3285
   27DMF     H1  807   1.410   2.298   3.565 -1.5954 -3.8848 -2.7726
   27DMF     H2  808   1.306   2.231   3.686  0.9977  0.0686 -0.7576
   27DMF     H3  809   1.317   2.401   3.686  0.2087  0.9992 -0.3742
   27DMF     H4  810   1.312   2.497   3.424 -0.6419  1.4389 -0.3863
   27DMF     H5  811   1.153   2.531   3.476  0.1744  1.2082 -1.9119
   27DMF     H6  812   1.175   2.425   3.330  0.8859  0.0780 -0.5088
   27DMF     H7  813   1.022   2.290   3.437  0.6348 -0.6194 -1.3050
   28DMF     C1  814   0.720   1.705   1.556  0.2501  0.7158  0.4026
   28DMF     N1  815   0.626   1.598   1.554 -0.1844 -0.1974  0.3058
   28DMF     C2  816   0.680   1.457   1.557  0.2992 -0.4082 -0.8326
   28DMF     C3  817   0.487   1.621   1.567 -0.5503  0.1895  0.3193
   28DMF     O1  818   0.439   1.733   1.572 -0.0098  0.1783 -0.4208
   28DMF     H1  819   0.704   1.777   1.475  1.7617  0.5806 -0.0350
   28DMF     H2  820   0.822   1.672   1.534 -0.1782 -0.5118  0.2206
   28DMF     H3  821   0.711   1.754   1.654 -1.0387 -2.4626  1.9534
   28DMF     H4  822   0.762   1.434   1.626  0.7608  2.5951 -0.2823
   28DMF     H5  823   0.711   1.441   1.453  1.0431  0.7802 -0.8021
   28DMF     H6  824   0.602   1.381   1.569 -1.5858  1.0118 -3.3722
   28DMF     H7  825   0.433   1.526   1.547  1.1928 -0.8434  0.4017
   29DMF     C1  826   2.898   1.910   1.556 -0.4386 -0.4819  0.1613
   29DMF     N1  827   2.987   1.976   1.459  0.4399 -0.8220  0.4646
   29DMF     C2  828   2.986   1.926   1.315 -0.2666 -0.4815 -0.8603
   29DMF     C3  829   3.040   2.103   1.481 -0.7250  0.7231 -0.1816
   29DMF     O1  830   3.029   2.160   1.586  0.0914 -0.1131 -0.2777
   29DMF     H1  831   2.825   1.979   1.600  1.3327  1.5947 -0.0594
   29DMF     H2  832   2.964   1.888   1.641 -0.5231 -2.4487 -0.2614
   29DMF     H3  833   2.863   1.813   1.519  0.7068 -1.2556  1.0779
   29DMF     H4  834   2.988   1.817   1.331  2.0669 -0.3040  0.2427
   29DMF     H5  835   3.074   1.953   1.256 -1.1664 -1.2712 -2.6140
   29DMF     H6  836   2.894   1.938   1.257 -0.3646 -3.2089 -1.3540
   29DMF     H7  837   3.092   2.151   1.396 -0.0576  2.0814  0.9784
   30DMF     C1  838   1.825   2.362   0.148 -0.1985 -0.0122 -0.0215
   30DMF     N1  839   1.877   2.242   0.211  0.5288  0.6542 -0.6332
   30DMF     C2  840   1.799   2.157   0.297  0.0542  0.5440  0.6306
   30DMF     C3  841   2.002   2.207   0.173 -0.1201 -0.3998  0.4032
   30DMF     O1  842   2.075   2.273   0.100  0.1488  0.2203 -1.3427
   30DMF     H1  843   1.841   2.359   0.039  0.4832 -0.2527  0.0844
   30DMF     H2  844   1.857   2.460   0.185 -0.7231  1.0034 -2.1518
   30DMF     H3  845   1.715   2.360   0.153 -0.2006  0.8341  0.4658
   30DMF     H4  846   1.851   2.125   0.389  2.2233 -0.2624 -0.8375
   30DMF     H5  847   1.773   2.067   0.242 -3.1376  1.2246  0.9354
   30DMF     H6  848   1.701   2.196   0.328 -1.2708 -0.3154 -2.3233
   30DMF     H7  849   2.033   2.110   0.216 -3.2403 -0.6418  2.2956
   31DMF     C1  850   3.288   1.583   3.055 -0.7675 -0.0571  0.1500
   31DMF     N1  851   3.158   1.547   2.987  0.4206  0.1830  0.0017
   31DMF     C2  852   3.054   1.477   3.066  0.9058 -0.3399 -0.2472
   31DMF     C3  853   3.123   1.606   2.869 -0.1747 -0.5392 -0.0257
   31DMF     O1  854   3.192   1.687   2.803  0.0921  0.1235  0.1528
   31DMF     H1  855   3.302   1.587   3.163 -0.9859 -2.4752  0.2892
   31DMF     H2  856   3.317   1.681   3.013  1.0301 -0.3776  0.5965
   31DMF     H3  857   3.355   1.502   3.024  0.6420  0.2785  2.2102
   31DMF     H4  858   3.030   1.544   3.150 -2.4584 -0.8454 -0.7228
   31DMF     H5  859   3.101   1.385   3.102  0.1395 -0.8917 -0.6230
   31DMF     H6  860   2.969   1.450   3.001  0.3516  2.3352 -0.6934
   31DMF     H7  861   3.022   1.573   2.839  0.4478  0.0622 -2.8667
   32DMF     C1  862   1.682   0.843   3.660  0.2890  0.1170  0.9068
   32DMF     N1  863   1.582   0.905   3.561 -0.1299 -0.1093  0.3749
   32DMF     C2  864   1.460   0.970   3.616  0.2958  0.6412 -0.0281
   32DMF     C3  865   1.565   0.842   3.437  0.4335  0.6400  0.2947
   32DMF     O1  866   1.639   0.762   3.389 -0.2314 -0.3612  0.0682
   32DMF     H1  867   1.723   0.928   3.717 -0.6304  2.1035 -1.3117
   32DMF     H2  868   1.763   0.782   3.618  0.1260  1.7645 -1.9448
   32DMF     H3  869   1.627   0.766   3.716 -0.7474 -1.7729 -2.5667
   32DMF     H4  870   1.456   1.078   3.594  0.3603  0.0470 -3.1966
   32DMF     H5  871   1.446   0.947   3.722 -1.5124 -0.3845 -0.4635
   32DMF     H6  872   1.373   0.925   3.567 -1.1039  2.7462  0.4272
   32DMF     H7  873   1.466   0.862   3.390  0.6503  1.7496  0.2943
   33DMF     C1  874   2.889   3.297   3.389  0.1161  0.3343  0.5789
   33DMF     N1  875   2.840   3.201   3.287  0.3598  0.7340 -0.1493
   33DMF     C2  876   2.725   3.109   3.323 -0.3100  0.0082 -0.5811
   33DMF     C3  877   2.908   3.186   3.159  0.2803 -0.6708 -0.2773
   33DMF     O1  878   3.020   3.237   3.136 -0.7711  0.0875  0.8145
   33DMF     H1  879   2.953   3.241   3.459 -0.1167  1.2262  1.5257
   33DMF     H2  880   2.799   3.340   3.435  0.0244  2.9151 -1.9214
   33DMF     H3  881   2.942   3.386   3.354 -0.3333  0.1947 -0.4695
   33DMF     H4  882   2.758   3.014   3.366 -2.0939 -0.5891 -0.4902
   33DMF     H5  883   2.672   3.087   3.229 -0.2833  0.1504 -0.6305
   33DMF     H6  884   2.656   3.161   3.391  0.2019 -1.6538  1.2495
   33DMF     H7  885   2.853   3.121   3.087 -0.9853 -0.3547  0.3861
   34DMF     C1  886   1.615   1.525   3.384  0.0739 -0.1012 -0.3580
   34DMF     N1  887   1.719   1.596   3.310  0.1784  0.7492  0.0982
   34DMF     C2  888   1.778   1.721   3.356  0.2009  0.1956  0.2223
   34DMF     C3  889   1.739   1.564   3.177 -0.0957 -0.3579 -0.2067
   34DMF     O1  890   1.694   1.464   3.121 -0.5645  0.0947 -0.3658
   34DMF     H1  891   1.648   1.493   3.484  0.8081  1.0523 -0.2271
   34DMF     H2  892   1.579   1.433   3.337 -0.6856  0.1364 -0.2623
   34DMF     H3  893   1.534   1.597   3.401 -0.2592  0.1168 -2.7329
   34DMF     H4  894   1.884   1.700   3.375 -0.1343 -1.3247  0.4978
   34DMF     H5  895   1.735   1.754   3.452 -0.1970  1.4257 -0.3754
   34DMF     H6  896   1.759   1.794   3.277 -0.4459  1.7496  1.7824
   34DMF     H7  897   1.812   1.633   3.129  1.2484 -2.7064 -1.6495
   35DMF     C1  898   1.072   1.910   0.658  0.4653  0.0935  0.0831
   35DMF     N1  899   1.206   1.854   0.678  0.3846  0.0964 -0.6079
   35DMF     C2  900   1.214   1.736   0.774 -0.5432  0.2013  0.1043
   35DMF     C3  901   1.309   1.891   0.592 -0.3356  0.0692 -0.6565
   35DMF     O1  902   1.296   1.969   0.504 -0.6419 -0.1827  0.5000
   35DMF     H1  903   1.067   2.013   0.694  1.2107 -0.0280  0.5335
   35DMF     H2  904   0.995   1.859   0.718 -0.7926 -0.1048 -1.6426
   35DMF     H3  905   1.043   1.908   0.552  1.6266  0.1416 -0.2398
   35DMF     H4  906   1.160   1.650   0.734 -1.5648  0.6638  0.4720
   35DMF     H5  907   1.188   1.760   0.877  1.8613 -2.5694  1.4223
   35DMF     H6  908   1.321   1.712   0.780  0.6302  4.3556 -1.9956
   35DMF     H7  909   1.403   1.836   0.612  0.9086  2.5887  0.5556
   36DMF     C1  910   3.336   3.199   1.393  0.0168 -0.1710 -0.0615
   36DMF     N1  911   3.293   3.338   1.410 -0.1268 -0.0081  0.1334
   36DMF     C2  912   3.383   3.436   1.488  0.0585  0.0203  0.3522
   36DMF     C3  913   3.188   3.385   1.333  0.1757 -0.6214 -0.4988
   36DMF     O1  914   3.117   3.313   1.259 -0.0195  0.3423  0.8130
   36DMF     H1  915   3.437   3.190   1.434  0.2805  0.5208 -0.5373
   36DMF     H2  916   3.341   3.163   1.290 -0.5496 -0.2474 -0.0632
   36DMF     H3  917   3.266   3.132   1.445  0.5966 -1.2315 -0.6344
   36DMF     H4  918   3.347   3.539   1.490 -0.5491 -0.1856 -0.1963
   36DMF     H5  919   3.483   3.438   1.442  0.4860 -1.4850  1.1617
   36DMF     H6  920   3.405   3.400   1.590  0.4214 -1.4859 -0.2471
   36DMF     H7  921   3.172   3.494   1.343  4.6066  0.0690  0.1978
   37DMF     C1  922   2.095   0.102   1.195  0.1056 -0.3860  0.0473
   37DMF     N1  923   2.075   0.121   1.048 -0.4846 -0.5038 -0.7020
   37DMF     C2  924   2.005   0.231   1.001  0.5618 -0.4002 -0.0134
   37DMF     C3  925   2.101   0.011   0.964  0.6165  0.5048 -0.1050
   37DMF     O1  926   2.147  -0.096   1.009 -0.1512 -0.5002  0.3677
   37DMF     H1  927   2.118   0.004   1.237 -2.2630 -0.5930  0.9597
   37DMF     H2  928   2.007   0.151   1.240 -1.9978 -2.3566 -1.8059
   37DMF     H3  929   2.186   0.161   1.213 -1.2478  1.4766  0.9303
   37DMF     H4  930   2.068   0.289   0.933  0.5856 -1.1454 -0.6393
   37DMF     H5  931   1.972   0.294   1.084  0.2961 -0.0213 -0.4033
   37DMF     H6  932   1.915   0.194   0.951  1.1873  0.1812 -1.6093
   37DMF     H7  933   2.073   0.023   0.858 -3.4963 -0.7781  0.7426
   38DMF     C1  934   2.212   1.525   2.757 -0.5242 -0.1416 -0.3707
   38DMF     N1  935   2.226   1.628   2.656  0.3729  0.6058 -0.2160
   38DMF     C2  936   2.324   1.737   2.674  0.2776 -0.1043 -0.9217
   38DMF     C3  937   2.168   1.607   2.528 -0.3390 -0.2412  0.1941
   38DMF     O1  938   2.104   1.510   2.499 -0.6620 -0.3792  0.3509
   38DMF     H1  939   2.238   1.576   2.851  1.5210  2.7505 -2.4345
   38DMF     H2  940   2.284   1.445   2.740  0.4275  0.4668  0.7333
   38DMF     H3  941   2.108   1.490   2.769  0.6464 -3.8679 -0.4880
   38DMF     H4  942   2.426   1.702   2.694  0.0915 -0.0959  0.0768
   38DMF     H5  943   2.298   1.813   2.749 -0.6533 -0.1769 -1.1569
   38DMF     H6  944   2.329   1.791   2.579  0.5411  1.4983 -0.0155
   38DMF     H7  945   2.176   1.687   2.453  1.4263 -1.0197 -0.4798
   39DMF     C1  946   0.558   0.907   0.125 -0.0600  0.7782  0.2165
   39DMF     N1  947   0.427   0.843   0.147  0.5378 -0.1210 -0.3003
   39DMF     C2  948   0.407   0.704   0.105  0.2014 -0.2802  0.5473
   39DMF     C3  949   0.322   0.919   0.200 -0.3762  0.8165 -0.4546
   39DMF     O1  950   0.332   1.031   0.241 -0.1279  0.2964  0.0652
   39DMF     H1  951   0.633   0.854   0.185 -0.5818 -0.5116 -0.2525
   39DMF     H2  952   0.547   1.009   0.163  0.3299 -0.2760  3.2943
   39DMF     H3  953   0.590   0.902   0.020 -0.1934 -0.6346  0.2339
   39DMF     H4  954   0.478   0.633   0.150  1.3802  1.0468  0.8203
   39DMF     H5  955   0.430   0.701  -0.002  1.0484  1.2903  0.6653
   39DMF     H6  956   0.303   0.673   0.121 -0.9390  1.1455 -3.4471
   39DMF     H7  957   0.225   0.866   0.196 -0.1321  0.3046  0.2632
   40DMF     C1  958   2.163   1.906   1.206  0.3744 -0.2372  0.1186
   40DMF     N1  959   2.121   1.905   1.072 -0.2315  0.1609 -0.5288
   40DMF     C2  960   1.994   1.976   1.036 -0.0607 -0.5803 -0.1712
   40DMF     C3  961   2.193   1.834   0.975 -0.5664  0.0260  0.0329
   40DMF     O1  962   2.293   1.771   1.004  0.4243 -0.0658 -0.0754
   40DMF     H1  963   2.253   1.845   1.218  0.7930  0.5708  1.1421
   40DMF     H2  964   2.081   1.858   1.261 -0.7819 -1.1839 -2.3535
   40DMF     H3  965   2.192   2.006   1.240  2.7791 -0.4879 -1.1466
   40DMF     H4  966   2.019   2.066   0.978 -1.3725  0.6950  1.2132
   40DMF     H5  967   1.946   2.008   1.129  0.3202  0.7777 -0.4398
   40DMF     H6  968   1.941   1.908   0.968  0.5574  0.7429 -2.0123
   40DMF     H7  969   2.152   1.839   0.872 -1.6776  0.1470  0.4758
   41DMF     C1  970   0.093   0.383   2.948  0.1497 -0.1785  0.1851
   41DMF     N1  971   0.237   0.407   2.913  0.2756  0.2889  0.5494
   41DMF     C2  972   0.272   0.532   2.851 -0.0703 -0.6690  0.1164
   41DMF     C3  973   0.335   0.317   2.952 -0.2461  0.9356 -0.0679
   41DMF     O1  974   0.304   0.213   3.005 -0.2570 -0.3059 -0.0484
   41DMF     H1  975   0.075   0.364   3.055  2.0696 -1.5247  0.2858
   41DMF     H2  976   0.055   0.301   2.886  0.8446 -1.1437  1.0314
   41DMF     H3  977   0.038   0.475   2.922  0.0417 -1.0174 -2.6736
   41DMF     H4  978   0.337   0.500   2.768 -0.8462 -0.2967 -0.6320
   41DMF     H5  979   0.322   0.594   2.925  0.2830 -1.6174  0.6865
   41DMF     H6  980   0.189   0.582   2.800  1.3848 -1.2279 -2.9410
   41DMF     H7  981   0.438   0.356   2.955  0.5442 -0.9303 -1.6285
   42DMF     C1  982   0.919   0.951   1.539  0.3208  0.2196  0.3937
   42DMF     N1  983   1.019   0.843   1.529  0.0185 -0.6822 -0.9560
   42DMF     C2  984   0.971   0.707   1.509  0.2976  0.4889 -0.0244
   42DMF     C3  985   1.149   0.860   1.555 -0.1027  0.2152  0.1660
   42DMF     O1  986   1.210   0.966   1.583  0.1387  0.6403 -0.3390
   42DMF     H1  987   0.828   0.921   1.593 -0.8851 -0.0299 -1.7233
   42DMF     H2  988   0.890   0.972   1.435  0.0293 -0.0261  0.4249
   42DMF     H3  989   0.948   1.048   1.579 -0.3183  0.1759  0.9758
   42DMF     H4  990   1.047   0.633   1.536  1.1342  1.1505 -0.5253
   42DMF     H5  991   0.952   0.691   1.402 -1.7872  1.1821  0.2141
   42DMF     H6  992   0.877   0.696   1.564  0.2699 -1.0869 -0.3641
   42DMF     H7  993   1.204   0.764   1.550  3.0134  1.9163  0.6106
   43DMF     C1  994   2.833   0.604   0.013 -0.4751  0.1790  0.6164
   43DMF     N1  995   2.888   0.595   0.149  0.3383 -0.3582 -0.0251
   43DMF     C2  996   3.026   0.559   0.173 -0.3906  0.4955 -0.2321
   43DMF     C3  997   2.813   0.633   0.260 -0.4595  0.1857 -0.1708
   43DMF     O1  998   2.693   0.659   0.257  0.3112 -0.0007  0.5063
   43DMF     H1  999   2.830   0.711  -0.010  0.3251  0.4838  1.8553
   43DMF     H2 1000   2.736   0.557  -0.004  0.4848 -1.6673  0.0318
   43DMF     H3 1001   2.910   0.558  -0.050 -1.0925 -0.9775  0.6840
   43DMF     H4 1002   3.064   0.575   0.274  1.8109 -2.6119 -0.5107
   43DMF     H5 1003   3.093   0.618   0.109  2.5002 -3.0405 -0.6415
   43DMF     H6 1004   3.042   0.455   0.141  0.1705  0.2886  0.7127
   43DMF     H7 1005   2.885   0.642   0.343 -0.8011 -0.4899  0.2082
   44DMF     C1 1006   2.306   1.586   1.570  0.2116  0.1404 -0.7780
   44DMF     N1 1007   2.343   1.734   1.573 -0.1813 -0.5014  0.0817
   44DMF     C2 1008   2.488   1.768   1.567 -0.3901  0.1557  0.0506
   44DMF     C3 1009   2.244   1.839   1.591  0.0299 -0.3221  0.1403
   44DMF     O1 1010   2.127   1.814   1.571  0.0068 -0.1113 -0.3806
   44DMF     H1 1011   2.381   1.536   1.632  0.1776  1.9523  0.7403
   44DMF     H2 1012   2.302   1.541   1.470 -0.5773 -2.5696  0.3992
   44DMF     H3 1013   2.210   1.571   1.623  1.8676 -0.9633  2.0412
   44DMF     H4 1014   2.519   1.789   1.464  0.3725 -1.2828 -0.0289
   44DMF     H5 1015   2.544   1.682   1.606 -3.4998 -2.9599 -2.0490
   44DMF     H6 1016   2.526   1.835   1.645  0.3052 -0.6626  0.4337
   44DMF     H7 1017   2.286   1.940   1.607  1.7275 -0.9803  0.0212
   45DMF     C1 1018   1.003   0.710   0.266 -0.0612 -0.4262 -0.0053
   45DMF     N1 1019   0.955   0.846   0.288  0.1617  0.0226 -0.4924
   45DMF     C2 1020   0.976   0.946   0.185  0.0981 -0.0149  0.3814
   45DMF     C3 1021   0.878   0.876   0.407  0.8787 -0.5393  0.3430
   45DMF     O1 1022   0.867   0.797   0.503 -0.6521 -0.1909  0.3165
   45DMF     H1 1023   0.991   0.642   0.352 -2.4144  0.5595  0.4930
   45DMF     H2 1024   1.110   0.705   0.246 -0.0447 -0.1829  0.0236
   45DMF     H3 1025   0.947   0.655   0.189  0.1912  0.4920 -0.8422
   45DMF     H4 1026   0.923   1.037   0.215  1.2911  0.5885  0.6772
   45DMF     H5 1027   0.940   0.918   0.085  1.3170 -3.1164  0.7407
   45DMF     H6 1028   1.082   0.976   0.179 -0.0423  0.6258  1.0672
   45DMF     H7 1029   0.824   0.972   0.396  1.4462 -0.1486  0.9307
   46DMF     C1 1030   0.346   2.211   0.823 -0.3415  0.0851  0.2619
   46DMF     N1 1031   0.412   2.325   0.764 -0.3468  0.8736  0.1116
   46DMF     C2 1032   0.392   2.460   0.830  0.5102  0.9935  0.3053
   46DMF     C3 1033   0.478   2.313   0.642 -0.2747  0.4807  0.4941
   46DMF     O1 1034   0.498   2.212   0.576  0.0407 -0.2693 -0.3953
   46DMF     H1 1035   0.258   2.237   0.883 -0.5619  1.9201 -0.8218
   46DMF     H2 1036   0.425   2.165   0.884 -1.3676 -2.2489 -0.1181
   46DMF     H3 1037   0.307   2.139   0.749  0.0579 -0.5887  0.6973
   46DMF     H4 1038   0.474   2.532   0.822  1.3303  0.0776  0.2932
   46DMF     H5 1039   0.362   2.454   0.935  3.3004 -1.5780  1.0160
   46DMF     H6 1040   0.308   2.501   0.772 -0.2289  0.2011  0.7991
   46DMF     H7 1041   0.507   2.414   0.608 -0.8934  1.0328  1.5780
   47DMF     C1 1042   3.321   0.947   0.917  0.1013 -0.3928 -0.5716
   47DMF     N1 1043   3.340   0.808   0.919  0.2959 -0.2191  0.2046
   47DMF     C2 1044   3.349   0.742   0.787 -0.0717  0.4595  0.1182
   47DMF     C3 1045   3.327   0.728   1.036  0.4482 -0.2239  0.1958
   47DMF     O1 1046   3.311   0.779   1.148  0.4205  0.0856  0.5147
   47DMF     H1 1047   3.409   0.993   0.965 -0.2721  0.1374 -0.3897
   47DMF     H2 1048   3.226   0.982   0.958  0.6940 -0.6617  1.0475
   47DMF     H3 1049   3.328   0.981   0.813 -2.0187  1.9645  0.0151
   47DMF     H4 1050   3.355   0.814   0.704  1.0897 -0.1110 -0.2907
   47DMF     H5 1051   3.262   0.675   0.782  0.6964 -0.6266  1.1464
   47DMF     H6 1052   3.437   0.678   0.789  0.2225  0.8909  1.4633
   47DMF     H7 1053   3.309   0.620   1.019 -3.1086  0.2443  0.4968
   48DMF     C1 1054   1.566   2.145   1.548  0.1654 -0.1175  0.7031
   48DMF     N1 1055   1.486   2.168   1.423 -0.2057  0.7310 -0.3984
   48DMF     C2 1056   1.569   2.177   1.296  0.2592 -0.3105  0.2135
   48DMF     C3 1057   1.351   2.176   1.427 -0.0619 -0.0507  0.6121
   48DMF     O1 1058   1.285   2.177   1.529  0.2544 -0.8062  0.7227
   48DMF     H1 1059   1.542   2.232   1.610 -0.2785 -0.4146  0.9495
   48DMF     H2 1060   1.673   2.132   1.527  0.0720  0.8746 -0.4399
   48DMF     H3 1061   1.538   2.056   1.605  0.1882 -0.6209 -0.0628
   48DMF     H4 1062   1.541   2.101   1.221 -1.3378  0.2502  0.2277
   48DMF     H5 1063   1.672   2.156   1.325  0.7689  0.0714 -1.2827
   48DMF     H6 1064   1.560   2.277   1.251  1.3069 -0.2217  0.1810
   48DMF     H7 1065   1.310   2.179   1.324  1.4955 -0.4458 -0.0460
   49DMF     C1 1066   1.568   2.637   0.631  0.3797 -0.1115  0.8141
   49DMF     N1 1067   1.703   2.629   0.683 -0.0902  0.2126  0.7877
   49DMF     C2 1068   1.796   2.541   0.617  0.3641  0.0750  0.1283
   49DMF     C3 1069   1.728   2.692   0.808  0.4145 -0.0395  0.0962
   49DMF     O1 1070   1.643   2.757   0.864 -0.2068 -0.2086 -0.2350
   49DMF     H1 1071   1.491   2.614   0.706 -0.5167  1.3977  0.3816
   49DMF     H2 1072   1.559   2.561   0.553  1.0947 -0.8847  1.4832
   49DMF     H3 1073   1.547   2.735   0.585 -0.9994 -0.7244  0.0920
   49DMF     H4 1074   1.802   2.450   0.679 -2.2302 -0.3143 -0.1060
   49DMF     H5 1075   1.882   2.604   0.596  1.1986 -1.4028 -1.0086
   49DMF     H6 1076   1.758   2.504   0.521  0.4027  1.1105 -0.2852
   49DMF     H7 1077   1.837   2.695   0.827  0.4405 -0.4153  0.0183
   50DMF     C1 1078   0.532   3.101   1.155  0.6515  0.1119 -0.2444
   50DMF     N1 1079   0.587   2.967   1.200  0.7728  0.2733 -0.0239
   50DMF     C2 1080   0.708   2.921   1.131  1.0138 -0.2301 -0.2310
   50DMF     C3 1081   0.515   2.897   1.302  0.3646 -0.6595 -0.1249
   50DMF     O1 1082   0.411   2.939   1.353 -0.1332  0.1322  0.2619
   50DMF     H1 1083   0.507   3.093   1.048  0.1011  0.5432 -0.1500
   50DMF     H2 1084   0.623   3.163   1.157  1.1596 -0.6740  2.4988
   50DMF     H3 1085   0.450   3.143   1.214 -0.9903 -0.0767 -2.3510
   50DMF     H4 1086   0.691   2.832   1.069 -1.2698  0.1198 -0.1286
   50DMF     H5 1087   0.781   2.880   1.202  0.9237  0.2717  0.1536
   50DMF     H6 1088   0.763   2.993   1.069  2.4707 -0.3752  0.8584
   50DMF     H7 1089   0.569   2.805   1.330  1.6586  0.6508  1.7822
   51DMF     C1 1090   1.869   2.566   2.618  0.0882  0.1771 -0.2072
   51DMF     N1 1091   1.787   2.469   2.681 -0.5805 -1.0198 -0.2310
   51DMF     C2 1092   1.730   2.496   2.813 -0.3496 -0.7966  0.2017
   51DMF     C3 1093   1.786   2.335   2.634  0.3357  0.4639 -0.0649
   51DMF     O1 1094   1.827   2.307   2.523 -0.1417  0.6088  0.2632
   51DMF     H1 1095   1.837   2.663   2.658 -0.6050 -0.4606  0.8123
   51DMF     H2 1096   1.856   2.566   2.509  2.8750 -1.9562 -0.5886
   51DMF     H3 1097   1.974   2.539   2.637 -0.2518 -0.8454  0.2124
   51DMF     H4 1098   1.624   2.506   2.787 -0.2918 -0.7452 -0.0241
   51DMF     H5 1099   1.767   2.581   2.871 -0.6880  1.2712 -2.5119
   51DMF     H6 1100   1.732   2.414   2.885 -1.1300  0.7391  1.9972
   51DMF     H7 1101   1.755   2.255   2.703 -0.7639 -0.2568 -1.3840
   52DMF     C1 1102   0.882   3.359   1.482  0.7149  0.4429 -0.2601
   52DMF     N1 1103   0.792   3.240   1.495  0.2237 -0.1988 -0.0383
   52DMF     C2 1104   0.655   3.243   1.462  0.2684  0.0117  0.4089
   52DMF     C3 1105   0.848   3.121   1.539 -0.0445  0.5390  0.3012
   52DMF     O1 1106   0.968   3.101   1.567  0.2526 -0.1408  0.2274
   52DMF     H1 1107   0.906   3.397   1.582  1.5436 -2.7931  0.8293
   52DMF     H2 1108   0.825   3.438   1.432  1.2562  1.5062  0.7812
   52DMF     H3 1109   0.966   3.318   1.425  1.0590 -0.3952  0.8358
   52DMF     H4 1110   0.644   3.153   1.400  0.5569 -0.2780  0.7807
   52DMF     H5 1111   0.648   3.334   1.401  2.1654  1.3256  2.1136
   52DMF     H6 1112   0.581   3.248   1.543  0.6824  0.6417  0.7508
   52DMF     H7 1113   0.781   3.036   1.559 -0.0281  0.8193  1.5618
   53DMF     C1 1114   3.071   2.444   1.322 -0.1741 -0.7712  0.5753
   53DMF     N1 1115   3.158   2.436   1.443  0.0459  0.3038  0.2271
   53DMF     C2 1116   3.108   2.482   1.570 -0.2722 -0.2249 -0.2042
   53DMF     C3 1117   3.286   2.372   1.453  0.0149  0.1309  0.5967
   53DMF     O1 1118   3.336   2.308   1.363  0.0933 -0.3851 -0.2390
   53DMF     H1 1119   3.001   2.362   1.304 -1.1803  0.7162 -2.8369
   53DMF     H2 1120   3.123   2.468   1.228 -1.8739  0.4475 -0.0900
   53DMF     H3 1121   3.009   2.534   1.335  0.2077  0.0128 -2.5682
   53DMF     H4 1122   3.146   2.578   1.606  0.6836  0.2952 -2.4812
   53DMF     H5 1123   3.121   2.406   1.649  0.9836 -2.1609 -2.2082
   53DMF     H6 1124   2.998   2.480   1.565 -0.2758  0.4061 -0.4557
   53DMF     H7 1125   3.327   2.395   1.553  0.3680  1.0942  0.2367
   54DMF     C1 1126   0.256   1.465   0.415 -0.4719  0.0139 -0.1855
   54DMF     N1 1127   0.174   1.559   0.503  0.2394 -0.0808 -0.2941
   54DMF     C2 1128   0.037   1.585   0.460 -0.2546  0.1324 -0.0432
   54DMF     C3 1129   0.218   1.600   0.626 -0.1136  0.4184  0.3893
   54DMF     O1 1130   0.325   1.556   0.664 -0.4124 -0.2717 -0.6171
   54DMF     H1 1131   0.226   1.468   0.310 -4.0975  0.5869  0.7913
   54DMF     H2 1132   0.242   1.361   0.448  0.0973 -0.1475 -0.4354
   54DMF     H3 1133   0.364   1.483   0.425 -0.4538 -0.4588  0.5013
   54DMF     H4 1134  -0.008   1.666   0.517  1.0102  1.5772 -1.0559
   54DMF     H5 1135  -0.013   1.488   0.473 -1.2321  0.6389 -0.0407
   54DMF     H6 1136   0.046   1.609   0.353  0.0196  0.7165  0.1122
   54DMF     H7 1137   0.149   1.667   0.679 -0.5810  2.2740 -2.4496
   55DMF     C1 1138   2.406   0.717   1.221  0.7217  0.3674  0.2382
   55DMF     N1 1139   2.537   0.649   1.232  0.0287  0.9046  0.6459
   55DMF     C2 1140   2.653   0.719   1.190 -0.1305  0.0306 -0.2447
   55DMF     C3 1141   2.541   0.518   1.290 -0.1592  0.9887  0.4746
   55DMF     O1 1142   2.440   0.449   1.301 -0.1691  0.1376  0.0919
   55DMF     H1 1143   2.396   0.737   1.114 -2.2232  0.0108  0.4234
   55DMF     H2 1144   2.410   0.798   1.295  1.0605 -1.3852  2.1912
   55DMF     H3 1145   2.321   0.662   1.263  2.8506 -0.8559  3.1673
   55DMF     H4 1146   2.634   0.821   1.224 -1.6671 -0.4008  0.2290
   55DMF     H5 1147   2.658   0.722   1.081  1.7488  0.7573 -0.1576
   55DMF     H6 1148   2.746   0.673   1.226 -0.1012  0.2924  0.0135
   55DMF     H7 1149   2.642   0.477   1.310 -1.4749 -1.8735  1.5810
   56DMF     C1 1150   1.088   2.507   0.207 -0.3637  0.1800 -0.1048
   56DMF     N1 1151   0.976   2.574   0.140  0.1092  0.0267 -0.2280
   56DMF     C2 1152   0.940   2.523   0.011  0.6759  0.1664  0.3227
   56DMF     C3 1153   0.894   2.662   0.217 -0.6193  0.1787 -0.0902
   56DMF     O1 1154   0.929   2.694   0.332  0.5229  0.0191  0.4711
   56DMF     H1 1155   1.155   2.581   0.253  0.4288 -0.3301 -0.4145
   56DMF     H2 1156   1.152   2.438   0.151 -0.3405 -1.7973  2.2696
   56DMF     H3 1157   1.048   2.445   0.288  0.3427  2.2179  1.8496
   56DMF     H4 1158   0.838   2.550  -0.018  0.1573 -0.7084  1.3044
   56DMF     H5 1159   0.951   2.415   0.019 -2.8700 -0.2817  0.1334
   56DMF     H6 1160   1.007   2.564  -0.066 -3.1322  2.6201 -1.8553
   56DMF     H7 1161   0.808   2.703   0.162 -0.0903  1.3207 -0.0881
   57DMF     C1 1162   1.051   1.490   1.024  0.8255  0.3785  0.3901
   57DMF     N1 1163   0.937   1.587   1.004  0.1769 -0.5885  0.4200
   57DMF     C2 1164   0.891   1.660   1.117  0.3209 -0.4915 -0.9651
   57DMF     C3 1165   0.902   1.635   0.876 -0.1780  0.1904 -0.0424
   57DMF     O1 1166   0.938   1.584   0.767 -0.4199 -0.4537  0.3277
   57DMF     H1 1167   1.047   1.439   1.121 -1.2824  0.9105  0.5946
   57DMF     H2 1168   1.145   1.538   0.994  1.4165 -2.0085 -1.8256
   57DMF     H3 1169   1.032   1.411   0.949 -0.2823  1.3530 -0.3588
   57DMF     H4 1170   0.976   1.717   1.157 -1.8612  0.9263  1.8673
   57DMF     H5 1171   0.856   1.589   1.194  1.5136 -0.3028 -0.2291
   57DMF     H6 1172   0.810   1.731   1.101  0.8894 -0.1711 -2.4440
   57DMF     H7 1173   0.841   1.727   0.885 -2.7243 -1.2350 -1.8479
   58DMF     C1 1174   2.355   2.865   1.226  1.7145 -0.0700  0.0866
   58DMF     N1 1175   2.276   2.983   1.184 -0.2743  0.8477  0.0384
   58DMF     C2 1176   2.308   3.036   1.055 -0.6518 -0.1105 -0.9283
   58DMF     C3 1177   2.167   3.035   1.261  0.5414  0.8002 -0.3720
   58DMF     O1 1178   2.140   2.993   1.369 -0.4777  0.3705  0.0454
   58DMF     H1 1179   2.358   2.864   1.336 -0.6876 -0.9664  0.1814
   58DMF     H2 1180   2.456   2.887   1.193  1.4059  0.7953 -0.2751
   58DMF     H3 1181   2.310   2.774   1.183 -2.3973  1.3085  1.2200
   58DMF     H4 1182   2.269   3.138   1.044 -0.7833  0.1668  1.7839
   58DMF     H5 1183   2.274   2.972   0.973 -0.4683 -0.7775 -0.4853
   58DMF     H6 1184   2.416   3.043   1.041 -0.4208 -0.8054  0.3974
   58DMF     H7 1185   2.113   3.117   1.210  1.0139  0.9718 -0.6008
   59DMF     C1 1186   1.580   0.119   0.520 -0.7976  0.1487 -0.2881
   59DMF     N1 1187   1.616   0.208   0.416 -0.1390  0.9587 -0.9798
   59DMF     C2 1188   1.553   0.342   0.406 -0.3656  0.2966 -0.0621
   59DMF     C3 1189   1.731   0.174   0.341 -0.0812 -0.0379 -0.1333
   59DMF     O1 1190   1.798   0.075   0.347 -0.3862 -0.3921 -0.6938
   59DMF     H1 1191   1.568   0.021   0.471  1.3227  1.2190 -3.0420
   59DMF     H2 1192   1.484   0.144   0.567 -0.8939 -1.7765  0.6047
   59DMF     H3 1193   1.648   0.116   0.606 -1.0675 -0.3952 -0.0855
   59DMF     H4 1194   1.623   0.421   0.375  0.6073  0.2098  1.8647
   59DMF     H5 1195   1.499   0.378   0.495 -0.9883 -0.9675  0.0777
   59DMF     H6 1196   1.475   0.339   0.328 -1.6888  4.1353  1.0006
   59DMF     H7 1197   1.755   0.258   0.273  2.6118 -0.9436 -0.3592
   60DMF     C1 1198   2.720   0.648   3.452 -0.4729 -0.0351  0.3432
   60DMF     N1 1199   2.755   0.599   3.320 -0.3590  0.5980  0.3260
   60DMF     C2 1200   2.658   0.512   3.244 -0.3730 -0.1571  0.8025
   60DMF     C3 1201   2.872   0.666   3.253  0.2398  0.4029  0.6530
   60DMF     O1 1202   2.958   0.728   3.314  0.4244 -0.4376  0.4043
   60DMF     H1 1203   2.757   0.748   3.475 -1.4987  0.3168  0.4993
   60DMF     H2 1204   2.768   0.581   3.525  1.4111  0.4940 -0.4008
   60DMF     H3 1205   2.610   0.645   3.463 -0.4622  0.3717  0.5575
   60DMF     H4 1206   2.655   0.550   3.141 -0.3071 -1.8024  0.1822
   60DMF     H5 1207   2.558   0.509   3.289 -0.7095  1.7621  0.2201
   60DMF     H6 1208   2.687   0.407   3.236 -2.3938 -0.5773 -1.6550
   60DMF     H7 1209   2.870   0.652   3.143 -0.9648 -0.8811  0.8277
   61DMF     C1 1210   1.145   1.705   1.492 -0.6892 -0.1925  0.0060
   61DMF     N1 1211   1.177   1.841   1.545  0.1198 -0.0110 -0.4703
   61DMF     C2 1212   1.317   1.874   1.572 -0.0475 -0.3599  0.1158
   61DMF     C3 1213   1.074   1.928   1.566 -0.3895 -0.1655 -0.1828
   61DMF     O1 1214   0.952   1.905   1.545 -0.2075  0.4651 -0.1308
   61DMF     H1 1215   1.228   1.650   1.448 -0.3399 -0.5679  1.1196
   61DMF     H2 1216   1.076   1.724   1.409 -0.4449  0.4844 -0.0486
   61DMF     H3 1217   1.099   1.646   1.572  0.8378  0.9506  1.7877
   61DMF     H4 1218   1.373   1.909   1.485  1.3579  0.0799  1.1736
   61DMF     H5 1219   1.364   1.780   1.602  1.1801  1.4528  4.2519
   61DMF     H6 1220   1.325   1.954   1.647  1.1387 -0.4543  0.0981
   61DMF     H7 1221   1.119   2.026   1.592  1.5152 -1.1169  0.2246
   62DMF     C1 1222   0.702   0.422   1.565  0.1832  0.2137 -0.6731
   62DMF     N1 1223   0.707   0.326   1.451 -0.0057 -0.0815  0.0395
   62DMF     C2 1224   0.576   0.277   1.387 -0.2438  0.2696 -0.1538
   62DMF     C3 1225   0.831   0.275   1.402 -0.3770  1.0695  0.2761
   62DMF     O1 1226   0.938   0.290   1.453  0.0017  0.0827 -0.1699
   62DMF     H1 1227   0.655   0.519   1.547 -0.9650 -0.0001  1.0930
   62DMF     H2 1228   0.807   0.431   1.595  0.1409 -1.9941  0.2401
   62DMF     H3 1229   0.648   0.372   1.646 -2.3466 -0.2907 -2.5813
   62DMF     H4 1230   0.579   0.168   1.378 -0.4981  0.4303 -2.4569
   62DMF     H5 1231   0.570   0.336   1.295  0.7338  0.9858  0.2371
   62DMF     H6 1232   0.490   0.312   1.445 -1.6857 -1.0198 -1.4546
   62DMF     H7 1233   0.819   0.210   1.313 -0.4380  1.0359  0.3086
   63DMF     C1 1234   0.785   3.100   0.143 -0.0572  0.2075 -0.2750
   63DMF     N1 1235   0.641   3.084   0.164 -0.1546 -0.0730 -0.1264
   63DMF     C2 1236   0.596   2.987   0.258 -0.2079  0.5896 -0.5130
   63DMF     C3 1237   0.546   3.125   0.064  0.1350 -0.2162  0.9604
   63DMF     O1 1238   0.578   3.195  -0.031 -0.7965 -0.5769 -0.2799
   63DMF     H1 1239   0.812   3.206   0.143  2.5246 -0.3897 -1.5683
   63DMF     H2 1240   0.802   3.074   0.038 -0.4701 -0.2220 -0.2357
   63DMF     H3 1241   0.850   3.042   0.210  1.6823  1.0375 -1.1955
   63DMF     H4 1242   0.524   3.028   0.330 -0.4895 -0.5682 -0.1116
   63DMF     H5 1243   0.680   2.942   0.314  0.3598  3.0223  0.6404
   63DMF     H6 1244   0.554   2.901   0.204 -1.8696  0.7331  0.5117
   63DMF     H7 1245   0.445   3.088   0.090 -0.0462 -0.3124  0.1538
   64DMF     C1 1246   3.364   1.974   0.006 -0.3125 -0.4133  0.3660
   64DMF     N1 1247   3.392   1.919   0.139  0.4497 -0.5696  0.5896
   64DMF     C2 1248   3.285   1.846   0.197 -0.3989  0.0654 -0.7581
   64DMF     C3 1249   3.525   1.909   0.187 -0.1414 -0.2523 -0.5997
   64DMF     O1 1250   3.621   1.966   0.136 -0.1071 -0.3876  0.5930
   64DMF     H1 1251   3.440   2.049  -0.021 -0.3382 -0.2002  0.8841
   64DMF     H2 1252   3.267   2.024   0.003 -1.6000 -2.9493 -3.4604
   64DMF     H3 1253   3.375   1.900  -0.074  1.0067  1.0266 -0.8238
   64DMF     H4 1254   3.321   1.776   0.274 -1.5689 -0.5461 -0.7578
   64DMF     H5 1255   3.242   1.776   0.124 -1.2854  1.3124 -1.4384
   64DMF     H6 1256   3.209   1.909   0.245 -0.2053 -1.0185  1.0363
   64DMF     H7 1257   3.524   1.853   0.283 -2.0155  2.0424  0.7618
   65DMF     C1 1258   0.250   1.069   3.695  0.1026  0.0643  1.1734
   65DMF     N1 1259   0.193   1.190   3.753 -0.4724 -0.4083 -0.5341
   65DMF     C2 1260   0.125   1.186   3.881 -0.0443 -0.2721 -0.5042
   65DMF     C3 1261   0.172   1.303   3.675  0.4109  0.4004  0.3007
   65DMF     O1 1262   0.207   1.319   3.562  0.1347  0.6112  0.0434
   65DMF     H1 1263   0.191   0.986   3.735 -0.3002 -0.6421 -0.7984
   65DMF     H2 1264   0.354   1.063   3.729  0.8157 -0.8059 -1.0799
   65DMF     H3 1265   0.242   1.065   3.585  1.4594  0.2883  1.0545
   65DMF     H4 1266   0.171   1.257   3.951  0.0238 -1.0390  0.2366
   65DMF     H5 1267   0.138   1.092   3.937  0.6490  0.9922  1.5021
   65DMF     H6 1268   0.016   1.196   3.871 -0.0022  2.3182  1.0643
   65DMF     H7 1269   0.123   1.385   3.730  1.1253  2.9516 -2.6965
   66DMF     C1 1270   2.243   1.021   3.745  1.3575  0.4948  0.2993
   66DMF     N1 1271   2.175   0.913   3.826  0.1362  0.4917  0.1309
   66DMF     C2 1272   2.067   0.838   3.754 -0.3010  0.0338 -0.1281
   66DMF     C3 1273   2.227   0.862   3.944  1.0114 -0.7653  0.3908
   66DMF     O1 1274   2.321   0.909   3.998  0.3098 -0.3904 -0.1120
   66DMF     H1 1275   2.166   1.099   3.739  2.3482  1.4297 -0.4304
   66DMF     H2 1276   2.261   0.979   3.646 -1.7720  0.9698 -0.5156
   66DMF     H3 1277   2.335   1.051   3.797  1.1046 -0.3277  1.2449
   66DMF     H4 1278   2.075   0.729   3.766 -1.3498 -0.5051 -3.9349
   66DMF     H5 1279   2.077   0.855   3.647  1.3632 -2.0960 -0.3549
   66DMF     H6 1280   1.975   0.870   3.804  1.0178  2.0177  1.1393
   66DMF     H7 1281   2.171   0.770   3.969 -0.4083  0.5121  2.0030
   67DMF     C1 1282   2.897   2.949   1.494  0.4487 -0.8623 -0.8296
   67DMF     N1 1283   3.007   3.030   1.552  0.6195 -0.5219 -0.4339
   67DMF     C2 1284   3.131   2.961   1.576  0.2565 -0.1860 -0.5287
   67DMF     C3 1285   3.002   3.170   1.558 -0.0470  0.8536 -0.0976
   67DMF     O1 1286   2.897   3.228   1.541  0.4325 -0.3517  0.2292
   67DMF     H1 1287   2.933   2.856   1.448  3.9420 -0.7593  1.4748
   67DMF     H2 1288   2.868   3.015   1.412 -2.9583 -1.1066  0.1077
   67DMF     H3 1289   2.810   2.941   1.560  1.4847 -0.7567  0.5750
   67DMF     H4 1290   3.208   3.011   1.635 -0.0544 -2.6188  2.0637
   67DMF     H5 1291   3.168   2.941   1.474  0.7616  0.1218 -0.4004
   67DMF     H6 1292   3.107   2.862   1.618  1.6848 -0.2722  0.0870
   67DMF     H7 1293   3.101   3.216   1.576  0.4774 -1.0505  2.2059
   68DMF     C1 1294   0.124   0.378   0.800  0.4624  0.0914 -0.0600
   68DMF     N1 1295   0.238   0.334   0.891  0.2629 -0.3149  0.1660
   68DMF     C2 1296   0.315   0.215   0.851  0.3816 -0.5380 -0.3655
   68DMF     C3 1297   0.273   0.415   1.000 -0.5332 -0.1149  0.0097
   68DMF     O1 1298   0.209   0.512   1.023  0.2360 -0.3994 -0.5270
   68DMF     H1 1299   0.028   0.410   0.842  1.7828  1.5349  1.9631
   68DMF     H2 1300   0.092   0.282   0.757 -0.6372  0.1677  0.5744
   68DMF     H3 1301   0.158   0.455   0.730 -2.7284  3.2835  1.7751
   68DMF     H4 1302   0.301   0.125   0.912  0.0935 -1.5243 -1.8597
   68DMF     H5 1303   0.421   0.240   0.846 -0.0686  1.2100 -1.5972
   68DMF     H6 1304   0.280   0.188   0.751  0.8693  1.1854 -1.0185
   68DMF     H7 1305   0.359   0.382   1.061 -0.4925 -1.7195 -0.8773
   69DMF     C1 1306   1.940   0.762   2.750 -0.2188 -0.0779  0.0981
   69DMF     N1 1307   1.883   0.737   2.614  0.2861 -0.3019 -0.2346
   69DMF     C2 1308   1.749   0.800   2.591 -0.2894  1.1242  0.1292
   69DMF     C3 1309   1.938   0.652   2.521 -0.0790  0.0335  0.5169
   69DMF     O1 1310   2.052   0.615   2.534  0.2704 -0.0972  0.1585
   69DMF     H1 1311   2.036   0.709   2.761  0.4597  1.0365 -0.3075
   69DMF     H2 1312   1.862   0.750   2.826  0.0193 -2.1410  0.0537
   69DMF     H3 1313   1.976   0.865   2.766 -0.0064 -0.4106  1.9005
   69DMF     H4 1314   1.713   0.805   2.487 -0.8126  0.3786  0.2635
   69DMF     H5 1315   1.740   0.898   2.639 -1.1822  1.1687 -0.1123
   69DMF     H6 1316   1.680   0.727   2.635  1.5436  1.3074  3.5008
   69DMF     H7 1317   1.871   0.627   2.436  0.3755  2.4239 -0.5751
   70DMF     C1 1318   1.356   0.350   0.871 -0.0526  0.2695  0.0941
   70DMF     N1 1319   1.463   0.440   0.833  0.9453  0.0784 -0.1065
   70DMF     C2 1320   1.598   0.384   0.816  0.1544 -0.1237 -0.5635
   70DMF     C3 1321   1.450   0.578   0.852 -0.6073  0.1911 -0.0060
   70DMF     O1 1322   1.350   0.626   0.895  0.2137 -0.1606  0.0944
   70DMF     H1 1323   1.355   0.256   0.814 -0.7334 -0.1904  0.8506
   70DMF     H2 1324   1.263   0.405   0.853 -0.2648 -1.5043 -4.9792
   70DMF     H3 1325   1.357   0.332   0.979 -1.3802  1.1192  0.2530
   70DMF     H4 1326   1.668   0.457   0.773  1.5560 -1.3145 -0.3565
   70DMF     H5 1327   1.601   0.301   0.744  0.4414  0.3269 -1.0738
   70DMF     H6 1328   1.638   0.345   0.910 -2.8648 -1.3390  0.2771
   70DMF     H7 1329   1.540   0.631   0.816 -0.1342  0.0545  0.9735
   71DMF     C1 1330   0.035   2.019   0.593 -0.2383  0.3248  0.0308
   71DMF     N1 1331   0.169   2.041   0.522  0.0050 -0.0222  0.2237
   71DMF     C2 1332   0.279   1.940   0.540  0.6538 -0.1157 -0.3650
   71DMF     C3 1333   0.186   2.149   0.430  0.0524  0.3250  0.2886
   71DMF     O1 1334   0.104   2.233   0.403  0.5635 -0.3060 -0.1621
   71DMF     H1 1335  -0.038   2.078   0.536  0.9147  0.4979 -1.2948
   71DMF     H2 1336   0.039   2.054   0.697  0.0651 -2.7595  1.1314
   71DMF     H3 1337   0.010   1.912   0.593 -1.7229  0.6081  3.1951
   71DMF     H4 1338   0.329   1.910   0.447  1.7166  1.8891 -0.4460
   71DMF     H5 1339   0.241   1.849   0.588 -0.7990  0.9127  0.4646
   71DMF     H6 1340   0.363   1.988   0.591  0.2478 -0.5313  0.7158
   71DMF     H7 1341   0.286   2.141   0.385 -0.1723  1.1600 -0.3841
   72DMF     C1 1342   2.226   2.272   0.425  0.3882  0.9500  0.0935
   72DMF     N1 1343   2.245   2.377   0.526  0.0597 -0.0814  0.0371
   72DMF     C2 1344   2.145   2.473   0.562  0.2901 -0.4205  0.7525
   72DMF     C3 1345   2.360   2.389   0.594  0.3718  0.2844 -0.0466
   72DMF     O1 1346   2.452   2.311   0.576  0.5210  0.0328 -0.6447
   72DMF     H1 1347   2.251   2.177   0.474 -1.2597  0.5147  0.1205
   72DMF     H2 1348   2.291   2.286   0.339  0.5682  0.1095  0.0886
   72DMF     H3 1349   2.123   2.278   0.388  0.2372 -1.7456  0.0225
   72DMF     H4 1350   2.056   2.461   0.499  0.3259  0.7998  0.4402
   72DMF     H5 1351   2.176   2.578   0.555 -1.1647  0.0472  1.1500
   72DMF     H6 1352   2.107   2.461   0.664 -2.5245 -0.1324 -0.2160
   72DMF     H7 1353   2.354   2.478   0.660 -0.0936  0.3465 -0.1697
   73DMF     C1 1354   2.568   0.299   0.878  0.1849  0.0577 -0.1349
   73DMF     N1 1355   2.480   0.271   0.997 -0.4857  0.1417  0.2171
   73DMF     C2 1356   2.511   0.141   1.080  0.7064 -0.2704 -0.2606
   73DMF     C3 1357   2.381   0.358   1.030  0.2161  0.1032 -0.1895
   73DMF     O1 1358   2.354   0.453   0.960  0.0059 -0.8956  0.2057
   73DMF     H1 1359   2.529   0.377   0.812  1.8399  0.7010 -0.3856
   73DMF     H2 1360   2.588   0.208   0.820  0.1894  0.8400 -1.3885
   73DMF     H3 1361   2.665   0.327   0.921  0.7964 -2.4675  0.2163
   73DMF     H4 1362   2.611   0.106   1.054  0.0552  0.2239 -3.6901
   73DMF     H5 1363   2.432   0.068   1.057  1.3628 -1.6013  1.6650
   73DMF     H6 1364   2.500   0.161   1.187  0.4580 -0.6014 -0.2243
   73DMF     H7 1365   2.318   0.317   1.111  0.8756 -0.5543 -0.0011
   74DMF     C1 1366   0.868   3.329   1.082  0.4916  0.0431  0.0453
   74DMF     N1 1367   0.765   3.367   0.984 -0.2757  0.3878 -0.2569
   74DMF     C2 1368   0.799   3.356   0.844 -0.0885 -0.1290  0.2479
   74DMF     C3 1369   0.647   3.431   1.018  0.0330 -0.7399  0.5921
   74DMF     O1 1370   0.614   3.440   1.138 -0.3049  0.6079  0.2944
   74DMF     H1 1371   0.844   3.246   1.150 -0.7512 -1.5504 -2.2811
   74DMF     H2 1372   0.897   3.416   1.143  0.4585 -0.3277  0.5946
   74DMF     H3 1373   0.965   3.303   1.039  0.7709 -0.2204  0.8153
   74DMF     H4 1374   0.727   3.298   0.786  1.1427 -1.0308 -0.4116
   74DMF     H5 1375   0.898   3.311   0.827 -0.5936 -0.9607 -0.5411
   74DMF     H6 1376   0.795   3.460   0.809  2.3552 -0.0149  0.2208
   74DMF     H7 1377   0.583   3.469   0.936 -0.5882  0.0696  1.4341
   75DMF     C1 1378   1.945   1.222   3.546  0.2211 -0.1394 -0.1771
   75DMF     N1 1379   1.803   1.192   3.510 -0.0409  0.0080 -0.4107
   75DMF     C2 1380   1.776   1.146   3.377 -1.4571  0.1556  0.7010
   75DMF     C3 1381   1.688   1.237   3.580  0.1227  0.4185  0.8858
   75DMF     O1 1382   1.697   1.296   3.683 -0.5158  0.4562 -0.1774
   75DMF     H1 1383   2.008   1.225   3.456  0.0668 -0.0919 -0.2839
   75DMF     H2 1384   1.976   1.145   3.617 -2.2289  3.0268  4.6076
   75DMF     H3 1385   1.959   1.322   3.590  0.8333 -0.1791 -0.2792
   75DMF     H4 1386   1.759   1.240   3.322 -0.7736 -1.1339 -1.8005
   75DMF     H5 1387   1.676   1.104   3.357 -1.6410  1.5975 -1.5669
   75DMF     H6 1388   1.859   1.094   3.327 -1.1842  0.8008  0.4778
   75DMF     H7 1389   1.595   1.209   3.527  0.4834  0.7444  0.0838
   76DMF     C1 1390   0.936   2.769   1.545  1.1037  0.6967  0.1812
   76DMF     N1 1391   0.839   2.657   1.547 -0.3649 -0.4448  0.2001
   76DMF     C2 1392   0.896   2.526   1.512 -0.4593  0.3963 -0.3217
   76DMF     C3 1393   0.702   2.678   1.556  0.3491  0.1029 -0.6033
   76DMF     O1 1394   0.652   2.787   1.559  0.3690  0.4775  0.2193
   76DMF     H1 1395   0.907   2.846   1.617 -0.5775 -0.3780  0.6837
   76DMF     H2 1396   0.939   2.823   1.450  2.7355  1.4212  0.6262
   76DMF     H3 1397   1.038   2.736   1.568  2.0091  3.4873  0.3977
   76DMF     H4 1398   0.893   2.508   1.404 -0.4481 -2.0015  0.0356
   76DMF     H5 1399   0.849   2.441   1.565  1.3016  0.8124  1.9646
   76DMF     H6 1400   1.003   2.529   1.537 -0.6204  0.5111  0.3732
   76DMF     H7 1401   0.640   2.587   1.550 -1.0879  1.1077 -1.4955
   77DMF     C1 1402   1.623   2.336   3.342  0.0416 -0.3720 -0.7911
   77DMF     N1 1403   1.727   2.285   3.445 -0.4593 -0.2202 -0.3081
   77DMF     C2 1404   1.836   2.378   3.481 -0.3067 -1.1547 -0.0733
   77DMF     C3 1405   1.705   2.161   3.515 -0.3507  0.5234  0.1611
   77DMF     O1 1406   1.618   2.086   3.481  0.5293 -0.0257  0.0347
   77DMF     H1 1407   1.668   2.399   3.265  2.4345 -0.1760  0.7305
   77DMF     H2 1408   1.542   2.390   3.393 -0.4283 -1.5098 -0.3232
   77DMF     H3 1409   1.566   2.249   3.305  1.4273 -1.5901 -0.1116
   77DMF     H4 1410   1.801   2.462   3.542 -0.9708 -1.0304 -0.6159
   77DMF     H5 1411   1.882   2.415   3.388  0.7370 -0.9239  0.5255
   77DMF     H6 1412   1.922   2.333   3.533 -0.0953 -0.4387  0.2046
   77DMF     H7 1413   1.769   2.143   3.603  0.5680  0.2558 -0.5568
   78DMF     C1 1414   2.495   2.564   1.347  0.0651  0.7705 -0.2534
   78DMF     N1 1415   2.524   2.628   1.475  0.2328 -0.2575  0.0012
   78DMF     C2 1416   2.417   2.630   1.576  0.0388 -0.1609  0.1875
   78DMF     C3 1417   2.632   2.716   1.475 -0.5956 -0.6645 -0.1009
   78DMF     O1 1418   2.713   2.718   1.385 -0.7572  0.2256  0.0175
   78DMF     H1 1419   2.400   2.508   1.351  1.3657 -1.4936  0.1683
   78DMF     H2 1420   2.580   2.499   1.324 -1.4931 -0.3637 -3.0483
   78DMF     H3 1421   2.491   2.645   1.274 -0.4063  1.6642  0.7506
   78DMF     H4 1422   2.443   2.701   1.655 -0.6797  0.9959 -0.5982
   78DMF     H5 1423   2.394   2.533   1.621  1.4744  0.1343  1.6199
   78DMF     H6 1424   2.330   2.670   1.523 -0.2702  0.7384  1.3729
   78DMF     H7 1425   2.644   2.778   1.565 -0.2494  1.5721 -1.6321
   79DMF     C1 1426   0.124   2.466   3.572 -0.3207  0.2525  0.4200
   79DMF     N1 1427   0.102   2.614   3.608 -0.1850  0.7617 -0.4276
   79DMF     C2 1428  -0.005   2.680   3.534 -0.3924 -0.4089 -0.8323
   79DMF     C3 1429   0.195   2.692   3.684  1.2168  0.5338  0.3928
   79DMF     O1 1430   0.286   2.637   3.746  0.3638  0.2176  0.3698
   79DMF     H1 1431   0.198   2.433   3.646  0.6742 -1.0153 -1.0992
   79DMF     H2 1432   0.176   2.470   3.476 -3.3471  1.2343 -1.2342
   79DMF     H3 1433   0.028   2.414   3.573  0.7239 -1.7505 -0.3363
   79DMF     H4 1434   0.033   2.700   3.433  0.0881 -1.4685 -0.8702
   79DMF     H5 1435  -0.037   2.775   3.577 -3.5483 -1.8337  0.1442
   79DMF     H6 1436  -0.093   2.614   3.534  0.0192 -0.9795  0.5959
   79DMF     H7 1437   0.167   2.799   3.686 -2.3204 -0.2914 -2.1967
   80DMF     C1 1438   1.622   1.506   1.557  0.1451 -0.1726  0.7098
   80DMF     N1 1439   1.754   1.560   1.543  0.9507  0.2777  0.1152
   80DMF     C2 1440   1.862   1.472   1.518  0.9818  0.2400  0.1294
   80DMF     C3 1441   1.768   1.698   1.530  0.5130  0.3765  0.5788
   80DMF     O1 1442   1.672   1.764   1.519  0.3382 -0.0545 -0.7594
   80DMF     H1 1443   1.577   1.466   1.465 -0.8326  0.1302  1.0483
   80DMF     H2 1444   1.543   1.573   1.593 -1.0667 -0.4032 -1.4113
   80DMF     H3 1445   1.637   1.430   1.634  0.9204 -1.4869 -0.7224
   80DMF     H4 1446   1.879   1.395   1.595 -1.2043  0.4258  0.8070
   80DMF     H5 1447   1.954   1.533   1.511  1.5637 -0.7970 -1.5296
   80DMF     H6 1448   1.847   1.421   1.422 -0.2853 -1.0243  0.9873
   80DMF     H7 1449   1.870   1.728   1.503  1.3117 -2.4532  0.2405
   81DMF     C1 1450   0.245   3.281   0.431 -0.8746  0.2413  0.7096
   81DMF     N1 1451   0.272   3.166   0.519 -0.1052 -0.5080 -0.8286
   81DMF     C2 1452   0.379   3.173   0.620 -0.3473  0.0478  0.0481
   81DMF     C3 1453   0.179   3.059   0.536  0.0791 -0.3612  0.1967
   81DMF     O1 1454   0.077   3.058   0.479  0.0868  0.2140  0.6455
   81DMF     H1 1455   0.141   3.297   0.401 -1.2567 -1.1038  1.2795
   81DMF     H2 1456   0.294   3.257   0.335 -2.0039 -0.2459  0.2469
   81DMF     H3 1457   0.294   3.366   0.480  0.3302 -0.0216  0.0000
   81DMF     H4 1458   0.467   3.142   0.563 -1.4727 -1.7410 -0.7520
   81DMF     H5 1459   0.368   3.100   0.701  2.4513 -1.6300 -0.9845
   81DMF     H6 1460   0.383   3.270   0.670 -0.7307  0.1179 -0.0603
   81DMF     H7 1461   0.208   2.975   0.601 -0.7997 -1.7982 -1.2522
   82DMF     C1 1462   3.204   2.512   3.773  0.1584 -0.7028 -0.1714
   82DMF     N1 1463   3.329   2.497   3.841  0.2275 -0.1189 -0.2143
   82DMF     C2 1464   3.344   2.591   3.946  0.3458 -0.4486 -0.4530
   82DMF     C3 1465   3.399   2.373   3.842  0.1088  0.0046 -0.9307
   82DMF     O1 1466   3.346   2.279   3.788 -0.4858  0.2842 -0.2703
   82DMF     H1 1467   3.213   2.469   3.672 -0.8329 -0.2419 -0.4636
   82DMF     H2 1468   3.174   2.616   3.754 -0.3188 -1.0365 -1.2475
   82DMF     H3 1469   3.126   2.463   3.833  1.1487  1.6857  3.2393
   82DMF     H4 1470   3.308   2.692   3.924  0.2717 -0.3207  0.2533
   82DMF     H5 1471   3.444   2.597   3.989 -0.0527  0.0827  0.4100
   82DMF     H6 1472   3.290   2.557   4.036 -1.3212  1.4906 -0.6764
   82DMF     H7 1473   3.497   2.366   3.894 -0.1859 -1.0062 -0.5105
   83DMF     C1 1474   2.216   0.577   1.531  0.3850  0.6262  0.1299
   83DMF     N1 1475   2.105   0.494   1.471 -0.1427  0.1540  0.1213
   83DMF     C2 1476   2.145   0.421   1.348 -0.0462 -0.4539 -0.8636
   83DMF     C3 1477   1.977   0.494   1.522  0.7152  0.8265 -0.2829
   83DMF     O1 1478   1.953   0.553   1.622 -0.0029 -1.1513 -0.5496
   83DMF     H1 1479   2.306   0.514   1.535 -0.1009  0.0037  1.7876
   83DMF     H2 1480   2.203   0.593   1.639 -0.1799  0.8171  0.0362
   83DMF     H3 1481   2.235   0.671   1.479 -0.2338  0.7946  0.2020
   83DMF     H4 1482   2.184   0.322   1.376 -1.2601 -0.6207  0.2726
   83DMF     H5 1483   2.217   0.480   1.290  0.2622  0.9080  0.8709
   83DMF     H6 1484   2.060   0.395   1.284  0.8004 -0.3261 -2.0617
   83DMF     H7 1485   1.898   0.440   1.467  0.6149 -1.0868  1.7120
   84DMF     C1 1486   2.757   1.645   1.039  0.1213  0.2456 -0.6521
   84DMF     N1 1487   2.651   1.747   1.027  0.9724 -0.8548 -0.1879
   84DMF     C2 1488   2.607   1.780   0.893  0.0430  0.1178  0.0039
   84DMF     C3 1489   2.624   1.837   1.133 -0.2891  0.2360 -0.1505
   84DMF     O1 1490   2.678   1.823   1.245  0.2743 -0.1282 -0.2487
   84DMF     H1 1491   2.778   1.589   0.947 -1.3357  0.2356 -0.9922
   84DMF     H2 1492   2.722   1.561   1.100 -0.0156  0.6552 -0.1650
   84DMF     H3 1493   2.843   1.687   1.092  0.4478 -0.1850 -0.8400
   84DMF     H4 1494   2.697   1.816   0.842  0.7320  0.5740  1.5201
   84DMF     H5 1495   2.540   1.867   0.890  1.5653  1.2953 -0.4487
   84DMF     H6 1496   2.571   1.699   0.828  0.7435 -0.9936  0.9963
   84DMF     H7 1497   2.547   1.915   1.121 -0.9154 -0.4709 -0.8212
   85DMF     C1 1498   2.342   2.641   3.449  0.2230  0.1559 -0.1462
   85DMF     N1 1499   2.365   2.691   3.314 -0.2158  0.2586 -0.9407
   85DMF     C2 1500   2.326   2.610   3.199  0.0107  0.5749 -1.3531
   85DMF     C3 1501   2.394   2.817   3.291  0.6092  0.0853 -0.1152
   85DMF     O1 1502   2.398   2.897   3.379  0.2984  0.2210  0.1608
   85DMF     H1 1503   2.429   2.673   3.507 -1.5017  2.7938  1.1405
   85DMF     H2 1504   2.325   2.534   3.463 -2.3943  0.5033 -0.4351
   85DMF     H3 1505   2.252   2.692   3.488 -1.1351 -0.5764 -2.2829
   85DMF     H4 1506   2.361   2.643   3.101  0.6563 -0.8746 -1.6320
   85DMF     H5 1507   2.217   2.622   3.201 -0.1142 -0.5405  0.2979
   85DMF     H6 1508   2.354   2.506   3.219 -0.3705  0.8609  0.7940
   85DMF     H7 1509   2.381   2.849   3.185  0.2582  1.4989  0.3420
   86DMF     C1 1510   1.288   1.622   3.550 -0.4569  0.0412 -0.5716
   86DMF     N1 1511   1.369   1.521   3.609  0.9074 -0.4321 -0.0995
   86DMF     C2 1512   1.325   1.384   3.585  0.1238 -0.4466 -0.4523
   86DMF     C3 1513   1.471   1.551   3.703  0.5508 -0.1693 -0.0740
   86DMF     O1 1514   1.514   1.659   3.724 -0.3557 -0.1420  0.7022
   86DMF     H1 1515   1.304   1.628   3.442 -3.3749 -1.2793 -1.1214
   86DMF     H2 1516   1.312   1.723   3.588  0.2285 -0.1678 -0.4401
   86DMF     H3 1517   1.184   1.608   3.581 -0.0030  1.6447  1.8348
   86DMF     H4 1518   1.407   1.319   3.620  2.1291  1.5125 -1.4279
   86DMF     H5 1519   1.319   1.374   3.476  1.0672  1.6213 -0.7133
   86DMF     H6 1520   1.230   1.351   3.630  0.7629 -2.0601 -0.2328
   86DMF     H7 1521   1.513   1.459   3.748  0.1188 -1.2498 -1.8246
   87DMF     C1 1522   0.084   0.726   2.243 -0.0748  0.8548 -0.0820
   87DMF     N1 1523   0.005   0.853   2.253  0.0446 -0.1384  0.6500
   87DMF     C2 1524   0.072   0.975   2.278  0.9325 -0.2219  0.7718
   87DMF     C3 1525  -0.132   0.842   2.257 -0.2509 -0.1876 -0.6445
   87DMF     O1 1526  -0.188   0.741   2.227 -0.8745 -0.1442  0.1971
   87DMF     H1 1527   0.065   0.671   2.151 -1.3929 -0.8154  1.1568
   87DMF     H2 1528   0.073   0.656   2.327  0.7824  0.0329 -0.6485
   87DMF     H3 1529   0.190   0.750   2.226 -0.0455  0.8281  0.0646
   87DMF     H4 1530   0.076   1.000   2.385 -0.9476  0.8483  0.6142
   87DMF     H5 1531   0.015   1.053   2.225  0.2302 -2.6100 -2.1056
   87DMF     H6 1532   0.176   0.976   2.245 -0.2594  1.1613 -3.2241
   87DMF     H7 1533  -0.180   0.936   2.289  0.3574  0.4099 -1.4662
   88DMF     C1 1534   3.293   0.402   1.494 -0.1136 -0.0692 -0.2435
   88DMF     N1 1535   3.372   0.372   1.368  0.0708 -0.5022  0.9022
   88DMF     C2 1536   3.324   0.434   1.247 -0.7047 -0.4799  0.5641
   88DMF     C3 1537   3.507   0.329   1.375  0.8532  0.3298  0.5393
   88DMF     O1 1538   3.561   0.283   1.473 -0.1941 -0.0003 -0.1223
   88DMF     H1 1539   3.190   0.417   1.457  0.7772  1.3653 -2.2278
   88DMF     H2 1540   3.336   0.493   1.536  0.4869  0.1103 -1.2197
   88DMF     H3 1541   3.289   0.321   1.568  0.8183 -1.4790 -1.7122
   88DMF     H4 1542   3.314   0.543   1.257  1.6611 -0.3242  1.4090
   88DMF     H5 1543   3.227   0.391   1.217 -0.9900  0.6189 -0.1285
   88DMF     H6 1544   3.381   0.408   1.157 -2.7635 -2.0212 -0.3552
   88DMF     H7 1545   3.566   0.328   1.281 -2.7301 -0.4545 -1.8221
   89DMF     C1 1546   3.000   0.486   2.265  0.1883 -0.0545  0.2480
   89DMF     N1 1547   2.885   0.399   2.225  0.3155 -0.2343 -0.5686
   89DMF     C2 1548   2.896   0.253   2.248 -0.6744 -0.1814  0.6036
   89DMF     C3 1549   2.754   0.450   2.212 -0.1254  0.7295 -1.0260
   89DMF     O1 1550   2.727   0.568   2.205 -0.3574 -0.5255 -0.0837
   89DMF     H1 1551   3.032   0.570   2.201  0.2305 -1.0393 -1.0503
   89DMF     H2 1552   3.081   0.414   2.281  1.3227  1.3540  0.9108
   89DMF     H3 1553   2.978   0.537   2.359  0.4229 -1.0930  0.8774
   89DMF     H4 1554   2.993   0.217   2.210 -0.8516  1.5245 -1.5604
   89DMF     H5 1555   2.817   0.205   2.189 -0.3591 -1.2267  1.0133
   89DMF     H6 1556   2.887   0.229   2.354 -0.8114  0.2912  0.6994
   89DMF     H7 1557   2.676   0.372   2.207  0.3160  0.1243  1.2441
   90DMF     C1 1558   1.633   3.417   0.942 -0.0466  0.2674 -0.0795
   90DMF     N1 1559   1.528   3.371   1.026 -0.0011  0.3089 -0.8962
   90DMF     C2 1560   1.436   3.272   0.964  0.4960 -0.1784 -0.5481
   90DMF     C3 1561   1.511   3.421   1.157  0.6464 -0.3095 -0.3606
   90DMF     O1 1562   1.589   3.498   1.210 -0.5692  0.0799 -0.1411
   90DMF     H1 1563   1.645   3.348   0.858  2.5342  1.2323 -0.5652
   90DMF     H2 1564   1.726   3.420   1.002 -0.2422  0.6513  0.2064
   90DMF     H3 1565   1.607   3.516   0.903 -1.8306 -0.2941 -0.3096
   90DMF     H4 1566   1.407   3.294   0.860 -2.3784 -0.2152  0.2077
   90DMF     H5 1567   1.345   3.272   1.024  0.5839  1.7786 -0.3898
   90DMF     H6 1568   1.482   3.173   0.974  1.4183  0.2040 -0.9191
   90DMF     H7 1569   1.428   3.371   1.210 -0.5449 -0.3561 -2.2216
   91DMF     C1 1570   2.743   1.845   0.285 -0.4895  0.1658  0.0223
   91DMF     N1 1571   2.770   1.750   0.170  0.1313 -0.1374  0.4294
   91DMF     C2 1572   2.662   1.659   0.130 -0.1102 -0.4478 -0.6565
   91DMF     C3 1573   2.903   1.727   0.121  0.0396 -0.0081 -1.0105
   91DMF     O1 1574   2.998   1.791   0.154 -0.6641 -0.1858 -0.0954
   91DMF     H1 1575   2.643   1.816   0.321 -0.6909 -0.0225 -0.6846
   91DMF     H2 1576   2.735   1.948   0.248  0.2910  0.2183  0.0015
   91DMF     H3 1577   2.818   1.839   0.364  0.5249  0.1825 -0.9367
   91DMF     H4 1578   2.669   1.568   0.190  0.2056  0.5219  0.8047
   91DMF     H5 1579   2.687   1.624   0.030  0.9395  1.5278 -1.1250
   91DMF     H6 1580   2.562   1.704   0.127 -0.9030 -2.1834 -0.4358
   91DMF     H7 1581   2.900   1.643   0.049 -0.1460 -0.6812 -0.2296
   92DMF     C1 1582   2.846   1.521   1.461  0.8310 -0.4856 -0.2280
   92DMF     N1 1583   2.809   1.395   1.529  0.2077 -0.3309  0.0808
   92DMF     C2 1584   2.656   1.363   1.535 -0.3655  0.3858 -0.3956
   92DMF     C3 1585   2.904   1.311   1.582 -0.4263  0.4013 -0.2926
   92DMF     O1 1586   3.028   1.333   1.577 -0.7128  0.0854 -0.0391
   92DMF     H1 1587   2.913   1.582   1.524 -1.2376  1.6076  0.0234
   92DMF     H2 1588   2.755   1.576   1.433  1.7120  1.6121  0.8836
   92DMF     H3 1589   2.895   1.500   1.365  0.7187 -1.3886 -0.0916
   92DMF     H4 1590   2.615   1.354   1.433  0.3380  1.0299 -0.7413
   92DMF     H5 1591   2.603   1.443   1.588 -0.6453 -1.4106  2.0629
   92DMF     H6 1592   2.636   1.277   1.599 -1.3271 -0.1262 -1.3599
   92DMF     H7 1593   2.856   1.221   1.626  1.3607 -1.0516 -1.2261
   93DMF     C1 1594   0.659   2.196   1.528 -0.1442  0.3364 -0.0439
   93DMF     N1 1595   0.513   2.183   1.536 -0.3496  0.8355  0.6918
   93DMF     C2 1596   0.443   2.045   1.514 -0.4017  0.1963  0.5264
   93DMF     C3 1597   0.432   2.295   1.555  0.2623  0.0100 -0.3671
   93DMF     O1 1598   0.488   2.402   1.583 -0.6470 -0.1319  0.1784
   93DMF     H1 1599   0.697   2.240   1.621  0.3857  1.3076 -0.7184
   93DMF     H2 1600   0.690   2.260   1.445 -0.1389 -0.5078 -0.7007
   93DMF     H3 1601   0.705   2.097   1.519 -1.9825 -0.3589 -2.0265
   93DMF     H4 1602   0.495   1.984   1.439  0.3539  1.6925 -0.1706
   93DMF     H5 1603   0.337   2.046   1.486 -0.2504  0.8237 -0.0288
   93DMF     H6 1604   0.455   2.006   1.616 -0.3805  0.2336  0.5377
   93DMF     H7 1605   0.325   2.271   1.565  0.7994 -2.0775  0.8364
   94DMF     C1 1606   3.162   1.483   0.929 -0.8001  0.1465  0.1637
   94DMF     N1 1607   3.221   1.350   0.901 -1.0964 -0.0347 -1.2514
   94DMF     C2 1608   3.195   1.252   0.999 -0.2376 -0.2966  0.0706
   94DMF     C3 1609   3.277   1.308   0.783 -1.0446  0.7830  0.1973
   94DMF     O1 1610   3.289   1.368   0.679 -0.8005 -0.6591 -0.0982
   94DMF     H1 1611   3.239   1.561   0.920 -0.5807 -0.1090 -0.1953
   94DMF     H2 1612   3.132   1.483   1.034  0.0606  0.1788  0.4129
   94DMF     H3 1613   3.080   1.518   0.865  0.7087  0.5087 -1.6284
   94DMF     H4 1614   3.292   1.207   1.022 -0.0813  0.8348  1.6838
   94DMF     H5 1615   3.121   1.178   0.966 -0.4794  0.1266 -0.3411
   94DMF     H6 1616   3.153   1.293   1.092 -1.1065 -3.0500  0.9509
   94DMF     H7 1617   3.311   1.204   0.794 -1.5354  0.7355  1.4029
   95DMF     C1 1618   2.817   2.079   0.968  0.1689  0.1203 -0.2447
   95DMF     N1 1619   2.744   2.118   0.848 -0.0415 -0.1393  1.1491
   95DMF     C2 1620   2.824   2.115   0.723  0.2596 -0.5353 -0.2788
   95DMF     C3 1621   2.607   2.148   0.845  0.5212 -0.4409 -0.2397
   95DMF     O1 1622   2.539   2.128   0.943  0.3269  0.0313 -0.3682
   95DMF     H1 1623   2.909   2.136   0.986  1.9051 -2.2243 -1.4132
   95DMF     H2 1624   2.846   1.973   0.958  0.6212  0.2828 -0.6219
   95DMF     H3 1625   2.758   2.096   1.059 -1.6621 -1.0674 -1.1801
   95DMF     H4 1626   2.929   2.096   0.749  0.7488 -0.0830 -1.8649
   95DMF     H5 1627   2.814   2.216   0.679 -1.1758 -0.5117  0.0817
   95DMF     H6 1628   2.791   2.037   0.653 -0.3832 -0.5681  0.0603
   95DMF     H7 1629   2.569   2.171   0.745  0.6377 -1.1282 -0.4446
   96DMF     C1 1630   0.436   3.414   3.374 -0.2102  0.1503  0.4680
   96DMF     N1 1631   0.535   3.523   3.373  0.8081  0.0212  0.7715
   96DMF     C2 1632   0.639   3.529   3.273  0.0194  0.2734 -0.0484
   96DMF     C3 1633   0.523   3.613   3.471 -0.0667 -0.2004  0.0033
   96DMF     O1 1634   0.436   3.607   3.559  0.3205  0.1802  0.0050
   96DMF     H1 1635   0.439   3.374   3.272  0.7696 -0.5609  0.7686
   96DMF     H2 1636   0.336   3.454   3.393 -0.7466 -1.3758  0.9288
   96DMF     H3 1637   0.448   3.336   3.450  0.1726 -0.0588  0.1970
   96DMF     H4 1638   0.663   3.430   3.232 -0.8245 -0.3728  0.9988
   96DMF     H5 1639   0.728   3.575   3.318  1.0708 -1.1918 -0.5635
   96DMF     H6 1640   0.605   3.606   3.203 -0.2500  0.7297  0.5817
   96DMF     H7 1641   0.602   3.691   3.468 -0.7453  0.4880 -0.1154
   97DMF     C1 1642   0.598   1.119   0.606  0.3600 -0.7234  0.0748
   97DMF     N1 1643   0.658   1.259   0.605 -0.1283  0.5189  0.5645
   97DMF     C2 1644   0.567   1.374   0.637  0.1960  0.2306  0.2713
   97DMF     C3 1645   0.794   1.273   0.643 -0.5636 -0.0648  0.1180
   97DMF     O1 1646   0.864   1.177   0.671  0.2577  0.5208 -0.7038
   97DMF     H1 1647   0.491   1.136   0.621  0.4615  1.0012 -1.0559
   97DMF     H2 1648   0.643   1.050   0.678  0.9120  0.1544  0.5799
   97DMF     H3 1649   0.612   1.064   0.512 -2.2232 -0.3865 -0.5349
   97DMF     H4 1650   0.528   1.411   0.541  1.7029  0.2746 -0.3312
   97DMF     H5 1651   0.615   1.453   0.695 -1.0097 -0.7087  2.6429
   97DMF     H6 1652   0.481   1.348   0.700 -0.2821 -0.3972 -0.6176
   97DMF     H7 1653   0.829   1.377   0.657  1.1268 -0.9304  2.8661
   98DMF     C1 1654   0.248   0.725   1.315 -0.2844  0.4432  0.2134
   98DMF     N1 1655   0.241   0.687   1.454  0.4824  0.5594 -0.3682
   98DMF     C2 1656   0.122   0.744   1.526 -0.4027  0.3805 -0.1661
   98DMF     C3 1657   0.336   0.603   1.513  0.7153  0.8651 -0.0917
   98DMF     O1 1658   0.424   0.548   1.450  0.4547  0.8325  0.0339
   98DMF     H1 1659   0.307   0.655   1.254 -1.3148 -0.7805  0.6184
   98DMF     H2 1660   0.296   0.820   1.286 -1.2465  1.8452  3.0573
   98DMF     H3 1661   0.146   0.722   1.276 -0.9398 -0.9929  1.9660
   98DMF     H4 1662   0.167   0.807   1.603  0.7763 -1.2149  0.4902
   98DMF     H5 1663   0.060   0.665   1.570  0.2283  0.7208  1.3604
   98DMF     H6 1664   0.063   0.806   1.458 -0.2330  0.8275  0.0905
   98DMF     H7 1665   0.307   0.575   1.616 -0.3669 -1.5806 -1.0399
   99DMF     C1 1666   3.012   0.416   0.731 -0.2965 -0.2656  0.1857
   99DMF     N1 1667   2.998   0.377   0.864  0.6134  0.6487 -0.2447
   99DMF     C2 1668   2.929   0.252   0.898  0.1979 -1.2094  0.3140
   99DMF     C3 1669   3.027   0.474   0.965  0.9188 -0.2973 -0.2743
   99DMF     O1 1670   3.072   0.585   0.939  0.3403 -0.0710  0.3064
   99DMF     H1 1671   3.102   0.475   0.712  0.8786 -2.4002 -0.9824
   99DMF     H2 1672   2.925   0.481   0.710 -0.4390  0.0723  1.7452
   99DMF     H3 1673   3.008   0.332   0.661  0.6726 -0.8980  0.8939
   99DMF     H4 1674   2.993   0.172   0.935  1.4201 -0.4550 -0.1272
   99DMF     H5 1675   2.871   0.204   0.819 -0.2817 -1.6657  0.9377
   99DMF     H6 1676   2.854   0.289   0.969  1.9830 -0.4964  1.8776
   99DMF     H7 1677   3.012   0.441   1.070 -1.4478 -0.6585 -0.6932
  100DMF     C1 1678   0.743   3.397   0.494  0.6496 -0.4150 -0.0872
  100DMF     N1 1679   0.705   3.534   0.516  0.1875  0.0621  0.2175
  100DMF     C2 1680   0.773   3.643   0.434 -0.1487 -0.2478  0.3794
  100DMF     C3 1681   0.603   3.562   0.617  0.5272 -0.1660  0.9121
  100DMF     O1 1682   0.557   3.477   0.688  0.0471 -0.0406  0.0421
  100DMF     H1 1683   0.662   3.332   0.530 -1.0338  1.3525 -0.5797
  100DMF     H2 1684   0.839   3.376   0.542  1.8730 -0.1252 -2.3777
  100DMF     H3 1685   0.748   3.384   0.385 -1.1340 -0.8362 -0.1417
  100DMF     H4 1686   0.727   3.741   0.453  1.0823  0.3982  0.0914
  100DMF     H5 1687   0.767   3.623   0.327 -0.9741 -0.0676  0.3906
  100DMF     H6 1688   0.875   3.652   0.473 -0.6051 -1.6667  1.9784
  100DMF     H7 1689   0.587   3.669   0.639  0.0586 -0.2572  1.0046
  101DMF     C1 1690   0.842   1.870   3.116  0.3799  0.0364  0.3912
  101DMF     N1 1691   0.891   1.878   3.258  0.7818 -0.1530  0.0427
  101DMF     C2 1692   1.031   1.919   3.280 -0.6075 -0.2474  0.6137
  101DMF     C3 1693   0.793   1.878   3.367  0.5355  0.3293  0.7254
  101DMF     O1 1694   0.679   1.840   3.353  0.1507  0.1765 -0.1840
  101DMF     H1 1695   0.903   1.937   3.055  1.5091 -1.0159  0.3586
  101DMF     H2 1696   0.734   1.889   3.111  0.0293 -1.8207  0.5067
  101DMF     H3 1697   0.861   1.768   3.082 -0.4044 -0.1603  0.5331
  101DMF     H4 1698   1.087   1.897   3.188 -1.2043  1.8386 -0.2729
  101DMF     H5 1699   1.053   1.853   3.365 -0.2310  1.9229  2.2431
  101DMF     H6 1700   1.051   2.025   3.304  0.4582  0.3448 -2.6448
  101DMF     H7 1701   0.831   1.930   3.456  0.1563  1.2859  0.3435
  102DMF     C1 1702   1.511   1.495   0.351  0.2006 -0.0617  0.2481
  102DMF     N1 1703   1.479   1.386   0.439  0.3698 -0.0104  0.1700
  102DMF     C2 1704   1.448   1.254   0.376 -0.2687  0.3517 -0.0580
  102DMF     C3 1705   1.416   1.412   0.567  0.1413  0.8638  0.7067
  102DMF     O1 1706   1.404   1.526   0.609 -0.2481  0.2751 -0.3911
  102DMF     H1 1707   1.595   1.552   0.390  0.4700 -0.7547  0.6915
  102DMF     H2 1708   1.424   1.559   0.330  0.1030 -0.8171 -1.7807
  102DMF     H3 1709   1.538   1.445   0.257 -1.2222 -2.3152  0.9996
  102DMF     H4 1710   1.359   1.210   0.423  0.1176  0.1128  0.4504
  102DMF     H5 1711   1.528   1.186   0.406  0.3441  0.0049 -2.3989
  102DMF     H6 1712   1.437   1.252   0.267 -1.9395 -0.8064  0.1142
  102DMF     H7 1713   1.380   1.317   0.610 -0.7128  0.5636 -0.6408
  103DMF     C1 1714   1.783   0.855   1.528 -0.9647  0.0249  0.5051
  103DMF     N1 1715   1.668   0.942   1.512 -0.1168  0.2982 -0.3531
  103DMF     C2 1716   1.545   0.890   1.559  0.2006 -0.0741 -0.1887
  103DMF     C3 1717   1.686   1.078   1.501 -0.0260  0.2655 -0.3771
  103DMF     O1 1718   1.795   1.118   1.464  0.0404  0.4969 -0.4435
  103DMF     H1 1719   1.854   0.884   1.449 -2.4571  0.6755 -0.6192
  103DMF     H2 1720   1.762   0.749   1.510  3.2496 -1.3166  2.7304
  103DMF     H3 1721   1.836   0.871   1.623 -0.1237  1.8467 -0.2374
  103DMF     H4 1722   1.558   0.791   1.604 -1.3022  0.5215  1.6514
  103DMF     H5 1723   1.482   0.871   1.472 -0.3939 -0.1359  0.2526
  103DMF     H6 1724   1.480   0.949   1.625  0.3395 -0.5514  0.3767
  103DMF     H7 1725   1.599   1.134   1.541  0.2462 -1.2596  2.4515
  104DMF     C1 1726   1.872   3.095   2.285  0.2852 -0.3152  1.0666
  104DMF     N1 1727   1.800   3.221   2.336 -0.0914  0.1605 -0.4860
  104DMF     C2 1728   1.718   3.299   2.234 -0.1908  0.0404  0.4276
  104DMF     C3 1729   1.836   3.264   2.468  0.2195 -0.8836 -0.6295
  104DMF     O1 1730   1.904   3.199   2.545  0.0351  0.4161 -0.2689
  104DMF     H1 1731   1.976   3.118   2.258 -0.0364 -0.8778 -0.7025
  104DMF     H2 1732   1.812   3.056   2.201  0.3260 -0.1565  0.9639
  104DMF     H3 1733   1.855   3.021   2.364 -0.9902 -0.2157  0.9058
  104DMF     H4 1734   1.790   3.335   2.160 -0.3725 -1.0261 -0.2759
  104DMF     H5 1735   1.668   3.386   2.277  1.3072  1.5014 -0.7423
  104DMF     H6 1736   1.646   3.233   2.183 -1.9243  1.0165  1.5655
  104DMF     H7 1737   1.812   3.370   2.485 -1.6389 -1.0603 -1.9383
  105DMF     C1 1738   1.044   2.338   0.789 -0.1514  0.0135  0.3360
  105DMF     N1 1739   0.957   2.376   0.671 -0.1234 -0.1548 -0.5289
  105DMF     C2 1740   0.836   2.306   0.646  0.4305  0.5954 -0.1492
  105DMF     C3 1741   0.974   2.499   0.604 -0.3027  0.8184  0.6953
  105DMF     O1 1742   1.067   2.565   0.640  0.0044 -0.6301 -0.1309
  105DMF     H1 1743   1.093   2.431   0.821 -1.5607  1.3840 -1.3846
  105DMF     H2 1744   1.128   2.270   0.770 -0.0052  1.1913 -3.8365
  105DMF     H3 1745   0.983   2.304   0.874 -0.4614 -0.2833 -0.0031
  105DMF     H4 1746   0.750   2.363   0.683  0.6186  1.4790 -1.0452
  105DMF     H5 1747   0.845   2.203   0.683 -3.1579  0.6172  0.9927
  105DMF     H6 1748   0.827   2.298   0.537 -4.1367 -0.9931  0.2370
  105DMF     H7 1749   0.894   2.526   0.532  0.5965  1.4794 -0.0704
  106DMF     C1 1750   2.686   0.446   2.556 -0.4495 -0.3701 -0.5149
  106DMF     N1 1751   2.654   0.301   2.574  0.2517  0.4048 -0.0812
  106DMF     C2 1752   2.713   0.242   2.693 -0.4522 -0.2951 -0.3657
  106DMF     C3 1753   2.564   0.232   2.497  0.6028 -0.7209 -0.3086
  106DMF     O1 1754   2.507   0.277   2.403  0.3904  0.3868 -0.3620
  106DMF     H1 1755   2.644   0.482   2.461 -0.3750  0.4874 -0.2254
  106DMF     H2 1756   2.794   0.462   2.545 -0.7934  2.1442 -0.5880
  106DMF     H3 1757   2.645   0.510   2.635 -1.1389 -1.0114 -0.3472
  106DMF     H4 1758   2.805   0.192   2.661 -1.1718 -1.5138 -0.5853
  106DMF     H5 1759   2.650   0.166   2.741  1.5648 -1.3711  0.6065
  106DMF     H6 1760   2.728   0.312   2.776 -0.6209 -1.7146  0.8820
  106DMF     H7 1761   2.545   0.131   2.536  2.2971 -1.2221 -0.7388
  107DMF     C1 1762   1.288   1.396   1.322 -0.2225 -0.4056  0.1302
  107DMF     N1 1763   1.218   1.352   1.436  0.3948  0.3260 -0.1398
  107DMF     C2 1764   1.072   1.354   1.427  0.4105 -0.5308  0.0431
  107DMF     C3 1765   1.277   1.295   1.549  0.9165  0.4862  0.2673
  107DMF     O1 1766   1.395   1.276   1.556 -1.1858  0.8396  0.4830
  107DMF     H1 1767   1.338   1.315   1.268 -1.4442 -1.1640  0.1024
  107DMF     H2 1768   1.367   1.462   1.361 -1.8842  1.4658  0.4254
  107DMF     H3 1769   1.227   1.462   1.259  0.9952 -0.2422 -0.8859
  107DMF     H4 1770   1.034   1.275   1.493 -1.3758 -0.1440 -0.5013
  107DMF     H5 1771   1.032   1.323   1.330 -1.3220  0.5545  0.3795
  107DMF     H6 1772   1.030   1.452   1.455  0.6443 -1.0820  2.4248
  107DMF     H7 1773   1.204   1.270   1.628  1.9066  1.6004  1.5491
  108DMF     C1 1774   1.898   2.074   3.210 -0.2659  0.5478  0.4597
  108DMF     N1 1775   2.045   2.046   3.238  0.5663 -0.2777 -0.2170
  108DMF     C2 1776   2.136   2.148   3.291  0.1167 -0.1147 -0.6898
  108DMF     C3 1777   2.094   1.921   3.197 -0.7023  0.5019  0.1552
  108DMF     O1 1778   2.029   1.845   3.127 -0.0027  0.3043  0.1731
  108DMF     H1 1779   1.878   2.181   3.221 -3.9787 -0.2492  1.8103
  108DMF     H2 1780   1.835   2.010   3.272 -2.3700  0.8047 -1.3329
  108DMF     H3 1781   1.875   2.049   3.105  1.5460  0.3616  0.0796
  108DMF     H4 1782   2.217   2.160   3.217  0.1998 -1.3508 -0.8010
  108DMF     H5 1783   2.175   2.123   3.391  0.0336  1.5265 -0.2192
  108DMF     H6 1784   2.081   2.242   3.300  0.5962  0.0651  0.5818
  108DMF     H7 1785   2.203   1.910   3.217 -1.0049 -0.2822  1.4713
  109DMF     C1 1786   1.977   2.140   1.413  0.1749  0.4404 -0.2046
  109DMF     N1 1787   2.030   2.249   1.505  0.1137  0.5440  0.5383
  109DMF     C2 1788   2.174   2.238   1.531  0.4857 -0.7329  0.8733
  109DMF     C3 1789   1.940   2.336   1.565 -0.5551  0.2892 -0.0021
  109DMF     O1 1790   1.828   2.354   1.536  0.2084  0.2738  0.3156
  109DMF     H1 1791   2.004   2.038   1.442 -3.7722 -1.0179 -1.3053
  109DMF     H2 1792   2.017   2.154   1.312 -1.8425 -1.3359 -1.2800
  109DMF     H3 1793   1.868   2.143   1.401  0.1145 -0.8451  0.0055
  109DMF     H4 1794   2.241   2.288   1.460  2.4339 -1.7065  1.9514
  109DMF     H5 1795   2.202   2.132   1.538 -0.5215 -1.1303 -0.8964
  109DMF     H6 1796   2.194   2.284   1.629  0.3053  2.0536 -0.3571
  109DMF     H7 1797   1.991   2.399   1.642  0.7993 -0.7649 -0.0182
  110DMF     C1 1798   1.999   2.672   3.711 -1.0309  0.2630  0.3816
  110DMF     N1 1799   2.094   2.585   3.784  0.0592  0.0719  0.0773
  110DMF     C2 1800   2.128   2.613   3.926 -0.1487  0.2508  0.0846
  110DMF     C3 1801   2.154   2.478   3.718 -0.8385 -0.3485  0.1890
  110DMF     O1 1802   2.130   2.456   3.600  0.5149  0.3210  0.0614
  110DMF     H1 1803   1.904   2.622   3.689 -1.3602  1.8909 -2.1126
  110DMF     H2 1804   2.038   2.695   3.611 -1.8338 -1.2813 -0.3097
  110DMF     H3 1805   1.975   2.762   3.767 -0.8998  0.1773  0.5763
  110DMF     H4 1806   2.161   2.718   3.935 -0.3021  0.4633 -1.5901
  110DMF     H5 1807   2.205   2.547   3.965 -0.3047 -1.2209 -2.0075
  110DMF     H6 1808   2.035   2.598   3.982  0.1148 -1.6244  0.0308
  110DMF     H7 1809   2.227   2.424   3.782  1.1021  1.1776 -0.6524
  111DMF     C1 1810   2.842   2.496   0.519 -0.1727  0.5728  0.3718
  111DMF     N1 1811   2.893   2.629   0.486 -0.5728 -1.2790  0.5359
  111DMF     C2 1812   2.811   2.744   0.522  0.1486  0.5024  0.0274
  111DMF     C3 1813   3.019   2.646   0.433 -0.1667 -0.3268  0.3855
  111DMF     O1 1814   3.088   2.557   0.398 -0.1359 -0.4527  0.3088
  111DMF     H1 1815   2.891   2.471   0.613 -0.2471 -1.5992 -0.1427
  111DMF     H2 1816   2.883   2.422   0.448  1.7902  0.2174  1.8408
  111DMF     H3 1817   2.733   2.494   0.530 -0.2010  1.5228  0.3290
  111DMF     H4 1818   2.841   2.805   0.608 -0.8812  0.4502  0.4356
  111DMF     H5 1819   2.711   2.704   0.543  0.4655 -0.6027 -0.5442
  111DMF     H6 1820   2.789   2.806   0.434  1.3167 -0.7778 -1.1841
  111DMF     H7 1821   3.038   2.755   0.429 -1.7975 -0.0873 -2.1048
  112DMF     C1 1822   2.322   1.547   0.619  0.1704 -0.3374  0.7292
  112DMF     N1 1823   2.320   1.608   0.481  0.3220  0.3277  1.0845
  112DMF     C2 1824   2.196   1.651   0.423  0.1600 -0.4204  0.6296
  112DMF     C3 1825   2.438   1.637   0.420 -0.2842 -0.4062 -0.4544
  112DMF     O1 1826   2.549   1.613   0.473 -0.0829  0.2825  0.1192
  112DMF     H1 1827   2.319   1.617   0.704 -2.5394 -0.3289  0.6913
  112DMF     H2 1828   2.409   1.482   0.631  2.4334  2.5859  0.7617
  112DMF     H3 1829   2.227   1.494   0.630 -1.1126  1.4065 -1.3872
  112DMF     H4 1830   2.141   1.561   0.394  2.4954 -0.9833 -2.2767
  112DMF     H5 1831   2.217   1.718   0.339 -2.0982 -1.3993 -0.7547
  112DMF     H6 1832   2.143   1.709   0.500  0.2376 -0.7828  0.9574
  112DMF     H7 1833   2.423   1.680   0.319 -1.0694  1.1974  0.3130
  113DMF     C1 1834   1.487   1.905   0.247  0.2185 -0.0146 -0.0351
  113DMF     N1 1835   1.434   1.905   0.111  0.0980 -0.2172  0.3690
  113DMF     C2 1836   1.510   1.970   0.008 -0.0082  0.1386  0.1531
  113DMF     C3 1837   1.321   1.832   0.077  0.0517 -0.7025 -0.2842
  113DMF     O1 1838   1.249   1.791   0.167 -0.1382  0.3199 -0.0738
  113DMF     H1 1839   1.411   1.868   0.318 -0.8612  2.1817 -0.0014
  113DMF     H2 1840   1.524   2.003   0.281  0.5039  0.5069 -1.7975
  113DMF     H3 1841   1.574   1.840   0.239 -0.9712 -1.3264 -2.9909
  113DMF     H4 1842   1.606   1.916   0.006  0.5429  1.0921  0.5350
  113DMF     H5 1843   1.515   2.075   0.037 -0.9342  0.1723  0.1786
  113DMF     H6 1844   1.454   1.974  -0.086  1.0004  0.3575 -0.4489
  113DMF     H7 1845   1.305   1.803  -0.028  1.0076 -1.9357 -0.1011
  114DMF     C1 1846   1.793   2.699   1.535 -0.4958  0.5090  0.2105
  114DMF     N1 1847   1.910   2.782   1.531  0.1284  0.0904 -0.4908
  114DMF     C2 1848   1.890   2.925   1.527 -0.5936  0.1329 -0.3387
  114DMF     C3 1849   2.038   2.739   1.559 -0.2347 -0.6810  0.1517
  114DMF     O1 1850   2.061   2.625   1.585  0.9000  0.2148 -0.3274
  114DMF     H1 1851   1.822   2.599   1.569 -0.4537  0.4839  0.0979
  114DMF     H2 1852   1.752   2.690   1.434 -0.0404 -1.9156  0.2267
  114DMF     H3 1853   1.724   2.739   1.610  0.5643  0.2584  1.3473
  114DMF     H4 1854   1.908   2.969   1.428 -0.6877  0.5391 -0.1780
  114DMF     H5 1855   1.953   2.976   1.602 -0.1165  0.7080 -1.1272
  114DMF     H6 1856   1.784   2.944   1.548 -0.2593  0.5114  1.1349
  114DMF     H7 1857   2.114   2.819   1.553 -0.4734 -0.6263 -2.6000
  115DMF     C1 1858   1.257   2.500   1.308  0.1305 -0.7546  0.0097
  115DMF     N1 1859   1.352   2.550   1.413 -0.5687 -0.5459 -0.0345
  115DMF     C2 1860   1.326   2.524   1.550  0.3623 -0.1218  0.6984
  115DMF     C3 1861   1.476   2.605   1.387  0.7222  0.6973 -0.3140
  115DMF     O1 1862   1.514   2.604   1.276  0.2000 -0.5625 -0.1115
  115DMF     H1 1863   1.165   2.558   1.298  0.6343 -0.0481 -0.6606
  115DMF     H2 1864   1.225   2.398   1.331  0.7851 -0.8079  0.6827
  115DMF     H3 1865   1.303   2.499   1.208 -0.0593 -0.7333 -0.0779
  115DMF     H4 1866   1.291   2.612   1.604 -1.3739 -0.4666  0.1577
  115DMF     H5 1867   1.416   2.500   1.609  0.8607  0.7110  0.2829
  115DMF     H6 1868   1.255   2.441   1.560 -0.8319  0.8797  0.4992
  115DMF     H7 1869   1.525   2.647   1.477  1.1322  0.7110 -0.5447
  116DMF     C1 1870   1.637   3.062   0.603  0.4273 -0.6772  0.5123
  116DMF     N1 1871   1.708   3.163   0.522 -0.1850  0.7338  0.7548
  116DMF     C2 1872   1.709   3.139   0.376  0.4816 -0.0420  0.7048
  116DMF     C3 1873   1.787   3.266   0.575  0.4913  0.2673  0.6073
  116DMF     O1 1874   1.807   3.287   0.690 -0.3003 -0.0315 -0.0477
  116DMF     H1 1875   1.600   3.114   0.692 -0.1230  0.4577 -0.3821
  116DMF     H2 1876   1.706   2.987   0.645  0.8905  0.0330  1.0332
  116DMF     H3 1877   1.558   3.012   0.546  0.2973  0.6034 -0.4424
  116DMF     H4 1878   1.813   3.140   0.341  0.6889 -1.5309  1.2377
  116DMF     H5 1879   1.665   3.226   0.327  0.8473  1.0794  2.3415
  116DMF     H6 1880   1.664   3.041   0.353  2.9480 -0.8430 -0.9417
  116DMF     H7 1881   1.846   3.319   0.497  0.8604 -1.6705 -0.4805
  117DMF     C1 1882   2.646   2.178   1.528 -0.0171 -0.0219  0.2207
  117DMF     N1 1883   2.619   2.168   1.383 -0.8387 -0.3851 -0.3140
  117DMF     C2 1884   2.716   2.236   1.290  0.0219  0.7465 -0.3780
  117DMF     C3 1885   2.500   2.108   1.331 -0.1264  0.2459 -0.1305
  117DMF     O1 1886   2.414   2.061   1.406  0.4585 -0.0749 -0.0791
  117DMF     H1 1887   2.755   2.173   1.543  0.3032  3.5149 -0.5200
  117DMF     H2 1888   2.592   2.101   1.583  1.4161 -1.5623 -0.4902
  117DMF     H3 1889   2.613   2.278   1.559  1.2409  0.2413  0.7605
  117DMF     H4 1890   2.656   2.267   1.203 -1.1163  0.4061  0.2763
  117DMF     H5 1891   2.794   2.162   1.269  0.1123  0.9737 -0.8471
  117DMF     H6 1892   2.754   2.315   1.356 -0.7110 -1.3560  2.6889
  117DMF     H7 1893   2.489   2.117   1.222  0.5419  0.9709 -0.1399
  118DMF     C1 1894   1.087   2.863   3.748 -0.7621 -0.8370 -0.5203
  118DMF     N1 1895   1.070   2.917   3.611 -0.2020 -0.0322 -0.3547
  118DMF     C2 1896   1.045   2.824   3.514 -0.0481  0.2705 -0.5528
  118DMF     C3 1897   1.123   3.037   3.572 -0.0553  0.3792  0.1238
  118DMF     O1 1898   1.180   3.121   3.651 -0.0557  0.0818 -0.0077
  118DMF     H1 1899   1.114   2.757   3.754 -0.4099 -0.6648  1.0247
  118DMF     H2 1900   0.990   2.861   3.800 -0.1861  0.4445  0.6167
  118DMF     H3 1901   1.155   2.925   3.807 -1.1117  0.1560 -1.1462
  118DMF     H4 1902   1.144   2.808   3.469  0.9195 -1.1151  2.0285
  118DMF     H5 1903   0.978   2.866   3.437  1.0816 -0.4530 -1.9692
  118DMF     H6 1904   1.007   2.727   3.548 -0.7448  0.4424 -0.8323
  118DMF     H7 1905   1.120   3.062   3.464 -1.2730  1.6711  0.4499
  119DMF     C1 1906   0.086   1.132   1.531 -0.1855  0.1646 -0.4972
  119DMF     N1 1907   0.142   1.113   1.400  0.3218  0.0733  0.3993
  119DMF     C2 1908   0.056   1.032   1.299 -0.6008 -0.7701  0.0308
  119DMF     C3 1909   0.246   1.195   1.358  0.4106 -0.7923  0.5166
  119DMF     O1 1910   0.290   1.275   1.435  0.4165  0.2426 -0.7172
  119DMF     H1 1911  -0.012   1.086   1.549  0.3072 -1.1763 -1.1351
  119DMF     H2 1912   0.082   1.240   1.546  1.0767  0.3929 -1.6831
  119DMF     H3 1913   0.150   1.089   1.609  1.2540  4.0258  0.5434
  119DMF     H4 1914  -0.001   1.098   1.233  0.8042  0.0462 -0.3895
  119DMF     H5 1915  -0.020   0.974   1.353 -1.3433 -0.6260 -0.8603
  119DMF     H6 1916   0.122   0.963   1.246 -0.1718 -0.1802 -0.2146
  119DMF     H7 1917   0.275   1.189   1.251  0.4487  4.0333  0.1170
  120DMF     C1 1918   0.494   1.298   0.067  0.7400  0.1351  0.0177
  120DMF     N1 1919   0.638   1.291   0.103 -0.4301 -0.3208  0.0206
  120DMF     C2 1920   0.677   1.325   0.242  0.7018  0.0086  0.1751
  120DMF     C3 1921   0.740   1.263   0.009 -0.1563  0.4837 -0.0688
  120DMF     O1 1922   0.723   1.213  -0.100  0.2696 -0.1893  0.1887
  120DMF     H1 1923   0.453   1.393   0.104  1.0985 -0.0023  0.7622
  120DMF     H2 1924   0.439   1.221   0.123  1.4377 -0.3634  0.0200
  120DMF     H3 1925   0.479   1.290  -0.042  2.2055 -1.0521 -0.1120
  120DMF     H4 1926   0.774   1.281   0.269  0.3681 -1.0512 -0.3099
  120DMF     H5 1927   0.606   1.280   0.314 -0.3584  0.2143 -0.7293
  120DMF     H6 1928   0.672   1.434   0.254  4.3882  0.3747 -1.2059
  120DMF     H7 1929   0.841   1.293   0.042  0.5452 -0.3280 -1.4436
  121DMF     C1 1930   1.916   3.280   1.535 -0.1881 -0.4537  0.4873
  121DMF     N1 1931   1.880   3.430   1.535 -0.0081 -0.2226 -0.0786
  121DMF     C2 1932   1.740   3.475   1.549 -0.2465  0.0010 -0.2126
  121DMF     C3 1933   1.976   3.525   1.520 -0.2029 -0.9053  1.2889
  121DMF     O1 1934   2.096   3.509   1.526  0.1520 -0.1751  0.1516
  121DMF     H1 1935   1.826   3.219   1.549 -0.0620 -0.3511  1.8331
  121DMF     H2 1936   1.975   3.250   1.623 -0.5199  2.5332  1.7613
  121DMF     H3 1937   1.972   3.258   1.443 -1.6932  2.5173 -1.2094
  121DMF     H4 1938   1.682   3.412   1.618  3.1137 -2.2645  0.6381
  121DMF     H5 1939   1.703   3.475   1.446 -1.7454 -0.8523  0.2934
  121DMF     H6 1940   1.739   3.580   1.581  3.6540  0.3352 -0.9788
  121DMF     H7 1941   1.933   3.625   1.500 -0.6192 -1.6139 -1.6137
  122DMF     C1 1942   0.054   2.677   1.487  0.1121  0.2721  0.9160
  122DMF     N1 1943   0.183   2.738   1.534 -0.0821 -0.3433  0.9523
  122DMF     C2 1944   0.307   2.653   1.539 -0.0523  0.2568  0.0126
  122DMF     C3 1945   0.191   2.872   1.559  0.1646 -0.3249 -0.2437
  122DMF     O1 1946   0.084   2.942   1.556 -0.1943 -0.4323  0.2241
  122DMF     H1 1947  -0.027   2.687   1.561 -0.3798  1.9682  0.1793
  122DMF     H2 1948   0.074   2.573   1.455  2.2697  0.8237  0.4121
  122DMF     H3 1949   0.013   2.730   1.400 -0.1062 -1.1707  0.1150
  122DMF     H4 1950   0.289   2.577   1.616  0.4221  1.9896  1.8878
  122DMF     H5 1951   0.398   2.711   1.559  0.6001 -0.7274 -0.0511
  122DMF     H6 1952   0.325   2.601   1.444  1.1323  1.2815 -0.3417
  122DMF     H7 1953   0.291   2.911   1.586  0.3445 -1.3959  0.6709
  123DMF     C1 1954   0.713   0.995   2.246  0.2907 -0.2822 -0.1847
  123DMF     N1 1955   0.603   1.086   2.268  0.1269 -0.3396  0.4492
  123DMF     C2 1956   0.623   1.231   2.244  0.6525  0.1301  0.1575
  123DMF     C3 1957   0.470   1.035   2.273 -0.3018  0.1254  0.3841
  123DMF     O1 1958   0.442   0.917   2.273  0.3537 -0.3679  0.1988
  123DMF     H1 1959   0.706   0.937   2.153  1.1079 -0.6855 -0.0022
  123DMF     H2 1960   0.703   0.923   2.328 -1.0987  0.8364  0.6494
  123DMF     H3 1961   0.811   1.045   2.246 -1.0122  2.4343  2.8769
  123DMF     H4 1962   0.723   1.239   2.201  1.0245 -0.1079  0.9764
  123DMF     H5 1963   0.596   1.290   2.333 -1.6398  0.0901 -0.4752
  123DMF     H6 1964   0.551   1.262   2.167 -0.5229 -2.6411  0.0755
  123DMF     H7 1965   0.385   1.105   2.277 -0.4919 -0.1353  1.0633
  124DMF     C1 1966   0.323   1.008   0.851  1.2926 -0.0492 -0.0598
  124DMF     N1 1967   0.235   1.090   0.774 -0.0526  0.1481  0.0858
  124DMF     C2 1968   0.163   1.050   0.649  0.2112  0.4904 -0.3854
  124DMF     C3 1969   0.191   1.216   0.826  0.4030  0.5935 -0.5156
  124DMF     O1 1970   0.236   1.261   0.930  0.6614 -0.4877 -0.1731
  124DMF     H1 1971   0.365   1.065   0.934  0.5603  0.2290  0.1222
  124DMF     H2 1972   0.409   0.970   0.794 -0.1129  0.5297 -2.6504
  124DMF     H3 1973   0.267   0.920   0.887 -2.4335  2.8599  1.5792
  124DMF     H4 1974   0.218   0.986   0.579  1.6505  1.5204 -0.2381
  124DMF     H5 1975   0.149   1.136   0.582 -0.9064  1.2449  0.7883
  124DMF     H6 1976   0.058   1.024   0.666 -0.1072  2.5904  1.0628
  124DMF     H7 1977   0.114   1.271   0.768 -0.1958 -0.1443 -0.4185
  125DMF     C1 1978   1.340   1.969   3.028 -0.4502 -0.3316 -0.0413
  125DMF     N1 1979   1.384   1.979   3.170  0.2805  0.1164 -0.4253
  125DMF     C2 1980   1.467   1.870   3.232 -0.5905  0.1499 -0.3973
  125DMF     C3 1981   1.364   2.092   3.245  0.6113 -0.0027  0.0576
  125DMF     O1 1982   1.305   2.189   3.206  0.0917 -0.1848  0.1149
  125DMF     H1 1983   1.379   1.885   2.970 -1.8339  0.1331 -1.6776
  125DMF     H2 1984   1.355   2.064   2.975 -0.5568 -0.7328 -0.7883
  125DMF     H3 1985   1.231   1.961   3.030 -0.4767 -0.2224 -1.0819
  125DMF     H4 1986   1.571   1.904   3.230 -0.7325  0.5541 -0.8624
  125DMF     H5 1987   1.459   1.777   3.173 -0.8181 -1.4187  2.0181
  125DMF     H6 1988   1.442   1.847   3.337  1.3705  1.3038  0.3422
  125DMF     H7 1989   1.403   2.079   3.347  0.0548  2.3984  0.6166
  126DMF     C1 1990   1.811   3.408   3.629 -0.3982  0.1215  0.2016
  126DMF     N1 1991   1.767   3.330   3.746 -0.0731 -0.0666  0.1358
  126DMF     C2 1992   1.827   3.195   3.771  0.1833  0.2268  0.2111
  126DMF     C3 1993   1.665   3.384   3.829  0.2536 -0.7085 -0.1847
  126DMF     O1 1994   1.625   3.502   3.826  0.1801 -0.1251 -1.1464
  126DMF     H1 1995   1.748   3.386   3.541 -0.4328 -0.6161  0.4076
  126DMF     H2 1996   1.912   3.380   3.597 -0.1010  0.1476  1.1142
  126DMF     H3 1997   1.825   3.516   3.644  0.8055 -0.0621  0.4499
  126DMF     H4 1998   1.899   3.161   3.696 -1.4499 -1.4422 -0.6428
  126DMF     H5 1999   1.741   3.127   3.768 -0.2389  0.6650  2.0062
  126DMF     H6 2000   1.856   3.198   3.877  0.0910 -1.5671  0.3121
  126DMF     H7 2001   1.633   3.319   3.912 -2.8192 -0.1579 -0.8749
  127DMF     C1 2002   3.218   0.009   3.328  0.2520 -0.5954 -0.5635
  127DMF     N1 2003   3.338   0.104   3.322 -0.1930 -0.0080 -0.1044
  127DMF     C2 2004   3.454   0.064   3.389 -0.2816 -0.5070  0.5388
  127DMF     C3 2005   3.337   0.225   3.253  0.0364 -0.4397  0.1316
  127DMF     O1 2006   3.241   0.273   3.203  0.1898 -0.5879  0.5284
  127DMF     H1 2007   3.156   0.044   3.411 -0.5145 -0.3019 -1.2443
  127DMF     H2 2008   3.244  -0.095   3.346 -1.0986 -0.6020  1.4827
  127DMF     H3 2009   3.168   0.020   3.230 -0.5330  1.0884 -0.0013
  127DMF     H4 2010   3.429  -0.004   3.472 -0.7418 -0.5936  0.3286
  127DMF     H5 2011   3.505   0.149   3.436 -1.6160  0.5000  0.2177
  127DMF     H6 2012   3.527   0.028   3.315 -0.1701 -1.3094  1.0360
  127DMF     H7 2013   3.434   0.277   3.252 -0.9398  1.4311  0.1021
  128DMF     C1 2014   1.499   3.107   1.521 -0.2893 -0.5091 -0.6099
  128DMF     N1 2015   1.356   3.111   1.542  0.2955  0.0353 -0.2457
  128DMF     C2 2016   1.283   3.244   1.540  0.4209  0.0774  0.2391
  128DMF     C3 2017   1.287   2.991   1.570 -0.0675  0.5794  0.2802
  128DMF     O1 2018   1.339   2.879   1.552  0.1080  0.3899 -0.0742
  128DMF     H1 2019   1.552   3.036   1.585  2.2705  0.5442 -1.4998
  128DMF     H2 2020   1.542   3.207   1.534 -2.3937  0.4410 -0.6953
  128DMF     H3 2021   1.524   3.076   1.419 -0.4297  3.6449 -2.0330
  128DMF     H4 2022   1.176   3.222   1.533  0.3907  0.2212  0.2404
  128DMF     H5 2023   1.313   3.307   1.455  1.8547  0.1746  0.8007
  128DMF     H6 2024   1.310   3.307   1.625 -3.2343 -1.0328  2.3003
  128DMF     H7 2025   1.187   3.001   1.616 -0.8366  2.1405 -1.6711
  129DMF     C1 2026   0.735   2.201   2.625  0.1869  0.1330  0.3263
  129DMF     N1 2027   0.846   2.122   2.680 -0.0248  0.6543 -0.8030
  129DMF     C2 2028   0.821   2.079   2.824 -0.0434 -0.1807  0.0928
  129DMF     C3 2029   0.969   2.084   2.616 -0.2567 -1.1039  0.1405
  129DMF     O1 2030   0.982   2.120   2.501  0.1831 -0.4724  0.5251
  129DMF     H1 2031   0.639   2.153   2.648 -1.0392  1.9231 -0.8780
  129DMF     H2 2032   0.741   2.207   2.516  1.0261  0.4017  0.3833
  129DMF     H3 2033   0.728   2.301   2.670 -0.2850  0.5725 -0.7182
  129DMF     H4 2034   0.754   2.154   2.868 -0.5919 -1.3692  1.3118
  129DMF     H5 2035   0.919   2.076   2.872  0.1791  0.7247 -0.2735
  129DMF     H6 2036   0.781   1.977   2.820 -0.9670  0.1254  1.3551
  129DMF     H7 2037   1.047   2.039   2.680 -0.8408 -3.3118 -0.6756
  130DMF     C1 2038   0.728   2.309   3.351  0.4282  0.0686 -0.1798
  130DMF     N1 2039   0.660   2.404   3.450 -0.0113  0.4786 -0.1884
  130DMF     C2 2040   0.511   2.394   3.448  0.3106 -0.1595 -0.4660
  130DMF     C3 2041   0.736   2.496   3.520 -0.3660 -0.3320  0.3753
  130DMF     O1 2042   0.852   2.496   3.513  0.0176 -0.2594 -0.3193
  130DMF     H1 2043   0.830   2.285   3.384  1.2586  0.2839 -2.4681
  130DMF     H2 2044   0.737   2.360   3.254  2.9002 -3.1421 -1.7343
  130DMF     H3 2045   0.682   2.210   3.342 -2.0342  1.1235  0.2617
  130DMF     H4 2046   0.470   2.322   3.520  1.0694 -0.0932  0.0391
  130DMF     H5 2047   0.480   2.357   3.349  0.7522  1.7723 -1.3426
  130DMF     H6 2048   0.464   2.492   3.455  0.7846  0.0816 -0.6177
  130DMF     H7 2049   0.676   2.574   3.572 -0.0283 -0.1106  0.4375
  131DMF     C1 2050   0.891   0.504   3.751  0.2461 -1.0063  0.0075
  131DMF     N1 2051   0.942   0.367   3.724 -0.4989 -0.2816  0.3883
  131DMF     C2 2052   0.951   0.330   3.583  0.2959  0.1981 -0.2841
  131DMF     C3 2053   0.947   0.271   3.831  0.0214  0.0532  0.7333
  131DMF     O1 2054   0.925   0.308   3.945 -0.2806  0.0692  0.3624
  131DMF     H1 2055   0.865   0.544   3.653 -1.8012  0.5355  1.1480
  131DMF     H2 2056   0.972   0.563   3.797  0.0023  1.8812 -3.0767
  131DMF     H3 2057   0.800   0.497   3.811  1.0430  2.9831  1.8611
  131DMF     H4 2058   0.853   0.299   3.546  0.5388 -1.4552  0.4049
  131DMF     H5 2059   1.020   0.247   3.562 -0.4516 -1.1612  2.3848
  131DMF     H6 2060   0.973   0.420   3.526 -1.4124  0.2981 -0.8113
  131DMF     H7 2061   0.971   0.168   3.797  0.4135  0.0530  1.0070
  132DMF     C1 2062   0.609   0.816   1.463 -0.1396 -0.4842  0.9302
  132DMF     N1 2063   0.611   0.961   1.435  0.5429 -0.4814 -0.1680
  132DMF     C2 2064   0.567   1.058   1.540 -0.7548  0.3367 -0.3681
  132DMF     C3 2065   0.603   1.000   1.301  0.1057  0.1385 -0.5274
  132DMF     O1 2066   0.612   0.919   1.216 -0.1398  0.0431  0.1710
  132DMF     H1 2067   0.556   0.774   1.377 -0.7849  2.3372 -0.1121
  132DMF     H2 2068   0.544   0.796   1.549  1.8471  2.2582  3.1678
  132DMF     H3 2069   0.709   0.777   1.487 -0.1217 -0.6461  0.5958
  132DMF     H4 2070   0.626   1.033   1.628  1.0730  0.5371 -1.5195
  132DMF     H5 2071   0.460   1.035   1.547 -0.6060 -0.6051 -1.1629
  132DMF     H6 2072   0.586   1.166   1.527  0.0643  0.4059  1.2913
  132DMF     H7 2073   0.593   1.109   1.283  3.4690  0.7153  0.7583
  133DMF     C1 2074   2.853   0.296   0.384  0.0987  0.0249  0.5750
  133DMF     N1 2075   2.712   0.338   0.393  0.0386  0.2719 -0.0229
  133DMF     C2 2076   2.668   0.430   0.500 -0.6127  0.3547 -0.5273
  133DMF     C3 2077   2.620   0.323   0.285  0.2332  0.1725 -0.3910
  133DMF     O1 2078   2.662   0.267   0.188 -0.1525 -0.3212  0.3496
  133DMF     H1 2079   2.868   0.187   0.376 -0.1953  0.0704 -0.7663
  133DMF     H2 2080   2.915   0.342   0.462 -0.7732  1.5717  0.3542
  133DMF     H3 2081   2.892   0.333   0.288  1.1584 -1.1633  0.5232
  133DMF     H4 2082   2.579   0.379   0.540  0.6360 -1.4367  0.0693
  133DMF     H5 2083   2.644   0.527   0.455 -1.5808 -0.1137 -1.0539
  133DMF     H6 2084   2.748   0.439   0.574  0.5158  0.1236 -1.7173
  133DMF     H7 2085   2.517   0.361   0.289 -1.1351 -3.3927 -0.3716
  134DMF     C1 2086   2.914   0.182   1.275 -0.0401  0.2491 -0.4049
  134DMF     N1 2087   2.931   0.267   1.400  0.8750  0.1363  0.3444
  134DMF     C2 2088   2.965   0.194   1.524 -0.3859 -0.1609  0.0127
  134DMF     C3 2089   2.918   0.408   1.397 -0.5629  0.9325  0.1278
  134DMF     O1 2090   2.895   0.470   1.297  0.3832 -0.0524  0.0714
  134DMF     H1 2091   2.956   0.219   1.180 -0.4374  1.8068  0.0250
  134DMF     H2 2092   2.807   0.175   1.254  0.0768  0.8046 -1.2456
  134DMF     H3 2093   2.948   0.079   1.291  1.3607  0.9035  0.9054
  134DMF     H4 2094   2.930   0.090   1.515  0.6834 -0.3998 -1.4881
  134DMF     H5 2095   2.929   0.234   1.620 -1.3951  0.5506 -0.6426
  134DMF     H6 2096   3.074   0.192   1.532 -0.4258  0.4834  0.9208
  134DMF     H7 2097   2.937   0.452   1.496  0.9297  0.4396  0.0730
  135DMF     C1 2098   1.899   1.224   0.166 -0.0440  0.4854 -0.2939
  135DMF     N1 2099   1.934   1.177   0.302  0.1393  0.2191 -0.5236
  135DMF     C2 2100   1.976   1.043   0.330  0.3720  0.4928  0.4291
  135DMF     C3 2101   1.928   1.267   0.415  0.3393 -0.3643 -0.0826
  135DMF     O1 2102   1.899   1.384   0.399  0.7031  0.3067 -0.0240
  135DMF     H1 2103   1.874   1.135   0.107 -1.3940  0.9413 -0.4264
  135DMF     H2 2104   1.983   1.282   0.126 -0.0568  0.9377  0.3182
  135DMF     H3 2105   1.803   1.276   0.156 -0.8370 -1.2702 -2.0674
  135DMF     H4 2106   2.076   1.016   0.293  0.8075 -0.0114  1.9304
  135DMF     H5 2107   1.892   0.989   0.286  1.9412 -0.9874 -0.8456
  135DMF     H6 2108   1.989   1.015   0.435  2.2131  1.5909  0.5168
  135DMF     H7 2109   1.941   1.214   0.511 -1.5685  1.5870  1.2929
  136DMF     C1 2110   2.528   2.271   2.400 -0.0183 -1.1228 -0.1621
  136DMF     N1 2111   2.431   2.378   2.361 -0.1703  0.2716 -0.2411
  136DMF     C2 2112   2.411   2.414   2.222  0.4236  0.0418 -0.3545
  136DMF     C3 2113   2.347   2.435   2.455  0.3433 -1.0777 -0.0858
  136DMF     O1 2114   2.353   2.392   2.571  0.2397 -0.8525  0.3870
  136DMF     H1 2115   2.481   2.182   2.444  1.2676 -1.1839  1.1261
  136DMF     H2 2116   2.597   2.301   2.480 -0.2644  0.1590 -0.4130
  136DMF     H3 2117   2.581   2.230   2.313 -0.0756 -1.2357 -0.1436
  136DMF     H4 2118   2.346   2.501   2.216  0.2026  0.0618  2.0875
  136DMF     H5 2119   2.369   2.329   2.166  1.2544  0.3977 -1.5314
  136DMF     H6 2120   2.513   2.443   2.192  0.5051 -0.9191 -1.0652
  136DMF     H7 2121   2.262   2.499   2.423 -0.4982 -0.0073  4.0871
  137DMF     C1 2122   2.521   1.158   0.406 -0.1055 -0.9615  0.2749
  137DMF     N1 2123   2.414   1.182   0.501  0.2201 -0.3516 -0.1992
  137DMF     C2 2124   2.277   1.206   0.456 -0.3304  0.0659  0.2320
  137DMF     C3 2125   2.433   1.173   0.640  0.2110  0.5557 -0.0338
  137DMF     O1 2126   2.536   1.128   0.692 -0.7544 -0.1633  0.2001
  137DMF     H1 2127   2.587   1.242   0.384 -0.4806 -1.3083 -2.3433
  137DMF     H2 2128   2.469   1.109   0.322 -1.7839  1.4387 -0.1332
  137DMF     H3 2129   2.590   1.084   0.448  0.8513 -0.8162 -1.0252
  137DMF     H4 2130   2.209   1.253   0.528 -1.1704  1.9582 -1.7535
  137DMF     H5 2131   2.239   1.113   0.411 -0.4739 -0.1413  0.7799
  137DMF     H6 2132   2.281   1.276   0.372  1.5092 -0.7991 -0.4410
  137DMF     H7 2133   2.346   1.201   0.701  0.2755  0.8558 -0.0813
  138DMF     C1 2134   2.244   2.114   0.776 -0.0381  0.4493  0.7526
  138DMF     N1 2135   2.135   2.073   0.690  0.0171  0.5024 -0.0470
  138DMF     C2 2136   2.154   1.951   0.613 -0.5444 -0.0153  0.0317
  138DMF     C3 2137   2.013   2.148   0.670 -0.8146 -0.0750 -0.2971
  138DMF     O1 2138   1.989   2.253   0.733 -0.0274  0.3557  0.3892
  138DMF     H1 2139   2.216   2.115   0.882 -0.1678 -1.5228  0.7503
  138DMF     H2 2140   2.280   2.212   0.743  2.3337 -0.1068  1.5964
  138DMF     H3 2141   2.335   2.052   0.770 -0.8732 -0.6454 -1.1173
  138DMF     H4 2142   2.068   1.929   0.549  0.0337 -1.5469 -0.2415
  138DMF     H5 2143   2.172   1.865   0.680  1.1086  0.2010 -0.1130
  138DMF     H6 2144   2.249   1.958   0.559 -0.5598 -2.0807 -0.3276
  138DMF     H7 2145   1.946   2.106   0.593  1.7073 -0.0443 -2.6053
  139DMF     C1 2146   1.589   0.598   1.349 -0.2385  0.6408 -0.1623
  139DMF     N1 2147   1.570   0.491   1.245 -0.2074 -0.1904 -0.1640
  139DMF     C2 2148   1.438   0.471   1.195 -0.3772 -0.1791  0.0223
  139DMF     C3 2149   1.675   0.428   1.187  0.0906  0.1454  0.1273
  139DMF     O1 2150   1.785   0.435   1.233  0.2005  0.2313 -0.6657
  139DMF     H1 2151   1.688   0.603   1.396 -0.1893 -0.5812 -0.1284
  139DMF     H2 2152   1.501   0.597   1.415 -0.0019  1.4576  0.1796
  139DMF     H3 2153   1.579   0.697   1.302  1.1895  0.1485 -1.5195
  139DMF     H4 2154   1.435   0.519   1.096 -0.3962 -1.0717 -0.4149
  139DMF     H5 2155   1.372   0.518   1.269  0.6191 -0.9864  1.4324
  139DMF     H6 2156   1.414   0.365   1.182 -0.8029 -0.0792 -0.0401
  139DMF     H7 2157   1.651   0.377   1.092  0.1650  1.7453 -0.7708
  140DMF     C1 2158   1.392   0.580   3.283 -0.2780 -0.1878 -0.1969
  140DMF     N1 2159   1.290   0.499   3.222 -0.6673 -0.7307 -0.2601
  140DMF     C2 2160   1.198   0.561   3.117 -0.0296  0.2005 -0.5256
  140DMF     C3 2161   1.258   0.368   3.256 -0.7543  0.4465  0.3782
  140DMF     O1 2162   1.319   0.304   3.337 -0.4156  0.5209  0.0851
  140DMF     H1 2163   1.476   0.578   3.212  0.9920 -1.5935  1.3114
  140DMF     H2 2164   1.419   0.531   3.377  0.3156 -0.5259 -0.5406
  140DMF     H3 2165   1.367   0.683   3.310 -1.4113 -0.1447 -1.3279
  140DMF     H4 2166   1.111   0.606   3.168  0.5866 -1.0013  1.6220
  140DMF     H5 2167   1.182   0.499   3.028  0.8012 -3.1470  1.5988
  140DMF     H6 2168   1.247   0.656   3.091  0.3204 -0.2949 -1.6741
  140DMF     H7 2169   1.170   0.331   3.202 -0.1805  1.4228 -1.2752
  141DMF     C1 2170   2.358   2.185   2.972 -0.3966  0.3556 -0.0022
  141DMF     N1 2171   2.444   2.294   2.901  0.4335  0.4252 -0.7256
  141DMF     C2 2172   2.569   2.255   2.842 -0.2912 -0.0947  0.2740
  141DMF     C3 2173   2.383   2.416   2.863 -0.3471 -0.4427  0.7097
  141DMF     O1 2174   2.288   2.462   2.917 -0.0214  0.4864  0.3072
  141DMF     H1 2175   2.413   2.145   3.057 -0.5274  1.7637  0.7639
  141DMF     H2 2176   2.337   2.101   2.904 -2.8422  0.2812  0.7906
  141DMF     H3 2177   2.260   2.222   3.005 -0.7042 -0.9390  0.5348
  141DMF     H4 2178   2.632   2.344   2.830  0.1138 -0.3747  0.3063
  141DMF     H5 2179   2.547   2.221   2.740  2.3761 -0.5354 -0.2096
  141DMF     H6 2180   2.618   2.182   2.908  0.2539 -0.4853 -0.5519
  141DMF     H7 2181   2.439   2.471   2.785 -0.1955 -0.9909  0.4280
  142DMF     C1 2182   0.136   1.860   1.547 -0.5468 -0.1130 -0.2297
  142DMF     N1 2183  -0.000   1.922   1.558  0.4989 -0.1334  0.7069
  142DMF     C2 2184  -0.114   1.844   1.505  0.4632 -0.2984 -0.0661
  142DMF     C3 2185  -0.015   2.061   1.594  0.5429  0.3527 -0.1359
  142DMF     O1 2186   0.076   2.135   1.618  0.0008  0.1479 -0.2101
  142DMF     H1 2187   0.141   1.759   1.591  1.0695  0.3380  0.6542
  142DMF     H2 2188   0.203   1.926   1.604  0.4372 -0.3712 -1.0785
  142DMF     H3 2189   0.160   1.860   1.440  0.4012 -0.3828 -0.0242
  142DMF     H4 2190  -0.194   1.850   1.580  1.0981 -1.9910  0.7742
  142DMF     H5 2191  -0.088   1.738   1.491  1.0152  0.0504 -1.8078
  142DMF     H6 2192  -0.151   1.889   1.412 -1.8413  1.2810  1.5495
  142DMF     H7 2193  -0.121   2.092   1.599  0.4980 -0.0484  2.2197
  143DMF     C1 2194   2.647   0.963   1.549 -0.6478 -0.3233  0.0708
  143DMF     N1 2195   2.644   0.817   1.560 -0.7294  0.1737  0.2322
  143DMF     C2 2196   2.769   0.744   1.585  0.6816 -0.5208  0.3216
  143DMF     C3 2197   2.522   0.754   1.564 -0.0816 -0.0530  0.3946
  143DMF     O1 2198   2.414   0.814   1.563  0.5230 -0.2186  0.1343
  143DMF     H1 2199   2.653   1.000   1.446  1.7525 -0.9307 -0.0240
  143DMF     H2 2200   2.739   0.996   1.598  0.9115 -0.3914 -2.6851
  143DMF     H3 2201   2.566   1.002   1.612  2.2768  1.6856  2.7425
  143DMF     H4 2202   2.827   0.760   1.493  0.1664  0.3329  0.1401
  143DMF     H5 2203   2.761   0.638   1.612 -2.2761 -0.6094 -0.7656
  143DMF     H6 2204   2.818   0.795   1.668  1.3168 -1.2962  0.4327
  143DMF     H7 2205   2.537   0.645   1.575 -0.5496 -0.1366  0.2368
  144DMF     C1 2206   2.103   3.037   0.458  0.3274  0.2825  0.1239
  144DMF     N1 2207   2.071   3.005   0.598 -0.2522 -0.3683 -0.1648
  144DMF     C2 2208   2.100   3.110   0.698  0.5517  0.0333 -0.9944
  144DMF     C3 2209   2.037   2.871   0.633 -0.2026  0.0876  0.3204
  144DMF     O1 2210   2.011   2.786   0.556  0.1730 -0.1372 -0.1356
  144DMF     H1 2211   2.101   2.952   0.390 -0.0884 -0.2635  0.8104
  144DMF     H2 2212   2.207   3.073   0.460  0.2111  0.7712 -1.8426
  144DMF     H3 2213   2.052   3.126   0.418  0.1571  0.8434  1.5485
  144DMF     H4 2214   2.063   3.209   0.666 -0.0429 -0.3964 -1.6676
  144DMF     H5 2215   2.208   3.127   0.704  0.1968  1.6849  1.4802
  144DMF     H6 2216   2.062   3.091   0.799  1.0492  2.4821 -0.3075
  144DMF     H7 2217   2.035   2.845   0.740  1.8894 -0.6158  0.2134
  145DMF     C1 2218   0.275   3.231   1.506  0.1337 -0.3715 -0.2323
  145DMF     N1 2219   0.313   3.356   1.448 -1.2304 -0.5829  0.2979
  145DMF     C2 2220   0.357   3.458   1.539  0.3782 -0.4233  0.0604
  145DMF     C3 2221   0.300   3.384   1.316 -0.0061  0.1279  0.2602
  145DMF     O1 2222   0.260   3.296   1.239 -0.3564 -0.2815  0.5676
  145DMF     H1 2223   0.189   3.261   1.566  1.3618 -0.2513  1.4893
  145DMF     H2 2224   0.358   3.202   1.571  0.5163  1.6405  0.2254
  145DMF     H3 2225   0.245   3.161   1.427  2.4707 -0.1358 -1.3795
  145DMF     H4 2226   0.365   3.427   1.644 -0.6195 -0.5122  0.1199
  145DMF     H5 2227   0.287   3.543   1.538  2.1769  1.1179  1.4012
  145DMF     H6 2228   0.451   3.501   1.504 -0.1538  2.4468  1.9635
  145DMF     H7 2229   0.321   3.488   1.287 -1.7596  0.6973  0.9733
  146DMF     C1 2230   2.701   3.147   1.118 -0.0705  0.1632 -0.5030
  146DMF     N1 2231   2.848   3.163   1.098  0.5040  0.4390 -0.5284
  146DMF     C2 2232   2.945   3.059   1.135  0.1798 -0.4660 -0.2502
  146DMF     C3 2233   2.896   3.288   1.053 -0.2296 -0.3131 -0.1083
  146DMF     O1 2234   2.820   3.382   1.025  0.3640 -0.4273  0.0529
  146DMF     H1 2235   2.665   3.085   1.035 -0.1459 -1.0356  0.4092
  146DMF     H2 2236   2.649   3.244   1.119  1.2506  0.8939  0.7538
  146DMF     H3 2237   2.679   3.092   1.211 -0.7601  0.7345 -0.3173
  146DMF     H4 2238   3.038   3.082   1.081 -0.5427  2.8202 -0.1714
  146DMF     H5 2239   2.913   2.961   1.099  1.6382 -1.1054  0.1273
  146DMF     H6 2240   2.946   3.060   1.245  0.1944 -0.7701 -0.2466
  146DMF     H7 2241   3.003   3.288   1.025  0.4594 -2.0056  2.2991
  147DMF     C1 2242   0.026   2.390   0.816  0.6348 -0.2512 -0.3771
  147DMF     N1 2243  -0.040   2.379   0.952  0.4419  0.2164 -0.1905
  147DMF     C2 2244  -0.119   2.258   0.986  0.3421 -0.1988 -0.0599
  147DMF     C3 2245  -0.033   2.487   1.044 -0.8189 -0.1797 -0.0179
  147DMF     O1 2246   0.026   2.591   1.012  0.0651 -0.4895  0.2262
  147DMF     H1 2247   0.132   2.408   0.837  0.1162  1.2470  1.0446
  147DMF     H2 2248  -0.014   2.482   0.771  1.4497 -0.4488 -1.5301
  147DMF     H3 2249   0.009   2.303   0.752  0.0202 -0.1878 -0.2965
  147DMF     H4 2250  -0.104   2.230   1.091  0.8957 -1.5865 -0.5027
  147DMF     H5 2251  -0.100   2.173   0.920 -1.2363 -0.4831 -0.1626
  147DMF     H6 2252  -0.226   2.285   0.985  0.5858  0.9747  1.8456
  147DMF     H7 2253  -0.083   2.476   1.142 -0.4943  3.2392  0.6095
  148DMF     C1 2254   0.238   2.296   1.246 -0.1515  0.3567 -0.2346
  148DMF     N1 2255   0.386   2.288   1.253 -0.1574  0.1192  0.0971
  148DMF     C2 2256   0.465   2.408   1.242 -0.0578  0.5064  0.0984
  148DMF     C3 2257   0.440   2.167   1.211  0.2387  0.3828 -0.2706
  148DMF     O1 2258   0.376   2.083   1.147  0.1835 -0.4000 -0.0240
  148DMF     H1 2259   0.190   2.269   1.151 -0.3595  1.1341 -0.3601
  148DMF     H2 2260   0.197   2.392   1.280  1.7667  0.7940  0.9574
  148DMF     H3 2261   0.196   2.230   1.323 -1.6569 -0.7212 -1.9472
  148DMF     H4 2262   0.424   2.497   1.292  1.3737  2.1508 -1.5509
  148DMF     H5 2263   0.476   2.447   1.140  1.4211 -0.7292 -0.2290
  148DMF     H6 2264   0.564   2.382   1.282 -0.0364 -0.6938 -0.7150
  148DMF     H7 2265   0.547   2.157   1.235 -0.6681 -0.7432  3.5524
  149DMF     C1 2266   1.485   1.540   1.016  0.3001  0.6148 -0.2297
  149DMF     N1 2267   1.496   1.623   1.142  0.2667 -0.1223 -0.4098
  149DMF     C2 2268   1.616   1.598   1.222 -0.3250 -0.1928  0.1954
  149DMF     C3 2269   1.407   1.730   1.175 -0.0433 -0.0640  0.3378
  149DMF     O1 2270   1.322   1.766   1.092 -0.2987  0.6842 -0.4068
  149DMF     H1 2271   1.543   1.597   0.942 -0.7447  1.7546 -0.1809
  149DMF     H2 2272   1.379   1.521   0.999  0.2930  0.7668 -0.3586
  149DMF     H3 2273   1.533   1.444   1.041 -0.2528 -0.5104 -3.2313
  149DMF     H4 2274   1.614   1.647   1.321  0.9177 -1.7619  1.0184
  149DMF     H5 2275   1.708   1.624   1.167 -0.4129 -0.7051 -0.1961
  149DMF     H6 2276   1.621   1.489   1.234 -3.0042 -0.3034  0.4493
  149DMF     H7 2277   1.419   1.767   1.278  1.1141 -0.9498  0.5371
  150DMF     C1 2278   2.807   3.051   0.748  0.3138 -0.2946 -0.3610
  150DMF     N1 2279   2.734   3.174   0.754  0.4854  0.5456 -0.0376
  150DMF     C2 2280   2.806   3.290   0.716 -0.8568 -0.2756  0.5026
  150DMF     C3 2281   2.597   3.172   0.773  0.3978 -0.7081 -0.0902
  150DMF     O1 2282   2.534   3.076   0.808 -0.0775  0.4815 -0.3156
  150DMF     H1 2283   2.915   3.064   0.750  0.0152  2.2521  0.9573
  150DMF     H2 2284   2.777   3.005   0.653 -0.7261 -0.8807  0.2272
  150DMF     H3 2285   2.780   2.995   0.839  0.5333  1.6398  0.9288
  150DMF     H4 2286   2.825   3.288   0.608  2.4601 -0.9373  1.0491
  150DMF     H5 2287   2.898   3.317   0.770 -1.7721  1.4852  1.2498
  150DMF     H6 2288   2.750   3.383   0.735 -0.2180  0.6839 -1.9815
  150DMF     H7 2289   2.546   3.268   0.750  1.4939 -0.5973 -2.2450
  151DMF     C1 2290   1.072   1.385   0.435 -0.5777  0.1311 -0.3555
  151DMF     N1 2291   1.076   1.505   0.347 -0.1328  0.1533 -0.2448
  151DMF     C2 2292   1.089   1.639   0.414 -0.0099 -0.0661  0.1860
  151DMF     C3 2293   1.064   1.493   0.214  0.1744 -0.0661 -0.3695
  151DMF     O1 2294   1.065   1.389   0.154 -0.6688  0.3274 -0.3851
  151DMF     H1 2295   1.114   1.413   0.533  0.1572 -2.6187  0.1436
  151DMF     H2 2296   1.139   1.308   0.395  0.9982  2.3633 -2.2272
  151DMF     H3 2297   0.970   1.347   0.450  0.7960 -3.4938  0.3125
  151DMF     H4 2298   1.071   1.626   0.521  0.5822 -0.8800  0.1856
  151DMF     H5 2299   1.012   1.703   0.369 -0.3810 -0.0900  0.7792
  151DMF     H6 2300   1.189   1.682   0.401  0.1690 -0.4723  0.2260
  151DMF     H7 2301   1.071   1.588   0.158 -0.0956  1.0952  1.5113
  152DMF     C1 2302   0.786   1.992   0.012  0.3755  0.0405 -0.4316
  152DMF     N1 2303   0.933   1.990   0.020 -0.1975  0.2808 -0.5313
  152DMF     C2 2304   1.004   2.090   0.108  0.0631 -0.4523 -0.7631
  152DMF     C3 2305   1.005   1.888  -0.050  0.0738 -1.1238  0.6520
  152DMF     O1 2306   0.951   1.803  -0.115 -0.3300  0.3007  0.0896
  152DMF     H1 2307   0.741   1.896   0.038 -1.2293  1.3365  1.7757
  152DMF     H2 2308   0.752   2.019  -0.089 -1.8895 -1.7608 -0.1744
  152DMF     H3 2309   0.751   2.067   0.084 -0.0145 -1.0028  0.4741
  152DMF     H4 2310   1.111   2.092   0.084  0.2831  1.3980  0.3113
  152DMF     H5 2311   0.994   2.061   0.214 -0.3783 -0.5216 -0.8241
  152DMF     H6 2312   0.969   2.192   0.093  1.8074 -0.2235 -3.7727
  152DMF     H7 2313   1.115   1.883  -0.043  0.2085  0.2600 -0.2735
  153DMF     C1 2314   2.447   2.717   0.391  0.0910  0.0814 -0.5229
  153DMF     N1 2315   2.486   2.830   0.473 -0.3332 -0.2437 -0.6845
  153DMF     C2 2316   2.550   2.948   0.408  0.2874  0.0034  0.0126
  153DMF     C3 2317   2.457   2.830   0.611  0.2391 -0.1002  0.1395
  153DMF     O1 2318   2.412   2.730   0.671 -0.6064  0.2266 -0.6930
  153DMF     H1 2319   2.391   2.758   0.306 -0.0168 -0.4288 -0.6951
  153DMF     H2 2320   2.378   2.650   0.443  0.4523 -0.7024 -1.0534
  153DMF     H3 2321   2.538   2.668   0.354  0.8408  0.0232  1.3228
  153DMF     H4 2322   2.657   2.955   0.430  0.3231 -0.0765 -0.1392
  153DMF     H5 2323   2.514   3.041   0.454 -0.7807 -0.8799  0.9911
  153DMF     H6 2324   2.536   2.962   0.300 -3.5306  1.7825  0.6473
  153DMF     H7 2325   2.483   2.921   0.668 -0.1395 -0.3405  0.6964
  154DMF     C1 2326   1.827   0.519   3.518  0.5210  0.3370 -0.2238
  154DMF     N1 2327   1.943   0.446   3.464 -0.0615 -0.5528  0.2335
  154DMF     C2 2328   1.929   0.304   3.457  0.0191 -0.0920  0.2836
  154DMF     C3 2329   2.063   0.507   3.432 -0.3189 -0.1339  0.0457
  154DMF     O1 2330   2.086   0.629   3.456 -0.1290 -0.0705 -0.0390
  154DMF     H1 2331   1.732   0.488   3.473 -0.1614  1.0704  0.6996
  154DMF     H2 2332   1.837   0.627   3.497 -0.4891  0.5996  0.6360
  154DMF     H3 2333   1.834   0.511   3.627 -1.6394  3.2849  0.2063
  154DMF     H4 2334   1.944   0.283   3.350  2.8203 -2.5468  1.0852
  154DMF     H5 2335   1.846   0.258   3.512  1.2458 -2.2040  0.4520
  154DMF     H6 2336   2.012   0.270   3.520  0.5475  3.4552  1.5856
  154DMF     H7 2337   2.129   0.440   3.373  2.3442  0.4410  2.2883
  155DMF     C1 2338   2.944   1.619   0.625 -0.2782  0.1880  0.6693
  155DMF     N1 2339   3.075   1.691   0.611 -0.0485  0.9357  0.0140
  155DMF     C2 2340   3.121   1.712   0.477 -0.0157 -0.4940  0.3796
  155DMF     C3 2341   3.121   1.772   0.717 -0.1576  0.4151  0.1252
  155DMF     O1 2342   3.068   1.775   0.833  0.3000  0.0691  0.9114
  155DMF     H1 2343   2.879   1.677   0.692 -2.8355 -2.2109  0.3251
  155DMF     H2 2344   2.956   1.521   0.672 -1.7460 -0.9826 -1.3288
  155DMF     H3 2345   2.895   1.605   0.528  0.4570 -1.7626  0.5554
  155DMF     H4 2346   3.198   1.790   0.481 -0.7994  0.3098  0.0697
  155DMF     H5 2347   3.037   1.754   0.420 -1.3799 -1.0347  1.9412
  155DMF     H6 2348   3.164   1.624   0.428  0.1989 -0.2343  0.0986
  155DMF     H7 2349   3.213   1.823   0.682 -0.8633  2.4589  1.1614
  156DMF     C1 2350   0.915   0.709   0.838 -0.4812 -0.1597 -0.2570
  156DMF     N1 2351   0.891   0.799   0.954  0.0838  0.1101  0.6923
  156DMF     C2 2352   0.881   0.949   0.930  0.7275  0.0951  0.7417
  156DMF     C3 2353   0.872   0.754   1.082 -0.2151  0.6793 -0.6704
  156DMF     O1 2354   0.864   0.638   1.113 -0.0203 -0.0119 -1.2618
  156DMF     H1 2355   0.839   0.726   0.761  0.8877  0.0062 -1.5652
  156DMF     H2 2356   0.923   0.605   0.872 -0.3305  0.4347  1.5862
  156DMF     H3 2357   1.013   0.745   0.807 -0.4035 -0.8092 -0.7824
  156DMF     H4 2358   0.858   0.978   0.827  2.3541 -0.6315  0.1552
  156DMF     H5 2359   0.978   0.994   0.956  1.3946 -0.9230  0.0592
  156DMF     H6 2360   0.795   0.990   0.985 -0.0166  0.4973 -0.7084
  156DMF     H7 2361   0.863   0.828   1.164  1.9283 -1.9172  2.0362
  157DMF     C1 2362   1.885   0.860   1.108 -0.7322 -0.4626 -0.1074
  157DMF     N1 2363   1.915   0.728   1.050 -0.0990 -0.9367 -0.0576
  157DMF     C2 2364   2.042   0.658   1.094  0.6044  0.1697 -0.7451
  157DMF     C3 2365   1.824   0.672   0.960  0.5155 -0.2591 -0.7345
  157DMF     O1 2366   1.708   0.721   0.952  0.3766 -0.6943 -0.3830
  157DMF     H1 2367   1.785   0.873   1.151  0.1142 -0.2928  1.8989
  157DMF     H2 2368   1.901   0.946   1.042  1.1931 -0.0356  0.8386
  157DMF     H3 2369   1.964   0.870   1.185  2.6557 -1.8810 -3.2518
  157DMF     H4 2370   2.031   0.552   1.067 -0.4836  0.3407 -1.0054
  157DMF     H5 2371   2.052   0.649   1.203  0.9180  3.5622 -0.4673
  157DMF     H6 2372   2.130   0.696   1.042  1.3057 -0.1263  0.2098
  157DMF     H7 2373   1.860   0.591   0.893  0.0043  0.2311 -1.6154
  158DMF     C1 2374   2.699   1.027   0.061 -0.0442  0.3381 -0.8914
  158DMF     N1 2375   2.832   1.081   0.075  0.1699  0.0311 -0.3320
  158DMF     C2 2376   2.863   1.193  -0.019 -0.0273  0.4316  0.7319
  158DMF     C3 2377   2.924   1.040   0.173 -0.6686 -0.4576 -0.4037
  158DMF     O1 2378   2.913   0.947   0.249  0.3151  0.0021  0.1450
  158DMF     H1 2379   2.644   1.075  -0.021 -1.0555 -0.0857 -0.4824
  158DMF     H2 2380   2.638   1.032   0.153 -2.0540  1.3665 -2.2448
  158DMF     H3 2381   2.721   0.923   0.033 -3.0604  0.5129 -4.2539
  158DMF     H4 2382   2.864   1.159  -0.123  0.7959  1.2863  0.4521
  158DMF     H5 2383   2.955   1.246   0.009  0.0744  1.0961 -0.8675
  158DMF     H6 2384   2.787   1.272  -0.009 -0.1297  0.4301 -0.0093
  158DMF     H7 2385   3.018   1.097   0.163 -1.1590  0.5875  0.7496
  159DMF     C1 2386   2.583   1.607   3.427 -0.0733  0.1728  0.2384
  159DMF     N1 2387   2.727   1.596   3.425 -0.0501 -0.2761 -0.7702
  159DMF     C2 2388   2.803   1.661   3.310  0.4389 -0.7255 -0.0183
  159DMF     C3 2389   2.783   1.499   3.504  0.5331 -0.1534  0.0915
  159DMF     O1 2390   2.720   1.444   3.593 -0.2795  0.8147 -0.0093
  159DMF     H1 2391   2.529   1.523   3.381  0.0241 -0.2197  0.8292
  159DMF     H2 2392   2.559   1.694   3.366 -0.1252  0.0646  0.1030
  159DMF     H3 2393   2.544   1.614   3.529 -2.0349  0.9251 -0.5565
  159DMF     H4 2394   2.909   1.669   3.339  0.6227  0.7150 -1.0862
  159DMF     H5 2395   2.764   1.763   3.311 -0.1730 -0.8926 -3.0306
  159DMF     H6 2396   2.797   1.604   3.217 -0.9895 -1.3417  0.4310
  159DMF     H7 2397   2.889   1.478   3.481  1.6134  2.9793  1.8179
  160DMF     C1 2398   0.303   1.246   2.510 -0.0738  0.8870  0.2611
  160DMF     N1 2399   0.388   1.220   2.619  0.2621  0.1345  0.4638
  160DMF     C2 2400   0.512   1.149   2.596 -0.0349  0.0956  0.2019
  160DMF     C3 2401   0.350   1.235   2.749  0.1739  0.7262 -0.2083
  160DMF     O1 2402   0.240   1.276   2.786 -0.8331  0.4630 -0.1368
  160DMF     H1 2403   0.206   1.290   2.536 -0.3591  0.3783  0.0694
  160DMF     H2 2404   0.293   1.155   2.450 -0.1088 -1.3135  3.4876
  160DMF     H3 2405   0.363   1.318   2.452  2.8401  0.3601  2.5191
  160DMF     H4 2406   0.567   1.113   2.685 -1.4371 -1.9395  0.2850
  160DMF     H5 2407   0.577   1.193   2.519 -1.0433  0.4414 -0.4642
  160DMF     H6 2408   0.483   1.051   2.556  0.0517 -0.5237  1.6185
  160DMF     H7 2409   0.422   1.196   2.823 -2.7716 -0.5289  2.0987
  161DMF     C1 2410   3.354   2.103   2.499  0.5502 -0.0199  0.4563
  161DMF     N1 2411   3.365   1.980   2.578 -0.2987 -0.5327 -0.5752
  161DMF     C2 2412   3.380   1.849   2.506  0.0046 -0.2520  0.1399
  161DMF     C3 2413   3.336   1.985   2.713  0.4059  0.0020 -0.2063
  161DMF     O1 2414   3.294   2.093   2.759 -0.2086  0.0551  0.3185
  161DMF     H1 2415   3.429   2.176   2.530  0.6402  0.6725 -1.3313
  161DMF     H2 2416   3.252   2.143   2.509  0.7170  0.9044 -1.4910
  161DMF     H3 2417   3.366   2.075   2.394 -0.9855 -1.4360  0.6180
  161DMF     H4 2418   3.457   1.860   2.429  2.2338  1.4886  2.5321
  161DMF     H5 2419   3.281   1.817   2.469 -1.1541 -1.3995  4.0260
  161DMF     H6 2420   3.426   1.774   2.570 -0.8889 -3.0494 -2.3771
  161DMF     H7 2421   3.332   1.890   2.768 -2.3301  0.6107  0.7248
  162DMF     C1 2422   2.711   0.964   2.482  0.0050  0.2387 -0.6953
  162DMF     N1 2423   2.768   0.875   2.379  0.0590  1.0013  0.3654
  162DMF     C2 2424   2.755   0.909   2.238 -0.0683  0.1408 -0.1474
  162DMF     C3 2425   2.868   0.780   2.406 -0.0608 -0.0068  0.3721
  162DMF     O1 2426   2.887   0.731   2.518 -0.1235 -0.2964  0.5379
  162DMF     H1 2427   2.783   0.969   2.564 -0.6956  0.2086 -0.0694
  162DMF     H2 2428   2.612   0.928   2.514 -0.1759 -0.1290 -1.6511
  162DMF     H3 2429   2.702   1.063   2.436  1.6180  1.3224  1.2385
  162DMF     H4 2430   2.844   0.877   2.181 -0.8768 -0.7461 -0.9343
  162DMF     H5 2431   2.755   1.018   2.229  1.1556  0.0450 -1.4978
  162DMF     H6 2432   2.672   0.850   2.198 -0.0360 -1.8099  2.5261
  162DMF     H7 2433   2.934   0.759   2.320 -0.4729  3.7909 -0.9526
  163DMF     C1 2434   2.353   0.421   2.678 -0.6798 -0.3901  0.3288
  163DMF     N1 2435   2.374   0.541   2.781  0.4689 -0.2346  0.4704
  163DMF     C2 2436   2.315   0.665   2.731 -0.2429  0.2714 -0.5672
  163DMF     C3 2437   2.453   0.537   2.903 -1.0035  0.6135 -0.1596
  163DMF     O1 2438   2.495   0.429   2.941  0.2405  0.2062 -0.3399
  163DMF     H1 2439   2.425   0.420   2.595 -1.7504 -0.1724 -0.6111
  163DMF     H2 2440   2.256   0.412   2.628 -0.2572  0.3174 -0.6296
  163DMF     H3 2441   2.366   0.325   2.730  1.0135 -0.6249 -0.4944
  163DMF     H4 2442   2.213   0.639   2.702  0.5817 -0.5656 -2.8141
  163DMF     H5 2443   2.383   0.696   2.651 -2.1940  0.5715 -2.1186
  163DMF     H6 2444   2.315   0.744   2.808  0.7828 -1.8613  1.7189
  163DMF     H7 2445   2.467   0.635   2.951  2.0114 -0.2958  0.9058
  164DMF     C1 2446   0.671   0.574   2.705  0.2038 -0.0992  0.0005
  164DMF     N1 2447   0.808   0.550   2.646  0.3261 -0.0372 -0.1468
  164DMF     C2 2448   0.872   0.415   2.648 -0.3487 -0.7285  0.4603
  164DMF     C3 2449   0.884   0.643   2.564 -0.5592  0.7738 -0.3712
  164DMF     O1 2450   0.850   0.758   2.555 -0.6155  0.4130  0.0990
  164DMF     H1 2451   0.647   0.492   2.774  1.1891 -1.5357 -1.3453
  164DMF     H2 2452   0.599   0.578   2.622 -0.3122 -0.1317  0.4374
  164DMF     H3 2453   0.667   0.671   2.756  2.0804  0.4610 -0.8777
  164DMF     H4 2454   0.849   0.364   2.554  0.0278  0.4560 -0.2748
  164DMF     H5 2455   0.842   0.359   2.737  0.4594  0.3162  1.4109
  164DMF     H6 2456   0.981   0.428   2.651 -0.5942  1.8787 -1.3265
  164DMF     H7 2457   0.968   0.595   2.511 -1.4529 -0.3406 -0.8172
  165DMF     C1 2458   2.480   2.161   0.146 -0.0576  0.0514  0.0892
  165DMF     N1 2459   2.525   2.158   0.280 -0.6882  0.5232  0.9435
  165DMF     C2 2460   2.622   2.263   0.331 -0.0861 -0.4563 -0.2846
  165DMF     C3 2461   2.474   2.056   0.363 -0.0135  0.0482  0.0650
  165DMF     O1 2462   2.409   1.965   0.316 -0.3961  0.1830  0.5866
  165DMF     H1 2463   2.380   2.205   0.155  0.0172  0.1624  0.3788
  165DMF     H2 2464   2.484   2.065   0.093  0.3486  0.3405 -0.4098
  165DMF     H3 2465   2.541   2.235   0.093 -0.3716  2.3219  2.7736
  165DMF     H4 2466   2.682   2.286   0.242 -0.0290  0.9840  0.1162
  165DMF     H5 2467   2.679   2.229   0.419 -0.3081  1.7951  0.7689
  165DMF     H6 2468   2.568   2.356   0.356  0.4958 -0.3637  0.6661
  165DMF     H7 2469   2.515   2.066   0.465  1.5869 -0.2323 -0.5286
  166DMF     C1 2470   2.489   2.211   3.502  0.2428 -0.8122  0.3761
  166DMF     N1 2471   2.530   2.079   3.476  0.2252  0.1486 -0.5507
  166DMF     C2 2472   2.617   2.019   3.575  0.0279  0.2762  0.3201
  166DMF     C3 2473   2.495   2.011   3.356  0.3566 -0.3265 -0.1005
  166DMF     O1 2474   2.426   2.058   3.266  0.1890  0.8267 -0.2047
  166DMF     H1 2475   2.508   2.239   3.606  1.9947 -1.6939  0.3166
  166DMF     H2 2476   2.385   2.224   3.469 -0.4016 -2.3643  1.7131
  166DMF     H3 2477   2.540   2.283   3.437  2.4446 -2.4297  0.2367
  166DMF     H4 2478   2.551   1.976   3.652  1.0823  0.3226  1.2654
  166DMF     H5 2479   2.683   2.092   3.623 -0.4061  0.5673  0.4755
  166DMF     H6 2480   2.672   1.933   3.536  0.1239  1.5886 -2.4834
  166DMF     H7 2481   2.551   1.916   3.355  0.1612 -0.4961  2.3295
  167DMF     C1 2482   2.076   2.031   2.805 -0.6375 -0.2406 -0.3895
  167DMF     N1 2483   2.077   2.161   2.737  0.3935  0.7593  0.4034
  167DMF     C2 2484   2.121   2.175   2.601  0.1489  0.1781  0.2084
  167DMF     C3 2485   2.033   2.276   2.807 -1.0563 -0.1825 -0.0893
  167DMF     O1 2486   1.970   2.272   2.911 -0.7150 -0.0833  0.2928
  167DMF     H1 2487   2.173   1.984   2.787  0.7233  2.3658 -0.0072
  167DMF     H2 2488   1.989   1.966   2.787  0.0646 -1.5136  0.7391
  167DMF     H3 2489   2.073   2.051   2.912  0.4560 -2.7212  0.1327
  167DMF     H4 2490   2.209   2.113   2.581 -0.6454 -0.3782 -1.6213
  167DMF     H5 2491   2.134   2.283   2.583 -0.8016  0.5391  1.6190
  167DMF     H6 2492   2.035   2.152   2.538 -0.3341  1.0446  0.5376
  167DMF     H7 2493   2.031   2.364   2.740 -1.4697 -1.8429 -2.3021
  168DMF     C1 2494   1.413   0.560   0.066 -0.2214 -0.1698 -0.6312
  168DMF     N1 2495   1.460   0.444  -0.020 -0.1121 -0.3002 -0.3854
  168DMF     C2 2496   1.358   0.366  -0.086  0.6644 -0.3938 -0.1382
  168DMF     C3 2497   1.594   0.400  -0.021 -0.7483  0.1170  0.2002
  168DMF     O1 2498   1.685   0.453   0.035  0.9914  0.1947  0.5735
  168DMF     H1 2499   1.316   0.594   0.027  0.0222  0.5567 -0.6090
  168DMF     H2 2500   1.486   0.642   0.065 -0.3364 -0.0633 -0.1407
  168DMF     H3 2501   1.402   0.536   0.172 -1.2155 -3.2871 -1.3739
  168DMF     H4 2502   1.378   0.258  -0.088 -0.0667 -0.5273 -0.1701
  168DMF     H5 2503   1.350   0.401  -0.189  1.2856  1.4299  0.4109
  168DMF     H6 2504   1.263   0.384  -0.035  0.4843 -1.0815 -0.2266
  168DMF     H7 2505   1.601   0.301  -0.071  2.5074 -0.6741  2.0839
  169DMF     C1 2506   0.050   2.584   2.266 -0.1351  0.6575  0.5329
  169DMF     N1 2507  -0.094   2.570   2.241 -0.0677  0.3874  0.1872
  169DMF     C2 2508  -0.152   2.436   2.276  0.3802  0.3562  0.0436
  169DMF     C3 2509  -0.183   2.681   2.247  0.5145  0.3419 -0.5358
  169DMF     O1 2510  -0.152   2.792   2.281  0.0144 -0.4248  0.1159
  169DMF     H1 2511   0.077   2.513   2.345 -0.5454 -0.5853 -0.4165
  169DMF     H2 2512   0.070   2.683   2.306  1.0661  1.0516 -1.0055
  169DMF     H3 2513   0.112   2.563   2.178 -0.4371  1.6226  0.0895
  169DMF     H4 2514  -0.253   2.432   2.234  0.3530  1.9532 -0.1090
  169DMF     H5 2515  -0.151   2.424   2.385  2.7076  1.6009  0.2033
  169DMF     H6 2516  -0.091   2.363   2.222 -3.5468 -1.2321 -2.4649
  169DMF     H7 2517  -0.285   2.649   2.218  0.1301 -0.4927  1.6249
  170DMF     C1 2518   2.359   2.867   2.473  0.4555  0.2809  0.5948
  170DMF     N1 2519   2.284   2.972   2.391 -0.5488  0.1808  0.8268
  170DMF     C2 2520   2.192   3.063   2.460  0.6962  0.3127  0.0796
  170DMF     C3 2521   2.307   2.986   2.257  0.0841  0.5312  1.3139
  170DMF     O1 2522   2.384   2.910   2.199  0.2459 -0.2569  0.7091
  170DMF     H1 2523   2.372   2.775   2.414  1.5050  0.2381  0.8741
  170DMF     H2 2524   2.296   2.833   2.555 -1.0383  0.5187 -0.4296
  170DMF     H3 2525   2.452   2.909   2.514  0.4109 -1.7468  2.8843
  170DMF     H4 2526   2.143   3.135   2.394  1.0666  0.4975  0.0029
  170DMF     H5 2527   2.243   3.117   2.541 -1.3225 -0.2458  1.7538
  170DMF     H6 2528   2.117   3.008   2.516 -0.0920 -0.4927 -1.7240
  170DMF     H7 2529   2.249   3.065   2.206 -0.3154 -0.3913  0.3108
  171DMF     C1 2530   0.025   3.212   2.484  0.2639  0.2000 -0.3193
  171DMF     N1 2531   0.093   3.131   2.386  0.4064 -0.2253  0.8205
  171DMF     C2 2532   0.100   2.984   2.402 -0.1079  1.0001 -0.2660
  171DMF     C3 2533   0.126   3.190   2.259  0.4884  0.2603 -0.5361
  171DMF     O1 2534   0.100   3.302   2.225 -0.3653  0.3047 -0.2901
  171DMF     H1 2535  -0.044   3.142   2.531 -0.3843 -0.2991 -1.9938
  171DMF     H2 2536  -0.021   3.297   2.431  0.5331  0.7278  0.2858
  171DMF     H3 2537   0.094   3.249   2.561  0.2421  1.4887 -0.8948
  171DMF     H4 2538   0.011   2.933   2.440 -0.1457  2.2753  1.4037
  171DMF     H5 2539   0.182   2.958   2.469 -1.1676 -1.1172  0.2609
  171DMF     H6 2540   0.107   2.944   2.300 -0.6337  1.0923 -0.3405
  171DMF     H7 2541   0.179   3.113   2.200 -1.5160  0.9154 -3.2802
  172DMF     C1 2542   1.157   0.828   3.386  0.4117 -0.0477 -0.3119
  172DMF     N1 2543   1.066   0.868   3.494 -0.2257 -0.1092 -0.3992
  172DMF     C2 2544   1.023   1.007   3.491 -0.5540 -0.1735  0.2559
  172DMF     C3 2545   1.052   0.797   3.607 -1.0056  0.2831 -0.2237
  172DMF     O1 2546   1.111   0.688   3.611 -0.2346 -0.3183  0.2797
  172DMF     H1 2547   1.113   0.853   3.289 -1.6635 -1.5441  0.2134
  172DMF     H2 2548   1.184   0.722   3.386 -1.9592 -0.6776  1.3276
  172DMF     H3 2549   1.254   0.878   3.400  0.4725  0.0335 -1.0122
  172DMF     H4 2550   1.111   1.071   3.481 -1.7099  1.2259 -1.4997
  172DMF     H5 2551   0.973   1.027   3.586 -2.6208  0.0045 -0.8327
  172DMF     H6 2552   0.958   1.031   3.406  1.4972  1.6999 -0.8367
  172DMF     H7 2553   0.994   0.844   3.689 -0.1098  0.1720  0.4845
  173DMF     C1 2554   1.833   0.847   0.603  0.4343  0.8314 -0.1651
  173DMF     N1 2555   1.907   0.731   0.557  0.1168 -0.2774  0.4806
  173DMF     C2 2556   2.053   0.739   0.549 -0.4647  0.0659  0.1370
  173DMF     C3 2557   1.853   0.615   0.511 -0.1524 -0.1694 -0.2478
  173DMF     O1 2558   1.736   0.582   0.526  0.5994  0.8474  0.3270
  173DMF     H1 2559   1.888   0.928   0.652 -1.0764  2.1606 -0.6288
  173DMF     H2 2560   1.763   0.819   0.682  0.1875  1.6520 -0.0892
  173DMF     H3 2561   1.774   0.887   0.519  0.8429 -2.8182 -2.3087
  173DMF     H4 2562   2.095   0.699   0.456  1.3328 -2.7577  2.0569
  173DMF     H5 2563   2.101   0.676   0.625  0.0803 -1.1730 -1.2069
  173DMF     H6 2564   2.093   0.839   0.569  0.1769 -0.1153 -0.2325
  173DMF     H7 2565   1.924   0.543   0.467  2.2857  1.6896  0.5269
  174DMF     C1 2566   1.987   0.864   3.133  0.5401 -0.0417 -0.1338
  174DMF     N1 2567   1.855   0.808   3.136 -0.4567 -0.4611  0.2965
  174DMF     C2 2568   1.845   0.666   3.156 -0.6837  1.0672 -0.6049
  174DMF     C3 2569   1.738   0.879   3.119 -0.3596  0.3737 -0.2625
  174DMF     O1 2570   1.746   0.995   3.095 -0.3995  0.0807 -0.2721
  174DMF     H1 2571   2.048   0.812   3.058 -1.0880 -2.2131 -0.0065
  174DMF     H2 2572   2.040   0.835   3.224 -1.5008  2.0240  1.8114
  174DMF     H3 2573   1.990   0.973   3.120  0.6235 -0.3088 -2.5337
  174DMF     H4 2574   1.930   0.611   3.114  0.1978  3.0008 -1.4092
  174DMF     H5 2575   1.756   0.635   3.099  0.6281 -0.1345 -2.0499
  174DMF     H6 2576   1.839   0.643   3.263  0.5071  0.1197 -0.7384
  174DMF     H7 2577   1.644   0.821   3.121 -1.7164  2.4846 -0.9160
  175DMF     C1 2578   3.158   0.667   2.933 -0.4321  0.1359 -0.2155
  175DMF     N1 2579   3.203   0.807   2.890 -0.1487 -0.3695 -0.0825
  175DMF     C2 2580   3.102   0.904   2.835  0.1441  0.1812 -0.1462
  175DMF     C3 2581   3.331   0.849   2.921 -0.2944 -0.9898 -0.1175
  175DMF     O1 2582   3.413   0.763   2.950 -0.3297  0.0241  0.4296
  175DMF     H1 2583   3.125   0.678   3.037 -1.8005  3.5443 -0.9495
  175DMF     H2 2584   3.242   0.597   2.932 -0.2194  0.3970 -1.9729
  175DMF     H3 2585   3.082   0.631   2.862 -0.0768  0.8919 -0.9870
  175DMF     H4 2586   3.066   0.971   2.914 -0.8787  0.2105 -0.6269
  175DMF     H5 2587   3.008   0.856   2.804 -0.7956  0.1756  2.5481
  175DMF     H6 2588   3.144   0.968   2.756  0.8899  0.9999  0.8965
  175DMF     H7 2589   3.349   0.957   2.911 -0.0310 -1.0250 -0.0284
  176DMF     C1 2590   3.096   2.594   0.834  0.4311 -0.1272  0.6163
  176DMF     N1 2591   3.142   2.709   0.752  0.6586 -0.4438 -0.7944
  176DMF     C2 2592   3.248   2.674   0.652 -0.2204 -0.2780  0.0316
  176DMF     C3 2593   3.111   2.838   0.791  0.1962 -0.8433  0.9635
  176DMF     O1 2594   3.024   2.859   0.871 -0.4543 -0.0529 -0.3131
  176DMF     H1 2595   3.155   2.501   0.831  1.6282  0.6533 -0.4327
  176DMF     H2 2596   3.001   2.561   0.790  0.3586  0.5429  0.2626
  176DMF     H3 2597   3.064   2.630   0.932 -0.5674  2.2390 -0.5661
  176DMF     H4 2598   3.347   2.687   0.696 -0.1950  1.0168 -0.3887
  176DMF     H5 2599   3.237   2.734   0.560  2.7759  0.3917  0.0806
  176DMF     H6 2600   3.228   2.571   0.619  1.4756 -1.1436  1.6846
  176DMF     H7 2601   3.165   2.922   0.745  0.5964 -0.1065  2.7173
  177DMF     C1 2602   2.828   1.112   3.259 -0.0544 -0.5758  0.1303
  177DMF     N1 2603   2.699   1.110   3.337 -0.3095 -0.0969  0.4719
  177DMF     C2 2604   2.658   0.986   3.398 -0.3448 -0.0998 -0.0352
  177DMF     C3 2605   2.610   1.219   3.324 -0.1525 -0.2912  0.1824
  177DMF     O1 2606   2.612   1.307   3.237  0.3859  0.0695  0.0118
  177DMF     H1 2607   2.807   1.102   3.152 -2.7780  2.6036  0.2629
  177DMF     H2 2608   2.890   1.027   3.287 -0.1443 -0.3299  1.0828
  177DMF     H3 2609   2.884   1.203   3.283  1.3448 -1.7774  1.4481
  177DMF     H4 2610   2.565   0.998   3.455 -0.4754  1.2959 -0.5176
  177DMF     H5 2611   2.740   0.948   3.460 -1.2681  2.5258  2.9662
  177DMF     H6 2612   2.622   0.920   3.319 -0.0879  0.3032 -0.4905
  177DMF     H7 2613   2.534   1.216   3.405  0.3519  1.3365  0.7417
  178DMF     C1 2614   2.620   1.895   3.026  0.5233 -0.4948 -0.0919
  178DMF     N1 2615   2.601   1.750   2.997 -0.4759  0.4044 -0.2566
  178DMF     C2 2616   2.465   1.684   3.015  0.2510 -0.8130 -0.1389
  178DMF     C3 2617   2.713   1.663   2.977 -0.1372 -0.2081 -0.2179
  178DMF     O1 2618   2.822   1.716   2.987 -0.0049 -0.6461 -0.5885
  178DMF     H1 2619   2.688   1.949   2.959  0.2206  1.5346  1.1938
  178DMF     H2 2620   2.674   1.895   3.122 -0.9777 -1.7286  0.7599
  178DMF     H3 2621   2.529   1.952   3.048 -0.2032 -1.1091 -1.4260
  178DMF     H4 2622   2.402   1.772   2.993 -0.8410 -0.8662  2.5300
  178DMF     H5 2623   2.453   1.655   3.120 -0.6408 -1.0790 -0.3078
  178DMF     H6 2624   2.447   1.600   2.948 -0.1930 -1.6729  1.0437
  178DMF     H7 2625   2.688   1.558   2.955  0.0986 -0.1086 -0.9497
  179DMF     C1 2626   0.520   1.883   2.256 -0.6858 -0.0758 -0.1219
  179DMF     N1 2627   0.479   2.025   2.248  0.8642  0.1981  0.1734
  179DMF     C2 2628   0.581   2.134   2.244 -0.7012  0.3113  0.2228
  179DMF     C3 2629   0.347   2.069   2.262 -1.2391 -0.0382 -0.0412
  179DMF     O1 2630   0.253   1.995   2.260  0.6471  0.2032  0.1140
  179DMF     H1 2631   0.500   1.836   2.353 -1.3578  3.8893  1.7575
  179DMF     H2 2632   0.626   1.885   2.231 -0.3031 -0.1802  1.4188
  179DMF     H3 2633   0.463   1.835   2.175 -0.6995  0.8412 -0.6614
  179DMF     H4 2634   0.678   2.092   2.214 -0.5426 -0.1519  1.3459
  179DMF     H5 2635   0.581   2.174   2.346  0.2098  2.3292 -0.5289
  179DMF     H6 2636   0.554   2.215   2.175 -0.8289 -1.9816 -2.5057
  179DMF     H7 2637   0.333   2.179   2.265  0.4261  0.2162 -0.9288
  180DMF     C1 2638   3.082   1.614   3.632 -0.2314 -0.2249 -0.1417
  180DMF     N1 2639   3.181   1.503   3.641  0.6194 -0.3371 -0.4245
  180DMF     C2 2640   3.245   1.489   3.773 -0.4197  0.1091 -0.2447
  180DMF     C3 2641   3.191   1.400   3.550 -0.2526 -0.1694 -0.0818
  180DMF     O1 2642   3.137   1.403   3.442  0.4914 -0.3634 -0.0876
  180DMF     H1 2643   3.121   1.700   3.687  0.7121  0.0436 -1.2003
  180DMF     H2 2644   2.982   1.582   3.662 -0.0729  0.7867  1.5056
  180DMF     H3 2645   3.093   1.650   3.529  0.7066  0.5232  0.2123
  180DMF     H4 2646   3.193   1.531   3.860 -0.5274  0.5805 -0.5348
  180DMF     H5 2647   3.347   1.525   3.757 -0.2337 -0.3002  0.0381
  180DMF     H6 2648   3.264   1.384   3.796 -0.9824 -0.1844 -1.0647
  180DMF     H7 2649   3.265   1.321   3.575  0.6789 -0.1718 -2.6761
  181DMF     C1 2650   2.865   2.783   2.301 -0.0912  0.2272  0.3074
  181DMF     N1 2651   2.770   2.673   2.278  0.6869  0.3175 -0.2429
  181DMF     C2 2652   2.628   2.706   2.269 -0.2597 -0.4654 -0.2365
  181DMF     C3 2653   2.812   2.546   2.226  0.2717  0.2632 -0.0091
  181DMF     O1 2654   2.925   2.514   2.221 -0.0306  1.0193 -0.1676
  181DMF     H1 2655   2.937   2.771   2.382 -1.7323  0.2186  1.8106
  181DMF     H2 2656   2.806   2.874   2.320  0.2737  0.8154 -1.3256
  181DMF     H3 2657   2.927   2.787   2.211  0.2443  1.4923  0.5759
  181DMF     H4 2658   2.616   2.789   2.339  0.7815  0.7651 -1.4906
  181DMF     H5 2659   2.576   2.616   2.305 -3.7379  1.9466  0.9899
  181DMF     H6 2660   2.607   2.743   2.168 -1.5703 -1.5868 -0.4012
  181DMF     H7 2661   2.731   2.478   2.195  0.7775 -1.2060  1.8087
  182DMF     C1 2662   0.641   1.368   1.146  0.3661  0.6260  0.4858
  182DMF     N1 2663   0.750   1.276   1.110 -0.2115 -0.4686  0.2684
  182DMF     C2 2664   0.778   1.270   0.968  0.2968  0.0214  0.4160
  182DMF     C3 2665   0.822   1.198   1.209 -0.5404  0.1620  0.3146
  182DMF     O1 2666   0.813   1.212   1.330  0.5840  0.3868 -0.3243
  182DMF     H1 2667   0.596   1.328   1.237  1.2904  0.0218  0.6815
  182DMF     H2 2668   0.577   1.362   1.057  0.3305 -0.4693  0.5785
  182DMF     H3 2669   0.685   1.467   1.161 -1.6946  1.6143  0.1143
  182DMF     H4 2670   0.867   1.209   0.949 -1.6165 -2.3345 -1.0781
  182DMF     H5 2671   0.793   1.373   0.932 -0.0909  0.2849  0.9996
  182DMF     H6 2672   0.693   1.234   0.909 -1.4781  0.6024  2.5393
  182DMF     H7 2673   0.898   1.130   1.165  0.8730  1.6523  0.3857
  183DMF     C1 2674   2.961   3.005   3.713  0.3162  0.1311  0.2181
  183DMF     N1 2675   2.843   3.037   3.790  0.2876  0.1163  0.9868
  183DMF     C2 2676   2.751   3.140   3.734  0.7016  0.2786 -0.1298
  183DMF     C3 2677   2.815   2.984   3.918  0.1470 -0.3866 -0.9430
  183DMF     O1 2678   2.896   2.913   3.975 -0.1968  0.4928 -0.8284
  183DMF     H1 2679   3.004   2.909   3.744  0.4729  0.6100  1.5620
  183DMF     H2 2680   3.032   3.088   3.723  0.6819  0.1940 -2.6978
  183DMF     H3 2681   2.923   2.999   3.611  1.5110  0.7082 -0.2774
  183DMF     H4 2682   2.674   3.094   3.671  0.2898  0.5431  0.1747
  183DMF     H5 2683   2.802   3.218   3.677 -0.8764  1.3358 -0.1076
  183DMF     H6 2684   2.716   3.198   3.821 -0.1698  1.0783 -1.0159
  183DMF     H7 2685   2.718   3.019   3.957 -0.0398 -0.4203 -1.3684
  184DMF     C1 2686   1.710   2.296   0.962  0.4071 -0.0660  0.3526
  184DMF     N1 2687   1.653   2.411   1.035  0.0969 -0.2253  0.0292
  184DMF     C2 2688   1.747   2.500   1.098 -0.0619  0.6709  0.5004
  184DMF     C3 2689   1.518   2.458   1.002 -0.1759 -0.1938  0.2840
  184DMF     O1 2690   1.429   2.387   0.951 -0.2282  0.2411 -0.9590
  184DMF     H1 2691   1.642   2.212   0.943 -0.2982  0.3419  1.0290
  184DMF     H2 2692   1.793   2.245   1.012 -0.1894  0.6191  2.0618
  184DMF     H3 2693   1.743   2.334   0.864 -2.0078 -1.7015 -1.1425
  184DMF     H4 2694   1.848   2.468   1.069  2.1411  3.7145  4.2439
  184DMF     H5 2695   1.740   2.489   1.207 -1.0101  1.3534  0.5123
  184DMF     H6 2696   1.721   2.605   1.080 -0.1318  0.7581  1.0710
  184DMF     H7 2697   1.510   2.565   1.027 -1.1865 -0.6674  2.0243
  185DMF     C1 2698   0.757   0.991   2.879 -0.2427 -0.4877  0.0207
  185DMF     N1 2699   0.752   0.999   3.025 -0.2798  0.6207 -0.4180
  185DMF     C2 2700   0.620   1.006   3.084  0.1473  0.4996  0.4523
  185DMF     C3 2701   0.865   1.021   3.098  0.4873  0.6250 -0.7411
  185DMF     O1 2702   0.977   1.021   3.049  0.2020 -0.1026  0.6844
  185DMF     H1 2703   0.659   1.015   2.836  0.3293 -0.8245 -1.4971
  185DMF     H2 2704   0.774   0.888   2.846 -0.6685 -0.6538  0.3168
  185DMF     H3 2705   0.834   1.062   2.845 -1.6106  0.1761 -1.7482
  185DMF     H4 2706   0.622   1.017   3.193  0.1527 -0.7564  0.5798
  185DMF     H5 2707   0.566   0.914   3.059 -0.3395  1.0469 -0.5660
  185DMF     H6 2708   0.569   1.093   3.040 -0.7017 -1.3856 -2.4153
  185DMF     H7 2709   0.845   1.035   3.206  0.4326 -2.4893 -0.2863
  186DMF     C1 2710   2.985   1.953   3.173  0.2200 -0.2724 -0.7873
  186DMF     N1 2711   3.065   2.018   3.077 -0.1532 -0.2275 -0.0717
  186DMF     C2 2712   3.197   1.965   3.048 -0.0578  0.4818 -0.3193
  186DMF     C3 2713   3.038   2.145   3.028  0.0353  0.4246  0.4363
  186DMF     O1 2714   2.942   2.209   3.067  0.1261 -0.0795  0.1125
  186DMF     H1 2715   3.044   1.949   3.266 -0.4556  0.5948 -0.3171
  186DMF     H2 2716   2.973   1.848   3.141 -0.9093 -0.3814 -0.0381
  186DMF     H3 2717   2.886   1.999   3.184  0.3996 -0.2680  1.1020
  186DMF     H4 2718   3.183   1.916   2.951 -2.1130 -1.3617  0.8635
  186DMF     H5 2719   3.224   1.887   3.120 -1.0460 -0.5014 -1.0048
  186DMF     H6 2720   3.275   2.042   3.050 -1.2006  1.6201  1.2250
  186DMF     H7 2721   3.113   2.180   2.955  0.3206 -0.8219  0.1124
  187DMF     C1 2722   2.696   0.830   2.993  0.3255 -0.2291 -0.3284
  187DMF     N1 2723   2.721   0.759   2.861 -0.3285  0.0667  0.6851
  187DMF     C2 2724   2.810   0.641   2.846  0.5173  0.5721 -0.0811
  187DMF     C3 2725   2.633   0.787   2.748  0.5805  0.3042  0.5301
  187DMF     O1 2726   2.554   0.880   2.745  0.4214 -0.5794  0.2710
  187DMF     H1 2727   2.618   0.791   3.060  1.1087  0.0984  0.7901
  187DMF     H2 2728   2.661   0.933   2.974 -0.1070 -0.3144 -0.0043
  187DMF     H3 2729   2.790   0.831   3.050 -1.0002  0.3849  1.9402
  187DMF     H4 2730   2.890   0.652   2.771  0.0116  1.1882 -0.5355
  187DMF     H5 2731   2.750   0.553   2.820 -1.9464  1.7357  1.4682
  187DMF     H6 2732   2.859   0.631   2.943  3.2944 -2.1102 -1.6577
  187DMF     H7 2733   2.644   0.718   2.662 -1.6214 -0.0924  0.5419
  188DMF     C1 2734   0.129   0.609   3.645  1.2258  0.5380  0.3391
  188DMF     N1 2735   0.187   0.498   3.729  0.7727  0.4236  0.5783
  188DMF     C2 2736   0.091   0.435   3.823  0.2720  0.6283  0.6464
  188DMF     C3 2737   0.310   0.443   3.696  0.2114  0.0417 -0.5841
  188DMF     O1 2738   0.383   0.498   3.615  0.3411 -0.5907 -0.5107
  188DMF     H1 2739   0.078   0.576   3.553  0.3792 -0.3418  1.1101
  188DMF     H2 2740   0.201   0.686   3.618  1.4493 -0.1002 -0.9377
  188DMF     H3 2741   0.045   0.659   3.695  0.4023 -0.0162 -0.4455
  188DMF     H4 2742   0.060   0.511   3.897  0.7464 -0.9859  2.5533
  188DMF     H5 2743   0.130   0.342   3.866  2.2944  1.7669  1.3901
  188DMF     H6 2744  -0.005   0.413   3.775 -0.1696  0.2868  1.6606
  188DMF     H7 2745   0.341   0.350   3.747  1.6648  1.2936  0.8173
  189DMF     C1 2746   1.524   2.732   3.026  0.0647 -0.0704 -0.0263
  189DMF     N1 2747   1.497   2.766   3.166 -0.5125  0.3319  0.2982
  189DMF     C2 2748   1.384   2.704   3.238 -0.0453  0.4549 -0.1444
  189DMF     C3 2749   1.575   2.865   3.224 -0.2681  0.1490 -0.4477
  189DMF     O1 2750   1.669   2.922   3.171 -0.9212 -1.0146  0.0928
  189DMF     H1 2751   1.522   2.822   2.963  0.3876 -1.0313 -1.4386
  189DMF     H2 2752   1.458   2.653   2.988 -1.0370  1.3584 -1.1845
  189DMF     H3 2753   1.619   2.678   3.019  0.7200  0.8887  1.2024
  189DMF     H4 2754   1.313   2.667   3.163  0.2729 -1.3403  0.4158
  189DMF     H5 2755   1.335   2.780   3.301 -0.5336  1.9166 -2.2179
  189DMF     H6 2756   1.411   2.620   3.304  0.5342  0.5489 -0.2643
  189DMF     H7 2757   1.535   2.893   3.324 -0.8087 -3.5565  0.4345
  190DMF     C1 2758   0.464   1.725   1.124  0.4033  0.2265  0.2032
  190DMF     N1 2759   0.435   1.609   1.039 -0.2581  0.0582  0.5363
  190DMF     C2 2760   0.300   1.555   1.048  0.2437  0.2897 -0.0075
  190DMF     C3 2761   0.512   1.587   0.920 -0.3970  0.2918  0.3816
  190DMF     O1 2762   0.611   1.659   0.895 -0.1424  0.7159 -0.4044
  190DMF     H1 2763   0.434   1.809   1.060 -0.1769  0.0756  0.2710
  190DMF     H2 2764   0.572   1.718   1.142  0.3736  0.3004  0.4095
  190DMF     H3 2765   0.415   1.722   1.222 -1.6692 -1.2129 -0.8360
  190DMF     H4 2766   0.284   1.489   1.135 -4.9158  1.0571 -0.2020
  190DMF     H5 2767   0.279   1.495   0.959 -0.1203  1.8072 -0.9592
  190DMF     H6 2768   0.213   1.622   1.052  0.6406  0.8257 -0.4333
  190DMF     H7 2769   0.475   1.507   0.854 -1.8179 -0.4464  2.0615
  191DMF     C1 2770   1.238   0.413   2.245 -0.5858  0.2377 -0.5322
  191DMF     N1 2771   1.259   0.528   2.332 -0.9580 -0.3786  0.1202
  191DMF     C2 2772   1.261   0.663   2.275 -0.6163 -0.6067 -0.1146
  191DMF     C3 2773   1.263   0.508   2.473  0.2628  0.1314 -0.6242
  191DMF     O1 2774   1.257   0.401   2.529 -0.6060  0.5153 -0.1451
  191DMF     H1 2775   1.201   0.324   2.297 -0.0681  1.3622  1.8394
  191DMF     H2 2776   1.337   0.386   2.206  0.2755  1.9719  0.3992
  191DMF     H3 2777   1.184   0.434   2.152  1.7511  2.9860 -1.3618
  191DMF     H4 2778   1.340   0.728   2.314 -1.2852 -0.1265  0.4584
  191DMF     H5 2779   1.166   0.711   2.302 -2.4643 -3.6019 -1.0659
  191DMF     H6 2780   1.275   0.654   2.167 -1.4484 -1.1605 -0.1834
  191DMF     H7 2781   1.266   0.606   2.524 -1.6785  0.2825 -0.7826
  192DMF     C1 2782   1.289   1.833   2.555 -0.2478  0.3827  0.3152
  192DMF     N1 2783   1.315   1.734   2.667  0.5680  0.1219  0.0945
  192DMF     C2 2784   1.389   1.606   2.634  0.2308  0.0836 -0.0308
  192DMF     C3 2785   1.237   1.748   2.780  0.1143 -0.5330 -0.8606
  192DMF     O1 2786   1.155   1.831   2.799 -0.1485  0.3446  0.1531
  192DMF     H1 2787   1.195   1.807   2.505  0.8605 -1.2436 -0.9687
  192DMF     H2 2788   1.371   1.815   2.485 -1.3701  0.3015 -1.0122
  192DMF     H3 2789   1.293   1.937   2.589  0.2683  0.2306  0.7153
  192DMF     H4 2790   1.483   1.631   2.583 -0.8180  0.1518 -1.9773
  192DMF     H5 2791   1.327   1.538   2.575  2.0133 -1.4462 -0.1694
  192DMF     H6 2792   1.410   1.546   2.724  1.4757 -0.6633 -0.8144
  192DMF     H7 2793   1.260   1.674   2.858  0.0774  1.1403  0.7589
  193DMF     C1 2794   3.365   0.372   2.232 -0.0545  0.6010 -0.5516
  193DMF     N1 2795   3.397   0.235   2.260  0.1496 -0.3518  0.2514
  193DMF     C2 2796   3.280   0.147   2.283  0.3086  0.2027 -0.2906
  193DMF     C3 2797   3.525   0.186   2.282 -0.4322  0.9047 -0.5017
  193DMF     O1 2798   3.622   0.255   2.259  0.1188  0.5855  0.1293
  193DMF     H1 2799   3.346   0.423   2.327 -0.6426 -1.6893  0.5995
  193DMF     H2 2800   3.268   0.382   2.182 -2.5266 -2.6197  3.2349
  193DMF     H3 2801   3.437   0.427   2.171  2.1996 -1.7216 -0.0415
  193DMF     H4 2802   3.185   0.201   2.290  0.8259  1.1772 -0.7007
  193DMF     H5 2803   3.280   0.095   2.379  1.5443  0.7527  0.0147
  193DMF     H6 2804   3.272   0.070   2.205  3.3672 -2.1379  1.6004
  193DMF     H7 2805   3.535   0.086   2.327 -0.0627  0.9601 -0.4657
  194DMF     C1 2806   1.092   2.030   1.052 -0.5550 -0.0888 -0.0044
  194DMF     N1 2807   0.966   2.038   1.124  0.2067  0.7592 -0.7605
  194DMF     C2 2808   0.968   2.035   1.271  0.3285 -0.3794  0.2769
  194DMF     C3 2809   0.853   2.012   1.049  0.4825  0.1942 -0.2946
  194DMF     O1 2810   0.858   2.008   0.925 -0.0646  0.2106 -0.0818
  194DMF     H1 2811   1.099   1.931   1.005 -0.4478  0.1270 -0.4519
  194DMF     H2 2812   1.176   2.057   1.117 -2.7144  1.8551  2.0609
  194DMF     H3 2813   1.099   2.106   0.973  1.3297 -1.5681 -1.3186
  194DMF     H4 2814   0.866   2.047   1.309  0.8330  0.3896  1.4196
  194DMF     H5 2815   1.032   2.115   1.310 -0.6547  0.2101  0.6847
  194DMF     H6 2816   1.024   1.946   1.304  2.0690  0.3913 -0.5067
  194DMF     H7 2817   0.762   1.995   1.110  0.5910  3.2281  0.8304
  195DMF     C1 2818   1.446   2.439   2.255 -0.2705  0.2003  0.0771
  195DMF     N1 2819   1.310   2.498   2.264 -0.2486  0.1640  0.3621
  195DMF     C2 2820   1.188   2.409   2.255 -0.8553  0.2259  0.1774
  195DMF     C3 2821   1.296   2.645   2.276  0.0496  0.4072  0.6547
  195DMF     O1 2822   1.392   2.717   2.274 -0.4090 -0.0620 -0.0574
  195DMF     H1 2823   1.480   2.450   2.152 -0.1496  1.8874  0.2912
  195DMF     H2 2824   1.435   2.330   2.268 -0.1481  0.3975  1.9723
  195DMF     H3 2825   1.512   2.486   2.329 -0.2183 -0.8053  0.6790
  195DMF     H4 2826   1.103   2.457   2.204 -1.8938 -2.8739 -1.1464
  195DMF     H5 2827   1.170   2.363   2.353 -1.6542 -0.7305 -0.4111
  195DMF     H6 2828   1.218   2.339   2.176 -0.6348 -0.4048  0.8139
  195DMF     H7 2829   1.191   2.670   2.302 -0.1821 -0.1045  0.2327
  196DMF     C1 2830   0.881   1.165   2.558 -0.6087 -0.3912 -0.2325
  196DMF     N1 2831   1.019   1.171   2.610  0.1921  0.1959 -0.1637
  196DMF     C2 2832   1.074   1.059   2.701 -0.0364  0.4529  0.2534
  196DMF     C3 2833   1.095   1.292   2.601  0.8048 -0.0896 -0.1550
  196DMF     O1 2834   1.047   1.399   2.552 -0.7401 -0.7618 -0.3411
  196DMF     H1 2835   0.888   1.189   2.451  0.8040 -1.2530 -0.3426
  196DMF     H2 2836   0.807   1.218   2.619 -0.8764 -0.6596 -0.3234
  196DMF     H3 2837   0.841   1.064   2.566  0.5210 -1.0384 -2.4666
  196DMF     H4 2838   1.009   0.970   2.703 -0.4811  0.7766  0.1726
  196DMF     H5 2839   1.081   1.091   2.805 -1.8981 -0.6820  0.7376
  196DMF     H6 2840   1.176   1.030   2.673  0.1851  1.3157  0.1644
  196DMF     H7 2841   1.197   1.280   2.641  1.3388  0.5434 -1.3010
  197DMF     C1 2842   2.315   1.771   3.797  0.3893 -0.4293  0.1564
  197DMF     N1 2843   2.280   1.891   3.720 -0.3782  0.9268 -0.2841
  197DMF     C2 2844   2.213   1.997   3.802  0.5409 -0.6417 -0.2619
  197DMF     C3 2845   2.259   1.889   3.582 -0.8228 -0.2805  0.2475
  197DMF     O1 2846   2.307   1.799   3.512 -0.7208 -0.0077 -0.2426
  197DMF     H1 2847   2.333   1.804   3.900  3.0861  1.1158 -0.7400
  197DMF     H2 2848   2.406   1.727   3.753  0.7271  0.9721 -0.5807
  197DMF     H3 2849   2.237   1.695   3.787  0.2746 -0.3475  0.4258
  197DMF     H4 2850   2.229   1.983   3.910  1.5078 -0.9428 -0.4445
  197DMF     H5 2851   2.106   1.995   3.776  0.3828 -0.5621  0.3754
  197DMF     H6 2852   2.254   2.092   3.766 -0.1929 -0.8323 -1.6259
  197DMF     H7 2853   2.204   1.976   3.542  1.6649  0.5441 -1.4966
  198DMF     C1 2854   3.026   1.467   2.282 -0.1894 -0.1100  0.3254
  198DMF     N1 2855   2.891   1.414   2.280 -0.6467  0.1557 -0.3595
  198DMF     C2 2856   2.876   1.270   2.287  0.6251 -0.3214 -0.0346
  198DMF     C3 2857   2.787   1.491   2.220  0.6516  1.1087  0.4881
  198DMF     O1 2858   2.796   1.612   2.205  0.0272  0.4001 -0.2229
  198DMF     H1 2859   3.060   1.524   2.195 -0.1375  0.3899  0.6692
  198DMF     H2 2860   3.101   1.388   2.291  0.0602  0.0173 -0.6071
  198DMF     H3 2861   3.033   1.529   2.373 -4.0177  0.5816  0.2362
  198DMF     H4 2862   2.777   1.243   2.325  0.6713 -0.0420  0.2892
  198DMF     H5 2863   2.945   1.234   2.365 -0.0533 -2.1367 -0.2530
  198DMF     H6 2864   2.882   1.227   2.186 -0.6585 -1.9719  0.5704
  198DMF     H7 2865   2.697   1.430   2.198 -0.8104  3.4751 -0.2905
  199DMF     C1 2866   2.314   1.408   2.273  0.4250  0.3386 -0.5739
  199DMF     N1 2867   2.305   1.266   2.244 -0.4262  0.0582 -0.3377
  199DMF     C2 2868   2.165   1.211   2.222  0.1275  0.2883 -0.2729
  199DMF     C3 2869   2.419   1.183   2.258 -0.6598 -0.9138  0.1596
  199DMF     O1 2870   2.525   1.227   2.294  0.2849 -0.4138  0.3890
  199DMF     H1 2871   2.220   1.444   2.316  1.3603  0.5067  1.3896
  199DMF     H2 2872   2.334   1.464   2.181 -1.0346 -0.1377 -1.1875
  199DMF     H3 2873   2.386   1.436   2.351 -1.9639  3.3653  0.6917
  199DMF     H4 2874   2.114   1.290   2.165  1.1721 -0.4452 -2.2844
  199DMF     H5 2875   2.111   1.188   2.314  1.1593 -2.0579 -0.2138
  199DMF     H6 2876   2.169   1.118   2.164  2.2073 -0.1685  0.5372
  199DMF     H7 2877   2.399   1.075   2.244 -0.2133 -1.1216  1.0862
  200DMF     C1 2878   1.197   0.262   0.301  0.6400 -0.2716 -0.3849
  200DMF     N1 2879   1.179   0.299   0.445 -0.1378  0.5663  0.4111
  200DMF     C2 2880   1.135   0.440   0.467  0.4513 -0.8776 -0.4344
  200DMF     C3 2881   1.183   0.204   0.548 -0.8546  0.0816 -0.4870
  200DMF     O1 2882   1.207   0.089   0.521 -0.3643  0.3724 -0.3823
  200DMF     H1 2883   1.159   0.336   0.229  2.2866  0.3155 -0.6600
  200DMF     H2 2884   1.135   0.174   0.278  1.1880 -1.6760  3.2520
  200DMF     H3 2885   1.304   0.246   0.286  0.4266  0.4610 -3.0920
  200DMF     H4 2886   1.029   0.442   0.494  0.4980 -2.0560 -0.1025
  200DMF     H5 2887   1.140   0.497   0.374 -3.0943 -0.4103 -0.4297
  200DMF     H6 2888   1.196   0.480   0.549  1.7188 -3.4036 -0.0922
  200DMF     H7 2889   1.174   0.244   0.651 -0.6131 -0.4238 -0.2683
  201DMF     C1 2890   1.916   1.496   0.915  0.8127  0.7883 -0.6688
  201DMF     N1 2891   1.869   1.491   0.771 -0.3627  0.3084  0.5912
  201DMF     C2 2892   1.746   1.433   0.737 -0.7010  0.0069  0.2402
  201DMF     C3 2893   1.934   1.572   0.676  1.0147  0.0853  0.1054
  201DMF     O1 2894   2.035   1.630   0.705  0.4351  0.3438 -0.3184
  201DMF     H1 2895   1.965   1.593   0.929 -1.8438  2.0739  0.1676
  201DMF     H2 2896   1.994   1.419   0.920  0.2937  0.3327  0.6902
  201DMF     H3 2897   1.824   1.477   0.972 -0.1779  0.6297 -2.2937
  201DMF     H4 2898   1.771   1.370   0.650  0.8390  3.4976 -1.9264
  201DMF     H5 2899   1.676   1.503   0.690  1.4183  2.1313  0.1644
  201DMF     H6 2900   1.707   1.378   0.824 -0.5409  0.1534  0.4060
  201DMF     H7 2901   1.885   1.595   0.580 -1.2885 -0.2323  1.1629
  202DMF     C1 2902   1.474   2.374   0.314  0.2049  0.2587 -0.3250
  202DMF     N1 2903   1.350   2.388   0.380 -0.6884 -0.1209 -0.3611
  202DMF     C2 2904   1.257   2.273   0.387 -0.6940  0.5786  0.2720
  202DMF     C3 2905   1.313   2.514   0.433 -0.3067 -0.2506 -0.0874
  202DMF     O1 2906   1.359   2.620   0.392  0.0941 -0.0684 -0.6977
  202DMF     H1 2907   1.553   2.397   0.387  1.6148 -0.9422 -1.4400
  202DMF     H2 2908   1.484   2.440   0.228  0.4377 -0.8393 -1.1597
  202DMF     H3 2909   1.493   2.270   0.282 -0.2891 -0.3052  1.1654
  202DMF     H4 2910   1.292   2.199   0.312  1.4879  0.2568  1.5533
  202DMF     H5 2911   1.152   2.298   0.367 -1.5842 -0.3960  3.5405
  202DMF     H6 2912   1.266   2.233   0.489 -0.0087 -1.3418 -0.5034
  202DMF     H7 2913   1.232   2.511   0.509 -0.5147  2.0311 -0.1830
  203DMF     C1 2914   2.412   0.622   0.706  0.0731  0.0891 -0.3253
  203DMF     N1 2915   2.422   0.701   0.582 -0.2358  0.3088 -0.4706
  203DMF     C2 2916   2.472   0.838   0.591  0.0683  0.5978 -0.8237
  203DMF     C3 2917   2.385   0.644   0.462 -0.0164  0.9605  0.1449
  203DMF     O1 2918   2.326   0.537   0.454  0.0673 -0.0689 -0.1132
  203DMF     H1 2919   2.311   0.613   0.748  0.1474 -0.2373 -0.2164
  203DMF     H2 2920   2.485   0.654   0.782  0.9531 -2.2632 -0.1532
  203DMF     H3 2921   2.433   0.517   0.683  3.7677  0.3339  1.5461
  203DMF     H4 2922   2.390   0.906   0.569  0.6545  1.6627  0.2028
  203DMF     H5 2923   2.549   0.846   0.513  0.6113 -1.5909 -0.5436
  203DMF     H6 2924   2.499   0.862   0.695 -0.4219 -0.9759 -0.3067
  203DMF     H7 2925   2.402   0.707   0.373  0.2400  2.3559  1.1764
  204DMF     C1 2926   0.440   0.284   0.257  0.1776  0.4967  0.0444
  204DMF     N1 2927   0.482   0.188   0.145  0.7268 -0.5648  0.1165
  204DMF     C2 2928   0.612   0.213   0.072 -0.0008 -0.4035 -0.7308
  204DMF     C3 2929   0.396   0.079   0.109 -0.0265  0.3723  0.3887
  204DMF     O1 2930   0.298   0.039   0.167  0.5581 -0.3436  0.4809
  204DMF     H1 2931   0.510   0.367   0.274  1.5819 -0.9397  1.4299
  204DMF     H2 2932   0.416   0.230   0.349  2.5481 -0.8749 -0.0985
  204DMF     H3 2933   0.353   0.342   0.223 -0.2903  1.8486  3.3576
  204DMF     H4 2934   0.581   0.255  -0.024 -1.7276 -0.8478 -0.3848
  204DMF     H5 2935   0.660   0.114   0.067 -0.9161 -0.9448  0.8264
  204DMF     H6 2936   0.673   0.288   0.124 -0.7844  0.4688 -1.0720
  204DMF     H7 2937   0.437   0.026   0.021 -0.6787 -1.6208  1.2417
  205DMF     C1 2938   1.623   0.979   0.240 -0.0886 -0.7961 -0.2755
  205DMF     N1 2939   1.630   0.835   0.268 -0.2498  0.2076 -0.2613
  205DMF     C2 2940   1.737   0.755   0.205  0.5202  0.1217  0.4808
  205DMF     C3 2941   1.543   0.776   0.354  0.4808  0.4287  0.4354
  205DMF     O1 2942   1.449   0.840   0.393  0.2645 -0.2035 -0.4613
  205DMF     H1 2943   1.520   1.016   0.243  0.1385 -0.2036  0.2489
  205DMF     H2 2944   1.666   0.999   0.141  1.1522  0.8390  0.5817
  205DMF     H3 2945   1.674   1.028   0.324 -4.3884  0.0856  1.9995
  205DMF     H4 2946   1.839   0.796   0.205 -0.1826  1.9366 -0.1092
  205DMF     H5 2947   1.718   0.745   0.097  0.4605  2.5451  0.2439
  205DMF     H6 2948   1.740   0.654   0.248  0.8959 -1.3100 -2.7203
  205DMF     H7 2949   1.569   0.673   0.384  1.3305 -0.3978 -2.8721
  206DMF     C1 2950   2.131   2.453   1.027  0.4136  0.4760  0.1209
  206DMF     N1 2951   2.095   2.557   1.126 -0.2789  0.0857 -0.3115
  206DMF     C2 2952   2.097   2.513   1.263 -0.8941  0.5053 -0.5307
  206DMF     C3 2953   2.037   2.676   1.093  0.8903  0.0291  0.0068
  206DMF     O1 2954   2.020   2.724   0.983  0.5469 -0.0100 -0.3315
  206DMF     H1 2955   2.070   2.362   1.014  0.7769  0.5903 -2.8282
  206DMF     H2 2956   2.231   2.413   1.051  0.7186  0.5187 -1.0221
  206DMF     H3 2957   2.135   2.503   0.930 -0.7948 -0.8615 -0.6378
  206DMF     H4 2958   2.150   2.588   1.324  0.8222 -1.5139  0.5369
  206DMF     H5 2959   2.164   2.426   1.269  0.1570  1.3933  1.6021
  206DMF     H6 2960   1.999   2.482   1.301 -0.4269  0.5259  0.7316
  206DMF     H7 2961   2.002   2.723   1.187 -0.1196  0.3288 -0.5129
  207DMF     C1 2962   1.481   0.714   2.909 -0.6123  0.0974 -0.6512
  207DMF     N1 2963   1.452   0.855   2.895  0.4285 -0.2252 -0.5401
  207DMF     C2 2964   1.508   0.928   2.783  0.3648  0.3028 -0.1948
  207DMF     C3 2965   1.408   0.928   3.006  0.4659 -0.5625 -0.0490
  207DMF     O1 2966   1.378   0.878   3.113 -0.6684  0.3014  0.2128
  207DMF     H1 2967   1.590   0.704   2.907 -0.6980 -0.7435 -2.4128
  207DMF     H2 2968   1.424   0.664   2.830  0.9424  0.2211 -1.8802
  207DMF     H3 2969   1.442   0.673   3.003  1.9411 -1.7208 -0.3370
  207DMF     H4 2970   1.593   0.987   2.819  1.6146 -0.3581 -1.9949
  207DMF     H5 2971   1.428   0.996   2.750 -0.6878 -1.3870 -1.1912
  207DMF     H6 2972   1.523   0.854   2.704 -2.5319 -0.4209 -0.1097
  207DMF     H7 2973   1.402   1.036   2.986 -0.5914 -0.6147 -0.0868
  208DMF     C1 2974   2.890   1.246   1.174 -0.0633  0.0052  0.2815
  208DMF     N1 2975   2.857   1.212   1.034  0.3259  0.5092 -0.3990
  208DMF     C2 2976   2.881   1.307   0.927 -0.2133  0.0075 -0.2958
  208DMF     C3 2977   2.787   1.089   1.003  0.8454 -0.0087  0.5877
  208DMF     O1 2978   2.768   1.002   1.083  0.2167 -0.0281 -0.3798
  208DMF     H1 2979   2.816   1.214   1.248  0.6559  1.5573  1.6925
  208DMF     H2 2980   2.919   1.352   1.180  1.1728 -0.2322 -1.2417
  208DMF     H3 2981   2.980   1.188   1.198 -1.5643 -2.0850  0.9727
  208DMF     H4 2982   2.939   1.260   0.846 -0.4246 -0.1944 -0.3314
  208DMF     H5 2983   2.944   1.391   0.959  1.0466 -0.9436 -0.2414
  208DMF     H6 2984   2.782   1.337   0.890  0.5179  2.9451  0.0338
  208DMF     H7 2985   2.762   1.084   0.896 -1.0560  0.2006  1.0078
  209DMF     C1 2986   2.009   2.657   2.257 -0.2673 -0.0563 -0.5757
  209DMF     N1 2987   1.909   2.555   2.252  0.7223  0.1974 -0.3314
  209DMF     C2 2988   1.764   2.585   2.240  0.7279  0.6215  0.6039
  209DMF     C3 2989   1.943   2.417   2.270  0.1881 -0.0406 -0.0820
  209DMF     O1 2990   2.054   2.373   2.276  0.3429  0.7605 -0.4711
  209DMF     H1 2991   2.028   2.653   2.365 -0.8949 -3.5042 -0.5476
  209DMF     H2 2992   1.969   2.755   2.227  1.0131  0.9230  0.8488
  209DMF     H3 2993   2.101   2.619   2.212  0.5330 -1.6074  2.2846
  209DMF     H4 2994   1.717   2.495   2.199 -0.4990  1.7429 -0.4942
  209DMF     H5 2995   1.756   2.670   2.171  0.6720  1.8520  2.1067
  209DMF     H6 2996   1.721   2.607   2.338  0.2905 -0.2212  0.6120
  209DMF     H7 2997   1.852   2.353   2.264 -1.6476  2.2962  1.6401
  210DMF     C1 2998   2.208   1.405   3.756  0.3229  0.4542 -0.3162
  210DMF     N1 2999   2.350   1.362   3.752 -0.1167  0.5443 -0.0446
  210DMF     C2 3000   2.426   1.378   3.877 -0.3407  0.6816 -0.4654
  210DMF     C3 3001   2.411   1.315   3.636  0.2395 -0.3384  0.1511
  210DMF     O1 3002   2.348   1.305   3.531 -0.2979 -0.1148 -0.1247
  210DMF     H1 3003   2.164   1.444   3.848 -0.2588  0.0721 -0.4265
  210DMF     H2 3004   2.144   1.319   3.731 -1.3220  0.9656  1.9857
  210DMF     H3 3005   2.187   1.477   3.676  0.2680  1.0272  0.2143
  210DMF     H4 3006   2.450   1.479   3.910 -2.8600  1.4205 -0.8123
  210DMF     H5 3007   2.519   1.321   3.869 -0.1613  1.2406 -2.9631
  210DMF     H6 3008   2.372   1.331   3.960  2.6258  0.9120  1.6640
  210DMF     H7 3009   2.517   1.290   3.655  1.0944  2.0496 -1.2596
  211DMF     C1 3010   3.171   3.011   3.356  0.4235 -0.2147  0.7794
  211DMF     N1 3011   3.120   2.914   3.244  0.5571  0.8080 -0.1477
  211DMF     C2 3012   3.171   2.924   3.112  0.2420 -0.1125  0.1872
  211DMF     C3 3013   3.009   2.841   3.262  0.4468 -0.5434  0.4367
  211DMF     O1 3014   2.966   2.809   3.374 -0.2979  0.1295 -0.6926
  211DMF     H1 3015   3.233   2.960   3.430  0.9679  0.9709  1.1524
  211DMF     H2 3016   3.083   3.046   3.412  0.2358 -1.3555  1.2078
  211DMF     H3 3017   3.219   3.099   3.312  2.2557 -2.0832 -1.0583
  211DMF     H4 3018   3.266   2.979   3.110  0.6954 -0.8880  0.0637
  211DMF     H5 3019   3.098   2.973   3.046 -0.0501 -1.4332 -0.4975
  211DMF     H6 3020   3.191   2.823   3.073 -0.1531 -0.0656 -0.1319
  211DMF     H7 3021   2.956   2.814   3.169  1.5026  0.5221 -0.4812
  212DMF     C1 3022   1.721   2.052   2.341  0.9488 -0.5914  0.1901
  212DMF     N1 3023   1.760   2.006   2.477  0.4287  0.7757 -0.0227
  212DMF     C2 3024   1.664   2.008   2.594  0.2236  1.2677  0.8316
  212DMF     C3 3025   1.884   1.941   2.481 -0.9067  0.9852 -0.1007
  212DMF     O1 3026   1.966   1.930   2.395 -0.2235 -0.3163 -0.0858
  212DMF     H1 3027   1.795   2.128   2.313  2.2158 -1.4687  1.0590
  212DMF     H2 3028   1.623   2.101   2.347  0.3130 -1.9778  1.5980
  212DMF     H3 3029   1.713   1.973   2.266 -2.0339  1.0487 -1.2626
  212DMF     H4 3030   1.603   2.092   2.559  0.8300  0.6107 -1.9390
  212DMF     H5 3031   1.720   2.033   2.685  0.7538  1.2839  0.5047
  212DMF     H6 3032   1.609   1.915   2.613  0.6570  1.1163  1.3635
  212DMF     H7 3033   1.902   1.895   2.580  1.2229  2.4125  0.1930
  213DMF     C1 3034   0.989   3.367   3.515 -0.2209  0.9254  0.6643
  213DMF     N1 3035   0.848   3.319   3.535 -0.3091 -0.5826 -0.0806
  213DMF     C2 3036   0.804   3.198   3.474  0.3322  0.0284  1.0294
  213DMF     C3 3037   0.755   3.402   3.603  0.0683 -0.1811  0.4713
  213DMF     O1 3038   0.791   3.506   3.657 -0.3929  0.1718  0.5607
  213DMF     H1 3039   1.029   3.384   3.615  0.3127  2.0195  0.2709
  213DMF     H2 3040   0.987   3.466   3.468 -0.3184 -0.3188 -2.0422
  213DMF     H3 3041   1.045   3.298   3.451  1.4282  1.8176  1.1218
  213DMF     H4 3042   0.763   3.139   3.557 -1.7254 -2.1927 -1.4635
  213DMF     H5 3043   0.880   3.131   3.434  1.0343  0.8932  0.9204
  213DMF     H6 3044   0.717   3.213   3.408 -0.8918  0.1649  2.6284
  213DMF     H7 3045   0.652   3.361   3.602 -0.7548  1.8649 -0.3853
  214DMF     C1 3046   0.930   1.573   3.423 -0.4103 -0.1886 -0.2669
  214DMF     N1 3047   0.939   1.450   3.503 -0.3754  0.1030  0.7852
  214DMF     C2 3048   0.943   1.451   3.651 -0.1551 -0.3407 -0.4885
  214DMF     C3 3049   0.912   1.330   3.431  0.2062  0.0565 -0.2743
  214DMF     O1 3050   0.871   1.324   3.319  0.7416  0.0170  0.4514
  214DMF     H1 3051   1.011   1.579   3.348  0.0711 -2.4271  0.0327
  214DMF     H2 3052   0.930   1.664   3.484 -1.9323  0.1338 -0.7203
  214DMF     H3 3053   0.834   1.577   3.371  0.3919  2.0038 -1.6611
  214DMF     H4 3054   0.979   1.351   3.679  0.9213  0.8832  2.6877
  214DMF     H5 3055   0.846   1.475   3.695  0.9651  0.5828  1.5058
  214DMF     H6 3056   1.010   1.530   3.687 -1.0467 -0.2782  1.0439
  214DMF     H7 3057   0.914   1.236   3.489  1.0354  0.2144 -0.0497
  215DMF     C1 3058   1.207   2.992   0.431 -0.3291 -0.1901 -0.4998
  215DMF     N1 3059   1.206   3.118   0.506 -0.4679  0.4060  0.6974
  215DMF     C2 3060   1.321   3.163   0.580 -0.5567  0.0884 -0.1045
  215DMF     C3 3061   1.090   3.199   0.499 -0.2186 -0.1739  0.4678
  215DMF     O1 3062   0.996   3.174   0.429  0.3305  0.3111 -0.2256
  215DMF     H1 3063   1.111   2.939   0.435 -0.6063  0.2649 -0.9604
  215DMF     H2 3064   1.283   2.922   0.466 -0.0692 -0.1999 -1.0812
  215DMF     H3 3065   1.227   3.013   0.325 -2.0821  0.7090 -0.6703
  215DMF     H4 3066   1.401   3.176   0.505 -2.0831  2.4018 -1.3946
  215DMF     H5 3067   1.348   3.098   0.665  0.0223  0.1132 -0.2653
  215DMF     H6 3068   1.306   3.265   0.617  2.2866  0.2367  0.7762
  215DMF     H7 3069   1.094   3.294   0.554  2.7004  2.0751 -3.3553
  216DMF     C1 3070   3.057   2.060   0.461  0.0783  0.2955  0.4439
  216DMF     N1 3071   3.116   2.191   0.438  0.4994 -0.1815  0.6149
  216DMF     C2 3072   3.122   2.241   0.305 -0.0692  0.2164  1.1307
  216DMF     C3 3073   3.167   2.272   0.542 -0.0019  0.2440  0.2497
  216DMF     O1 3074   3.170   2.222   0.651  0.6142  0.2780 -0.1525
  216DMF     H1 3075   2.956   2.082   0.498 -0.8274 -1.7207 -0.7296
  216DMF     H2 3076   3.118   2.014   0.539  1.6714  0.5059 -0.6559
  216DMF     H3 3077   3.039   2.005   0.367  0.5674 -0.5762  0.8634
  216DMF     H4 3078   3.185   2.330   0.293 -0.0590  0.1352  0.5880
  216DMF     H5 3079   3.020   2.263   0.271  0.1299  2.3040  1.8242
  216DMF     H6 3080   3.164   2.166   0.236 -1.0356 -0.4082  1.2121
  216DMF     H7 3081   3.202   2.371   0.510  3.5093 -0.4744  1.6654
  217DMF     C1 3082   0.395   1.991   3.437  0.1905  0.9811  0.2813
  217DMF     N1 3083   0.287   2.041   3.535  0.0082 -0.3829  0.6562
  217DMF     C2 3084   0.284   1.992   3.668  0.6485  0.3481 -0.4964
  217DMF     C3 3085   0.194   2.133   3.486 -0.1880  0.4020  0.2749
  217DMF     O1 3086   0.205   2.173   3.375  0.2639  0.2339  0.1288
  217DMF     H1 3087   0.454   2.075   3.397 -0.5987  2.2525  1.7073
  217DMF     H2 3088   0.346   1.931   3.361 -0.9890  2.4632 -0.1511
  217DMF     H3 3089   0.464   1.924   3.490  0.8012  0.5461 -1.0552
  217DMF     H4 3090   0.240   1.892   3.672  0.4509  0.4494 -0.1013
  217DMF     H5 3091   0.236   2.071   3.727 -0.0663 -0.2779 -0.2376
  217DMF     H6 3092   0.389   1.985   3.701  0.1851  1.1814  1.2384
  217DMF     H7 3093   0.119   2.165   3.561  1.5470 -0.6568  2.5201
  218DMF     C1 3094   2.956   2.165   2.264  0.4428  0.2319  0.0659
  218DMF     N1 3095   2.929   2.022   2.249 -0.4111  0.5924 -0.0059
  218DMF     C2 3096   3.034   1.920   2.269  0.0110  0.2216 -0.9155
  218DMF     C3 3097   2.793   1.975   2.234  0.5916  0.5780  0.3097
  218DMF     O1 3098   2.693   2.047   2.242 -0.3636 -0.0172 -0.2594
  218DMF     H1 3099   3.060   2.178   2.232  1.0866  0.4692  2.1484
  218DMF     H2 3100   2.958   2.193   2.370  0.2255  1.1872 -0.1767
  218DMF     H3 3101   2.882   2.226   2.210  0.9791  0.6303 -0.2141
  218DMF     H4 3102   3.031   1.877   2.370  0.7475  4.9424  1.2274
  218DMF     H5 3103   3.137   1.955   2.254 -0.2444  1.3002 -0.1574
  218DMF     H6 3104   3.018   1.849   2.187  2.2284  1.1209 -2.1906
  218DMF     H7 3105   2.786   1.866   2.217  0.7689  0.9043 -2.0389
  219DMF     C1 3106   3.104   0.956   1.565 -0.2458 -0.7774 -0.0883
  219DMF     N1 3107   3.115   0.889   1.432 -0.3236 -0.3019 -0.3043
  219DMF     C2 3108   3.085   0.965   1.309  0.9081  0.0773 -0.9661
  219DMF     C3 3109   3.116   0.750   1.423  0.9249 -0.3840 -0.0600
  219DMF     O1 3110   3.126   0.681   1.521  0.7836  0.6187  0.1096
  219DMF     H1 3111   3.190   1.024   1.573  1.2872 -2.4176 -1.8572
  219DMF     H2 3112   3.121   0.890   1.650  0.1318  1.1734  1.3815
  219DMF     H3 3113   3.012   1.015   1.571  0.0158  0.0500 -3.2305
  219DMF     H4 3114   2.976   0.963   1.293  1.1760  0.4291 -2.9824
  219DMF     H5 3115   3.134   0.912   1.226  1.6345  0.7108 -0.9405
  219DMF     H6 3116   3.128   1.065   1.315  0.3391  0.2147  1.0676
  219DMF     H7 3117   3.108   0.709   1.321 -2.5774  0.6218 -0.2609
  220DMF     C1 3118   1.604   1.628   2.262  0.3932 -0.0577 -0.2870
  220DMF     N1 3119   1.721   1.580   2.335  0.5460 -0.1877 -0.2591
  220DMF     C2 3120   1.838   1.646   2.303 -0.0755 -0.8877 -0.7307
  220DMF     C3 3121   1.729   1.468   2.419 -0.6016  0.1872  0.3784
  220DMF     O1 3122   1.632   1.413   2.466  0.2968 -0.3655  0.1358
  220DMF     H1 3123   1.587   1.555   2.181  0.1840  1.2921 -1.4787
  220DMF     H2 3124   1.615   1.730   2.223 -0.4244 -0.3963 -1.4237
  220DMF     H3 3125   1.523   1.630   2.336 -0.3485 -2.0184 -1.0189
  220DMF     H4 3126   1.810   1.739   2.253 -0.6183  0.2168  1.5754
  220DMF     H5 3127   1.898   1.598   2.225 -0.3479 -0.4791 -1.1922
  220DMF     H6 3128   1.897   1.669   2.392 -1.3135 -1.3716  0.2294
  220DMF     H7 3129   1.829   1.429   2.445 -0.7749 -0.3716  0.2262
  221DMF     C1 3130   1.031   2.824   0.892  0.5076  0.3820  0.2939
  221DMF     N1 3131   1.155   2.880   0.865 -0.2520  0.1784  0.0537
  221DMF     C2 3132   1.276   2.789   0.862 -0.1225  0.5025  0.2053
  221DMF     C3 3133   1.173   3.012   0.866 -0.2701  0.7547 -0.1136
  221DMF     O1 3134   1.079   3.091   0.855  0.7597 -0.2836  0.3539
  221DMF     H1 3135   0.972   2.891   0.956 -0.0084 -1.4914  1.8262
  221DMF     H2 3136   1.038   2.727   0.941  0.8605  1.2846  2.0700
  221DMF     H3 3137   0.982   2.812   0.794 -2.0944 -0.6669  1.6623
  221DMF     H4 3138   1.286   2.735   0.957  1.2071  0.3728 -0.0019
  221DMF     H5 3139   1.367   2.841   0.831 -0.6283  0.7544 -0.8525
  221DMF     H6 3140   1.257   2.707   0.792  2.6134  0.7758 -0.9518
  221DMF     H7 3141   1.275   3.054   0.869  0.1329 -0.3104  2.1308
  222DMF     C1 3142   2.191   0.895   0.855 -0.2035  0.0187 -0.5647
  222DMF     N1 3143   2.148   1.035   0.891 -0.2484  1.0064  0.3002
  222DMF     C2 3144   2.170   1.080   1.036 -0.1956  0.1537 -0.0852
  222DMF     C3 3145   2.111   1.124   0.794  0.4571  0.0550 -0.1134
  222DMF     O1 3146   2.096   1.090   0.678  0.0638 -0.4027  0.1943
  222DMF     H1 3147   2.246   0.841   0.933  0.8756 -0.2700 -1.5255
  222DMF     H2 3148   2.254   0.896   0.766  2.8091  1.1371  1.4672
  222DMF     H3 3149   2.098   0.842   0.831 -0.0063 -0.8437  0.5268
  222DMF     H4 3150   2.202   1.185   1.035  1.7848 -0.3948 -3.8861
  222DMF     H5 3151   2.256   1.028   1.080 -0.6290  0.7184  1.4587
  222DMF     H6 3152   2.094   1.054   1.111  1.1021 -0.4876  1.0305
  222DMF     H7 3153   2.085   1.225   0.829  0.0618  0.0009 -0.2567
  223DMF     C1 3154   0.801   0.663   3.074  0.4692 -0.1552  0.5536
  223DMF     N1 3155   0.751   0.583   3.191  0.1744  0.0612  0.4459
  223DMF     C2 3156   0.819   0.600   3.323 -0.2406 -0.5684 -0.4195
  223DMF     C3 3157   0.674   0.470   3.167 -0.0502 -0.3671  0.0965
  223DMF     O1 3158   0.641   0.423   3.059  0.2516 -1.0374 -0.0450
  223DMF     H1 3159   0.861   0.589   3.019 -0.9125 -1.1869  0.4134
  223DMF     H2 3160   0.860   0.747   3.111  1.1839  0.4530 -1.9023
  223DMF     H3 3161   0.718   0.706   3.017 -2.6509 -1.1673  4.1442
  223DMF     H4 3162   0.926   0.579   3.309 -0.0942  1.0163 -1.9295
  223DMF     H5 3163   0.779   0.524   3.392  0.5742 -2.6067 -2.1277
  223DMF     H6 3164   0.801   0.695   3.374  0.1015  0.0658 -1.4670
  223DMF     H7 3165   0.654   0.415   3.261  1.1485  0.7866  1.0260
  224DMF     C1 3166   2.638   2.516   0.846  0.2134  0.1609  0.1964
  224DMF     N1 3167   2.669   2.590   0.976 -0.2206 -0.1817 -0.6975
  224DMF     C2 3168   2.647   2.738   0.983 -0.3430  0.1063  0.0184
  224DMF     C3 3169   2.771   2.539   1.063 -0.2435 -0.5354 -0.2449
  224DMF     O1 3170   2.821   2.432   1.062 -0.2882  0.2601  0.0711
  224DMF     H1 3171   2.568   2.564   0.776 -0.7740 -2.0823 -0.3900
  224DMF     H2 3172   2.594   2.421   0.880 -0.2568  0.6146  0.8661
  224DMF     H3 3173   2.733   2.497   0.796  0.1867  0.8784 -0.1303
  224DMF     H4 3174   2.573   2.754   1.063 -1.8195 -1.5251 -0.9712
  224DMF     H5 3175   2.593   2.755   0.889 -1.6844 -1.9351  0.3896
  224DMF     H6 3176   2.744   2.789   0.989 -0.5775  0.5445  0.1487
  224DMF     H7 3177   2.816   2.614   1.130  0.1559  0.0006 -1.0988
  225DMF     C1 3178   0.566   2.866   3.407  0.3892 -0.2905 -0.0907
  225DMF     N1 3179   0.553   2.882   3.549  0.2103 -0.0836 -0.2741
  225DMF     C2 3180   0.444   2.968   3.606  0.0693  0.5438 -0.2609
  225DMF     C3 3181   0.659   2.852   3.634 -0.2851  0.2150  0.1645
  225DMF     O1 3182   0.751   2.790   3.590  0.1031 -0.1836 -0.5203
  225DMF     H1 3183   0.476   2.906   3.358  0.0476 -0.0017  0.7680
  225DMF     H2 3184   0.594   2.764   3.379  1.4786 -0.4483  1.5452
  225DMF     H3 3185   0.657   2.925   3.388 -0.2247  0.1106 -1.9147
  225DMF     H4 3186   0.358   2.964   3.538  0.3219 -1.6712 -0.5197
  225DMF     H5 3187   0.476   3.072   3.600 -0.3022  0.6157 -1.0171
  225DMF     H6 3188   0.424   2.940   3.710 -0.2857  1.4465 -0.0831
  225DMF     H7 3189   0.638   2.869   3.742  3.0252  0.7739  0.7747
  226DMF     C1 3190   0.683   2.920   0.773  0.5008  0.1559  0.4417
  226DMF     N1 3191   0.735   2.878   0.645 -0.3638  0.0794  0.6363
  226DMF     C2 3192   0.847   2.951   0.582  0.5107  0.1916  0.1777
  226DMF     C3 3193   0.700   2.759   0.592 -0.0191 -0.2978  0.2987
  226DMF     O1 3194   0.624   2.685   0.645 -0.0508 -0.3501 -0.4877
  226DMF     H1 3195   0.720   2.856   0.855  0.2560  1.0742  1.2696
  226DMF     H2 3196   0.575   2.932   0.769  0.3235 -1.0949  1.2471
  226DMF     H3 3197   0.713   3.025   0.782  2.7748 -0.4634  0.4277
  226DMF     H4 3198   0.934   2.884   0.573 -1.8356 -3.2441  1.9904
  226DMF     H5 3199   0.886   3.027   0.651  1.7413 -1.1301  0.9953
  226DMF     H6 3200   0.812   2.997   0.489 -2.7222 -3.3674 -0.5074
  226DMF     H7 3201   0.743   2.745   0.491 -0.3613 -0.7496  0.2156
  227DMF     C1 3202   2.769   0.185   3.076 -0.0416  0.3977  0.2083
  227DMF     N1 3203   2.901   0.192   3.012  0.0003 -0.0647 -0.4414
  227DMF     C2 3204   2.972   0.068   2.969 -0.2424  0.7134 -0.2271
  227DMF     C3 3205   2.978   0.313   3.020 -0.1336  1.0265  0.0751
  227DMF     O1 3206   2.927   0.412   3.061  0.7335 -0.2347  0.1314
  227DMF     H1 3207   2.796   0.232   3.172 -2.1631  0.8035  0.6268
  227DMF     H2 3208   2.737   0.081   3.087  2.0246 -0.3267 -0.3568
  227DMF     H3 3209   2.698   0.242   3.016 -0.4979 -0.7516 -0.3657
  227DMF     H4 3210   2.992   0.069   2.861  0.1985  0.2596 -0.1516
  227DMF     H5 3211   2.910  -0.020   2.987  2.2897 -0.9864  0.5240
  227DMF     H6 3212   3.066   0.045   3.022 -1.3056 -1.9674  0.5574
  227DMF     H7 3213   3.087   0.298   3.003  0.3144  2.4443  1.5695
  228DMF     C1 3214   3.038   2.193   3.693 -0.2898 -0.0744  0.4458
  228DMF     N1 3215   2.966   2.068   3.711  0.4380 -0.5072 -0.2602
  228DMF     C2 3216   2.987   1.968   3.596  0.7414  0.2756  0.2603
  228DMF     C3 3217   2.864   2.054   3.806 -0.2911  1.1363 -0.1297
  228DMF     O1 3218   2.835   2.135   3.891  0.1955 -0.1968 -0.1644
  228DMF     H1 3219   3.024   2.258   3.780  0.9714 -1.5883  1.8029
  228DMF     H2 3220   2.989   2.251   3.613  0.1708  0.4577  0.5460
  228DMF     H3 3221   3.143   2.174   3.671 -0.3014 -2.2863  2.1678
  228DMF     H4 3222   2.941   2.006   3.504 -3.9356 -1.2887  1.8248
  228DMF     H5 3223   2.940   1.871   3.617 -1.1717  0.9713 -0.6531
  228DMF     H6 3224   3.094   1.963   3.575  0.5274 -0.5703 -0.6345
  228DMF     H7 3225   2.821   1.953   3.797  4.8396 -1.7510  4.3459
  229DMF     C1 3226   1.743   2.893   3.582  0.5262 -0.9941  0.1648
  229DMF     N1 3227   1.839   2.837   3.481  0.3058  0.0932 -0.2758
  229DMF     C2 3228   1.944   2.927   3.440  0.1901 -0.2682  0.3901
  229DMF     C3 3229   1.796   2.741   3.389  0.0444  1.0307 -0.3268
  229DMF     O1 3230   1.700   2.666   3.402 -0.0294  0.0964  0.1078
  229DMF     H1 3231   1.797   2.909   3.676  2.6873  0.1482 -1.2319
  229DMF     H2 3232   1.651   2.835   3.596 -0.8791  1.1032 -0.3096
  229DMF     H3 3233   1.701   2.980   3.531 -0.9327 -0.6229  1.9281
  229DMF     H4 3234   2.035   2.867   3.431 -1.1819 -2.3423 -0.0491
  229DMF     H5 3235   1.950   2.994   3.527 -2.8970 -0.2389  0.6488
  229DMF     H6 3236   1.930   2.979   3.345  0.3910 -1.0651 -0.0733
  229DMF     H7 3237   1.865   2.751   3.303  0.8379 -0.3646  0.1411
  230DMF     C1 3238   1.926   0.230   0.611  0.0262  0.3312  0.0369
  230DMF     N1 3239   2.064   0.269   0.647 -0.3536  0.7239 -0.3275
  230DMF     C2 3240   2.180   0.178   0.611 -0.1135 -0.0375 -0.3969
  230DMF     C3 3241   2.094   0.389   0.715 -0.5523  0.0748  0.0064
  230DMF     O1 3242   2.007   0.457   0.767 -0.2641 -0.1686  0.0824
  230DMF     H1 3243   1.909   0.122   0.601 -0.7931  0.2715  1.8895
  230DMF     H2 3244   1.910   0.280   0.515 -1.5471 -0.6088 -0.2013
  230DMF     H3 3245   1.855   0.268   0.686  0.8079  0.2682  0.8269
  230DMF     H4 3246   2.166   0.085   0.668 -0.2636  0.0135 -0.3490
  230DMF     H5 3247   2.277   0.222   0.637 -0.0475 -0.8392  0.7151
  230DMF     H6 3248   2.186   0.152   0.505 -1.5523 -2.3720  0.0518
  230DMF     H7 3249   2.201   0.418   0.705 -0.4474 -0.6602 -1.1164
  231DMF     C1 3250   2.469   1.767   2.256 -0.1891 -0.0026 -0.1926
  231DMF     N1 3251   2.344   1.854   2.238 -0.1083 -0.1466 -0.4025
  231DMF     C2 3252   2.364   2.003   2.258 -0.2857  0.1349  0.2024
  231DMF     C3 3253   2.219   1.814   2.210  0.2648 -0.0742  0.5091
  231DMF     O1 3254   2.186   1.697   2.197 -0.2646  0.4785 -0.0955
  231DMF     H1 3255   2.556   1.828   2.230 -0.5701  1.1734  1.2462
  231DMF     H2 3256   2.463   1.675   2.196 -0.6043  0.0315 -0.2071
  231DMF     H3 3257   2.481   1.742   2.362 -0.2094 -0.5647 -0.3208
  231DMF     H4 3258   2.391   2.021   2.363 -0.3033  2.2653 -0.1259
  231DMF     H5 3259   2.274   2.061   2.231  0.1987 -0.2397 -2.3364
  231DMF     H6 3260   2.446   2.040   2.196 -0.7411  2.7642  1.1109
  231DMF     H7 3261   2.150   1.901   2.210 -1.6606 -1.5762  0.5461
  232DMF     C1 3262   2.661   0.138   3.451  0.5167 -0.3003  0.3150
  232DMF     N1 3263   2.660   0.215   3.577  0.3569 -0.7806  0.4366
  232DMF     C2 3264   2.570   0.332   3.600  0.7565  0.3543  0.6388
  232DMF     C3 3265   2.741   0.167   3.678  0.0201  0.4636  0.4457
  232DMF     O1 3266   2.808   0.062   3.669 -0.6134  0.0640 -0.4389
  232DMF     H1 3267   2.592   0.055   3.467 -0.8309  0.4722 -1.2580
  232DMF     H2 3268   2.761   0.108   3.417  0.4708 -1.0876  0.8909
  232DMF     H3 3269   2.623   0.203   3.371  0.6325  1.0769  1.3597
  232DMF     H4 3270   2.618   0.423   3.564 -1.8536  0.9252 -1.4853
  232DMF     H5 3271   2.551   0.326   3.708 -1.6220 -2.9057  0.1306
  232DMF     H6 3272   2.471   0.320   3.555  1.6542  2.1650 -1.9110
  232DMF     H7 3273   2.728   0.224   3.772  0.3594 -0.6178  1.1602
  233DMF     C1 3274   3.226   0.961   0.392 -0.2136 -0.0975 -0.3314
  233DMF     N1 3275   3.257   0.822   0.444 -0.2000  0.6725 -0.0896
  233DMF     C2 3276   3.143   0.743   0.499 -0.4822 -0.6842  0.0967
  233DMF     C3 3277   3.388   0.770   0.437 -0.1616  0.4426  0.0411
  233DMF     O1 3278   3.478   0.843   0.390 -0.0462  0.1688  0.6353
  233DMF     H1 3279   3.137   1.001   0.443 -0.2145 -0.8339  0.2528
  233DMF     H2 3280   3.215   0.944   0.284 -0.2931 -1.5858 -0.0981
  233DMF     H3 3281   3.306   1.035   0.406  0.8340 -1.3095  0.1620
  233DMF     H4 3282   3.180   0.642   0.519 -0.0195 -0.6637 -0.6327
  233DMF     H5 3283   3.068   0.740   0.419 -2.5915  2.5968  1.7973
  233DMF     H6 3284   3.107   0.791   0.591 -0.1376  2.7410 -1.4536
  233DMF     H7 3285   3.401   0.664   0.467  0.1848  0.3492 -0.4307
  234DMF     C1 3286   2.243   0.057   3.503  0.0102  0.2692  0.3540
  234DMF     N1 3287   2.266   0.061   3.643 -0.6292 -1.1037  0.3297
  234DMF     C2 3288   2.320  -0.064   3.711  0.1423 -0.1101  0.8185
  234DMF     C3 3289   2.272   0.186   3.712  0.2635 -0.4512 -0.2314
  234DMF     O1 3290   2.251   0.290   3.654 -0.6167 -0.1698 -0.2521
  234DMF     H1 3291   2.138   0.082   3.483 -0.4108 -2.0566 -0.4741
  234DMF     H2 3292   2.253  -0.043   3.459  0.2308 -0.4070  1.9211
  234DMF     H3 3293   2.311   0.129   3.456 -0.2977  1.3402  1.5343
  234DMF     H4 3294   2.372  -0.030   3.801  0.4511 -3.5640  2.0170
  234DMF     H5 3295   2.389  -0.123   3.649  0.9656 -2.3608  3.7626
  234DMF     H6 3296   2.235  -0.131   3.729  0.5085 -0.8344 -0.0840
  234DMF     H7 3297   2.294   0.176   3.819  1.2782  0.2195 -0.3722
  235DMF     C1 3298   1.323   2.639   2.749  0.0111  0.5105 -0.1280
  235DMF     N1 3299   1.365   2.728   2.641  0.0799 -0.2908  0.0874
  235DMF     C2 3300   1.501   2.722   2.588 -0.2462  0.2081  0.0953
  235DMF     C3 3301   1.262   2.810   2.578  0.0920 -0.1782  0.5960
  235DMF     O1 3302   1.148   2.805   2.612 -0.0412  0.5378  0.2717
  235DMF     H1 3303   1.402   2.571   2.783  0.2869  0.9519  0.1272
  235DMF     H2 3304   1.250   2.571   2.703  1.0815 -0.1955 -0.8092
  235DMF     H3 3305   1.282   2.693   2.835  0.6325 -3.1219  2.5445
  235DMF     H4 3306   1.571   2.706   2.670  1.5272 -0.8156 -1.5679
  235DMF     H5 3307   1.527   2.810   2.528  0.5994 -1.1398 -1.5455
  235DMF     H6 3308   1.503   2.630   2.528  0.7933  0.5347 -0.3684
  235DMF     H7 3309   1.305   2.873   2.497  2.2120 -3.2361 -0.7749
  236DMF     C1 3310   2.726   1.276   2.673 -0.0933  0.2360  1.4101
  236DMF     N1 3311   2.653   1.270   2.798  0.1255  0.1293  0.0038
  236DMF     C2 3312   2.511   1.225   2.798 -0.4598 -0.4064  0.2930
  236DMF     C3 3313   2.712   1.275   2.921  0.3141 -0.6849 -0.4435
  236DMF     O1 3314   2.835   1.287   2.931  0.4000  0.4612 -0.6228
  236DMF     H1 3315   2.780   1.370   2.656 -2.6569  1.5721  0.2820
  236DMF     H2 3316   2.657   1.271   2.588  0.2776  1.0562  1.0605
  236DMF     H3 3317   2.793   1.190   2.672  1.2113  1.2301 -2.0042
  236DMF     H4 3318   2.490   1.151   2.876  0.6934  0.0511  1.0722
  236DMF     H5 3319   2.488   1.172   2.706 -1.8446 -0.0454  0.4297
  236DMF     H6 3320   2.456   1.319   2.814  1.8179  1.0833 -0.2765
  236DMF     H7 3321   2.647   1.256   3.009 -0.3308  0.8137 -0.5751
  237DMF     C1 3322   2.430   0.009   0.278 -0.3073 -0.1233 -0.1437
  237DMF     N1 3323   2.561  -0.020   0.328  0.1890  0.1985  0.5314
  237DMF     C2 3324   2.667  -0.069   0.235  0.2467 -0.3788 -0.2187
  237DMF     C3 3325   2.594   0.015   0.459  0.0424  0.1884 -0.2372
  237DMF     O1 3326   2.510   0.061   0.539  0.6573  0.3267 -0.1478
  237DMF     H1 3327   2.393  -0.081   0.227 -1.9112  0.7985 -0.6244
  237DMF     H2 3328   2.456   0.088   0.207  1.8822 -0.7182 -0.0551
  237DMF     H3 3329   2.357   0.046   0.351  0.8274  3.3021 -0.6483
  237DMF     H4 3330   2.763  -0.028   0.269  0.8137 -0.9436 -1.1237
  237DMF     H5 3331   2.636  -0.035   0.135  1.3490  1.3259 -0.0089
  237DMF     H6 3332   2.675  -0.178   0.246  1.0666 -0.2182  0.8393
  237DMF     H7 3333   2.699  -0.011   0.485 -0.2717 -0.0083  0.8927
  238DMF     C1 3334   0.297   0.680   0.573 -0.3935  0.2979  0.0603
  238DMF     N1 3335   0.431   0.627   0.565 -0.0320 -0.1951 -0.4197
  238DMF     C2 3336   0.535   0.721   0.522  0.5708 -0.0496  0.6363
  238DMF     C3 3337   0.460   0.491   0.590 -0.5538 -0.8458 -0.1151
  238DMF     O1 3338   0.372   0.411   0.583  0.6416 -0.6254  0.3109
  238DMF     H1 3339   0.292   0.779   0.527  2.7845 -0.4376 -2.0605
  238DMF     H2 3340   0.271   0.683   0.679 -0.7851  0.4011 -0.0363
  238DMF     H3 3341   0.228   0.610   0.523 -1.0985  0.0907  1.3043
  238DMF     H4 3342   0.609   0.659   0.469 -0.5319  0.2936 -1.3673
  238DMF     H5 3343   0.565   0.785   0.606  0.4704  2.6301 -1.2835
  238DMF     H6 3344   0.495   0.790   0.446 -0.2439 -0.6624  0.4980
  238DMF     H7 3345   0.567   0.462   0.598 -0.0952  1.4405  3.0822
  239DMF     C1 3346   3.249   0.034   0.883 -0.7642  0.1753 -0.0474
  239DMF     N1 3347   3.367  -0.016   0.955  0.3003 -0.1851  0.3445
  239DMF     C2 3348   3.427  -0.145   0.911  0.4238  0.4983  0.4898
  239DMF     C3 3349   3.431   0.058   1.058  0.3308  0.0359  0.3447
  239DMF     O1 3350   3.375   0.163   1.103 -0.2790  0.1068  0.3090
  239DMF     H1 3351   3.220  -0.038   0.805 -0.5957 -0.7260  0.7153
  239DMF     H2 3352   3.269   0.135   0.846  0.9114 -0.4715 -0.9664
  239DMF     H3 3353   3.169   0.030   0.958 -1.4914  0.7883 -0.7757
  239DMF     H4 3354   3.401  -0.160   0.806 -1.5077  0.0060  1.0008
  239DMF     H5 3355   3.374  -0.222   0.969 -0.2399  0.8751  0.3877
  239DMF     H6 3356   3.525  -0.174   0.951  0.7052  0.1282 -0.4573
  239DMF     H7 3357   3.525   0.015   1.098  0.5842  0.2002 -0.0704
  240DMF     C1 3358   1.126   0.106   3.047 -0.4528 -0.4876  0.6186
  240DMF     N1 3359   1.063   0.221   2.980 -0.4333  0.4106  0.2838
  240DMF     C2 3360   1.122   0.266   2.852  0.2005  1.4141 -0.4127
  240DMF     C3 3361   0.944   0.277   3.028 -0.7407  0.1732  0.5649
  240DMF     O1 3362   0.902   0.255   3.141  0.2650  0.1658 -0.0399
  240DMF     H1 3363   1.090   0.115   3.151 -3.4775 -0.2164 -0.4187
  240DMF     H2 3364   1.234   0.126   3.049 -0.6223  0.6807 -1.3119
  240DMF     H3 3365   1.103   0.008   3.003  0.7949  0.2268 -1.6980
  240DMF     H4 3366   1.214   0.209   2.838 -1.2732 -0.8573 -1.1894
  240DMF     H5 3367   1.127   0.375   2.855 -2.2512  1.5748 -0.8559
  240DMF     H6 3368   1.050   0.237   2.774  0.7727  1.9157 -1.1272
  240DMF     H7 3369   0.893   0.351   2.963 -3.6554 -1.8098  0.4543
  241DMF     C1 3370   0.311   2.810   2.752 -0.7058  0.3338 -0.0158
  241DMF     N1 3371   0.379   2.928   2.694 -0.2948 -0.4439  0.1455
  241DMF     C2 3372   0.306   3.058   2.710  0.0704  0.5633 -0.0592
  241DMF     C3 3373   0.513   2.915   2.645 -0.1587  0.2536 -0.3375
  241DMF     O1 3374   0.563   2.805   2.645  0.0950  0.0375 -0.4982
  241DMF     H1 3375   0.259   2.752   2.675  0.7973  0.6116 -1.2733
  241DMF     H2 3376   0.231   2.844   2.818  0.6592 -0.0602  1.8784
  241DMF     H3 3377   0.380   2.748   2.811  1.2231  2.1466 -0.3062
  241DMF     H4 3378   0.295   3.083   2.816 -0.0285 -2.1821  0.6312
  241DMF     H5 3379   0.206   3.054   2.666 -0.2027  0.4491  0.5577
  241DMF     H6 3380   0.362   3.139   2.661  2.4421 -0.5744  0.7079
  241DMF     H7 3381   0.556   3.009   2.608 -1.7422  0.4088 -1.8521
  242DMF     C1 3382   1.740   2.963   1.146 -0.0716  0.2880  0.3081
  242DMF     N1 3383   1.804   3.093   1.122 -0.4871 -0.6254  0.0777
  242DMF     C2 3384   1.882   3.105   1.006 -0.6194  0.6043  0.1573
  242DMF     C3 3385   1.783   3.205   1.210 -0.7483  0.9441  0.2293
  242DMF     O1 3386   1.703   3.194   1.303 -0.1519 -0.0915  0.2868
  242DMF     H1 3387   1.696   2.928   1.052 -0.3522  1.4028  0.0186
  242DMF     H2 3388   1.666   2.961   1.226  0.2363  2.9629  0.7025
  242DMF     H3 3389   1.817   2.894   1.183  1.1679 -0.0853 -2.8114
  242DMF     H4 3390   1.828   3.110   0.910 -0.8966  1.8929  0.3747
  242DMF     H5 3391   1.946   3.016   1.003 -1.3107  0.1117  0.0707
  242DMF     H6 3392   1.951   3.190   1.017  0.2494 -0.0066 -0.5141
  242DMF     H7 3393   1.851   3.289   1.187 -0.0563  0.2446 -0.2806
  243DMF     C1 3394   2.027   2.800   3.077 -0.6398  0.1389 -0.2181
  243DMF     N1 3395   2.039   2.671   3.004  0.6868  0.0701  0.4206
  243DMF     C2 3396   2.009   2.545   3.081 -0.1174 -0.4279  0.6267
  243DMF     C3 3397   2.064   2.672   2.867 -0.3660  0.9012 -0.4632
  243DMF     O1 3398   2.076   2.780   2.804  0.0490  0.2272  0.5963
  243DMF     H1 3399   1.942   2.866   3.057 -1.1056 -0.6574 -0.8457
  243DMF     H2 3400   2.113   2.862   3.048 -1.1567  0.9776  0.0043
  243DMF     H3 3401   2.028   2.780   3.185 -2.6458  1.9686  0.1853
  243DMF     H4 3402   1.916   2.502   3.043 -1.1718  1.9978  0.3301
  243DMF     H5 3403   1.984   2.564   3.186  1.7044 -2.0791  1.3671
  243DMF     H6 3404   2.079   2.461   3.076 -0.3214 -0.5723  0.1838
  243DMF     H7 3405   2.075   2.571   2.824 -0.1143  1.4755 -1.7651
  244DMF     C1 3406   0.109   1.828   3.258  0.6962 -0.6188  0.1067
  244DMF     N1 3407   0.091   1.778   3.396 -0.6129 -0.0071  0.0129
  244DMF     C2 3408   0.186   1.666   3.430 -0.3543  0.0859  0.4715
  244DMF     C3 3409  -0.030   1.786   3.458 -0.2799  0.1132 -0.6930
  244DMF     O1 3410  -0.129   1.844   3.413 -0.4109 -0.3879 -0.3081
  244DMF     H1 3411   0.114   1.937   3.252 -1.1153 -0.5545 -0.4264
  244DMF     H2 3412   0.032   1.780   3.196 -1.2713 -1.7965  3.3456
  244DMF     H3 3413   0.202   1.784   3.218  1.6564 -0.3676  2.0362
  244DMF     H4 3414   0.153   1.603   3.514  3.1395 -1.4923  0.7804
  244DMF     H5 3415   0.282   1.708   3.464  0.0760  0.7069 -1.4550
  244DMF     H6 3416   0.201   1.603   3.342  0.6061  0.4022  0.3965
  244DMF     H7 3417  -0.039   1.725   3.550 -0.8542 -0.9732 -1.4620
  245DMF     C1 3418   3.111   2.391   3.269 -0.2951 -0.4276 -0.5092
  245DMF     N1 3419   3.235   2.326   3.274 -0.1750  0.4124 -0.3030
  245DMF     C2 3420   3.277   2.259   3.398  0.4989  0.4501 -0.0376
  245DMF     C3 3421   3.313   2.295   3.158 -0.3556 -0.1940 -0.4453
  245DMF     O1 3422   3.289   2.348   3.052  0.0516  0.1793 -0.0449
  245DMF     H1 3423   3.031   2.317   3.281  1.0603 -1.7276  0.6041
  245DMF     H2 3424   3.102   2.455   3.181  0.3735 -1.5287 -1.3863
  245DMF     H3 3425   3.108   2.458   3.356 -0.0771 -0.1014 -0.7527
  245DMF     H4 3426   3.384   2.275   3.415  0.8757 -1.2119 -0.7917
  245DMF     H5 3427   3.249   2.153   3.388  0.5698  0.4362 -0.0849
  245DMF     H6 3428   3.220   2.299   3.482  1.3581  3.3603 -0.7949
  245DMF     H7 3429   3.406   2.237   3.176 -0.2949 -0.7070 -2.3408
  246DMF     C1 3430   0.128   3.153   0.074 -0.0373  0.2808 -0.1207
  246DMF     N1 3431   0.110   3.168  -0.065 -0.2571 -0.1927  0.0869
  246DMF     C2 3432   0.202   3.267  -0.128  0.2708  0.1849 -0.2339
  246DMF     C3 3433   0.023   3.087  -0.143  0.4966  0.1173 -0.2003
  246DMF     O1 3434  -0.058   3.009  -0.097 -0.0273  0.4287 -0.3017
  246DMF     H1 3435   0.192   3.235   0.110  0.2817 -0.2630  0.5565
  246DMF     H2 3436   0.181   3.058   0.084 -0.1248  0.3229  0.8189
  246DMF     H3 3437   0.034   3.146   0.130  0.4012 -1.5709  0.4029
  246DMF     H4 3438   0.225   3.350  -0.060 -1.2371  1.2997 -1.0308
  246DMF     H5 3439   0.146   3.321  -0.206  0.4485 -0.1018 -0.5607
  246DMF     H6 3440   0.291   3.223  -0.175  0.2319 -0.1175 -0.0206
  246DMF     H7 3441   0.036   3.105  -0.251  2.0846 -2.4231 -0.4858
  247DMF     C1 3442   0.319   0.521   3.242 -0.1902  0.6218  0.3360
  247DMF     N1 3443   0.232   0.632   3.205  0.3180 -0.0005  0.4433
  247DMF     C2 3444   0.094   0.620   3.254 -0.0406  0.1072 -0.3268
  247DMF     C3 3445   0.275   0.742   3.150  0.0187 -0.4188 -0.1691
  247DMF     O1 3446   0.389   0.751   3.095  0.7703  0.3920 -0.4493
  247DMF     H1 3447   0.312   0.442   3.167 -1.4690  1.0644 -0.0172
  247DMF     H2 3448   0.292   0.484   3.342 -1.4061  1.9626  0.5241
  247DMF     H3 3449   0.423   0.555   3.249  0.4295 -1.1816  0.1682
  247DMF     H4 3450   0.067   0.720   3.290 -0.5378  0.2190 -1.0000
  247DMF     H5 3451   0.082   0.542   3.331 -0.7641  0.4488 -0.0862
  247DMF     H6 3452   0.029   0.582   3.174  0.3283  0.4249 -0.7800
  247DMF     H7 3453   0.206   0.827   3.160  0.2112 -0.2745 -0.0614
  248DMF     C1 3454   1.012   2.918   2.257  0.1157 -0.9773 -0.0249
  248DMF     N1 3455   0.869   2.878   2.250  0.1611 -1.0297 -0.1478
  248DMF     C2 3456   0.759   2.985   2.261 -0.3827  0.8207 -0.0333
  248DMF     C3 3457   0.850   2.737   2.228  0.6419 -0.3971  0.8553
  248DMF     O1 3458   0.940   2.654   2.214  0.2635 -0.2946 -0.3438
  248DMF     H1 3459   1.021   3.025   2.232 -1.6585 -1.1150 -1.3474
  248DMF     H2 3460   1.071   2.870   2.178  1.7282 -1.2156  1.2893
  248DMF     H3 3461   1.055   2.870   2.347 -0.2068  2.6533  2.1851
  248DMF     H4 3462   0.695   2.962   2.347 -1.7396 -1.7356 -1.6286
  248DMF     H5 3463   0.701   2.976   2.168  0.2952 -0.1945 -0.3699
  248DMF     H6 3464   0.802   3.085   2.272 -0.4089  0.8326 -0.0382
  248DMF     H7 3465   0.745   2.702   2.224  1.4116 -2.6036 -1.0942
  249DMF     C1 3466   0.616   0.984   3.519 -0.3663 -0.2957  0.5623
  249DMF     N1 3467   0.573   0.843   3.506 -0.7665  0.1000 -0.0032
  249DMF     C2 3468   0.454   0.817   3.420 -0.3392 -0.3498  0.2447
  249DMF     C3 3469   0.632   0.748   3.584  0.8015 -0.1449  0.3905
  249DMF     O1 3470   0.732   0.765   3.648  0.3866  0.9334  0.2560
  249DMF     H1 3471   0.721   0.984   3.487 -0.0790 -0.5040  1.4805
  249DMF     H2 3472   0.602   1.015   3.623  0.1307 -1.2775  0.9353
  249DMF     H3 3473   0.561   1.048   3.449  0.6507  0.0799  0.0983
  249DMF     H4 3474   0.393   0.733   3.455  0.6451 -1.1583  0.0421
  249DMF     H5 3475   0.475   0.810   3.313 -0.6364 -3.2386  0.3517
  249DMF     H6 3476   0.383   0.901   3.426 -1.4198 -1.2803  0.5876
  249DMF     H7 3477   0.574   0.655   3.573  1.4015 -0.7346  1.9784
  250DMF     C1 3478   0.649   2.509   2.989 -0.1346  0.1169 -0.7431
  250DMF     N1 3479   0.790   2.539   3.037 -0.0223  0.2836  0.1212
  250DMF     C2 3480   0.810   2.632   3.150  0.2411  0.3942 -0.8214
  250DMF     C3 3481   0.899   2.489   2.970  0.3941 -0.7020  0.0830
  250DMF     O1 3482   0.889   2.429   2.869  0.2300  0.3453  0.3269
  250DMF     H1 3483   0.578   2.592   2.988 -0.1414  0.1077 -1.3445
  250DMF     H2 3484   0.599   2.438   3.057  0.7610 -0.1758 -0.3830
  250DMF     H3 3485   0.644   2.457   2.892 -1.4508 -1.2965  0.0532
  250DMF     H4 3486   0.841   2.573   3.237  0.6073  1.1282 -0.4457
  250DMF     H5 3487   0.723   2.694   3.176  0.1980  0.1178 -0.2868
  250DMF     H6 3488   0.884   2.708   3.123 -0.6287  1.2312 -0.8894
  250DMF     H7 3489   0.995   2.517   3.016  0.0694 -0.2524  0.4838
  251DMF     C1 3490   0.645   0.608   2.310  0.0732  0.1113  0.5793
  251DMF     N1 3491   0.528   0.533   2.285 -0.1926  0.0812  0.2695
  251DMF     C2 3492   0.400   0.599   2.270 -0.1317  0.5954  0.1724
  251DMF     C3 3493   0.538   0.396   2.269 -0.1228  0.5489 -0.2285
  251DMF     O1 3494   0.636   0.325   2.300  0.1087 -0.6246  0.6264
  251DMF     H1 3495   0.631   0.704   2.362  4.7874  1.5767 -0.5789
  251DMF     H2 3496   0.686   0.636   2.212 -2.3058  2.2346  0.1261
  251DMF     H3 3497   0.715   0.542   2.362 -1.6603 -0.4502  2.2572
  251DMF     H4 3498   0.373   0.632   2.168 -0.1043  1.5220  0.4589
  251DMF     H5 3499   0.407   0.691   2.329  0.7812  0.9112 -0.4273
  251DMF     H6 3500   0.322   0.533   2.308  1.2088  0.0812  2.0674
  251DMF     H7 3501   0.437   0.357   2.247  1.0403 -2.6290 -0.2144
  252DMF     C1 3502   2.355   0.648   3.625  0.2834 -0.1494  0.2819
  252DMF     N1 3503   2.420   0.672   3.758 -0.2374  0.5316 -0.2002
  252DMF     C2 3504   2.398   0.580   3.869 -0.3580 -0.2249 -0.4860
  252DMF     C3 3505   2.510   0.781   3.778 -0.0570  0.0277 -0.2394
  252DMF     O1 3506   2.565   0.834   3.683 -0.1412 -0.0466 -0.3424
  252DMF     H1 3507   2.337   0.746   3.580 -1.2579 -2.0434 -3.4979
  252DMF     H2 3508   2.258   0.598   3.631  0.3876 -0.3856  0.0357
  252DMF     H3 3509   2.424   0.580   3.572  2.0977  1.7190  0.2043
  252DMF     H4 3510   2.364   0.484   3.828  0.9961 -1.7440  1.8757
  252DMF     H5 3511   2.322   0.621   3.937 -1.1407 -1.8201 -0.3586
  252DMF     H6 3512   2.497   0.567   3.915 -0.8670 -0.5105  0.5406
  252DMF     H7 3513   2.544   0.794   3.883 -0.2586  0.1930 -0.1932
  253DMF     C1 3514   0.103   2.810   3.193  0.1043  1.1617 -0.2199
  253DMF     N1 3515   0.181   2.682   3.192 -0.2193  0.3339 -0.2752
  253DMF     C2 3516   0.109   2.557   3.194  0.5124  0.6573  0.3349
  253DMF     C3 3517   0.318   2.675   3.151 -0.5851 -0.5068 -0.1994
  253DMF     O1 3518   0.383   2.774   3.125  0.2292  0.3104  0.6446
  253DMF     H1 3519   0.155   2.870   3.269  1.5962  0.4844 -0.6764
  253DMF     H2 3520  -0.002   2.797   3.222  0.2437 -0.0318 -0.2085
  253DMF     H3 3521   0.112   2.870   3.102 -1.0721 -1.4978 -2.1736
  253DMF     H4 3522   0.056   2.534   3.101  2.1446 -0.4003 -0.3483
  253DMF     H5 3523   0.026   2.575   3.264 -0.2420  1.1616 -0.6641
  253DMF     H6 3524   0.174   2.479   3.236 -1.1162 -2.2632 -2.4193
  253DMF     H7 3525   0.351   2.569   3.155  0.6962 -0.2928 -3.4756
  254DMF     C1 3526   1.333   2.280   2.624  0.8625  0.5384  0.6418
  254DMF     N1 3527   1.309   2.286   2.771  0.1580 -0.4715  0.1937
  254DMF     C2 3528   1.173   2.316   2.811 -0.2163 -0.0434 -0.9839
  254DMF     C3 3529   1.414   2.285   2.865  0.1533 -0.0177  0.0168
  254DMF     O1 3530   1.527   2.265   2.829 -0.2853  0.4201  0.2734
  254DMF     H1 3531   1.257   2.331   2.564  0.6413 -3.0793 -2.3698
  254DMF     H2 3532   1.343   2.178   2.586  0.0003  0.1288  1.4721
  254DMF     H3 3533   1.425   2.333   2.597  2.6388 -2.5346  0.4179
  254DMF     H4 3534   1.175   2.373   2.904  2.9505 -0.9061 -0.4868
  254DMF     H5 3535   1.131   2.221   2.848 -1.0643  0.4910 -0.5552
  254DMF     H6 3536   1.107   2.366   2.739  0.3100 -1.3202 -2.3820
  254DMF     H7 3537   1.388   2.296   2.972  0.0799  0.1169 -0.0145
  255DMF     C1 3538   1.166   1.069   0.644 -0.4674  0.6422 -0.2140
  255DMF     N1 3539   1.250   0.956   0.632 -0.2704 -0.1854 -0.2934
  255DMF     C2 3540   1.189   0.837   0.570 -0.1463  0.0891  0.0717
  255DMF     C3 3541   1.387   0.958   0.663 -0.3073  0.4561  0.2106
  255DMF     O1 3542   1.451   1.053   0.690 -0.9251  0.4985 -0.1128
  255DMF     H1 3543   1.106   1.088   0.554 -0.2159  0.1344 -0.4938
  255DMF     H2 3544   1.219   1.162   0.663  1.6623 -0.5453 -0.1777
  255DMF     H3 3545   1.100   1.046   0.728  0.2946 -0.6337  0.0453
  255DMF     H4 3546   1.089   0.820   0.612  0.2231 -1.6037  0.3121
  255DMF     H5 3547   1.253   0.747   0.574 -2.1203 -1.4473 -2.1173
  255DMF     H6 3548   1.179   0.850   0.462  0.1758 -1.8060 -0.2090
  255DMF     H7 3549   1.432   0.857   0.666  0.2652  0.6827 -0.4283
  256DMF     C1 3550   3.380   2.665   2.843  0.4324 -0.6537 -0.5674
  256DMF     N1 3551   3.337   2.720   2.715  0.0332 -0.2118 -0.1734
  256DMF     C2 3552   3.339   2.637   2.601 -0.4133 -0.9002 -0.7377
  256DMF     C3 3553   3.275   2.849   2.707 -0.1323  0.0203  0.3387
  256DMF     O1 3554   3.264   2.932   2.797  0.7218  0.4647 -0.4276
  256DMF     H1 3555   3.489   2.652   2.844  0.4966 -0.2523 -1.5225
  256DMF     H2 3556   3.329   2.572   2.872 -0.6921 -0.1739 -1.0008
  256DMF     H3 3557   3.364   2.739   2.922  1.4424 -0.5221 -0.4733
  256DMF     H4 3558   3.264   2.672   2.529  0.0309 -1.1782 -1.3421
  256DMF     H5 3559   3.314   2.535   2.631 -3.6389 -0.4744 -1.7947
  256DMF     H6 3560   3.437   2.648   2.552  0.5638 -1.9024  0.9737
  256DMF     H7 3561   3.259   2.859   2.598  0.5103  2.2673  0.4244
  257DMF     C1 3562   1.344   1.423   3.076  0.0980 -0.0118  0.2390
  257DMF     N1 3563   1.241   1.329   3.121  0.1445  0.4472 -0.8057
  257DMF     C2 3564   1.105   1.356   3.060  0.5212  0.1413 -0.1062
  257DMF     C3 3565   1.262   1.214   3.203  0.1947  0.7580  0.1078
  257DMF     O1 3566   1.357   1.199   3.280  0.4454  0.2234 -0.1840
  257DMF     H1 3567   1.447   1.385   3.071  0.1558  0.2226 -0.4392
  257DMF     H2 3568   1.332   1.505   3.147  0.3301 -0.4644  0.8076
  257DMF     H3 3569   1.304   1.444   2.976 -2.2839  0.9714  1.3815
  257DMF     H4 3570   1.083   1.284   2.980  0.8109  1.3710 -1.3008
  257DMF     H5 3571   1.100   1.457   3.019  0.6676  1.3394  2.6876
  257DMF     H6 3572   1.022   1.347   3.132  0.3818  0.6121 -0.2052
  257DMF     H7 3573   1.182   1.138   3.210  0.2159  0.4881 -2.2092
  258DMF     C1 3574   2.646   1.959   2.539  1.0853  0.3132  0.4664
  258DMF     N1 3575   2.772   1.896   2.599  0.4258  0.2863 -0.6574
  258DMF     C2 3576   2.900   1.973   2.622  0.1703 -0.1482 -0.2063
  258DMF     C3 3577   2.767   1.768   2.658 -0.1341 -0.4408  0.1165
  258DMF     O1 3578   2.668   1.694   2.640 -0.0912  0.0365 -0.0616
  258DMF     H1 3579   2.568   1.954   2.616  2.2938 -1.1453  1.6277
  258DMF     H2 3580   2.620   1.907   2.447  0.9166  1.9671 -0.4409
  258DMF     H3 3581   2.660   2.063   2.508 -0.1039  1.1052  2.4723
  258DMF     H4 3582   2.977   1.904   2.584 -2.0565 -0.8129 -3.7457
  258DMF     H5 3583   2.909   1.999   2.728 -1.8929 -0.4693  0.0746
  258DMF     H6 3584   2.899   2.061   2.557 -1.1037  0.0136  0.0165
  258DMF     H7 3585   2.854   1.736   2.717  1.3326  1.5065 -0.9533
  259DMF     C1 3586   2.833   2.471   3.418 -0.2123 -0.1814 -0.5925
  259DMF     N1 3587   2.793   2.400   3.294  0.2850 -0.5109 -0.0450
  259DMF     C2 3588   2.785   2.481   3.167 -0.5667  0.3601 -0.7512
  259DMF     C3 3589   2.794   2.261   3.289  0.2515  0.1753 -0.4465
  259DMF     O1 3590   2.836   2.196   3.385 -0.2636  0.2469 -0.0397
  259DMF     H1 3591   2.850   2.578   3.397 -0.4922 -0.2183 -1.0035
  259DMF     H2 3592   2.895   2.417   3.490 -0.9925  1.1402  1.1116
  259DMF     H3 3593   2.744   2.483   3.482 -0.3004  1.5742 -1.0041
  259DMF     H4 3594   2.706   2.555   3.156 -0.9313 -0.2716 -2.6170
  259DMF     H5 3595   2.788   2.410   3.083  1.2812 -1.9547  1.1879
  259DMF     H6 3596   2.874   2.545   3.166 -1.2270  1.3893  2.3248
  259DMF     H7 3597   2.751   2.217   3.198 -2.2264  3.3091 -0.8795
  260DMF     C1 3598   0.807   3.107   3.067 -0.5144  0.0934 -0.6119
  260DMF     N1 3599   0.675   3.045   3.046  0.0111  0.0318 -0.2032
  260DMF     C2 3600   0.660   2.926   2.959  1.4593  0.2063 -0.2296
  260DMF     C3 3601   0.558   3.102   3.100 -0.4296 -0.4822  0.7751
  260DMF     O1 3602   0.554   3.195   3.178 -0.1666 -0.1440  0.1928
  260DMF     H1 3603   0.843   3.069   3.163  3.1891  1.3604 -1.3946
  260DMF     H2 3604   0.800   3.216   3.060  2.4529  0.2329 -2.9002
  260DMF     H3 3605   0.876   3.069   2.990  1.0261  1.7409 -0.0757
  260DMF     H4 3606   0.588   2.952   2.880  0.6481  0.7743  0.6809
  260DMF     H5 3607   0.632   2.852   3.035  2.3964  1.1925  1.0957
  260DMF     H6 3608   0.755   2.906   2.908  2.4459  1.0838  1.2150
  260DMF     H7 3609   0.469   3.053   3.058 -1.2469  2.2203 -0.7645
  261DMF     C1 3610   1.806   0.456   2.228 -0.2538 -0.5796  0.2845
  261DMF     N1 3611   1.670   0.448   2.268  0.6161  0.0304 -0.7281
  261DMF     C2 3612   1.598   0.574   2.301 -1.0134 -0.2587 -0.3097
  261DMF     C3 3613   1.621   0.317   2.297 -0.2035 -0.0267  0.1896
  261DMF     O1 3614   1.686   0.214   2.271  0.0848  0.1277  0.3445
  261DMF     H1 3615   1.843   0.378   2.160 -0.4185 -0.3936 -0.0178
  261DMF     H2 3616   1.861   0.440   2.322 -0.7379  2.2331  1.1041
  261DMF     H3 3617   1.822   0.551   2.177 -2.8409 -0.4662 -0.3912
  261DMF     H4 3618   1.540   0.607   2.214  2.5748 -0.4727 -2.8695
  261DMF     H5 3619   1.664   0.659   2.322 -0.5889 -0.3982 -1.0577
  261DMF     H6 3620   1.541   0.556   2.393 -1.7960 -2.5351 -1.1889
  261DMF     H7 3621   1.521   0.318   2.344 -0.7961  0.6754 -1.0596
  262DMF     C1 3622   0.485   0.659   0.898 -0.2555 -0.8254  0.2673
  262DMF     N1 3623   0.572   0.579   0.994 -0.6583  0.2896 -0.4539
  262DMF     C2 3624   0.558   0.610   1.139  0.1482  0.4723  0.1127
  262DMF     C3 3625   0.666   0.480   0.951 -0.0387  0.2737  0.1936
  262DMF     O1 3626   0.675   0.438   0.835 -1.0822 -0.6485 -0.0293
  262DMF     H1 3627   0.549   0.689   0.815 -0.8009 -3.7653 -1.2781
  262DMF     H2 3628   0.446   0.754   0.936  0.2704 -1.9122  3.7351
  262DMF     H3 3629   0.405   0.598   0.855 -0.0580 -1.0066  0.1522
  262DMF     H4 3630   0.505   0.704   1.161 -0.0218  0.9415 -2.1221
  262DMF     H5 3631   0.657   0.620   1.185  0.9582 -0.0709 -1.4722
  262DMF     H6 3632   0.505   0.528   1.189 -0.1702  0.3953 -0.3409
  262DMF     H7 3633   0.721   0.430   1.033 -1.2888  0.1175  0.9357
  263DMF     C1 3634   0.350   3.366   2.441 -0.2837  0.0963  0.6527
  263DMF     N1 3635   0.448   3.341   2.328  0.7815  0.6443 -0.0626
  263DMF     C2 3636   0.470   3.453   2.234  0.1781  0.3438  0.3270
  263DMF     C3 3637   0.495   3.212   2.295  0.6564 -0.4541 -0.2424
  263DMF     O1 3638   0.462   3.114   2.364  0.0441  0.1137  0.3213
  263DMF     H1 3639   0.244   3.347   2.417  0.0256 -1.1169  0.2386
  263DMF     H2 3640   0.341   3.474   2.458  0.6742  0.4417 -0.9015
  263DMF     H3 3641   0.382   3.308   2.528 -2.0328  1.0401  1.9581
  263DMF     H4 3642   0.473   3.539   2.302  1.5802 -0.4966  1.3481
  263DMF     H5 3643   0.381   3.477   2.175  1.6419 -0.5594 -2.3321
  263DMF     H6 3644   0.562   3.440   2.176  0.4466  1.2930  0.5410
  263DMF     H7 3645   0.562   3.211   2.207  0.2220  0.3095 -0.5912
  264DMF     C1 3646   2.049   0.260   0.251 -0.4014 -0.4054 -0.3701
  264DMF     N1 3647   2.014   0.301   0.112 -0.7627  0.1274  0.7287
  264DMF     C2 3648   1.933   0.200   0.037  0.4090 -0.4107  0.0754
  264DMF     C3 3649   2.016   0.433   0.072 -0.1709 -0.2339 -0.7662
  264DMF     O1 3650   2.065   0.526   0.142 -0.6444  0.0555  0.8197
  264DMF     H1 3651   1.971   0.296   0.321 -0.6889  1.4053 -1.5904
  264DMF     H2 3652   2.145   0.309   0.273 -0.5698 -0.6232  0.9291
  264DMF     H3 3653   2.059   0.152   0.264 -2.1639 -0.5863 -0.4077
  264DMF     H4 3654   1.918   0.105   0.089 -0.6536 -0.6122 -0.5835
  264DMF     H5 3655   1.990   0.181  -0.055 -0.0022 -0.3334 -0.1960
  264DMF     H6 3656   1.834   0.243   0.018  0.5523  0.3787  1.0815
  264DMF     H7 3657   1.960   0.453  -0.021 -0.8531  0.7976 -0.1526
  265DMF     C1 3658   2.946   3.219   2.444  0.0419 -0.1004  0.1521
  265DMF     N1 3659   3.053   3.196   2.335 -0.1874  0.3445  0.6337
  265DMF     C2 3660   3.111   3.067   2.316 -0.1568  0.9377 -0.6825
  265DMF     C3 3661   3.081   3.296   2.238  0.7675 -0.1851 -0.1395
  265DMF     O1 3662   3.024   3.401   2.241  0.1177 -0.6636 -0.3726
  265DMF     H1 3663   2.913   3.323   2.451  1.1687  0.1374  2.8386
  265DMF     H2 3664   2.978   3.182   2.543  0.6467 -1.4274 -0.5313
  265DMF     H3 3665   2.858   3.159   2.414  0.3168 -0.2757 -0.3033
  265DMF     H4 3666   3.075   3.017   2.225 -2.5416  0.2376  0.6089
  265DMF     H5 3667   3.085   3.005   2.402  0.3303 -0.9796 -1.8916
  265DMF     H6 3668   3.220   3.079   2.317 -0.0096 -0.3416  0.6749
  265DMF     H7 3669   3.163   3.268   2.169  1.8866 -0.2133  1.1960
  266DMF     C1 3670   0.198   1.591   2.233 -0.2607 -0.3345  0.4595
  266DMF     N1 3671   0.108   1.475   2.249  0.5145 -0.0886 -0.0313
  266DMF     C2 3672  -0.034   1.508   2.277 -0.3825  0.4247 -0.2017
  266DMF     C3 3673   0.149   1.346   2.237  0.0286  0.4803  0.9078
  266DMF     O1 3674   0.271   1.326   2.224  0.1936 -0.4869  0.5436
  266DMF     H1 3675   0.203   1.655   2.322  0.8953 -0.1127  0.2398
  266DMF     H2 3676   0.171   1.659   2.151  1.6987 -1.3953 -1.1131
  266DMF     H3 3677   0.297   1.562   2.197 -0.4816 -0.4728 -0.0403
  266DMF     H4 3678  -0.077   1.426   2.336  2.3096 -2.2687 -1.8131
  266DMF     H5 3679  -0.077   1.514   2.176 -0.7745  0.2165 -0.0467
  266DMF     H6 3680  -0.050   1.608   2.320  0.2081 -0.6363  2.5220
  266DMF     H7 3681   0.069   1.270   2.234  2.2065 -1.8826  0.6643
  267DMF     C1 3682   2.202   3.133   3.251  0.6669  0.4679 -0.8965
  267DMF     N1 3683   2.070   3.198   3.250 -0.5749  0.3090 -0.3946
  267DMF     C2 3684   2.002   3.203   3.121  0.1092 -0.7797  0.3580
  267DMF     C3 3685   1.997   3.242   3.366  0.5259  0.1822  0.2983
  267DMF     O1 3686   2.046   3.234   3.480 -0.0610 -0.3025  0.1274
  267DMF     H1 3687   2.204   3.055   3.174 -2.0264  0.2729 -0.8060
  267DMF     H2 3688   2.231   3.090   3.348 -0.8584  1.6532  0.1047
  267DMF     H3 3689   2.282   3.201   3.218  0.4502  0.4499 -1.4573
  267DMF     H4 3690   2.050   3.275   3.054  1.7917  0.0680  2.4263
  267DMF     H5 3691   1.896   3.230   3.129  0.2736  0.1571 -0.4129
  267DMF     H6 3692   1.996   3.104   3.073  1.0736  0.3101 -2.0842
  267DMF     H7 3693   1.900   3.287   3.340  0.1588 -0.9724 -0.3653
  268DMF     C1 3694   2.263   3.181   2.875 -0.2619  0.7203  0.1670
  268DMF     N1 3695   2.339   3.311   2.861 -0.6104 -0.2741  1.1674
  268DMF     C2 3696   2.314   3.391   2.737 -0.6633 -0.2432 -0.1546
  268DMF     C3 3697   2.438   3.360   2.953 -0.4020  0.4326  0.1021
  268DMF     O1 3698   2.455   3.292   3.054  0.3207 -0.4454  0.1862
  268DMF     H1 3699   2.262   3.145   2.978 -1.3397 -0.8194 -0.3639
  268DMF     H2 3700   2.311   3.099   2.821 -0.8898  0.9211 -0.7014
  268DMF     H3 3701   2.159   3.189   2.841  0.2849  0.0772 -1.7064
  268DMF     H4 3702   2.219   3.441   2.760 -0.7224  0.0450 -0.9962
  268DMF     H5 3703   2.315   3.325   2.650 -3.2956 -1.5605  0.7656
  268DMF     H6 3704   2.396   3.463   2.724  0.5541 -1.5892 -0.0244
  268DMF     H7 3705   2.487   3.455   2.926  0.2436 -0.1004 -0.6360
  269DMF     C1 3706   0.326   0.841   2.557 -0.4337 -0.0085 -0.3356
  269DMF     N1 3707   0.299   0.885   2.689 -0.3340 -0.5260  0.8107
  269DMF     C2 3708   0.403   0.861   2.794 -0.1905  0.1853 -0.0900
  269DMF     C3 3709   0.181   0.950   2.729  0.8876 -0.4853  0.0463
  269DMF     O1 3710   0.084   0.959   2.653 -0.4955  0.3635  0.4460
  269DMF     H1 3711   0.329   0.928   2.490  0.4604  0.2717  0.0521
  269DMF     H2 3712   0.251   0.769   2.524  1.5921 -1.3140 -2.2132
  269DMF     H3 3713   0.425   0.795   2.559 -0.6464 -0.4987  3.4003
  269DMF     H4 3714   0.500   0.854   2.743 -0.3276  2.2532 -0.6665
  269DMF     H5 3715   0.385   0.769   2.851  1.0636 -0.1503 -0.2027
  269DMF     H6 3716   0.396   0.952   2.855  0.4790  1.3144 -1.6741
  269DMF     H7 3717   0.189   0.991   2.831 -0.9282  0.7384 -0.2771
  270DMF     C1 3718   0.725   1.755   2.556 -0.5373 -0.2997  0.2703
  270DMF     N1 3719   0.808   1.642   2.618 -0.1738  0.0421  0.1247
  270DMF     C2 3720   0.932   1.674   2.686 -0.0644  0.0277 -0.5961
  270DMF     C3 3721   0.751   1.514   2.608 -0.2628 -0.1356 -0.1088
  270DMF     O1 3722   0.657   1.485   2.534  0.5357  0.2968  0.7815
  270DMF     H1 3723   0.620   1.725   2.570 -0.8363  1.5113  2.2611
  270DMF     H2 3724   0.760   1.764   2.453 -2.9646  0.2787 -0.5471
  270DMF     H3 3725   0.737   1.850   2.609  0.6722  1.7442 -3.5712
  270DMF     H4 3726   0.936   1.640   2.790 -0.9641  1.4020 -0.0919
  270DMF     H5 3727   0.946   1.783   2.686  0.0027  0.0334 -2.2494
  270DMF     H6 3728   1.011   1.630   2.625 -0.6376  0.3750 -1.6070
  270DMF     H7 3729   0.796   1.441   2.678 -2.4700 -1.1711  0.2567
  271DMF     C1 3730   1.256   1.045   2.247  0.0396  0.1127  0.0898
  271DMF     N1 3731   1.328   1.119   2.347  0.1601 -0.6559  0.6391
  271DMF     C2 3732   1.335   1.270   2.333  0.5316  0.5861 -0.4947
  271DMF     C3 3733   1.378   1.056   2.469 -0.3965  0.0391  0.1945
  271DMF     O1 3734   1.368   0.942   2.491  0.5369 -0.6489  0.2311
  271DMF     H1 3735   1.320   0.963   2.213 -0.8817  0.0758 -1.6148
  271DMF     H2 3736   1.234   1.115   2.165 -0.7496  1.5814  1.5153
  271DMF     H3 3737   1.157   1.004   2.272 -0.7767 -1.0430 -4.5414
  271DMF     H4 3738   1.283   1.318   2.249 -0.0268  2.5446  0.9504
  271DMF     H5 3739   1.443   1.288   2.324  1.0257 -1.9136  0.0713
  271DMF     H6 3740   1.306   1.320   2.426 -1.1586 -0.5178 -0.4054
  271DMF     H7 3741   1.431   1.125   2.537 -0.1428 -0.4633  0.5132
  272DMF     C1 3742   2.670   3.359   2.272 -0.5074 -0.1259  0.0794
  272DMF     N1 3743   2.624   3.231   2.327  0.2985  0.2754 -0.0416
  272DMF     C2 3744   2.618   3.112   2.238 -0.2920 -0.0914 -0.0321
  272DMF     C3 3745   2.553   3.229   2.446 -0.0262 -0.5467  0.8086
  272DMF     O1 3746   2.545   3.322   2.527  0.4779 -0.1838  1.0565
  272DMF     H1 3747   2.773   3.354   2.233 -1.1478 -3.7604 -1.4236
  272DMF     H2 3748   2.657   3.439   2.345 -1.0383  1.4683 -1.7234
  272DMF     H3 3749   2.602   3.387   2.190  1.1619 -3.3709 -2.5678
  272DMF     H4 3750   2.707   3.093   2.176 -0.0908  1.9747 -0.3985
  272DMF     H5 3751   2.529   3.137   2.180 -0.6364 -0.1687  0.4623
  272DMF     H6 3752   2.605   3.027   2.307  1.6360 -0.8409 -0.5580
  272DMF     H7 3753   2.495   3.137   2.463 -3.1640  1.1171 -0.5024
  273DMF     C1 3754   0.699   2.581   2.527 -0.4278  0.1438 -1.3045
  273DMF     N1 3755   0.816   2.507   2.486 -0.2653 -0.3384  0.3718
  273DMF     C2 3756   0.943   2.527   2.557 -0.4785 -0.9063  0.0077
  273DMF     C3 3757   0.809   2.422   2.374  0.7046  0.2845  0.0137
  273DMF     O1 3758   0.708   2.419   2.309 -0.3902 -0.1421 -0.6343
  273DMF     H1 3759   0.694   2.675   2.470  3.3887  1.8354  0.9189
  273DMF     H2 3760   0.708   2.599   2.635 -1.5932  0.2176 -1.2096
  273DMF     H3 3761   0.612   2.517   2.512 -0.6652  0.3826 -0.9785
  273DMF     H4 3762   0.939   2.480   2.656 -1.8581 -1.4599 -0.3068
  273DMF     H5 3763   0.972   2.632   2.570  4.2771 -2.1882  0.8487
  273DMF     H6 3764   1.030   2.481   2.509  0.8479  0.4252  1.0603
  273DMF     H7 3765   0.897   2.360   2.347 -0.7343 -0.0783 -4.0796
  274DMF     C1 3766   3.379   3.254   3.077  0.1516  0.1466  0.2297
  274DMF     N1 3767   3.525   3.253   3.098 -0.1473 -0.4511 -0.3390
  274DMF     C2 3768   3.615   3.329   3.007 -0.0695  0.1824 -0.9353
  274DMF     C3 3769   3.580   3.182   3.212 -0.4425  1.0017 -0.5610
  274DMF     O1 3770   3.511   3.139   3.300 -0.9982  0.0163  0.2258
  274DMF     H1 3771   3.313   3.250   3.165 -1.7830  0.7497 -1.1688
  274DMF     H2 3772   3.355   3.170   3.011 -0.2105  1.0223 -0.7503
  274DMF     H3 3773   3.359   3.351   3.031  0.6042 -1.0225 -2.5339
  274DMF     H4 3774   3.562   3.367   2.920 -1.6724 -0.4584 -0.2602
  274DMF     H5 3775   3.696   3.265   2.970 -0.3149 -0.2425 -0.7579
  274DMF     H6 3776   3.669   3.409   3.059 -0.4397  0.5979 -1.1914
  274DMF     H7 3777   3.690   3.171   3.211 -0.6528 -1.2948 -0.1951
  275DMF     C1 3778   0.370   1.977   2.977  0.1170  0.2926 -0.2962
  275DMF     N1 3779   0.267   2.075   3.015 -0.2075  0.1087  0.1374
  275DMF     C2 3780   0.131   2.044   2.975  0.8209 -0.3225 -0.1473
  275DMF     C3 3781   0.295   2.204   3.081  0.4772  0.9316  0.9429
  275DMF     O1 3782   0.406   2.238   3.113  0.4776  0.6174  0.1009
  275DMF     H1 3783   0.346   1.937   2.878 -0.1567  0.0005 -0.1150
  275DMF     H2 3784   0.372   1.896   3.051  1.1555 -1.8453 -2.5779
  275DMF     H3 3785   0.473   2.013   2.980 -0.3778  1.6594  0.5753
  275DMF     H4 3786   0.095   1.951   3.020  0.7372  0.0895  0.6329
  275DMF     H5 3787   0.120   2.041   2.866  0.9899 -2.8443 -0.1363
  275DMF     H6 3788   0.070   2.126   3.014  0.8786 -0.1067 -0.5097
  275DMF     H7 3789   0.205   2.266   3.095 -0.7014 -0.0780 -1.8028
  276DMF     C1 3790   2.601   0.122   1.508 -0.3452  0.0801  0.1112
  276DMF     N1 3791   2.508   0.225   1.557 -0.5511  0.2876 -0.4512
  276DMF     C2 3792   2.370   0.175   1.584  0.3483  0.6119 -0.6402
  276DMF     C3 3793   2.556   0.350   1.596 -0.1869  0.2776  0.0197
  276DMF     O1 3794   2.671   0.390   1.589 -0.7643 -0.1844  0.9422
  276DMF     H1 3795   2.589   0.112   1.400 -1.2587  0.9102  0.1344
  276DMF     H2 3796   2.571   0.026   1.552  0.0232  0.4170  1.1056
  276DMF     H3 3797   2.704   0.149   1.533  0.0452 -0.8203 -0.4864
  276DMF     H4 3798   2.303   0.261   1.598 -1.1642 -0.3642 -1.7738
  276DMF     H5 3799   2.364   0.115   1.675 -0.0907  1.7886  0.1236
  276DMF     H6 3800   2.332   0.109   1.505  0.3736  0.9273 -0.9202
  276DMF     H7 3801   2.471   0.414   1.627  0.2395  1.0990 -0.4851
  277DMF     C1 3802   3.280   0.351   2.601 -0.3187  0.7933  0.0557
  277DMF     N1 3803   3.185   0.460   2.579 -0.3735  0.2212  0.9121
  277DMF     C2 3804   3.236   0.589   2.532  0.1822  0.0698  0.1284
  277DMF     C3 3805   3.057   0.439   2.612 -0.3838 -0.2290 -0.2048
  277DMF     O1 3806   3.006   0.332   2.636  0.5903 -0.0501  0.3859
  277DMF     H1 3807   3.376   0.393   2.569 -0.1714  0.0945 -0.4475
  277DMF     H2 3808   3.250   0.262   2.544  1.8748  0.2942 -0.3509
  277DMF     H3 3809   3.273   0.331   2.709 -0.4386 -0.5594 -0.1878
  277DMF     H4 3810   3.322   0.581   2.464 -0.3324 -1.7960 -0.3371
  277DMF     H5 3811   3.260   0.654   2.617 -0.2207 -2.0775  1.9095
  277DMF     H6 3812   3.165   0.636   2.462 -1.8278 -1.4244  1.1148
  277DMF     H7 3813   3.001   0.535   2.612 -0.7325 -0.3755  3.7883
  278DMF     C1 3814   0.453   1.542   2.975  0.1545  0.6909  0.2268
  278DMF     N1 3815   0.524   1.508   3.090 -0.0088 -0.6366  0.1700
  278DMF     C2 3816   0.481   1.561   3.219  0.0328  0.8695  0.0616
  278DMF     C3 3817   0.634   1.427   3.088 -0.3818  0.6665  0.1761
  278DMF     O1 3818   0.673   1.381   2.981 -0.1546 -0.2060 -0.0844
  278DMF     H1 3819   0.515   1.572   2.890  1.2938 -0.2929  0.7019
  278DMF     H2 3820   0.376   1.619   2.988 -2.5815 -1.6860 -1.4035
  278DMF     H3 3821   0.402   1.448   2.952  1.9284  0.2164 -1.8946
  278DMF     H4 3822   0.387   1.521   3.258  0.8448 -0.9025  0.2188
  278DMF     H5 3823   0.470   1.670   3.208 -0.1971  0.8439  0.0325
  278DMF     H6 3824   0.546   1.528   3.301 -0.8773  1.4922  1.0621
  278DMF     H7 3825   0.685   1.412   3.185  1.3198 -2.6537 -1.1333
  279DMF     C1 3826   3.077   1.268   2.686 -0.0524 -0.6506  0.4334
  279DMF     N1 3827   3.228   1.258   2.676  0.0660  0.4085 -0.5400
  279DMF     C2 3828   3.316   1.274   2.805 -0.2652 -0.0544  0.3202
  279DMF     C3 3829   3.304   1.233   2.550 -0.2124 -1.1095  0.2047
  279DMF     O1 3830   3.246   1.228   2.443  0.3105 -0.0662 -0.5102
  279DMF     H1 3831   3.025   1.177   2.720  1.5013 -2.1698 -1.1588
  279DMF     H2 3832   3.027   1.280   2.588 -0.3063 -0.8723  0.5339
  279DMF     H3 3833   3.053   1.353   2.750  0.9979 -0.6810  0.8646
  279DMF     H4 3834   3.349   1.378   2.807 -1.9620  0.4874  0.3393
  279DMF     H5 3835   3.401   1.204   2.801  0.9485  1.5116 -2.9077
  279DMF     H6 3836   3.256   1.250   2.894  0.4395  1.8854  1.3533
  279DMF     H7 3837   3.414   1.228   2.561 -0.3443 -1.3100  1.5670
  280DMF     C1 3838   3.067   3.363   0.384 -0.3771  0.2616  0.1001
  280DMF     N1 3839   3.087   3.224   0.355  0.4217  0.0234  0.2685
  280DMF     C2 3840   3.220   3.184   0.316 -0.2472  0.2220  0.1598
  280DMF     C3 3841   2.985   3.125   0.369  0.3136 -0.0903  0.0491
  280DMF     O1 3842   2.874   3.147   0.408  0.1024  0.5267  1.0433
  280DMF     H1 3843   3.012   3.367   0.479 -2.0344 -0.9436 -0.7818
  280DMF     H2 3844   3.014   3.410   0.301 -0.4542  1.0008  0.5645
  280DMF     H3 3845   3.163   3.416   0.392  1.5867 -2.7898 -2.2261
  280DMF     H4 3846   3.227   3.170   0.208 -1.9214 -0.0257  0.0690
  280DMF     H5 3847   3.248   3.096   0.375 -0.7493  0.2006  0.3697
  280DMF     H6 3848   3.293   3.263   0.337 -0.3935 -0.0124  1.5980
  280DMF     H7 3849   3.025   3.023   0.350 -1.0508 -0.8249  1.0597
  281DMF     C1 3850   0.415   2.518   2.241 -0.0261  0.7695 -0.0366
  281DMF     N1 3851   0.398   2.644   2.320 -0.2537 -0.2505 -0.6319
  281DMF     C2 3852   0.464   2.766   2.271 -0.0336  0.5132 -0.0682
  281DMF     C3 3853   0.339   2.630   2.445  0.9820 -0.0692 -0.1534
  281DMF     O1 3854   0.279   2.526   2.475  0.3219  0.5624  0.2988
  281DMF     H1 3855   0.329   2.495   2.178 -0.1336  1.4175 -0.1378
  281DMF     H2 3856   0.425   2.426   2.300  0.0904  0.5294 -0.4304
  281DMF     H3 3857   0.502   2.523   2.173 -0.8852 -1.5055 -1.3478
  281DMF     H4 3858   0.515   2.741   2.177  0.1550 -1.1424  0.4526
  281DMF     H5 3859   0.523   2.815   2.349 -0.1821 -0.7664  0.8755
  281DMF     H6 3860   0.398   2.836   2.217 -0.1597 -0.2511 -0.9150
  281DMF     H7 3861   0.351   2.730   2.491 -1.0208 -0.0107  0.2762
  282DMF     C1 3862   1.218   3.091   2.825 -0.7485 -0.2058 -0.2845
  282DMF     N1 3863   1.293   3.074   2.959  0.7869 -0.1738 -0.1019
  282DMF     C2 3864   1.424   3.145   2.981 -0.7041  0.1760 -0.0323
  282DMF     C3 3865   1.258   2.978   3.051 -0.4669 -0.1695 -0.2947
  282DMF     O1 3866   1.156   2.917   3.038  0.7210  0.2220 -0.2920
  282DMF     H1 3867   1.195   2.987   2.799 -0.4313 -0.4195  0.2811
  282DMF     H2 3868   1.282   3.133   2.747 -2.0469  0.5232 -0.9721
  282DMF     H3 3869   1.124   3.147   2.835 -1.6021 -1.4902 -0.8714
  282DMF     H4 3870   1.432   3.219   2.900  0.5577  0.3646  0.2581
  282DMF     H5 3871   1.510   3.078   2.970 -0.2972  0.4505  1.4018
  282DMF     H6 3872   1.431   3.188   3.081  2.5465  0.3115 -0.2754
  282DMF     H7 3873   1.320   2.968   3.143 -2.2227 -1.7558  0.7528
  283DMF     C1 3874   1.147   1.598   2.239  0.3319  0.1571 -1.0634
  283DMF     N1 3875   1.119   1.742   2.227 -0.8707 -0.3102  0.2110
  283DMF     C2 3876   0.984   1.792   2.252 -0.6322  0.1252  0.2063
  283DMF     C3 3877   1.223   1.838   2.225  0.7961 -0.6268  0.9538
  283DMF     O1 3878   1.340   1.812   2.229  0.2531  1.0715  0.0146
  283DMF     H1 3879   1.217   1.586   2.323  0.1678  1.7023 -0.6895
  283DMF     H2 3880   1.183   1.568   2.140  0.9071  0.3244 -0.9057
  283DMF     H3 3881   1.054   1.543   2.260 -0.8210  1.6885 -2.0795
  283DMF     H4 3882   0.948   1.745   2.345 -1.4263  1.0988  0.4015
  283DMF     H5 3883   0.914   1.751   2.179 -1.3779  2.0245 -0.1820
  283DMF     H6 3884   0.975   1.901   2.260  0.6053  0.1630  1.2995
  283DMF     H7 3885   1.184   1.941   2.216 -0.0651 -1.0695 -0.6738
  284DMF     C1 3886   3.266   0.203   0.597  1.4993 -0.8183 -0.1459
  284DMF     N1 3887   3.325   0.233   0.465 -0.6425  0.7424 -0.1700
  284DMF     C2 3888   3.414   0.131   0.406 -0.1763  0.1930 -0.1216
  284DMF     C3 3889   3.292   0.355   0.400 -1.1027  0.3833 -0.0299
  284DMF     O1 3890   3.217   0.436   0.442  0.0225 -0.4261  0.6248
  284DMF     H1 3891   3.342   0.151   0.657  1.4500 -1.7667 -0.8900
  284DMF     H2 3892   3.168   0.154   0.585  0.8413  0.8947 -1.8578
  284DMF     H3 3893   3.255   0.292   0.659  1.1249 -0.9710  0.0119
  284DMF     H4 3894   3.367   0.033   0.392 -0.0197  0.2530 -1.0815
  284DMF     H5 3895   3.502   0.114   0.469  0.9261 -1.2424 -1.9913
  284DMF     H6 3896   3.449   0.171   0.310  1.7515 -0.9434  0.0870
  284DMF     H7 3897   3.342   0.371   0.302  0.9773  2.0190  1.2391
  285DMF     C1 3898   1.606   0.933   2.232  0.4186  0.0443 -0.4267
  285DMF     N1 3899   1.733   0.999   2.239  0.0950 -0.2610  0.0391
  285DMF     C2 3900   1.734   1.145   2.253 -0.3508  0.3146  0.2228
  285DMF     C3 3901   1.850   0.924   2.260 -0.1894 -0.3423 -0.4783
  285DMF     O1 3902   1.850   0.803   2.267  0.3356 -0.3358  0.5599
  285DMF     H1 3903   1.619   0.846   2.166 -0.9360  1.0111 -2.0232
  285DMF     H2 3904   1.529   0.995   2.183 -1.0922 -1.1303  0.4081
  285DMF     H3 3905   1.581   0.902   2.334 -2.6245  2.3094 -0.4089
  285DMF     H4 3906   1.645   1.199   2.289 -1.6993 -0.3317 -2.0169
  285DMF     H5 3907   1.745   1.171   2.147 -1.0770 -0.6494 -0.1070
  285DMF     H6 3908   1.822   1.191   2.299 -0.9290  1.1138  0.5303
  285DMF     H7 3909   1.940   0.985   2.279  0.3946 -1.6405  1.0420
  286DMF     C1 3910   2.890   2.450   2.565 -0.2522 -0.0949 -0.4161
  286DMF     N1 3911   2.998   2.437   2.658  0.0149  0.4701 -0.1248
  286DMF     C2 3912   3.045   2.297   2.688  0.4506 -0.4477 -0.6035
  286DMF     C3 3913   3.060   2.547   2.722  0.0852  0.3958  0.0397
  286DMF     O1 3914   3.019   2.665   2.716 -0.1281  0.9995 -0.6395
  286DMF     H1 3915   2.793   2.474   2.611 -1.2230 -2.2184 -1.3090
  286DMF     H2 3916   2.864   2.352   2.524 -1.8708  0.3598 -0.5150
  286DMF     H3 3917   2.914   2.519   2.484 -2.6690  1.7167  0.3409
  286DMF     H4 3918   3.097   2.251   2.602 -1.0681 -0.9206 -1.2921
  286DMF     H5 3919   2.956   2.234   2.702  1.7480 -1.5510  2.9528
  286DMF     H6 3920   3.109   2.304   2.776 -1.8488 -0.4203  1.1235
  286DMF     H7 3921   3.142   2.513   2.789 -0.9677 -2.1960  0.0621
  287DMF     C1 3922   1.955   1.803   0.161  0.1961  0.0006 -0.4936
  287DMF     N1 3923   1.876   1.721   0.069 -0.6211 -0.2817  0.4438
  287DMF     C2 3924   1.806   1.597   0.113  0.3879  0.0198 -0.2641
  287DMF     C3 3925   1.879   1.758  -0.068 -0.2517  0.0001 -0.3240
  287DMF     O1 3926   1.937   1.859  -0.107 -0.2865  0.2232  0.3167
  287DMF     H1 3927   2.057   1.813   0.123  0.9710  1.0258  1.8047
  287DMF     H2 3928   1.953   1.776   0.267  2.0825 -0.5971 -0.5981
  287DMF     H3 3929   1.905   1.901   0.158 -0.3981 -0.2378  1.1641
  287DMF     H4 3930   1.721   1.614   0.180 -0.7309 -0.1697 -1.5972
  287DMF     H5 3931   1.874   1.522   0.156 -0.7923 -1.4669 -0.9277
  287DMF     H6 3932   1.767   1.542   0.026 -0.9755  0.4706  0.0446
  287DMF     H7 3933   1.832   1.690  -0.142  0.3429 -0.4340 -0.3104
  288DMF     C1 3934   2.771   3.151   2.752  0.3307  0.0719 -0.0607
  288DMF     N1 3935   2.860   3.041   2.721  0.1627  0.2218  0.2009
  288DMF     C2 3936   2.994   3.047   2.777 -0.5727  0.4420 -0.4229
  288DMF     C3 3937   2.814   2.939   2.635  0.0080  0.0588 -0.2290
  288DMF     O1 3938   2.710   2.944   2.568 -0.1082 -0.0912  0.1845
  288DMF     H1 3939   2.685   3.117   2.810 -0.9696  0.3068 -1.7963
  288DMF     H2 3940   2.732   3.194   2.659  1.9136  1.1500 -0.2604
  288DMF     H3 3941   2.821   3.235   2.802 -2.5466  0.9021  1.4889
  288DMF     H4 3942   3.071   3.035   2.699 -0.3265  0.1625 -0.1360
  288DMF     H5 3943   2.992   2.971   2.856 -0.5453 -0.4490 -1.2774
  288DMF     H6 3944   3.019   3.147   2.814  1.3262  0.1539 -0.8911
  288DMF     H7 3945   2.882   2.852   2.644  0.9797  0.9079  0.7075
  289DMF     C1 3946   1.700   0.270   2.635  0.4176 -0.0839  0.2308
  289DMF     N1 3947   1.823   0.321   2.697  0.5720 -0.1436  1.1736
  289DMF     C2 3948   1.960   0.294   2.643  0.1185  0.4906 -0.3202
  289DMF     C3 3949   1.812   0.419   2.796  0.3051  0.5262 -0.1223
  289DMF     O1 3950   1.704   0.467   2.828 -0.3339  0.0161 -0.3231
  289DMF     H1 3951   1.641   0.343   2.579 -2.3727 -1.5577  1.1554
  289DMF     H2 3952   1.632   0.218   2.703 -1.0863 -1.0832 -1.9502
  289DMF     H3 3953   1.742   0.193   2.568  1.4054 -0.0407  0.7899
  289DMF     H4 3954   2.019   0.272   2.733  0.0536  1.6097  0.0116
  289DMF     H5 3955   2.010   0.384   2.606  4.0387 -0.6106  2.0361
  289DMF     H6 3956   1.971   0.203   2.583 -2.3324 -1.9939  2.8317
  289DMF     H7 3957   1.909   0.463   2.826  0.5683 -0.5386  0.5987
  290DMF     C1 3958   1.647   0.099   3.325 -0.0912 -0.1615 -0.5685
  290DMF     N1 3959   1.694   0.178   3.211 -0.0057 -0.6102 -0.3822
  290DMF     C2 3960   1.624   0.309   3.166  0.0105  0.1794 -0.5029
  290DMF     C3 3961   1.802   0.134   3.141 -0.0952 -1.0993  0.0728
  290DMF     O1 3962   1.861   0.034   3.172  0.8534  0.5379  0.7741
  290DMF     H1 3963   1.670  -0.008   3.327  0.2539 -0.0730  1.3165
  290DMF     H2 3964   1.539   0.110   3.311  0.1413 -0.8621 -3.0168
  290DMF     H3 3965   1.684   0.146   3.417  0.0046  2.5963 -1.9492
  290DMF     H4 3966   1.632   0.372   3.255  0.5308 -0.6430  0.0389
  290DMF     H5 3967   1.516   0.300   3.146 -0.2699 -1.3713  1.5336
  290DMF     H6 3968   1.682   0.358   3.087 -0.6113  0.8930 -0.5186
  290DMF     H7 3969   1.829   0.197   3.055  3.2312 -0.4673  1.5080
  291DMF     C1 3970   1.341   3.331   3.320  0.2313  0.0565 -0.8747
  291DMF     N1 3971   1.397   3.313   3.454 -0.5618  0.5419 -0.2424
  291DMF     C2 3972   1.402   3.428   3.545  0.4965 -0.6879 -0.7143
  291DMF     C3 3973   1.442   3.181   3.496 -0.3528  0.3483  0.1671
  291DMF     O1 3974   1.415   3.080   3.431  0.4599  0.0473  0.2125
  291DMF     H1 3975   1.255   3.400   3.317 -1.0312 -1.5485 -2.9269
  291DMF     H2 3976   1.309   3.239   3.271  2.2460  0.2061 -2.4937
  291DMF     H3 3977   1.411   3.377   3.250 -0.8076  1.9313 -0.7302
  291DMF     H4 3978   1.505   3.459   3.566 -0.2541  0.8242  0.7594
  291DMF     H5 3979   1.340   3.407   3.633  1.7234 -0.4944  0.2097
  291DMF     H6 3980   1.351   3.514   3.500 -0.6024 -0.2129  1.3844
  291DMF     H7 3981   1.476   3.177   3.601 -2.9578  0.2531  1.0459
  292DMF     C1 3982   1.148   0.942   1.251  0.1800 -0.1594 -0.0754
  292DMF     N1 3983   1.201   0.964   1.112  0.4157  0.0911  0.1463
  292DMF     C2 3984   1.269   0.856   1.048  0.0501 -0.4867 -0.4587
  292DMF     C3 3985   1.194   1.088   1.044 -0.5132  0.4798 -0.5757
  292DMF     O1 3986   1.158   1.189   1.097 -0.0344  0.1997  0.0511
  292DMF     H1 3987   1.119   1.040   1.291 -1.3298 -0.4237 -0.4600
  292DMF     H2 3988   1.216   0.878   1.308  2.0577  1.7321 -0.1240
  292DMF     H3 3989   1.054   0.884   1.248  0.9295 -1.3829 -0.1765
  292DMF     H4 3990   1.370   0.865   1.091 -0.0602  3.2235 -0.7988
  292DMF     H5 3991   1.282   0.866   0.939  0.7721  3.9677 -0.0407
  292DMF     H6 3992   1.239   0.757   1.084  0.5650  0.4885  2.8133
  292DMF     H7 3993   1.229   1.081   0.940  1.3290 -1.3907  0.1296
  293DMF     C1 3994   2.778   2.470   0.054 -0.7475 -0.7430 -0.1973
  293DMF     N1 3995   2.747   2.579  -0.042 -0.7946 -0.4935 -0.3871
  293DMF     C2 3996   2.861   2.674  -0.082  0.2246 -0.4264 -0.1489
  293DMF     C3 3997   2.617   2.621  -0.078  0.3133 -0.4628 -0.5038
  293DMF     O1 3998   2.515   2.570  -0.030 -0.0106 -0.0455  0.2097
  293DMF     H1 3999   2.760   2.504   0.157  2.2416  0.7720 -0.1375
  293DMF     H2 4000   2.886   2.455   0.044 -0.8270 -0.9673 -0.7684
  293DMF     H3 4001   2.726   2.378   0.025 -0.4775 -0.8682 -0.2905
  293DMF     H4 4002   2.943   2.611  -0.117 -0.0328  0.0724 -1.6758
  293DMF     H5 4003   2.900   2.745  -0.007 -1.7074  1.8582 -1.2632
  293DMF     H6 4004   2.837   2.738  -0.167  1.7631 -1.1653 -1.1666
  293DMF     H7 4005   2.601   2.703  -0.149 -0.5512  0.5433  0.8238
  294DMF     C1 4006   3.367   0.045   0.036  0.1947  0.0386  0.3468
  294DMF     N1 4007   3.227   0.031   0.014  0.0804  0.0116  0.0287
  294DMF     C2 4008   3.178  -0.098  -0.044 -0.0848  0.5995  0.0984
  294DMF     C3 4009   3.137   0.125   0.067  0.1939  0.6222 -0.4269
  294DMF     O1 4010   3.167   0.222   0.128 -0.3727 -0.3147 -0.0186
  294DMF     H1 4011   3.399   0.023   0.139 -1.0491 -1.3765  0.4610
  294DMF     H2 4012   3.397   0.147   0.009 -0.5938 -0.0764 -1.0251
  294DMF     H3 4013   3.415  -0.010  -0.045 -1.9481 -1.7742  0.2505
  294DMF     H4 4014   3.075  -0.120  -0.013 -0.7441 -0.5451 -2.8095
  294DMF     H5 4015   3.236  -0.186  -0.016 -0.6657  0.8401  2.1537
  294DMF     H6 4016   3.191  -0.094  -0.153  0.5622 -0.8459  0.1093
  294DMF     H7 4017   3.034   0.102   0.034  0.2133  0.8281 -0.6317
  295DMF     C1 4018   3.087   0.367   3.625  0.0999 -0.0912  0.1567
  295DMF     N1 4019   3.063   0.399   3.491  0.2618  0.5247 -0.2694
  295DMF     C2 4020   2.965   0.310   3.421  0.2630  0.5530 -0.0183
  295DMF     C3 4021   3.158   0.464   3.414  0.5000  0.4485 -0.6847
  295DMF     O1 4022   3.269   0.495   3.457  0.6123 -0.5796  0.1812
  295DMF     H1 4023   3.192   0.340   3.642  0.3493  0.2956 -0.7255
  295DMF     H2 4024   3.019   0.292   3.667  0.5662 -0.6558 -0.1050
  295DMF     H3 4025   3.071   0.458   3.684 -0.1494  1.0829 -1.6729
  295DMF     H4 4026   2.874   0.312   3.481 -0.9292  2.2355 -1.8095
  295DMF     H5 4027   2.994   0.204   3.421 -0.0703  0.4616 -0.0347
  295DMF     H6 4028   2.941   0.343   3.319 -0.9104 -0.2318  0.0051
  295DMF     H7 4029   3.123   0.477   3.310  0.4276  1.1771 -0.5713
  296DMF     C1 4030   2.380   0.974   3.083  0.7578  0.8737  0.6903
  296DMF     N1 4031   2.338   0.931   3.216  0.3376  0.6865 -0.8643
  296DMF     C2 4032   2.297   1.033   3.308  0.0832 -0.2204 -0.4282
  296DMF     C3 4033   2.320   0.794   3.247 -0.1515 -0.0655 -0.4212
  296DMF     O1 4034   2.344   0.706   3.168 -0.1300 -0.1356  0.1051
  296DMF     H1 4035   2.385   0.886   3.019  3.6773  1.0128  0.6632
  296DMF     H2 4036   2.474   1.030   3.076 -0.0958  2.5324  1.8842
  296DMF     H3 4037   2.301   1.038   3.042 -0.3766 -0.3201  0.9658
  296DMF     H4 4038   2.193   1.065   3.296 -1.3310 -4.1766  0.7319
  296DMF     H5 4039   2.353   1.126   3.291  0.3155 -0.2573  0.1302
  296DMF     H6 4040   2.307   0.992   3.409 -0.6232  0.8106  0.0687
  296DMF     H7 4041   2.274   0.780   3.346  0.0284  1.8606 -0.0422
  297DMF     C1 4042   0.322   1.835   2.586  1.0904  0.9988 -0.0725
  297DMF     N1 4043   0.291   1.702   2.653  0.9785 -0.0459 -0.2933
  297DMF     C2 4044   0.361   1.583   2.594  0.5239 -0.3266  0.0909
  297DMF     C3 4045   0.201   1.683   2.764  0.3955  0.0942 -0.1091
  297DMF     O1 4046   0.159   1.774   2.837  0.1142 -0.3032  1.0187
  297DMF     H1 4047   0.416   1.860   2.637  0.1199  0.8326  1.8562
  297DMF     H2 4048   0.253   1.916   2.610  0.0810  0.2450 -0.4241
  297DMF     H3 4049   0.338   1.827   2.478  0.1139  1.6157 -0.2635
  297DMF     H4 4050   0.282   1.508   2.592 -0.4615  0.6756  0.4617
  297DMF     H5 4051   0.453   1.557   2.647  1.3291 -1.9130 -2.0591
  297DMF     H6 4052   0.392   1.606   2.492  0.4880  0.1658  0.1858
  297DMF     H7 4053   0.168   1.578   2.773 -0.0202  0.1954 -0.4679
  298DMF     C1 4054   2.065   3.434   2.284  0.9658  0.8016  0.3084
  298DMF     N1 4055   2.196   3.507   2.287 -1.2330 -0.3674  0.2334
  298DMF     C2 4056   2.184   3.651   2.318  0.3169 -0.0280  0.0333
  298DMF     C3 4057   2.319   3.441   2.236  0.1459 -0.3313  0.9706
  298DMF     O1 4058   2.326   3.329   2.198 -0.5556  0.5372  0.3518
  298DMF     H1 4059   2.005   3.447   2.194 -2.4055  1.2138  2.5533
  298DMF     H2 4060   2.000   3.474   2.363 -0.8052 -1.0881 -0.1687
  298DMF     H3 4061   2.081   3.327   2.305 -1.6774  0.4631  0.7236
  298DMF     H4 4062   2.221   3.680   2.417  0.8709 -0.8207  0.0642
  298DMF     H5 4063   2.084   3.683   2.286  0.5695 -1.2218 -2.0530
  298DMF     H6 4064   2.243   3.702   2.240  0.0366  1.1696  0.5808
  298DMF     H7 4065   2.402   3.514   2.233 -0.5730  0.4276 -1.3923
  299DMF     C1 4066   2.271   3.019   0.110  0.3258 -1.0155 -0.4346
  299DMF     N1 4067   2.295   2.946  -0.016  0.3427  0.2780  0.1229
  299DMF     C2 4068   2.201   2.964  -0.126  0.2996 -0.0558  0.2518
  299DMF     C3 4069   2.419   2.887  -0.032  0.5151  0.3081  0.0363
  299DMF     O1 4070   2.516   2.899   0.042  0.5585  0.2034 -0.2106
  299DMF     H1 4071   2.319   3.117   0.099 -1.5001 -0.2829 -2.1849
  299DMF     H2 4072   2.318   2.966   0.194  0.3693  1.5409  1.2091
  299DMF     H3 4073   2.163   3.026   0.127  0.4551 -1.6945  0.7027
  299DMF     H4 4074   2.199   3.067  -0.163  0.6856 -0.4655 -0.9235
  299DMF     H5 4075   2.101   2.948  -0.084  0.5103 -1.9733  0.0822
  299DMF     H6 4076   2.222   2.890  -0.204 -0.2832  0.4789 -0.4133
  299DMF     H7 4077   2.422   2.823  -0.122 -0.9292 -0.1684  0.3019
  300DMF     C1 4078   1.746   1.827   2.935 -0.1285  0.1265  0.2594
  300DMF     N1 4079   1.733   1.701   2.856  0.5815  0.9541 -0.1060
  300DMF     C2 4080   1.837   1.657   2.761 -0.1467  0.0685  0.2763
  300DMF     C3 4081   1.614   1.623   2.873 -0.1214 -0.3327 -0.2910
  300DMF     O1 4082   1.520   1.658   2.941  0.7885 -0.6276  0.8281
  300DMF     H1 4083   1.817   1.823   3.019 -0.3235 -1.3284  0.3533
  300DMF     H2 4084   1.650   1.858   2.978 -0.8968 -1.6724 -0.1527
  300DMF     H3 4085   1.778   1.912   2.873 -1.8122  0.5612 -0.0464
  300DMF     H4 4086   1.913   1.597   2.814 -0.0392  1.1263  1.3579
  300DMF     H5 4087   1.893   1.738   2.713  0.7841 -0.4906  0.3864
  300DMF     H6 4088   1.790   1.595   2.684  0.6517 -1.7727  1.2303
  300DMF     H7 4089   1.613   1.524   2.824 -0.0486 -0.0456 -0.8864
  301DMF     C1 4090   0.492   1.551   3.572  0.3515 -0.1184  0.5633
  301DMF     N1 4091   0.489   1.617   3.701 -0.2623 -1.0806  0.3052
  301DMF     C2 4092   0.620   1.667   3.754 -0.2237  0.1261 -0.4184
  301DMF     C3 4093   0.371   1.650   3.779  0.2264 -0.1037  0.2702
  301DMF     O1 4094   0.263   1.611   3.740  0.0011 -0.6027 -0.4168
  301DMF     H1 4095   0.396   1.506   3.544  1.1565 -1.8766  0.5509
  301DMF     H2 4096   0.566   1.470   3.580  1.6065  1.0161  0.5560
  301DMF     H3 4097   0.533   1.621   3.499 -4.0956  0.5152 -1.4922
  301DMF     H4 4098   0.605   1.733   3.840  0.0648  0.8722 -0.9271
  301DMF     H5 4099   0.687   1.712   3.680  1.6227  1.5343  2.0179
  301DMF     H6 4100   0.669   1.581   3.801  1.3962 -0.5087 -3.1610
  301DMF     H7 4101   0.386   1.720   3.863 -2.9652  0.3714  0.5062
  302DMF     C1 4102   1.746   1.199   2.721 -0.2602  0.8843 -0.0451
  302DMF     N1 4103   1.730   1.229   2.866  0.1119 -0.4328 -0.2464
  302DMF     C2 4104   1.852   1.253   2.948  0.1264  0.2622  0.7236
  302DMF     C3 4105   1.603   1.251   2.920 -0.3679  0.2643 -0.1905
  302DMF     O1 4106   1.506   1.259   2.843  0.0533 -0.1004  0.4398
  302DMF     H1 4107   1.760   1.093   2.700 -3.8413  0.0859  1.2696
  302DMF     H2 4108   1.839   1.248   2.689  0.7145  0.4850  2.0403
  302DMF     H3 4109   1.662   1.224   2.656 -0.8539 -0.2002  0.2960
  302DMF     H4 4110   1.924   1.170   2.939 -0.1344  0.2657 -1.9047
  302DMF     H5 4111   1.832   1.243   3.055 -1.7130  2.7120  0.6543
  302DMF     H6 4112   1.893   1.353   2.928  3.4143 -1.0841  0.3998
  302DMF     H7 4113   1.601   1.251   3.030 -0.2293  1.9048 -0.1812
  303DMF     C1 4114   0.674   1.733   0.581 -0.3065  0.2218  0.1172
  303DMF     N1 4115   0.663   1.871   0.564  0.3695 -0.0907 -0.0194
  303DMF     C2 4116   0.678   1.947   0.688  0.7113  0.6558 -0.4249
  303DMF     C3 4117   0.635   1.940   0.450  0.1008 -0.3247 -0.1641
  303DMF     O1 4118   0.631   1.880   0.340  0.1012  0.1010 -0.5338
  303DMF     H1 4119   0.775   1.714   0.618  0.9984  0.9773 -2.9182
  303DMF     H2 4120   0.659   1.694   0.480  2.8147 -1.6718  0.3110
  303DMF     H3 4121   0.598   1.688   0.647 -1.4154  2.2753  0.2744
  303DMF     H4 4122   0.768   2.011   0.687  1.1176  0.0871 -0.2304
  303DMF     H5 4123   0.692   1.884   0.777  0.6693 -0.8953 -1.4986
  303DMF     H6 4124   0.598   2.022   0.699 -0.9682 -0.9881 -1.1980
  303DMF     H7 4125   0.619   2.048   0.466 -0.5904 -0.4846  0.2328
  304DMF     C1 4126   2.094   1.476   3.078 -0.1291  0.2473 -0.5813
  304DMF     N1 4127   2.197   1.478   3.185 -0.1419 -0.7386  0.0966
  304DMF     C2 4128   2.178   1.562   3.305 -0.3025  0.2135 -0.2766
  304DMF     C3 4129   2.317   1.405   3.162 -0.3023 -0.0544  0.0248
  304DMF     O1 4130   2.341   1.334   3.058 -0.0293 -0.8482 -0.5186
  304DMF     H1 4131   2.065   1.581   3.064 -0.7968  0.1191 -0.1939
  304DMF     H2 4132   2.008   1.420   3.117  0.6519 -0.8538 -0.4055
  304DMF     H3 4133   2.134   1.439   2.983 -0.7455  0.2285 -0.8391
  304DMF     H4 4134   2.280   1.564   3.348 -0.7426 -1.2678  0.8600
  304DMF     H5 4135   2.109   1.527   3.382  1.2442 -1.4920  0.3635
  304DMF     H6 4136   2.159   1.668   3.283  1.2957  0.5546 -0.1284
  304DMF     H7 4137   2.392   1.423   3.241  1.2037 -1.0584 -1.1537
  305DMF     C1 4138   2.429   0.774   2.328  0.5426  0.0117  0.1599
  305DMF     N1 4139   2.304   0.717   2.281 -0.2801 -0.7618  1.0806
  305DMF     C2 4140   2.284   0.573   2.281 -0.4268  0.4319  0.3435
  305DMF     C3 4141   2.189   0.794   2.265  0.1515 -0.4766 -0.0247
  305DMF     O1 4142   2.188   0.918   2.280 -0.2024  0.5522 -0.1062
  305DMF     H1 4143   2.505   0.719   2.271 -1.1743 -0.5333 -1.6825
  305DMF     H2 4144   2.439   0.764   2.436 -0.9258  0.5699  0.3583
  305DMF     H3 4145   2.440   0.878   2.295 -1.2352  0.3085  0.4375
  305DMF     H4 4146   2.369   0.523   2.329 -0.8443 -1.0840 -0.4566
  305DMF     H5 4147   2.271   0.527   2.182  0.6720 -0.3607  0.5623
  305DMF     H6 4148   2.188   0.551   2.330 -0.2540  0.6878  0.7942
  305DMF     H7 4149   2.102   0.731   2.236  1.4556 -2.5118  0.4273
  306DMF     C1 4150   2.206   0.107   3.114 -0.2416  0.3646  0.4567
  306DMF     N1 4151   2.232   0.254   3.140  0.2988  0.1505 -0.1392
  306DMF     C2 4152   2.347   0.299   3.214 -0.2915 -0.1319 -0.9498
  306DMF     C3 4153   2.148   0.352   3.081 -0.0969 -0.2506  0.3830
  306DMF     O1 4154   2.041   0.325   3.036 -0.1286 -0.0037 -0.3854
  306DMF     H1 4155   2.271   0.051   3.183  2.5360 -1.0344 -3.1520
  306DMF     H2 4156   2.225   0.082   3.009 -0.2269 -0.1454  0.5767
  306DMF     H3 4157   2.100   0.090   3.139 -0.8245  2.4462 -0.4571
  306DMF     H4 4158   2.323   0.285   3.320 -1.1294  3.7352 -0.5575
  306DMF     H5 4159   2.366   0.406   3.202 -0.8108  0.0980  0.2437
  306DMF     H6 4160   2.431   0.237   3.179  0.1180 -0.5811  0.7896
  306DMF     H7 4161   2.179   0.456   3.103  0.3901 -0.4843  0.8421
  307DMF     C1 4162   2.731   2.642   2.883 -0.5070 -0.2247  0.0293
  307DMF     N1 4163   2.631   2.756   2.893 -0.0506 -0.3622  0.3317
  307DMF     C2 4164   2.546   2.788   2.779  0.8000  0.1418 -0.1488
  307DMF     C3 4165   2.643   2.843   3.007  0.6499  0.1845 -0.3835
  307DMF     O1 4166   2.704   2.821   3.114  0.0757  0.1591 -0.2089
  307DMF     H1 4167   2.694   2.558   2.943 -0.0854  0.1337  0.7961
  307DMF     H2 4168   2.828   2.660   2.930  0.4798 -0.1973 -1.9630
  307DMF     H3 4169   2.740   2.616   2.776 -2.4245 -0.4119 -0.0985
  307DMF     H4 4170   2.599   2.756   2.689 -1.1057 -0.3893 -1.1163
  307DMF     H5 4171   2.531   2.897   2.780  0.3928  0.0836  0.9500
  307DMF     H6 4172   2.450   2.737   2.792 -0.8447  3.0590 -0.2431
  307DMF     H7 4173   2.588   2.938   2.990  0.5987  0.1219 -0.5747
   3.40320   3.43847   3.80000
