HFIP comparator n4
 3225
    1GR      C1    1   0.000   0.000   1.900  0.0000  0.0000  0.0000
    1GR      C2    2   0.142   0.000   1.900  0.0000  0.0000  0.0000
    1GR      C3    3   0.213   0.123   1.900  0.0000  0.0000  0.0000
    1GR      C4    4   0.354   0.123   1.900  0.0000  0.0000  0.0000
    1GR      C5    5   0.000   0.246   1.900  0.0000  0.0000  0.0000
    1GR      C6    6   0.142   0.246   1.900  0.0000  0.0000  0.0000
    1GR      C7    7   0.213   0.368   1.900  0.0000  0.0000  0.0000
    1GR      C8    8   0.354   0.368   1.900  0.0000  0.0000  0.0000
    1GR      C9    9   0.000   0.491   1.900  0.0000  0.0000  0.0000
    1GR     C10   10   0.142   0.491   1.900  0.0000  0.0000  0.0000
    1GR     C11   11   0.213   0.614   1.900  0.0000  0.0000  0.0000
    1GR     C12   12   0.354   0.614   1.900  0.0000  0.0000  0.0000
    1GR     C13   13   0.000   0.737   1.900  0.0000  0.0000  0.0000
    1GR     C14   14   0.142   0.737   1.900  0.0000  0.0000  0.0000
    1GR     C15   15   0.213   0.860   1.900  0.0000  0.0000  0.0000
    1GR     C16   16   0.354   0.860   1.900  0.0000  0.0000  0.0000
    1GR     C17   17   0.000   0.982   1.900  0.0000  0.0000  0.0000
    1GR     C18   18   0.142   0.982   1.900  0.0000  0.0000  0.0000
    1GR     C19   19   0.213   1.105   1.900  0.0000  0.0000  0.0000
    1GR     C20   20   0.354   1.105   1.900  0.0000  0.0000  0.0000
    1GR     C21   21   0.000   1.228   1.900  0.0000  0.0000  0.0000
    1GR     C22   22   0.142   1.228   1.900  0.0000  0.0000  0.0000
    1GR     C23   23   0.213   1.351   1.900  0.0000  0.0000  0.0000
    1GR     C24   24   0.354   1.351   1.900  0.0000  0.0000  0.0000
    1GR     C25   25   0.000   1.474   1.900  0.0000  0.0000  0.0000
    1GR     C26   26   0.142   1.474   1.900  0.0000  0.0000  0.0000
    1GR     C27   27   0.213   1.596   1.900  0.0000  0.0000  0.0000
    1GR     C28   28   0.354   1.596   1.900  0.0000  0.0000  0.0000
    1GR     C29   29   0.000   1.719   1.900  0.0000  0.0000  0.0000
    1GR     C30   30   0.142   1.719   1.900  0.0000  0.0000  0.0000
    1GR     C31   31   0.213   1.842   1.900  0.0000  0.0000  0.0000
    1GR     C32   32   0.354   1.842   1.900  0.0000  0.0000  0.0000
    1GR     C33   33   0.000   1.965   1.900  0.0000  0.0000  0.0000
    1GR     C34   34   0.142   1.965   1.900  0.0000  0.0000  0.0000
    1GR     C35   35   0.213   2.088   1.900  0.0000  0.0000  0.0000
    1GR     C36   36   0.354   2.088   1.900  0.0000  0.0000  0.0000
    1GR     C37   37   0.000   2.210   1.900  0.0000  0.0000  0.0000
    1GR     C38   38   0.142   2.210   1.900  0.0000  0.0000  0.0000
    1GR     C39   39   0.213   2.333   1.900  0.0000  0.0000  0.0000
    1GR     C40   40   0.354   2.333   1.900  0.0000  0.0000  0.0000
    1GR     C41   41   0.000   2.456   1.900  0.0000  0.0000  0.0000
    1GR     C42   42   0.142   2.456   1.900  0.0000  0.0000  0.0000
    1GR     C43   43   0.213   2.579   1.900  0.0000  0.0000  0.0000
    1GR     C44   44   0.354   2.579   1.900  0.0000  0.0000  0.0000
    1GR     C45   45   0.000   2.702   1.900  0.0000  0.0000  0.0000
    1GR     C46   46   0.142   2.702   1.900  0.0000  0.0000  0.0000
    1GR     C47   47   0.213   2.824   1.900  0.0000  0.0000  0.0000
    1GR     C48   48   0.354   2.824   1.900  0.0000  0.0000  0.0000
    1GR     C49   49   0.000   2.947   1.900  0.0000  0.0000  0.0000
    1GR     C50   50   0.142   2.947   1.900  0.0000  0.0000  0.0000
    1GR     C51   51   0.213   3.070   1.900  0.0000  0.0000  0.0000
    1GR     C52   52   0.354   3.070   1.900  0.0000  0.0000  0.0000
    1GR     C53   53   0.000   3.193   1.900  0.0000  0.0000  0.0000
    1GR     C54   54   0.142   3.193   1.900  0.0000  0.0000  0.0000
    1GR     C55   55   0.213   3.316   1.900  0.0000  0.0000  0.0000
    1GR     C56   56   0.354   3.316   1.900  0.0000  0.0000  0.0000
    1GR     C57   57   0.425   0.000   1.900  0.0000  0.0000  0.0000
    1GR     C58   58   0.567   0.000   1.900  0.0000  0.0000  0.0000
    1GR     C59   59   0.638   0.123   1.900  0.0000  0.0000  0.0000
    1GR     C60   60   0.780   0.123   1.900  0.0000  0.0000  0.0000
    1GR     C61   61   0.425   0.246   1.900  0.0000  0.0000  0.0000
    1GR     C62   62   0.567   0.246   1.900  0.0000  0.0000  0.0000
    1GR     C63   63   0.638   0.368   1.900  0.0000  0.0000  0.0000
    1GR     C64   64   0.780   0.368   1.900  0.0000  0.0000  0.0000
    1GR     C65   65   0.425   0.491   1.900  0.0000  0.0000  0.0000
    1GR     C66   66   0.567   0.491   1.900  0.0000  0.0000  0.0000
    1GR     C67   67   0.638   0.614   1.900  0.0000  0.0000  0.0000
    1GR     C68   68   0.780   0.614   1.900  0.0000  0.0000  0.0000
    1GR     C69   69   0.425   0.737   1.900  0.0000  0.0000  0.0000
    1GR     C70   70   0.567   0.737   1.900  0.0000  0.0000  0.0000
    1GR     C71   71   0.638   0.860   1.900  0.0000  0.0000  0.0000
    1GR     C72   72   0.780   0.860   1.900  0.0000  0.0000  0.0000
    1GR     C73   73   0.425   0.982   1.900  0.0000  0.0000  0.0000
    1GR     C74   74   0.567   0.982   1.900  0.0000  0.0000  0.0000
    1GR     C75   75   0.638   1.105   1.900  0.0000  0.0000  0.0000
    1GR     C76   76   0.780   1.105   1.900  0.0000  0.0000  0.0000
    1GR     C77   77   0.425   1.228   1.900  0.0000  0.0000  0.0000
    1GR     C78   78   0.567   1.228   1.900  0.0000  0.0000  0.0000
    1GR     C79   79   0.638   1.351   1.900  0.0000  0.0000  0.0000
    1GR     C80   80   0.780   1.351   1.900  0.0000  0.0000  0.0000
    1GR     C81   81   0.425   1.474   1.900  0.0000  0.0000  0.0000
    1GR     C82   82   0.567   1.474   1.900  0.0000  0.0000  0.0000
    1GR     C83   83   0.638   1.596   1.900  0.0000  0.0000  0.0000
    1GR     C84   84   0.780   1.596   1.900  0.0000  0.0000  0.0000
    1GR     C85   85   0.425   1.719   1.900  0.0000  0.0000  0.0000
    1GR     C86   86   0.567   1.719   1.900  0.0000  0.0000  0.0000
    1GR     C87   87   0.638   1.842   1.900  0.0000  0.0000  0.0000
    1GR     C88   88   0.780   1.842   1.900  0.0000  0.0000  0.0000
    1GR     C89   89   0.425   1.965   1.900  0.0000  0.0000  0.0000
    1GR     C90   90   0.567   1.965   1.900  0.0000  0.0000  0.0000
    1GR     C91   91   0.638   2.088   1.900  0.0000  0.0000  0.0000
    1GR     C92   92   0.780   2.088   1.900  0.0000  0.0000  0.0000
    1GR     C93   93   0.425   2.210   1.900  0.0000  0.0000  0.0000
    1GR     C94   94   0.567   2.210   1.900  0.0000  0.0000  0.0000
    1GR     C95   95   0.638   2.333   1.900  0.0000  0.0000  0.0000
    1GR     C96   96   0.780   2.333   1.900  0.0000  0.0000  0.0000
    1GR     C97   97   0.425   2.456   1.900  0.0000  0.0000  0.0000
    1GR     C98   98   0.567   2.456   1.900  0.0000  0.0000  0.0000
    1GR     C99   99   0.638   2.579   1.900  0.0000  0.0000  0.0000
    1GR    C100  100   0.780   2.579   1.900  0.0000  0.0000  0.0000
    1GR    C101  101   0.425   2.702   1.900  0.0000  0.0000  0.0000
    1GR    C102  102   0.567   2.702   1.900  0.0000  0.0000  0.0000
    1GR    C103  103   0.638   2.824   1.900  0.0000  0.0000  0.0000
    1GR    C104  104   0.780   2.824   1.900  0.0000  0.0000  0.0000
    1GR    C105  105   0.425   2.947   1.900  0.0000  0.0000  0.0000
    1GR    C106  106   0.567   2.947   1.900  0.0000  0.0000  0.0000
    1GR    C107  107   0.638   3.070   1.900  0.0000  0.0000  0.0000
    1GR    C108  108   0.780   3.070   1.900  0.0000  0.0000  0.0000
    1GR    C109  109   0.425   3.193   1.900  0.0000  0.0000  0.0000
    1GR    C110  110   0.567   3.193   1.900  0.0000  0.0000  0.0000
    1GR    C111  111   0.638   3.316   1.900  0.0000  0.0000  0.0000
    1GR    C112  112   0.780   3.316   1.900  0.0000  0.0000  0.0000
    1GR    C113  113   0.851   0.000   1.900  0.0000  0.0000  0.0000
    1GR    C114  114   0.993   0.000   1.900  0.0000  0.0000  0.0000
    1GR    C115  115   1.064   0.123   1.900  0.0000  0.0000  0.0000
    1GR    C116  116   1.205   0.123   1.900  0.0000  0.0000  0.0000
    1GR    C117  117   0.851   0.246   1.900  0.0000  0.0000  0.0000
    1GR    C118  118   0.993   0.246   1.900  0.0000  0.0000  0.0000
    1GR    C119  119   1.064   0.368   1.900  0.0000  0.0000  0.0000
    1GR    C120  120   1.205   0.368   1.900  0.0000  0.0000  0.0000
    1GR    C121  121   0.851   0.491   1.900  0.0000  0.0000  0.0000
    1GR    C122  122   0.993   0.491   1.900  0.0000  0.0000  0.0000
    1GR    C123  123   1.064   0.614   1.900  0.0000  0.0000  0.0000
    1GR    C124  124   1.205   0.614   1.900  0.0000  0.0000  0.0000
    1GR    C125  125   0.851   0.737   1.900  0.0000  0.0000  0.0000
    1GR    C126  126   0.993   0.737   1.900  0.0000  0.0000  0.0000
    1GR    C127  127   1.064   0.860   1.900  0.0000  0.0000  0.0000
    1GR    C128  128   1.205   0.860   1.900  0.0000  0.0000  0.0000
    1GR    C129  129   0.851   0.982   1.900  0.0000  0.0000  0.0000
    1GR    C130  130   0.993   0.982   1.900  0.0000  0.0000  0.0000
    1GR    C131  131   1.064   1.105   1.900  0.0000  0.0000  0.0000
    1GR    C132  132   1.205   1.105   1.900  0.0000  0.0000  0.0000
    1GR    C133  133   0.851   1.228   1.900  0.0000  0.0000  0.0000
    1GR    C134  134   0.993   1.228   1.900  0.0000  0.0000  0.0000
    1GR    C135  135   1.064   1.351   1.900  0.0000  0.0000  0.0000
    1GR    C136  136   1.205   1.351   1.900  0.0000  0.0000  0.0000
    1GR    C137  137   0.851   1.474   1.900  0.0000  0.0000  0.0000
    1GR    C138  138   0.993   1.474   1.900  0.0000  0.0000  0.0000
    1GR    C139  139   1.064   1.596   1.900  0.0000  0.0000  0.0000
    1GR    C140  140   1.205   1.596   1.900  0.0000  0.0000  0.0000
    1GR    C141  141   0.851   1.719   1.900  0.0000  0.0000  0.0000
    1GR    C142  142   0.993   1.719   1.900  0.0000  0.0000  0.0000
    1GR    C143  143   1.064   1.842   1.900  0.0000  0.0000  0.0000
    1GR    C144  144   1.205   1.842   1.900  0.0000  0.0000  0.0000
    1GR    C145  145   0.851   1.965   1.900  0.0000  0.0000  0.0000
    1GR    C146  146   0.993   1.965   1.900  0.0000  0.0000  0.0000
    1GR    C147  147   1.064   2.088   1.900  0.0000  0.0000  0.0000
    1GR    C148  148   1.205   2.088   1.900  0.0000  0.0000  0.0000
    1GR    C149  149   0.851   2.210   1.900  0.0000  0.0000  0.0000
    1GR    C150  150   0.993   2.210   1.900  0.0000  0.0000  0.0000
    1GR    C151  151   1.064   2.333   1.900  0.0000  0.0000  0.0000
    1GR    C152  152   1.205   2.333   1.900  0.0000  0.0000  0.0000
    1GR    C153  153   0.851   2.456   1.900  0.0000  0.0000  0.0000
    1GR    C154  154   0.993   2.456   1.900  0.0000  0.0000  0.0000
    1GR    C155  155   1.064   2.579   1.900  0.0000  0.0000  0.0000
    1GR    C156  156   1.205   2.579   1.900  0.0000  0.0000  0.0000
    1GR    C157  157   0.851   2.702   1.900  0.0000  0.0000  0.0000
    1GR    C158  158   0.993   2.702   1.900  0.0000  0.0000  0.0000
    1GR    C159  159   1.064   2.824   1.900  0.0000  0.0000  0.0000
    1GR    C160  160   1.205   2.824   1.900  0.0000  0.0000  0.0000
    1GR    C161  161   0.851   2.947   1.900  0.0000  0.0000  0.0000
    1GR    C162  162   0.993   2.947   1.900  0.0000  0.0000  0.0000
    1GR    C163  163   1.064   3.070   1.900  0.0000  0.0000  0.0000
    1GR    C164  164   1.205   3.070   1.900  0.0000  0.0000  0.0000
    1GR    C165  165   0.851   3.193   1.900  0.0000  0.0000  0.0000
    1GR    C166  166   0.993   3.193   1.900  0.0000  0.0000  0.0000
    1GR    C167  167   1.064   3.316   1.900  0.0000  0.0000  0.0000
    1GR    C168  168   1.205   3.316   1.900  0.0000  0.0000  0.0000
    1GR    C169  169   1.276   0.000   1.900  0.0000  0.0000  0.0000
    1GR    C170  170   1.418   0.000   1.900  0.0000  0.0000  0.0000
    1GR    C171  171   1.489   0.123   1.900  0.0000  0.0000  0.0000
    1GR    C172  172   1.631   0.123   1.900  0.0000  0.0000  0.0000
    1GR    C173  173   1.276   0.246   1.900  0.0000  0.0000  0.0000
    1GR    C174  174   1.418   0.246   1.900  0.0000  0.0000  0.0000
    1GR    C175  175   1.489   0.368   1.900  0.0000  0.0000  0.0000
    1GR    C176  176   1.631   0.368   1.900  0.0000  0.0000  0.0000
    1GR    C177  177   1.276   0.491   1.900  0.0000  0.0000  0.0000
    1GR    C178  178   1.418   0.491   1.900  0.0000  0.0000  0.0000
    1GR    C179  179   1.489   0.614   1.900  0.0000  0.0000  0.0000
    1GR    C180  180   1.631   0.614   1.900  0.0000  0.0000  0.0000
    1GR    C181  181   1.276   0.737   1.900  0.0000  0.0000  0.0000
    1GR    C182  182   1.418   0.737   1.900  0.0000  0.0000  0.0000
    1GR    C183  183   1.489   0.860   1.900  0.0000  0.0000  0.0000
    1GR    C184  184   1.631   0.860   1.900  0.0000  0.0000  0.0000
    1GR    C185  185   1.276   0.982   1.900  0.0000  0.0000  0.0000
    1GR    C186  186   1.418   0.982   1.900  0.0000  0.0000  0.0000
    1GR    C187  187   1.489   1.105   1.900  0.0000  0.0000  0.0000
    1GR    C188  188   1.631   1.105   1.900  0.0000  0.0000  0.0000
    1GR    C189  189   1.276   1.228   1.900  0.0000  0.0000  0.0000
    1GR    C190  190   1.418   1.228   1.900  0.0000  0.0000  0.0000
    1GR    C191  191   1.489   1.351   1.900  0.0000  0.0000  0.0000
    1GR    C192  192   1.631   1.351   1.900  0.0000  0.0000  0.0000
    1GR    C193  193   1.276   1.474   1.900  0.0000  0.0000  0.0000
    1GR    C194  194   1.418   1.474   1.900  0.0000  0.0000  0.0000
    1GR    C195  195   1.489   1.596   1.900  0.0000  0.0000  0.0000
    1GR    C196  196   1.631   1.596   1.900  0.0000  0.0000  0.0000
    1GR    C197  197   1.276   1.719   1.900  0.0000  0.0000  0.0000
    1GR    C198  198   1.418   1.719   1.900  0.0000  0.0000  0.0000
    1GR    C199  199   1.489   1.842   1.900  0.0000  0.0000  0.0000
    1GR    C200  200   1.631   1.842   1.900  0.0000  0.0000  0.0000
    1GR    C201  201   1.276   1.965   1.900  0.0000  0.0000  0.0000
    1GR    C202  202   1.418   1.965   1.900  0.0000  0.0000  0.0000
    1GR    C203  203   1.489   2.088   1.900  0.0000  0.0000  0.0000
    1GR    C204  204   1.631   2.088   1.900  0.0000  0.0000  0.0000
    1GR    C205  205   1.276   2.210   1.900  0.0000  0.0000  0.0000
    1GR    C206  206   1.418   2.210   1.900  0.0000  0.0000  0.0000
    1GR    C207  207   1.489   2.333   1.900  0.0000  0.0000  0.0000
    1GR    C208  208   1.631   2.333   1.900  0.0000  0.0000  0.0000
    1GR    C209  209   1.276   2.456   1.900  0.0000  0.0000  0.0000
    1GR    C210  210   1.418   2.456   1.900  0.0000  0.0000  0.0000
    1GR    C211  211   1.489   2.579   1.900  0.0000  0.0000  0.0000
    1GR    C212  212   1.631   2.579   1.900  0.0000  0.0000  0.0000
    1GR    C213  213   1.276   2.702   1.900  0.0000  0.0000  0.0000
    1GR    C214  214   1.418   2.702   1.900  0.0000  0.0000  0.0000
    1GR    C215  215   1.489   2.824   1.900  0.0000  0.0000  0.0000
    1GR    C216  216   1.631   2.824   1.900  0.0000  0.0000  0.0000
    1GR    C217  217   1.276   2.947   1.900  0.0000  0.0000  0.0000
    1GR    C218  218   1.418   2.947   1.900  0.0000  0.0000  0.0000
    1GR    C219  219   1.489   3.070   1.900  0.0000  0.0000  0.0000
    1GR    C220  220   1.631   3.070   1.900  0.0000  0.0000  0.0000
    1GR    C221  221   1.276   3.193   1.900  0.0000  0.0000  0.0000
    1GR    C222  222   1.418   3.193   1.900  0.0000  0.0000  0.0000
    1GR    C223  223   1.489   3.316   1.900  0.0000  0.0000  0.0000
    1GR    C224  224   1.631   3.316   1.900  0.0000  0.0000  0.0000
    1GR    C225  225   1.702   0.000   1.900  0.0000  0.0000  0.0000
    1GR    C226  226   1.843   0.000   1.900  0.0000  0.0000  0.0000
    1GR    C227  227   1.914   0.123   1.900  0.0000  0.0000  0.0000
    1GR    C228  228   2.056   0.123   1.900  0.0000  0.0000  0.0000
    1GR    C229  229   1.702   0.246   1.900  0.0000  0.0000  0.0000
    1GR    C230  230   1.843   0.246   1.900  0.0000  0.0000  0.0000
    1GR    C231  231   1.914   0.368   1.900  0.0000  0.0000  0.0000
    1GR    C232  232   2.056   0.368   1.900  0.0000  0.0000  0.0000
    1GR    C233  233   1.702   0.491   1.900  0.0000  0.0000  0.0000
    1GR    C234  234   1.843   0.491   1.900  0.0000  0.0000  0.0000
    1GR    C235  235   1.914   0.614   1.900  0.0000  0.0000  0.0000
    1GR    C236  236   2.056   0.614   1.900  0.0000  0.0000  0.0000
    1GR    C237  237   1.702   0.737   1.900  0.0000  0.0000  0.0000
    1GR    C238  238   1.843   0.737   1.900  0.0000  0.0000  0.0000
    1GR    C239  239   1.914   0.860   1.900  0.0000  0.0000  0.0000
    1GR    C240  240   2.056   0.860   1.900  0.0000  0.0000  0.0000
    1GR    C241  241   1.702   0.982   1.900  0.0000  0.0000  0.0000
    1GR    C242  242   1.843   0.982   1.900  0.0000  0.0000  0.0000
    1GR    C243  243   1.914   1.105   1.900  0.0000  0.0000  0.0000
    1GR    C244  244   2.056   1.105   1.900  0.0000  0.0000  0.0000
    1GR    C245  245   1.702   1.228   1.900  0.0000  0.0000  0.0000
    1GR    C246  246   1.843   1.228   1.900  0.0000  0.0000  0.0000
    1GR    C247  247   1.914   1.351   1.900  0.0000  0.0000  0.0000
    1GR    C248  248   2.056   1.351   1.900  0.0000  0.0000  0.0000
    1GR    C249  249   1.702   1.474   1.900  0.0000  0.0000  0.0000
    1GR    C250  250   1.843   1.474   1.900  0.0000  0.0000  0.0000
    1GR    C251  251   1.914   1.596   1.900  0.0000  0.0000  0.0000
    1GR    C252  252   2.056   1.596   1.900  0.0000  0.0000  0.0000
    1GR    C253  253   1.702   1.719   1.900  0.0000  0.0000  0.0000
    1GR    C254  254   1.843   1.719   1.900  0.0000  0.0000  0.0000
    1GR    C255  255   1.914   1.842   1.900  0.0000  0.0000  0.0000
    1GR    C256  256   2.056   1.842   1.900  0.0000  0.0000  0.0000
    1GR    C257  257   1.702   1.965   1.900  0.0000  0.0000  0.0000
    1GR    C258  258   1.843   1.965   1.900  0.0000  0.0000  0.0000
    1GR    C259  259   1.914   2.088   1.900  0.0000  0.0000  0.0000
    1GR    C260  260   2.056   2.088   1.900  0.0000  0.0000  0.0000
    1GR    C261  261   1.702   2.210   1.900  0.0000  0.0000  0.0000
    1GR    C262  262   1.843   2.210   1.900  0.0000  0.0000  0.0000
    1GR    C263  263   1.914   2.333   1.900  0.0000  0.0000  0.0000
    1GR    C264  264   2.056   2.333   1.900  0.0000  0.0000  0.0000
    1GR    C265  265   1.702   2.456   1.900  0.0000  0.0000  0.0000
    1GR    C266  266   1.843   2.456   1.900  0.0000  0.0000  0.0000
    1GR    C267  267   1.914   2.579   1.900  0.0000  0.0000  0.0000
    1GR    C268  268   2.056   2.579   1.900  0.0000  0.0000  0.0000
    1GR    C269  269   1.702   2.702   1.900  0.0000  0.0000  0.0000
    1GR    C270  270   1.843   2.702   1.900  0.0000  0.0000  0.0000
    1GR    C271  271   1.914   2.824   1.900  0.0000  0.0000  0.0000
    1GR    C272  272   2.056   2.824   1.900  0.0000  0.0000  0.0000
    1GR    C273  273   1.702   2.947   1.900  0.0000  0.0000  0.0000
    1GR    C274  274   1.843   2.947   1.900  0.0000  0.0000  0.0000
    1GR    C275  275   1.914   3.070   1.900  0.0000  0.0000  0.0000
    1GR    C276  276   2.056   3.070   1.900  0.0000  0.0000  0.0000
    1GR    C277  277   1.702   3.193   1.900  0.0000  0.0000  0.0000
    1GR    C278  278   1.843   3.193   1.900  0.0000  0.0000  0.0000
    1GR    C279  279   1.914   3.316   1.900  0.0000  0.0000  0.0000
    1GR    C280  280   2.056   3.316   1.900  0.0000  0.0000  0.0000
    1GR    C281  281   2.127   0.000   1.900  0.0000  0.0000  0.0000
    1GR    C282  282   2.269   0.000   1.900  0.0000  0.0000  0.0000
    1GR    C283  283   2.340   0.123   1.900  0.0000  0.0000  0.0000
    1GR    C284  284   2.481   0.123   1.900  0.0000  0.0000  0.0000
    1GR    C285  285   2.127   0.246   1.900  0.0000  0.0000  0.0000
    1GR    C286  286   2.269   0.246   1.900  0.0000  0.0000  0.0000
    1GR    C287  287   2.340   0.368   1.900  0.0000  0.0000  0.0000
    1GR    C288  288   2.481   0.368   1.900  0.0000  0.0000  0.0000
    1GR    C289  289   2.127   0.491   1.900  0.0000  0.0000  0.0000
    1GR    C290  290   2.269   0.491   1.900  0.0000  0.0000  0.0000
    1GR    C291  291   2.340   0.614   1.900  0.0000  0.0000  0.0000
    1GR    C292  292   2.481   0.614   1.900  0.0000  0.0000  0.0000
    1GR    C293  293   2.127   0.737   1.900  0.0000  0.0000  0.0000
    1GR    C294  294   2.269   0.737   1.900  0.0000  0.0000  0.0000
    1GR    C295  295   2.340   0.860   1.900  0.0000  0.0000  0.0000
    1GR    C296  296   2.481   0.860   1.900  0.0000  0.0000  0.0000
    1GR    C297  297   2.127   0.982   1.900  0.0000  0.0000  0.0000
    1GR    C298  298   2.269   0.982   1.900  0.0000  0.0000  0.0000
    1GR    C299  299   2.340   1.105   1.900  0.0000  0.0000  0.0000
    1GR    C300  300   2.481   1.105   1.900  0.0000  0.0000  0.0000
    1GR    C301  301   2.127   1.228   1.900  0.0000  0.0000  0.0000
    1GR    C302  302   2.269   1.228   1.900  0.0000  0.0000  0.0000
    1GR    C303  303   2.340   1.351   1.900  0.0000  0.0000  0.0000
    1GR    C304  304   2.481   1.351   1.900  0.0000  0.0000  0.0000
    1GR    C305  305   2.127   1.474   1.900  0.0000  0.0000  0.0000
    1GR    C306  306   2.269   1.474   1.900  0.0000  0.0000  0.0000
    1GR    C307  307   2.340   1.596   1.900  0.0000  0.0000  0.0000
    1GR    C308  308   2.481   1.596   1.900  0.0000  0.0000  0.0000
    1GR    C309  309   2.127   1.719   1.900  0.0000  0.0000  0.0000
    1GR    C310  310   2.269   1.719   1.900  0.0000  0.0000  0.0000
    1GR    C311  311   2.340   1.842   1.900  0.0000  0.0000  0.0000
    1GR    C312  312   2.481   1.842   1.900  0.0000  0.0000  0.0000
    1GR    C313  313   2.127   1.965   1.900  0.0000  0.0000  0.0000
    1GR    C314  314   2.269   1.965   1.900  0.0000  0.0000  0.0000
    1GR    C315  315   2.340   2.088   1.900  0.0000  0.0000  0.0000
    1GR    C316  316   2.481   2.088   1.900  0.0000  0.0000  0.0000
    1GR    C317  317   2.127   2.210   1.900  0.0000  0.0000  0.0000
    1GR    C318  318   2.269   2.210   1.900  0.0000  0.0000  0.0000
    1GR    C319  319   2.340   2.333   1.900  0.0000  0.0000  0.0000
    1GR    C320  320   2.481   2.333   1.900  0.0000  0.0000  0.0000
    1GR    C321  321   2.127   2.456   1.900  0.0000  0.0000  0.0000
    1GR    C322  322   2.269   2.456   1.900  0.0000  0.0000  0.0000
    1GR    C323  323   2.340   2.579   1.900  0.0000  0.0000  0.0000
    1GR    C324  324   2.481   2.579   1.900  0.0000  0.0000  0.0000
    1GR    C325  325   2.127   2.702   1.900  0.0000  0.0000  0.0000
    1GR    C326  326   2.269   2.702   1.900  0.0000  0.0000  0.0000
    1GR    C327  327   2.340   2.824   1.900  0.0000  0.0000  0.0000
    1GR    C328  328   2.481   2.824   1.900  0.0000  0.0000  0.0000
    1GR    C329  329   2.127   2.947   1.900  0.0000  0.0000  0.0000
    1GR    C330  330   2.269   2.947   1.900  0.0000  0.0000  0.0000
    1GR    C331  331   2.340   3.070   1.900  0.0000  0.0000  0.0000
    1GR    C332  332   2.481   3.070   1.900  0.0000  0.0000  0.0000
    1GR    C333  333   2.127   3.193   1.900  0.0000  0.0000  0.0000
    1GR    C334  334   2.269   3.193   1.900  0.0000  0.0000  0.0000
    1GR    C335  335   2.340   3.316   1.900  0.0000  0.0000  0.0000
    1GR    C336  336   2.481   3.316   1.900  0.0000  0.0000  0.0000
    1GR    C337  337   2.552   0.000   1.900  0.0000  0.0000  0.0000
    1GR    C338  338   2.694   0.000   1.900  0.0000  0.0000  0.0000
    1GR    C339  339   2.765   0.123   1.900  0.0000  0.0000  0.0000
    1GR    C340  340   2.907   0.123   1.900  0.0000  0.0000  0.0000
    1GR    C341  341   2.552   0.246   1.900  0.0000  0.0000  0.0000
    1GR    C342  342   2.694   0.246   1.900  0.0000  0.0000  0.0000
    1GR    C343  343   2.765   0.368   1.900  0.0000  0.0000  0.0000
    1GR    C344  344   2.907   0.368   1.900  0.0000  0.0000  0.0000
    1GR    C345  345   2.552   0.491   1.900  0.0000  0.0000  0.0000
    1GR    C346  346   2.694   0.491   1.900  0.0000  0.0000  0.0000
    1GR    C347  347   2.765   0.614   1.900  0.0000  0.0000  0.0000
    1GR    C348  348   2.907   0.614   1.900  0.0000  0.0000  0.0000
    1GR    C349  349   2.552   0.737   1.900  0.0000  0.0000  0.0000
    1GR    C350  350   2.694   0.737   1.900  0.0000  0.0000  0.0000
    1GR    C351  351   2.765   0.860   1.900  0.0000  0.0000  0.0000
    1GR    C352  352   2.907   0.860   1.900  0.0000  0.0000  0.0000
    1GR    C353  353   2.552   0.982   1.900  0.0000  0.0000  0.0000
    1GR    C354  354   2.694   0.982   1.900  0.0000  0.0000  0.0000
    1GR    C355  355   2.765   1.105   1.900  0.0000  0.0000  0.0000
    1GR    C356  356   2.907   1.105   1.900  0.0000  0.0000  0.0000
    1GR    C357  357   2.552   1.228   1.900  0.0000  0.0000  0.0000
    1GR    C358  358   2.694   1.228   1.900  0.0000  0.0000  0.0000
    1GR    C359  359   2.765   1.351   1.900  0.0000  0.0000  0.0000
    1GR    C360  360   2.907   1.351   1.900  0.0000  0.0000  0.0000
    1GR    C361  361   2.552   1.474   1.900  0.0000  0.0000  0.0000
    1GR    C362  362   2.694   1.474   1.900  0.0000  0.0000  0.0000
    1GR    C363  363   2.765   1.596   1.900  0.0000  0.0000  0.0000
    1GR    C364  364   2.907   1.596   1.900  0.0000  0.0000  0.0000
    1GR    C365  365   2.552   1.719   1.900  0.0000  0.0000  0.0000
    1GR    C366  366   2.694   1.719   1.900  0.0000  0.0000  0.0000
    1GR    C367  367   2.765   1.842   1.900  0.0000  0.0000  0.0000
    1GR    C368  368   2.907   1.842   1.900  0.0000  0.0000  0.0000
    1GR    C369  369   2.552   1.965   1.900  0.0000  0.0000  0.0000
    1GR    C370  370   2.694   1.965   1.900  0.0000  0.0000  0.0000
    1GR    C371  371   2.765   2.088   1.900  0.0000  0.0000  0.0000
    1GR    C372  372   2.907   2.088   1.900  0.0000  0.0000  0.0000
    1GR    C373  373   2.552   2.210   1.900  0.0000  0.0000  0.0000
    1GR    C374  374   2.694   2.210   1.900  0.0000  0.0000  0.0000
    1GR    C375  375   2.765   2.333   1.900  0.0000  0.0000  0.0000
    1GR    C376  376   2.907   2.333   1.900  0.0000  0.0000  0.0000
    1GR    C377  377   2.552   2.456   1.900  0.0000  0.0000  0.0000
    1GR    C378  378   2.694   2.456   1.900  0.0000  0.0000  0.0000
    1GR    C379  379   2.765   2.579   1.900  0.0000  0.0000  0.0000
    1GR    C380  380   2.907   2.579   1.900  0.0000  0.0000  0.0000
    1GR    C381  381   2.552   2.702   1.900  0.0000  0.0000  0.0000
    1GR    C382  382   2.694   2.702   1.900  0.0000  0.0000  0.0000
    1GR    C383  383   2.765   2.824   1.900  0.0000  0.0000  0.0000
    1GR    C384  384   2.907   2.824   1.900  0.0000  0.0000  0.0000
    1GR    C385  385   2.552   2.947   1.900  0.0000  0.0000  0.0000
    1GR    C386  386   2.694   2.947   1.900  0.0000  0.0000  0.0000
    1GR    C387  387   2.765   3.070   1.900  0.0000  0.0000  0.0000
    1GR    C388  388   2.907   3.070   1.900  0.0000  0.0000  0.0000
    1GR    C389  389   2.552   3.193   1.900  0.0000  0.0000  0.0000
    1GR    C390  390   2.694   3.193   1.900  0.0000  0.0000  0.0000
    1GR    C391  391   2.765   3.316   1.900  0.0000  0.0000  0.0000
    1GR    C392  392   2.907   3.316   1.900  0.0000  0.0000  0.0000
    1GR    C393  393   2.978   0.000   1.900  0.0000  0.0000  0.0000
    1GR    C394  394   3.120   0.000   1.900  0.0000  0.0000  0.0000
    1GR    C395  395   3.191   0.123   1.900  0.0000  0.0000  0.0000
    1GR    C396  396   3.332   0.123   1.900  0.0000  0.0000  0.0000
    1GR    C397  397   2.978   0.246   1.900  0.0000  0.0000  0.0000
    1GR    C398  398   3.120   0.246   1.900  0.0000  0.0000  0.0000
    1GR    C399  399   3.191   0.368   1.900  0.0000  0.0000  0.0000
    1GR    C400  400   3.332   0.368   1.900  0.0000  0.0000  0.0000
    1GR    C401  401   2.978   0.491   1.900  0.0000  0.0000  0.0000
    1GR    C402  402   3.120   0.491   1.900  0.0000  0.0000  0.0000
    1GR    C403  403   3.191   0.614   1.900  0.0000  0.0000  0.0000
    1GR    C404  404   3.332   0.614   1.900  0.0000  0.0000  0.0000
    1GR    C405  405   2.978   0.737   1.900  0.0000  0.0000  0.0000
    1GR    C406  406   3.120   0.737   1.900  0.0000  0.0000  0.0000
    1GR    C407  407   3.191   0.860   1.900  0.0000  0.0000  0.0000
    1GR    C408  408   3.332   0.860   1.900  0.0000  0.0000  0.0000
    1GR    C409  409   2.978   0.982   1.900  0.0000  0.0000  0.0000
    1GR    C410  410   3.120   0.982   1.900  0.0000  0.0000  0.0000
    1GR    C411  411   3.191   1.105   1.900  0.0000  0.0000  0.0000
    1GR    C412  412   3.332   1.105   1.900  0.0000  0.0000  0.0000
    1GR    C413  413   2.978   1.228   1.900  0.0000  0.0000  0.0000
    1GR    C414  414   3.120   1.228   1.900  0.0000  0.0000  0.0000
    1GR    C415  415   3.191   1.351   1.900  0.0000  0.0000  0.0000
    1GR    C416  416   3.332   1.351   1.900  0.0000  0.0000  0.0000
    1GR    C417  417   2.978   1.474   1.900  0.0000  0.0000  0.0000
    1GR    C418  418   3.120   1.474   1.900  0.0000  0.0000  0.0000
    1GR    C419  419   3.191   1.596   1.900  0.0000  0.0000  0.0000
    1GR    C420  420   3.332   1.596   1.900  0.0000  0.0000  0.0000
    1GR    C421  421   2.978   1.719   1.900  0.0000  0.0000  0.0000
    1GR    C422  422   3.120   1.719   1.900  0.0000  0.0000  0.0000
    1GR    C423  423   3.191   1.842   1.900  0.0000  0.0000  0.0000
    1GR    C424  424   3.332   1.842   1.900  0.0000  0.0000  0.0000
    1GR    C425  425   2.978   1.965   1.900  0.0000  0.0000  0.0000
    1GR    C426  426   3.120   1.965   1.900  0.0000  0.0000  0.0000
    1GR    C427  427   3.191   2.088   1.900  0.0000  0.0000  0.0000
    1GR    C428  428   3.332   2.088   1.900  0.0000  0.0000  0.0000
    1GR    C429  429   2.978   2.210   1.900  0.0000  0.0000  0.0000
    1GR    C430  430   3.120   2.210   1.900  0.0000  0.0000  0.0000
    1GR    C431  431   3.191   2.333   1.900  0.0000  0.0000  0.0000
    1GR    C432  432   3.332   2.333   1.900  0.0000  0.0000  0.0000
    1GR    C433  433   2.978   2.456   1.900  0.0000  0.0000  0.0000
    1GR    C434  434   3.120   2.456   1.900  0.0000  0.0000  0.0000
    1GR    C435  435   3.191   2.579   1.900  0.0000  0.0000  0.0000
    1GR    C436  436   3.332   2.579   1.900  0.0000  0.0000  0.0000
    1GR    C437  437   2.978   2.702   1.900  0.0000  0.0000  0.0000
    1GR    C438  438   3.120   2.702   1.900  0.0000  0.0000  0.0000
    1GR    C439  439   3.191   2.824   1.900  0.0000  0.0000  0.0000
    1GR    C440  440   3.332   2.824   1.900  0.0000  0.0000  0.0000
    1GR    C441  441   2.978   2.947   1.900  0.0000  0.0000  0.0000
    1GR    C442  442   3.120   2.947   1.900  0.0000  0.0000  0.0000
    1GR    C443  443   3.191   3.070   1.900  0.0000  0.0000  0.0000
    1GR    C444  444   3.332   3.070   1.900  0.0000  0.0000  0.0000
    1GR    C445  445   2.978   3.193   1.900  0.0000  0.0000  0.0000
    1GR    C446  446   3.120   3.193   1.900  0.0000  0.0000  0.0000
    1GR    C447  447   3.191   3.316   1.900  0.0000  0.0000  0.0000
    1GR    C448  448   3.332   3.316   1.900  0.0000  0.0000  0.0000
    2PMMA   CX1  449   2.347   1.467   2.392 -0.2123  0.6017 -0.1844
    2PMMA   CA2  450   2.224   1.558   2.384 -0.1706  0.5019 -0.5506
    2PMMA   CX3  451   2.224   1.634   2.255 -0.1173 -0.1518 -0.2897
    2PMMA    C4  452   2.103   1.458   2.390  0.5555  0.0732  0.7990
    2PMMA    O5  453   2.052   1.414   2.490 -0.0818 -0.0676  0.4322
    2PMMA   OS6  454   2.032   1.446   2.272 -0.0080 -0.1753 -0.0064
    2PMMA   CE7  455   1.906   1.386   2.266 -0.2793  0.0221 -0.0937
    2PMMA   CX8  456   2.218   1.648   2.505  0.0655 -0.3243 -0.5590
    2PMMA   CA9  457   2.123   1.770   2.520  0.2152  0.2527 -0.8857
    2PMMA  CX10  458   2.168   1.877   2.415  0.2409  0.7889 -0.2565
    2PMMA   C11  459   2.163   1.818   2.663 -0.0160  0.2808 -1.0712
    2PMMA   O12  460   2.243   1.902   2.693  0.2662 -0.4177  0.3236
    2PMMA  OS13  461   2.090   1.746   2.753 -0.0453  0.0709 -0.3417
    2PMMA  CE14  462   2.129   1.743   2.889 -0.4225 -0.1655  1.3040
    2PMMA  CX15  463   1.971   1.730   2.495  0.0661  0.7461  0.0536
    2PMMA  CA16  464   1.857   1.845   2.511  0.3543  0.2740  0.1902
    2PMMA  CX17  465   1.723   1.766   2.527 -0.0885 -0.4268  0.3964
    2PMMA   C18  466   1.870   1.939   2.631 -0.6865  0.6755  0.3528
    2PMMA   O19  467   1.814   1.926   2.733  0.1747  0.4366  0.2697
    2PMMA  OS20  468   1.962   2.033   2.609  0.6172 -0.0718 -0.0111
    2PMMA  CE21  469   2.005   2.128   2.708  0.7858 -0.0536  0.0845
    2PMMA  CX22  470   1.837   1.937   2.383  0.9592  0.5153 -0.9398
    2PMMA  CA23  471   1.707   2.032   2.358 -0.0694 -0.0790  0.2089
    2PMMA  CX24  472   1.680   2.129   2.474  0.1956  0.0970  0.2835
    2PMMA   C25  473   1.586   1.950   2.309 -0.0112 -0.0986  0.0878
    2PMMA   O26  474   1.593   1.839   2.260  0.5373  0.1010 -0.2391
    2PMMA  OS27  475   1.467   2.005   2.345  0.6008 -0.2841 -0.1365
    2PMMA  CE28  476   1.346   1.934   2.320  0.0606  0.3979 -0.6127
    2PMMA  CX29  477   1.730   2.126   2.239  0.1928 -0.0250 -0.0185
    2PMMA  HC30  478   2.347   1.403   2.304 -1.0960 -1.9685  1.6224
    2PMMA  HC31  479   2.446   1.515   2.401 -0.5065  0.8322  2.1486
    2PMMA  HC32  480   2.339   1.402   2.480  0.0062 -0.1557 -0.7287
    2PMMA  HC33  481   2.127   1.672   2.221 -0.3824  1.5287  2.1738
    2PMMA  HC34  482   2.245   1.566   2.172 -3.8845 -1.1273 -0.5744
    2PMMA  HC35  483   2.297   1.716   2.252  0.2452 -0.4462  0.3496
    2PMMA  H136  484   1.867   1.395   2.165 -1.0626 -0.1396  0.1926
    2PMMA  H137  485   1.836   1.438   2.332  2.0247 -0.1345  2.5890
    2PMMA  H138  486   1.917   1.283   2.301  0.1647  0.7830  2.1363
    2PMMA  HC39  487   2.199   1.579   2.588 -1.2668 -0.1523 -0.7155
    2PMMA  HC40  488   2.319   1.685   2.528  0.0996 -0.2865 -0.7702
    2PMMA  HC41  489   2.275   1.898   2.412 -0.0187  1.9278 -2.3343
    2PMMA  HC42  490   2.121   1.875   2.316 -3.4950  1.9059  1.3766
    2PMMA  HC43  491   2.134   1.978   2.441  0.2369  0.4515  1.0743
    2PMMA  H144  492   2.230   1.703   2.907 -0.9431 -2.0683  0.1456
    2PMMA  H145  493   2.070   1.663   2.934 -0.0406 -1.4232 -0.3913
    2PMMA  H146  494   2.118   1.841   2.936 -1.7601 -1.6397  4.2129
    2PMMA  HC47  495   1.963   1.685   2.396 -1.7915 -0.5533  0.7692
    2PMMA  HC48  496   1.945   1.647   2.561 -1.6132  0.7610 -0.5724
    2PMMA  HC49  497   1.701   1.703   2.440  0.8055  1.4258 -1.2445
    2PMMA  HC50  498   1.636   1.830   2.546 -0.9937 -0.0310 -4.3852
    2PMMA  HC51  499   1.731   1.693   2.607  0.9877  1.6516  2.2544
    2PMMA  H152  500   2.042   2.072   2.794 -0.3615  0.2726  0.7935
    2PMMA  H153  501   1.917   2.186   2.734  0.6565 -0.5589  0.8135
    2PMMA  H154  502   2.090   2.189   2.677  1.4779 -2.3844 -2.8285
    2PMMA  HC55  503   1.930   1.993   2.369  2.0002 -1.5318 -2.5117
    2PMMA  HC56  504   1.837   1.867   2.299  1.3747 -1.2736  0.5032
    2PMMA  HC57  505   1.776   2.181   2.484  0.7778 -0.8665 -0.1938
    2PMMA  HC58  506   1.609   2.210   2.454  2.0823  1.2533 -2.0131
    2PMMA  HC59  507   1.651   2.075   2.564 -0.6156  1.7827  1.0677
    2PMMA  H160  508   1.324   1.897   2.219 -0.4876 -1.6942  0.2608
    2PMMA  H161  509   1.264   2.003   2.342 -0.5535  0.0018 -1.6389
    2PMMA  H162  510   1.346   1.847   2.386 -0.1585  1.5012  0.8673
    2PMMA  HC63  511   1.804   2.203   2.261  0.8491  0.1997 -2.8035
    2PMMA  HC64  512   1.765   2.068   2.152 -0.8177 -0.1447 -0.3529
    2PMMA  HC65  513   1.639   2.173   2.200 -2.0694 -3.4788  0.8729
    3HFI     O1  514   1.366   2.864   0.394 -0.1508  0.4564  0.6955
    3HFI     C1  515   1.376   3.000   0.440  0.7360  0.3459 -0.0319
    3HFI     C2  516   1.353   3.109   0.322  0.2918  0.3766  0.0889
    3HFI     F1  517   1.470   3.128   0.253 -0.0791  0.1237 -0.0888
    3HFI     F2  518   1.313   3.220   0.373  0.4763 -0.0087  0.2411
    3HFI     F3  519   1.261   3.065   0.234 -0.0266 -0.0767  0.2665
    3HFI     C3  520   1.510   3.020   0.511 -0.2644 -0.6617 -0.6920
    3HFI     F4  521   1.548   3.155   0.517  0.1734  0.2037 -0.1582
    3HFI     F5  522   1.603   2.950   0.447  0.3432  0.3459 -0.5278
    3HFI     F6  523   1.505   2.974   0.638 -0.3392  0.3319 -0.1093
    3HFI     H1  524   1.457   2.836   0.373 -0.4103  0.8731 -1.1339
    3HFI     H2  525   1.297   3.026   0.511 -1.2492  0.7113 -2.2916
    4HFI     O1  526   1.771   0.537   3.100  0.4723 -1.0718 -0.2547
    4HFI     C1  527   1.795   0.396   3.111  0.5245  0.3657 -0.3894
    4HFI     C2  528   1.701   0.321   3.211 -0.3787 -0.4478  0.6686
    4HFI     F1  529   1.575   0.364   3.191  0.1559 -0.3017 -0.0117
    4HFI     F2  530   1.745   0.339   3.338  0.2452 -0.2039  0.0148
    4HFI     F3  531   1.692   0.188   3.186 -0.2748  0.1087  0.4364
    4HFI     C3  532   1.950   0.362   3.134  0.5199  0.6531 -0.3164
    4HFI     F4  533   2.018   0.357   3.019 -0.2301  0.2101  0.2315
    4HFI     F5  534   1.966   0.233   3.175  0.2757  0.3717 -0.0704
    4HFI     F6  535   2.013   0.439   3.222 -0.4051  0.0211  0.4330
    4HFI     H1  536   1.689   0.549   3.047 -0.1051 -0.0062  0.8625
    4HFI     H2  537   1.768   0.354   3.013  3.0552  0.0827 -1.0174
    5HFI     O1  538   0.724   1.247   0.197 -0.8875 -0.6691  0.2300
    5HFI     C1  539   0.766   1.283   0.330  0.7122 -0.3173  0.3795
    5HFI     C2  540   0.829   1.158   0.399 -0.1213  0.0192 -0.2105
    5HFI     F1  541   0.940   1.117   0.323  0.2464  0.3327 -0.2737
    5HFI     F2  542   0.740   1.053   0.415 -0.5778  0.9205  0.5181
    5HFI     F3  543   0.866   1.188   0.528  0.3891 -0.0096  0.4734
    5HFI     C3  544   0.658   1.370   0.413 -0.0730  0.0225 -0.0295
    5HFI     F4  545   0.541   1.304   0.429  0.6322  0.5115  0.0088
    5HFI     F5  546   0.632   1.486   0.348  0.2844  0.1139 -0.1212
    5HFI     F6  547   0.708   1.407   0.535 -0.5490  0.2038 -0.1408
    5HFI     H1  548   0.672   1.165   0.195 -1.9437  0.0061 -0.8507
    5HFI     H2  549   0.845   1.357   0.316 -0.1930  0.2225 -2.1616
    6HFI     O1  550   0.159   2.997   1.214  0.3924  0.5018 -0.0331
    6HFI     C1  551   0.145   2.935   1.081  0.7951  0.0080  0.7343
    6HFI     C2  552   0.003   2.874   1.057  0.6296 -0.0836  1.1921
    6HFI     F1  553  -0.016   2.843   0.924  0.1940  0.4272  0.0279
    6HFI     F2  554  -0.099   2.954   1.098  0.2715 -0.0684 -0.2505
    6HFI     F3  555  -0.009   2.757   1.121  0.3721 -0.6145  0.1426
    6HFI     C3  556   0.267   2.846   1.043 -0.3539  0.1932  0.2734
    6HFI     F4  557   0.278   2.736   1.118  0.7090 -0.0728  0.0667
    6HFI     F5  558   0.379   2.932   1.049  0.2422 -0.2526  0.1083
    6HFI     F6  559   0.261   2.810   0.912  0.0525  0.1225 -0.9004
    6HFI     H1  560   0.082   3.049   1.242  0.1632 -0.0451  0.3678
    6HFI     H2  561   0.154   3.017   1.009  1.6337 -0.7532 -0.0413
    7HFI     O1  562   1.616   1.019   0.450 -0.7190 -0.2168  0.5765
    7HFI     C1  563   1.740   1.016   0.530  0.4755 -0.3760  0.2096
    7HFI     C2  564   1.806   1.154   0.510 -0.5304 -0.0166  1.4102
    7HFI     F1  565   1.858   1.166   0.389  0.3651 -0.3711  0.5077
    7HFI     F2  566   1.903   1.177   0.604  0.3362  0.0243 -0.1151
    7HFI     F3  567   1.721   1.257   0.522 -0.0248 -0.2880  0.4496
    7HFI     C3  568   1.838   0.897   0.491 -0.4514 -0.7604 -0.3685
    7HFI     F4  569   1.875   0.895   0.359 -0.1726  0.2740  0.0472
    7HFI     F5  570   1.774   0.786   0.533 -0.1305 -0.0537 -0.6980
    7HFI     F6  571   1.946   0.900   0.575  0.1318 -0.5052  0.3420
    7HFI     H1  572   1.644   1.017   0.357 -0.8712 -1.0961  0.5455
    7HFI     H2  573   1.720   1.012   0.638 -3.3890  0.2921 -0.4430
    8HFI     O1  574   1.709   1.463   0.825  0.0983 -0.2046  0.5378
    8HFI     C1  575   1.611   1.464   0.932  0.4119 -0.1647 -0.4085
    8HFI     C2  576   1.465   1.448   0.892 -0.1006  0.2834 -0.1419
    8HFI     F1  577   1.378   1.446   0.997 -0.1283 -0.3976 -0.5197
    8HFI     F2  578   1.458   1.331   0.826 -0.2214 -0.1140  0.2664
    8HFI     F3  579   1.422   1.549   0.811 -0.3182  0.2452  0.4130
    8HFI     C3  580   1.633   1.590   1.023 -0.3431  0.4231  0.1427
    8HFI     F4  581   1.608   1.697   0.949  0.2707 -0.4763 -0.3560
    8HFI     F5  582   1.760   1.598   1.056 -0.4708 -0.0132 -0.0754
    8HFI     F6  583   1.562   1.597   1.135  0.2967  0.4178  0.2253
    8HFI     H1  584   1.727   1.546   0.777 -0.5332  0.0708  0.7652
    8HFI     H2  585   1.628   1.375   0.993  0.4155  1.0172  1.3437
    9HFI     O1  586   3.189   2.568   1.387 -0.5346  0.7264  0.4988
    9HFI     C1  587   3.132   2.497   1.499 -0.2582  0.5034 -0.1936
    9HFI     C2  588   3.166   2.344   1.487 -0.2111  0.6497  0.5660
    9HFI     F1  589   3.135   2.299   1.365  0.5851  0.6577 -0.0204
    9HFI     F2  590   3.104   2.272   1.586 -0.5123 -0.2098 -0.6508
    9HFI     F3  591   3.297   2.319   1.500 -0.0774 -0.8274  0.2098
    9HFI     C3  592   2.975   2.530   1.508  0.1999 -0.0451  0.4029
    9HFI     F4  593   2.954   2.651   1.551 -0.2790 -0.4279  0.1144
    9HFI     F5  594   2.913   2.447   1.598 -0.2733 -0.1699 -0.8259
    9HFI     F6  595   2.911   2.515   1.392 -0.2424 -0.0945  0.1402
    9HFI     H1  596   3.275   2.534   1.358 -0.3766  0.4577  1.2838
    9HFI     H2  597   3.181   2.527   1.592 -0.9648 -2.1507  1.0800
   10HFI     O1  598   2.996   2.699   0.346 -0.8735  0.2554  0.2780
   10HFI     C1  599   3.029   2.729   0.485 -0.0535 -0.4490  0.4198
   10HFI     C2  600   3.174   2.694   0.524  0.7809 -0.2338 -0.0803
   10HFI     F1  601   3.214   2.747   0.642 -0.2064 -0.2238  0.1050
   10HFI     F2  602   3.265   2.732   0.430  0.5525  0.5929 -0.3001
   10HFI     F3  603   3.192   2.558   0.536 -0.5205 -0.2777  0.2464
   10HFI     C3  604   2.918   2.677   0.583  0.4969  0.3151  0.0650
   10HFI     F4  605   2.810   2.754   0.566  0.4860 -0.3773 -0.3461
   10HFI     F5  606   2.960   2.685   0.715 -0.1003  0.2014  0.1248
   10HFI     F6  607   2.883   2.551   0.550  0.0970  0.1126 -0.0886
   10HFI     H1  608   2.972   2.605   0.334 -1.4286  0.4611 -0.2500
   10HFI     H2  609   3.029   2.838   0.499  1.8318  0.1502 -3.5267
   11HFI     O1  610   0.453   2.195   3.292 -0.6264 -0.4742  0.3950
   11HFI     C1  611   0.525   2.273   3.402 -0.7724  0.2966  0.0524
   11HFI     C2  612   0.483   2.418   3.400  0.6362 -0.7052 -0.4428
   11HFI     F1  613   0.517   2.481   3.521 -0.1295  0.3651  0.2198
   11HFI     F2  614   0.351   2.428   3.387  0.3801 -0.0279 -0.1005
   11HFI     F3  615   0.544   2.493   3.309  0.3896  0.3541 -0.1677
   11HFI     C3  616   0.682   2.246   3.399 -0.3134 -0.5389 -0.3013
   11HFI     F4  617   0.720   2.130   3.458  0.2746 -0.0610  0.5597
   11HFI     F5  618   0.749   2.338   3.467  0.3616  0.0060 -0.5628
   11HFI     F6  619   0.729   2.250   3.269  0.3673  0.1029 -0.0931
   11HFI     H1  620   0.459   2.242   3.207  2.2882  0.6523  1.1483
   11HFI     H2  621   0.491   2.239   3.501  0.9245  1.6256  1.0980
   12HFI     O1  622   2.852   1.485   0.479  0.3583 -0.1722  0.2638
   12HFI     C1  623   2.983   1.440   0.428  0.3744 -0.3246 -0.5455
   12HFI     C2  624   2.991   1.280   0.432  0.1253  0.2934 -0.2990
   12HFI     F1  625   3.107   1.238   0.393 -0.3839 -0.4017 -0.2921
   12HFI     F2  626   2.902   1.228   0.350 -0.6747  0.2520  0.2892
   12HFI     F3  627   2.979   1.232   0.550  0.3769  0.1831 -0.2859
   12HFI     C3  628   3.090   1.507   0.516  0.3168  0.7558  0.0035
   12HFI     F4  629   3.077   1.641   0.521 -0.1402 -0.1679  0.5169
   12HFI     F5  630   3.209   1.492   0.449 -0.1278  0.2844  0.6631
   12HFI     F6  631   3.098   1.451   0.641 -0.1158  0.3664  0.0714
   12HFI     H1  632   2.786   1.473   0.409  1.0662 -0.6257 -0.3370
   12HFI     H2  633   2.994   1.470   0.323 -1.8824  2.2294 -0.1089
   13HFI     O1  634   3.333   3.078   1.361 -0.3688 -0.9060  0.3254
   13HFI     C1  635   3.186   3.045   1.402  0.4930  0.6435 -0.1869
   13HFI     C2  636   3.083   3.144   1.343  0.5969  0.6908 -0.2310
   13HFI     F1  637   3.112   3.273   1.373  0.1697 -0.4162  0.0727
   13HFI     F2  638   2.956   3.120   1.386 -0.5217  0.3539 -0.2804
   13HFI     F3  639   3.087   3.121   1.209  0.0450  0.5405  0.2532
   13HFI     C3  640   3.175   3.024   1.549  0.3031  0.4296  0.4251
   13HFI     F4  641   3.080   2.935   1.578 -0.1139  0.3956  0.3940
   13HFI     F5  642   3.143   3.137   1.619  0.5948  0.0167  0.2802
   13HFI     F6  643   3.304   2.979   1.589  0.0310  0.0683  0.0406
   13HFI     H1  644   3.367   3.156   1.408 -1.0765 -1.8752  2.5411
   13HFI     H2  645   3.167   2.945   1.360  2.3309  0.9657 -1.8804
   14HFI     O1  646   0.268   2.355   0.671  0.1749  0.1418 -0.2882
   14HFI     C1  647   0.284   2.409   0.546 -0.1362  0.5850  0.3877
   14HFI     C2  648   0.170   2.498   0.516 -0.5390  0.0622 -0.0607
   14HFI     F1  649   0.195   2.578   0.414 -0.2052  0.4103 -0.1506
   14HFI     F2  650   0.146   2.574   0.622 -0.0906 -0.6438  0.0686
   14HFI     F3  651   0.053   2.431   0.500 -0.1416  0.0969 -0.1277
   14HFI     C3  652   0.301   2.298   0.439 -0.2649 -0.2117  0.4338
   14HFI     F4  653   0.333   2.346   0.316  0.3070  0.3988 -0.3887
   14HFI     F5  654   0.195   2.216   0.426 -0.1383  0.1072  0.2109
   14HFI     F6  655   0.401   2.224   0.481 -0.6688  0.2194 -0.6949
   14HFI     H1  656   0.189   2.298   0.669  0.2622  0.0549 -1.3129
   14HFI     H2  657   0.377   2.467   0.543 -0.2340  0.8184  1.5337
   15HFI     O1  658   3.190   0.705   1.506 -0.1513  0.4908 -0.6304
   15HFI     C1  659   3.277   0.783   1.420 -1.0231  0.2504  0.2431
   15HFI     C2  660   3.431   0.769   1.457  0.3259 -0.1787 -0.2795
   15HFI     F1  661   3.451   0.643   1.497 -0.2304 -0.7476  0.0284
   15HFI     F2  662   3.463   0.848   1.563 -0.4866 -0.2735  0.4169
   15HFI     F3  663   3.515   0.803   1.360  0.0713 -0.6260 -0.7653
   15HFI     C3  664   3.228   0.929   1.396 -0.2690 -0.9803 -0.4305
   15HFI     F4  665   3.328   1.010   1.342  0.5865  0.0731  0.2012
   15HFI     F5  666   3.198   0.988   1.515  0.1226 -0.1361 -0.0733
   15HFI     F6  667   3.119   0.933   1.312  0.2046  0.1818  0.1517
   15HFI     H1  668   3.243   0.668   1.579 -1.3978 -1.6663 -0.7782
   15HFI     H2  669   3.271   0.746   1.317  1.7345  0.3288  0.0137
   16HFI     O1  670   0.287   1.227   0.443  0.3996  0.1987  0.4954
   16HFI     C1  671   0.246   1.159   0.313  0.0487 -0.1675  0.1394
   16HFI     C2  672   0.276   1.244   0.190 -0.1950 -0.0976 -0.6802
   16HFI     F1  673   0.278   1.172   0.082 -0.0997 -0.3292  0.0243
   16HFI     F2  674   0.401   1.302   0.203  0.5672 -0.1987  0.4115
   16HFI     F3  675   0.185   1.337   0.164  0.4943 -0.5340 -0.1910
   16HFI     C3  676   0.102   1.095   0.324  0.7259  0.2347  0.0591
   16HFI     F4  677   0.010   1.177   0.381 -0.2793 -0.2402  0.2195
   16HFI     F5  678   0.102   0.984   0.408  0.5216 -0.1648 -0.6049
   16HFI     F6  679   0.063   1.057   0.203  0.3196 -0.2231 -0.3071
   16HFI     H1  680   0.370   1.276   0.432  0.7577 -0.8128 -1.6797
   16HFI     H2  681   0.305   1.068   0.294  0.3679  0.1501 -0.4141
   17HFI     O1  682   0.548   1.408   1.304 -0.6505  0.3061 -0.1574
   17HFI     C1  683   0.672   1.458   1.379 -0.1497  0.6971 -0.0045
   17HFI     C2  684   0.650   1.467   1.532 -0.2823 -0.2808  0.0960
   17HFI     F1  685   0.762   1.496   1.593  0.5504 -0.5531  0.2578
   17HFI     F2  686   0.602   1.350   1.577 -0.3523  0.4251  0.4663
   17HFI     F3  687   0.559   1.564   1.569 -0.1471  0.4469  0.0972
   17HFI     C3  688   0.712   1.597   1.318 -0.3018 -0.3617  0.1718
   17HFI     F4  689   0.603   1.683   1.316 -0.1687 -0.0488 -0.0575
   17HFI     F5  690   0.746   1.570   1.186  0.2659 -0.2908 -0.0625
   17HFI     F6  691   0.817   1.650   1.380  0.2411 -0.4763  0.4255
   17HFI     H1  692   0.479   1.475   1.295  0.1350  0.7644 -3.6048
   17HFI     H2  693   0.763   1.399   1.362  0.0080  0.7766  0.5638
   18HFI     O1  694   2.802   0.728   3.724 -0.1169 -0.3320 -0.0321
   18HFI     C1  695   2.668   0.801   3.736 -0.1842 -0.5753  0.2343
   18HFI     C2  696   2.600   0.766   3.866 -0.0538 -0.9521  0.3082
   18HFI     F1  697   2.600   0.634   3.885 -0.1521  0.5943  0.0695
   18HFI     F2  698   2.475   0.814   3.883 -0.1561  0.7347  0.9062
   18HFI     F3  699   2.673   0.817   3.970  0.2652  0.0600 -0.0679
   18HFI     C3  700   2.587   0.754   3.615 -0.2020  0.4257 -0.2156
   18HFI     F4  701   2.584   0.618   3.600 -0.5181 -0.4463  0.0506
   18HFI     F5  702   2.655   0.805   3.512 -0.1623 -0.2741 -0.1586
   18HFI     F6  703   2.459   0.807   3.613 -0.1207 -0.0334 -0.0685
   18HFI     H1  704   2.778   0.638   3.750  2.7194 -0.7744  1.2019
   18HFI     H2  705   2.671   0.909   3.716 -1.9581 -0.7655 -1.1662
   19HFI     O1  706   0.076   2.945   0.277  0.0182  0.2601  0.3719
   19HFI     C1  707   0.129   2.979   0.407 -0.5757 -0.7383  0.0122
   19HFI     C2  708   0.046   3.094   0.465 -0.1618  0.8228  0.1099
   19HFI     F1  709  -0.084   3.070   0.455 -0.2251 -0.3543  0.1128
   19HFI     F2  710   0.063   3.207   0.405 -0.2189 -0.3988  0.4706
   19HFI     F3  711   0.078   3.105   0.598  0.0290 -0.1108  0.3007
   19HFI     C3  712   0.279   3.017   0.399 -0.3701  0.8796  0.0634
   19HFI     F4  713   0.306   3.131   0.331  0.3356  0.1812 -0.9185
   19HFI     F5  714   0.347   2.918   0.333 -0.0245 -0.0363 -0.4962
   19HFI     F6  715   0.333   3.026   0.520 -0.1074 -0.4592 -0.2357
   19HFI     H1  716   0.025   3.020   0.241  0.2229 -0.4884 -1.5671
   19HFI     H2  717   0.132   2.901   0.483 -0.7033 -0.3616  0.4089
   20HFI     O1  718   2.185   3.399   1.491  0.2956  0.5388  1.3255
   20HFI     C1  719   2.088   3.306   1.545  0.1187 -0.5122  0.1899
   20HFI     C2  720   2.116   3.167   1.485 -0.0515  0.3731 -0.5574
   20HFI     F1  721   2.231   3.119   1.544 -0.6450 -0.0682  0.0707
   20HFI     F2  722   2.134   3.168   1.355 -0.0278  0.0563  0.0998
   20HFI     F3  723   2.016   3.077   1.511  0.2580 -0.1783  0.2769
   20HFI     C3  724   1.937   3.348   1.511 -0.0361  0.5302  0.3040
   20HFI     F4  725   1.854   3.265   1.570 -0.1296 -0.3482 -0.3158
   20HFI     F5  726   1.913   3.346   1.373 -0.4031  0.2074  0.0184
   20HFI     F6  727   1.911   3.471   1.551 -0.1997 -0.7513  0.0659
   20HFI     H1  728   2.264   3.353   1.459 -0.4988 -0.1044  0.2346
   20HFI     H2  729   2.109   3.292   1.652  2.8104 -1.0279 -0.3504
   21HFI     O1  730   1.720   3.193   3.581  0.4663  0.1944 -0.1456
   21HFI     C1  731   1.625   3.093   3.631  0.1711 -0.5602 -0.9369
   21HFI     C2  732   1.479   3.152   3.639  0.8245  0.4003  0.0218
   21HFI     F1  733   1.459   3.232   3.536  0.0519  0.0452  0.5674
   21HFI     F2  734   1.443   3.218   3.749 -0.5596 -0.2843  0.2403
   21HFI     F3  735   1.393   3.043   3.623 -0.0692 -0.4257  0.2646
   21HFI     C3  736   1.664   3.034   3.770  0.1128  0.6465 -0.0222
   21HFI     F4  737   1.689   3.128   3.859 -0.7263  0.6148 -0.2180
   21HFI     F5  738   1.777   2.964   3.756  0.2498  0.4865 -0.4438
   21HFI     F6  739   1.573   2.950   3.822  0.0188  0.0982 -0.0091
   21HFI     H1  740   1.742   3.244   3.661 -0.2974 -1.0531  0.8909
   21HFI     H2  741   1.620   3.008   3.562 -0.6698 -0.2876 -1.2094
   22HFI     O1  742   0.560   0.728   0.536 -0.0154 -0.4421 -0.0422
   22HFI     C1  743   0.703   0.734   0.515  0.8216 -0.6609  0.0801
   22HFI     C2  744   0.746   0.632   0.400  0.5653  0.3180  0.1806
   22HFI     F1  745   0.753   0.511   0.455  0.0330 -0.3254  0.2731
   22HFI     F2  746   0.872   0.661   0.360  0.0654  0.3504 -0.0327
   22HFI     F3  747   0.680   0.632   0.287 -0.0780  0.5127  0.6372
   22HFI     C3  748   0.771   0.708   0.656 -0.0388  0.9162 -0.7125
   22HFI     F4  749   0.900   0.716   0.662  0.2769  0.5536 -0.3286
   22HFI     F5  750   0.741   0.592   0.707  0.5371  0.2089 -0.2699
   22HFI     F6  751   0.728   0.795   0.745 -0.0861  0.3931 -0.4903
   22HFI     H1  752   0.544   0.759   0.627 -1.4585  1.9282 -1.0404
   22HFI     H2  753   0.727   0.834   0.478 -2.5737  0.1303 -0.1385
   23HFI     O1  754   1.836   0.513   0.664  0.1932 -0.2882 -0.2288
   23HFI     C1  755   1.710   0.459   0.621 -0.5619 -0.5848  0.5574
   23HFI     C2  756   1.637   0.401   0.742  0.0555  0.3033 -0.2679
   23HFI     F1  757   1.650   0.265   0.752  0.3061 -0.1718  0.0638
   23HFI     F2  758   1.504   0.430   0.737 -0.1567 -0.3945 -0.0466
   23HFI     F3  759   1.684   0.462   0.857 -0.7366  0.1258  0.1378
   23HFI     C3  760   1.730   0.356   0.510 -0.1836  0.3583 -0.2259
   23HFI     F4  761   1.778   0.423   0.396 -0.2650 -0.0500 -0.5607
   23HFI     F5  762   1.609   0.310   0.463 -0.7707  0.3630 -1.0145
   23HFI     F6  763   1.816   0.257   0.545 -0.1230 -0.0571 -0.2100
   23HFI     H1  764   1.831   0.545   0.755 -2.0498  1.9387 -1.0567
   23HFI     H2  765   1.644   0.536   0.580  0.9125 -0.0382 -0.8659
   24HFI     O1  766   2.158   1.591   1.168 -0.1403  0.2352  0.7209
   24HFI     C1  767   2.146   1.693   1.266  0.3956 -0.6907 -0.0440
   24HFI     C2  768   2.044   1.657   1.374  0.4820 -0.3630  0.5666
   24HFI     F1  769   1.919   1.664   1.326 -0.2218 -0.1585 -0.5328
   24HFI     F2  770   2.053   1.720   1.488 -0.3115 -0.5409  0.1203
   24HFI     F3  771   2.058   1.529   1.407 -0.3111 -0.2827 -0.3998
   24HFI     C3  772   2.114   1.825   1.201 -0.3845  0.2622 -0.4534
   24HFI     F4  773   2.029   1.802   1.096  0.0522 -0.4247 -0.2040
   24HFI     F5  774   2.216   1.891   1.157 -0.1066 -0.1268 -0.0188
   24HFI     F6  775   2.051   1.916   1.284 -0.3102 -0.3069 -0.0535
   24HFI     H1  776   2.101   1.619   1.094 -0.9522  1.2579  1.7101
   24HFI     H2  777   2.245   1.702   1.312 -0.6695  0.4416  2.1091
   25HFI     O1  778   3.077   2.548   2.901 -1.0283  0.2191  0.5525
   25HFI     C1  779   3.170   2.435   2.912 -0.4662 -0.2305 -0.2101
   25HFI     C2  780   3.312   2.485   2.879  0.4348 -0.3144  0.0514
   25HFI     F1  781   3.353   2.590   2.956  0.8461 -0.2711 -0.5229
   25HFI     F2  782   3.297   2.538   2.751 -0.5661  0.3970 -0.6989
   25HFI     F3  783   3.406   2.393   2.886  0.4100  0.0255 -0.5781
   25HFI     C3  784   3.128   2.302   2.831 -0.4405 -0.1584 -0.3082
   25HFI     F4  785   3.219   2.204   2.845  0.4301  0.4441  0.1378
   25HFI     F5  786   3.099   2.321   2.703  0.2446  0.3537  0.0930
   25HFI     F6  787   3.019   2.249   2.886 -0.1720  0.4114  0.0452
   25HFI     H1  788   3.082   2.590   2.814 -0.0435 -1.5030 -0.2526
   25HFI     H2  789   3.183   2.399   3.015  2.2755 -0.8861 -0.7248
   26HFI     O1  790   2.231   3.040   2.992 -0.4928  0.1641  0.1089
   26HFI     C1  791   2.232   3.151   2.899 -0.2695 -0.7523  0.2858
   26HFI     C2  792   2.274   3.095   2.759  0.2210  0.0205 -0.9851
   26HFI     F1  793   2.398   3.043   2.765  1.3466  0.2621 -0.0544
   26HFI     F2  794   2.275   3.185   2.664  0.0855  0.1644 -0.1813
   26HFI     F3  795   2.192   2.995   2.722 -0.3024  0.4401  0.0129
   26HFI     C3  796   2.323   3.261   2.949  0.4588  0.3508 -0.3320
   26HFI     F4  797   2.446   3.222   2.987  0.2224  0.6175  0.1955
   26HFI     F5  798   2.273   3.316   3.067 -0.7892  0.0521  0.4222
   26HFI     F6  799   2.333   3.357   2.854 -0.2402  0.2531  0.2735
   26HFI     H1  800   2.318   2.999   3.009 -0.5082  0.6284  1.3085
   26HFI     H2  801   2.130   3.191   2.886  0.8307  1.4145 -1.8779
   27HFI     O1  802   3.233   0.544   3.634 -0.2149 -0.3954  0.4539
   27HFI     C1  803   3.325   0.511   3.752 -0.5748 -0.2593  0.1931
   27HFI     C2  804   3.243   0.422   3.855  0.5803 -0.0132 -0.9429
   27HFI     F1  805   3.326   0.362   3.946  0.1329 -0.0308  0.2237
   27HFI     F2  806   3.176   0.320   3.796  0.1906 -0.2446  0.5132
   27HFI     F3  807   3.145   0.507   3.912  0.3060 -0.5821 -0.3720
   27HFI     C3  808   3.395   0.645   3.802 -0.3245  0.0979 -0.3471
   27HFI     F4  809   3.462   0.633   3.918  0.2371  0.1828 -0.1400
   27HFI     F5  810   3.308   0.747   3.812 -0.3487  0.2250 -0.4352
   27HFI     F6  811   3.484   0.680   3.705 -0.4127 -0.1090 -0.4158
   27HFI     H1  812   3.159   0.604   3.656  1.1106  1.3115  0.3771
   27HFI     H2  813   3.395   0.429   3.731  0.6521  0.4902  1.2864
   28HFI     O1  814   2.602   1.264   2.894  0.0405 -0.1636 -0.6522
   28HFI     C1  815   2.470   1.329   2.918 -0.1191  0.1593  0.6496
   28HFI     C2  816   2.427   1.436   2.814  1.0184 -0.0219  0.0682
   28HFI     F1  817   2.457   1.562   2.843 -0.3837  0.0531 -0.0560
   28HFI     F2  818   2.290   1.429   2.791 -0.0072 -0.0363 -0.2720
   28HFI     F3  819   2.488   1.406   2.700 -0.2773 -0.2294  0.3784
   28HFI     C3  820   2.446   1.387   3.064 -0.3241 -0.2657  0.4490
   28HFI     F4  821   2.457   1.283   3.153 -0.1075 -0.0498  0.1962
   28HFI     F5  822   2.324   1.442   3.073 -0.4406 -0.1266 -0.0914
   28HFI     F6  823   2.533   1.485   3.109 -0.0266  0.0171  0.1421
   28HFI     H1  824   2.616   1.242   2.800 -0.0276  0.5160 -0.8279
   28HFI     H2  825   2.396   1.248   2.911 -1.9378  1.8733 -0.5649
   29HFI     O1  826   2.474   0.408   1.593 -0.1829 -0.6892  0.1917
   29HFI     C1  827   2.400   0.428   1.475 -0.0898 -0.4400 -0.6687
   29HFI     C2  828   2.316   0.562   1.474  0.0942  0.7908  0.4977
   29HFI     F1  829   2.258   0.594   1.351  0.0299  0.0210 -0.0683
   29HFI     F2  830   2.393   0.667   1.503  0.4360  0.0958  0.0766
   29HFI     F3  831   2.216   0.558   1.570 -0.1424 -0.3831 -0.4635
   29HFI     C3  832   2.311   0.306   1.443  0.6513 -0.0036 -0.8209
   29HFI     F4  833   2.252   0.311   1.325  1.0570 -0.5676  0.0906
   29HFI     F5  834   2.219   0.288   1.546 -0.0908  0.0238 -0.0441
   29HFI     F6  835   2.396   0.199   1.436 -0.0765 -0.1197 -0.5113
   29HFI     H1  836   2.411   0.387   1.664  1.2155 -0.3329  1.5561
   29HFI     H2  837   2.468   0.430   1.389  0.5879  0.4973 -0.1259
   30HFI     O1  838   2.937   2.146   0.088 -0.0801 -0.1192  0.1302
   30HFI     C1  839   3.032   2.088   0.001 -0.3558  0.0031 -0.3064
   30HFI     C2  840   3.080   1.943   0.046 -0.0554 -0.0102  0.7280
   30HFI     F1  841   3.139   1.874  -0.056  0.3015 -0.1808 -0.8359
   30HFI     F2  842   2.971   1.871   0.088  0.2227 -0.0720 -0.1268
   30HFI     F3  843   3.172   1.950   0.155  0.0854  0.2923  0.1465
   30HFI     C3  844   3.146   2.186  -0.036 -0.8112  0.0842  0.7290
   30HFI     F4  845   3.220   2.136  -0.133 -0.2185  0.6115 -0.3368
   30HFI     F5  846   3.227   2.213   0.071  0.4343 -0.1362 -0.8895
   30HFI     F6  847   3.107   2.312  -0.086 -0.3571 -0.0732 -0.4111
   30HFI     H1  848   2.872   2.076   0.101 -2.4596  1.9158 -0.4174
   30HFI     H2  849   2.993   2.063  -0.099 -1.6741  0.5809  0.0623
   31HFI     O1  850   2.225   0.973   1.484  0.2099  0.3165 -0.0429
   31HFI     C1  851   2.088   0.992   1.428  0.2336 -0.2741 -0.1666
   31HFI     C2  852   2.048   1.147   1.443  0.0946  0.6926  0.7429
   31HFI     F1  853   2.032   1.179   1.570 -0.0252 -0.1437 -0.1577
   31HFI     F2  854   1.935   1.169   1.379 -0.0856 -0.5690 -0.7824
   31HFI     F3  855   2.134   1.232   1.384  0.2478 -0.5325  0.1561
   31HFI     C3  856   1.980   0.893   1.482  0.0802  0.0550  0.0518
   31HFI     F4  857   2.033   0.768   1.500  0.5827 -0.0303 -0.0052
   31HFI     F5  858   1.871   0.889   1.404  0.1910 -0.2998 -0.0104
   31HFI     F6  859   1.946   0.923   1.614  0.5033 -0.3586 -0.1296
   31HFI     H1  860   2.235   0.878   1.505  1.6970  0.8782  1.9627
   31HFI     H2  861   2.089   0.968   1.321  1.4184  0.2065 -0.2692
   32HFI     O1  862   0.614   1.867   0.261  0.2863 -0.7596 -0.1223
   32HFI     C1  863   0.674   1.931   0.385 -0.1716 -0.2934 -0.1253
   32HFI     C2  864   0.812   1.996   0.371 -0.1577 -0.4649  0.0712
   32HFI     F1  865   0.917   1.908   0.350  0.1189 -0.0804  0.4137
   32HFI     F2  866   0.844   2.072   0.475 -0.4181 -0.0412  0.1067
   32HFI     F3  867   0.817   2.072   0.255 -0.3985 -0.0632 -0.6627
   32HFI     C3  868   0.668   1.836   0.511 -0.1036 -0.0480  0.8092
   32HFI     F4  869   0.539   1.807   0.541 -0.8956  0.1995 -0.2026
   32HFI     F5  870   0.735   1.898   0.612 -0.0499  0.0852  0.3087
   32HFI     F6  871   0.731   1.718   0.482  0.0583 -0.1919 -0.3719
   32HFI     H1  872   0.604   1.934   0.191 -0.0945 -0.0616  0.5761
   32HFI     H2  873   0.606   2.013   0.410  0.8135  0.4428  0.1406
   33HFI     O1  874   3.069   0.781   0.655  0.4425 -0.0404 -0.2045
   33HFI     C1  875   2.983   0.773   0.537 -0.0915 -0.3629 -0.3372
   33HFI     C2  876   2.848   0.715   0.575 -0.5790 -0.5099  0.1518
   33HFI     F1  877   2.780   0.800   0.658 -0.1798  0.8273 -0.4594
   33HFI     F2  878   2.859   0.593   0.633 -0.0259  0.0494 -0.1537
   33HFI     F3  879   2.771   0.699   0.467 -0.4881  0.1156 -0.2570
   33HFI     C3  880   3.054   0.696   0.419  0.7913  0.1860 -0.1603
   33HFI     F4  881   3.174   0.740   0.395  0.3410  0.0588  0.3079
   33HFI     F5  882   2.985   0.691   0.302 -0.3478  0.3495  0.0648
   33HFI     F6  883   3.068   0.567   0.455  0.0183 -0.0436 -0.2327
   33HFI     H1  884   3.118   0.697   0.665 -0.3183 -0.4567  0.0279
   33HFI     H2  885   2.966   0.876   0.502  1.4449  0.0848  0.1607
   34HFI     O1  886   0.631   3.336   3.178 -0.3624  0.0917 -0.1489
   34HFI     C1  887   0.590   3.383   3.316  0.9129  0.0066 -0.8286
   34HFI     C2  888   0.437   3.382   3.330 -0.2673 -0.2480 -0.5497
   34HFI     F1  889   0.391   3.400   3.454  0.0216  0.4529  0.0370
   34HFI     F2  890   0.388   3.260   3.286 -0.1552  0.5525  0.1794
   34HFI     F3  891   0.383   3.471   3.259 -0.1162  0.3340 -0.0024
   34HFI     C3  892   0.658   3.525   3.356 -0.0237 -0.2667  1.0048
   34HFI     F4  893   0.627   3.624   3.272  0.1545 -0.4066  0.2197
   34HFI     F5  894   0.790   3.512   3.356  0.1058 -0.4256 -0.8176
   34HFI     F6  895   0.621   3.557   3.478  0.3644  0.0132  0.1796
   34HFI     H1  896   0.722   3.364   3.159 -0.0035 -0.8896  0.0996
   34HFI     H2  897   0.625   3.320   3.399 -0.1676 -0.2263 -0.5347
   35HFI     O1  898   1.246   1.193   1.054  0.2963 -0.7100 -0.0886
   35HFI     C1  899   1.107   1.177   1.094  0.1800  0.6953 -0.5025
   35HFI     C2  900   1.061   1.037   1.040 -0.4143  0.6538  0.1748
   35HFI     F1  901   1.047   1.031   0.907 -0.1467  0.2829  0.2159
   35HFI     F2  902   0.941   1.000   1.092 -0.0928  0.1488 -0.1916
   35HFI     F3  903   1.145   0.930   1.068 -0.3281  0.0759 -0.1697
   35HFI     C3  904   1.011   1.292   1.039  0.4812  0.2315  0.3659
   35HFI     F4  905   0.885   1.262   1.060 -0.4951  0.2218 -0.5331
   35HFI     F5  906   1.034   1.301   0.908 -0.2046  0.0782  0.7341
   35HFI     F6  907   1.040   1.404   1.104 -0.0987 -0.0590  0.1081
   35HFI     H1  908   1.250   1.285   1.023  1.7578 -0.6337  0.2842
   35HFI     H2  909   1.097   1.162   1.202  1.6625  0.0589 -0.4454
   36HFI     O1  910   0.498   2.965   1.547 -0.0117  0.3255 -0.0030
   36HFI     C1  911   0.422   3.033   1.450 -1.3774 -0.0997  0.5339
   36HFI     C2  912   0.518   3.116   1.366 -0.0244  0.0131  0.6703
   36HFI     F1  913   0.456   3.186   1.265 -0.0483  0.1222 -0.1853
   36HFI     F2  914   0.600   3.022   1.308 -0.8712 -0.4554  0.1167
   36HFI     F3  915   0.602   3.198   1.433  0.0349 -0.3677  0.2881
   36HFI     C3  916   0.306   3.120   1.508 -0.0456 -0.3236  0.0721
   36HFI     F4  917   0.213   3.048   1.577 -0.0928  0.0711  0.2206
   36HFI     F5  918   0.240   3.187   1.412 -0.6393 -0.2415 -0.6068
   36HFI     F6  919   0.353   3.217   1.592 -0.0056 -0.3559  0.3549
   36HFI     H1  920   0.569   3.021   1.583 -1.4962  1.4605  1.2287
   36HFI     H2  921   0.383   2.959   1.379 -0.4527  0.3895 -0.5008
   37HFI     O1  922   2.072   2.427   1.357  0.4239  0.5302  0.1953
   37HFI     C1  923   1.936   2.447   1.422  0.4386 -0.3205  0.1934
   37HFI     C2  924   1.940   2.564   1.524  0.3879  0.1274 -0.4013
   37HFI     F1  925   1.824   2.583   1.599 -0.0274 -0.3948  0.5275
   37HFI     F2  926   1.971   2.684   1.474  0.4918  0.4125  0.2935
   37HFI     F3  927   2.045   2.538   1.605 -0.2384 -0.1863  0.1747
   37HFI     C3  928   1.897   2.310   1.494  0.8746 -0.0552  0.3523
   37HFI     F4  929   1.794   2.328   1.584 -0.0143 -0.2700 -0.1659
   37HFI     F5  930   1.994   2.247   1.558  0.4484 -0.0877 -0.1596
   37HFI     F6  931   1.857   2.212   1.400  0.0045  0.1408  0.1645
   37HFI     H1  932   2.145   2.468   1.407  1.5090 -0.4818 -0.5405
   37HFI     H2  933   1.857   2.475   1.352  2.1250 -0.5901 -1.8696
   38HFI     O1  934   0.885   0.676   1.363 -0.3004 -0.1914 -0.6295
   38HFI     C1  935   0.995   0.766   1.407 -0.0740  0.1022  0.2843
   38HFI     C2  936   1.087   0.684   1.502  0.4211 -0.1422 -0.6685
   38HFI     F1  937   1.133   0.572   1.442 -0.3897  0.3094 -0.0905
   38HFI     F2  938   1.024   0.640   1.617  0.0628 -0.4288 -0.3609
   38HFI     F3  939   1.197   0.752   1.536 -0.1458 -0.4899 -0.2137
   38HFI     C3  940   0.953   0.910   1.448 -0.4467  0.0716 -0.3046
   38HFI     F4  941   0.853   0.953   1.374  0.0415  0.8840 -0.2707
   38HFI     F5  942   1.055   1.002   1.433  0.0887  0.5101  0.1226
   38HFI     F6  943   0.905   0.916   1.576 -0.1546 -0.0745  0.2722
   38HFI     H1  944   0.806   0.731   1.347  1.4741  1.8436 -2.6287
   38HFI     H2  945   1.069   0.787   1.329  2.2211  0.4930  2.4952
   39HFI     O1  946   1.236   2.226   1.287  0.1984 -0.2751 -0.3563
   39HFI     C1  947   1.329   2.314   1.368  0.5307  0.3326 -0.5076
   39HFI     C2  948   1.470   2.329   1.311  0.0117 -0.0914 -0.0124
   39HFI     F1  949   1.543   2.418   1.388  0.7913 -0.5394  0.1501
   39HFI     F2  950   1.475   2.357   1.173 -0.4249  0.1459 -0.1494
   39HFI     F3  951   1.528   2.209   1.326  0.2553  0.4513  0.5346
   39HFI     C3  952   1.319   2.284   1.523  0.3904  0.4518  0.0412
   39HFI     F4  953   1.291   2.159   1.552 -0.0137 -0.1184 -0.0574
   39HFI     F5  954   1.213   2.350   1.577  0.5204  0.2406  0.0511
   39HFI     F6  955   1.428   2.321   1.590 -0.2617 -0.6746  0.3026
   39HFI     H1  956   1.223   2.250   1.194  0.6183 -0.0459 -0.3605
   39HFI     H2  957   1.293   2.417   1.356 -0.6679 -0.1568 -1.1472
   40HFI     O1  958   1.265   1.771   3.478 -1.1130 -0.0606 -0.1266
   40HFI     C1  959   1.246   1.634   3.536  0.1117  0.0820 -0.3005
   40HFI     C2  960   1.330   1.608   3.662  0.4643 -0.2598 -0.1707
   40HFI     F1  961   1.315   1.705   3.756 -0.1599 -0.3833  0.3183
   40HFI     F2  962   1.468   1.597   3.635  1.0111  0.1714  0.1165
   40HFI     F3  963   1.286   1.497   3.720  0.4398  1.3103 -0.8605
   40HFI     C3  964   1.255   1.519   3.430 -0.0674  0.2822  0.7751
   40HFI     F4  965   1.378   1.514   3.368  0.2258  0.0885  0.1780
   40HFI     F5  966   1.169   1.543   3.322 -0.0470  0.1992  0.0158
   40HFI     F6  967   1.232   1.394   3.479  0.6558 -0.5203  0.0743
   40HFI     H1  968   1.332   1.822   3.526 -0.6537  0.3137 -1.1694
   40HFI     H2  969   1.143   1.631   3.571  0.1699  0.0011 -0.1398
   41HFI     O1  970   0.428   0.064   0.278 -0.1170  0.4742  0.0024
   41HFI     C1  971   0.412   0.146   0.400 -0.4851  0.1038  0.4638
   41HFI     C2  972   0.263   0.202   0.424  0.2736 -0.1212 -0.6130
   41HFI     F1  973   0.249   0.264   0.542  0.8032  0.0903  1.0366
   41HFI     F2  974   0.172   0.097   0.420 -0.1477  0.1004 -0.5976
   41HFI     F3  975   0.216   0.291   0.331 -0.6451  0.3867 -0.6022
   41HFI     C3  976   0.522   0.258   0.392  0.2670  0.3525 -0.6140
   41HFI     F4  977   0.501   0.340   0.288  0.5769 -0.4243 -0.1695
   41HFI     F5  978   0.641   0.200   0.386  0.5277  0.0079  0.1530
   41HFI     F6  979   0.520   0.329   0.505  0.1796 -0.2234 -0.3986
   41HFI     H1  980   0.366   0.097   0.210 -1.5407  1.2327  1.6258
   41HFI     H2  981   0.444   0.087   0.486 -0.1269  0.8285  0.8296
   42HFI     O1  982   1.197   1.154   0.160 -0.3171  0.1924  0.1890
   42HFI     C1  983   1.224   1.042   0.068 -0.0655 -1.2625  0.3627
   42HFI     C2  984   1.240   1.101  -0.076 -0.0415 -0.2031 -0.0844
   42HFI     F1  985   1.131   1.168  -0.115 -0.1594  0.0619 -0.1184
   42HFI     F2  986   1.260   1.000  -0.167 -0.0824 -0.3837 -0.1123
   42HFI     F3  987   1.342   1.186  -0.075  0.1733  0.1614 -0.3600
   42HFI     C3  988   1.120   0.920   0.082  0.6030  0.0285  0.2940
   42HFI     F4  989   1.014   0.928  -0.006  0.0712  0.1405 -0.1220
   42HFI     F5  990   1.063   0.897   0.204  0.2252  0.1832  0.2005
   42HFI     F6  991   1.179   0.796   0.047 -0.1891 -0.0725 -0.1890
   42HFI     H1  992   1.155   1.228   0.111 -0.4150  0.1635  0.2306
   42HFI     H2  993   1.321   0.997   0.096  0.5652  0.6986  1.4046
   43HFI     O1  994   0.212   0.058   1.064 -0.0218 -0.1174 -0.0369
   43HFI     C1  995   0.145  -0.046   0.984 -0.1181 -0.0116 -0.1566
   43HFI     C2  996   0.120   0.021   0.841 -0.2874  0.6867  0.8998
   43HFI     F1  997   0.052   0.140   0.844  0.5182 -0.2455 -0.6945
   43HFI     F2  998   0.051  -0.070   0.768 -0.4271  0.1717 -0.5713
   43HFI     F3  999   0.240   0.047   0.787  0.1251  0.1634  0.2327
   43HFI     C3 1000   0.019  -0.107   1.056 -0.0965 -0.3401  0.4524
   43HFI     F4 1001  -0.063  -0.009   1.107 -0.1427  0.3359 -0.2467
   43HFI     F5 1002   0.059  -0.178   1.168 -0.7133 -0.0587  0.3606
   43HFI     F6 1003  -0.049  -0.195   0.986 -0.2419 -0.2322  0.3896
   43HFI     H1 1004   0.147   0.127   1.082 -0.3595 -0.8031  1.4779
   43HFI     H2 1005   0.210  -0.133   0.974 -0.3540 -0.2241  0.1344
   44HFI     O1 1006   3.030   0.302   1.032  0.2197 -0.0727  0.4404
   44HFI     C1 1007   3.130   0.402   1.003  0.5177  0.5094  0.4671
   44HFI     C2 1008   3.243   0.406   1.100  0.0190  0.0917  0.4696
   44HFI     F1 1009   3.224   0.473   1.211 -0.0974  0.1233 -0.2610
   44HFI     F2 1010   3.343   0.474   1.034 -0.2253  0.1044  0.0049
   44HFI     F3 1011   3.294   0.287   1.134  0.0741  0.1757 -0.7731
   44HFI     C3 1012   3.056   0.537   0.978 -0.0026 -0.3006 -0.3426
   44HFI     F4 1013   3.140   0.644   0.961 -0.2840 -0.0394  0.2018
   44HFI     F5 1014   2.967   0.570   1.077  0.1307  0.0933 -0.0452
   44HFI     F6 1015   2.987   0.516   0.865 -0.2229  0.0727 -0.5714
   44HFI     H1 1016   3.031   0.293   1.129 -2.1055 -2.0732  0.3305
   44HFI     H2 1017   3.164   0.361   0.907  3.0053 -1.0575  1.9831
   45HFI     O1 1018   0.587   0.786   1.319 -1.3184 -0.6201  0.7075
   45HFI     C1 1019   0.491   0.829   1.424 -0.2641 -0.0885  0.2772
   45HFI     C2 1020   0.525   0.973   1.475  0.3343  0.2566 -0.3739
   45HFI     F1 1021   0.407   1.030   1.519  0.0061 -0.0102  0.6817
   45HFI     F2 1022   0.588   1.042   1.368  0.5760 -0.3635  0.1003
   45HFI     F3 1023   0.610   0.975   1.586 -0.0352  0.0175  0.3460
   45HFI     C3 1024   0.475   0.722   1.536 -0.1859  0.2412  0.2079
   45HFI     F4 1025   0.597   0.701   1.599  0.4878 -0.4829 -0.2556
   45HFI     F5 1026   0.433   0.600   1.486  0.1582 -0.1063  0.4869
   45HFI     F6 1027   0.375   0.764   1.611 -0.4377  0.1404  0.0199
   45HFI     H1 1028   0.534   0.713   1.281 -0.2300 -0.2652 -1.6037
   45HFI     H2 1029   0.386   0.823   1.392 -0.1956  0.2135 -0.0005
   46HFI     O1 1030   1.177   2.967   1.021 -0.6215  0.2361 -0.3564
   46HFI     C1 1031   1.131   2.921   0.887  0.0586  0.0766  0.1128
   46HFI     C2 1032   1.119   3.046   0.802  1.1908  0.2259  0.0728
   46HFI     F1 1033   1.043   3.139   0.862  0.6205 -0.5748 -0.3885
   46HFI     F2 1034   1.075   3.019   0.681  0.1765 -0.0084 -0.0257
   46HFI     F3 1035   1.238   3.107   0.794  0.1671  0.0262  0.5009
   46HFI     C3 1036   0.993   2.838   0.899 -0.5965 -0.1791  1.1612
   46HFI     F4 1037   0.887   2.916   0.930 -0.4318  0.1019 -0.2885
   46HFI     F5 1038   1.008   2.752   1.000 -0.1587 -0.1972 -0.0474
   46HFI     F6 1039   0.962   2.776   0.789 -0.5029 -0.4002 -0.2653
   46HFI     H1 1040   1.158   3.062   1.023  0.3977  0.4399 -0.3686
   46HFI     H2 1041   1.194   2.851   0.831  0.1436  0.4185 -0.2237
   47HFI     O1 1042   1.019   3.392   0.084  0.3210 -0.3027 -0.0194
   47HFI     C1 1043   1.117   3.358  -0.018 -0.5769  0.3223  0.1263
   47HFI     C2 1044   1.199   3.485  -0.048 -0.0355 -0.4309 -0.0860
   47HFI     F1 1045   1.285   3.514   0.051 -0.5099  0.5984 -0.1325
   47HFI     F2 1046   1.122   3.595  -0.065  0.1975 -0.0025 -0.1051
   47HFI     F3 1047   1.277   3.477  -0.162  0.5974  0.5899 -0.5809
   47HFI     C3 1048   1.054   3.290  -0.146 -0.2306 -0.4036 -0.8393
   47HFI     F4 1049   1.151   3.227  -0.217 -0.3868 -0.3489 -0.1489
   47HFI     F5 1050   0.986   3.378  -0.221  0.0605  0.1031 -0.2035
   47HFI     F6 1051   0.959   3.201  -0.114 -0.2526 -0.0748 -0.3081
   47HFI     H1 1052   0.953   3.324   0.103  0.2920  0.3120  2.3338
   47HFI     H2 1053   1.186   3.285   0.026 -0.6527  0.3583  0.3045
   48HFI     O1 1054   1.041   2.539   1.378  0.5826  0.2616  0.0026
   48HFI     C1 1055   0.965   2.590   1.495  0.1608  0.2143  0.3501
   48HFI     C2 1056   0.828   2.518   1.507 -0.2887 -0.4062 -0.9663
   48HFI     F1 1057   0.858   2.393   1.549  0.2149 -0.1148  0.3859
   48HFI     F2 1058   0.765   2.506   1.388  0.7134 -0.2472 -0.0347
   48HFI     F3 1059   0.744   2.578   1.595  0.0301 -0.2720  0.4773
   48HFI     C3 1060   0.955   2.745   1.488 -0.5435 -0.0312  0.6921
   48HFI     F4 1061   0.885   2.778   1.592 -0.0954  0.0804 -0.2697
   48HFI     F5 1062   0.895   2.793   1.368 -0.1483  0.0348 -0.6358
   48HFI     F6 1063   1.075   2.799   1.495 -0.0904 -0.3734  0.3891
   48HFI     H1 1064   0.987   2.544   1.297  0.0966  0.7290  0.3559
   48HFI     H2 1065   1.020   2.576   1.589 -0.9302  2.7112  1.4077
   49HFI     O1 1066   0.194   2.492   1.302  0.4106  0.0004 -0.1750
   49HFI     C1 1067   0.252   2.558   1.421 -0.0906 -0.8029 -0.5670
   49HFI     C2 1068   0.324   2.454   1.506 -0.3094  0.2751 -0.3811
   49HFI     F1 1069   0.381   2.354   1.431  0.0705 -0.4453 -0.2269
   49HFI     F2 1070   0.242   2.395   1.594 -0.0792  0.1710 -0.0942
   49HFI     F3 1071   0.430   2.499   1.577  0.0275  0.4514 -0.3444
   49HFI     C3 1072   0.156   2.653   1.505  0.0213  0.1751  0.3043
   49HFI     F4 1073   0.099   2.746   1.425 -0.3382  0.0172  0.0679
   49HFI     F5 1074   0.216   2.715   1.609 -0.3442  0.6228 -0.2079
   49HFI     F6 1075   0.051   2.587   1.559 -0.0727  0.1610 -0.2181
   49HFI     H1 1076   0.263   2.462   1.240 -0.2204  1.0780 -1.4103
   49HFI     H2 1077   0.334   2.616   1.378 -0.7344  0.4373 -0.1422
   50HFI     O1 1078   1.309   0.015   1.338  0.5474 -0.2586  0.5003
   50HFI     C1 1079   1.365  -0.113   1.377  0.0050 -0.0722  0.1232
   50HFI     C2 1080   1.269  -0.226   1.342  0.2400 -0.3912  0.2610
   50HFI     F1 1081   1.256  -0.231   1.211  0.6873 -0.4350 -0.0951
   50HFI     F2 1082   1.150  -0.206   1.405  0.2166  0.0867  0.4904
   50HFI     F3 1083   1.316  -0.349   1.380 -0.0018  0.3475  0.2879
   50HFI     C3 1084   1.419  -0.109   1.527  0.2561 -0.3172  0.3728
   50HFI     F4 1085   1.326  -0.142   1.623 -0.2448 -0.0249  0.0115
   50HFI     F5 1086   1.466   0.013   1.557  0.7566  0.4341  0.0278
   50HFI     F6 1087   1.517  -0.204   1.536 -0.0518  0.8435 -0.3519
   50HFI     H1 1088   1.275   0.058   1.418 -1.5822 -0.3398 -0.3342
   50HFI     H2 1089   1.454  -0.127   1.314 -1.0129 -0.3753 -1.2624
   51HFI     O1 1090   1.476   1.907   3.620 -0.0205  0.6447  0.2135
   51HFI     C1 1091   1.575   1.984   3.559 -0.4846 -0.0391 -0.0546
   51HFI     C2 1092   1.715   1.967   3.618  0.9199 -0.2876  0.4676
   51HFI     F1 1093   1.763   1.842   3.606 -0.4040 -0.0057  0.0658
   51HFI     F2 1094   1.701   1.989   3.747  0.0156  0.5826  0.2187
   51HFI     F3 1095   1.807   2.046   3.562 -0.0031  0.0567 -0.1141
   51HFI     C3 1096   1.538   2.134   3.547 -0.0231 -0.5625  0.3382
   51HFI     F4 1097   1.526   2.190   3.673  0.1413 -0.0362 -0.1022
   51HFI     F5 1098   1.418   2.157   3.485  0.3427 -0.2528 -0.4516
   51HFI     F6 1099   1.630   2.208   3.476 -0.4029  0.2662 -0.0738
   51HFI     H1 1100   1.501   1.910   3.714 -3.7163  0.2926  1.3049
   51HFI     H2 1101   1.579   1.953   3.454 -1.0651 -2.5595  0.6330
   52HFI     O1 1102   2.070   0.610   0.460 -0.2450 -0.0710 -0.1886
   52HFI     C1 1103   2.128   0.545   0.337 -0.4844  0.9644 -0.2858
   52HFI     C2 1104   2.165   0.389   0.364 -0.3222  0.4418  0.3823
   52HFI     F1 1105   2.069   0.315   0.418 -0.1757  0.2689  0.3757
   52HFI     F2 1106   2.273   0.383   0.438  0.6049  0.1346 -0.1899
   52HFI     F3 1107   2.196   0.323   0.251 -0.3276  0.8887 -0.6464
   52HFI     C3 1108   2.246   0.632   0.285 -0.4818 -0.2467  1.0923
   52HFI     F4 1109   2.321   0.699   0.384 -0.0449  0.1335  0.0184
   52HFI     F5 1110   2.200   0.719   0.191  0.5562 -0.2477  0.1621
   52HFI     F6 1111   2.338   0.552   0.217 -0.0446  0.3345  0.4515
   52HFI     H1 1112   2.000   0.552   0.495 -0.1767  0.5132  0.9187
   52HFI     H2 1113   2.051   0.534   0.260  1.6607  2.9727 -2.8021
   53HFI     O1 1114   2.426   2.106   1.281 -0.1084  0.3117  0.1241
   53HFI     C1 1115   2.484   2.104   1.409 -0.5381  0.1744 -0.2847
   53HFI     C2 1116   2.384   2.023   1.503 -0.3155  0.5928 -0.5915
   53HFI     F1 1117   2.269   2.085   1.530  0.4747 -0.5601  0.0698
   53HFI     F2 1118   2.453   1.996   1.617 -0.6001  0.4466 -0.4707
   53HFI     F3 1119   2.357   1.902   1.448 -0.1725 -0.0275 -0.9224
   53HFI     C3 1120   2.506   2.249   1.456  0.2743  0.0674 -0.2852
   53HFI     F4 1121   2.389   2.320   1.468 -0.1839  0.1613  0.4051
   53HFI     F5 1122   2.591   2.326   1.379 -0.4194 -0.6045 -0.6420
   53HFI     F6 1123   2.562   2.263   1.581  0.6058 -0.0668 -0.0740
   53HFI     H1 1124   2.329   2.099   1.276  0.0233 -1.8496  0.3840
   53HFI     H2 1125   2.580   2.050   1.405 -0.8873 -0.5606  0.9741
   54HFI     O1 1126   2.701   1.601   3.594  0.5494 -0.4117 -0.4390
   54HFI     C1 1127   2.776   1.509   3.688 -0.2383  0.1325 -0.0313
   54HFI     C2 1128   2.761   1.363   3.646  0.2256 -0.1800  0.1111
   54HFI     F1 1129   2.636   1.316   3.679 -0.1251  0.2774 -0.3508
   54HFI     F2 1130   2.858   1.287   3.716  0.2406  0.0166 -0.4597
   54HFI     F3 1131   2.774   1.339   3.515  0.0476 -0.3945 -0.1513
   54HFI     C3 1132   2.739   1.547   3.833  0.3057  0.4541 -0.3186
   54HFI     F4 1133   2.757   1.680   3.865  0.2380  0.0856  0.6820
   54HFI     F5 1134   2.813   1.474   3.916 -0.0790  0.2030 -0.1567
   54HFI     F6 1135   2.609   1.529   3.856  0.1464  0.0957 -0.0978
   54HFI     H1 1136   2.607   1.601   3.616  1.4503  0.2330  4.0479
   54HFI     H2 1137   2.883   1.535   3.688 -0.1410 -0.2563 -1.2613
   55HFI     O1 1138   2.484   2.965   1.389  0.2186  0.4954 -0.3963
   55HFI     C1 1139   2.462   2.858   1.492 -0.9055  0.5252  0.0969
   55HFI     C2 1140   2.588   2.770   1.511  0.5629  0.5307 -0.2086
   55HFI     F1 1141   2.678   2.841   1.574 -0.2080  0.3107 -0.4025
   55HFI     F2 1142   2.646   2.738   1.389 -0.4117  0.0535  0.3378
   55HFI     F3 1143   2.562   2.663   1.583  0.1611 -0.4378 -0.3219
   55HFI     C3 1144   2.335   2.782   1.455 -0.0654  0.0228  0.7894
   55HFI     F4 1145   2.282   2.700   1.551 -0.0450  0.4808 -0.0284
   55HFI     F5 1146   2.358   2.706   1.352 -0.0987 -0.0746 -0.1482
   55HFI     F6 1147   2.227   2.859   1.419 -0.2089 -0.2998 -0.0417
   55HFI     H1 1148   2.513   2.918   1.309  1.5664 -0.7055  0.7424
   55HFI     H2 1149   2.448   2.907   1.589  0.9160  1.9184 -0.3168
   56HFI     O1 1150   1.677   1.345   3.198  0.7700  0.2044 -0.5583
   56HFI     C1 1151   1.797   1.328   3.269  1.0121  0.1865 -0.5980
   56HFI     C2 1152   1.815   1.425   3.393  0.4083 -0.0815  0.1446
   56HFI     F1 1153   1.855   1.552   3.364  0.3453  0.0043  0.2880
   56HFI     F2 1154   1.899   1.372   3.483  0.0464  0.5656 -0.0683
   56HFI     F3 1155   1.690   1.425   3.447 -0.5875  0.4246  0.3643
   56HFI     C3 1156   1.920   1.320   3.169  0.3008 -0.8225 -0.3235
   56HFI     F4 1157   1.920   1.202   3.110 -0.0121  0.5190 -0.0651
   56HFI     F5 1158   2.040   1.337   3.228  0.2878  0.2851 -0.5625
   56HFI     F6 1159   1.913   1.412   3.067  0.3990  0.3501 -0.1328
   56HFI     H1 1160   1.682   1.440   3.178 -0.6920 -0.1064 -2.4641
   56HFI     H2 1161   1.790   1.228   3.314 -2.3898  1.3522  1.6257
   57HFI     O1 1162   2.771   0.222   1.034 -0.6207  0.1980  0.2946
   57HFI     C1 1163   2.632   0.248   0.977 -0.0180 -0.7403  0.4418
   57HFI     C2 1164   2.636   0.360   0.865  0.4252 -0.1582 -0.4244
   57HFI     F1 1165   2.729   0.330   0.767 -0.5123 -0.2738  0.0791
   57HFI     F2 1166   2.674   0.489   0.906 -0.0531  0.2669 -0.1677
   57HFI     F3 1167   2.514   0.377   0.808  0.1856 -0.4786  0.1966
   57HFI     C3 1168   2.530   0.284   1.088 -0.5793 -0.3625 -0.2935
   57HFI     F4 1169   2.579   0.384   1.166  0.5080 -0.5667 -0.0016
   57HFI     F5 1170   2.497   0.187   1.174  0.2284  0.4177  0.3210
   57HFI     F6 1171   2.412   0.327   1.039  0.5052 -0.5080 -0.0880
   57HFI     H1 1172   2.830   0.218   0.957 -0.8639  0.2324  0.1059
   57HFI     H2 1173   2.595   0.158   0.927 -1.9797  0.5225 -0.4578
   58HFI     O1 1174   0.013   0.309   1.555 -0.2045  0.1593  0.1472
   58HFI     C1 1175   0.073   0.239   1.450 -0.4817  0.5220  0.5953
   58HFI     C2 1176   0.070   0.082   1.470  0.8392 -0.3429  0.9391
   58HFI     F1 1177   0.114   0.006   1.364 -0.4284  0.1213  0.4505
   58HFI     F2 1178  -0.056   0.042   1.495  0.5155  0.5143 -0.1318
   58HFI     F3 1179   0.139   0.045   1.578  0.1876 -0.7859  0.3477
   58HFI     C3 1180   0.217   0.278   1.430  0.6487  0.4202 -0.4622
   58HFI     F4 1181   0.280   0.209   1.331  0.2568  0.0464  0.1107
   58HFI     F5 1182   0.293   0.263   1.542 -0.2228  0.1435 -0.0069
   58HFI     F6 1183   0.222   0.411   1.396  0.0369  0.2457 -0.2980
   58HFI     H1 1184   0.073   0.314   1.631  1.1353 -1.2794 -0.7878
   58HFI     H2 1185   0.025   0.258   1.354 -1.0879 -2.8018  0.1898
   59HFI     O1 1186   2.886   3.073   0.024  0.1344 -0.1953  0.1357
   59HFI     C1 1187   2.989   3.166   0.076 -0.0150  1.0786 -0.3279
   59HFI     C2 1188   3.008   3.283  -0.024 -0.7319  0.1291  0.6958
   59HFI     F1 1189   3.060   3.394   0.032  0.2517  0.5529  0.2126
   59HFI     F2 1190   2.888   3.320  -0.064  0.2116  0.3301  0.2552
   59HFI     F3 1191   3.067   3.246  -0.141 -0.0297  0.0099 -0.1346
   59HFI     C3 1192   3.116   3.088   0.103  0.4014 -0.0005 -0.4350
   59HFI     F4 1193   3.140   2.993   0.010  0.4157  0.6752  0.4821
   59HFI     F5 1194   3.112   3.025   0.229 -0.4315 -0.7347  0.2053
   59HFI     F6 1195   3.218   3.173   0.103  0.3027  0.2419  0.2762
   59HFI     H1 1196   2.930   3.008  -0.033 -1.8292 -0.7399 -0.7738
   59HFI     H2 1197   2.958   3.211   0.171  0.9500 -2.0116  1.4890
   60HFI     O1 1198   3.059   1.480   3.008  0.2932  0.4976 -0.0441
   60HFI     C1 1199   2.942   1.424   2.942  0.8551 -0.2754  0.0804
   60HFI     C2 1200   2.966   1.267   2.904 -0.0773 -0.3615 -0.0299
   60HFI     F1 1201   3.005   1.191   3.011  0.1494 -0.2680 -0.1309
   60HFI     F2 1202   3.069   1.261   2.822  0.4559 -0.1308 -0.2459
   60HFI     F3 1203   2.866   1.202   2.848  0.2251  0.5333 -0.0438
   60HFI     C3 1204   2.891   1.522   2.833  0.4261  0.0023  0.1953
   60HFI     F4 1205   2.856   1.647   2.876 -0.4834 -0.1952  0.1654
   60HFI     F5 1206   2.783   1.459   2.775 -0.4552  0.7002  0.3875
   60HFI     F6 1207   2.973   1.540   2.734  0.4770 -0.0595 -0.3158
   60HFI     H1 1208   3.134   1.420   3.020 -0.0203  0.5245  2.1128
   60HFI     H2 1209   2.859   1.423   3.013  0.9126  0.5525  0.1677
   61HFI     O1 1210   2.852   3.194   0.922 -1.0364 -0.0281 -0.0127
   61HFI     C1 1211   2.964   3.263   0.841 -0.5427 -0.2549  0.5161
   61HFI     C2 1212   3.059   3.155   0.786 -0.1033 -1.1255  0.6568
   61HFI     F1 1213   2.986   3.073   0.716 -0.4196 -0.6465 -0.0907
   61HFI     F2 1214   3.122   3.095   0.886 -0.1717  0.4878 -0.2710
   61HFI     F3 1215   3.146   3.201   0.699  0.2646  0.1506 -0.1834
   61HFI     C3 1216   3.032   3.375   0.918 -0.3341  0.2245  0.7117
   61HFI     F4 1217   3.070   3.335   1.036  0.4359 -0.3608 -0.1202
   61HFI     F5 1218   2.942   3.481   0.936 -0.5773  0.8352 -0.0145
   61HFI     F6 1219   3.141   3.430   0.859 -0.1176  0.2280  0.5229
   61HFI     H1 1220   2.898   3.134   0.983  0.8385  3.1229  1.8176
   61HFI     H2 1221   2.917   3.313   0.755  0.1817 -2.0975 -0.9774
   62HFI     O1 1222   2.432   0.783   0.846 -0.2213  0.6031  0.3106
   62HFI     C1 1223   2.312   0.822   0.912 -0.4550  0.2869 -0.0915
   62HFI     C2 1224   2.292   0.742   1.044  0.4513 -0.6055 -0.1837
   62HFI     F1 1225   2.177   0.774   1.113 -0.7143  0.5301 -0.4462
   62HFI     F2 1226   2.409   0.756   1.119  0.2810 -0.2248 -0.3125
   62HFI     F3 1227   2.278   0.612   1.020 -0.1654 -0.5762  0.6245
   62HFI     C3 1228   2.188   0.817   0.814 -0.4531  0.2377  0.5619
   62HFI     F4 1229   2.214   0.855   0.689  0.3187  0.5866  0.3634
   62HFI     F5 1230   2.091   0.892   0.862  0.2401 -0.6549 -0.2726
   62HFI     F6 1231   2.144   0.684   0.805  0.4648 -0.3925  0.3101
   62HFI     H1 1232   2.469   0.719   0.909 -2.2501 -1.8956 -0.9585
   62HFI     H2 1233   2.314   0.930   0.934 -1.5830  0.4662 -0.8159
   63HFI     O1 1234   2.162   2.676   0.414 -0.1835 -0.5679  0.1098
   63HFI     C1 1235   2.024   2.716   0.387 -0.5356  0.3782 -0.4410
   63HFI     C2 1236   2.004   2.868   0.413  0.6280 -1.3821 -0.3941
   63HFI     F1 1237   2.114   2.940   0.395 -0.2930 -0.1064 -0.2601
   63HFI     F2 1238   1.946   2.898   0.532  0.5492 -0.0249 -0.3234
   63HFI     F3 1239   1.924   2.916   0.314 -0.0101 -0.2017  0.0210
   63HFI     C3 1240   1.930   2.629   0.471  0.7213  0.1828 -0.2168
   63HFI     F4 1241   1.949   2.635   0.605 -0.2434 -0.1008 -0.3288
   63HFI     F5 1242   1.945   2.499   0.438  0.1039 -0.1523  0.5217
   63HFI     F6 1243   1.800   2.660   0.450 -0.3516  0.4570  0.3089
   63HFI     H1 1244   2.200   2.734   0.482  2.7429 -1.0132 -1.0588
   63HFI     H2 1245   1.992   2.701   0.283  0.0565  1.5521 -0.7998
   64HFI     O1 1246   0.896   2.544   0.519 -0.1731  0.1100  0.2964
   64HFI     C1 1247   0.838   2.575   0.384 -0.0118 -0.0018 -0.1895
   64HFI     C2 1248   0.703   2.659   0.401  0.0734  0.1951  0.0950
   64HFI     F1 1249   0.715   2.774   0.478  0.5748 -0.2860  0.4998
   64HFI     F2 1250   0.595   2.586   0.447  0.0537  0.6462  0.4340
   64HFI     F3 1251   0.669   2.709   0.278 -0.5562  0.0282  0.4474
   64HFI     C3 1252   0.811   2.447   0.303 -0.3453  0.2460 -0.6663
   64HFI     F4 1253   0.716   2.367   0.355 -0.3541 -0.5242  0.8244
   64HFI     F5 1254   0.927   2.371   0.297  0.2486 -0.0111 -0.1495
   64HFI     F6 1255   0.773   2.473   0.174  0.2435 -0.0207  0.3543
   64HFI     H1 1256   0.826   2.539   0.587  0.3322  1.5793  0.9473
   64HFI     H2 1257   0.912   2.637   0.332 -0.2831 -0.8882 -1.6377
   65HFI     O1 1258   1.502   1.284   1.336 -0.1965 -0.0573 -0.3134
   65HFI     C1 1259   1.611   1.257   1.425 -0.5317 -0.6149  0.1263
   65HFI     C2 1260   1.571   1.144   1.523 -0.8606  1.0354 -0.6601
   65HFI     F1 1261   1.672   1.120   1.607 -0.6828  0.1433 -0.4922
   65HFI     F2 1262   1.559   1.036   1.451 -0.1892 -0.2508  0.2154
   65HFI     F3 1263   1.462   1.170   1.594 -0.1944 -0.1617 -0.0170
   65HFI     C3 1264   1.647   1.399   1.492  0.0040  0.1750 -0.5218
   65HFI     F4 1265   1.548   1.455   1.573  0.1760 -0.0541  0.6349
   65HFI     F5 1266   1.682   1.490   1.402 -0.0846 -0.4820  0.4375
   65HFI     F6 1267   1.757   1.382   1.573  0.1265  0.1607  0.2800
   65HFI     H1 1268   1.433   1.338   1.379  2.0743  3.3674 -0.7157
   65HFI     H2 1269   1.696   1.222   1.365 -1.4003  0.0726 -1.5318
   66HFI     O1 1270   2.479   0.034   3.581  0.1384  0.0618  0.2608
   66HFI     C1 1271   2.392  -0.073   3.619 -0.7073  0.3048 -0.3881
   66HFI     C2 1272   2.264  -0.031   3.705 -0.2423 -0.0515 -0.1210
   66HFI     F1 1273   2.197   0.070   3.647  0.2021 -0.0797 -0.4939
   66HFI     F2 1274   2.306   0.015   3.827  0.4677  0.1751 -0.0507
   66HFI     F3 1275   2.178  -0.132   3.725 -0.2217  0.2107  0.1406
   66HFI     C3 1276   2.478  -0.180   3.706  0.0542  0.0800  0.6024
   66HFI     F4 1277   2.560  -0.122   3.801 -0.0242 -0.3430  0.1286
   66HFI     F5 1278   2.547  -0.247   3.617  0.2423 -0.1877 -0.1476
   66HFI     F6 1279   2.400  -0.270   3.768  0.2459 -0.6348 -0.4840
   66HFI     H1 1280   2.494   0.095   3.655 -0.8628 -1.0364  1.3616
   66HFI     H2 1281   2.362  -0.119   3.525  0.0404  1.8921 -1.4279
   67HFI     O1 1282   3.376   0.207   2.238 -0.1957 -0.3534  0.2979
   67HFI     C1 1283   3.240   0.170   2.277 -0.1145 -0.3182  0.0800
   67HFI     C2 1284   3.146   0.289   2.312  0.2636  0.0683  0.3093
   67HFI     F1 1285   3.177   0.340   2.431  0.2345 -0.1516 -0.0060
   67HFI     F2 1286   3.020   0.263   2.314 -0.0795  0.0592 -0.1545
   67HFI     F3 1287   3.168   0.390   2.224 -0.0608  0.0292 -0.0837
   67HFI     C3 1288   3.249   0.065   2.390 -0.9168 -0.0045  0.0404
   67HFI     F4 1289   3.316  -0.053   2.350 -0.0940  0.7906  0.2416
   67HFI     F5 1290   3.130   0.024   2.415  0.1601  0.0660 -0.2786
   67HFI     F6 1291   3.307   0.112   2.509 -0.4529  0.1937  0.9922
   67HFI     H1 1292   3.387   0.299   2.266 -0.5442  0.0348 -0.7979
   67HFI     H2 1293   3.188   0.121   2.194 -0.4111 -0.6358  0.4506
   68HFI     O1 1294   2.057   2.792   2.898 -0.5920 -0.1083  0.0714
   68HFI     C1 1295   2.094   2.694   2.790  0.0286  0.3084 -0.8916
   68HFI     C2 1296   1.997   2.566   2.782 -0.6008 -0.6160 -0.7888
   68HFI     F1 1297   1.987   2.497   2.898  0.6958 -0.2531  0.0804
   68HFI     F2 1298   2.048   2.486   2.688  0.3529 -0.0246 -0.1020
   68HFI     F3 1299   1.874   2.608   2.736  0.0653 -0.1152 -0.2048
   68HFI     C3 1300   2.245   2.650   2.789 -0.0833 -0.3730  0.3323
   68HFI     F4 1301   2.326   2.748   2.825  0.5307 -0.0897 -0.6988
   68HFI     F5 1302   2.292   2.602   2.673  0.0671 -0.2651 -0.2014
   68HFI     F6 1303   2.259   2.543   2.881 -0.0350 -0.2215 -0.6320
   68HFI     H1 1304   2.083   2.753   2.983  0.5619  2.8033  1.1083
   68HFI     H2 1305   2.093   2.737   2.689  0.2383 -0.2645 -1.1396
   69HFI     O1 1306   1.912   2.518   0.152 -0.0343  0.1555  0.2239
   69HFI     C1 1307   1.779   2.461   0.110 -0.0027 -0.4702  0.7185
   69HFI     C2 1308   1.758   2.322   0.145 -0.1556  0.6803 -0.1707
   69HFI     F1 1309   1.841   2.245   0.068 -0.3886 -0.6277  0.0000
   69HFI     F2 1310   1.629   2.279   0.132 -0.3051  0.4370 -0.4520
   69HFI     F3 1311   1.789   2.302   0.278  0.3823 -0.4886  0.2786
   69HFI     C3 1312   1.738   2.500  -0.032  0.7056  0.3048 -0.0266
   69HFI     F4 1313   1.607   2.465  -0.061 -0.1995  0.7533  0.1726
   69HFI     F5 1314   1.809   2.433  -0.128 -0.5467 -0.0874  0.0367
   69HFI     F6 1315   1.754   2.629  -0.050  0.0121  0.0515  0.4655
   69HFI     H1 1316   1.978   2.474   0.095 -0.0983 -0.2096  0.4334
   69HFI     H2 1317   1.697   2.506   0.167 -3.3000  0.0688 -4.1570
   70HFI     O1 1318   2.167   2.219   1.223  0.2473 -0.0103 -0.0474
   70HFI     C1 1319   2.196   2.260   1.081 -0.1469 -0.4350  0.5281
   70HFI     C2 1320   2.246   2.405   1.071 -0.4244  0.1504 -0.7073
   70HFI     F1 1321   2.318   2.435   0.960  0.8051  0.3905  0.0556
   70HFI     F2 1322   2.319   2.440   1.180  0.1981 -0.0341 -0.3701
   70HFI     F3 1323   2.143   2.483   1.073  0.3077  0.4937  0.1999
   70HFI     C3 1324   2.091   2.235   0.974 -0.0618  0.1480  0.0312
   70HFI     F4 1325   1.973   2.280   1.017 -0.0177 -0.3137  0.2926
   70HFI     F5 1326   2.079   2.106   0.955  0.2643  0.2896 -0.6051
   70HFI     F6 1327   2.108   2.300   0.851  0.4508 -0.0861  0.1008
   70HFI     H1 1328   2.113   2.289   1.264 -1.2165 -1.1605  0.0114
   70HFI     H2 1329   2.286   2.204   1.052  1.6339  1.7733  1.6655
   71HFI     O1 1330   1.274   0.066   2.991 -0.2112  0.3225 -0.5000
   71HFI     C1 1331   1.203   0.183   2.946  0.7954 -0.0375 -0.0751
   71HFI     C2 1332   1.077   0.216   3.035 -0.1897  0.1941 -0.0515
   71HFI     F1 1333   0.982   0.118   3.018 -0.1066  0.2343 -0.1023
   71HFI     F2 1334   1.035   0.342   3.002  0.0550  0.4423 -0.1288
   71HFI     F3 1335   1.117   0.220   3.166  0.0432  0.6237  0.4407
   71HFI     C3 1336   1.166   0.161   2.800 -0.5877  0.2392  0.4674
   71HFI     F4 1337   1.102   0.039   2.783 -0.2510  0.6447 -0.0857
   71HFI     F5 1338   1.280   0.163   2.733 -0.0232  0.1315  0.1029
   71HFI     F6 1339   1.095   0.261   2.749  0.7101  0.0339 -0.0009
   71HFI     H1 1340   1.235  -0.012   2.948 -2.0591  0.9656 -0.0121
   71HFI     H2 1341   1.268   0.271   2.961 -0.5391  0.7574  1.1791
   72HFI     O1 1342   1.205   1.772   0.395  0.3846 -0.7287 -0.2231
   72HFI     C1 1343   1.233   1.633   0.427 -0.0135 -0.1822 -1.1479
   72HFI     C2 1344   1.378   1.580   0.396 -0.0241 -0.3725  0.0091
   72HFI     F1 1345   1.394   1.443   0.421  0.0203 -0.0770  0.5757
   72HFI     F2 1346   1.457   1.648   0.489  0.1960  0.6519  0.6436
   72HFI     F3 1347   1.424   1.609   0.263  0.4636  0.2116 -0.2599
   72HFI     C3 1348   1.119   1.542   0.369 -0.5994  0.0979 -0.6276
   72HFI     F4 1349   1.012   1.612   0.357  0.0848 -0.2168 -0.5725
   72HFI     F5 1350   1.096   1.431   0.439 -0.9962 -0.7993 -0.7288
   72HFI     F6 1351   1.152   1.496   0.247  0.5493 -0.3947 -0.2283
   72HFI     H1 1352   1.109   1.782   0.380  0.7670  1.0291 -1.7089
   72HFI     H2 1353   1.219   1.613   0.534 -1.3268 -0.0397 -1.2860
   73HFI     O1 1354   3.077   1.901   0.575 -0.5672 -0.2086 -0.1875
   73HFI     C1 1355   3.163   1.954   0.479 -0.7581 -0.3366 -0.5020
   73HFI     C2 1356   3.312   1.951   0.527 -0.2579  0.4008  0.3223
   73HFI     F1 1357   3.393   1.951   0.416 -0.1479  0.0991 -0.3453
   73HFI     F2 1358   3.335   1.835   0.582  0.0215 -0.2045 -0.2366
   73HFI     F3 1359   3.348   2.049   0.615  0.2174  0.1397  0.4321
   73HFI     C3 1360   3.126   2.100   0.438 -0.6191 -0.2031 -0.1232
   73HFI     F4 1361   2.997   2.112   0.404  0.1882  0.3649  0.1265
   73HFI     F5 1362   3.201   2.148   0.338 -0.4468  0.4659  0.2521
   73HFI     F6 1363   3.137   2.186   0.535 -0.7293  0.0385 -0.2445
   73HFI     H1 1364   3.122   1.826   0.617  2.0302  1.6406  0.4843
   73HFI     H2 1365   3.168   1.891   0.390 -0.5055  0.5886 -1.1542
   74HFI     O1 1366   2.602   0.118   3.299  0.6222  0.4305  0.0721
   74HFI     C1 1367   2.563   0.246   3.230  0.2019  0.1029 -0.1129
   74HFI     C2 1368   2.478   0.331   3.335  0.3762  0.3115 -0.0300
   74HFI     F1 1369   2.561   0.372   3.424  0.1369  0.2872 -0.0939
   74HFI     F2 1370   2.386   0.246   3.395 -0.0133  0.1567 -0.7397
   74HFI     F3 1371   2.413   0.437   3.282  0.5201 -0.1406 -0.0527
   74HFI     C3 1372   2.488   0.207   3.092  0.0101 -0.6579  0.0274
   74HFI     F4 1373   2.464   0.312   3.014 -0.5651  0.2733 -0.5533
   74HFI     F5 1374   2.372   0.149   3.119 -0.2735  0.3974 -0.1611
   74HFI     F6 1375   2.562   0.115   3.026 -0.0259 -0.6059 -0.4264
   74HFI     H1 1376   2.542   0.106   3.375  2.1987 -0.0195  1.2639
   74HFI     H2 1377   2.653   0.299   3.196  0.9851 -0.4877  1.0263
   75HFI     O1 1378   0.313   2.075   1.573 -0.1109  0.0090  0.0575
   75HFI     C1 1379   0.255   1.978   1.480 -1.4691 -0.1027 -0.6058
   75HFI     C2 1380   0.336   1.965   1.352 -0.2026 -0.0143  0.1305
   75HFI     F1 1381   0.326   2.078   1.287 -0.1752 -0.7102 -0.3387
   75HFI     F2 1382   0.307   1.867   1.266 -0.2649 -0.3130 -0.0878
   75HFI     F3 1383   0.470   1.960   1.381 -0.2823  0.0156 -0.3441
   75HFI     C3 1384   0.107   2.015   1.457  0.1836  0.4007 -0.0712
   75HFI     F4 1385   0.048   1.936   1.367 -0.4903  0.4511  0.4538
   75HFI     F5 1386   0.091   2.139   1.416  0.3386  0.0302 -0.6359
   75HFI     F6 1387   0.037   2.006   1.576  0.0582  0.1547 -0.1201
   75HFI     H1 1388   0.282   2.165   1.555  0.8821  0.6032  1.2581
   75HFI     H2 1389   0.271   1.882   1.531 -1.0577  0.3082  0.0453
   76HFI     O1 1390   0.810   0.164   1.343 -0.7060  0.1343  0.3934
   76HFI     C1 1391   0.858   0.278   1.415  0.3266  0.3585  0.0377
   76HFI     C2 1392   0.980   0.240   1.507 -0.5168 -0.7801 -0.3409
   76HFI     F1 1393   0.947   0.154   1.601  0.3996  0.3978 -0.1688
   76HFI     F2 1394   1.028   0.348   1.572 -0.1728  0.0493 -0.1726
   76HFI     F3 1395   1.081   0.181   1.441  0.9851  0.3793  0.6287
   76HFI     C3 1396   0.736   0.345   1.492  0.2548 -0.5959  0.2034
   76HFI     F4 1397   0.767   0.454   1.565  0.2137 -0.0862 -0.1131
   76HFI     F5 1398   0.657   0.261   1.568  0.3632 -0.1676 -0.4985
   76HFI     F6 1399   0.655   0.402   1.399  0.5682  0.4487  0.1799
   76HFI     H1 1400   0.793   0.093   1.406  1.4648 -1.3602 -0.6565
   76HFI     H2 1401   0.903   0.358   1.355 -0.5692  0.4882 -0.4770
   77HFI     O1 1402   2.741   0.788   3.055  0.4021  0.3268 -0.5300
   77HFI     C1 1403   2.684   0.752   2.921  0.4109  0.4093 -0.6854
   77HFI     C2 1404   2.624   0.876   2.850  0.2430 -0.1679  0.4138
   77HFI     F1 1405   2.514   0.936   2.904  0.7053 -0.0590  0.3565
   77HFI     F2 1406   2.588   0.839   2.716  0.2104  0.3675  0.2475
   77HFI     F3 1407   2.721   0.972   2.843  0.6375 -0.0813 -0.0162
   77HFI     C3 1408   2.593   0.630   2.926  0.3086 -0.0506  0.9833
   77HFI     F4 1409   2.654   0.524   2.981 -0.8857  0.1876  0.0988
   77HFI     F5 1410   2.541   0.588   2.805  0.3391 -0.5677  0.0200
   77HFI     F6 1411   2.482   0.661   3.003 -0.2887  0.6525  0.2678
   77HFI     H1 1412   2.679   0.839   3.110  1.2289 -1.2418  1.9381
   77HFI     H2 1413   2.773   0.723   2.863  0.9000  0.4297  0.0526
   78HFI     O1 1414   2.777   0.429   0.158 -0.4009 -0.9086 -0.1263
   78HFI     C1 1415   2.661   0.339   0.143  0.2990  0.6973 -0.2169
   78HFI     C2 1416   2.631   0.272   0.279  1.0178 -0.4693 -0.1422
   78HFI     F1 1417   2.710   0.171   0.316  0.0038  0.5921 -0.0439
   78HFI     F2 1418   2.505   0.222   0.264  0.1811  0.7348  0.4738
   78HFI     F3 1419   2.624   0.356   0.386 -0.3148  0.6135 -0.2877
   78HFI     C3 1420   2.671   0.239   0.022  0.5169 -0.6582 -0.2697
   78HFI     F4 1421   2.782   0.164   0.022  0.2285 -0.1413 -0.0542
   78HFI     F5 1422   2.672   0.309  -0.085  0.0035 -0.0697  0.0044
   78HFI     F6 1423   2.557   0.159   0.012 -0.2366  0.8468  0.3854
   78HFI     H1 1424   2.756   0.499   0.222  4.1485 -0.7150  1.3058
   78HFI     H2 1425   2.571   0.395   0.118 -1.2069 -1.8488 -0.6953
   79HFI     O1 1426   1.630   1.044   1.143  0.3937  0.5027 -0.4643
   79HFI     C1 1427   1.658   0.899   1.142  0.1820  0.2166 -0.3628
   79HFI     C2 1428   1.786   0.873   1.052  0.2825  0.2086  0.2695
   79HFI     F1 1429   1.784   0.939   0.936  0.6322  0.4553  0.2262
   79HFI     F2 1430   1.800   0.738   1.034 -0.3479 -0.1405  0.5067
   79HFI     F3 1431   1.888   0.919   1.120  0.3405 -0.1989 -0.3145
   79HFI     C3 1432   1.540   0.815   1.101 -0.3104 -0.1676  0.3059
   79HFI     F4 1433   1.574   0.684   1.116  0.2203 -0.0217 -0.1295
   79HFI     F5 1434   1.497   0.833   0.974 -0.4212  0.0677 -0.2801
   79HFI     F6 1435   1.437   0.842   1.182 -0.3762 -0.1677  0.2041
   79HFI     H1 1436   1.589   1.065   1.058 -0.3449 -1.6976 -0.6976
   79HFI     H2 1437   1.689   0.863   1.241 -1.6002  2.3085  0.9945
   80HFI     O1 1438   1.789   1.238   3.769  0.0887  0.0549 -0.5455
   80HFI     C1 1439   1.775   1.328   3.882 -0.0320  0.0970 -0.2110
   80HFI     C2 1440   1.629   1.334   3.935  0.3788  0.2474 -0.4886
   80HFI     F1 1441   1.626   1.401   4.050  0.6723  0.1391  0.4265
   80HFI     F2 1442   1.580   1.216   3.962 -0.0780  0.3544  0.2182
   80HFI     F3 1443   1.543   1.396   3.849  0.6124 -0.2346 -0.2823
   80HFI     C3 1444   1.836   1.471   3.858 -0.9780  0.2816 -0.2141
   80HFI     F4 1445   1.767   1.545   3.773  0.2487 -0.5464  0.9549
   80HFI     F5 1446   1.961   1.463   3.822  0.0403  0.2283 -0.0883
   80HFI     F6 1447   1.836   1.542   3.971  0.1167 -0.0618 -0.1884
   80HFI     H1 1448   1.840   1.287   3.702  0.0122  0.9478  0.0452
   80HFI     H2 1449   1.842   1.294   3.963  1.2683  1.1664 -0.8142
   81HFI     O1 1450   0.651   0.712   3.357  0.3723  0.3558 -0.3009
   81HFI     C1 1451   0.786   0.684   3.314 -0.2056  0.9117 -0.1439
   81HFI     C2 1452   0.782   0.566   3.216  0.5400  0.2372  0.0084
   81HFI     F1 1453   0.691   0.476   3.270 -0.3117 -0.5291 -0.5609
   81HFI     F2 1454   0.901   0.506   3.195 -0.4697 -0.5748  0.3140
   81HFI     F3 1455   0.733   0.601   3.096  0.3612  0.1031 -0.4492
   81HFI     C3 1456   0.884   0.663   3.431 -0.1445 -0.1292  0.6588
   81HFI     F4 1457   0.875   0.538   3.480 -0.0030 -0.3114  0.0737
   81HFI     F5 1458   0.859   0.741   3.534  0.1921 -0.2269  0.1386
   81HFI     F6 1459   1.011   0.675   3.390 -0.0563  0.2609  0.4886
   81HFI     H1 1460   0.592   0.646   3.315 -1.0607  0.6169  1.2389
   81HFI     H2 1461   0.824   0.766   3.252 -2.5710  1.4260 -0.9946
   82HFI     O1 1462   0.115   1.074   0.763  0.1559 -0.4425  0.1492
   82HFI     C1 1463  -0.015   1.084   0.813 -0.4784 -0.1199  0.3042
   82HFI     C2 1464  -0.081   1.217   0.761 -0.1153  0.5995 -0.3139
   82HFI     F1 1465  -0.113   1.200   0.633  0.0849 -0.0894 -0.3116
   82HFI     F2 1466  -0.005   1.328   0.771 -0.2999 -0.1909 -0.3618
   82HFI     F3 1467  -0.199   1.234   0.820  0.2259 -0.2272 -0.1799
   82HFI     C3 1468  -0.010   1.083   0.964 -0.3644  0.4115 -0.4923
   82HFI     F4 1469  -0.124   1.104   1.026  0.6023 -0.2125 -0.5001
   82HFI     F5 1470   0.076   1.176   1.010  0.5078 -0.2071 -0.1329
   82HFI     F6 1471   0.047   0.970   1.008 -0.1661 -0.4700  0.2326
   82HFI     H1 1472   0.172   1.139   0.807 -2.3668  0.9107  1.5335
   82HFI     H2 1473  -0.072   0.998   0.775  1.1562 -0.0223 -2.4607
   83HFI     O1 1474   0.965   0.230   0.464 -0.5944  0.2066  0.3077
   83HFI     C1 1475   1.003   0.123   0.554 -1.1173  0.3599 -0.3934
   83HFI     C2 1476   1.104   0.021   0.482  0.4504  0.0899  0.0659
   83HFI     F1 1477   1.215   0.085   0.442 -0.5872 -0.5408 -0.1642
   83HFI     F2 1478   1.051  -0.033   0.370  0.1153 -0.0547 -0.1967
   83HFI     F3 1479   1.141  -0.076   0.569 -0.1083  0.2814  0.1615
   83HFI     C3 1480   0.876   0.051   0.622  0.0217  0.2651 -0.1030
   83HFI     F4 1481   0.804   0.138   0.681  0.3705 -0.4967  0.3307
   83HFI     F5 1482   0.916  -0.044   0.707  0.5753 -0.0927 -0.1185
   83HFI     F6 1483   0.796  -0.016   0.533 -0.5298 -0.4317  0.3176
   83HFI     H1 1484   0.960   0.201   0.371  0.3599 -1.2104  0.6928
   83HFI     H2 1485   1.052   0.166   0.642  0.5071 -0.8087 -0.7013
   84HFI     O1 1486   1.328   1.014   0.764 -0.1958  0.6112 -0.0209
   84HFI     C1 1487   1.327   1.037   0.622 -0.3322 -0.2870 -0.3416
   84HFI     C2 1488   1.226   1.146   0.592  0.1654  0.7239 -0.1876
   84HFI     F1 1489   1.108   1.108   0.639 -0.5151 -0.3274  0.4777
   84HFI     F2 1490   1.216   1.153   0.457 -0.2924  0.0671 -0.0450
   84HFI     F3 1491   1.249   1.267   0.638 -0.0229 -0.2549  0.1606
   84HFI     C3 1492   1.314   0.899   0.553 -0.3137 -0.2154 -0.5325
   84HFI     F4 1493   1.345   0.910   0.420 -1.2434 -0.4747 -0.1019
   84HFI     F5 1494   1.191   0.855   0.566  0.2415  0.0000 -0.0974
   84HFI     F6 1495   1.391   0.807   0.613 -0.2562 -0.2053 -0.2043
   84HFI     H1 1496   1.238   0.982   0.785 -0.4053  1.7751  0.9201
   84HFI     H2 1497   1.423   1.075   0.584 -0.2918  2.0003  1.9713
   85HFI     O1 1498   2.753   2.060   0.853  0.3013  0.0657 -0.3826
   85HFI     C1 1499   2.734   2.178   0.936 -0.0578  0.0412  0.1698
   85HFI     C2 1500   2.786   2.147   1.082  0.2057  0.8604  0.2691
   85HFI     F1 1501   2.907   2.084   1.074 -0.0283 -0.0952  0.3440
   85HFI     F2 1502   2.705   2.063   1.144  0.2798  0.0864  0.3456
   85HFI     F3 1503   2.805   2.255   1.158  0.0278 -0.6510  0.1980
   85HFI     C3 1504   2.586   2.227   0.931  0.0308  0.0946 -0.6514
   85HFI     F4 1505   2.498   2.125   0.949 -0.2520  0.2798 -0.0205
   85HFI     F5 1506   2.569   2.286   0.810 -0.1743 -0.0980  0.2815
   85HFI     F6 1507   2.565   2.319   1.031 -0.4167 -0.0801  0.0852
   85HFI     H1 1508   2.847   2.036   0.847  0.4610  0.2999  1.0092
   85HFI     H2 1509   2.798   2.263   0.910 -0.3636  0.1690 -0.1553
   86HFI     O1 1510   1.696   1.976   1.281 -0.0653 -0.3273 -0.2593
   86HFI     C1 1511   1.638   1.869   1.358 -0.1329  0.5686  0.2645
   86HFI     C2 1512   1.494   1.851   1.315  0.0539 -0.2704 -1.0942
   86HFI     F1 1513   1.475   1.843   1.179 -0.0294 -0.0054  0.2781
   86HFI     F2 1514   1.421   1.957   1.353 -0.6289  0.4766 -0.6176
   86HFI     F3 1515   1.437   1.746   1.376  0.1576  0.1814  0.1240
   86HFI     C3 1516   1.659   1.883   1.514  0.6772 -0.1048  0.2889
   86HFI     F4 1517   1.790   1.880   1.543 -0.6118  0.3997  0.5956
   86HFI     F5 1518   1.592   1.796   1.592  0.0066 -0.0076  0.1517
   86HFI     F6 1519   1.608   2.005   1.563 -0.0254  0.5260  0.8747
   86HFI     H1 1520   1.689   2.061   1.328 -1.6699  0.5371 -1.9616
   86HFI     H2 1521   1.683   1.774   1.325  1.0770  1.4482 -0.7014
   87HFI     O1 1522   1.706   2.234   0.991 -0.5869 -0.4801 -0.1479
   87HFI     C1 1523   1.654   2.115   0.919 -0.1121  1.0276  1.1403
   87HFI     C2 1524   1.706   2.108   0.771 -0.4648  0.6036  0.2026
   87HFI     F1 1525   1.840   2.115   0.768  0.7128 -0.1066 -0.3749
   87HFI     F2 1526   1.657   2.213   0.699 -0.2434  0.4939  0.1680
   87HFI     F3 1527   1.671   1.992   0.708 -0.1443  0.2716 -0.0154
   87HFI     C3 1528   1.493   2.092   0.923  0.5135  0.2738  0.2763
   87HFI     F4 1529   1.449   2.108   1.056  0.3847 -0.4588  0.0389
   87HFI     F5 1530   1.474   1.963   0.882 -0.0033 -0.1309 -0.1504
   87HFI     F6 1531   1.417   2.169   0.835 -0.4560 -0.1367 -0.1033
   87HFI     H1 1532   1.796   2.253   0.957 -0.4595 -3.4442 -1.6400
   87HFI     H2 1533   1.694   2.022   0.962  0.2801  0.8932  0.4946
   88HFI     O1 1534   0.215   1.561   2.917  0.0051  0.1623  0.4793
   88HFI     C1 1535   0.131   1.469   2.997  0.7485 -0.1303  0.4661
   88HFI     C2 1536   0.002   1.438   2.915  0.7706  0.1255 -0.6971
   88HFI     F1 1537  -0.056   1.559   2.894  0.3886 -0.2831 -0.4782
   88HFI     F2 1538  -0.081   1.352   2.974  0.1593  0.1132  0.4519
   88HFI     F3 1539   0.038   1.386   2.786  0.0021 -0.2230  0.0090
   88HFI     C3 1540   0.098   1.532   3.138 -0.4244  0.4551  0.6514
   88HFI     F4 1541   0.207   1.531   3.212 -0.1596  0.1229 -0.0912
   88HFI     F5 1542  -0.011   1.477   3.197 -0.0615 -0.1570  0.3999
   88HFI     F6 1543   0.069   1.665   3.116  0.5288 -0.5789  0.3390
   88HFI     H1 1544   0.172   1.647   2.899  4.5744  2.5107 -0.0391
   88HFI     H2 1545   0.180   1.372   3.010  1.0224  0.1861  1.9089
   89HFI     O1 1546   3.238   0.098   0.268 -0.3891 -0.6320  0.7802
   89HFI     C1 1547   3.155   0.115   0.383 -0.0651 -0.4966  0.1927
   89HFI     C2 1548   3.230   0.184   0.508  0.5792  0.8070  0.1759
   89HFI     F1 1549   3.150   0.210   0.613  0.4079 -0.2260 -0.0858
   89HFI     F2 1550   3.285   0.304   0.469 -0.0342 -0.4800  0.1133
   89HFI     F3 1551   3.328   0.108   0.547 -1.0861  0.3265 -0.0511
   89HFI     C3 1552   3.082  -0.012   0.420  0.0241  0.1110 -0.2874
   89HFI     F4 1553   3.160  -0.123   0.440  0.7392  0.2297  0.7032
   89HFI     F5 1554   2.987  -0.039   0.327  0.6376 -0.0892 -0.1847
   89HFI     F6 1555   3.019   0.011   0.540  0.0499 -0.0400 -0.1374
   89HFI     H1 1556   3.328   0.125   0.293  0.2044 -2.5819  0.8385
   89HFI     H2 1557   3.075   0.185   0.358  0.8144  0.4598  0.0115
   90HFI     O1 1558   2.605   1.611   0.811 -0.5998  0.3473  0.5148
   90HFI     C1 1559   2.610   1.695   0.921  0.1343 -0.4041 -0.0475
   90HFI     C2 1560   2.743   1.694   0.993 -0.4903 -0.3803  0.2425
   90HFI     F1 1561   2.764   1.573   1.043 -0.1811  0.1629  0.2203
   90HFI     F2 1562   2.746   1.783   1.096 -0.4760  0.2919 -0.2623
   90HFI     F3 1563   2.841   1.722   0.904  0.2128 -0.8206  0.2540
   90HFI     C3 1564   2.490   1.675   1.016 -0.1378 -0.2627 -0.0932
   90HFI     F4 1565   2.494   1.753   1.131  0.1534  0.1889  0.3291
   90HFI     F5 1566   2.479   1.552   1.059  0.3110  0.2556  0.2024
   90HFI     F6 1567   2.376   1.711   0.952  0.9855  0.0593  0.3096
   90HFI     H1 1568   2.634   1.519   0.826  0.3808  0.6063  0.2446
   90HFI     H2 1569   2.605   1.795   0.878 -0.1995 -0.3092  0.2107
   91HFI     O1 1570   2.876   0.260   2.617 -0.3583 -0.0511 -1.1475
   91HFI     C1 1571   2.914   0.307   2.753  0.1523  0.4951 -0.7924
   91HFI     C2 1572   2.807   0.246   2.851 -0.4564  0.4149 -0.4806
   91HFI     F1 1573   2.678   0.246   2.808 -0.1308  0.0382 -0.4930
   91HFI     F2 1574   2.825   0.311   2.970  0.0071  0.1301  0.1139
   91HFI     F3 1575   2.842   0.115   2.873 -0.1686 -0.3601 -0.8580
   91HFI     C3 1576   2.925   0.466   2.741  0.5524 -0.1164  0.2795
   91HFI     F4 1577   2.802   0.524   2.705 -0.8200  0.2851 -0.1248
   91HFI     F5 1578   3.013   0.496   2.649 -0.0115  0.1631 -0.2908
   91HFI     F6 1579   2.974   0.521   2.857 -0.3279  0.3682 -0.1648
   91HFI     H1 1580   2.864   0.335   2.556 -0.9561 -0.7274 -1.8699
   91HFI     H2 1581   3.013   0.273   2.786  1.1827  0.8666 -3.3749
   92HFI     O1 1582   2.985   2.693   1.077 -0.4921 -0.1718 -0.2934
   92HFI     C1 1583   2.842   2.705   1.109  0.9373 -0.4880 -0.4654
   92HFI     C2 1584   2.749   2.654   0.991 -0.9763  0.9857  0.0354
   92HFI     F1 1585   2.746   2.741   0.892 -0.1694  0.3873 -0.2279
   92HFI     F2 1586   2.627   2.627   1.029 -0.1398  0.2586 -0.2971
   92HFI     F3 1587   2.797   2.543   0.936  0.2590 -0.1676 -0.1610
   92HFI     C3 1588   2.797   2.854   1.146  0.0011  0.2392  0.2013
   92HFI     F4 1589   2.839   2.878   1.269  0.1249 -0.7875 -0.2335
   92HFI     F5 1590   2.666   2.872   1.146 -0.0429  0.1309 -0.3964
   92HFI     F6 1591   2.854   2.943   1.058  0.4287 -0.1726  0.1536
   92HFI     H1 1592   2.989   2.663   0.985  1.2692 -3.3931  0.7732
   92HFI     H2 1593   2.806   2.637   1.187 -0.2670  1.7170  0.9525
   93HFI     O1 1594   1.225   0.654   0.313 -0.2833 -0.0297 -0.5117
   93HFI     C1 1595   1.319   0.566   0.236  0.5456 -0.1029 -0.9275
   93HFI     C2 1596   1.276   0.423   0.216 -0.3487  0.3840  0.2107
   93HFI     F1 1597   1.284   0.359   0.335 -0.2416 -0.3614 -0.2793
   93HFI     F2 1598   1.357   0.361   0.125  0.1704 -0.0456  0.3685
   93HFI     F3 1599   1.154   0.412   0.178  0.2877 -0.5032  0.0890
   93HFI     C3 1600   1.470   0.582   0.279  0.4004  0.1116  0.8297
   93HFI     F4 1601   1.551   0.498   0.206  0.7931  0.4023 -0.2942
   93HFI     F5 1602   1.486   0.540   0.405 -0.5617  0.0380 -0.3265
   93HFI     F6 1603   1.526   0.706   0.266 -0.1978 -0.5681  0.2880
   93HFI     H1 1604   1.149   0.597   0.336 -0.7440 -0.3846 -2.7869
   93HFI     H2 1605   1.327   0.603   0.133 -0.9975 -0.2309 -1.1062
   94HFI     O1 1606   1.624   2.557   1.045 -0.2504 -0.0194  0.1576
   94HFI     C1 1607   1.687   2.676   0.999  0.0021  0.1227  0.3054
   94HFI     C2 1608   1.626   2.710   0.857  0.5257  1.0025 -0.7140
   94HFI     F1 1609   1.695   2.801   0.784  0.2829 -0.5924 -0.1896
   94HFI     F2 1610   1.502   2.755   0.876  0.7611  0.1653  0.4299
   94HFI     F3 1611   1.620   2.593   0.787 -0.2033 -0.5243  0.2444
   94HFI     C3 1612   1.839   2.659   1.004  0.0962 -0.3583 -0.0131
   94HFI     F4 1613   1.873   2.544   0.944 -0.2175 -0.4394 -0.1854
   94HFI     F5 1614   1.877   2.651   1.129 -0.3480 -0.3647  0.0481
   94HFI     F6 1615   1.900   2.766   0.964  0.2977  0.1055 -0.3385
   94HFI     H1 1616   1.644   2.484   0.985  0.3340  0.1467  0.1519
   94HFI     H2 1617   1.656   2.767   1.052  1.9733  1.3035 -0.4764
   95HFI     O1 1618   2.819   1.792   0.388 -0.4691  0.0667 -0.0675
   95HFI     C1 1619   2.690   1.825   0.452  0.5038 -0.4150 -0.7389
   95HFI     C2 1620   2.570   1.758   0.373  0.2531  0.4799 -0.0128
   95HFI     F1 1621   2.543   1.827   0.256 -0.0878 -0.2657  0.1766
   95HFI     F2 1622   2.464   1.751   0.459  0.0771  0.3808  0.2725
   95HFI     F3 1623   2.600   1.638   0.339  0.7982 -0.5618 -0.4995
   95HFI     C3 1624   2.667   1.978   0.480  0.5776  0.3454  0.1928
   95HFI     F4 1625   2.759   2.019   0.575 -0.9103 -0.0843  0.2558
   95HFI     F5 1626   2.548   2.005   0.529  0.0583  0.0367 -0.0405
   95HFI     F6 1627   2.687   2.051   0.366  0.0445 -0.1143  0.5346
   95HFI     H1 1628   2.860   1.865   0.338 -3.1170  2.3665  0.9655
   95HFI     H2 1629   2.700   1.777   0.550  0.2152  2.2813  0.6538
   96HFI     O1 1630   2.098   2.463   3.777 -0.4889 -0.2525  0.0985
   96HFI     C1 1631   2.214   2.554   3.775 -1.2679  0.1628  0.1652
   96HFI     C2 1632   2.173   2.689   3.710  0.4853  0.7625  0.2459
   96HFI     F1 1633   2.114   2.668   3.589 -0.1322  0.3309 -0.3380
   96HFI     F2 1634   2.280   2.761   3.681  0.2238 -0.0928 -0.5634
   96HFI     F3 1635   2.087   2.750   3.785  0.2881 -0.8933 -0.3658
   96HFI     C3 1636   2.334   2.486   3.701  0.2373  0.4564  0.2799
   96HFI     F4 1637   2.324   2.490   3.569 -0.3871  0.1332 -0.2082
   96HFI     F5 1638   2.352   2.351   3.741  0.2471 -0.3481  0.2883
   96HFI     F6 1639   2.447   2.542   3.726 -0.4356 -0.0605 -0.0418
   96HFI     H1 1640   2.111   2.427   3.687  1.1577  2.2114 -0.6796
   96HFI     H2 1641   2.235   2.581   3.879  1.3400 -4.1427  0.8627
   97HFI     O1 1642   0.999   1.942   1.297 -0.1258  0.1217 -0.4788
   97HFI     C1 1643   0.874   1.989   1.357  0.5586 -0.4677 -0.0961
   97HFI     C2 1644   0.813   2.122   1.304  0.7005  0.4933 -0.6747
   97HFI     F1 1645   0.783   2.114   1.164  0.0428 -0.5171 -0.6179
   97HFI     F2 1646   0.910   2.220   1.325 -0.1207  0.2469  0.3373
   97HFI     F3 1647   0.708   2.157   1.373 -0.0822  0.5469  0.2976
   97HFI     C3 1648   0.873   1.982   1.515 -0.1451  0.1475  0.2961
   97HFI     F4 1649   0.926   2.089   1.575 -0.5038 -0.2786 -0.0366
   97HFI     F5 1650   0.954   1.878   1.547 -0.2867 -0.1080  0.1174
   97HFI     F6 1651   0.752   1.956   1.575  0.5696  0.3653  0.0954
   97HFI     H1 1652   1.011   1.861   1.350  1.0133  1.3616  1.2152
   97HFI     H2 1653   0.795   1.918   1.328 -0.6861  0.2285  1.5589
   98HFI     O1 1654   0.828   0.159   1.028 -0.6432 -0.2085  0.1219
   98HFI     C1 1655   0.728   0.059   0.989  0.0521 -0.0802  0.8190
   98HFI     C2 1656   0.597   0.118   0.952  0.3886 -0.3381  0.1218
   98HFI     F1 1657   0.541   0.044   0.856  0.2107 -0.6937 -0.1329
   98HFI     F2 1658   0.612   0.239   0.900 -0.2270 -0.0892  0.2493
   98HFI     F3 1659   0.519   0.130   1.054 -0.1720  0.6277 -0.0934
   98HFI     C3 1660   0.720  -0.059   1.085 -1.0550  0.7618 -0.2146
   98HFI     F4 1661   0.625  -0.150   1.041 -0.1305 -0.5165  0.3036
   98HFI     F5 1662   0.684  -0.030   1.209 -0.2767  0.0216 -0.0261
   98HFI     F6 1663   0.832  -0.127   1.085 -0.0207 -0.5012  0.2338
   98HFI     H1 1664   0.839   0.154   1.124  2.0773  0.7666 -0.0982
   98HFI     H2 1665   0.759   0.005   0.899  0.5721 -0.5073  1.2587
   99HFI     O1 1666   2.922   0.679   1.396 -0.0405  0.3787  0.1222
   99HFI     C1 1667   2.817   0.778   1.400 -0.2005 -0.6125  0.4482
   99HFI     C2 1668   2.783   0.818   1.548 -0.5878 -0.1063  0.9872
   99HFI     F1 1669   2.703   0.930   1.547 -0.2065  0.0178  0.4233
   99HFI     F2 1670   2.895   0.851   1.607  0.0431  0.4876  0.2371
   99HFI     F3 1671   2.713   0.724   1.619 -0.3675 -0.9716 -0.1120
   99HFI     C3 1672   2.688   0.723   1.328  0.1044 -0.6580  0.1756
   99HFI     F4 1673   2.717   0.705   1.197  0.2287 -0.5607  0.4287
   99HFI     F5 1674   2.578   0.804   1.341  0.1365  0.2121  0.7237
   99HFI     F6 1675   2.644   0.603   1.377  0.2738  0.6579 -0.2482
   99HFI     H1 1676   2.964   0.679   1.484  0.1654  2.0915  0.0401
   99HFI     H2 1677   2.843   0.872   1.350 -2.0541 -0.3354 -0.0258
  100HFI     O1 1678   1.646   0.332   1.588  0.2443  0.1030  0.3880
  100HFI     C1 1679   1.606   0.470   1.564  0.0987 -0.7126 -0.0203
  100HFI     C2 1680   1.483   0.472   1.484  0.1605  0.0585 -0.0949
  100HFI     F1 1681   1.442   0.596   1.448 -0.2100 -0.5651  0.3639
  100HFI     F2 1682   1.388   0.429   1.570 -0.3221 -0.2255 -0.2065
  100HFI     F3 1683   1.484   0.396   1.373 -0.0319 -0.1223  0.2521
  100HFI     C3 1684   1.719   0.558   1.503  0.2884 -0.0686 -0.5021
  100HFI     F4 1685   1.739   0.536   1.372  0.0963 -0.8730  0.0038
  100HFI     F5 1686   1.836   0.530   1.562  0.4350  0.3051 -0.0373
  100HFI     F6 1687   1.697   0.691   1.521  0.1264  0.4849  0.2044
  100HFI     H1 1688   1.715   0.305   1.525  1.0290 -0.5498  1.5106
  100HFI     H2 1689   1.576   0.507   1.663  0.4446 -1.1024  0.2314
  101HFI     O1 1690   1.268   0.159   1.101 -0.0074 -0.2536 -0.2942
  101HFI     C1 1691   1.369   0.134   0.994  0.0668 -0.1657  0.1487
  101HFI     C2 1692   1.306   0.055   0.873 -0.9939 -0.2210  0.6662
  101HFI     F1 1693   1.274  -0.074   0.900 -0.7687  0.1251 -0.2543
  101HFI     F2 1694   1.386   0.047   0.768 -0.2231 -0.4634 -0.1852
  101HFI     F3 1695   1.198   0.125   0.828  0.0959 -0.1076  0.1373
  101HFI     C3 1696   1.494   0.059   1.043 -0.7495 -0.2568  0.2288
  101HFI     F4 1697   1.589   0.072   0.949 -0.3120  0.4260 -0.1337
  101HFI     F5 1698   1.469  -0.077   1.066  0.4377  0.0082  0.3691
  101HFI     F6 1699   1.541   0.108   1.161 -0.1667 -0.7308  0.0604
  101HFI     H1 1700   1.291   0.118   1.187  3.3917  2.4284  0.1644
  101HFI     H2 1701   1.403   0.234   0.962  0.7607 -0.4822 -0.1153
  102HFI     O1 1702   0.322   2.245   3.717 -0.2636  0.2563 -0.0886
  102HFI     C1 1703   0.353   2.174   3.846 -0.7450  0.4343  1.0743
  102HFI     C2 1704   0.505   2.182   3.878 -0.2469 -0.3677 -0.2093
  102HFI     F1 1705   0.578   2.098   3.792  0.3378 -0.5045 -0.1625
  102HFI     F2 1706   0.532   2.139   4.003 -0.3629  0.0091  0.0549
  102HFI     F3 1707   0.547   2.304   3.861 -0.0860  0.4447  0.2200
  102HFI     C3 1708   0.297   2.029   3.853 -1.0086  0.1909 -0.3744
  102HFI     F4 1709   0.351   1.966   3.750  0.1229  0.0026  0.4382
  102HFI     F5 1710   0.156   2.038   3.842 -0.3264 -0.4249  0.1626
  102HFI     F6 1711   0.327   1.973   3.968 -0.2788  0.2379 -0.2124
  102HFI     H1 1712   0.228   2.268   3.709 -1.5023 -4.6528 -0.7929
  102HFI     H2 1713   0.299   2.230   3.924 -0.4608  0.8217  0.9918
  103HFI     O1 1714   2.483   1.269   1.538 -0.7606 -0.3757 -0.2295
  103HFI     C1 1715   2.436   1.357   1.434 -0.4916  0.1012  0.5234
  103HFI     C2 1716   2.460   1.297   1.286 -0.2172  0.3437 -0.3872
  103HFI     F1 1717   2.586   1.303   1.249 -0.0433  0.1833 -0.4422
  103HFI     F2 1718   2.388   1.368   1.199  0.5931  0.0074 -0.1472
  103HFI     F3 1719   2.422   1.169   1.277 -0.0642 -0.5116  0.5310
  103HFI     C3 1720   2.504   1.498   1.444  0.4385 -0.2887 -0.4642
  103HFI     F4 1721   2.471   1.558   1.566 -0.4289  0.2118  0.1979
  103HFI     F5 1722   2.458   1.582   1.348  0.0613  0.9844  0.0663
  103HFI     F6 1723   2.637   1.498   1.428 -0.2813 -0.4820  0.0423
  103HFI     H1 1724   2.412   1.203   1.554 -0.8773  0.1387  1.4180
  103HFI     H2 1725   2.329   1.379   1.438 -0.3730  1.2270 -1.7251
  104HFI     O1 1726   0.431   3.045   0.004 -0.3537  0.0263 -0.3547
  104HFI     C1 1727   0.516   2.999  -0.101 -0.0685  0.0015  0.4175
  104HFI     C2 1728   0.593   2.871  -0.078 -0.1005  0.6662  0.3050
  104HFI     F1 1729   0.497   2.782  -0.034  0.3757  0.1349 -0.0193
  104HFI     F2 1730   0.683   2.894   0.024  0.1464  0.2631  0.6102
  104HFI     F3 1731   0.661   2.817  -0.187  0.5928 -0.2731 -0.6393
  104HFI     C3 1732   0.606   3.113  -0.156 -0.4016 -0.1713 -0.8165
  104HFI     F4 1733   0.668   3.065  -0.266 -0.3649 -0.4632  0.3474
  104HFI     F5 1734   0.700   3.156  -0.069 -0.1471 -0.1204 -0.3857
  104HFI     F6 1735   0.539   3.219  -0.192 -0.2330 -0.1206  0.0579
  104HFI     H1 1736   0.399   2.969   0.056  2.5488  1.0047  3.0465
  104HFI     H2 1737   0.451   2.979  -0.187  0.5616 -0.0729 -0.0489
  105HFI     O1 1738   1.075   2.714   3.147 -0.0212 -0.6030  0.2640
  105HFI     C1 1739   1.113   2.575   3.180  0.6609 -0.4273  1.1800
  105HFI     C2 1740   1.012   2.495   3.266  0.3752 -0.4854  0.1235
  105HFI     F1 1741   1.050   2.371   3.274  0.2025 -0.1331  0.1027
  105HFI     F2 1742   0.894   2.497   3.207  0.6838  0.7530  0.0153
  105HFI     F3 1743   1.001   2.544   3.386 -0.3386  0.3184 -0.4713
  105HFI     C3 1744   1.261   2.577   3.240  0.6894  0.5053 -0.1024
  105HFI     F4 1745   1.323   2.464   3.249  0.7255  0.2405 -0.1973
  105HFI     F5 1746   1.258   2.631   3.365  0.6354 -0.1090  0.0791
  105HFI     F6 1747   1.343   2.663   3.166 -0.0059  0.4508 -0.2022
  105HFI     H1 1748   0.991   2.710   3.099 -1.2294 -1.4357  2.3748
  105HFI     H2 1749   1.115   2.525   3.083 -1.1514 -0.1668  0.9991
  106HFI     O1 1750   0.030   1.620   1.400 -0.1660 -0.5183  0.2418
  106HFI     C1 1751   0.104   1.499   1.409 -0.0861 -0.8778 -0.6323
  106HFI     C2 1752   0.241   1.518   1.489 -0.7700 -0.4354 -0.3227
  106HFI     F1 1753   0.293   1.393   1.523  0.0390  0.4363  0.6026
  106HFI     F2 1754   0.218   1.583   1.603  0.0862  0.0886  0.0261
  106HFI     F3 1755   0.333   1.589   1.416 -0.3543  0.6330  0.1842
  106HFI     C3 1756   0.123   1.428   1.277  0.5712  1.0961 -0.2426
  106HFI     F4 1757   0.160   1.511   1.176  0.1919  0.2544  0.3970
  106HFI     F5 1758  -0.001   1.373   1.248  0.0989  0.2703 -0.5563
  106HFI     F6 1759   0.211   1.327   1.286  0.1539  0.4288  0.5439
  106HFI     H1 1760  -0.065   1.603   1.387 -0.0891  0.0452 -1.1009
  106HFI     H2 1761   0.048   1.428   1.470 -2.6328 -0.3188 -2.2585
  107HFI     O1 1762   3.157   1.697   0.796 -0.7002  0.6105  0.3630
  107HFI     C1 1763   3.229   1.734   0.925  0.4657 -0.2215  0.1421
  107HFI     C2 1764   3.192   1.635   1.039 -0.0092  0.8016 -0.1815
  107HFI     F1 1765   3.259   1.665   1.154 -0.4275 -0.1197  0.2189
  107HFI     F2 1766   3.234   1.511   1.009 -0.2857 -0.4116 -0.0638
  107HFI     F3 1767   3.057   1.633   1.066  0.4507 -0.3968 -0.0257
  107HFI     C3 1768   3.182   1.879   0.957  0.0511 -0.4356 -0.0651
  107HFI     F4 1769   3.232   1.971   0.877 -0.1108 -1.0929 -0.0881
  107HFI     F5 1770   3.227   1.915   1.085  0.0409 -0.6085  0.1755
  107HFI     F6 1771   3.043   1.891   0.949  0.5699  0.7459 -0.0130
  107HFI     H1 1772   3.094   1.625   0.817 -1.0703  1.1632  1.1626
  107HFI     H2 1773   3.337   1.752   0.918  0.1408  1.8228  0.1412
  108HFI     O1 1774   2.912   2.028   1.445 -0.1255 -0.4031  0.3471
  108HFI     C1 1775   2.940   1.904   1.514 -0.2240 -0.2975  0.3072
  108HFI     C2 1776   3.090   1.867   1.480  0.1811  0.5261  0.6765
  108HFI     F1 1777   3.110   1.835   1.351  0.2412  0.3241 -0.1398
  108HFI     F2 1778   3.139   1.774   1.568  0.6483 -0.2618 -0.2018
  108HFI     F3 1779   3.159   1.976   1.509  0.8137  0.2673 -0.4041
  108HFI     C3 1780   2.841   1.789   1.481 -0.3064  0.0222 -0.2857
  108HFI     F4 1781   2.870   1.724   1.365  0.2422  0.1911  0.1019
  108HFI     F5 1782   2.718   1.846   1.474  0.5751 -0.1475  0.3403
  108HFI     F6 1783   2.824   1.699   1.573 -0.1200  0.6489  0.1275
  108HFI     H1 1784   2.987   2.090   1.454 -0.1959 -0.3602  0.6637
  108HFI     H2 1785   2.941   1.931   1.620  1.1563  1.4898 -0.1282
  109HFI     O1 1786   1.323   1.510   1.403 -0.5942 -0.3105 -0.0220
  109HFI     C1 1787   1.230   1.503   1.515  0.1424 -0.4993 -0.2386
  109HFI     C2 1788   1.151   1.364   1.510 -0.0257 -0.0274  0.0464
  109HFI     F1 1789   1.233   1.265   1.489 -0.3053 -0.6308  0.3858
  109HFI     F2 1790   1.059   1.359   1.407  0.2977 -0.4046 -0.2806
  109HFI     F3 1791   1.077   1.342   1.628  0.1073 -0.0393 -0.0337
  109HFI     C3 1792   1.137   1.622   1.520  0.6455  0.0254 -0.6497
  109HFI     F4 1793   1.207   1.733   1.560 -0.1706 -0.1681 -0.5500
  109HFI     F5 1794   1.036   1.611   1.609  0.1171 -0.3107 -0.1497
  109HFI     F6 1795   1.088   1.648   1.395 -0.1968 -0.0414 -0.1274
  109HFI     H1 1796   1.366   1.597   1.398  0.5516 -0.8026  1.1308
  109HFI     H2 1797   1.288   1.507   1.608  2.0847  1.0434 -1.4724
  110HFI     O1 1798   2.469   2.888   0.885  0.3647  0.3082  0.3194
  110HFI     C1 1799   2.332   2.858   0.915 -1.3457 -0.2721  0.3925
  110HFI     C2 1800   2.251   2.860   0.782  0.3733 -0.5437 -0.3380
  110HFI     F1 1801   2.117   2.841   0.802  0.5321 -0.4391 -0.4657
  110HFI     F2 1802   2.292   2.763   0.695 -0.6765 -0.1111 -0.2314
  110HFI     F3 1803   2.263   2.985   0.720 -0.0241 -0.1885 -0.1980
  110HFI     C3 1804   2.281   2.949   1.032 -0.4812 -0.3540  0.5702
  110HFI     F4 1805   2.302   3.082   1.003  0.0206  0.6955  0.1292
  110HFI     F5 1806   2.345   2.924   1.150  0.3590 -0.3925  0.2583
  110HFI     F6 1807   2.152   2.932   1.048 -0.7220  0.2964 -0.2245
  110HFI     H1 1808   2.464   2.973   0.838  0.0543  0.7641  1.1714
  110HFI     H2 1809   2.328   2.754   0.950  0.5436 -0.6771 -0.5617
  111HFI     O1 1810   1.467   2.880   1.600  0.5235 -0.5199  0.2354
  111HFI     C1 1811   1.583   2.821   1.522 -0.8812  0.0328  0.4279
  111HFI     C2 1812   1.683   2.932   1.475  0.4060 -0.1601 -0.0987
  111HFI     F1 1813   1.738   2.994   1.577  0.4297 -0.4754 -0.4041
  111HFI     F2 1814   1.622   3.030   1.400 -0.3538 -0.0692 -0.0745
  111HFI     F3 1815   1.772   2.873   1.402  0.0616 -0.1368  0.3133
  111HFI     C3 1816   1.524   2.735   1.407  0.5325  0.0400  0.6441
  111HFI     F4 1817   1.426   2.650   1.449 -0.3959  0.3019 -0.3439
  111HFI     F5 1818   1.618   2.663   1.341 -0.2845  0.1130  0.2451
  111HFI     F6 1819   1.462   2.819   1.319 -0.3503  0.0627  0.5202
  111HFI     H1 1820   1.410   2.924   1.534  0.7786  0.4902  0.6727
  111HFI     H2 1821   1.640   2.759   1.592  0.0407 -0.0387 -0.3905
  112HFI     O1 1822   0.509   0.558   1.173  0.1983  0.0761 -0.0584
  112HFI     C1 1823   0.474   0.559   1.030  0.2830  0.2578  0.2803
  112HFI     C2 1824   0.469   0.709   0.979 -0.0097  0.1648 -0.1592
  112HFI     F1 1825   0.578   0.775   1.004  0.3065  0.0082  0.1296
  112HFI     F2 1826   0.370   0.779   1.037  0.3287  0.1435 -0.2022
  112HFI     F3 1827   0.445   0.723   0.848  0.2044 -0.2234 -0.1003
  112HFI     C3 1828   0.343   0.484   1.002  0.5345 -0.1506  1.1616
  112HFI     F4 1829   0.327   0.383   1.091 -0.4545  0.0509 -0.3625
  112HFI     F5 1830   0.348   0.439   0.872 -0.6464  0.1942  0.0894
  112HFI     F6 1831   0.234   0.564   1.010  0.1256 -0.0938 -0.4443
  112HFI     H1 1832   0.514   0.467   1.208  1.1836 -0.0781 -0.5825
  112HFI     H2 1833   0.546   0.510   0.964 -1.7285 -0.9394 -1.1046
  113HFI     O1 1834   2.934   1.414   1.330  0.0830  0.1996  0.1203
  113HFI     C1 1835   3.010   1.322   1.415  0.2146 -0.3347 -0.4887
  113HFI     C2 1836   2.919   1.248   1.513  0.9757 -0.7272 -0.5930
  113HFI     F1 1837   2.983   1.179   1.607  0.1911 -0.0310 -0.8369
  113HFI     F2 1838   2.841   1.166   1.446 -0.4328 -0.3033  0.2401
  113HFI     F3 1839   2.846   1.336   1.576  0.3349 -0.7362 -0.0045
  113HFI     C3 1840   3.128   1.402   1.482 -0.1399 -0.3405 -0.1728
  113HFI     F4 1841   3.080   1.476   1.579 -0.1488  0.6198 -0.5143
  113HFI     F5 1842   3.190   1.478   1.395  0.6363 -0.0258 -0.0878
  113HFI     F6 1843   3.229   1.320   1.536  0.8710  0.6720 -0.0298
  113HFI     H1 1844   2.873   1.478   1.371  0.1708  0.6668 -0.4719
  113HFI     H2 1845   3.058   1.245   1.354 -0.3624 -2.1548  1.2920
  114HFI     O1 1846   2.213   2.525   2.302 -0.0615  0.0354  0.0914
  114HFI     C1 1847   2.269   2.386   2.280 -0.1033  0.0078 -0.3464
  114HFI     C2 1848   2.164   2.276   2.301 -0.1544  0.3026 -0.3940
  114HFI     F1 1849   2.198   2.160   2.249 -0.3848 -0.1245 -0.3118
  114HFI     F2 1850   2.043   2.314   2.244  0.2571 -0.0555  0.1893
  114HFI     F3 1851   2.150   2.250   2.438 -0.1491  0.3408  0.0140
  114HFI     C3 1852   2.402   2.372   2.361  0.0523 -0.2041 -0.2783
  114HFI     F4 1853   2.485   2.476   2.348 -0.0518  0.0648 -0.1107
  114HFI     F5 1854   2.466   2.259   2.329  0.0706  0.6083  0.2585
  114HFI     F6 1855   2.372   2.364   2.493 -0.4625  0.0024  0.0478
  114HFI     H1 1856   2.116   2.524   2.291 -0.0924 -1.0832  0.4307
  114HFI     H2 1857   2.303   2.377   2.176 -0.5372 -0.5401 -0.4392
  115HFI     O1 1858   2.920   0.321   1.284 -0.4096  0.3886  0.1376
  115HFI     C1 1859   2.923   0.270   1.417 -0.3300 -0.0178  0.5890
  115HFI     C2 1860   2.797   0.306   1.493  0.4768 -0.4195  0.2126
  115HFI     F1 1861   2.795   0.433   1.523 -0.0328 -0.0692  0.2047
  115HFI     F2 1862   2.780   0.238   1.609 -0.4212  0.3518 -0.1357
  115HFI     F3 1863   2.683   0.290   1.431 -0.1080 -0.1789  0.0381
  115HFI     C3 1864   3.041   0.312   1.500  0.2464  0.3108 -0.1491
  115HFI     F4 1865   3.068   0.450   1.507  0.1807  0.3993  0.3250
  115HFI     F5 1866   3.155   0.257   1.442 -0.1609  0.4640  0.1148
  115HFI     F6 1867   3.043   0.256   1.622  0.1928  0.4485  0.3320
  115HFI     H1 1868   2.838   0.370   1.269 -0.9751 -0.6880 -0.3540
  115HFI     H2 1869   2.919   0.160   1.420 -1.6577  0.0074  0.3215
  116HFI     O1 1870   3.226   2.499   0.182  0.5762 -0.0778  0.1379
  116HFI     C1 1871   3.345   2.565   0.135 -0.1146 -0.1223  0.4755
  116HFI     C2 1872   3.314   2.661   0.014 -0.4129 -0.0793 -0.3206
  116HFI     F1 1873   3.258   2.592  -0.094  0.4280 -0.0041 -0.1733
  116HFI     F2 1874   3.426   2.728  -0.017  0.7773 -0.3726 -0.2472
  116HFI     F3 1875   3.224   2.749   0.048  0.3430 -0.3190 -0.0485
  116HFI     C3 1876   3.459   2.456   0.093 -0.1044 -0.5890 -0.4820
  116HFI     F4 1877   3.579   2.518   0.084  0.2686  0.0744 -0.0510
  116HFI     F5 1878   3.449   2.395  -0.024 -0.0570 -0.1310 -0.0522
  116HFI     F6 1879   3.476   2.358   0.186 -0.3904  0.1777  0.2170
  116HFI     H1 1880   3.190   2.444   0.110  0.3417 -0.5570  0.6174
  116HFI     H2 1881   3.386   2.616   0.223  0.4553 -1.4472  1.0013
  117HFI     O1 1882   2.426   3.265   1.348 -0.1372  0.3003  0.4354
  117HFI     C1 1883   2.555   3.328   1.363  0.0801 -0.7463  0.1848
  117HFI     C2 1884   2.650   3.303   1.241 -0.4869  0.4331  0.1591
  117HFI     F1 1885   2.608   3.364   1.129  0.0160  0.4423  0.0134
  117HFI     F2 1886   2.660   3.173   1.217 -0.1431  0.2696  0.4206
  117HFI     F3 1887   2.778   3.338   1.268  0.7383  0.5319  0.2046
  117HFI     C3 1888   2.616   3.303   1.510  1.0474 -0.1373  0.0191
  117HFI     F4 1889   2.645   3.170   1.524  0.4026 -0.4118  0.2173
  117HFI     F5 1890   2.531   3.334   1.605 -0.1421  0.2579  0.5550
  117HFI     F6 1891   2.727   3.372   1.540  0.1590 -0.0337  0.4125
  117HFI     H1 1892   2.437   3.168   1.346  1.2531  0.4343  0.6282
  117HFI     H2 1893   2.526   3.433   1.352 -0.9719 -0.8220  1.9897
  118HFI     O1 1894   1.142   0.291   2.409 -0.3452  0.2592 -0.2793
  118HFI     C1 1895   1.241   0.283   2.301  0.8781  0.3269 -0.6985
  118HFI     C2 1896   1.335   0.160   2.318 -0.2958  0.0719 -0.7512
  118HFI     F1 1897   1.268   0.043   2.311  0.0749 -0.2221 -0.4835
  118HFI     F2 1898   1.386   0.162   2.441 -0.7200 -0.0858  0.6007
  118HFI     F3 1899   1.443   0.164   2.228  0.1976 -0.0227  0.0560
  118HFI     C3 1900   1.311   0.413   2.290  0.1194  0.2584 -0.2385
  118HFI     F4 1901   1.363   0.453   2.407 -0.3547 -0.6497 -0.6320
  118HFI     F5 1902   1.217   0.507   2.259  0.5309  0.6920 -0.5489
  118HFI     F6 1903   1.393   0.423   2.189  0.4219  1.1623  0.4084
  118HFI     H1 1904   1.188   0.324   2.488  2.0318  0.4933 -1.7098
  118HFI     H2 1905   1.192   0.269   2.204  0.2014  0.1477 -0.3369
  119HFI     O1 1906   2.107   2.224   0.235  0.0634  0.0547  0.6181
  119HFI     C1 1907   2.179   2.097   0.219  0.1357  0.0935  0.6921
  119HFI     C2 1908   2.140   2.048   0.075  0.2581 -0.2180 -0.0743
  119HFI     F1 1909   2.014   1.998   0.068  0.1784 -0.3779  0.2833
  119HFI     F2 1910   2.230   1.964   0.027 -0.0465 -0.0840 -0.4191
  119HFI     F3 1911   2.144   2.152  -0.003 -0.1123 -0.3312  0.3585
  119HFI     C3 1912   2.150   1.996   0.339 -0.2772 -0.3121 -0.1802
  119HFI     F4 1913   2.238   1.894   0.326  0.0024 -0.1613  0.0234
  119HFI     F5 1914   2.023   1.943   0.340 -0.3459 -0.4084 -0.4184
  119HFI     F6 1915   2.169   2.062   0.462 -0.1814  0.4489  0.1160
  119HFI     H1 1916   2.038   2.208   0.302 -0.2401 -0.4048  0.2002
  119HFI     H2 1917   2.285   2.124   0.209  0.5282 -1.8454 -0.7486
  120HFI     O1 1918   2.817   0.787   2.451 -0.2291 -0.3711  0.2078
  120HFI     C1 1919   2.864   0.717   2.328 -0.1670  0.0008 -0.3230
  120HFI     C2 1920   2.789   0.578   2.301  0.0997 -0.3379 -0.0805
  120HFI     F1 1921   2.781   0.511   2.422 -0.2634 -0.2656  0.1794
  120HFI     F2 1922   2.837   0.494   2.212  0.0247 -0.0515 -0.0663
  120HFI     F3 1923   2.660   0.599   2.264  0.3071 -0.5931 -0.2261
  120HFI     C3 1924   3.018   0.706   2.316 -0.3356  0.4079  0.2815
  120HFI     F4 1925   3.063   0.608   2.397 -0.1829  0.1633  0.8616
  120HFI     F5 1926   3.074   0.823   2.362 -0.3789 -0.3327 -0.0408
  120HFI     F6 1927   3.054   0.691   2.186  0.2438 -0.0121 -0.0898
  120HFI     H1 1928   2.723   0.812   2.444  0.4479  2.9768  1.8861
  120HFI     H2 1929   2.828   0.776   2.243  0.1497  2.2213  1.0436
  121HFI     O1 1930   2.552   0.963   2.454  0.3829 -0.0432 -0.4575
  121HFI     C1 1931   2.413   0.944   2.418  0.0380  0.1590  0.6978
  121HFI     C2 1932   2.415   0.969   2.269 -0.5620  0.4042 -0.1054
  121HFI     F1 1933   2.492   1.080   2.232  0.0413  0.6224  0.0272
  121HFI     F2 1934   2.295   0.991   2.224  0.1316 -0.6293  0.8317
  121HFI     F3 1935   2.463   0.861   2.200 -0.0564  0.3634  0.8320
  121HFI     C3 1936   2.316   1.025   2.496  0.3082  0.9806  0.0867
  121HFI     F4 1937   2.301   1.152   2.450  0.2297  0.2149 -0.0106
  121HFI     F5 1938   2.359   1.027   2.622  0.0129 -0.8016  0.4943
  121HFI     F6 1939   2.189   0.970   2.501 -0.5569 -0.5874  0.1621
  121HFI     H1 1940   2.550   1.009   2.540 -0.1815 -3.6711  1.6159
  121HFI     H2 1941   2.376   0.841   2.424 -1.6363  0.6891 -0.1062
  122HFI     O1 1942   1.033   2.337   2.252 -0.0267 -0.0416  0.1200
  122HFI     C1 1943   1.122   2.419   2.337  0.1105 -0.2414  0.0479
  122HFI     C2 1944   1.110   2.573   2.317  0.0771  0.6691 -0.4863
  122HFI     F1 1945   1.202   2.624   2.228  0.2680  0.1249  0.2917
  122HFI     F2 1946   1.124   2.643   2.438  0.3293  0.3807  0.0365
  122HFI     F3 1947   0.993   2.612   2.260 -0.2653 -0.3755 -0.3895
  122HFI     C3 1948   1.261   2.355   2.346 -0.4422  0.7996  0.4369
  122HFI     F4 1949   1.257   2.241   2.426 -0.0685 -0.2530  0.5603
  122HFI     F5 1950   1.348   2.445   2.397 -0.5730 -0.1841 -0.1945
  122HFI     F6 1951   1.311   2.310   2.226  0.3042  0.3080  0.3373
  122HFI     H1 1952   1.084   2.321   2.171  0.4146 -0.2598  0.4392
  122HFI     H2 1953   1.082   2.410   2.439 -0.6184 -0.9262 -0.2926
  123HFI     O1 1954   0.284   2.817   2.872 -0.1888  0.3788 -0.0001
  123HFI     C1 1955   0.287   2.681   2.828  0.6813 -0.1057  0.1268
  123HFI     C2 1956   0.425   2.611   2.837  0.0932  0.7877 -0.5726
  123HFI     F1 1957   0.425   2.481   2.791  0.1806  0.0691  0.0572
  123HFI     F2 1958   0.472   2.596   2.966  0.1178  0.3527 -0.3865
  123HFI     F3 1959   0.520   2.671   2.766  0.5479  0.1907 -0.4090
  123HFI     C3 1960   0.216   2.661   2.686 -0.5476 -0.1089 -0.2755
  123HFI     F4 1961   0.094   2.719   2.692  0.4563 -0.1769 -0.5520
  123HFI     F5 1962   0.202   2.527   2.650  0.6477 -0.0732  0.4441
  123HFI     F6 1963   0.288   2.730   2.597 -0.1127 -0.5209  0.2552
  123HFI     H1 1964   0.304   2.875   2.797  0.0931 -1.4458 -1.3593
  123HFI     H2 1965   0.236   2.623   2.906  1.0818 -1.0963 -0.3337
  124HFI     O1 1966   1.989   0.477   1.059  0.4744 -0.2256  0.2247
  124HFI     C1 1967   2.044   0.342   1.069  0.0261 -0.0458 -0.0227
  124HFI     C2 1968   2.069   0.277   0.935 -1.0528 -0.3029  0.5498
  124HFI     F1 1969   1.962   0.285   0.852 -0.0920  0.4313 -0.5029
  124HFI     F2 1970   2.097   0.144   0.946 -0.6269 -0.4693  0.1900
  124HFI     F3 1971   2.177   0.333   0.873 -0.0845  0.2576 -0.4335
  124HFI     C3 1972   1.959   0.252   1.165 -0.3012  0.2450 -0.3975
  124HFI     F4 1973   1.851   0.191   1.113 -0.2324  0.1215  0.2789
  124HFI     F5 1974   1.914   0.324   1.265  0.5077 -0.4846  0.0642
  124HFI     F6 1975   2.037   0.159   1.224 -0.1103  0.3359  0.3019
  124HFI     H1 1976   1.947   0.493   1.145  0.0498 -3.5367  0.6939
  124HFI     H2 1977   2.141   0.335   1.121 -0.7695 -0.4558  1.4121
  125HFI     O1 1978   3.242   2.221   3.239 -0.1233  0.6257 -0.2363
  125HFI     C1 1979   3.319   2.262   3.363 -0.8873  0.2991  0.0658
  125HFI     C2 1980   3.350   2.411   3.359 -0.4344 -0.6672 -0.1227
  125HFI     F1 1981   3.401   2.454   3.475  0.0983 -0.1159 -0.1678
  125HFI     F2 1982   3.236   2.475   3.343  0.2632 -0.2350 -0.6275
  125HFI     F3 1983   3.437   2.438   3.268 -1.4018 -0.4055 -0.2391
  125HFI     C3 1984   3.449   2.172   3.373 -0.1568  0.2652  0.1434
  125HFI     F4 1985   3.522   2.192   3.482 -0.4382  0.5933 -0.6174
  125HFI     F5 1986   3.539   2.175   3.267  0.1290  0.5774 -0.3592
  125HFI     F6 1987   3.413   2.047   3.386 -0.1174  0.5018 -0.1829
  125HFI     H1 1988   3.199   2.134   3.252  1.5802 -0.2902 -0.5995
  125HFI     H2 1989   3.266   2.243   3.456  0.5237 -3.0637  0.2342
  126HFI     O1 1990   0.576   1.174   2.464 -0.2132 -0.2531  0.4777
  126HFI     C1 1991   0.452   1.198   2.386  0.2829  0.3204  0.7352
  126HFI     C2 1992   0.328   1.233   2.473  0.7607 -0.6450  1.2572
  126HFI     F1 1993   0.215   1.164   2.437  0.2567  0.0664 -0.1786
  126HFI     F2 1994   0.293   1.360   2.451 -0.0789 -0.5391 -0.4165
  126HFI     F3 1995   0.342   1.215   2.605  0.4076  0.3385 -0.1951
  126HFI     C3 1996   0.423   1.092   2.279  1.2176 -0.1053 -0.3762
  126HFI     F4 1997   0.529   1.048   2.205 -0.0455  0.4187 -0.1350
  126HFI     F5 1998   0.335   1.136   2.192 -0.2509  0.2390 -0.2157
  126HFI     F6 1999   0.368   0.984   2.345  0.8065  0.1394 -0.6065
  126HFI     H1 2000   0.546   1.136   2.548  0.3066  1.8765  1.6612
  126HFI     H2 2001   0.478   1.281   2.319 -1.4990 -0.6215 -1.2040
  127HFI     O1 2002   2.679   2.809   3.031  0.2541 -0.2456 -0.1496
  127HFI     C1 2003   2.658   2.774   2.888  0.2268 -0.4587  0.1035
  127HFI     C2 2004   2.652   2.618   2.874  0.0739 -0.8719  0.1876
  127HFI     F1 2005   2.775   2.555   2.885 -0.3658  0.1325  0.0203
  127HFI     F2 2006   2.608   2.585   2.747  0.0180  0.3969  0.1255
  127HFI     F3 2007   2.570   2.563   2.967  0.5274  0.3518 -0.5427
  127HFI     C3 2008   2.766   2.845   2.792 -0.2145  0.1851  0.5115
  127HFI     F4 2009   2.882   2.779   2.808  0.5475  0.2845 -0.3747
  127HFI     F5 2010   2.778   2.975   2.819  0.0692 -0.2477  0.2191
  127HFI     F6 2011   2.742   2.827   2.664  0.0190  0.6299 -0.0321
  127HFI     H1 2012   2.742   2.745   3.068 -0.1561 -0.2160  0.6099
  127HFI     H2 2013   2.563   2.812   2.848 -1.2316 -1.2804  2.7142
  128HFI     O1 2014   1.443   1.220   3.066 -0.5990 -0.4218  0.5194
  128HFI     C1 2015   1.428   1.081   3.083 -1.0070  0.1005 -0.1554
  128HFI     C2 2016   1.361   1.052   3.228  0.1485 -0.2423 -0.1141
  128HFI     F1 2017   1.349   0.917   3.255 -0.1947  0.0392  0.2520
  128HFI     F2 2018   1.242   1.111   3.240  0.8064  0.1448 -0.0882
  128HFI     F3 2019   1.443   1.110   3.322  0.2649  0.0991 -0.1738
  128HFI     C3 2020   1.562   0.998   3.066  0.2065 -0.0495 -0.1817
  128HFI     F4 2021   1.615   1.016   2.947 -0.1807  0.0483 -0.1109
  128HFI     F5 2022   1.541   0.867   3.075  0.0043  0.3767  0.1056
  128HFI     F6 2023   1.655   1.043   3.159  0.3207 -0.3972 -0.3411
  128HFI     H1 2024   1.515   1.248   3.125 -0.9431 -1.6247  1.5480
  128HFI     H2 2025   1.361   1.042   3.006  0.2774 -2.9100  0.1706
  129HFI     O1 2026   1.296   3.012   2.833 -0.1693 -0.4209  0.0887
  129HFI     C1 2027   1.306   2.866   2.841  0.0361  0.4172  0.3471
  129HFI     C2 2028   1.441   2.810   2.777 -0.3925 -0.1306 -0.7722
  129HFI     F1 2029   1.540   2.887   2.824  0.2004 -0.2617 -0.6541
  129HFI     F2 2030   1.440   2.813   2.640 -0.2371 -0.0641 -0.4923
  129HFI     F3 2031   1.467   2.681   2.817  0.4361  0.1243 -0.1026
  129HFI     C3 2032   1.181   2.800   2.768 -0.0667 -0.2458  0.9120
  129HFI     F4 2033   1.156   2.854   2.644 -0.7413  0.2353 -0.0292
  129HFI     F5 2034   1.068   2.815   2.844  0.0594 -0.0692  0.1195
  129HFI     F6 2035   1.200   2.667   2.750 -0.2188  0.0812  0.6603
  129HFI     H1 2036   1.385   3.050   2.841 -0.2470 -0.2528  0.1482
  129HFI     H2 2037   1.299   2.836   2.946 -1.9749  0.9286  0.3732
  130HFI     O1 2038   2.886   1.842   3.185  0.2102 -0.3841  0.2661
  130HFI     C1 2039   2.991   1.744   3.185  0.6645 -0.8051  0.1604
  130HFI     C2 2040   2.973   1.643   3.296  0.0337  0.5497 -0.0632
  130HFI     F1 2041   3.068   1.554   3.292 -0.0873  0.4200  0.5949
  130HFI     F2 2042   2.849   1.579   3.283  0.1291 -0.5874  0.0855
  130HFI     F3 2043   2.970   1.693   3.419  0.7090  0.1570 -0.0350
  130HFI     C3 2044   3.129   1.814   3.204 -0.5654  1.1367 -0.3375
  130HFI     F4 2045   3.233   1.730   3.229 -0.3182  0.2205 -0.1406
  130HFI     F5 2046   3.115   1.893   3.320 -0.0237 -0.1222  0.5684
  130HFI     F6 2047   3.164   1.893   3.101  0.5497 -0.2076 -0.0490
  130HFI     H1 2048   2.796   1.805   3.186  0.7061 -1.6015  0.7401
  130HFI     H2 2049   2.991   1.696   3.086 -0.4688 -0.4092 -0.0491
  131HFI     O1 2050   0.477   2.010   0.781 -0.3026  0.1259  0.3957
  131HFI     C1 2051   0.413   1.893   0.847 -0.2879 -0.4037  0.4093
  131HFI     C2 2052   0.272   1.927   0.900 -0.3291 -0.7602 -0.1935
  131HFI     F1 2053   0.279   2.010   1.003 -0.0833  0.1591  0.8048
  131HFI     F2 2054   0.205   1.812   0.943 -0.1251  0.3781 -0.0979
  131HFI     F3 2055   0.195   1.995   0.811 -0.3134 -0.5001  0.2931
  131HFI     C3 2056   0.499   1.816   0.956 -0.5700 -0.0612  0.1215
  131HFI     F4 2057   0.592   1.752   0.889 -0.5219 -0.3314 -0.2347
  131HFI     F5 2058   0.432   1.714   1.013  0.7885  0.2823  0.0090
  131HFI     F6 2059   0.563   1.898   1.043 -0.2030 -0.3116  0.1422
  131HFI     H1 2060   0.513   2.075   0.843  1.8018 -1.4346  0.8455
  131HFI     H2 2061   0.393   1.816   0.771 -2.0569  1.0794 -0.6564
  132HFI     O1 2062   2.309   1.171   0.846 -0.3443  0.9659 -0.6805
  132HFI     C1 2063   2.235   1.275   0.910  1.6274  0.4835  0.9537
  132HFI     C2 2064   2.110   1.232   0.996  0.4397  0.0160  0.2113
  132HFI     F1 2065   2.061   1.342   1.071 -0.2005  0.4034  0.0442
  132HFI     F2 2066   2.139   1.127   1.078 -0.1188 -0.1182  0.2230
  132HFI     F3 2067   2.004   1.189   0.915 -0.1482 -0.1848  0.3184
  132HFI     C3 2068   2.197   1.390   0.805  0.0413 -0.1164 -0.0350
  132HFI     F4 2069   2.314   1.452   0.759 -0.1107  0.1478  0.2818
  132HFI     F5 2070   2.127   1.492   0.853 -0.5074 -0.5045 -0.4573
  132HFI     F6 2071   2.125   1.339   0.698  0.7403 -0.4286  0.0057
  132HFI     H1 2072   2.273   1.151   0.758  0.0826 -0.2446 -0.5942
  132HFI     H2 2073   2.300   1.332   0.978  3.1017 -0.3342  0.2487
  133HFI     O1 2074   0.503   1.882   2.246 -0.6376  0.4929 -0.0637
  133HFI     C1 2075   0.392   1.827   2.323 -0.7163  0.3081 -0.0704
  133HFI     C2 2076   0.259   1.918   2.326 -0.0788  0.5243 -0.1948
  133HFI     F1 2077   0.175   1.878   2.416 -0.7298  0.4975  0.2553
  133HFI     F2 2078   0.195   1.929   2.205 -0.1980  0.7021  0.4652
  133HFI     F3 2079   0.285   2.044   2.353 -0.0474 -0.5263 -0.3463
  133HFI     C3 2080   0.436   1.758   2.455  0.7963  0.9930  0.1924
  133HFI     F4 2081   0.346   1.666   2.496 -0.2501 -0.1178  0.4794
  133HFI     F5 2082   0.461   1.844   2.557 -0.1323  0.2749  0.2733
  133HFI     F6 2083   0.550   1.691   2.420  0.1396  0.1055  0.2735
  133HFI     H1 2084   0.533   1.968   2.281 -0.3800  0.6952 -0.7876
  133HFI     H2 2085   0.352   1.742   2.266  0.7602  0.1565 -0.9013
  134HFI     O1 2086   1.121   1.979   0.978 -0.4772 -0.4974 -0.1667
  134HFI     C1 2087   1.059   1.879   0.896  0.7637  0.7387  0.4214
  134HFI     C2 2088   1.074   1.744   0.974  0.5304  0.4797 -1.1146
  134HFI     F1 2089   1.074   1.637   0.889 -0.6386  0.0266  0.4371
  134HFI     F2 2090   0.973   1.729   1.066 -0.0772 -0.2439 -0.3964
  134HFI     F3 2091   1.188   1.738   1.050  0.0782 -0.4414 -0.0533
  134HFI     C3 2092   1.113   1.887   0.753  0.8711 -1.2532  0.0634
  134HFI     F4 2093   1.131   2.016   0.722 -0.6534  0.0415 -0.0024
  134HFI     F5 2094   1.032   1.835   0.663  0.1489  0.1321 -0.2497
  134HFI     F6 2095   1.233   1.825   0.739 -0.4790 -0.1713  0.3397
  134HFI     H1 2096   1.117   1.957   1.073 -1.0150 -0.8862 -0.2743
  134HFI     H2 2097   0.953   1.904   0.880  0.8328 -0.5094 -2.3359
  135HFI     O1 2098   0.981   3.311   2.473 -0.1022  0.2361 -0.5174
  135HFI     C1 2099   0.974   3.435   2.401  0.7450  0.4406 -0.1575
  135HFI     C2 2100   0.854   3.512   2.468  0.2063  0.0831 -0.2238
  135HFI     F1 2101   0.795   3.603   2.399  0.6239  0.5638  0.0558
  135HFI     F2 2102   0.899   3.577   2.579 -0.0368  0.5786 -0.2408
  135HFI     F3 2103   0.746   3.432   2.506 -0.1067  0.1894 -0.2859
  135HFI     C3 2104   0.944   3.407   2.249 -0.2349 -0.2332  0.3648
  135HFI     F4 2105   0.825   3.344   2.238  0.0001 -0.3716 -0.1725
  135HFI     F5 2106   1.044   3.329   2.193  0.9738  0.4261 -0.3298
  135HFI     F6 2107   0.951   3.527   2.187  0.2324  0.1699  0.7883
  135HFI     H1 2108   1.071   3.276   2.467  0.0773  0.8188 -1.2126
  135HFI     H2 2109   1.069   3.489   2.417  0.7933 -0.5520  3.5413
  136HFI     O1 2110   2.053   3.191   2.470 -0.1064  0.2621  0.2726
  136HFI     C1 2111   2.012   3.285   2.375 -0.4251 -0.0275  0.3465
  136HFI     C2 2112   1.909   3.213   2.282 -0.2886 -0.7962  0.0750
  136HFI     F1 2113   1.823   3.144   2.354  0.0328  0.1061 -0.4677
  136HFI     F2 2114   1.966   3.124   2.191  0.3339  0.1324  0.8353
  136HFI     F3 2115   1.841   3.306   2.211 -0.1748 -0.0946 -0.5739
  136HFI     C3 2116   2.130   3.355   2.311 -0.5095 -0.8154  0.6111
  136HFI     F4 2117   2.205   3.422   2.397  0.6041 -0.6102  0.0881
  136HFI     F5 2118   2.083   3.445   2.224 -0.5812 -0.3776 -0.7258
  136HFI     F6 2119   2.215   3.269   2.248  0.0459 -0.3747 -0.0798
  136HFI     H1 2120   2.110   3.123   2.429 -1.1969  0.6986 -2.0385
  136HFI     H2 2121   1.958   3.368   2.422  1.6165  1.4499  0.1625
  137HFI     O1 2122   0.344   0.056   2.210 -0.3091  0.1994 -0.0613
  137HFI     C1 2123   0.418   0.107   2.324 -0.4250 -0.2053 -0.0079
  137HFI     C2 2124   0.386   0.010   2.440  0.6716 -0.4097 -0.0288
  137HFI     F1 2125   0.254   0.005   2.467 -0.0319  0.2111 -0.2512
  137HFI     F2 2126   0.448   0.054   2.552 -0.7644 -0.7415  0.2194
  137HFI     F3 2127   0.413  -0.117   2.407  0.1663 -0.6767 -0.2730
  137HFI     C3 2128   0.393   0.255   2.363 -0.6489 -0.4025  0.6857
  137HFI     F4 2129   0.491   0.302   2.438 -0.2104 -0.8017 -0.0352
  137HFI     F5 2130   0.273   0.273   2.424  0.1533 -0.4090 -0.2399
  137HFI     F6 2131   0.391   0.327   2.252  0.1217 -0.2215  0.2799
  137HFI     H1 2132   0.267   0.001   2.231 -1.7377  1.6563 -1.3904
  137HFI     H2 2133   0.523   0.081   2.308 -1.0214 -0.3283 -4.2376
  138HFI     O1 2134   2.706   0.123   2.440  0.3678  0.0023  0.7386
  138HFI     C1 2135   2.705  -0.015   2.412  0.6793 -0.0666 -0.0909
  138HFI     C2 2136   2.678  -0.042   2.266  0.0637 -0.0771  0.4854
  138HFI     F1 2137   2.659  -0.172   2.241  0.1101 -0.1051 -0.7375
  138HFI     F2 2138   2.787   0.006   2.192  0.1329 -0.2694 -0.3096
  138HFI     F3 2139   2.566   0.021   2.223 -0.6831  0.4361  0.2343
  138HFI     C3 2140   2.620  -0.101   2.517  0.9226 -0.4846  0.4986
  138HFI     F4 2141   2.666  -0.072   2.640 -0.2356 -0.1609  0.0688
  138HFI     F5 2142   2.633  -0.238   2.487  0.0897 -0.0741 -0.5834
  138HFI     F6 2143   2.488  -0.065   2.518  0.3408 -0.1327 -0.5875
  138HFI     H1 2144   2.778   0.134   2.504  1.0736  0.5394 -0.1338
  138HFI     H2 2145   2.805  -0.062   2.417  0.3786 -0.6372  0.6938
  139HFI     O1 2146   1.830   0.044   0.043  0.3640  0.3199  0.2225
  139HFI     C1 2147   1.784   0.163  -0.034  0.1524  0.0247 -0.1083
  139HFI     C2 2148   1.790   0.283   0.062  0.1949  0.1647  0.3618
  139HFI     F1 2149   1.700   0.273   0.168 -0.0796 -0.0210 -0.0214
  139HFI     F2 2150   1.764   0.400  -0.002 -0.1484  0.2068  0.4668
  139HFI     F3 2151   1.916   0.292   0.119 -0.3814 -0.2730  0.3960
  139HFI     C3 2152   1.638   0.143  -0.090  0.4288  0.0467 -0.4231
  139HFI     F4 2153   1.573   0.032  -0.032 -0.2033  0.0013 -0.2843
  139HFI     F5 2154   1.644   0.114  -0.224  0.2105  0.2435  0.4551
  139HFI     F6 2155   1.565   0.249  -0.074 -0.4784 -0.1104 -0.1458
  139HFI     H1 2156   1.881   0.074   0.120  2.1158  2.0928 -1.5518
  139HFI     H2 2157   1.855   0.183  -0.115 -1.4573 -1.6216 -1.9924
  140HFI     O1 2158   2.900   1.281   0.913 -0.1777 -0.1648 -0.4255
  140HFI     C1 2159   2.799   1.209   0.991 -0.8904  0.3592 -0.2291
  140HFI     C2 2160   2.867   1.083   1.051 -0.5275  1.1726  0.1523
  140HFI     F1 2161   2.976   1.111   1.128  0.1290 -0.6670 -0.2163
  140HFI     F2 2162   2.902   0.996   0.951 -0.3242 -0.4066 -0.0412
  140HFI     F3 2163   2.781   1.023   1.136 -0.1148 -0.1667  0.0659
  140HFI     C3 2164   2.670   1.194   0.912 -0.0695 -0.5661  0.1117
  140HFI     F4 2165   2.681   1.107   0.809 -0.1382 -0.1015 -0.2059
  140HFI     F5 2166   2.639   1.311   0.854 -0.0476 -0.4159  0.0873
  140HFI     F6 2167   2.562   1.157   0.981 -0.3190 -0.0757 -0.8807
  140HFI     H1 2168   2.987   1.239   0.906  0.6351  1.0889  1.5776
  140HFI     H2 2169   2.775   1.263   1.083 -2.3236 -0.9038  0.1707
  141HFI     O1 2170   2.852   3.428   3.196  0.4358 -0.3598 -0.2976
  141HFI     C1 2171   2.880   3.285   3.243 -0.1952 -0.2638  1.0539
  141HFI     C2 2172   2.817   3.172   3.149 -0.6031 -0.6015 -0.0049
  141HFI     F1 2173   2.682   3.172   3.150  0.1014  0.1476 -0.3607
  141HFI     F2 2174   2.863   3.062   3.200 -0.1047  0.1871  0.1101
  141HFI     F3 2175   2.866   3.182   3.021 -0.1657 -0.2415 -0.5748
  141HFI     C3 2176   2.849   3.281   3.395  0.1802  0.4699 -0.0033
  141HFI     F4 2177   2.908   3.374   3.463 -0.3775 -0.0375  0.1609
  141HFI     F5 2178   2.884   3.162   3.449 -0.1381 -0.1465  0.1891
  141HFI     F6 2179   2.716   3.290   3.415 -0.1976 -0.3157  0.6582
  141HFI     H1 2180   2.761   3.454   3.220  1.0254  2.1011 -0.6421
  141HFI     H2 2181   2.986   3.271   3.222 -0.3687  0.7317 -0.5410
  142HFI     O1 2182   1.902   0.497   3.589  0.7028 -0.3038  0.2633
  142HFI     C1 2183   2.045   0.518   3.575  0.2599  0.3179  0.1372
  142HFI     C2 2184   2.121   0.430   3.668  0.2371 -0.0125 -0.2297
  142HFI     F1 2185   2.079   0.301   3.672  0.1588 -0.2967  0.2324
  142HFI     F2 2186   2.105   0.470   3.799  0.8031  0.3275 -0.1755
  142HFI     F3 2187   2.251   0.430   3.653  0.1824  0.0682 -0.1631
  142HFI     C3 2188   2.085   0.675   3.587 -0.4366  0.0695 -0.1182
  142HFI     F4 2189   2.210   0.714   3.567  0.0305  0.1775 -0.9341
  142HFI     F5 2190   2.056   0.722   3.707 -0.3857  0.0183  0.0754
  142HFI     F6 2191   2.002   0.737   3.505 -0.0062 -0.5342  0.5313
  142HFI     H1 2192   1.869   0.556   3.659 -1.1327 -0.4618 -0.4526
  142HFI     H2 2193   2.066   0.491   3.471 -2.5028  1.7025 -0.8169
  143HFI     O1 2194   1.996   2.657   3.216 -0.2697 -0.4635 -0.1873
  143HFI     C1 2195   1.872   2.736   3.233  0.1225 -0.3311 -0.4509
  143HFI     C2 2196   1.855   2.780   3.384 -0.0297 -0.2372 -0.1532
  143HFI     F1 2197   1.956   2.864   3.421  0.0848 -0.0300  0.2856
  143HFI     F2 2198   1.866   2.662   3.451 -0.0540 -0.0349 -0.4399
  143HFI     F3 2199   1.740   2.844   3.408 -0.3479  0.0523 -0.0949
  143HFI     C3 2200   1.750   2.670   3.170 -0.7405 -0.3195 -0.2937
  143HFI     F4 2201   1.644   2.750   3.182  0.2129 -0.1218 -0.3923
  143HFI     F5 2202   1.720   2.554   3.231  0.4726  0.1893  0.0750
  143HFI     F6 2203   1.778   2.654   3.042 -0.4545 -0.4809 -0.2923
  143HFI     H1 2204   1.986   2.570   3.257  1.1683 -0.6005 -0.1090
  143HFI     H2 2205   1.872   2.832   3.180 -2.7010 -0.7092 -1.1988
  144HFI     O1 2206   0.916   0.209   0.173 -0.0811 -0.4514 -0.3125
  144HFI     C1 2207   0.796   0.255   0.116 -0.3345 -0.5798 -0.2619
  144HFI     C2 2208   0.721   0.139   0.042 -0.6786  0.1279 -0.4416
  144HFI     F1 2209   0.593   0.174   0.020 -0.1138  0.5780 -0.2470
  144HFI     F2 2210   0.723   0.028   0.116  0.4341 -0.0877 -0.1853
  144HFI     F3 2211   0.777   0.117  -0.077  0.0624  0.1660 -0.0541
  144HFI     C3 2212   0.818   0.386   0.029  0.3993  0.0266  0.1621
  144HFI     F4 2213   0.883   0.482   0.093 -0.0135  0.4264 -0.7558
  144HFI     F5 2214   0.703   0.433  -0.026  0.3926 -0.2037  0.2734
  144HFI     F6 2215   0.907   0.353  -0.071 -0.0571  0.5782 -0.0987
  144HFI     H1 2216   0.933   0.137   0.110  0.0766 -0.6314 -0.0644
  144HFI     H2 2217   0.730   0.292   0.196  1.2042  0.6052  0.5042
  145HFI     O1 2218   3.070   0.751   3.642  0.0669 -0.1734 -0.1931
  145HFI     C1 2219   3.122   0.886   3.615 -0.2199 -0.1029 -0.0218
  145HFI     C2 2220   3.054   1.003   3.689  0.0424 -0.6156  0.0192
  145HFI     F1 2221   2.921   1.009   3.654 -0.3089 -0.1081 -0.0152
  145HFI     F2 2222   3.114   1.117   3.661 -0.3388  0.3256  0.2226
  145HFI     F3 2223   3.053   0.985   3.821 -0.8849 -0.0743 -0.1466
  145HFI     C3 2224   3.131   0.909   3.459  0.3049 -0.3163 -0.2271
  145HFI     F4 2225   3.193   0.810   3.395  0.0746 -0.4447  0.3087
  145HFI     F5 2226   3.193   1.021   3.426 -0.1145 -0.6589 -0.1945
  145HFI     F6 2227   3.001   0.916   3.406 -0.2830  0.1330  0.1584
  145HFI     H1 2228   2.976   0.764   3.664  0.7571  2.5331  1.4329
  145HFI     H2 2229   3.229   0.895   3.640  0.0554 -1.4581 -0.6627
  146HFI     O1 2230   1.210   3.137   2.498 -0.0478 -0.0526 -0.1023
  146HFI     C1 2231   1.291   3.130   2.375 -0.2658 -0.5414 -1.0550
  146HFI     C2 2232   1.265   2.995   2.297 -0.1879 -0.3588 -0.6203
  146HFI     F1 2233   1.142   2.991   2.243  0.4629  0.1389 -0.4839
  146HFI     F2 2234   1.264   2.892   2.377  0.3075 -0.2568  0.0284
  146HFI     F3 2235   1.357   2.968   2.200  0.0831  0.4798 -0.0518
  146HFI     C3 2236   1.447   3.146   2.412  0.0818  0.8901 -0.5716
  146HFI     F4 2237   1.491   3.040   2.483  0.2267  0.7463  0.8555
  146HFI     F5 2238   1.460   3.265   2.475 -0.3185  0.2655  0.0635
  146HFI     F6 2239   1.519   3.153   2.293  0.1859  0.3218  0.0413
  146HFI     H1 2240   1.248   3.067   2.554 -0.7352  0.6568  1.2914
  146HFI     H2 2241   1.285   3.210   2.300  2.2024 -0.7410 -1.4907
  147HFI     O1 2242   1.047   1.953   3.437 -0.3635  0.5477 -0.2030
  147HFI     C1 2243   0.981   1.936   3.299 -0.8389  0.2480 -0.2959
  147HFI     C2 2244   0.856   1.842   3.307 -0.2823 -0.5667 -0.0204
  147HFI     F1 2245   0.775   1.862   3.202 -0.1646  0.6312 -0.2262
  147HFI     F2 2246   0.782   1.861   3.419 -0.1217  0.0877 -0.1109
  147HFI     F3 2247   0.901   1.711   3.314 -0.0476  0.1723  0.0784
  147HFI     C3 2248   1.089   1.894   3.190  0.2813  0.4853 -0.1118
  147HFI     F4 2249   1.190   1.980   3.187 -0.3485  0.2188  0.3230
  147HFI     F5 2250   1.026   1.895   3.066 -0.0257  0.0447  0.4357
  147HFI     F6 2251   1.144   1.770   3.212  0.2743  0.1626 -0.9836
  147HFI     H1 2252   1.127   1.899   3.448 -1.0601 -0.4199  0.1998
  147HFI     H2 2253   0.942   2.031   3.262 -1.8651 -0.2800 -0.5818
  148HFI     O1 2254   1.075   0.607   2.766 -0.0491  0.1638  0.4520
  148HFI     C1 2255   1.030   0.654   2.897  0.7478  0.1126 -0.0985
  148HFI     C2 2256   0.949   0.788   2.879  0.0621  0.8957  0.8594
  148HFI     F1 2257   1.028   0.887   2.833  0.0350 -0.0595 -0.0887
  148HFI     F2 2258   0.877   0.824   2.986  0.6266  0.1181 -0.0014
  148HFI     F3 2259   0.861   0.755   2.784  0.3876  0.0006  0.2027
  148HFI     C3 2260   1.148   0.671   2.997  0.3630 -0.2918 -0.8728
  148HFI     F4 2261   1.121   0.742   3.105  0.0689  0.2892 -0.0292
  148HFI     F5 2262   1.259   0.730   2.947  0.2463 -0.1079 -0.3295
  148HFI     F6 2263   1.187   0.551   3.037  0.2918 -0.0574  0.2651
  148HFI     H1 2264   0.999   0.623   2.707 -0.5433  1.0894  1.3229
  148HFI     H2 2265   0.958   0.595   2.954 -0.4106  1.2266 -0.3868
  149HFI     O1 2266   1.733   3.363   3.366  0.1055  0.1976 -0.0406
  149HFI     C1 2267   1.863   3.364   3.305 -0.0183 -0.6511 -0.2392
  149HFI     C2 2268   1.896   3.222   3.254 -0.5746  0.3075  1.0393
  149HFI     F1 2269   1.891   3.132   3.355 -0.5693  0.8542  0.0145
  149HFI     F2 2270   2.014   3.204   3.194 -0.7945 -0.8996  0.3220
  149HFI     F3 2271   1.794   3.174   3.168 -0.0599  0.2217 -0.2026
  149HFI     C3 2272   1.963   3.416   3.397  0.2385 -0.9074  0.5483
  149HFI     F4 2273   2.092   3.425   3.351  0.2060 -0.1364  0.5096
  149HFI     F5 2274   1.970   3.335   3.502  0.7461 -0.2034 -0.3740
  149HFI     F6 2275   1.932   3.544   3.441 -0.4973  0.2518  0.5835
  149HFI     H1 2276   1.729   3.300   3.440  0.1703 -0.5418 -0.6632
  149HFI     H2 2277   1.858   3.439   3.225  1.3082 -1.6188 -1.2358
  150HFI     O1 2278   1.626   2.550   2.315 -0.1874 -0.1487  0.0407
  150HFI     C1 2279   1.719   2.641   2.376 -0.3363  0.3502 -0.0273
  150HFI     C2 2280   1.696   2.791   2.324 -0.2016 -0.2965 -0.3984
  150HFI     F1 2281   1.560   2.818   2.316 -0.1061  0.3402  0.1416
  150HFI     F2 2282   1.755   2.822   2.205 -0.7310 -0.2377  0.2159
  150HFI     F3 2283   1.753   2.878   2.416 -0.2683 -0.1330  0.1257
  150HFI     C3 2284   1.867   2.588   2.357  0.1361  0.6710  0.3146
  150HFI     F4 2285   1.950   2.678   2.410  0.1367 -0.4156 -0.0547
  150HFI     F5 2286   1.902   2.572   2.226  0.0254 -0.1674 -0.3056
  150HFI     F6 2287   1.888   2.471   2.415 -0.3586 -0.1686  0.2208
  150HFI     H1 2288   1.540   2.595   2.325  0.1245  0.0933  1.7841
  150HFI     H2 2289   1.688   2.640   2.482 -1.0718  2.2703 -0.2107
  151HFI     O1 2290   2.102   1.041   3.579 -0.2377 -0.1282 -0.2005
  151HFI     C1 2291   2.242   1.042   3.627  0.5092  0.9706  0.7542
  151HFI     C2 2292   2.243   1.144   3.756 -0.0057 -0.0359  1.0623
  151HFI     F1 2293   2.368   1.163   3.802  0.2123  0.0049 -0.5523
  151HFI     F2 2294   2.168   1.090   3.849  0.5558 -0.5219  0.1287
  151HFI     F3 2295   2.193   1.263   3.715  0.0011 -0.5647 -0.0613
  151HFI     C3 2296   2.347   1.085   3.520 -0.0544  0.4307  0.2313
  151HFI     F4 2297   2.473   1.068   3.564 -0.1531 -0.3139 -0.8762
  151HFI     F5 2298   2.341   1.216   3.488  0.5808  0.3662 -0.1188
  151HFI     F6 2299   2.333   1.014   3.401 -0.4168  0.2584  0.2400
  151HFI     H1 2300   2.100   1.028   3.482  1.5259  1.6283 -0.5051
  151HFI     H2 2301   2.276   0.942   3.659 -1.6927 -0.1955 -0.4707
  152HFI     O1 2302   0.776   2.793   3.265  0.5153  0.0551 -0.3014
  152HFI     C1 2303   0.664   2.799   3.173 -1.1509 -0.8758 -0.7426
  152HFI     C2 2304   0.713   2.848   3.027  0.0640  0.4420  0.3623
  152HFI     F1 2305   0.784   2.965   3.020 -0.5067 -0.6313  0.5622
  152HFI     F2 2306   0.606   2.863   2.944 -0.2909 -0.4540 -0.1525
  152HFI     F3 2307   0.785   2.744   2.978 -0.1236  0.2118  0.0538
  152HFI     C3 2308   0.556   2.890   3.238 -0.2753 -0.5388 -0.0028
  152HFI     F4 2309   0.590   3.023   3.239 -0.2620 -0.1566 -0.0723
  152HFI     F5 2310   0.527   2.862   3.361  0.2141  0.5180  0.3280
  152HFI     F6 2311   0.438   2.882   3.178  0.1339  0.0954 -0.0399
  152HFI     H1 2312   0.746   2.762   3.352  0.7771 -1.0691 -0.5970
  152HFI     H2 2313   0.624   2.698   3.163 -2.3239 -1.0106  4.0872
  153HFI     O1 2314   0.306   0.022   2.811  0.2853  0.2007 -0.2993
  153HFI     C1 2315   0.353  -0.083   2.902 -0.1872 -0.0565  0.4246
  153HFI     C2 2316   0.462  -0.171   2.841 -0.1692 -0.2605  0.5283
  153HFI     F1 2317   0.527  -0.237   2.938  0.3247  0.1522  0.2644
  153HFI     F2 2318   0.547  -0.076   2.781 -0.0402  0.3338  0.2998
  153HFI     F3 2319   0.424  -0.262   2.750 -0.5793  0.3892  0.2396
  153HFI     C3 2320   0.244  -0.181   2.958  0.7897 -0.0168 -0.4610
  153HFI     F4 2321   0.154  -0.109   3.020 -0.0232  0.2347 -0.0959
  153HFI     F5 2322   0.294  -0.280   3.038  0.3113  0.5755  0.2934
  153HFI     F6 2323   0.172  -0.238   2.857  0.2714 -0.3531 -0.1134
  153HFI     H1 2324   0.222   0.002   2.767 -0.5307  2.1765  0.3133
  153HFI     H2 2325   0.380  -0.037   2.997 -2.2751 -1.1144  1.5770
  154HFI     O1 2326   1.205   2.250   0.993  0.3999 -0.0376 -0.8171
  154HFI     C1 2327   1.161   2.365   0.916 -0.3645 -0.5840  0.0820
  154HFI     C2 2328   1.251   2.489   0.948 -0.0859 -0.6444  0.2801
  154HFI     F1 2329   1.256   2.520   1.076 -0.0226  0.1587 -0.2168
  154HFI     F2 2330   1.215   2.599   0.885 -0.2012  0.2632 -0.2207
  154HFI     F3 2331   1.373   2.462   0.906 -0.1980 -0.2109  0.4283
  154HFI     C3 2332   1.013   2.393   0.953  0.1537  0.5792  0.2024
  154HFI     F4 2333   1.002   2.425   1.079 -0.2302  0.4307  0.1827
  154HFI     F5 2334   0.931   2.283   0.932 -0.4220 -0.0102 -0.5503
  154HFI     F6 2335   0.957   2.486   0.877  0.7106  0.5484 -0.2650
  154HFI     H1 2336   1.168   2.165   0.961 -0.6940 -0.2306  0.8976
  154HFI     H2 2337   1.164   2.355   0.806  0.1194 -0.3609  0.0758
  155HFI     O1 2338   2.503   1.902   3.690  0.1608  0.3818 -0.1838
  155HFI     C1 2339   2.534   2.043   3.686  0.8260  0.5589  0.4147
  155HFI     C2 2340   2.613   2.081   3.553  0.4519 -1.1026 -0.4690
  155HFI     F1 2341   2.634   2.217   3.541 -0.3902  0.3852 -0.1575
  155HFI     F2 2342   2.540   2.042   3.444 -0.1971  0.4846 -0.3743
  155HFI     F3 2343   2.734   2.022   3.542 -0.1936 -0.2276 -0.4549
  155HFI     C3 2344   2.600   2.092   3.816 -0.4690 -0.0370  0.2045
  155HFI     F4 2345   2.715   2.021   3.841  1.0462 -0.3926 -0.4871
  155HFI     F5 2346   2.520   2.071   3.921  0.2052 -0.0881 -0.6658
  155HFI     F6 2347   2.629   2.229   3.809 -0.0321 -0.2007 -0.0135
  155HFI     H1 2348   2.415   1.886   3.651 -0.8100  3.8236  0.4148
  155HFI     H2 2349   2.449   2.111   3.669  0.5755  0.3047  0.6405
  156HFI     O1 2350   1.770   1.674   0.671  0.5841  0.0465  0.0212
  156HFI     C1 2351   1.912   1.661   0.654 -0.1114 -0.7589 -0.2095
  156HFI     C2 2352   1.994   1.784   0.723  0.5812  0.1244  1.1447
  156HFI     F1 2353   2.016   1.888   0.641  0.3618  0.1643  0.3688
  156HFI     F2 2354   2.113   1.744   0.760  0.0115 -0.1000 -0.6918
  156HFI     F3 2355   1.929   1.833   0.827  0.1920  0.1622  0.3674
  156HFI     C3 2356   1.953   1.618   0.516 -0.0816 -0.4995 -0.3958
  156HFI     F4 2357   1.915   1.490   0.493  0.0292  0.4615 -0.3951
  156HFI     F5 2358   2.086   1.628   0.500  0.4404 -0.1951  0.7108
  156HFI     F6 2359   1.893   1.698   0.428 -0.3038 -0.4972  0.1702
  156HFI     H1 2360   1.737   1.726   0.595  0.8192  0.1400 -0.0186
  156HFI     H2 2361   1.940   1.574   0.715 -1.1493 -0.0481  1.3309
  157HFI     O1 2362   2.981   2.845   3.638 -0.3498  0.1973  0.2700
  157HFI     C1 2363   2.873   2.792   3.555 -0.4673 -0.7929 -0.0842
  157HFI     C2 2364   2.788   2.685   3.627  0.4386  0.2716  0.9714
  157HFI     F1 2365   2.849   2.574   3.640 -0.6243  0.5959 -0.1606
  157HFI     F2 2366   2.665   2.665   3.570 -0.3442  0.2768  0.1154
  157HFI     F3 2367   2.775   2.733   3.751  0.4335 -0.1901 -0.3141
  157HFI     C3 2368   2.918   2.741   3.408  0.3309 -1.0070  0.2280
  157HFI     F4 2369   2.978   2.621   3.409  0.4151  0.1463 -0.6353
  157HFI     F5 2370   3.012   2.830   3.358 -0.1944 -0.1878 -0.4980
  157HFI     F6 2371   2.809   2.743   3.327 -0.7719 -0.0410 -0.4140
  157HFI     H1 2372   3.060   2.790   3.632 -0.2070  0.3251  0.9904
  157HFI     H2 2373   2.801   2.871   3.531 -1.6083 -1.5698  0.7613
  158HFI     O1 2374   0.625   0.906   3.091  0.6148 -0.0263 -0.9372
  158HFI     C1 2375   0.553   0.880   2.972  0.0461  0.2271  0.5848
  158HFI     C2 2376   0.567   1.010   2.879  0.0008 -0.4306 -0.3526
  158HFI     F1 2377   0.698   1.044   2.884  0.4684 -0.2080  0.1374
  158HFI     F2 2378   0.494   1.116   2.926 -0.0215  0.0818 -0.0116
  158HFI     F3 2379   0.534   0.990   2.752  0.2226 -0.6461  0.2537
  158HFI     C3 2380   0.411   0.835   2.991  0.0720 -0.5123  0.3104
  158HFI     F4 2381   0.342   0.920   3.081  0.1385  0.0458  0.0953
  158HFI     F5 2382   0.420   0.717   3.047  0.0536  0.0126 -0.1034
  158HFI     F6 2383   0.338   0.824   2.873  0.2211  0.4080 -0.1558
  158HFI     H1 2384   0.623   0.991   3.139  2.3131  0.3635 -1.5037
  158HFI     H2 2385   0.595   0.794   2.919  2.1700  2.1904 -1.0630
  159HFI     O1 2386   0.546   2.327   0.813 -0.1608  0.0788  0.3994
  159HFI     C1 2387   0.601   2.420   0.914 -0.7663  0.4644 -0.1865
  159HFI     C2 2388   0.501   2.430   1.037 -0.6655  0.9127 -1.0392
  159HFI     F1 2389   0.375   2.443   0.987 -0.0876 -0.1458 -0.0948
  159HFI     F2 2390   0.539   2.530   1.118  0.3262 -0.1551  0.3898
  159HFI     F3 2391   0.507   2.322   1.119  0.4609 -0.0084 -0.0748
  159HFI     C3 2392   0.633   2.552   0.847 -0.1378  0.0260 -0.6225
  159HFI     F4 2393   0.685   2.542   0.726 -0.0227 -0.2120 -0.0286
  159HFI     F5 2394   0.729   2.618   0.915 -0.6305  0.5062  0.1363
  159HFI     F6 2395   0.524   2.632   0.840  0.0548 -0.6549  0.6818
  159HFI     H1 2396   0.458   2.362   0.791  0.1456  1.2887  1.0370
  159HFI     H2 2397   0.700   2.381   0.940 -1.0535  0.6106  1.1832
  160HFI     O1 2398   1.593   3.279   2.729  0.2978  0.1575 -0.0040
  160HFI     C1 2399   1.717   3.354   2.762  0.5670  0.4037 -0.4365
  160HFI     C2 2400   1.844   3.260   2.775 -0.5332  0.0217  0.5279
  160HFI     F1 2401   1.866   3.207   2.899  0.4286 -0.0896  0.0463
  160HFI     F2 2402   1.953   3.333   2.748  0.4689 -0.0694 -0.3986
  160HFI     F3 2403   1.843   3.157   2.692 -0.3550 -0.0578 -0.7491
  160HFI     C3 2404   1.692   3.438   2.897 -0.6076  0.7470 -0.6956
  160HFI     F4 2405   1.675   3.367   3.015 -0.2005 -0.0848  0.1352
  160HFI     F5 2406   1.586   3.519   2.876 -0.6831  0.5077 -0.4535
  160HFI     F6 2407   1.798   3.516   2.919  0.6795  0.5856  0.6792
  160HFI     H1 2408   1.575   3.295   2.635 -2.1658  0.2204  0.4365
  160HFI     H2 2409   1.742   3.429   2.686  1.2025  0.8857  0.2425
  161HFI     O1 2410   0.026   1.538   0.613 -0.1527  0.3293 -0.2234
  161HFI     C1 2411   0.149   1.515   0.546 -0.0446  0.5357  0.3599
  161HFI     C2 2412   0.272   1.502   0.651  0.2610 -0.6347 -0.2284
  161HFI     F1 2413   0.387   1.489   0.586 -0.2447  0.5121  0.8550
  161HFI     F2 2414   0.263   1.396   0.736  0.3197  0.2463  0.0702
  161HFI     F3 2415   0.292   1.622   0.723  0.3451  0.4722  0.2375
  161HFI     C3 2416   0.188   1.627   0.440  0.8858 -0.0149 -0.2832
  161HFI     F4 2417   0.222   1.751   0.492 -0.8126  0.4219  0.2790
  161HFI     F5 2418   0.076   1.647   0.368  0.2805  0.2806  0.2123
  161HFI     F6 2419   0.289   1.590   0.360  0.2520  0.1439  0.0527
  161HFI     H1 2420  -0.045   1.502   0.557 -0.4426  0.3949  0.0980
  161HFI     H2 2421   0.136   1.418   0.497  0.9717  0.1115  0.9140
  162HFI     O1 2422   2.469   2.029   2.728 -0.2068 -0.3462  0.6801
  162HFI     C1 2423   2.500   2.080   2.858  0.8515 -0.0720  0.3535
  162HFI     C2 2424   2.508   1.971   2.964  0.0853 -0.1995  0.3844
  162HFI     F1 2425   2.556   2.017   3.079 -0.0317 -0.0699  0.0028
  162HFI     F2 2426   2.598   1.866   2.930  0.7210 -0.0201  0.0204
  162HFI     F3 2427   2.386   1.912   2.987 -0.1712  0.5572  0.2995
  162HFI     C3 2428   2.393   2.189   2.898  0.0146  0.4115  0.9318
  162HFI     F4 2429   2.409   2.303   2.828 -0.1253 -0.0130 -0.1887
  162HFI     F5 2430   2.406   2.227   3.025 -0.5123  0.0850  0.3643
  162HFI     F6 2431   2.260   2.157   2.875 -0.3801  0.1802  0.6263
  162HFI     H1 2432   2.377   1.996   2.725 -0.8104  1.3330 -1.7925
  162HFI     H2 2433   2.601   2.121   2.852  1.2467 -1.1603 -0.5780
  163HFI     O1 2434   3.293   1.809   2.533  0.2588  0.2998  0.0844
  163HFI     C1 2435   3.263   1.896   2.428 -0.2218 -0.8349  0.0533
  163HFI     C2 2436   3.132   1.987   2.449  0.1389  0.3139 -0.5553
  163HFI     F1 2437   3.130   2.093   2.372  0.0349  0.4770 -0.0319
  163HFI     F2 2438   3.114   2.029   2.573 -0.0966  0.0911 -0.0681
  163HFI     F3 2439   3.018   1.924   2.418 -0.1669  0.1473  0.6766
  163HFI     C3 2440   3.259   1.822   2.289  0.3648  0.3967 -0.3058
  163HFI     F4 2441   3.230   1.898   2.191 -0.1686  0.4158 -0.0189
  163HFI     F5 2442   3.168   1.724   2.283  0.2537 -0.0403  0.0471
  163HFI     F6 2443   3.389   1.772   2.265  0.2254 -0.0818 -0.0497
  163HFI     H1 2444   3.261   1.721   2.507  1.9455  0.0647 -1.2800
  163HFI     H2 2445   3.341   1.972   2.416 -0.6310 -0.2455  1.0716
  164HFI     O1 2446   1.495   0.863   3.790  0.2442  0.2336  0.0780
  164HFI     C1 2447   1.608   0.940   3.751  0.4585 -0.2890 -0.1304
  164HFI     C2 2448   1.636   0.922   3.600  0.2990 -0.3526 -0.0427
  164HFI     F1 2449   1.682   0.801   3.567  0.7639  0.5454 -0.0179
  164HFI     F2 2450   1.729   1.010   3.560  0.3425  0.4286  0.2539
  164HFI     F3 2451   1.527   0.945   3.524 -0.0227 -0.2493 -0.1985
  164HFI     C3 2452   1.731   0.898   3.841 -0.2719 -0.7010 -0.0114
  164HFI     F4 2453   1.740   0.768   3.849 -0.0875  0.6884 -0.4190
  164HFI     F5 2454   1.717   0.948   3.967  0.1125  0.3763 -0.1115
  164HFI     F6 2455   1.845   0.938   3.792 -0.1780  0.1181  0.4010
  164HFI     H1 2456   1.493   0.774   3.751  2.8783  0.7653 -1.3753
  164HFI     H2 2457   1.590   1.046   3.771  1.3719 -0.3610  1.1287
  165HFI     O1 2458   2.623   1.283   2.384  0.4151  0.7317  0.0781
  165HFI     C1 2459   2.759   1.330   2.419  0.5758  0.2583 -0.7046
  165HFI     C2 2460   2.821   1.405   2.295 -0.3820 -0.4605  0.2049
  165HFI     F1 2461   2.841   1.317   2.196 -0.1506  0.1490 -0.1473
  165HFI     F2 2462   2.945   1.453   2.328  0.2358  0.0779  0.0366
  165HFI     F3 2463   2.745   1.506   2.240 -0.0705  0.1231  0.5853
  165HFI     C3 2464   2.840   1.213   2.487  0.2618  0.3654  0.0559
  165HFI     F4 2465   2.957   1.249   2.536  0.3510 -0.2463 -0.2255
  165HFI     F5 2466   2.865   1.108   2.413 -0.2726  0.0249  0.4518
  165HFI     F6 2467   2.765   1.159   2.580 -0.1257 -0.6384  0.1983
  165HFI     H1 2468   2.625   1.208   2.323 -2.1530 -0.8018  1.7680
  165HFI     H2 2469   2.751   1.415   2.487 -0.3304  2.1645 -3.1232
  166HFI     O1 2470   0.045   0.234   3.226  0.0632 -0.2199  0.1483
  166HFI     C1 2471  -0.011   0.106   3.266 -0.1183 -0.9035 -0.4581
  166HFI     C2 2472  -0.135   0.073   3.171  0.2750 -0.2209  0.1052
  166HFI     F1 2473  -0.196  -0.041   3.198  0.0910  0.2118  0.0560
  166HFI     F2 2474  -0.077   0.074   3.053  0.3508 -0.0494  0.0036
  166HFI     F3 2475  -0.226   0.178   3.179 -0.5507  0.7420  0.0662
  166HFI     C3 2476  -0.048   0.102   3.420 -0.3427 -0.6798  0.7165
  166HFI     F4 2477   0.061   0.085   3.495  0.0030  0.4021 -1.1066
  166HFI     F5 2478  -0.130  -0.002   3.447  0.0392 -0.3183 -0.5387
  166HFI     F6 2479  -0.109   0.220   3.457  0.2584 -0.6867 -0.4541
  166HFI     H1 2480   0.042   0.291   3.305 -0.3092  2.8065 -1.9656
  166HFI     H2 2481   0.062   0.024   3.265  2.1144  1.0426 -0.5903
  167HFI     O1 2482   1.226   0.510   3.660 -0.8569  0.4534  0.1840
  167HFI     C1 2483   1.343   0.445   3.597  0.4953  0.1196 -0.8150
  167HFI     C2 2484   1.472   0.533   3.602 -0.2996 -0.3892  0.0490
  167HFI     F1 2485   1.574   0.482   3.533  0.3915 -0.1939  1.1850
  167HFI     F2 2486   1.513   0.571   3.732  0.0078 -0.1638  0.3208
  167HFI     F3 2487   1.442   0.648   3.539 -0.2907 -0.8539  0.3330
  167HFI     C3 2488   1.297   0.392   3.453  0.6539 -0.7411 -0.7166
  167HFI     F4 2489   1.185   0.316   3.477  0.2883 -0.7606  0.1320
  167HFI     F5 2490   1.388   0.316   3.387 -0.1383 -0.0211  0.4619
  167HFI     F6 2491   1.262   0.496   3.370 -0.5328 -0.7157  0.3172
  167HFI     H1 2492   1.140   0.467   3.644 -0.0213 -0.8012 -1.1051
  167HFI     H2 2493   1.366   0.359   3.660 -0.9597 -0.2472 -0.7646
  168HFI     O1 2494   1.590   1.578   2.211 -0.8719  0.6205 -0.1860
  168HFI     C1 2495   1.483   1.482   2.237 -0.0760 -0.0038  0.3796
  168HFI     C2 2496   1.344   1.551   2.260  0.2277  0.4455 -0.1630
  168HFI     F1 2497   1.328   1.597   2.387 -0.1833  0.0070 -0.0712
  168HFI     F2 2498   1.240   1.468   2.239  0.2600 -0.5746  0.0982
  168HFI     F3 2499   1.322   1.653   2.167 -0.4158 -0.5654  0.2578
  168HFI     C3 2500   1.523   1.379   2.346 -0.0729 -0.3959  0.3471
  168HFI     F4 2501   1.564   1.441   2.457  0.6267  0.3206 -0.2718
  168HFI     F5 2502   1.623   1.300   2.304  0.4993 -0.5579 -0.1557
  168HFI     F6 2503   1.414   1.307   2.386 -0.2998 -0.0860  0.0002
  168HFI     H1 2504   1.560   1.668   2.235 -2.8792  0.1261 -0.7329
  168HFI     H2 2505   1.467   1.426   2.144 -0.5184 -1.1737  1.1457
  169HFI     O1 2506   1.968   0.193   2.472  0.4280 -0.2643  0.3267
  169HFI     C1 2507   1.859   0.290   2.433  0.6358 -0.7712 -0.1664
  169HFI     C2 2508   1.728   0.244   2.503 -0.0683 -0.1071 -0.2571
  169HFI     F1 2509   1.672   0.131   2.452  0.7492  0.6554  0.0926
  169HFI     F2 2510   1.640   0.340   2.503  0.2567  1.1350 -1.0076
  169HFI     F3 2511   1.765   0.214   2.634  0.3812  0.0137  0.8041
  169HFI     C3 2512   1.843   0.294   2.282  0.0358 -0.6011 -0.3539
  169HFI     F4 2513   1.791   0.184   2.217 -0.0218  0.5715 -0.3305
  169HFI     F5 2514   1.961   0.309   2.222  0.5970 -0.3909  0.3011
  169HFI     F6 2515   1.763   0.399   2.243 -0.0590 -0.3051  0.9447
  169HFI     H1 2516   2.039   0.198   2.405 -1.4427 -0.0534 -1.6789
  169HFI     H2 2517   1.887   0.393   2.460  0.8064 -0.9518  0.3408
  170HFI     O1 2518   0.428   0.330   2.751  0.4315  0.2279  0.1625
  170HFI     C1 2519   0.574   0.341   2.791  0.5563  0.5455 -0.4082
  170HFI     C2 2520   0.591   0.308   2.941 -0.2884 -0.1774  0.1134
  170HFI     F1 2521   0.530   0.403   3.020  0.7960 -0.2078  0.4215
  170HFI     F2 2522   0.722   0.305   2.978 -0.0588 -0.0110  0.2876
  170HFI     F3 2523   0.535   0.190   2.973  0.1349 -0.1836 -0.0532
  170HFI     C3 2524   0.636   0.478   2.751 -0.1791 -0.1849  0.1469
  170HFI     F4 2525   0.769   0.489   2.783  0.0850  0.1229  0.1379
  170HFI     F5 2526   0.574   0.582   2.813  0.2364  0.5160 -0.1421
  170HFI     F6 2527   0.632   0.499   2.616 -0.1246 -0.2189 -0.4427
  170HFI     H1 2528   0.392   0.246   2.783  1.3445 -0.6133 -0.9444
  170HFI     H2 2529   0.636   0.269   2.737 -0.9972 -1.5831  0.5671
  171HFI     O1 2530   0.060   2.962   2.228  0.0861 -0.0334 -0.1275
  171HFI     C1 2531   0.149   2.982   2.338  0.1772  0.5067  0.1768
  171HFI     C2 2532   0.124   3.122   2.395  0.2562  0.8342  0.3376
  171HFI     F1 2533  -0.006   3.139   2.444 -0.3337  0.2220  0.2074
  171HFI     F2 2534   0.135   3.209   2.297 -0.1262  0.4499  0.2876
  171HFI     F3 2535   0.210   3.152   2.496 -0.0730 -0.2188 -0.5040
  171HFI     C3 2536   0.294   2.950   2.300  0.7477  0.0675  0.4210
  171HFI     F4 2537   0.346   3.033   2.211  0.5076  0.4601  0.0745
  171HFI     F5 2538   0.294   2.818   2.249  0.1734 -0.2154 -0.3765
  171HFI     F6 2539   0.371   2.956   2.405  0.3414 -0.1136 -0.2091
  171HFI     H1 2540   0.056   3.049   2.185 -0.8624  0.8288  1.6181
  171HFI     H2 2541   0.115   2.908   2.412  0.7401 -0.7098 -0.7782
  172HFI     O1 2542   3.401   2.291   0.829  0.0381  0.3370 -1.1406
  172HFI     C1 2543   3.311   2.354   0.924  0.7026  0.5192 -0.3561
  172HFI     C2 2544   3.333   2.319   1.073 -0.2374  0.2353 -0.1106
  172HFI     F1 2545   3.466   2.295   1.091 -0.0350  0.9329 -0.6665
  172HFI     F2 2546   3.263   2.220   1.124  0.3930 -0.2167  0.1074
  172HFI     F3 2547   3.296   2.436   1.144  0.3149 -0.1075  0.1021
  172HFI     C3 2548   3.166   2.358   0.876 -0.4746  0.0298 -0.4572
  172HFI     F4 2549   3.163   2.406   0.751  0.3160 -0.0412 -0.0134
  172HFI     F5 2550   3.098   2.442   0.954 -0.2967  0.4403 -0.0183
  172HFI     F6 2551   3.106   2.244   0.874  0.9438 -0.0576 -0.0070
  172HFI     H1 2552   3.360   2.208   0.799 -0.3438  0.4607 -0.9686
  172HFI     H2 2553   3.337   2.461   0.925  2.7949  0.0557 -2.5520
  173HFI     O1 2554   1.572   0.592   2.567 -0.1038  0.5345  0.2652
  173HFI     C1 2555   1.584   0.617   2.706 -0.3537  0.8886  0.1526
  173HFI     C2 2556   1.731   0.652   2.748  0.1298  0.5879 -0.1984
  173HFI     F1 2557   1.803   0.539   2.750 -0.2123  0.0941  0.1256
  173HFI     F2 2558   1.729   0.707   2.873  0.2030  0.4096  0.2448
  173HFI     F3 2559   1.792   0.738   2.661  0.1506 -0.3267 -0.5772
  173HFI     C3 2560   1.528   0.504   2.793 -0.5261  0.0662  0.1586
  173HFI     F4 2561   1.600   0.384   2.787  0.1789  0.1554  0.2942
  173HFI     F5 2562   1.401   0.481   2.763  0.2891 -0.1832 -0.0533
  173HFI     F6 2563   1.530   0.541   2.928 -0.3371 -0.8648  0.1228
  173HFI     H1 2564   1.480   0.563   2.551  0.7910 -2.4259  0.2213
  173HFI     H2 2565   1.524   0.704   2.735  0.6515  1.7058 -0.1720
  174HFI     O1 2566   0.068   0.477   2.428  0.1142  0.2678 -0.2470
  174HFI     C1 2567   0.102   0.618   2.416  0.0171  0.5000  0.0743
  174HFI     C2 2568   0.117   0.652   2.265 -0.1723  1.2605  0.3783
  174HFI     F1 2569  -0.007   0.627   2.202  0.6743  0.0360 -0.1804
  174HFI     F2 2570   0.213   0.586   2.194  0.2349  0.0071 -0.2966
  174HFI     F3 2571   0.140   0.786   2.265  0.2843 -0.6124 -0.4693
  174HFI     C3 2572   0.222   0.649   2.497 -1.0978  0.4871  0.2792
  174HFI     F4 2573   0.337   0.597   2.434  0.0456 -0.0707  0.0803
  174HFI     F5 2574   0.210   0.585   2.619  0.2364 -0.2692 -0.2021
  174HFI     F6 2575   0.231   0.782   2.513 -0.3125 -0.0905 -0.3957
  174HFI     H1 2576   0.151   0.429   2.413 -0.9163 -2.1399  1.5884
  174HFI     H2 2577   0.029   0.687   2.458 -0.0852 -0.1354  0.9489
  175HFI     O1 2578   2.025   1.235   2.707  0.5677  0.0855  0.2953
  175HFI     C1 2579   1.879   1.233   2.719  0.3432 -0.5967 -0.9485
  175HFI     C2 2580   1.810   1.149   2.610 -0.5021  0.6242 -0.6398
  175HFI     F1 2581   1.679   1.162   2.606 -0.4408  0.1145 -0.4572
  175HFI     F2 2582   1.835   1.010   2.630 -0.1216 -0.6236 -0.2666
  175HFI     F3 2583   1.859   1.173   2.485 -0.3970  0.3069 -0.4792
  175HFI     C3 2584   1.818   1.378   2.729 -0.1368 -0.0535 -0.2850
  175HFI     F4 2585   1.915   1.453   2.776 -0.1574 -0.4269  0.0450
  175HFI     F5 2586   1.719   1.382   2.819 -0.2225 -0.2064 -0.1270
  175HFI     F6 2587   1.774   1.429   2.606  0.4261  0.1786  0.9981
  175HFI     H1 2588   2.051   1.299   2.639  1.4485 -0.9577 -0.3541
  175HFI     H2 2589   1.855   1.175   2.809 -0.3910 -1.5303 -1.7320
  176HFI     O1 2590   2.402   0.294   2.547 -0.0166 -0.0123  0.6274
  176HFI     C1 2591   2.383   0.427   2.495 -0.5836  0.3611 -0.3072
  176HFI     C2 2592   2.277   0.497   2.579 -0.0762 -0.7186 -0.0269
  176HFI     F1 2593   2.145   0.481   2.544  0.0273 -0.2545 -0.2482
  176HFI     F2 2594   2.303   0.631   2.573 -0.1808 -0.4904 -0.2117
  176HFI     F3 2595   2.293   0.462   2.706 -0.2349  0.8049  0.5390
  176HFI     C3 2596   2.345   0.423   2.344 -0.8976  0.1984  0.3295
  176HFI     F4 2597   2.233   0.362   2.314  0.1407  0.2026 -0.1063
  176HFI     F5 2598   2.447   0.360   2.272 -0.2123  0.2277 -0.3061
  176HFI     F6 2599   2.337   0.548   2.290 -0.2447  0.3404  0.2922
  176HFI     H1 2600   2.373   0.303   2.639  2.0911 -0.1762  1.3299
  176HFI     H2 2601   2.479   0.479   2.500 -0.4285 -0.1060  2.7824
  177HFI     O1 2602   2.196   1.036   3.088  0.1593 -0.0161 -0.0365
  177HFI     C1 2603   2.148   0.893   3.081  0.0716  0.3717  0.2061
  177HFI     C2 2604   2.062   0.871   2.956 -0.7371  0.4894  0.0321
  177HFI     F1 2605   1.966   0.957   2.938  1.0224  0.4750  0.5017
  177HFI     F2 2606   2.013   0.749   2.952 -0.1190  0.7987 -0.0197
  177HFI     F3 2607   2.142   0.882   2.847 -0.1376 -0.2449 -0.5605
  177HFI     C3 2608   2.081   0.837   3.210  0.5340  0.2245 -0.0218
  177HFI     F4 2609   1.945   0.817   3.203 -0.4071 -0.0539  0.1195
  177HFI     F5 2610   2.104   0.922   3.319  0.1735  0.0668 -0.0294
  177HFI     F6 2611   2.140   0.718   3.239  0.5697  0.3402 -0.4047
  177HFI     H1 2612   2.122   1.098   3.100 -0.6579 -0.7497 -1.2102
  177HFI     H2 2613   2.236   0.829   3.062 -0.1838  0.1830 -0.3563
  178HFI     O1 2614   1.506   2.126   2.919  0.1743  0.5902 -0.0182
  178HFI     C1 2615   1.534   2.224   2.819  0.3085 -0.1439  0.1452
  178HFI     C2 2616   1.656   2.313   2.863  0.4736 -0.9195 -0.5297
  178HFI     F1 2617   1.611   2.413   2.950  0.5850 -0.1871 -0.6771
  178HFI     F2 2618   1.710   2.378   2.753  0.5773 -0.9943 -0.0736
  178HFI     F3 2619   1.757   2.244   2.917  0.4252  0.0082 -0.3172
  178HFI     C3 2620   1.412   2.305   2.769 -0.5712  0.0426  0.3195
  178HFI     F4 2621   1.440   2.410   2.688 -0.4531  0.5070  0.1894
  178HFI     F5 2622   1.341   2.354   2.876 -0.5305  0.0789 -0.1074
  178HFI     F6 2623   1.324   2.230   2.705  0.1705 -0.3694  0.0491
  178HFI     H1 2624   1.582   2.067   2.938  1.0234  1.1226 -1.6594
  178HFI     H2 2625   1.576   2.178   2.728  0.2496  1.2459 -0.5967
  179HFI     O1 2626   3.159   0.428   3.373 -0.5096 -0.2142  0.1892
  179HFI     C1 2627   3.016   0.399   3.353 -0.5726  1.0626 -0.2649
  179HFI     C2 2628   2.921   0.526   3.354  0.1678 -0.5751  0.3885
  179HFI     F1 2629   2.810   0.503   3.285  0.1713  0.0393  0.1647
  179HFI     F2 2630   2.983   0.630   3.290  0.5053  0.0769 -0.3623
  179HFI     F3 2631   2.895   0.570   3.480 -0.0604 -0.4754 -0.4137
  179HFI     C3 2632   2.968   0.284   3.445 -0.3349 -0.2521  0.9112
  179HFI     F4 2633   2.841   0.257   3.423  0.1157 -0.4511 -0.3092
  179HFI     F5 2634   2.992   0.315   3.577  0.4773  0.2034  0.3149
  179HFI     F6 2635   3.035   0.172   3.418  0.2800 -0.5273  0.6395
  179HFI     H1 2636   3.179   0.428   3.469 -2.6025 -4.0469  0.7195
  179HFI     H2 2637   3.000   0.349   3.257 -0.1797  0.6273 -0.1092
  180HFI     O1 2638   0.530   0.706   3.692 -0.1186 -0.1459  0.7122
  180HFI     C1 2639   0.566   0.780   3.810 -0.0905  0.2700  0.4580
  180HFI     C2 2640   0.449   0.782   3.920  0.2413  0.0273  0.2630
  180HFI     F1 2641   0.328   0.829   3.869 -0.2308  0.5432  0.1831
  180HFI     F2 2642   0.478   0.860   4.027 -0.2236  0.1666  0.1635
  180HFI     F3 2643   0.430   0.660   3.967  0.1988 -0.5014  0.4250
  180HFI     C3 2644   0.612   0.930   3.787 -0.3864  0.6717  0.0329
  180HFI     F4 2645   0.656   0.983   3.897  0.5826 -0.6202 -0.6975
  180HFI     F5 2646   0.509   1.010   3.742 -0.5970  0.0300 -0.0937
  180HFI     F6 2647   0.713   0.936   3.697 -0.0126 -0.4267 -0.1307
  180HFI     H1 2648   0.579   0.747   3.618  0.1320  0.9058  1.4471
  180HFI     H2 2649   0.650   0.734   3.862  0.0678 -0.4799 -0.4535
  181HFI     O1 2650   0.017   1.401   3.704  0.5564  0.0386 -0.1596
  181HFI     C1 2651  -0.127   1.410   3.727  0.0680 -0.3390 -0.1128
  181HFI     C2 2652  -0.184   1.494   3.611  0.4327  0.1241 -0.1471
  181HFI     F1 2653  -0.165   1.629   3.624  0.5611  0.7295  0.0368
  181HFI     F2 2654  -0.321   1.477   3.617  0.1744  0.1857 -0.1683
  181HFI     F3 2655  -0.132   1.447   3.493 -0.0769 -0.2606 -0.4124
  181HFI     C3 2656  -0.169   1.462   3.866 -0.1199 -0.5687  0.0286
  181HFI     F4 2657  -0.306   1.488   3.875 -0.0257  0.5571  0.5062
  181HFI     F5 2658  -0.102   1.573   3.900  0.1177 -0.7699 -0.2255
  181HFI     F6 2659  -0.147   1.360   3.954 -0.1622 -0.3211 -0.2256
  181HFI     H1 2660   0.056   1.489   3.691  0.5993 -0.2327 -2.0285
  181HFI     H2 2661  -0.183   1.317   3.713 -0.2943  0.1004 -1.7448
  182HFI     O1 2662   0.711   2.538   2.315 -0.8693 -0.5843  0.4182
  182HFI     C1 2663   0.615   2.442   2.275 -0.7339  0.1759 -0.2003
  182HFI     C2 2664   0.464   2.503   2.288  0.2963  0.2809 -0.2829
  182HFI     F1 2665   0.371   2.398   2.309 -0.2433 -0.5141 -0.7620
  182HFI     F2 2666   0.441   2.571   2.179 -0.2737 -0.2732 -0.3614
  182HFI     F3 2667   0.449   2.589   2.392  0.6589  0.6001 -0.4429
  182HFI     C3 2668   0.631   2.311   2.363  0.7783 -0.1527  0.7733
  182HFI     F4 2669   0.754   2.257   2.367  0.2036  0.1465  0.5596
  182HFI     F5 2670   0.545   2.216   2.317  0.1820 -0.0704 -0.2616
  182HFI     F6 2671   0.593   2.341   2.487 -0.1972  0.3248 -0.3791
  182HFI     H1 2672   0.697   2.611   2.251 -1.7932 -1.3816 -0.3045
  182HFI     H2 2673   0.630   2.408   2.172 -0.8541 -0.9813  0.1476
  183HFI     O1 2674   1.443   2.437   0.618  0.2054 -0.1065 -0.0370
  183HFI     C1 2675   1.372   2.517   0.517 -0.0924 -0.3973 -0.8100
  183HFI     C2 2676   1.225   2.484   0.509  0.0444  0.1533  0.0589
  183HFI     F1 2677   1.163   2.520   0.624 -0.0807  0.4077  0.1341
  183HFI     F2 2678   1.209   2.353   0.495  0.1410 -0.2284  0.2640
  183HFI     F3 2679   1.157   2.549   0.400  0.5418 -0.2144  0.3330
  183HFI     C3 2680   1.438   2.504   0.370  0.6343 -0.6504  0.1752
  183HFI     F4 2681   1.387   2.403   0.298 -0.2866 -0.1114  0.5521
  183HFI     F5 2682   1.569   2.474   0.388 -0.0566  0.2421 -0.3727
  183HFI     F6 2683   1.431   2.620   0.296 -0.5112  0.2943  0.1280
  183HFI     H1 2684   1.525   2.399   0.582  0.3843 -2.3764  2.6463
  183HFI     H2 2685   1.372   2.621   0.551  0.3284 -0.5686 -0.2946
  184HFI     O1 2686   0.157   0.281   2.952 -0.1831  0.1613 -0.7737
  184HFI     C1 2687   0.095   0.398   2.886  0.2819 -0.2195 -0.3137
  184HFI     C2 2688   0.050   0.503   2.986  0.5538 -0.6703 -0.2082
  184HFI     F1 2689   0.077   0.623   2.931  0.0193  0.0683  0.0526
  184HFI     F2 2690   0.124   0.493   3.095  0.1954 -0.0889 -0.2916
  184HFI     F3 2691  -0.079   0.488   3.023  0.3308 -0.0892 -0.0521
  184HFI     C3 2692  -0.021   0.361   2.786  0.1825 -0.3967 -0.1572
  184HFI     F4 2693   0.032   0.280   2.686  0.2615  0.3619 -0.6451
  184HFI     F5 2694  -0.059   0.479   2.721 -0.4178  0.1670 -0.6495
  184HFI     F6 2695  -0.129   0.301   2.836  0.1580 -0.4600 -0.6625
  184HFI     H1 2696   0.131   0.281   3.046 -1.0679  3.3597 -0.9760
  184HFI     H2 2697   0.169   0.446   2.820  0.1193 -0.4322 -0.6530
  185HFI     O1 2698   3.044   2.478   2.297  0.0702  0.1570 -0.2431
  185HFI     C1 2699   2.956   2.394   2.379  0.2607 -0.5186  0.3717
  185HFI     C2 2700   2.855   2.333   2.285  0.3712 -0.2552  0.4734
  185HFI     F1 2701   2.789   2.421   2.203 -0.2991 -0.1838  0.8273
  185HFI     F2 2702   2.760   2.271   2.350 -0.0772  0.2405 -0.0046
  185HFI     F3 2703   2.922   2.238   2.207  0.2694 -0.1384  0.5417
  185HFI     C3 2704   2.889   2.486   2.495 -0.0810 -0.1420  0.3743
  185HFI     F4 2705   2.872   2.411   2.610  0.4288  0.1325 -0.2674
  185HFI     F5 2706   2.765   2.527   2.452  0.4797  0.0325  0.0459
  185HFI     F6 2707   2.983   2.582   2.532 -0.8933  0.1532  0.1484
  185HFI     H1 2708   3.006   2.566   2.279  0.0577  0.4513  1.1764
  185HFI     H2 2709   3.017   2.316   2.425  0.9437 -0.1822  0.0375
  186HFI     O1 2710   2.424   2.878   2.507 -0.3195  0.4734  0.1613
  186HFI     C1 2711   2.379   2.807   2.386  0.3741 -0.4132 -0.0049
  186HFI     C2 2712   2.493   2.790   2.281  0.0151 -0.3078  0.9073
  186HFI     F1 2713   2.455   2.695   2.188 -0.1816 -0.1335  0.1643
  186HFI     F2 2714   2.616   2.762   2.327  0.0328  0.2744  0.0506
  186HFI     F3 2715   2.520   2.902   2.216 -0.6467 -0.4886 -0.5196
  186HFI     C3 2716   2.251   2.881   2.336 -0.1489 -0.1351 -0.4798
  186HFI     F4 2717   2.186   2.797   2.241 -0.4727  0.0214 -0.1693
  186HFI     F5 2718   2.272   2.999   2.266 -0.2531 -0.0677 -0.3032
  186HFI     F6 2719   2.152   2.911   2.429 -0.0617 -0.3097  0.0560
  186HFI     H1 2720   2.417   2.973   2.488 -4.7903 -0.3268 -2.9593
  186HFI     H2 2721   2.343   2.707   2.412 -0.9462 -0.5104 -2.0933
  187HFI     O1 2722   3.230   0.973   2.863  0.0807 -0.0393  0.7768
  187HFI     C1 2723   3.274   0.891   2.973 -0.5001  0.4174  0.0355
  187HFI     C2 2724   3.163   0.811   3.040  0.7627 -0.2435  0.3524
  187HFI     F1 2725   3.201   0.707   3.114 -0.1803 -0.0021 -0.7064
  187HFI     F2 2726   3.093   0.758   2.938 -0.5254  0.2437  0.0187
  187HFI     F3 2727   3.091   0.892   3.123 -0.1492 -0.5434  0.0973
  187HFI     C3 2728   3.354   0.977   3.072  0.4881 -0.1053 -0.0432
  187HFI     F4 2729   3.466   1.015   3.010  0.1885  0.2444 -0.2719
  187HFI     F5 2730   3.383   0.908   3.188 -0.3647 -0.1008 -0.1661
  187HFI     F6 2731   3.285   1.086   3.109  0.1312  0.7575 -0.0490
  187HFI     H1 2732   3.134   0.991   2.857  0.0581 -0.5729 -0.6190
  187HFI     H2 2733   3.345   0.821   2.928 -0.3594  1.5342 -1.5523
  188HFI     O1 2734   1.965   0.946   2.351  0.6457  0.4072  0.0567
  188HFI     C1 2735   1.925   0.842   2.262  0.5800 -0.4279  0.2246
  188HFI     C2 2736   1.777   0.815   2.276  0.0383  0.3009 -0.5045
  188HFI     F1 2737   1.751   0.750   2.399 -0.0392  0.2268 -0.0074
  188HFI     F2 2738   1.735   0.736   2.184 -0.0433 -0.4661 -0.1801
  188HFI     F3 2739   1.699   0.925   2.273  0.2175  0.3264 -0.5240
  188HFI     C3 2740   2.010   0.718   2.292  0.0870  0.0859 -0.0051
  188HFI     F4 2741   2.138   0.741   2.256  0.3320 -0.1603  0.1331
  188HFI     F5 2742   1.967   0.597   2.228 -0.2229 -0.2874 -0.3201
  188HFI     F6 2743   2.011   0.700   2.427 -0.3060 -0.0533  0.1960
  188HFI     H1 2744   1.947   0.911   2.440  0.4084  1.7177  0.5338
  188HFI     H2 2745   1.948   0.866   2.158 -0.9684 -0.2239 -0.0837
  189HFI     O1 2746   0.863   3.152   0.172  0.5940 -0.2512  0.2834
  189HFI     C1 2747   0.809   3.160   0.309 -0.5877  0.3334  0.0113
  189HFI     C2 2748   0.882   3.059   0.404 -0.2441  0.2206  0.2520
  189HFI     F1 2749   0.814   3.034   0.516  0.3950 -0.1681 -0.5555
  189HFI     F2 2750   1.005   3.114   0.431 -0.1895  0.7625  0.1925
  189HFI     F3 2751   0.904   2.934   0.353  0.2077 -0.1371  0.2043
  189HFI     C3 2752   0.658   3.135   0.316  0.1069 -0.2838 -0.5424
  189HFI     F4 2753   0.591   3.200   0.217 -0.1468 -0.0629 -0.2027
  189HFI     F5 2754   0.604   3.178   0.439  0.4255 -0.2165  0.0136
  189HFI     F6 2755   0.632   3.004   0.295 -0.1226  0.7009  0.3988
  189HFI     H1 2756   0.822   3.073   0.134  0.0037  0.2892 -0.2254
  189HFI     H2 2757   0.829   3.259   0.350 -0.2726 -0.3811  1.6095
  190HFI     O1 2758   2.510   3.190   0.789  0.3736  0.3090  0.6218
  190HFI     C1 2759   2.478   3.279   0.679  0.0941 -0.2045 -0.0274
  190HFI     C2 2760   2.603   3.335   0.603  0.6301 -0.4042 -0.3212
  190HFI     F1 2761   2.685   3.230   0.564 -0.2214 -0.1045  0.3192
  190HFI     F2 2762   2.681   3.407   0.691 -0.2756 -0.4239 -0.2861
  190HFI     F3 2763   2.572   3.404   0.492  0.1891  0.3325  0.0168
  190HFI     C3 2764   2.390   3.395   0.738 -0.3509  0.4392  0.2343
  190HFI     F4 2765   2.463   3.452   0.838  0.1404 -0.8064 -0.0328
  190HFI     F5 2766   2.276   3.338   0.795  0.2527  0.5055 -0.3825
  190HFI     F6 2767   2.353   3.490   0.649  0.2090  0.4876 -0.0290
  190HFI     H1 2768   2.599   3.214   0.818 -0.0687  0.5857  1.7934
  190HFI     H2 2769   2.420   3.234   0.598 -0.9254  1.3926 -0.2103
  191HFI     O1 2770   0.945   2.013   3.742  0.1048  0.1397 -0.2398
  191HFI     C1 2771   1.015   2.125   3.812  0.2694 -1.3453 -0.7432
  191HFI     C2 2772   0.959   2.263   3.769  0.5477 -0.1613  0.4963
  191HFI     F1 2773   1.014   2.366   3.835 -0.5765  0.3837 -0.1387
  191HFI     F2 2774   0.824   2.277   3.771 -0.0483  0.3852 -0.8046
  191HFI     F3 2775   0.996   2.280   3.639  0.4119  0.3934  0.2466
  191HFI     C3 2776   1.165   2.120   3.799  0.2111  0.3580  0.3768
  191HFI     F4 2777   1.212   2.138   3.672 -0.2686  0.1572 -0.0204
  191HFI     F5 2778   1.206   1.998   3.823 -0.3435  0.3447  0.1599
  191HFI     F6 2779   1.233   2.203   3.881  0.2514  0.1481  0.0035
  191HFI     H1 2780   0.935   2.041   3.649 -4.6204 -1.7617 -0.4276
  191HFI     H2 2781   1.003   2.125   3.921  0.1875  0.7034 -0.7330
  192HFI     O1 2782   0.865   1.420   3.725  0.1314 -0.0979  0.6150
  192HFI     C1 2783   0.757   1.516   3.749  0.2621 -0.0404 -0.3171
  192HFI     C2 2784   0.626   1.494   3.650  0.6588  0.5072 -0.2277
  192HFI     F1 2785   0.628   1.577   3.548 -0.0165 -0.4983  0.3668
  192HFI     F2 2786   0.513   1.530   3.716  0.4060 -0.0551  0.3502
  192HFI     F3 2787   0.604   1.366   3.605 -0.0236 -0.0605  0.4737
  192HFI     C3 2788   0.806   1.667   3.754  0.3421 -0.1508 -0.0175
  192HFI     F4 2789   0.713   1.745   3.785  0.0652  0.4878  0.6082
  192HFI     F5 2790   0.864   1.699   3.634 -0.4802 -0.0593 -0.5702
  192HFI     F6 2791   0.903   1.673   3.852  0.0322  0.6964 -0.4271
  192HFI     H1 2792   0.841   1.350   3.662  0.5089  1.3980 -1.2520
  192HFI     H2 2793   0.724   1.504   3.853  0.4183  2.4245  0.0559
  193HFI     O1 2794   0.749   2.420   2.911 -0.2503  0.4465 -0.0577
  193HFI     C1 2795   0.793   2.320   2.811  0.6033  0.3492 -0.5047
  193HFI     C2 2796   0.875   2.194   2.871  0.2062  0.1196 -1.2930
  193HFI     F1 2797   0.821   2.134   2.982 -0.5745 -0.0918  0.2487
  193HFI     F2 2798   0.998   2.230   2.909 -0.0750 -0.0625 -0.3503
  193HFI     F3 2799   0.884   2.098   2.773 -0.2175 -0.1578  0.2664
  193HFI     C3 2800   0.865   2.391   2.698  0.0991 -0.0144 -0.0148
  193HFI     F4 2801   0.978   2.449   2.742  0.7723 -0.0458 -0.2849
  193HFI     F5 2802   0.787   2.490   2.648 -0.2418  0.1765  0.0399
  193HFI     F6 2803   0.899   2.312   2.596 -0.3389  0.5292 -0.0090
  193HFI     H1 2804   0.738   2.505   2.866 -1.2195  1.1137  1.4269
  193HFI     H2 2805   0.698   2.280   2.771 -0.1139 -2.0492  3.4049
  194HFI     O1 2806   0.622   0.548   2.278  0.3263 -0.9498 -0.5758
  194HFI     C1 2807   0.722   0.652   2.265  0.8102 -0.5905 -0.2100
  194HFI     C2 2808   0.863   0.588   2.291  0.2754  0.8322 -0.9600
  194HFI     F1 2809   0.866   0.539   2.417  0.3470  0.3629  0.1071
  194HFI     F2 2810   0.966   0.672   2.285 -0.8142  0.4700  0.5833
  194HFI     F3 2811   0.881   0.487   2.203 -0.1737  0.1421 -0.2148
  194HFI     C3 2812   0.690   0.775   2.353  0.8119  0.4727  0.3808
  194HFI     F4 2813   0.732   0.763   2.486  0.4313  0.3855 -0.1724
  194HFI     F5 2814   0.558   0.795   2.348  0.0378  0.3407 -0.7040
  194HFI     F6 2815   0.734   0.895   2.308 -0.1861 -0.5230 -0.0257
  194HFI     H1 2816   0.596   0.540   2.372 -1.4899 -0.9420 -1.0569
  194HFI     H2 2817   0.721   0.705   2.169  0.5330  2.2474  1.3141
  195HFI     O1 2818   1.105   0.366   1.159 -0.3461 -0.0788 -0.5476
  195HFI     C1 2819   1.116   0.495   1.098  0.2373 -0.4393  0.0337
  195HFI     C2 2820   0.992   0.521   1.011  0.3618 -0.5758 -0.0641
  195HFI     F1 2821   0.868   0.501   1.076  0.1311  0.3324 -0.3645
  195HFI     F2 2822   0.991   0.427   0.911  0.0860 -0.1814  0.5944
  195HFI     F3 2823   0.994   0.641   0.957  0.1419  0.4588 -0.0005
  195HFI     C3 2824   1.248   0.517   1.021 -0.2249  0.3757 -0.4557
  195HFI     F4 2825   1.246   0.444   0.914  0.5265 -0.3262  0.4077
  195HFI     F5 2826   1.361   0.479   1.091 -0.1028 -0.2573 -0.1130
  195HFI     F6 2827   1.257   0.648   0.986 -0.0783  0.1648  0.0076
  195HFI     H1 2828   1.141   0.305   1.093 -1.4168  0.6615 -1.8666
  195HFI     H2 2829   1.123   0.571   1.178 -1.2440 -0.3165  0.0639
  196HFI     O1 2830   2.605   2.028   2.491  0.4593  0.0569  0.2418
  196HFI     C1 2831   2.686   1.919   2.439 -0.0184 -0.0841  0.1125
  196HFI     C2 2832   2.649   1.893   2.288 -0.5383  0.2521  0.1987
  196HFI     F1 2833   2.522   1.860   2.270  0.7421 -0.0877  0.2965
  196HFI     F2 2834   2.722   1.789   2.235  0.3248  0.2077 -0.3038
  196HFI     F3 2835   2.669   2.009   2.212 -0.6308  0.2843 -0.1459
  196HFI     C3 2836   2.674   1.797   2.531 -0.6734  0.3246  1.1517
  196HFI     F4 2837   2.790   1.728   2.502  0.3016 -0.4770 -0.0744
  196HFI     F5 2838   2.572   1.714   2.508  0.3291 -0.1832  0.0583
  196HFI     F6 2839   2.680   1.831   2.661 -0.1754  0.9192 -0.5702
  196HFI     H1 2840   2.580   2.019   2.585 -1.0236 -3.8443 -0.4352
  196HFI     H2 2841   2.788   1.959   2.440  0.4135 -1.1833  0.3246
  197HFI     O1 2842   1.096   1.468   2.946 -0.5041  0.3438 -0.1055
  197HFI     C1 2843   1.230   1.467   2.894  0.1781 -0.5486  0.2491
  197HFI     C2 2844   1.317   1.591   2.928  0.0348  0.4089 -0.4143
  197HFI     F1 2845   1.337   1.598   3.067 -0.5904 -0.3823  0.1275
  197HFI     F2 2846   1.250   1.700   2.896 -0.0628  0.3647 -0.3123
  197HFI     F3 2847   1.432   1.585   2.866 -0.3597 -0.0215  0.5977
  197HFI     C3 2848   1.221   1.441   2.739  0.2176  0.8041  0.0739
  197HFI     F4 2849   1.344   1.428   2.693  0.7849 -0.0449  0.5314
  197HFI     F5 2850   1.160   1.544   2.679 -0.4768 -0.3712  0.2600
  197HFI     F6 2851   1.154   1.328   2.714  0.1916 -0.3984  0.1494
  197HFI     H1 2852   1.050   1.549   2.920 -1.8078 -0.1112  0.7449
  197HFI     H2 2853   1.288   1.387   2.942  0.2381 -0.1668  0.8201
  198HFI     O1 2854   0.633   1.046   1.052  0.1373  0.1140  0.1844
  198HFI     C1 2855   0.564   1.161   0.993  0.2935 -0.3390  0.4225
  198HFI     C2 2856   0.420   1.169   1.034  0.3132 -0.3783 -0.2494
  198HFI     F1 2857   0.423   1.168   1.171 -0.3197  0.2190  0.3540
  198HFI     F2 2858   0.347   1.068   0.993  0.1666 -0.3215  0.4355
  198HFI     F3 2859   0.358   1.283   0.995 -0.0261  0.1773 -0.3756
  198HFI     C3 2860   0.577   1.170   0.838 -0.3811  0.5953 -0.1700
  198HFI     F4 2861   0.686   1.100   0.800 -0.0330  0.1393  0.0249
  198HFI     F5 2862   0.597   1.296   0.799  0.2572 -0.4157 -0.0068
  198HFI     F6 2863   0.466   1.134   0.764 -0.0080  0.3501 -0.4845
  198HFI     H1 2864   0.585   1.034   1.136  0.6899  2.4295  0.8622
  198HFI     H2 2865   0.622   1.249   1.022 -1.0954 -0.3809  3.4902
  199HFI     O1 2866   2.449   0.978   0.403  0.5593  0.6664  0.3768
  199HFI     C1 2867   2.399   1.112   0.375  0.6308  0.1052  0.1581
  199HFI     C2 2868   2.503   1.222   0.425  0.4201  0.1137  0.7408
  199HFI     F1 2869   2.620   1.220   0.352 -0.0815 -0.2643 -0.1748
  199HFI     F2 2870   2.535   1.207   0.559  0.3736  0.3715  0.3879
  199HFI     F3 2871   2.451   1.347   0.418 -0.5201  0.0725 -0.4971
  199HFI     C3 2872   2.253   1.120   0.428 -0.4956 -0.7593 -0.6514
  199HFI     F4 2873   2.251   1.120   0.560 -0.0027  0.0340 -0.2089
  199HFI     F5 2874   2.183   1.015   0.382 -0.3200 -0.0383 -0.1035
  199HFI     F6 2875   2.193   1.240   0.383 -0.6682 -0.6325  0.6325
  199HFI     H1 2876   2.403   0.928   0.473  1.1084  1.5308  1.3737
  199HFI     H2 2877   2.395   1.141   0.269 -0.1341  0.3445  0.2488
  200HFI     O1 2878   1.672   1.924   2.978 -0.0865 -0.3811 -0.5808
  200HFI     C1 2879   1.643   1.809   3.065 -0.9160 -0.1792 -0.0219
  200HFI     C2 2880   1.599   1.860   3.207 -0.0027  0.3549  0.0853
  200HFI     F1 2881   1.481   1.929   3.190 -0.2153 -0.3568  0.1704
  200HFI     F2 2882   1.684   1.946   3.266 -0.2348 -0.0506 -0.1580
  200HFI     F3 2883   1.581   1.760   3.293 -0.3838  0.0999  0.2204
  200HFI     C3 2884   1.757   1.707   3.086  0.5249  1.2176 -0.7135
  200HFI     F4 2885   1.697   1.592   3.139  0.3341  0.2952  0.1020
  200HFI     F5 2886   1.855   1.744   3.174  0.2032  0.5571  0.2437
  200HFI     F6 2887   1.825   1.671   2.970  0.0306  0.3241  0.2471
  200HFI     H1 2888   1.714   1.885   2.900 -2.2079 -1.6685 -1.1443
  200HFI     H2 2889   1.558   1.752   3.026 -0.8575  0.4439 -1.0663
  201HFI     O1 2890   2.037   0.049   0.256  0.6675  0.8599  0.0997
  201HFI     C1 2891   2.039  -0.035   0.372 -0.6900  0.0470 -0.9835
  201HFI     C2 2892   2.167  -0.094   0.402  0.0023 -0.2731 -0.2586
  201HFI     F1 2893   2.263   0.001   0.397 -0.9472  0.4811  0.2866
  201HFI     F2 2894   2.205  -0.190   0.314  0.0805 -0.2606  0.1121
  201HFI     F3 2895   2.171  -0.142   0.527 -0.0499 -0.1360  0.0663
  201HFI     C3 2896   1.936  -0.152   0.367  0.8066  0.3102  0.2298
  201HFI     F4 2897   1.940  -0.243   0.470  0.0231  0.1675  0.5927
  201HFI     F5 2898   1.925  -0.222   0.252 -0.3981  0.8305 -0.0198
  201HFI     F6 2899   1.817  -0.086   0.378 -0.1214 -0.4260  0.2863
  201HFI     H1 2900   2.127   0.079   0.238  1.6433 -1.5421  0.7587
  201HFI     H2 2901   2.011   0.017   0.464 -0.0338 -0.1968 -0.6437
  202HFI     O1 2902   2.447   2.921   3.097  0.3902  0.2642 -0.4794
  202HFI     C1 2903   2.391   2.900   3.239 -0.7941  0.6577  0.2099
  202HFI     C2 2904   2.468   2.998   3.334  0.5772 -0.3179 -0.3005
  202HFI     F1 2905   2.410   2.993   3.457  0.3380  0.9136 -0.1429
  202HFI     F2 2906   2.448   3.124   3.290  0.3056 -0.8352  0.2094
  202HFI     F3 2907   2.597   2.971   3.352  0.1632  0.1171  0.3174
  202HFI     C3 2908   2.401   2.748   3.287  0.6388  0.7723  0.1656
  202HFI     F4 2909   2.339   2.736   3.408 -1.0490  0.0121 -0.0342
  202HFI     F5 2910   2.522   2.702   3.305 -0.8157 -0.2137 -0.0816
  202HFI     F6 2911   2.343   2.665   3.196 -0.1851  0.0340 -0.0189
  202HFI     H1 2912   2.530   2.871   3.097 -0.4688 -1.2151  0.4706
  202HFI     H2 2913   2.287   2.934   3.244 -1.6548 -1.8791  0.1435
  203HFI     O1 2914   1.089   2.771   3.585 -0.0806 -0.3385  0.2241
  203HFI     C1 2915   1.127   2.707   3.707 -0.2044 -0.1581 -0.2628
  203HFI     C2 2916   1.015   2.730   3.821 -0.8301 -0.4014 -0.3546
  203HFI     F1 2917   0.889   2.690   3.778 -0.3818 -0.5186 -0.1154
  203HFI     F2 2918   1.001   2.861   3.857 -0.2608  0.5840 -0.2415
  203HFI     F3 2919   1.043   2.656   3.937  0.4037 -0.0671 -0.4744
  203HFI     C3 2920   1.269   2.741   3.765  0.4000  0.1257  0.2963
  203HFI     F4 2921   1.360   2.741   3.669 -0.2877  0.6170 -0.4035
  203HFI     F5 2922   1.319   2.649   3.850 -0.4825  0.0524  0.0650
  203HFI     F6 2923   1.283   2.859   3.826 -0.3250 -0.3031 -0.1612
  203HFI     H1 2924   1.118   2.727   3.503 -1.0250 -0.9738  0.2239
  203HFI     H2 2925   1.116   2.598   3.697  1.4764 -0.3486 -0.1440
  204HFI     O1 2926   0.372   1.598   3.416 -0.2741  0.2275  0.0944
  204HFI     C1 2927   0.348   1.728   3.475 -0.5636  0.1174  0.2573
  204HFI     C2 2928   0.198   1.719   3.533 -0.9453 -0.3294 -0.4426
  204HFI     F1 2929   0.161   1.836   3.594  0.5622 -0.6080  0.3864
  204HFI     F2 2930   0.188   1.624   3.632 -0.1964  0.1077  0.1343
  204HFI     F3 2931   0.102   1.682   3.436 -0.0810 -0.3121  0.3885
  204HFI     C3 2932   0.361   1.849   3.374 -0.4793  0.5839 -0.1491
  204HFI     F4 2933   0.265   1.848   3.279 -0.4204  0.5779 -0.0604
  204HFI     F5 2934   0.485   1.860   3.325  0.7405  0.1718 -0.2023
  204HFI     F6 2935   0.340   1.963   3.439 -0.4134  0.2046  0.0026
  204HFI     H1 2936   0.382   1.610   3.320  1.3298 -0.2931  0.1761
  204HFI     H2 2937   0.417   1.750   3.557  0.4872  3.5715 -1.4877
  205HFI     O1 2938   0.944   1.144   3.116  0.0636  0.1444 -0.4865
  205HFI     C1 2939   0.908   1.220   3.239 -0.0292  0.1943  0.3706
  205HFI     C2 2940   0.897   1.119   3.359  0.0441 -0.2346 -1.0869
  205HFI     F1 2941   0.948   1.175   3.473 -0.0796  0.3470 -0.1077
  205HFI     F2 2942   0.963   1.006   3.342  0.4318 -0.3740  0.7468
  205HFI     F3 2943   0.770   1.085   3.381  0.2688  0.0743 -0.0280
  205HFI     C3 2944   0.786   1.316   3.215 -0.1084  0.0215 -0.0341
  205HFI     F4 2945   0.673   1.253   3.184  0.1626  0.8340  0.7924
  205HFI     F5 2946   0.809   1.407   3.115 -0.0340 -0.3882  0.0901
  205HFI     F6 2947   0.765   1.391   3.326 -0.2719  0.0787 -0.2016
  205HFI     H1 2948   1.003   1.200   3.063  0.8251 -0.4849 -0.3180
  205HFI     H2 2949   0.993   1.280   3.274  1.5341 -2.4116  1.2353
  206HFI     O1 2950   2.767   2.244   3.049  0.1010 -0.4103  0.3913
  206HFI     C1 2951   2.767   2.273   3.194 -0.7272  0.4047 -0.3118
  206HFI     C2 2952   2.710   2.414   3.229  0.0019 -0.2828 -0.7502
  206HFI     F1 2953   2.774   2.511   3.160  0.4537  0.7086  0.0673
  206HFI     F2 2954   2.734   2.443   3.359  0.4440 -0.2144  0.1818
  206HFI     F3 2955   2.573   2.415   3.213 -0.2340 -0.6603 -0.1602
  206HFI     C3 2956   2.913   2.245   3.248  0.0783 -0.0149 -0.5998
  206HFI     F4 2957   2.971   2.143   3.180  0.0057 -0.3856 -0.2056
  206HFI     F5 2958   2.912   2.209   3.375 -0.3229 -0.1451 -0.2053
  206HFI     F6 2959   2.989   2.352   3.223 -0.0705 -0.0822  0.2538
  206HFI     H1 2960   2.859   2.251   3.019  0.0381  1.5149  0.5612
  206HFI     H2 2961   2.696   2.211   3.251 -2.2865  3.2220  0.9041
  207HFI     O1 2962   0.769   1.938   2.502  0.3384  0.0781 -0.3918
  207HFI     C1 2963   0.842   1.849   2.410  0.6079 -0.2277  0.9045
  207HFI     C2 2964   0.945   1.771   2.495 -0.0607  0.4179  0.6287
  207HFI     F1 2965   1.043   1.716   2.416  0.2046  0.1316  0.5851
  207HFI     F2 2966   0.884   1.672   2.563 -0.5155 -0.4246 -0.3218
  207HFI     F3 2967   1.009   1.839   2.592  0.0398  0.1860 -0.2275
  207HFI     C3 2968   0.906   1.927   2.293 -0.0958  0.0315 -0.0191
  207HFI     F4 2969   1.019   1.992   2.327 -0.0636 -0.2197  0.2406
  207HFI     F5 2970   0.822   2.013   2.231  0.2303 -0.2385 -0.0137
  207HFI     F6 2971   0.938   1.834   2.193  0.9415  0.3458 -0.6165
  207HFI     H1 2972   0.826   1.999   2.552  1.9888 -1.2225 -0.6779
  207HFI     H2 2973   0.777   1.767   2.377  0.3354  0.2765  0.1639
  208HFI     O1 2974   1.993   3.176   1.032 -0.4263  0.4550  0.0197
  208HFI     C1 2975   1.881   3.119   0.955 -0.3559 -0.3114 -0.2852
  208HFI     C2 2976   1.861   3.203   0.825 -0.5072 -0.4725 -0.5462
  208HFI     F1 2977   1.765   3.158   0.746  0.5678 -0.0335 -0.5789
  208HFI     F2 2978   1.979   3.201   0.753 -0.0810  0.3849 -1.1122
  208HFI     F3 2979   1.832   3.329   0.858  0.1216 -0.5540 -0.1858
  208HFI     C3 2980   1.760   3.111   1.049 -0.7462  0.4039 -0.4084
  208HFI     F4 2981   1.750   3.233   1.114  0.0960  0.1716 -0.1175
  208HFI     F5 2982   1.770   3.008   1.137 -0.0449  0.1892  0.0587
  208HFI     F6 2983   1.651   3.080   0.984 -0.0320  0.0161 -0.3802
  208HFI     H1 2984   1.948   3.221   1.105  1.3915 -0.8290  1.9979
  208HFI     H2 2985   1.912   3.022   0.914  0.5111  0.9747 -2.8052
  209HFI     O1 2986   0.508   0.413   3.511 -0.0725  0.1292 -0.0339
  209HFI     C1 2987   0.367   0.436   3.519  0.3271  0.1030  0.3536
  209HFI     C2 2988   0.292   0.334   3.606 -0.4920  0.4026  0.2492
  209HFI     F1 2989   0.330   0.324   3.738 -1.0380 -0.0787  0.0957
  209HFI     F2 2990   0.321   0.210   3.563 -0.0355 -0.7578 -0.2331
  209HFI     F3 2991   0.155   0.347   3.601  0.3757 -0.0326  0.1336
  209HFI     C3 2992   0.307   0.449   3.377  0.0284 -0.3813  0.0229
  209HFI     F4 2993   0.393   0.520   3.305 -0.4241  0.3919 -0.5434
  209HFI     F5 2994   0.185   0.504   3.370  0.2637 -0.1659  0.3195
  209HFI     F6 2995   0.298   0.324   3.325 -0.0282 -0.2457  0.1609
  209HFI     H1 2996   0.525   0.321   3.487 -0.1894 -0.5321  2.2781
  209HFI     H2 2997   0.352   0.527   3.579 -1.0527 -0.8551  1.5202
  210HFI     O1 2998   3.216   1.401   2.475  0.4080 -0.0804  0.0393
  210HFI     C1 2999   3.313   1.309   2.417  0.7420  0.4475  0.1268
  210HFI     C2 3000   3.349   1.344   2.272 -0.4060  0.1089  0.3546
  210HFI     F1 3001   3.236   1.354   2.202 -0.2791  0.4014 -0.0862
  210HFI     F2 3002   3.426   1.250   2.212  0.3622 -0.4592  0.0096
  210HFI     F3 3003   3.421   1.457   2.253 -0.0990 -0.2727 -0.2073
  210HFI     C3 3004   3.255   1.164   2.425  1.2566  0.4677 -0.0383
  210HFI     F4 3005   3.359   1.077   2.405 -0.4175 -0.2062 -0.0333
  210HFI     F5 3006   3.146   1.143   2.350  0.1074 -0.5189  0.5886
  210HFI     F6 3007   3.213   1.134   2.547 -0.2389 -0.0149  0.2764
  210HFI     H1 3008   3.156   1.346   2.528 -0.6630 -0.0857 -1.1730
  210HFI     H2 3009   3.406   1.305   2.475 -0.0268 -0.9135  1.3140
  211HFI     O1 3010   0.090   2.816   3.220 -0.0462  0.0191 -0.2399
  211HFI     C1 3011  -0.033   2.891   3.269  0.5735  0.3608  0.0598
  211HFI     C2 3012  -0.054   3.029   3.203 -0.6218 -0.0884  0.2686
  211HFI     F1 3013   0.045   3.121   3.232  0.3259  0.5975  0.3854
  211HFI     F2 3014  -0.183   3.088   3.238 -0.2012 -0.0612  0.2768
  211HFI     F3 3015  -0.060   3.007   3.068 -0.2480  0.2479  0.8370
  211HFI     C3 3016  -0.041   2.903   3.427  0.1803  0.8230  0.2517
  211HFI     F4 3017  -0.158   2.952   3.479  0.3099 -0.0624 -0.8736
  211HFI     F5 3018   0.057   2.979   3.479  0.0815 -0.0779 -0.2341
  211HFI     F6 3019  -0.018   2.782   3.476 -0.1685  0.5040  0.1568
  211HFI     H1 3020   0.157   2.882   3.198 -2.1993  2.1696 -0.5668
  211HFI     H2 3021  -0.126   2.834   3.252  1.5752 -1.4750  0.5892
  212HFI     O1 3022   1.474   2.029   0.193  0.0204 -0.0512  0.3090
  212HFI     C1 3023   1.484   1.963   0.323  0.2372 -0.2221  0.1922
  212HFI     C2 3024   1.417   2.064   0.428 -0.2330  0.4988  0.8098
  212HFI     F1 3025   1.487   2.181   0.439  0.1382  0.1874  0.4509
  212HFI     F2 3026   1.416   2.006   0.550 -0.0291 -0.3757  0.1879
  212HFI     F3 3027   1.298   2.092   0.389 -0.1575  0.0232 -0.2860
  212HFI     C3 3028   1.629   1.920   0.360 -0.5373  0.9401  0.6970
  212HFI     F4 3029   1.720   2.020   0.370 -0.2881 -0.0595 -0.0708
  212HFI     F5 3030   1.681   1.838   0.261 -0.3864  0.3505 -0.6510
  212HFI     F6 3031   1.631   1.846   0.472 -0.2355  0.2515 -0.9491
  212HFI     H1 3032   1.550   2.088   0.180 -0.8186  1.1051  0.5627
  212HFI     H2 3033   1.421   1.874   0.328  0.2742 -0.0986  3.6801
  213HFI     O1 3034   3.281   2.430   2.459  0.1338 -0.2717 -0.2168
  213HFI     C1 3035   3.404   2.434   2.376  0.3133 -0.1145 -0.7875
  213HFI     C2 3036   3.429   2.573   2.312  0.4413  0.4620  0.0897
  213HFI     F1 3037   3.540   2.567   2.229  0.0352  0.4497 -0.4016
  213HFI     F2 3038   3.452   2.671   2.406 -1.0341 -0.1606 -0.0999
  213HFI     F3 3039   3.319   2.605   2.239  0.3786  0.0698 -0.5263
  213HFI     C3 3040   3.402   2.315   2.276 -0.1574  0.0701  0.0845
  213HFI     F4 3041   3.287   2.314   2.214  0.9673  0.2012  0.0673
  213HFI     F5 3042   3.416   2.193   2.339  0.6843 -0.4231  0.0666
  213HFI     F6 3043   3.500   2.318   2.186 -0.3367  0.3860 -0.3184
  213HFI     H1 3044   3.204   2.427   2.399 -0.1304  1.8366 -0.0324
  213HFI     H2 3045   3.490   2.399   2.436 -0.0290  0.9989  0.3672
  214HFI     O1 3046   2.573   2.446   0.561  0.5505  0.2710 -0.0281
  214HFI     C1 3047   2.460   2.442   0.463  0.9160 -0.0392 -0.7240
  214HFI     C2 3048   2.326   2.389   0.533  0.0012 -0.0923 -0.1460
  214HFI     F1 3049   2.231   2.377   0.437 -0.1438  0.0915  0.1701
  214HFI     F2 3050   2.285   2.476   0.628 -0.5312 -0.0024 -0.0291
  214HFI     F3 3051   2.345   2.270   0.591  0.6533 -0.1327  0.1441
  214HFI     C3 3052   2.491   2.372   0.335 -0.2227 -0.4008  0.5963
  214HFI     F4 3053   2.497   2.241   0.339 -0.2805  0.0109  0.1847
  214HFI     F5 3054   2.613   2.408   0.288  0.4306  0.3143  0.0079
  214HFI     F6 3055   2.403   2.409   0.236 -0.6657  0.1112  0.2140
  214HFI     H1 3056   2.608   2.357   0.579  1.2867  0.6551  0.4441
  214HFI     H2 3057   2.434   2.542   0.426  0.3582  0.7039  1.5691
  215HFI     O1 3058   1.387   3.316   3.230 -0.0217  0.6812 -0.4066
  215HFI     C1 3059   1.303   3.194   3.232  0.0353 -0.2959  0.2705
  215HFI     C2 3060   1.381   3.073   3.185  0.2868 -1.0106 -0.0402
  215HFI     F1 3061   1.316   2.956   3.191  0.1582 -0.2013  0.1139
  215HFI     F2 3062   1.492   3.054   3.260  0.2658  0.3355 -0.2114
  215HFI     F3 3063   1.427   3.085   3.057 -0.2493 -0.8844 -0.6528
  215HFI     C3 3064   1.170   3.213   3.162  0.2608 -0.1429 -0.8506
  215HFI     F4 3065   1.095   3.310   3.225 -0.7516  0.5041  0.1178
  215HFI     F5 3066   1.092   3.101   3.172 -0.0410 -0.6191 -0.4543
  215HFI     F6 3067   1.178   3.246   3.029  0.5955 -0.3930 -0.3387
  215HFI     H1 3068   1.342   3.392   3.271 -1.6759 -0.6332  0.2936
  215HFI     H2 3069   1.275   3.187   3.337 -1.5604  1.1196 -0.0369
  216HFI     O1 3070   0.332   3.332   0.012 -0.2382  0.9388 -0.1303
  216HFI     C1 3071   0.199   3.362  -0.035  0.8023 -0.0718  0.4147
  216HFI     C2 3072   0.134   3.463   0.066 -0.3146  0.0630  0.1557
  216HFI     F1 3073   0.039   3.535   0.015 -0.0201 -0.2583  0.1212
  216HFI     F2 3074   0.229   3.551   0.089 -0.2143  0.1502 -0.4156
  216HFI     F3 3075   0.093   3.411   0.181 -0.0339 -0.1086  0.2928
  216HFI     C3 3076   0.126   3.239  -0.059  0.1436 -0.9112  0.1780
  216HFI     F4 3077   0.127   3.160   0.048  0.3025 -0.0665  0.1557
  216HFI     F5 3078   0.186   3.167  -0.154 -0.2171  0.0310  0.0605
  216HFI     F6 3079   0.002   3.266  -0.099  0.7168  0.1822 -0.1929
  216HFI     H1 3080   0.348   3.236   0.001 -0.1295  0.9807 -0.3358
  216HFI     H2 3081   0.208   3.413  -0.132 -1.1647  1.6542  1.1253
  217HFI     O1 3082   0.909   1.296   2.209  0.0232  0.5390 -0.4621
  217HFI     C1 3083   0.836   1.329   2.327 -0.0811 -0.3819 -0.2598
  217HFI     C2 3084   0.731   1.433   2.309 -0.5724 -0.3005  0.0745
  217HFI     F1 3085   0.781   1.544   2.253  0.3380 -0.0451 -0.0113
  217HFI     F2 3086   0.666   1.460   2.422  0.3638  0.4420 -0.1835
  217HFI     F3 3087   0.641   1.388   2.220  0.1725 -0.6263  0.1356
  217HFI     C3 3088   0.934   1.354   2.453 -0.0798  0.5838  0.8115
  217HFI     F4 3089   0.969   1.233   2.505  0.8992  0.0875  0.2059
  217HFI     F5 3090   0.876   1.423   2.552  0.0520  0.3049  0.0169
  217HFI     F6 3091   1.044   1.414   2.416  0.1124  0.2965 -0.4383
  217HFI     H1 3092   0.985   1.357   2.202 -0.7323  1.7087  1.2812
  217HFI     H2 3093   0.777   1.242   2.359 -0.2624 -0.5329 -0.9837
  218HFI     O1 3094   1.955   2.357   3.285  0.2528  0.1238 -0.1744
  218HFI     C1 3095   1.988   2.229   3.350 -0.4604  0.7707 -0.3807
  218HFI     C2 3096   2.121   2.248   3.426 -0.4390 -0.4189  0.4733
  218HFI     F1 3097   2.163   2.127   3.478 -0.3971 -0.2088  0.1076
  218HFI     F2 3098   2.095   2.333   3.534  0.0867 -0.0798 -0.1369
  218HFI     F3 3099   2.225   2.303   3.356 -0.5763  0.3973  0.0303
  218HFI     C3 3100   1.999   2.114   3.236 -0.2639  0.5797  0.0861
  218HFI     F4 3101   2.020   1.990   3.286 -0.2602  0.5045 -0.2196
  218HFI     F5 3102   2.099   2.139   3.146 -0.3311  0.4166  0.3399
  218HFI     F6 3103   1.881   2.105   3.163 -0.0222 -0.7356 -0.1024
  218HFI     H1 3104   1.963   2.354   3.188 -0.5962 -1.6672 -0.2089
  218HFI     H2 3105   1.907   2.202   3.418  0.1265  0.6015  0.2572
  219HFI     O1 3106   2.155   1.557   3.357  0.0902  0.3405 -0.7245
  219HFI     C1 3107   2.181   1.694   3.398 -0.2443 -0.1205 -0.2569
  219HFI     C2 3108   2.288   1.766   3.309 -0.7314  0.4841  0.2384
  219HFI     F1 3109   2.261   1.743   3.182 -0.3967 -0.0499 -0.5063
  219HFI     F2 3110   2.417   1.719   3.334 -0.2596  0.1533 -0.0502
  219HFI     F3 3111   2.283   1.897   3.325 -0.4436  0.1222 -0.0019
  219HFI     C3 3112   2.221   1.700   3.551 -0.6224  0.0122  0.2579
  219HFI     F4 3113   2.249   1.826   3.581 -0.1320  0.6075  0.4943
  219HFI     F5 3114   2.329   1.625   3.575  0.3758  0.8894  0.0874
  219HFI     F6 3115   2.113   1.667   3.626  0.9585 -0.2969  0.2387
  219HFI     H1 3116   2.218   1.500   3.405  0.7215  1.7532  0.1582
  219HFI     H2 3117   2.087   1.748   3.384  0.2320  1.0646  1.0566
  220HFI     O1 3118   0.334   1.914   2.969  0.3990  0.5767 -0.3361
  220HFI     C1 3119   0.316   1.980   2.841 -0.3254 -0.5335 -0.5383
  220HFI     C2 3120   0.372   2.120   2.840  0.6891 -0.0390  0.3584
  220HFI     F1 3121   0.495   2.118   2.888 -0.3104  0.6118  0.0688
  220HFI     F2 3122   0.296   2.202   2.915  0.5046  0.3435 -0.9961
  220HFI     F3 3123   0.378   2.177   2.723  0.2873  0.3543 -0.8674
  220HFI     C3 3124   0.164   1.956   2.799 -0.6156  0.2059 -0.2319
  220HFI     F4 3125   0.076   1.958   2.903 -0.0042  0.2846  0.1015
  220HFI     F5 3126   0.156   1.833   2.742 -0.3152  0.3291  0.2905
  220HFI     F6 3127   0.124   2.043   2.711  0.0274 -0.4195 -0.0473
  220HFI     H1 3128   0.342   1.984   3.036 -2.0979  0.2616  0.3695
  220HFI     H2 3129   0.376   1.926   2.767  1.2255 -0.6133  0.7618
  221HFI     O1 3130   2.944   3.287   2.728 -0.3118  0.0581 -0.2648
  221HFI     C1 3131   3.093   3.261   2.726  0.3999  1.0692 -0.2375
  221HFI     C2 3132   3.136   3.124   2.785  0.8109  0.0354 -0.6977
  221HFI     F1 3133   3.050   3.038   2.737  0.1113 -0.2531  0.1726
  221HFI     F2 3134   3.127   3.120   2.922 -1.0236 -0.1950 -0.4646
  221HFI     F3 3135   3.259   3.084   2.746  0.2928  0.0306  0.6171
  221HFI     C3 3136   3.169   3.379   2.802 -0.3397  0.2998  0.0855
  221HFI     F4 3137   3.178   3.492   2.733 -0.5273 -0.0614  0.4424
  221HFI     F5 3138   3.300   3.342   2.831 -0.7288 -0.1116  0.1683
  221HFI     F6 3139   3.113   3.406   2.919  0.5998  0.1949 -0.1187
  221HFI     H1 3140   2.914   3.250   2.813  4.6878  0.4449  1.8591
  221HFI     H2 3141   3.116   3.260   2.619 -2.0505  0.5661 -0.7904
  222HFI     O1 3142   0.940   2.986   2.454  0.3847  0.1909 -0.5338
  222HFI     C1 3143   0.825   2.898   2.450 -0.4891  0.0607  0.2400
  222HFI     C2 3144   0.740   2.936   2.324 -0.4788 -0.2328  0.1489
  222HFI     F1 3145   0.648   3.037   2.349 -0.3180  0.0626 -0.3520
  222HFI     F2 3146   0.684   2.824   2.278 -0.0613 -0.5360 -0.1563
  222HFI     F3 3147   0.821   2.970   2.218 -0.3920  0.0244 -0.1496
  222HFI     C3 3148   0.744   2.890   2.582 -0.5186  0.0019 -0.0918
  222HFI     F4 3149   0.621   2.840   2.559  0.5162  0.5242  0.1648
  222HFI     F5 3150   0.722   3.007   2.642 -0.2523 -0.1942  0.2966
  222HFI     F6 3151   0.803   2.807   2.671  0.8654 -0.2031 -0.0638
  222HFI     H1 3152   0.910   3.076   2.474  1.1218 -0.2716  2.9027
  222HFI     H2 3153   0.849   2.792   2.439  0.5431  0.2421  0.6996
  223HFI     O1 3154   0.105   0.456   0.700 -0.1467 -0.0278  0.1711
  223HFI     C1 3155   0.082   0.567   0.612 -0.0425 -0.1537 -0.0366
  223HFI     C2 3156   0.206   0.628   0.535 -0.0837  0.0808 -0.4878
  223HFI     F1 3157   0.241   0.759   0.567  0.0799  0.7548 -0.1086
  223HFI     F2 3158   0.176   0.626   0.405 -0.6068  0.2543 -0.0180
  223HFI     F3 3159   0.320   0.555   0.550 -0.4473  0.5482 -0.0153
  223HFI     C3 3160  -0.003   0.677   0.684  0.8954 -1.0337  0.0369
  223HFI     F4 3161  -0.109   0.624   0.741  0.3173 -0.4114 -0.1379
  223HFI     F5 3162  -0.050   0.773   0.595 -0.3851  0.0815 -0.3444
  223HFI     F6 3163   0.081   0.741   0.775 -0.0891  0.4215 -0.1732
  223HFI     H1 3164   0.176   0.403   0.660  1.8679  2.6407  0.0454
  223HFI     H2 3165   0.009   0.534   0.537 -0.8737  0.5407  0.4663
  224HFI     O1 3166   0.469   1.683   2.818  0.2393  0.2083 -0.0157
  224HFI     C1 3167   0.594   1.611   2.807 -0.0487  0.1000  0.4977
  224HFI     C2 3168   0.581   1.457   2.804 -0.3178  0.4593 -0.7630
  224HFI     F1 3169   0.527   1.417   2.923 -0.0173  0.4323 -0.1066
  224HFI     F2 3170   0.693   1.390   2.780  0.3147 -0.7303  0.0644
  224HFI     F3 3171   0.485   1.429   2.708 -0.2782  0.2185 -0.0365
  224HFI     C3 3172   0.697   1.660   2.913 -0.3081 -0.3552  0.5541
  224HFI     F4 3173   0.639   1.677   3.037 -0.3975  0.4467  0.0810
  224HFI     F5 3174   0.754   1.779   2.873 -0.6089  0.1397 -0.8644
  224HFI     F6 3175   0.805   1.580   2.925 -0.3084  0.1080  0.1971
  224HFI     H1 3176   0.436   1.663   2.907  1.2291 -3.7517 -0.4572
  224HFI     H2 3177   0.633   1.643   2.710  3.2895 -1.4161  1.2510
  225HFI     O1 3178   2.396   2.925   0.195 -0.0181 -0.3984  0.1107
  225HFI     C1 3179   2.538   2.925   0.223  0.2848  0.8685  0.2247
  225HFI     C2 3180   2.580   2.794   0.284  0.7241 -0.8331  0.0201
  225HFI     F1 3181   2.718   2.784   0.272  0.0886  1.0004 -0.2523
  225HFI     F2 3182   2.541   2.687   0.215  0.7763  0.3055  0.3227
  225HFI     F3 3183   2.552   2.780   0.419 -0.5489 -0.2837  0.2169
  225HFI     C3 3184   2.586   3.041   0.315 -0.2751  0.1400  0.0668
  225HFI     F4 3185   2.704   3.024   0.370  0.7837  0.7684  0.1502
  225HFI     F5 3186   2.500   3.056   0.423 -0.3637 -0.1962  0.2059
  225HFI     F6 3187   2.599   3.159   0.248  0.2579  0.5140  0.1457
  225HFI     H1 3188   2.363   3.016   0.203 -2.5304 -1.2064 -0.6840
  225HFI     H2 3189   2.595   2.928   0.130  0.5542  0.5481  0.3795
  226HFI     O1 3190   2.870   3.017   2.358  0.2636  0.3272 -0.4004
  226HFI     C1 3191   2.982   2.985   2.281  0.2189 -0.1935  0.1278
  226HFI     C2 3192   3.039   2.855   2.324 -0.8953  0.6977  0.0478
  226HFI     F1 3193   3.070   2.850   2.454 -0.4063  0.0374  0.6007
  226HFI     F2 3194   3.151   2.819   2.260  0.4181 -0.1903  0.0718
  226HFI     F3 3195   2.950   2.751   2.300 -0.0271 -0.3623 -0.2758
  226HFI     C3 3196   3.079   3.109   2.279  0.0388  0.5211 -0.4315
  226HFI     F4 3197   3.010   3.223   2.257  0.3816  0.3979 -0.1242
  226HFI     F5 3198   3.176   3.102   2.190  0.1298  0.0377  0.0518
  226HFI     F6 3199   3.135   3.129   2.401  0.4435  0.5253 -0.1603
  226HFI     H1 3200   2.831   2.940   2.401  1.2334  1.0502  1.8322
  226HFI     H2 3201   2.959   2.979   2.174  1.4898  1.9725 -0.2815
  227HFI     O1 3202   1.475   0.919   2.449 -0.2732 -0.1420  0.1118
  227HFI     C1 3203   1.351   0.988   2.412 -0.2451  0.0013  0.4738
  227HFI     C2 3204   1.238   0.949   2.512 -0.0507  0.9465  0.4499
  227HFI     F1 3205   1.116   0.998   2.473 -0.1307 -0.3177  0.0123
  227HFI     F2 3206   1.269   0.995   2.635  0.5806  0.3327  0.1919
  227HFI     F3 3207   1.219   0.812   2.519  0.1461  0.0736 -0.3894
  227HFI     C3 3208   1.319   0.955   2.266 -0.3987 -0.7947  0.2871
  227HFI     F4 3209   1.421   0.991   2.178  0.4502  0.7429 -0.1627
  227HFI     F5 3210   1.212   1.019   2.219 -0.3870 -0.0783  0.6256
  227HFI     F6 3211   1.295   0.825   2.249  0.0033  0.1452  0.2734
  227HFI     H1 3212   1.538   0.913   2.376  0.9306  1.5592  0.9655
  227HFI     H2 3213   1.371   1.095   2.425 -1.9955  0.3154  0.6487
  228HFI     O1 3214   0.167   1.017   3.588 -0.3792  0.1841 -0.3091
  228HFI     C1 3215   0.211   1.046   3.451 -0.1772  0.0726  0.7220
  228HFI     C2 3216   0.373   1.025   3.439  0.2767 -0.8343  0.4367
  228HFI     F1 3217   0.418   0.898   3.480  0.3204  0.4011  0.2019
  228HFI     F2 3218   0.436   1.120   3.511 -0.2376  0.5204  0.1102
  228HFI     F3 3219   0.420   1.049   3.319 -0.2208 -0.4064 -0.5671
  228HFI     C3 3220   0.161   1.178   3.395 -0.3734 -0.1521 -0.5957
  228HFI     F4 3221   0.151   1.177   3.264 -0.0891  0.2258 -0.1321
  228HFI     F5 3222   0.233   1.283   3.437 -0.1212  0.6172  0.1144
  228HFI     F6 3223   0.036   1.199   3.444 -0.3030 -0.2190 -0.4286
  228HFI     H1 3224   0.225   1.074   3.642  0.1810  2.0746 -2.8196
  228HFI     H2 3225   0.169   0.966   3.388  0.9459  1.9007 -2.4471
   3.40320   3.43847   3.80000
