HFIP comparator n0
 1500
    1HFI     O1    1   1.092   1.258   0.543
    1HFI     C1    2   1.045   1.353   0.643
    1HFI     C2    3   0.961   1.465   0.578
    1HFI     F1    4   0.847   1.413   0.533
    1HFI     F2    5   1.025   1.519   0.471
    1HFI     F3    6   0.931   1.563   0.664
    1HFI     C3    7   1.160   1.414   0.728
    1HFI     F4    8   1.220   1.515   0.663
    1HFI     F5    9   1.254   1.323   0.758
    1HFI     F6   10   1.113   1.462   0.845
    1HFI     H1   11   1.138   1.308   0.473
    1HFI     H2   12   0.979   1.302   0.714
    2HFI     O1   13   3.090   2.436   2.323
    2HFI     C1   14   3.235   2.431   2.315
    2HFI     C2   15   3.287   2.498   2.184
    2HFI     F1   16   3.244   2.626   2.178
    2HFI     F2   17   3.241   2.434   2.075
    2HFI     F3   18   3.422   2.501   2.178
    2HFI     C3   19   3.287   2.285   2.334
    2HFI     F4   20   3.242   2.203   2.236
    2HFI     F5   21   3.243   2.235   2.451
    2HFI     F6   22   3.422   2.279   2.336
    2HFI     H1   23   3.052   2.399   2.242
    2HFI     H2   24   3.278   2.489   2.397
    3HFI     O1   25   0.678   0.194   1.794
    3HFI     C1   26   0.571   0.273   1.856
    3HFI     C2   27   0.568   0.418   1.798
    3HFI     F1   28   0.557   0.414   1.663
    3HFI     F2   29   0.682   0.485   1.826
    3HFI     F3   30   0.464   0.489   1.845
    3HFI     C3   31   0.580   0.269   2.011
    3HFI     F4   32   0.695   0.325   2.056
    3HFI     F5   33   0.577   0.141   2.055
    3HFI     F6   34   0.476   0.333   2.069
    3HFI     H1   35   0.764   0.229   1.825
    3HFI     H2   36   0.474   0.229   1.830
    4HFI     O1   37   2.590   2.683   0.768
    4HFI     C1   38   2.556   2.720   0.905
    4HFI     C2   39   2.411   2.776   0.913
    4HFI     F1   40   2.322   2.684   0.870
    4HFI     F2   41   2.397   2.886   0.835
    4HFI     F3   42   2.376   2.809   1.039
    4HFI     C3   43   2.663   2.814   0.966
    4HFI     F4   44   2.658   2.938   0.914
    4HFI     F5   45   2.788   2.766   0.942
    4HFI     F6   46   2.650   2.824   1.100
    4HFI     H1   47   2.602   2.765   0.716
    4HFI     H2   48   2.556   2.629   0.967
    5HFI     O1   49   3.110   1.736   1.810
    5HFI     C1   50   3.128   1.617   1.726
    5HFI     C2   51   3.278   1.582   1.715
    5HFI     F1   52   3.329   1.556   1.837
    5HFI     F2   53   3.348   1.686   1.663
    5HFI     F3   54   3.301   1.473   1.638
    5HFI     C3   55   3.057   1.635   1.589
    5HFI     F4   56   3.099   1.748   1.527
    5HFI     F5   57   2.923   1.646   1.606
    5HFI     F6   58   3.078   1.531   1.506
    5HFI     H1   59   3.164   1.808   1.772
    5HFI     H2   60   3.080   1.531   1.774
    6HFI     O1   61   2.548   0.881   2.143
    6HFI     C1   62   2.617   0.857   2.268
    6HFI     C2   63   2.763   0.810   2.242
    6HFI     F1   64   2.834   0.905   2.177
    6HFI     F2   65   2.765   0.699   2.165
    6HFI     F3   66   2.830   0.784   2.356
    6HFI     C3   67   2.533   0.760   2.354
    6HFI     F4   68   2.508   0.647   2.284
    6HFI     F5   69   2.415   0.818   2.384
    6HFI     F6   70   2.593   0.726   2.470
    6HFI     H1   71   2.532   0.796   2.099
    6HFI     H2   72   2.624   0.951   2.325
    7HFI     O1   73   0.741   2.972   2.284
    7HFI     C1   74   0.883   2.980   2.253
    7HFI     C2   75   0.913   3.099   2.158
    7HFI     F1   76   0.885   3.216   2.220
    7HFI     F2   77   0.836   3.093   2.047
    7HFI     F3   78   1.042   3.104   2.118
    7HFI     C3   79   0.934   2.844   2.202
    7HFI     F4   80   0.884   2.817   2.079
    7HFI     F5   81   0.896   2.743   2.283
    7HFI     F6   82   1.068   2.839   2.195
    7HFI     H1   83   0.693   2.949   2.202
    7HFI     H2   84   0.939   2.999   2.345
    8HFI     O1   85   1.810   1.136   2.996
    8HFI     C1   86   1.782   1.276   2.964
    8HFI     C2   87   1.743   1.355   3.092
    8HFI     F1   88   1.841   1.347   3.184
    8HFI     F2   89   1.633   1.303   3.151
    8HFI     F3   90   1.720   1.486   3.068
    8HFI     C3   91   1.678   1.288   2.849
    8HFI     F4   92   1.559   1.234   2.884
    8HFI     F5   93   1.721   1.222   2.739
    8HFI     F6   94   1.657   1.416   2.812
    8HFI     H1   95   1.727   1.095   3.027
    8HFI     H2   96   1.874   1.324   2.926
    9HFI     O1   97   1.357   2.001   1.934
    9HFI     C1   98   1.474   2.053   1.864
    9HFI     C2   99   1.529   2.180   1.936
    9HFI     F1  100   1.572   2.149   2.060
    9HFI     F2  101   1.432   2.273   1.949
    9HFI     F3  102   1.632   2.238   1.871
    9HFI     C3  103   1.442   2.075   1.713
    9HFI     F4  104   1.345   2.167   1.697
    9HFI     F5  105   1.399   1.961   1.656
    9HFI     F6  106   1.552   2.115   1.645
    9HFI     H1  107   1.296   2.074   1.950
    9HFI     H2  108   1.553   1.976   1.866
   10HFI     O1  109   3.138   3.191   1.576
   10HFI     C1  110   3.051   3.187   1.459
   10HFI     C2  111   2.903   3.167   1.501
   10HFI     F1  112   2.863   3.268   1.582
   10HFI     F2  113   2.886   3.051   1.568
   10HFI     F3  114   2.821   3.167   1.394
   10HFI     C3  115   3.103   3.082   1.356
   10HFI     F4  116   3.123   2.963   1.415
   10HFI     F5  117   3.222   3.122   1.305
   10HFI     F6  118   3.019   3.065   1.252
   10HFI     H1  119   3.131   3.106   1.622
   10HFI     H2  120   3.055   3.284   1.408
   11HFI     O1  121   1.079   3.037   2.844
   11HFI     C1  122   1.137   3.092   2.723
   11HFI     C2  123   1.108   3.244   2.714
   11HFI     F1  124   1.147   3.305   2.828
   11HFI     F2  125   0.975   3.267   2.699
   11HFI     F3  126   1.173   3.303   2.613
   11HFI     C3  127   1.089   3.014   2.597
   11HFI     F4  128   0.956   2.994   2.600
   11HFI     F5  129   1.150   2.894   2.587
   11HFI     F6  130   1.118   3.079   2.483
   11HFI     H1  131   0.983   3.045   2.839
   11HFI     H2  132   1.246   3.081   2.726
   12HFI     O1  133   1.295   0.544   0.959
   12HFI     C1  134   1.414   0.555   1.041
   12HFI     C2  135   1.533   0.485   0.968
   12HFI     F1  136   1.570   0.558   0.860
   12HFI     F2  137   1.498   0.362   0.923
   12HFI     F3  138   1.643   0.471   1.046
   12HFI     C3  139   1.381   0.508   1.185
   12HFI     F4  140   1.311   0.393   1.183
   12HFI     F5  141   1.304   0.599   1.248
   12HFI     F6  142   1.490   0.492   1.261
   12HFI     H1  143   1.250   0.461   0.983
   12HFI     H2  144   1.443   0.660   1.049
   13HFI     O1  145   1.867   1.079   0.771
   13HFI     C1  146   1.858   1.212   0.713
   13HFI     C2  147   1.744   1.295   0.778
   13HFI     F1  148   1.739   1.273   0.911
   13HFI     F2  149   1.623   1.264   0.727
   13HFI     F3  150   1.763   1.428   0.759
   13HFI     C3  151   1.853   1.203   0.558
   13HFI     F4  152   1.772   1.102   0.519
   13HFI     F5  153   1.975   1.177   0.508
   13HFI     F6  154   1.808   1.316   0.500
   13HFI     H1  155   1.784   1.031   0.752
   13HFI     H2  156   1.951   1.267   0.736
   14HFI     O1  157   2.597   1.687   1.545
   14HFI     C1  158   2.562   1.547   1.562
   14HFI     C2  159   2.430   1.513   1.494
   14HFI     F1  160   2.417   1.580   1.377
   14HFI     F2  161   2.322   1.544   1.569
   14HFI     F3  162   2.428   1.381   1.468
   14HFI     C3  163   2.559   1.500   1.710
   14HFI     F4  164   2.502   1.593   1.790
   14HFI     F5  165   2.684   1.476   1.753
   14HFI     F6  166   2.488   1.387   1.727
   14HFI     H1  167   2.584   1.734   1.629
   14HFI     H2  168   2.638   1.486   1.512
   15HFI     O1  169   0.595   3.132   2.812
   15HFI     C1  170   0.466   3.063   2.798
   15HFI     C2  171   0.473   2.919   2.856
   15HFI     F1  172   0.508   2.924   2.987
   15HFI     F2  173   0.567   2.845   2.793
   15HFI     F3  174   0.355   2.855   2.849
   15HFI     C3  175   0.417   3.068   2.650
   15HFI     F4  176   0.505   3.006   2.568
   15HFI     F5  177   0.405   3.196   2.609
   15HFI     F6  178   0.296   3.009   2.635
   15HFI     H1  179   0.653   3.101   2.740
   15HFI     H2  180   0.390   3.116   2.857
   16HFI     O1  181   1.801   0.846   1.535
   16HFI     C1  182   1.693   0.758   1.577
   16HFI     C2  183   1.695   0.724   1.729
   16HFI     F1  184   1.707   0.835   1.804
   16HFI     F2  185   1.790   0.635   1.763
   16HFI     F3  186   1.581   0.667   1.765
   16HFI     C3  187   1.690   0.632   1.490
   16HFI     F4  188   1.803   0.560   1.505
   16HFI     F5  189   1.682   0.667   1.359
   16HFI     F6  190   1.584   0.554   1.519
   16HFI     H1  191   1.886   0.807   1.561
   16HFI     H2  192   1.597   0.807   1.561
   17HFI     O1  193   0.658   1.150   1.375
   17HFI     C1  194   0.736   1.105   1.489
   17HFI     C2  195   0.654   1.012   1.583
   17HFI     F1  196   0.578   0.925   1.512
   17HFI     F2  197   0.568   1.082   1.656
   17HFI     F3  198   0.733   0.942   1.667
   17HFI     C3  199   0.795   1.226   1.563
   17HFI     F4  200   0.697   1.314   1.593
   17HFI     F5  201   0.885   1.289   1.485
   17HFI     F6  202   0.859   1.189   1.677
   17HFI     H1  203   0.579   1.197   1.409
   17HFI     H2  204   0.822   1.047   1.454
   18HFI     O1  205   1.768   3.040   1.195
   18HFI     C1  206   1.794   3.162   1.120
   18HFI     C2  207   1.927   3.150   1.041
   18HFI     F1  208   1.917   3.051   0.949
   18HFI     F2  209   2.028   3.118   1.124
   18HFI     F3  210   1.961   3.263   0.975
   18HFI     C3  211   1.790   3.284   1.214
   18HFI     F4  212   1.886   3.277   1.310
   18HFI     F5  213   1.670   3.293   1.277
   18HFI     F6  214   1.807   3.396   1.144
   18HFI     H1  215   1.828   3.038   1.271
   18HFI     H2  216   1.714   3.179   1.046
   19HFI     O1  217   0.569   0.166   2.666
   19HFI     C1  218   0.673   0.264   2.692
   19HFI     C2  219   0.785   0.205   2.782
   19HFI     F1  220   0.839   0.096   2.725
   19HFI     F2  221   0.735   0.167   2.902
   19HFI     F3  222   0.885   0.293   2.804
   19HFI     C3  223   0.612   0.397   2.747
   19HFI     F4  224   0.548   0.376   2.864
   19HFI     F5  225   0.522   0.446   2.660
   19HFI     F6  226   0.705   0.492   2.766
   19HFI     H1  227   0.528   0.140   2.750
   19HFI     H2  228   0.722   0.291   2.597
   20HFI     O1  229   2.920   1.694   3.244
   20HFI     C1  230   2.898   1.628   3.116
   20HFI     C2  231   3.018   1.651   3.020
   20HFI     F1  232   3.131   1.602   3.076
   20HFI     F2  233   3.038   1.782   2.996
   20HFI     F3  234   3.002   1.587   2.902
   20HFI     C3  235   2.760   1.667   3.056
   20HFI     F4  236   2.751   1.800   3.034
   20HFI     F5  237   2.662   1.632   3.141
   20HFI     F6  238   2.734   1.605   2.939
   20HFI     H1  239   2.917   1.790   3.231
   20HFI     H2  240   2.893   1.520   3.131
   21HFI     O1  241   2.912   1.831   2.084
   21HFI     C1  242   2.832   1.851   1.964
   21HFI     C2  243   2.716   1.951   1.987
   21HFI     F1  244   2.764   2.076   2.007
   21HFI     F2  245   2.644   1.917   2.095
   21HFI     F3  246   2.630   1.959   1.884
   21HFI     C3  247   2.778   1.717   1.911
   21HFI     F4  248   2.677   1.671   1.987
   21HFI     F5  249   2.873   1.621   1.908
   21HFI     F6  250   2.734   1.735   1.785
   21HFI     H1  251   2.867   1.767   2.142
   21HFI     H2  252   2.895   1.893   1.884
   22HFI     O1  253   3.083   2.103   2.889
   22HFI     C1  254   2.944   2.116   2.845
   22HFI     C2  255   2.931   2.224   2.735
   22HFI     F1  256   3.011   2.192   2.630
   22HFI     F2  257   2.971   2.345   2.779
   22HFI     F3  258   2.804   2.235   2.690
   22HFI     C3  259   2.848   2.140   2.964
   22HFI     F4  260   2.865   2.263   3.018
   22HFI     F5  261   2.870   2.050   3.062
   22HFI     F6  262   2.718   2.128   2.927
   22HFI     H1  263   3.116   2.191   2.914
   22HFI     H2  264   2.912   2.021   2.799
   23HFI     O1  265   2.062   2.187   3.218
   23HFI     C1  266   1.975   2.133   3.322
   23HFI     C2  267   1.970   1.978   3.317
   23HFI     F1  268   2.095   1.929   3.325
   23HFI     F2  269   1.918   1.934   3.200
   23HFI     F3  270   1.899   1.925   3.419
   23HFI     C3  271   1.834   2.199   3.317
   23HFI     F4  272   1.773   2.174   3.199
   23HFI     F5  273   1.845   2.333   3.331
   23HFI     F6  274   1.754   2.155   3.417
   23HFI     H1  275   2.022   2.168   3.131
   23HFI     H2  276   2.016   2.159   3.420
   24HFI     O1  277   2.522   1.176   0.786
   24HFI     C1  278   2.619   1.104   0.866
   24HFI     C2  279   2.623   1.167   1.007
   24HFI     F1  280   2.502   1.156   1.065
   24HFI     F2  281   2.647   1.298   0.996
   24HFI     F3  282   2.711   1.114   1.093
   24HFI     C3  283   2.756   1.095   0.792
   24HFI     F4  284   2.805   1.218   0.763
   24HFI     F5  285   2.741   1.030   0.674
   24HFI     F6  286   2.848   1.028   0.861
   24HFI     H1  287   2.543   1.271   0.790
   24HFI     H2  288   2.587   1.000   0.880
   25HFI     O1  289   1.851   1.634   1.557
   25HFI     C1  290   1.780   1.506   1.567
   25HFI     C2  291   1.707   1.486   1.703
   25HFI     F1  292   1.636   1.596   1.736
   25HFI     F2  293   1.794   1.460   1.803
   25HFI     F3  294   1.618   1.384   1.696
   25HFI     C3  295   1.875   1.390   1.530
   25HFI     F4  296   1.999   1.413   1.580
   25HFI     F5  297   1.886   1.377   1.396
   25HFI     F6  298   1.832   1.273   1.578
   25HFI     H1  299   1.937   1.623   1.601
   25HFI     H2  300   1.700   1.506   1.493
   26HFI     O1  301   1.780   2.337   1.644
   26HFI     C1  302   1.856   2.248   1.558
   26HFI     C2  303   2.008   2.279   1.570
   26HFI     F1  304   2.052   2.248   1.694
   26HFI     F2  305   2.032   2.410   1.549
   26HFI     F3  306   2.083   2.209   1.482
   26HFI     C3  307   1.804   2.253   1.412
   26HFI     F4  308   1.813   2.377   1.361
   26HFI     F5  309   1.674   2.216   1.407
   26HFI     F6  310   1.871   2.169   1.331
   26HFI     H1  311   1.823   2.424   1.643
   26HFI     H2  312   1.843   2.145   1.592
   27HFI     O1  313   0.741   1.929   2.088
   27HFI     C1  314   0.655   1.976   2.195
   27HFI     C2  315   0.711   1.938   2.334
   27HFI     F1  316   0.838   1.981   2.345
   27HFI     F2  317   0.713   1.804   2.354
   27HFI     F3  318   0.640   1.995   2.434
   27HFI     C3  319   0.507   1.932   2.174
   27HFI     F4  320   0.488   1.802   2.202
   27HFI     F5  321   0.471   1.954   2.046
   27HFI     F6  322   0.425   2.005   2.253
   27HFI     H1  323   0.762   1.835   2.102
   27HFI     H2  324   0.654   2.085   2.192
   28HFI     O1  325   1.199   1.072   3.347
   28HFI     C1  326   1.311   1.122   3.267
   28HFI     C2  327   1.275   1.259   3.203
   28HFI     F1  328   1.261   1.352   3.299
   28HFI     F2  329   1.157   1.251   3.137
   28HFI     F3  330   1.368   1.303   3.116
   28HFI     C3  331   1.356   1.015   3.163
   28HFI     F4  332   1.260   0.998   3.070
   28HFI     F5  333   1.376   0.895   3.222
   28HFI     F6  334   1.471   1.049   3.101
   28HFI     H1  335   1.117   1.085   3.297
   28HFI     H2  336   1.398   1.139   3.332
   29HFI     O1  337   2.047   1.941   1.872
   29HFI     C1  338   1.953   1.878   1.961
   29HFI     C2  339   1.897   1.749   1.897
   29HFI     F1  340   1.996   1.660   1.873
   29HFI     F2  341   1.840   1.780   1.779
   29HFI     F3  342   1.805   1.688   1.973
   29HFI     C3  343   1.843   1.979   1.996
   29HFI     F4  344   1.785   2.021   1.882
   29HFI     F5  345   1.896   2.086   2.058
   29HFI     F6  346   1.748   1.927   2.076
   29HFI     H1  347   2.003   1.950   1.785
   29HFI     H2  348   2.006   1.851   2.053
   30HFI     O1  349   3.191   0.735   2.161
   30HFI     C1  350   3.310   0.787   2.097
   30HFI     C2  351   3.320   0.940   2.116
   30HFI     F1  352   3.323   0.971   2.247
   30HFI     F2  353   3.213   1.003   2.062
   30HFI     F3  354   3.432   0.992   2.061
   30HFI     C3  355   3.319   0.740   1.949
   30HFI     F4  356   3.211   0.782   1.878
   30HFI     F5  357   3.320   0.605   1.943
   30HFI     F6  358   3.430   0.784   1.887
   30HFI     H1  359   3.112   0.771   2.115
   30HFI     H2  360   3.399   0.744   2.147
   31HFI     O1  361   1.241   0.420   0.627
   31HFI     C1  362   1.101   0.391   0.655
   31HFI     C2  363   1.018   0.517   0.696
   31HFI     F1  364   1.038   0.617   0.608
   31HFI     F2  365   1.052   0.564   0.818
   31HFI     F3  366   0.886   0.492   0.698
   31HFI     C3  367   1.090   0.273   0.755
   31HFI     F4  368   1.134   0.308   0.878
   31HFI     F5  369   1.165   0.168   0.714
   31HFI     F6  370   0.963   0.228   0.765
   31HFI     H1  371   1.275   0.480   0.696
   31HFI     H2  372   1.054   0.355   0.563
   32HFI     O1  373   2.183   1.744   3.075
   32HFI     C1  374   2.219   1.620   3.144
   32HFI     C2  375   2.092   1.537   3.175
   32HFI     F1  376   2.030   1.504   3.060
   32HFI     F2  377   2.004   1.609   3.250
   32HFI     F3  378   2.120   1.422   3.240
   32HFI     C3  379   2.312   1.644   3.265
   32HFI     F4  380   2.248   1.705   3.366
   32HFI     F5  381   2.415   1.723   3.228
   32HFI     F6  382   2.364   1.528   3.311
   32HFI     H1  383   2.141   1.804   3.139
   32HFI     H2  384   2.279   1.556   3.078
   33HFI     O1  385   1.521   1.689   1.242
   33HFI     C1  386   1.572   1.580   1.159
   33HFI     C2  387   1.521   1.443   1.209
   33HFI     F1  388   1.386   1.441   1.214
   33HFI     F2  389   1.566   1.417   1.333
   33HFI     F3  390   1.558   1.341   1.128
   33HFI     C3  391   1.727   1.589   1.148
   33HFI     F4  392   1.782   1.613   1.269
   33HFI     F5  393   1.761   1.692   1.067
   33HFI     F6  394   1.782   1.477   1.098
   33HFI     H1  395   1.569   1.690   1.326
   33HFI     H2  396   1.534   1.591   1.057
   34HFI     O1  397   1.176   2.874   1.076
   34HFI     C1  398   1.204   2.983   0.982
   34HFI     C2  399   1.350   3.034   0.998
   34HFI     F1  400   1.433   2.937   0.959
   34HFI     F2  401   1.378   3.064   1.126
   34HFI     F3  402   1.378   3.142   0.922
   34HFI     C3  403   1.099   3.096   0.992
   34HFI     F4  404   1.101   3.154   1.115
   34HFI     F5  405   0.975   3.046   0.973
   34HFI     F6  406   1.118   3.192   0.900
   34HFI     H1  407   1.197   2.904   1.166
   34HFI     H2  408   1.198   2.945   0.880
   35HFI     O1  409   2.510   0.777   0.868
   35HFI     C1  410   2.549   0.705   0.987
   35HFI     C2  411   2.441   0.610   1.034
   35HFI     F1  412   2.395   0.541   0.927
   35HFI     F2  413   2.340   0.679   1.088
   35HFI     F3  414   2.487   0.522   1.126
   35HFI     C3  415   2.597   0.799   1.095
   35HFI     F4  416   2.505   0.891   1.123
   35HFI     F5  417   2.704   0.863   1.051
   35HFI     F6  418   2.631   0.735   1.207
   35HFI     H1  419   2.423   0.817   0.883
   35HFI     H2  420   2.636   0.642   0.966
   36HFI     O1  421   0.308   1.741   1.289
   36HFI     C1  422   0.281   1.659   1.408
   36HFI     C2  423   0.214   1.524   1.370
   36HFI     F1  424   0.296   1.452   1.292
   36HFI     F2  425   0.098   1.544   1.303
   36HFI     F3  426   0.188   1.449   1.479
   36HFI     C3  427   0.201   1.739   1.514
   36HFI     F4  428   0.078   1.772   1.468
   36HFI     F5  429   0.264   1.854   1.543
   36HFI     F6  430   0.187   1.671   1.630
   36HFI     H1  431   0.225   1.786   1.265
   36HFI     H2  432   0.377   1.632   1.455
   37HFI     O1  433   3.362   1.869   0.785
   37HFI     C1  434   3.241   1.793   0.809
   37HFI     C2  435   3.157   1.857   0.922
   37HFI     F1  436   3.149   1.991   0.904
   37HFI     F2  437   3.209   1.834   1.045
   37HFI     F3  438   3.031   1.811   0.920
   37HFI     C3  439   3.270   1.643   0.834
   37HFI     F4  440   3.358   1.626   0.936
   37HFI     F5  441   3.322   1.584   0.724
   37HFI     F6  442   3.159   1.577   0.866
   37HFI     H1  443   3.427   1.845   0.854
   37HFI     H2  444   3.178   1.795   0.719
   38HFI     O1  445   1.356   2.254   2.970
   38HFI     C1  446   1.448   2.225   3.080
   38HFI     C2  447   1.413   2.089   3.148
   38HFI     F1  448   1.417   1.989   3.058
   38HFI     F2  449   1.289   2.092   3.201
   38HFI     F3  450   1.500   2.058   3.247
   38HFI     C3  451   1.453   2.345   3.179
   38HFI     F4  452   1.330   2.370   3.230
   38HFI     F5  453   1.493   2.457   3.115
   38HFI     F6  454   1.537   2.325   3.282
   38HFI     H1  455   1.266   2.252   3.006
   38HFI     H2  456   1.550   2.214   3.041
   39HFI     O1  457   1.139   1.709   0.966
   39HFI     C1  458   1.084   1.789   1.075
   39HFI     C2  459   1.187   1.804   1.190
   39HFI     F1  460   1.301   1.858   1.141
   39HFI     F2  461   1.217   1.685   1.245
   39HFI     F3  462   1.143   1.887   1.287
   39HFI     C3  463   0.946   1.735   1.122
   39HFI     F4  464   0.956   1.609   1.171
   39HFI     F5  465   0.859   1.731   1.018
   39HFI     F6  466   0.892   1.814   1.217
   39HFI     H1  467   1.139   1.616   0.991
   39HFI     H2  468   1.066   1.891   1.040
   40HFI     O1  469   1.074   2.540   1.804
   40HFI     C1  470   1.040   2.671   1.857
   40HFI     C2  471   0.950   2.751   1.757
   40HFI     F1  472   0.833   2.687   1.736
   40HFI     F2  473   1.011   2.766   1.637
   40HFI     F3  474   0.918   2.875   1.801
   40HFI     C3  475   1.167   2.748   1.903
   40HFI     F4  476   1.259   2.749   1.806
   40HFI     F5  477   1.223   2.686   2.010
   40HFI     F6  478   1.144   2.876   1.936
   40HFI     H1  479   1.122   2.551   1.721
   40HFI     H2  480   0.979   2.655   1.947
   41HFI     O1  481   1.713   2.859   2.256
   41HFI     C1  482   1.632   2.750   2.311
   41HFI     C2  483   1.697   2.689   2.437
   41HFI     F1  484   1.739   2.787   2.520
   41HFI     F2  485   1.804   2.613   2.407
   41HFI     F3  486   1.607   2.614   2.504
   41HFI     C3  487   1.596   2.644   2.205
   41HFI     F4  488   1.707   2.586   2.154
   41HFI     F5  489   1.531   2.702   2.102
   41HFI     F6  490   1.516   2.546   2.254
   41HFI     H1  491   1.801   2.824   2.231
   41HFI     H2  492   1.536   2.791   2.345
   42HFI     O1  493   0.792   1.040   0.964
   42HFI     C1  494   0.682   0.943   0.958
   42HFI     C2  495   0.550   1.003   1.013
   42HFI     F1  496   0.511   1.103   0.933
   42HFI     F2  497   0.568   1.055   1.136
   42HFI     F3  498   0.448   0.915   1.019
   42HFI     C3  499   0.722   0.811   1.027
   42HFI     F4  500   0.759   0.833   1.154
   42HFI     F5  501   0.827   0.754   0.964
   42HFI     F6  502   0.622   0.721   1.025
   42HFI     H1  503   0.817   1.053   1.057
   42HFI     H2  504   0.662   0.918   0.853
   43HFI     O1  505   0.760   1.785   0.659
   43HFI     C1  506   0.827   1.910   0.628
   43HFI     C2  507   0.974   1.911   0.680
   43HFI     F1  508   1.046   1.812   0.623
   43HFI     F2  509   0.976   1.893   0.813
   43HFI     F3  510   1.037   2.027   0.653
   43HFI     C3  511   0.742   2.028   0.681
   43HFI     F4  512   0.722   2.017   0.814
   43HFI     F5  513   0.621   2.027   0.621
   43HFI     F6  514   0.798   2.148   0.656
   43HFI     H1  515   0.752   1.778   0.756
   43HFI     H2  516   0.835   1.922   0.519
   44HFI     O1  517   2.119   1.527   1.294
   44HFI     C1  518   2.129   1.429   1.186
   44HFI     C2  519   2.249   1.335   1.204
   44HFI     F1  520   2.243   1.282   1.327
   44HFI     F2  521   2.368   1.397   1.191
   44HFI     F3  522   2.246   1.234   1.115
   44HFI     C3  523   2.131   1.496   1.046
   44HFI     F4  524   2.242   1.570   1.028
   44HFI     F5  525   2.026   1.580   1.032
   44HFI     F6  526   2.123   1.405   0.947
   44HFI     H1  527   2.191   1.591   1.288
   44HFI     H2  528   2.041   1.364   1.188
   45HFI     O1  529   0.804   1.438   0.879
   45HFI     C1  530   0.677   1.371   0.907
   45HFI     C2  531   0.578   1.391   0.790
   45HFI     F1  532   0.631   1.348   0.675
   45HFI     F2  533   0.554   1.522   0.776
   45HFI     F3  534   0.462   1.327   0.806
   45HFI     C3  535   0.620   1.417   1.044
   45HFI     F4  536   0.595   1.550   1.045
   45HFI     F5  537   0.709   1.391   1.142
   45HFI     F6  538   0.505   1.353   1.076
   45HFI     H1  539   0.783   1.529   0.852
   45HFI     H2  540   0.695   1.263   0.914
   46HFI     O1  541   0.594   2.738   1.131
   46HFI     C1  542   0.449   2.723   1.117
   46HFI     C2  543   0.373   2.829   1.201
   46HFI     F1  544   0.410   2.954   1.164
   46HFI     F2  545   0.400   2.816   1.333
   46HFI     F3  546   0.239   2.821   1.185
   46HFI     C3  547   0.406   2.577   1.148
   46HFI     F4  548   0.436   2.542   1.275
   46HFI     F5  549   0.470   2.490   1.066
   46HFI     F6  550   0.273   2.558   1.129
   46HFI     H1  551   0.619   2.719   1.223
   46HFI     H2  552   0.421   2.741   1.013
   47HFI     O1  553   2.935   0.949   1.626
   47HFI     C1  554   2.827   1.047   1.630
   47HFI     C2  555   2.695   0.989   1.571
   47HFI     F1  556   2.655   0.883   1.644
   47HFI     F2  557   2.713   0.950   1.444
   47HFI     F3  558   2.595   1.079   1.569
   47HFI     C3  559   2.866   1.183   1.567
   47HFI     F4  560   2.884   1.175   1.434
   47HFI     F5  561   2.981   1.229   1.621
   47HFI     F6  562   2.772   1.278   1.587
   47HFI     H1  563   2.958   0.932   1.533
   47HFI     H2  564   2.806   1.066   1.736
   48HFI     O1  565   1.822   2.812   1.994
   48HFI     C1  566   1.850   2.759   1.861
   48HFI     C2  567   1.722   2.757   1.775
   48HFI     F1  568   1.683   2.883   1.747
   48HFI     F2  569   1.622   2.698   1.843
   48HFI     F3  570   1.738   2.693   1.657
   48HFI     C3  571   1.917   2.620   1.868
   48HFI     F4  572   1.832   2.524   1.912
   48HFI     F5  573   2.024   2.622   1.951
   48HFI     F6  574   1.962   2.581   1.747
   48HFI     H1  575   1.727   2.801   2.011
   48HFI     H2  576   1.922   2.824   1.809
   49HFI     O1  577   2.731   2.395   1.997
   49HFI     C1  578   2.675   2.527   2.019
   49HFI     C2  579   2.718   2.584   2.157
   49HFI     F1  580   2.852   2.574   2.171
   49HFI     F2  581   2.661   2.516   2.258
   49HFI     F3  582   2.686   2.714   2.170
   49HFI     C3  583   2.521   2.528   1.997
   49HFI     F4  584   2.459   2.438   2.076
   49HFI     F5  585   2.492   2.496   1.869
   49HFI     F6  586   2.466   2.649   2.020
   49HFI     H1  587   2.685   2.331   2.055
   49HFI     H2  588   2.717   2.596   1.944
   50HFI     O1  589   0.889   1.761   1.923
   50HFI     C1  590   0.806   1.645   1.893
   50HFI     C2  591   0.876   1.551   1.793
   50HFI     F1  592   1.006   1.532   1.828
   50HFI     F2  593   0.874   1.599   1.667
   50HFI     F3  594   0.817   1.431   1.796
   50HFI     C3  595   0.661   1.686   1.852
   50HFI     F4  596   0.661   1.808   1.795
   50HFI     F5  597   0.585   1.694   1.962
   50HFI     F6  598   0.601   1.601   1.767
   50HFI     H1  599   0.889   1.820   1.845
   50HFI     H2  600   0.795   1.585   1.984
   51HFI     O1  601   1.137   0.773   2.417
   51HFI     C1  602   1.281   0.760   2.402
   51HFI     C2  603   1.331   0.632   2.476
   51HFI     F1  604   1.278   0.522   2.419
   51HFI     F2  605   1.294   0.633   2.606
   51HFI     F3  606   1.465   0.618   2.471
   51HFI     C3  607   1.353   0.890   2.445
   51HFI     F4  608   1.327   0.920   2.574
   51HFI     F5  609   1.309   0.994   2.370
   51HFI     F6  610   1.487   0.883   2.430
   51HFI     H1  611   1.117   0.792   2.510
   51HFI     H2  612   1.304   0.746   2.296
   52HFI     O1  613   2.422   1.964   2.254
   52HFI     C1  614   2.342   1.858   2.313
   52HFI     C2  615   2.237   1.920   2.409
   52HFI     F1  616   2.145   1.989   2.339
   52HFI     F2  617   2.296   2.006   2.496
   52HFI     F3  618   2.171   1.828   2.482
   52HFI     C3  619   2.431   1.750   2.379
   52HFI     F4  620   2.492   1.798   2.490
   52HFI     F5  621   2.526   1.708   2.293
   52HFI     F6  622   2.358   1.642   2.415
   52HFI     H1  623   2.456   2.020   2.327
   52HFI     H2  624   2.288   1.805   2.234
   53HFI     O1  625   2.956   0.259   0.963
   53HFI     C1  626   2.860   0.368   0.973
   53HFI     C2  627   2.720   0.313   0.938
   53HFI     F1  628   2.673   0.237   1.039
   53HFI     F2  629   2.722   0.238   0.826
   53HFI     F3  630   2.630   0.410   0.917
   53HFI     C3  631   2.910   0.487   0.886
   53HFI     F4  632   2.946   0.443   0.765
   53HFI     F5  633   3.017   0.543   0.944
   53HFI     F6  634   2.821   0.585   0.868
   53HFI     H1  635   2.981   0.248   0.870
   53HFI     H2  636   2.856   0.405   1.076
   54HFI     O1  637   0.785   0.361   0.932
   54HFI     C1  638   0.755   0.298   1.059
   54HFI     C2  639   0.635   0.370   1.126
   54HFI     F1  640   0.530   0.375   1.041
   54HFI     F2  641   0.667   0.497   1.156
   54HFI     F3  642   0.593   0.307   1.238
   54HFI     C3  643   0.884   0.288   1.146
   54HFI     F4  644   0.943   0.409   1.158
   54HFI     F5  645   0.973   0.206   1.087
   54HFI     F6  646   0.860   0.238   1.269
   54HFI     H1  647   0.813   0.453   0.948
   54HFI     H2  648   0.723   0.194   1.042
   55HFI     O1  649   0.979   3.105   1.372
   55HFI     C1  650   1.051   3.080   1.496
   55HFI     C2  651   1.066   3.210   1.581
   55HFI     F1  652   0.945   3.261   1.609
   55HFI     F2  653   1.135   3.304   1.513
   55HFI     F3  654   1.129   3.187   1.699
   55HFI     C3  655   1.185   3.010   1.467
   55HFI     F4  656   1.269   3.088   1.397
   55HFI     F5  657   1.163   2.900   1.391
   55HFI     F6  658   1.247   2.971   1.581
   55HFI     H1  659   1.034   3.160   1.313
   55HFI     H2  660   0.993   3.011   1.558
   56HFI     O1  661   3.221   0.373   0.848
   56HFI     C1  662   3.251   0.473   0.746
   56HFI     C2  663   3.319   0.406   0.624
   56HFI     F1  664   3.242   0.306   0.577
   56HFI     F2  665   3.439   0.353   0.658
   56HFI     F3  666   3.339   0.493   0.522
   56HFI     C3  667   3.330   0.594   0.804
   56HFI     F4  668   3.449   0.555   0.855
   56HFI     F5  669   3.262   0.653   0.905
   56HFI     F6  670   3.353   0.689   0.711
   56HFI     H1  671   3.303   0.345   0.890
   56HFI     H2  672   3.159   0.516   0.706
   57HFI     O1  673   0.833   2.310   2.646
   57HFI     C1  674   0.844   2.281   2.504
   57HFI     C2  675   0.988   2.232   2.471
   57HFI     F1  676   1.014   2.116   2.534
   57HFI     F2  677   1.080   2.322   2.513
   57HFI     F3  678   1.008   2.212   2.338
   57HFI     C3  679   0.799   2.403   2.419
   57HFI     F4  680   0.878   2.510   2.444
   57HFI     F5  681   0.672   2.437   2.449
   57HFI     F6  682   0.803   2.378   2.286
   57HFI     H1  683   0.905   2.371   2.669
   57HFI     H2  684   0.776   2.199   2.477
   58HFI     O1  685   3.015   0.944   1.356
   58HFI     C1  686   2.940   0.866   1.258
   58HFI     C2  687   2.919   0.723   1.311
   58HFI     F1  688   2.831   0.717   1.413
   58HFI     F2  689   3.035   0.677   1.361
   58HFI     F3  690   2.877   0.638   1.215
   58HFI     C3  691   3.009   0.872   1.118
   58HFI     F4  692   3.135   0.826   1.123
   58HFI     F5  693   3.015   1.000   1.077
   58HFI     F6  694   2.947   0.802   1.022
   58HFI     H1  695   3.109   0.941   1.332
   58HFI     H2  696   2.840   0.910   1.246
   59HFI     O1  697   1.788   3.179   2.209
   59HFI     C1  698   1.853   3.184   2.339
   59HFI     C2  699   1.824   3.319   2.408
   59HFI     F1  700   1.691   3.338   2.417
   59HFI     F2  701   1.875   3.423   2.337
   59HFI     F3  702   1.874   3.325   2.534
   59HFI     C3  703   2.004   3.150   2.328
   59HFI     F4  704   2.067   3.236   2.246
   59HFI     F5  705   2.020   3.025   2.277
   59HFI     F6  706   2.066   3.152   2.448
   59HFI     H1  707   1.834   3.238   2.148
   59HFI     H2  708   1.810   3.106   2.404
   60HFI     O1  709   2.700   0.475   0.622
   60HFI     C1  710   2.726   0.442   0.482
   60HFI     C2  711   2.592   0.415   0.409
   60HFI     F1  712   2.508   0.519   0.426
   60HFI     F2  713   2.530   0.306   0.460
   60HFI     F3  714   2.608   0.397   0.276
   60HFI     C3  715   2.828   0.325   0.469
   60HFI     F4  716   2.792   0.220   0.545
   60HFI     F5  717   2.951   0.365   0.508
   60HFI     F6  718   2.841   0.282   0.341
   60HFI     H1  719   2.653   0.400   0.663
   60HFI     H2  720   2.772   0.529   0.433
   61HFI     O1  721   2.763   2.558   1.488
   61HFI     C1  722   2.843   2.586   1.369
   61HFI     C2  723   2.879   2.736   1.364
   61HFI     F1  724   2.945   2.768   1.477
   61HFI     F2  725   2.769   2.814   1.358
   61HFI     F3  726   2.960   2.767   1.260
   61HFI     C3  727   2.775   2.535   1.239
   61HFI     F4  728   2.650   2.586   1.229
   61HFI     F5  729   2.765   2.401   1.239
   61HFI     F6  730   2.844   2.568   1.128
   61HFI     H1  731   2.677   2.602   1.477
   61HFI     H2  732   2.938   2.531   1.374
   62HFI     O1  733   1.376   3.311   1.882
   62HFI     C1  734   1.495   3.310   1.798
   62HFI     C2  735   1.458   3.331   1.649
   62HFI     F1  736   1.372   3.434   1.635
   62HFI     F2  737   1.399   3.221   1.599
   62HFI     F3  738   1.567   3.359   1.573
   62HFI     C3  739   1.577   3.180   1.819
   62HFI     F4  740   1.495   3.073   1.826
   62HFI     F5  741   1.647   3.186   1.935
   62HFI     F6  742   1.666   3.160   1.720
   62HFI     H1  743   1.317   3.239   1.852
   62HFI     H2  744   1.561   3.393   1.826
   63HFI     O1  745   2.897   3.206   0.545
   63HFI     C1  746   2.946   3.069   0.555
   63HFI     C2  747   2.829   2.967   0.559
   63HFI     F1  748   2.756   2.976   0.446
   63HFI     F2  749   2.745   2.992   0.662
   63HFI     F3  750   2.870   2.839   0.569
   63HFI     C3  751   3.045   3.054   0.675
   63HFI     F4  752   2.984   3.083   0.792
   63HFI     F5  753   3.148   3.140   0.660
   63HFI     F6  754   3.097   2.930   0.683
   63HFI     H1  755   2.847   3.227   0.625
   63HFI     H2  756   3.004   3.044   0.465
   64HFI     O1  757   0.304   1.149   2.049
   64HFI     C1  758   0.377   1.271   2.016
   64HFI     C2  759   0.281   1.389   1.986
   64HFI     F1  760   0.205   1.416   2.094
   64HFI     F2  761   0.196   1.360   1.884
   64HFI     F3  762   0.348   1.502   1.954
   64HFI     C3  763   0.476   1.246   1.901
   64HFI     F4  764   0.409   1.230   1.785
   64HFI     F5  765   0.549   1.134   1.925
   64HFI     F6  766   0.563   1.348   1.887
   64HFI     H1  767   0.260   1.117   1.968
   64HFI     H2  768   0.438   1.301   2.102
   65HFI     O1  769   2.947   1.453   1.245
   65HFI     C1  770   2.980   1.479   1.105
   65HFI     C2  771   2.867   1.563   1.039
   65HFI     F1  772   2.870   1.688   1.088
   65HFI     F2  773   2.746   1.515   1.071
   65HFI     F3  774   2.876   1.569   0.905
   65HFI     C3  775   3.017   1.344   1.035
   65HFI     F4  776   2.918   1.256   1.052
   65HFI     F5  777   3.128   1.291   1.092
   65HFI     F6  778   3.039   1.352   0.903
   65HFI     H1  779   2.868   1.396   1.246
   65HFI     H2  780   3.071   1.541   1.101
   66HFI     O1  781   0.515   1.859   0.245
   66HFI     C1  782   0.580   1.786   0.354
   66HFI     C2  783   0.695   1.696   0.302
   66HFI     F1  784   0.782   1.769   0.229
   66HFI     F2  785   0.648   1.597   0.223
   66HFI     F3  786   0.765   1.641   0.402
   66HFI     C3  787   0.475   1.711   0.438
   66HFI     F4  788   0.401   1.627   0.363
   66HFI     F5  789   0.391   1.799   0.495
   66HFI     F6  790   0.533   1.639   0.536
   66HFI     H1  791   0.458   1.796   0.198
   66HFI     H2  792   0.627   1.858   0.423
   67HFI     O1  793   1.050   0.711   1.799
   67HFI     C1  794   1.195   0.703   1.794
   67HFI     C2  795   1.254   0.833   1.731
   67HFI     F1  796   1.222   0.939   1.807
   67HFI     F2  797   1.206   0.856   1.608
   67HFI     F3  798   1.388   0.830   1.722
   67HFI     C3  799   1.245   0.568   1.731
   67HFI     F4  800   1.253   0.575   1.596
   67HFI     F5  801   1.163   0.466   1.763
   67HFI     F6  802   1.365   0.534   1.776
   67HFI     H1  803   1.016   0.712   1.708
   67HFI     H2  804   1.233   0.701   1.897
   68HFI     O1  805   2.576   0.933   2.982
   68HFI     C1  806   2.552   0.905   2.841
   68HFI     C2  807   2.677   0.948   2.760
   68HFI     F1  808   2.780   0.865   2.787
   68HFI     F2  809   2.715   1.072   2.797
   68HFI     F3  810   2.657   0.946   2.627
   68HFI     C3  811   2.420   0.971   2.792
   68HFI     F4  812   2.423   1.105   2.809
   68HFI     F5  813   2.316   0.925   2.865
   68HFI     F6  814   2.392   0.945   2.663
   68HFI     H1  815   2.575   1.029   2.994
   68HFI     H2  816   2.541   0.797   2.824
   69HFI     O1  817   0.835   2.199   1.379
   69HFI     C1  818   0.927   2.285   1.452
   69HFI     C2  819   0.994   2.206   1.568
   69HFI     F1  820   1.080   2.115   1.516
   69HFI     F2  821   0.903   2.140   1.642
   69HFI     F3  822   1.065   2.285   1.651
   69HFI     C3  823   0.856   2.415   1.497
   69HFI     F4  824   0.763   2.391   1.592
   69HFI     F5  825   0.794   2.475   1.393
   69HFI     F6  826   0.944   2.505   1.545
   69HFI     H1  827   0.753   2.194   1.430
   69HFI     H2  828   1.008   2.317   1.386
   70HFI     O1  829   1.382   0.561   2.132
   70HFI     C1  830   1.509   0.592   2.067
   70HFI     C2  831   1.597   0.464   2.049
   70HFI     F1  832   1.537   0.378   1.963
   70HFI     F2  833   1.611   0.400   2.167
   70HFI     F3  834   1.720   0.491   2.001
   70HFI     C3  835   1.584   0.708   2.136
   70HFI     F4  836   1.630   0.672   2.258
   70HFI     F5  837   1.501   0.814   2.152
   70HFI     F6  838   1.689   0.751   2.064
   70HFI     H1  839   1.398   0.493   2.200
   70HFI     H2  840   1.487   0.629   1.966
   71HFI     O1  841   0.971   1.043   1.196
   71HFI     C1  842   1.072   0.987   1.107
   71HFI     C2  843   1.149   0.873   1.176
   71HFI     F1  844   1.064   0.773   1.208
   71HFI     F2  845   1.206   0.917   1.291
   71HFI     F3  846   1.243   0.821   1.096
   71HFI     C3  847   1.162   1.099   1.049
   71HFI     F4  848   1.232   1.162   1.146
   71HFI     F5  849   1.086   1.192   0.987
   71HFI     F6  850   1.248   1.052   0.957
   71HFI     H1  851   1.018   1.081   1.272
   71HFI     H2  852   1.025   0.940   1.020
   72HFI     O1  853   1.766   2.645   1.273
   72HFI     C1  854   1.759   2.668   1.130
   72HFI     C2  855   1.633   2.748   1.086
   72HFI     F1  856   1.593   2.834   1.182
   72HFI     F2  857   1.527   2.669   1.059
   72HFI     F3  858   1.663   2.819   0.975
   72HFI     C3  859   1.776   2.539   1.046
   72HFI     F4  860   1.687   2.444   1.082
   72HFI     F5  861   1.900   2.488   1.061
   72HFI     F6  862   1.758   2.565   0.915
   72HFI     H1  863   1.693   2.586   1.300
   72HFI     H2  864   1.844   2.732   1.101
   73HFI     O1  865   3.257   2.623   1.583
   73HFI     C1  866   3.150   2.548   1.648
   73HFI     C2  867   3.087   2.628   1.766
   73HFI     F1  868   3.054   2.753   1.727
   73HFI     F2  869   3.173   2.641   1.869
   73HFI     F3  870   2.974   2.569   1.811
   73HFI     C3  871   3.197   2.406   1.689
   73HFI     F4  872   3.299   2.411   1.777
   73HFI     F5  873   3.241   2.338   1.581
   73HFI     F6  874   3.097   2.333   1.743
   73HFI     H1  875   3.329   2.636   1.646
   73HFI     H2  876   3.069   2.532   1.576
   74HFI     O1  877   0.076   1.657   0.764
   74HFI     C1  878   0.165   1.682   0.876
   74HFI     C2  879   0.290   1.759   0.827
   74HFI     F1  880   0.253   1.875   0.769
   74HFI     F2  881   0.354   1.686   0.735
   74HFI     F3  882   0.377   1.789   0.926
   74HFI     C3  883   0.198   1.550   0.950
   74HFI     F4  884   0.236   1.454   0.863
   74HFI     F5  885   0.088   1.504   1.014
   74HFI     F6  886   0.295   1.566   1.042
   74HFI     H1  887   0.118   1.593   0.705
   74HFI     H2  888   0.116   1.747   0.949
   75HFI     O1  889   2.667   1.149   2.167
   75HFI     C1  890   2.711   1.153   2.027
   75HFI     C2  891   2.794   1.282   2.003
   75HFI     F1  892   2.895   1.291   2.093
   75HFI     F2  893   2.717   1.391   2.018
   75HFI     F3  894   2.851   1.284   1.880
   75HFI     C3  895   2.590   1.144   1.930
   75HFI     F4  896   2.492   1.224   1.973
   75HFI     F5  897   2.541   1.019   1.918
   75HFI     F6  898   2.622   1.182   1.807
   75HFI     H1  899   2.585   1.200   2.176
   75HFI     H2  900   2.776   1.068   2.004
   76HFI     O1  901   0.657   1.333   2.545
   76HFI     C1  902   0.621   1.400   2.670
   76HFI     C2  903   0.742   1.481   2.727
   76HFI     F1  904   0.784   1.572   2.636
   76HFI     F2  905   0.846   1.400   2.755
   76HFI     F3  906   0.709   1.549   2.839
   76HFI     C3  907   0.560   1.300   2.771
   76HFI     F4  908   0.647   1.202   2.803
   76HFI     F5  909   0.450   1.241   2.718
   76HFI     F6  910   0.521   1.360   2.886
   76HFI     H1  911   0.731   1.272   2.563
   76HFI     H2  912   0.543   1.474   2.650
   77HFI     O1  913   0.952   0.958   3.017
   77HFI     C1  914   0.964   0.900   2.883
   77HFI     C2  915   1.040   0.764   2.888
   77HFI     F1  916   0.974   0.676   2.966
   77HFI     F2  917   1.164   0.778   2.939
   77HFI     F3  918   1.051   0.708   2.766
   77HFI     C3  919   1.024   1.003   2.783
   77HFI     F4  920   1.144   1.049   2.824
   77HFI     F5  921   0.941   1.109   2.771
   77HFI     F6  922   1.039   0.951   2.659
   77HFI     H1  923   1.042   0.984   3.045
   77HFI     H2  924   0.864   0.876   2.845
   78HFI     O1  925   0.469   2.199   1.865
   78HFI     C1  926   0.327   2.217   1.838
   78HFI     C2  927   0.244   2.225   1.969
   78HFI     F1  928   0.297   2.316   2.053
   78HFI     F2  929   0.241   2.106   2.034
   78HFI     F3  930   0.116   2.262   1.946
   78HFI     C3  931   0.276   2.109   1.739
   78HFI     F4  932   0.303   1.985   1.786
   78HFI     F5  933   0.338   2.123   1.621
   78HFI     F6  934   0.143   2.118   1.716
   78HFI     H1  935   0.484   2.105   1.885
   78HFI     H2  936   0.311   2.313   1.788
   79HFI     O1  937   2.457   2.716   3.280
   79HFI     C1  938   2.341   2.766   3.205
   79HFI     C2  939   2.341   2.921   3.199
   79HFI     F1  940   2.456   2.966   3.142
   79HFI     F2  941   2.334   2.975   3.323
   79HFI     F3  942   2.239   2.970   3.126
   79HFI     C3  943   2.209   2.707   3.261
   79HFI     F4  944   2.189   2.743   3.390
   79HFI     F5  945   2.212   2.572   3.257
   79HFI     F6  946   2.101   2.746   3.190
   79HFI     H1  947   2.449   2.747   3.372
   79HFI     H2  948   2.348   2.732   3.101
   80HFI     O1  949   2.925   1.113   3.043
   80HFI     C1  950   2.971   1.143   3.178
   80HFI     C2  951   3.042   1.021   3.243
   80HFI     F1  952   3.145   0.981   3.166
   80HFI     F2  953   2.957   0.916   3.254
   80HFI     F3  954   3.091   1.049   3.366
   80HFI     C3  955   2.856   1.201   3.265
   80HFI     F4  956   2.756   1.111   3.282
   80HFI     F5  957   2.802   1.309   3.204
   80HFI     F6  958   2.899   1.241   3.386
   80HFI     H1  959   2.877   1.027   3.045
   80HFI     H2  960   3.047   1.222   3.173
   81HFI     O1  961   3.311   0.462   2.500
   81HFI     C1  962   3.182   0.396   2.482
   81HFI     C2  963   3.191   0.285   2.374
   81HFI     F1  964   3.276   0.187   2.414
   81HFI     F2  965   3.239   0.334   2.257
   81HFI     F3  966   3.071   0.227   2.350
   81HFI     C3  967   3.068   0.499   2.455
   81HFI     F4  968   3.079   0.553   2.333
   81HFI     F5  969   3.073   0.600   2.545
   81HFI     F6  970   2.946   0.442   2.465
   81HFI     H1  971   3.336   0.504   2.416
   81HFI     H2  972   3.154   0.345   2.576
   82HFI     O1  973   2.975   2.029   2.308
   82HFI     C1  974   2.834   2.060   2.325
   82HFI     C2  975   2.805   2.211   2.318
   82HFI     F1  976   2.865   2.265   2.210
   82HFI     F2  977   2.853   2.277   2.425
   82HFI     F3  978   2.673   2.236   2.307
   82HFI     C3  979   2.769   1.982   2.441
   82HFI     F4  980   2.843   1.987   2.554
   82HFI     F5  981   2.757   1.852   2.407
   82HFI     F6  982   2.645   2.027   2.470
   82HFI     H1  983   3.024   2.054   2.389
   82HFI     H2  984   2.781   2.021   2.237
   83HFI     O1  985   1.427   2.911   2.937
   83HFI     C1  986   1.485   2.778   2.921
   83HFI     C2  987   1.633   2.791   2.876
   83HFI     F1  988   1.705   2.856   2.969
   83HFI     F2  989   1.641   2.862   2.761
   83HFI     F3  990   1.692   2.671   2.856
   83HFI     C3  991   1.397   2.691   2.827
   83HFI     F4  992   1.377   2.752   2.708
   83HFI     F5  993   1.278   2.669   2.885
   83HFI     F6  994   1.450   2.569   2.804
   83HFI     H1  995   1.450   2.964   2.858
   83HFI     H2  996   1.487   2.727   3.018
   84HFI     O1  997   2.262   0.207   1.346
   84HFI     C1  998   2.275   0.332   1.272
   84HFI     C2  999   2.224   0.452   1.357
   84HFI     F1 1000   2.307   0.471   1.461
   84HFI     F2 1001   2.101   0.432   1.407
   84HFI     F3 1002   2.218   0.567   1.287
   84HFI     C3 1003   2.216   0.319   1.129
   84HFI     F4 1004   2.092   0.269   1.130
   84HFI     F5 1005   2.293   0.236   1.054
   84HFI     F6 1006   2.207   0.434   1.064
   84HFI     H1 1007   2.169   0.198   1.374
   84HFI     H2 1008   2.382   0.351   1.258
   85HFI     O1 1009   2.225   2.439   2.669
   85HFI     C1 1010   2.251   2.338   2.772
   85HFI     C2 1011   2.120   2.265   2.811
   85HFI     F1 1012   2.065   2.209   2.701
   85HFI     F2 1013   2.032   2.353   2.864
   85HFI     F3 1014   2.139   2.166   2.901
   85HFI     C3 1015   2.324   2.400   2.894
   85HFI     F4 1016   2.253   2.501   2.948
   85HFI     F5 1017   2.444   2.450   2.856
   85HFI     F6 1018   2.348   2.308   2.991
   85HFI     H1 1019   2.156   2.499   2.702
   85HFI     H2 1020   2.317   2.261   2.731
   86HFI     O1 1021   1.467   0.512   3.115
   86HFI     C1 1022   1.417   0.398   3.191
   86HFI     C2 1023   1.462   0.406   3.340
   86HFI     F1 1024   1.418   0.522   3.395
   86HFI     F2 1025   1.597   0.404   3.351
   86HFI     F3 1026   1.412   0.305   3.414
   86HFI     C3 1027   1.456   0.263   3.122
   86HFI     F4 1028   1.590   0.249   3.113
   86HFI     F5 1029   1.406   0.259   2.997
   86HFI     F6 1030   1.407   0.156   3.188
   86HFI     H1 1031   1.564   0.509   3.113
   86HFI     H2 1032   1.308   0.400   3.192
   87HFI     O1 1033   1.704   0.325   1.373
   87HFI     C1 1034   1.749   0.241   1.263
   87HFI     C2 1035   1.632   0.160   1.200
   87HFI     F1 1036   1.529   0.239   1.170
   87HFI     F2 1037   1.585   0.066   1.284
   87HFI     F3 1038   1.669   0.101   1.085
   87HFI     C3 1039   1.867   0.150   1.306
   87HFI     F4 1040   1.828   0.053   1.392
   87HFI     F5 1041   1.962   0.220   1.370
   87HFI     F6 1042   1.926   0.092   1.201
   87HFI     H1 1043   1.667   0.268   1.444
   87HFI     H2 1044   1.787   0.306   1.183
   88HFI     O1 1045   1.970   0.185   3.061
   88HFI     C1 1046   2.039   0.312   3.036
   88HFI     C2 1047   1.936   0.428   3.030
   88HFI     F1 1048   1.881   0.449   3.152
   88HFI     F2 1049   1.835   0.400   2.945
   88HFI     F3 1050   1.990   0.545   2.990
   88HFI     C3 1051   2.130   0.302   2.911
   88HFI     F4 1052   2.058   0.290   2.798
   88HFI     F5 1053   2.211   0.195   2.920
   88HFI     F6 1054   2.210   0.411   2.898
   88HFI     H1 1055   1.903   0.173   2.992
   88HFI     H2 1056   2.105   0.333   3.120
   89HFI     O1 1057   2.090   0.664   0.955
   89HFI     C1 1058   2.023   0.785   1.000
   89HFI     C2 1059   1.879   0.787   0.947
   89HFI     F1 1060   1.810   0.685   1.002
   89HFI     F2 1061   1.874   0.769   0.813
   89HFI     F3 1062   1.816   0.901   0.976
   89HFI     C3 1063   2.102   0.912   0.957
   89HFI     F4 1064   2.102   0.924   0.824
   89HFI     F5 1065   2.230   0.906   0.998
   89HFI     F6 1066   2.049   1.025   1.008
   89HFI     H1 1067   2.066   0.647   0.862
   89HFI     H2 1068   2.017   0.786   1.109
   90HFI     O1 1069   3.468   0.639   1.239
   90HFI     C1 1070   3.396   0.619   1.364
   90HFI     C2 1071   3.289   0.509   1.345
   90HFI     F1 1072   3.348   0.389   1.325
   90HFI     F2 1073   3.213   0.535   1.236
   90HFI     F3 1074   3.208   0.494   1.453
   90HFI     C3 1075   3.348   0.755   1.424
   90HFI     F4 1076   3.279   0.828   1.334
   90HFI     F5 1077   3.454   0.829   1.461
   90HFI     F6 1078   3.269   0.740   1.532
   90HFI     H1 1079   3.403   0.654   1.168
   90HFI     H2 1080   3.465   0.579   1.439
   91HFI     O1 1081   1.385   1.429   0.431
   91HFI     C1 1082   1.426   1.570   0.420
   91HFI     C2 1083   1.482   1.599   0.278
   91HFI     F1 1084   1.388   1.574   0.184
   91HFI     F2 1085   1.589   1.520   0.250
   91HFI     F3 1086   1.521   1.728   0.263
   91HFI     C3 1087   1.525   1.611   0.533
   91HFI     F4 1088   1.641   1.544   0.522
   91HFI     F5 1089   1.476   1.584   0.655
   91HFI     F6 1090   1.552   1.743   0.530
   91HFI     H1 1091   1.465   1.375   0.431
   91HFI     H2 1092   1.338   1.634   0.431
   92HFI     O1 1093   1.585   2.550   1.452
   92HFI     C1 1094   1.440   2.563   1.453
   92HFI     C2 1095   1.398   2.696   1.518
   92HFI     F1 1096   1.437   2.800   1.442
   92HFI     F2 1097   1.457   2.710   1.637
   92HFI     F3 1098   1.265   2.702   1.535
   92HFI     C3 1099   1.374   2.441   1.521
   92HFI     F4 1100   1.408   2.433   1.652
   92HFI     F5 1101   1.412   2.327   1.460
   92HFI     F6 1102   1.239   2.445   1.512
   92HFI     H1 1103   1.617   2.578   1.540
   92HFI     H2 1104   1.402   2.567   1.350
   93HFI     O1 1105   1.478   2.347   2.619
   93HFI     C1 1106   1.607   2.279   2.624
   93HFI     C2 1107   1.591   2.127   2.655
   93HFI     F1 1108   1.500   2.071   2.573
   93HFI     F2 1109   1.551   2.108   2.782
   93HFI     F3 1110   1.707   2.060   2.637
   93HFI     C3 1111   1.704   2.348   2.724
   93HFI     F4 1112   1.645   2.372   2.843
   93HFI     F5 1113   1.749   2.466   2.675
   93HFI     F6 1114   1.811   2.273   2.747
   93HFI     H1 1115   1.446   2.359   2.710
   93HFI     H2 1116   1.654   2.285   2.525
   94HFI     O1 1117   2.377   0.802   3.306
   94HFI     C1 1118   2.368   0.746   3.172
   94HFI     C2 1119   2.222   0.743   3.120
   94HFI     F1 1120   2.170   0.868   3.120
   94HFI     F2 1121   2.144   0.666   3.199
   94HFI     F3 1122   2.215   0.696   2.994
   94HFI     C3 1123   2.441   0.609   3.161
   94HFI     F4 1124   2.380   0.515   3.236
   94HFI     F5 1125   2.568   0.620   3.205
   94HFI     F6 1126   2.447   0.564   3.034
   94HFI     H1 1127   2.319   0.751   3.365
   94HFI     H2 1128   2.420   0.812   3.102
   95HFI     O1 1129   2.224   1.039   1.840
   95HFI     C1 1130   2.088   0.989   1.838
   95HFI     C2 1131   2.095   0.852   1.770
   95HFI     F1 1132   2.176   0.767   1.836
   95HFI     F2 1133   2.142   0.866   1.647
   95HFI     F3 1134   1.978   0.794   1.757
   95HFI     C3 1135   1.989   1.091   1.769
   95HFI     F4 1136   2.050   1.150   1.667
   95HFI     F5 1137   1.949   1.191   1.848
   95HFI     F6 1138   1.876   1.034   1.724
   95HFI     H1 1139   2.245   1.074   1.752
   95HFI     H2 1140   2.051   0.972   1.940
   96HFI     O1 1141   2.402   1.054   1.322
   96HFI     C1 1142   2.313   0.940   1.337
   96HFI     C2 1143   2.167   0.985   1.363
   96HFI     F1 1144   2.116   1.053   1.260
   96HFI     F2 1145   2.168   1.067   1.468
   96HFI     F3 1146   2.082   0.883   1.386
   96HFI     C3 1147   2.367   0.846   1.447
   96HFI     F4 1148   2.385   0.912   1.563
   96HFI     F5 1149   2.486   0.794   1.412
   96HFI     F6 1150   2.287   0.741   1.471
   96HFI     H1 1151   2.392   1.113   1.399
   96HFI     H2 1152   2.308   0.882   1.244
   97HFI     O1 1153   2.738   1.474   0.643
   97HFI     C1 1154   2.783   1.566   0.539
   97HFI     C2 1155   2.711   1.536   0.404
   97HFI     F1 1156   2.578   1.531   0.422
   97HFI     F2 1157   2.749   1.416   0.354
   97HFI     F3 1158   2.736   1.630   0.311
   97HFI     C3 1159   2.938   1.568   0.526
   97HFI     F4 1160   2.986   1.443   0.510
   97HFI     F5 1161   2.993   1.619   0.638
   97HFI     F6 1162   2.981   1.643   0.423
   97HFI     H1 1163   2.779   1.387   0.626
   97HFI     H2 1164   2.754   1.668   0.567
   98HFI     O1 1165   2.377   1.330   2.194
   98HFI     C1 1166   2.243   1.272   2.203
   98HFI     C2 1167   2.249   1.123   2.248
   98HFI     F1 1168   2.318   1.110   2.364
   98HFI     F2 1169   2.311   1.046   2.155
   98HFI     F3 1170   2.127   1.070   2.270
   98HFI     C3 1171   2.165   1.289   2.070
   98HFI     F4 1172   2.241   1.256   1.966
   98HFI     F5 1173   2.129   1.415   2.040
   98HFI     F6 1174   2.055   1.213   2.069
   98HFI     H1 1175   2.402   1.328   2.100
   98HFI     H2 1176   2.186   1.323   2.282
   99HFI     O1 1177   0.653   1.028   0.310
   99HFI     C1 1178   0.544   1.100   0.376
   99HFI     C2 1179   0.553   1.252   0.347
   99HFI     F1 1180   0.529   1.276   0.216
   99HFI     F2 1181   0.677   1.297   0.373
   99HFI     F3 1182   0.465   1.326   0.418
   99HFI     C3 1183   0.537   1.062   0.527
   99HFI     F4 1184   0.654   1.087   0.590
   99HFI     F5 1185   0.514   0.929   0.540
   99HFI     F6 1186   0.438   1.125   0.592
   99HFI     H1 1187   0.737   1.064   0.345
   99HFI     H2 1188   0.448   1.068   0.333
  100HFI     O1 1189   1.943   1.387   2.263
  100HFI     C1 1190   1.932   1.526   2.221
  100HFI     C2 1191   2.052   1.608   2.275
  100HFI     F1 1192   2.172   1.565   2.233
  100HFI     F2 1193   2.054   1.600   2.408
  100HFI     F3 1194   2.046   1.738   2.241
  100HFI     C3 1195   1.796   1.584   2.268
  100HFI     F4 1196   1.775   1.554   2.398
  100HFI     F5 1197   1.696   1.530   2.197
  100HFI     F6 1198   1.788   1.718   2.255
  100HFI     H1 1199   1.903   1.378   2.351
  100HFI     H2 1200   1.934   1.532   2.112
  101HFI     O1 1201   3.337   1.553   2.322
  101HFI     C1 1202   3.246   1.667   2.316
  101HFI     C2 1203   3.309   1.794   2.380
  101HFI     F1 1204   3.421   1.828   2.312
  101HFI     F2 1205   3.344   1.772   2.509
  101HFI     F3 1206   3.227   1.900   2.377
  101HFI     C3 1207   3.110   1.630   2.380
  101HFI     F4 1208   3.126   1.600   2.511
  101HFI     F5 1209   3.056   1.522   2.320
  101HFI     F6 1210   3.020   1.730   2.370
  101HFI     H1 1211   3.347   1.526   2.415
  101HFI     H2 1212   3.224   1.691   2.212
  102HFI     O1 1213   1.971   0.700   2.083
  102HFI     C1 1214   2.064   0.730   2.191
  102HFI     C2 1215   2.155   0.609   2.220
  102HFI     F1 1216   2.239   0.589   2.116
  102HFI     F2 1217   2.082   0.497   2.238
  102HFI     F3 1218   2.231   0.625   2.330
  102HFI     C3 1219   1.991   0.783   2.318
  102HFI     F4 1220   1.919   0.685   2.377
  102HFI     F5 1221   1.905   0.882   2.285
  102HFI     F6 1222   2.078   0.832   2.409
  102HFI     H1 1223   1.920   0.621   2.108
  102HFI     H2 1224   2.131   0.811   2.158
  103HFI     O1 1225   2.410   0.779   0.433
  103HFI     C1 1226   2.307   0.878   0.462
  103HFI     C2 1227   2.336   0.947   0.597
  103HFI     F1 1228   2.463   0.991   0.597
  103HFI     F2 1229   2.323   0.861   0.699
  103HFI     F3 1230   2.255   1.053   0.619
  103HFI     C3 1231   2.165   0.815   0.454
  103HFI     F4 1232   2.149   0.716   0.545
  103HFI     F5 1233   2.145   0.761   0.332
  103HFI     F6 1234   2.068   0.906   0.474
  103HFI     H1 1235   2.413   0.713   0.505
  103HFI     H2 1236   2.311   0.957   0.387
  104HFI     O1 1237   2.595   1.516   2.500
  104HFI     C1 1238   2.698   1.415   2.503
  104HFI     C2 1239   2.644   1.283   2.559
  104HFI     F1 1240   2.541   1.238   2.485
  104HFI     F2 1241   2.599   1.297   2.686
  104HFI     F3 1242   2.740   1.189   2.556
  104HFI     C3 1243   2.824   1.465   2.579
  104HFI     F4 1244   2.805   1.468   2.712
  104HFI     F5 1245   2.852   1.590   2.540
  104HFI     F6 1246   2.931   1.387   2.553
  104HFI     H1 1247   2.587   1.557   2.587
  104HFI     H2 1248   2.731   1.393   2.401
  105HFI     O1 1249   2.994   0.089   1.474
  105HFI     C1 1250   3.036   0.207   1.400
  105HFI     C2 1251   2.923   0.313   1.401
  105HFI     F1 1252   2.902   0.360   1.526
  105HFI     F2 1253   2.806   0.262   1.356
  105HFI     F3 1254   2.954   0.417   1.324
  105HFI     C3 1255   3.083   0.167   1.258
  105HFI     F4 1256   2.985   0.102   1.192
  105HFI     F5 1257   3.189   0.084   1.265
  105HFI     F6 1258   3.122   0.273   1.184
  105HFI     H1 1259   2.907   0.061   1.440
  105HFI     H2 1260   3.122   0.253   1.449
  106HFI     O1 1261   0.664   0.902   2.205
  106HFI     C1 1262   0.657   0.762   2.246
  106HFI     C2 1263   0.787   0.686   2.209
  106HFI     F1 1264   0.893   0.748   2.264
  106HFI     F2 1265   0.807   0.682   2.075
  106HFI     F3 1266   0.787   0.559   2.256
  106HFI     C3 1267   0.528   0.694   2.192
  106HFI     F4 1268   0.527   0.691   2.057
  106HFI     F5 1269   0.419   0.761   2.233
  106HFI     F6 1270   0.516   0.567   2.238
  106HFI     H1 1271   0.674   0.906   2.108
  106HFI     H2 1272   0.650   0.758   2.355
  107HFI     O1 1273   2.314   1.427   2.865
  107HFI     C1 1274   2.242   1.543   2.811
  107HFI     C2 1275   2.149   1.503   2.695
  107HFI     F1 1276   2.071   1.398   2.730
  107HFI     F2 1277   2.219   1.465   2.586
  107HFI     F3 1278   2.067   1.605   2.664
  107HFI     C3 1279   2.340   1.660   2.781
  107HFI     F4 1280   2.435   1.621   2.694
  107HFI     F5 1281   2.405   1.698   2.893
  107HFI     F6 1282   2.277   1.769   2.732
  107HFI     H1 1283   2.369   1.389   2.795
  107HFI     H2 1284   2.172   1.583   2.885
  108HFI     O1 1285   2.759   2.277   1.497
  108HFI     C1 1286   2.665   2.177   1.546
  108HFI     C2 1287   2.582   2.233   1.664
  108HFI     F1 1288   2.506   2.337   1.623
  108HFI     F2 1289   2.665   2.280   1.759
  108HFI     F3 1290   2.500   2.142   1.720
  108HFI     C3 1291   2.742   2.047   1.578
  108HFI     F4 1292   2.835   2.066   1.675
  108HFI     F5 1293   2.806   2.001   1.469
  108HFI     F6 1294   2.659   1.949   1.619
  108HFI     H1 1295   2.786   2.333   1.571
  108HFI     H2 1296   2.594   2.152   1.466
  109HFI     O1 1297   3.107   2.032   0.609
  109HFI     C1 1298   2.982   2.104   0.588
  109HFI     C2 1299   2.974   2.232   0.677
  109HFI     F1 1300   3.080   2.312   0.651
  109HFI     F2 1301   2.979   2.201   0.808
  109HFI     F3 1302   2.863   2.304   0.654
  109HFI     C3 1303   2.860   2.010   0.605
  109HFI     F4 1304   2.853   1.958   0.730
  109HFI     F5 1305   2.869   1.906   0.519
  109HFI     F6 1306   2.744   2.074   0.579
  109HFI     H1 1307   3.129   2.036   0.704
  109HFI     H2 1308   2.977   2.139   0.484
  110HFI     O1 1309   0.764   0.453   1.413
  110HFI     C1 1310   0.836   0.578   1.396
  110HFI     C2 1311   0.971   0.572   1.470
  110HFI     F1 1312   1.055   0.486   1.410
  110HFI     F2 1313   0.951   0.529   1.597
  110HFI     F3 1314   1.032   0.691   1.478
  110HFI     C3 1315   0.748   0.695   1.439
  110HFI     F4 1316   0.715   0.682   1.570
  110HFI     F5 1317   0.634   0.698   1.367
  110HFI     F6 1318   0.811   0.813   1.422
  110HFI     H1 1319   0.722   0.454   1.501
  110HFI     H2 1320   0.860   0.596   1.290
  111HFI     O1 1321   2.393   1.995   0.369
  111HFI     C1 1322   2.361   1.883   0.457
  111HFI     C2 1323   2.474   1.859   0.559
  111HFI     F1 1324   2.491   1.968   0.637
  111HFI     F2 1325   2.591   1.836   0.496
  111HFI     F3 1326   2.451   1.755   0.642
  111HFI     C3 1327   2.324   1.757   0.373
  111HFI     F4 1328   2.423   1.727   0.286
  111HFI     F5 1329   2.212   1.780   0.301
  111HFI     F6 1330   2.300   1.649   0.450
  111HFI     H1 1331   2.469   1.971   0.314
  111HFI     H2 1332   2.271   1.907   0.515
  112HFI     O1 1333   2.398   3.401   1.100
  112HFI     C1 1334   2.478   3.287   1.142
  112HFI     C2 1335   2.420   3.154   1.087
  112HFI     F1 1336   2.405   3.161   0.953
  112HFI     F2 1337   2.300   3.127   1.141
  112HFI     F3 1338   2.501   3.051   1.113
  112HFI     C3 1339   2.496   3.285   1.297
  112HFI     F4 1340   2.377   3.296   1.360
  112HFI     F5 1341   2.573   3.388   1.336
  112HFI     F6 1342   2.554   3.172   1.341
  112HFI     H1 1343   2.308   3.391   1.138
  112HFI     H2 1344   2.578   3.295   1.100
  113HFI     O1 1345   3.340   0.317   3.079
  113HFI     C1 1346   3.199   0.345   3.053
  113HFI     C2 1347   3.132   0.227   2.977
  113HFI     F1 1348   3.146   0.112   3.046
  113HFI     F2 1349   3.190   0.208   2.855
  113HFI     F3 1350   3.000   0.247   2.958
  113HFI     C3 1351   3.181   0.482   2.982
  113HFI     F4 1352   3.243   0.484   2.862
  113HFI     F5 1353   3.235   0.581   3.057
  113HFI     F6 1354   3.051   0.513   2.964
  113HFI     H1 1355   3.387   0.313   2.994
  113HFI     H2 1356   3.146   0.353   3.149
  114HFI     O1 1357   1.516   3.263   2.179
  114HFI     C1 1358   1.382   3.212   2.203
  114HFI     C2 1359   1.304   3.311   2.292
  114HFI     F1 1360   1.304   3.434   2.237
  114HFI     F2 1361   1.362   3.321   2.414
  114HFI     F3 1362   1.175   3.275   2.309
  114HFI     C3 1363   1.386   3.066   2.255
  114HFI     F4 1364   1.446   3.056   2.376
  114HFI     F5 1365   1.454   2.987   2.169
  114HFI     F6 1366   1.263   3.013   2.266
  114HFI     H1 1367   1.568   3.253   2.261
  114HFI     H2 1368   1.327   3.208   2.108
  115HFI     O1 1369   1.533   0.783   0.599
  115HFI     C1 1370   1.413   0.863   0.623
  115HFI     C2 1371   1.449   1.007   0.661
  115HFI     F1 1372   1.505   1.070   0.556
  115HFI     F2 1373   1.537   1.009   0.764
  115HFI     F3 1374   1.340   1.078   0.695
  115HFI     C3 1375   1.322   0.797   0.729
  115HFI     F4 1376   1.378   0.803   0.851
  115HFI     F5 1377   1.306   0.667   0.699
  115HFI     F6 1378   1.199   0.852   0.735
  115HFI     H1 1379   1.573   0.760   0.684
  115HFI     H2 1380   1.354   0.869   0.530
  116HFI     O1 1381   1.255   2.218   1.225
  116HFI     C1 1382   1.230   2.283   1.097
  116HFI     C2 1383   1.279   2.430   1.096
  116HFI     F1 1384   1.408   2.435   1.134
  116HFI     F2 1385   1.210   2.506   1.185
  116HFI     F3 1386   1.269   2.487   0.974
  116HFI     C3 1387   1.082   2.267   1.054
  116HFI     F4 1388   0.999   2.337   1.135
  116HFI     F5 1389   1.045   2.137   1.059
  116HFI     F6 1390   1.061   2.309   0.927
  116HFI     H1 1391   1.239   2.281   1.298
  116HFI     H2 1392   1.289   2.232   1.019
  117HFI     O1 1393   2.240   2.055   0.985
  117HFI     C1 1394   2.108   2.006   0.946
  117HFI     C2 1395   2.072   2.052   0.803
  117HFI     F1 1396   2.158   1.997   0.713
  117HFI     F2 1397   2.081   2.186   0.791
  117HFI     F3 1398   1.947   2.014   0.766
  117HFI     C3 1399   2.000   2.044   1.052
  117HFI     F4 1400   1.974   2.176   1.052
  117HFI     F5 1401   2.043   2.010   1.176
  117HFI     F6 1402   1.884   1.978   1.031
  117HFI     H1 1403   2.233   2.150   1.006
  117HFI     H2 1404   2.110   1.897   0.943
  118HFI     O1 1405   0.752   2.560   2.865
  118HFI     C1 1406   0.850   2.665   2.890
  118HFI     C2 1407   0.953   2.672   2.774
  118HFI     F1 1408   0.891   2.705   2.659
  118HFI     F2 1409   1.015   2.553   2.755
  118HFI     F3 1410   1.046   2.765   2.798
  118HFI     C3 1411   0.916   2.652   3.030
  118HFI     F4 1412   0.990   2.539   3.039
  118HFI     F5 1413   0.821   2.645   3.126
  118HFI     F6 1414   0.995   2.757   3.060
  118HFI     H1 1415   0.794   2.474   2.876
  118HFI     H2 1416   0.799   2.763   2.890
  119HFI     O1 1417   1.725   1.086   1.196
  119HFI     C1 1418   1.638   0.998   1.274
  119HFI     C2 1419   1.545   0.913   1.186
  119HFI     F1 1420   1.612   0.827   1.108
  119HFI     F2 1421   1.472   0.991   1.103
  119HFI     F3 1422   1.462   0.837   1.259
  119HFI     C3 1423   1.556   1.075   1.382
  119HFI     F4 1424   1.464   1.156   1.325
  119HFI     F5 1425   1.636   1.152   1.456
  119HFI     F6 1426   1.490   0.993   1.466
  119HFI     H1 1427   1.670   1.147   1.144
  119HFI     H2 1428   1.701   0.926   1.328
  120HFI     O1 1429   2.161   2.950   1.848
  120HFI     C1 1430   2.142   3.095   1.852
  120HFI     C2 1431   2.247   3.163   1.944
  120HFI     F1 1432   2.371   3.146   1.894
  120HFI     F2 1433   2.246   3.107   2.067
  120HFI     F3 1434   2.227   3.295   1.958
  120HFI     C3 1435   1.996   3.129   1.888
  120HFI     F4 1436   1.962   3.076   2.007
  120HFI     F5 1437   1.914   3.075   1.796
  120HFI     F6 1438   1.970   3.262   1.892
  120HFI     H1 1439   2.165   2.918   1.940
  120HFI     H2 1440   2.159   3.137   1.752
  121HFI     O1 1441   2.233   1.780   1.399
  121HFI     C1 1442   2.235   1.902   1.479
  121HFI     C2 1443   2.340   2.000   1.424
  121HFI     F1 1444   2.311   2.028   1.296
  121HFI     F2 1445   2.463   1.947   1.426
  121HFI     F3 1446   2.342   2.117   1.490
  121HFI     C3 1447   2.256   1.871   1.629
  121HFI     F4 1448   2.375   1.813   1.654
  121HFI     F5 1449   2.159   1.786   1.671
  121HFI     F6 1450   2.249   1.983   1.703
  121HFI     H1 1451   2.324   1.746   1.395
  121HFI     H2 1452   2.138   1.952   1.472
  122HFI     O1 1453   2.314   0.084   1.914
  122HFI     C1 1454   2.194   0.165   1.901
  122HFI     C2 1455   2.192   0.242   1.765
  122HFI     F1 1456   2.204   0.156   1.662
  122HFI     F2 1457   2.296   0.329   1.757
  122HFI     F3 1458   2.078   0.311   1.746
  122HFI     C3 1459   2.177   0.258   2.024
  122HFI     F4 1460   2.289   0.331   2.043
  122HFI     F5 1461   2.157   0.184   2.135
  122HFI     F6 1462   2.071   0.341   2.011
  122HFI     H1 1463   2.389   0.143   1.930
  122HFI     H2 1464   2.105   0.100   1.900
  123HFI     O1 1465   1.688   2.577   0.638
  123HFI     C1 1466   1.779   2.483   0.572
  123HFI     C2 1467   1.700   2.364   0.510
  123HFI     F1 1468   1.615   2.409   0.416
  123HFI     F2 1469   1.627   2.300   0.604
  123HFI     F3 1470   1.782   2.274   0.451
  123HFI     C3 1471   1.895   2.437   0.665
  123HFI     F4 1472   1.850   2.356   0.764
  123HFI     F5 1473   1.956   2.543   0.722
  123HFI     F6 1474   1.989   2.370   0.596
  123HFI     H1 1475   1.651   2.535   0.717
  123HFI     H2 1476   1.828   2.534   0.488
  124HFI     O1 1477   0.596   1.818   1.257
  124HFI     C1 1478   0.623   1.931   1.346
  124HFI     C2 1479   0.639   1.885   1.493
  124HFI     F1 1480   0.755   1.818   1.509
  124HFI     F2 1481   0.539   1.802   1.530
  124HFI     F3 1482   0.641   1.989   1.580
  124HFI     C3 1483   0.521   2.047   1.325
  124HFI     F4 1484   0.395   2.008   1.354
  124HFI     F5 1485   0.522   2.087   1.196
  124HFI     F6 1486   0.550   2.156   1.400
  124HFI     H1 1487   0.505   1.786   1.272
  124HFI     H2 1488   0.721   1.974   1.319
  125HFI     O1 1489   2.216   2.323   1.101
  125HFI     C1 1490   2.288   2.344   1.226
  125HFI     C2 1491   2.255   2.481   1.291
  125HFI     F1 1492   2.121   2.495   1.303
  125HFI     F2 1493   2.300   2.584   1.216
  125HFI     F3 1494   2.308   2.493   1.415
  125HFI     C3 1495   2.440   2.324   1.204
  125HFI     F4 1496   2.487   2.410   1.111
  125HFI     F5 1497   2.467   2.200   1.158
  125HFI     F6 1498   2.509   2.340   1.318
  125HFI     H1 1499   2.203   2.410   1.058
  125HFI     H2 1500   2.258   2.268   1.299
   3.51965   3.51965   3.51965
