HFIP comparator n0
 1500
    1HFI     O1    1   1.082   1.286   3.165  0.3118  0.0118 -0.2756
    1HFI     C1    2   1.001   1.275   3.285  0.2015  0.0641  0.6998
    1HFI     C2    3   0.933   1.407   3.314  0.1783  0.1138 -0.1532
    1HFI     F1    4   1.022   1.510   3.327  0.5050  0.2187  0.1459
    1HFI     F2    5   0.866   1.405   3.429 -0.1598  0.0968  0.1488
    1HFI     F3    6   0.856   1.432   3.216  0.4017 -0.1192  0.3402
    1HFI     C3    7   1.079   1.220   3.401 -0.2226  0.5220  0.1383
    1HFI     F4    8   1.183   1.299   3.436  0.0160  0.6414 -0.5705
    1HFI     F5    9   1.129   1.096   3.367 -0.8005  0.1339  0.2050
    1HFI     F6   10   1.006   1.198   3.508  0.2265 -0.3956 -0.6438
    1HFI     H1   11   1.097   1.381   3.149 -0.1898  0.4239  1.6265
    1HFI     H2   12   0.912   1.215   3.265  0.1881  0.4836 -0.5526
    2HFI     O1   13   0.969   0.286   3.472  0.3789  0.2342 -0.3325
    2HFI     C1   14   0.927   0.142   3.467 -0.9789 -0.2870 -0.0251
    2HFI     C2   15   0.987   0.073   3.338 -0.4624 -0.3351  0.0869
    2HFI     F1   16   1.118   0.071   3.348 -0.5406  0.0846  0.1287
    2HFI     F2   17   0.971   0.158   3.233  0.3745 -0.0901 -0.0231
    2HFI     F3   18   0.933  -0.049   3.298  0.0437  0.3944  0.1526
    2HFI     C3   19   0.776   0.123   3.496 -0.6746  0.1276 -0.0337
    2HFI     F4   20   0.707   0.153   3.380  0.4147  0.1700  0.1666
    2HFI     F5   21   0.725   0.214   3.590 -0.1600  0.1708  0.3439
    2HFI     F6   22   0.750   0.001   3.544  0.2067  0.5939  0.0215
    2HFI     H1   23   1.018   0.313   3.393  2.1437 -0.1648  0.6103
    2HFI     H2   24   0.974   0.082   3.546 -0.6696 -1.4418 -1.0647
    3HFI     O1   25   0.238   0.169   1.991 -0.4263 -0.2910  0.2165
    3HFI     C1   26   0.233   0.027   1.941 -0.4904  0.3740  0.3742
    3HFI     C2   27   0.377  -0.037   1.941 -0.6721  0.0674 -0.4354
    3HFI     F1   28   0.436  -0.020   2.068  0.0118  0.0471 -0.2221
    3HFI     F2   29   0.452   0.013   1.844  0.6672 -0.2419 -0.0872
    3HFI     F3   30   0.373  -0.174   1.920  0.8482 -0.0131  0.2405
    3HFI     C3   31   0.158   0.009   1.802  0.1340 -0.1651 -0.3177
    3HFI     F4   32   0.220   0.080   1.701  0.7722 -0.5696 -0.3918
    3HFI     F5   33   0.028   0.059   1.811  0.0303  0.4769 -0.1888
    3HFI     F6   34   0.141  -0.119   1.768 -0.0264 -0.0334 -0.7747
    3HFI     H1   35   0.268   0.224   1.916 -1.5962 -2.7806 -2.1733
    3HFI     H2   36   0.180  -0.040   2.010 -0.8057  0.9983  0.7405
    4HFI     O1   37   1.953   3.056   0.771 -0.3189  0.6707  0.0987
    4HFI     C1   38   1.912   2.996   0.644 -0.0783 -0.0544 -0.2626
    4HFI     C2   39   1.892   2.836   0.657  0.4149  0.4648 -0.0032
    4HFI     F1   40   1.806   2.810   0.755 -0.6079 -0.3438 -0.1615
    4HFI     F2   41   2.010   2.779   0.688  0.3985  0.4473  0.3401
    4HFI     F3   42   1.839   2.779   0.548  0.0708 -0.5801  0.8954
    4HFI     C3   43   2.020   3.038   0.544 -0.8394  0.3713 -0.3209
    4HFI     F4   44   2.145   3.010   0.592  0.0256 -0.0184  0.1771
    4HFI     F5   45   2.011   3.176   0.534  0.4856  1.1332  0.4215
    4HFI     F6   46   2.007   2.985   0.424 -0.8157 -0.5357  0.1330
    4HFI     H1   47   2.050   3.059   0.774 -0.2439 -0.0784 -1.4727
    4HFI     H2   48   1.813   3.028   0.611  0.0609  0.6538 -0.0138
    5HFI     O1   49   0.233   2.703   2.847  0.5139  0.3231  0.2323
    5HFI     C1   50   0.146   2.586   2.836  0.2950  0.2703 -0.6043
    5HFI     C2   51   0.083   2.563   2.697 -0.3622  0.1277 -0.3346
    5HFI     F1   52   0.024   2.438   2.688  0.5011  0.3523 -0.2797
    5HFI     F2   53   0.180   2.578   2.598 -0.2520  0.1885  0.7307
    5HFI     F3   54  -0.015   2.651   2.666  0.1344  0.1539 -0.4379
    5HFI     C3   55   0.042   2.589   2.950  0.6784 -0.0247 -0.5083
    5HFI     F4   56   0.101   2.590   3.071  0.0871 -0.1540 -0.4636
    5HFI     F5   57  -0.039   2.477   2.950  0.1833  0.3817  0.2955
    5HFI     F6   58  -0.039   2.694   2.950  0.7341  0.4898  0.2143
    5HFI     H1   59   0.193   2.781   2.806 -0.0768 -0.9441 -1.6676
    5HFI     H2   60   0.201   2.494   2.857  0.8198  0.4257 -1.2672
    6HFI     O1   61   0.173   0.653   3.258 -0.1881  0.0896  0.1250
    6HFI     C1   62   0.297   0.694   3.189 -0.2670 -0.0693 -0.4955
    6HFI     C2   63   0.270   0.752   3.046  0.0096  0.6673 -0.7195
    6HFI     F1   64   0.187   0.856   3.051 -0.2983 -0.0060 -0.3508
    6HFI     F2   65   0.215   0.659   2.969 -0.0704  0.3273 -0.1379
    6HFI     F3   66   0.383   0.797   2.987 -0.0097 -0.7694  0.2279
    6HFI     C3   67   0.401   0.583   3.210  0.3188  0.4562 -0.8019
    6HFI     F4   68   0.353   0.458   3.212  0.5377  0.1424 -0.0448
    6HFI     F5   69   0.465   0.614   3.330  0.0882 -0.1335 -0.0844
    6HFI     F6   70   0.498   0.583   3.110 -0.2985  0.0971  0.2159
    6HFI     H1   71   0.157   0.557   3.261 -1.8623  0.3951  1.4420
    6HFI     H2   72   0.337   0.777   3.248  0.5740 -0.2098 -0.8578
    7HFI     O1   73   3.438   0.324   1.846 -0.0882  0.2825  0.2691
    7HFI     C1   74   3.410   0.422   1.948 -0.0125 -0.1850  0.1297
    7HFI     C2   75   3.448   0.560   1.902 -0.4081 -0.3839  0.1891
    7HFI     F1   76   3.386   0.587   1.786  0.0817  0.2906 -0.5774
    7HFI     F2   77   3.580   0.576   1.880 -0.2027 -0.3043  0.2020
    7HFI     F3   78   3.395   0.651   1.982  0.4559 -0.3667  0.5840
    7HFI     C3   79   3.478   0.379   2.090 -0.1219 -0.4197  0.3368
    7HFI     F4   80   3.612   0.380   2.098  0.7337 -0.1654 -0.0637
    7HFI     F5   81   3.435   0.254   2.116  0.2257 -0.2665  0.2077
    7HFI     F6   82   3.441   0.466   2.187  0.4645 -0.1226 -0.4524
    7HFI     H1   83   3.460   0.240   1.890  0.9902 -0.3311 -1.3998
    7HFI     H2   84   3.301   0.419   1.961 -0.1532  0.2483 -0.9249
    8HFI     O1   85   0.404   1.889   1.689  0.5847 -0.2977 -0.0464
    8HFI     C1   86   0.509   1.851   1.777  0.2471  0.3677 -0.6333
    8HFI     C2   87   0.463   1.774   1.897  0.7370 -0.6535  0.1584
    8HFI     F1   88   0.387   1.673   1.853 -0.5498 -0.3313 -0.0627
    8HFI     F2   89   0.391   1.847   1.985 -0.4407 -0.3989 -0.2794
    8HFI     F3   90   0.567   1.717   1.957  0.5993 -0.1634  0.1355
    8HFI     C3   91   0.606   1.973   1.810  0.5076 -0.2793  0.3241
    8HFI     F4   92   0.728   1.944   1.860 -0.0757  0.3570  0.3065
    8HFI     F5   93   0.550   2.057   1.902 -0.4495 -0.2737 -0.0247
    8HFI     F6   94   0.628   2.046   1.692  0.4595  0.1576  0.1922
    8HFI     H1   95   0.380   1.976   1.723  0.4574 -0.5808  0.5828
    8HFI     H2   96   0.571   1.774   1.730 -0.6997 -0.1031 -1.1330
    9HFI     O1   97   3.490   1.901   1.619  0.4390  0.4723 -0.3748
    9HFI     C1   98   3.501   2.028   1.694  0.0417  0.5929  0.3867
    9HFI     C2   99   3.566   2.138   1.599  0.5310  0.0079 -0.2115
    9HFI     F1  100   3.696   2.102   1.563  0.2580  0.1209 -0.3425
    9HFI     F2  101   3.563   2.262   1.650  0.6316 -0.3366  0.3275
    9HFI     F3  102   3.493   2.138   1.482  0.3379 -0.2788  0.0330
    9HFI     C3  103   3.575   2.014   1.832 -0.0647  0.3216 -0.3619
    9HFI     F4  104   3.562   1.882   1.885 -0.2595  0.4918  0.1926
    9HFI     F5  105   3.514   2.093   1.924 -0.6859  0.4191  0.0907
    9HFI     F6  106   3.712   2.041   1.828  0.3167  0.5473 -0.2028
    9HFI     H1  107   3.580   1.863   1.621  0.2019 -0.0909 -0.2763
    9HFI     H2  108   3.399   2.067   1.709  0.0491 -0.1268  2.5217
   10HFI     O1  109   2.890   3.203   2.016  0.1115  0.2968 -0.3691
   10HFI     C1  110   3.006   3.133   2.082  0.6537  0.6509 -0.7884
   10HFI     C2  111   3.049   3.198   2.218 -0.3091 -0.0665  0.0590
   10HFI     F1  112   2.937   3.204   2.304 -0.1332  0.4127  0.5546
   10HFI     F2  113   3.089   3.331   2.202  0.2075 -0.2675  0.4811
   10HFI     F3  114   3.141   3.121   2.281  0.2637  0.2351  0.8586
   10HFI     C3  115   3.125   3.105   1.984 -0.2477  0.8184  0.2061
   10HFI     F4  116   3.078   3.075   1.865  0.1616  0.3628 -0.0369
   10HFI     F5  117   3.199   3.008   2.028  0.6287  0.0662  0.3761
   10HFI     F6  118   3.216   3.207   1.964  0.0664  0.1378 -0.2075
   10HFI     H1  119   2.856   3.141   1.949 -1.0032  0.8517 -0.3412
   10HFI     H2  120   2.976   3.033   2.115 -0.3191  0.9852 -0.6422
   11HFI     O1  121   0.602   2.440   2.058  0.4258  0.4698  0.1208
   11HFI     C1  122   0.453   2.432   2.062 -0.1787 -0.8996  0.7005
   11HFI     C2  123   0.390   2.431   1.915  0.3222  0.6824 -0.8019
   11HFI     F1  124   0.291   2.339   1.914  0.4522 -0.2841  0.1220
   11HFI     F2  125   0.471   2.405   1.807  0.0587 -0.2681  0.3156
   11HFI     F3  126   0.326   2.546   1.895 -0.5971 -0.0056  0.1167
   11HFI     C3  127   0.394   2.538   2.161  0.4983 -0.5946  0.2988
   11HFI     F4  128   0.426   2.663   2.135  0.0502 -0.0408 -0.5955
   11HFI     F5  129   0.458   2.520   2.280 -0.4822  0.0370  0.1743
   11HFI     F6  130   0.263   2.524   2.179 -0.2904  0.2698  0.9042
   11HFI     H1  131   0.644   2.525   2.077  0.2854  0.4806  0.3841
   11HFI     H2  132   0.419   2.336   2.103 -2.5935  0.0137  0.9013
   12HFI     O1  133   1.491   3.165   1.293  0.3924 -0.1053  0.0434
   12HFI     C1  134   1.441   3.058   1.203 -0.2424  0.4588 -0.3791
   12HFI     C2  135   1.404   2.935   1.281 -0.1860  0.5557 -0.3663
   12HFI     F1  136   1.321   2.970   1.386  0.1045  0.4893  0.2024
   12HFI     F2  137   1.509   2.855   1.325 -0.3782 -0.1468 -0.0793
   12HFI     F3  138   1.324   2.851   1.214 -0.1136  0.2602 -0.2412
   12HFI     C3  139   1.548   3.026   1.091  1.4109 -0.1091 -0.1744
   12HFI     F4  140   1.675   3.025   1.142 -0.4059 -0.4899 -0.0334
   12HFI     F5  141   1.523   3.124   1.000  0.0739  0.6928 -0.9172
   12HFI     F6  142   1.516   2.909   1.034 -0.3637 -0.6075  0.5092
   12HFI     H1  143   1.581   3.182   1.262  0.2093 -1.6750 -1.4549
   12HFI     H2  144   1.349   3.089   1.151 -0.7554  0.3699  0.4756
   13HFI     O1  145   1.340   0.365   0.742 -0.5279  0.1691 -0.0089
   13HFI     C1  146   1.393   0.448   0.633 -0.0842  0.0800 -0.7088
   13HFI     C2  147   1.301   0.440   0.516  0.3933 -1.0215  0.1632
   13HFI     F1  148   1.285   0.312   0.487  0.2767  0.5479  0.1486
   13HFI     F2  149   1.347   0.512   0.409 -0.1500 -0.0763  0.3809
   13HFI     F3  150   1.180   0.488   0.540  0.4282  0.0380 -0.1839
   13HFI     C3  151   1.542   0.420   0.601 -0.0246  0.2473 -0.9728
   13HFI     F4  152   1.614   0.412   0.718 -0.8005  0.0885  0.6219
   13HFI     F5  153   1.596   0.519   0.522  0.1218  0.0823  0.1755
   13HFI     F6  154   1.548   0.306   0.538 -0.4737  0.1576 -0.3873
   13HFI     H1  155   1.323   0.276   0.708  0.0148  0.1710 -0.2851
   13HFI     H2  156   1.380   0.552   0.665 -1.8888  0.0751 -1.3673
   14HFI     O1  157   1.078   1.957   0.490  0.5329 -0.6434  0.0885
   14HFI     C1  158   1.208   2.020   0.513  0.2760  0.0981  0.1197
   14HFI     C2  159   1.311   1.909   0.529 -0.0220  1.0770  1.1412
   14HFI     F1  160   1.433   1.965   0.547  0.1834 -0.2805  0.0490
   14HFI     F2  161   1.312   1.834   0.414 -0.1055  0.0074 -0.4288
   14HFI     F3  162   1.281   1.830   0.631 -0.3613  0.3767  0.0635
   14HFI     C3  163   1.206   2.122   0.630 -0.7306 -0.2430 -0.3707
   14HFI     F4  164   1.311   2.206   0.618  0.0740 -0.0046 -0.1165
   14HFI     F5  165   1.210   2.062   0.754 -0.0799 -0.0914 -0.3310
   14HFI     F6  166   1.095   2.198   0.625  0.2086  0.1421  0.2268
   14HFI     H1  167   1.046   1.930   0.578  1.3569 -1.5287  0.1382
   14HFI     H2  168   1.241   2.081   0.428 -0.0934 -0.4890 -0.4489
   15HFI     O1  169   0.753   3.470   2.764  0.7156  0.0530  0.2654
   15HFI     C1  170   0.890   3.471   2.817 -0.3147  0.0356 -0.3722
   15HFI     C2  171   0.957   3.612   2.803  0.1973 -0.1048  0.2919
   15HFI     F1  172   0.874   3.707   2.859 -0.4250  0.2926 -0.5361
   15HFI     F2  173   0.987   3.646   2.677  0.6100 -0.2352  0.2485
   15HFI     F3  174   1.072   3.627   2.875 -0.0320 -0.2413  0.1405
   15HFI     C3  175   0.974   3.361   2.748  0.4648  1.2863 -0.4781
   15HFI     F4  176   1.091   3.331   2.808  0.5471 -0.3065 -0.4928
   15HFI     F5  177   1.002   3.387   2.621 -0.1053 -0.1758  0.8469
   15HFI     F6  178   0.907   3.240   2.753 -0.2005  0.5874  0.5167
   15HFI     H1  179   0.714   3.382   2.750 -1.8592  1.3131 -0.8338
   15HFI     H2  180   0.893   3.450   2.924  0.9935  3.8289  0.4079
   16HFI     O1  181   0.031   0.435   1.352 -0.5845 -0.3316  0.3928
   16HFI     C1  182  -0.047   0.316   1.345 -0.2243 -0.8335  0.1596
   16HFI     C2  183  -0.194   0.338   1.372 -0.1007 -0.4716 -0.4196
   16HFI     F1  184  -0.249   0.413   1.273  0.0236 -0.9815  0.1388
   16HFI     F2  185  -0.221   0.406   1.487  0.0535 -0.2784 -0.9888
   16HFI     F3  186  -0.264   0.219   1.372  0.3527 -0.1703 -0.1501
   16HFI     C3  187   0.014   0.202   1.433  0.1708  0.1308  0.4198
   16HFI     F4  188   0.007   0.236   1.567 -0.7410  0.2040  0.0500
   16HFI     F5  189   0.148   0.184   1.396  0.6827 -0.0917 -0.0038
   16HFI     F6  190  -0.060   0.083   1.415 -0.0568  0.7353 -0.6688
   16HFI     H1  191   0.038   0.477   1.439 -1.0855 -0.0711  0.3118
   16HFI     H2  192  -0.044   0.286   1.239  0.9784  0.3702 -0.1647
   17HFI     O1  193   3.486   1.196   2.444 -0.3450  0.2437 -0.4726
   17HFI     C1  194   3.546   1.072   2.490  0.0821  0.0745 -0.4547
   17HFI     C2  195   3.463   0.952   2.435  0.0844 -0.5579 -0.1482
   17HFI     F1  196   3.528   0.837   2.457  0.1306 -0.0705 -0.1978
   17HFI     F2  197   3.434   0.965   2.306 -0.2337  0.8574 -0.4023
   17HFI     F3  198   3.348   0.943   2.505  0.1048  0.0402 -0.4660
   17HFI     C3  199   3.583   1.073   2.651  0.1339 -0.0215  0.5613
   17HFI     F4  200   3.643   0.956   2.695 -0.1270 -0.6842 -0.3256
   17HFI     F5  201   3.475   1.092   2.723  0.0595  0.0073  0.1969
   17HFI     F6  202   3.667   1.174   2.673  0.2767  0.0924 -0.0242
   17HFI     H1  203   3.530   1.261   2.502 -0.6690 -1.3753  1.6415
   17HFI     H2  204   3.643   1.053   2.443  0.8669  0.5024  0.9801
   18HFI     O1  205   1.283   0.068   0.808  0.3011 -0.4464 -0.6936
   18HFI     C1  206   1.192  -0.025   0.882  0.0760 -0.5867  0.0238
   18HFI     C2  207   1.258  -0.062   1.020  0.1218  0.0185 -0.4210
   18HFI     F1  208   1.390  -0.105   1.006 -0.1420 -0.5584  0.2013
   18HFI     F2  209   1.186  -0.154   1.086 -0.0574 -0.6625 -0.2000
   18HFI     F3  210   1.260   0.057   1.089  0.3553  0.2826  0.0586
   18HFI     C3  211   1.161  -0.155   0.798 -0.2509 -0.6196 -0.0177
   18HFI     F4  212   1.271  -0.239   0.779  0.3929 -0.1039 -0.6233
   18HFI     F5  213   1.111  -0.121   0.679  0.3590  0.0724 -0.0661
   18HFI     F6  214   1.069  -0.233   0.860  0.0850 -0.0420 -0.2030
   18HFI     H1  215   1.368   0.020   0.803  0.5148 -0.3098  1.2057
   18HFI     H2  216   1.096   0.021   0.909 -0.4624 -0.7904 -1.4729
   19HFI     O1  217   1.164   2.832   2.044 -0.4588  0.0413 -0.1388
   19HFI     C1  218   1.166   2.727   1.937  0.5575  0.2571 -0.1410
   19HFI     C2  219   1.113   2.787   1.804 -0.6955 -0.2956  0.4352
   19HFI     F1  220   1.098   2.686   1.717  0.1071 -0.0125  0.3392
   19HFI     F2  221   1.211   2.871   1.757 -0.1212 -0.2588  0.3092
   19HFI     F3  222   0.996   2.851   1.801  0.1755 -0.4099 -0.5021
   19HFI     C3  223   1.082   2.600   1.987 -0.6418 -0.3951 -0.9529
   19HFI     F4  224   1.125   2.551   2.105  0.1584 -0.0360 -0.5212
   19HFI     F5  225   1.085   2.494   1.903 -0.0728  0.0382 -0.1748
   19HFI     F6  226   0.954   2.641   1.995 -0.0962  0.4840 -0.6837
   19HFI     H1  227   1.085   2.828   2.101 -1.3279  2.2211 -1.1604
   19HFI     H2  228   1.269   2.695   1.921  0.0563 -2.2011  1.2155
   20HFI     O1  229   1.082   1.614   2.490  0.1047 -0.0281  0.0235
   20HFI     C1  230   0.946   1.659   2.508 -0.3312 -0.8800  0.4761
   20HFI     C2  231   0.936   1.742   2.642  0.2187 -0.1813 -0.0611
   20HFI     F1  232   1.044   1.831   2.654 -0.2794  0.0067 -0.3027
   20HFI     F2  233   0.932   1.665   2.751 -0.3081 -0.2024 -0.1248
   20HFI     F3  234   0.827   1.812   2.649  0.1227 -0.5654  0.4255
   20HFI     C3  235   0.836   1.555   2.490  0.4467  0.3219  0.7209
   20HFI     F4  236   0.704   1.601   2.519  0.0106 -0.1944  0.4440
   20HFI     F5  237   0.858   1.450   2.570  0.1903  0.3236 -0.2195
   20HFI     F6  238   0.840   1.502   2.363 -0.5564  0.3614 -0.3541
   20HFI     H1  239   1.101   1.538   2.548 -1.0060 -0.1101  0.2844
   20HFI     H2  240   0.920   1.727   2.426 -0.4595 -1.2041  0.2518
   21HFI     O1  241   3.449   3.037   0.859 -0.2040  0.2372 -0.4653
   21HFI     C1  242   3.384   2.934   0.941 -0.3407 -0.9042 -0.3665
   21HFI     C2  243   3.319   2.827   0.852 -0.2203 -0.3119  0.0194
   21HFI     F1  244   3.408   2.770   0.765 -0.0660 -0.1722 -0.0256
   21HFI     F2  245   3.224   2.876   0.775  0.1432 -0.1530  0.2103
   21HFI     F3  246   3.269   2.717   0.925 -0.3525 -0.1046  0.2469
   21HFI     C3  247   3.279   2.998   1.034  0.8510 -0.5085 -0.7887
   21HFI     F4  248   3.224   2.910   1.114  0.5468  0.3061 -0.5160
   21HFI     F5  249   3.180   3.053   0.962  0.4043 -0.3311  0.2097
   21HFI     F6  250   3.336   3.089   1.115 -0.4254  0.1175  0.2658
   21HFI     H1  251   3.423   3.126   0.887 -0.3564  0.1729 -0.4024
   21HFI     H2  252   3.453   2.873   1.002  0.4827 -0.2809 -0.6702
   22HFI     O1  253   3.309   2.451   0.648 -0.2403 -0.7482 -0.0411
   22HFI     C1  254   3.206   2.357   0.689 -0.4690 -0.1548 -0.9673
   22HFI     C2  255   3.121   2.318   0.564  0.3276 -0.0440 -0.6878
   22HFI     F1  256   3.059   2.425   0.510  0.0624  0.0813  0.2459
   22HFI     F2  257   3.023   2.225   0.600 -0.4107  0.1290 -0.2146
   22HFI     F3  258   3.200   2.268   0.471 -0.4978  0.2220 -0.0521
   22HFI     C3  259   3.122   2.394   0.814 -0.2417 -0.4354  0.4541
   22HFI     F4  260   3.193   2.421   0.930  0.4751  0.2667  0.6796
   22HFI     F5  261   3.039   2.290   0.842  0.3565  0.3664  0.0114
   22HFI     F6  262   3.043   2.500   0.785 -0.0136 -0.0142  0.0366
   22HFI     H1  263   3.280   2.506   0.573  0.2012  0.2733  0.5223
   22HFI     H2  264   3.252   2.264   0.724 -1.0266  0.3836  1.2668
   23HFI     O1  265   0.303   1.959   2.741  0.4282 -0.2862  0.8153
   23HFI     C1  266   0.241   1.974   2.878 -0.2707 -0.7317 -0.0694
   23HFI     C2  267   0.085   1.950   2.868 -0.0524  0.2306 -0.2786
   23HFI     F1  268   0.067   1.837   2.800 -0.9155  0.4514  0.3017
   23HFI     F2  269   0.015   2.044   2.804  0.0624 -0.3801  0.3105
   23HFI     F3  270   0.030   1.937   2.991  0.3560 -0.4788  0.5599
   23HFI     C3  271   0.268   2.110   2.949  0.5182 -0.2168  0.0999
   23HFI     F4  272   0.239   2.209   2.861  0.0207 -0.4056  0.0108
   23HFI     F5  273   0.399   2.113   2.981 -0.1707  0.4038 -0.6875
   23HFI     F6  274   0.200   2.122   3.065 -0.5556  0.3773 -0.2235
   23HFI     H1  275   0.309   2.047   2.701  2.0015 -0.8607 -0.2327
   23HFI     H2  276   0.278   1.894   2.944  0.3271  0.0019  0.4827
   24HFI     O1  277   0.573   0.594   0.145 -0.0521 -0.2283 -0.5233
   24HFI     C1  278   0.709   0.541   0.127 -0.1991 -0.0647  0.0085
   24HFI     C2  279   0.769   0.510   0.276 -0.9859  0.2672 -0.6973
   24HFI     F1  280   0.894   0.454   0.269  0.3794  0.7092 -0.1522
   24HFI     F2  281   0.689   0.429   0.345 -0.4994 -0.1434 -0.1113
   24HFI     F3  282   0.774   0.619   0.355  0.1757 -0.2041 -0.6608
   24HFI     C3  283   0.793   0.642   0.043  0.0366 -0.1477  0.1445
   24HFI     F4  284   0.795   0.766   0.100  0.1869  0.3979  0.3535
   24HFI     F5  285   0.744   0.665  -0.084 -0.1399  0.0948 -0.2229
   24HFI     F6  286   0.922   0.598   0.033  0.2878  0.6161  0.1006
   24HFI     H1  287   0.522   0.527   0.194  1.0479  0.5278  1.7112
   24HFI     H2  288   0.707   0.448   0.067  1.2799 -0.3552  0.3982
   25HFI     O1  289   1.123   1.655   1.623  0.1682  1.0318 -0.5171
   25HFI     C1  290   1.189   1.557   1.542  1.1429  0.2474 -0.7939
   25HFI     C2  291   1.310   1.487   1.616 -0.4007 -1.1417  0.4526
   25HFI     F1  292   1.262   1.432   1.736 -0.2871  0.1127 -0.1681
   25HFI     F2  293   1.416   1.574   1.639 -0.3066  0.3152  0.3006
   25HFI     F3  294   1.362   1.384   1.542  0.1586 -0.2752 -0.3612
   25HFI     C3  295   1.220   1.615   1.399  0.5754 -0.0137  0.1930
   25HFI     F4  296   1.108   1.657   1.353 -0.3869 -0.4830  0.7136
   25HFI     F5  297   1.266   1.520   1.314 -0.1862  0.4258 -0.1550
   25HFI     F6  298   1.307   1.710   1.411  0.7947  0.3831  0.3356
   25HFI     H1  299   1.130   1.742   1.579  0.7791  0.6312 -1.2461
   25HFI     H2  300   1.117   1.473   1.535 -0.8180  1.8038  0.2166
   26HFI     O1  301   3.136   2.162   1.807 -0.4987  0.0105 -0.2160
   26HFI     C1  302   3.171   2.255   1.916  0.1278  0.2983 -0.3344
   26HFI     C2  303   3.051   2.280   2.019  0.4605 -0.0070  0.7525
   26HFI     F1  304   3.027   2.164   2.092 -0.2676 -0.2102  0.0367
   26HFI     F2  305   2.939   2.309   1.948  0.3582 -0.3574  0.1009
   26HFI     F3  306   3.082   2.380   2.101 -0.0851 -0.1201 -0.4849
   26HFI     C3  307   3.246   2.388   1.870  0.2382 -0.0028 -0.3200
   26HFI     F4  308   3.157   2.471   1.811  0.6917  0.8731  0.3505
   26HFI     F5  309   3.355   2.354   1.788  0.1203 -0.2990 -0.2657
   26HFI     F6  310   3.292   2.455   1.972 -0.1377 -0.9828 -0.0205
   26HFI     H1  311   3.055   2.195   1.763 -2.8877 -0.0923  3.9010
   26HFI     H2  312   3.245   2.200   1.975  0.7945  0.1970 -1.2369
   27HFI     O1  313   0.006   2.486   1.468  0.1787  0.2754  0.2323
   27HFI     C1  314  -0.025   2.623   1.504  0.2782 -0.1225  0.0998
   27HFI     C2  315  -0.074   2.707   1.382  0.2528  0.0196  0.0560
   27HFI     F1  316  -0.111   2.833   1.414  0.0629  0.0258  0.4859
   27HFI     F2  317  -0.178   2.645   1.321 -0.3073 -0.6273 -0.2293
   27HFI     F3  318   0.022   2.720   1.291 -0.3280 -0.3561 -0.2816
   27HFI     C3  319   0.079   2.692   1.603 -0.3426 -0.5301 -0.5807
   27HFI     F4  320   0.119   2.605   1.705  0.0462 -0.3079  0.4981
   27HFI     F5  321   0.022   2.796   1.673 -0.4344  0.5902 -0.4587
   27HFI     F6  322   0.190   2.745   1.537 -0.1931  0.5678  0.2085
   27HFI     H1  323   0.098   2.471   1.496  0.2124  2.4205  1.4300
   27HFI     H2  324  -0.112   2.629   1.571  0.9676  1.7043  0.8783
   28HFI     O1  325   0.422   2.518   2.985  0.3835 -0.2438 -0.1680
   28HFI     C1  326   0.563   2.537   2.939  0.2806  0.2324  0.3932
   28HFI     C2  327   0.649   2.617   3.040 -0.6072  0.9195  0.4443
   28HFI     F1  328   0.781   2.605   2.999 -0.5521  0.1957  0.1670
   28HFI     F2  329   0.642   2.577   3.166 -0.1672  0.2027 -0.2317
   28HFI     F3  330   0.629   2.748   3.036 -0.8824 -0.3986 -0.1913
   28HFI     C3  331   0.564   2.603   2.798 -0.1174  0.0615 -0.4111
   28HFI     F4  332   0.525   2.733   2.802  0.1350  0.2692 -0.8772
   28HFI     F5  333   0.475   2.542   2.721 -0.1105  0.0208 -0.1252
   28HFI     F6  334   0.683   2.605   2.736  0.2572 -0.0522  0.0604
   28HFI     H1  335   0.365   2.594   2.961 -1.4580 -1.1504  1.1949
   28HFI     H2  336   0.605   2.436   2.931  0.1133  0.0834  1.2423
   29HFI     O1  337   2.055   2.759   1.140 -0.7987 -0.6117  0.5171
   29HFI     C1  338   2.159   2.870   1.149  0.2187  0.0715  0.8103
   29HFI     C2  339   2.111   3.002   1.207 -0.1972 -0.3241 -0.1504
   29HFI     F1  340   2.053   2.965   1.322 -0.1710 -0.3014  0.2006
   29HFI     F2  341   2.033   3.076   1.127 -0.3354 -0.6405  0.0583
   29HFI     F3  342   2.219   3.079   1.237  0.7088  0.0761 -0.3323
   29HFI     C3  343   2.245   2.877   1.015  0.2938  0.1466 -0.2278
   29HFI     F4  344   2.348   2.970   1.019  0.0725 -0.0958 -0.2852
   29HFI     F5  345   2.167   2.907   0.911 -0.0138 -0.3690 -0.4619
   29HFI     F6  346   2.305   2.760   0.989 -0.3695 -0.4564 -0.4459
   29HFI     H1  347   1.989   2.793   1.077 -1.3475 -1.2682  0.7276
   29HFI     H2  348   2.230   2.837   1.226 -0.2426 -2.5567  0.1534
   30HFI     O1  349   0.239   3.299   0.811  0.3568  0.2713  0.3367
   30HFI     C1  350   0.246   3.437   0.864 -0.4174  0.9285 -0.1627
   30HFI     C2  351   0.108   3.484   0.933  0.3887  0.8106  0.2182
   30HFI     F1  352   0.096   3.406   1.042  0.0664  0.1540  0.1379
   30HFI     F2  353   0.003   3.458   0.851 -0.2774 -0.3422  0.2755
   30HFI     F3  354   0.108   3.613   0.973  0.0121 -0.0271  0.3742
   30HFI     C3  355   0.292   3.532   0.750  0.1405  0.0485 -0.3901
   30HFI     F4  356   0.346   3.641   0.803  0.2188 -0.2414  0.0671
   30HFI     F5  357   0.191   3.574   0.668  0.3602  0.4206 -0.2939
   30HFI     F6  358   0.389   3.468   0.675 -0.5689  0.3317 -0.1566
   30HFI     H1  359   0.288   3.287   0.728 -1.4789 -1.0026 -0.6126
   30HFI     H2  360   0.320   3.436   0.946 -0.2396 -1.3397 -0.3208
   31HFI     O1  361   0.731   3.026   1.506  0.1202 -0.3255  0.1451
   31HFI     C1  362   0.840   2.963   1.432 -0.2061  0.2166 -0.3358
   31HFI     C2  363   0.886   3.048   1.307 -0.0978 -0.5479  0.1189
   31HFI     F1  364   0.899   3.177   1.347  0.3805 -0.0875  0.5527
   31HFI     F2  365   0.794   3.046   1.205 -0.5165  0.4045  0.2819
   31HFI     F3  366   1.000   2.999   1.265 -0.0343  0.0608 -0.1794
   31HFI     C3  367   0.808   2.813   1.398 -0.0221 -0.2875 -0.4463
   31HFI     F4  368   0.913   2.747   1.347 -0.1932 -0.3975  0.7371
   31HFI     F5  369   0.700   2.803   1.308  0.4324 -0.4943  0.0783
   31HFI     F6  370   0.790   2.743   1.517  0.1166  0.0929  0.0317
   31HFI     H1  371   0.758   3.043   1.598  0.1962  0.1520  0.0408
   31HFI     H2  372   0.927   2.954   1.498  0.5699  0.0033 -1.3804
   32HFI     O1  373   0.869   0.500   2.906  0.7034 -0.0187 -0.1072
   32HFI     C1  374   0.950   0.463   3.022 -0.1888 -0.3837  0.5974
   32HFI     C2  375   0.930   0.546   3.150  0.2730 -0.7591  0.6097
   32HFI     F1  376   0.868   0.476   3.246  0.0316 -0.1132 -0.0186
   32HFI     F2  377   0.851   0.647   3.117  0.0235  0.4317 -0.5133
   32HFI     F3  378   1.045   0.590   3.205 -0.2526  0.2964  0.7145
   32HFI     C3  379   1.102   0.451   2.977 -0.3829 -0.7461 -0.2571
   32HFI     F4  380   1.165   0.362   3.055  0.2506 -0.3666 -0.9831
   32HFI     F5  381   1.170   0.570   2.974  0.0396  0.1939 -0.5773
   32HFI     F6  382   1.120   0.391   2.852 -0.1117  0.2943  0.0230
   32HFI     H1  383   0.851   0.595   2.916 -0.1486 -0.2167  0.3413
   32HFI     H2  384   0.923   0.359   3.046  0.8625 -0.4202  1.6649
   33HFI     O1  385   0.863   2.204   0.380 -0.2211 -0.0415  0.0800
   33HFI     C1  386   0.828   2.104   0.274  0.7728  0.6358  0.0015
   33HFI     C2  387   0.931   2.130   0.153 -0.3640 -0.1284  0.4618
   33HFI     F1  388   0.915   2.251   0.091  0.8626 -0.0027 -0.5053
   33HFI     F2  389   0.919   2.040   0.055 -0.1373  0.4076 -0.2294
   33HFI     F3  390   1.056   2.125   0.198 -0.2491  0.7703  0.1306
   33HFI     C3  391   0.685   2.106   0.229  0.2246 -0.5770 -0.3223
   33HFI     F4  392   0.648   2.229   0.185  0.1938 -0.3512 -0.0942
   33HFI     F5  393   0.603   2.079   0.335  0.2031 -0.3288 -0.1710
   33HFI     F6  394   0.666   2.026   0.128 -0.3773  0.2389  0.1961
   33HFI     H1  395   0.912   2.278   0.339 -0.7973  0.9294  1.1257
   33HFI     H2  396   0.837   1.999   0.305 -2.3165  0.5451  0.6833
   34HFI     O1  397   1.685   3.432   1.389 -0.0719  0.0987 -0.1421
   34HFI     C1  398   1.819   3.375   1.390  0.4557  0.2267 -0.2737
   34HFI     C2  399   1.835   3.256   1.490 -0.1589  0.3410 -1.1397
   34HFI     F1  400   1.961   3.219   1.519 -0.4611 -0.0495  0.2641
   34HFI     F2  401   1.763   3.149   1.443  0.5707 -0.0336 -0.0090
   34HFI     F3  402   1.784   3.294   1.613  0.5154 -0.0847 -0.4591
   34HFI     C3  403   1.931   3.480   1.401 -0.3041  0.0339  0.0563
   34HFI     F4  404   1.960   3.516   1.530  0.0588  0.1866  0.5350
   34HFI     F5  405   1.895   3.597   1.345 -0.0471  0.4230 -0.1641
   34HFI     F6  406   2.040   3.429   1.340  0.1573 -0.1524  0.0845
   34HFI     H1  407   1.680   3.498   1.460  2.9895 -0.6251  0.8390
   34HFI     H2  408   1.831   3.322   1.295 -0.1461 -0.6984  0.1610
   35HFI     O1  409   1.362   1.103   1.773 -0.3673 -0.3981  0.1216
   35HFI     C1  410   1.457   1.135   1.879 -0.2589  0.7866 -0.6021
   35HFI     C2  411   1.590   1.191   1.815  0.4428 -0.6407  0.0868
   35HFI     F1  412   1.700   1.181   1.898 -0.4807  0.1682  0.0281
   35HFI     F2  413   1.572   1.320   1.785  0.0020  0.3876 -0.0178
   35HFI     F3  414   1.627   1.124   1.702  1.4237 -0.3274 -0.0195
   35HFI     C3  415   1.489   1.007   1.964  0.2707  0.6022  0.3368
   35HFI     F4  416   1.372   0.943   1.987 -0.1594  0.0841  0.3732
   35HFI     F5  417   1.547   1.038   2.076 -0.0406 -0.1884 -0.2162
   35HFI     F6  418   1.568   0.916   1.896 -0.1222  0.6957 -0.4570
   35HFI     H1  419   1.405   1.051   1.702 -0.8354  2.0606 -2.0037
   35HFI     H2  420   1.417   1.214   1.943 -1.2496 -0.1424 -0.0510
   36HFI     O1  421   0.064   1.358   1.165 -0.0783  0.3302 -0.4707
   36HFI     C1  422   0.011   1.485   1.143  0.1670  0.0430 -0.3591
   36HFI     C2  423   0.113   1.597   1.178  0.3017 -0.5956  0.5081
   36HFI     F1  424   0.234   1.566   1.117  0.2046  0.2579  0.1560
   36HFI     F2  425   0.126   1.617   1.309  0.4486 -0.6882 -0.4215
   36HFI     F3  426   0.069   1.717   1.133  0.2715  0.0858 -0.0809
   36HFI     C3  427  -0.124   1.503   1.208  0.4958  0.2758 -0.6663
   36HFI     F4  428  -0.119   1.480   1.335  0.1052 -0.3213 -0.0804
   36HFI     F5  429  -0.216   1.419   1.165 -0.6316  0.4247 -0.1603
   36HFI     F6  430  -0.168   1.630   1.184 -0.3122  0.5193 -0.0736
   36HFI     H1  431   0.159   1.359   1.144  0.7074 -0.5723  2.6988
   36HFI     H2  432   0.002   1.498   1.034 -3.6755 -0.5183 -0.1757
   37HFI     O1  433   1.276   2.762   3.328  0.2704 -0.5160 -0.4971
   37HFI     C1  434   1.147   2.692   3.332  0.0908 -0.0625  0.1714
   37HFI     C2  435   1.018   2.790   3.333  0.5943  0.4925  0.1977
   37HFI     F1  436   1.029   2.879   3.227 -0.0640  0.4216 -0.2424
   37HFI     F2  437   0.993   2.856   3.447 -0.2583 -0.6695 -0.1152
   37HFI     F3  438   0.911   2.711   3.311  0.3528 -0.2313  0.1799
   37HFI     C3  439   1.151   2.607   3.460 -0.0352  0.3029 -0.2348
   37HFI     F4  440   1.172   2.685   3.573 -0.5812  0.0824 -0.3881
   37HFI     F5  441   1.245   2.511   3.444  0.6189 -0.2663  0.1291
   37HFI     F6  442   1.041   2.541   3.476  0.2392 -0.4601  0.5627
   37HFI     H1  443   1.341   2.727   3.391 -1.6604  0.3877  2.0994
   37HFI     H2  444   1.147   2.614   3.254  1.4320  2.5961 -2.5666
   38HFI     O1  445   3.418   1.011   3.134 -0.6128 -0.6540 -0.0136
   38HFI     C1  446   3.471   1.132   3.197  0.1222  1.0444 -0.3225
   38HFI     C2  447   3.431   1.156   3.350  0.2209 -0.6122 -0.3952
   38HFI     F1  448   3.470   1.041   3.414  0.5041  0.3277  0.1815
   38HFI     F2  449   3.298   1.175   3.365  0.2606 -0.1263  0.2444
   38HFI     F3  450   3.497   1.259   3.404  0.0279 -0.1231 -0.4814
   38HFI     C3  451   3.431   1.255   3.117 -0.5041 -0.2181 -0.4857
   38HFI     F4  452   3.298   1.264   3.106 -0.2386  0.4983  0.3509
   38HFI     F5  453   3.474   1.255   2.986  0.3025  0.0862 -0.8688
   38HFI     F6  454   3.477   1.371   3.171  0.8500 -0.0924  0.1511
   38HFI     H1  455   3.408   0.943   3.203  3.0558 -0.7263  0.5149
   38HFI     H2  456   3.581   1.128   3.199  0.0779  0.1282  1.0171
   39HFI     O1  457   0.510   1.150   1.394  0.8992 -0.1628  0.7206
   39HFI     C1  458   0.427   1.096   1.498 -0.1856 -0.5836 -0.5991
   39HFI     C2  459   0.306   1.186   1.518 -0.1622 -0.4020  0.1149
   39HFI     F1  460   0.221   1.173   1.417 -0.4624  0.0781  0.3143
   39HFI     F2  461   0.342   1.318   1.520 -0.1037  0.0986  0.1473
   39HFI     F3  462   0.246   1.149   1.634  1.0026 -0.0772  0.2679
   39HFI     C3  463   0.515   1.074   1.632 -0.0557  0.3089 -0.1743
   39HFI     F4  464   0.540   1.191   1.696 -0.0520  0.4507 -0.0533
   39HFI     F5  465   0.637   1.021   1.606  0.5576  0.4661  0.1468
   39HFI     F6  466   0.455   0.994   1.719 -0.0457  0.1725 -0.0045
   39HFI     H1  467   0.535   1.242   1.409  1.5550 -0.5323  1.9397
   39HFI     H2  468   0.398   0.995   1.467  2.1294 -0.8911 -1.9497
   40HFI     O1  469   0.438   2.628   1.263  0.2153  0.0106  0.3112
   40HFI     C1  470   0.453   2.487   1.285  0.0352  0.0605 -0.0620
   40HFI     C2  471   0.462   2.453   1.439 -0.1647  0.1677 -0.3755
   40HFI     F1  472   0.382   2.538   1.511  0.3364 -0.0357 -0.2044
   40HFI     F2  473   0.589   2.474   1.479 -0.1661 -0.2482 -0.5039
   40HFI     F3  474   0.422   2.325   1.471  0.2137  0.1379 -0.2770
   40HFI     C3  475   0.571   2.426   1.199  0.1503 -0.1029 -0.0247
   40HFI     F4  476   0.678   2.502   1.209  0.6076 -0.3994  0.3275
   40HFI     F5  477   0.542   2.414   1.075 -0.0597 -0.0541 -0.8124
   40HFI     F6  478   0.605   2.302   1.244 -0.3869  0.2800 -0.0724
   40HFI     H1  479   0.527   2.668   1.260  0.6025 -0.9555 -2.0245
   40HFI     H2  480   0.363   2.430   1.257 -0.7668  1.7554 -1.0627
   41HFI     O1  481   1.134   0.562   1.608  0.1387  0.6189 -0.4923
   41HFI     C1  482   1.258   0.519   1.673 -0.6311 -0.3185 -0.2388
   41HFI     C2  483   1.384   0.611   1.628  0.5901  0.2883 -0.0653
   41HFI     F1  484   1.383   0.625   1.491 -0.2192 -0.3664  0.8784
   41HFI     F2  485   1.498   0.549   1.667 -0.0185 -0.0588  0.2958
   41HFI     F3  486   1.383   0.731   1.678  0.2473  0.2181 -0.3445
   41HFI     C3  487   1.274   0.365   1.651  0.7287 -0.3047  0.1276
   41HFI     F4  488   1.378   0.317   1.715  0.3098  0.3270 -0.5207
   41HFI     F5  489   1.281   0.330   1.528 -0.0300 -0.0745 -0.5982
   41HFI     F6  490   1.163   0.305   1.700  0.2234 -0.3557 -0.5311
   41HFI     H1  491   1.132   0.518   1.521  1.6988  1.3328 -0.9079
   41HFI     H2  492   1.249   0.537   1.781 -0.2164 -1.3275 -0.0219
   42HFI     O1  493   1.075   1.515   0.261  0.5472 -0.4737  0.0205
   42HFI     C1  494   1.035   1.415   0.357 -0.0798 -0.3571 -0.0845
   42HFI     C2  495   0.951   1.472   0.468  0.7550 -0.5500  0.1796
   42HFI     F1  496   0.839   1.528   0.420 -0.2412  0.0771  0.9375
   42HFI     F2  497   1.007   1.565   0.538  0.1105 -0.3619  1.1300
   42HFI     F3  498   0.905   1.386   0.554  0.0597 -0.0248  0.0782
   42HFI     C3  499   1.161   1.329   0.416  0.3958 -0.0294  0.3122
   42HFI     F4  500   1.264   1.389   0.481 -0.1015  0.2408 -0.2247
   42HFI     F5  501   1.215   1.267   0.311 -0.3572 -0.6284  0.0080
   42HFI     F6  502   1.109   1.237   0.497 -0.2674  0.0948  0.2469
   42HFI     H1  503   1.163   1.543   0.294 -0.5219  0.1225  2.5155
   42HFI     H2  504   0.973   1.343   0.301 -0.3737 -0.5600  0.5009
   43HFI     O1  505   1.821   3.374   0.733 -0.1201  0.1944 -0.0245
   43HFI     C1  506   1.774   3.446   0.847 -0.5356  0.0730 -0.2717
   43HFI     C2  507   1.737   3.597   0.819  0.4902 -0.9157 -0.1913
   43HFI     F1  508   1.670   3.652   0.927  0.3516  0.2392  0.0951
   43HFI     F2  509   1.663   3.613   0.709 -0.4459 -0.4374 -0.5561
   43HFI     F3  510   1.855   3.664   0.805  0.0914  0.1077 -0.2398
   43HFI     C3  511   1.857   3.416   0.973 -0.0090  0.1214  0.0098
   43HFI     F4  512   1.801   3.470   1.080 -0.4903 -0.5415 -0.1412
   43HFI     F5  513   1.981   3.477   0.965  0.2239  0.2509 -0.7141
   43HFI     F6  514   1.882   3.285   1.003  0.1782 -0.4805 -0.5815
   43HFI     H1  515   1.877   3.430   0.677 -1.8719  2.0822  0.0757
   43HFI     H2  516   1.677   3.397   0.863  0.4083 -0.8890  2.6813
   44HFI     O1  517   1.489   1.376   3.261 -0.0080 -0.2770  0.7508
   44HFI     C1  518   1.587   1.401   3.370 -0.3119  0.7325  0.6119
   44HFI     C2  519   1.738   1.426   3.312 -0.5173  0.1577 -0.2108
   44HFI     F1  520   1.733   1.541   3.244 -0.0777  0.1295 -0.1475
   44HFI     F2  521   1.774   1.326   3.226 -0.6354  0.0205 -0.1849
   44HFI     F3  522   1.833   1.435   3.413  0.2105 -0.0326  0.3932
   44HFI     C3  523   1.599   1.279   3.464  0.2033  0.1852  0.1929
   44HFI     F4  524   1.690   1.189   3.427  0.4784 -1.0568  0.7843
   44HFI     F5  525   1.479   1.218   3.475 -0.0320 -0.2544 -0.2327
   44HFI     F6  526   1.630   1.323   3.587 -0.0177  0.0157  0.7614
   44HFI     H1  527   1.497   1.286   3.227 -1.8224 -1.1720  2.5432
   44HFI     H2  528   1.548   1.483   3.432  2.1863  1.5769  1.1394
   45HFI     O1  529   0.392   1.268   1.068  0.3010 -0.2735  0.5909
   45HFI     C1  530   0.466   1.144   1.043  0.6592  0.2215 -0.2044
   45HFI     C2  531   0.611   1.174   0.986  0.3805 -0.1083  0.8759
   45HFI     F1  532   0.685   1.248   1.077 -0.2739 -0.3488  0.8141
   45HFI     F2  533   0.606   1.252   0.871 -0.1405  0.1329 -0.1261
   45HFI     F3  534   0.673   1.061   0.954  0.2054 -0.1719  0.0713
   45HFI     C3  535   0.377   1.051   0.951  0.3215  0.7118  0.4431
   45HFI     F4  536   0.343   1.102   0.836 -0.5037  0.5017 -0.1753
   45HFI     F5  537   0.260   1.043   1.030  0.1353 -0.0495  0.3300
   45HFI     F6  538   0.433   0.930   0.929 -0.3492 -0.4499  0.2503
   45HFI     H1  539   0.351   1.287   0.982 -0.0487 -0.2943  0.7484
   45HFI     H2  540   0.484   1.095   1.139  0.4414 -0.8454 -0.7034
   46HFI     O1  541   1.444   3.188   1.624  0.2828 -0.6083 -0.6623
   46HFI     C1  542   1.335   3.269   1.681  0.1411  0.0395  0.3126
   46HFI     C2  543   1.202   3.235   1.604  0.2250  0.2045  0.1585
   46HFI     F1  544   1.178   3.103   1.604 -0.0971  0.2890 -0.0006
   46HFI     F2  545   1.210   3.265   1.468  0.4771  0.0425  0.0886
   46HFI     F3  546   1.098   3.305   1.655  0.2978 -0.2983 -0.2184
   46HFI     C3  547   1.365   3.418   1.686  0.2860  0.1930  0.2996
   46HFI     F4  548   1.375   3.469   1.566 -0.0017 -0.2212 -0.0171
   46HFI     F5  549   1.475   3.459   1.746  0.7116 -0.6087  0.5746
   46HFI     F6  550   1.264   3.486   1.751  0.0311  0.0681 -0.1116
   46HFI     H1  551   1.410   3.110   1.577  0.2520 -1.8672  1.4070
   46HFI     H2  552   1.307   3.243   1.784 -1.9179  2.9834  0.5481
   47HFI     O1  553   0.441   1.229   1.999  0.2826 -0.1267 -0.4871
   47HFI     C1  554   0.304   1.179   1.996  0.1618 -0.2735 -0.0576
   47HFI     C2  555   0.207   1.295   1.955 -0.2403  0.8815  0.3399
   47HFI     F1  556   0.218   1.400   2.043 -0.6478 -0.1560  0.3654
   47HFI     F2  557   0.070   1.260   1.944  1.0264  0.3904  0.3168
   47HFI     F3  558   0.250   1.344   1.837  0.2130 -0.7201 -0.2432
   47HFI     C3  559   0.272   1.093   2.119 -0.3736 -0.1521  0.1823
   47HFI     F4  560   0.262   1.174   2.222 -0.3292 -0.1762  0.1572
   47HFI     F5  561   0.362   1.003   2.143 -0.0539  0.4267 -0.5480
   47HFI     F6  562   0.151   1.036   2.120  0.1318  0.0051 -0.0834
   47HFI     H1  563   0.463   1.300   2.061 -0.3658  0.8851 -1.3938
   47HFI     H2  564   0.298   1.113   1.909 -0.7786 -0.0046 -0.2053
   48HFI     O1  565   1.699   0.424   1.158 -0.9464 -0.0246  0.2992
   48HFI     C1  566   1.560   0.480   1.172 -1.0754  0.2185  0.2430
   48HFI     C2  567   1.454   0.379   1.125 -0.1013  0.3122  0.2439
   48HFI     F1  568   1.465   0.353   0.988  0.5490  0.3897 -0.3041
   48HFI     F2  569   1.317   0.405   1.146 -0.3466  0.2057  0.0737
   48HFI     F3  570   1.479   0.257   1.187  0.0225  0.0235 -0.4350
   48HFI     C3  571   1.536   0.614   1.086  1.0639  1.0216 -0.2580
   48HFI     F4  572   1.591   0.717   1.158 -0.1537  0.1814 -0.4432
   48HFI     F5  573   1.405   0.649   1.071  0.2207  0.6582 -0.3148
   48HFI     F6  574   1.599   0.614   0.968 -0.5151 -0.5551  0.3816
   48HFI     H1  575   1.698   0.359   1.085 -0.3171 -1.3267  1.4224
   48HFI     H2  576   1.541   0.508   1.277 -0.8565  1.5081 -0.0511
   49HFI     O1  577   0.379   3.447   2.982  0.5477 -0.1836 -0.2005
   49HFI     C1  578   0.434   3.580   2.988 -0.5094  0.5462 -0.5253
   49HFI     C2  579   0.561   3.585   3.078  0.9971 -0.3353  0.0406
   49HFI     F1  580   0.664   3.509   3.032  0.6486  0.5918 -0.0164
   49HFI     F2  581   0.544   3.532   3.199  0.2817  0.1070  0.9223
   49HFI     F3  582   0.613   3.709   3.083  0.9304  0.6901 -0.2681
   49HFI     C3  583   0.324   3.684   3.026  0.6482  0.2297  0.4016
   49HFI     F4  584   0.305   3.683   3.157  0.4815  0.1128  0.1989
   49HFI     F5  585   0.209   3.657   2.968 -0.2143  0.2673 -0.1051
   49HFI     F6  586   0.351   3.809   2.985 -0.3476  0.2502 -0.0632
   49HFI     H1  587   0.304   3.446   2.921 -0.4066  2.1190  0.8785
   49HFI     H2  588   0.464   3.610   2.887 -0.4070 -0.2922 -0.7423
   50HFI     O1  589   0.028   1.571   2.578 -0.0826  0.1247  0.1452
   50HFI     C1  590   0.071   1.604   2.437 -0.3163 -0.1513 -0.1136
   50HFI     C2  591   0.215   1.549   2.411 -0.2351 -0.3916 -0.2654
   50HFI     F1  592   0.224   1.411   2.434 -0.3972  0.5816  0.2771
   50HFI     F2  593   0.312   1.605   2.490 -0.2993  0.4357  0.1840
   50HFI     F3  594   0.256   1.574   2.288 -0.0987 -0.1149  0.5340
   50HFI     C3  595   0.037   1.759   2.404 -0.0692  0.1632  0.6876
   50HFI     F4  596  -0.094   1.781   2.375  0.7373 -0.0543  0.2457
   50HFI     F5  597   0.110   1.798   2.296 -0.0670 -0.8118 -0.1448
   50HFI     F6  598   0.072   1.841   2.507 -0.5321 -0.4668  0.0836
   50HFI     H1  599   0.060   1.645   2.632  0.4303 -0.3730  0.5306
   50HFI     H2  600  -0.003   1.548   2.379  0.9392 -1.3567 -0.5663
   51HFI     O1  601   0.394   0.050   0.086  0.1584  0.3375  0.4780
   51HFI     C1  602   0.301   0.137   0.018 -0.0561 -0.6888  0.2296
   51HFI     C2  603   0.363   0.280   0.007 -0.3964 -0.2051 -0.7310
   51HFI     F1  604   0.452   0.285  -0.098 -0.3202  0.3280  0.3254
   51HFI     F2  605   0.427   0.318   0.128  0.4927 -0.2416  0.2803
   51HFI     F3  606   0.271   0.374  -0.022 -0.6855  0.3095  0.0567
   51HFI     C3  607   0.164   0.125   0.094  0.3047  0.5342  0.0485
   51HFI     F4  608   0.158   0.210   0.195 -0.3829  0.2542  0.4563
   51HFI     F5  609   0.147   0.001   0.145  0.0930  0.6775  0.0254
   51HFI     F6  610   0.055   0.145   0.012  0.1073  0.3336 -0.3776
   51HFI     H1  611   0.351   0.000   0.157 -1.5829 -0.3929 -1.0577
   51HFI     H2  612   0.272   0.105  -0.083 -0.3856  0.3717 -0.0207
   52HFI     O1  613   0.595   3.232   2.695 -0.0433 -0.5497 -0.0245
   52HFI     C1  614   0.515   3.236   2.566  0.2634 -0.5887  0.1012
   52HFI     C2  615   0.558   3.363   2.479  0.1603  0.1740 -0.3529
   52HFI     F1  616   0.501   3.465   2.539  0.4295 -0.0324 -0.5729
   52HFI     F2  617   0.506   3.356   2.353  0.1364  0.0432  0.0962
   52HFI     F3  618   0.692   3.382   2.470  0.2422 -1.0069 -0.1124
   52HFI     C3  619   0.364   3.230   2.588 -0.1366 -0.0453 -0.1062
   52HFI     F4  620   0.304   3.341   2.634  0.0984 -0.6557 -0.1399
   52HFI     F5  621   0.334   3.142   2.681 -0.1566  0.1837  0.2579
   52HFI     F6  622   0.301   3.190   2.476  0.2560  0.6156 -0.2147
   52HFI     H1  623   0.542   3.187   2.763 -0.0927  1.8742  1.6001
   52HFI     H2  624   0.532   3.152   2.497 -1.1647  0.9678 -2.2208
   53HFI     O1  625   0.662   3.455   1.322  0.2980 -0.1161 -0.3629
   53HFI     C1  626   0.522   3.457   1.322  0.4718 -1.4390  0.0056
   53HFI     C2  627   0.471   3.562   1.213 -1.0331 -0.5230 -0.1883
   53HFI     F1  628   0.546   3.557   1.102  0.0905  0.3961 -0.3385
   53HFI     F2  629   0.471   3.691   1.256 -0.6244  0.4105  0.6676
   53HFI     F3  630   0.347   3.541   1.174  0.1935  0.2511  0.3313
   53HFI     C3  631   0.454   3.475   1.461 -0.6607 -0.5487  0.1603
   53HFI     F4  632   0.320   3.459   1.457 -0.2503 -0.4577  0.6045
   53HFI     F5  633   0.483   3.600   1.511 -0.1201  0.6069 -0.3882
   53HFI     F6  634   0.504   3.377   1.544  0.3869  0.1404 -0.2606
   53HFI     H1  635   0.689   3.392   1.391 -3.0860  0.4234  1.5572
   53HFI     H2  636   0.496   3.355   1.290 -0.7258 -0.9731 -0.5331
   54HFI     O1  637   0.933   0.520   0.778  0.6636  0.0408 -0.0857
   54HFI     C1  638   0.816   0.478   0.705  0.3998  0.8833 -0.1942
   54HFI     C2  639   0.686   0.500   0.782  0.5905  0.2636 -0.2273
   54HFI     F1  640   0.679   0.631   0.814 -0.6866  0.6332 -0.0950
   54HFI     F2  641   0.666   0.424   0.889  0.9875  0.5358  0.1333
   54HFI     F3  642   0.585   0.473   0.696 -0.2636 -0.4316 -0.3212
   54HFI     C3  643   0.834   0.331   0.645  0.2783  0.0791  0.9476
   54HFI     F4  644   0.727   0.274   0.584  0.1240 -0.0245  0.1812
   54HFI     F5  645   0.869   0.242   0.746 -0.3310 -0.0362 -0.0413
   54HFI     F6  646   0.934   0.331   0.550  0.1145  0.4280  0.0059
   54HFI     H1  647   0.909   0.501   0.871 -1.6740 -2.2640 -1.0846
   54HFI     H2  648   0.802   0.551   0.624  0.4583  2.3820  1.1395
   55HFI     O1  649   3.410   3.280   1.336 -0.1637  0.1933  0.1378
   55HFI     C1  650   3.289   3.209   1.393  0.2764  0.9050  0.1344
   55HFI     C2  651   3.164   3.300   1.388 -0.0179 -0.3265 -0.0416
   55HFI     F1  652   3.183   3.411   1.462 -0.1897  0.6089  0.4665
   55HFI     F2  653   3.049   3.245   1.428 -0.3701  0.4219  0.0581
   55HFI     F3  654   3.144   3.343   1.258 -0.4615 -0.6785  0.4119
   55HFI     C3  655   3.340   3.163   1.527 -0.0842 -0.4697 -0.1181
   55HFI     F4  656   3.391   3.279   1.586  0.2927 -0.1000  0.1793
   55HFI     F5  657   3.444   3.071   1.522  0.2099  0.0606  0.2901
   55HFI     F6  658   3.248   3.113   1.609 -0.1827 -0.0288 -0.3448
   55HFI     H1  659   3.403   3.376   1.349  1.0377  0.0638  1.9559
   55HFI     H2  660   3.262   3.113   1.347  1.8994  1.7892 -2.8221
   56HFI     O1  661   3.512   3.378   2.493 -0.0264 -0.0001  0.0042
   56HFI     C1  662   3.444   3.421   2.371 -0.1293  0.3945 -0.4183
   56HFI     C2  663   3.549   3.453   2.264 -0.3813  0.2194 -0.3503
   56HFI     F1  664   3.490   3.479   2.138 -0.2656 -0.0999 -0.0622
   56HFI     F2  665   3.628   3.349   2.236 -0.0404  0.1513  0.1533
   56HFI     F3  666   3.627   3.556   2.304  0.2769  0.0381  0.0504
   56HFI     C3  667   3.342   3.535   2.402  0.2796 -0.5543  0.2078
   56HFI     F4  668   3.264   3.544   2.294 -0.0816  0.0150  0.1706
   56HFI     F5  669   3.391   3.658   2.431  0.2136 -0.4392 -0.3006
   56HFI     F6  670   3.255   3.500   2.498 -0.5564 -0.6493 -0.5687
   56HFI     H1  671   3.543   3.286   2.487 -1.5509 -0.5120 -0.1923
   56HFI     H2  672   3.391   3.336   2.327  0.3144 -1.0131  1.6816
   57HFI     O1  673   0.831   3.015   2.455  0.6965 -0.1835 -0.0703
   57HFI     C1  674   0.798   2.872   2.435  0.6372 -0.4727 -0.4607
   57HFI     C2  675   0.878   2.811   2.315 -0.2820  0.2389  0.8753
   57HFI     F1  676   0.992   2.780   2.364 -0.5308  0.3419 -0.2406
   57HFI     F2  677   0.906   2.898   2.209 -0.2595  0.4957  0.3769
   57HFI     F3  678   0.833   2.687   2.264  0.1724 -0.1087 -0.1826
   57HFI     C3  679   0.652   2.842   2.417  0.0789  0.0056  0.2020
   57HFI     F4  680   0.618   2.873   2.291  0.1512  0.5382 -0.2558
   57HFI     F5  681   0.571   2.909   2.498 -0.0202 -0.0940  0.0401
   57HFI     F6  682   0.629   2.711   2.437  0.1378  0.6406 -0.1490
   57HFI     H1  683   0.836   3.053   2.366  0.2647 -1.2840 -0.5753
   57HFI     H2  684   0.823   2.815   2.526  0.1700  0.8252  0.4998
   58HFI     O1  685   0.504   1.632   0.860  0.0585  0.2114 -0.2282
   58HFI     C1  686   0.600   1.701   0.776 -0.1784  0.3400  0.7118
   58HFI     C2  687   0.662   1.829   0.851 -0.5853  0.4835  0.3283
   58HFI     F1  688   0.711   1.787   0.973  0.6556 -0.3081 -0.1751
   58HFI     F2  689   0.563   1.926   0.874 -0.6083 -0.2666  0.5066
   58HFI     F3  690   0.766   1.883   0.784 -0.0679 -0.3266  0.0084
   58HFI     C3  691   0.539   1.725   0.629  0.0844  0.3702 -0.3375
   58HFI     F4  692   0.403   1.743   0.638 -0.9660  0.0353 -0.0158
   58HFI     F5  693   0.568   1.614   0.554 -0.2785 -0.0106  0.4903
   58HFI     F6  694   0.591   1.832   0.568 -0.2677  0.4327  0.0561
   58HFI     H1  695   0.451   1.691   0.915 -1.4123  0.0840 -1.4651
   58HFI     H2  696   0.685   1.633   0.764 -0.5118 -0.2238  1.4431
   59HFI     O1  697   0.261   2.877   3.388  0.3645  0.7338 -0.8756
   59HFI     C1  698   0.123   2.926   3.398  0.1778  0.3240 -0.0565
   59HFI     C2  699   0.073   2.913   3.545 -0.2316 -0.2067  0.4032
   59HFI     F1  700  -0.043   2.989   3.550 -0.3910  0.7100 -0.2541
   59HFI     F2  701   0.162   2.954   3.639  0.0722  0.3373  0.0181
   59HFI     F3  702   0.030   2.795   3.578 -0.0957  0.3596 -0.1024
   59HFI     C3  703   0.036   2.859   3.292  0.5785  0.9463 -0.4199
   59HFI     F4  704   0.029   2.725   3.308  0.3809  0.5093 -0.0336
   59HFI     F5  705   0.076   2.888   3.168 -0.1340 -0.0685 -0.6565
   59HFI     F6  706  -0.094   2.903   3.301  0.2893  0.2226  0.4392
   59HFI     H1  707   0.256   2.781   3.375  1.6880  0.1228  2.5961
   59HFI     H2  708   0.121   3.033   3.377  1.5617  0.1946 -0.9219
   60HFI     O1  709   1.483   0.147   2.113 -0.8235  0.7797  0.1065
   60HFI     C1  710   1.589   0.264   2.112 -0.2722  0.7269 -0.4217
   60HFI     C2  711   1.519   0.388   2.173  0.8197  1.0210 -0.1641
   60HFI     F1  712   1.485   0.345   2.297  0.0255  0.1993 -0.6393
   60HFI     F2  713   1.406   0.429   2.108 -0.4341 -0.0746  0.2925
   60HFI     F3  714   1.602   0.497   2.195 -0.3193 -0.3450  0.0720
   60HFI     C3  715   1.655   0.294   1.974  0.1134 -0.6234  0.4238
   60HFI     F4  716   1.587   0.388   1.903  0.4166 -0.2435 -0.2588
   60HFI     F5  717   1.655   0.185   1.900 -0.6891  0.7350 -0.8115
   60HFI     F6  718   1.783   0.339   1.991 -0.1989 -0.3826  0.3197
   60HFI     H1  719   1.436   0.160   2.198 -0.1357 -1.7197  0.9121
   60HFI     H2  720   1.669   0.233   2.180 -1.1246 -1.5587 -0.3997
   61HFI     O1  721   0.780   2.173   0.643 -0.0543 -0.4913  0.2358
   61HFI     C1  722   0.692   2.263   0.713  0.6396 -0.3919 -0.7353
   61HFI     C2  723   0.553   2.258   0.641  0.7488 -0.1062  0.6828
   61HFI     F1  724   0.489   2.147   0.665  0.0413  0.1124 -0.1773
   61HFI     F2  725   0.563   2.275   0.507 -0.1909  0.3708 -0.0541
   61HFI     F3  726   0.465   2.361   0.674  0.1204 -0.3475  0.6922
   61HFI     C3  727   0.734   2.408   0.725 -0.8365 -0.5011  0.8559
   61HFI     F4  728   0.723   2.483   0.608 -0.0860  0.2855  0.1910
   61HFI     F5  729   0.866   2.421   0.757 -0.8709 -0.0418  0.2509
   61HFI     F6  730   0.668   2.469   0.824  0.1816  0.2655  0.5258
   61HFI     H1  731   0.826   2.210   0.565  1.6582 -1.0992  0.9314
   61HFI     H2  732   0.672   2.230   0.815  1.4007 -0.2652 -0.5387
   62HFI     O1  733   2.406   2.699   1.340 -0.3120  0.3866 -0.3508
   62HFI     C1  734   2.401   2.551   1.342  0.1118 -0.5901 -0.0035
   62HFI     C2  735   2.459   2.496   1.476 -0.1991  0.0332 -0.5463
   62HFI     F1  736   2.389   2.552   1.578 -0.0773  0.3180 -0.3941
   62HFI     F2  737   2.585   2.535   1.504  0.0402 -0.3905  0.4187
   62HFI     F3  738   2.442   2.361   1.492 -0.1014 -0.2141  0.1337
   62HFI     C3  739   2.474   2.481   1.223  0.6514  0.1032 -0.0888
   62HFI     F4  740   2.607   2.481   1.238 -0.5329  0.5404  0.1225
   62HFI     F5  741   2.434   2.539   1.103 -0.8898 -0.2191 -0.3364
   62HFI     F6  742   2.435   2.354   1.210 -0.0966  0.6884  0.0158
   62HFI     H1  743   2.476   2.725   1.276  0.2159 -0.3421 -0.0764
   62HFI     H2  744   2.294   2.529   1.334  0.2504 -2.1213  1.9974
   63HFI     O1  745   2.341   3.271   1.777  0.4526 -0.3611  0.2059
   63HFI     C1  746   2.442   3.341   1.696  0.7623 -0.2581  0.5142
   63HFI     C2  747   2.482   3.254   1.573 -0.4448 -0.3198  0.5872
   63HFI     F1  748   2.372   3.231   1.497 -0.4299  0.4683 -0.1737
   63HFI     F2  749   2.540   3.135   1.614  0.2015 -0.0810  0.5316
   63HFI     F3  750   2.574   3.317   1.499 -0.3356  0.3117 -0.1725
   63HFI     C3  751   2.556   3.411   1.784 -0.2353 -0.0124  0.2827
   63HFI     F4  752   2.634   3.319   1.853 -0.0531 -0.3229  0.4590
   63HFI     F5  753   2.493   3.493   1.874  0.4739  0.0880 -0.1562
   63HFI     F6  754   2.635   3.494   1.710  0.4133 -0.0937  0.0219
   63HFI     H1  755   2.387   3.207   1.833  0.0248 -1.2320 -0.4039
   63HFI     H2  756   2.392   3.427   1.650 -0.1954 -1.3829 -0.5871
   64HFI     O1  757   0.514   1.328   2.384  0.4841 -0.6820 -0.2567
   64HFI     C1  758   0.519   1.201   2.448  0.1640 -0.5764 -0.4882
   64HFI     C2  759   0.495   1.217   2.601  0.1187 -0.6061 -0.3516
   64HFI     F1  760   0.461   1.101   2.659  0.3329 -0.0856 -0.0461
   64HFI     F2  761   0.395   1.309   2.623  0.0850 -0.0180  0.2059
   64HFI     F3  762   0.608   1.265   2.657 -0.4866  0.0981 -0.0846
   64HFI     C3  763   0.649   1.124   2.408  0.1646  0.0496 -0.0949
   64HFI     F4  764   0.761   1.195   2.432 -0.3100  0.1035 -0.2853
   64HFI     F5  765   0.646   1.098   2.271  0.4892  0.1923  0.6851
   64HFI     F6  766   0.668   1.010   2.473  0.2094 -0.0498  0.1731
   64HFI     H1  767   0.573   1.390   2.430  0.9326 -1.4060  0.1346
   64HFI     H2  768   0.437   1.135   2.415  0.0328 -1.4655  1.5008
   65HFI     O1  769   2.441   3.079   0.469  0.0099 -0.0300 -0.1950
   65HFI     C1  770   2.536   3.099   0.579  0.6096  0.2671 -0.3065
   65HFI     C2  771   2.537   2.974   0.678 -0.1183  0.3795  0.4802
   65HFI     F1  772   2.634   2.882   0.647 -0.0370 -0.0251  0.0750
   65HFI     F2  773   2.418   2.905   0.663  0.4896 -0.2204 -0.4654
   65HFI     F3  774   2.551   3.004   0.810  0.1618  0.7830 -0.2237
   65HFI     C3  775   2.496   3.217   0.675 -0.1398 -0.2166  0.2226
   65HFI     F4  776   2.376   3.201   0.731 -0.3213 -0.1096  0.0878
   65HFI     F5  777   2.487   3.331   0.615 -0.4623 -0.4855 -0.3903
   65HFI     F6  778   2.594   3.242   0.768 -0.0799  0.0398  0.0951
   65HFI     H1  779   2.377   3.152   0.463 -2.4127 -2.0688  0.0149
   65HFI     H2  780   2.638   3.106   0.540  1.3326  1.5554  1.7430
   66HFI     O1  781   0.026   2.367   2.206  0.7481  0.1748  0.6410
   66HFI     C1  782   0.024   2.272   2.323  0.5086 -0.1801  0.3435
   66HFI     C2  783   0.163   2.191   2.351  0.3773  0.6343  0.5349
   66HFI     F1  784   0.283   2.261   2.338 -0.3465 -0.3961 -0.1626
   66HFI     F2  785   0.183   2.087   2.259  0.3582 -0.0725  0.1280
   66HFI     F3  786   0.161   2.139   2.473  0.0080  0.0952  0.4325
   66HFI     C3  787  -0.089   2.165   2.307  0.1963 -0.4173 -0.3975
   66HFI     F4  788  -0.079   2.089   2.190 -0.1188 -0.1406 -0.2117
   66HFI     F5  789  -0.201   2.241   2.294 -0.1253 -0.0785  0.0431
   66HFI     F6  790  -0.118   2.082   2.406 -0.1729  0.2861 -0.0525
   66HFI     H1  791  -0.045   2.429   2.228  0.5448  0.6600 -1.2672
   66HFI     H2  792   0.015   2.331   2.415  3.0127 -0.3080  0.7034
   67HFI     O1  793   0.113   0.891   1.350  0.2870  0.3522  0.2001
   67HFI     C1  794   0.050   0.898   1.484  0.8825  0.5839  0.0968
   67HFI     C2  795   0.118   0.794   1.586  0.5646  0.4041 -0.1203
   67HFI     F1  796   0.074   0.812   1.713  0.0445 -0.0564  0.3294
   67HFI     F2  797   0.252   0.809   1.579 -0.3098 -0.4844 -0.5086
   67HFI     F3  798   0.081   0.667   1.551 -0.1406 -0.8586 -0.4278
   67HFI     C3  799  -0.100   0.892   1.473 -0.7109  0.0021 -0.3115
   67HFI     F4  800  -0.152   0.770   1.477 -0.0791 -0.1414  0.1969
   67HFI     F5  801  -0.147   0.951   1.359  0.0047  1.0824 -0.0525
   67HFI     F6  802  -0.161   0.958   1.575  0.5137  0.3915 -0.4077
   67HFI     H1  803   0.057   0.859   1.278  0.2899  3.7925 -1.4342
   67HFI     H2  804   0.078   0.996   1.524 -1.6918  1.6166 -0.5612
   68HFI     O1  805   0.274   2.675   0.499 -0.7490  0.3482  0.5750
   68HFI     C1  806   0.401   2.717   0.551  0.7358 -0.0202 -0.5283
   68HFI     C2  807   0.379   2.820   0.675  0.1863  0.1590 -0.0855
   68HFI     F1  808   0.266   2.806   0.747 -0.1675  0.1761 -0.0845
   68HFI     F2  809   0.376   2.944   0.625  0.1080  0.0944  0.5700
   68HFI     F3  810   0.479   2.813   0.766  0.0701 -0.4250 -0.4455
   68HFI     C3  811   0.505   2.762   0.450  0.0964  0.5346  0.8144
   68HFI     F4  812   0.467   2.867   0.382 -0.0501 -0.0980 -0.0746
   68HFI     F5  813   0.537   2.662   0.371  0.0200 -0.0526  0.1840
   68HFI     F6  814   0.622   2.791   0.509  0.0899 -0.4479  0.2355
   68HFI     H1  815   0.224   2.756   0.481 -0.3244  0.3458 -0.6703
   68HFI     H2  816   0.445   2.633   0.606 -0.2477 -0.6458 -0.6987
   69HFI     O1  817   0.083   3.039   1.227 -0.0739  0.0767 -0.0211
   69HFI     C1  818   0.214   2.981   1.252  0.0359 -0.6726  0.2825
   69HFI     C2  819   0.285   3.054   1.377  0.4798  0.3130  0.3555
   69HFI     F1  820   0.288   3.187   1.361  0.0464 -0.0036  0.1455
   69HFI     F2  821   0.408   3.002   1.391  0.2311  0.0845 -0.4027
   69HFI     F3  822   0.217   3.035   1.489  0.0083 -0.1012  0.2262
   69HFI     C3  823   0.307   2.987   1.131  0.3126  0.4511  0.3660
   69HFI     F4  824   0.331   3.114   1.089 -0.0714  0.3771  0.4184
   69HFI     F5  825   0.246   2.934   1.023  0.4024 -0.1020 -0.0503
   69HFI     F6  826   0.419   2.919   1.149  0.1746 -0.5358 -0.3715
   69HFI     H1  827   0.045   3.085   1.304  0.7425  2.3374 -0.9296
   69HFI     H2  828   0.206   2.873   1.272 -0.2102 -0.2509  2.6140
   70HFI     O1  829   0.649   1.747   0.275 -0.1735 -0.8741 -0.0818
   70HFI     C1  830   0.541   1.687   0.188 -0.0277 -0.4269  0.1019
   70HFI     C2  831   0.408   1.638   0.256  0.3946 -0.2725  0.0130
   70HFI     F1  832   0.420   1.524   0.319  0.0719 -0.6189  0.3662
   70HFI     F2  833   0.312   1.621   0.160  0.0655  0.1294  0.2802
   70HFI     F3  834   0.372   1.728   0.347 -0.2420  0.5834 -0.0612
   70HFI     C3  835   0.606   1.585   0.088 -0.6599 -0.1439 -0.0061
   70HFI     F4  836   0.682   1.493   0.156 -0.4931 -0.1950 -0.2931
   70HFI     F5  837   0.692   1.650   0.004 -0.0767 -0.3241  0.1498
   70HFI     F6  838   0.512   1.518   0.014 -0.3123 -0.1560 -0.3846
   70HFI     H1  839   0.696   1.684   0.332  0.4450  0.3174  0.7431
   70HFI     H2  840   0.497   1.766   0.127 -2.1192 -0.5906  1.3809
   71HFI     O1  841   0.626   1.248   3.342  0.6860 -0.0686  0.7069
   71HFI     C1  842   0.518   1.197   3.264  0.2222  0.2651  0.5335
   71HFI     C2  843   0.381   1.265   3.308 -0.6034 -0.0054 -0.3255
   71HFI     F1  844   0.353   1.234   3.440 -0.4797  0.3538 -0.1359
   71HFI     F2  845   0.271   1.232   3.238  0.1219 -0.1790 -0.7005
   71HFI     F3  846   0.393   1.394   3.295 -0.2947 -0.0457 -0.2986
   71HFI     C3  847   0.516   1.047   3.272  0.2661 -0.1632 -0.0659
   71HFI     F4  848   0.385   1.001   3.259  0.2408 -1.0562  0.1983
   71HFI     F5  849   0.562   1.004   3.398  0.4091  0.3108 -0.0449
   71HFI     F6  850   0.596   0.995   3.176 -0.6324  0.2658 -0.2698
   71HFI     H1  851   0.596   1.251   3.435  1.0500 -3.0481  0.9588
   71HFI     H2  852   0.536   1.227   3.160  1.2015 -0.3479  0.5251
   72HFI     O1  853   0.957   0.065   1.132  0.2641  0.1149 -0.2065
   72HFI     C1  854   1.006   0.153   1.246 -0.2659  0.0968  0.1751
   72HFI     C2  855   1.043   0.068   1.372 -0.8343 -0.5967  0.1545
   72HFI     F1  856   1.168   0.017   1.348  0.2997 -0.4954  0.1146
   72HFI     F2  857   0.963  -0.036   1.387  0.6925  0.1664  0.0944
   72HFI     F3  858   1.051   0.137   1.487  0.2043  0.2321  0.3843
   72HFI     C3  859   0.898   0.259   1.275  0.1761 -0.3245  0.0049
   72HFI     F4  860   0.953   0.373   1.326  0.3701  0.3437  0.0405
   72HFI     F5  861   0.809   0.213   1.365 -0.0661 -0.4310  0.5974
   72HFI     F6  862   0.824   0.295   1.165 -0.2319  0.3255 -0.2195
   72HFI     H1  863   0.888   0.008   1.170  0.9840  0.5374  1.7754
   72HFI     H2  864   1.097   0.212   1.232 -1.0819  1.3740  0.0532
   73HFI     O1  865   3.030   2.402   1.211  0.5105 -0.4369  0.1804
   73HFI     C1  866   3.091   2.401   1.341  0.2726  0.1044 -0.0599
   73HFI     C2  867   3.123   2.252   1.381  0.1481 -0.2083  0.2146
   73HFI     F1  868   3.242   2.214   1.317  0.0118 -0.5449 -0.2268
   73HFI     F2  869   3.030   2.155   1.338  0.1968 -0.3323 -0.1484
   73HFI     F3  870   3.138   2.240   1.515 -0.2220  0.2241  0.0867
   73HFI     C3  871   3.017   2.487   1.441 -0.5374  0.7032 -0.4388
   73HFI     F4  872   2.914   2.414   1.494  0.4412 -0.8196  0.2272
   73HFI     F5  873   2.963   2.597   1.388  0.1185  0.1431 -0.1155
   73HFI     F6  874   3.094   2.521   1.546 -0.2414  0.0946 -0.0799
   73HFI     H1  875   2.979   2.320   1.200 -0.3442 -0.3312  3.1321
   73HFI     H2  876   3.186   2.450   1.317  0.3952  0.7397  1.7188
   74HFI     O1  877   0.847   2.349   1.452 -0.0394  0.0864  0.1002
   74HFI     C1  878   0.846   2.247   1.561  0.0103 -0.4235 -0.0773
   74HFI     C2  879   0.898   2.295   1.700 -0.4701  0.4533  0.5004
   74HFI     F1  880   1.032   2.286   1.701  0.6481 -0.1681  0.5175
   74HFI     F2  881   0.860   2.215   1.806 -0.4641 -0.4166  0.6322
   74HFI     F3  882   0.865   2.422   1.723 -0.0268 -0.1303  0.3870
   74HFI     C3  883   0.888   2.099   1.509  0.3636  0.1238 -0.0947
   74HFI     F4  884   0.889   2.013   1.611 -0.0651 -0.4493  0.1181
   74HFI     F5  885   1.013   2.096   1.459  0.6132 -0.4501 -0.2551
   74HFI     F6  886   0.807   2.057   1.406  0.3572 -0.3465  0.1966
   74HFI     H1  887   0.939   2.371   1.430 -0.4354  0.8297 -0.8870
   74HFI     H2  888   0.739   2.231   1.581 -0.9999  1.8006 -3.3083
   75HFI     O1  889   0.473   0.745   0.558 -0.8367 -1.2285  0.4932
   75HFI     C1  890   0.382   0.780   0.443  0.2223 -0.3082  0.1777
   75HFI     C2  891   0.287   0.892   0.482 -0.4617  0.1376 -0.0993
   75HFI     F1  892   0.227   0.938   0.377  0.1522 -0.0909 -0.3070
   75HFI     F2  893   0.362   0.984   0.538 -0.2691  0.4658 -0.3661
   75HFI     F3  894   0.199   0.849   0.570 -0.3926  0.1671  0.8864
   75HFI     C3  895   0.308   0.651   0.392  0.7192 -0.1441  0.9280
   75HFI     F4  896   0.222   0.587   0.474  0.3354  0.1913  0.1695
   75HFI     F5  897   0.395   0.558   0.348  0.3028  0.3284 -0.0877
   75HFI     F6  898   0.228   0.689   0.279 -0.3678  0.0915  0.3294
   75HFI     H1  899   0.489   0.822   0.616 -0.0015 -1.5207  0.6610
   75HFI     H2  900   0.443   0.814   0.358 -0.5323  1.0965  0.1794
   76HFI     O1  901   0.532   1.695   2.755 -0.6862  0.6501 -0.0808
   76HFI     C1  902   0.529   1.565   2.824 -0.0771 -0.0984  1.2415
   76HFI     C2  903   0.378   1.542   2.862 -0.3022  0.0177  0.0235
   76HFI     F1  904   0.289   1.593   2.772 -0.0549  0.3406 -0.0874
   76HFI     F2  905   0.352   1.595   2.980 -0.0051 -0.2807 -0.6434
   76HFI     F3  906   0.353   1.410   2.879 -0.5795  0.6516 -0.2141
   76HFI     C3  907   0.635   1.552   2.941  0.1404  0.0609  0.0714
   76HFI     F4  908   0.668   1.665   3.011 -0.0938  0.1979  0.4209
   76HFI     F5  909   0.755   1.508   2.891  0.0490 -0.1354  0.2944
   76HFI     F6  910   0.600   1.456   3.030  0.2055  0.1442  0.0876
   76HFI     H1  911   0.441   1.725   2.738 -1.2432 -0.9616 -0.0422
   76HFI     H2  912   0.556   1.490   2.749 -1.9255  0.1682  0.2876
   77HFI     O1  913   0.300   0.652   2.181  0.3381  0.5690  0.3802
   77HFI     C1  914   0.436   0.680   2.224 -0.0350  0.0768 -0.0160
   77HFI     C2  915   0.512   0.553   2.203 -0.0328 -0.3950 -0.0740
   77HFI     F1  916   0.492   0.515   2.074 -0.6612 -0.7004  0.5136
   77HFI     F2  917   0.461   0.450   2.271 -0.0900 -0.1215 -0.2375
   77HFI     F3  918   0.640   0.566   2.237 -0.6772 -0.5844 -0.6313
   77HFI     C3  919   0.437   0.727   2.372  0.4394 -0.0559 -0.3739
   77HFI     F4  920   0.373   0.642   2.452  0.1679 -0.1548 -0.8860
   77HFI     F5  921   0.382   0.850   2.387  0.1449  0.2509 -0.4470
   77HFI     F6  922   0.560   0.739   2.425  0.1858  0.3353  0.4504
   77HFI     H1  923   0.254   0.599   2.248  1.8828 -1.6807 -0.3129
   77HFI     H2  924   0.492   0.758   2.171 -0.0655  0.9346  1.1971
   78HFI     O1  925   0.884   2.573   0.342  0.6625  1.5939  0.6105
   78HFI     C1  926   1.022   2.611   0.332  0.8098 -0.5788  0.0480
   78HFI     C2  927   1.119   2.526   0.408 -1.1470  0.7200  0.5441
   78HFI     F1  928   1.084   2.395   0.387  0.2133  0.4657  0.0208
   78HFI     F2  929   1.119   2.550   0.542 -0.2331  0.4136 -0.0269
   78HFI     F3  930   1.247   2.542   0.375  0.3729 -0.1759 -0.2397
   78HFI     C3  931   1.034   2.759   0.365  0.4577 -0.3102 -0.5877
   78HFI     F4  932   0.936   2.827   0.292 -0.2138  0.0737 -0.1462
   78HFI     F5  933   1.153   2.811   0.329  0.3395 -0.2991 -0.1774
   78HFI     F6  934   1.015   2.779   0.497  0.4303  0.0769 -0.0327
   78HFI     H1  935   0.833   2.637   0.290  1.9224  1.6695 -0.5705
   78HFI     H2  936   1.061   2.604   0.230  2.1239  0.9786  0.4185
   79HFI     O1  937   2.591   2.754   1.112 -0.8840  0.3787  0.6433
   79HFI     C1  938   2.727   2.795   1.149 -0.6920 -0.0170 -0.2091
   79HFI     C2  939   2.751   2.944   1.178  0.4502 -0.0188  0.4440
   79HFI     F1  940   2.639   2.985   1.248  0.3377 -0.2283  0.1630
   79HFI     F2  941   2.760   3.017   1.062 -0.1156  0.0287  0.1184
   79HFI     F3  942   2.859   2.970   1.257 -0.5108 -0.2090  0.0405
   79HFI     C3  943   2.827   2.737   1.052 -0.3009 -0.2463 -0.4649
   79HFI     F4  944   2.801   2.766   0.928 -0.2038  0.0123  0.6668
   79HFI     F5  945   2.818   2.599   1.058  0.3314  0.0769 -0.4663
   79HFI     F6  946   2.956   2.774   1.080 -0.2470 -0.2717  0.3617
   79HFI     H1  947   2.571   2.788   1.023 -0.0855 -2.3178 -0.6320
   79HFI     H2  948   2.743   2.746   1.246 -0.3615 -1.9309 -1.2070
   80HFI     O1  949   1.109   1.137   2.895  0.3472  0.3079  0.3406
   80HFI     C1  950   0.992   1.057   2.869 -0.0156 -0.2174  0.3200
   80HFI     C2  951   0.865   1.137   2.833 -0.4849  0.0237  0.1911
   80HFI     F1  952   0.760   1.056   2.807  0.4206 -0.2325  0.1671
   80HFI     F2  953   0.876   1.204   2.717  0.2568 -0.0712  0.2715
   80HFI     F3  954   0.817   1.228   2.928  0.1231 -0.1266  0.0746
   80HFI     C3  955   0.961   0.960   2.989  0.9150 -0.1762  0.0969
   80HFI     F4  956   0.894   1.022   3.089  0.6868 -0.6669 -0.1958
   80HFI     F5  957   1.078   0.906   3.041  0.4639 -0.1731  0.0936
   80HFI     F6  958   0.884   0.857   2.941 -0.0075  0.0727  0.3557
   80HFI     H1  959   1.097   1.174   2.985 -0.7653  0.8670 -0.0281
   80HFI     H2  960   1.005   0.986   2.787 -2.0576  0.7835 -0.8840
   81HFI     O1  961   0.436   3.175   3.340  0.1495  0.0323 -0.0498
   81HFI     C1  962   0.467   3.181   3.195  0.4726 -0.4636 -0.0080
   81HFI     C2  963   0.356   3.135   3.106 -0.9744 -0.2518 -0.6125
   81HFI     F1  964   0.374   3.168   2.974  0.6450  0.6029  0.5879
   81HFI     F2  965   0.241   3.191   3.149 -0.0101 -0.3537  0.5095
   81HFI     F3  966   0.342   3.004   3.109  0.0165  0.7593 -0.0125
   81HFI     C3  967   0.604   3.134   3.153  0.3711  0.1154  0.2939
   81HFI     F4  968   0.606   2.999   3.170  0.4159 -0.5976 -0.6906
   81HFI     F5  969   0.708   3.189   3.225  0.1113  0.0217  0.0952
   81HFI     F6  970   0.637   3.169   3.028  0.2073 -0.3236  0.2859
   81HFI     H1  971   0.444   3.085   3.377 -0.3078  0.5936  1.4598
   81HFI     H2  972   0.468   3.284   3.157 -0.8796 -0.5064 -0.1751
   82HFI     O1  973   0.125   2.892   0.435  0.4260  0.1962  0.4058
   82HFI     C1  974   0.011   2.973   0.482 -0.9135  0.2903  0.5562
   82HFI     C2  975  -0.122   2.897   0.439  0.2931 -0.4064  0.0177
   82HFI     F1  976  -0.125   2.771   0.496  0.1207 -0.5445 -0.1093
   82HFI     F2  977  -0.117   2.880   0.302  0.2729 -0.1605 -0.0116
   82HFI     F3  978  -0.230   2.973   0.471  0.0412  0.3830 -0.5531
   82HFI     C3  979   0.017   3.125   0.423 -0.0010 -0.2023 -0.8290
   82HFI     F4  980   0.028   3.128   0.294 -0.0150  0.3226  0.0059
   82HFI     F5  981   0.118   3.193   0.475 -0.0229 -0.8461  0.2423
   82HFI     F6  982  -0.093   3.194   0.451  0.7504  0.1162 -0.6945
   82HFI     H1  983   0.154   2.934   0.352 -1.9085  0.5690 -0.2543
   82HFI     H2  984   0.011   2.980   0.592 -1.2650 -1.0731  0.6468
   83HFI     O1  985   1.024   0.401   2.131  0.2081 -0.8548  0.2591
   83HFI     C1  986   0.957   0.277   2.157 -0.1618  0.0756  0.8942
   83HFI     C2  987   1.055   0.165   2.174 -0.2276 -0.0745  0.6612
   83HFI     F1  988   1.164   0.202   2.249 -0.4484  0.2568 -0.0051
   83HFI     F2  989   1.098   0.132   2.050  0.1077 -0.5418 -0.2833
   83HFI     F3  990   1.000   0.058   2.239  0.1028  0.0425  0.0733
   83HFI     C3  991   0.852   0.241   2.045 -0.3976 -0.2019 -0.6916
   83HFI     F4  992   0.893   0.257   1.922 -0.6850 -0.5493 -0.2295
   83HFI     F5  993   0.747   0.326   2.060  0.0921 -0.3580 -0.0699
   83HFI     F6  994   0.801   0.118   2.054  0.0084 -0.5993  0.2527
   83HFI     H1  995   1.003   0.429   2.040  0.1268 -1.5765  0.0546
   83HFI     H2  996   0.892   0.285   2.246 -0.9306  3.0085  0.1250
   84HFI     O1  997   0.922   0.959   1.799 -0.0059  0.3443 -0.4913
   84HFI     C1  998   0.933   0.901   1.933 -0.1550  0.3602 -0.7290
   84HFI     C2  999   1.021   0.778   1.931 -0.2225  0.2276  0.1072
   84HFI     F1 1000   1.135   0.815   1.860 -0.0073  0.4075  0.1595
   84HFI     F2 1001   0.957   0.671   1.867 -0.1442 -0.4177  0.3891
   84HFI     F3 1002   1.054   0.734   2.056 -1.1599  0.0645  0.0715
   84HFI     C3 1003   0.796   0.887   2.016 -0.1154  0.3006  0.3968
   84HFI     F4 1004   0.730   0.776   1.987 -0.1815  0.0738  0.0977
   84HFI     F5 1005   0.718   0.990   1.975 -0.4599  0.2159  0.3757
   84HFI     F6 1006   0.806   0.889   2.147  0.5503 -0.5449 -0.5501
   84HFI     H1 1007   0.996   0.941   1.739 -0.3300  0.2153 -0.8603
   84HFI     H2 1008   0.983   0.970   2.002 -0.6220  1.6852 -1.7060
   85HFI     O1 1009   0.649   2.501   3.476  0.0742 -0.2035  0.1822
   85HFI     C1 1010   0.551   2.588   3.535  0.1099  0.5376 -0.0184
   85HFI     C2 1011   0.411   2.555   3.491 -0.2296 -0.3736 -0.2255
   85HFI     F1 1012   0.378   2.425   3.481 -0.5258 -0.6999 -0.0441
   85HFI     F2 1013   0.381   2.611   3.372 -0.3880  0.6391 -0.1923
   85HFI     F3 1014   0.317   2.600   3.577  0.0532 -0.3775  0.2906
   85HFI     C3 1015   0.588   2.739   3.538  0.8994  0.0604 -0.0760
   85HFI     F4 1016   0.648   2.784   3.428  0.3992  0.0577  0.3268
   85HFI     F5 1017   0.671   2.758   3.642  0.4319 -0.1317  0.0785
   85HFI     F6 1018   0.483   2.817   3.555 -0.0266 -0.5720  0.2547
   85HFI     H1 1019   0.618   2.479   3.386  0.1829  1.6854 -0.3518
   85HFI     H2 1020   0.547   2.567   3.642 -1.3473  1.0975  0.0509
   86HFI     O1 1021   0.482   2.738   1.726  0.2327 -0.4365 -0.1984
   86HFI     C1 1022   0.488   2.826   1.841 -0.6336  0.0463  0.6265
   86HFI     C2 1023   0.426   2.962   1.808  0.4841  0.4451  0.0379
   86HFI     F1 1024   0.440   3.057   1.898 -0.1067 -0.2734  0.4445
   86HFI     F2 1025   0.295   2.955   1.783 -0.4460  0.1077 -0.0769
   86HFI     F3 1026   0.472   3.006   1.690  0.6371  0.0230 -0.1248
   86HFI     C3 1027   0.637   2.837   1.885  0.5238 -1.2088  0.9093
   86HFI     F4 1028   0.716   2.898   1.790 -0.0682 -0.0994 -0.9659
   86HFI     F5 1029   0.692   2.717   1.917 -0.1920 -0.0540 -0.0674
   86HFI     F6 1030   0.637   2.911   1.999  0.0831  0.4170  0.2373
   86HFI     H1 1031   0.398   2.752   1.679  0.1901  1.4737  0.4018
   86HFI     H2 1032   0.439   2.773   1.924 -1.8807 -1.1367 -0.8288
   87HFI     O1 1033   1.173   3.057   0.112 -0.4437 -0.2383  0.7464
   87HFI     C1 1034   1.291   3.138   0.131  0.1256 -0.3085  0.3197
   87HFI     C2 1035   1.414   3.060   0.191 -0.3222 -0.1778 -0.0919
   87HFI     F1 1036   1.442   2.963   0.102  0.4463  0.1236  0.3107
   87HFI     F2 1037   1.393   3.005   0.313 -0.6139  0.7509  0.2158
   87HFI     F3 1038   1.520   3.138   0.194 -0.4545 -0.0717  1.3207
   87HFI     C3 1039   1.265   3.259   0.219  0.0799  0.6568  0.0937
   87HFI     F4 1040   1.367   3.351   0.207  0.2043 -0.1444  0.1035
   87HFI     F5 1041   1.247   3.224   0.355 -0.0059 -0.3629  0.0008
   87HFI     F6 1042   1.150   3.329   0.174 -0.4590  0.6837  0.4912
   87HFI     H1 1043   1.111   3.057   0.187 -0.8493  3.2730  0.4955
   87HFI     H2 1044   1.322   3.176   0.033  0.1473  1.1361  0.8789
   88HFI     O1 1045   0.238   0.389   2.555 -0.2451 -0.0514 -0.1111
   88HFI     C1 1046   0.098   0.370   2.557  0.2364 -0.2695 -0.5477
   88HFI     C2 1047   0.018   0.497   2.520  0.0207 -0.0748 -0.5245
   88HFI     F1 1048   0.060   0.553   2.406  0.0050  0.1080 -0.0431
   88HFI     F2 1049   0.046   0.585   2.618 -0.3750 -0.1940 -0.0678
   88HFI     F3 1050  -0.113   0.471   2.505  0.3038  0.1278 -0.1703
   88HFI     C3 1051   0.062   0.303   2.698 -0.1483 -0.3014 -0.8349
   88HFI     F4 1052   0.105   0.388   2.802 -0.1003  0.6171 -0.0065
   88HFI     F5 1053   0.122   0.188   2.716 -0.7134 -0.2613 -0.1681
   88HFI     F6 1054  -0.074   0.279   2.712  0.0670 -0.1960 -0.0100
   88HFI     H1 1055   0.260   0.442   2.633 -0.9249  1.7963 -1.1560
   88HFI     H2 1056   0.057   0.303   2.480 -0.6699 -0.4226  0.0499
   89HFI     O1 1057   0.559   0.630   1.613 -0.2479 -0.5936 -0.2925
   89HFI     C1 1058   0.561   0.509   1.692 -0.1953  0.4811  0.2230
   89HFI     C2 1059   0.669   0.409   1.637 -0.4259 -0.5959  0.9081
   89HFI     F1 1060   0.794   0.460   1.654 -0.2921 -0.1157 -0.0535
   89HFI     F2 1061   0.644   0.385   1.513  0.0377  0.3842  0.2507
   89HFI     F3 1062   0.658   0.301   1.709  0.3059  0.1752  0.3344
   89HFI     C3 1063   0.416   0.463   1.723  0.2019 -0.8691  0.2051
   89HFI     F4 1064   0.408   0.387   1.833 -0.3116 -0.5609 -0.1570
   89HFI     F5 1065   0.353   0.398   1.619  0.3296 -0.0735 -0.0397
   89HFI     F6 1066   0.345   0.582   1.736  0.0316 -0.9140 -0.0572
   89HFI     H1 1067   0.477   0.678   1.632  0.3213  1.1770 -2.1700
   89HFI     H2 1068   0.602   0.532   1.790 -0.3957  2.9742 -0.2501
   90HFI     O1 1069   3.075   2.537   2.409  0.0098  0.3348  0.0370
   90HFI     C1 1070   3.080   2.677   2.419 -0.7184 -0.5490 -0.0104
   90HFI     C2 1071   2.947   2.739   2.369  0.2353 -0.5862 -0.3776
   90HFI     F1 1072   2.848   2.676   2.424 -0.3798  0.2207 -0.5400
   90HFI     F2 1073   2.934   2.736   2.235  0.3569 -0.0403 -0.1530
   90HFI     F3 1074   2.936   2.862   2.400 -0.3687 -0.1617  0.1761
   90HFI     C3 1075   3.215   2.735   2.362 -0.0271  0.1396  0.3886
   90HFI     F4 1076   3.221   2.867   2.372  0.7742  0.1056 -0.0984
   90HFI     F5 1077   3.219   2.707   2.231  0.5697 -0.0968  0.2618
   90HFI     F6 1078   3.326   2.680   2.409 -0.2037  0.8107  0.0432
   90HFI     H1 1079   3.039   2.508   2.324 -0.2542 -0.2509  0.3413
   90HFI     H2 1080   3.084   2.705   2.525 -2.2460  0.9995 -0.3282
   91HFI     O1 1081   0.971   1.809   2.183  0.5820  0.6804  0.6699
   91HFI     C1 1082   0.966   1.909   2.085  1.1646 -0.7229  0.1363
   91HFI     C2 1083   1.031   1.871   1.949  1.0819  0.2064  0.6601
   91HFI     F1 1084   0.957   1.774   1.889 -0.0579  0.6745 -0.0786
   91HFI     F2 1085   1.155   1.827   1.960 -0.2676  0.0488 -0.2194
   91HFI     F3 1086   1.040   1.980   1.867 -0.0318 -0.2527 -0.3451
   91HFI     C3 1087   1.025   2.040   2.148 -0.5599  0.6216  0.1321
   91HFI     F4 1088   0.969   2.143   2.075  0.0550 -0.0853 -0.0398
   91HFI     F5 1089   1.161   2.039   2.148 -0.2247  0.0850 -0.0809
   91HFI     F6 1090   0.984   2.058   2.284 -0.2189  0.0046  0.2910
   91HFI     H1 1091   1.057   1.762   2.188  0.2348 -0.1407 -0.7192
   91HFI     H2 1092   0.859   1.925   2.066  0.9012 -3.2992 -0.8718
   92HFI     O1 1093   0.975   2.454   1.184 -0.1859  0.0231  0.2817
   92HFI     C1 1094   1.022   2.382   1.064 -0.4036 -0.9498  0.2554
   92HFI     C2 1095   0.984   2.233   1.069  0.3983  0.1599  0.2822
   92HFI     F1 1096   0.848   2.222   1.056 -0.4971  0.3340  0.2120
   92HFI     F2 1097   1.010   2.182   1.192 -0.0610 -0.5535  0.5687
   92HFI     F3 1098   1.040   2.154   0.973 -0.8045  0.4801 -0.0539
   92HFI     C3 1099   1.169   2.389   1.041  0.6341 -0.6773  0.1171
   92HFI     F4 1100   1.212   2.519   1.063  0.6786  0.0176 -0.0091
   92HFI     F5 1101   1.196   2.361   0.915  0.0995  0.2640 -0.5289
   92HFI     F6 1102   1.246   2.309   1.128 -0.0272  0.1461 -0.4199
   92HFI     H1 1103   0.879   2.464   1.173 -0.4677 -0.1162  2.4331
   92HFI     H2 1104   0.977   2.417   0.970  1.2958 -1.6478 -0.8641
   93HFI     O1 1105   0.160   2.451   0.269 -0.3219 -0.0980 -0.7057
   93HFI     C1 1106   0.214   2.371   0.375  0.2525  0.5227 -1.4357
   93HFI     C2 1107   0.244   2.220   0.328 -0.4253  0.6791 -0.5529
   93HFI     F1 1108   0.361   2.216   0.254 -0.0499 -0.2749  0.4253
   93HFI     F2 1109   0.149   2.154   0.252 -0.5160  0.4205 -0.1114
   93HFI     F3 1110   0.262   2.144   0.439 -0.7381 -0.1959 -0.1267
   93HFI     C3 1111   0.124   2.370   0.505 -0.4625  0.2207  0.3714
   93HFI     F4 1112   0.028   2.275   0.506  0.3170 -0.1099 -0.5161
   93HFI     F5 1113   0.062   2.490   0.517 -0.3022  0.3221  0.1607
   93HFI     F6 1114   0.203   2.351   0.611 -0.3921  0.0516  0.0670
   93HFI     H1 1115   0.066   2.428   0.260 -0.4852  0.7600 -1.1951
   93HFI     H2 1116   0.315   2.405   0.403  0.5173 -0.6994 -0.8979
   94HFI     O1 1117   1.544   0.734   3.041  0.1133 -0.1533 -1.2726
   94HFI     C1 1118   1.610   0.859   3.004  0.6343 -0.2580  0.7115
   94HFI     C2 1119   1.761   0.859   3.031 -0.0893  0.5995  0.5496
   94HFI     F1 1120   1.818   0.787   2.936 -0.3380 -0.0925 -0.4823
   94HFI     F2 1121   1.797   0.800   3.150  0.3228 -0.0863 -0.0463
   94HFI     F3 1122   1.818   0.980   3.013 -0.0466 -0.9634 -0.1767
   94HFI     C3 1123   1.530   0.977   3.068 -0.0927  0.9086 -0.0240
   94HFI     F4 1124   1.551   0.989   3.197 -0.0567  0.0956  0.3920
   94HFI     F5 1125   1.394   0.960   3.042  0.1247 -0.3975 -0.0946
   94HFI     F6 1126   1.542   1.096   3.006  0.0213 -0.3572  0.1828
   94HFI     H1 1127   1.609   0.682   3.093  0.3183  0.9614 -0.3973
   94HFI     H2 1128   1.602   0.871   2.895  2.2645  0.9164  0.7030
   95HFI     O1 1129   0.724   0.604   1.139 -0.0385 -0.7382  0.3309
   95HFI     C1 1130   0.724   0.709   1.240 -0.6088 -0.3448 -0.7070
   95HFI     C2 1131   0.587   0.769   1.261 -0.0404 -0.6942 -0.0016
   95HFI     F1 1132   0.496   0.672   1.265 -0.3869 -0.1413  0.0192
   95HFI     F2 1133   0.551   0.849   1.162  0.2742  0.2131 -0.1726
   95HFI     F3 1134   0.586   0.841   1.374  0.4551 -0.0969 -0.0420
   95HFI     C3 1135   0.837   0.814   1.219  0.2666  0.2469 -0.1788
   95HFI     F4 1136   0.811   0.879   1.109 -0.3711 -0.4537 -0.4784
   95HFI     F5 1137   0.965   0.767   1.213 -0.8094 -0.4539  0.2659
   95HFI     F6 1138   0.834   0.911   1.312 -0.4014  0.2203 -0.2744
   95HFI     H1 1139   0.644   0.552   1.158 -1.7522  1.5858 -0.2417
   95HFI     H2 1140   0.750   0.671   1.339  3.3226  0.2264 -1.4315
   96HFI     O1 1141   1.162   1.288   2.572 -0.3528  0.1071  0.0704
   96HFI     C1 1142   1.263   1.191   2.525 -0.0741 -0.1309 -1.1272
   96HFI     C2 1143   1.384   1.258   2.469 -0.8741 -0.1981  0.7406
   96HFI     F1 1144   1.430   1.358   2.550 -0.2808  0.1767 -0.2218
   96HFI     F2 1145   1.345   1.314   2.351 -0.3551 -0.2067 -0.2344
   96HFI     F3 1146   1.483   1.168   2.447 -0.3380 -0.2621 -0.2918
   96HFI     C3 1147   1.199   1.079   2.436  0.0849 -0.1091  0.3950
   96HFI     F4 1148   1.223   1.086   2.302 -0.0074 -0.1863 -0.0484
   96HFI     F5 1149   1.065   1.078   2.454 -0.0037 -0.2530 -0.1075
   96HFI     F6 1150   1.230   0.959   2.487 -0.4306  0.2176  0.3099
   96HFI     H1 1151   1.087   1.236   2.607 -1.4421  0.6887 -1.3549
   96HFI     H2 1152   1.293   1.127   2.609  1.7819  0.8177 -1.0542
   97HFI     O1 1153   3.504   1.449   0.729 -0.1197  0.3642  0.2197
   97HFI     C1 1154   3.606   1.370   0.661 -0.2338 -0.3627  0.1782
   97HFI     C2 1155   3.559   1.217   0.648 -0.1613 -0.0827 -0.2902
   97HFI     F1 1156   3.640   1.145   0.573  0.0202 -0.2614 -0.0568
   97HFI     F2 1157   3.438   1.203   0.600  0.6225  0.0412  0.2849
   97HFI     F3 1158   3.556   1.153   0.771  0.0603  0.3590 -0.4579
   97HFI     C3 1159   3.741   1.404   0.723  0.1018  0.4073  0.3371
   97HFI     F4 1160   3.757   1.348   0.845  0.1961 -0.7102  0.2354
   97HFI     F5 1161   3.751   1.539   0.733 -0.1441 -0.2340  0.2603
   97HFI     F6 1162   3.843   1.355   0.646 -0.7936 -0.1469  0.0153
   97HFI     H1 1163   3.465   1.512   0.666 -0.4053 -0.1331 -0.1003
   97HFI     H2 1164   3.607   1.413   0.560  1.3662  0.5294  0.5573
   98HFI     O1 1165   0.697   2.204   2.307  0.0054  0.4253 -0.3438
   98HFI     C1 1166   0.648   2.181   2.449 -0.5389 -0.0077 -0.1742
   98HFI     C2 1167   0.751   2.226   2.550 -1.5160 -0.0320  0.5956
   98HFI     F1 1168   0.707   2.206   2.678  0.3041 -0.4080  0.7188
   98HFI     F2 1169   0.780   2.357   2.542  0.1926  0.5864 -0.0597
   98HFI     F3 1170   0.872   2.163   2.538  0.2688 -0.0292 -0.3306
   98HFI     C3 1171   0.601   2.032   2.458 -0.0549  0.4129  0.0457
   98HFI     F4 1172   0.587   1.993   2.583 -0.0615  0.0614 -0.8088
   98HFI     F5 1173   0.675   1.949   2.389 -0.2040  0.2468 -0.1672
   98HFI     F6 1174   0.474   2.024   2.402  0.1347 -0.3072  0.0512
   98HFI     H1 1175   0.792   2.186   2.300  0.2947  1.9160 -0.5252
   98HFI     H2 1176   0.558   2.242   2.464 -0.7413 -0.1364 -0.8496
   99HFI     O1 1177   0.109   1.601   0.386  0.1015  0.6169 -0.2142
   99HFI     C1 1178   0.016   1.694   0.323  0.1784 -0.3961 -0.2461
   99HFI     C2 1179   0.020   1.833   0.387 -0.1006  0.7143  0.3678
   99HFI     F1 1180   0.145   1.888   0.368  0.6331  0.1609 -0.5881
   99HFI     F2 1181  -0.014   1.837   0.521 -0.0325  0.1116  0.0206
   99HFI     F3 1182  -0.070   1.907   0.324  0.4226  0.1165  0.6237
   99HFI     C3 1183  -0.129   1.643   0.307 -0.0198 -0.0650 -0.2462
   99HFI     F4 1184  -0.203   1.669   0.413 -0.4418  0.3303  0.4454
   99HFI     F5 1185  -0.129   1.508   0.298 -0.1857 -0.2720  0.1268
   99HFI     F6 1186  -0.186   1.698   0.205  0.8186 -0.2109 -0.3113
   99HFI     H1 1187   0.175   1.645   0.442  0.8946 -2.7334  1.5636
   99HFI     H2 1188   0.047   1.704   0.218 -1.2461 -2.6596 -0.9285
  100HFI     O1 1189   1.657   3.361   1.996 -0.6030 -0.7084 -0.5638
  100HFI     C1 1190   1.700   3.221   2.019 -0.3006 -0.0914  0.5893
  100HFI     C2 1191   1.858   3.206   2.031  0.2051  0.1085  0.9813
  100HFI     F1 1192   1.911   3.084   2.008 -0.2102  0.2748 -0.3022
  100HFI     F2 1193   1.888   3.240   2.157  0.1236 -0.1335  0.5057
  100HFI     F3 1194   1.924   3.290   1.949 -0.3937  0.2411  0.2796
  100HFI     C3 1195   1.638   3.118   1.932 -1.1698  0.7521 -0.2804
  100HFI     F4 1196   1.684   3.115   1.810 -0.3254 -0.0046  0.5269
  100HFI     F5 1197   1.502   3.130   1.916 -0.3574 -0.1165 -0.2016
  100HFI     F6 1198   1.671   3.000   1.979  0.0908 -0.2172 -0.0753
  100HFI     H1 1199   1.686   3.382   1.906  1.2145 -0.8190 -0.0398
  100HFI     H2 1200   1.659   3.197   2.118 -0.2598  0.6661  0.7947
  101HFI     O1 1201   2.554   2.909   1.749 -0.5227  0.0901 -0.0140
  101HFI     C1 1202   2.678   2.835   1.758  0.0491  0.6828 -0.2822
  101HFI     C2 1203   2.718   2.823   1.911 -0.0932  0.2378 -0.1183
  101HFI     F1 1204   2.627   2.746   1.975 -0.3913  0.3680 -0.0251
  101HFI     F2 1205   2.730   2.941   1.975  0.4464  0.0522  0.2311
  101HFI     F3 1206   2.845   2.767   1.924 -0.1600  0.3969 -0.2202
  101HFI     C3 1207   2.791   2.882   1.659  0.8074 -0.3503  0.2028
  101HFI     F4 1208   2.838   3.002   1.686  0.2186 -0.1838 -0.1592
  101HFI     F5 1209   2.741   2.892   1.531  0.1733  0.7577  0.5608
  101HFI     F6 1210   2.899   2.798   1.652 -0.2278 -0.3227 -0.2043
  101HFI     H1 1211   2.545   2.945   1.659  0.4472  0.2237 -0.0572
  101HFI     H2 1212   2.658   2.731   1.730 -1.6695  1.3015 -1.4599
  102HFI     O1 1213   1.265   1.516   3.137 -0.0989 -0.4893  0.0736
  102HFI     C1 1214   1.257   1.650   3.087 -0.3341 -0.1486  0.3460
  102HFI     C2 1215   1.303   1.643   2.933 -0.3895 -0.5428  0.4750
  102HFI     F1 1216   1.242   1.542   2.874  0.2709  0.0253 -0.3565
  102HFI     F2 1217   1.434   1.617   2.920  0.0117  0.1215 -0.3974
  102HFI     F3 1218   1.274   1.760   2.866 -0.8338  0.0831 -0.0621
  102HFI     C3 1219   1.326   1.751   3.183 -0.5785  0.2575  0.0041
  102HFI     F4 1220   1.421   1.693   3.260 -0.0435  0.1292 -0.0087
  102HFI     F5 1221   1.232   1.797   3.269 -0.1050  0.0692 -0.1990
  102HFI     F6 1222   1.379   1.855   3.125 -0.2259 -0.2120  0.1173
  102HFI     H1 1223   1.350   1.504   3.183 -0.2953  1.0800  0.8575
  102HFI     H2 1224   1.152   1.681   3.087 -0.2643  0.0976 -0.8936
  103HFI     O1 1225   1.286   0.599   3.385 -0.7443 -0.5217 -0.0021
  103HFI     C1 1226   1.350   0.644   3.510  0.1491  0.1489 -0.2036
  103HFI     C2 1227   1.288   0.777   3.560  0.0292  0.6562  0.1404
  103HFI     F1 1228   1.165   0.752   3.600 -0.0896 -0.8028 -0.4881
  103HFI     F2 1229   1.289   0.857   3.455 -0.3326  0.0527 -0.3298
  103HFI     F3 1230   1.362   0.830   3.660 -0.1993  0.4307 -0.0572
  103HFI     C3 1231   1.501   0.634   3.495  0.0060  0.5776 -0.3162
  103HFI     F4 1232   1.546   0.724   3.405 -0.3331 -0.6515 -0.5083
  103HFI     F5 1233   1.527   0.508   3.455  0.0928  0.2962 -0.1540
  103HFI     F6 1234   1.568   0.650   3.612  0.3736 -0.0376  0.2368
  103HFI     H1 1235   1.316   0.663   3.318 -2.8858  0.6937  0.1608
  103HFI     H2 1236   1.321   0.567   3.583  1.5050 -1.4665 -1.3427
  104HFI     O1 1237   0.742   2.056   3.089 -0.2461 -0.2092 -0.2878
  104HFI     C1 1238   0.832   2.085   3.196  0.3685 -0.8625 -0.0570
  104HFI     C2 1239   0.851   2.238   3.210  0.2497  0.2963  0.2258
  104HFI     F1 1240   0.730   2.289   3.252  0.0002 -0.2234 -0.6164
  104HFI     F2 1241   0.891   2.297   3.093 -0.6608 -0.1479  0.7722
  104HFI     F3 1242   0.940   2.265   3.307 -0.3358 -0.5454 -0.4450
  104HFI     C3 1243   0.963   2.008   3.173 -0.0824  0.1261  0.4747
  104HFI     F4 1244   1.016   2.034   3.052  0.1637 -0.3575  0.5291
  104HFI     F5 1245   0.944   1.878   3.175 -0.2619  0.3822  0.3066
  104HFI     F6 1246   1.049   2.029   3.270 -0.2263  0.3986 -0.0638
  104HFI     H1 1247   0.780   1.992   3.026 -1.6029  1.5066 -2.9039
  104HFI     H2 1248   0.794   2.046   3.291  0.4257 -1.7330 -0.3870
  105HFI     O1 1249   3.198   0.043   3.169  0.4264  0.0748  0.0052
  105HFI     C1 1250   3.345   0.044   3.203  0.5834 -0.4077  0.0124
  105HFI     C2 1251   3.416   0.180   3.200  0.3020  0.2090 -0.5962
  105HFI     F1 1252   3.328   0.272   3.254 -0.6749 -0.2396  0.4753
  105HFI     F2 1253   3.438   0.226   3.070 -0.1249 -0.1165 -0.0819
  105HFI     F3 1254   3.539   0.178   3.268  0.4512  0.4073  0.0744
  105HFI     C3 1255   3.417  -0.070   3.114  0.2945  0.0847 -0.6698
  105HFI     F4 1256   3.548  -0.053   3.095  0.9192 -0.0717  0.3195
  105HFI     F5 1257   3.365  -0.080   2.988  0.0116 -0.4635 -0.0688
  105HFI     F6 1258   3.408  -0.193   3.177  0.1379 -0.1294  0.0726
  105HFI     H1 1259   3.195   0.005   3.079 -0.3061  0.4206 -0.1259
  105HFI     H2 1260   3.359   0.021   3.310 -0.1211  0.1795  0.2339
  106HFI     O1 1261   1.011   0.405   2.479  0.9224  0.0989 -0.0124
  106HFI     C1 1262   1.055   0.529   2.540 -0.8425 -0.0431  0.6742
  106HFI     C2 1263   0.964   0.659   2.532  0.0255  0.3792  0.5493
  106HFI     F1 1264   0.840   0.613   2.504  0.2183 -0.2501  0.2541
  106HFI     F2 1265   0.998   0.739   2.433 -0.6100 -0.6170 -0.5797
  106HFI     F3 1266   0.961   0.721   2.653 -0.1267  0.2069  0.1682
  106HFI     C3 1267   1.201   0.557   2.496 -0.0098  0.0676  0.1854
  106HFI     F4 1268   1.207   0.553   2.360 -0.5192 -0.4937 -0.5549
  106HFI     F5 1269   1.276   0.456   2.547  0.0995  0.3517 -0.2370
  106HFI     F6 1270   1.252   0.669   2.555 -0.0832  0.3245 -0.3140
  106HFI     H1 1271   0.949   0.359   2.538 -0.6081 -0.7522 -2.1969
  106HFI     H2 1272   1.072   0.513   2.647  1.0680  2.2650  0.7785
  107HFI     O1 1273   0.160   0.601   0.876 -0.0237  0.7344 -0.2319
  107HFI     C1 1274   0.022   0.611   0.917 -0.2260  0.3155 -0.0649
  107HFI     C2 1275  -0.082   0.585   0.805  0.6967  0.5266  0.4217
  107HFI     F1 1276  -0.107   0.455   0.776  0.1195  0.0921 -0.6294
  107HFI     F2 1277  -0.047   0.655   0.693 -0.6264  0.6647 -0.0870
  107HFI     F3 1278  -0.208   0.629   0.840 -0.1708 -0.0886 -0.3665
  107HFI     C3 1279  -0.003   0.734   0.996 -0.1819 -0.1958 -0.1023
  107HFI     F4 1280  -0.005   0.844   0.908 -0.3576 -0.1927  0.0987
  107HFI     F5 1281   0.098   0.755   1.097  0.0760  0.6364 -0.1380
  107HFI     F6 1282  -0.119   0.739   1.058 -0.1791  0.1665  0.2594
  107HFI     H1 1283   0.165   0.616   0.780  1.0002 -0.9721 -0.4665
  107HFI     H2 1284  -0.002   0.530   0.986 -0.1779  0.1352 -0.2601
  108HFI     O1 1285   0.797   0.386   2.678 -0.4631  0.1310  0.0302
  108HFI     C1 1286   0.658   0.392   2.640 -0.2936 -0.4037  0.4691
  108HFI     C2 1287   0.574   0.467   2.760  0.6672 -1.2755 -0.4046
  108HFI     F1 1288   0.595   0.602   2.772  0.1143 -0.4405 -0.1028
  108HFI     F2 1289   0.598   0.405   2.877  0.2454 -0.4891  0.0642
  108HFI     F3 1290   0.442   0.451   2.739  0.2751  0.2987 -0.1258
  108HFI     C3 1291   0.608   0.249   2.615  0.5146  0.1707 -0.1078
  108HFI     F4 1292   0.597   0.164   2.724 -0.2001  0.1751  0.4127
  108HFI     F5 1293   0.690   0.181   2.533  0.2449 -0.3358  0.2621
  108HFI     F6 1294   0.488   0.252   2.553  0.4604 -0.1221 -0.3607
  108HFI     H1 1295   0.809   0.409   2.772 -2.8682  0.7663  0.2188
  108HFI     H2 1296   0.645   0.453   2.549 -1.7801  2.2884  2.3996
  109HFI     O1 1297   1.347   3.402   2.053  0.1419  0.1346  0.3679
  109HFI     C1 1298   1.301   3.371   2.192 -0.7104  0.4507 -0.0328
  109HFI     C2 1299   1.398   3.436   2.304  0.5880  0.2390 -0.0557
  109HFI     F1 1300   1.360   3.566   2.320 -0.4268 -0.0101 -0.0139
  109HFI     F2 1301   1.523   3.435   2.271 -0.2734 -0.4925 -0.5044
  109HFI     F3 1302   1.382   3.382   2.425  0.1281  0.5176 -0.8280
  109HFI     C3 1303   1.312   3.216   2.213  0.1147  0.7838 -0.1902
  109HFI     F4 1304   1.442   3.180   2.235 -0.2456 -0.0827  0.1857
  109HFI     F5 1305   1.272   3.151   2.103 -0.9143  0.1598 -0.4007
  109HFI     F6 1306   1.238   3.183   2.317 -0.0247  0.9901  0.5098
  109HFI     H1 1307   1.419   3.467   2.057  0.9161 -0.7004  0.1465
  109HFI     H2 1308   1.201   3.412   2.211 -1.5528 -2.0180  1.0767
  110HFI     O1 1309   0.958   0.783   0.527  0.5166  0.1651  0.2489
  110HFI     C1 1310   0.939   0.930   0.532 -0.1418 -0.3964 -0.0367
  110HFI     C2 1311   0.867   0.981   0.665 -0.3287  0.0076 -0.1689
  110HFI     F1 1312   0.930   0.944   0.780 -0.0608 -0.0524  0.0477
  110HFI     F2 1313   0.744   0.931   0.665  0.2866  0.1858  0.9288
  110HFI     F3 1314   0.853   1.116   0.669 -0.5609  0.3286  0.1757
  110HFI     C3 1315   0.872   0.981   0.405  0.0126 -0.0200 -0.1974
  110HFI     F4 1316   0.960   0.978   0.297  0.2321 -0.1715 -0.5717
  110HFI     F5 1317   0.848   1.114   0.405 -0.2521 -0.0868 -0.1218
  110HFI     F6 1318   0.756   0.920   0.377  0.5635  0.3992 -0.1441
  110HFI     H1 1319   0.992   0.756   0.440 -1.9164 -0.8926 -0.4286
  110HFI     H2 1320   1.037   0.975   0.549 -1.0631  0.8375  2.2583
  111HFI     O1 1321   3.211   0.191   2.920 -0.2993  0.0382  0.6224
  111HFI     C1 1322   3.136   0.158   2.801 -0.0035 -0.0113  0.3257
  111HFI     C2 1323   3.080   0.287   2.734 -0.0313  0.5354  0.2264
  111HFI     F1 1324   3.173   0.384   2.740  0.3564 -0.1163  0.0791
  111HFI     F2 1325   2.974   0.340   2.796  0.1807  0.0197 -0.0732
  111HFI     F3 1326   3.053   0.274   2.604 -0.0082  0.2012 -0.0003
  111HFI     C3 1327   3.035   0.043   2.818  0.3069  0.1895 -0.0179
  111HFI     F4 1328   2.942   0.081   2.907  0.0070 -0.1816  0.0116
  111HFI     F5 1329   3.086  -0.074   2.864 -0.3219  0.1141 -0.0867
  111HFI     F6 1330   2.969   0.011   2.701 -0.1229 -0.6287  0.3471
  111HFI     H1 1331   3.256   0.273   2.897 -0.0460 -0.5568 -1.0749
  111HFI     H2 1332   3.207   0.113   2.731 -0.5138 -0.7545  0.2805
  112HFI     O1 1333   1.031   1.251   1.803  0.5517  0.0632 -0.1153
  112HFI     C1 1334   1.009   1.353   1.908 -0.3858 -0.1157 -0.0837
  112HFI     C2 1335   1.024   1.302   2.051  0.6367  0.0778 -0.6136
  112HFI     F1 1336   0.917   1.242   2.111  0.7611  0.0742 -0.5300
  112HFI     F2 1337   1.065   1.405   2.127  0.0068 -0.1996 -0.1076
  112HFI     F3 1338   1.126   1.224   2.060  0.1678  0.1063 -0.3174
  112HFI     C3 1339   0.868   1.413   1.890 -0.0180  0.4805  0.0610
  112HFI     F4 1340   0.777   1.319   1.879 -0.4753 -0.0083 -0.5094
  112HFI     F5 1341   0.861   1.500   1.786  0.1465  0.0635 -0.1860
  112HFI     F6 1342   0.842   1.488   1.993  0.1503 -0.0673  0.1771
  112HFI     H1 1343   0.954   1.192   1.807  0.6211  0.0582  1.7934
  112HFI     H2 1344   1.080   1.436   1.899 -2.5597  1.6662 -1.6685
  113HFI     O1 1345   3.395   0.796   2.921  0.1052  0.5451 -0.6723
  113HFI     C1 1346   3.274   0.716   2.898  0.3431 -0.2887  1.2720
  113HFI     C2 1347   3.154   0.809   2.853 -0.2369  0.1365  0.0016
  113HFI     F1 1348   3.194   0.894   2.754  0.3695  0.2715  0.0264
  113HFI     F2 1349   3.122   0.888   2.955 -0.4831  0.1088  0.2282
  113HFI     F3 1350   3.041   0.745   2.820  0.3610  0.0773 -0.1459
  113HFI     C3 1351   3.250   0.618   3.018 -0.2729 -0.3694  0.1228
  113HFI     F4 1352   3.264   0.694   3.129  0.2459 -0.3031 -0.4086
  113HFI     F5 1353   3.338   0.505   3.025 -0.1528  0.2444  0.2606
  113HFI     F6 1354   3.125   0.574   3.007  0.0553 -0.3950  0.3668
  113HFI     H1 1355   3.374   0.887   2.948 -0.9229  0.3012 -0.6437
  113HFI     H2 1356   3.284   0.649   2.812 -0.0233 -0.7173  1.5632
  114HFI     O1 1357   3.302   3.036   2.992  0.9796 -0.1655 -0.1208
  114HFI     C1 1358   3.322   3.083   2.852  0.2362 -0.1674 -0.2781
  114HFI     C2 1359   3.266   2.975   2.746 -0.2938  0.4326 -0.2600
  114HFI     F1 1360   3.270   3.024   2.619 -0.0426 -0.2333 -0.3950
  114HFI     F2 1361   3.138   2.940   2.774 -0.5129  0.4921  0.3606
  114HFI     F3 1362   3.337   2.856   2.755 -0.0866 -0.4619 -0.3451
  114HFI     C3 1363   3.478   3.117   2.829 -0.5393 -0.1436  0.6507
  114HFI     F4 1364   3.551   3.001   2.827 -0.2194 -0.4575  0.4227
  114HFI     F5 1365   3.531   3.186   2.927 -0.2878  0.0406 -0.2539
  114HFI     F6 1366   3.498   3.188   2.719  0.0324 -0.4129  0.6225
  114HFI     H1 1367   3.307   2.940   3.002 -0.9980 -0.0161  2.9743
  114HFI     H2 1368   3.270   3.179   2.839  1.8665  0.7429 -0.2156
  115HFI     O1 1369   0.798   3.279   0.936  0.1514 -0.1061  0.0040
  115HFI     C1 1370   0.680   3.307   0.858  0.1762  0.0912  0.2533
  115HFI     C2 1371   0.623   3.176   0.809  0.2001  0.2811  0.6042
  115HFI     F1 1372   0.599   3.112   0.920 -0.2521  0.1569 -0.0835
  115HFI     F2 1373   0.698   3.097   0.729  0.7374 -0.4996  0.5325
  115HFI     F3 1374   0.507   3.190   0.748  0.4500  0.1060  0.6885
  115HFI     C3 1375   0.708   3.399   0.727 -0.1688  0.2755 -0.2982
  115HFI     F4 1376   0.824   3.371   0.676 -0.0058  0.1632  0.0045
  115HFI     F5 1377   0.711   3.527   0.767 -0.0473  0.2178  0.1917
  115HFI     F6 1378   0.624   3.383   0.628  0.0853 -0.0458 -0.0561
  115HFI     H1 1379   0.863   3.244   0.873  1.6478  1.2736  0.7376
  115HFI     H2 1380   0.601   3.348   0.922  0.4839  2.7892 -1.0164
  116HFI     O1 1381   1.170   1.526   0.883 -0.2029 -0.5437 -0.1053
  116HFI     C1 1382   1.141   1.614   0.998  0.2426 -0.2489  0.5000
  116HFI     C2 1383   1.002   1.677   0.971 -0.1701 -0.0861 -0.3513
  116HFI     F1 1384   0.904   1.591   0.939  0.4493 -0.3523 -0.0298
  116HFI     F2 1385   1.011   1.756   0.859 -0.2050  0.1388  0.0688
  116HFI     F3 1386   0.963   1.751   1.077  0.4168  0.1498  0.0314
  116HFI     C3 1387   1.260   1.722   1.028 -0.0041  0.0989  0.4622
  116HFI     F4 1388   1.287   1.804   0.919  0.0485  0.4161  0.1706
  116HFI     F5 1389   1.372   1.654   1.049 -0.0009  0.1841 -0.3700
  116HFI     F6 1390   1.237   1.805   1.132 -0.0591 -0.8107  0.5737
  116HFI     H1 1391   1.265   1.532   0.864  0.2755 -1.9528  1.7395
  116HFI     H2 1392   1.123   1.556   1.089  0.1878 -1.8280 -0.4976
  117HFI     O1 1393   3.244   2.627   3.477 -0.2289  0.5832 -0.3505
  117HFI     C1 1394   3.294   2.595   3.610 -0.0688 -0.1610  0.3899
  117HFI     C2 1395   3.389   2.470   3.618 -0.2802 -0.5349 -0.3951
  117HFI     F1 1396   3.510   2.500   3.552  0.0109 -0.1316 -0.2420
  117HFI     F2 1397   3.345   2.356   3.558  0.2201 -0.4692  0.3599
  117HFI     F3 1398   3.426   2.441   3.750 -0.2111  0.3717 -0.0953
  117HFI     C3 1399   3.177   2.580   3.713 -0.7113  0.1058  0.4247
  117HFI     F4 1400   3.116   2.460   3.698  0.5335 -0.0076 -0.6989
  117HFI     F5 1401   3.089   2.683   3.699  0.2075 -0.3032 -0.1392
  117HFI     F6 1402   3.212   2.586   3.839  0.3530 -0.2736  0.4421
  117HFI     H1 1403   3.175   2.565   3.448 -1.2890  0.9500  1.3606
  117HFI     H2 1404   3.347   2.682   3.650  1.7347 -0.1202 -1.9939
  118HFI     O1 1405   0.215   1.813   3.167  0.3641 -0.4884 -0.0385
  118HFI     C1 1406   0.286   1.877   3.280 -0.2849 -0.5039  0.0991
  118HFI     C2 1407   0.425   1.818   3.303 -0.0833  0.0919  0.1117
  118HFI     F1 1408   0.412   1.691   3.352 -0.0566  0.0052  0.3891
  118HFI     F2 1409   0.486   1.895   3.395 -0.3189  0.3517  0.1962
  118HFI     F3 1410   0.495   1.812   3.189  0.2181  0.1658 -0.5429
  118HFI     C3 1411   0.197   1.891   3.409 -0.7616 -0.4553 -0.5300
  118HFI     F4 1412   0.146   1.769   3.444 -0.2812  0.1714  0.1303
  118HFI     F5 1413   0.092   1.968   3.384 -0.2507 -0.3960  0.5017
  118HFI     F6 1414   0.265   1.941   3.517  0.6602 -0.1418 -0.0561
  118HFI     H1 1415   0.132   1.772   3.197  0.1346 -0.6436 -0.8884
  118HFI     H2 1416   0.304   1.981   3.250  0.3215 -1.1607 -1.9036
  119HFI     O1 1417   1.115   1.002   1.618  0.2906 -0.0658 -0.2441
  119HFI     C1 1418   1.106   1.013   1.477 -0.0621  0.5200  0.3281
  119HFI     C2 1419   1.258   1.016   1.423 -0.0641  0.0907  0.4737
  119HFI     F1 1420   1.316   0.900   1.457 -0.0151 -0.0837  0.0836
  119HFI     F2 1421   1.334   1.111   1.482 -0.4039 -0.3954  0.5405
  119HFI     F3 1422   1.254   1.032   1.283 -0.1847 -0.2822  0.3050
  119HFI     C3 1423   1.029   1.138   1.448  0.1793 -0.5007  0.1431
  119HFI     F4 1424   0.901   1.138   1.509 -0.1999 -0.0325  0.1700
  119HFI     F5 1425   1.008   1.166   1.319 -0.0323  0.6437  0.0332
  119HFI     F6 1426   1.090   1.246   1.500 -0.1229 -0.0454 -0.6078
  119HFI     H1 1427   1.163   1.077   1.656  0.5517 -0.5808  0.4459
  119HFI     H2 1428   1.048   0.933   1.430  0.4534  1.6072 -2.2622
  120HFI     O1 1429   3.498   3.019   2.313 -0.2136  0.7303 -0.3110
  120HFI     C1 1430   3.641   2.989   2.294  0.0512  0.5561 -0.2035
  120HFI     C2 1431   3.663   2.928   2.150  0.1512  0.5189  0.1703
  120HFI     F1 1432   3.612   3.019   2.053  0.3397 -0.4797  0.0317
  120HFI     F2 1433   3.595   2.808   2.141 -0.0499  0.4139 -0.3420
  120HFI     F3 1434   3.792   2.916   2.116  0.3356  0.1931  0.1384
  120HFI     C3 1435   3.692   2.901   2.411  0.5059  1.0078  0.2259
  120HFI     F4 1436   3.668   2.957   2.534 -0.3416 -0.1930 -0.1081
  120HFI     F5 1437   3.825   2.873   2.399 -0.6717  0.3646  0.2915
  120HFI     F6 1438   3.625   2.778   2.406 -0.2580  0.2890 -0.0354
  120HFI     H1 1439   3.446   2.946   2.277  1.3841 -0.4054 -0.3385
  120HFI     H2 1440   3.694   3.085   2.287 -0.9640  1.2212  0.9605
  121HFI     O1 1441   0.665   1.515   1.136 -0.6765  0.2643  0.0179
  121HFI     C1 1442   0.714   1.589   1.251 -0.6494  0.3344  0.0161
  121HFI     C2 1443   0.806   1.500   1.337 -0.3142  0.0800 -0.8916
  121HFI     F1 1444   0.913   1.456   1.271 -0.4206 -0.7957 -0.4668
  121HFI     F2 1445   0.730   1.395   1.367  0.0871  0.1143 -0.0186
  121HFI     F3 1446   0.849   1.544   1.454 -0.1186 -0.1307 -0.3141
  121HFI     C3 1447   0.595   1.637   1.333  0.6931 -0.9130 -1.0955
  121HFI     F4 1448   0.629   1.696   1.454  0.1495  0.0863  0.0251
  121HFI     F5 1449   0.515   1.531   1.361 -0.2323 -0.1200  0.1396
  121HFI     F6 1450   0.516   1.732   1.271 -0.0415 -0.4335 -0.5543
  121HFI     H1 1451   0.719   1.437   1.116 -0.2432  0.8255 -0.9936
  121HFI     H2 1452   0.775   1.673   1.214 -0.9146 -0.8965 -3.3250
  122HFI     O1 1453   0.664   3.343   2.100  0.9825 -0.0200 -0.1026
  122HFI     C1 1454   0.740   3.251   2.018  0.9163  0.1210 -0.0419
  122HFI     C2 1455   0.880   3.216   2.081 -0.1767 -0.0794 -0.3203
  122HFI     F1 1456   0.859   3.156   2.201 -0.9031  0.5353 -0.8782
  122HFI     F2 1457   0.952   3.332   2.086  0.2252  0.0510  0.0240
  122HFI     F3 1458   0.945   3.138   2.003  0.3587  0.2556  0.1407
  122HFI     C3 1459   0.747   3.292   1.866  0.1282 -0.4918 -0.0606
  122HFI     F4 1460   0.807   3.410   1.854  0.0826  0.1486 -0.4207
  122HFI     F5 1461   0.620   3.307   1.824 -0.5041 -0.0583  0.0788
  122HFI     F6 1462   0.810   3.200   1.792 -0.3197  0.3289 -0.4344
  122HFI     H1 1463   0.589   3.377   2.048  0.2009 -1.6088 -0.0414
  122HFI     H2 1464   0.697   3.150   2.016 -0.1032  0.4913  1.8659
  123HFI     O1 1465   0.584   3.226   0.075 -0.9470 -0.0171 -0.1758
  123HFI     C1 1466   0.537   3.174   0.199 -0.2754 -0.8555  1.2048
  123HFI     C2 1467   0.398   3.220   0.235  0.2871 -0.2209  0.3821
  123HFI     F1 1468   0.341   3.266   0.127 -0.3019 -0.5926  0.4450
  123HFI     F2 1469   0.393   3.314   0.334 -0.0885  0.0012 -0.3105
  123HFI     F3 1470   0.327   3.107   0.275 -0.6591 -0.4992  0.0321
  123HFI     C3 1471   0.635   3.173   0.314 -0.4814 -0.1118  0.1184
  123HFI     F4 1472   0.685   3.300   0.329  0.0182 -0.4064  0.0167
  123HFI     F5 1473   0.746   3.096   0.285  0.1743  0.0495 -1.0583
  123HFI     F6 1474   0.590   3.129   0.432  0.2621  0.4765  0.0197
  123HFI     H1 1475   0.571   3.322   0.070 -0.8349 -0.0047 -0.2366
  123HFI     H2 1476   0.529   3.067   0.174  0.1770 -0.5633 -0.2589
  124HFI     O1 1477   3.508   2.286   0.918  0.1913  0.5060 -0.6609
  124HFI     C1 1478   3.591   2.276   1.034  0.0117 -0.0908 -0.5467
  124HFI     C2 1479   3.599   2.416   1.103 -0.5966 -0.3936 -0.4113
  124HFI     F1 1480   3.474   2.462   1.109 -0.3495  0.7342 -0.0003
  124HFI     F2 1481   3.677   2.505   1.036 -0.1482  0.2994 -0.5450
  124HFI     F3 1482   3.650   2.407   1.223  0.0243 -0.3779  0.2467
  124HFI     C3 1483   3.737   2.216   1.006 -1.0337 -0.0153  0.0416
  124HFI     F4 1484   3.822   2.230   1.110 -0.3754  0.2368  0.1439
  124HFI     F5 1485   3.791   2.281   0.901 -0.2880 -0.2599 -0.0125
  124HFI     F6 1486   3.726   2.088   0.967 -0.1307  0.1355  0.6794
  124HFI     H1 1487   3.561   2.315   0.842  2.0133  0.1138  0.4199
  124HFI     H2 1488   3.533   2.212   1.102 -0.7195  1.0568 -0.0792
  125HFI     O1 1489   1.079   2.670   0.826 -0.0484  0.4659 -0.1881
  125HFI     C1 1490   1.033   2.760   0.923 -1.0547  0.9028  0.2052
  125HFI     C2 1491   0.884   2.748   0.936 -0.4846 -0.9027  0.1210
  125HFI     F1 1492   0.845   2.627   0.991 -0.3248  0.4137  0.2124
  125HFI     F2 1493   0.828   2.760   0.814  0.2603 -0.0266 -0.3623
  125HFI     F3 1494   0.838   2.850   1.008  0.6965  0.2387  0.4955
  125HFI     C3 1495   1.079   2.906   0.897 -0.7308 -0.0076  0.0459
  125HFI     F4 1496   1.013   2.958   0.793  0.6293 -0.2161  0.2493
  125HFI     F5 1497   1.209   2.904   0.862  0.5349 -0.4022  0.1702
  125HFI     F6 1498   1.063   2.992   0.995 -0.1985 -0.4139 -0.1046
  125HFI     H1 1499   1.048   2.696   0.737 -0.8768  0.1060 -0.0122
  125HFI     H2 1500   1.078   2.738   1.020 -0.5493  1.8857  0.1902
   3.51965   3.51965   3.51965
