HFIP comparator n0
 1500
    1HFI     O1    1   1.962   1.717   0.789  0.4762 -0.4872 -0.4804
    1HFI     C1    2   2.088   1.784   0.756 -0.2757 -0.0095 -0.0463
    1HFI     C2    3   2.097   1.920   0.835  0.2262  0.6552  0.1231
    1HFI     F1    4   2.195   2.001   0.793  0.3167 -0.2499 -0.1100
    1HFI     F2    5   2.099   1.902   0.970 -0.3237 -0.1677 -0.1224
    1HFI     F3    6   1.984   1.992   0.817  0.2269  0.5228 -0.0122
    1HFI     C3    7   2.108   1.796   0.601  0.2893  0.4634  0.7978
    1HFI     F4    8   2.227   1.848   0.568 -0.3629 -0.0220 -0.0825
    1HFI     F5    9   2.015   1.873   0.546 -0.1854  0.4616  0.9835
    1HFI     F6   10   2.097   1.678   0.541  0.1368 -0.1655  0.4329
    1HFI     H1   11   1.911   1.781   0.842  0.4203 -1.1428  0.2793
    1HFI     H2   12   2.174   1.723   0.785  2.0145  1.3072 -3.6153
    2HFI     O1   13   1.769   0.450   0.988 -0.0931  0.1918  0.5577
    2HFI     C1   14   1.901   0.399   0.959 -0.2776  0.2527  0.0949
    2HFI     C2   15   1.893   0.278   0.859 -0.0276  0.1028 -0.3605
    2HFI     F1   16   1.809   0.296   0.756  0.1734 -0.0165 -0.7208
    2HFI     F2   17   1.874   0.150   0.912  0.1064  0.1216 -0.0307
    2HFI     F3   18   2.018   0.274   0.810  0.1508  0.6514 -0.3542
    2HFI     C3   19   1.969   0.366   1.098  0.5388 -0.2760  0.0035
    2HFI     F4   20   1.958   0.238   1.146  0.3053  0.0315  0.1495
    2HFI     F5   21   1.937   0.443   1.200 -0.4576 -0.1552  0.2050
    2HFI     F6   22   2.100   0.384   1.078 -0.7266 -0.4337 -0.2249
    2HFI     H1   23   1.728   0.490   0.909 -0.6122 -1.9533 -0.3044
    2HFI     H2   24   1.963   0.478   0.914 -0.9517  0.5254 -0.3540
    3HFI     O1   25   0.451   0.465   0.764  0.0368 -0.2065 -0.0420
    3HFI     C1   26   0.493   0.396   0.876 -0.1641  0.4014  0.6324
    3HFI     C2   27   0.396   0.269   0.902 -0.5800  0.3227  0.5387
    3HFI     F1   28   0.456   0.191   0.994 -0.1015 -0.2009  0.6050
    3HFI     F2   29   0.378   0.192   0.794  0.3862  0.0994 -0.0882
    3HFI     F3   30   0.278   0.289   0.956 -0.9031  0.2724 -0.7998
    3HFI     C3   31   0.477   0.491   0.998  0.0398  0.1589 -0.2191
    3HFI     F4   32   0.349   0.556   0.992  0.5407  0.0839 -0.9521
    3HFI     F5   33   0.576   0.586   0.999  0.3339 -0.5925 -0.1354
    3HFI     F6   34   0.493   0.428   1.116  0.0875 -0.4159  0.2383
    3HFI     H1   35   0.474   0.412   0.686 -0.7829 -0.2331 -0.2706
    3HFI     H2   36   0.599   0.371   0.865  0.2726  2.5073 -0.1371
    4HFI     O1   37   1.169   0.140   1.569  0.8995  0.4307  0.2364
    4HFI     C1   38   1.276   0.085   1.655  0.2121 -0.2914 -0.3442
    4HFI     C2   39   1.355  -0.035   1.604  0.0658 -0.4692  0.2478
    4HFI     F1   40   1.432   0.002   1.504  0.0765 -0.1509  0.1949
    4HFI     F2   41   1.262  -0.129   1.563 -0.1292 -0.3638 -0.2808
    4HFI     F3   42   1.438  -0.083   1.698  0.0279 -0.0899 -0.7456
    4HFI     C3   43   1.229   0.058   1.802  0.6272 -0.7903 -0.2913
    4HFI     F4   44   1.147   0.158   1.851 -0.5480 -0.1523  0.0367
    4HFI     F5   45   1.326   0.060   1.899  0.0884  0.0566  0.4674
    4HFI     F6   46   1.170  -0.061   1.816 -0.1977  0.4839 -0.2548
    4HFI     H1   47   1.099   0.191   1.612  1.2123  1.4725 -0.4871
    4HFI     H2   48   1.343   0.171   1.658  0.3880 -0.4358 -0.0401
    5HFI     O1   49   0.320   1.897   0.768  0.3632 -0.7051  0.1476
    5HFI     C1   50   0.231   1.900   0.653 -0.7459  0.2555 -0.2054
    5HFI     C2   51   0.223   2.040   0.583  0.2332 -0.2138 -0.5199
    5HFI     F1   52   0.342   2.104   0.600  0.1119  0.0146  0.3340
    5HFI     F2   53   0.129   2.124   0.636 -0.0179  0.7710 -0.1505
    5HFI     F3   54   0.190   2.023   0.455  0.2737  0.2598  0.3732
    5HFI     C3   55   0.089   1.851   0.698  0.2348  0.3388  0.5901
    5HFI     F4   56   0.086   1.718   0.738 -0.4051  0.0114  0.5243
    5HFI     F5   57   0.008   1.856   0.587  0.0373 -0.4482 -0.1203
    5HFI     F6   58   0.037   1.931   0.799  0.1327 -0.0747  0.0731
    5HFI     H1   59   0.399   1.949   0.745 -0.9181  0.4594 -1.6841
    5HFI     H2   60   0.263   1.827   0.578 -0.5287 -0.4456  0.5720
    6HFI     O1   61   1.198   0.544   2.267 -0.1737 -0.0054  0.0768
    6HFI     C1   62   1.068   0.510   2.219  0.1952 -0.5165  0.2073
    6HFI     C2   63   1.006   0.392   2.295 -0.3143  0.3987 -0.1279
    6HFI     F1   64   0.880   0.371   2.258  0.8061  0.3279  0.1667
    6HFI     F2   65   1.003   0.421   2.427 -0.4588  0.3798 -0.2237
    6HFI     F3   66   1.072   0.275   2.277  0.1455  0.0775 -0.1848
    6HFI     C3   67   1.066   0.480   2.066  0.4147  0.1362 -0.3107
    6HFI     F4   68   0.955   0.423   2.012  0.3376  0.5850 -0.2225
    6HFI     F5   69   1.179   0.425   2.023 -0.6873  0.1363  0.2940
    6HFI     F6   70   1.077   0.606   2.002  0.2184 -0.2224 -0.1857
    6HFI     H1   71   1.255   0.533   2.189 -0.7732 -0.0963 -0.3574
    6HFI     H2   72   0.999   0.592   2.239 -0.1304 -0.8297  0.3674
    7HFI     O1   73   0.672   0.599   0.211 -0.1193 -0.1103  0.2589
    7HFI     C1   74   0.531   0.574   0.221  0.0352 -0.3260  0.4966
    7HFI     C2   75   0.450   0.709   0.246  0.0186  0.5131 -0.1304
    7HFI     F1   76   0.492   0.808   0.161  0.0032 -0.0600  0.1897
    7HFI     F2   77   0.465   0.753   0.374 -0.3141  0.3129  0.1213
    7HFI     F3   78   0.321   0.692   0.215  0.0803 -0.3464  0.1320
    7HFI     C3   79   0.498   0.453   0.313  0.1969  0.1273  0.0903
    7HFI     F4   80   0.499   0.488   0.446  0.3157 -0.0201 -0.1499
    7HFI     F5   81   0.588   0.350   0.293 -0.1684 -0.1347 -0.0249
    7HFI     F6   82   0.379   0.398   0.285  0.1815 -1.0326 -0.0131
    7HFI     H1   83   0.702   0.646   0.291  0.5849 -0.2864  0.1054
    7HFI     H2   84   0.504   0.536   0.122 -1.0435  1.6305  0.0170
    8HFI     O1   85   0.260   1.465   0.888  0.3833  0.2717 -0.0296
    8HFI     C1   86   0.358   1.388   0.818  0.1151 -0.1754  0.2358
    8HFI     C2   87   0.493   1.482   0.816 -0.1290 -0.4019  0.1699
    8HFI     F1   88   0.546   1.512   0.933  0.2630 -0.4361 -0.0012
    8HFI     F2   89   0.476   1.596   0.751 -0.2646 -0.0298  0.0626
    8HFI     F3   90   0.583   1.408   0.754  0.1750 -0.0289 -0.5288
    8HFI     C3   91   0.305   1.335   0.683 -0.0910 -0.0764  0.0074
    8HFI     F4   92   0.296   1.433   0.591 -0.7967 -0.2306  0.4158
    8HFI     F5   93   0.187   1.278   0.700  0.5225  0.1502 -0.1396
    8HFI     F6   94   0.387   1.242   0.632  0.2616 -0.2415 -0.4773
    8HFI     H1   95   0.175   1.430   0.857 -0.8709  2.1684  1.2111
    8HFI     H2   96   0.377   1.295   0.873  0.3310 -2.6844 -3.9024
    9HFI     O1   97   1.411   0.796   1.786  0.5282  0.0997  0.1651
    9HFI     C1   98   1.518   0.714   1.843 -0.4107 -0.0566 -0.0487
    9HFI     C2   99   1.540   0.580   1.762  0.3748 -0.3474  0.4736
    9HFI     F1  100   1.628   0.504   1.827  0.1818 -0.3131  0.8657
    9HFI     F2  101   1.573   0.600   1.630 -0.0340 -0.1650  0.2933
    9HFI     F3  102   1.420   0.511   1.760  0.0099 -0.0539 -0.5471
    9HFI     C3  103   1.516   0.706   1.999 -0.6728 -0.0362  0.3703
    9HFI     F4  104   1.498   0.830   2.054 -0.0584 -0.3778 -0.4278
    9HFI     F5  105   1.628   0.649   2.048  0.4705 -0.3196 -0.7537
    9HFI     F6  106   1.405   0.634   2.045 -0.0930  0.5738 -0.3361
    9HFI     H1  107   1.336   0.802   1.847  0.3545 -1.2134  0.0911
    9HFI     H2  108   1.608   0.775   1.830 -0.5010  0.8244  2.9597
   10HFI     O1  109   1.433   0.925   2.686 -0.1569  0.3536 -0.3904
   10HFI     C1  110   1.517   0.898   2.558  0.3918  0.4068  0.5016
   10HFI     C2  111   1.441   0.924   2.425 -0.2673  0.0415 -0.6224
   10HFI     F1  112   1.388   1.038   2.432  0.2581 -0.2163  0.2235
   10HFI     F2  113   1.339   0.829   2.402 -0.2169 -0.6714 -0.3347
   10HFI     F3  114   1.521   0.933   2.320  0.5748  0.2483 -0.5362
   10HFI     C3  115   1.580   0.755   2.562  0.6101  1.3067  0.1537
   10HFI     F4  116   1.650   0.713   2.451  0.2819 -0.0148  0.3558
   10HFI     F5  117   1.487   0.658   2.587 -0.3159  0.2397 -0.0210
   10HFI     F6  118   1.669   0.753   2.672  0.2131 -0.0650  0.2093
   10HFI     H1  119   1.380   0.846   2.707 -1.0092  1.1224  0.4416
   10HFI     H2  120   1.599   0.970   2.558  2.6978 -2.1244 -1.0168
   11HFI     O1  121   0.503   1.895   2.390 -0.2805 -0.6511 -0.1260
   11HFI     C1  122   0.426   1.908   2.513 -0.0694 -0.3827 -0.3333
   11HFI     C2  123   0.444   2.045   2.593  0.1048  0.2692 -0.1668
   11HFI     F1  124   0.398   2.043   2.723 -0.5880 -0.0714  0.2346
   11HFI     F2  125   0.387   2.148   2.527 -0.1401 -0.0491 -0.2291
   11HFI     F3  126   0.569   2.081   2.597 -0.4633 -0.1899 -0.2807
   11HFI     C3  127   0.464   1.787   2.604 -0.3163  0.3363  0.2370
   11HFI     F4  128   0.508   1.684   2.539 -0.0449 -0.4457 -0.1033
   11HFI     F5  129   0.361   1.739   2.672 -0.3581  0.4056  0.0410
   11HFI     F6  130   0.559   1.826   2.697  0.7583  0.2084  0.6500
   11HFI     H1  131   0.594   1.923   2.408 -0.5537  1.0889 -1.3755
   11HFI     H2  132   0.320   1.897   2.486 -0.5653  0.9255  1.0226
   12HFI     O1  133   0.019   0.427   1.966  0.2130 -0.5025 -0.3635
   12HFI     C1  134  -0.035   0.471   1.842  0.0593  0.4159 -0.1952
   12HFI     C2  135  -0.019   0.631   1.818 -0.5262  0.3436  0.1247
   12HFI     F1  136  -0.079   0.701   1.915  0.5312 -1.0271 -0.3746
   12HFI     F2  137  -0.066   0.676   1.699 -0.0943 -0.2231 -0.3783
   12HFI     F3  138   0.118   0.665   1.819  0.2798 -0.2885 -0.6063
   12HFI     C3  139  -0.179   0.415   1.812  0.1470  0.0292  0.3690
   12HFI     F4  140  -0.181   0.285   1.849 -0.0645 -0.2341  0.3498
   12HFI     F5  141  -0.201   0.421   1.683  0.4454 -0.6345  0.2180
   12HFI     F6  142  -0.273   0.491   1.875  0.0474 -0.0017  0.1422
   12HFI     H1  143   0.061   0.501   2.013 -0.8783 -0.4277  0.5100
   12HFI     H2  144   0.028   0.425   1.764  2.8698  1.4620  1.3726
   13HFI     O1  145   0.035   2.558   0.647 -0.1628 -1.0904 -0.3180
   13HFI     C1  146  -0.015   2.473   0.539 -0.2452 -0.7392  0.2753
   13HFI     C2  147   0.103   2.423   0.454  0.1444 -0.3948 -0.1506
   13HFI     F1  148   0.075   2.307   0.396 -0.0722  0.3805  0.3952
   13HFI     F2  149   0.204   2.406   0.532 -0.4929 -0.1460  0.0564
   13HFI     F3  150   0.133   2.513   0.362  0.4679 -0.4005 -0.0882
   13HFI     C3  151  -0.133   2.538   0.455  0.0023 -0.4330  0.3728
   13HFI     F4  152  -0.236   2.588   0.535  0.3108  0.2225  0.6386
   13HFI     F5  153  -0.189   2.451   0.369  0.3558 -0.1745 -0.5294
   13HFI     F6  154  -0.091   2.650   0.383  0.6518 -0.3950  0.2751
   13HFI     H1  155   0.118   2.600   0.620 -1.3334  1.2376 -0.4217
   13HFI     H2  156  -0.044   2.376   0.581  0.6967 -1.9963 -1.9070
   14HFI     O1  157   1.418   1.073   1.021 -0.3155  0.2398 -1.0096
   14HFI     C1  158   1.327   1.166   0.950 -0.3940 -0.6765  0.1654
   14HFI     C2  159   1.350   1.310   0.994  0.1270 -0.0427 -0.2201
   14HFI     F1  160   1.481   1.345   0.992  0.0334 -0.3965  0.3324
   14HFI     F2  161   1.312   1.320   1.118 -0.2885 -0.5630  0.4938
   14HFI     F3  162   1.283   1.408   0.915 -0.6522  0.4532 -0.0033
   14HFI     C3  163   1.177   1.118   0.959  0.2827 -0.3084 -0.0798
   14HFI     F4  164   1.097   1.175   0.863  0.3057 -0.7149  0.0399
   14HFI     F5  165   1.124   1.155   1.071 -0.0189  0.4944 -0.4622
   14HFI     F6  166   1.165   0.985   0.958 -0.0387  0.0944 -0.0115
   14HFI     H1  167   1.396   1.088   1.114 -2.6761  0.7386 -1.6084
   14HFI     H2  168   1.346   1.158   0.842  1.2913 -0.3549  0.4218
   15HFI     O1  169   0.817   2.279   2.586  0.0099  0.2347  0.2866
   15HFI     C1  170   0.928   2.291   2.687 -0.4035  0.4573 -0.3396
   15HFI     C2  171   0.943   2.170   2.774  0.2563  0.1591 -0.3655
   15HFI     F1  172   0.839   2.140   2.852 -0.1948  0.0360 -0.1198
   15HFI     F2  173   1.049   2.183   2.854  0.0454  0.1104  0.1334
   15HFI     F3  174   0.960   2.060   2.692 -0.1331  0.2985  0.1406
   15HFI     C3  175   0.939   2.428   2.767  0.3136 -0.7725  0.1349
   15HFI     F4  176   0.852   2.433   2.872 -0.1593 -0.1290  0.0098
   15HFI     F5  177   0.897   2.527   2.691 -0.0009  0.0344 -0.2163
   15HFI     F6  178   1.060   2.461   2.815 -0.2751  0.0660 -0.0064
   15HFI     H1  179   0.739   2.323   2.623 -0.8128 -0.4289 -0.6450
   15HFI     H2  180   1.024   2.285   2.634 -0.1465  0.8913  0.0778
   16HFI     O1  181   0.559   1.018   1.628 -0.3051 -1.1396 -0.2111
   16HFI     C1  182   0.648   0.946   1.724 -0.4884 -0.2235  0.2575
   16HFI     C2  183   0.599   0.952   1.871  0.1235  0.5037  0.2591
   16HFI     F1  184   0.489   0.870   1.874 -0.0510  0.5061 -0.1380
   16HFI     F2  185   0.570   1.076   1.903  0.4639 -0.1669  0.2468
   16HFI     F3  186   0.690   0.901   1.965 -0.4225 -0.1898 -0.2784
   16HFI     C3  187   0.800   0.957   1.702  0.3208  0.5111 -0.5676
   16HFI     F4  188   0.846   1.080   1.726  0.1316 -0.0176 -0.3957
   16HFI     F5  189   0.826   0.926   1.572  0.0206  0.1728  0.3683
   16HFI     F6  190   0.869   0.864   1.776 -0.2184 -0.2342 -0.0744
   16HFI     H1  191   0.527   1.096   1.676  1.0404 -1.6622  1.5637
   16HFI     H2  192   0.631   0.846   1.683 -0.3400 -0.0101 -0.3330
   17HFI     O1  193   2.118   1.641   2.555  0.6515  0.5324 -0.2382
   17HFI     C1  194   2.129   1.784   2.525  0.3149  0.1647  0.0870
   17HFI     C2  195   2.022   1.825   2.423 -0.2606 -0.9383 -0.4076
   17HFI     F1  196   2.033   1.758   2.305 -0.1292 -0.3329 -0.5147
   17HFI     F2  197   2.030   1.959   2.396  0.2109  0.3303  0.3446
   17HFI     F3  198   1.896   1.794   2.465 -0.0442 -0.0356 -0.1396
   17HFI     C3  199   2.283   1.812   2.476 -0.2880  0.0503 -0.4615
   17HFI     F4  200   2.382   1.763   2.566  0.1299 -0.2719  0.2282
   17HFI     F5  201   2.290   1.947   2.460 -0.2794 -0.0723 -0.6015
   17HFI     F6  202   2.312   1.750   2.362 -0.1989 -0.4686  0.1175
   17HFI     H1  203   2.130   1.591   2.473  0.4303  1.7921 -1.0496
   17HFI     H2  204   2.110   1.846   2.614 -0.0365 -0.9344  0.8008
   18HFI     O1  205   1.891   0.112   0.306  0.2978 -0.5987 -0.0478
   18HFI     C1  206   1.751   0.125   0.350 -0.7070 -0.3257  0.0015
   18HFI     C2  207   1.728   0.021   0.459 -0.2128  0.2919  0.3290
   18HFI     F1  208   1.801   0.041   0.567 -0.1430  0.2881 -0.1780
   18HFI     F2  209   1.757  -0.105   0.418  0.2489 -0.4355 -0.3983
   18HFI     F3  210   1.596   0.023   0.498 -0.3009  0.0195 -0.2848
   18HFI     C3  211   1.646   0.121   0.237  0.6775  0.4578 -0.0996
   18HFI     F4  212   1.691   0.187   0.132 -0.0854  0.4420  0.0700
   18HFI     F5  213   1.527   0.186   0.272  0.0547 -0.4280 -0.4246
   18HFI     F6  214   1.624  -0.002   0.185 -0.0953 -0.0355 -0.0175
   18HFI     H1  215   1.924   0.040   0.362 -1.0638 -1.0206  0.2280
   18HFI     H2  216   1.745   0.226   0.393  1.7981 -0.8814  1.7926
   19HFI     O1  217   0.350   2.615   0.093  0.4673  0.3829 -0.4338
   19HFI     C1  218   0.459   2.521   0.068  0.1694  0.0892  0.2336
   19HFI     C2  219   0.462   2.481  -0.083  0.4116  0.0643 -0.1280
   19HFI     F1  220   0.466   2.585  -0.170  0.3359  0.1455  0.3425
   19HFI     F2  221   0.356   2.407  -0.118  0.1661  0.0305  0.3809
   19HFI     F3  222   0.567   2.417  -0.118 -0.2906  0.3261 -0.0590
   19HFI     C3  223   0.448   2.392   0.159  0.5669 -0.6942 -0.2318
   19HFI     F4  224   0.330   2.335   0.130 -0.0006 -0.2344  0.1262
   19HFI     F5  225   0.446   2.428   0.286  0.4139 -0.0454  0.2698
   19HFI     F6  226   0.546   2.301   0.138  0.0894  0.0485  0.0377
   19HFI     H1  227   0.262   2.579   0.072  0.8250  0.2437 -1.7777
   19HFI     H2  228   0.558   2.564   0.086  1.5288 -2.9958  0.3196
   20HFI     O1  229   0.822   0.639   1.540 -0.2379 -0.6950 -0.0308
   20HFI     C1  230   0.917   0.525   1.525 -0.3996 -1.7542 -0.2092
   20HFI     C2  231   0.873   0.420   1.639  0.0864 -0.0374  0.1620
   20HFI     F1  232   0.741   0.393   1.627  0.0617  0.1003 -0.1355
   20HFI     F2  233   0.900   0.469   1.759  0.0781 -0.0688  0.5482
   20HFI     F3  234   0.940   0.306   1.623 -0.3609 -0.1202 -0.0169
   20HFI     C3  235   1.069   0.559   1.541  0.5376 -0.2490  0.4283
   20HFI     F4  236   1.102   0.661   1.455 -0.0017 -0.3117 -0.1781
   20HFI     F5  237   1.145   0.456   1.514 -0.3137  0.0344  0.0160
   20HFI     F6  238   1.111   0.600   1.673 -0.2819  0.1079  0.8103
   20HFI     H1  239   0.874   0.716   1.513 -1.1388 -1.2529 -3.5409
   20HFI     H2  240   0.898   0.481   1.426  1.1611 -1.9490 -0.4287
   21HFI     O1  241   1.855   2.341   0.467 -0.1972  0.1322  0.6785
   21HFI     C1  242   1.768   2.224   0.446 -0.2099  0.1961 -0.1450
   21HFI     C2  243   1.669   2.242   0.328 -0.0204 -1.4068 -0.4918
   21HFI     F1  244   1.607   2.364   0.339  0.6404  0.2334 -0.8391
   21HFI     F2  245   1.569   2.145   0.316  0.1100  0.5049 -0.1642
   21HFI     F3  246   1.732   2.234   0.212  0.6317 -0.4586 -0.2241
   21HFI     C3  247   1.703   2.175   0.573  0.0378 -0.3492 -0.2006
   21HFI     F4  248   1.618   2.271   0.615 -0.0634  0.3838  0.4815
   21HFI     F5  249   1.795   2.160   0.675  0.4218 -0.4290 -0.3442
   21HFI     F6  250   1.634   2.058   0.564 -0.1748 -0.0868  0.4955
   21HFI     H1  251   1.812   2.422   0.434  1.2430  1.0136  0.8791
   21HFI     H2  252   1.833   2.143   0.412 -2.4082 -1.0454 -1.5258
   22HFI     O1  253   1.404   0.132   2.536 -0.3262 -0.0734  0.1625
   22HFI     C1  254   1.369   0.181   2.662 -0.7336 -0.3906 -0.7108
   22HFI     C2  255   1.253   0.103   2.738 -0.1166 -0.2657 -0.2384
   22HFI     F1  256   1.255   0.126   2.865  0.0910 -0.6065  0.4058
   22HFI     F2  257   1.265  -0.033   2.717 -0.7228 -0.4623 -0.2898
   22HFI     F3  258   1.136   0.149   2.700 -0.2405 -0.0701  0.1123
   22HFI     C3  259   1.347   0.337   2.650  0.1476  0.3864  0.2217
   22HFI     F4  260   1.465   0.394   2.608  0.7744  0.0996  0.2810
   22HFI     F5  261   1.307   0.388   2.766  0.4947  0.1405  0.2365
   22HFI     F6  262   1.244   0.366   2.565  0.1908 -0.6379 -0.6331
   22HFI     H1  263   1.324   0.106   2.486  0.3492  0.3248 -1.1267
   22HFI     H2  264   1.456   0.171   2.729  0.3934  2.7282 -1.5888
   23HFI     O1  265   0.729   1.433   1.135 -0.2481 -0.2601 -0.0059
   23HFI     C1  266   0.706   1.307   1.205 -0.7242  0.4591  0.4337
   23HFI     C2  267   0.582   1.234   1.137 -0.1633 -0.1583 -0.9979
   23HFI     F1  268   0.608   1.228   1.003 -0.3074 -0.7033  0.1760
   23HFI     F2  269   0.459   1.295   1.150 -0.4810  0.2258 -0.0776
   23HFI     F3  270   0.573   1.106   1.182  1.0354  0.6121  0.6493
   23HFI     C3  271   0.682   1.320   1.358  0.2083 -0.0168 -0.3725
   23HFI     F4  272   0.651   1.196   1.403  0.3642 -0.1328 -0.5770
   23HFI     F5  273   0.578   1.399   1.389  0.1560 -0.5349 -0.4532
   23HFI     F6  274   0.786   1.360   1.429 -0.0281  0.2404  0.4039
   23HFI     H1  275   0.648   1.487   1.142  0.8838  1.3722  0.5201
   23HFI     H2  276   0.789   1.235   1.200  0.4355  1.7050  1.3004
   24HFI     O1  277   0.231   1.273   0.332  0.5765  0.0713 -0.6477
   24HFI     C1  278   0.317   1.250   0.214 -0.5803 -0.1698  0.7927
   24HFI     C2  279   0.453   1.174   0.248  0.8683  0.4064  0.5232
   24HFI     F1  280   0.447   1.086   0.352  0.0106 -0.2027 -0.0867
   24HFI     F2  281   0.547   1.262   0.291 -0.1885  0.0944 -0.1041
   24HFI     F3  282   0.502   1.108   0.143  0.3348  0.0368  0.4665
   24HFI     C3  283   0.344   1.386   0.141 -0.2111  0.2869  0.3469
   24HFI     F4  284   0.219   1.441   0.112  0.3736 -0.3076 -0.2077
   24HFI     F5  285   0.413   1.378   0.023  0.3649 -0.1820 -0.3334
   24HFI     F6  286   0.402   1.470   0.231 -0.4751 -0.3307  0.0346
   24HFI     H1  287   0.279   1.318   0.402  0.8106 -0.2172 -0.6227
   24HFI     H2  288   0.268   1.182   0.143  0.3200  1.1537 -1.1337
   25HFI     O1  289   0.581   0.221   1.817  0.1376  0.2114 -0.3081
   25HFI     C1  290   0.494   0.272   1.922 -0.0992  0.5802  0.2291
   25HFI     C2  291   0.384   0.372   1.876 -0.1878  0.1895  0.3259
   25HFI     F1  292   0.340   0.459   1.974 -0.2415 -0.6394  0.0315
   25HFI     F2  293   0.274   0.305   1.832 -0.3428  0.1733  0.2490
   25HFI     F3  294   0.431   0.443   1.766  0.4609 -0.3721  0.5530
   25HFI     C3  295   0.575   0.329   2.046 -0.5572  0.3622  0.6162
   25HFI     F4  296   0.508   0.345   2.163  0.0455 -0.3505  0.7568
   25HFI     F5  297   0.642   0.446   2.011  0.0199 -0.0722 -0.3915
   25HFI     F6  298   0.679   0.237   2.073 -0.2133 -0.0215 -0.2396
   25HFI     H1  299   0.536   0.224   1.731  0.0202 -1.6797 -0.3321
   25HFI     H2  300   0.437   0.183   1.952 -0.1772  0.7367  0.5489
   26HFI     O1  301   1.772   1.484   0.849  0.7051 -0.3716  0.3131
   26HFI     C1  302   1.808   1.420   0.967  0.4817  0.4333 -0.0294
   26HFI     C2  303   1.820   1.521   1.087  0.1342 -0.5440 -0.3687
   26HFI     F1  304   1.857   1.460   1.203  0.1910 -0.0958  0.3336
   26HFI     F2  305   1.710   1.591   1.117  0.3940 -0.5502 -0.3901
   26HFI     F3  306   1.920   1.609   1.056 -0.1587 -0.2667  0.3541
   26HFI     C3  307   1.927   1.323   0.952 -0.1385  0.6135  0.5760
   26HFI     F4  308   2.030   1.391   0.903  0.3518 -0.2981 -0.4945
   26HFI     F5  309   1.901   1.226   0.859  0.0429 -0.2712  0.4884
   26HFI     F6  310   1.965   1.272   1.067  0.0683 -0.3967 -0.0717
   26HFI     H1  311   1.855   1.508   0.804  0.4096  0.4246  0.1850
   26HFI     H2  312   1.729   1.352   1.001  1.2872 -1.4564 -1.8488
   27HFI     O1  313   0.885   2.468   0.863  0.0592  0.5962 -0.4039
   27HFI     C1  314   0.792   2.578   0.872  0.0650  0.3374  0.2512
   27HFI     C2  315   0.645   2.538   0.859  0.0768  0.2601 -0.1262
   27HFI     F1  316   0.611   2.466   0.961  0.3965  0.6987 -0.0202
   27HFI     F2  317   0.618   2.471   0.743 -0.1143  0.1614 -0.1166
   27HFI     F3  318   0.571   2.649   0.857 -0.6236  0.3114  0.4733
   27HFI     C3  319   0.848   2.700   0.794  0.3957  0.1388  1.4148
   27HFI     F4  320   0.775   2.807   0.823  0.4482  0.5901  0.3341
   27HFI     F5  321   0.853   2.677   0.661 -0.1560  0.2699 -0.5527
   27HFI     F6  322   0.974   2.721   0.833 -0.3066  0.0148  0.6788
   27HFI     H1  323   0.972   2.504   0.888 -0.1877  0.6241  0.4358
   27HFI     H2  324   0.803   2.601   0.978 -2.9896  1.2660  0.4077
   28HFI     O1  325   2.452   1.599   1.329  0.4077 -0.6007 -0.1443
   28HFI     C1  326   2.391   1.627   1.191 -0.2837 -0.0204  0.6630
   28HFI     C2  327   2.411   1.769   1.142 -0.1238  0.6058 -0.5338
   28HFI     F1  328   2.356   1.797   1.023 -0.0857  0.5317  0.0848
   28HFI     F2  329   2.546   1.783   1.128 -0.5844  0.4767 -0.3565
   28HFI     F3  330   2.372   1.861   1.229  0.2664 -0.7671 -0.0536
   28HFI     C3  331   2.244   1.577   1.172  0.3735 -0.8916  0.4542
   28HFI     F4  332   2.232   1.445   1.196 -0.2959 -0.2948  0.2107
   28HFI     F5  333   2.205   1.595   1.043 -0.0088  0.5126  0.4804
   28HFI     F6  334   2.154   1.652   1.245 -0.2070 -0.3106 -0.1745
   28HFI     H1  335   2.549   1.588   1.328  0.6458  1.0993  0.9537
   28HFI     H2  336   2.444   1.568   1.115 -0.3033 -0.1079  0.7175
   29HFI     O1  337   1.500   0.415   0.834 -0.7549 -0.1419 -0.6452
   29HFI     C1  338   1.393   0.410   0.740  0.2132 -0.2606  0.8119
   29HFI     C2  339   1.310   0.284   0.775 -0.2781  0.2174  0.5440
   29HFI     F1  340   1.378   0.171   0.766 -0.3526 -0.1546  0.2997
   29HFI     F2  341   1.202   0.275   0.690  0.0623 -0.0185  0.1048
   29HFI     F3  342   1.275   0.289   0.905 -0.4800  0.2260  0.6244
   29HFI     C3  343   1.444   0.423   0.587 -0.5084  0.8580  0.2509
   29HFI     F4  344   1.348   0.385   0.508 -0.0057 -0.2698  0.4806
   29HFI     F5  345   1.549   0.333   0.575 -0.0950 -0.0381  0.4759
   29HFI     F6  346   1.487   0.542   0.560  0.6651 -0.5785 -0.1731
   29HFI     H1  347   1.467   0.375   0.916 -0.8152 -0.0477 -0.6231
   29HFI     H2  348   1.341   0.506   0.751  0.4340 -0.0687  0.2444
   30HFI     O1  349   2.472   2.683   1.269  0.6955  0.4499  1.2031
   30HFI     C1  350   2.491   2.813   1.324  0.7178 -0.4714 -0.1211
   30HFI     C2  351   2.564   2.803   1.463 -0.1902  0.4797  0.3363
   30HFI     F1  352   2.595   2.927   1.510 -0.3877 -0.2236 -0.2170
   30HFI     F2  353   2.671   2.728   1.457 -0.4331  0.0735  0.1199
   30HFI     F3  354   2.482   2.749   1.547  0.1297 -0.3501 -0.5829
   30HFI     C3  355   2.358   2.894   1.317 -0.4110  0.6547 -0.7515
   30HFI     F4  356   2.360   3.005   1.392 -0.5451  0.2464  0.0237
   30HFI     F5  357   2.256   2.820   1.356 -0.1054  0.1665 -0.7582
   30HFI     F6  358   2.328   2.935   1.188 -0.4051 -0.2858  0.1470
   30HFI     H1  359   2.399   2.642   1.320 -0.0091  0.1135 -0.0657
   30HFI     H2  360   2.551   2.874   1.255 -1.5220  0.5902 -1.1528
   31HFI     O1  361   1.017   2.078   1.617  0.6323  0.0852  0.4872
   31HFI     C1  362   1.061   2.168   1.721 -0.0803 -0.8263 -0.6555
   31HFI     C2  363   0.962   2.170   1.846 -0.6263  0.2986  0.4424
   31HFI     F1  364   1.027   2.229   1.945 -0.2503 -0.1186  0.0209
   31HFI     F2  365   0.932   2.047   1.884 -0.1172  0.3459  0.6290
   31HFI     F3  366   0.844   2.226   1.814 -0.0370 -0.5931 -0.2239
   31HFI     C3  367   1.080   2.312   1.656  0.1873  0.2347  0.6282
   31HFI     F4  368   1.171   2.314   1.560  0.2094  0.2172 -0.5196
   31HFI     F5  369   1.120   2.407   1.744 -0.0550 -0.4532 -0.3646
   31HFI     F6  370   0.965   2.361   1.600  0.2238  0.0964  0.5055
   31HFI     H1  371   0.985   2.001   1.667  0.8779 -0.3531 -0.0163
   31HFI     H2  372   1.156   2.140   1.768 -0.0612 -1.1364 -0.8760
   32HFI     O1  373   2.012   0.712   0.410 -0.9057  0.5870 -0.1026
   32HFI     C1  374   1.899   0.686   0.332 -0.0027 -0.3379  0.9676
   32HFI     C2  375   1.798   0.812   0.329 -0.0426  0.2921  1.1920
   32HFI     F1  376   1.712   0.823   0.225 -0.0523 -0.0416  0.3816
   32HFI     F2  377   1.865   0.930   0.343 -0.2844 -0.2727 -0.5328
   32HFI     F3  378   1.725   0.807   0.444  0.0116 -0.8319  0.1445
   32HFI     C3  379   1.837   0.548   0.372 -0.4602  0.1249 -1.0553
   32HFI     F4  380   1.918   0.447   0.355 -0.3933  0.4195  0.2254
   32HFI     F5  381   1.727   0.531   0.298  0.0911 -0.4382 -1.0501
   32HFI     F6  382   1.805   0.551   0.500 -0.0262  0.5219 -0.5631
   32HFI     H1  383   1.987   0.719   0.504 -4.1420  1.2089 -0.9542
   32HFI     H2  384   1.920   0.675   0.225 -0.3108  0.6102  0.8078
   33HFI     O1  385   2.363   2.002   0.051 -0.3175 -0.0070  0.6775
   33HFI     C1  386   2.294   2.090   0.137 -0.8084  0.7572 -0.3054
   33HFI     C2  387   2.149   2.037   0.182  0.3894 -0.2752  0.3993
   33HFI     F1  388   2.072   2.026   0.074  0.2737 -0.4032 -0.1460
   33HFI     F2  389   2.098   2.132   0.261  0.2983 -0.0209 -0.2422
   33HFI     F3  390   2.149   1.923   0.254  0.3867 -0.0964 -0.5532
   33HFI     C3  391   2.289   2.238   0.079  0.1535  0.5397 -0.0765
   33HFI     F4  392   2.262   2.317   0.185 -0.1529  0.3633 -0.1334
   33HFI     F5  393   2.193   2.257  -0.012 -0.2436  0.1568  0.3966
   33HFI     F6  394   2.404   2.276   0.029 -0.0938  0.0374 -0.0352
   33HFI     H1  395   2.444   2.048   0.023 -0.1697  0.5846  2.0374
   33HFI     H2  396   2.346   2.088   0.234  1.8391 -1.0314 -1.7124
   34HFI     O1  397   1.768   1.342   1.469 -0.1773 -0.3915  0.2887
   34HFI     C1  398   1.686   1.220   1.446 -0.6253  0.7831  0.0197
   34HFI     C2  399   1.785   1.098   1.467  0.0403 -0.3415 -0.4923
   34HFI     F1  400   1.710   0.987   1.472 -0.2678 -0.2018 -0.0789
   34HFI     F2  401   1.847   1.116   1.583  0.3444 -0.1168  0.5927
   34HFI     F3  402   1.877   1.100   1.372  0.0888  0.4078  0.2428
   34HFI     C3  403   1.610   1.228   1.314  0.5288 -0.2428  0.1605
   34HFI     F4  404   1.578   1.352   1.286 -0.2010  0.1113 -0.3365
   34HFI     F5  405   1.494   1.155   1.317 -0.2557 -0.7552 -0.5226
   34HFI     F6  406   1.681   1.184   1.209 -0.0376  0.1017  0.2619
   34HFI     H1  407   1.722   1.417   1.427 -0.9787 -1.8182 -1.4353
   34HFI     H2  408   1.612   1.223   1.527 -0.3364 -2.5076  0.5073
   35HFI     O1  409   0.806   0.653   2.453 -0.0116 -0.0391 -0.7015
   35HFI     C1  410   0.688   0.734   2.450  0.0948 -0.3256  0.6174
   35HFI     C2  411   0.606   0.717   2.586  0.5337 -0.2626 -0.4053
   35HFI     F1  412   0.487   0.788   2.582 -0.4507 -0.1825  0.7277
   35HFI     F2  413   0.693   0.768   2.681  0.4269  0.0149 -0.0468
   35HFI     F3  414   0.573   0.597   2.621 -0.0271  0.2013 -0.4480
   35HFI     C3  415   0.606   0.685   2.322  0.1655  0.0950  0.2574
   35HFI     F4  416   0.676   0.697   2.211  0.2598 -0.0948 -0.2167
   35HFI     F5  417   0.493   0.757   2.305 -0.7283  0.1327 -0.3331
   35HFI     F6  418   0.580   0.553   2.328  0.4834  0.2977  0.2776
   35HFI     H1  419   0.779   0.577   2.507  2.6640  0.4219  1.4000
   35HFI     H2  420   0.705   0.840   2.429 -1.5297  0.2276  1.9508
   36HFI     O1  421   2.626   1.970   0.211 -0.3709  0.7389  0.3059
   36HFI     C1  422   2.750   1.933   0.152 -0.5829  0.8160  0.3642
   36HFI     C2  423   2.771   1.982   0.000  0.0455 -0.2027  0.3190
   36HFI     F1  424   2.810   1.884  -0.083  0.0677 -0.2210 -0.4554
   36HFI     F2  425   2.871   2.067  -0.005 -0.3216 -0.0720 -0.1874
   36HFI     F3  426   2.662   2.033  -0.054  0.0835 -0.1166  0.1925
   36HFI     C3  427   2.772   1.780   0.181  0.4800 -0.0730  0.0263
   36HFI     F4  428   2.669   1.704   0.127 -0.3918 -0.4139 -0.6234
   36HFI     F5  429   2.768   1.770   0.319  0.2640 -0.0679 -0.1064
   36HFI     F6  430   2.889   1.730   0.129  0.0704  0.1462 -0.3618
   36HFI     H1  431   2.596   1.895   0.265  1.8449  0.6172  1.4214
   36HFI     H2  432   2.837   1.975   0.205 -0.4615  0.8107  0.1710
   37HFI     O1  433   0.792   1.369   0.379  0.2169  0.0750  0.1346
   37HFI     C1  434   0.894   1.281   0.423  0.0789  0.7589 -0.6779
   37HFI     C2  435   0.962   1.210   0.298 -0.0095  0.5177  0.0941
   37HFI     F1  436   1.068   1.148   0.337 -0.2392 -0.0213 -0.2970
   37HFI     F2  437   1.004   1.298   0.214  0.2214 -0.2605 -0.0305
   37HFI     F3  438   0.876   1.122   0.226  0.1507  0.1206  0.0961
   37HFI     C3  439   0.840   1.182   0.533  0.6492 -0.0117 -0.8412
   37HFI     F4  440   0.948   1.126   0.589 -0.1026  0.0633 -0.4081
   37HFI     F5  441   0.762   1.088   0.486  0.1548  0.4686  0.0390
   37HFI     F6  442   0.774   1.250   0.629  0.4891 -0.5492  0.6565
   37HFI     H1  443   0.768   1.335   0.291  0.5621 -0.9018  0.4085
   37HFI     H2  444   0.959   1.340   0.489  0.0320 -1.2452  1.2458
   38HFI     O1  445   0.327   2.085   1.995  0.1174  0.7880  0.2462
   38HFI     C1  446   0.410   1.959   2.010 -0.4066 -0.3293 -0.4282
   38HFI     C2  447   0.507   1.928   1.888 -0.0476 -0.1453 -0.4006
   38HFI     F1  448   0.609   2.014   1.879 -0.0172  0.6780  0.1352
   38HFI     F2  449   0.439   1.943   1.772 -0.4333 -0.2801 -0.1123
   38HFI     F3  450   0.558   1.807   1.893 -0.0566  0.0176  0.5292
   38HFI     C3  451   0.325   1.839   2.047  0.4583  0.4492 -0.6313
   38HFI     F4  452   0.226   1.869   2.130  0.4854 -0.2414  0.3807
   38HFI     F5  453   0.404   1.748   2.098 -0.4610 -0.2539  0.0012
   38HFI     F6  454   0.268   1.788   1.938  0.1938  0.7355 -0.2044
   38HFI     H1  455   0.386   2.162   1.992  0.5171  0.4457 -1.6044
   38HFI     H2  456   0.485   1.986   2.085 -0.9347 -1.5956  0.5606
   39HFI     O1  457   0.249   0.777   1.311 -0.2277 -0.2322 -0.4634
   39HFI     C1  458   0.348   0.790   1.422  0.6902 -0.0230  0.0154
   39HFI     C2  459   0.487   0.752   1.376 -0.1142  0.9329 -0.2400
   39HFI     F1  460   0.490   0.631   1.315  0.5087  0.1913 -0.0167
   39HFI     F2  461   0.562   0.733   1.481 -0.4128  0.4011  0.3470
   39HFI     F3  462   0.536   0.852   1.300  0.1687  0.1570  0.4209
   39HFI     C3  463   0.300   0.723   1.560  1.5507 -0.8150  0.4196
   39HFI     F4  464   0.366   0.766   1.665 -0.0305  0.2174  0.1801
   39HFI     F5  465   0.305   0.590   1.555  0.4533  0.4392  0.1732
   39HFI     F6  466   0.172   0.766   1.583 -0.1772  0.2792 -0.3581
   39HFI     H1  467   0.294   0.718   1.248  0.7891 -2.0592  1.8932
   39HFI     H2  468   0.348   0.898   1.441 -1.6663 -0.1448  0.9311
   40HFI     O1  469   0.386   2.575   1.096  0.1491 -0.2163 -0.0659
   40HFI     C1  470   0.334   2.444   1.137  0.1549  0.6141  0.1815
   40HFI     C2  471   0.253   2.374   1.012 -0.8097 -0.5631  0.6152
   40HFI     F1  472   0.157   2.465   0.976 -0.2791 -0.2701  0.2619
   40HFI     F2  473   0.215   2.250   1.046  0.2230 -0.1618 -0.4133
   40HFI     F3  474   0.339   2.357   0.910 -0.4624 -0.1316 -0.0373
   40HFI     C3  475   0.247   2.458   1.266 -0.3307  1.3223  0.0967
   40HFI     F4  476   0.333   2.470   1.367  0.2742  0.4595  0.3112
   40HFI     F5  477   0.162   2.350   1.287 -0.0246 -0.4005 -0.2748
   40HFI     F6  478   0.168   2.562   1.260  0.1517  0.6656 -0.2202
   40HFI     H1  479   0.341   2.644   1.148 -1.5547 -0.6096 -0.9571
   40HFI     H2  480   0.415   2.375   1.164 -0.0113  0.4442  0.2468
   41HFI     O1  481   1.194   2.359   0.326  0.2745 -0.4391 -0.4702
   41HFI     C1  482   1.195   2.470   0.424  1.0054 -0.4073  0.4434
   41HFI     C2  483   1.299   2.580   0.400  0.5164  0.2380  0.1740
   41HFI     F1  484   1.287   2.628   0.275 -0.3784  0.4074 -0.0823
   41HFI     F2  485   1.432   2.536   0.409 -0.2359 -0.3647  0.1454
   41HFI     F3  486   1.289   2.686   0.476  0.2995 -0.2699  0.4380
   41HFI     C3  487   1.199   2.417   0.574  0.5798  0.9912 -0.8978
   41HFI     F4  488   1.307   2.368   0.604 -0.6808 -0.3892  0.1938
   41HFI     F5  489   1.099   2.326   0.591  0.0990  0.2162  0.1278
   41HFI     F6  490   1.179   2.514   0.667  0.3784 -1.0692  0.6932
   41HFI     H1  491   1.273   2.375   0.271 -0.8477 -0.9399 -2.2587
   41HFI     H2  492   1.101   2.521   0.399 -0.6858 -2.5996  2.1211
   42HFI     O1  493   0.450   1.574   1.732 -0.4544  0.3361  0.0824
   42HFI     C1  494   0.475   1.503   1.856  0.4958  0.6096  0.3858
   42HFI     C2  495   0.621   1.454   1.876 -0.1223  0.2210 -0.3226
   42HFI     F1  496   0.625   1.369   1.978 -0.0847  0.2361 -0.1993
   42HFI     F2  497   0.707   1.554   1.898  0.4088  0.0345  0.4054
   42HFI     F3  498   0.665   1.378   1.774  0.0606  0.3622  0.2004
   42HFI     C3  499   0.367   1.390   1.869  0.0356 -0.3510  0.2487
   42HFI     F4  500   0.244   1.439   1.832 -0.0859 -0.2483  0.2225
   42HFI     F5  501   0.357   1.338   1.985 -0.0880 -0.2713 -0.0048
   42HFI     F6  502   0.378   1.282   1.786  0.1186 -0.0945  0.4268
   42HFI     H1  503   0.356   1.590   1.711 -0.0059 -0.9699 -3.2250
   42HFI     H2  504   0.458   1.575   1.937  0.7443  0.7091  0.3510
   43HFI     O1  505   1.288   0.791   0.597  0.0920  0.0430 -0.0206
   43HFI     C1  506   1.377   0.848   0.494 -0.4751 -0.4710  0.2533
   43HFI     C2  507   1.397   1.002   0.514 -0.5865  0.6141  0.2450
   43HFI     F1  508   1.451   1.067   0.411  0.2334  0.2765  0.3230
   43HFI     F2  509   1.487   1.007   0.618 -0.6223 -0.2659  0.5029
   43HFI     F3  510   1.283   1.062   0.551 -0.0641 -0.3050  0.2143
   43HFI     C3  511   1.345   0.805   0.351 -0.2266 -0.0719 -0.4390
   43HFI     F4  512   1.226   0.840   0.312  0.1127  0.1213  0.2045
   43HFI     F5  513   1.341   0.673   0.340  0.2460 -0.0355 -0.0843
   43HFI     F6  514   1.434   0.846   0.256 -0.0341 -1.0299 -0.0766
   43HFI     H1  515   1.199   0.784   0.561  0.3556 -0.3235 -0.5978
   43HFI     H2  516   1.477   0.807   0.509  0.3993 -0.1966 -4.1526
   44HFI     O1  517   1.063   0.546   0.714  0.3182  0.2561  0.0624
   44HFI     C1  518   0.951   0.531   0.626 -0.1188  0.4155 -0.0042
   44HFI     C2  519   0.930   0.652   0.535  0.8474 -0.2498 -0.3582
   44HFI     F1  520   0.847   0.636   0.427  0.0502 -0.1535 -0.0851
   44HFI     F2  521   1.053   0.685   0.486 -0.3862  0.0984 -0.1924
   44HFI     F3  522   0.882   0.756   0.602 -0.3110  0.6321 -0.2367
   44HFI     C3  523   0.829   0.484   0.694 -0.0962  0.6196 -0.1052
   44HFI     F4  524   0.730   0.477   0.607 -0.2139 -0.2449 -0.3218
   44HFI     F5  525   0.787   0.565   0.795  0.2726  0.1045  0.2982
   44HFI     F6  526   0.850   0.362   0.751 -0.0829 -0.0479 -0.3448
   44HFI     H1  527   1.040   0.624   0.768  0.8238 -0.0486  0.7227
   44HFI     H2  528   0.979   0.448   0.558 -2.3492 -0.3651 -0.0074
   45HFI     O1  529   1.893   1.788   0.027  0.3049 -0.2198 -0.2234
   45HFI     C1  530   1.899   1.711   0.156 -0.3474 -0.3560  0.6103
   45HFI     C2  531   1.846   1.562   0.152 -0.2353 -0.4115  0.0116
   45HFI     F1  532   1.715   1.554   0.125  0.3798 -0.2259  0.4522
   45HFI     F2  533   1.867   1.500   0.277  0.4875 -0.0084  0.5044
   45HFI     F3  534   1.918   1.499   0.055 -0.3560 -0.5020  0.1874
   45HFI     C3  535   1.826   1.791   0.266  0.3420  0.4485 -0.0143
   45HFI     F4  536   1.856   1.926   0.265 -0.1091 -0.0503  0.2195
   45HFI     F5  537   1.859   1.751   0.391  0.0658  0.5560  0.2748
   45HFI     F6  538   1.695   1.786   0.245 -0.2138  0.2055  0.0134
   45HFI     H1  539   1.827   1.743  -0.029  0.1182 -0.0319 -0.1553
   45HFI     H2  540   2.006   1.713   0.181 -0.5170 -2.0116  1.5399
   46HFI     O1  541   0.994   1.463   1.016 -0.4634  0.2195  0.7059
   46HFI     C1  542   1.021   1.587   0.945  0.0216  0.1519 -0.0994
   46HFI     C2  543   0.972   1.706   1.024 -0.8542  0.2716  0.2439
   46HFI     F1  544   1.023   1.695   1.149 -0.0976 -0.6549 -0.2814
   46HFI     F2  545   0.836   1.703   1.029 -0.4734  0.2786  0.2362
   46HFI     F3  546   1.007   1.825   0.967 -0.4032  0.1721  0.4489
   46HFI     C3  547   0.979   1.587   0.798 -0.3320  0.0787 -0.4073
   46HFI     F4  548   0.848   1.593   0.791 -0.2108 -0.1843 -0.3820
   46HFI     F5  549   1.012   1.471   0.737 -0.0879 -0.2808  0.0583
   46HFI     F6  550   1.024   1.692   0.731  0.6104  0.1054  0.4467
   46HFI     H1  551   0.899   1.449   1.030 -0.2211 -1.6744  0.6239
   46HFI     H2  552   1.130   1.596   0.940  0.1751 -1.3491  0.2191
   47HFI     O1  553   0.995   1.797   1.692 -0.4766  0.2649  0.2088
   47HFI     C1  554   0.963   1.737   1.557 -0.4472 -0.2707  0.2453
   47HFI     C2  555   0.806   1.726   1.522  0.2646  0.0712 -0.0011
   47HFI     F1  556   0.753   1.843   1.566 -0.5249  0.1436  0.0167
   47HFI     F2  557   0.739   1.625   1.580 -0.4593 -0.0127 -0.3061
   47HFI     F3  558   0.786   1.712   1.390  0.4706  0.3356 -0.0821
   47HFI     C3  559   1.040   1.599   1.532  0.7338 -0.3045 -0.0252
   47HFI     F4  560   1.169   1.610   1.543 -0.2607  0.4603 -0.0305
   47HFI     F5  561   1.022   1.551   1.407 -0.6849 -0.4541  0.3815
   47HFI     F6  562   0.999   1.506   1.614  0.4456 -0.2339  0.1211
   47HFI     H1  563   1.085   1.776   1.724 -0.3989 -0.5919 -0.5541
   47HFI     H2  564   1.005   1.798   1.476  0.3256 -2.5014 -1.0761
   48HFI     O1  565   1.602   2.183   1.359 -0.3893 -0.2181  0.7419
   48HFI     C1  566   1.644   2.311   1.407  0.0270 -0.5559  0.3010
   48HFI     C2  567   1.686   2.300   1.556 -0.5068 -0.4403 -0.0367
   48HFI     F1  568   1.592   2.231   1.619  0.2802  0.2217  0.1525
   48HFI     F2  569   1.707   2.421   1.619  0.3146 -0.1134  0.1997
   48HFI     F3  570   1.804   2.228   1.566  0.0122 -0.3791  0.4740
   48HFI     C3  571   1.538   2.419   1.390  0.4540  0.0263 -0.9223
   48HFI     F4  572   1.516   2.430   1.260  0.4060 -0.4203 -0.0507
   48HFI     F5  573   1.576   2.545   1.435 -0.2100  0.5707  0.0118
   48HFI     F6  574   1.412   2.389   1.451 -0.4414 -0.4217  0.2288
   48HFI     H1  575   1.568   2.193   1.268  0.2254 -0.9616  0.4272
   48HFI     H2  576   1.733   2.347   1.355 -1.2179 -0.2176 -1.6257
   49HFI     O1  577   1.213   0.032   2.365 -0.4057 -0.1476  0.1780
   49HFI     C1  578   1.193  -0.077   2.280  0.1962  0.8622  0.0869
   49HFI     C2  579   1.076  -0.165   2.336  0.4307  1.2204 -0.3473
   49HFI     F1  580   1.085  -0.197   2.462  0.1954  0.3189 -0.0911
   49HFI     F2  581   1.070  -0.273   2.262  0.1353 -0.3318  0.5414
   49HFI     F3  582   0.963  -0.099   2.312 -0.0311 -0.3362 -0.2937
   49HFI     C3  583   1.327  -0.161   2.261 -0.2712  0.1990 -0.0085
   49HFI     F4  584   1.337  -0.225   2.146  0.0680 -0.1395 -0.7183
   49HFI     F5  585   1.341  -0.250   2.357  0.9781 -0.2882 -1.0380
   49HFI     F6  586   1.429  -0.075   2.267  0.6921  0.1658  0.1988
   49HFI     H1  587   1.142   0.098   2.354  1.3546  1.9593  0.8805
   49HFI     H2  588   1.160  -0.044   2.181 -0.6325 -1.7762 -0.5643
   50HFI     O1  589   2.724   0.781   1.248 -0.1109 -0.0878  0.3424
   50HFI     C1  590   2.676   0.642   1.224  0.0016  0.1024 -0.0719
   50HFI     C2  591   2.639   0.559   1.349 -0.1668  0.1084  0.1339
   50HFI     F1  592   2.746   0.522   1.421 -0.2417 -0.6380  0.0614
   50HFI     F2  593   2.567   0.447   1.329 -0.4251  0.8483 -0.1848
   50HFI     F3  594   2.573   0.643   1.427  0.0303 -0.3225 -0.5512
   50HFI     C3  595   2.771   0.578   1.122 -0.2308  0.6374  0.6350
   50HFI     F4  596   2.733   0.457   1.073  0.3708 -0.3227  0.3982
   50HFI     F5  597   2.898   0.559   1.170  0.5796 -0.3513 -0.1545
   50HFI     F6  598   2.782   0.656   1.014  0.4511  0.0180 -0.5192
   50HFI     H1  599   2.814   0.774   1.284 -0.1691 -1.4033  0.2572
   50HFI     H2  600   2.579   0.637   1.171  1.0553  0.4139 -2.0781
   51HFI     O1  601   0.476   2.337   1.983  1.0217 -0.8565 -0.4787
   51HFI     C1  602   0.528   2.403   2.104 -0.1942 -0.2744  0.3790
   51HFI     C2  603   0.538   2.317   2.228  0.0862  0.2267 -0.1677
   51HFI     F1  604   0.611   2.211   2.210  0.0697 -0.7414 -0.1146
   51HFI     F2  605   0.412   2.285   2.269 -0.0806  0.0115 -0.0882
   51HFI     F3  606   0.593   2.380   2.336  0.2318  0.1148  0.0591
   51HFI     C3  607   0.434   2.529   2.116 -0.2548 -0.5003  0.2896
   51HFI     F4  608   0.305   2.501   2.138  0.6258  0.7794  0.5858
   51HFI     F5  609   0.442   2.602   1.996 -0.2008 -0.0355 -0.4929
   51HFI     F6  610   0.474   2.613   2.212 -0.0991 -0.2082 -0.2832
   51HFI     H1  611   0.492   2.389   1.902 -0.3630  0.0429 -0.2076
   51HFI     H2  612   0.632   2.434   2.089  0.1006 -0.0921  2.6497
   52HFI     O1  613   1.120   1.361   1.851 -0.0497  0.2860  0.6033
   52HFI     C1  614   1.183   1.431   1.962 -0.2304  0.1461 -0.7171
   52HFI     C2  615   1.076   1.458   2.073 -0.0655 -0.5114 -0.5349
   52HFI     F1  616   1.126   1.459   2.196 -0.1014  0.5153 -0.8732
   52HFI     F2  617   0.984   1.365   2.069 -0.5058  0.2202 -0.2230
   52HFI     F3  618   1.005   1.570   2.056 -0.1874 -0.4298  0.1116
   52HFI     C3  619   1.265   1.553   1.918 -0.0759  1.0701 -0.4241
   52HFI     F4  620   1.180   1.643   1.859 -0.6788  0.3592  0.0310
   52HFI     F5  621   1.370   1.527   1.841  0.1631  0.4190  0.3447
   52HFI     F6  622   1.315   1.617   2.029  0.2009  0.4123 -0.2275
   52HFI     H1  623   1.040   1.408   1.820  1.2558  1.9245 -0.3952
   52HFI     H2  624   1.256   1.376   2.022  0.1178  2.2381  0.8083
   53HFI     O1  625   0.093   2.393   1.596  0.1035 -0.0452 -0.4001
   53HFI     C1  626   0.077   2.496   1.700  0.2992  0.1907 -0.6604
   53HFI     C2  627   0.199   2.595   1.679 -0.9132 -0.4080  0.1295
   53HFI     F1  628   0.205   2.642   1.555 -0.2824  0.0028 -0.3604
   53HFI     F2  629   0.314   2.537   1.699 -0.4462  0.1229  0.0259
   53HFI     F3  630   0.187   2.700   1.763  0.7650  0.4258 -0.8330
   53HFI     C3  631   0.054   2.428   1.842 -0.1313  0.3008  0.0966
   53HFI     F4  632   0.080   2.505   1.944 -0.8464 -0.1487 -0.4479
   53HFI     F5  633   0.127   2.315   1.864  0.3173 -0.2133 -0.2491
   53HFI     F6  634  -0.075   2.390   1.853  0.3534 -0.1948 -0.1091
   53HFI     H1  635   0.017   2.339   1.568 -0.7131  2.2140 -2.6792
   53HFI     H2  636  -0.010   2.560   1.681 -0.3192  0.3121  2.2420
   54HFI     O1  637   1.273   2.096   0.318 -0.1680 -0.5037 -0.5772
   54HFI     C1  638   1.293   1.954   0.318  0.3568  0.3613 -0.0589
   54HFI     C2  639   1.195   1.880   0.215  0.0402 -0.5293  0.8394
   54HFI     F1  640   1.068   1.924   0.248 -0.4971 -0.0395  0.0647
   54HFI     F2  641   1.198   1.747   0.215  0.2077 -0.0503  0.1326
   54HFI     F3  642   1.217   1.927   0.090  0.3233  0.1731  0.2153
   54HFI     C3  643   1.281   1.898   0.461  0.4763  0.0367  0.1684
   54HFI     F4  644   1.294   1.761   0.465  0.5940  0.1868 -0.0044
   54HFI     F5  645   1.155   1.925   0.509  0.3123  0.3781 -0.0151
   54HFI     F6  646   1.358   1.951   0.555 -0.4038 -0.3243  0.7320
   54HFI     H1  647   1.180   2.112   0.342  0.1348  0.1663  0.1677
   54HFI     H2  648   1.392   1.937   0.273  0.1838  0.7791 -0.6047
   55HFI     O1  649   2.523   2.554   0.017  0.6000  0.6750  0.4817
   55HFI     C1  650   2.614   2.512  -0.087 -0.4160  0.4116 -0.1787
   55HFI     C2  651   2.736   2.442  -0.034 -0.0885  0.2896 -0.7156
   55HFI     F1  652   2.802   2.364  -0.130 -0.2801  0.0546 -0.2871
   55HFI     F2  653   2.697   2.355   0.066 -0.5307  0.2387  0.2462
   55HFI     F3  654   2.830   2.526   0.018 -0.1990  0.5464  0.2484
   55HFI     C3  655   2.647   2.632  -0.182 -0.6166  0.6819 -0.4436
   55HFI     F4  656   2.533   2.686  -0.227  0.0878 -0.1879 -0.1863
   55HFI     F5  657   2.716   2.581  -0.290  0.7773  0.1924 -0.6602
   55HFI     F6  658   2.720   2.726  -0.128  0.0582 -0.4675  0.0549
   55HFI     H1  659   2.453   2.614  -0.014 -0.2592  1.3151  3.4472
   55HFI     H2  660   2.571   2.434  -0.152  0.6481 -1.3749  1.1971
   56HFI     O1  661   1.763   0.232   1.403  0.6606  0.1013 -0.3880
   56HFI     C1  662   1.741   0.149   1.514  0.2652  0.3467  0.2693
   56HFI     C2  663   1.677   0.229   1.632 -0.2464  0.0317 -0.1376
   56HFI     F1  664   1.573   0.309   1.594  0.5839  0.2297 -0.3534
   56HFI     F2  665   1.779   0.305   1.687  0.3315 -0.0672  0.1577
   56HFI     F3  666   1.628   0.141   1.722  0.2048 -0.0023  0.0446
   56HFI     C3  667   1.865   0.061   1.556 -0.2998 -0.1406  0.1459
   56HFI     F4  668   1.856  -0.053   1.481 -0.3151  0.4969 -0.4210
   56HFI     F5  669   1.871   0.029   1.685  0.5038 -0.4267  0.3240
   56HFI     F6  670   1.976   0.127   1.523 -0.4136 -0.1929 -0.4408
   56HFI     H1  671   1.791   0.319   1.436  1.3912 -0.9305  1.7669
   56HFI     H2  672   1.666   0.075   1.484  0.4231  0.6042 -0.8033
   57HFI     O1  673   0.795   1.940   2.434  0.2207  0.5799 -0.3909
   57HFI     C1  674   0.891   1.926   2.326  0.3066 -0.1770  0.4379
   57HFI     C2  675   0.953   2.061   2.269  0.0644 -0.4254 -0.5297
   57HFI     F1  676   0.979   2.142   2.380  0.3503  0.0992  0.2481
   57HFI     F2  677   0.872   2.127   2.190 -0.0904 -0.2899 -0.2725
   57HFI     F3  678   1.066   2.039   2.205  0.0126  0.1284 -0.3022
   57HFI     C3  679   0.823   1.846   2.214  0.1745 -0.2186 -0.0467
   57HFI     F4  680   0.719   1.913   2.160  0.3280  0.5742 -0.2685
   57HFI     F5  681   0.767   1.728   2.249  0.1750 -0.2327 -0.3280
   57HFI     F6  682   0.907   1.814   2.118 -0.3776 -0.1725  0.3611
   57HFI     H1  683   0.831   1.991   2.508 -0.1303  1.4773 -0.8394
   57HFI     H2  684   0.964   1.851   2.359  1.5649  0.9436  0.2850
   58HFI     O1  685   0.949   0.856   2.110 -0.5677  0.0021  0.4446
   58HFI     C1  686   1.038   0.956   2.155 -0.5213  0.3092  0.0099
   58HFI     C2  687   0.971   1.072   2.230 -0.6348  0.9260  0.5821
   58HFI     F1  688   0.882   1.129   2.147  0.3521 -0.4634 -0.1957
   58HFI     F2  689   1.069   1.151   2.284 -0.6050  0.1847  0.0712
   58HFI     F3  690   0.894   1.013   2.327  0.2919  0.1497 -0.1547
   58HFI     C3  691   1.126   1.008   2.033  0.3186 -0.0859  0.2074
   58HFI     F4  692   1.037   1.042   1.934  0.1873  0.2885 -0.1429
   58HFI     F5  693   1.207   0.914   2.002  0.4843  0.5299 -0.6437
   58HFI     F6  694   1.211   1.115   2.053  0.4245 -0.2536  0.3013
   58HFI     H1  695   0.866   0.904   2.095  0.4819  1.6516 -0.2700
   58HFI     H2  696   1.100   0.912   2.234 -1.8152 -1.3991  0.1008
   59HFI     O1  697   2.651   2.309   0.931  0.3347 -0.1624 -0.0160
   59HFI     C1  698   2.573   2.240   1.029  0.1656 -0.4540 -0.1503
   59HFI     C2  699   2.467   2.161   0.959 -0.6016 -0.2526  0.9545
   59HFI     F1  700   2.394   2.080   1.042  0.2433  0.2316  0.1080
   59HFI     F2  701   2.511   2.082   0.857 -0.5262  0.8008  0.3714
   59HFI     F3  702   2.381   2.250   0.895 -0.6703  0.5279  0.2233
   59HFI     C3  703   2.513   2.337   1.133 -0.2332 -0.4581  0.4120
   59HFI     F4  704   2.612   2.419   1.189  0.2568  0.3352 -0.1845
   59HFI     F5  705   2.458   2.272   1.234 -0.4241 -0.3636 -0.2840
   59HFI     F6  706   2.418   2.419   1.082  0.0899 -0.0587 -0.3504
   59HFI     H1  707   2.618   2.399   0.913 -0.2352 -0.8142 -2.4390
   59HFI     H2  708   2.642   2.173   1.082  3.3258  2.4792 -0.3820
   60HFI     O1  709   1.423   2.071   1.843  0.1518 -0.8448  0.1467
   60HFI     C1  710   1.483   2.097   1.973  0.2241 -0.5887  0.5269
   60HFI     C2  711   1.598   2.003   1.994  0.1857 -0.1962 -0.1564
   60HFI     F1  712   1.677   1.996   1.893 -0.4124 -0.3696 -0.3051
   60HFI     F2  713   1.551   1.874   2.015 -0.2153  0.1829 -0.2952
   60HFI     F3  714   1.675   2.047   2.098 -0.0919 -0.5818  0.1804
   60HFI     C3  715   1.376   2.092   2.094 -0.8713 -0.4307  0.3639
   60HFI     F4  716   1.303   1.979   2.090  0.2447  0.4381  0.5154
   60HFI     F5  717   1.283   2.186   2.089 -0.2549  0.4820 -0.0457
   60HFI     F6  718   1.428   2.108   2.216  0.0050  0.9213 -0.1560
   60HFI     H1  719   1.451   1.983   1.814  1.4332 -0.4447  0.1215
   60HFI     H2  720   1.527   2.198   1.977  1.3866 -0.9134 -2.4669
   61HFI     O1  721   1.617   1.829   0.807  0.2120  1.0000 -0.1303
   61HFI     C1  722   1.548   1.852   0.933  0.5223  0.0979 -0.2812
   61HFI     C2  723   1.397   1.886   0.905 -0.0353 -0.4449  0.0990
   61HFI     F1  724   1.323   1.882   1.017  0.1101 -0.3816  0.1847
   61HFI     F2  725   1.347   1.799   0.819  0.0383 -0.4529 -0.0469
   61HFI     F3  726   1.383   2.004   0.856 -0.2973  0.1858  0.1834
   61HFI     C3  727   1.625   1.958   1.019 -0.2294 -0.0537  0.1399
   61HFI     F4  728   1.747   1.912   1.045 -0.2384 -0.1082  0.2485
   61HFI     F5  729   1.564   1.983   1.138  0.2734 -0.0173 -0.0426
   61HFI     F6  730   1.641   2.076   0.966  0.5057 -0.1536 -0.3082
   61HFI     H1  731   1.597   1.896   0.740 -2.3421 -0.3847 -0.7814
   61HFI     H2  732   1.546   1.760   0.991 -0.8166  1.5307  2.0330
   62HFI     O1  733   1.903   2.598   2.033  0.2863 -0.1182  0.3404
   62HFI     C1  734   1.773   2.546   2.077 -0.2110  0.3410 -0.3900
   62HFI     C2  735   1.781   2.437   2.187  0.0925 -0.9329  0.3899
   62HFI     F1  736   1.660   2.399   2.227 -0.0320  0.6947  0.0837
   62HFI     F2  737   1.860   2.487   2.294  1.2144  0.0176 -0.0176
   62HFI     F3  738   1.850   2.333   2.133 -0.7181 -0.9244 -0.1472
   62HFI     C3  739   1.701   2.484   1.951 -0.0542 -0.1298  0.4537
   62HFI     F4  740   1.765   2.382   1.900 -0.2536  0.4291 -0.2203
   62HFI     F5  741   1.697   2.587   1.860 -0.3428 -0.7698 -0.0015
   62HFI     F6  742   1.576   2.437   1.966 -0.8948 -0.0766 -0.3101
   62HFI     H1  743   1.936   2.572   1.946  0.0281  2.0797 -0.4525
   62HFI     H2  744   1.709   2.628   2.109 -0.7045 -0.8510  1.8017
   63HFI     O1  745   1.111   2.734   1.126 -0.2199  0.2999 -0.0258
   63HFI     C1  746   1.058   2.791   1.250 -0.1349 -0.5454  0.7780
   63HFI     C2  747   0.944   2.703   1.317  0.2713  0.1969  0.4542
   63HFI     F1  748   0.898   2.742   1.436 -0.2079  0.0978  0.7813
   63HFI     F2  749   0.987   2.574   1.328 -0.1051 -0.0208 -0.1938
   63HFI     F3  750   0.839   2.699   1.236  0.0126 -0.0900  0.2256
   63HFI     C3  751   1.026   2.938   1.231 -0.2605 -0.8457  0.1246
   63HFI     F4  752   1.024   3.006   1.353  0.3127  0.2677  0.2577
   63HFI     F5  753   0.916   2.968   1.163  0.3952 -0.0553 -0.1117
   63HFI     F6  754   1.134   2.993   1.163 -0.1232  0.3440  0.3356
   63HFI     H1  755   1.208   2.723   1.125 -0.2065  0.4245 -0.5852
   63HFI     H2  756   1.136   2.787   1.327 -0.0360  0.6242  0.7413
   64HFI     O1  757   1.915   0.240   2.638  0.7669 -0.0663  0.3001
   64HFI     C1  758   1.978   0.369   2.632 -0.4693  0.1482 -0.2895
   64HFI     C2  759   2.109   0.378   2.713 -0.2290  0.5242 -0.5115
   64HFI     F1  760   2.089   0.338   2.838  0.1167 -0.4669 -0.1369
   64HFI     F2  761   2.163   0.501   2.709 -0.1255 -0.3857  0.2521
   64HFI     F3  762   2.201   0.299   2.662  0.2080  0.6794 -0.0592
   64HFI     C3  763   1.874   0.487   2.654  0.5220  0.2406 -0.4476
   64HFI     F4  764   1.929   0.608   2.673 -0.4427 -0.1419  0.0925
   64HFI     F5  765   1.796   0.457   2.758 -0.2955  0.3768 -0.4753
   64HFI     F6  766   1.796   0.490   2.545  0.3362  0.2673  0.4922
   64HFI     H1  767   1.881   0.239   2.729  1.5938  0.5594  0.6233
   64HFI     H2  768   2.001   0.382   2.525  0.0228 -0.3935 -0.2514
   65HFI     O1  769   0.880   0.036   1.746 -0.3395  0.1455  0.0545
   65HFI     C1  770   0.834  -0.099   1.800 -0.2581 -0.3106 -0.4226
   65HFI     C2  771   0.712  -0.155   1.721 -0.0643  0.2353 -0.6140
   65HFI     F1  772   0.618  -0.063   1.699 -0.1757  0.1488 -0.3362
   65HFI     F2  773   0.663  -0.264   1.786 -0.8414 -0.1688 -0.5099
   65HFI     F3  774   0.756  -0.210   1.609 -0.2815  0.0795  0.3640
   65HFI     C3  775   0.816  -0.100   1.954 -0.2326  0.2864 -0.4319
   65HFI     F4  776   0.810  -0.222   2.004  0.0261 -0.1201 -0.8168
   65HFI     F5  777   0.699  -0.042   1.985 -0.2053  0.4337  0.1783
   65HFI     F6  778   0.913  -0.039   2.029  0.0912  0.4173 -0.4249
   65HFI     H1  779   0.808   0.101   1.756 -0.1967 -0.0891  3.1294
   65HFI     H2  780   0.913  -0.173   1.786  0.2362  0.4139 -1.6047
   66HFI     O1  781   2.732   2.105   2.116  0.3119  0.6334  0.2374
   66HFI     C1  782   2.655   2.096   2.244 -0.0724 -0.0260 -0.2122
   66HFI     C2  783   2.701   2.204   2.348 -0.7237  0.6467 -0.1102
   66HFI     F1  784   2.608   2.223   2.441  0.2436  0.2705  0.4419
   66HFI     F2  785   2.721   2.320   2.288  0.2125 -0.2092  0.4867
   66HFI     F3  786   2.816   2.173   2.421 -0.0158  0.1449  0.2019
   66HFI     C3  787   2.667   1.947   2.304 -0.0342 -1.2137 -0.6884
   66HFI     F4  788   2.797   1.915   2.338 -0.0203 -0.1924 -0.5986
   66HFI     F5  789   2.624   1.864   2.205 -0.4619 -0.0745 -0.2054
   66HFI     F6  790   2.591   1.935   2.417  0.6580 -0.4556 -0.1967
   66HFI     H1  791   2.819   2.062   2.122  0.4192  0.1669 -3.4965
   66HFI     H2  792   2.550   2.116   2.223 -0.3177  0.8771  1.8141
   67HFI     O1  793   2.023   1.205   2.731 -0.2299 -0.0805 -0.2228
   67HFI     C1  794   2.072   1.089   2.659  0.7730 -0.4922 -0.0441
   67HFI     C2  795   2.145   1.124   2.530 -0.2266  0.7948 -0.5410
   67HFI     F1  796   2.068   1.189   2.443  0.4884 -0.5116  0.0875
   67HFI     F2  797   2.186   1.013   2.468 -0.2441  0.1320 -0.3764
   67HFI     F3  798   2.253   1.206   2.554 -0.7207  0.3802  0.3358
   67HFI     C3  799   1.950   0.987   2.646  0.3404 -0.0676  0.2383
   67HFI     F4  800   1.842   1.050   2.602  0.0120 -0.0201  0.2058
   67HFI     F5  801   1.919   0.930   2.765 -0.2915 -0.4421 -0.1713
   67HFI     F6  802   1.966   0.881   2.561  0.1666  0.0128 -0.3111
   67HFI     H1  803   1.948   1.247   2.687  1.5712  0.7822 -2.5754
   67HFI     H2  804   2.138   1.032   2.725  0.7694 -0.6969 -0.2148
   68HFI     O1  805   2.316   1.194   2.180  0.5975 -0.0590 -0.5112
   68HFI     C1  806   2.357   1.336   2.160  0.1768  0.9326  0.5404
   68HFI     C2  807   2.490   1.382   2.226 -0.4445 -0.2644  0.7454
   68HFI     F1  808   2.600   1.344   2.156 -0.2319  0.1527  0.1131
   68HFI     F2  809   2.499   1.322   2.350 -0.5626 -0.4690 -0.6136
   68HFI     F3  810   2.492   1.516   2.234  0.0014  0.1162  0.1043
   68HFI     C3  811   2.234   1.435   2.186  0.0842 -0.3343  0.2883
   68HFI     F4  812   2.116   1.379   2.141 -0.2051  0.1292  0.2483
   68HFI     F5  813   2.255   1.552   2.120 -0.4491  0.2693  0.1571
   68HFI     F6  814   2.220   1.454   2.319  0.4486 -0.2410 -0.4242
   68HFI     H1  815   2.220   1.182   2.172  0.6752 -0.8685 -0.3303
   68HFI     H2  816   2.373   1.350   2.052 -0.1457 -2.0825  0.0676
   69HFI     O1  817   2.350   1.457   1.652 -0.1079 -0.6109  0.4826
   69HFI     C1  818   2.214   1.462   1.602 -0.0561  0.3461  0.6696
   69HFI     C2  819   2.110   1.507   1.709  0.2124  0.8085  0.3867
   69HFI     F1  820   2.149   1.632   1.762  0.9437  0.2332 -0.6904
   69HFI     F2  821   2.115   1.421   1.814  0.6535 -0.2695 -0.2715
   69HFI     F3  822   1.984   1.507   1.656 -0.1460  0.3470  0.6056
   69HFI     C3  823   2.169   1.323   1.530 -0.1953 -0.3434  0.7116
   69HFI     F4  824   2.141   1.222   1.618  0.1814  0.2635 -0.1498
   69HFI     F5  825   2.266   1.281   1.448 -0.3876 -0.3058 -0.1129
   69HFI     F6  826   2.063   1.345   1.450  0.1134  0.2265  0.0808
   69HFI     H1  827   2.402   1.398   1.596  0.5011  2.5237 -2.4242
   69HFI     H2  828   2.217   1.529   1.515 -0.3174  0.5446  0.8159
   70HFI     O1  829   2.357   2.636   2.294 -0.0103  0.5909 -0.3362
   70HFI     C1  830   2.377   2.498   2.251 -0.5284  0.1322  0.0730
   70HFI     C2  831   2.459   2.505   2.121  0.4220  0.0961 -0.1590
   70HFI     F1  832   2.394   2.528   2.004  0.5422  0.1271 -0.3493
   70HFI     F2  833   2.509   2.380   2.099 -0.2783  0.3488  0.6160
   70HFI     F3  834   2.571   2.588   2.132  0.0730  0.5077  0.0383
   70HFI     C3  835   2.257   2.395   2.249  0.3082 -0.1794 -0.5943
   70HFI     F4  836   2.311   2.276   2.225 -0.2434 -0.2402  0.7912
   70HFI     F5  837   2.152   2.425   2.164 -0.0335  0.6239 -0.2652
   70HFI     F6  838   2.207   2.390   2.371  0.0488 -0.0609  0.4563
   70HFI     H1  839   2.323   2.686   2.218 -0.2856 -0.8005 -1.1351
   70HFI     H2  840   2.452   2.446   2.313 -0.4066  1.1966  0.8187
   71HFI     O1  841   2.283   1.270   0.478  0.2421  0.2802  0.1132
   71HFI     C1  842   2.182   1.177   0.533  0.1328 -0.6747  0.2528
   71HFI     C2  843   2.042   1.245   0.538 -0.4088  0.2798  0.4112
   71HFI     F1  844   1.950   1.156   0.576 -0.1943 -0.3841  0.2802
   71HFI     F2  845   2.017   1.290   0.417  0.2620 -0.3779  0.0296
   71HFI     F3  846   2.048   1.346   0.620 -0.5428  0.0592  0.1744
   71HFI     C3  847   2.231   1.103   0.664 -0.0843 -0.1777  0.0654
   71HFI     F4  848   2.259   1.189   0.764 -0.6222 -0.0067 -0.0647
   71HFI     F5  849   2.344   1.035   0.639 -0.1219 -0.2531  0.2928
   71HFI     F6  850   2.133   1.024   0.701 -0.1996  0.0374 -0.1721
   71HFI     H1  851   2.229   1.345   0.446  0.3454  0.7076  0.9257
   71HFI     H2  852   2.165   1.095   0.462  1.5621 -1.5710  0.9298
   72HFI     O1  853   0.948   0.154   0.476  0.0322 -0.8929 -0.1776
   72HFI     C1  854   0.882   0.166   0.350 -0.0287 -0.3248 -0.5059
   72HFI     C2  855   0.871   0.022   0.276 -0.0067  0.0785  0.6399
   72HFI     F1  856   0.844  -0.075   0.361  0.2460 -0.6020  0.3089
   72HFI     F2  857   0.987  -0.017   0.224 -0.1223 -0.2810  0.4546
   72HFI     F3  858   0.773   0.022   0.189 -0.4690  0.2475  0.2263
   72HFI     C3  859   0.945   0.269   0.251  0.4131  0.0636 -0.0191
   72HFI     F4  860   0.905   0.265   0.123  0.1334  0.1901 -0.2486
   72HFI     F5  861   1.084   0.255   0.245  0.2686 -0.1251 -1.1491
   72HFI     F6  862   0.924   0.390   0.292 -0.0504  0.3023  0.0985
   72HFI     H1  863   1.045   0.151   0.464  0.0586  0.4403 -0.4102
   72HFI     H2  864   0.781   0.204   0.371  0.1022 -0.3160  0.0936
   73HFI     O1  865   1.558   1.917   1.629  0.1743  0.2235 -0.2268
   73HFI     C1  866   1.488   1.880   1.508  0.8002  0.4757  0.4264
   73HFI     C2  867   1.334   1.900   1.513 -0.4695 -0.2902  0.4897
   73HFI     F1  868   1.269   1.848   1.402  0.1124 -0.6986  0.5612
   73HFI     F2  869   1.306   2.033   1.517 -0.2430 -0.1597 -0.2356
   73HFI     F3  870   1.293   1.845   1.627 -0.7897 -0.1157 -0.3929
   73HFI     C3  871   1.522   1.736   1.465 -0.2603 -0.6211  0.0654
   73HFI     F4  872   1.475   1.637   1.555  0.3034 -0.4351  0.3430
   73HFI     F5  873   1.655   1.726   1.462 -0.2356  0.1418 -0.0847
   73HFI     F6  874   1.481   1.702   1.341 -0.5802  0.5670  0.5502
   73HFI     H1  875   1.652   1.930   1.607 -0.4571 -0.6599 -3.7111
   73HFI     H2  876   1.516   1.938   1.420 -1.1264  0.4556 -0.2244
   74HFI     O1  877   1.242   0.721   2.737  0.0543 -0.3641  0.0419
   74HFI     C1  878   1.110   0.792   2.758 -0.7550  0.0999 -0.0460
   74HFI     C2  879   1.004   0.690   2.802 -0.1608 -0.7877  0.7281
   74HFI     F1  880   0.972   0.602   2.703  0.0021  0.2027  0.5436
   74HFI     F2  881   0.890   0.738   2.856 -0.4626 -0.2382  0.1043
   74HFI     F3  882   1.054   0.610   2.900 -0.3819 -0.2609 -0.4458
   74HFI     C3  883   1.062   0.873   2.630  0.1201 -0.0389 -0.0959
   74HFI     F4  884   0.942   0.936   2.646  0.2336 -0.1001  0.2064
   74HFI     F5  885   1.047   0.788   2.527 -0.0736 -0.6757 -0.2917
   74HFI     F6  886   1.150   0.973   2.604  0.3289  0.2118 -0.0058
   74HFI     H1  887   1.230   0.626   2.721  0.7195 -0.2357 -1.2474
   74HFI     H2  888   1.106   0.866   2.838  2.8963 -1.0819  1.3088
   75HFI     O1  889   1.508   1.230   2.669  0.6399 -0.3342 -0.5569
   75HFI     C1  890   1.510   1.287   2.800 -0.5945  0.1586 -0.1597
   75HFI     C2  891   1.626   1.226   2.890 -0.1091 -0.3302 -0.2347
   75HFI     F1  892   1.751   1.250   2.835  0.3901 -0.2550 -0.0913
   75HFI     F2  893   1.606   1.094   2.890 -0.2042  0.4304  0.0727
   75HFI     F3  894   1.638   1.269   3.020 -0.1492 -0.5653  0.0603
   75HFI     C3  895   1.369   1.276   2.871  0.5559 -0.0320 -0.8858
   75HFI     F4  896   1.376   1.322   2.993 -0.8197  0.2892 -0.1585
   75HFI     F5  897   1.332   1.148   2.872 -0.2913 -0.3062 -0.3589
   75HFI     F6  898   1.273   1.336   2.804 -0.1682 -0.2398  0.2597
   75HFI     H1  899   1.459   1.147   2.681 -0.9466  0.5249 -0.9318
   75HFI     H2  900   1.536   1.394   2.795  1.8192 -0.3429  1.0442
   76HFI     O1  901   0.544   1.178   2.207  0.5089  0.3562 -0.6854
   76HFI     C1  902   0.529   1.245   2.336  0.0261 -0.3469 -0.7150
   76HFI     C2  903   0.616   1.378   2.341 -0.2171 -0.5504 -0.1429
   76HFI     F1  904   0.603   1.438   2.461 -0.5467  0.7446  0.2301
   76HFI     F2  905   0.571   1.463   2.247 -0.1024  0.3455 -0.6288
   76HFI     F3  906   0.747   1.352   2.321  0.4347  0.1508  0.1591
   76HFI     C3  907   0.562   1.135   2.443 -0.1993  0.4630 -0.0253
   76HFI     F4  908   0.473   1.031   2.423  0.3458  0.0316  0.6650
   76HFI     F5  909   0.537   1.186   2.564  0.2717  0.2709 -0.3326
   76HFI     F6  910   0.688   1.084   2.434 -0.8260  0.1559  0.0074
   76HFI     H1  911   0.611   1.224   2.154  2.9847 -1.3964  0.8650
   76HFI     H2  912   0.422   1.268   2.346  0.1884  1.1531 -2.0784
   77HFI     O1  913   2.030   2.394   1.472 -0.3996  0.3160 -0.4895
   77HFI     C1  914   2.106   2.480   1.559  0.1782 -0.2316 -0.2215
   77HFI     C2  915   2.260   2.451   1.544  0.8038 -0.0579  0.1374
   77HFI     F1  916   2.329   2.539   1.616  0.3738 -0.9676 -0.6421
   77HFI     F2  917   2.309   2.467   1.416  0.8863  0.4308 -0.6370
   77HFI     F3  918   2.289   2.328   1.586 -0.5429 -0.2109  0.2056
   77HFI     C3  919   2.063   2.462   1.702 -0.2357  0.0178 -0.5350
   77HFI     F4  920   2.142   2.523   1.791 -0.3603  0.6960 -0.4334
   77HFI     F5  921   2.058   2.333   1.736 -0.1394 -0.2946  0.5156
   77HFI     F6  922   1.939   2.507   1.727 -0.1133 -0.1792  0.3623
   77HFI     H1  923   2.081   2.315   1.448 -1.6901 -0.6236 -0.1990
   77HFI     H2  924   2.089   2.585   1.532 -1.0214  0.3059  2.4320
   78HFI     O1  925   0.309   0.487   2.715  0.3469 -0.2793 -0.8324
   78HFI     C1  926   0.183   0.548   2.676  0.2172 -0.4734 -0.3258
   78HFI     C2  927   0.064   0.460   2.711  0.1400  0.3011  0.0952
   78HFI     F1  928   0.060   0.429   2.845 -0.1833 -0.3180  0.2108
   78HFI     F2  929   0.067   0.341   2.642  0.0002  0.9165 -0.3075
   78HFI     F3  930  -0.056   0.524   2.684 -0.3412 -0.1344 -0.0175
   78HFI     C3  931   0.185   0.566   2.522 -0.1065 -0.2623  0.4705
   78HFI     F4  932   0.257   0.680   2.480 -0.4936  0.1381 -0.3457
   78HFI     F5  933   0.066   0.577   2.461 -0.5932 -0.7353 -0.2526
   78HFI     F6  934   0.249   0.459   2.461  0.2606  0.2233  0.2649
   78HFI     H1  935   0.318   0.394   2.687  0.8328 -0.7279  0.8038
   78HFI     H2  936   0.161   0.646   2.719 -2.9853 -0.2539 -2.2937
   79HFI     O1  937   2.332   0.402   0.873  0.0423 -0.2105  0.1199
   79HFI     C1  938   2.354   0.481   0.750 -0.2259  0.3567  0.1602
   79HFI     C2  939   2.362   0.627   0.777 -0.3618 -0.2805 -0.2237
   79HFI     F1  940   2.474   0.646   0.846 -0.0704 -0.2194 -0.4952
   79HFI     F2  941   2.260   0.681   0.850  0.2343 -0.1341  0.2104
   79HFI     F3  942   2.364   0.699   0.666 -0.4623  0.1178  0.1555
   79HFI     C3  943   2.266   0.426   0.643  0.3434  0.3356  0.5057
   79HFI     F4  944   2.139   0.487   0.646 -0.0102  0.1139  0.1874
   79HFI     F5  945   2.240   0.289   0.660  0.1848  0.2342  0.1239
   79HFI     F6  946   2.327   0.444   0.524 -0.2830  0.0281 -0.0017
   79HFI     H1  947   2.276   0.324   0.858 -0.0603 -0.5896  2.3889
   79HFI     H2  948   2.449   0.459   0.701 -0.7232 -1.6776  0.0481
   80HFI     O1  949   1.224   1.847   2.556  0.4873 -0.1129  0.8104
   80HFI     C1  950   1.342   1.792   2.496  0.3592  0.3036 -0.5244
   80HFI     C2  951   1.294   1.712   2.374 -0.5530  0.1668 -0.4734
   80HFI     F1  952   1.227   1.790   2.287  0.3865  0.1916  0.1366
   80HFI     F2  953   1.226   1.595   2.412 -0.4507 -0.1403 -0.3246
   80HFI     F3  954   1.408   1.673   2.305 -0.2555 -0.1778  0.4345
   80HFI     C3  955   1.428   1.729   2.605 -0.5436  0.3308  0.6212
   80HFI     F4  956   1.432   1.804   2.716 -0.8751  0.3330 -0.3479
   80HFI     F5  957   1.554   1.720   2.556  0.5843 -0.2434  0.2212
   80HFI     F6  958   1.391   1.605   2.655  0.3325 -0.3273 -0.1943
   80HFI     H1  959   1.250   1.930   2.600 -1.2994  0.9830 -0.1047
   80HFI     H2  960   1.404   1.872   2.455  1.2943  0.0527  0.3834
   81HFI     O1  961   2.224   0.036   2.111 -0.3401  0.5447  0.3188
   81HFI     C1  962   2.266   0.162   2.047  0.4053 -0.7224  0.7741
   81HFI     C2  963   2.221   0.292   2.121  0.3631  0.7134 -0.6556
   81HFI     F1  964   2.324   0.377   2.142 -0.3057 -0.0634  0.4720
   81HFI     F2  965   2.175   0.249   2.239  0.1927 -0.5803 -0.3058
   81HFI     F3  966   2.121   0.357   2.064 -0.0151 -0.6989  0.0775
   81HFI     C3  967   2.234   0.153   1.893  0.3709  0.1158 -0.1374
   81HFI     F4  968   2.256   0.268   1.819  0.1417 -0.3667  0.3581
   81HFI     F5  969   2.099   0.125   1.883  0.0125 -0.0786 -0.3900
   81HFI     F6  970   2.301   0.053   1.831  0.5375 -0.4872 -0.1013
   81HFI     H1  971   2.127   0.031   2.102 -0.5837  2.6406  1.5154
   81HFI     H2  972   2.375   0.166   2.052  0.6201 -2.7695 -1.5391
   82HFI     O1  973   2.627   0.428   0.519 -0.1063  0.0959 -0.2934
   82HFI     C1  974   2.729   0.493   0.591  0.2440  0.3391  0.3352
   82HFI     C2  975   2.859   0.522   0.506  0.6279  0.6808 -0.0317
   82HFI     F1  976   2.918   0.641   0.526 -0.0952  0.9049  0.6239
   82HFI     F2  977   2.826   0.519   0.373 -0.1595 -0.3814 -0.5048
   82HFI     F3  978   2.946   0.415   0.513  0.1702  0.2671  0.0733
   82HFI     C3  979   2.764   0.410   0.721  0.0924  0.2244  0.0503
   82HFI     F4  980   2.851   0.480   0.787 -0.1255  0.1942 -0.0450
   82HFI     F5  981   2.816   0.290   0.685 -0.3053 -0.2471  0.4407
   82HFI     F6  982   2.658   0.397   0.799 -0.2434 -0.4353  0.4064
   82HFI     H1  983   2.636   0.426   0.422 -1.5084 -0.0791 -0.4364
   82HFI     H2  984   2.692   0.588   0.630 -0.0871  0.3192  0.0677
   83HFI     O1  985   2.007   2.557   0.160  0.6656 -0.2159  0.0406
   83HFI     C1  986   1.978   2.516   0.026 -0.4578 -0.2361 -0.2738
   83HFI     C2  987   2.069   2.593  -0.071 -0.0072  0.8291  0.3007
   83HFI     F1  988   2.198   2.572  -0.035 -0.2941  0.0700  0.2770
   83HFI     F2  989   2.045   2.723  -0.093 -0.0744 -0.0412  0.0030
   83HFI     F3  990   2.050   2.528  -0.193 -0.3554 -0.4289  0.0049
   83HFI     C3  991   1.821   2.545  -0.003 -0.1133  0.3971 -0.0372
   83HFI     F4  992   1.793   2.482  -0.123  0.3324  0.3561  0.5889
   83HFI     F5  993   1.797   2.669  -0.014  0.2742 -0.5676  0.0104
   83HFI     F6  994   1.741   2.497   0.093 -0.1748 -0.0200 -0.1696
   83HFI     H1  995   2.103   2.574   0.154  1.0832 -3.0628 -3.8843
   83HFI     H2  996   1.998   2.408   0.021  1.4561 -0.0399  2.1674
   84HFI     O1  997   2.580   1.083   0.344  0.7941  0.0044  0.2287
   84HFI     C1  998   2.702   1.060   0.422 -0.2917 -0.2736  0.8592
   84HFI     C2  999   2.783   0.942   0.362 -0.4554 -0.1845  1.1614
   84HFI     F1 1000   2.910   0.936   0.413 -0.1766 -0.2673  0.0651
   84HFI     F2 1001   2.804   0.956   0.229 -0.1354  0.0652  0.1881
   84HFI     F3 1002   2.721   0.822   0.381  0.0050 -0.0948 -0.4944
   84HFI     C3 1003   2.675   1.038   0.579 -0.2139  0.7316 -0.3527
   84HFI     F4 1004   2.603   0.930   0.597 -0.2412  0.6123 -0.0552
   84HFI     F5 1005   2.602   1.141   0.638 -0.2276 -0.0191 -0.3056
   84HFI     F6 1006   2.792   1.035   0.648  0.2020 -0.2370 -0.2226
   84HFI     H1 1007   2.522   1.142   0.397  1.8413 -0.2779  1.7341
   84HFI     H2 1008   2.766   1.148   0.412 -2.0374  0.9954  0.5707
   85HFI     O1 1009   2.532   1.485   1.863 -0.0254 -0.0619 -0.2450
   85HFI     C1 1010   2.626   1.591   1.864  0.0734 -0.4510 -0.3681
   85HFI     C2 1011   2.557   1.725   1.905 -0.6358  0.2258  0.0177
   85HFI     F1 1012   2.450   1.765   1.828 -0.1369 -0.0781 -0.2885
   85HFI     F2 1013   2.652   1.815   1.897  0.2073  0.0410 -0.1831
   85HFI     F3 1014   2.510   1.716   2.031 -0.0409 -0.5516 -0.5899
   85HFI     C3 1015   2.688   1.589   1.718  0.0523  0.0172 -0.3890
   85HFI     F4 1016   2.805   1.657   1.716 -0.7336  0.3998 -0.1800
   85HFI     F5 1017   2.604   1.638   1.621  0.2420  0.2795 -0.0775
   85HFI     F6 1018   2.717   1.458   1.686  0.0610  0.8307 -0.2011
   85HFI     H1 1019   2.470   1.498   1.789 -0.6238 -0.1413  0.2392
   85HFI     H2 1020   2.704   1.574   1.940 -0.1671 -1.7660 -0.4195
   86HFI     O1 1021   2.384   0.090   0.052  0.2965  0.7649  0.5779
   86HFI     C1 1022   2.435   0.116   0.187  0.7597  0.1549 -0.2877
   86HFI     C2 1023   2.325   0.126   0.296 -0.3836  0.6124 -0.2001
   86HFI     F1 1024   2.269   0.254   0.314  0.3075  0.3585  0.1217
   86HFI     F2 1025   2.378   0.084   0.413  0.1825  0.8298  0.1224
   86HFI     F3 1026   2.224   0.044   0.275  0.0820  0.5735 -0.6827
   86HFI     C3 1027   2.520   0.241   0.173  0.4356 -0.1933  0.5295
   86HFI     F4 1028   2.570   0.280   0.289  0.3598 -0.2702  0.6368
   86HFI     F5 1029   2.447   0.342   0.110 -0.4899  0.1295 -0.4088
   86HFI     F6 1030   2.630   0.206   0.097  0.4386  0.2625  0.3857
   86HFI     H1 1031   2.360   0.170   0.002  2.1099 -0.6930 -2.8575
   86HFI     H2 1032   2.511   0.040   0.212 -0.4091 -1.1228 -0.5610
   87HFI     O1 1033   1.652   0.225   2.419  0.3418  0.1083 -0.3257
   87HFI     C1 1034   1.640   0.309   2.302  0.0864 -0.0400  0.2311
   87HFI     C2 1035   1.510   0.299   2.216 -0.1284  0.2765 -0.5688
   87HFI     F1 1036   1.497   0.395   2.126  0.2085  0.0181  0.3791
   87HFI     F2 1037   1.398   0.303   2.291 -0.1400  0.2322 -0.2258
   87HFI     F3 1038   1.500   0.178   2.151  0.3149  0.2550  0.6068
   87HFI     C3 1039   1.768   0.294   2.214 -0.3893  0.3526  0.4645
   87HFI     F4 1040   1.875   0.277   2.296  0.1950 -0.4091  0.1541
   87HFI     F5 1041   1.787   0.407   2.134  0.3689 -0.1745  0.3227
   87HFI     F6 1042   1.760   0.196   2.120 -0.7135  0.3273  0.4282
   87HFI     H1 1043   1.580   0.159   2.422  1.7250 -1.3679  0.9038
   87HFI     H2 1044   1.639   0.414   2.334 -1.3954  0.1252 -0.2829
   88HFI     O1 1045   1.347   2.705   0.945  0.0140  0.3288  1.0449
   88HFI     C1 1046   1.481   2.682   0.997 -0.2213 -0.2024  0.4818
   88HFI     C2 1047   1.529   2.802   1.089 -0.1586 -0.2517 -1.4807
   88HFI     F1 1048   1.547   2.917   1.015 -0.0622  1.0178  0.0721
   88HFI     F2 1049   1.649   2.766   1.154  0.4050  0.0651  0.0371
   88HFI     F3 1050   1.442   2.831   1.190 -0.1974  0.0349  0.0284
   88HFI     C3 1051   1.582   2.652   0.884  0.0986  0.4974 -1.1935
   88HFI     F4 1052   1.599   2.757   0.803 -0.0168  0.2729  0.2821
   88HFI     F5 1053   1.545   2.554   0.805  0.0580 -0.0531  0.4359
   88HFI     F6 1054   1.704   2.621   0.937 -0.0505 -0.4167 -0.2109
   88HFI     H1 1055   1.349   2.742   0.855 -0.1366 -0.2118  0.8138
   88HFI     H2 1056   1.483   2.589   1.055  0.2469 -0.9466 -0.7087
   89HFI     O1 1057   0.018   0.121   2.025  0.0253 -0.0935  0.5260
   89HFI     C1 1058   0.027   0.126   2.168 -0.5890 -0.2968  0.0308
   89HFI     C2 1059  -0.081   0.203   2.248 -0.4411  0.1159 -0.2056
   89HFI     F1 1060  -0.087   0.333   2.207 -0.1194  0.1955  0.2855
   89HFI     F2 1061  -0.051   0.189   2.383 -0.2811  0.0332  0.9557
   89HFI     F3 1062  -0.201   0.145   2.224 -0.1862 -0.1296 -0.0996
   89HFI     C3 1063   0.183   0.158   2.215 -0.0439  0.5297 -0.5151
   89HFI     F4 1064   0.211   0.285   2.217  0.2402 -0.2840  0.2079
   89HFI     F5 1065   0.267   0.102   2.133 -0.1689 -0.0382 -0.4405
   89HFI     F6 1066   0.208   0.098   2.341 -0.7439  0.5739  0.0450
   89HFI     H1 1067  -0.003   0.210   1.993 -2.5595 -0.3952  1.2857
   89HFI     H2 1068   0.007   0.021   2.192 -0.2377 -0.0652  1.3620
   90HFI     O1 1069   2.273   2.504   0.370  0.0261 -0.3242 -0.0497
   90HFI     C1 1070   2.190   2.463   0.486  0.0173 -0.1588  0.2791
   90HFI     C2 1071   2.120   2.585   0.554 -0.6567  0.4293 -0.2410
   90HFI     F1 1072   2.064   2.669   0.463  0.3373 -0.2985 -0.7250
   90HFI     F2 1073   2.210   2.657   0.617 -0.1458 -0.0212  0.5099
   90HFI     F3 1074   2.024   2.558   0.648  0.4228 -0.0942  0.7783
   90HFI     C3 1075   2.246   2.363   0.580  0.0556  0.0551 -0.4237
   90HFI     F4 1076   2.324   2.421   0.668  0.3078 -0.4333  0.0051
   90HFI     F5 1077   2.322   2.269   0.517  0.0232  0.5086  0.5486
   90HFI     F6 1078   2.147   2.302   0.648  0.6788  0.4353 -0.6210
   90HFI     H1 1079   2.349   2.551   0.406 -0.5212 -1.0260  2.0687
   90HFI     H2 1080   2.104   2.415   0.437  1.1964 -1.3022 -0.7058
   91HFI     O1 1081   2.223   0.817   2.224 -0.3051  0.0505  0.1725
   91HFI     C1 1082   2.338   0.785   2.305 -0.4212 -0.6388  0.7720
   91HFI     C2 1083   2.453   0.749   2.209  0.0174  0.8762  0.8423
   91HFI     F1 1084   2.428   0.656   2.118  0.1686 -0.0641  0.1810
   91HFI     F2 1085   2.562   0.694   2.279  0.1917 -0.5004 -0.4253
   91HFI     F3 1086   2.497   0.861   2.142  0.7822  0.3753 -0.3399
   91HFI     C3 1087   2.307   0.677   2.412 -0.1833 -0.2260  0.1529
   91HFI     F4 1088   2.276   0.559   2.343  0.2094 -0.0707 -0.2319
   91HFI     F5 1089   2.193   0.702   2.475  0.4123 -0.0541  0.0534
   91HFI     F6 1090   2.398   0.652   2.504 -0.5182 -0.1116  0.0257
   91HFI     H1 1091   2.142   0.781   2.264 -1.4454  1.0762 -1.1423
   91HFI     H2 1092   2.366   0.869   2.370  0.0727  0.8445 -1.2980
   92HFI     O1 1093   2.158   2.541   0.931  0.5082  0.4400 -0.3061
   92HFI     C1 1094   2.042   2.514   1.015  0.9483 -0.1889  0.0769
   92HFI     C2 1095   2.047   2.611   1.142  0.4533  0.3547 -0.2174
   92HFI     F1 1096   1.953   2.579   1.233 -0.1653 -0.1772 -0.3418
   92HFI     F2 1097   2.023   2.730   1.101 -0.0130  0.1155 -0.1986
   92HFI     F3 1098   2.168   2.604   1.199  0.1712  0.4463  0.0545
   92HFI     C3 1099   2.030   2.366   1.061 -0.1332  0.3178  0.2246
   92HFI     F4 1100   1.923   2.334   1.131 -0.0850  0.2555  0.1234
   92HFI     F5 1101   2.140   2.344   1.139  0.4863  0.6333 -0.3337
   92HFI     F6 1102   2.033   2.283   0.960 -0.3954 -0.0183 -0.0690
   92HFI     H1 1103   2.241   2.504   0.965  0.1583 -2.1471 -2.0669
   92HFI     H2 1104   1.944   2.527   0.968 -0.1125 -1.3787  1.8973
   93HFI     O1 1105   2.110   2.066   1.810  0.5165  0.4040 -0.6339
   93HFI     C1 1106   2.198   2.000   1.910  0.3486 -0.0482 -0.2274
   93HFI     C2 1107   2.142   2.014   2.052  0.2053  0.3029 -0.4350
   93HFI     F1 1108   2.021   1.953   2.059 -0.1727 -0.0713 -0.0095
   93HFI     F2 1109   2.120   2.135   2.085  0.1375 -0.2509  0.2941
   93HFI     F3 1110   2.232   1.963   2.145  0.2452  0.0794 -0.2074
   93HFI     C3 1111   2.339   2.063   1.891  0.0250  0.1298  0.4646
   93HFI     F4 1112   2.339   2.194   1.893  0.2606 -0.2888  0.3985
   93HFI     F5 1113   2.381   2.036   1.770 -0.0610  0.7009  0.0819
   93HFI     F6 1114   2.429   2.026   1.978 -0.5659 -0.3493  0.2362
   93HFI     H1 1115   2.093   2.159   1.833 -2.3965 -0.1524 -0.3142
   93HFI     H2 1116   2.211   1.892   1.895 -1.1624 -0.2369 -0.2602
   94HFI     O1 1117   2.675   2.150   1.718  0.4446 -0.4783  0.0823
   94HFI     C1 1118   2.679   2.049   1.609 -0.1408 -0.1280 -0.1112
   94HFI     C2 1119   2.826   2.011   1.585 -0.3180  0.1374  0.1531
   94HFI     F1 1120   2.889   2.100   1.500  0.2849  0.1009 -0.6005
   94HFI     F2 1121   2.829   1.889   1.530  0.4108 -0.0219 -0.2568
   94HFI     F3 1122   2.903   1.995   1.695  0.3980 -0.2284 -0.0204
   94HFI     C3 1123   2.611   2.112   1.484 -0.6666  0.8816 -0.0850
   94HFI     F4 1124   2.622   2.033   1.376 -0.0585  0.5499 -0.6584
   94HFI     F5 1125   2.657   2.232   1.446  0.0228 -0.4491  0.0947
   94HFI     F6 1126   2.483   2.134   1.506  0.6524  0.6397  0.4601
   94HFI     H1 1127   2.696   2.109   1.803  0.8618 -0.7858 -0.1621
   94HFI     H2 1128   2.631   1.952   1.631  2.8353 -1.3436  1.3197
   95HFI     O1 1129   0.993   0.741   0.914  0.4748 -0.2432  0.0293
   95HFI     C1 1130   0.915   0.704   1.036 -0.6497 -0.1855  0.6349
   95HFI     C2 1131   0.905   0.824   1.153  0.9560  0.5356 -0.3399
   95HFI     F1 1132   0.818   0.787   1.252  0.1289  0.0176 -0.0268
   95HFI     F2 1133   0.844   0.932   1.100 -0.1713 -0.1793  0.0822
   95HFI     F3 1134   1.017   0.865   1.211 -0.1226  0.0635 -0.0152
   95HFI     C3 1135   0.958   0.565   1.091 -0.7027  0.3489 -0.2444
   95HFI     F4 1136   1.069   0.577   1.164  0.4041  0.1939  0.1372
   95HFI     F5 1137   0.968   0.471   0.999 -0.2181 -0.4404 -0.7217
   95HFI     F6 1138   0.865   0.519   1.177  0.5003  0.5295 -0.0245
   95HFI     H1 1139   1.055   0.815   0.929  1.5757 -0.9775 -0.8897
   95HFI     H2 1140   0.814   0.684   1.000 -0.8377  1.4432  0.2188
   96HFI     O1 1141   1.165   0.958   1.631 -0.7425 -0.5511  0.2887
   96HFI     C1 1142   1.177   1.103   1.632  0.2524 -0.1409  0.2571
   96HFI     C2 1143   1.131   1.165   1.495 -0.1331  0.5092  0.5184
   96HFI     F1 1144   1.004   1.147   1.462  0.0022  0.5062  0.0757
   96HFI     F2 1145   1.202   1.108   1.394  0.6215 -0.5728 -0.1301
   96HFI     F3 1146   1.152   1.298   1.490  0.3198  0.1885 -0.0394
   96HFI     C3 1147   1.322   1.147   1.673 -0.6021 -0.2817 -0.6405
   96HFI     F4 1148   1.342   1.101   1.799 -0.0042 -0.3852 -0.1885
   96HFI     F5 1149   1.345   1.279   1.676 -0.2218 -0.0584 -0.2316
   96HFI     F6 1150   1.427   1.090   1.602  0.1421 -0.4907 -0.0337
   96HFI     H1 1151   1.245   0.926   1.587  0.3666  0.7303  1.3361
   96HFI     H2 1152   1.113   1.144   1.711  1.9911  0.4914  1.3681
   97HFI     O1 1153   0.231   1.387   2.430  0.5511 -0.1868  0.1733
   97HFI     C1 1154   0.116   1.462   2.378  0.4274 -0.6973  0.4706
   97HFI     C2 1155   0.167   1.574   2.283  0.3527 -0.0209 -0.1530
   97HFI     F1 1156   0.268   1.525   2.208  0.1755 -0.4480 -0.4096
   97HFI     F2 1157   0.215   1.671   2.361  0.1693  0.0081 -0.0615
   97HFI     F3 1158   0.068   1.626   2.201  0.1424  0.4410 -0.3164
   97HFI     C3 1159   0.022   1.512   2.498 -0.4865  0.3973  0.0406
   97HFI     F4 1160  -0.080   1.587   2.453 -0.2630 -0.3154  0.3990
   97HFI     F5 1161   0.094   1.577   2.595  0.1848 -0.2528 -0.1811
   97HFI     F6 1162  -0.036   1.403   2.552 -0.4562 -0.0811  0.4682
   97HFI     H1 1163   0.205   1.301   2.466  1.4678 -1.2084 -1.5815
   97HFI     H2 1164   0.052   1.396   2.318  1.7268  0.0979 -1.8429
   98HFI     O1 1165   2.348   0.865   1.680  0.5115  0.3142  0.6023
   98HFI     C1 1166   2.446   0.954   1.752 -0.4950 -0.4136  0.5188
   98HFI     C2 1167   2.383   1.043   1.857  0.8969 -0.9190 -0.0228
   98HFI     F1 1168   2.304   0.967   1.931  0.0388  0.0375  0.0850
   98HFI     F2 1169   2.314   1.147   1.815 -0.5174 -0.0755  0.5597
   98HFI     F3 1170   2.472   1.094   1.945  0.4452 -0.1085  0.1156
   98HFI     C3 1171   2.528   1.046   1.656 -0.2824  0.4143  0.6491
   98HFI     F4 1172   2.456   1.143   1.597 -0.0142 -0.1241  0.0522
   98HFI     F5 1173   2.581   0.976   1.555 -0.4197  0.2864 -0.1331
   98HFI     F6 1174   2.629   1.117   1.722 -0.4172  0.2094  0.2978
   98HFI     H1 1175   2.270   0.851   1.736 -2.2917  2.5816 -2.5145
   98HFI     H2 1176   2.524   0.901   1.808 -0.2899 -0.6868 -0.0137
   99HFI     O1 1177   0.188   1.322   1.157  0.2470 -0.4496  0.4903
   99HFI     C1 1178   0.129   1.262   1.281  0.0345  0.1167 -0.2660
   99HFI     C2 1179   0.044   1.366   1.357 -0.0106  0.5651 -0.5738
   99HFI     F1 1180  -0.041   1.429   1.275  0.0309  0.1996 -0.5052
   99HFI     F2 1181   0.119   1.463   1.415 -0.0698  0.5874  0.8239
   99HFI     F3 1182  -0.030   1.308   1.456  0.0832 -0.2016  0.2326
   99HFI     C3 1183   0.239   1.189   1.368 -0.0069  0.6353  0.4182
   99HFI     F4 1184   0.305   1.101   1.292  0.3500 -0.2488 -0.0118
   99HFI     F5 1185   0.184   1.111   1.467 -0.1113 -0.2425  0.1188
   99HFI     F6 1186   0.334   1.272   1.413  0.2843 -0.4682 -0.4047
   99HFI     H1 1187   0.254   1.390   1.179 -2.1378  1.9972  0.3852
   99HFI     H2 1188   0.055   1.188   1.247 -0.2508 -0.2058  1.0596
  100HFI     O1 1189   2.077   1.055   2.099  0.4346 -0.7597  0.5445
  100HFI     C1 1190   1.952   1.008   2.053 -0.2118  0.0537 -0.0346
  100HFI     C2 1191   1.876   0.943   2.171 -0.2476  0.3541  0.0207
  100HFI     F1 1192   1.856   1.025   2.277  0.1849  0.4153 -0.2365
  100HFI     F2 1193   1.940   0.835   2.227  0.5355  0.4066 -0.2913
  100HFI     F3 1194   1.757   0.904   2.140 -0.0324 -0.0765  0.3024
  100HFI     C3 1195   1.964   0.908   1.936 -0.3650 -0.1889  0.0635
  100HFI     F4 1196   2.037   0.961   1.842 -0.5203 -0.1956 -0.1895
  100HFI     F5 1197   1.846   0.879   1.876  0.3674 -0.1978 -0.7573
  100HFI     F6 1198   2.019   0.789   1.979  0.4804 -0.3040 -0.9408
  100HFI     H1 1199   2.127   0.974   2.117 -1.7271 -2.0735  0.9033
  100HFI     H2 1200   1.897   1.098   2.023 -1.0836 -0.3124  0.4540
  101HFI     O1 1201   0.354   2.625   0.644  0.5057  0.1713  0.1742
  101HFI     C1 1202   0.400   2.681   0.515 -0.0557 -0.2668  0.4119
  101HFI     C2 1203   0.548   2.701   0.503 -0.3376  0.6721 -0.1703
  101HFI     F1 1204   0.578   2.759   0.386 -0.3047  0.1669 -0.7340
  101HFI     F2 1205   0.602   2.575   0.495  0.1503 -0.3969 -1.0594
  101HFI     F3 1206   0.602   2.777   0.603 -0.4542 -0.4323  0.5191
  101HFI     C3 1207   0.315   2.805   0.478 -0.1314 -0.0438 -0.4036
  101HFI     F4 1208   0.300   2.821   0.347  0.3673 -0.1675 -0.4741
  101HFI     F5 1209   0.380   2.925   0.519 -0.3675  0.8893 -0.0284
  101HFI     F6 1210   0.194   2.811   0.527 -0.3479  0.1781  0.0747
  101HFI     H1 1211   0.428   2.618   0.706  0.0305 -0.4835  0.6696
  101HFI     H2 1212   0.388   2.605   0.437 -1.0593  2.2501 -1.9429
  102HFI     O1 1213   0.948   1.342   2.690 -0.3700 -0.1378  0.0058
  102HFI     C1 1214   0.863   1.465   2.681  0.1401 -0.1476 -0.2253
  102HFI     C2 1215   0.950   1.593   2.631 -0.4848  0.3230  1.4442
  102HFI     F1 1216   0.974   1.576   2.500  0.1307  0.1565 -0.3580
  102HFI     F2 1217   1.067   1.598   2.700  0.6613 -0.4056 -0.4970
  102HFI     F3 1218   0.875   1.704   2.652 -0.4163 -0.1688 -0.2286
  102HFI     C3 1219   0.770   1.501   2.807  0.3240  0.5978 -0.1140
  102HFI     F4 1220   0.840   1.554   2.911  0.5582  0.0611  0.2652
  102HFI     F5 1221   0.709   1.391   2.855  0.1546  0.0725 -0.2639
  102HFI     F6 1222   0.674   1.588   2.780  0.6205  0.0748  0.0713
  102HFI     H1 1223   1.020   1.361   2.753  1.4065 -1.1745 -1.6629
  102HFI     H2 1224   0.783   1.454   2.606 -0.7990 -3.1481  1.1251
  103HFI     O1 1225   2.272   1.653   0.086 -0.3481  0.8530  0.0141
  103HFI     C1 1226   2.387   1.572   0.102 -0.5978  0.4544  0.9498
  103HFI     C2 1227   2.373   1.436   0.014 -0.2236  0.2190  0.2730
  103HFI     F1 1228   2.345   1.470  -0.111 -0.2303 -0.1940 -0.2339
  103HFI     F2 1229   2.280   1.351   0.061 -0.1386 -0.2957 -0.6745
  103HFI     F3 1230   2.492   1.357   0.005  0.2222 -0.1225  0.1835
  103HFI     C3 1231   2.406   1.534   0.253 -0.5163  0.0512  0.2941
  103HFI     F4 1232   2.509   1.451   0.261 -0.5608 -0.2391 -0.1961
  103HFI     F5 1233   2.304   1.475   0.310 -0.0639 -0.0909  0.3064
  103HFI     F6 1234   2.446   1.643   0.327  0.1237 -0.1454 -0.1890
  103HFI     H1 1235   2.237   1.643  -0.004 -0.9457  0.6263  0.2684
  103HFI     H2 1236   2.478   1.623   0.069  0.2973 -1.0647  1.0462
  104HFI     O1 1237   0.125   1.194   2.160 -0.1126  0.0282 -0.1594
  104HFI     C1 1238   0.191   1.088   2.089 -0.3954  0.1608 -0.4191
  104HFI     C2 1239   0.135   1.066   1.943 -0.2352 -0.0710 -0.6394
  104HFI     F1 1240   0.038   0.977   1.941  0.0453  0.0705 -0.3197
  104HFI     F2 1241   0.234   1.024   1.866 -0.7253  0.0893  0.4344
  104HFI     F3 1242   0.088   1.174   1.882 -0.1026  0.1462 -0.2410
  104HFI     C3 1243   0.178   0.954   2.171 -0.2181 -0.0379 -0.0537
  104HFI     F4 1244   0.256   0.971   2.282  0.2787 -0.5443 -0.8077
  104HFI     F5 1245   0.233   0.847   2.102 -0.1360 -0.2585  0.0812
  104HFI     F6 1246   0.051   0.927   2.212  1.0237  0.1408  0.3732
  104HFI     H1 1247   0.030   1.183   2.144 -0.5339  1.5317  1.1795
  104HFI     H2 1248   0.297   1.118   2.089 -0.2567 -0.2941  0.6512
  105HFI     O1 1249   0.705   0.326   2.539  0.2622  0.0055  0.6823
  105HFI     C1 1250   0.701   0.193   2.604 -0.0294 -0.0190  0.2790
  105HFI     C2 1251   0.736   0.082   2.506 -0.1780 -0.8268 -0.5622
  105HFI     F1 1252   0.649   0.081   2.404  0.0106 -0.2863 -0.4931
  105HFI     F2 1253   0.725  -0.038   2.561 -0.1101 -0.7343 -0.1340
  105HFI     F3 1254   0.863   0.093   2.450 -0.4932 -0.4581 -0.7552
  105HFI     C3 1255   0.559   0.178   2.673 -0.1010  0.5378 -0.6331
  105HFI     F4 1256   0.458   0.158   2.578 -0.1213 -0.0439 -0.4152
  105HFI     F5 1257   0.526   0.288   2.745  0.3562 -0.3202  0.1731
  105HFI     F6 1258   0.555   0.075   2.761 -0.0024  0.3770  0.2915
  105HFI     H1 1259   0.723   0.310   2.445 -0.8636  2.0514  0.0875
  105HFI     H2 1260   0.772   0.182   2.686  1.4462  0.3942 -0.9178
  106HFI     O1 1261   1.435   0.489   1.424 -0.2554 -0.0516 -0.2814
  106HFI     C1 1262   1.408   0.593   1.322  0.2637 -0.2896 -0.2847
  106HFI     C2 1263   1.487   0.557   1.196 -0.2438 -0.4340 -0.3619
  106HFI     F1 1264   1.622   0.533   1.227  0.0875  0.6887 -0.3544
  106HFI     F2 1265   1.469   0.655   1.104 -0.1044 -0.5499  0.3447
  106HFI     F3 1266   1.438   0.443   1.139 -0.0382  0.1025 -0.9470
  106HFI     C3 1267   1.422   0.749   1.377 -0.0307 -0.2227 -0.6584
  106HFI     F4 1268   1.386   0.757   1.512 -0.0077 -0.0294  0.1386
  106HFI     F5 1269   1.343   0.834   1.313 -0.0148 -0.3611 -0.1326
  106HFI     F6 1270   1.551   0.796   1.363  0.2594  0.3507  0.1883
  106HFI     H1 1271   1.486   0.539   1.490  2.9883 -0.9805 -1.9516
  106HFI     H2 1272   1.304   0.598   1.287  0.4243  3.0351 -0.4897
  107HFI     O1 1273   2.516   1.158   1.193 -0.0803 -0.1183 -0.0448
  107HFI     C1 1274   2.497   1.025   1.147 -0.7164  0.3335 -0.4346
  107HFI     C2 1275   2.574   0.988   1.014 -0.3086  0.2142 -0.4714
  107HFI     F1 1276   2.581   0.858   0.994  0.1496 -0.2915 -0.2515
  107HFI     F2 1277   2.702   1.028   1.016  0.1310  0.1545 -0.0132
  107HFI     F3 1278   2.515   1.045   0.914  0.4519 -0.6540 -0.3124
  107HFI     C3 1279   2.340   0.994   1.147 -0.6363  0.1805 -0.8942
  107HFI     F4 1280   2.295   1.029   1.272  0.1073 -0.2446  0.0490
  107HFI     F5 1281   2.331   0.860   1.137 -0.0370  0.2925  0.4389
  107HFI     F6 1282   2.259   1.052   1.053  0.4316 -0.0718  0.1060
  107HFI     H1 1283   2.487   1.219   1.123  0.6904  2.1479  1.5634
  107HFI     H2 1284   2.534   0.954   1.223 -1.6274  0.1486 -0.1552
  108HFI     O1 1285   2.542   0.835   0.138  0.3180 -0.0239 -0.6819
  108HFI     C1 1286   2.419   0.749   0.133  0.1776 -1.0194  0.0775
  108HFI     C2 1287   2.307   0.852   0.094 -1.5524  0.5255  0.6745
  108HFI     F1 1288   2.335   0.895  -0.033  0.2253  0.5188 -0.1637
  108HFI     F2 1289   2.304   0.967   0.169 -0.3267  0.1377  0.2340
  108HFI     F3 1290   2.184   0.796   0.092 -0.9243 -0.2027 -0.0304
  108HFI     C3 1291   2.396   0.661   0.262 -0.1044  0.7889 -0.2540
  108HFI     F4 1292   2.507   0.593   0.298 -0.3282 -0.6852  0.7264
  108HFI     F5 1293   2.293   0.565   0.243 -0.1073 -0.2444  0.6075
  108HFI     F6 1294   2.363   0.739   0.362 -0.5568 -0.1644  0.0583
  108HFI     H1 1295   2.538   0.900   0.211 -2.3811 -0.8201 -0.0941
  108HFI     H2 1296   2.424   0.695   0.038 -0.9955 -0.7956 -0.1250
  109HFI     O1 1297   1.535   1.438   2.480 -0.6970 -0.3959  0.7909
  109HFI     C1 1298   1.648   1.419   2.393  0.6711  0.3263  0.2736
  109HFI     C2 1299   1.638   1.282   2.310  1.1907  0.3033  0.4355
  109HFI     F1 1300   1.647   1.176   2.399  0.2198  0.0529  0.5903
  109HFI     F2 1301   1.736   1.273   2.221 -0.0719 -0.1446 -0.6168
  109HFI     F3 1302   1.519   1.275   2.242 -0.5634  0.0238 -0.4238
  109HFI     C3 1303   1.782   1.448   2.469 -0.4070  0.1349  1.1098
  109HFI     F4 1304   1.879   1.479   2.387 -0.0092  0.1045  0.3217
  109HFI     F5 1305   1.811   1.342   2.541  0.7710  0.0833 -0.4685
  109HFI     F6 1306   1.763   1.546   2.551 -0.1425 -0.4868 -0.1880
  109HFI     H1 1307   1.523   1.358   2.534 -0.5230  0.1265  1.6119
  109HFI     H2 1308   1.644   1.502   2.322 -1.6936  1.6484  1.9016
  110HFI     O1 1309   0.342   0.954   0.682 -0.2952 -0.6640  0.3207
  110HFI     C1 1310   0.405   0.883   0.786 -0.2997  0.1480  0.7433
  110HFI     C2 1311   0.352   0.935   0.923 -0.0033  0.6038  0.2532
  110HFI     F1 1312   0.396   1.063   0.942  0.1596  0.6633 -1.0223
  110HFI     F2 1313   0.377   0.860   1.038 -0.3759 -0.4891 -0.1259
  110HFI     F3 1314   0.221   0.935   0.919  0.4654 -0.0254  0.1561
  110HFI     C3 1315   0.562   0.880   0.776  0.2591 -1.0668  0.2872
  110HFI     F4 1316   0.605   0.796   0.679  0.0156 -0.5240  0.0727
  110HFI     F5 1317   0.627   0.833   0.890  0.3169  0.0388 -0.0779
  110HFI     F6 1318   0.609   1.001   0.753  0.0537  0.4148  0.0115
  110HFI     H1 1319   0.339   0.907   0.597  2.3157 -1.0330  0.3922
  110HFI     H2 1320   0.363   0.782   0.782  2.6832 -1.1158 -0.0213
  111HFI     O1 1321   0.344   0.080   1.206 -0.4404 -0.0103 -0.1814
  111HFI     C1 1322   0.305   0.114   1.337 -0.1754  0.1825 -0.5437
  111HFI     C2 1323   0.214   0.241   1.336  0.3477 -0.1588 -0.3766
  111HFI     F1 1324   0.119   0.240   1.238  0.6579  0.0142  0.4170
  111HFI     F2 1325   0.302   0.340   1.300 -0.3397  0.6750 -0.1231
  111HFI     F3 1326   0.156   0.272   1.454  0.3788 -0.7871 -0.0156
  111HFI     C3 1327   0.424   0.120   1.437  0.2556  0.0932  0.5455
  111HFI     F4 1328   0.514   0.220   1.408  0.3548 -0.0177  0.0763
  111HFI     F5 1329   0.484   0.002   1.434 -0.2294 -0.3600  0.1600
  111HFI     F6 1330   0.384   0.139   1.564  0.4443 -0.2449  0.1630
  111HFI     H1 1331   0.383   0.164   1.174  0.8198  0.2406  1.9375
  111HFI     H2 1332   0.245   0.032   1.381  0.5790  0.7293  1.5756
  112HFI     O1 1333   2.733   0.850   2.673  0.3940  0.1765 -0.2104
  112HFI     C1 1334   2.775   0.937   2.565  0.3177  0.3088  0.5088
  112HFI     C2 1335   2.887   1.036   2.614 -0.0831 -0.7158 -0.7147
  112HFI     F1 1336   2.945   1.106   2.518  0.0370  0.6048  0.3002
  112HFI     F2 1337   2.973   0.961   2.684  0.1220  0.2733  0.0627
  112HFI     F3 1338   2.836   1.129   2.699 -0.0108  0.2814  0.2145
  112HFI     C3 1339   2.651   1.011   2.511 -0.0816  0.1423  0.3454
  112HFI     F4 1340   2.596   1.077   2.619  0.1250  0.2433 -0.6818
  112HFI     F5 1341   2.555   0.926   2.465 -0.5478  0.6066  0.2629
  112HFI     F6 1342   2.676   1.098   2.413  0.2494  0.0556 -0.3878
  112HFI     H1 1343   2.681   0.898   2.740 -1.6718  0.4538 -1.9701
  112HFI     H2 1344   2.814   0.876   2.483 -2.3261 -0.3758 -0.2544
  113HFI     O1 1345   1.133   2.156   0.948 -0.3604  0.2859  0.3149
  113HFI     C1 1346   1.120   2.229   1.080 -0.3115  0.3256 -0.2106
  113HFI     C2 1347   1.202   2.362   1.063 -0.6086 -0.2384  0.2091
  113HFI     F1 1348   1.333   2.337   1.033 -0.0453 -0.0524  0.0456
  113HFI     F2 1349   1.191   2.437   1.182  0.0064  0.9453 -0.5946
  113HFI     F3 1350   1.148   2.437   0.968 -0.2487  0.7197 -0.1495
  113HFI     C3 1351   1.156   2.130   1.193  0.6688 -0.2813  0.2069
  113HFI     F4 1352   1.112   2.182   1.307 -1.0217  0.1192 -0.0589
  113HFI     F5 1353   1.288   2.099   1.196  0.3697  0.4538  0.3394
  113HFI     F6 1354   1.088   2.021   1.172  0.0614 -0.0159 -0.2337
  113HFI     H1 1355   1.054   2.105   0.921  0.4047 -1.3836  1.1443
  113HFI     H2 1356   1.019   2.259   1.110 -2.3954 -3.4480 -2.9541
  114HFI     O1 1357   2.288   0.715   1.407  0.1528  0.2972 -0.1840
  114HFI     C1 1358   2.159   0.651   1.416 -0.2710 -0.0259  1.1550
  114HFI     C2 1359   2.045   0.756   1.393  0.5007  0.0899  0.4062
  114HFI     F1 1360   2.051   0.811   1.269  0.1119 -0.9435 -0.3025
  114HFI     F2 1361   2.046   0.858   1.485 -0.1208  0.2534 -0.5628
  114HFI     F3 1362   1.921   0.710   1.403  0.2823 -0.1393  0.5188
  114HFI     C3 1363   2.139   0.589   1.559 -0.6240 -0.1556  0.4475
  114HFI     F4 1364   2.153   0.674   1.664  0.4157 -0.1817  0.1760
  114HFI     F5 1365   2.235   0.496   1.589 -0.2699  0.0899  0.3826
  114HFI     F6 1366   2.020   0.523   1.563 -0.1451 -0.4647 -0.0505
  114HFI     H1 1367   2.292   0.765   1.490 -0.1190 -1.6351  1.0334
  114HFI     H2 1368   2.157   0.580   1.332  1.8216  0.6625  0.4979
  115HFI     O1 1369   1.968   0.754   0.982 -0.4733 -0.0912 -0.0131
  115HFI     C1 1370   1.887   0.863   0.916  0.7028 -0.5930 -0.7137
  115HFI     C2 1371   1.778   0.911   1.011  0.5461 -0.0067 -0.3286
  115HFI     F1 1372   1.835   0.948   1.127 -0.4207 -0.4225 -0.5613
  115HFI     F2 1373   1.688   0.813   1.039  0.0299  0.4648  0.1682
  115HFI     F3 1374   1.703   1.012   0.969 -0.2203  0.3849  0.7122
  115HFI     C3 1375   1.820   0.818   0.778  0.7276  0.2490  0.7021
  115HFI     F4 1376   1.753   0.697   0.794 -0.0335  0.3183  0.3711
  115HFI     F5 1377   1.919   0.802   0.686 -0.4619  0.0926 -0.1900
  115HFI     F6 1378   1.733   0.910   0.736  1.0445  0.0370 -0.6994
  115HFI     H1 1379   2.009   0.793   1.060 -0.6876 -1.6476  0.8934
  115HFI     H2 1380   1.951   0.950   0.901  0.1356 -0.1786 -0.7162
  116HFI     O1 1381   2.619   2.572   0.879 -0.0842  0.1400  0.1373
  116HFI     C1 1382   2.596   2.705   0.938  0.5812  0.2020 -0.3300
  116HFI     C2 1383   2.494   2.781   0.853 -0.0987 -0.0085 -0.5462
  116HFI     F1 1384   2.426   2.872   0.924  0.0855 -0.3816 -0.3685
  116HFI     F2 1385   2.409   2.686   0.811 -0.4850  0.4730  0.3323
  116HFI     F3 1386   2.548   2.844   0.747  0.4195 -0.0263 -0.0822
  116HFI     C3 1387   2.723   2.794   0.971 -0.2642  0.2478 -0.4699
  116HFI     F4 1388   2.692   2.920   0.992  0.2680  0.3096  0.3418
  116HFI     F5 1389   2.823   2.798   0.872 -1.0803  0.0580  0.3192
  116HFI     F6 1390   2.776   2.745   1.087 -0.1114  0.3931 -0.1596
  116HFI     H1 1391   2.669   2.588   0.798  1.9854 -0.9699  1.1610
  116HFI     H2 1392   2.553   2.693   1.037  0.1234  0.7556 -0.4623
  117HFI     O1 1393   2.433   1.322   0.963 -0.0185  0.7726  0.2936
  117HFI     C1 1394   2.516   1.387   0.859 -0.1278  0.2603  0.0373
  117HFI     C2 1395   2.657   1.420   0.908  0.4360 -0.4447 -0.0811
  117HFI     F1 1396   2.661   1.515   1.006  0.0208  0.1060 -0.0094
  117HFI     F2 1397   2.746   1.456   0.806  0.1956 -0.2768 -0.2703
  117HFI     F3 1398   2.710   1.309   0.966  0.2341 -0.4597 -0.3994
  117HFI     C3 1399   2.436   1.498   0.784 -0.0919 -0.1976  0.1368
  117HFI     F4 1400   2.305   1.480   0.792  0.3951  0.3724  0.1872
  117HFI     F5 1401   2.467   1.513   0.653 -0.0525 -0.1485 -0.2512
  117HFI     F6 1402   2.462   1.612   0.850 -0.0656  0.4532  0.0881
  117HFI     H1 1403   2.340   1.307   0.938 -0.6540 -0.1756  3.1040
  117HFI     H2 1404   2.534   1.310   0.783 -1.9782 -2.2239  2.0315
  118HFI     O1 1405   1.904   1.313   1.970 -0.0185 -0.5779 -0.3440
  118HFI     C1 1406   1.807   1.346   1.867 -0.4874 -0.4055 -0.1271
  118HFI     C2 1407   1.753   1.495   1.873 -0.3465  0.2777 -0.3248
  118HFI     F1 1408   1.686   1.517   1.988  0.0896 -0.2699  0.7265
  118HFI     F2 1409   1.690   1.537   1.760 -0.2057 -0.2586  0.0055
  118HFI     F3 1410   1.858   1.581   1.879  0.0016 -0.1866  0.3089
  118HFI     C3 1411   1.690   1.245   1.868  0.6115 -0.1480 -0.3003
  118HFI     F4 1412   1.627   1.236   1.986 -0.1637  0.2592  0.2997
  118HFI     F5 1413   1.739   1.125   1.840  0.0646 -0.0978  0.0087
  118HFI     F6 1414   1.599   1.269   1.786  0.5208  0.0416  0.1305
  118HFI     H1 1415   1.951   1.396   1.985  0.9734 -1.0684 -0.6651
  118HFI     H2 1416   1.847   1.333   1.765 -2.6653 -0.6638 -0.9854
  119HFI     O1 1417   0.615   1.885   1.181 -0.0514 -0.1682  0.1855
  119HFI     C1 1418   0.490   1.834   1.124 -0.5471  0.2154 -0.3422
  119HFI     C2 1419   0.385   1.945   1.120 -0.2357  0.0338  0.3118
  119HFI     F1 1420   0.426   2.038   1.030  0.2195  0.0829  0.2434
  119HFI     F2 1421   0.366   2.008   1.244 -0.5141  0.1476  0.2704
  119HFI     F3 1422   0.263   1.897   1.078 -0.4457  0.2398 -0.1387
  119HFI     C3 1423   0.443   1.714   1.203  0.0302 -0.0918  0.4962
  119HFI     F4 1424   0.400   1.748   1.328 -0.2352 -0.3338  0.4346
  119HFI     F5 1425   0.546   1.626   1.228  0.5038 -0.1421 -0.1660
  119HFI     F6 1426   0.353   1.646   1.136  0.0997  0.1692  0.3560
  119HFI     H1 1427   0.591   1.930   1.264  1.5423  0.4276  0.3461
  119HFI     H2 1428   0.507   1.802   1.021  2.6857 -0.2080  0.2513
  120HFI     O1 1429   0.848   2.142   1.370 -0.1693  0.4121  0.2854
  120HFI     C1 1430   0.756   2.245   1.388  0.8427  0.1772 -0.4981
  120HFI     C2 1431   0.639   2.196   1.477 -0.6171  0.2429  0.2186
  120HFI     F1 1432   0.685   2.177   1.600 -0.3181  0.6209  0.4557
  120HFI     F2 1433   0.584   2.085   1.424 -0.6905 -0.5068 -0.0390
  120HFI     F3 1434   0.538   2.292   1.479 -0.1975  0.2869  0.1492
  120HFI     C3 1435   0.707   2.310   1.254 -0.0539  0.3186  0.3518
  120HFI     F4 1436   0.814   2.342   1.171  0.0220  0.3013 -0.2552
  120HFI     F5 1437   0.646   2.423   1.270 -0.2501  0.4602  0.4753
  120HFI     F6 1438   0.622   2.226   1.186 -0.1314 -0.1725 -0.4894
  120HFI     H1 1439   0.895   2.132   1.454 -1.3577  0.2289  0.9424
  120HFI     H2 1440   0.802   2.324   1.448  0.0157  0.7616 -0.6141
  121HFI     O1 1441   1.506   1.356   0.678 -0.6164 -0.1011  0.5536
  121HFI     C1 1442   1.460   1.415   0.550 -0.5064  0.1945 -0.2682
  121HFI     C2 1443   1.550   1.537   0.502  0.1271  0.1069  0.0421
  121HFI     F1 1444   1.679   1.508   0.521  0.5107 -0.2939 -0.0766
  121HFI     F2 1445   1.522   1.653   0.578 -0.1405 -0.0755 -0.8676
  121HFI     F3 1446   1.533   1.558   0.369  0.0818  0.1550 -0.3660
  121HFI     C3 1447   1.309   1.452   0.552  0.7182  0.0382 -0.0620
  121HFI     F4 1448   1.232   1.346   0.596  0.1253  0.4417 -0.1397
  121HFI     F5 1449   1.255   1.482   0.429 -0.1544  0.9286  0.7050
  121HFI     F6 1450   1.289   1.556   0.639  0.2705  0.2761  0.1279
  121HFI     H1 1451   1.537   1.433   0.729 -1.7312 -0.1648  1.3488
  121HFI     H2 1452   1.469   1.339   0.471  0.3592 -0.2715  0.2671
  122HFI     O1 1453   2.091   2.087   1.486 -0.0338  0.1106 -0.2658
  122HFI     C1 1454   2.047   1.955   1.421 -0.0357  0.6342  0.6562
  122HFI     C2 1455   1.911   1.948   1.355 -0.5254 -0.1393  0.0313
  122HFI     F1 1456   1.807   1.943   1.446  0.5578  0.3985 -0.0280
  122HFI     F2 1457   1.904   1.829   1.286 -0.1570  0.0041  0.3104
  122HFI     F3 1458   1.891   2.049   1.269  0.1371 -0.3908 -0.6897
  122HFI     C3 1459   2.068   1.845   1.531  0.4628 -0.1654 -0.3630
  122HFI     F4 1460   2.032   1.723   1.498  0.7446 -0.1914  0.0400
  122HFI     F5 1461   2.009   1.884   1.645 -1.1288  0.2567  0.3507
  122HFI     F6 1462   2.203   1.831   1.565 -0.1057  0.2309 -0.1244
  122HFI     H1 1463   2.105   2.083   1.582 -0.0861 -0.9833 -0.2921
  122HFI     H2 1464   2.114   1.924   1.339  0.1160  0.1102  0.9781
  123HFI     O1 1465   1.542   2.378   2.533  0.0246  0.0370 -0.1548
  123HFI     C1 1466   1.519   2.333   2.671  0.5999 -0.2616  0.7214
  123HFI     C2 1467   1.490   2.180   2.674  0.2278  0.0166  0.2492
  123HFI     F1 1468   1.486   2.125   2.797 -0.2697 -0.1599 -0.0688
  123HFI     F2 1469   1.574   2.105   2.594  0.2424  0.2679 -0.4868
  123HFI     F3 1470   1.366   2.166   2.624  0.3031 -0.5093  0.0046
  123HFI     C3 1471   1.418   2.420   2.752 -1.1028  0.5824  0.6652
  123HFI     F4 1472   1.400   2.374   2.877  0.2907 -0.1003 -0.5371
  123HFI     F5 1473   1.301   2.414   2.697 -0.1700  0.6968  0.0804
  123HFI     F6 1474   1.463   2.544   2.756 -0.0109  0.0733 -0.0240
  123HFI     H1 1475   1.462   2.378   2.477 -0.0712  4.1063 -0.1775
  123HFI     H2 1476   1.618   2.342   2.717  0.5245  0.6671  0.7141
  124HFI     O1 1477   0.590   1.571   0.433  0.4417  0.1111 -0.1263
  124HFI     C1 1478   0.639   1.696   0.382 -0.1881 -0.3298 -0.3004
  124HFI     C2 1479   0.768   1.758   0.463 -0.6576  0.0098 -0.6296
  124HFI     F1 1480   0.813   1.862   0.394 -0.0995 -0.3355 -0.2160
  124HFI     F2 1481   0.871   1.677   0.475 -0.1898 -0.0194 -0.0888
  124HFI     F3 1482   0.726   1.794   0.588 -0.5136  0.3695 -0.3273
  124HFI     C3 1483   0.527   1.801   0.376 -0.1060  0.0602 -0.2110
  124HFI     F4 1484   0.504   1.861   0.491  0.0281 -0.1812 -0.2450
  124HFI     F5 1485   0.416   1.735   0.351 -0.2417  0.1944  1.0474
  124HFI     F6 1486   0.548   1.894   0.278 -0.2980  0.6261 -0.0536
  124HFI     H1 1487   0.666   1.510   0.437  0.5570  0.3142  1.0446
  124HFI     H2 1488   0.677   1.675   0.282  0.8142 -1.4428  0.3032
  125HFI     O1 1489   0.938   2.135   0.765  0.3239 -0.6022  0.4952
  125HFI     C1 1490   0.812   2.094   0.715  1.0162  0.0125  0.3139
  125HFI     C2 1491   0.762   2.167   0.587 -0.1032 -0.1667 -0.9766
  125HFI     F1 1492   0.843   2.142   0.476  0.1326  0.0157 -0.1685
  125HFI     F2 1493   0.765   2.298   0.599  0.1413 -0.5573 -0.7094
  125HFI     F3 1494   0.641   2.128   0.552 -0.3304  0.1521  0.0807
  125HFI     C3 1495   0.716   2.089   0.834 -0.3154  0.4513  0.9228
  125HFI     F4 1496   0.782   2.031   0.938  0.2417  0.0628  0.0843
  125HFI     F5 1497   0.606   2.022   0.804  0.2651  0.2765  0.5315
  125HFI     F6 1498   0.680   2.213   0.871 -0.0459 -0.1466  0.5020
  125HFI     H1 1499   0.956   2.222   0.724 -0.3031 -1.3360 -1.3834
  125HFI     H2 1500   0.828   1.990   0.683 -0.1088 -0.7654  2.1976
   2.74262   2.74262   2.74262
