HFIP model qualification, initial dilute box
 1500
    1HFIP    O1    1   0.474   0.384   0.240
    1HFIP    C2    2   0.405   0.377   0.360
    1HFIP    C3    3   0.376   0.230   0.397
    1HFIP    F4    4   0.490   0.162   0.412
    1HFIP    F5    5   0.306   0.169   0.301
    1HFIP    F6    6   0.307   0.217   0.511
    1HFIP    C7    7   0.274   0.459   0.352
    1HFIP    F8    8   0.196   0.416   0.252
    1HFIP    F9    9   0.301   0.587   0.329
    1HFIP   F10   10   0.203   0.454   0.465
    1HFIP   H11   11   0.423   0.347   0.167
    1HFIP   H12   12   0.469   0.420   0.438
    2HFIP    O1   13   0.338   0.220   1.161
    2HFIP    C2   14   0.374   0.297   1.052
    2HFIP    C3   15   0.459   0.419   1.096
    2HFIP    F4   16   0.571   0.378   1.156
    2HFIP    F5   17   0.392   0.494   1.184
    2HFIP    F6   18   0.495   0.497   0.994
    2HFIP    C7   19   0.249   0.343   0.973
    2HFIP    F8   20   0.166   0.412   1.051
    2HFIP    F9   21   0.182   0.237   0.928
    2HFIP   F10   22   0.279   0.419   0.868
    2HFIP   H11   23   0.283   0.271   1.223
    2HFIP   H12   24   0.436   0.235   0.986
    3HFIP    O1   25   0.356   0.521   1.765
    3HFIP    C2   26   0.330   0.392   1.722
    3HFIP    C3   27   0.242   0.316   1.824
    3HFIP    F4   28   0.125   0.378   1.839
    3HFIP    F5   29   0.300   0.312   1.944
    3HFIP    F6   30   0.216   0.191   1.787
    3HFIP    C7   31   0.462   0.315   1.696
    3HFIP    F8   32   0.538   0.312   1.806
    3HFIP    F9   33   0.533   0.377   1.602
    3HFIP   F10   34   0.443   0.190   1.656
    3HFIP   H11   35   0.404   0.520   1.849
    3HFIP   H12   36   0.275   0.399   1.627
    4HFIP    O1   37   0.418   0.409   2.319
    4HFIP    C2   38   0.405   0.375   2.452
    4HFIP    C3   39   0.381   0.223   2.469
    4HFIP    F4   40   0.484   0.154   2.418
    4HFIP    F5   41   0.272   0.184   2.402
    4HFIP    F6   42   0.367   0.186   2.596
    4HFIP    C7   43   0.292   0.456   2.519
    4HFIP    F8   44   0.175   0.436   2.457
    4HFIP    F9   45   0.318   0.586   2.512
    4HFIP   F10   46   0.275   0.426   2.648
    4HFIP   H11   47   0.337   0.388   2.270
    4HFIP   H12   48   0.500   0.401   2.502
    5HFIP    O1   49   0.210   0.389   3.084
    5HFIP    C2   50   0.344   0.370   3.112
    5HFIP    C3   51   0.372   0.222   3.149
    5HFIP    F4   52   0.339   0.142   3.047
    5HFIP    F5   53   0.299   0.185   3.254
    5HFIP    F6   54   0.500   0.199   3.178
    5HFIP    C7   55   0.391   0.465   3.225
    5HFIP    F8   56   0.319   0.446   3.336
    5HFIP    F9   57   0.374   0.592   3.188
    5HFIP   F10   58   0.519   0.449   3.256
    5HFIP   H11   59   0.155   0.369   3.162
    5HFIP   H12   60   0.400   0.394   3.021
    6HFIP    O1   61   0.218   1.098   0.258
    6HFIP    C2   62   0.342   1.104   0.319
    6HFIP    C3   63   0.432   0.988   0.271
    6HFIP    F4   64   0.451   0.995   0.140
    6HFIP    F5   65   0.375   0.870   0.296
    6HFIP    F6   66   0.552   0.988   0.329
    6HFIP    C7   67   0.328   1.103   0.473
    6HFIP    F8   68   0.262   0.994   0.514
    6HFIP    F9   69   0.257   1.208   0.514
    6HFIP   F10   70   0.445   1.107   0.537
    6HFIP   H11   71   0.172   1.016   0.281
    6HFIP   H12   72   0.389   1.199   0.290
    7HFIP    O1   73   0.230   1.088   1.168
    7HFIP    C2   74   0.334   1.107   1.079
    7HFIP    C3   75   0.294   1.060   0.937
    7HFIP    F4   76   0.189   1.130   0.893
    7HFIP    F5   77   0.258   0.931   0.938
    7HFIP    F6   78   0.391   1.075   0.848
    7HFIP    C7   79   0.462   1.035   1.127
    7HFIP    F8   80   0.439   0.904   1.143
    7HFIP    F9   81   0.500   1.082   1.245
    7HFIP   F10   82   0.564   1.048   1.043
    7HFIP   H11   83   0.207   0.995   1.176
    7HFIP   H12   84   0.355   1.215   1.075
    8HFIP    O1   85   0.482   1.081   1.654
    8HFIP    C2   86   0.401   1.024   1.751
    8HFIP    C3   87   0.263   0.985   1.692
    8HFIP    F4   88   0.278   0.896   1.593
    8HFIP    F5   89   0.202   1.092   1.639
    8HFIP    F6   90   0.181   0.931   1.781
    8HFIP    C7   91   0.384   1.119   1.872
    8HFIP    F8   92   0.333   1.236   1.834
    8HFIP    F9   93   0.502   1.144   1.928
    8HFIP   F10   94   0.305   1.069   1.967
    8HFIP   H11   95   0.443   1.163   1.620
    8HFIP   H12   96   0.450   0.932   1.786
    9HFIP    O1   97   0.313   1.197   2.379
    9HFIP    C2   98   0.300   1.075   2.444
    9HFIP    C3   99   0.344   1.088   2.592
    9HFIP    F4  100   0.269   1.177   2.656
    9HFIP    F5  101   0.471   1.130   2.600
    9HFIP    F6  102   0.335   0.973   2.659
    9HFIP    C7  103   0.379   0.965   2.372
    9HFIP    F8  104   0.509   0.997   2.363
    9HFIP    F9  105   0.334   0.949   2.247
    9HFIP   F10  106   0.371   0.846   2.432
    9HFIP   H11  107   0.406   1.226   2.377
    9HFIP   H12  108   0.193   1.048   2.443
   10HFIP    O1  109   0.409   0.918   3.246
   10HFIP    C2  110   0.399   1.022   3.155
   10HFIP    C3  111   0.411   1.158   3.227
   10HFIP    F4  112   0.530   1.168   3.287
   10HFIP    F5  113   0.318   1.171   3.322
   10HFIP    F6  114   0.400   1.262   3.144
   10HFIP    C7  115   0.266   1.013   3.077
   10HFIP    F8  116   0.161   1.015   3.160
   10HFIP    F9  117   0.260   0.899   3.008
   10HFIP   F10  118   0.250   1.112   2.989
   10HFIP   H11  119   0.338   0.921   3.312
   10HFIP   H12  120   0.482   1.012   3.084
   11HFIP    O1  121   0.434   1.718   0.493
   11HFIP    C2  122   0.407   1.740   0.359
   11HFIP    C3  123   0.374   1.889   0.334
   11HFIP    F4  124   0.477   1.966   0.369
   11HFIP    F5  125   0.269   1.928   0.408
   11HFIP    F6  126   0.345   1.916   0.207
   11HFIP    C7  127   0.293   1.649   0.311
   11HFIP    F8  128   0.182   1.668   0.383
   11HFIP    F9  129   0.326   1.521   0.325
   11HFIP   F10  130   0.261   1.668   0.183
   11HFIP   H11  131   0.357   1.739   0.549
   11HFIP   H12  132   0.498   1.715   0.303
   12HFIP    O1  133   0.409   1.724   0.901
   12HFIP    C2  134   0.347   1.790   1.006
   12HFIP    C3  135   0.450   1.826   1.116
   12HFIP    F4  136   0.545   1.906   1.067
   12HFIP    F5  137   0.510   1.716   1.162
   12HFIP    F6  138   0.395   1.889   1.219
   12HFIP    C7  139   0.231   1.706   1.063
   12HFIP    F8  140   0.274   1.587   1.105
   12HFIP    F9  141   0.139   1.684   0.969
   12HFIP   F10  142   0.169   1.766   1.165
   12HFIP   H11  143   0.448   1.640   0.931
   12HFIP   H12  144   0.306   1.884   0.965
   13HFIP    O1  145   0.478   1.712   1.862
   13HFIP    C2  146   0.384   1.791   1.799
   13HFIP    C3  147   0.240   1.741   1.829
   13HFIP    F4  148   0.217   1.746   1.960
   13HFIP    F5  149   0.225   1.614   1.790
   13HFIP    F6  150   0.146   1.813   1.769
   13HFIP    C7  151   0.409   1.796   1.646
   13HFIP    F8  152   0.408   1.673   1.593
   13HFIP    F9  153   0.530   1.848   1.621
   13HFIP   F10  154   0.320   1.870   1.580
   13HFIP   H11  155   0.473   1.620   1.830
   13HFIP   H12  156   0.394   1.893   1.839
   14HFIP    O1  157   0.373   1.925   2.438
   14HFIP    C2  158   0.317   1.805   2.479
   14HFIP    C3  159   0.409   1.734   2.580
   14HFIP    F4  160   0.427   1.810   2.688
   14HFIP    F5  161   0.531   1.712   2.528
   14HFIP    F6  162   0.361   1.617   2.621
   14HFIP    C7  163   0.288   1.714   2.357
   14HFIP    F8  164   0.400   1.691   2.287
   14HFIP    F9  165   0.202   1.773   2.274
   14HFIP   F10  166   0.236   1.596   2.391
   14HFIP   H11  167   0.457   1.912   2.393
   14HFIP   H12  168   0.222   1.828   2.528
   15HFIP    O1  169   0.246   1.884   3.123
   15HFIP    C2  170   0.362   1.810   3.138
   15HFIP    C3  171   0.350   1.673   3.068
   15HFIP    F4  172   0.328   1.689   2.937
   15HFIP    F5  173   0.246   1.604   3.116
   15HFIP    F6  174   0.459   1.597   3.081
   15HFIP    C7  175   0.397   1.792   3.288
   15HFIP    F8  176   0.297   1.733   3.354
   15HFIP    F9  177   0.416   1.911   3.345
   15HFIP   F10  178   0.508   1.721   3.308
   15HFIP   H11  179   0.171   1.839   3.164
   15HFIP   H12  180   0.443   1.866   3.090
   16HFIP    O1  181   0.255   2.334   0.400
   16HFIP    C2  182   0.343   2.411   0.326
   16HFIP    C3  183   0.471   2.443   0.407
   16HFIP    F4  184   0.533   2.330   0.440
   16HFIP    F5  185   0.441   2.506   0.521
   16HFIP    F6  186   0.557   2.518   0.340
   16HFIP    C7  187   0.274   2.542   0.279
   16HFIP    F8  188   0.229   2.613   0.383
   16HFIP    F9  189   0.169   2.514   0.202
   16HFIP   F10  190   0.355   2.621   0.208
   16HFIP   H11  191   0.226   2.381   0.480
   16HFIP   H12  192   0.371   2.353   0.238
   17HFIP    O1  193   0.211   2.429   0.970
   17HFIP    C2  194   0.345   2.447   1.000
   17HFIP    C3  195   0.391   2.349   1.110
   17HFIP    F4  196   0.374   2.223   1.070
   17HFIP    F5  197   0.317   2.365   1.221
   17HFIP    F6  198   0.519   2.364   1.144
   17HFIP    C7  199   0.372   2.594   1.041
   17HFIP    F8  200   0.298   2.629   1.146
   17HFIP    F9  201   0.341   2.676   0.941
   17HFIP   F10  202   0.500   2.616   1.072
   17HFIP   H11  203   0.155   2.447   1.047
   17HFIP   H12  204   0.402   2.425   0.909
   18HFIP    O1  205   0.436   2.327   1.813
   18HFIP    C2  206   0.393   2.431   1.732
   18HFIP    C3  207   0.425   2.568   1.798
   18HFIP    F4  208   0.556   2.581   1.816
   18HFIP    F5  209   0.368   2.577   1.918
   18HFIP    F6  210   0.384   2.671   1.725
   18HFIP    C7  211   0.242   2.419   1.702
   18HFIP    F8  212   0.170   2.416   1.815
   18HFIP    F9  213   0.217   2.305   1.638
   18HFIP   F10  214   0.195   2.518   1.626
   18HFIP   H11  215   0.390   2.328   1.898
   18HFIP   H12  216   0.448   2.425   1.638
   19HFIP    O1  217   0.192   2.456   2.409
   19HFIP    C2  218   0.316   2.507   2.445
   19HFIP    C3  219   0.428   2.445   2.357
   19HFIP    F4  220   0.406   2.474   2.228
   19HFIP    F5  221   0.429   2.312   2.367
   19HFIP    F6  222   0.549   2.490   2.388
   19HFIP    C7  223   0.345   2.483   2.595
   19HFIP    F8  224   0.339   2.352   2.624
   19HFIP    F9  225   0.253   2.543   2.670
   19HFIP   F10  226   0.464   2.528   2.633
   19HFIP   H11  227   0.188   2.360   2.423
   19HFIP   H12  228   0.314   2.615   2.427
   20HFIP    O1  229   0.321   2.502   3.006
   20HFIP    C2  230   0.333   2.514   3.143
   20HFIP    C3  231   0.480   2.492   3.188
   20HFIP    F4  232   0.560   2.583   3.131
   20HFIP    F5  233   0.524   2.372   3.149
   20HFIP    F6  234   0.496   2.501   3.320
   20HFIP    C7  235   0.238   2.416   3.216
   20HFIP    F8  236   0.263   2.290   3.179
   20HFIP    F9  237   0.111   2.442   3.184
   20HFIP   F10  238   0.247   2.423   3.349
   20HFIP   H11  239   0.346   2.413   2.976
   20HFIP   H12  240   0.304   2.617   3.170
   21HFIP    O1  241   0.386   3.279   0.474
   21HFIP    C2  242   0.397   3.169   0.391
   21HFIP    C3  243   0.412   3.214   0.243
   21HFIP    F4  244   0.523   3.287   0.229
   21HFIP    F5  245   0.309   3.290   0.205
   21HFIP    F6  246   0.421   3.112   0.158
   21HFIP    C7  247   0.275   3.076   0.407
   21HFIP    F8  248   0.160   3.141   0.382
   21HFIP    F9  249   0.267   3.031   0.533
   21HFIP   F10  250   0.279   2.969   0.327
   21HFIP   H11  251   0.308   3.332   0.453
   21HFIP   H12  252   0.487   3.114   0.420
   22HFIP    O1  253   0.348   3.323   1.122
   22HFIP    C2  254   0.394   3.198   1.083
   22HFIP    C3  255   0.389   3.183   0.930
   22HFIP    F4  256   0.466   3.275   0.871
   22HFIP    F5  257   0.265   3.201   0.884
   22HFIP    F6  258   0.431   3.064   0.888
   22HFIP    C7  259   0.314   3.086   1.153
   22HFIP    F8  260   0.183   3.096   1.125
   22HFIP    F9  261   0.326   3.095   1.285
   22HFIP   F10  262   0.353   2.964   1.118
   22HFIP   H11  263   0.255   3.336   1.096
   22HFIP   H12  264   0.499   3.191   1.115
   23HFIP    O1  265   0.201   3.205   1.695
   23HFIP    C2  266   0.319   3.138   1.721
   23HFIP    C3  267   0.328   3.100   1.871
   23HFIP    F4  268   0.226   3.020   1.905
   23HFIP    F5  269   0.320   3.208   1.948
   23HFIP    F6  270   0.440   3.036   1.902
   23HFIP    C7  271   0.441   3.222   1.678
   23HFIP    F8  272   0.442   3.340   1.740
   23HFIP    F9  273   0.436   3.247   1.547
   23HFIP   F10  274   0.557   3.162   1.703
   23HFIP   H11  275   0.196   3.288   1.745
   23HFIP   H12  276   0.318   3.045   1.662
   24HFIP    O1  277   0.395   3.309   2.545
   24HFIP    C2  278   0.344   3.224   2.448
   24HFIP    C3  279   0.230   3.137   2.505
   24HFIP    F4  280   0.130   3.215   2.548
   24HFIP    F5  281   0.272   3.066   2.611
   24HFIP    F6  282   0.179   3.052   2.416
   24HFIP    C7  283   0.457   3.136   2.389
   24HFIP    F8  284   0.517   3.064   2.485
   24HFIP    F9  285   0.550   3.211   2.333
   24HFIP   F10  286   0.413   3.051   2.297
   24HFIP   H11  287   0.432   3.260   2.619
   24HFIP   H12  288   0.304   3.286   2.368
   25HFIP    O1  289   0.277   3.295   3.086
   25HFIP    C2  290   0.295   3.185   3.167
   25HFIP    C3  291   0.391   3.217   3.284
   25HFIP    F4  292   0.341   3.315   3.359
   25HFIP    F5  293   0.510   3.259   3.239
   25HFIP    F6  294   0.413   3.113   3.364
   25HFIP    C7  295   0.348   3.064   3.085
   25HFIP    F8  296   0.463   3.095   3.024
   25HFIP    F9  297   0.260   3.032   2.990
   25HFIP   F10  298   0.368   2.956   3.159
   25HFIP   H11  299   0.361   3.324   3.046
   25HFIP   H12  300   0.197   3.158   3.209
   26HFIP    O1  301   1.180   0.416   0.256
   26HFIP    C2  302   1.102   0.386   0.367
   26HFIP    C3  303   1.099   0.234   0.393
   26HFIP    F4  304   1.222   0.188   0.416
   26HFIP    F5  305   1.052   0.168   0.286
   26HFIP    F6  306   1.024   0.200   0.497
   26HFIP    C7  307   0.959   0.442   0.350
   26HFIP    F8  308   0.901   0.393   0.240
   26HFIP    F9  309   0.962   0.574   0.337
   26HFIP   F10  310   0.879   0.414   0.453
   26HFIP   H11  311   1.144   0.375   0.176
   26HFIP   H12  312   1.148   0.435   0.454
   27HFIP    O1  313   0.950   0.244   1.131
   27HFIP    C2  314   1.059   0.326   1.109
   27HFIP    C3  315   1.015   0.473   1.090
   27HFIP    F4  316   0.952   0.516   1.200
   27HFIP    F5  317   0.929   0.485   0.989
   27HFIP    F6  318   1.116   0.556   1.067
   27HFIP    C7  319   1.141   0.277   0.987
   27HFIP    F8  320   1.064   0.273   0.877
   27HFIP    F9  321   1.186   0.154   1.008
   27HFIP   F10  322   1.246   0.354   0.960
   27HFIP   H11  323   0.889   0.245   1.055
   27HFIP   H12  324   1.123   0.320   1.198
   28HFIP    O1  325   1.222   0.338   1.786
   28HFIP    C2  326   1.092   0.306   1.751
   28HFIP    C3  327   1.042   0.397   1.636
   28HFIP    F4  328   1.119   0.381   1.528
   28HFIP    F5  329   1.050   0.526   1.671
   28HFIP    F6  330   0.917   0.372   1.600
   28HFIP    C7  331   0.998   0.316   1.873
   28HFIP    F8  332   1.002   0.438   1.927
   28HFIP    F9  333   1.037   0.230   1.968
   28HFIP   F10  334   0.871   0.288   1.844
   28HFIP   H11  335   1.229   0.429   1.818
   28HFIP   H12  336   1.092   0.202   1.715
   29HFIP    O1  337   1.040   0.188   2.502
   29HFIP    C2  338   1.092   0.316   2.494
   29HFIP    C3  339   0.999   0.418   2.564
   29HFIP    F4  340   0.986   0.388   2.693
   29HFIP    F5  341   0.877   0.416   2.510
   29HFIP    F6  342   1.045   0.543   2.557
   29HFIP    C7  343   1.117   0.356   2.346
   29HFIP    F8  344   1.003   0.349   2.275
   29HFIP    F9  345   1.203   0.272   2.289
   29HFIP   F10  346   1.165   0.479   2.333
   29HFIP   H11  347   0.954   0.182   2.457
   29HFIP   H12  348   1.189   0.316   2.546
   30HFIP    O1  349   1.161   0.469   3.227
   30HFIP    C2  350   1.107   0.346   3.196
   30HFIP    C3  351   1.095   0.328   3.043
   30HFIP    F4  352   1.215   0.336   2.986
   30HFIP    F5  353   1.020   0.425   2.990
   30HFIP    F6  354   1.041   0.211   3.008
   30HFIP    C7  355   0.970   0.327   3.265
   30HFIP    F8  356   0.885   0.424   3.230
   30HFIP    F9  357   0.983   0.334   3.398
   30HFIP   F10  358   0.913   0.211   3.237
   30HFIP   H11  359   1.105   0.542   3.196
   30HFIP   H12  360   1.176   0.269   3.235
   31HFIP    O1  361   0.963   0.993   0.478
   31HFIP    C2  362   1.037   1.081   0.402
   31HFIP    C3  363   0.970   1.106   0.265
   31HFIP    F4  364   0.849   1.159   0.282
   31HFIP    F5  365   0.954   0.992   0.198
   31HFIP    F6  366   1.039   1.190   0.187
   31HFIP    C7  367   1.182   1.030   0.384
   31HFIP    F8  368   1.183   0.909   0.326
   31HFIP    F9  369   1.242   1.017   0.502
   31HFIP   F10  370   1.257   1.111   0.310
   31HFIP   H11  371   0.956   0.906   0.434
   31HFIP   H12  372   1.041   1.176   0.456
   32HFIP    O1  373   0.973   1.094   1.198
   32HFIP    C2  374   1.026   1.105   1.070
   32HFIP    C3  375   0.968   0.995   0.978
   32HFIP    F4  376   0.836   1.008   0.968
   32HFIP    F5  377   0.993   0.873   1.027
   32HFIP    F6  378   1.018   1.000   0.854
   32HFIP    C7  379   1.180   1.098   1.075
   32HFIP    F8  380   1.221   0.984   1.131
   32HFIP    F9  381   1.229   1.198   1.148
   32HFIP   F10  382   1.236   1.106   0.954
   32HFIP   H11  383   0.995   1.009   1.238
   32HFIP   H12  384   0.997   1.202   1.030
   33HFIP    O1  385   0.898   1.010   1.722
   33HFIP    C2  386   1.005   1.081   1.774
   33HFIP    C3  387   1.095   1.135   1.661
   33HFIP    F4  388   1.026   1.216   1.581
   33HFIP    F5  389   1.140   1.035   1.585
   33HFIP    F6  390   1.200   1.203   1.706
   33HFIP    C7  391   1.086   0.994   1.873
   33HFIP    F8  392   1.130   0.883   1.814
   33HFIP    F9  393   1.008   0.956   1.975
   33HFIP   F10  394   1.191   1.058   1.925
   33HFIP   H11  395   0.928   0.933   1.672
   33HFIP   H12  396   0.963   1.167   1.829
   34HFIP    O1  397   1.192   1.121   2.541
   34HFIP    C2  398   1.092   1.099   2.446
   34HFIP    C3  399   0.953   1.127   2.506
   34HFIP    F4  400   0.944   1.254   2.546
   34HFIP    F5  401   0.930   1.051   2.614
   34HFIP    F6  402   0.854   1.106   2.420
   34HFIP    C7  403   1.100   0.955   2.390
   34HFIP    F8  404   1.090   0.865   2.489
   34HFIP    F9  405   1.218   0.935   2.331
   34HFIP   F10  406   1.006   0.929   2.300
   34HFIP   H11  407   1.182   1.061   2.616
   34HFIP   H12  408   1.109   1.169   2.364
   35HFIP    O1  409   1.165   0.944   3.103
   35HFIP    C2  410   1.115   1.057   3.167
   35HFIP    C3  411   1.034   1.017   3.292
   35HFIP    F4  412   1.111   0.952   3.379
   35HFIP    F5  413   0.933   0.935   3.260
   35HFIP    F6  414   0.982   1.122   3.356
   35HFIP    C7  415   1.029   1.141   3.070
   35HFIP    F8  416   0.928   1.068   3.020
   35HFIP    F9  417   1.103   1.181   2.966
   35HFIP   F10  418   0.977   1.249   3.126
   35HFIP   H11  419   1.094   0.886   3.073
   35HFIP   H12  420   1.200   1.117   3.199
   36HFIP    O1  421   0.942   1.764   0.476
   36HFIP    C2  422   0.997   1.754   0.350
   36HFIP    C3  423   1.093   1.633   0.342
   36HFIP    F4  424   1.027   1.520   0.367
   36HFIP    F5  425   1.190   1.643   0.433
   36HFIP    F6  426   1.151   1.620   0.222
   36HFIP    C7  427   1.070   1.885   0.311
   36HFIP    F8  428   1.165   1.915   0.400
   36HFIP    F9  429   0.984   1.987   0.310
   36HFIP   F10  430   1.127   1.880   0.191
   36HFIP   H11  431   1.010   1.779   0.543
   36HFIP   H12  432   0.915   1.738   0.279
   37HFIP    O1  433   1.051   1.793   0.890
   37HFIP    C2  434   1.053   1.812   1.028
   37HFIP    C3  435   1.184   1.756   1.088
   37HFIP    F4  436   1.290   1.820   1.037
   37HFIP    F5  437   1.199   1.626   1.060
   37HFIP    F6  438   1.190   1.770   1.221
   37HFIP    C7  439   0.930   1.746   1.094
   37HFIP    F8  440   0.924   1.615   1.066
   37HFIP    F9  441   0.818   1.801   1.047
   37HFIP   F10  442   0.928   1.759   1.226
   37HFIP   H11  443   1.054   1.699   0.867
   37HFIP   H12  444   1.049   1.920   1.047
   38HFIP    O1  445   1.113   1.880   1.656
   38HFIP    C2  446   1.107   1.790   1.760
   38HFIP    C3  447   1.095   1.645   1.707
   38HFIP    F4  448   1.201   1.614   1.633
   38HFIP    F5  449   0.987   1.631   1.630
   38HFIP    F6  450   1.088   1.554   1.805
   38HFIP    C7  451   0.990   1.823   1.855
   38HFIP    F8  452   0.873   1.823   1.789
   38HFIP    F9  453   1.005   1.945   1.907
   38HFIP   F10  454   0.979   1.738   1.957
   38HFIP   H11  455   1.032   1.877   1.602
   38HFIP   H12  456   1.201   1.798   1.817
   39HFIP    O1  457   1.156   1.803   2.593
   39HFIP    C2  458   1.096   1.728   2.493
   39HFIP    C3  459   1.123   1.790   2.354
   39HFIP    F4  460   1.254   1.794   2.329
   39HFIP    F5  461   1.079   1.916   2.348
   39HFIP    F6  462   1.066   1.723   2.254
   39HFIP    C7  463   0.944   1.714   2.518
   39HFIP    F8  464   0.886   1.834   2.526
   39HFIP    F9  465   0.923   1.652   2.635
   39HFIP   F10  466   0.882   1.644   2.424
   39HFIP   H11  467   1.120   1.893   2.595
   39HFIP   H12  468   1.141   1.628   2.495
   40HFIP    O1  469   0.921   1.660   3.185
   40HFIP    C2  470   1.009   1.752   3.132
   40HFIP    C3  471   1.147   1.687   3.105
   40HFIP    F4  472   1.134   1.588   3.017
   40HFIP    F5  473   1.198   1.634   3.216
   40HFIP    F6  474   1.236   1.772   3.055
   40HFIP    C7  475   1.024   1.874   3.226
   40HFIP    F8  476   1.065   1.836   3.348
   40HFIP    F9  477   0.906   1.935   3.242
   40HFIP   F10  478   1.110   1.965   3.181
   40HFIP   H11  479   0.952   1.626   3.270
   40HFIP   H12  480   0.968   1.787   3.037
   41HFIP    O1  481   1.145   2.381   0.235
   41HFIP    C2  482   1.093   2.418   0.358
   41HFIP    C3  483   0.940   2.400   0.361
   41HFIP    F4  484   0.908   2.273   0.340
   41HFIP    F5  485   0.881   2.472   0.264
   41HFIP    F6  486   0.885   2.437   0.476
   41HFIP    C7  487   1.133   2.564   0.391
   41HFIP    F8  488   1.089   2.648   0.297
   41HFIP    F9  489   1.265   2.576   0.397
   41HFIP   F10  490   1.084   2.606   0.508
   41HFIP   H11  491   1.109   2.436   0.163
   41HFIP   H12  492   1.137   2.352   0.433
   42HFIP    O1  493   1.121   2.570   1.169
   42HFIP    C2  494   1.070   2.521   1.051
   42HFIP    C3  495   0.924   2.472   1.070
   42HFIP    F4  496   0.847   2.573   1.110
   42HFIP    F5  497   0.918   2.378   1.165
   42HFIP    F6  498   0.871   2.422   0.959
   42HFIP    C7  499   1.159   2.408   0.995
   42HFIP    F8  500   1.172   2.308   1.084
   42HFIP    F9  501   1.282   2.453   0.971
   42HFIP   F10  502   1.113   2.356   0.882
   42HFIP   H11  503   1.124   2.502   1.238
   42HFIP   H12  504   1.069   2.603   0.978
   43HFIP    O1  505   0.891   2.434   1.784
   43HFIP    C2  506   1.028   2.414   1.777
   43HFIP    C3  507   1.102   2.508   1.876
   43HFIP    F4  508   1.063   2.484   2.001
   43HFIP    F5  509   1.073   2.637   1.850
   43HFIP    F6  510   1.234   2.495   1.872
   43HFIP    C7  511   1.080   2.435   1.633
   43HFIP    F8  512   1.049   2.557   1.588
   43HFIP    F9  513   1.022   2.347   1.550
   43HFIP   F10  514   1.212   2.419   1.622
   43HFIP   H11  515   0.867   2.524   1.758
   43HFIP   H12  516   1.048   2.311   1.807
   44HFIP    O1  517   1.192   2.552   2.508
   44HFIP    C2  518   1.080   2.511   2.438
   44HFIP    C3  519   0.954   2.520   2.527
   44HFIP    F4  520   0.934   2.645   2.567
   44HFIP    F5  521   0.968   2.445   2.638
   44HFIP    F6  522   0.844   2.479   2.465
   44HFIP    C7  523   1.100   2.368   2.383
   44HFIP    F8  524   1.125   2.282   2.482
   44HFIP    F9  525   1.204   2.364   2.300
   44HFIP   F10  526   0.993   2.323   2.317
   44HFIP   H11  527   1.209   2.495   2.585
   44HFIP   H12  528   1.068   2.579   2.354
   45HFIP    O1  529   1.028   2.382   3.023
   45HFIP    C2  530   1.088   2.461   3.118
   45HFIP    C3  531   1.122   2.379   3.245
   45HFIP    F4  532   1.206   2.280   3.215
   45HFIP    F5  533   1.012   2.323   3.296
   45HFIP    F6  534   1.179   2.452   3.341
   45HFIP    C7  535   0.999   2.583   3.154
   45HFIP    F8  536   0.879   2.542   3.198
   45HFIP    F9  537   0.978   2.657   3.045
   45HFIP   F10  538   1.053   2.661   3.247
   45HFIP   H11  539   0.944   2.345   3.055
   45HFIP   H12  540   1.182   2.499   3.075
   46HFIP    O1  541   1.174   3.091   0.445
   46HFIP    C2  542   1.052   3.120   0.387
   46HFIP    C3  543   1.062   3.111   0.232
   46HFIP    F4  544   1.097   2.988   0.195
   46HFIP    F5  545   1.155   3.194   0.186
   46HFIP    F6  546   0.947   3.139   0.171
   46HFIP    C7  547   1.001   3.259   0.431
   46HFIP    F8  548   1.090   3.354   0.399
   46HFIP    F9  549   0.985   3.263   0.563
   46HFIP   F10  550   0.885   3.292   0.375
   46HFIP   H11  551   1.242   3.155   0.418
   46HFIP   H12  552   0.980   3.044   0.421
   47HFIP    O1  553   1.177   3.051   1.063
   47HFIP    C2  554   1.074   3.135   1.101
   47HFIP    C3  555   0.945   3.103   1.022
   47HFIP    F4  556   0.906   2.978   1.046
   47HFIP    F5  557   0.966   3.114   0.891
   47HFIP    F6  558   0.844   3.183   1.054
   47HFIP    C7  559   1.115   3.283   1.083
   47HFIP    F8  560   1.149   3.308   0.956
   47HFIP    F9  561   1.221   3.311   1.159
   47HFIP   F10  562   1.019   3.368   1.117
   47HFIP   H11  563   1.199   3.062   0.969
   47HFIP   H12  564   1.055   3.117   1.208
   48HFIP    O1  565   1.132   3.302   1.691
   48HFIP    C2  566   1.110   3.189   1.769
   48HFIP    C3  567   1.083   3.066   1.680
   48HFIP    F4  568   1.187   3.041   1.601
   48HFIP    F5  569   0.977   3.087   1.600
   48HFIP    F6  570   1.060   2.955   1.750
   48HFIP    C7  571   0.994   3.213   1.868
   48HFIP    F8  572   0.881   3.245   1.803
   48HFIP    F9  573   1.023   3.314   1.950
   48HFIP   F10  574   0.968   3.106   1.944
   48HFIP   H11  575   1.054   3.323   1.637
   48HFIP   H12  576   1.202   3.171   1.826
   49HFIP    O1  577   0.933   3.194   2.576
   49HFIP    C2  578   1.030   3.218   2.481
   49HFIP    C3  579   0.996   3.149   2.347
   49HFIP    F4  580   0.880   3.196   2.300
   49HFIP    F5  581   0.980   3.017   2.364
   49HFIP    F6  582   1.088   3.169   2.253
   49HFIP    C7  583   1.169   3.172   2.532
   49HFIP    F8  584   1.168   3.042   2.563
   49HFIP    F9  585   1.202   3.238   2.643
   49HFIP   F10  586   1.267   3.192   2.444
   49HFIP   H11  587   0.925   3.099   2.595
   49HFIP   H12  588   1.034   3.326   2.465
   50HFIP    O1  589   1.013   3.037   3.070
   50HFIP    C2  590   1.088   3.122   3.148
   50HFIP    C3  591   1.032   3.129   3.292
   50HFIP    F4  592   1.034   3.009   3.349
   50HFIP    F5  593   0.904   3.170   3.291
   50HFIP    F6  594   1.100   3.211   3.371
   50HFIP    C7  595   1.096   3.263   3.085
   50HFIP    F8  596   0.974   3.314   3.068
   50HFIP    F9  597   1.153   3.257   2.965
   50HFIP   F10  598   1.166   3.349   3.158
   50HFIP   H11  599   0.921   3.068   3.062
   50HFIP   H12  600   1.190   3.081   3.153
   51HFIP    O1  601   1.631   0.272   0.426
   51HFIP    C2  602   1.723   0.371   0.394
   51HFIP    C3  603   1.709   0.412   0.245
   51HFIP    F4  604   1.587   0.460   0.222
   51HFIP    F5  605   1.725   0.306   0.165
   51HFIP    F6  606   1.796   0.505   0.209
   51HFIP    C7  607   1.867   0.324   0.425
   51HFIP    F8  608   1.896   0.212   0.359
   51HFIP    F9  609   1.880   0.297   0.555
   51HFIP   F10  610   1.959   0.415   0.394
   51HFIP   H11  611   1.646   0.192   0.374
   51HFIP   H12  612   1.700   0.458   0.456
   52HFIP    O1  613   1.729   0.296   0.900
   52HFIP    C2  614   1.709   0.344   1.028
   52HFIP    C3  615   1.774   0.483   1.045
   52HFIP    F4  616   1.722   0.571   0.959
   52HFIP    F5  617   1.906   0.477   1.020
   52HFIP    F6  618   1.759   0.533   1.168
   52HFIP    C7  619   1.761   0.244   1.133
   52HFIP    F8  620   1.891   0.220   1.115
   52HFIP    F9  621   1.698   0.128   1.123
   52HFIP   F10  622   1.745   0.287   1.258
   52HFIP   H11  623   1.824   0.284   0.881
   52HFIP   H12  624   1.600   0.355   1.042
   53HFIP    O1  625   1.600   0.352   1.814
   53HFIP    C2  626   1.732   0.388   1.798
   53HFIP    C3  627   1.762   0.428   1.651
   53HFIP    F4  628   1.686   0.532   1.616
   53HFIP    F5  629   1.732   0.328   1.568
   53HFIP    F6  630   1.889   0.462   1.631
   53HFIP    C7  631   1.826   0.274   1.843
   53HFIP    F8  632   1.801   0.161   1.775
   53HFIP    F9  633   1.806   0.246   1.972
   53HFIP   F10  634   1.955   0.303   1.829
   53HFIP   H11  635   1.578   0.275   1.759
   53HFIP   H12  636   1.751   0.475   1.862
   54HFIP    O1  637   1.633   0.443   2.400
   54HFIP    C2  638   1.757   0.383   2.414
   54HFIP    C3  639   1.744   0.229   2.416
   54HFIP    F4  640   1.690   0.186   2.302
   54HFIP    F5  641   1.663   0.190   2.515
   54HFIP    F6  642   1.860   0.167   2.432
   54HFIP    C7  643   1.828   0.435   2.541
   54HFIP    F8  644   1.754   0.411   2.650
   54HFIP    F9  645   1.847   0.566   2.534
   54HFIP   F10  646   1.948   0.379   2.560
   54HFIP   H11  647   1.575   0.422   2.474
   54HFIP   H12  648   1.817   0.412   2.327
   55HFIP    O1  649   1.624   0.444   3.207
   55HFIP    C2  650   1.730   0.392   3.136
   55HFIP    C3  651   1.714   0.239   3.115
   55HFIP    F4  652   1.602   0.213   3.047
   55HFIP    F5  653   1.703   0.176   3.233
   55HFIP    F6  654   1.815   0.184   3.049
   55HFIP    C7  655   1.864   0.424   3.206
   55HFIP    F8  656   1.866   0.376   3.331
   55HFIP    F9  657   1.881   0.556   3.215
   55HFIP   F10  658   1.970   0.375   3.142
   55HFIP   H11  659   1.618   0.405   3.296
   55HFIP   H12  660   1.730   0.440   3.037
   56HFIP    O1  661   1.874   1.029   0.230
   56HFIP    C2  662   1.818   1.065   0.352
   56HFIP    C3  663   1.753   0.943   0.421
   56HFIP    F4  664   1.844   0.849   0.444
   56HFIP    F5  665   1.659   0.888   0.343
   56HFIP    F6  666   1.696   0.973   0.538
   56HFIP    C7  667   1.716   1.179   0.333
   56HFIP    F8  668   1.619   1.144   0.248
   56HFIP    F9  669   1.775   1.287   0.282
   56HFIP   F10  670   1.658   1.217   0.448
   56HFIP   H11  671   1.806   0.996   0.169
   56HFIP   H12  672   1.900   1.101   0.416
   57HFIP    O1  673   1.792   0.910   0.977
   57HFIP    C2  674   1.790   1.045   1.007
   57HFIP    C3  675   1.858   1.072   1.143
   57HFIP    F4  676   1.985   1.032   1.140
   57HFIP    F5  677   1.798   1.004   1.241
   57HFIP    F6  678   1.858   1.201   1.177
   57HFIP    C7  679   1.646   1.101   1.005
   57HFIP    F8  680   1.569   1.035   1.092
   57HFIP    F9  681   1.592   1.085   0.884
   57HFIP   F10  682   1.640   1.230   1.034
   57HFIP   H11  683   1.742   0.859   1.043
   57HFIP   H12  684   1.848   1.097   0.929
   58HFIP    O1  685   1.775   1.223   1.739
   58HFIP    C2  686   1.808   1.088   1.748
   58HFIP    C3  687   1.733   1.006   1.640
   58HFIP    F4  688   1.767   1.049   1.518
   58HFIP    F5  689   1.601   1.022   1.651
   58HFIP    F6  690   1.759   0.876   1.646
   58HFIP    C7  691   1.777   1.034   1.889
   58HFIP    F8  692   1.648   1.052   1.920
   58HFIP    F9  693   1.849   1.100   1.981
   58HFIP   F10  694   1.805   0.905   1.903
   58HFIP   H11  695   1.681   1.237   1.754
   58HFIP   H12  696   1.915   1.079   1.730
   59HFIP    O1  697   1.864   1.011   2.338
   59HFIP    C2  698   1.763   1.005   2.433
   59HFIP    C3  699   1.655   1.113   2.406
   59HFIP    F4  700   1.600   1.094   2.286
   59HFIP    F5  701   1.709   1.235   2.405
   59HFIP    F6  702   1.557   1.112   2.495
   59HFIP    C7  703   1.821   1.021   2.576
   59HFIP    F8  704   1.888   1.136   2.588
   59HFIP    F9  705   1.907   0.922   2.601
   59HFIP   F10  706   1.728   1.017   2.671
   59HFIP   H11  707   1.909   1.097   2.341
   59HFIP   H12  708   1.716   0.907   2.425
   60HFIP    O1  709   1.901   1.105   3.247
   60HFIP    C2  710   1.814   1.067   3.146
   60HFIP    C3  711   1.696   1.167   3.134
   60HFIP    F4  712   1.742   1.289   3.105
   60HFIP    F5  713   1.630   1.177   3.250
   60HFIP    F6  714   1.609   1.134   3.039
   60HFIP    C7  715   1.761   0.923   3.170
   60HFIP    F8  716   1.700   0.914   3.288
   60HFIP    F9  717   1.863   0.837   3.171
   60HFIP   F10  718   1.676   0.883   3.076
   60HFIP   H11  719   1.856   1.106   3.333
   60HFIP   H12  720   1.870   1.068   3.052
   61HFIP    O1  721   1.677   1.823   0.485
   61HFIP    C2  722   1.747   1.735   0.404
   61HFIP    C3  723   1.887   1.792   0.370
   61HFIP    F4  724   1.957   1.811   0.482
   61HFIP    F5  725   1.877   1.911   0.309
   61HFIP    F6  726   1.958   1.712   0.291
   61HFIP    C7  727   1.668   1.703   0.275
   61HFIP    F8  728   1.640   1.814   0.207
   61HFIP    F9  729   1.551   1.646   0.306
   61HFIP   F10  730   1.733   1.620   0.194
   61HFIP   H11  731   1.662   1.908   0.440
   61HFIP   H12  732   1.761   1.642   0.461
   62HFIP    O1  733   1.854   1.692   1.179
   62HFIP    C2  734   1.775   1.782   1.109
   62HFIP    C3  735   1.635   1.721   1.080
   62HFIP    F4  736   1.573   1.692   1.194
   62HFIP    F5  737   1.646   1.607   1.011
   62HFIP    F6  738   1.556   1.803   1.011
   62HFIP    C7  739   1.844   1.825   0.977
   62HFIP    F8  740   1.872   1.719   0.901
   62HFIP    F9  741   1.960   1.885   1.004
   62HFIP   F10  742   1.771   1.910   0.905
   62HFIP   H11  743   1.869   1.611   1.128
   62HFIP   H12  744   1.761   1.871   1.172
   63HFIP    O1  745   1.847   1.618   1.731
   63HFIP    C2  746   1.808   1.751   1.727
   63HFIP    C3  747   1.813   1.814   1.868
   63HFIP    F4  748   1.937   1.809   1.917
   63HFIP    F5  749   1.735   1.746   1.953
   63HFIP    F6  750   1.775   1.941   1.870
   63HFIP    C7  751   1.667   1.765   1.666
   63HFIP    F8  752   1.577   1.693   1.735
   63HFIP    F9  753   1.666   1.719   1.541
   63HFIP   F10  754   1.624   1.891   1.662
   63HFIP   H11  755   1.788   1.566   1.786
   63HFIP   H12  756   1.879   1.805   1.663
   64HFIP    O1  757   1.701   1.806   2.615
   64HFIP    C2  758   1.786   1.760   2.516
   64HFIP    C3  759   1.811   1.870   2.410
   64HFIP    F4  760   1.867   1.977   2.466
   64HFIP    F5  761   1.696   1.909   2.355
   64HFIP    F6  762   1.891   1.830   2.312
   64HFIP    C7  763   1.731   1.631   2.451
   64HFIP    F8  764   1.610   1.652   2.400
   64HFIP    F9  765   1.719   1.535   2.543
   64HFIP   F10  766   1.809   1.584   2.354
   64HFIP   H11  767   1.614   1.828   2.579
   64HFIP   H12  768   1.882   1.736   2.564
   65HFIP    O1  769   1.714   1.598   3.181
   65HFIP    C2  770   1.748   1.720   3.126
   65HFIP    C3  771   1.892   1.760   3.166
   65HFIP    F4  772   1.979   1.669   3.122
   65HFIP    F5  773   1.905   1.765   3.299
   65HFIP    F6  774   1.930   1.878   3.117
   65HFIP    C7  775   1.647   1.829   3.167
   65HFIP    F8  776   1.640   1.840   3.300
   65HFIP    F9  777   1.525   1.798   3.124
   65HFIP   F10  778   1.677   1.950   3.118
   65HFIP   H11  779   1.715   1.601   3.277
   65HFIP   H12  780   1.745   1.709   3.016
   66HFIP    O1  781   1.642   2.488   0.470
   66HFIP    C2  782   1.703   2.449   0.352
   66HFIP    C3  783   1.816   2.347   0.380
   66HFIP    F4  784   1.768   2.238   0.440
   66HFIP    F5  785   1.908   2.400   0.463
   66HFIP    F6  786   1.879   2.308   0.270
   66HFIP    C7  787   1.756   2.571   0.274
   66HFIP    F8  788   1.842   2.641   0.349
   66HFIP    F9  789   1.656   2.653   0.243
   66HFIP   F10  790   1.817   2.538   0.161
   66HFIP   H11  791   1.705   2.533   0.529
   66HFIP   H12  792   1.627   2.399   0.291
   67HFIP    O1  793   1.607   2.497   1.120
   67HFIP    C2  794   1.744   2.502   1.098
   67HFIP    C3  795   1.774   2.545   0.952
   67HFIP    F4  796   1.724   2.666   0.928
   67HFIP    F5  797   1.717   2.461   0.865
   67HFIP    F6  798   1.904   2.549   0.925
   67HFIP    C7  799   1.810   2.366   1.130
   67HFIP    F8  800   1.755   2.268   1.057
   67HFIP    F9  801   1.790   2.335   1.258
   67HFIP   F10  802   1.941   2.365   1.109
   67HFIP   H11  803   1.565   2.432   1.063
   67HFIP   H12  804   1.786   2.578   1.165
   68HFIP    O1  805   1.682   2.420   1.616
   68HFIP    C2  806   1.721   2.421   1.749
   68HFIP    C3  807   1.682   2.554   1.817
   68HFIP    F4  808   1.550   2.572   1.813
   68HFIP    F5  809   1.738   2.658   1.754
   68HFIP    F6  810   1.719   2.560   1.945
   68HFIP    C7  811   1.872   2.394   1.763
   68HFIP    F8  812   1.943   2.485   1.695
   68HFIP    F9  813   1.902   2.274   1.712
   68HFIP   F10  814   1.915   2.395   1.889
   68HFIP   H11  815   1.727   2.490   1.566
   68HFIP   H12  816   1.666   2.340   1.800
   69HFIP    O1  817   1.822   2.556   2.337
   69HFIP    C2  818   1.813   2.463   2.439
   69HFIP    C3  819   1.706   2.357   2.407
   69HFIP    F4  820   1.737   2.292   2.295
   69HFIP    F5  821   1.586   2.413   2.388
   69HFIP    F6  822   1.693   2.266   2.504
   69HFIP    C7  823   1.784   2.533   2.574
   69HFIP    F8  824   1.671   2.603   2.568
   69HFIP    F9  825   1.882   2.618   2.604
   69HFIP   F10  826   1.774   2.447   2.676
   69HFIP   H11  827   1.738   2.604   2.326
   69HFIP   H12  828   1.911   2.413   2.446
   70HFIP    O1  829   1.610   2.422   3.101
   70HFIP    C2  830   1.747   2.429   3.122
   70HFIP    C3  831   1.784   2.373   3.261
   70HFIP    F4  832   1.747   2.246   3.272
   70HFIP    F5  833   1.721   2.441   3.358
   70HFIP    F6  834   1.915   2.379   3.287
   70HFIP    C7  835   1.799   2.573   3.104
   70HFIP    F8  836   1.736   2.657   3.188
   70HFIP    F9  837   1.774   2.617   2.981
   70HFIP   F10  838   1.930   2.585   3.125
   70HFIP   H11  839   1.562   2.477   3.166
   70HFIP   H12  840   1.794   2.365   3.046
   71HFIP    O1  841   1.650   3.294   0.372
   71HFIP    C2  842   1.702   3.170   0.341
   71HFIP    C3  843   1.761   3.102   0.467
   71HFIP    F4  844   1.667   3.086   0.560
   71HFIP    F5  845   1.857   3.179   0.522
   71HFIP    F6  846   1.814   2.983   0.442
   71HFIP    C7  847   1.808   3.180   0.229
   71HFIP    F8  848   1.907   3.263   0.265
   71HFIP    F9  849   1.753   3.231   0.118
   71HFIP   F10  850   1.862   3.063   0.197
   71HFIP   H11  851   1.719   3.354   0.405
   71HFIP   H12  852   1.619   3.108   0.305
   72HFIP    O1  853   1.722   3.307   0.969
   72HFIP    C2  854   1.727   3.214   1.071
   72HFIP    C3  855   1.873   3.195   1.120
   72HFIP    F4  856   1.922   3.310   1.165
   72HFIP    F5  857   1.952   3.155   1.019
   72HFIP    F6  858   1.883   3.105   1.218
   72HFIP    C7  859   1.665   3.080   1.027
   72HFIP    F8  860   1.727   3.031   0.919
   72HFIP    F9  861   1.537   3.097   0.994
   72HFIP   F10  862   1.669   2.987   1.122
   72HFIP   H11  863   1.772   3.277   0.892
   72HFIP   H12  864   1.668   3.254   1.155
   73HFIP    O1  865   1.639   3.086   1.674
   73HFIP    C2  866   1.701   3.172   1.764
   73HFIP    C3  867   1.787   3.276   1.689
   73HFIP    F4  868   1.710   3.350   1.609
   73HFIP    F5  869   1.879   3.217   1.613
   73HFIP    F6  870   1.850   3.360   1.771
   73HFIP    C7  871   1.787   3.092   1.865
   73HFIP    F8  872   1.879   3.018   1.803
   73HFIP    F9  873   1.710   3.009   1.935
   73HFIP   F10  874   1.850   3.170   1.953
   73HFIP   H11  875   1.704   3.036   1.623
   73HFIP   H12  876   1.622   3.225   1.819
   74HFIP    O1  877   1.841   3.215   2.324
   74HFIP    C2  878   1.794   3.136   2.427
   74HFIP    C3  879   1.639   3.130   2.425
   74HFIP    F4  880   1.597   3.077   2.310
   74HFIP    F5  881   1.586   3.252   2.433
   74HFIP    F6  882   1.589   3.056   2.523
   74HFIP    C7  883   1.845   3.188   2.563
   74HFIP    F8  884   1.808   3.315   2.583
   74HFIP    F9  885   1.978   3.185   2.567
   74HFIP   F10  886   1.800   3.116   2.666
   74HFIP   H11  887   1.809   3.307   2.332
   74HFIP   H12  888   1.833   3.035   2.411
   75HFIP    O1  889   1.872   3.047   3.130
   75HFIP    C2  890   1.785   3.154   3.116
   75HFIP    C3  891   1.831   3.273   3.204
   75HFIP    F4  892   1.952   3.314   3.167
   75HFIP    F5  893   1.839   3.238   3.332
   75HFIP    F6  894   1.750   3.378   3.195
   75HFIP    C7  895   1.641   3.113   3.151
   75HFIP    F8  896   1.633   3.064   3.275
   75HFIP    F9  897   1.599   3.016   3.069
   75HFIP   F10  898   1.553   3.213   3.141
   75HFIP   H11  899   1.874   3.015   3.221
   75HFIP   H12  900   1.788   3.186   3.011
   76HFIP    O1  901   2.581   0.473   0.367
   76HFIP    C2  902   2.503   0.362   0.395
   76HFIP    C3  903   2.522   0.253   0.286
   76HFIP    F4  904   2.650   0.214   0.282
   76HFIP    F5  905   2.491   0.300   0.165
   76HFIP    F6  906   2.448   0.144   0.308
   76HFIP    C7  907   2.354   0.400   0.408
   76HFIP    F8  908   2.310   0.459   0.297
   76HFIP    F9  909   2.338   0.488   0.508
   76HFIP   F10  910   2.275   0.296   0.434
   76HFIP   H11  911   2.555   0.513   0.283
   76HFIP   H12  912   2.537   0.321   0.491
   77HFIP    O1  913   2.499   0.202   1.125
   77HFIP    C2  914   2.511   0.317   1.050
   77HFIP    C3  915   2.510   0.442   1.141
   77HFIP    F4  916   2.611   0.438   1.227
   77HFIP    F5  917   2.397   0.448   1.213
   77HFIP    F6  918   2.520   0.557   1.073
   77HFIP    C7  919   2.400   0.326   0.943
   77HFIP    F8  920   2.279   0.322   0.999
   77HFIP    F9  921   2.408   0.222   0.860
   77HFIP   F10  922   2.407   0.436   0.869
   77HFIP   H11  923   2.414   0.200   1.173
   77HFIP   H12  924   2.608   0.313   0.999
   78HFIP    O1  925   2.540   0.438   1.636
   78HFIP    C2  926   2.448   0.359   1.703
   78HFIP    C3  927   2.381   0.438   1.818
   78HFIP    F4  928   2.316   0.544   1.769
   78HFIP    F5  929   2.473   0.484   1.904
   78HFIP    F6  930   2.293   0.365   1.887
   78HFIP    C7  931   2.516   0.230   1.757
   78HFIP    F8  932   2.618   0.260   1.838
   78HFIP    F9  933   2.565   0.159   1.656
   78HFIP   F10  934   2.432   0.151   1.824
   78HFIP   H11  935   2.611   0.467   1.695
   78HFIP   H12  936   2.371   0.330   1.631
   79HFIP    O1  937   2.545   0.413   2.598
   79HFIP    C2  938   2.514   0.383   2.467
   79HFIP    C3  939   2.378   0.446   2.428
   79HFIP    F4  940   2.382   0.579   2.440
   79HFIP    F5  941   2.280   0.403   2.509
   79HFIP    F6  942   2.342   0.419   2.303
   79HFIP    C7  943   2.513   0.231   2.443
   79HFIP    F8  944   2.426   0.170   2.525
   79HFIP    F9  945   2.633   0.179   2.469
   79HFIP   F10  946   2.481   0.197   2.319
   79HFIP   H11  947   2.480   0.376   2.659
   79HFIP   H12  948   2.591   0.428   2.404
   80HFIP    O1  949   2.353   0.347   3.040
   80HFIP    C2  950   2.455   0.390   3.123
   80HFIP    C3  951   2.571   0.288   3.125
   80HFIP    F4  952   2.621   0.273   3.002
   80HFIP    F5  953   2.528   0.167   3.164
   80HFIP    F6  954   2.671   0.324   3.205
   80HFIP    C7  955   2.403   0.416   3.266
   80HFIP    F8  956   2.346   0.306   3.317
   80HFIP    F9  957   2.309   0.510   3.265
   80HFIP   F10  958   2.498   0.456   3.350
   80HFIP   H11  959   2.315   0.263   3.071
   80HFIP   H12  960   2.493   0.485   3.083
   81HFIP    O1  961   2.480   1.008   0.513
   81HFIP    C2  962   2.503   1.020   0.377
   81HFIP    C3  963   2.535   1.167   0.339
   81HFIP    F4  964   2.644   1.209   0.403
   81HFIP    F5  965   2.435   1.248   0.375
   81HFIP    F6  966   2.556   1.184   0.209
   81HFIP    C7  967   2.383   0.967   0.296
   81HFIP    F8  968   2.271   1.032   0.328
   81HFIP    F9  969   2.363   0.838   0.323
   81HFIP   F10  970   2.400   0.978   0.164
   81HFIP   H11  971   2.403   1.061   0.540
   81HFIP   H12  972   2.591   0.959   0.353
   82HFIP    O1  973   2.307   1.113   1.080
   82HFIP    C2  974   2.423   1.074   1.017
   82HFIP    C3  975   2.453   0.924   1.044
   82HFIP    F4  976   2.354   0.848   0.998
   82HFIP    F5  977   2.463   0.901   1.175
   82HFIP    F6  978   2.566   0.882   0.986
   82HFIP    C7  979   2.542   1.163   1.061
   82HFIP    F8  980   2.559   1.158   1.193
   82HFIP    F9  981   2.519   1.290   1.029
   82HFIP   F10  982   2.657   1.128   1.004
   82HFIP   H11  983   2.314   1.103   1.176
   82HFIP   H12  984   2.408   1.087   0.909
   83HFIP    O1  985   2.438   0.942   1.882
   83HFIP    C2  986   2.429   1.008   1.761
   83HFIP    C3  987   2.566   1.010   1.689
   83HFIP    F4  988   2.607   0.886   1.665
   83HFIP    F5  989   2.659   1.068   1.765
   83HFIP    F6  990   2.562   1.074   1.572
   83HFIP    C7  991   2.375   1.152   1.780
   83HFIP    F8  992   2.453   1.222   1.863
   83HFIP    F9  993   2.253   1.149   1.834
   83HFIP   F10  994   2.366   1.220   1.666
   83HFIP   H11  995   2.500   0.987   1.942
   83HFIP   H12  996   2.358   0.953   1.698
   84HFIP    O1  997   2.582   1.166   2.415
   84HFIP    C2  998   2.464   1.115   2.465
   84HFIP    C3  999   2.490   1.028   2.590
   84HFIP    F4 1000   2.548   1.101   2.686
   84HFIP    F5 1001   2.574   0.928   2.562
   84HFIP    F6 1002   2.379   0.975   2.642
   84HFIP    C7 1003   2.388   1.034   2.357
   84HFIP    F8 1004   2.464   0.934   2.310
   84HFIP    F9 1005   2.358   1.112   2.254
   84HFIP   F10 1006   2.274   0.981   2.401
   84HFIP   H11 1007   2.642   1.095   2.387
   84HFIP   H12 1008   2.401   1.200   2.495
   85HFIP    O1 1009   2.491   1.081   3.003
   85HFIP    C2 1010   2.426   1.054   3.122
   85HFIP    C3 1011   2.436   1.175   3.218
   85HFIP    F4 1012   2.379   1.283   3.164
   85HFIP    F5 1013   2.564   1.206   3.243
   85HFIP    F6 1014   2.377   1.154   3.335
   85HFIP    C7 1015   2.482   0.926   3.188
   85HFIP    F8 1016   2.614   0.938   3.210
   85HFIP    F9 1017   2.465   0.821   3.108
   85HFIP   F10 1018   2.424   0.898   3.304
   85HFIP   H11 1019   2.586   1.097   3.017
   85HFIP   H12 1020   2.320   1.038   3.099
   86HFIP    O1 1021   2.346   1.839   0.444
   86HFIP    C2 1022   2.454   1.758   0.410
   86HFIP    C3 1023   2.567   1.842   0.347
   86HFIP    F4 1024   2.610   1.934   0.433
   86HFIP    F5 1025   2.524   1.908   0.239
   86HFIP    F6 1026   2.672   1.769   0.311
   86HFIP    C7 1027   2.410   1.645   0.315
   86HFIP    F8 1028   2.353   1.695   0.204
   86HFIP    F9 1029   2.318   1.568   0.374
   86HFIP   F10 1030   2.510   1.566   0.278
   86HFIP   H11 1031   2.308   1.882   0.366
   86HFIP   H12 1032   2.492   1.713   0.503
   87HFIP    O1 1033   2.513   1.638   1.162
   87HFIP    C2 1034   2.482   1.705   1.045
   87HFIP    C3 1035   2.573   1.828   1.026
   87HFIP    F4 1036   2.701   1.790   1.019
   87HFIP    F5 1037   2.563   1.912   1.129
   87HFIP    F6 1038   2.546   1.896   0.915
   87HFIP    C7 1039   2.333   1.746   1.043
   87HFIP    F8 1040   2.303   1.824   1.148
   87HFIP    F9 1041   2.255   1.638   1.051
   87HFIP   F10 1042   2.298   1.812   0.932
   87HFIP   H11 1043   2.499   1.695   1.240
   87HFIP   H12 1044   2.499   1.635   0.962
   88HFIP    O1 1045   2.419   1.603   1.717
   88HFIP    C2 1046   2.458   1.735   1.707
   88HFIP    C3 1047   2.595   1.757   1.775
   88HFIP    F4 1048   2.689   1.682   1.716
   88HFIP    F5 1049   2.591   1.722   1.904
   88HFIP    F6 1050   2.637   1.883   1.768
   88HFIP    C7 1051   2.351   1.829   1.766
   88HFIP    F8 1052   2.327   1.800   1.894
   88HFIP    F9 1053   2.236   1.815   1.701
   88HFIP   F10 1054   2.385   1.958   1.760
   88HFIP   H11 1055   2.408   1.577   1.810
   88HFIP   H12 1056   2.469   1.758   1.600
   89HFIP    O1 1057   2.417   1.916   2.508
   89HFIP    C2 1058   2.424   1.796   2.439
   89HFIP    C3 1059   2.385   1.678   2.531
   89HFIP    F4 1060   2.260   1.693   2.575
   89HFIP    F5 1061   2.464   1.673   2.639
   89HFIP    F6 1062   2.391   1.560   2.471
   89HFIP    C7 1063   2.565   1.775   2.379
   89HFIP    F8 1064   2.658   1.778   2.475
   89HFIP    F9 1065   2.594   1.872   2.294
   89HFIP   F10 1066   2.577   1.659   2.314
   89HFIP   H11 1067   2.479   1.918   2.582
   89HFIP   H12 1068   2.352   1.801   2.357
   90HFIP    O1 1069   2.484   1.867   3.038
   90HFIP    C2 1070   2.435   1.763   3.116
   90HFIP    C3 1071   2.375   1.817   3.248
   90HFIP    F4 1072   2.274   1.900   3.223
   90HFIP    F5 1073   2.466   1.886   3.317
   90HFIP    F6 1074   2.328   1.720   3.327
   90HFIP    C7 1075   2.546   1.659   3.144
   90HFIP    F8 1076   2.651   1.715   3.205
   90HFIP    F9 1077   2.591   1.607   3.030
   90HFIP   F10 1078   2.504   1.557   3.220
   90HFIP   H11 1079   2.555   1.914   3.084
   90HFIP   H12 1080   2.355   1.714   3.059
   91HFIP    O1 1081   2.369   2.551   0.461
   91HFIP    C2 1082   2.435   2.446   0.400
   91HFIP    C3 1083   2.587   2.468   0.399
   91HFIP    F4 1084   2.634   2.478   0.524
   91HFIP    F5 1085   2.618   2.583   0.337
   91HFIP    F6 1086   2.654   2.370   0.339
   91HFIP    C7 1087   2.381   2.424   0.257
   91HFIP    F8 1088   2.395   2.535   0.183
   91HFIP    F9 1089   2.251   2.396   0.260
   91HFIP   F10 1090   2.442   2.324   0.192
   91HFIP   H11 1091   2.385   2.634   0.414
   91HFIP   H12 1092   2.413   2.355   0.459
   92HFIP    O1 1093   2.432   2.557   1.193
   92HFIP    C2 1094   2.489   2.463   1.109
   92HFIP    C3 1095   2.555   2.531   0.987
   92HFIP    F4 1096   2.651   2.614   1.026
   92HFIP    F5 1097   2.465   2.603   0.919
   92HFIP    F6 1098   2.610   2.444   0.902
   92HFIP    C7 1099   2.384   2.358   1.065
   92HFIP    F8 1100   2.281   2.417   1.003
   92HFIP    F9 1101   2.335   2.294   1.171
   92HFIP   F10 1102   2.434   2.266   0.983
   92HFIP   H11 1103   2.361   2.606   1.148
   92HFIP   H12 1104   2.567   2.411   1.166
   93HFIP    O1 1105   2.547   2.475   1.906
   93HFIP    C2 1106   2.505   2.428   1.783
   93HFIP    C3 1107   2.537   2.530   1.671
   93HFIP    F4 1108   2.668   2.550   1.664
   93HFIP    F5 1109   2.480   2.648   1.697
   93HFIP    F6 1110   2.496   2.490   1.551
   93HFIP    C7 1111   2.353   2.395   1.786
   93HFIP    F8 1112   2.282   2.503   1.821
   93HFIP    F9 1113   2.328   2.301   1.877
   93HFIP   F10 1114   2.307   2.351   1.669
   93HFIP   H11 1115   2.502   2.557   1.930
   93HFIP   H12 1116   2.559   2.335   1.762
   94HFIP    O1 1117   2.470   2.518   2.304
   94HFIP    C2 1118   2.420   2.476   2.426
   94HFIP    C3 1119   2.462   2.573   2.539
   94HFIP    F4 1120   2.414   2.695   2.515
   94HFIP    F5 1121   2.595   2.583   2.546
   94HFIP    F6 1122   2.417   2.536   2.659
   94HFIP    C7 1123   2.466   2.331   2.457
   94HFIP    F8 1124   2.599   2.323   2.458
   94HFIP    F9 1125   2.422   2.247   2.364
   94HFIP   F10 1126   2.422   2.287   2.575
   94HFIP   H11 1127   2.567   2.519   2.304
   94HFIP   H12 1128   2.311   2.476   2.419
   95HFIP    O1 1129   2.452   2.340   3.282
   95HFIP    C2 1130   2.493   2.413   3.172
   95HFIP    C3 1131   2.554   2.548   3.214
   95HFIP    F4 1132   2.661   2.528   3.292
   95HFIP    F5 1133   2.467   2.620   3.285
   95HFIP    F6 1134   2.594   2.622   3.111
   95HFIP    C7 1135   2.376   2.434   3.073
   95HFIP    F8 1136   2.274   2.497   3.133
   95HFIP    F9 1137   2.330   2.316   3.030
   95HFIP   F10 1138   2.410   2.505   2.966
   95HFIP   H11 1139   2.383   2.387   3.331
   95HFIP   H12 1140   2.571   2.354   3.121
   96HFIP    O1 1141   2.443   3.073   0.490
   96HFIP    C2 1142   2.470   3.109   0.359
   96HFIP    C3 1143   2.591   3.205   0.353
   96HFIP    F4 1144   2.699   3.146   0.403
   96HFIP    F5 1145   2.569   3.315   0.427
   96HFIP    F6 1146   2.620   3.245   0.229
   96HFIP    C7 1147   2.345   3.173   0.293
   96HFIP    F8 1148   2.304   3.280   0.362
   96HFIP    F9 1149   2.244   3.086   0.291
   96HFIP   F10 1150   2.367   3.211   0.167
   96HFIP   H11 1151   2.419   3.150   0.544
   96HFIP   H12 1152   2.495   3.018   0.304
   97HFIP    O1 1153   2.563   3.154   0.920
   97HFIP    C2 1154   2.469   3.203   1.009
   97HFIP    C3 1155   2.534   3.234   1.146
   97HFIP    F4 1156   2.630   3.327   1.132
   97HFIP    F5 1157   2.593   3.125   1.197
   97HFIP    F6 1158   2.448   3.280   1.236
   97HFIP    C7 1159   2.352   3.104   1.025
   97HFIP    F8 1160   2.395   2.985   1.067
   97HFIP    F9 1161   2.291   3.085   0.908
   97HFIP   F10 1162   2.259   3.146   1.112
   97HFIP   H11 1163   2.601   3.071   0.951
   97HFIP   H12 1164   2.430   3.297   0.968
   98HFIP    O1 1165   2.523   3.014   1.722
   98HFIP    C2 1166   2.435   3.119   1.744
   98HFIP    C3 1167   2.462   3.235   1.646
   98HFIP    F4 1168   2.446   3.193   1.520
   98HFIP    F5 1169   2.588   3.279   1.657
   98HFIP    F6 1170   2.381   3.339   1.664
   98HFIP    C7 1171   2.443   3.167   1.891
   98HFIP    F8 1172   2.567   3.206   1.921
   98HFIP    F9 1173   2.411   3.069   1.974
   98HFIP   F10 1174   2.361   3.269   1.916
   98HFIP   H11 1175   2.615   3.042   1.737
   98HFIP   H12 1176   2.334   3.081   1.726
   99HFIP    O1 1177   2.564   3.065   2.553
   99HFIP    C2 1178   2.519   3.149   2.453
   99HFIP    C3 1179   2.487   3.290   2.509
   99HFIP    F4 1180   2.596   3.344   2.562
   99HFIP    F5 1181   2.395   3.283   2.607
   99HFIP    F6 1182   2.442   3.374   2.417
   99HFIP    C7 1183   2.395   3.089   2.382
   99HFIP    F8 1184   2.297   3.066   2.469
   99HFIP    F9 1185   2.427   2.972   2.326
   99HFIP   F10 1186   2.347   3.167   2.285
   99HFIP   H11 1187   2.496   3.053   2.621
   99HFIP   H12 1188   2.600   3.159   2.379
  100HFIP    O1 1189   2.347   3.282   3.210
  100HFIP    C2 1190   2.406   3.169   3.155
  100HFIP    C3 1191   2.465   3.079   3.266
  100HFIP    F4 1192   2.369   3.038   3.348
  100HFIP    F5 1193   2.554   3.145   3.340
  100HFIP    F6 1194   2.525   2.970   3.218
  100HFIP    C7 1195   2.515   3.209   3.053
  100HFIP    F8 1196   2.608   3.286   3.110
  100HFIP    F9 1197   2.461   3.280   2.953
  100HFIP   F10 1198   2.576   3.105   2.998
  100HFIP   H11 1199   2.411   3.335   3.258
  100HFIP   H12 1200   2.328   3.113   3.102
  101HFIP    O1 1201   3.121   0.514   0.359
  101HFIP    C2 1202   3.186   0.398   0.321
  101HFIP    C3 1203   3.087   0.294   0.264
  101HFIP    F4 1204   3.024   0.343   0.157
  101HFIP    F5 1205   2.992   0.265   0.355
  101HFIP    F6 1206   3.145   0.181   0.228
  101HFIP    C7 1207   3.267   0.339   0.439
  101HFIP    F8 1208   3.187   0.313   0.543
  101HFIP    F9 1209   3.358   0.427   0.481
  101HFIP   F10 1210   3.331   0.227   0.407
  101HFIP   H11 1211   3.057   0.496   0.430
  101HFIP   H12 1212   3.257   0.425   0.241
  102HFIP    O1 1213   3.134   0.324   0.893
  102HFIP    C2 1214   3.168   0.302   1.025
  102HFIP    C3 1215   3.052   0.342   1.119
  102HFIP    F4 1216   2.943   0.270   1.092
  102HFIP    F5 1217   3.019   0.471   1.102
  102HFIP    F6 1218   3.080   0.324   1.248
  102HFIP    C7 1219   3.298   0.377   1.062
  102HFIP    F8 1220   3.285   0.508   1.041
  102HFIP    F9 1221   3.399   0.334   0.987
  102HFIP   F10 1222   3.333   0.360   1.190
  102HFIP   H11 1223   3.117   0.418   0.876
  102HFIP   H12 1224   3.185   0.194   1.037
  103HFIP    O1 1225   3.145   0.495   1.847
  103HFIP    C2 1226   3.128   0.395   1.752
  103HFIP    C3 1227   3.092   0.261   1.819
  103HFIP    F4 1228   2.977   0.273   1.887
  103HFIP    F5 1229   3.186   0.224   1.907
  103HFIP    F6 1230   3.077   0.162   1.732
  103HFIP    C7 1231   3.255   0.381   1.665
  103HFIP    F8 1232   3.362   0.354   1.741
  103HFIP    F9 1233   3.281   0.495   1.601
  103HFIP   F10 1234   3.245   0.285   1.573
  103HFIP   H11 1235   3.218   0.474   1.908
  103HFIP   H12 1236   3.045   0.425   1.687
  104HFIP    O1 1237   3.161   0.506   2.395
  104HFIP    C2 1238   3.132   0.398   2.476
  104HFIP    C3 1239   3.255   0.360   2.563
  104HFIP    F4 1240   3.289   0.463   2.642
  104HFIP    F5 1241   3.361   0.333   2.486
  104HFIP    F6 1242   3.233   0.255   2.642
  104HFIP    C7 1243   3.086   0.277   2.392
  104HFIP    F8 1244   3.178   0.243   2.302
  104HFIP    F9 1245   2.975   0.308   2.325
  104HFIP   F10 1246   3.059   0.169   2.466
  104HFIP   H11 1247   3.233   0.486   2.334
  104HFIP   H12 1248   3.050   0.427   2.543
  105HFIP    O1 1249   3.230   0.319   3.014
  105HFIP    C2 1250   3.142   0.327   3.121
  105HFIP    C3 1251   3.118   0.475   3.161
  105HFIP    F4 1252   3.065   0.542   3.059
  105HFIP    F5 1253   3.233   0.535   3.192
  105HFIP    F6 1254   3.035   0.488   3.264
  105HFIP    C7 1255   3.193   0.245   3.241
  105HFIP    F8 1256   3.315   0.287   3.279
  105HFIP    F9 1257   3.205   0.116   3.208
  105HFIP   F10 1258   3.113   0.251   3.347
  105HFIP   H11 1259   3.316   0.355   3.037
  105HFIP   H12 1260   3.046   0.284   3.088
  106HFIP    O1 1261   3.145   1.186   0.246
  106HFIP    C2 1262   3.197   1.107   0.347
  106HFIP    C3 1263   3.251   0.973   0.291
  106HFIP    F4 1264   3.349   0.997   0.203
  106HFIP    F5 1265   3.155   0.907   0.226
  106HFIP    F6 1266   3.301   0.893   0.384
  106HFIP    C7 1267   3.091   1.081   0.457
  106HFIP    F8 1268   2.982   1.023   0.406
  106HFIP    F9 1269   3.052   1.196   0.511
  106HFIP   F10 1270   3.136   1.004   0.556
  106HFIP   H11 1271   3.070   1.142   0.203
  106HFIP   H12 1272   3.281   1.162   0.393
  107HFIP    O1 1273   3.090   1.023   1.202
  107HFIP    C2 1274   3.182   1.019   1.099
  107HFIP    C3 1275   3.251   1.156   1.081
  107HFIP    F4 1276   3.315   1.191   1.192
  107HFIP    F5 1277   3.160   1.251   1.056
  107HFIP    F6 1278   3.340   1.157   0.982
  107HFIP    C7 1279   3.116   0.972   0.968
  107HFIP    F8 1280   3.015   1.053   0.934
  107HFIP    F9 1281   3.065   0.850   0.982
  107HFIP   F10 1282   3.201   0.967   0.865
  107HFIP   H11 1283   3.019   1.087   1.183
  107HFIP   H12 1284   3.259   0.945   1.127
  108HFIP    O1 1285   3.175   1.107   1.921
  108HFIP    C2 1286   3.151   1.028   1.809
  108HFIP    C3 1287   3.283   0.996   1.735
  108HFIP    F4 1288   3.367   0.930   1.815
  108HFIP    F5 1289   3.346   1.109   1.699
  108HFIP    F6 1290   3.266   0.922   1.626
  108HFIP    C7 1291   3.050   1.096   1.715
  108HFIP    F8 1292   3.094   1.217   1.676
  108HFIP    F9 1293   2.934   1.115   1.777
  108HFIP   F10 1294   3.025   1.025   1.605
  108HFIP   H11 1295   3.214   1.192   1.896
  108HFIP   H12 1296   3.108   0.933   1.844
  109HFIP    O1 1297   3.068   1.103   2.592
  109HFIP    C2 1298   3.175   1.050   2.522
  109HFIP    C3 1299   3.245   1.160   2.438
  109HFIP    F4 1300   3.291   1.257   2.518
  109HFIP    F5 1301   3.160   1.217   2.353
  109HFIP    F6 1302   3.349   1.114   2.368
  109HFIP    C7 1303   3.131   0.933   2.432
  109HFIP    F8 1304   3.036   0.971   2.346
  109HFIP    F9 1305   3.079   0.835   2.506
  109HFIP   F10 1306   3.231   0.880   2.362
  109HFIP   H11 1307   3.001   1.138   2.531
  109HFIP   H12 1308   3.247   1.012   2.596
  110HFIP    O1 1309   3.066   0.923   3.145
  110HFIP    C2 1310   3.177   0.999   3.179
  110HFIP    C3 1311   3.142   1.101   3.289
  110HFIP    F4 1312   3.100   1.038   3.399
  110HFIP    F5 1313   3.042   1.181   3.250
  110HFIP    F6 1314   3.245   1.178   3.324
  110HFIP    C7 1315   3.235   1.070   3.054
  110HFIP    F8 1316   3.143   1.148   2.997
  110HFIP    F9 1317   3.273   0.980   2.964
  110HFIP   F10 1318   3.341   1.145   3.082
  110HFIP   H11 1319   2.995   0.978   3.109
  110HFIP   H12 1320   3.253   0.930   3.218
  111HFIP    O1 1321   3.166   1.725   0.187
  111HFIP    C2 1322   3.123   1.745   0.317
  111HFIP    C3 1323   3.148   1.890   0.362
  111HFIP    F4 1324   3.081   1.975   0.284
  111HFIP    F5 1325   3.277   1.922   0.353
  111HFIP    F6 1326   3.109   1.913   0.487
  111HFIP    C7 1327   3.191   1.644   0.413
  111HFIP    F8 1328   3.324   1.656   0.407
  111HFIP    F9 1329   3.162   1.519   0.378
  111HFIP   F10 1330   3.154   1.660   0.540
  111HFIP   H11 1331   3.262   1.741   0.179
  111HFIP   H12 1332   3.015   1.726   0.318
  112HFIP    O1 1333   3.257   1.903   1.057
  112HFIP    C2 1334   3.209   1.779   1.094
  112HFIP    C3 1335   3.238   1.674   0.984
  112HFIP    F4 1336   3.369   1.663   0.964
  112HFIP    F5 1337   3.184   1.711   0.867
  112HFIP    F6 1338   3.192   1.553   1.013
  112HFIP    C7 1339   3.058   1.785   1.125
  112HFIP    F8 1340   2.989   1.831   1.020
  112HFIP    F9 1341   3.035   1.869   1.226
  112HFIP   F10 1342   3.006   1.667   1.159
  112HFIP   H11 1343   3.214   1.935   0.977
  112HFIP   H12 1344   3.262   1.748   1.185
  113HFIP    O1 1345   3.096   1.671   1.884
  113HFIP    C2 1346   3.145   1.778   1.811
  113HFIP    C3 1347   3.070   1.793   1.677
  113HFIP    F4 1348   2.940   1.814   1.699
  113HFIP    F5 1349   3.079   1.680   1.605
  113HFIP    F6 1350   3.115   1.893   1.603
  113HFIP    C7 1351   3.297   1.763   1.788
  113HFIP    F8 1352   3.324   1.648   1.724
  113HFIP    F9 1353   3.362   1.759   1.904
  113HFIP   F10 1354   3.349   1.862   1.716
  113HFIP   H11 1355   3.108   1.587   1.836
  113HFIP   H12 1356   3.128   1.869   1.871
  114HFIP    O1 1357   3.162   1.921   2.514
  114HFIP    C2 1358   3.211   1.798   2.474
  114HFIP    C3 1359   3.163   1.763   2.331
  114HFIP    F4 1360   3.205   1.854   2.244
  114HFIP    F5 1361   3.029   1.762   2.325
  114HFIP    F6 1362   3.207   1.644   2.289
  114HFIP    C7 1363   3.172   1.688   2.575
  114HFIP    F8 1364   3.039   1.681   2.588
  114HFIP    F9 1365   3.222   1.715   2.695
  114HFIP   F10 1366   3.216   1.567   2.540
  114HFIP   H11 1367   3.065   1.920   2.517
  114HFIP   H12 1368   3.321   1.805   2.472
  115HFIP    O1 1369   3.129   1.749   3.332
  115HFIP    C2 1370   3.153   1.802   3.206
  115HFIP    C3 1371   3.053   1.745   3.102
  115HFIP    F4 1372   2.928   1.775   3.136
  115HFIP    F5 1373   3.061   1.611   3.097
  115HFIP    F6 1374   3.074   1.791   2.979
  115HFIP    C7 1375   3.299   1.776   3.163
  115HFIP    F8 1376   3.326   1.646   3.162
  115HFIP    F9 1377   3.383   1.834   3.248
  115HFIP   F10 1378   3.327   1.824   3.041
  115HFIP   H11 1379   3.141   1.653   3.332
  115HFIP   H12 1380   3.137   1.911   3.212
  116HFIP    O1 1381   3.090   2.505   0.208
  116HFIP    C2 1382   3.132   2.509   0.339
  116HFIP    C3 1383   3.286   2.523   0.348
  116HFIP    F4 1384   3.326   2.635   0.288
  116HFIP    F5 1385   3.346   2.421   0.284
  116HFIP    F6 1386   3.332   2.526   0.473
  116HFIP    C7 1387   3.084   2.385   0.417
  116HFIP    F8 1388   3.128   2.272   0.359
  116HFIP    F9 1389   2.950   2.379   0.417
  116HFIP   F10 1390   3.123   2.384   0.544
  116HFIP   H11 1391   3.127   2.428   0.162
  116HFIP   H12 1392   3.087   2.598   0.385
  117HFIP    O1 1393   3.116   2.305   1.033
  117HFIP    C2 1394   3.120   2.443   1.028
  117HFIP    C3 1395   3.245   2.492   0.952
  117HFIP    F4 1396   3.243   2.447   0.827
  117HFIP    F5 1397   3.357   2.446   1.009
  117HFIP    F6 1398   3.254   2.625   0.946
  117HFIP    C7 1399   3.115   2.503   1.171
  117HFIP    F8 1400   3.217   2.457   1.245
  117HFIP    F9 1401   3.003   2.467   1.233
  117HFIP   F10 1402   3.120   2.636   1.172
  117HFIP   H11 1403   3.193   2.269   1.080
  117HFIP   H12 1404   3.031   2.476   0.974
  118HFIP    O1 1405   3.143   2.593   1.655
  118HFIP    C2 1406   3.132   2.469   1.713
  118HFIP    C3 1407   3.082   2.481   1.859
  118HFIP    F4 1408   2.962   2.539   1.863
  118HFIP    F5 1409   3.164   2.558   1.932
  118HFIP    F6 1410   3.071   2.363   1.921
  118HFIP    C7 1411   3.266   2.393   1.707
  118HFIP    F8 1412   3.363   2.462   1.767
  118HFIP    F9 1413   3.303   2.375   1.580
  118HFIP   F10 1414   3.261   2.272   1.764
  118HFIP   H11 1415   3.207   2.648   1.701
  118HFIP   H12 1416   3.057   2.412   1.656
  119HFIP    O1 1417   3.072   2.454   2.602
  119HFIP    C2 1418   3.113   2.483   2.473
  119HFIP    C3 1419   3.143   2.354   2.395
  119HFIP    F4 1420   3.033   2.278   2.387
  119HFIP    F5 1421   3.236   2.281   2.456
  119HFIP    F6 1422   3.184   2.377   2.270
  119HFIP    C7 1423   3.236   2.577   2.475
  119HFIP    F8 1424   3.337   2.522   2.543
  119HFIP    F9 1425   3.206   2.692   2.535
  119HFIP   F10 1426   3.280   2.606   2.353
  119HFIP   H11 1427   3.141   2.407   2.652
  119HFIP   H12 1428   3.030   2.536   2.424
  120HFIP    O1 1429   3.209   2.627   3.175
  120HFIP    C2 1430   3.221   2.489   3.171
  120HFIP    C3 1431   3.162   2.433   3.039
  120HFIP    F4 1432   3.228   2.483   2.934
  120HFIP    F5 1433   3.034   2.468   3.025
  120HFIP    F6 1434   3.170   2.301   3.031
  120HFIP    C7 1435   3.152   2.425   3.293
  120HFIP    F8 1436   3.023   2.459   3.299
  120HFIP    F9 1437   3.209   2.467   3.406
  120HFIP   F10 1438   3.159   2.292   3.293
  120HFIP   H11 1439   3.116   2.655   3.172
  120HFIP   H12 1440   3.328   2.465   3.174
  121HFIP    O1 1441   3.232   3.012   0.365
  121HFIP    C2 1442   3.185   3.130   0.310
  121HFIP    C3 1443   3.271   3.250   0.355
  121HFIP    F4 1444   3.398   3.233   0.316
  121HFIP    F5 1445   3.273   3.260   0.489
  121HFIP    F6 1446   3.229   3.366   0.306
  121HFIP    C7 1447   3.036   3.152   0.346
  121HFIP    F8 1448   3.019   3.155   0.479
  121HFIP    F9 1449   2.962   3.053   0.299
  121HFIP   F10 1450   2.987   3.266   0.297
  121HFIP   H11 1451   3.227   3.014   0.462
  121HFIP   H12 1452   3.193   3.121   0.201
  122HFIP    O1 1453   3.184   3.013   0.991
  122HFIP    C2 1454   3.189   3.150   1.003
  122HFIP    C3 1455   3.280   3.192   1.121
  122HFIP    F4 1456   3.405   3.149   1.100
  122HFIP    F5 1457   3.239   3.138   1.236
  122HFIP    F6 1458   3.287   3.324   1.138
  122HFIP    C7 1459   3.047   3.209   1.021
  122HFIP    F8 1460   2.986   3.156   1.128
  122HFIP    F9 1461   2.971   3.179   0.915
  122HFIP   F10 1462   3.046   3.341   1.035
  122HFIP   H11 1463   3.147   2.971   1.071
  122HFIP   H12 1464   3.231   3.191   0.911
  123HFIP    O1 1465   3.215   3.079   1.624
  123HFIP    C2 1466   3.218   3.138   1.749
  123HFIP    C3 1467   3.105   3.082   1.839
  123HFIP    F4 1468   3.120   2.950   1.855
  123HFIP    F5 1469   2.985   3.101   1.782
  123HFIP    F6 1470   3.102   3.137   1.960
  123HFIP    C7 1471   3.208   3.292   1.738
  123HFIP    F8 1472   3.096   3.328   1.674
  123HFIP    F9 1473   3.310   3.340   1.668
  123HFIP   F10 1474   3.208   3.353   1.856
  123HFIP   H11 1475   3.132   3.098   1.578
  123HFIP   H12 1476   3.314   3.113   1.795
  124HFIP    O1 1477   3.105   3.168   2.621
  124HFIP    C2 1478   3.195   3.159   2.515
  124HFIP    C3 1479   3.202   3.293   2.438
  124HFIP    F4 1480   3.243   3.391   2.518
  124HFIP    F5 1481   3.082   3.328   2.392
  124HFIP    F6 1482   3.286   3.289   2.334
  124HFIP    C7 1483   3.157   3.043   2.421
  124HFIP    F8 1484   3.033   3.058   2.374
  124HFIP    F9 1485   3.160   2.927   2.487
  124HFIP   F10 1486   3.239   3.031   2.317
  124HFIP   H11 1487   3.016   3.187   2.589
  124HFIP   H12 1488   3.294   3.139   2.558
  125HFIP    O1 1489   3.298   3.219   3.073
  125HFIP    C2 1490   3.172   3.174   3.109
  125HFIP    C3 1491   3.100   3.277   3.198
  125HFIP    F4 1492   3.084   3.392   3.132
  125HFIP    F5 1493   3.171   3.304   3.308
  125HFIP    F6 1494   2.979   3.237   3.237
  125HFIP    C7 1495   3.182   3.037   3.180
  125HFIP    F8 1496   3.260   3.044   3.289
  125HFIP    F9 1497   3.236   2.946   3.099
  125HFIP   F10 1498   3.063   2.989   3.219
  125HFIP   H11 1499   3.354   3.232   3.151
  125HFIP   H12 1500   3.114   3.161   3.017
   3.51960   3.51960   3.51960
