HFIP published-force-field qualification
 1500
    1HFIP    O1    1   0.478   0.386   0.238
    1HFIP    C2    2   0.405   0.377   0.358
    1HFIP    C3    3   0.376   0.229   0.398
    1HFIP    F4    4   0.492   0.159   0.414
    1HFIP    F5    5   0.305   0.165   0.301
    1HFIP    F6    6   0.308   0.214   0.515
    1HFIP    C7    7   0.274   0.459   0.353
    1HFIP    F8    8   0.193   0.418   0.251
    1HFIP    F9    9   0.300   0.590   0.329
    1HFIP   F10   10   0.201   0.457   0.468
    1HFIP   H11   11   0.426   0.347   0.162
    1HFIP   H12   12   0.466   0.419   0.438
    2HFIP    O1   13   0.338   0.216   1.163
    2HFIP    C2   14   0.374   0.297   1.053
    2HFIP    C3   15   0.460   0.419   1.096
    2HFIP    F4   16   0.574   0.378   1.156
    2HFIP    F5   17   0.394   0.497   1.186
    2HFIP    F6   18   0.499   0.499   0.993
    2HFIP    C7   19   0.249   0.343   0.972
    2HFIP    F8   20   0.163   0.413   1.050
    2HFIP    F9   21   0.180   0.235   0.925
    2HFIP   F10   22   0.278   0.419   0.863
    2HFIP   H11   23   0.282   0.268   1.227
    2HFIP   H12   24   0.435   0.237   0.986
    3HFIP    O1   25   0.355   0.525   1.764
    3HFIP    C2   26   0.331   0.393   1.723
    3HFIP    C3   27   0.242   0.316   1.824
    3HFIP    F4   28   0.122   0.378   1.840
    3HFIP    F5   29   0.298   0.311   1.948
    3HFIP    F6   30   0.212   0.188   1.787
    3HFIP    C7   31   0.463   0.315   1.696
    3HFIP    F8   32   0.541   0.311   1.806
    3HFIP    F9   33   0.535   0.377   1.599
    3HFIP   F10   34   0.445   0.187   1.652
    3HFIP   H11   35   0.406   0.526   1.851
    3HFIP   H12   36   0.276   0.397   1.629
    4HFIP    O1   37   0.420   0.410   2.316
    4HFIP    C2   38   0.405   0.375   2.451
    4HFIP    C3   39   0.382   0.222   2.469
    4HFIP    F4   40   0.486   0.151   2.418
    4HFIP    F5   41   0.271   0.180   2.401
    4HFIP    F6   42   0.369   0.182   2.599
    4HFIP    C7   43   0.291   0.455   2.520
    4HFIP    F8   44   0.172   0.438   2.457
    4HFIP    F9   45   0.317   0.588   2.514
    4HFIP   F10   46   0.274   0.428   2.652
    4HFIP   H11   47   0.337   0.389   2.264
    4HFIP   H12   48   0.498   0.400   2.503
    5HFIP    O1   49   0.207   0.390   3.081
    5HFIP    C2   50   0.342   0.370   3.112
    5HFIP    C3   51   0.373   0.222   3.148
    5HFIP    F4   52   0.340   0.139   3.046
    5HFIP    F5   53   0.299   0.181   3.255
    5HFIP    F6   54   0.503   0.196   3.177
    5HFIP    C7   55   0.391   0.465   3.225
    5HFIP    F8   56   0.319   0.448   3.339
    5HFIP    F9   57   0.375   0.595   3.188
    5HFIP   F10   58   0.523   0.452   3.257
    5HFIP   H11   59   0.150   0.370   3.161
    5HFIP   H12   60   0.401   0.393   3.023
    6HFIP    O1   61   0.215   1.100   0.255
    6HFIP    C2   62   0.340   1.104   0.319
    6HFIP    C3   63   0.433   0.988   0.271
    6HFIP    F4   64   0.453   0.995   0.137
    6HFIP    F5   65   0.376   0.867   0.295
    6HFIP    F6   66   0.557   0.987   0.327
    6HFIP    C7   67   0.328   1.103   0.474
    6HFIP    F8   68   0.261   0.993   0.518
    6HFIP    F9   69   0.256   1.211   0.516
    6HFIP   F10   70   0.446   1.109   0.540
    6HFIP   H11   71   0.167   1.016   0.279
    6HFIP   H12   72   0.390   1.197   0.291
    7HFIP    O1   73   0.227   1.090   1.171
    7HFIP    C2   74   0.332   1.107   1.080
    7HFIP    C3   75   0.294   1.060   0.937
    7HFIP    F4   76   0.187   1.131   0.890
    7HFIP    F5   77   0.256   0.930   0.935
    7HFIP    F6   78   0.391   1.077   0.843
    7HFIP    C7   79   0.462   1.035   1.127
    7HFIP    F8   80   0.441   0.901   1.145
    7HFIP    F9   81   0.503   1.083   1.248
    7HFIP   F10   82   0.568   1.050   1.044
    7HFIP   H11   83   0.203   0.994   1.180
    7HFIP   H12   84   0.356   1.213   1.074
    8HFIP    O1   85   0.485   1.080   1.652
    8HFIP    C2   86   0.401   1.025   1.750
    8HFIP    C3   87   0.263   0.985   1.691
    8HFIP    F4   88   0.277   0.894   1.591
    8HFIP    F5   89   0.199   1.092   1.637
    8HFIP    F6   90   0.178   0.927   1.781
    8HFIP    C7   91   0.384   1.119   1.873
    8HFIP    F8   92   0.333   1.240   1.836
    8HFIP    F9   93   0.504   1.145   1.931
    8HFIP   F10   94   0.305   1.069   1.971
    8HFIP   H11   95   0.446   1.165   1.615
    8HFIP   H12   96   0.448   0.933   1.786
    9HFIP    O1   97   0.311   1.200   2.377
    9HFIP    C2   98   0.300   1.077   2.444
    9HFIP    C3   99   0.344   1.088   2.593
    9HFIP    F4  100   0.267   1.178   2.659
    9HFIP    F5  101   0.473   1.131   2.604
    9HFIP    F6  102   0.333   0.972   2.663
    9HFIP    C7  103   0.379   0.965   2.371
    9HFIP    F8  104   0.512   0.995   2.360
    9HFIP    F9  105   0.333   0.947   2.245
    9HFIP   F10  106   0.371   0.843   2.430
    9HFIP   H11  107   0.406   1.231   2.375
    9HFIP   H12  108   0.195   1.047   2.444
   10HFIP    O1  109   0.412   0.914   3.247
   10HFIP    C2  110   0.398   1.021   3.157
   10HFIP    C3  111   0.412   1.159   3.227
   10HFIP    F4  112   0.533   1.170   3.288
   10HFIP    F5  113   0.318   1.174   3.325
   10HFIP    F6  114   0.402   1.266   3.144
   10HFIP    C7  115   0.266   1.013   3.076
   10HFIP    F8  116   0.157   1.014   3.158
   10HFIP    F9  117   0.259   0.897   3.005
   10HFIP   F10  118   0.249   1.112   2.985
   10HFIP   H11  119   0.339   0.917   3.316
   10HFIP   H12  120   0.480   1.014   3.084
   11HFIP    O1  121   0.437   1.716   0.496
   11HFIP    C2  122   0.407   1.740   0.361
   11HFIP    C3  123   0.374   1.890   0.334
   11HFIP    F4  124   0.479   1.969   0.368
   11HFIP    F5  125   0.268   1.932   0.409
   11HFIP    F6  126   0.347   1.919   0.204
   11HFIP    C7  127   0.292   1.648   0.310
   11HFIP    F8  128   0.178   1.666   0.383
   11HFIP    F9  129   0.326   1.517   0.324
   11HFIP   F10  130   0.260   1.665   0.179
   11HFIP   H11  131   0.359   1.738   0.555
   11HFIP   H12  132   0.495   1.716   0.302
   12HFIP    O1  133   0.409   1.724   0.896
   12HFIP    C2  134   0.348   1.789   1.004
   12HFIP    C3  135   0.450   1.827   1.116
   12HFIP    F4  136   0.546   1.909   1.067
   12HFIP    F5  137   0.513   1.716   1.164
   12HFIP    F6  138   0.396   1.893   1.222
   12HFIP    C7  139   0.230   1.707   1.063
   12HFIP    F8  140   0.272   1.584   1.106
   12HFIP    F9  141   0.137   1.683   0.968
   12HFIP   F10  142   0.164   1.766   1.166
   12HFIP   H11  143   0.451   1.638   0.927
   12HFIP   H12  144   0.306   1.883   0.968
   13HFIP    O1  145   0.481   1.712   1.865
   13HFIP    C2  146   0.385   1.790   1.799
   13HFIP    C3  147   0.240   1.741   1.829
   13HFIP    F4  148   0.215   1.746   1.962
   13HFIP    F5  149   0.222   1.612   1.791
   13HFIP    F6  150   0.142   1.815   1.770
   13HFIP    C7  151   0.410   1.797   1.646
   13HFIP    F8  152   0.409   1.673   1.590
   13HFIP    F9  153   0.532   1.850   1.619
   13HFIP   F10  154   0.320   1.873   1.577
   13HFIP   H11  155   0.477   1.617   1.833
   13HFIP   H12  156   0.392   1.892   1.837
   14HFIP    O1  157   0.372   1.930   2.438
   14HFIP    C2  158   0.318   1.806   2.478
   14HFIP    C3  159   0.410   1.734   2.581
   14HFIP    F4  160   0.428   1.811   2.691
   14HFIP    F5  161   0.534   1.711   2.530
   14HFIP    F6  162   0.361   1.615   2.625
   14HFIP    C7  163   0.288   1.714   2.357
   14HFIP    F8  164   0.400   1.689   2.283
   14HFIP    F9  165   0.199   1.773   2.272
   14HFIP   F10  166   0.233   1.594   2.389
   14HFIP   H11  167   0.459   1.917   2.391
   14HFIP   H12  168   0.223   1.825   2.528
   15HFIP    O1  169   0.244   1.887   3.121
   15HFIP    C2  170   0.361   1.811   3.138
   15HFIP    C3  171   0.350   1.672   3.068
   15HFIP    F4  172   0.328   1.688   2.935
   15HFIP    F5  173   0.244   1.600   3.115
   15HFIP    F6  174   0.461   1.595   3.078
   15HFIP    C7  175   0.398   1.792   3.288
   15HFIP    F8  176   0.297   1.733   3.358
   15HFIP    F9  177   0.418   1.913   3.347
   15HFIP   F10  178   0.511   1.721   3.311
   15HFIP   H11  179   0.166   1.842   3.164
   15HFIP   H12  180   0.443   1.864   3.091
   16HFIP    O1  181   0.253   2.330   0.401
   16HFIP    C2  182   0.341   2.411   0.327
   16HFIP    C3  183   0.471   2.443   0.407
   16HFIP    F4  184   0.536   2.328   0.441
   16HFIP    F5  185   0.444   2.506   0.524
   16HFIP    F6  186   0.562   2.518   0.339
   16HFIP    C7  187   0.274   2.542   0.278
   16HFIP    F8  188   0.227   2.616   0.383
   16HFIP    F9  189   0.167   2.515   0.199
   16HFIP   F10  190   0.354   2.623   0.204
   16HFIP   H11  191   0.222   2.378   0.483
   16HFIP   H12  192   0.372   2.355   0.238
   17HFIP    O1  193   0.208   2.427   0.967
   17HFIP    C2  194   0.343   2.447   1.000
   17HFIP    C3  195   0.391   2.349   1.111
   17HFIP    F4  196   0.375   2.220   1.070
   17HFIP    F5  197   0.318   2.362   1.224
   17HFIP    F6  198   0.522   2.361   1.145
   17HFIP    C7  199   0.373   2.594   1.041
   17HFIP    F8  200   0.298   2.632   1.147
   17HFIP    F9  201   0.341   2.679   0.939
   17HFIP   F10  202   0.503   2.619   1.071
   17HFIP   H11  203   0.150   2.447   1.045
   17HFIP   H12  204   0.403   2.426   0.911
   18HFIP    O1  205   0.438   2.324   1.813
   18HFIP    C2  206   0.393   2.430   1.734
   18HFIP    C3  207   0.425   2.568   1.798
   18HFIP    F4  208   0.559   2.583   1.816
   18HFIP    F5  209   0.369   2.580   1.921
   18HFIP    F6  210   0.386   2.676   1.724
   18HFIP    C7  211   0.241   2.419   1.701
   18HFIP    F8  212   0.167   2.415   1.815
   18HFIP    F9  213   0.215   2.303   1.635
   18HFIP   F10  214   0.192   2.518   1.622
   18HFIP   H11  215   0.392   2.324   1.902
   18HFIP   H12  216   0.446   2.426   1.639
   19HFIP    O1  217   0.188   2.457   2.408
   19HFIP    C2  218   0.315   2.506   2.444
   19HFIP    C3  219   0.428   2.446   2.356
   19HFIP    F4  220   0.408   2.474   2.225
   19HFIP    F5  221   0.431   2.310   2.365
   19HFIP    F6  222   0.552   2.492   2.385
   19HFIP    C7  223   0.345   2.483   2.595
   19HFIP    F8  224   0.339   2.351   2.628
   19HFIP    F9  225   0.252   2.545   2.673
   19HFIP   F10  226   0.465   2.530   2.637
   19HFIP   H11  227   0.183   2.358   2.422
   19HFIP   H12  228   0.316   2.613   2.428
   20HFIP    O1  229   0.320   2.504   3.003
   20HFIP    C2  230   0.333   2.514   3.142
   20HFIP    C3  231   0.480   2.493   3.188
   20HFIP    F4  232   0.562   2.585   3.131
   20HFIP    F5  233   0.528   2.371   3.149
   20HFIP    F6  234   0.499   2.503   3.322
   20HFIP    C7  235   0.238   2.416   3.216
   20HFIP    F8  236   0.260   2.287   3.180
   20HFIP    F9  237   0.108   2.442   3.185
   20HFIP   F10  238   0.244   2.423   3.352
   20HFIP   H11  239   0.345   2.413   2.970
   20HFIP   H12  240   0.305   2.615   3.171
   21HFIP    O1  241   0.388   3.281   0.478
   21HFIP    C2  242   0.396   3.171   0.391
   21HFIP    C3  243   0.413   3.214   0.243
   21HFIP    F4  244   0.525   3.288   0.227
   21HFIP    F5  245   0.309   3.292   0.202
   21HFIP    F6  246   0.424   3.111   0.155
   21HFIP    C7  247   0.275   3.075   0.407
   21HFIP    F8  248   0.157   3.139   0.383
   21HFIP    F9  249   0.266   3.028   0.535
   21HFIP   F10  250   0.278   2.965   0.328
   21HFIP   H11  251   0.308   3.337   0.456
   21HFIP   H12  252   0.485   3.114   0.418
   22HFIP    O1  253   0.349   3.327   1.124
   22HFIP    C2  254   0.393   3.200   1.084
   22HFIP    C3  255   0.389   3.183   0.929
   22HFIP    F4  256   0.468   3.276   0.869
   22HFIP    F5  257   0.264   3.201   0.880
   22HFIP    F6  258   0.434   3.062   0.884
   22HFIP    C7  259   0.314   3.085   1.153
   22HFIP    F8  260   0.181   3.094   1.127
   22HFIP    F9  261   0.326   3.093   1.288
   22HFIP   F10  262   0.354   2.960   1.120
   22HFIP   H11  263   0.254   3.341   1.098
   22HFIP   H12  264   0.497   3.189   1.114
   23HFIP    O1  265   0.197   3.205   1.693
   23HFIP    C2  266   0.317   3.139   1.721
   23HFIP    C3  267   0.328   3.099   1.871
   23HFIP    F4  268   0.225   3.018   1.907
   23HFIP    F5  269   0.319   3.208   1.952
   23HFIP    F6  270   0.441   3.032   1.904
   23HFIP    C7  271   0.441   3.222   1.678
   23HFIP    F8  272   0.444   3.343   1.739
   23HFIP    F9  273   0.438   3.248   1.544
   23HFIP   F10  274   0.561   3.161   1.700
   23HFIP   H11  275   0.191   3.291   1.743
   23HFIP   H12  276   0.320   3.046   1.664
   24HFIP    O1  277   0.395   3.313   2.546
   24HFIP    C2  278   0.345   3.225   2.450
   24HFIP    C3  279   0.229   3.137   2.505
   24HFIP    F4  280   0.126   3.215   2.548
   24HFIP    F5  281   0.269   3.064   2.613
   24HFIP    F6  282   0.175   3.051   2.415
   24HFIP    C7  283   0.457   3.135   2.389
   24HFIP    F8  284   0.520   3.062   2.484
   24HFIP    F9  285   0.553   3.212   2.330
   24HFIP   F10  286   0.414   3.049   2.292
   24HFIP   H11  287   0.434   3.263   2.623
   24HFIP   H12  288   0.304   3.284   2.368
   25HFIP    O1  289   0.274   3.298   3.085
   25HFIP    C2  290   0.296   3.186   3.166
   25HFIP    C3  291   0.391   3.217   3.285
   25HFIP    F4  292   0.340   3.317   3.362
   25HFIP    F5  293   0.512   3.261   3.241
   25HFIP    F6  294   0.413   3.112   3.369
   25HFIP    C7  295   0.348   3.064   3.085
   25HFIP    F8  296   0.464   3.092   3.021
   25HFIP    F9  297   0.259   3.030   2.988
   25HFIP   F10  298   0.367   2.951   3.158
   25HFIP   H11  299   0.360   3.329   3.043
   25HFIP   H12  300   0.200   3.157   3.209
   26HFIP    O1  301   1.183   0.418   0.255
   26HFIP    C2  302   1.103   0.386   0.365
   26HFIP    C3  303   1.099   0.233   0.393
   26HFIP    F4  304   1.224   0.186   0.417
   26HFIP    F5  305   1.053   0.164   0.286
   26HFIP    F6  306   1.024   0.197   0.501
   26HFIP    C7  307   0.958   0.442   0.350
   26HFIP    F8  308   0.898   0.394   0.238
   26HFIP    F9  309   0.960   0.578   0.338
   26HFIP   F10  310   0.876   0.417   0.456
   26HFIP   H11  311   1.147   0.377   0.172
   26HFIP   H12  312   1.146   0.433   0.453
   27HFIP    O1  313   0.948   0.241   1.134
   27HFIP    C2  314   1.058   0.325   1.109
   27HFIP    C3  315   1.015   0.474   1.091
   27HFIP    F4  316   0.951   0.519   1.202
   27HFIP    F5  317   0.927   0.488   0.988
   27HFIP    F6  318   1.118   0.560   1.069
   27HFIP    C7  319   1.141   0.277   0.987
   27HFIP    F8  320   1.066   0.271   0.874
   27HFIP    F9  321   1.189   0.151   1.008
   27HFIP   F10  322   1.251   0.353   0.959
   27HFIP   H11  323   0.885   0.242   1.056
   27HFIP   H12  324   1.123   0.321   1.196
   28HFIP    O1  325   1.226   0.336   1.786
   28HFIP    C2  326   1.094   0.307   1.751
   28HFIP    C3  327   1.042   0.397   1.635
   28HFIP    F4  328   1.119   0.381   1.524
   28HFIP    F5  329   1.049   0.529   1.668
   28HFIP    F6  330   0.915   0.371   1.596
   28HFIP    C7  331   0.998   0.315   1.874
   28HFIP    F8  332   1.000   0.439   1.930
   28HFIP    F9  333   1.036   0.228   1.970
   28HFIP   F10  334   0.868   0.285   1.846
   28HFIP   H11  335   1.235   0.430   1.820
   28HFIP   H12  336   1.090   0.204   1.716
   29HFIP    O1  337   1.041   0.184   2.503
   29HFIP    C2  338   1.091   0.315   2.493
   29HFIP    C3  339   0.999   0.419   2.564
   29HFIP    F4  340   0.985   0.389   2.696
   29HFIP    F5  341   0.874   0.418   2.512
   29HFIP    F6  342   1.045   0.546   2.560
   29HFIP    C7  343   1.117   0.356   2.346
   29HFIP    F8  344   1.003   0.349   2.271
   29HFIP    F9  345   1.206   0.272   2.287
   29HFIP   F10  346   1.169   0.481   2.330
   29HFIP   H11  347   0.952   0.177   2.457
   29HFIP   H12  348   1.187   0.317   2.545
   30HFIP    O1  349   1.165   0.471   3.230
   30HFIP    C2  350   1.107   0.347   3.197
   30HFIP    C3  351   1.095   0.327   3.043
   30HFIP    F4  352   1.217   0.335   2.983
   30HFIP    F5  353   1.020   0.426   2.987
   30HFIP    F6  354   1.042   0.208   3.005
   30HFIP    C7  355   0.970   0.327   3.266
   30HFIP    F8  356   0.882   0.425   3.231
   30HFIP    F9  357   0.983   0.333   3.401
   30HFIP   F10  358   0.910   0.207   3.240
   30HFIP   H11  359   1.107   0.546   3.198
   30HFIP   H12  360   1.174   0.269   3.233
   31HFIP    O1  361   0.961   0.992   0.481
   31HFIP    C2  362   1.036   1.080   0.402
   31HFIP    C3  363   0.970   1.107   0.264
   31HFIP    F4  364   0.846   1.161   0.281
   31HFIP    F5  365   0.952   0.991   0.194
   31HFIP    F6  366   1.038   1.193   0.185
   31HFIP    C7  367   1.183   1.030   0.384
   31HFIP    F8  368   1.186   0.907   0.326
   31HFIP    F9  369   1.245   1.017   0.504
   31HFIP   F10  370   1.262   1.113   0.310
   31HFIP   H11  371   0.953   0.903   0.437
   31HFIP   H12  372   1.042   1.176   0.454
   32HFIP    O1  373   0.970   1.096   1.201
   32HFIP    C2  374   1.026   1.104   1.072
   32HFIP    C3  375   0.969   0.995   0.977
   32HFIP    F4  376   0.834   1.007   0.965
   32HFIP    F5  377   0.991   0.870   1.026
   32HFIP    F6  378   1.016   1.000   0.850
   32HFIP    C7  379   1.181   1.098   1.074
   32HFIP    F8  380   1.225   0.983   1.132
   32HFIP    F9  381   1.232   1.200   1.149
   32HFIP   F10  382   1.240   1.109   0.952
   32HFIP   H11  383   0.993   1.009   1.243
   32HFIP   H12  384   0.998   1.201   1.029
   33HFIP    O1  385   0.894   1.010   1.722
   33HFIP    C2  386   1.004   1.080   1.773
   33HFIP    C3  387   1.095   1.136   1.661
   33HFIP    F4  388   1.026   1.219   1.579
   33HFIP    F5  389   1.142   1.035   1.581
   33HFIP    F6  390   1.202   1.207   1.705
   33HFIP    C7  391   1.086   0.994   1.874
   33HFIP    F8  392   1.132   0.880   1.816
   33HFIP    F9  393   1.008   0.955   1.978
   33HFIP   F10  394   1.192   1.058   1.929
   33HFIP   H11  395   0.923   0.930   1.670
   33HFIP   H12  396   0.966   1.166   1.829
   34HFIP    O1  397   1.195   1.123   2.541
   34HFIP    C2  398   1.093   1.099   2.448
   34HFIP    C3  399   0.952   1.128   2.506
   34HFIP    F4  400   0.942   1.257   2.546
   34HFIP    F5  401   0.927   1.051   2.616
   34HFIP    F6  402   0.850   1.109   2.419
   34HFIP    C7  403   1.101   0.955   2.390
   34HFIP    F8  404   1.091   0.861   2.488
   34HFIP    F9  405   1.220   0.933   2.329
   34HFIP   F10  406   1.006   0.927   2.296
   34HFIP   H11  407   1.186   1.062   2.620
   34HFIP   H12  408   1.107   1.167   2.364
   35HFIP    O1  409   1.169   0.942   3.102
   35HFIP    C2  410   1.115   1.055   3.166
   35HFIP    C3  411   1.034   1.017   3.293
   35HFIP    F4  412   1.112   0.951   3.382
   35HFIP    F5  413   0.931   0.933   3.263
   35HFIP    F6  414   0.982   1.123   3.361
   35HFIP    C7  415   1.029   1.141   3.069
   35HFIP    F8  416   0.926   1.069   3.017
   35HFIP    F9  417   1.103   1.183   2.963
   35HFIP   F10  418   0.977   1.254   3.125
   35HFIP   H11  419   1.095   0.882   3.070
   35HFIP   H12  420   1.198   1.118   3.199
   36HFIP    O1  421   0.938   1.763   0.478
   36HFIP    C2  422   0.997   1.754   0.352
   36HFIP    C3  423   1.093   1.632   0.341
   36HFIP    F4  424   1.027   1.516   0.366
   36HFIP    F5  425   1.193   1.640   0.434
   36HFIP    F6  426   1.151   1.616   0.219
   36HFIP    C7  427   1.070   1.885   0.311
   36HFIP    F8  428   1.167   1.918   0.400
   36HFIP    F9  429   0.983   1.989   0.308
   36HFIP   F10  430   1.127   1.883   0.187
   36HFIP   H11  431   1.008   1.781   0.548
   36HFIP   H12  432   0.918   1.738   0.279
   37HFIP    O1  433   1.051   1.795   0.886
   37HFIP    C2  434   1.053   1.811   1.026
   37HFIP    C3  435   1.184   1.756   1.089
   37HFIP    F4  436   1.290   1.822   1.037
   37HFIP    F5  437   1.202   1.624   1.060
   37HFIP    F6  438   1.193   1.772   1.224
   37HFIP    C7  439   0.929   1.746   1.094
   37HFIP    F8  440   0.921   1.613   1.067
   37HFIP    F9  441   0.815   1.801   1.047
   37HFIP   F10  442   0.925   1.761   1.230
   37HFIP   H11  443   1.054   1.698   0.863
   37HFIP   H12  444   1.049   1.917   1.048
   38HFIP    O1  445   1.115   1.883   1.654
   38HFIP    C2  446   1.107   1.791   1.759
   38HFIP    C3  447   1.096   1.644   1.708
   38HFIP    F4  448   1.204   1.612   1.632
   38HFIP    F5  449   0.986   1.627   1.628
   38HFIP    F6  450   1.090   1.550   1.805
   38HFIP    C7  451   0.989   1.823   1.856
   38HFIP    F8  452   0.870   1.824   1.791
   38HFIP    F9  453   1.005   1.947   1.910
   38HFIP   F10  454   0.978   1.738   1.961
   38HFIP   H11  455   1.033   1.880   1.598
   38HFIP   H12  456   1.199   1.797   1.817
   39HFIP    O1  457   1.159   1.803   2.596
   39HFIP    C2  458   1.097   1.729   2.494
   39HFIP    C3  459   1.123   1.790   2.353
   39HFIP    F4  460   1.257   1.794   2.327
   39HFIP    F5  461   1.080   1.919   2.345
   39HFIP    F6  462   1.068   1.721   2.250
   39HFIP    C7  463   0.944   1.713   2.519
   39HFIP    F8  464   0.882   1.834   2.527
   39HFIP    F9  465   0.921   1.650   2.637
   39HFIP   F10  466   0.879   1.640   2.424
   39HFIP   H11  467   1.123   1.896   2.599
   39HFIP   H12  468   1.139   1.629   2.494
   40HFIP    O1  469   0.917   1.658   3.184
   40HFIP    C2  470   1.009   1.751   3.133
   40HFIP    C3  471   1.147   1.687   3.104
   40HFIP    F4  472   1.135   1.586   3.014
   40HFIP    F5  473   1.201   1.632   3.216
   40HFIP    F6  474   1.238   1.772   3.051
   40HFIP    C7  475   1.024   1.875   3.226
   40HFIP    F8  476   1.065   1.839   3.351
   40HFIP    F9  477   0.905   1.938   3.242
   40HFIP   F10  478   1.110   1.970   3.180
   40HFIP   H11  479   0.948   1.622   3.272
   40HFIP   H12  480   0.970   1.787   3.038
   41HFIP    O1  481   1.148   2.378   0.233
   41HFIP    C2  482   1.094   2.418   0.356
   41HFIP    C3  483   0.939   2.401   0.361
   41HFIP    F4  484   0.905   2.270   0.341
   41HFIP    F5  485   0.878   2.471   0.263
   41HFIP    F6  486   0.882   2.435   0.480
   41HFIP    C7  487   1.133   2.564   0.392
   41HFIP    F8  488   1.090   2.652   0.297
   41HFIP    F9  489   1.268   2.578   0.398
   41HFIP   F10  490   1.086   2.608   0.512
   41HFIP   H11  491   1.111   2.434   0.158
   41HFIP   H12  492   1.135   2.354   0.433
   42HFIP    O1  493   1.123   2.574   1.171
   42HFIP    C2  494   1.070   2.521   1.052
   42HFIP    C3  495   0.924   2.472   1.070
   42HFIP    F4  496   0.844   2.575   1.110
   42HFIP    F5  497   0.915   2.377   1.166
   42HFIP    F6  498   0.867   2.423   0.957
   42HFIP    C7  499   1.160   2.408   0.995
   42HFIP    F8  500   1.174   2.305   1.083
   42HFIP    F9  501   1.285   2.453   0.969
   42HFIP   F10  502   1.115   2.355   0.877
   42HFIP   H11  503   1.126   2.504   1.243
   42HFIP   H12  504   1.068   2.601   0.978
   43HFIP    O1  505   0.888   2.432   1.784
   43HFIP    C2  506   1.026   2.415   1.777
   43HFIP    C3  507   1.102   2.508   1.876
   43HFIP    F4  508   1.064   2.484   2.005
   43HFIP    F5  509   1.074   2.639   1.853
   43HFIP    F6  510   1.237   2.494   1.875
   43HFIP    C7  511   1.080   2.434   1.633
   43HFIP    F8  512   1.050   2.558   1.584
   43HFIP    F9  513   1.023   2.345   1.547
   43HFIP   F10  514   1.214   2.417   1.619
   43HFIP   H11  515   0.861   2.525   1.759
   43HFIP   H12  516   1.050   2.313   1.806
   44HFIP    O1  517   1.196   2.555   2.508
   44HFIP    C2  518   1.082   2.511   2.439
   44HFIP    C3  519   0.954   2.520   2.527
   44HFIP    F4  520   0.932   2.648   2.568
   44HFIP    F5  521   0.966   2.445   2.641
   44HFIP    F6  522   0.839   2.481   2.465
   44HFIP    C7  523   1.100   2.368   2.382
   44HFIP    F8  524   1.126   2.278   2.481
   44HFIP    F9  525   1.205   2.362   2.297
   44HFIP   F10  526   0.993   2.321   2.313
   44HFIP   H11  527   1.214   2.497   2.588
   44HFIP   H12  528   1.066   2.577   2.354
   45HFIP    O1  529   1.028   2.380   3.019
   45HFIP    C2  530   1.087   2.460   3.117
   45HFIP    C3  531   1.122   2.379   3.245
   45HFIP    F4  532   1.209   2.278   3.216
   45HFIP    F5  533   1.012   2.320   3.299
   45HFIP    F6  534   1.183   2.451   3.344
   45HFIP    C7  535   0.999   2.583   3.154
   45HFIP    F8  536   0.876   2.545   3.199
   45HFIP    F9  537   0.977   2.660   3.044
   45HFIP   F10  538   1.053   2.666   3.247
   45HFIP   H11  539   0.942   2.342   3.051
   45HFIP   H12  540   1.181   2.499   3.078
   46HFIP    O1  541   1.176   3.088   0.448
   46HFIP    C2  542   1.054   3.120   0.387
   46HFIP    C3  543   1.061   3.111   0.232
   46HFIP    F4  544   1.097   2.985   0.193
   46HFIP    F5  545   1.157   3.194   0.182
   46HFIP    F6  546   0.945   3.137   0.167
   46HFIP    C7  547   1.001   3.259   0.431
   46HFIP    F8  548   1.090   3.358   0.401
   46HFIP    F9  549   0.983   3.264   0.566
   46HFIP   F10  550   0.881   3.294   0.377
   46HFIP   H11  551   1.247   3.154   0.420
   46HFIP   H12  552   0.980   3.046   0.419
   47HFIP    O1  553   1.180   3.048   1.064
   47HFIP    C2  554   1.076   3.134   1.100
   47HFIP    C3  555   0.945   3.103   1.022
   47HFIP    F4  556   0.903   2.976   1.046
   47HFIP    F5  557   0.963   3.112   0.888
   47HFIP    F6  558   0.839   3.182   1.055
   47HFIP    C7  559   1.115   3.284   1.083
   47HFIP    F8  560   1.151   3.311   0.955
   47HFIP    F9  561   1.223   3.313   1.161
   47HFIP   F10  562   1.018   3.372   1.120
   47HFIP   H11  563   1.204   3.059   0.968
   47HFIP   H12  564   1.054   3.119   1.206
   48HFIP    O1  565   1.135   3.305   1.690
   48HFIP    C2  566   1.110   3.191   1.768
   48HFIP    C3  567   1.083   3.065   1.680
   48HFIP    F4  568   1.189   3.039   1.599
   48HFIP    F5  569   0.977   3.084   1.597
   48HFIP    F6  570   1.061   2.951   1.750
   48HFIP    C7  571   0.994   3.212   1.869
   48HFIP    F8  572   0.878   3.247   1.805
   48HFIP    F9  573   1.022   3.316   1.953
   48HFIP   F10  574   0.967   3.106   1.949
   48HFIP   H11  575   1.055   3.327   1.634
   48HFIP   H12  576   1.200   3.170   1.826
   49HFIP    O1  577   0.930   3.195   2.579
   49HFIP    C2  578   1.029   3.217   2.482
   49HFIP    C3  579   0.996   3.149   2.347
   49HFIP    F4  580   0.878   3.197   2.297
   49HFIP    F5  581   0.979   3.015   2.361
   49HFIP    F6  582   1.088   3.170   2.248
   49HFIP    C7  583   1.170   3.172   2.532
   49HFIP    F8  584   1.171   3.040   2.565
   49HFIP    F9  585   1.205   3.240   2.645
   49HFIP   F10  586   1.271   3.194   2.444
   49HFIP   H11  587   0.921   3.098   2.599
   49HFIP   H12  588   1.035   3.324   2.464
   50HFIP    O1  589   1.013   3.033   3.067
   50HFIP    C2  590   1.087   3.121   3.147
   50HFIP    C3  591   1.032   3.129   3.293
   50HFIP    F4  592   1.034   3.007   3.352
   50HFIP    F5  593   0.902   3.170   3.294
   50HFIP    F6  594   1.102   3.211   3.376
   50HFIP    C7  595   1.096   3.263   3.085
   50HFIP    F8  596   0.973   3.318   3.066
   50HFIP    F9  597   1.155   3.258   2.962
   50HFIP   F10  598   1.170   3.353   3.157
   50HFIP   H11  599   0.918   3.064   3.059
   50HFIP   H12  600   1.189   3.083   3.154
   51HFIP    O1  601   1.628   0.271   0.429
   51HFIP    C2  602   1.722   0.369   0.394
   51HFIP    C3  603   1.709   0.412   0.245
   51HFIP    F4  604   1.585   0.462   0.220
   51HFIP    F5  605   1.724   0.306   0.161
   51HFIP    F6  606   1.796   0.509   0.206
   51HFIP    C7  607   1.867   0.325   0.426
   51HFIP    F8  608   1.899   0.210   0.360
   51HFIP    F9  609   1.882   0.297   0.558
   51HFIP   F10  610   1.963   0.417   0.396
   51HFIP   H11  611   1.641   0.188   0.374
   51HFIP   H12  612   1.702   0.458   0.454
   52HFIP    O1  613   1.727   0.295   0.896
   52HFIP    C2  614   1.709   0.344   1.026
   52HFIP    C3  615   1.774   0.483   1.045
   52HFIP    F4  616   1.721   0.574   0.959
   52HFIP    F5  617   1.908   0.480   1.020
   52HFIP    F6  618   1.758   0.538   1.169
   52HFIP    C7  619   1.761   0.244   1.134
   52HFIP    F8  620   1.893   0.217   1.117
   52HFIP    F9  621   1.696   0.125   1.124
   52HFIP   F10  622   1.743   0.285   1.262
   52HFIP   H11  623   1.824   0.282   0.876
   52HFIP   H12  624   1.602   0.356   1.043
   53HFIP    O1  625   1.596   0.353   1.816
   53HFIP    C2  626   1.731   0.387   1.798
   53HFIP    C3  627   1.762   0.429   1.651
   53HFIP    F4  628   1.686   0.535   1.614
   53HFIP    F5  629   1.732   0.328   1.564
   53HFIP    F6  630   1.891   0.466   1.629
   53HFIP    C7  631   1.826   0.273   1.844
   53HFIP    F8  632   1.803   0.158   1.776
   53HFIP    F9  633   1.807   0.245   1.975
   53HFIP   F10  634   1.959   0.302   1.831
   53HFIP   H11  635   1.572   0.274   1.760
   53HFIP   H12  636   1.752   0.474   1.860
   54HFIP    O1  637   1.631   0.446   2.397
   54HFIP    C2  638   1.755   0.384   2.414
   54HFIP    C3  639   1.744   0.229   2.416
   54HFIP    F4  640   1.690   0.183   2.300
   54HFIP    F5  641   1.661   0.186   2.515
   54HFIP    F6  642   1.862   0.163   2.430
   54HFIP    C7  643   1.829   0.435   2.541
   54HFIP    F8  644   1.755   0.413   2.654
   54HFIP    F9  645   1.849   0.569   2.535
   54HFIP   F10  646   1.952   0.380   2.561
   54HFIP   H11  647   1.570   0.424   2.474
   54HFIP   H12  648   1.818   0.410   2.329
   55HFIP    O1  649   1.620   0.446   3.207
   55HFIP    C2  650   1.729   0.392   3.137
   55HFIP    C3  651   1.714   0.239   3.115
   55HFIP    F4  652   1.601   0.211   3.045
   55HFIP    F5  653   1.702   0.173   3.233
   55HFIP    F6  654   1.815   0.181   3.045
   55HFIP    C7  655   1.865   0.424   3.206
   55HFIP    F8  656   1.869   0.376   3.333
   55HFIP    F9  657   1.883   0.558   3.215
   55HFIP   F10  658   1.974   0.376   3.141
   55HFIP   H11  659   1.614   0.407   3.299
   55HFIP   H12  660   1.732   0.438   3.038
   56HFIP    O1  661   1.877   1.029   0.228
   56HFIP    C2  662   1.818   1.064   0.350
   56HFIP    C3  663   1.753   0.943   0.422
   56HFIP    F4  664   1.845   0.846   0.446
   56HFIP    F5  665   1.657   0.885   0.344
   56HFIP    F6  666   1.696   0.971   0.542
   56HFIP    C7  667   1.715   1.180   0.334
   56HFIP    F8  668   1.616   1.146   0.247
   56HFIP    F9  669   1.775   1.291   0.282
   56HFIP   F10  670   1.657   1.221   0.450
   56HFIP   H11  671   1.808   0.994   0.165
   56HFIP   H12  672   1.897   1.101   0.416
   57HFIP    O1  673   1.793   0.907   0.974
   57HFIP    C2  674   1.790   1.044   1.007
   57HFIP    C3  675   1.859   1.073   1.143
   57HFIP    F4  676   1.989   1.033   1.141
   57HFIP    F5  677   1.799   1.003   1.243
   57HFIP    F6  678   1.861   1.204   1.179
   57HFIP    C7  679   1.646   1.101   1.005
   57HFIP    F8  680   1.565   1.036   1.092
   57HFIP    F9  681   1.590   1.086   0.882
   57HFIP   F10  682   1.638   1.234   1.032
   57HFIP   H11  683   1.742   0.853   1.041
   57HFIP   H12  684   1.847   1.098   0.931
   58HFIP    O1  685   1.777   1.227   1.739
   58HFIP    C2  686   1.807   1.090   1.748
   58HFIP    C3  687   1.733   1.006   1.640
   58HFIP    F4  688   1.768   1.049   1.516
   58HFIP    F5  689   1.598   1.021   1.649
   58HFIP    F6  690   1.760   0.873   1.643
   58HFIP    C7  691   1.777   1.034   1.890
   58HFIP    F8  692   1.647   1.051   1.924
   58HFIP    F9  693   1.850   1.100   1.984
   58HFIP   F10  694   1.807   0.902   1.906
   58HFIP   H11  695   1.679   1.242   1.753
   58HFIP   H12  696   1.914   1.077   1.731
   59HFIP    O1  697   1.866   1.009   2.335
   59HFIP    C2  698   1.764   1.006   2.432
   59HFIP    C3  699   1.655   1.113   2.405
   59HFIP    F4  700   1.597   1.094   2.284
   59HFIP    F5  701   1.707   1.238   2.404
   59HFIP    F6  702   1.552   1.112   2.495
   59HFIP    C7  703   1.821   1.020   2.576
   59HFIP    F8  704   1.890   1.136   2.591
   59HFIP    F9  705   1.909   0.920   2.604
   59HFIP   F10  706   1.728   1.015   2.675
   59HFIP   H11  707   1.913   1.097   2.336
   59HFIP   H12  708   1.716   0.909   2.427
   60HFIP    O1  709   1.905   1.106   3.247
   60HFIP    C2  710   1.814   1.068   3.148
   60HFIP    C3  711   1.696   1.168   3.134
   60HFIP    F4  712   1.742   1.292   3.103
   60HFIP    F5  713   1.627   1.180   3.250
   60HFIP    F6  714   1.607   1.136   3.036
   60HFIP    C7  715   1.761   0.923   3.169
   60HFIP    F8  716   1.699   0.910   3.290
   60HFIP    F9  717   1.865   0.835   3.170
   60HFIP   F10  718   1.675   0.879   3.073
   60HFIP   H11  719   1.860   1.108   3.337
   60HFIP   H12  720   1.867   1.068   3.052
   61HFIP    O1  721   1.675   1.823   0.488
   61HFIP    C2  722   1.746   1.737   0.405
   61HFIP    C3  723   1.887   1.792   0.370
   61HFIP    F4  724   1.961   1.811   0.483
   61HFIP    F5  725   1.880   1.913   0.309
   61HFIP    F6  726   1.963   1.711   0.291
   61HFIP    C7  727   1.668   1.702   0.275
   61HFIP    F8  728   1.638   1.814   0.204
   61HFIP    F9  729   1.549   1.644   0.305
   61HFIP   F10  730   1.731   1.616   0.191
   61HFIP   H11  731   1.659   1.911   0.444
   61HFIP   H12  732   1.761   1.643   0.458
   62HFIP    O1  733   1.856   1.692   1.183
   62HFIP    C2  734   1.776   1.780   1.109
   62HFIP    C3  735   1.636   1.721   1.080
   62HFIP    F4  736   1.570   1.692   1.196
   62HFIP    F5  737   1.643   1.604   1.010
   62HFIP    F6  738   1.555   1.805   1.010
   62HFIP    C7  739   1.844   1.826   0.977
   62HFIP    F8  740   1.874   1.719   0.898
   62HFIP    F9  741   1.963   1.888   1.003
   62HFIP   F10  742   1.772   1.914   0.903
   62HFIP   H11  743   1.872   1.608   1.131
   62HFIP   H12  744   1.761   1.870   1.169
   63HFIP    O1  745   1.850   1.616   1.729
   63HFIP    C2  746   1.808   1.749   1.727
   63HFIP    C3  747   1.814   1.814   1.869
   63HFIP    F4  748   1.940   1.810   1.919
   63HFIP    F5  749   1.735   1.747   1.957
   63HFIP    F6  750   1.777   1.945   1.872
   63HFIP    C7  751   1.666   1.765   1.665
   63HFIP    F8  752   1.574   1.693   1.733
   63HFIP    F9  753   1.665   1.719   1.537
   63HFIP   F10  754   1.622   1.894   1.659
   63HFIP   H11  755   1.790   1.560   1.786
   63HFIP   H12  756   1.877   1.806   1.664
   64HFIP    O1  757   1.701   1.807   2.620
   64HFIP    C2  758   1.785   1.761   2.517
   64HFIP    C3  759   1.811   1.870   2.410
   64HFIP    F4  760   1.869   1.980   2.466
   64HFIP    F5  761   1.695   1.913   2.353
   64HFIP    F6  762   1.895   1.832   2.310
   64HFIP    C7  763   1.731   1.631   2.451
   64HFIP    F8  764   1.607   1.649   2.398
   64HFIP    F9  765   1.719   1.532   2.544
   64HFIP   F10  766   1.811   1.580   2.353
   64HFIP   H11  767   1.610   1.830   2.583
   64HFIP   H12  768   1.881   1.736   2.562
   65HFIP    O1  769   1.713   1.594   3.180
   65HFIP    C2  770   1.748   1.719   3.127
   65HFIP    C3  771   1.893   1.760   3.166
   65HFIP    F4  772   1.983   1.668   3.121
   65HFIP    F5  773   1.908   1.765   3.301
   65HFIP    F6  774   1.934   1.879   3.115
   65HFIP    C7  775   1.647   1.830   3.167
   65HFIP    F8  776   1.637   1.842   3.302
   65HFIP    F9  777   1.522   1.799   3.123
   65HFIP   F10  778   1.674   1.953   3.116
   65HFIP   H11  779   1.714   1.596   3.280
   65HFIP   H12  780   1.745   1.711   3.018
   66HFIP    O1  781   1.638   2.488   0.472
   66HFIP    C2  782   1.702   2.449   0.354
   66HFIP    C3  783   1.817   2.347   0.380
   66HFIP    F4  784   1.768   2.235   0.440
   66HFIP    F5  785   1.911   2.397   0.464
   66HFIP    F6  786   1.881   2.303   0.268
   66HFIP    C7  787   1.756   2.571   0.274
   66HFIP    F8  788   1.844   2.645   0.348
   66HFIP    F9  789   1.654   2.656   0.241
   66HFIP   F10  790   1.817   2.540   0.156
   66HFIP   H11  791   1.702   2.534   0.534
   66HFIP   H12  792   1.629   2.399   0.290
   67HFIP    O1  793   1.604   2.499   1.123
   67HFIP    C2  794   1.742   2.502   1.098
   67HFIP    C3  795   1.774   2.545   0.952
   67HFIP    F4  796   1.724   2.669   0.926
   67HFIP    F5  797   1.717   2.462   0.861
   67HFIP    F6  798   1.907   2.552   0.923
   67HFIP    C7  799   1.810   2.366   1.130
   67HFIP    F8  800   1.756   2.264   1.058
   67HFIP    F9  801   1.791   2.334   1.261
   67HFIP   F10  802   1.945   2.364   1.111
   67HFIP   H11  803   1.559   2.432   1.064
   67HFIP   H12  804   1.787   2.576   1.163
   68HFIP    O1  805   1.679   2.418   1.614
   68HFIP    C2  806   1.720   2.421   1.748
   68HFIP    C3  807   1.682   2.555   1.818
   68HFIP    F4  808   1.547   2.573   1.814
   68HFIP    F5  809   1.737   2.662   1.755
   68HFIP    F6  810   1.717   2.562   1.949
   68HFIP    C7  811   1.873   2.393   1.763
   68HFIP    F8  812   1.947   2.484   1.694
   68HFIP    F9  813   1.904   2.271   1.712
   68HFIP   F10  814   1.918   2.392   1.892
   68HFIP   H11  815   1.725   2.489   1.561
   68HFIP   H12  816   1.668   2.341   1.801
   69HFIP    O1  817   1.825   2.558   2.334
   69HFIP    C2  818   1.813   2.465   2.438
   69HFIP    C3  819   1.706   2.356   2.407
   69HFIP    F4  820   1.737   2.289   2.293
   69HFIP    F5  821   1.583   2.411   2.387
   69HFIP    F6  822   1.692   2.261   2.504
   69HFIP    C7  823   1.785   2.532   2.575
   69HFIP    F8  824   1.670   2.606   2.571
   69HFIP    F9  825   1.884   2.620   2.606
   69HFIP   F10  826   1.776   2.447   2.680
   69HFIP   H11  827   1.739   2.607   2.321
   69HFIP   H12  828   1.908   2.413   2.447
   70HFIP    O1  829   1.607   2.421   3.099
   70HFIP    C2  830   1.745   2.429   3.122
   70HFIP    C3  831   1.785   2.373   3.262
   70HFIP    F4  832   1.747   2.243   3.274
   70HFIP    F5  833   1.721   2.440   3.362
   70HFIP    F6  834   1.918   2.376   3.289
   70HFIP    C7  835   1.799   2.574   3.104
   70HFIP    F8  836   1.737   2.661   3.188
   70HFIP    F9  837   1.775   2.619   2.978
   70HFIP   F10  838   1.933   2.587   3.123
   70HFIP   H11  839   1.557   2.476   3.165
   70HFIP   H12  840   1.795   2.367   3.048
   71HFIP    O1  841   1.646   3.297   0.372
   71HFIP    C2  842   1.702   3.171   0.342
   71HFIP    C3  843   1.761   3.102   0.467
   71HFIP    F4  844   1.666   3.084   0.562
   71HFIP    F5  845   1.858   3.178   0.525
   71HFIP    F6  846   1.814   2.978   0.444
   71HFIP    C7  847   1.808   3.180   0.228
   71HFIP    F8  848   1.910   3.264   0.262
   71HFIP    F9  849   1.753   3.231   0.115
   71HFIP   F10  850   1.863   3.061   0.193
   71HFIP   H11  851   1.717   3.359   0.406
   71HFIP   H12  852   1.622   3.107   0.305
   72HFIP    O1  853   1.720   3.311   0.968
   72HFIP    C2  854   1.727   3.215   1.070
   72HFIP    C3  855   1.873   3.195   1.120
   72HFIP    F4  856   1.924   3.312   1.167
   72HFIP    F5  857   1.955   3.155   1.020
   72HFIP    F6  858   1.886   3.105   1.222
   72HFIP    C7  859   1.664   3.079   1.027
   72HFIP    F8  860   1.726   3.028   0.917
   72HFIP    F9  861   1.533   3.096   0.994
   72HFIP   F10  862   1.666   2.984   1.124
   72HFIP   H11  863   1.772   3.281   0.887
   72HFIP   H12  864   1.669   3.252   1.154
   73HFIP    O1  865   1.635   3.085   1.673
   73HFIP    C2  866   1.701   3.170   1.763
   73HFIP    C3  867   1.787   3.277   1.689
   73HFIP    F4  868   1.710   3.353   1.607
   73HFIP    F5  869   1.881   3.219   1.610
   73HFIP    F6  870   1.851   3.365   1.771
   73HFIP    C7  871   1.787   3.092   1.866
   73HFIP    F8  872   1.881   3.015   1.805
   73HFIP    F9  873   1.709   3.007   1.938
   73HFIP   F10  874   1.850   3.170   1.957
   73HFIP   H11  875   1.701   3.032   1.620
   73HFIP   H12  876   1.625   3.225   1.819
   74HFIP    O1  877   1.843   3.215   2.320
   74HFIP    C2  878   1.794   3.138   2.426
   74HFIP    C3  879   1.639   3.129   2.425
   74HFIP    F4  880   1.595   3.075   2.308
   74HFIP    F5  881   1.582   3.253   2.433
   74HFIP    F6  882   1.585   3.053   2.523
   74HFIP    C7  883   1.845   3.188   2.564
   74HFIP    F8  884   1.809   3.317   2.586
   74HFIP    F9  885   1.981   3.184   2.569
   74HFIP   F10  886   1.802   3.115   2.670
   74HFIP   H11  887   1.812   3.310   2.328
   74HFIP   H12  888   1.832   3.036   2.413
   75HFIP    O1  889   1.875   3.045   3.128
   75HFIP    C2  890   1.786   3.153   3.117
   75HFIP    C3  891   1.831   3.274   3.203
   75HFIP    F4  892   1.955   3.317   3.166
   75HFIP    F5  893   1.841   3.240   3.335
   75HFIP    F6  894   1.750   3.383   3.195
   75HFIP    C7  895   1.640   3.113   3.150
   75HFIP    F8  896   1.630   3.062   3.277
   75HFIP    F9  897   1.596   3.014   3.067
   75HFIP   F10  898   1.549   3.213   3.139
   75HFIP   H11  899   1.878   3.011   3.222
   75HFIP   H12  900   1.787   3.187   3.013
   76HFIP    O1  901   2.584   0.475   0.368
   76HFIP    C2  902   2.504   0.363   0.394
   76HFIP    C3  903   2.522   0.252   0.286
   76HFIP    F4  904   2.652   0.211   0.281
   76HFIP    F5  905   2.492   0.298   0.162
   76HFIP    F6  906   2.449   0.140   0.308
   76HFIP    C7  907   2.354   0.400   0.409
   76HFIP    F8  908   2.306   0.461   0.296
   76HFIP    F9  909   2.336   0.489   0.510
   76HFIP   F10  910   2.272   0.295   0.437
   76HFIP   H11  911   2.558   0.518   0.282
   76HFIP   H12  912   2.535   0.320   0.489
   77HFIP    O1  913   2.500   0.198   1.126
   77HFIP    C2  914   2.511   0.316   1.051
   77HFIP    C3  915   2.510   0.443   1.141
   77HFIP    F4  916   2.614   0.440   1.229
   77HFIP    F5  917   2.397   0.450   1.216
   77HFIP    F6  918   2.523   0.560   1.074
   77HFIP    C7  919   2.400   0.326   0.942
   77HFIP    F8  920   2.275   0.321   0.997
   77HFIP    F9  921   2.407   0.221   0.857
   77HFIP   F10  922   2.407   0.437   0.864
   77HFIP   H11  923   2.414   0.196   1.177
   77HFIP   H12  924   2.606   0.315   0.999
   78HFIP    O1  925   2.541   0.440   1.632
   78HFIP    C2  926   2.450   0.360   1.703
   78HFIP    C3  927   2.381   0.438   1.818
   78HFIP    F4  928   2.313   0.546   1.769
   78HFIP    F5  929   2.472   0.487   1.907
   78HFIP    F6  930   2.289   0.366   1.888
   78HFIP    C7  931   2.515   0.230   1.757
   78HFIP    F8  932   2.620   0.257   1.839
   78HFIP    F9  933   2.566   0.156   1.654
   78HFIP   F10  934   2.431   0.147   1.824
   78HFIP   H11  935   2.615   0.470   1.692
   78HFIP   H12  936   2.371   0.329   1.634
   79HFIP    O1  937   2.548   0.415   2.601
   79HFIP    C2  938   2.514   0.384   2.469
   79HFIP    C3  939   2.377   0.446   2.428
   79HFIP    F4  940   2.381   0.582   2.439
   79HFIP    F5  941   2.277   0.405   2.509
   79HFIP    F6  942   2.340   0.422   2.299
   79HFIP    C7  943   2.513   0.230   2.443
   79HFIP    F8  944   2.426   0.166   2.526
   79HFIP    F9  945   2.636   0.177   2.468
   79HFIP   F10  946   2.483   0.194   2.315
   79HFIP   H11  947   2.481   0.377   2.665
   79HFIP   H12  948   2.589   0.426   2.403
   80HFIP    O1  949   2.351   0.348   3.036
   80HFIP    C2  950   2.454   0.389   3.122
   80HFIP    C3  951   2.572   0.288   3.125
   80HFIP    F4  952   2.624   0.272   3.000
   80HFIP    F5  953   2.530   0.164   3.164
   80HFIP    F6  954   2.676   0.324   3.204
   80HFIP    C7  955   2.402   0.416   3.267
   80HFIP    F8  956   2.344   0.306   3.320
   80HFIP    F9  957   2.307   0.513   3.266
   80HFIP   F10  958   2.498   0.459   3.353
   80HFIP   H11  959   2.310   0.262   3.068
   80HFIP   H12  960   2.494   0.483   3.085
   81HFIP    O1  961   2.481   1.007   0.517
   81HFIP    C2  962   2.503   1.020   0.379
   81HFIP    C3  963   2.535   1.167   0.339
   81HFIP    F4  964   2.647   1.211   0.403
   81HFIP    F5  965   2.435   1.252   0.375
   81HFIP    F6  966   2.560   1.186   0.206
   81HFIP    C7  967   2.383   0.967   0.295
   81HFIP    F8  968   2.267   1.031   0.327
   81HFIP    F9  969   2.362   0.835   0.322
   81HFIP   F10  970   2.399   0.975   0.161
   81HFIP   H11  971   2.402   1.060   0.545
   81HFIP   H12  972   2.590   0.960   0.352
   82HFIP    O1  973   2.303   1.115   1.079
   82HFIP    C2  974   2.422   1.074   1.018
   82HFIP    C3  975   2.453   0.924   1.044
   82HFIP    F4  976   2.353   0.845   0.996
   82HFIP    F5  977   2.463   0.897   1.177
   82HFIP    F6  978   2.567   0.879   0.984
   82HFIP    C7  979   2.543   1.163   1.061
   82HFIP    F8  980   2.561   1.160   1.195
   82HFIP    F9  981   2.520   1.293   1.028
   82HFIP   F10  982   2.661   1.130   1.002
   82HFIP   H11  983   2.309   1.105   1.178
   82HFIP   H12  984   2.410   1.086   0.910
   83HFIP    O1  985   2.436   0.939   1.884
   83HFIP    C2  986   2.429   1.008   1.762
   83HFIP    C3  987   2.565   1.010   1.688
   83HFIP    F4  988   2.609   0.883   1.663
   83HFIP    F5  989   2.661   1.068   1.765
   83HFIP    F6  990   2.564   1.073   1.568
   83HFIP    C7  991   2.374   1.152   1.780
   83HFIP    F8  992   2.452   1.226   1.865
   83HFIP    F9  993   2.250   1.150   1.834
   83HFIP   F10  994   2.362   1.223   1.664
   83HFIP   H11  995   2.500   0.984   1.947
   83HFIP   H12  996   2.359   0.955   1.698
   84HFIP    O1  997   2.584   1.169   2.414
   84HFIP    C2  998   2.465   1.115   2.465
   84HFIP    C3  999   2.490   1.028   2.591
   84HFIP    F4 1000   2.549   1.102   2.689
   84HFIP    F5 1001   2.576   0.926   2.565
   84HFIP    F6 1002   2.377   0.975   2.646
   84HFIP    C7 1003   2.387   1.034   2.357
   84HFIP    F8 1004   2.463   0.932   2.307
   84HFIP    F9 1005   2.356   1.113   2.251
   84HFIP   F10 1006   2.269   0.981   2.399
   84HFIP   H11 1007   2.646   1.097   2.385
   84HFIP   H12 1008   2.401   1.197   2.495
   85HFIP    O1 1009   2.490   1.081   2.999
   85HFIP    C2 1010   2.427   1.055   3.121
   85HFIP    C3 1011   2.436   1.176   3.219
   85HFIP    F4 1012   2.377   1.285   3.164
   85HFIP    F5 1013   2.565   1.209   3.244
   85HFIP    F6 1014   2.374   1.156   3.338
   85HFIP    C7 1015   2.482   0.926   3.188
   85HFIP    F8 1016   2.616   0.935   3.211
   85HFIP    F9 1017   2.465   0.818   3.108
   85HFIP   F10 1018   2.422   0.893   3.306
   85HFIP   H11 1019   2.588   1.099   3.012
   85HFIP   H12 1020   2.321   1.038   3.101
   86HFIP    O1 1021   2.344   1.840   0.447
   86HFIP    C2 1022   2.452   1.760   0.410
   86HFIP    C3 1023   2.568   1.842   0.347
   86HFIP    F4 1024   2.613   1.936   0.435
   86HFIP    F5 1025   2.526   1.911   0.237
   86HFIP    F6 1026   2.677   1.770   0.312
   86HFIP    C7 1027   2.409   1.644   0.315
   86HFIP    F8 1028   2.351   1.692   0.202
   86HFIP    F9 1029   2.317   1.565   0.375
   86HFIP   F10 1030   2.511   1.561   0.278
   86HFIP   H11 1031   2.304   1.885   0.368
   86HFIP   H12 1032   2.492   1.713   0.500
   87HFIP    O1 1033   2.514   1.634   1.164
   87HFIP    C2 1034   2.482   1.704   1.047
   87HFIP    C3 1035   2.573   1.828   1.025
   87HFIP    F4 1036   2.703   1.790   1.018
   87HFIP    F5 1037   2.565   1.915   1.130
   87HFIP    F6 1038   2.549   1.898   0.911
   87HFIP    C7 1039   2.332   1.746   1.043
   87HFIP    F8 1040   2.299   1.825   1.149
   87HFIP    F9 1041   2.252   1.637   1.050
   87HFIP   F10 1042   2.294   1.811   0.929
   87HFIP   H11 1043   2.500   1.692   1.244
   87HFIP   H12 1044   2.498   1.638   0.962
   88HFIP    O1 1045   2.418   1.599   1.715
   88HFIP    C2 1046   2.458   1.734   1.707
   88HFIP    C3 1047   2.596   1.757   1.775
   88HFIP    F4 1048   2.691   1.680   1.715
   88HFIP    F5 1049   2.594   1.722   1.906
   88HFIP    F6 1050   2.641   1.886   1.767
   88HFIP    C7 1051   2.351   1.830   1.766
   88HFIP    F8 1052   2.324   1.801   1.897
   88HFIP    F9 1053   2.233   1.817   1.699
   88HFIP   F10 1054   2.383   1.962   1.758
   88HFIP   H11 1055   2.406   1.571   1.810
   88HFIP   H12 1056   2.469   1.759   1.602
   89HFIP    O1 1057   2.415   1.920   2.508
   89HFIP    C2 1058   2.424   1.797   2.440
   89HFIP    C3 1059   2.384   1.678   2.531
   89HFIP    F4 1060   2.257   1.692   2.576
   89HFIP    F5 1061   2.463   1.671   2.642
   89HFIP    F6 1062   2.388   1.556   2.470
   89HFIP    C7 1063   2.565   1.775   2.379
   89HFIP    F8 1064   2.662   1.778   2.474
   89HFIP    F9 1065   2.596   1.874   2.290
   89HFIP   F10 1066   2.579   1.658   2.310
   89HFIP   H11 1067   2.478   1.923   2.585
   89HFIP   H12 1068   2.353   1.799   2.357
   90HFIP    O1 1069   2.484   1.869   3.034
   90HFIP    C2 1070   2.436   1.764   3.115
   90HFIP    C3 1071   2.374   1.817   3.248
   90HFIP    F4 1072   2.271   1.901   3.224
   90HFIP    F5 1073   2.465   1.888   3.320
   90HFIP    F6 1074   2.324   1.720   3.329
   90HFIP    C7 1075   2.546   1.658   3.144
   90HFIP    F8 1076   2.653   1.713   3.206
   90HFIP    F9 1077   2.592   1.604   3.028
   90HFIP   F10 1078   2.505   1.553   3.220
   90HFIP   H11 1079   2.557   1.918   3.081
   90HFIP   H12 1080   2.356   1.714   3.061
   91HFIP    O1 1081   2.367   2.552   0.465
   91HFIP    C2 1082   2.434   2.447   0.401
   91HFIP    C3 1083   2.588   2.468   0.399
   91HFIP    F4 1084   2.636   2.477   0.526
   91HFIP    F5 1085   2.622   2.584   0.337
   91HFIP    F6 1086   2.658   2.367   0.340
   91HFIP    C7 1087   2.381   2.423   0.256
   91HFIP    F8 1088   2.393   2.535   0.179
   91HFIP    F9 1089   2.248   2.394   0.258
   91HFIP   F10 1090   2.440   2.321   0.190
   91HFIP   H11 1091   2.382   2.639   0.417
   91HFIP   H12 1092   2.415   2.356   0.457
   92HFIP    O1 1093   2.432   2.559   1.197
   92HFIP    C2 1094   2.488   2.464   1.110
   92HFIP    C3 1095   2.555   2.531   0.986
   92HFIP    F4 1096   2.654   2.616   1.025
   92HFIP    F5 1097   2.466   2.606   0.916
   92HFIP    F6 1098   2.614   2.444   0.900
   92HFIP    C7 1099   2.384   2.357   1.065
   92HFIP    F8 1100   2.278   2.415   1.002
   92HFIP    F9 1101   2.334   2.291   1.172
   92HFIP   F10 1102   2.434   2.261   0.983
   92HFIP   H11 1103   2.359   2.610   1.152
   92HFIP   H12 1104   2.566   2.411   1.164
   93HFIP    O1 1105   2.550   2.474   1.909
   93HFIP    C2 1106   2.505   2.429   1.785
   93HFIP    C3 1107   2.537   2.530   1.671
   93HFIP    F4 1108   2.671   2.551   1.662
   93HFIP    F5 1109   2.481   2.651   1.695
   93HFIP    F6 1110   2.498   2.490   1.547
   93HFIP    C7 1111   2.353   2.395   1.786
   93HFIP    F8 1112   2.278   2.503   1.821
   93HFIP    F9 1113   2.326   2.298   1.878
   93HFIP   F10 1114   2.304   2.348   1.668
   93HFIP   H11 1115   2.503   2.559   1.935
   93HFIP   H12 1116   2.557   2.336   1.761
   94HFIP    O1 1117   2.469   2.519   2.300
   94HFIP    C2 1118   2.421   2.476   2.424
   94HFIP    C3 1119   2.462   2.573   2.539
   94HFIP    F4 1120   2.413   2.698   2.516
   94HFIP    F5 1121   2.597   2.586   2.548
   94HFIP    F6 1122   2.415   2.538   2.662
   94HFIP    C7 1123   2.466   2.331   2.458
   94HFIP    F8 1124   2.601   2.319   2.458
   94HFIP    F9 1125   2.421   2.244   2.363
   94HFIP   F10 1126   2.420   2.283   2.576
   94HFIP   H11 1127   2.569   2.520   2.299
   94HFIP   H12 1128   2.312   2.476   2.421
   95HFIP    O1 1129   2.453   2.336   3.284
   95HFIP    C2 1130   2.492   2.412   3.173
   95HFIP    C3 1131   2.555   2.548   3.214
   95HFIP    F4 1132   2.664   2.529   3.293
   95HFIP    F5 1133   2.468   2.623   3.287
   95HFIP    F6 1134   2.598   2.625   3.110
   95HFIP    C7 1135   2.376   2.434   3.073
   95HFIP    F8 1136   2.270   2.497   3.131
   95HFIP    F9 1137   2.328   2.314   3.027
   95HFIP   F10 1138   2.409   2.505   2.961
   95HFIP   H11 1139   2.381   2.384   3.336
   95HFIP   H12 1140   2.570   2.357   3.120
   96HFIP    O1 1141   2.442   3.069   0.492
   96HFIP    C2 1142   2.469   3.109   0.361
   96HFIP    C3 1143   2.591   3.206   0.353
   96HFIP    F4 1144   2.702   3.146   0.403
   96HFIP    F5 1145   2.572   3.318   0.428
   96HFIP    F6 1146   2.624   3.245   0.227
   96HFIP    C7 1147   2.345   3.173   0.292
   96HFIP    F8 1148   2.300   3.282   0.361
   96HFIP    F9 1149   2.241   3.085   0.290
   96HFIP   F10 1150   2.364   3.211   0.163
   96HFIP   H11 1151   2.419   3.148   0.549
   96HFIP   H12 1152   2.495   3.021   0.303
   97HFIP    O1 1153   2.564   3.155   0.916
   97HFIP    C2 1154   2.470   3.202   1.008
   97HFIP    C3 1155   2.535   3.235   1.146
   97HFIP    F4 1156   2.632   3.329   1.133
   97HFIP    F5 1157   2.595   3.125   1.200
   97HFIP    F6 1158   2.448   3.284   1.238
   97HFIP    C7 1159   2.351   3.104   1.025
   97HFIP    F8 1160   2.393   2.981   1.067
   97HFIP    F9 1161   2.288   3.085   0.906
   97HFIP   F10 1162   2.255   3.146   1.112
   97HFIP   H11 1163   2.605   3.069   0.947
   97HFIP   H12 1164   2.430   3.296   0.970
   98HFIP    O1 1165   2.523   3.010   1.721
   98HFIP    C2 1166   2.436   3.118   1.744
   98HFIP    C3 1167   2.462   3.235   1.646
   98HFIP    F4 1168   2.445   3.194   1.517
   98HFIP    F5 1169   2.590   3.281   1.654
   98HFIP    F6 1170   2.378   3.342   1.661
   98HFIP    C7 1171   2.443   3.168   1.891
   98HFIP    F8 1172   2.568   3.207   1.925
   98HFIP    F9 1173   2.410   3.067   1.977
   98HFIP   F10 1174   2.358   3.270   1.920
   98HFIP   H11 1175   2.618   3.038   1.736
   98HFIP   H12 1176   2.335   3.083   1.727
   99HFIP    O1 1177   2.567   3.063   2.554
   99HFIP    C2 1178   2.519   3.148   2.454
   99HFIP    C3 1179   2.487   3.290   2.509
   99HFIP    F4 1180   2.598   3.347   2.563
   99HFIP    F5 1181   2.395   3.286   2.609
   99HFIP    F6 1182   2.443   3.379   2.415
   99HFIP    C7 1183   2.395   3.089   2.381
   99HFIP    F8 1184   2.294   3.064   2.468
   99HFIP    F9 1185   2.426   2.970   2.323
   99HFIP   F10 1186   2.346   3.166   2.281
   99HFIP   H11 1187   2.498   3.049   2.625
   99HFIP   H12 1188   2.597   3.160   2.379
  100HFIP    O1 1189   2.343   3.284   3.210
  100HFIP    C2 1190   2.406   3.171   3.156
  100HFIP    C3 1191   2.465   3.078   3.266
  100HFIP    F4 1192   2.367   3.035   3.350
  100HFIP    F5 1193   2.556   3.144   3.343
  100HFIP    F6 1194   2.525   2.965   3.219
  100HFIP    C7 1195   2.515   3.209   3.052
  100HFIP    F8 1196   2.611   3.288   3.108
  100HFIP    F9 1197   2.461   3.281   2.950
  100HFIP   F10 1198   2.577   3.103   2.993
  100HFIP   H11 1199   2.409   3.340   3.261
  100HFIP   H12 1200   2.330   3.113   3.103
  101HFIP    O1 1201   3.121   0.518   0.358
  101HFIP    C2 1202   3.185   0.399   0.322
  101HFIP    C3 1203   3.086   0.294   0.264
  101HFIP    F4 1204   3.023   0.343   0.154
  101HFIP    F5 1205   2.989   0.263   0.354
  101HFIP    F6 1206   3.145   0.178   0.224
  101HFIP    C7 1207   3.267   0.339   0.439
  101HFIP    F8 1208   3.188   0.312   0.546
  101HFIP    F9 1209   3.361   0.427   0.482
  101HFIP   F10 1210   3.336   0.225   0.408
  101HFIP   H11 1211   3.054   0.501   0.431
  101HFIP   H12 1212   3.256   0.423   0.242
  102HFIP    O1 1213   3.133   0.322   0.889
  102HFIP    C2 1214   3.167   0.302   1.024
  102HFIP    C3 1215   3.051   0.342   1.120
  102HFIP    F4 1216   2.940   0.269   1.093
  102HFIP    F5 1217   3.016   0.472   1.104
  102HFIP    F6 1218   3.078   0.322   1.252
  102HFIP    C7 1219   3.298   0.377   1.063
  102HFIP    F8 1220   3.288   0.511   1.041
  102HFIP    F9 1221   3.402   0.333   0.986
  102HFIP   F10 1222   3.337   0.359   1.192
  102HFIP   H11 1223   3.116   0.419   0.871
  102HFIP   H12 1224   3.185   0.196   1.039
  103HFIP    O1 1225   3.143   0.499   1.848
  103HFIP    C2 1226   3.129   0.396   1.753
  103HFIP    C3 1227   3.091   0.260   1.819
  103HFIP    F4 1228   2.975   0.271   1.888
  103HFIP    F5 1229   3.185   0.221   1.910
  103HFIP    F6 1230   3.073   0.158   1.731
  103HFIP    C7 1231   3.255   0.381   1.664
  103HFIP    F8 1232   3.365   0.354   1.739
  103HFIP    F9 1233   3.282   0.497   1.598
  103HFIP   F10 1234   3.246   0.285   1.568
  103HFIP   H11 1235   3.218   0.478   1.911
  103HFIP   H12 1236   3.047   0.423   1.687
  104HFIP    O1 1237   3.160   0.510   2.394
  104HFIP    C2 1238   3.133   0.399   2.475
  104HFIP    C3 1239   3.255   0.360   2.564
  104HFIP    F4 1240   3.290   0.464   2.645
  104HFIP    F5 1241   3.364   0.333   2.488
  104HFIP    F6 1242   3.234   0.254   2.646
  104HFIP    C7 1243   3.085   0.276   2.392
  104HFIP    F8 1244   3.177   0.241   2.299
  104HFIP    F9 1245   2.972   0.307   2.323
  104HFIP   F10 1246   3.055   0.166   2.466
  104HFIP   H11 1247   3.235   0.490   2.331
  104HFIP   H12 1248   3.052   0.425   2.543
  105HFIP    O1 1249   3.230   0.317   3.010
  105HFIP    C2 1250   3.143   0.327   3.120
  105HFIP    C3 1251   3.117   0.475   3.161
  105HFIP    F4 1252   3.063   0.545   3.057
  105HFIP    F5 1253   3.233   0.539   3.193
  105HFIP    F6 1254   3.031   0.491   3.265
  105HFIP    C7 1255   3.193   0.245   3.242
  105HFIP    F8 1256   3.317   0.285   3.282
  105HFIP    F9 1257   3.206   0.114   3.209
  105HFIP   F10 1258   3.111   0.248   3.350
  105HFIP   H11 1259   3.320   0.355   3.032
  105HFIP   H12 1260   3.047   0.285   3.090
  106HFIP    O1 1261   3.146   1.189   0.244
  106HFIP    C2 1262   3.196   1.108   0.346
  106HFIP    C3 1263   3.252   0.973   0.291
  106HFIP    F4 1264   3.352   0.996   0.202
  106HFIP    F5 1265   3.156   0.904   0.224
  106HFIP    F6 1266   3.305   0.890   0.385
  106HFIP    C7 1267   3.091   1.081   0.458
  106HFIP    F8 1268   2.979   1.022   0.408
  106HFIP    F9 1269   3.051   1.198   0.514
  106HFIP   F10 1270   3.136   1.004   0.560
  106HFIP   H11 1271   3.068   1.146   0.199
  106HFIP   H12 1272   3.280   1.160   0.393
  107HFIP    O1 1273   3.089   1.021   1.206
  107HFIP    C2 1274   3.181   1.019   1.100
  107HFIP    C3 1275   3.251   1.156   1.081
  107HFIP    F4 1276   3.318   1.193   1.194
  107HFIP    F5 1277   3.161   1.255   1.056
  107HFIP    F6 1278   3.344   1.159   0.981
  107HFIP    C7 1279   3.116   0.972   0.967
  107HFIP    F8 1280   3.012   1.052   0.931
  107HFIP    F9 1281   3.064   0.846   0.981
  107HFIP   F10 1282   3.202   0.964   0.862
  107HFIP   H11 1283   3.016   1.087   1.187
  107HFIP   H12 1284   3.259   0.947   1.125
  108HFIP    O1 1285   3.174   1.107   1.925
  108HFIP    C2 1286   3.152   1.029   1.810
  108HFIP    C3 1287   3.284   0.996   1.735
  108HFIP    F4 1288   3.369   0.927   1.816
  108HFIP    F5 1289   3.350   1.109   1.697
  108HFIP    F6 1290   3.268   0.918   1.624
  108HFIP    C7 1291   3.050   1.096   1.714
  108HFIP    F8 1292   3.092   1.219   1.674
  108HFIP    F9 1293   2.932   1.116   1.778
  108HFIP   F10 1294   3.021   1.024   1.602
  108HFIP   H11 1295   3.216   1.195   1.901
  108HFIP   H12 1296   3.109   0.934   1.842
  109HFIP    O1 1297   3.066   1.103   2.596
  109HFIP    C2 1298   3.174   1.051   2.522
  109HFIP    C3 1299   3.246   1.160   2.438
  109HFIP    F4 1300   3.294   1.259   2.519
  109HFIP    F5 1301   3.161   1.220   2.351
  109HFIP    F6 1302   3.353   1.116   2.368
  109HFIP    C7 1303   3.131   0.932   2.432
  109HFIP    F8 1304   3.034   0.969   2.344
  109HFIP    F9 1305   3.078   0.832   2.507
  109HFIP   F10 1306   3.232   0.875   2.361
  109HFIP   H11 1307   2.997   1.141   2.534
  109HFIP   H12 1308   3.247   1.012   2.593
  110HFIP    O1 1309   3.065   0.919   3.145
  110HFIP    C2 1310   3.175   0.998   3.178
  110HFIP    C3 1311   3.142   1.101   3.290
  110HFIP    F4 1312   3.100   1.038   3.403
  110HFIP    F5 1313   3.040   1.184   3.253
  110HFIP    F6 1314   3.246   1.179   3.328
  110HFIP    C7 1315   3.236   1.070   3.054
  110HFIP    F8 1316   3.144   1.150   2.993
  110HFIP    F9 1317   3.275   0.979   2.961
  110HFIP   F10 1318   3.345   1.146   3.080
  110HFIP   H11 1319   2.991   0.975   3.107
  110HFIP   H12 1320   3.253   0.933   3.218
  111HFIP    O1 1321   3.165   1.724   0.183
  111HFIP    C2 1322   3.124   1.744   0.315
  111HFIP    C3 1323   3.147   1.891   0.362
  111HFIP    F4 1324   3.079   1.978   0.283
  111HFIP    F5 1325   3.279   1.926   0.353
  111HFIP    F6 1326   3.106   1.917   0.490
  111HFIP    C7 1327   3.191   1.644   0.413
  111HFIP    F8 1328   3.327   1.654   0.409
  111HFIP    F9 1329   3.161   1.516   0.379
  111HFIP   F10 1330   3.153   1.657   0.543
  111HFIP   H11 1331   3.263   1.740   0.174
  111HFIP   H12 1332   3.016   1.726   0.320
  112HFIP    O1 1333   3.260   1.907   1.058
  112HFIP    C2 1334   3.209   1.780   1.093
  112HFIP    C3 1335   3.238   1.674   0.984
  112HFIP    F4 1336   3.372   1.661   0.963
  112HFIP    F5 1337   3.185   1.710   0.864
  112HFIP    F6 1338   3.193   1.549   1.013
  112HFIP    C7 1339   3.057   1.785   1.126
  112HFIP    F8 1340   2.987   1.832   1.020
  112HFIP    F9 1341   3.033   1.870   1.229
  112HFIP   F10 1342   3.003   1.666   1.163
  112HFIP   H11 1343   3.216   1.939   0.975
  112HFIP   H12 1344   3.260   1.747   1.184
  113HFIP    O1 1345   3.094   1.670   1.888
  113HFIP    C2 1346   3.145   1.776   1.812
  113HFIP    C3 1347   3.070   1.793   1.677
  113HFIP    F4 1348   2.938   1.817   1.698
  113HFIP    F5 1349   3.077   1.680   1.602
  113HFIP    F6 1350   3.113   1.897   1.600
  113HFIP    C7 1351   3.298   1.763   1.788
  113HFIP    F8 1352   3.328   1.647   1.724
  113HFIP    F9 1353   3.365   1.760   1.906
  113HFIP   F10 1354   3.353   1.865   1.716
  113HFIP   H11 1355   3.106   1.583   1.839
  113HFIP   H12 1356   3.129   1.868   1.869
  114HFIP    O1 1357   3.163   1.925   2.515
  114HFIP    C2 1358   3.210   1.799   2.474
  114HFIP    C3 1359   3.163   1.762   2.331
  114HFIP    F4 1360   3.206   1.855   2.241
  114HFIP    F5 1361   3.027   1.761   2.322
  114HFIP    F6 1362   3.209   1.643   2.285
  114HFIP    C7 1363   3.172   1.687   2.575
  114HFIP    F8 1364   3.037   1.679   2.591
  114HFIP    F9 1365   3.223   1.714   2.698
  114HFIP   F10 1366   3.218   1.564   2.542
  114HFIP   H11 1367   3.063   1.925   2.518
  114HFIP   H12 1368   3.319   1.803   2.471
  115HFIP    O1 1369   3.128   1.750   3.335
  115HFIP    C2 1370   3.153   1.801   3.207
  115HFIP    C3 1371   3.053   1.745   3.102
  115HFIP    F4 1372   2.925   1.777   3.135
  115HFIP    F5 1373   3.058   1.609   3.095
  115HFIP    F6 1374   3.071   1.793   2.976
  115HFIP    C7 1375   3.299   1.777   3.162
  115HFIP    F8 1376   3.330   1.644   3.162
  115HFIP    F9 1377   3.387   1.835   3.248
  115HFIP   F10 1378   3.331   1.827   3.040
  115HFIP   H11 1379   3.139   1.651   3.338
  115HFIP   H12 1380   3.138   1.909   3.210
  116HFIP    O1 1381   3.088   2.507   0.205
  116HFIP    C2 1382   3.132   2.509   0.338
  116HFIP    C3 1383   3.287   2.523   0.348
  116HFIP    F4 1384   3.328   2.638   0.288
  116HFIP    F5 1385   3.350   2.421   0.284
  116HFIP    F6 1386   3.335   2.529   0.475
  116HFIP    C7 1387   3.083   2.385   0.417
  116HFIP    F8 1388   3.127   2.269   0.361
  116HFIP    F9 1389   2.948   2.378   0.419
  116HFIP   F10 1390   3.121   2.383   0.548
  116HFIP   H11 1391   3.125   2.428   0.156
  116HFIP   H12 1392   3.089   2.596   0.386
  117HFIP    O1 1393   3.114   2.301   1.032
  117HFIP    C2 1394   3.120   2.441   1.029
  117HFIP    C3 1395   3.245   2.493   0.952
  117HFIP    F4 1396   3.244   2.447   0.823
  117HFIP    F5 1397   3.361   2.447   1.007
  117HFIP    F6 1398   3.255   2.628   0.943
  117HFIP    C7 1399   3.115   2.503   1.171
  117HFIP    F8 1400   3.217   2.458   1.249
  117HFIP    F9 1401   3.000   2.468   1.235
  117HFIP   F10 1402   3.118   2.639   1.174
  117HFIP   H11 1403   3.193   2.263   1.081
  117HFIP   H12 1404   3.033   2.477   0.975
  118HFIP    O1 1405   3.141   2.596   1.651
  118HFIP    C2 1406   3.132   2.470   1.713
  118HFIP    C3 1407   3.081   2.481   1.860
  118HFIP    F4 1408   2.959   2.539   1.864
  118HFIP    F5 1409   3.163   2.559   1.935
  118HFIP    F6 1410   3.068   2.361   1.924
  118HFIP    C7 1411   3.266   2.392   1.707
  118HFIP    F8 1412   3.367   2.461   1.767
  118HFIP    F9 1413   3.305   2.373   1.578
  118HFIP   F10 1414   3.262   2.268   1.762
  118HFIP   H11 1415   3.208   2.654   1.699
  118HFIP   H12 1416   3.058   2.411   1.658
  119HFIP    O1 1417   3.068   2.453   2.605
  119HFIP    C2 1418   3.113   2.482   2.475
  119HFIP    C3 1419   3.142   2.353   2.394
  119HFIP    F4 1420   3.031   2.275   2.385
  119HFIP    F5 1421   3.237   2.277   2.455
  119HFIP    F6 1422   3.183   2.375   2.266
  119HFIP    C7 1423   3.237   2.574   2.474
  119HFIP    F8 1424   3.341   2.521   2.544
  119HFIP    F9 1425   3.208   2.688   2.541
  119HFIP   F10 1426   3.281   2.611   2.351
  119HFIP   H11 1427   3.140   2.407   2.657
  119HFIP   H12 1428   3.033   2.535   2.423
  120HFIP    O1 1429   3.211   2.631   3.175
  120HFIP    C2 1430   3.220   2.491   3.171
  120HFIP    C3 1431   3.163   2.433   3.038
  120HFIP    F4 1432   3.229   2.482   2.930
  120HFIP    F5 1433   3.032   2.467   3.021
  120HFIP    F6 1434   3.171   2.298   3.027
  120HFIP    C7 1435   3.152   2.424   3.294
  120HFIP    F8 1436   3.021   2.458   3.302
  120HFIP    F9 1437   3.210   2.466   3.410
  120HFIP   F10 1438   3.160   2.289   3.296
  120HFIP   H11 1439   3.116   2.661   3.172
  120HFIP   H12 1440   3.326   2.464   3.174
  121HFIP    O1 1441   3.233   3.008   0.364
  121HFIP    C2 1442   3.185   3.129   0.311
  121HFIP    C3 1443   3.272   3.250   0.355
  121HFIP    F4 1444   3.400   3.235   0.315
  121HFIP    F5 1445   3.275   3.262   0.491
  121HFIP    F6 1446   3.231   3.370   0.304
  121HFIP    C7 1447   3.036   3.153   0.346
  121HFIP    F8 1448   3.016   3.155   0.481
  121HFIP    F9 1449   2.959   3.051   0.297
  121HFIP   F10 1450   2.983   3.267   0.295
  121HFIP   H11 1451   3.229   3.009   0.464
  121HFIP   H12 1452   3.192   3.123   0.202
  122HFIP    O1 1453   3.185   3.009   0.988
  122HFIP    C2 1454   3.188   3.149   1.004
  122HFIP    C3 1455   3.281   3.192   1.121
  122HFIP    F4 1456   3.408   3.150   1.100
  122HFIP    F5 1457   3.241   3.138   1.239
  122HFIP    F6 1458   3.290   3.327   1.139
  122HFIP    C7 1459   3.046   3.209   1.021
  122HFIP    F8 1460   2.982   3.157   1.129
  122HFIP    F9 1461   2.968   3.180   0.913
  122HFIP   F10 1462   3.043   3.345   1.033
  122HFIP   H11 1463   3.148   2.965   1.070
  122HFIP   H12 1464   3.230   3.192   0.913
  123HFIP    O1 1465   3.217   3.076   1.621
  123HFIP    C2 1466   3.217   3.137   1.748
  123HFIP    C3 1467   3.105   3.082   1.839
  123HFIP    F4 1468   3.120   2.947   1.857
  123HFIP    F5 1469   2.982   3.099   1.784
  123HFIP    F6 1470   3.102   3.135   1.965
  123HFIP    C7 1471   3.208   3.292   1.738
  123HFIP    F8 1472   3.095   3.332   1.673
  123HFIP    F9 1473   3.313   3.343   1.667
  123HFIP   F10 1474   3.211   3.357   1.858
  123HFIP   H11 1475   3.132   3.096   1.573
  123HFIP   H12 1476   3.312   3.114   1.796
  124HFIP    O1 1477   3.105   3.168   2.625
  124HFIP    C2 1478   3.194   3.161   2.516
  124HFIP    C3 1479   3.203   3.294   2.438
  124HFIP    F4 1480   3.245   3.395   2.519
  124HFIP    F5 1481   3.081   3.332   2.390
  124HFIP    F6 1482   3.289   3.292   2.333
  124HFIP    C7 1483   3.157   3.046   2.419
  124HFIP    F8 1484   3.030   3.057   2.371
  124HFIP    F9 1485   3.158   2.930   2.487
  124HFIP   F10 1486   3.242   3.028   2.314
  124HFIP   H11 1487   3.012   3.188   2.593
  124HFIP   H12 1488   3.293   3.139   2.555
  125HFIP    O1 1489   3.300   3.220   3.070
  125HFIP    C2 1490   3.174   3.174   3.109
  125HFIP    C3 1491   3.099   3.277   3.198
  125HFIP    F4 1492   3.081   3.394   3.131
  125HFIP    F5 1493   3.170   3.307   3.310
  125HFIP    F6 1494   2.975   3.239   3.237
  125HFIP    C7 1495   3.181   3.036   3.180
  125HFIP    F8 1496   3.261   3.041   3.291
  125HFIP    F9 1497   3.236   2.943   3.098
  125HFIP   F10 1498   3.061   2.985   3.218
  125HFIP   H11 1499   3.359   3.235   3.149
  125HFIP   H12 1500   3.114   3.160   3.019
   3.51960   3.51960   3.51960
