HFIP published-force-field qualification
 1500
    1HFIP    O1    1   2.759   0.104   0.575 -0.8143 -0.7932 -0.1474
    1HFIP    C2    2   2.833  -0.016   0.596  0.4399  0.4454 -0.6779
    1HFIP    C3    3   2.754  -0.151   0.563 -0.4030  0.1263 -0.2200
    1HFIP    F4    4   2.844  -0.256   0.560 -0.1989 -0.0646  0.0247
    1HFIP    F5    5   2.697  -0.147   0.438 -0.1900 -0.9844 -0.6721
    1HFIP    F6    6   2.655  -0.182   0.647  0.2772  0.1948  0.0544
    1HFIP    C7    7   2.905  -0.022   0.730 -0.3209  0.9345 -0.5993
    1HFIP    F8    8   2.987  -0.133   0.745  0.1958 -0.2081  0.4609
    1HFIP    F9    9   2.828  -0.023   0.841  0.3484  0.0574  0.3896
    1HFIP   F10   10   2.986   0.087   0.741 -0.1096  0.3343 -0.2811
    1HFIP   H11   11   2.759   0.129   0.478  0.4300 -0.7614 -0.1580
    1HFIP   H12   12   2.908  -0.008   0.517  0.2977 -1.8548 -1.0914
    2HFIP    O1   13   0.002   2.773   1.267  0.3231 -0.1258 -0.4136
    2HFIP    C2   14   0.123   2.699   1.283 -0.8104  0.7660  0.3037
    2HFIP    C3   15   0.180   2.699   1.425  0.0117  0.2106  0.4113
    2HFIP    F4   16   0.164   2.823   1.479 -0.0043  0.0684 -0.0829
    2HFIP    F5   17   0.306   2.655   1.439  0.2733 -0.0175 -0.2694
    2HFIP    F6   18   0.112   2.603   1.491  0.3741  0.0581  0.4930
    2HFIP    C7   19   0.241   2.730   1.180  0.2789 -0.0925 -0.5147
    2HFIP    F8   20   0.318   2.832   1.220  0.0615 -0.0131 -0.0552
    2HFIP    F9   21   0.184   2.771   1.063 -0.4246 -0.0491  0.2535
    2HFIP   F10   22   0.319   2.615   1.167 -0.5654  0.1963 -0.0300
    2HFIP   H11   23   0.018   2.871   1.253  0.8171  0.1493  1.8257
    2HFIP   H12   24   0.094   2.596   1.264 -1.9135  0.8815  1.3349
    3HFIP    O1   25   0.127   0.498   1.967  0.1719 -0.1317  0.8747
    3HFIP    C2   26   0.193   0.434   1.857  0.1746 -0.0347 -0.5881
    3HFIP    C3   27   0.114   0.418   1.726 -0.0409 -0.0532  0.0657
    3HFIP    F4   28   0.160   0.327   1.639 -0.5852  0.1837 -0.1905
    3HFIP    F5   29   0.097   0.537   1.664 -0.4476 -0.4221 -0.5795
    3HFIP    F6   30  -0.015   0.372   1.746 -0.5557 -0.0140  0.2270
    3HFIP    C7   31   0.256   0.293   1.896 -0.2791 -0.2801  0.5449
    3HFIP    F8   32   0.369   0.266   1.827 -0.1472 -0.1366 -0.2655
    3HFIP    F9   33   0.179   0.186   1.880  0.2545  0.0574  0.5234
    3HFIP   F10   34   0.285   0.277   2.027 -0.1533  0.5070  0.0170
    3HFIP   H11   35   0.194   0.507   2.041 -1.4409  0.3024  2.3265
    3HFIP   H12   36   0.274   0.499   1.822  1.5042 -0.8437  0.9287
    4HFIP    O1   37   0.935   0.054   2.605  0.2005 -0.4324  0.1189
    4HFIP    C2   38   0.990   0.122   2.720 -0.2209 -0.6778 -0.1650
    4HFIP    C3   39   1.005   0.275   2.713 -0.4710 -0.6795  0.4459
    4HFIP    F4   40   1.045   0.335   2.829 -0.8056 -0.1501 -0.3592
    4HFIP    F5   41   0.890   0.338   2.677  0.1691 -0.1362 -0.6500
    4HFIP    F6   42   1.098   0.295   2.616 -0.2096 -0.3649  0.2617
    4HFIP    C7   43   1.130   0.046   2.765  0.2704 -0.3063  1.0288
    4HFIP    F8   44   1.168   0.053   2.891  0.8124  0.2513  0.2136
    4HFIP    F9   45   1.242   0.071   2.693  0.7581 -0.1462  0.1584
    4HFIP   F10   46   1.109  -0.088   2.742 -0.3739 -0.0967  0.1510
    4HFIP   H11   47   0.962   0.091   2.516 -2.5553  1.1536 -0.1106
    4HFIP   H12   48   0.924   0.098   2.803  0.1377 -2.1546 -0.2940
    5HFIP    O1   49   0.314   0.501   2.168  0.5384 -0.4726 -0.2225
    5HFIP    C2   50   0.436   0.570   2.176 -0.5870  0.4075 -0.5069
    5HFIP    C3   51   0.407   0.715   2.212 -0.4135 -0.1539 -0.5234
    5HFIP    F4   52   0.522   0.769   2.265  0.2438  0.0516 -0.0465
    5HFIP    F5   53   0.311   0.737   2.305 -0.2162 -0.1792 -0.2917
    5HFIP    F6   54   0.388   0.797   2.105  0.8519  0.0795 -0.2806
    5HFIP    C7   55   0.533   0.551   2.056 -0.3136  0.1555 -0.1315
    5HFIP    F8   56   0.551   0.423   2.033 -0.1351 -0.4214  0.2650
    5HFIP    F9   57   0.654   0.608   2.072 -0.2105  0.1267 -0.3289
    5HFIP   F10   58   0.478   0.594   1.937 -0.1845 -0.9114  0.5543
    5HFIP   H11   59   0.293   0.442   2.246  1.3736 -1.4479 -0.7244
    5HFIP   H12   60   0.495   0.526   2.257  0.3794 -2.5368 -2.7326
    6HFIP    O1   61   0.133   1.123   0.995  0.3267  0.8409  0.3443
    6HFIP    C2   62   0.039   1.078   1.090  0.1406  0.2506  0.1495
    6HFIP    C3   63  -0.004   1.184   1.192 -0.2589 -0.1755 -0.0781
    6HFIP    F4   64   0.076   1.201   1.298  0.1588 -0.0410  0.3070
    6HFIP    F5   65  -0.133   1.165   1.236 -0.3831 -0.1134 -0.2647
    6HFIP    F6   66  -0.024   1.308   1.134 -0.2763 -0.1304  0.2522
    6HFIP    C7   67   0.078   0.939   1.152  0.1186  0.0170  0.2303
    6HFIP    F8   68   0.084   0.843   1.053 -0.2666  0.3309  0.1997
    6HFIP    F9   69  -0.017   0.902   1.246  0.1037  0.7152  0.1374
    6HFIP   F10   70   0.194   0.940   1.224  0.0854  0.4882 -0.2904
    6HFIP   H11   71   0.162   1.218   1.009 -0.2569  1.1216 -0.3075
    6HFIP   H12   72  -0.051   1.059   1.031  0.0395 -0.8403  0.6567
    7HFIP    O1   73   2.197   0.932   1.797 -0.0822  0.8903 -0.4551
    7HFIP    C2   74   2.169   0.988   1.921 -1.1275  0.7180  0.0576
    7HFIP    C3   75   2.119   1.135   1.918 -0.1108 -0.1346  0.5439
    7HFIP    F4   76   2.213   1.217   1.865 -0.0702  0.1219 -0.3915
    7HFIP    F5   77   2.082   1.186   2.037 -0.0039  0.0175  0.3689
    7HFIP    F6   78   2.011   1.150   1.836  0.2608 -0.6218  0.9201
    7HFIP    C7   79   2.289   0.973   2.027 -0.1452  0.4811  0.0275
    7HFIP    F8   80   2.385   1.071   2.024  0.8708  0.2524 -0.1429
    7HFIP    F9   81   2.361   0.860   2.001  0.3807  0.4257 -0.2437
    7HFIP   F10   82   2.245   0.966   2.157  0.0342  0.5252 -0.0637
    7HFIP   H11   83   2.162   0.841   1.773  2.6327 -0.0087 -1.2003
    7HFIP   H12   84   2.083   0.932   1.960 -0.9239 -0.9715 -1.8608
    8HFIP    O1   85   0.101   0.351   2.294  0.4217 -0.3691  0.0838
    8HFIP    C2   86   0.058   0.430   2.406  0.0345  0.1330  1.1472
    8HFIP    C3   87   0.167   0.425   2.518 -0.0517  0.6614  0.2907
    8HFIP    F4   88   0.132   0.515   2.619 -0.1412  0.5432 -0.0342
    8HFIP    F5   89   0.287   0.455   2.462  0.0711  0.0129  0.3698
    8HFIP    F6   90   0.194   0.310   2.585  0.2013  0.0998  0.7623
    8HFIP    C7   91  -0.091   0.425   2.455  0.7395 -0.1028 -0.1004
    8HFIP    F8   92  -0.177   0.418   2.349  0.2183  0.3998  0.2266
    8HFIP    F9   93  -0.124   0.540   2.520  0.2507 -0.2046  0.2738
    8HFIP   F10   94  -0.115   0.325   2.545 -0.3986 -0.1081 -0.2047
    8HFIP   H11   95   0.031   0.289   2.260  0.5184 -0.8659  0.7853
    8HFIP   H12   96   0.078   0.528   2.363  0.4525 -0.8275 -0.9494
    9HFIP    O1   97   2.196   1.902   1.835  0.3415 -0.3444 -0.0444
    9HFIP    C2   98   2.229   1.997   1.735 -0.1045 -0.0444 -0.7767
    9HFIP    C3   99   2.297   1.934   1.613 -0.7194 -0.0462  0.1900
    9HFIP    F4  100   2.359   2.017   1.523  0.0097  0.0941  0.0820
    9HFIP    F5  101   2.210   1.875   1.530 -0.3862  0.6619 -0.0465
    9HFIP    F6  102   2.389   1.837   1.643 -0.4638 -0.2243  0.0763
    9HFIP    C7  103   2.317   2.112   1.784  0.0228 -0.0483 -0.0398
    9HFIP    F8  104   2.301   2.226   1.717  0.1056 -0.0475  0.0949
    9HFIP    F9  105   2.451   2.087   1.773  0.0768  0.2459  0.0456
    9HFIP   F10  106   2.292   2.149   1.910 -0.3200  0.2233 -0.7038
    9HFIP   H11  107   2.105   1.926   1.870  0.1676 -1.6706  0.4328
    9HFIP   H12  108   2.136   2.043   1.702 -0.5392 -1.0233 -0.9554
   10HFIP    O1  109   0.372   1.940   1.062  0.4156  0.2963 -0.7031
   10HFIP    C2  110   0.341   1.965   0.927  0.3716 -1.2542  0.6419
   10HFIP    C3  111   0.478   1.985   0.842  0.8993  0.3632 -0.7851
   10HFIP    F4  112   0.571   1.888   0.866 -0.4954  0.5815  0.4521
   10HFIP    F5  113   0.546   2.102   0.865  0.6030 -0.6725 -0.1000
   10HFIP    F6  114   0.448   1.977   0.708 -0.1030  0.4696  0.0573
   10HFIP    C7  115   0.251   2.089   0.899  0.3075 -0.1142  0.0710
   10HFIP    F8  116   0.210   2.106   0.769  0.0926  0.6265  0.1491
   10HFIP    F9  117   0.310   2.209   0.928 -0.5986  0.3353 -0.1749
   10HFIP   F10  118   0.134   2.085   0.971  0.5439 -0.0106  0.1068
   10HFIP   H11  119   0.322   1.995   1.128 -1.3843 -3.8799  1.6607
   10HFIP   H12  120   0.292   1.884   0.873  1.0319 -0.8780 -0.5341
   11HFIP    O1  121   0.718   2.421   0.575  0.9111 -0.9597 -0.0666
   11HFIP    C2  122   0.581   2.384   0.529 -0.2438 -0.0744 -0.0204
   11HFIP    C3  123   0.589   2.242   0.445  0.1018 -0.1769 -0.0586
   11HFIP    F4  124   0.673   2.150   0.498 -0.6875  0.6070  0.6474
   11HFIP    F5  125   0.620   2.247   0.312 -0.0845  0.0024 -0.1115
   11HFIP    F6  126   0.470   2.174   0.444 -0.1112 -0.0637 -0.7932
   11HFIP    C7  127   0.497   2.488   0.451 -0.0854 -0.1328 -0.1119
   11HFIP    F8  128   0.566   2.558   0.352  0.6055  0.2737  0.3938
   11HFIP    F9  129   0.443   2.586   0.539 -0.1133 -0.8362  0.4252
   11HFIP   F10  130   0.383   2.441   0.391 -0.1401 -0.3881 -0.3178
   11HFIP   H11  131   0.717   2.494   0.643 -1.6398  0.3819 -1.4560
   11HFIP   H12  132   0.518   2.370   0.617  0.6833 -0.5411  0.5731
   12HFIP    O1  133   1.270   0.492   0.408 -0.1602 -0.5148  0.1186
   12HFIP    C2  134   1.174   0.510   0.301 -0.0934  0.0527 -0.0272
   12HFIP    C3  135   1.233   0.607   0.191  0.2855 -0.6232  0.6093
   12HFIP    F4  136   1.361   0.583   0.158 -0.6182 -0.2597  0.0874
   12HFIP    F5  137   1.217   0.739   0.216  0.3402  0.4450  0.6836
   12HFIP    F6  138   1.167   0.597   0.073  0.0091 -0.4701 -0.3129
   12HFIP    C7  139   1.021   0.555   0.339  0.1286  0.1929 -0.5746
   12HFIP    F8  140   0.957   0.449   0.382  0.1989  0.4919 -0.2338
   12HFIP    F9  141   0.950   0.610   0.236  0.3454  0.2864 -0.0804
   12HFIP   F10  142   1.024   0.648   0.435  0.0069 -0.1174 -0.4303
   12HFIP   H11  143   1.291   0.581   0.449  1.8724 -0.3783 -1.1648
   12HFIP   H12  144   1.170   0.414   0.250  1.3609 -0.0594  0.0403
   13HFIP    O1  145   1.068   0.429   2.143  0.2427  0.3075 -0.3065
   13HFIP    C2  146   0.970   0.529   2.175  0.1886 -0.1841  0.3091
   13HFIP    C3  147   1.026   0.674   2.137  0.2053  0.1136  0.0973
   13HFIP    F4  148   0.951   0.784   2.168 -0.6677  0.3796 -0.0029
   13HFIP    F5  149   1.051   0.672   2.008 -0.0114 -0.0496 -0.1887
   13HFIP    F6  150   1.147   0.701   2.191 -0.3028 -0.4899  0.5832
   13HFIP    C7  151   0.923   0.532   2.331 -0.0567  0.2874 -0.2790
   13HFIP    F8  152   0.841   0.637   2.369  0.0853  0.3656  0.0968
   13HFIP    F9  153   1.029   0.539   2.419 -0.5111  0.4280  0.0902
   13HFIP   F10  154   0.852   0.422   2.362 -0.2530 -0.0977 -0.3254
   13HFIP   H11  155   1.164   0.447   2.163  0.0162  1.9057 -0.6057
   13HFIP   H12  156   0.884   0.516   2.109 -1.7108 -1.1420  2.8454
   14HFIP    O1  157   0.550   1.419   1.886 -0.1599 -0.2639 -0.0597
   14HFIP    C2  158   0.628   1.536   1.875 -0.0643  0.3034 -0.0962
   14HFIP    C3  159   0.575   1.667   1.927  0.2541 -0.0746 -0.2592
   14HFIP    F4  160   0.514   1.653   2.050 -0.5093  0.3653  0.7934
   14HFIP    F5  161   0.479   1.726   1.846 -0.0301 -0.5583 -0.3519
   14HFIP    F6  162   0.676   1.755   1.952  0.4994 -0.3606 -0.3316
   14HFIP    C7  163   0.707   1.549   1.736 -0.0825 -0.5901  0.1127
   14HFIP    F8  164   0.635   1.591   1.628 -0.5654  0.2831 -0.4407
   14HFIP    F9  165   0.762   1.430   1.704  0.3516  0.0939 -0.3013
   14HFIP   F10  166   0.813   1.634   1.739 -0.5289 -0.2260  0.1554
   14HFIP   H11  167   0.605   1.339   1.863 -0.6293 -1.2111  2.1131
   14HFIP   H12  168   0.710   1.518   1.945  0.7504  0.0819 -1.0985
   15HFIP    O1  169   0.427   1.134   1.770  0.5299 -0.5577 -0.6143
   15HFIP    C2  170   0.388   1.091   1.635  0.0278 -0.4642 -0.7034
   15HFIP    C3  171   0.300   0.963   1.635  0.5634 -0.5694 -0.0967
   15HFIP    F4  172   0.382   0.854   1.630 -0.0877  0.3479 -0.2188
   15HFIP    F5  173   0.210   0.958   1.537  0.2789  0.6350 -0.1763
   15HFIP    F6  174   0.228   0.951   1.749  0.0065 -0.5045  0.1829
   15HFIP    C7  175   0.497   1.097   1.522  0.0098 -0.6262  0.3664
   15HFIP    F8  176   0.452   1.062   1.395 -0.5877  0.4041  0.3145
   15HFIP    F9  177   0.611   1.031   1.555 -0.3541 -0.3421  0.1802
   15HFIP   F10  178   0.545   1.224   1.514 -0.0628 -0.3301  0.2977
   15HFIP   H11  179   0.355   1.188   1.815 -1.4330 -2.9066 -0.8748
   15HFIP   H12  180   0.309   1.164   1.617  0.0540 -0.0644  0.7283
   16HFIP    O1  181   0.443   0.866   0.769  0.2839 -0.1141 -0.1133
   16HFIP    C2  182   0.415   0.990   0.832 -0.4790 -0.1968 -0.1828
   16HFIP    C3  183   0.453   1.116   0.747  0.4304  0.2623  0.6904
   16HFIP    F4  184   0.446   1.231   0.814  0.6887 -0.2649  0.2007
   16HFIP    F5  185   0.359   1.136   0.654  0.5994 -0.5483  0.0504
   16HFIP    F6  186   0.579   1.093   0.700 -0.1528 -0.7490 -0.5704
   16HFIP    C7  187   0.459   1.005   0.983 -0.1392  0.3325  0.6201
   16HFIP    F8  188   0.593   1.036   0.986 -0.0018  0.0480 -0.1779
   16HFIP    F9  189   0.438   0.896   1.057 -0.0143 -0.0909  0.3253
   16HFIP   F10  190   0.408   1.112   1.048 -0.2147 -0.1363  0.0358
   16HFIP   H11  191   0.435   0.793   0.836 -1.1142 -0.3101 -0.4811
   16HFIP   H12  192   0.307   0.994   0.843 -0.6693 -0.3075 -1.8732
   17HFIP    O1  193   0.558   0.853   0.527  0.2168  0.3066  0.5177
   17HFIP    C2  194   0.488   0.751   0.459 -0.0956 -0.3621  0.2359
   17HFIP    C3  195   0.335   0.791   0.443  0.0770  0.2883 -0.4677
   17HFIP    F4  196   0.315   0.922   0.429 -0.2342  0.3891 -0.1696
   17HFIP    F5  197   0.261   0.754   0.551  0.1675  0.6416 -0.2853
   17HFIP    F6  198   0.286   0.739   0.328 -0.2492  0.1150  0.6247
   17HFIP    C7  199   0.499   0.610   0.526  0.6470 -0.0913  0.2100
   17HFIP    F8  200   0.421   0.512   0.475 -0.1591  0.4512 -0.0602
   17HFIP    F9  201   0.497   0.613   0.664  0.8109 -0.1033  0.4121
   17HFIP   F10  202   0.624   0.561   0.493  0.8746  0.0756 -0.2303
   17HFIP   H11  203   0.518   0.862   0.618  0.5756 -0.0843  0.7161
   17HFIP   H12  204   0.531   0.741   0.359 -1.1394 -1.4951 -0.1070
   18HFIP    O1  205   0.455   1.693   1.060 -0.1392  0.2226  0.1410
   18HFIP    C2  206   0.365   1.628   1.136  0.2130  0.7735  0.3356
   18HFIP    C3  207   0.422   1.522   1.236 -0.6260 -1.0604 -0.4214
   18HFIP    F4  208   0.458   1.400   1.196  0.1790  0.0491  0.0361
   18HFIP    F5  209   0.325   1.494   1.325  0.3296 -0.2376 -0.0259
   18HFIP    F6  210   0.521   1.581   1.311 -0.3655  0.4541 -0.4686
   18HFIP    C7  211   0.240   1.573   1.065 -0.5752 -0.1087  0.1606
   18HFIP    F8  212   0.126   1.603   1.129 -0.4994 -0.0511 -0.4430
   18HFIP    F9  213   0.228   1.438   1.046  0.4412  0.3754  0.1214
   18HFIP   F10  214   0.235   1.625   0.942  0.0191  0.0988  0.0278
   18HFIP   H11  215   0.441   1.792   1.068  0.9924  0.2465  2.1722
   18HFIP   H12  216   0.334   1.703   1.209 -1.0404 -0.3457  0.9925
   19HFIP    O1  217   1.233   1.095   1.428  0.1194 -0.1530 -0.4642
   19HFIP    C2  218   1.100   1.067   1.382  0.5671  0.0904  0.3713
   19HFIP    C3  219   1.077   1.071   1.223 -0.1153  0.3735  0.3233
   19HFIP    F4  220   1.182   1.003   1.165 -0.2119  0.2020 -0.6212
   19HFIP    F5  221   1.097   1.195   1.172  0.0015 -0.0750 -0.0803
   19HFIP    F6  222   0.956   1.022   1.175 -0.4844  0.4801  0.0317
   19HFIP    C7  223   0.996   1.141   1.463 -0.6287  0.6744 -0.5109
   19HFIP    F8  224   1.009   1.097   1.591 -0.2238 -0.1277 -0.1127
   19HFIP    F9  225   0.865   1.109   1.436  0.3038 -0.0571  0.4526
   19HFIP   F10  226   1.004   1.275   1.464  0.1681  0.3648  0.0459
   19HFIP   H11  227   1.259   1.192   1.437  0.9930 -0.4248 -0.0160
   19HFIP   H12  228   1.080   0.965   1.414  0.8363  0.7138  2.6116
   20HFIP    O1  229   2.575   1.841   2.100  0.3409  0.1555  0.2126
   20HFIP    C2  230   2.575   1.978   2.064 -0.9265 -0.4454 -0.1234
   20HFIP    C3  231   2.719   2.034   2.030  0.4618  0.2500 -0.0087
   20HFIP    F4  232   2.723   2.153   1.960 -0.7677 -0.2669 -0.2162
   20HFIP    F5  233   2.774   1.949   1.938  0.1961  0.4943  0.3918
   20HFIP    F6  234   2.802   2.044   2.136 -0.3734 -0.1120 -0.0265
   20HFIP    C7  235   2.506   2.067   2.176 -0.2243 -0.2904 -0.0323
   20HFIP    F8  236   2.506   2.202   2.153  0.0793 -0.6654 -0.0954
   20HFIP    F9  237   2.554   2.049   2.301  0.3162  0.5726 -0.0055
   20HFIP   F10  238   2.371   2.040   2.174 -1.0110 -0.0576  0.6343
   20HFIP   H11  239   2.494   1.786   2.079 -0.2562  0.9856  0.3334
   20HFIP   H12  240   2.516   1.999   1.974  0.8051 -0.7501 -1.3644
   21HFIP    O1  241   0.023   1.546   0.472  0.6081 -0.0084 -0.2202
   21HFIP    C2  242   0.113   1.619   0.555  0.1873  0.5319 -0.3298
   21HFIP    C3  243   0.085   1.775   0.546 -0.2283  0.1016 -0.1431
   21HFIP    F4  244  -0.034   1.815   0.492 -0.2490  0.3309 -0.1007
   21HFIP    F5  245   0.181   1.835   0.474  0.2593  0.1336 -0.1112
   21HFIP    F6  246   0.086   1.834   0.673  0.7874  0.0722 -0.3157
   21HFIP    C7  247   0.260   1.589   0.535 -0.1448  0.0846  0.4235
   21HFIP    F8  248   0.303   1.606   0.408  0.5020  0.1767  0.0739
   21HFIP    F9  249   0.276   1.456   0.553 -0.3264  0.2864  0.2562
   21HFIP   F10  250   0.338   1.647   0.629 -0.1199 -0.2399  0.1065
   21HFIP   H11  251   0.064   1.517   0.385  0.4234  2.2102 -1.0792
   21HFIP   H12  252   0.098   1.586   0.658 -1.5876 -1.1350 -1.0816
   22HFIP    O1  253   0.164   0.072   0.133 -0.2506  0.2391  0.6808
   22HFIP    C2  254   0.139  -0.048   0.067 -0.1040 -0.3705  0.2000
   22HFIP    C3  255   0.254  -0.155   0.083 -0.0179  0.5197  0.2705
   22HFIP    F4  256   0.355  -0.136  -0.011  0.3819  0.5672 -0.0914
   22HFIP    F5  257   0.202  -0.277   0.070 -0.1844 -0.4702 -0.4208
   22HFIP    F6  258   0.320  -0.151   0.201  0.2072  0.0252 -0.1621
   22HFIP    C7  259   0.107  -0.020  -0.084 -0.1107  0.7310  0.8457
   22HFIP    F8  260   0.006   0.071  -0.102 -0.0145 -0.0629 -0.3337
   22HFIP    F9  261   0.065  -0.125  -0.162 -0.1504  0.0075 -0.2339
   22HFIP   F10  262   0.213   0.023  -0.156 -0.1826 -0.4212  0.1248
   22HFIP   H11  263   0.237   0.125   0.090 -1.0666 -0.8650 -2.1773
   22HFIP   H12  264   0.042  -0.083   0.101 -0.0046 -1.7978 -0.9813
   23HFIP    O1  265   0.994   0.178   2.102  0.0096 -0.5064 -0.0082
   23HFIP    C2  266   0.918   0.146   1.986  0.4570 -0.1226  0.6915
   23HFIP    C3  267   0.923   0.258   1.884 -0.8746 -0.2218 -0.1211
   23HFIP    F4  268   0.898   0.220   1.761 -0.1951  0.3469  0.4556
   23HFIP    F5  269   1.041   0.318   1.874  0.2703 -0.2771 -0.2663
   23HFIP    F6  270   0.842   0.366   1.912  0.1668  0.1251 -0.0680
   23HFIP    C7  271   0.764   0.106   2.010  0.5120 -0.7224 -0.3604
   23HFIP    F8  272   0.743  -0.021   2.055  0.2917 -0.2191 -0.4176
   23HFIP    F9  273   0.688   0.112   1.895 -0.0579 -0.0000 -0.1834
   23HFIP   F10  274   0.701   0.183   2.102  0.0827  1.0394 -0.4100
   23HFIP   H11  275   1.016   0.275   2.099  0.0268 -0.4479  1.5364
   23HFIP   H12  276   0.958   0.053   1.947  0.3803 -0.2632  0.9456
   24HFIP    O1  277   2.145   1.190   0.999 -0.0770  0.3126 -0.4677
   24HFIP    C2  278   2.196   1.322   0.978  0.4090 -0.0254 -1.1905
   24HFIP    C3  279   2.099   1.415   0.897 -0.5509  0.1945 -0.2117
   24HFIP    F4  280   2.086   1.368   0.769 -0.2596  0.1170 -0.4609
   24HFIP    F5  281   2.131   1.545   0.898 -0.1537 -0.4091 -0.2590
   24HFIP    F6  282   1.973   1.420   0.937  0.6099 -0.4142  0.8774
   24HFIP    C7  283   2.334   1.328   0.911  0.5895 -0.5293  0.2386
   24HFIP    F8  284   2.375   1.455   0.880  0.3932 -0.3260  0.1122
   24HFIP    F9  285   2.350   1.259   0.796  0.1847  0.5805 -0.1752
   24HFIP   F10  286   2.431   1.280   0.991 -0.6545  0.0801 -0.1242
   24HFIP   H11  287   2.152   1.162   1.095  2.2197 -1.5869 -1.1436
   24HFIP   H12  288   2.215   1.371   1.074 -0.8217  0.6573 -1.2941
   25HFIP    O1  289   2.788   2.083   2.633  0.4497  0.3122 -0.0782
   25HFIP    C2  290   2.830   2.165   2.531 -0.1072  0.2771  0.1511
   25HFIP    C3  291   2.977   2.210   2.526 -0.8411  0.1574 -0.3306
   25HFIP    F4  292   3.023   2.224   2.655 -0.5242  0.2011  0.0411
   25HFIP    F5  293   3.006   2.323   2.453 -0.2466  0.0128 -0.0722
   25HFIP    F6  294   3.057   2.113   2.475 -0.5281  0.1396 -0.2805
   25HFIP    C7  295   2.738   2.284   2.503 -0.1937  0.0797  0.0546
   25HFIP    F8  296   2.758   2.348   2.384 -0.8981  0.2637 -0.9076
   25HFIP    F9  297   2.753   2.376   2.604 -0.8682  0.3315  0.3543
   25HFIP   F10  298   2.603   2.258   2.507 -0.3651 -0.2297  0.3320
   25HFIP   H11  299   2.739   2.002   2.601  1.0763 -0.1210  0.0361
   25HFIP   H12  300   2.825   2.094   2.449  2.4967 -1.1299  1.1646
   26HFIP    O1  301   1.366   0.705   0.493 -0.5712 -0.9090  0.0051
   26HFIP    C2  302   1.457   0.684   0.598  0.3834  0.1955 -0.2452
   26HFIP    C3  303   1.584   0.603   0.562 -0.4032 -0.7040  0.9610
   26HFIP    F4  304   1.574   0.467   0.569  0.0648 -0.1346 -0.3262
   26HFIP    F5  305   1.686   0.653   0.637 -0.3702 -0.3955 -0.2323
   26HFIP    F6  306   1.627   0.627   0.435 -0.0107  0.4382 -0.5734
   26HFIP    C7  307   1.382   0.638   0.718  0.2981  0.2130 -0.0994
   26HFIP    F8  308   1.460   0.638   0.832 -0.1290 -0.6424 -0.0359
   26HFIP    F9  309   1.313   0.521   0.689 -0.0484 -0.1708  0.5720
   26HFIP   F10  310   1.285   0.725   0.754  0.7198 -0.0275 -0.0682
   26HFIP   H11  311   1.329   0.797   0.502  2.1075  0.0252  2.1786
   26HFIP   H12  312   1.496   0.781   0.631 -1.3345 -0.1425  2.9268
   27HFIP    O1  313   1.478   0.025   0.384  0.5707  0.1588  0.4991
   27HFIP    C2  314   1.577   0.099   0.312 -0.3479 -0.5638 -0.7539
   27HFIP    C3  315   1.690   0.149   0.408 -0.0129  0.3652 -0.3686
   27HFIP    F4  316   1.777   0.243   0.352 -0.3490 -0.2725 -0.3433
   27HFIP    F5  317   1.784   0.063   0.452  0.0611  0.6344  0.4338
   27HFIP    F6  318   1.641   0.200   0.522  0.1990 -0.1802 -0.1530
   27HFIP    C7  319   1.514   0.209   0.226 -0.3865  0.1801  0.3267
   27HFIP    F8  320   1.393   0.192   0.165  0.5796  0.1200 -0.0989
   27HFIP    F9  321   1.601   0.238   0.124 -0.1381 -0.1363 -0.7041
   27HFIP   F10  322   1.503   0.323   0.302  0.1116  0.1281  0.1034
   27HFIP   H11  323   1.407   0.081   0.426  2.2647  1.8967  1.1035
   27HFIP   H12  324   1.629   0.035   0.242 -0.7241 -1.0513 -0.5923
   28HFIP    O1  325   2.576   0.340   2.016  0.0014 -0.7653  0.3550
   28HFIP    C2  326   2.458   0.287   1.963 -0.2365  0.1664  0.0228
   28HFIP    C3  327   2.402   0.352   1.824  0.3750 -0.5227 -0.6318
   28HFIP    F4  328   2.290   0.294   1.771  0.2854 -0.1374 -0.9524
   28HFIP    F5  329   2.503   0.338   1.734  0.6710 -0.2207 -0.3090
   28HFIP    F6  330   2.367   0.481   1.841 -0.0923  0.0959 -0.0426
   28HFIP    C7  331   2.339   0.285   2.070  0.4018  0.2204  0.2125
   28HFIP    F8  332   2.286   0.401   2.104  0.0214 -0.0156 -0.3371
   28HFIP    F9  333   2.370   0.226   2.188 -0.6006 -0.6065 -0.0373
   28HFIP   F10  334   2.233   0.211   2.027 -0.4666  0.5730 -0.1756
   28HFIP   H11  335   2.582   0.440   2.007 -0.7319 -0.5983  1.6888
   28HFIP   H12  336   2.484   0.187   1.930  0.4747 -0.3644  2.1602
   29HFIP    O1  337   0.725   2.348   1.819 -0.0345  0.4676 -0.1264
   29HFIP    C2  338   0.777   2.391   1.699 -0.4915 -0.6133 -0.1193
   29HFIP    C3  339   0.862   2.282   1.628  0.2799 -0.1888  0.0869
   29HFIP    F4  340   0.903   2.311   1.500 -0.1142 -0.3731  0.2422
   29HFIP    F5  341   0.791   2.164   1.624 -0.3990  0.3234  0.0430
   29HFIP    F6  342   0.977   2.265   1.698 -0.0658  0.4612 -0.5493
   29HFIP    C7  343   0.848   2.526   1.711 -0.2949 -0.4933  0.6565
   29HFIP    F8  344   0.941   2.529   1.812  0.3749 -0.1685  0.2616
   29HFIP    F9  345   0.749   2.624   1.735 -0.4500  0.2059 -0.4774
   29HFIP   F10  346   0.906   2.571   1.597 -0.2614 -0.2683 -0.1639
   29HFIP   H11  347   0.632   2.380   1.840  0.0476  0.4432  0.2797
   29HFIP   H12  348   0.694   2.400   1.628 -3.3959  1.0255  3.3326
   30HFIP    O1  349   0.713   2.739   2.626  0.0580  0.7682  0.1070
   30HFIP    C2  350   0.737   2.608   2.688  0.8664  0.5027  0.5457
   30HFIP    C3  351   0.650   2.489   2.617  0.2174  0.0006 -0.7427
   30HFIP    F4  352   0.647   2.489   2.481 -0.1001  0.2023 -0.3771
   30HFIP    F5  353   0.526   2.490   2.659 -0.3801  0.0630 -0.0520
   30HFIP    F6  354   0.698   2.367   2.658  0.1025 -0.0159 -0.3729
   30HFIP    C7  355   0.732   2.606   2.844  0.4992 -0.5009  0.2920
   30HFIP    F8  356   0.792   2.501   2.900 -0.1596  0.2448 -0.2771
   30HFIP    F9  357   0.612   2.632   2.898  0.0671  0.5459  0.3031
   30HFIP   F10  358   0.802   2.719   2.880  0.7507  0.4213 -0.1315
   30HFIP   H11  359   0.797   2.792   2.617  1.8010 -1.5084  2.2600
   30HFIP   H12  360   0.839   2.577   2.662  1.3535  1.5282  1.2252
   31HFIP    O1  361   1.446   1.679   0.102  0.4218  0.1008 -0.4534
   31HFIP    C2  362   1.485   1.802   0.163 -0.3926 -0.5916  0.1232
   31HFIP    C3  363   1.397   1.846   0.283 -0.5523 -0.2533  0.0738
   31HFIP    F4  364   1.342   1.739   0.346  0.2778  0.4968  0.1190
   31HFIP    F5  365   1.294   1.922   0.243  0.4690 -0.3048  0.3856
   31HFIP    F6  366   1.454   1.928   0.375  0.4702 -0.0458  0.2756
   31HFIP    C7  367   1.506   1.923   0.065 -0.3041  0.1250 -0.3044
   31HFIP    F8  368   1.394   1.979   0.008 -0.5133 -0.0051  0.2370
   31HFIP    F9  369   1.577   1.884  -0.045 -0.0857 -0.1211  0.1024
   31HFIP   F10  370   1.577   2.018   0.128 -0.1320  0.1468  0.3545
   31HFIP   H11  371   1.350   1.680   0.072  0.1217 -1.6570  0.3430
   31HFIP   H12  372   1.581   1.780   0.210  0.8323  0.8947 -1.6224
   32HFIP    O1  373   0.783   0.998   0.442 -0.0782 -0.0791  0.2723
   32HFIP    C2  374   0.748   1.082   0.335  0.0896  0.2876 -0.1439
   32HFIP    C3  375   0.866   1.089   0.232  0.4509  0.4247 -0.9393
   32HFIP    F4  376   0.966   1.161   0.290  0.2033  0.3666  0.3081
   32HFIP    F5  377   0.821   1.145   0.117 -0.0648 -0.4095 -0.1461
   32HFIP    F6  378   0.910   0.969   0.196 -0.0281  0.3989 -0.2410
   32HFIP    C7  379   0.693   1.231   0.373  0.0755  0.0857  0.2456
   32HFIP    F8  380   0.562   1.233   0.406  0.2406 -0.0482  0.1699
   32HFIP    F9  381   0.701   1.323   0.271 -0.1299 -0.0325 -0.0387
   32HFIP   F10  382   0.763   1.282   0.477 -0.7042  0.2052 -0.1067
   32HFIP   H11  383   0.712   0.936   0.476  0.0805 -0.2011  0.3797
   32HFIP   H12  384   0.671   1.024   0.283  0.6598 -0.6609  0.0451
   33HFIP    O1  385   1.265   0.944   0.468 -0.3160 -0.1823 -0.0522
   33HFIP    C2  386   1.344   1.051   0.424  0.0457  0.3559  0.6645
   33HFIP    C3  387   1.362   1.063   0.269  0.2431  0.2668 -0.0561
   33HFIP    F4  388   1.240   1.052   0.208 -0.1936  0.2488  0.4329
   33HFIP    F5  389   1.445   0.965   0.222 -0.3087  0.4071 -0.0145
   33HFIP    F6  390   1.412   1.177   0.216  0.3108 -0.2247  0.1796
   33HFIP    C7  391   1.480   1.061   0.497 -0.7379 -0.0320 -0.2264
   33HFIP    F8  392   1.564   0.960   0.460  0.0303  0.7263 -0.0419
   33HFIP    F9  393   1.468   1.029   0.631 -0.3076 -0.5120  0.8356
   33HFIP   F10  394   1.547   1.175   0.489  0.1471 -0.5923  0.6339
   33HFIP   H11  395   1.170   0.966   0.492 -1.3968 -3.3250 -1.3011
   33HFIP   H12  396   1.297   1.143   0.458  0.6146  0.6519  0.6580
   34HFIP    O1  397   2.004   2.595   2.365  0.0052  1.0763 -0.1937
   34HFIP    C2  398   1.877   2.645   2.409 -0.2089 -0.2087  0.0449
   34HFIP    C3  399   1.753   2.554   2.349 -0.2242 -0.5648 -0.4746
   34HFIP    F4  400   1.724   2.594   2.222  0.0369 -0.0687 -0.3846
   34HFIP    F5  401   1.637   2.572   2.419  0.6463 -0.2682 -0.1970
   34HFIP    F6  402   1.784   2.421   2.348  0.2265  0.0498  0.0274
   34HFIP    C7  403   1.844   2.790   2.390 -0.8218 -0.0221  0.2307
   34HFIP    F8  404   1.939   2.862   2.455  0.8604 -0.1328 -0.7319
   34HFIP    F9  405   1.731   2.827   2.451  0.1365 -0.5076  0.3547
   34HFIP   F10  406   1.842   2.844   2.264  0.0598 -0.3974  0.1408
   34HFIP   H11  407   2.076   2.635   2.423  1.4069  0.4185 -1.4490
   34HFIP   H12  408   1.875   2.643   2.518 -0.5436  2.5831  0.1471
   35HFIP    O1  409   0.656   1.188   1.849 -0.2065  0.0924 -0.6291
   35HFIP    C2  410   0.754   1.092   1.871  0.8205  0.4148  0.1804
   35HFIP    C3  411   0.719   0.958   1.951 -0.8795 -0.9756  0.6109
   35HFIP    F4  412   0.817   0.868   1.922  0.2569 -0.1752 -0.1721
   35HFIP    F5  413   0.605   0.900   1.907  1.0111 -0.2563  0.0810
   35HFIP    F6  414   0.713   0.978   2.087 -0.2280  0.1476  0.4509
   35HFIP    C7  415   0.886   1.152   1.925  0.5510 -0.1479 -0.3165
   35HFIP    F8  416   0.853   1.243   2.028 -0.7729 -0.2153  0.3944
   35HFIP    F9  417   0.946   1.245   1.844 -0.3275  0.4306 -0.2206
   35HFIP   F10  418   0.987   1.070   1.965  0.6124 -0.3039  0.2751
   35HFIP   H11  419   0.571   1.144   1.819  1.0602 -1.5908 -1.7927
   35HFIP   H12  420   0.771   1.061   1.768 -0.3179 -1.0759  0.4216
   36HFIP    O1  421   1.553   2.581   0.353 -0.2874 -0.4601 -0.1500
   36HFIP    C2  422   1.568   2.504   0.472  0.2485 -0.0690  0.0052
   36HFIP    C3  423   1.643   2.580   0.587  1.2661  0.9233  0.2866
   36HFIP    F4  424   1.776   2.603   0.570 -0.1417  0.4175  0.5975
   36HFIP    F5  425   1.647   2.513   0.706 -0.6680  0.5260  0.1352
   36HFIP    F6  426   1.577   2.690   0.634  0.1666 -0.0198 -0.1737
   36HFIP    C7  427   1.625   2.356   0.454  0.1048 -0.1096 -0.1528
   36HFIP    F8  428   1.742   2.351   0.385 -0.1240  0.1731 -0.3871
   36HFIP    F9  429   1.543   2.283   0.376  0.0078 -0.5149 -0.2699
   36HFIP   F10  430   1.631   2.287   0.570 -0.5392 -0.1110 -0.4043
   36HFIP   H11  431   1.518   2.670   0.384 -1.8863 -1.2574  0.4056
   36HFIP   H12  432   1.466   2.493   0.510  0.9383  0.8619  2.2415
   37HFIP    O1  433   0.920   2.274   0.486  0.0829  0.0419  0.5900
   37HFIP    C2  434   1.056   2.329   0.509  0.3136 -0.4248 -0.0178
   37HFIP    C3  435   1.080   2.468   0.437  1.0435  1.0573 -0.1895
   37HFIP    F4  436   1.061   2.457   0.300  0.1386 -0.2039  0.2974
   37HFIP    F5  437   1.199   2.519   0.476 -0.2838 -0.0072 -0.1155
   37HFIP    F6  438   0.982   2.554   0.479 -0.3630 -0.3891  0.0092
   37HFIP    C7  439   1.166   2.227   0.463  0.0987 -0.5858  0.7741
   37HFIP    F8  440   1.247   2.212   0.568  0.0593 -0.3221 -0.6738
   37HFIP    F9  441   1.248   2.270   0.357  0.0548  0.1209 -0.0829
   37HFIP   F10  442   1.123   2.107   0.425 -0.0031  0.4654 -0.2929
   37HFIP   H11  443   0.837   2.320   0.517 -1.1747 -2.3662  0.9376
   37HFIP   H12  444   1.066   2.356   0.614 -2.7048 -0.2630  0.2559
   38HFIP    O1  445   0.721   1.648   1.043  0.1282 -0.2166 -0.4698
   38HFIP    C2  446   0.732   1.515   1.012 -0.0241 -0.2019  0.2473
   38HFIP    C3  447   0.823   1.431   1.106  0.1154 -0.3804  0.0627
   38HFIP    F4  448   0.777   1.308   1.129 -0.8203  0.1188 -0.0969
   38HFIP    F5  449   0.817   1.483   1.230  0.4123 -0.1295  0.1266
   38HFIP    F6  450   0.954   1.416   1.078 -0.3407 -0.3337  0.4200
   38HFIP    C7  451   0.741   1.469   0.863 -0.1552  0.2144  0.0486
   38HFIP    F8  452   0.652   1.532   0.777 -0.0278 -0.4550 -0.2673
   38HFIP    F9  453   0.730   1.333   0.847 -0.3783 -0.1291 -0.1407
   38HFIP   F10  454   0.860   1.504   0.813 -0.1896  0.3578 -0.3891
   38HFIP   H11  455   0.628   1.676   1.021  0.8453  1.6589 -1.2222
   38HFIP   H12  456   0.633   1.487   1.048 -0.1029 -1.7267 -1.0645
   39HFIP    O1  457   1.445   1.372   1.191 -0.3648  0.2765  0.9884
   39HFIP    C2  458   1.497   1.295   1.084  0.0280 -0.5409  0.5440
   39HFIP    C3  459   1.527   1.145   1.116 -0.4862 -0.3028 -1.0372
   39HFIP    F4  460   1.650   1.116   1.163  0.3985 -0.1644 -0.5076
   39HFIP    F5  461   1.520   1.066   1.001 -0.1834 -0.4220 -0.0624
   39HFIP    F6  462   1.450   1.105   1.217 -0.2541 -0.4637  0.0388
   39HFIP    C7  463   1.619   1.361   1.010 -0.2798  0.3430 -0.0119
   39HFIP    F8  464   1.602   1.493   0.994 -0.0207 -0.1556 -0.1976
   39HFIP    F9  465   1.620   1.316   0.881 -0.2878  0.4522 -0.0299
   39HFIP   F10  466   1.738   1.349   1.064  0.1716 -0.3486 -0.3331
   39HFIP   H11  467   1.437   1.471   1.182 -1.1636  0.1126 -0.2026
   39HFIP   H12  468   1.417   1.290   1.009 -0.1364  1.4340  0.5534
   40HFIP    O1  469   1.364   1.927   1.989 -0.6964  0.1336  0.4886
   40HFIP    C2  470   1.333   1.958   1.856 -0.0830 -0.5685  0.0990
   40HFIP    C3  471   1.178   1.950   1.818  0.5879 -0.6330  0.9449
   40HFIP    F4  472   1.106   2.038   1.891  0.2503 -0.0011  0.3523
   40HFIP    F5  473   1.126   1.829   1.838 -0.1756 -0.7175  0.1130
   40HFIP    F6  474   1.146   1.981   1.688  0.0996 -0.0584 -0.4540
   40HFIP    C7  475   1.429   1.894   1.746 -0.1601  0.2554 -0.4652
   40HFIP    F8  476   1.382   1.790   1.671 -0.2557 -0.3588 -0.6880
   40HFIP    F9  477   1.539   1.837   1.804  0.1398 -0.3252 -0.3671
   40HFIP   F10  478   1.471   1.981   1.649  0.1651 -0.2255 -0.2920
   40HFIP   H11  479   1.334   1.835   2.018  1.4722 -0.7947 -0.1300
   40HFIP   H12  480   1.364   2.062   1.863 -0.6885 -0.4316  0.8806
   41HFIP    O1  481   0.426   1.134   2.449  0.0036 -0.7348  0.0367
   41HFIP    C2  482   0.370   1.105   2.320 -0.2687  0.1219  0.1044
   41HFIP    C3  483   0.442   1.166   2.205  0.6784 -0.7837 -0.3665
   41HFIP    F4  484   0.410   1.121   2.083 -0.1639 -0.5012 -0.2631
   41HFIP    F5  485   0.578   1.165   2.215 -0.3062  0.5285 -0.1324
   41HFIP    F6  486   0.409   1.298   2.203  0.1629  0.4601  0.3613
   41HFIP    C7  487   0.216   1.111   2.304  0.0431  0.1529  0.2631
   41HFIP    F8  488   0.152   1.019   2.380 -0.7518 -0.4566 -0.4080
   41HFIP    F9  489   0.164   1.083   2.182  0.1007 -0.4279  0.5952
   41HFIP   F10  490   0.164   1.227   2.353 -0.1283  0.2735 -0.0075
   41HFIP   H11  491   0.518   1.172   2.436 -0.7909  1.4277  0.5706
   41HFIP   H12  492   0.391   1.001   2.296 -0.6245  0.5075 -2.0054
   42HFIP    O1  493   0.749   2.594   0.761 -1.0667  0.1706 -0.0607
   42HFIP    C2  494   0.809   2.554   0.884  0.5785 -0.5714  0.4286
   42HFIP    C3  495   0.934   2.462   0.882  0.1162 -0.2926  0.5498
   42HFIP    F4  496   0.983   2.451   1.004  0.1087 -0.2733 -0.4372
   42HFIP    F5  497   1.032   2.519   0.803 -0.0031  0.3957  0.5350
   42HFIP    F6  498   0.902   2.339   0.836  0.1543  0.1722 -0.1132
   42HFIP    C7  499   0.701   2.509   0.986  0.6940 -0.2917  0.5680
   42HFIP    F8  500   0.747   2.484   1.109  0.3117 -0.1146 -0.4152
   42HFIP    F9  501   0.631   2.400   0.944  0.5655 -0.4096  0.0867
   42HFIP   F10  502   0.612   2.607   0.997  0.1193 -0.1726 -0.0469
   42HFIP   H11  503   0.753   2.694   0.760  1.6438  0.0990 -0.7315
   42HFIP   H12  504   0.850   2.648   0.920 -0.8761  1.0778 -2.1058
   43HFIP    O1  505   0.935   1.755   1.137 -0.1891  0.0248  0.2003
   43HFIP    C2  506   0.924   1.871   1.208  0.5867 -0.2116  0.1873
   43HFIP    C3  507   0.906   1.845   1.368 -0.4941 -0.5371  0.1853
   43HFIP    F4  508   0.953   1.735   1.431  0.2098 -0.0909  0.3197
   43HFIP    F5  509   0.772   1.836   1.398 -0.0274  0.0936 -0.0765
   43HFIP    F6  510   0.967   1.943   1.437 -0.2138 -0.3645 -0.2813
   43HFIP    C7  511   0.816   1.967   1.150 -0.2972 -0.3912  0.1528
   43HFIP    F8  512   0.807   2.079   1.226 -0.3059 -0.3009 -0.3179
   43HFIP    F9  513   0.700   1.908   1.118  0.1162  0.4182 -0.2381
   43HFIP   F10  514   0.863   2.016   1.029  0.0375  0.0549 -0.0300
   43HFIP   H11  515   0.852   1.710   1.105  1.1680 -1.2319 -1.6514
   43HFIP   H12  516   1.023   1.917   1.203 -0.2419  1.9386  2.5737
   44HFIP    O1  517   1.296   1.695   2.068  0.0931  0.1062 -0.1238
   44HFIP    C2  518   1.163   1.661   2.104 -0.0324 -0.0503 -0.3861
   44HFIP    C3  519   1.136   1.658   2.258  0.5221  0.7821 -0.0689
   44HFIP    F4  520   1.011   1.624   2.296 -0.1391 -0.4700 -0.4890
   44HFIP    F5  521   1.141   1.786   2.307  0.5892 -0.0612 -0.1125
   44HFIP    F6  522   1.225   1.584   2.325  0.0977  0.0180  0.5944
   44HFIP    C7  523   1.113   1.532   2.026  0.5019  0.3308 -0.2245
   44HFIP    F8  524   0.978   1.513   2.045 -0.6025  0.0567 -0.1030
   44HFIP    F9  525   1.183   1.419   2.061  0.2021  0.3733 -0.0522
   44HFIP   F10  526   1.128   1.558   1.893 -0.2714 -0.1993  0.4000
   44HFIP   H11  527   1.354   1.618   2.091 -1.5813 -1.8457 -2.2281
   44HFIP   H12  528   1.100   1.746   2.078 -1.1005 -1.1880 -1.5517
   45HFIP    O1  529   1.494   2.046   2.160 -0.0222 -1.0016 -0.0268
   45HFIP    C2  530   1.439   2.040   2.289  0.4846 -0.1670 -0.3802
   45HFIP    C3  531   1.478   2.170   2.375 -0.5466 -0.1091  0.9398
   45HFIP    F4  532   1.615   2.191   2.377  0.0316  0.1611  0.1579
   45HFIP    F5  533   1.433   2.171   2.502  0.4063 -0.2238  0.1324
   45HFIP    F6  534   1.425   2.285   2.331 -0.0364  0.3564  0.1326
   45HFIP    C7  535   1.477   1.910   2.365  0.1851 -0.4103 -0.7066
   45HFIP    F8  536   1.604   1.910   2.416 -0.0302 -0.1513 -0.6904
   45HFIP    F9  537   1.476   1.802   2.281  0.0326 -0.4397  0.0524
   45HFIP   F10  538   1.384   1.894   2.469 -0.0440  0.0677 -0.0114
   45HFIP   H11  539   1.445   1.997   2.088  1.2281  0.5195 -1.9750
   45HFIP   H12  540   1.331   2.050   2.283  0.2551 -0.4467  2.5068
   46HFIP    O1  541   1.311   0.210   0.443 -0.0252 -0.0865 -0.2313
   46HFIP    C2  542   1.195   0.195   0.516 -0.4711 -0.2153  0.0581
   46HFIP    C3  543   1.205   0.154   0.666 -0.0902 -0.1866  0.3660
   46HFIP    F4  544   1.225   0.021   0.688  0.2989  0.3146  0.6490
   46HFIP    F5  545   1.102   0.200   0.739 -0.3496 -0.3630 -0.1325
   46HFIP    F6  546   1.314   0.210   0.729 -0.0656 -0.2403  0.0359
   46HFIP    C7  547   1.100   0.100   0.435  0.5653  0.7311 -0.2241
   46HFIP    F8  548   1.171  -0.004   0.387  0.5907 -0.1323 -0.2157
   46HFIP    F9  549   1.058   0.163   0.319  0.2877 -0.3161  0.2667
   46HFIP   F10  550   0.987   0.052   0.499 -0.1120 -0.0356 -0.0761
   46HFIP   H11  551   1.353   0.301   0.447  0.9555 -0.4971 -1.1488
   46HFIP   H12  552   1.138   0.288   0.515  2.6609  1.7754 -1.8360
   47HFIP    O1  553   0.382   0.199   0.044 -0.0575 -0.3037 -0.1025
   47HFIP    C2  554   0.457   0.265   0.142 -0.3298  0.2463  0.0521
   47HFIP    C3  555   0.496   0.414   0.106 -0.3249 -0.6238  0.4908
   47HFIP    F4  556   0.621   0.431   0.054  0.3188 -0.6903 -0.0794
   47HFIP    F5  557   0.486   0.503   0.207  0.6330 -0.2502  0.0996
   47HFIP    F6  558   0.411   0.463   0.011 -0.2284 -0.0142  0.1994
   47HFIP    C7  559   0.589   0.196   0.182 -0.1820  0.0659 -0.8491
   47HFIP    F8  560   0.564   0.076   0.241 -0.1872  0.4499  0.4936
   47HFIP    F9  561   0.667   0.265   0.272  0.0628  0.1528  0.5771
   47HFIP   F10  562   0.663   0.153   0.077 -0.0524  0.6090  0.0669
   47HFIP   H11  563   0.444   0.155  -0.021  1.5905 -1.8167  2.3934
   47HFIP   H12  564   0.398   0.273   0.233 -1.8605  0.1820 -0.9198
   48HFIP    O1  565   2.742   0.208   2.159  0.4614 -0.7505 -0.0393
   48HFIP    C2  566   2.788   0.077   2.131  0.2968  0.3796  0.0994
   48HFIP    C3  567   2.713  -0.004   2.018 -0.6021 -1.1341  0.1934
   48HFIP    F4  568   2.757  -0.130   2.000  0.3480 -0.8907  0.6110
   48HFIP    F5  569   2.740   0.043   1.893 -0.5507  0.1192  0.0518
   48HFIP    F6  570   2.580  -0.026   2.030  0.3443  0.6340 -0.3164
   48HFIP    C7  571   2.810  -0.017   2.261 -0.1815  0.0646  0.4210
   48HFIP    F8  572   2.885  -0.127   2.249 -0.2419  0.0667  0.1228
   48HFIP    F9  573   2.698  -0.044   2.329 -0.1349  0.0226 -0.4045
   48HFIP   F10  574   2.878   0.043   2.362  0.1379  0.1994  0.3122
   48HFIP   H11  575   2.666   0.237   2.100 -1.3193  0.5152  2.7875
   48HFIP   H12  576   2.892   0.086   2.098  0.9604  0.8570  2.2573
   49HFIP    O1  577   2.695   2.364   1.280 -0.4307 -0.2490 -0.1215
   49HFIP    C2  578   2.653   2.343   1.152  0.3172 -0.0427  0.8629
   49HFIP    C3  579   2.742   2.411   1.043 -0.9597 -0.9593 -0.2290
   49HFIP    F4  580   2.870   2.400   1.071 -0.4750  0.6876 -0.6827
   49HFIP    F5  581   2.717   2.543   1.031  0.0130 -0.1843 -0.0829
   49HFIP    F6  582   2.735   2.353   0.917  0.1403 -0.1169 -0.9938
   49HFIP    C7  583   2.505   2.382   1.111  0.4699  0.5003 -0.6827
   49HFIP    F8  584   2.478   2.513   1.146  0.3169  0.4028  0.4808
   49HFIP    F9  585   2.415   2.307   1.185 -0.5107  0.1688 -0.6237
   49HFIP   F10  586   2.479   2.351   0.982  0.1730  0.5218 -0.0430
   49HFIP   H11  587   2.675   2.460   1.300  1.7552  0.2729 -0.3700
   49HFIP   H12  588   2.652   2.235   1.137  0.7538 -0.0446  0.8244
   50HFIP    O1  589   0.510   0.096   2.660  0.1370  0.8918  0.2861
   50HFIP    C2  590   0.488   0.145   2.531 -0.0427  0.3952  0.3743
   50HFIP    C3  591   0.495   0.030   2.420 -0.6622  0.2204  0.3855
   50HFIP    F4  592   0.454  -0.096   2.455 -0.1588 -0.3343  0.2587
   50HFIP    F5  593   0.613   0.002   2.360 -0.1770 -0.0028 -0.1575
   50HFIP    F6  594   0.417   0.065   2.312  0.1034 -0.5364  0.3189
   50HFIP    C7  595   0.565   0.272   2.492 -0.3454 -0.0950  0.1168
   50HFIP    F8  596   0.695   0.237   2.495 -0.9840 -0.8064 -0.0686
   50HFIP    F9  597   0.560   0.374   2.579  0.5511 -0.3515  0.5621
   50HFIP   F10  598   0.536   0.307   2.364 -0.1062 -0.6540 -0.0119
   50HFIP   H11  599   0.576   0.022   2.650  0.5697  0.9105  2.6984
   50HFIP   H12  600   0.384   0.178   2.530  0.3848  1.7692 -2.3022
   51HFIP    O1  601   1.001   1.895   0.074  0.0331  0.3075 -0.2341
   51HFIP    C2  602   0.952   1.996  -0.007  0.7074  0.2890  0.3318
   51HFIP    C3  603   1.004   1.983  -0.153  0.2623 -0.0764 -0.5927
   51HFIP    F4  604   0.965   1.869  -0.221  0.5884  0.6617 -0.4630
   51HFIP    F5  605   1.139   2.000  -0.161 -0.2331  0.0007  0.3995
   51HFIP    F6  606   0.948   2.083  -0.229  0.0173 -0.0392  0.4688
   51HFIP    C7  607   0.972   2.134   0.060 -0.0097  0.2926  0.0919
   51HFIP    F8  608   1.096   2.187   0.063  0.3175 -0.3773 -0.1745
   51HFIP    F9  609   0.942   2.128   0.191 -0.2648 -0.0461  0.0410
   51HFIP   F10  610   0.892   2.237   0.016  0.6283  0.0247  0.0743
   51HFIP   H11  611   0.981   1.905   0.172 -1.5799  2.0862 -0.7235
   51HFIP   H12  612   0.843   1.992  -0.009  0.7056  0.1006  0.6877
   52HFIP    O1  613   1.126   0.638   1.276  0.3979  0.4013 -0.4217
   52HFIP    C2  614   1.154   0.607   1.140 -0.6358 -0.4294 -0.2556
   52HFIP    C3  615   1.029   0.592   1.042  0.3141 -0.4272 -0.2592
   52HFIP    F4  616   1.043   0.575   0.911 -0.3228  0.6544  0.1314
   52HFIP    F5  617   0.964   0.713   1.047 -0.5959  0.4111 -0.1850
   52HFIP    F6  618   0.936   0.507   1.089  0.1279 -0.2866 -0.2884
   52HFIP    C7  619   1.237   0.475   1.131 -1.1966  0.0273  0.1758
   52HFIP    F8  620   1.160   0.363   1.124  0.1671 -0.5106 -0.3431
   52HFIP    F9  621   1.322   0.454   1.236 -0.6470  0.3237 -0.1009
   52HFIP   F10  622   1.303   0.471   1.014 -0.2811 -0.0962  0.1559
   52HFIP   H11  623   1.186   0.704   1.321  0.1179  1.0019 -0.9274
   52HFIP   H12  624   1.221   0.681   1.097 -1.7405 -0.8970 -2.8784
   53HFIP    O1  625   0.941   0.465   1.383  0.1807 -0.4646  0.3325
   53HFIP    C2  626   0.866   0.538   1.486  0.2040  0.5777  0.2494
   53HFIP    C3  627   0.744   0.610   1.426  0.4776  0.1794 -0.2697
   53HFIP    F4  628   0.682   0.512   1.349 -0.8162  0.1668  0.1102
   53HFIP    F5  629   0.775   0.706   1.336 -0.4586 -0.3161 -0.0207
   53HFIP    F6  630   0.656   0.659   1.514  0.1642 -0.3996  0.1170
   53HFIP    C7  631   0.948   0.623   1.584  0.3836 -0.1153 -0.5929
   53HFIP    F8  632   1.001   0.730   1.524  0.7915  0.4482 -0.0417
   53HFIP    F9  633   1.051   0.542   1.627 -0.2231 -0.3757 -1.0719
   53HFIP   F10  634   0.885   0.665   1.697 -0.2947  0.4421  0.2169
   53HFIP   H11  635   0.973   0.533   1.317 -1.5615  0.7289  0.6532
   53HFIP   H12  636   0.813   0.464   1.546 -1.8167  1.2064 -0.7206
   54HFIP    O1  637   1.408   1.624   1.194 -0.5579  0.0201 -1.1698
   54HFIP    C2  638   1.498   1.732   1.230  0.7879 -0.0590  0.4648
   54HFIP    C3  639   1.611   1.679   1.319 -0.4309 -0.4820 -0.0556
   54HFIP    F4  640   1.584   1.674   1.448  0.6243  0.2748 -0.1681
   54HFIP    F5  641   1.722   1.752   1.319  0.6789  0.4135  0.2223
   54HFIP    F6  642   1.648   1.559   1.271  0.3361 -0.3123  0.2797
   54HFIP    C7  643   1.428   1.863   1.285 -0.1235  0.1381  0.1201
   54HFIP    F8  644   1.325   1.839   1.372  0.0561 -0.4053 -0.1271
   54HFIP    F9  645   1.380   1.944   1.185  0.1596  0.3291  0.4010
   54HFIP   F10  646   1.511   1.944   1.354  0.1145 -0.1031 -0.2800
   54HFIP   H11  647   1.331   1.662   1.141 -1.1876 -0.0383 -0.3046
   54HFIP   H12  648   1.548   1.772   1.141 -3.6023  1.8738 -1.2822
   55HFIP    O1  649   1.972   2.630   1.365 -0.1346 -0.3204 -0.5260
   55HFIP    C2  650   2.019   2.759   1.346 -0.2908 -0.2401  0.9089
   55HFIP    C3  651   1.980   2.839   1.217 -0.0902 -0.0489 -0.3629
   55HFIP    F4  652   2.036   2.791   1.099  0.1449  0.2633 -0.5455
   55HFIP    F5  653   2.005   2.969   1.237  0.2058  0.1343  0.4565
   55HFIP    F6  654   1.846   2.843   1.189  0.1813 -0.1797 -0.5693
   55HFIP    C7  655   2.174   2.772   1.361  0.0917 -0.1258  0.0933
   55HFIP    F8  656   2.211   2.729   1.488  0.0359 -0.3716  0.0674
   55HFIP    F9  657   2.221   2.898   1.369 -0.0732  0.0966 -0.5609
   55HFIP   F10  658   2.245   2.713   1.261  1.1419 -0.2035 -0.0030
   55HFIP   H11  659   1.958   2.573   1.283 -0.3515 -0.2083 -0.5690
   55HFIP   H12  660   1.975   2.818   1.426 -1.9867  0.1852 -0.3150
   56HFIP    O1  661   1.947   1.631   2.749  0.1040  0.1711  0.2129
   56HFIP    C2  662   1.959   1.619   2.605 -0.1010  0.4062 -0.1770
   56HFIP    C3  663   2.099   1.652   2.545 -0.0673 -0.5069 -0.5216
   56HFIP    F4  664   2.129   1.786   2.544  0.6012  0.0617  0.7192
   56HFIP    F5  665   2.128   1.618   2.419  0.7439 -0.4870  0.0879
   56HFIP    F6  666   2.200   1.595   2.617  0.3663  0.2997 -0.2360
   56HFIP    C7  667   1.849   1.700   2.532 -0.1385 -0.0753  0.2458
   56HFIP    F8  668   1.835   1.834   2.555  0.3389  0.8260  0.0360
   56HFIP    F9  669   1.725   1.652   2.564  0.0278  0.2669  0.2609
   56HFIP   F10  670   1.860   1.691   2.393 -0.5065 -0.0814  0.0878
   56HFIP   H11  671   1.859   1.600   2.785 -0.2469  0.7469 -0.1297
   56HFIP   H12  672   1.935   1.514   2.590  0.7337  0.0550  0.8614
   57HFIP    O1  673   1.700   1.568   0.039  0.5370  0.1460  0.1026
   57HFIP    C2  674   1.705   1.443   0.102  0.4101 -0.1333  0.0417
   57HFIP    C3  675   1.782   1.438   0.240  0.6842 -0.6973 -0.1429
   57HFIP    F4  676   1.734   1.515   0.338  0.2871  0.0477 -0.0430
   57HFIP    F5  677   1.908   1.480   0.228 -0.3818  0.6808 -0.3651
   57HFIP    F6  678   1.786   1.313   0.289  0.1899 -0.0038  0.1864
   57HFIP    C7  679   1.749   1.324   0.004 -0.4600 -0.0353 -0.6325
   57HFIP    F8  680   1.701   1.351  -0.121 -0.5862 -0.1216 -0.5811
   57HFIP    F9  681   1.697   1.203   0.039 -0.2608 -0.1495  0.6431
   57HFIP   F10  682   1.883   1.303  -0.010 -0.3826  0.4544 -0.2552
   57HFIP   H11  683   1.611   1.610   0.052 -0.4530 -0.9493 -2.6242
   57HFIP   H12  684   1.605   1.416   0.135  1.1182 -1.6689  1.0101
   58HFIP    O1  685   2.636   2.597   1.356  0.2741 -0.0523  0.3852
   58HFIP    C2  686   2.541   2.614   1.467  0.1133 -0.3385  0.7400
   58HFIP    C3  687   2.604   2.692   1.593  0.0206 -0.0107  0.3267
   58HFIP    F4  688   2.683   2.792   1.548  0.7048 -0.0180 -0.1920
   58HFIP    F5  689   2.678   2.608   1.674  0.4135 -0.6759  0.6576
   58HFIP    F6  690   2.512   2.747   1.673 -0.2333 -0.2203 -0.2856
   58HFIP    C7  691   2.452   2.491   1.506 -0.1248  0.6667  0.8465
   58HFIP    F8  692   2.382   2.500   1.623  0.2088  0.2025 -0.0579
   58HFIP    F9  693   2.521   2.374   1.524 -0.1933  0.0483  0.7178
   58HFIP   F10  694   2.357   2.475   1.408 -0.3437 -0.3219  0.3893
   58HFIP   H11  695   2.678   2.676   1.312 -0.6906 -0.2654 -0.9685
   58HFIP   H12  696   2.471   2.694   1.443  0.0639  0.1406  2.4263
   59HFIP    O1  697   1.906   2.511   0.051  0.2634 -0.2731  0.0515
   59HFIP    C2  698   1.954   2.381   0.023  0.3632  0.0761  0.2702
   59HFIP    C3  699   2.098   2.345   0.068 -0.4038  0.0264 -1.2296
   59HFIP    F4  700   2.120   2.366   0.202 -0.7358  0.2082  0.0587
   59HFIP    F5  701   2.190   2.428   0.014  0.6261 -0.3173  0.3517
   59HFIP    F6  702   2.128   2.213   0.060  0.5892 -0.1154 -0.3717
   59HFIP    C7  703   1.931   2.343  -0.124  0.2092 -0.1752  0.0678
   59HFIP    F8  704   2.015   2.415  -0.198  0.3567  0.3272 -0.1904
   59HFIP    F9  705   1.813   2.392  -0.169  0.6623 -0.3575 -0.0648
   59HFIP   F10  706   1.935   2.211  -0.162  0.0520 -0.2282 -0.4862
   59HFIP   H11  707   1.816   2.512   0.094 -0.2264  2.7470 -0.9384
   59HFIP   H12  708   1.882   2.317   0.074  1.2199  1.1379  2.9066
   60HFIP    O1  709   2.725   1.781   2.313  0.0692  0.1501  0.1229
   60HFIP    C2  710   2.857   1.741   2.284 -0.2785 -0.3913  0.0325
   60HFIP    C3  711   2.872   1.607   2.200  0.4046 -0.3923  0.2150
   60HFIP    F4  712   2.834   1.490   2.269 -0.4491 -0.0280 -0.5420
   60HFIP    F5  713   2.998   1.585   2.152  0.7216 -0.3985  0.2178
   60HFIP    F6  714   2.784   1.610   2.098  0.2340  0.6588  0.0744
   60HFIP    C7  715   2.950   1.733   2.408 -0.2706  0.3551 -0.9909
   60HFIP    F8  716   2.901   1.658   2.516 -0.4932  0.0668  0.0272
   60HFIP    F9  717   2.970   1.862   2.459  0.4582 -0.2576  0.1834
   60HFIP   F10  718   3.079   1.694   2.384  0.5828  0.3359 -0.0299
   60HFIP   H11  719   2.674   1.788   2.227 -3.2960  0.0945  2.0419
   60HFIP   H12  720   2.904   1.817   2.221 -0.1145  0.0640  0.7034
   61HFIP    O1  721   1.640   2.515   0.124 -0.3137  0.1540  0.0270
   61HFIP    C2  722   1.535   2.526   0.023  0.5435  0.5697  0.1941
   61HFIP    C3  723   1.551   2.650  -0.064 -0.3923  0.3055  0.6222
   61HFIP    F4  724   1.673   2.648  -0.129 -0.2619  0.7740  0.4326
   61HFIP    F5  725   1.544   2.765   0.011  0.2147 -0.0779  0.8427
   61HFIP    F6  726   1.458   2.655  -0.164 -0.2719 -0.0607 -0.7575
   61HFIP    C7  727   1.394   2.502   0.077  0.1535  0.4149  0.2479
   61HFIP    F8  728   1.396   2.397   0.172 -0.0622 -0.0802 -0.1093
   61HFIP    F9  729   1.308   2.465  -0.024 -0.3841 -0.3506  0.1070
   61HFIP   F10  730   1.342   2.604   0.145 -0.5168 -0.5877  0.3246
   61HFIP   H11  731   1.604   2.518   0.217 -1.5494  0.2222 -0.4447
   61HFIP   H12  732   1.536   2.436  -0.037 -2.4307  0.1789  0.6402
   62HFIP    O1  733   2.248   0.698   0.929 -0.2079  0.4393 -0.3909
   62HFIP    C2  734   2.376   0.751   0.978 -0.5373  0.7975 -0.9449
   62HFIP    C3  735   2.400   0.904   0.961 -0.1610  1.0011 -0.2767
   62HFIP    F4  736   2.337   0.976   1.054  0.8725 -0.6812  0.6915
   62HFIP    F5  737   2.362   0.935   0.833 -0.1885  0.4077 -0.2590
   62HFIP    F6  738   2.528   0.942   0.962 -0.0033 -0.0358 -0.0423
   62HFIP    C7  739   2.498   0.669   0.923 -0.7737 -0.3063  0.3848
   62HFIP    F8  740   2.608   0.669   1.012  0.0832  0.5134  0.4249
   62HFIP    F9  741   2.543   0.710   0.802  0.4602  0.0340 -0.5243
   62HFIP   F10  742   2.465   0.541   0.902  0.2973 -0.0647  0.0434
   62HFIP   H11  743   2.206   0.756   0.860 -0.4207  0.4103 -0.2853
   62HFIP   H12  744   2.377   0.750   1.087 -1.5269  1.9074 -0.9132
   63HFIP    O1  745   1.192   1.739   1.054 -0.1069  0.6538  1.0421
   63HFIP    C2  746   1.227   1.754   0.919  0.0591  0.4136 -0.2198
   63HFIP    C3  747   1.131   1.838   0.839 -0.0110  0.5867 -0.0271
   63HFIP    F4  748   1.113   1.960   0.898  0.0712  0.0335  0.3344
   63HFIP    F5  749   1.009   1.784   0.833  0.3148 -0.0199 -0.2119
   63HFIP    F6  750   1.166   1.881   0.715 -0.8637 -0.0015  0.2787
   63HFIP    C7  751   1.262   1.626   0.837  0.2017  0.5814  0.4148
   63HFIP    F8  752   1.157   1.545   0.834 -0.1616 -0.7160  0.0972
   63HFIP    F9  753   1.352   1.548   0.903  0.9249  0.3130 -0.3613
   63HFIP   F10  754   1.306   1.643   0.713  0.0752 -0.2492  0.2668
   63HFIP   H11  755   1.094   1.742   1.075 -0.9588  1.8030 -2.6892
   63HFIP   H12  756   1.318   1.815   0.918  1.2446 -1.3050  0.6768
   64HFIP    O1  757   2.165   2.710   2.545  0.3198 -0.1441  1.1277
   64HFIP    C2  758   2.301   2.742   2.525 -1.0967  0.1288 -0.5816
   64HFIP    C3  759   2.401   2.662   2.624 -0.6460  0.1833 -0.3487
   64HFIP    F4  760   2.402   2.534   2.582  0.3205 -0.0867 -0.3883
   64HFIP    F5  761   2.354   2.657   2.750 -0.3452  0.0033 -0.4745
   64HFIP    F6  762   2.534   2.697   2.626  0.4720 -0.2103 -0.0187
   64HFIP    C7  763   2.322   2.898   2.521 -0.1465  0.6673 -0.6423
   64HFIP    F8  764   2.233   2.972   2.443 -0.0366 -0.5968 -0.0900
   64HFIP    F9  765   2.447   2.932   2.486 -0.3185  0.3310 -0.1467
   64HFIP   F10  766   2.319   2.945   2.650 -0.0028 -0.6326  0.3388
   64HFIP   H11  767   2.135   2.724   2.640  0.9206 -0.1028  1.3145
   64HFIP   H12  768   2.339   2.702   2.431  0.4779 -0.0303  0.1111
   65HFIP    O1  769   1.443   1.495   2.110 -0.1706  0.1293 -0.2184
   65HFIP    C2  770   1.578   1.508   2.142  0.1498 -0.4108  0.2567
   65HFIP    C3  771   1.674   1.511   2.026  0.3881 -0.1390 -0.4166
   65HFIP    F4  772   1.801   1.545   2.066 -0.3857  0.1665 -0.1105
   65HFIP    F5  773   1.641   1.603   1.933  0.2907  0.2991  0.2353
   65HFIP    F6  774   1.677   1.391   1.958  0.1914  0.2926  0.5498
   65HFIP    C7  775   1.637   1.407   2.249  0.0955 -0.5600  0.3575
   65HFIP    F8  776   1.657   1.282   2.205 -0.2459  0.1457 -0.2306
   65HFIP    F9  777   1.548   1.394   2.350 -0.4741 -0.3520  0.1205
   65HFIP   F10  778   1.756   1.434   2.311  0.1570 -0.1333  0.1219
   65HFIP   H11  779   1.420   1.400   2.088  1.7068 -0.0551 -1.4984
   65HFIP   H12  780   1.597   1.607   2.185 -1.5584 -0.0756  0.2960
   66HFIP    O1  781   1.886   2.249   0.906 -0.2836 -0.0923  0.0707
   66HFIP    C2  782   1.797   2.329   0.974 -0.6592  0.1975 -0.0354
   66HFIP    C3  783   1.850   2.401   1.107  0.1498  0.1176  0.1199
   66HFIP    F4  784   1.845   2.314   1.210  0.3068  0.0224  0.0894
   66HFIP    F5  785   1.763   2.505   1.136  0.5538  0.2533 -0.2710
   66HFIP    F6  786   1.980   2.436   1.116  0.3673  0.3645 -0.1980
   66HFIP    C7  787   1.653   2.269   0.987 -0.6013  0.0379  0.3760
   66HFIP    F8  788   1.574   2.339   1.071  0.0388  0.2303 -0.2174
   66HFIP    F9  789   1.657   2.143   1.042 -0.2387  0.2724  0.5603
   66HFIP   F10  790   1.578   2.268   0.871  0.4920  0.6593 -0.4450
   66HFIP   H11  791   1.981   2.275   0.890 -0.8377  0.8069 -1.9319
   66HFIP   H12  792   1.774   2.415   0.911 -2.4977 -0.4041 -0.1939
   67HFIP    O1  793   0.789   0.046   0.805  0.1150 -0.0181 -0.2342
   67HFIP    C2  794   0.670   0.126   0.816  0.6596 -0.2466  0.3679
   67HFIP    C3  795   0.552   0.090   0.711  0.5714  0.1222  0.4714
   67HFIP    F4  796   0.448   0.176   0.709 -0.1969  0.3215  0.2496
   67HFIP    F5  797   0.485  -0.025   0.744  0.3594 -0.5538  0.1884
   67HFIP    F6  798   0.586   0.068   0.579 -0.1212 -0.4823 -0.9428
   67HFIP    C7  799   0.703   0.276   0.808 -0.1211  0.0058 -0.4221
   67HFIP    F8  800   0.808   0.302   0.890  0.3617 -0.6159  0.4097
   67HFIP    F9  801   0.604   0.351   0.860  0.7392  0.0367  0.2120
   67HFIP   F10  802   0.730   0.324   0.685  0.1452 -0.1436  0.0371
   67HFIP   H11  803   0.876   0.094   0.788 -0.1765  0.8565  0.7050
   67HFIP   H12  804   0.626   0.120   0.916  1.8317 -0.2502  0.8917
   68HFIP    O1  805   0.937   1.882   0.316  0.0605 -0.0681  0.0042
   68HFIP    C2  806   0.880   1.754   0.332  0.2109 -0.2207 -0.4700
   68HFIP    C3  807   0.746   1.752   0.412 -0.6518 -0.4532 -0.5456
   68HFIP    F4  808   0.669   1.649   0.389  0.5249 -0.2905  0.7120
   68HFIP    F5  809   0.668   1.855   0.366 -0.0832 -0.6105 -0.4496
   68HFIP    F6  810   0.757   1.762   0.549  0.1686  0.0616  0.3574
   68HFIP    C7  811   0.975   1.634   0.378 -0.2661 -0.3488  0.0285
   68HFIP    F8  812   1.090   1.637   0.298 -0.5409  0.5279  0.2107
   68HFIP    F9  813   0.936   1.508   0.355 -0.3352  0.7663 -0.3256
   68HFIP   F10  814   1.020   1.645   0.506  0.2728  0.2009  0.0739
   68HFIP   H11  815   0.951   1.930   0.403  0.1162 -0.4381  0.2035
   68HFIP   H12  816   0.836   1.716   0.240 -1.7132 -0.6368  0.5736
   69HFIP    O1  817   2.120   1.165   1.261 -0.2994  0.4780  0.0990
   69HFIP    C2  818   1.993   1.174   1.318  0.4924  0.4147  0.0541
   69HFIP    C3  819   1.944   1.316   1.358  0.8825  0.0890 -0.1885
   69HFIP    F4  820   2.004   1.363   1.472 -0.1224  0.1178 -0.3066
   69HFIP    F5  821   1.809   1.321   1.381  0.1684 -0.3395  0.3451
   69HFIP    F6  822   1.968   1.419   1.272  0.1040 -0.0567 -0.1950
   69HFIP    C7  823   1.968   1.069   1.430 -0.2248  0.2136 -0.4319
   69HFIP    F8  824   2.058   1.073   1.531  0.0522  0.2535 -0.1747
   69HFIP    F9  825   1.985   0.943   1.378  0.0982 -0.0479 -0.4320
   69HFIP   F10  826   1.842   1.075   1.481 -0.1731  0.4274 -0.1981
   69HFIP   H11  827   2.185   1.195   1.330 -1.3434 -0.5534  1.5494
   69HFIP   H12  828   1.919   1.141   1.245  2.5103 -0.9230 -1.4365
   70HFIP    O1  829   2.020   2.478   2.145 -0.5150 -0.1022 -0.2920
   70HFIP    C2  830   2.141   2.515   2.082  0.3471 -0.0383 -0.3490
   70HFIP    C3  831   2.260   2.439   2.143  0.8288  0.7304  0.1736
   70HFIP    F4  832   2.253   2.307   2.142 -0.5980  0.0871 -0.9799
   70HFIP    F5  833   2.279   2.473   2.271  0.1683  0.6296 -0.4846
   70HFIP    F6  834   2.376   2.468   2.076  0.3131 -0.3321  0.3894
   70HFIP    C7  835   2.172   2.674   2.069  0.1998 -0.2663  0.6768
   70HFIP    F8  836   2.250   2.708   1.963  0.4273 -0.1535 -0.2389
   70HFIP    F9  837   2.225   2.726   2.183 -0.2970  0.3622  0.1029
   70HFIP   F10  838   2.060   2.750   2.052  0.6015 -0.2528 -0.1505
   70HFIP   H11  839   2.008   2.510   2.239  1.2934 -0.6815  0.1588
   70HFIP   H12  840   2.125   2.480   1.980 -0.9832  0.0982 -0.1917
   71HFIP    O1  841   0.836   1.199   2.595  0.1518 -0.1192  0.1826
   71HFIP    C2  842   0.916   1.087   2.561 -0.7735  0.1630 -0.3580
   71HFIP    C3  843   0.946   1.097   2.411  0.6071 -0.3973 -0.1563
   71HFIP    F4  844   0.839   1.077   2.328  0.2191 -0.4976 -0.0340
   71HFIP    F5  845   1.041   1.010   2.377  0.5977 -0.0376 -0.2811
   71HFIP    F6  846   1.010   1.215   2.382  0.2560  0.1473 -0.3845
   71HFIP    C7  847   0.859   0.942   2.595  0.4237 -0.9382  0.1923
   71HFIP    F8  848   0.816   0.928   2.721 -0.4716  0.1541  0.3398
   71HFIP    F9  849   0.955   0.844   2.581 -0.2878 -0.2433 -0.0169
   71HFIP   F10  850   0.750   0.905   2.530 -0.6590  0.5269  0.1519
   71HFIP   H11  851   0.826   1.211   2.694  1.5104  1.4151  0.1414
   71HFIP   H12  852   1.012   1.092   2.613 -1.4770  1.6791  0.8359
   72HFIP    O1  853   1.266   2.723   1.269  0.1739 -0.8270 -0.1593
   72HFIP    C2  854   1.363   2.724   1.164 -0.5840  0.3093  0.9798
   72HFIP    C3  855   1.497   2.817   1.183  0.4124  0.3575 -0.0176
   72HFIP    F4  856   1.470   2.950   1.210 -0.1033  0.4542  0.8397
   72HFIP    F5  857   1.580   2.809   1.076  0.1046  0.2805  0.0619
   72HFIP    F6  858   1.572   2.772   1.287  0.1635 -0.1270 -0.4025
   72HFIP    C7  859   1.303   2.747   1.020 -0.1111  0.1540 -0.2260
   72HFIP    F8  860   1.314   2.877   0.980  1.0325  0.1154 -0.7793
   72HFIP    F9  861   1.165   2.718   1.011 -0.3578  0.2207  0.2903
   72HFIP   F10  862   1.373   2.671   0.928  0.1895 -0.1505 -0.0936
   72HFIP   H11  863   1.261   2.807   1.323  1.3032 -0.7990 -0.0862
   72HFIP   H12  864   1.407   2.624   1.164  0.7485  0.8891  0.2529
   73HFIP    O1  865   0.230   1.267   0.045  0.0478  0.0676  0.0825
   73HFIP    C2  866   0.130   1.369   0.049  0.1251  0.8374 -0.1741
   73HFIP    C3  867   0.044   1.356   0.176 -0.0106  0.8384  0.3378
   73HFIP    F4  868  -0.026   1.242   0.190  0.6750  0.1953  0.2258
   73HFIP    F5  869  -0.050   1.458   0.188  0.5003  0.0887 -0.3500
   73HFIP    F6  870   0.122   1.362   0.287 -0.2626 -0.5334 -0.2086
   73HFIP    C7  871   0.042   1.372  -0.077  0.2074 -0.1553  0.2025
   73HFIP    F8  872  -0.029   1.258  -0.094 -0.2855 -0.1515  0.3056
   73HFIP    F9  873   0.120   1.395  -0.184 -0.5747  0.0924 -0.7258
   73HFIP   F10  874  -0.043   1.479  -0.078  0.0153 -0.3203 -0.1313
   73HFIP   H11  875   0.233   1.207  -0.035 -0.4605  0.1123  0.0246
   73HFIP   H12  876   0.182   1.464   0.044  1.9111 -0.0802  0.7044
   74HFIP    O1  877   0.487   2.166   2.029  0.3585  0.5751 -0.3608
   74HFIP    C2  878   0.418   2.056   1.975 -0.2217 -0.2831 -0.4753
   74HFIP    C3  879   0.326   2.081   1.857  0.0494  0.3395  0.5399
   74HFIP    F4  880   0.260   1.973   1.802 -0.0090  0.1263 -0.5285
   74HFIP    F5  881   0.399   2.136   1.752  0.1691  0.1607  0.2950
   74HFIP    F6  882   0.237   2.179   1.886  0.2467  0.1813 -0.3322
   74HFIP    C7  883   0.346   1.982   2.092  0.4352 -0.7655 -0.5010
   74HFIP    F8  884   0.273   1.872   2.059 -0.0387  0.5747  0.4546
   74HFIP    F9  885   0.263   2.047   2.175  0.0011 -0.1067  0.3671
   74HFIP   F10  886   0.440   1.934   2.175  0.3034  0.4074  0.4332
   74HFIP   H11  887   0.584   2.148   2.049 -0.2019 -1.6158  0.5217
   74HFIP   H12  888   0.491   1.982   1.941 -0.0480 -0.9438  1.3093
   75HFIP    O1  889   0.761   2.179   2.002  0.1354 -0.5718 -0.4855
   75HFIP    C2  890   0.844   2.210   2.112 -0.0916 -0.2098 -0.2661
   75HFIP    C3  891   0.873   2.080   2.195  0.1130  0.6723 -0.5776
   75HFIP    F4  892   0.906   1.966   2.124 -0.1244  0.2271 -0.6821
   75HFIP    F5  893   0.768   2.039   2.272 -0.0694 -0.3525  0.1950
   75HFIP    F6  894   0.975   2.096   2.284 -0.1724  0.3610  0.4803
   75HFIP    C7  895   0.784   2.322   2.200 -0.5571 -0.3993  0.1021
   75HFIP    F8  896   0.790   2.439   2.126 -0.2503 -0.0696  0.3912
   75HFIP    F9  897   0.858   2.354   2.313 -0.0620 -0.2241  0.2052
   75HFIP   F10  898   0.653   2.308   2.223  0.0664  0.0726  0.3079
   75HFIP   H11  899   0.770   2.247   1.929 -0.9068 -1.0587 -1.0733
   75HFIP   H12  900   0.944   2.242   2.080 -0.1515 -1.5783 -1.8900
   76HFIP    O1  901   1.198   0.102   1.413  0.0089  0.1307  0.0386
   76HFIP    C2  902   1.267   0.099   1.533 -0.3569  0.2753 -0.4684
   76HFIP    C3  903   1.191   0.007   1.633 -0.5040  0.1021 -0.6281
   76HFIP    F4  904   1.058   0.025   1.623  0.2322 -0.1542  0.1609
   76HFIP    F5  905   1.219   0.006   1.766 -0.1733 -0.0147 -0.5669
   76HFIP    F6  906   1.196  -0.121   1.582  0.1341  0.0743  0.2475
   76HFIP    C7  907   1.304   0.236   1.607 -0.4055 -0.5536 -0.0560
   76HFIP    F8  908   1.370   0.316   1.520  0.2849 -0.1743  0.1440
   76HFIP    F9  909   1.396   0.211   1.705 -0.2806  0.5113  0.5141
   76HFIP   F10  910   1.189   0.296   1.659  0.2487 -0.6153  0.3253
   76HFIP   H11  911   1.108   0.146   1.416 -0.7541 -1.3700 -0.3519
   76HFIP   H12  912   1.364   0.053   1.512  0.4274  2.2963 -1.4028
   77HFIP    O1  913   0.957   0.193   1.382  0.5468 -0.0203 -0.1411
   77HFIP    C2  914   0.840   0.154   1.315 -0.4765 -0.3116  0.5029
   77HFIP    C3  915   0.726   0.101   1.409 -0.1462  0.5787 -0.6164
   77HFIP    F4  916   0.768   0.001   1.482 -0.5157  0.1805 -0.1918
   77HFIP    F5  917   0.612   0.065   1.344  0.1690  0.0560 -0.0363
   77HFIP    F6  918   0.683   0.196   1.495 -0.3166 -0.4708 -0.0620
   77HFIP    C7  919   0.860   0.052   1.201  0.3619 -0.2055  0.5387
   77HFIP    F8  920   0.976   0.074   1.128 -0.3016 -0.4107  0.2583
   77HFIP    F9  921   0.757   0.053   1.111 -0.3403  0.4788  0.1888
   77HFIP   F10  922   0.869  -0.075   1.244 -0.1185  0.0932  0.2799
   77HFIP   H11  923   0.952   0.293   1.394 -1.5159 -0.4153  3.0693
   77HFIP   H12  924   0.797   0.238   1.260 -0.5472  0.5881  1.9221
   78HFIP    O1  925   0.500   2.388   1.913  0.5889  0.5409 -0.1781
   78HFIP    C2  926   0.429   2.507   1.921 -0.1546 -0.3589  0.5318
   78HFIP    C3  927   0.320   2.522   2.034 -0.3659  0.5372 -0.7203
   78HFIP    F4  928   0.197   2.500   1.977 -0.3646  0.0633  0.2035
   78HFIP    F5  929   0.320   2.647   2.092  0.2719  0.3022 -0.2584
   78HFIP    F6  930   0.346   2.445   2.142 -0.1052 -0.1872 -0.4942
   78HFIP    C7  931   0.380   2.570   1.781 -0.9347 -0.3103 -0.3288
   78HFIP    F8  932   0.486   2.589   1.692 -0.0361  0.5331  0.2143
   78HFIP    F9  933   0.328   2.692   1.814 -0.0817  0.0998 -0.1531
   78HFIP   F10  934   0.279   2.501   1.722 -0.0450 -0.8177 -0.1596
   78HFIP   H11  935   0.462   2.311   1.964 -2.0231  2.3486  0.7307
   78HFIP   H12  936   0.500   2.574   1.971  1.1337 -2.8271  2.1490
   79HFIP    O1  937   1.808   0.852   2.514  0.0771 -0.3101  0.3346
   79HFIP    C2  938   1.849   0.928   2.405  0.6880  0.4126  0.6135
   79HFIP    C3  939   1.849   0.853   2.266 -0.1334  0.1200 -0.9542
   79HFIP    F4  940   1.723   0.812   2.233 -0.1579  0.1557  0.1067
   79HFIP    F5  941   1.940   0.751   2.256 -0.4088 -0.1658  0.4253
   79HFIP    F6  942   1.873   0.940   2.165 -0.1734  0.2354 -0.1936
   79HFIP    C7  943   1.978   1.012   2.431  0.7209  0.3020 -0.3490
   79HFIP    F8  944   2.086   0.932   2.442  0.1037 -0.0464 -0.1279
   79HFIP    F9  945   1.973   1.088   2.544 -0.1260  0.0682 -0.3397
   79HFIP   F10  946   2.014   1.098   2.338 -0.2360 -0.7402  0.3310
   79HFIP   H11  947   1.877   0.863   2.586  0.6352  0.6451 -0.3292
   79HFIP   H12  948   1.773   1.005   2.392  0.0056 -0.5408 -1.2438
   80HFIP    O1  949   1.341   0.452   2.200 -0.7305  0.4093 -0.1723
   80HFIP    C2  950   1.413   0.471   2.078  0.0566  0.0246 -0.2378
   80HFIP    C3  951   1.538   0.385   2.047 -0.3069 -0.3728 -0.8021
   80HFIP    F4  952   1.509   0.252   2.066 -0.2203  0.3420  0.1986
   80HFIP    F5  953   1.645   0.407   2.127  0.8335  0.2149 -0.1462
   80HFIP    F6  954   1.568   0.387   1.916 -0.3849  0.1401  0.1452
   80HFIP    C7  955   1.442   0.615   2.034 -0.3296 -0.1014  0.2281
   80HFIP    F8  956   1.436   0.704   2.139 -0.1125 -0.3697  0.2119
   80HFIP    F9  957   1.359   0.659   1.939  0.0334  0.6310  0.5703
   80HFIP   F10  958   1.565   0.649   1.984 -0.3647  0.6521 -0.1903
   80HFIP   H11  959   1.391   0.492   2.276  1.7386 -1.7488 -0.6062
   80HFIP   H12  960   1.344   0.439   2.000  0.5043  0.2687 -0.7370
   81HFIP    O1  961   1.480   0.556   2.374 -0.5398  0.4227  0.5248
   81HFIP    C2  962   1.530   0.447   2.449  0.5328 -0.1741 -0.6251
   81HFIP    C3  963   1.443   0.395   2.572  0.3132 -0.4254  0.2874
   81HFIP    F4  964   1.388   0.490   2.655 -0.1509  0.1356 -0.1039
   81HFIP    F5  965   1.492   0.298   2.652  0.2519 -0.2877  0.0307
   81HFIP    F6  966   1.332   0.349   2.507  0.2620 -0.1878 -0.6192
   81HFIP    C7  967   1.678   0.465   2.489  0.2265 -0.7403  0.3753
   81HFIP    F8  968   1.746   0.349   2.507 -0.1324  0.2287  0.1998
   81HFIP    F9  969   1.697   0.533   2.605  0.8674 -1.1055 -0.1517
   81HFIP   F10  970   1.750   0.526   2.394  0.0060  0.2317 -0.5756
   81HFIP   H11  971   1.488   0.647   2.416 -1.8262 -0.2564  2.2910
   81HFIP   H12  972   1.535   0.366   2.376 -0.1543 -1.6337  0.9052
   82HFIP    O1  973   1.196   1.708   0.002 -0.3009 -0.1354  0.0194
   82HFIP    C2  974   1.163   1.595  -0.077  0.2911  0.4544  0.6540
   82HFIP    C3  975   1.067   1.497   0.001  0.1327 -0.1079  0.3800
   82HFIP    F4  976   0.954   1.560   0.046  0.1230 -0.2836 -0.0445
   82HFIP    F5  977   1.130   1.425   0.097  0.0882  0.0203 -0.0883
   82HFIP    F6  978   1.011   1.400  -0.081  0.4117  0.7842  0.3125
   82HFIP    C7  979   1.284   1.518  -0.141  0.4246  0.2569 -0.2201
   82HFIP    F8  980   1.390   1.600  -0.162 -0.0194 -0.1463 -0.1242
   82HFIP    F9  981   1.254   1.461  -0.263 -0.0371 -0.1575  0.1388
   82HFIP   F10  982   1.331   1.419  -0.065  0.4687 -1.1304 -0.1374
   82HFIP   H11  983   1.141   1.791  -0.009  0.0397  0.0076 -0.6745
   82HFIP   H12  984   1.101   1.622  -0.163  0.8934  1.1950  0.4447
   83HFIP    O1  985   2.003   0.639   0.616 -0.4807 -0.3147 -0.1540
   83HFIP    C2  986   2.103   0.597   0.525 -0.2587 -0.4541 -0.0171
   83HFIP    C3  987   2.063   0.475   0.423  0.2791 -0.5151  0.2363
   83HFIP    F4  988   1.937   0.483   0.382 -0.4170  0.0229 -0.0472
   83HFIP    F5  989   2.068   0.362   0.496  0.0094 -0.0303 -0.0642
   83HFIP    F6  990   2.139   0.474   0.315 -0.3254  0.1072  0.1954
   83HFIP    C7  991   2.239   0.566   0.592 -0.1190  0.1625 -0.1134
   83HFIP    F8  992   2.284   0.687   0.634  0.2848 -0.6473  0.1434
   83HFIP    F9  993   2.337   0.511   0.514  0.3709  0.2196  0.0740
   83HFIP   F10  994   2.237   0.494   0.708  0.3474 -0.2230 -0.1915
   83HFIP   H11  995   1.963   0.566   0.672  0.5548  0.4933  1.6293
   83HFIP   H12  996   2.128   0.680   0.460  2.8606 -1.0959  0.2828
   84HFIP    O1  997   2.084   0.824   0.765 -0.3632 -0.0225 -0.3394
   84HFIP    C2  998   2.029   0.955   0.752 -0.0107 -0.2800  0.2304
   84HFIP    C3  999   1.923   0.997   0.854  0.3273  0.8195  0.0733
   84HFIP    F4 1000   1.892   1.129   0.867 -0.1361  0.0951  0.1146
   84HFIP    F5 1001   1.957   0.972   0.985 -0.4255  0.5843 -0.2270
   84HFIP    F6 1002   1.812   0.924   0.827  0.2075 -0.2301  0.0609
   84HFIP    C7 1003   1.983   0.988   0.609 -0.0679 -0.0957  0.6366
   84HFIP    F8 1004   1.891   0.908   0.552  0.7038  0.8577 -0.0120
   84HFIP    F9 1005   2.086   0.983   0.523 -0.1178  0.5704  0.3658
   84HFIP   F10 1006   1.935   1.114   0.589  0.8148  0.5210  0.1160
   84HFIP   H11 1007   2.041   0.771   0.692  0.2926 -1.0347  0.0044
   84HFIP   H12 1008   2.105   1.031   0.769 -1.6198  1.6911 -1.1527
   85HFIP    O1 1009   0.291   1.083   2.672  0.2938 -0.0921  0.0018
   85HFIP    C2 1010   0.348   0.978   2.747 -0.0406 -0.2927 -0.0990
   85HFIP    C3 1011   0.481   1.025   2.819 -0.1525 -0.3450 -0.4150
   85HFIP    F4 1012   0.572   1.087   2.737  0.4061 -0.5014  0.2590
   85HFIP    F5 1013   0.550   0.929   2.889  0.0430  0.4051 -0.4185
   85HFIP    F6 1014   0.450   1.108   2.918  0.5381  0.1956 -0.2858
   85HFIP    C7 1015   0.356   0.838   2.668  0.4363 -0.6118  0.5913
   85HFIP    F8 1016   0.243   0.798   2.609  0.5305 -0.0548  0.6257
   85HFIP    F9 1017   0.384   0.748   2.763 -0.2627  0.0852  0.5526
   85HFIP   F10 1018   0.450   0.834   2.565  0.3169 -0.2803  0.0514
   85HFIP   H11 1019   0.345   1.096   2.589  0.4923 -1.0466 -0.0255
   85HFIP   H12 1020   0.272   0.956   2.822 -0.7274  0.1022 -0.6724
   86HFIP    O1 1021   1.546   0.777   2.506 -0.5479  0.5409  0.4737
   86HFIP    C2 1022   1.462   0.878   2.554  0.5457  0.7207 -0.3179
   86HFIP    C3 1023   1.529   0.984   2.645  0.5305 -0.1334  0.1491
   86HFIP    F4 1024   1.585   0.920   2.753 -0.3355 -0.1122  0.5427
   86HFIP    F5 1025   1.443   1.076   2.695 -0.1449  0.1119 -0.1724
   86HFIP    F6 1026   1.632   1.046   2.587  0.1798  0.1013  0.9536
   86HFIP    C7 1027   1.333   0.827   2.618  0.9782 -0.2341 -0.4436
   86HFIP    F8 1028   1.240   0.924   2.642  0.2433 -0.1786 -0.2190
   86HFIP    F9 1029   1.363   0.761   2.732 -0.6510 -0.0324 -0.2143
   86HFIP   F10 1030   1.271   0.733   2.536  0.1395  0.0133  0.5610
   86HFIP   H11 1031   1.645   0.791   2.518 -0.4365  1.9501 -1.7742
   86HFIP   H12 1032   1.432   0.928   2.462  0.4685  0.2807 -0.5301
   87HFIP    O1 1033   2.101   0.516   0.978 -0.4107 -0.5523 -0.3024
   87HFIP    C2 1034   2.084   0.478   1.115  0.0459  0.1524  0.2516
   87HFIP    C3 1035   2.010   0.576   1.215  0.4007  0.6033  1.0317
   87HFIP    F4 1036   1.926   0.662   1.151  0.6634 -0.3018 -0.1317
   87HFIP    F5 1037   2.095   0.662   1.278 -0.9349 -0.2082 -0.2718
   87HFIP    F6 1038   1.943   0.506   1.311 -0.5292  0.4413  0.0700
   87HFIP    C7 1039   2.221   0.419   1.176 -0.4486  0.0190 -0.1392
   87HFIP    F8 1040   2.257   0.305   1.113  0.0826 -0.4765  0.4894
   87HFIP    F9 1041   2.212   0.382   1.308  0.1589 -0.0274 -0.5465
   87HFIP   F10 1042   2.323   0.510   1.176 -0.2244  0.3760 -0.0587
   87HFIP   H11 1043   2.157   0.599   0.971 -1.9513  0.5694  0.3299
   87HFIP   H12 1044   2.025   0.387   1.100  0.3232  0.2428 -1.5264
   88HFIP    O1 1045   1.443   1.248   2.043 -0.3588  0.2414  0.0570
   88HFIP    C2 1046   1.348   1.153   2.076  0.3868  0.4199  0.1869
   88HFIP    C3 1047   1.366   1.101   2.229 -0.3405  0.0861  0.3069
   88HFIP    F4 1048   1.331   1.191   2.321 -0.1544 -0.1793  0.2623
   88HFIP    F5 1049   1.496   1.077   2.257 -0.8243 -0.4770  0.1749
   88HFIP    F6 1050   1.302   0.983   2.255 -0.6379 -0.0267  0.4756
   88HFIP    C7 1051   1.337   1.040   1.964  0.5569 -0.1312  0.1907
   88HFIP    F8 1052   1.460   0.986   1.931 -0.1017 -0.1019  0.6098
   88HFIP    F9 1053   1.276   1.083   1.843 -0.3039  0.4516 -0.0122
   88HFIP   F10 1054   1.253   0.936   1.998  0.0497  0.2933  0.4128
   88HFIP   H11 1055   1.526   1.209   2.003 -0.9582 -0.3364 -0.6317
   88HFIP   H12 1056   1.245   1.189   2.073 -0.0681 -0.9086 -0.7769
   89HFIP    O1 1057   2.075   2.688   2.805 -0.3465  0.1783 -0.7309
   89HFIP    C2 1058   2.083   2.800   2.890 -0.5465 -0.2804  0.4305
   89HFIP    C3 1059   2.093   2.773   3.042 -0.2394  0.4093  0.6803
   89HFIP    F4 1060   2.177   2.670   3.073  0.4570  0.2461  0.5532
   89HFIP    F5 1061   1.977   2.741   3.099  0.4190  0.6985 -0.1359
   89HFIP    F6 1062   2.154   2.870   3.115 -0.0446 -0.3565  0.1071
   89HFIP    C7 1063   1.966   2.905   2.864  0.3063  0.4827 -0.2690
   89HFIP    F8 1064   1.994   2.969   2.745  0.1699 -0.6823  0.0648
   89HFIP    F9 1065   1.953   2.997   2.961 -0.0776 -0.3467  0.1924
   89HFIP   F10 1066   1.851   2.839   2.849 -0.1533  0.4875  0.0204
   89HFIP   H11 1067   2.013   2.619   2.843  2.5945 -1.3765  1.4430
   89HFIP   H12 1068   2.176   2.848   2.859 -1.1876 -0.1062 -1.3153
   90HFIP    O1 1069   2.121   1.704   0.092  0.1429 -0.3145 -0.1997
   90HFIP    C2 1070   2.102   1.825   0.157 -0.3714 -0.2556 -0.6481
   90HFIP    C3 1071   2.152   1.825   0.302 -0.6413  0.0256  0.0616
   90HFIP    F4 1072   2.107   1.712   0.369 -0.4170 -0.5257 -0.1653
   90HFIP    F5 1073   2.126   1.938   0.371 -0.5948  0.5544  0.2454
   90HFIP    F6 1074   2.285   1.802   0.309 -0.1266  0.0067 -0.2971
   90HFIP    C7 1075   1.956   1.888   0.147 -0.1495 -0.5821  0.1323
   90HFIP    F8 1076   1.942   2.010   0.200 -0.3209 -0.0473 -0.3861
   90HFIP    F9 1077   1.858   1.812   0.198  0.2900 -0.2457 -0.0628
   90HFIP   F10 1078   1.913   1.921   0.019 -0.4761  0.6932 -0.3034
   90HFIP   H11 1079   2.044   1.684   0.031 -0.3650  0.5553  0.1558
   90HFIP   H12 1080   2.158   1.908   0.116 -1.2420  1.0030  0.6248
   91HFIP    O1 1081   2.146   2.267   0.781 -0.2225 -0.0241 -0.0255
   91HFIP    C2 1082   2.187   2.378   0.716  0.0749  0.5935  0.6976
   91HFIP    C3 1083   2.153   2.520   0.773  0.3020  0.0185 -0.4586
   91HFIP    F4 1084   2.218   2.543   0.885  0.1202  0.2710 -0.0700
   91HFIP    F5 1085   2.020   2.540   0.808 -0.0048  0.3763 -0.0065
   91HFIP    F6 1086   2.189   2.621   0.694 -0.6117 -0.0577 -0.2274
   91HFIP    C7 1087   2.153   2.373   0.569  0.6137  0.2879 -0.0873
   91HFIP    F8 1088   2.234   2.455   0.492 -0.2693 -0.4509 -0.6863
   91HFIP    F9 1089   2.031   2.414   0.542  0.6280 -0.1691 -0.4035
   91HFIP   F10 1090   2.153   2.258   0.499 -0.0759  0.4535  0.7413
   91HFIP   H11 1091   2.197   2.186   0.750 -0.0963 -0.2190  0.6852
   91HFIP   H12 1092   2.296   2.378   0.715  0.0768  1.0368  0.8617
   92HFIP    O1 1093   1.854   2.003   0.834  0.5382  0.5596 -0.5451
   92HFIP    C2 1094   1.777   1.955   0.724  0.4604 -0.6756  0.3358
   92HFIP    C3 1095   1.671   1.846   0.751 -0.0196 -0.1792 -0.4756
   92HFIP    F4 1096   1.568   1.844   0.667 -0.6453  0.5730  0.0948
   92HFIP    F5 1097   1.594   1.874   0.870 -0.0506  0.3645  0.1902
   92HFIP    F6 1098   1.721   1.718   0.771 -0.2005 -0.1337 -0.4594
   92HFIP    C7 1099   1.879   1.919   0.600  0.0290 -0.4745 -0.2892
   92HFIP    F8 1100   1.975   1.828   0.629 -0.2392  0.2480 -0.2354
   92HFIP    F9 1101   1.953   2.032   0.571 -0.3438 -0.7965  0.5424
   92HFIP   F10 1102   1.817   1.888   0.484  0.3009 -0.0318  0.5266
   92HFIP   H11 1103   1.863   2.100   0.854 -1.5070  0.7774 -0.5960
   92HFIP   H12 1104   1.715   2.039   0.694  0.0880 -0.7479  0.8882
   93HFIP    O1 1105   2.326   1.245   1.430  0.3297 -0.3102  0.2724
   93HFIP    C2 1106   2.391   1.365   1.451 -0.3614 -0.1930 -0.0100
   93HFIP    C3 1107   2.362   1.421   1.595  0.1215  0.4432 -1.3219
   93HFIP    F4 1108   2.413   1.332   1.684  0.2149  0.3339 -0.2069
   93HFIP    F5 1109   2.231   1.446   1.621 -0.3401  0.1980  0.2551
   93HFIP    F6 1110   2.423   1.533   1.638  0.5075  0.2501  0.4482
   93HFIP    C7 1111   2.373   1.479   1.349  0.3267  0.7785 -0.1799
   93HFIP    F8 1112   2.422   1.438   1.228 -0.1952  0.0954 -0.1347
   93HFIP    F9 1113   2.435   1.596   1.379  0.1959  0.0764 -0.1439
   93HFIP   F10 1114   2.242   1.505   1.323  0.6868  0.0148  0.4209
   93HFIP   H11 1115   2.350   1.177   1.499 -1.6957 -0.0215  1.3088
   93HFIP   H12 1116   2.496   1.334   1.445 -0.1802  0.5205 -0.7386
   94HFIP    O1 1117   2.345   1.035   1.611 -0.1285  0.0560  0.5218
   94HFIP    C2 1118   2.434   0.932   1.575 -0.8981 -0.3480 -0.5173
   94HFIP    C3 1119   2.392   0.832   1.471  0.0154  0.0426 -0.3932
   94HFIP    F4 1120   2.493   0.755   1.424  0.3709 -0.2528 -0.3011
   94HFIP    F5 1121   2.365   0.897   1.354 -0.5440  0.5169  0.1026
   94HFIP    F6 1122   2.280   0.760   1.500  0.2246  0.2826  0.2982
   94HFIP    C7 1123   2.522   0.864   1.690 -0.4034  0.5031  0.3903
   94HFIP    F8 1124   2.471   0.747   1.740 -0.3089 -0.2736 -0.3456
   94HFIP    F9 1125   2.551   0.952   1.790  0.0287 -0.6317 -0.4050
   94HFIP   F10 1126   2.642   0.843   1.628 -0.1470  0.0575 -0.3254
   94HFIP   H11 1127   2.287   1.011   1.689 -0.9367  0.2958 -0.0038
   94HFIP   H12 1128   2.505   0.991   1.517 -3.1193  2.3137 -0.6756
   95HFIP    O1 1129   0.323   1.430   1.758 -0.1194 -0.3772  0.2865
   95HFIP    C2 1130   0.189   1.476   1.794  0.1108 -0.4599 -0.4260
   95HFIP    C3 1131   0.098   1.349   1.830 -0.0734  0.1476  0.1221
   95HFIP    F4 1132   0.126   1.253   1.738  0.0332  0.6125  0.0221
   95HFIP    F5 1133  -0.037   1.372   1.831 -0.2174  0.4303  0.3317
   95HFIP    F6 1134   0.131   1.291   1.948  0.1620 -0.9443 -0.4672
   95HFIP    C7 1135   0.121   1.559   1.680  0.2032 -0.5668 -0.5070
   95HFIP    F8 1136   0.212   1.647   1.628 -0.6503  0.1824 -0.2295
   95HFIP    F9 1137   0.025   1.647   1.720  0.0535 -0.0442  0.0142
   95HFIP   F10 1138   0.062   1.471   1.590 -0.9326 -0.3823 -0.3817
   95HFIP   H11 1139   0.392   1.465   1.822 -1.4084  2.7064  0.0904
   95HFIP   H12 1140   0.197   1.542   1.881 -2.9401 -0.2110 -0.3045
   96HFIP    O1 1141   1.319   2.513   1.411  0.3918 -0.1200  0.3798
   96HFIP    C2 1142   1.233   2.400   1.414  0.0034  1.3388  0.5383
   96HFIP    C3 1143   1.295   2.261   1.438 -0.1984 -0.5135  0.2003
   96HFIP    F4 1144   1.205   2.162   1.464 -0.1566  0.0551  0.4351
   96HFIP    F5 1145   1.376   2.268   1.550  0.5239 -0.0780 -0.2280
   96HFIP    F6 1146   1.371   2.220   1.334  0.2812  0.0662 -0.2408
   96HFIP    C7 1147   1.139   2.400   1.284  0.3881 -0.3742  0.7172
   96HFIP    F8 1148   1.210   2.447   1.175  0.2055  0.3861 -0.2678
   96HFIP    F9 1149   1.045   2.500   1.299 -0.2608  0.2648 -0.1814
   96HFIP   F10 1150   1.081   2.285   1.238  0.2372 -0.1151  0.2568
   96HFIP   H11 1151   1.280   2.589   1.359 -1.7296 -1.7257 -0.4514
   96HFIP   H12 1152   1.162   2.407   1.496 -0.6429  1.1918 -0.0097
   97HFIP    O1 1153   1.592   2.275   2.059  0.1037  0.4726 -0.1061
   97HFIP    C2 1154   1.508   2.383   2.017 -0.6065 -0.3479  0.3053
   97HFIP    C3 1155   1.360   2.357   1.982  0.0776 -0.2400  0.1198
   97HFIP    F4 1156   1.342   2.292   1.866 -0.1646  0.2296  0.3353
   97HFIP    F5 1157   1.293   2.475   1.977 -0.5226  0.0993 -0.1801
   97HFIP    F6 1158   1.296   2.288   2.079 -0.5227 -0.8693 -0.6124
   97HFIP    C7 1159   1.572   2.473   1.902  0.2968 -0.7284 -0.0567
   97HFIP    F8 1160   1.555   2.610   1.923 -0.8487  0.0964 -0.4668
   97HFIP    F9 1161   1.531   2.465   1.772  0.6634  0.6162  0.1765
   97HFIP   F10 1162   1.705   2.485   1.912  0.1210  0.0569 -0.1087
   97HFIP   H11 1163   1.554   2.193   2.101  0.9101 -0.2842 -0.8394
   97HFIP   H12 1164   1.502   2.455   2.098  1.0943  1.2562 -0.9550
   98HFIP    O1 1165   0.047   0.163   0.341 -0.1512 -0.3467 -0.2530
   98HFIP    C2 1166  -0.023   0.276   0.308 -0.0199 -0.3148  0.3566
   98HFIP    C3 1167  -0.167   0.257   0.268  0.7760 -0.5566  0.0649
   98HFIP    F4 1168  -0.217   0.142   0.325  0.4957  0.3096  0.0470
   98HFIP    F5 1169  -0.180   0.226   0.134  0.1713 -0.1405 -0.2844
   98HFIP    F6 1170  -0.243   0.366   0.299 -0.0939  0.4475 -0.6272
   98HFIP    C7 1171   0.044   0.381   0.213 -0.0668 -0.1036  0.2828
   98HFIP    F8 1172   0.170   0.416   0.246  0.0642 -0.5338  0.1646
   98HFIP    F9 1173  -0.026   0.500   0.211  0.0480 -0.3308 -0.6168
   98HFIP   F10 1174   0.052   0.343   0.083 -0.5324  0.4647  0.4300
   98HFIP   H11 1175   0.102   0.132   0.264 -1.5250 -0.3466 -1.2436
   98HFIP   H12 1176  -0.028   0.334   0.400  1.2809  1.5936 -0.7359
   99HFIP    O1 1177   0.631   1.276   2.465  0.0034 -0.6426  0.3732
   99HFIP    C2 1178   0.597   1.414   2.489  0.0420 -0.1247  0.2193
   99HFIP    C3 1179   0.689   1.519   2.429  0.7774 -0.4559  0.3333
   99HFIP    F4 1180   0.772   1.473   2.335 -0.1575  0.0874 -0.4345
   99HFIP    F5 1181   0.760   1.589   2.519  0.0838 -0.1679 -0.3748
   99HFIP    F6 1182   0.626   1.624   2.365  0.1296 -0.0774 -0.0722
   99HFIP    C7 1183   0.562   1.438   2.642 -0.2374 -0.1279 -0.0815
   99HFIP    F8 1184   0.457   1.362   2.691 -0.1107 -0.2484 -0.1091
   99HFIP    F9 1185   0.532   1.569   2.658  0.1324 -0.0668 -0.8418
   99HFIP   F10 1186   0.670   1.406   2.721 -0.0342  0.1989  0.0643
   99HFIP   H11 1187   0.716   1.250   2.511  0.7795 -0.3789 -0.8991
   99HFIP   H12 1188   0.502   1.425   2.438  1.5930 -1.8201 -3.1666
  100HFIP    O1 1189   2.756   2.324   0.145 -0.4897 -0.0050 -0.0010
  100HFIP    C2 1190   2.635   2.355   0.217 -0.2495 -0.4089  0.9642
  100HFIP    C3 1191   2.569   2.235   0.289  0.0097  0.0107  0.3771
  100HFIP    F4 1192   2.457   2.260   0.359  0.1813 -0.9356  0.4045
  100HFIP    F5 1193   2.651   2.183   0.383 -0.0605  0.2384  0.5326
  100HFIP    F6 1194   2.549   2.129   0.205  0.5732  0.0893  0.1621
  100HFIP    C7 1195   2.539   2.434   0.128  0.2577 -0.1253  0.6175
  100HFIP    F8 1196   2.491   2.370   0.014 -0.2649 -0.3041  0.3806
  100HFIP    F9 1197   2.599   2.549   0.091  0.7189  0.0835  0.0142
  100HFIP   F10 1198   2.423   2.465   0.194  0.0684  0.2820  0.1777
  100HFIP   H11 1199   2.768   2.227   0.123 -0.5745 -0.3542  1.4007
  100HFIP   H12 1200   2.661   2.425   0.296 -1.9906  0.7503  0.5166
  101HFIP    O1 1201   2.688   0.212   0.791  0.0005 -0.4593  0.3199
  101HFIP    C2 1202   2.549   0.179   0.816  0.1187  0.0140  0.1459
  101HFIP    C3 1203   2.513   0.063   0.911  0.0248  0.5526  0.2624
  101HFIP    F4 1204   2.605   0.060   1.004 -0.0802 -0.0989 -0.4692
  101HFIP    F5 1205   2.507  -0.061   0.856 -0.0961  0.1387  0.5307
  101HFIP    F6 1206   2.391   0.084   0.969 -0.1558  0.0220 -0.0659
  101HFIP    C7 1207   2.460   0.174   0.687 -0.1397  0.0934 -0.1661
  101HFIP    F8 1208   2.456   0.058   0.623 -0.0865  0.3272 -0.2582
  101HFIP    F9 1209   2.475   0.267   0.588  0.0849 -0.2401  0.4000
  101HFIP   F10 1210   2.331   0.202   0.724  0.1540 -0.3583 -0.2779
  101HFIP   H11 1211   2.714   0.156   0.713  0.4915  0.6873 -0.3522
  101HFIP   H12 1212   2.512   0.267   0.868 -0.8741 -0.6480  0.5620
  102HFIP    O1 1213   2.665   1.859   2.552  0.1786 -0.5211  0.2374
  102HFIP    C2 1214   2.580   1.790   2.636 -0.3215 -0.2968 -0.0464
  102HFIP    C3 1215   2.524   1.660   2.573  0.0320  0.3160 -0.8020
  102HFIP    F4 1216   2.626   1.588   2.524 -0.4300 -0.0428 -0.2606
  102HFIP    F5 1217   2.438   1.675   2.473  0.0037 -0.3642  0.2188
  102HFIP    F6 1218   2.467   1.580   2.668  0.1795  0.2362 -0.2331
  102HFIP    C7 1219   2.470   1.882   2.699 -0.3162  0.6321  0.2506
  102HFIP    F8 1220   2.380   1.926   2.607 -0.3719  0.3514 -0.0636
  102HFIP    F9 1221   2.514   1.996   2.756 -0.7046  0.1174 -0.0396
  102HFIP   F10 1222   2.400   1.831   2.803  0.3792  0.7720  0.3391
  102HFIP   H11 1223   2.662   1.832   2.456  0.8076 -1.1391  0.3894
  102HFIP   H12 1224   2.647   1.756   2.715  1.6353 -1.1125 -2.0161
  103HFIP    O1 1225   0.018   0.216   1.219  0.2206  1.1118 -0.2202
  103HFIP    C2 1226  -0.067   0.272   1.321  0.0001 -0.9181  0.1073
  103HFIP    C3 1227  -0.218   0.246   1.293  0.2589 -0.1880 -0.4735
  103HFIP    F4 1228  -0.245   0.112   1.286  0.0570 -0.4731 -0.7420
  103HFIP    F5 1229  -0.260   0.304   1.177  0.6096 -0.2705  0.0219
  103HFIP    F6 1230  -0.298   0.285   1.397  0.3489  0.5040 -0.0882
  103HFIP    C7 1231  -0.049   0.421   1.347  0.2348 -0.7353 -0.2613
  103HFIP    F8 1232   0.079   0.463   1.365 -0.0371 -0.2546  0.1282
  103HFIP    F9 1233  -0.101   0.464   1.467 -0.3725  0.0442  0.3712
  103HFIP   F10 1234  -0.085   0.504   1.245 -0.0497  0.5274 -0.0253
  103HFIP   H11 1235   0.020   0.264   1.131  1.9293 -1.8484 -1.8643
  103HFIP   H12 1236  -0.044   0.221   1.415 -2.6846 -0.9117  0.8117
  104HFIP    O1 1237   0.010   0.330   0.968 -0.8025 -0.3035 -0.8135
  104HFIP    C2 1238   0.067   0.457   0.935  0.9413  0.0632  0.1385
  104HFIP    C3 1239   0.069   0.507   0.786  0.6642  0.0503 -0.1938
  104HFIP    F4 1240   0.148   0.433   0.705 -0.0875  0.1347 -0.0192
  104HFIP    F5 1241   0.106   0.637   0.770  0.0821  0.0691  0.2910
  104HFIP    F6 1242  -0.056   0.496   0.728 -0.1091 -0.0782 -0.2227
  104HFIP    C7 1243   0.216   0.467   0.989  0.6324 -0.1327 -0.4143
  104HFIP    F8 1244   0.298   0.371   0.937  0.1689  0.5162  0.1851
  104HFIP    F9 1245   0.217   0.460   1.125 -0.0443  0.7940 -0.1611
  104HFIP   F10 1246   0.274   0.590   0.971  0.0787 -0.2564 -0.0757
  104HFIP   H11 1247  -0.049   0.300   0.894 -2.2765 -1.3430  0.7453
  104HFIP   H12 1248   0.010   0.534   0.986 -1.4299 -0.5271 -1.5592
  105HFIP    O1 1249   1.050   0.093   2.359  0.3271  0.3844  0.6875
  105HFIP    C2 1250   1.132  -0.011   2.368  0.0768 -1.3605  0.4467
  105HFIP    C3 1251   1.275   0.015   2.313 -0.0949 -0.0846 -0.2799
  105HFIP    F4 1252   1.290  -0.029   2.186  0.4210  0.3808 -0.4797
  105HFIP    F5 1253   1.375  -0.042   2.384 -0.4054 -0.1837 -0.0730
  105HFIP    F6 1254   1.303   0.146   2.305 -0.4212 -0.0020 -0.7229
  105HFIP    C7 1255   1.074  -0.149   2.317 -0.4019  0.2683 -0.1221
  105HFIP    F8 1256   0.991  -0.201   2.421 -0.0608 -0.3251 -0.0255
  105HFIP    F9 1257   1.170  -0.244   2.301 -0.0778 -0.1090  0.0064
  105HFIP   F10 1258   0.993  -0.155   2.207  0.0350 -0.0367 -0.0727
  105HFIP   H11 1259   1.011   0.109   2.268 -1.8027 -1.6148  1.2107
  105HFIP   H12 1260   1.141  -0.024   2.476  0.2531 -0.1009  0.5932
  106HFIP    O1 1261   1.018   1.023   0.549  0.0196  0.7733 -1.0620
  106HFIP    C2 1262   0.983   1.094   0.660 -0.1022  0.1388  0.1805
  106HFIP    C3 1263   1.087   1.199   0.696  0.0599  0.9632  0.2584
  106HFIP    F4 1264   1.051   1.287   0.791 -0.5582 -0.1617  0.0711
  106HFIP    F5 1265   1.118   1.268   0.582  0.2960  0.0345 -0.0027
  106HFIP    F6 1266   1.210   1.150   0.729 -0.6167  0.1865 -0.2268
  106HFIP    C7 1267   0.953   1.009   0.792  0.6883  0.2324  0.8831
  106HFIP    F8 1268   1.063   0.931   0.831 -0.9148 -0.3493 -0.1529
  106HFIP    F9 1269   0.849   0.925   0.762 -0.1586  0.4795  0.5106
  106HFIP   F10 1270   0.912   1.088   0.892 -0.0195  0.1645  0.1972
  106HFIP   H11 1271   0.936   1.019   0.492  0.3283  0.2962 -1.4794
  106HFIP   H12 1272   0.895   1.151   0.633 -1.8351 -2.8973 -0.7972
  107HFIP    O1 1273   1.311   0.852   1.396 -0.4041 -0.1624  0.0149
  107HFIP    C2 1274   1.444   0.857   1.440 -0.7773  0.1253 -0.0823
  107HFIP    C3 1275   1.544   0.787   1.347  0.2243 -0.4136  0.3228
  107HFIP    F4 1276   1.572   0.656   1.367 -0.0143  0.7525  0.0177
  107HFIP    F5 1277   1.664   0.847   1.365  0.3391 -0.1602  0.0297
  107HFIP    F6 1278   1.518   0.805   1.212 -0.5818  0.4694  0.0403
  107HFIP    C7 1279   1.473   0.824   1.588  0.7700 -0.6096  0.3357
  107HFIP    F8 1280   1.397   0.895   1.673  0.2428 -0.0610 -0.2745
  107HFIP    F9 1281   1.599   0.851   1.625 -0.4204 -0.3947  0.2048
  107HFIP   F10 1282   1.453   0.697   1.620  0.4634 -0.1398 -0.1308
  107HFIP   H11 1283   1.275   0.941   1.423  0.1450 -0.4310  1.7560
  107HFIP   H12 1284   1.469   0.962   1.426 -0.2231  0.3899  2.6017
  108HFIP    O1 1285   2.682   0.581   1.986 -0.1792 -0.3827  0.0447
  108HFIP    C2 1286   2.680   0.719   2.022  0.7262 -0.1135  0.0558
  108HFIP    C3 1287   2.797   0.811   1.964 -0.3357  0.4763 -0.1545
  108HFIP    F4 1288   2.782   0.940   1.970  0.1843 -0.0248  0.1582
  108HFIP    F5 1289   2.818   0.777   1.830 -0.3518 -0.4570 -0.4996
  108HFIP    F6 1290   2.917   0.781   2.022  0.1562  0.4514  0.0338
  108HFIP    C7 1291   2.668   0.753   2.170 -0.7040  0.8298  0.0329
  108HFIP    F8 1292   2.768   0.728   2.259 -0.0350  0.1696  0.1381
  108HFIP    F9 1293   2.562   0.686   2.219  0.1868 -0.0850  0.0854
  108HFIP   F10 1294   2.621   0.879   2.183  0.0868  0.2911  0.0870
  108HFIP   H11 1295   2.775   0.552   1.967  0.0227  0.4476 -0.2460
  108HFIP   H12 1296   2.590   0.763   1.980 -0.3208 -2.1225  0.1513
  109HFIP    O1 1297   1.312   1.321   1.417 -0.4097 -0.4414 -0.1908
  109HFIP    C2 1298   1.392   1.374   1.521  0.0491 -0.5132 -1.3555
  109HFIP    C3 1299   1.508   1.274   1.569  0.3116 -0.4242  1.1119
  109HFIP    F4 1300   1.530   1.171   1.486  0.0065  0.2215  0.0592
  109HFIP    F5 1301   1.489   1.214   1.688  0.0150 -0.3597  0.1123
  109HFIP    F6 1302   1.620   1.346   1.580 -0.0088 -0.5258  0.5893
  109HFIP    C7 1303   1.304   1.438   1.636  0.3068 -0.3044 -0.1810
  109HFIP    F8 1304   1.216   1.536   1.593 -0.0715  0.1705  0.3895
  109HFIP    F9 1305   1.377   1.494   1.732 -0.0708 -0.3513 -0.5109
  109HFIP   F10 1306   1.227   1.340   1.694  0.1252 -0.2087 -0.1626
  109HFIP   H11 1307   1.365   1.332   1.333 -0.6718  0.4285 -0.2502
  109HFIP   H12 1308   1.437   1.470   1.493  1.0098 -0.8211 -0.8670
  110HFIP    O1 1309   1.938   0.472   0.799  0.2292 -0.1344  0.6932
  110HFIP    C2 1310   1.867   0.355   0.785 -0.4349  0.4915 -0.2688
  110HFIP    C3 1311   1.747   0.358   0.893  0.2713  0.0422 -0.7828
  110HFIP    F4 1312   1.786   0.366   1.024  0.1086 -0.0063 -0.1664
  110HFIP    F5 1313   1.674   0.243   0.882  0.3825  1.2832  0.4106
  110HFIP    F6 1314   1.663   0.461   0.864 -0.2681  0.4422  0.9648
  110HFIP    C7 1315   1.949   0.220   0.808  0.1034 -0.2259 -0.1045
  110HFIP    F8 1316   1.874   0.113   0.778  0.8115 -0.0294 -0.1981
  110HFIP    F9 1317   2.003   0.213   0.930  0.2862 -0.1241 -0.3150
  110HFIP   F10 1318   2.055   0.208   0.727  0.5160 -0.2977  0.1175
  110HFIP   H11 1319   2.010   0.477   0.868 -0.0464  2.1528  0.8609
  110HFIP   H12 1320   1.822   0.355   0.686  0.9320  1.9460 -0.9031
  111HFIP    O1 1321   1.982   0.860   2.709 -0.1278 -0.1936  0.1186
  111HFIP    C2 1322   1.932   0.911   2.827 -0.2039 -0.0820  0.3407
  111HFIP    C3 1323   2.030   0.988   2.916 -0.7532 -0.0090 -0.5629
  111HFIP    F4 1324   1.985   1.035   3.036  0.6722  0.5024  0.3080
  111HFIP    F5 1325   2.070   1.097   2.854 -0.0012 -0.0522  0.0300
  111HFIP    F6 1326   2.142   0.914   2.938 -0.4596 -0.3539 -0.5567
  111HFIP    C7 1327   1.854   0.807   2.914  0.5575 -0.4418 -0.6430
  111HFIP    F8 1328   1.766   0.727   2.843 -0.5914 -0.6561 -0.8436
  111HFIP    F9 1329   1.770   0.871   3.000 -0.2683  0.3383  0.0156
  111HFIP   F10 1330   1.934   0.736   2.999  0.2231  0.6980 -0.1081
  111HFIP   H11 1331   2.081   0.848   2.715  0.0173  1.6190  2.1256
  111HFIP   H12 1332   1.859   0.989   2.803  0.3104  0.0742 -0.7047
  112HFIP    O1 1333   2.512   1.235   0.325 -0.3226 -0.2218  0.0822
  112HFIP    C2 1334   2.395   1.307   0.284 -0.7150  0.7433 -0.3762
  112HFIP    C3 1335   2.380   1.458   0.300  0.2576 -0.3124 -0.2759
  112HFIP    F4 1336   2.295   1.516   0.216 -1.0000 -0.1632 -0.0283
  112HFIP    F5 1337   2.496   1.527   0.289 -0.0178 -0.0608 -0.6911
  112HFIP    F6 1338   2.353   1.501   0.425 -0.1336 -0.0932  0.3200
  112HFIP    C7 1339   2.266   1.237   0.338  0.6611  0.1179  0.7374
  112HFIP    F8 1340   2.263   1.104   0.314  0.1745 -0.4540  0.4253
  112HFIP    F9 1341   2.148   1.283   0.285 -0.2889  0.3234  0.1646
  112HFIP   F10 1342   2.244   1.240   0.473 -0.2108 -0.3892  0.3448
  112HFIP   H11 1343   2.572   1.275   0.394  2.0126 -3.2910 -0.0469
  112HFIP   H12 1344   2.384   1.293   0.176 -1.1741  0.1094 -0.2543
  113HFIP    O1 1345   2.143   0.682   1.835 -0.2115 -0.3632 -0.1642
  113HFIP    C2 1346   2.036   0.624   1.756 -0.1985  0.5957 -0.8765
  113HFIP    C3 1347   1.920   0.720   1.707  0.6753  0.2939 -0.7169
  113HFIP    F4 1348   1.964   0.787   1.599  0.1707 -0.3869  0.2630
  113HFIP    F5 1349   1.881   0.810   1.803 -0.5580 -0.2855  0.1677
  113HFIP    F6 1350   1.817   0.662   1.641  0.1907  0.3240 -0.0906
  113HFIP    C7 1351   1.969   0.494   1.818  0.3403  0.3901 -0.3190
  113HFIP    F8 1352   1.867   0.509   1.899  0.0533 -0.2058 -0.1334
  113HFIP    F9 1353   2.052   0.419   1.893 -0.6718 -0.0639  0.1111
  113HFIP   F10 1354   1.929   0.410   1.724  0.2559  0.3713  0.1691
  113HFIP   H11 1355   2.194   0.616   1.890 -0.7462 -1.3315 -0.8005
  113HFIP   H12 1356   2.062   0.582   1.659 -0.9996 -0.0990 -0.7991
  114HFIP    O1 1357   1.992   2.180   1.815  0.0616  0.2824  0.2483
  114HFIP    C2 1358   1.902   2.230   1.715 -0.0922  0.3114  0.6256
  114HFIP    C3 1359   1.856   2.124   1.611 -0.0781  0.6753  0.8375
  114HFIP    F4 1360   1.740   2.159   1.548  0.4218 -0.3073 -0.4472
  114HFIP    F5 1361   1.848   1.994   1.651 -0.0158 -0.1524  0.2161
  114HFIP    F6 1362   1.957   2.116   1.523 -0.2971 -0.4472 -0.9042
  114HFIP    C7 1363   1.955   2.367   1.647 -0.2772  0.0368  0.3290
  114HFIP    F8 1364   2.071   2.355   1.574 -0.4033 -0.0538  0.0997
  114HFIP    F9 1365   1.980   2.459   1.749  0.2001 -0.0512  0.5072
  114HFIP   F10 1366   1.847   2.410   1.570  0.1730  0.4385 -0.0080
  114HFIP   H11 1367   1.960   2.196   1.909 -0.7896 -3.6078  0.7061
  114HFIP   H12 1368   1.806   2.262   1.757  1.6701  2.6687  3.1288
  115HFIP    O1 1369   2.231   0.782   2.674 -0.1345  0.3125 -0.2268
  115HFIP    C2 1370   2.236   0.645   2.657 -1.1643  0.2966  0.1849
  115HFIP    C3 1371   2.195   0.593   2.514 -0.4763 -0.0435  0.1061
  115HFIP    F4 1372   2.272   0.629   2.410 -0.0883  0.3418 -0.4826
  115HFIP    F5 1373   2.066   0.627   2.490  0.1750  0.4065 -0.3037
  115HFIP    F6 1374   2.186   0.457   2.507  0.4025  0.0694 -0.3689
  115HFIP    C7 1375   2.178   0.571   2.783  0.3173 -0.4568 -0.5223
  115HFIP    F8 1376   2.213   0.437   2.794 -0.0984 -0.0776  0.2907
  115HFIP    F9 1377   2.044   0.578   2.787 -0.1220 -0.2842  0.1194
  115HFIP   F10 1378   2.228   0.620   2.899 -0.0834  0.0407  0.5062
  115HFIP   H11 1379   2.323   0.821   2.685  0.2569 -0.0086 -2.2295
  115HFIP   H12 1380   2.342   0.617   2.658 -0.5027  2.6984 -0.1076
  116HFIP    O1 1381   2.436   0.939   2.759 -0.0138  0.0681  0.0912
  116HFIP    C2 1382   2.492   1.018   2.663 -0.7682 -0.2775 -0.1034
  116HFIP    C3 1383   2.406   1.140   2.619  0.4358  0.2508 -0.7039
  116HFIP    F4 1384   2.368   1.212   2.733  0.4168 -0.0265 -0.0738
  116HFIP    F5 1385   2.294   1.110   2.546  0.2785  0.0459 -0.1841
  116HFIP    F6 1386   2.486   1.223   2.549  0.1513 -0.2405 -0.7514
  116HFIP    C7 1387   2.530   0.927   2.535  0.0916 -0.9496 -1.0491
  116HFIP    F8 1388   2.415   0.877   2.477  0.2000  0.4641  0.2637
  116HFIP    F9 1389   2.607   0.819   2.569 -0.0108 -0.1900  0.2222
  116HFIP   F10 1390   2.600   0.997   2.441  0.1112  0.4611 -0.6920
  116HFIP   H11 1391   2.446   0.973   2.852 -2.2043 -1.0326  0.7706
  116HFIP   H12 1392   2.583   1.063   2.702 -0.6683  0.0481 -0.7181
  117HFIP    O1 1393   2.673   1.349   0.489  0.5987 -0.3795  0.1670
  117HFIP    C2 1394   2.689   1.286   0.615 -0.0166  0.2869 -0.0758
  117HFIP    C3 1395   2.756   1.367   0.728  0.3610  0.4403  0.4942
  117HFIP    F4 1396   2.724   1.318   0.850  0.0504  0.3934  0.3994
  117HFIP    F5 1397   2.702   1.492   0.740  0.0236 -0.4097 -0.0080
  117HFIP    F6 1398   2.892   1.365   0.735  0.6634  0.0925  0.2824
  117HFIP    C7 1399   2.748   1.139   0.610 -0.2345  0.2340  0.0389
  117HFIP    F8 1400   2.684   1.072   0.512  0.2597 -0.1751 -0.2124
  117HFIP    F9 1401   2.725   1.068   0.725  0.0787 -0.2614 -0.4095
  117HFIP   F10 1402   2.878   1.133   0.567  0.5438 -0.5717 -0.2034
  117HFIP   H11 1403   2.720   1.438   0.484  1.9380 -0.9426  2.1465
  117HFIP   H12 1404   2.588   1.273   0.654 -0.0512  1.4282  0.2372
  118HFIP    O1 1405   0.024   2.168   1.347  0.0195  0.0172  0.4668
  118HFIP    C2 1406  -0.068   2.078   1.404 -0.5543 -0.0865 -0.3716
  118HFIP    C3 1407  -0.019   2.023   1.540 -0.2128  0.0192 -0.3918
  118HFIP    F4 1408  -0.121   1.971   1.610  0.1159  0.2641  0.4339
  118HFIP    F5 1409   0.025   2.129   1.621  0.5179  0.1715 -0.2251
  118HFIP    F6 1410   0.087   1.935   1.528  0.0129 -0.4166 -0.1755
  118HFIP    C7 1411  -0.122   1.966   1.311 -0.3047  1.2886 -0.3675
  118HFIP    F8 1412  -0.210   1.883   1.376  0.0896 -0.2386  0.3417
  118HFIP    F9 1413  -0.023   1.886   1.261 -0.0160 -0.1590  0.5324
  118HFIP   F10 1414  -0.194   2.008   1.203  0.3993 -0.2154 -0.3221
  118HFIP   H11 1415  -0.025   2.253   1.328 -0.3744 -0.3693 -0.2682
  118HFIP   H12 1416  -0.157   2.132   1.437 -0.3825 -0.1500  0.1911
  119HFIP    O1 1417   2.336   1.738   2.047 -0.0331  0.0136  0.0048
  119HFIP    C2 1418   2.285   1.632   2.115 -0.4026  0.3497  0.1937
  119HFIP    C3 1419   2.387   1.517   2.124  0.2816  0.2272 -0.1373
  119HFIP    F4 1420   2.356   1.411   2.205 -0.0356 -0.3137  0.3205
  119HFIP    F5 1421   2.509   1.559   2.157 -0.6278  0.1595 -0.0631
  119HFIP    F6 1422   2.407   1.469   1.996  0.4202  0.0631  0.3455
  119HFIP    C7 1423   2.140   1.585   2.077  0.0122  0.2923 -0.1305
  119HFIP    F8 1424   2.102   1.475   2.147 -0.3524  0.0092  0.2165
  119HFIP    F9 1425   2.134   1.545   1.945  0.0849 -0.3116  0.4115
  119HFIP   F10 1426   2.051   1.684   2.098  0.0906 -0.1428  0.0458
  119HFIP   H11 1427   2.278   1.776   1.974 -1.5472 -2.0251  0.1192
  119HFIP   H12 1428   2.275   1.662   2.219  0.1100 -0.6109  0.5230
  120HFIP    O1 1429   2.504   1.024   0.188  0.3257 -0.0216 -0.2793
  120HFIP    C2 1430   2.586   0.930   0.242 -0.2413 -0.4576  1.0543
  120HFIP    C3 1431   2.693   0.869   0.151  0.0118  0.0429  0.3129
  120HFIP    F4 1432   2.635   0.767   0.074 -0.6552 -0.3013  0.1743
  120HFIP    F5 1433   2.797   0.807   0.214 -0.3253 -0.3648  0.0120
  120HFIP    F6 1434   2.754   0.953   0.066 -0.1176  0.1152  0.1477
  120HFIP    C7 1435   2.523   0.826   0.340  0.5926  0.2659 -0.5297
  120HFIP    F8 1436   2.606   0.750   0.415 -0.4525  0.1365 -0.3139
  120HFIP    F9 1437   2.447   0.734   0.275 -0.3824 -0.1258  0.3543
  120HFIP   F10 1438   2.441   0.887   0.427  0.7061  0.2176  0.0894
  120HFIP   H11 1439   2.483   1.101   0.249 -1.6078 -0.7878  0.0722
  120HFIP   H12 1440   2.649   0.991   0.307  1.4878 -1.8630  0.7576
  121HFIP    O1 1441   2.082   1.901   0.921 -0.1756  0.1667 -0.1546
  121HFIP    C2 1442   2.111   1.882   1.061  0.1959 -0.6000  0.8189
  121HFIP    C3 1443   1.980   1.856   1.140  0.3789  0.6547 -0.7025
  121HFIP    F4 1444   2.010   1.795   1.254 -0.4644 -0.2721  0.1717
  121HFIP    F5 1445   1.889   1.778   1.081  0.2708  0.2147  0.1908
  121HFIP    F6 1446   1.911   1.968   1.167 -0.0635  0.3630  0.1205
  121HFIP    C7 1447   2.204   2.003   1.123 -0.5714 -0.6178  0.4605
  121HFIP    F8 1448   2.132   2.118   1.102  0.0005  0.2671 -0.0062
  121HFIP    F9 1449   2.330   2.004   1.060  0.4700 -0.5743 -0.0858
  121HFIP   F10 1450   2.225   1.992   1.253 -0.0092  0.5407  0.1457
  121HFIP   H11 1451   1.992   1.931   0.887 -0.8962  1.5801  2.8718
  121HFIP   H12 1452   2.170   1.791   1.065 -1.9448 -1.9841  2.2233
  122HFIP    O1 1453   0.021   2.105   0.067  0.1298 -0.4999  0.2290
  122HFIP    C2 1454   0.092   2.005   0.138 -0.0199  0.5889 -0.1402
  122HFIP    C3 1455   0.246   2.023   0.136  0.4973  0.0947 -0.0284
  122HFIP    F4 1456   0.269   2.156   0.155  0.2973 -0.2546  0.3288
  122HFIP    F5 1457   0.306   2.003   0.017 -0.0933 -0.3412  0.3990
  122HFIP    F6 1458   0.321   1.954   0.230  0.3410  0.0645  0.0366
  122HFIP    C7 1459   0.044   1.862   0.093 -0.4897 -0.0670  0.0931
  122HFIP    F8 1460   0.058   1.840  -0.042  0.0067  0.5542  0.0432
  122HFIP    F9 1461  -0.090   1.849   0.117  0.0950  0.2275 -0.2789
  122HFIP   F10 1462   0.108   1.762   0.163 -0.1114 -0.6577  0.4874
  122HFIP   H11 1463   0.015   2.090  -0.032  0.2483 -0.4501  0.2140
  122HFIP   H12 1464   0.067   2.013   0.244  0.4439  0.1175  0.0100
  123HFIP    O1 1465   0.251   2.081   1.257 -0.2472  0.1670 -0.5816
  123HFIP    C2 1466   0.337   2.083   1.372  0.5891  0.4107  0.8513
  123HFIP    C3 1467   0.448   2.195   1.362  0.8928  0.0253 -0.4914
  123HFIP    F4 1468   0.380   2.315   1.358 -0.0732  0.0113  0.0776
  123HFIP    F5 1469   0.517   2.193   1.246  0.4104  0.0726 -0.0111
  123HFIP    F6 1470   0.527   2.202   1.472  0.0904 -0.0262  0.6137
  123HFIP    C7 1471   0.391   1.941   1.412 -0.9177  0.5308  0.0497
  123HFIP    F8 1472   0.305   1.836   1.409  0.0115 -0.0888 -0.2734
  123HFIP    F9 1473   0.439   1.938   1.541 -0.2375  0.5061 -0.0923
  123HFIP   F10 1474   0.496   1.904   1.334 -0.2231  0.6232 -0.3856
  123HFIP   H11 1475   0.157   2.111   1.271  0.1222  1.0662 -0.0034
  123HFIP   H12 1476   0.265   2.109   1.450  1.3069  1.3484  1.2077
  124HFIP    O1 1477   1.906   2.250   2.054 -0.0426  0.2247 -0.0543
  124HFIP    C2 1478   1.867   2.149   2.141  0.2791  0.3707 -0.9501
  124HFIP    C3 1479   1.975   2.125   2.254  0.0006 -0.2429 -0.2415
  124HFIP    F4 1480   1.929   2.049   2.355  0.7538 -0.0108  0.5904
  124HFIP    F5 1481   2.013   2.239   2.318 -0.2825  0.3478 -0.4562
  124HFIP    F6 1482   2.092   2.065   2.217 -0.6883 -0.0318  0.1685
  124HFIP    C7 1483   1.829   2.015   2.074  0.0127  0.4584  0.0350
  124HFIP    F8 1484   1.729   2.031   1.980 -0.4939 -0.1270  0.5389
  124HFIP    F9 1485   1.779   1.933   2.169 -0.4869 -0.4667  0.5599
  124HFIP   F10 1486   1.932   1.957   2.008 -0.3569  0.1701  0.2182
  124HFIP   H11 1487   1.917   2.343   2.089 -1.6938 -0.0182  1.1558
  124HFIP   H12 1488   1.773   2.169   2.192  0.8778  1.0673 -0.1007
  125HFIP    O1 1489   2.226   2.013   0.738 -0.8167 -0.1358  0.4608
  125HFIP    C2 1490   2.354   1.955   0.691  0.4194 -0.8759  0.1052
  125HFIP    C3 1491   2.385   1.811   0.753 -0.6267 -0.3470  0.9350
  125HFIP    F4 1492   2.502   1.755   0.709 -0.2065  0.1125 -0.0320
  125HFIP    F5 1493   2.284   1.718   0.739  0.3348 -0.5350  0.5028
  125HFIP    F6 1494   2.395   1.815   0.888  0.4995 -0.2916 -0.0065
  125HFIP    C7 1495   2.476   2.060   0.702  0.6986  0.6792 -0.3070
  125HFIP    F8 1496   2.514   2.087   0.831 -0.1100  0.0627  0.5141
  125HFIP    F9 1497   2.438   2.179   0.649  0.2784 -0.0568  0.6106
  125HFIP   F10 1498   2.585   2.014   0.632  0.3606  0.4338 -0.3072
  125HFIP   H11 1499   2.170   1.937   0.771 -2.0014 -0.1448 -1.4746
  125HFIP   H12 1500   2.339   1.945   0.583  1.0767  1.2783 -0.1943
   2.81182   2.81182   2.81182
