HFIP published-force-field qualification
 1500
    1HFIP    O1    1   3.356   2.956   0.731  0.1962  0.5498 -0.5564
    1HFIP    C2    2   3.360   2.818   0.762  0.4662 -0.8557 -0.2955
    1HFIP    C3    3   3.233   2.770   0.846 -0.6553  0.7624 -0.6167
    1HFIP    F4    4   3.224   2.631   0.850 -0.3190  0.1134  0.1073
    1HFIP    F5    5   3.116   2.810   0.789 -0.3634  0.0503  0.2282
    1HFIP    F6    6   3.225   2.816   0.974 -0.0213  0.0809 -0.1269
    1HFIP    C7    7   3.492   2.777   0.836 -0.0241  0.3203  0.0354
    1HFIP    F8    8   3.519   2.646   0.814  0.3339  0.1053 -0.0096
    1HFIP    F9    9   3.500   2.802   0.967  0.3220 -0.4072 -0.5712
    1HFIP   F10   10   3.596   2.832   0.769  0.5625  0.8461 -0.1381
    1HFIP   H11   11   3.428   2.988   0.670 -1.3672  0.7717 -2.3097
    1HFIP   H12   12   3.353   2.756   0.673 -0.0221 -0.3705 -0.5970
    2HFIP    O1   13   2.801   3.109   1.220  0.2805 -0.1496 -0.6009
    2HFIP    C2   14   2.814   2.987   1.295  0.3847 -0.9752 -0.2960
    2HFIP    C3   15   2.943   2.913   1.282  1.2056 -0.2634 -0.0801
    2HFIP    F4   16   2.956   2.807   1.368  0.5934  0.2342 -0.0487
    2HFIP    F5   17   3.053   2.988   1.300 -0.0129 -0.1110 -0.2698
    2HFIP    F6   18   2.964   2.864   1.156  0.2105 -0.2735 -0.1615
    2HFIP    C7   19   2.692   2.897   1.260  0.4637 -0.5549 -0.0322
    2HFIP    F8   20   2.688   2.785   1.334  0.1842 -0.4945 -0.0822
    2HFIP    F9   21   2.673   2.859   1.138 -0.1213 -0.7192  0.3451
    2HFIP   F10   22   2.573   2.962   1.287 -0.4220 -0.3072  0.0913
    2HFIP   H11   23   2.891   3.148   1.201  0.6687 -1.1882 -0.9329
    2HFIP   H12   24   2.801   2.998   1.402 -2.8078  0.0739 -0.7325
    3HFIP    O1   25   0.262   0.833   1.576 -0.4766  0.4350 -0.1570
    3HFIP    C2   26   0.369   0.930   1.565  0.7819 -0.1656  0.1143
    3HFIP    C3   27   0.401   1.009   1.693 -0.4839 -0.1549  0.1644
    3HFIP    F4   28   0.411   0.924   1.800  0.3684  0.0975 -0.3419
    3HFIP    F5   29   0.305   1.092   1.742  0.0269  0.1420  0.3793
    3HFIP    F6   30   0.523   1.078   1.692  0.6040 -0.3245  0.0406
    3HFIP    C7   31   0.358   1.026   1.440  0.4710 -0.4937  0.1758
    3HFIP    F8   32   0.250   1.110   1.440  0.0759 -0.1605 -0.0889
    3HFIP    F9   33   0.340   0.943   1.331 -0.4109 -0.5551  0.0537
    3HFIP   F10   34   0.468   1.100   1.417 -0.3169 -0.2333  0.4674
    3HFIP   H11   35   0.293   0.742   1.548 -2.2490 -0.1894 -0.1997
    3HFIP   H12   36   0.455   0.866   1.545  0.9892 -0.0418  0.6157
    4HFIP    O1   37   0.724   2.941   3.274  0.0612 -0.2500  0.4527
    4HFIP    C2   38   0.803   2.829   3.304  0.2367  0.5084  0.5547
    4HFIP    C3   39   0.943   2.849   3.372 -0.6333 -0.9743 -0.0303
    4HFIP    F4   40   0.931   2.959   3.457 -0.0573 -0.6254  0.5175
    4HFIP    F5   41   1.051   2.871   3.295  0.0455 -0.5604  0.2634
    4HFIP    F6   42   0.980   2.746   3.449 -0.3748  0.6067  0.1598
    4HFIP    C7   43   0.821   2.719   3.196  0.3580 -0.2589 -0.5075
    4HFIP    F8   44   0.883   2.776   3.088 -0.6752  0.6173  0.3832
    4HFIP    F9   45   0.706   2.656   3.155  0.4441  0.1838  0.6633
    4HFIP   F10   46   0.891   2.611   3.229 -0.2403  0.3569  0.2610
    4HFIP   H11   47   0.786   3.019   3.259  0.4165 -0.7507 -0.7881
    4HFIP   H12   48   0.747   2.772   3.379  0.1977  0.8659  0.7966
    5HFIP    O1   49   0.311   0.597   1.487 -0.2234  0.3847 -0.4052
    5HFIP    C2   50   0.302   0.610   1.346  0.2420 -0.5835 -0.0234
    5HFIP    C3   51   0.207   0.502   1.272  0.3512  0.3432  0.6151
    5HFIP    F4   52   0.221   0.372   1.300 -0.1520  0.3271  0.5473
    5HFIP    F5   53   0.236   0.506   1.143 -0.7446 -0.0714 -0.0787
    5HFIP    F6   54   0.072   0.530   1.277  0.3889  0.3201 -0.4588
    5HFIP    C7   55   0.448   0.606   1.287  0.6771  0.0841  0.1828
    5HFIP    F8   56   0.495   0.480   1.270  0.0524 -0.4267 -0.2332
    5HFIP    F9   57   0.545   0.637   1.375 -0.0095  0.0221 -0.2279
    5HFIP   F10   58   0.466   0.667   1.172  0.0469  0.0996 -0.0171
    5HFIP   H11   59   0.313   0.503   1.521 -0.6560  0.4188 -0.2821
    5HFIP   H12   60   0.257   0.703   1.313 -0.2060 -0.7116  0.2251
    6HFIP    O1   61   0.562   1.479   1.008  0.0156  0.6319 -0.6788
    6HFIP    C2   62   0.428   1.453   1.044  0.2843  0.3729  0.7210
    6HFIP    C3   63   0.382   1.309   1.022 -0.2784 -0.2307 -0.7803
    6HFIP    F4   64   0.255   1.277   1.060  0.2152 -0.3961 -0.5362
    6HFIP    F5   65   0.459   1.211   1.079 -0.1496 -0.3084  0.0520
    6HFIP    F6   66   0.397   1.280   0.891 -0.5085  0.2716  0.4970
    6HFIP    C7   67   0.328   1.554   0.988  0.4874 -0.3027  0.1524
    6HFIP    F8   68   0.381   1.679   0.977 -0.1472 -0.5363  0.2392
    6HFIP    F9   69   0.216   1.560   1.070  0.5402  0.3034  0.3134
    6HFIP   F10   70   0.275   1.521   0.867 -0.3362 -0.0335 -0.4817
    6HFIP   H11   71   0.604   1.409   0.951  0.7742 -0.0788  0.7092
    6HFIP   H12   72   0.418   1.459   1.152 -0.8321  1.3003  0.5712
    7HFIP    O1   73   0.073   2.196   1.714  0.4089 -0.0144  0.6237
    7HFIP    C2   74   0.121   2.066   1.710 -0.2702  0.5382  0.0982
    7HFIP    C3   75   0.125   1.997   1.847 -0.7688  0.3815  0.2619
    7HFIP    F4   76   0.005   2.015   1.916 -0.5918 -0.3122  0.5998
    7HFIP    F5   77   0.216   2.049   1.933 -0.3500  1.0187 -0.2287
    7HFIP    F6   78   0.144   1.863   1.837 -0.0193 -0.0407  0.2746
    7HFIP    C7   79   0.248   2.055   1.632 -0.4498 -0.3317 -0.2566
    7HFIP    F8   80   0.362   2.089   1.701 -0.3686 -0.1039 -0.4274
    7HFIP    F9   81   0.246   2.133   1.523  0.0445  0.0333 -1.0716
    7HFIP   F10   82   0.273   1.932   1.579  0.3044  0.0036  0.0691
    7HFIP   H11   83   0.146   2.263   1.701  1.6207 -1.4649 -0.2710
    7HFIP   H12   84   0.053   2.006   1.650  1.3535  0.6215 -1.8709
    8HFIP    O1   85   0.291   0.373   1.619 -0.1641 -0.4911 -0.6695
    8HFIP    C2   86   0.385   0.293   1.684 -0.2317 -0.0606  0.2785
    8HFIP    C3   87   0.338   0.235   1.819  0.5504  0.0250 -0.3007
    8HFIP    F4   88   0.399   0.114   1.838 -0.2173  0.0016  0.6817
    8HFIP    F5   89   0.205   0.216   1.808 -0.2412 -0.0461  0.0047
    8HFIP    F6   90   0.357   0.314   1.929 -0.1403  0.3227  0.1845
    8HFIP    C7   91   0.533   0.345   1.676  0.4871 -0.1297  0.1927
    8HFIP    F8   92   0.615   0.273   1.758  0.1057  0.4138  0.2231
    8HFIP    F9   93   0.538   0.476   1.716 -0.5875  0.6622 -0.1212
    8HFIP   F10   94   0.585   0.349   1.550  0.3874 -0.3006  0.3362
    8HFIP   H11   95   0.196   0.354   1.645  0.0294  1.7287  1.8682
    8HFIP   H12   96   0.396   0.207   1.618  2.3463  1.0193 -0.7774
    9HFIP    O1   97   3.297   2.624   2.664  0.3777  0.3789  0.2526
    9HFIP    C2   98   3.390   2.728   2.663  0.0920  0.0630  0.1751
    9HFIP    C3   99   3.320   2.868   2.679 -0.0503  0.1719  0.8032
    9HFIP    F4  100   3.237   2.865   2.787 -0.1703  0.2587  0.4615
    9HFIP    F5  101   3.242   2.909   2.573 -0.3816 -0.0605  0.3232
    9HFIP    F6  102   3.411   2.966   2.690 -0.4410  0.1180 -0.0918
    9HFIP    C7  103   3.474   2.725   2.524  0.2101 -0.3129  0.6339
    9HFIP    F8  104   3.403   2.756   2.414 -0.4166  0.3904  0.6323
    9HFIP    F9  105   3.525   2.602   2.502  0.4547 -0.1908  0.3352
    9HFIP   F10  106   3.581   2.809   2.526 -0.3999 -0.7734 -0.4174
    9HFIP   H11  107   3.291   2.551   2.596  0.9031 -0.8810  1.5298
    9HFIP   H12  108   3.463   2.725   2.744  0.1650  0.7697  0.1436
   10HFIP    O1  109   1.012   2.517   2.487  0.2559 -0.7426  0.2420
   10HFIP    C2  110   1.050   2.565   2.619 -0.4010  0.5909  0.5217
   10HFIP    C3  111   0.970   2.692   2.669  0.0603 -0.0353  0.1212
   10HFIP    F4  112   0.974   2.789   2.572 -0.5386 -0.3894  0.2431
   10HFIP    F5  113   0.998   2.755   2.784  0.2024 -0.1635 -0.6771
   10HFIP    F6  114   0.840   2.667   2.680  0.6086 -0.2857 -0.2700
   10HFIP    C7  115   1.199   2.578   2.652  0.1475  0.7141 -0.0336
   10HFIP    F8  116   1.268   2.679   2.589 -0.0942 -0.0692 -0.5000
   10HFIP    F9  117   1.251   2.463   2.615 -0.1829 -0.6138 -1.0426
   10HFIP   F10  118   1.219   2.589   2.788 -0.0864 -0.3289  0.5248
   10HFIP   H11  119   0.950   2.569   2.429 -1.1645 -3.1797 -0.5242
   10HFIP   H12  120   1.019   2.492   2.694  0.7624  1.6098  2.0097
   11HFIP    O1  121   0.690   3.046   1.586 -0.5341  0.3545  0.5342
   11HFIP    C2  122   0.812   2.986   1.629 -0.5934 -0.2100  0.6187
   11HFIP    C3  123   0.815   2.890   1.749  0.4966 -0.5034 -0.4707
   11HFIP    F4  124   0.928   2.822   1.773 -0.0135 -0.0747  0.4818
   11HFIP    F5  125   0.721   2.792   1.730 -0.0932 -0.0418  0.7315
   11HFIP    F6  126   0.784   2.954   1.864  0.1630  0.2939  0.5427
   11HFIP    C7  127   0.931   3.088   1.642  0.3882  0.5438 -0.4756
   11HFIP    F8  128   1.049   3.023   1.655 -0.1283  0.3739  0.1731
   11HFIP    F9  129   0.916   3.176   1.742 -0.2402  0.0767  0.3112
   11HFIP   F10  130   0.949   3.147   1.525  0.0256 -0.0998  0.2109
   11HFIP   H11  131   0.620   3.035   1.656 -0.8618 -1.3515 -0.0472
   11HFIP   H12  132   0.840   2.920   1.546  0.4838 -1.9998  2.3601
   12HFIP    O1  133   1.136   0.879   0.576  0.3419  0.6753 -0.4796
   12HFIP    C2  134   1.236   0.837   0.480 -0.3568 -0.2250 -0.5868
   12HFIP    C3  135   1.274   0.684   0.499  0.1445  0.2589 -0.6106
   12HFIP    F4  136   1.166   0.622   0.548  0.1321 -0.0187  0.0392
   12HFIP    F5  137   1.376   0.652   0.582  0.3566  0.2192  0.1121
   12HFIP    F6  138   1.299   0.611   0.386 -0.5230  0.2732 -0.3399
   12HFIP    C7  139   1.361   0.925   0.467 -0.3207  0.8072  0.1797
   12HFIP    F8  140   1.417   0.955   0.585  0.1559 -0.5083  0.2465
   12HFIP    F9  141   1.339   1.042   0.412  0.1079  0.0005 -0.0575
   12HFIP   F10  142   1.462   0.863   0.395 -0.3129 -0.1854 -0.0981
   12HFIP   H11  143   1.077   0.801   0.597  1.6870 -1.1357 -3.1898
   12HFIP   H12  144   1.194   0.849   0.380 -1.1234  0.0480 -0.2406
   13HFIP    O1  145   0.444   3.267   2.982 -0.1810  0.4233  0.4082
   13HFIP    C2  146   0.366   3.334   3.083  0.0487  0.3158  0.3063
   13HFIP    C3  147   0.234   3.397   3.035 -0.3466  0.1368  0.4770
   13HFIP    F4  148   0.254   3.526   2.989  0.3230  0.0626 -0.6907
   13HFIP    F5  149   0.137   3.412   3.129  0.2203  0.5684 -0.0097
   13HFIP    F6  150   0.162   3.339   2.934  0.0257  0.5874 -0.0920
   13HFIP    C7  151   0.449   3.436   3.169 -0.3426 -0.1140  0.3909
   13HFIP    F8  152   0.567   3.383   3.207 -0.2180 -0.7296  0.3253
   13HFIP    F9  153   0.387   3.472   3.284 -0.3754  0.1207  0.1551
   13HFIP   F10  154   0.482   3.552   3.108  0.2178 -0.4268 -0.1217
   13HFIP   H11  155   0.382   3.245   2.906  1.7225  1.4661 -1.5050
   13HFIP   H12  156   0.343   3.258   3.157 -3.4010  1.5162  0.5666
   14HFIP    O1  157   0.604   2.467   2.441  0.5214  0.3111 -0.2237
   14HFIP    C2  158   0.629   2.326   2.466  0.3220 -0.3601  0.2454
   14HFIP    C3  159   0.535   2.241   2.384 -0.0051  0.3445 -0.2174
   14HFIP    F4  160   0.538   2.272   2.251 -0.1098  0.4209 -0.7715
   14HFIP    F5  161   0.404   2.259   2.419 -0.5714 -0.3461 -0.1096
   14HFIP    F6  162   0.572   2.108   2.397  0.0818 -0.3283 -0.0097
   14HFIP    C7  163   0.627   2.285   2.619 -0.0523 -0.2994 -0.3199
   14HFIP    F8  164   0.643   2.155   2.658 -0.4330  0.4937 -0.5779
   14HFIP    F9  165   0.519   2.336   2.683  0.5384  0.1053 -0.2853
   14HFIP   F10  166   0.736   2.339   2.680  0.0124  0.2378  0.4040
   14HFIP   H11  167   0.509   2.478   2.412  0.6900  1.6179 -0.3227
   14HFIP   H12  168   0.728   2.304   2.425  0.4308  0.4525  0.0648
   15HFIP    O1  169   0.806   2.621   2.396  0.0717  0.0869 -0.2140
   15HFIP    C2  170   0.804   2.688   2.277  0.2358 -0.3724  0.1280
   15HFIP    C3  171   0.677   2.764   2.236 -0.4031 -0.0629  1.1456
   15HFIP    F4  172   0.571   2.680   2.230  0.8467  0.3411 -0.3347
   15HFIP    F5  173   0.690   2.828   2.113 -0.1914 -0.0147 -0.4449
   15HFIP    F6  174   0.642   2.860   2.321  0.3616 -0.2466  0.0201
   15HFIP    C7  175   0.875   2.617   2.159 -0.1401 -0.3747  0.9144
   15HFIP    F8  176   0.976   2.540   2.200  0.1487 -0.0855 -0.4010
   15HFIP    F9  177   0.909   2.708   2.064  0.2130  0.2568 -0.1099
   15HFIP   F10  178   0.787   2.536   2.106  0.0797 -0.3996  1.1333
   15HFIP   H11  179   0.717   2.578   2.410  0.3275 -0.1466  0.8072
   15HFIP   H12  180   0.875   2.768   2.298 -0.1498 -0.3302  1.3208
   16HFIP    O1  181   0.635   1.708   1.084 -1.0312 -0.1404  0.1078
   16HFIP    C2  182   0.686   1.733   1.212  0.4153  0.2169  0.2150
   16HFIP    C3  183   0.739   1.597   1.284 -0.2517 -0.4313  0.1117
   16HFIP    F4  184   0.831   1.544   1.206  0.4708 -0.1428  0.0995
   16HFIP    F5  185   0.642   1.503   1.306  0.0356  0.3493  0.3660
   16HFIP    F6  186   0.804   1.618   1.403  0.4215 -0.0222  0.3254
   16HFIP    C7  187   0.586   1.811   1.303  0.2757 -0.5532  0.3966
   16HFIP    F8  188   0.661   1.846   1.413 -1.1639 -0.0434  0.5083
   16HFIP    F9  189   0.473   1.748   1.355 -0.2169  0.0642  0.2355
   16HFIP   F10  190   0.550   1.933   1.253  0.1628 -0.4020  0.4741
   16HFIP   H11  191   0.603   1.617   1.059 -0.7254  0.1431 -1.4095
   16HFIP   H12  192   0.775   1.794   1.201  1.4459 -1.1272  0.9550
   17HFIP    O1  193   0.683   1.715   0.445 -0.0348  0.0231 -0.2672
   17HFIP    C2  194   0.552   1.727   0.407  0.0358 -0.5505 -0.1117
   17HFIP    C3  195   0.441   1.696   0.519 -0.4638  0.5161  0.7165
   17HFIP    F4  196   0.483   1.709   0.645  0.4033 -0.2329  0.0447
   17HFIP    F5  197   0.384   1.576   0.510 -0.0421 -0.0376 -0.4787
   17HFIP    F6  198   0.334   1.780   0.503  0.0290  0.5376  0.7862
   17HFIP    C7  199   0.516   1.656   0.269 -0.8512  0.9657 -0.1408
   17HFIP    F8  200   0.613   1.686   0.180 -0.1106  0.4542  0.0680
   17HFIP    F9  201   0.396   1.686   0.212  0.0632 -0.6029 -0.0776
   17HFIP   F10  202   0.523   1.518   0.285 -0.3155  0.0012 -0.2206
   17HFIP   H11  203   0.743   1.763   0.381 -0.3814 -0.6074 -1.0827
   17HFIP   H12  204   0.528   1.830   0.380  2.8978  0.0227 -0.7014
   18HFIP    O1  205   0.226   2.400   1.750 -0.8355 -0.3582 -0.0814
   18HFIP    C2  206   0.296   2.397   1.874 -0.2473  0.2918 -0.3230
   18HFIP    C3  207   0.219   2.437   1.996 -0.4255  0.5038 -0.6127
   18HFIP    F4  208   0.105   2.358   2.009 -0.0570 -0.1773 -0.4987
   18HFIP    F5  209   0.181   2.565   1.973 -0.2720 -0.0679  0.2596
   18HFIP    F6  210   0.284   2.441   2.119  0.0101 -0.1740 -0.0032
   18HFIP    C7  211   0.439   2.459   1.861  0.5404 -0.1466 -0.6338
   18HFIP    F8  212   0.439   2.593   1.825  0.0596 -0.4473  0.0683
   18HFIP    F9  213   0.528   2.399   1.780  0.2134 -0.3716  0.2833
   18HFIP   F10  214   0.500   2.457   1.979 -0.7733  0.1088 -0.2261
   18HFIP   H11  215   0.194   2.486   1.709 -1.0068 -0.3966 -0.0276
   18HFIP   H12  216   0.315   2.292   1.895 -1.0771  0.3056  0.5423
   19HFIP    O1  217   0.862   1.980   1.883 -0.1031  0.1771  0.0296
   19HFIP    C2  218   0.725   1.943   1.912  0.4834 -0.1559  1.4257
   19HFIP    C3  219   0.647   1.907   1.780  0.1735  0.1449  0.1442
   19HFIP    F4  220   0.720   1.830   1.695 -0.7734  0.2884  0.5443
   19HFIP    F5  221   0.626   2.021   1.715  0.3247  0.8480  0.4389
   19HFIP    F6  222   0.533   1.840   1.797  0.2289 -0.1723 -0.0231
   19HFIP    C7  223   0.643   2.041   2.004 -0.3747  0.2126 -0.0673
   19HFIP    F8  224   0.511   2.003   2.021 -0.1444 -0.1194 -0.2838
   19HFIP    F9  225   0.641   2.168   1.953  0.2673  0.4994  0.0960
   19HFIP   F10  226   0.693   2.039   2.131 -0.6516 -0.2411  0.1369
   19HFIP   H11  227   0.926   1.910   1.851 -0.7102 -0.1505 -0.4581
   19HFIP   H12  228   0.717   1.851   1.969 -1.0211 -1.1154 -0.2692
   20HFIP    O1  229   3.373   2.007   3.136 -0.6137  0.5554  0.3498
   20HFIP    C2  230   3.301   1.930   3.231 -0.1387 -0.8113 -0.7990
   20HFIP    C3  231   3.265   1.783   3.181  0.6058  0.1582 -0.3821
   20HFIP    F4  232   3.205   1.791   3.063 -0.4083 -0.0361 -0.3566
   20HFIP    F5  233   3.200   1.707   3.272  0.0814  0.3692  0.2841
   20HFIP    F6  234   3.377   1.715   3.149  0.3328  0.1684 -0.0083
   20HFIP    C7  235   3.175   1.993   3.292  0.3878  0.1083  0.2016
   20HFIP    F8  236   3.134   1.930   3.404  0.2124  0.0827 -0.9579
   20HFIP    F9  237   3.074   2.004   3.203 -0.1006 -0.6092 -0.1421
   20HFIP   F10  238   3.208   2.111   3.339 -0.4481 -0.4656  0.2242
   20HFIP   H11  239   3.355   1.982   3.040  1.6922 -0.4780  0.1677
   20HFIP   H12  240   3.360   1.911   3.320  1.4198 -0.0837 -1.6707
   21HFIP    O1  241   0.501   2.440   0.739 -0.4401 -0.4920  0.0416
   21HFIP    C2  242   0.473   2.531   0.840 -0.7199  0.5445 -0.2994
   21HFIP    C3  243   0.579   2.549   0.949  0.4178  0.2975  0.1223
   21HFIP    F4  244   0.704   2.574   0.900 -0.7371 -0.0793  0.5726
   21HFIP    F5  245   0.600   2.435   1.021  0.4119 -0.1675  0.0210
   21HFIP    F6  246   0.562   2.651   1.035  0.4039  0.2619 -0.1958
   21HFIP    C7  247   0.329   2.528   0.911  0.0523  0.5693  0.3570
   21HFIP    F8  248   0.321   2.442   1.018 -0.2999 -0.3252 -0.3624
   21HFIP    F9  249   0.245   2.483   0.812  0.2604  0.2725  0.3218
   21HFIP   F10  250   0.297   2.657   0.948  0.4708 -0.6436  0.2927
   21HFIP   H11  251   0.547   2.356   0.768 -0.3224 -1.7495 -3.5823
   21HFIP   H12  252   0.477   2.626   0.787  1.9703  2.2038  2.6969
   22HFIP    O1  253   0.064   2.414   0.577  0.6500 -0.3992 -0.2394
   22HFIP    C2  254   0.036   2.279   0.549 -0.4259  0.5630 -0.4370
   22HFIP    C3  255  -0.120   2.258   0.515 -0.0606 -0.1328  0.1368
   22HFIP    F4  256  -0.212   2.284   0.613 -0.6318 -0.0208 -0.4204
   22HFIP    F5  257  -0.144   2.135   0.473  0.2164  0.4119  0.2769
   22HFIP    F6  258  -0.150   2.345   0.414  0.7260 -0.3899  0.1024
   22HFIP    C7  259   0.081   2.186   0.669 -0.1380  0.1436  0.6793
   22HFIP    F8  260   0.204   2.221   0.710  0.2553  0.2456  0.2138
   22HFIP    F9  261   0.097   2.058   0.616 -0.0130  0.1300 -0.3354
   22HFIP   F10  262   0.003   2.185   0.778 -0.0927  0.0607 -0.5197
   22HFIP   H11  263   0.161   2.429   0.595  0.2220  0.4430  1.3642
   22HFIP   H12  264   0.090   2.246   0.461  0.4324  1.3403 -0.2153
   23HFIP    O1  265   0.688   3.189   3.014  0.5995  0.0845 -0.3389
   23HFIP    C2  266   0.725   3.110   2.908 -0.1311  0.7068 -0.6117
   23HFIP    C3  267   0.751   3.205   2.784  0.4784  0.1591 -0.2876
   23HFIP    F4  268   0.817   3.146   2.681 -0.0496  0.2116 -0.2115
   23HFIP    F5  269   0.827   3.313   2.818 -0.0577  0.1201 -0.2740
   23HFIP    F6  270   0.637   3.255   2.735  0.5303 -0.1737 -0.0164
   23HFIP    C7  271   0.630   2.987   2.876 -0.7575  0.2496 -0.5070
   23HFIP    F8  272   0.508   3.024   2.837  0.2302  0.3500 -0.3202
   23HFIP    F9  273   0.604   2.912   2.987  0.3362  0.3450  0.6974
   23HFIP   F10  274   0.682   2.911   2.775 -0.5441  0.5013 -0.1134
   23HFIP   H11  275   0.590   3.208   3.011 -0.0800 -2.7002  2.2571
   23HFIP   H12  276   0.823   3.067   2.930  0.1990 -0.0238 -3.2980
   24HFIP    O1  277   2.922   1.983   0.997  0.2806 -0.2273 -0.0080
   24HFIP    C2  278   2.833   2.051   0.922  0.2423  0.2136  0.5998
   24HFIP    C3  279   2.705   1.963   0.910  0.0581 -0.2463 -0.5367
   24HFIP    F4  280   2.719   1.866   0.817  0.0024  0.7052 -0.3754
   24HFIP    F5  281   2.596   2.025   0.856  0.1489 -0.4308 -0.1860
   24HFIP    F6  282   2.646   1.903   1.021  0.3672  0.0160  0.1342
   24HFIP    C7  283   2.875   2.124   0.788 -0.1939 -0.5507  0.6641
   24HFIP    F8  284   2.996   2.189   0.805  0.1240 -0.2833 -0.0964
   24HFIP    F9  285   2.783   2.220   0.753 -0.0519 -0.7395 -0.0221
   24HFIP   F10  286   2.915   2.045   0.685  0.0909 -0.2598 -0.1433
   24HFIP   H11  287   2.977   2.050   1.046 -1.1179  0.3816  0.7496
   24HFIP   H12  288   2.800   2.134   0.984  0.7330 -1.0949  2.6690
   25HFIP    O1  289   0.131   2.490   3.050 -0.5440  0.6843 -0.2230
   25HFIP    C2  290   0.248   2.487   2.972 -0.1452  0.4472  0.6247
   25HFIP    C3  291   0.368   2.534   3.055  0.1133  0.5012 -0.6149
   25HFIP    F4  292   0.488   2.513   2.992 -0.0808 -0.6807  0.6417
   25HFIP    F5  293   0.370   2.450   3.163  0.1131 -0.4777  0.2176
   25HFIP    F6  294   0.358   2.661   3.101  0.1855 -0.0010  0.5060
   25HFIP    C7  295   0.237   2.577   2.837 -0.1365  0.8829  0.7114
   25HFIP    F8  296   0.147   2.516   2.754 -0.0838  0.1992 -0.1696
   25HFIP    F9  297   0.344   2.564   2.755  0.1338 -0.3412 -0.6025
   25HFIP   F10  298   0.206   2.709   2.858  0.0727 -0.5962  0.1755
   25HFIP   H11  299   0.133   2.418   3.119  0.3863  0.2741 -0.6663
   25HFIP   H12  300   0.266   2.384   2.942  2.2894  1.0298  0.0137
   26HFIP    O1  301   1.104   1.112   0.731 -0.2501  0.2776  0.0028
   26HFIP    C2  302   1.222   1.117   0.811 -0.4739 -0.5945  0.2528
   26HFIP    C3  303   1.227   0.994   0.913  0.1386 -0.5953  0.9190
   26HFIP    F4  304   1.224   0.876   0.850 -0.2661  0.0653 -0.6138
   26HFIP    F5  305   1.117   0.991   0.988  0.3198  0.5102 -0.4891
   26HFIP    F6  306   1.327   0.983   1.003  0.3372  0.0906 -0.7512
   26HFIP    C7  307   1.237   1.251   0.896 -0.0784 -0.2511 -0.0129
   26HFIP    F8  308   1.224   1.363   0.822  0.2218  0.5969  0.3917
   26HFIP    F9  309   1.364   1.260   0.945 -0.4651  0.5930  0.3252
   26HFIP   F10  310   1.157   1.263   1.008  0.0770 -0.5496  0.3116
   26HFIP   H11  311   1.103   1.039   0.662 -1.4530 -0.2343  0.5450
   26HFIP   H12  312   1.308   1.113   0.744 -0.9772 -2.9759 -0.2990
   27HFIP    O1  313   0.677   0.059   0.510  0.0863  0.1626  0.6143
   27HFIP    C2  314   0.817   0.086   0.527 -0.5139 -0.1129 -0.3150
   27HFIP    C3  315   0.857   0.055   0.674 -0.4252  0.1111  0.0210
   27HFIP    F4  316   0.837  -0.078   0.698  0.3039 -0.1164  0.5906
   27HFIP    F5  317   0.808   0.126   0.781  0.1672 -0.0171 -0.2419
   27HFIP    F6  318   0.991   0.068   0.685 -0.5574  0.0060  0.2057
   27HFIP    C7  319   0.860   0.229   0.488 -0.0498  0.2527 -0.1867
   27HFIP    F8  320   0.853   0.239   0.351 -0.6261 -0.2786  0.1002
   27HFIP    F9  321   0.980   0.274   0.535  0.0938  0.1395  0.8337
   27HFIP   F10  322   0.773   0.328   0.527 -0.3853  0.3399 -0.2198
   27HFIP   H11  323   0.653  -0.030   0.472  0.8552 -0.3319  1.2808
   27HFIP   H12  324   0.880   0.018   0.470 -1.9796 -0.0367 -2.0481
   28HFIP    O1  325   3.456   0.629   1.714  0.0936 -0.1757  0.3517
   28HFIP    C2  326   3.383   0.655   1.837 -0.1104 -0.3077 -0.2728
   28HFIP    C3  327   3.487   0.628   1.952 -0.7512  0.3963 -0.3829
   28HFIP    F4  328   3.538   0.504   1.959  0.4965 -0.0279 -0.0256
   28HFIP    F5  329   3.430   0.655   2.076 -0.1421 -0.0821 -0.0726
   28HFIP    F6  330   3.592   0.713   1.948 -0.2927 -0.0514  0.2096
   28HFIP    C7  331   3.258   0.566   1.862  0.1710  0.2079 -0.2848
   28HFIP    F8  332   3.186   0.559   1.750 -0.6649 -0.7011 -0.6112
   28HFIP    F9  333   3.160   0.603   1.954 -0.0504 -0.6628  0.6594
   28HFIP   F10  334   3.301   0.434   1.886 -0.5654  0.0339  0.1874
   28HFIP   H11  335   3.472   0.714   1.665 -1.4909 -0.0952 -0.0579
   28HFIP   H12  336   3.350   0.759   1.842 -0.7434 -0.4187 -1.8726
   29HFIP    O1  337   1.340   3.052   2.301 -0.1350 -0.1770 -0.3673
   29HFIP    C2  338   1.322   2.975   2.187  0.2749  0.0274 -0.1686
   29HFIP    C3  339   1.368   3.044   2.051  0.2767  0.1862 -0.3122
   29HFIP    F4  340   1.358   2.968   1.939 -0.6217  0.0313  0.3232
   29HFIP    F5  341   1.492   3.105   2.063 -0.3097 -0.4794 -0.4865
   29HFIP    F6  342   1.300   3.158   2.029 -0.1755 -0.0934 -0.2867
   29HFIP    C7  343   1.187   2.899   2.173  0.2719 -0.4808  0.1581
   29HFIP    F8  344   1.093   2.981   2.127 -0.5586  0.3067 -0.4216
   29HFIP    F9  345   1.139   2.848   2.288  0.3555 -0.4669  0.2436
   29HFIP   F10  346   1.197   2.798   2.087  0.2382 -0.3333 -0.1101
   29HFIP   H11  347   1.326   3.148   2.277  0.3999  0.3281  1.2411
   29HFIP   H12  348   1.395   2.895   2.201  1.3808  0.9872 -0.3590
   30HFIP    O1  349   0.449   2.932   3.303 -0.7099  0.3441 -0.0822
   30HFIP    C2  350   0.423   2.899   3.440  0.6213 -0.3379  0.6131
   30HFIP    C3  351   0.511   2.961   3.548  0.8627  0.0225  0.1091
   30HFIP    F4  352   0.622   2.877   3.553  0.4532  0.2432 -0.3739
   30HFIP    F5  353   0.448   2.958   3.671  0.7550  0.3550  0.4928
   30HFIP    F6  354   0.556   3.087   3.522  0.3234  0.2458 -0.1866
   30HFIP    C7  355   0.408   2.742   3.460  0.1242 -0.0600 -0.2463
   30HFIP    F8  356   0.513   2.668   3.411  0.4937  0.2924 -0.2733
   30HFIP    F9  357   0.299   2.709   3.388 -0.0365 -0.2526 -0.0427
   30HFIP   F10  358   0.387   2.702   3.589 -0.2231 -0.5725 -0.0944
   30HFIP   H11  359   0.539   2.902   3.273 -0.1629  2.5278 -0.6918
   30HFIP   H12  360   0.324   2.940   3.461 -0.0362 -0.1194 -2.7640
   31HFIP    O1  361   1.632   2.075   0.567 -0.4351  0.0436 -0.6538
   31HFIP    C2  362   1.542   2.003   0.648 -0.2211  0.1231  0.3779
   31HFIP    C3  363   1.388   1.996   0.606  0.2390 -0.2517 -0.3852
   31HFIP    F4  364   1.340   2.125   0.593 -0.2633  0.0176  0.0321
   31HFIP    F5  365   1.307   1.949   0.701  0.0854  0.1059 -0.5404
   31HFIP    F6  366   1.355   1.917   0.500  0.0100  0.1419 -0.3134
   31HFIP    C7  367   1.559   2.021   0.806 -0.2318 -0.1350  1.3485
   31HFIP    F8  368   1.475   2.120   0.851  0.3238 -0.2485 -0.0275
   31HFIP    F9  369   1.682   2.061   0.848 -0.2689  0.0581 -0.1413
   31HFIP   F10  370   1.527   1.909   0.877  0.1058 -0.5189  0.3629
   31HFIP   H11  371   1.588   2.163   0.548  2.9691  1.7802 -0.8056
   31HFIP   H12  372   1.577   1.900   0.641 -1.7878 -0.3843 -0.2160
   32HFIP    O1  373   0.797   1.581   0.665 -0.0184  0.0696  0.0614
   32HFIP    C2  374   0.922   1.641   0.676  0.0340  0.2322 -0.3865
   32HFIP    C3  375   1.019   1.587   0.567 -0.1042 -0.1926 -0.5552
   32HFIP    F4  376   0.971   1.620   0.442  0.2890 -0.6527  0.2420
   32HFIP    F5  377   1.044   1.452   0.578  0.7469 -0.1912  0.1375
   32HFIP    F6  378   1.142   1.647   0.566  0.4305 -0.7362 -0.8873
   32HFIP    C7  379   0.976   1.621   0.825  0.3071 -0.4098  0.0734
   32HFIP    F8  380   1.107   1.659   0.842  0.0882  0.0442 -0.5293
   32HFIP    F9  381   0.968   1.493   0.867 -0.1495 -0.5646  0.0815
   32HFIP   F10  382   0.905   1.696   0.913  0.2101  0.3520 -0.2944
   32HFIP   H11  383   0.727   1.644   0.631 -0.1403  0.6015  1.2831
   32HFIP   H12  384   0.918   1.748   0.653  1.8421  0.1439 -1.2341
   33HFIP    O1  385   2.108   1.992   1.169  0.2919 -0.0071  0.1376
   33HFIP    C2  386   2.103   2.139   1.161 -0.7810 -0.4710  0.5725
   33HFIP    C3  387   2.005   2.225   1.243 -0.0076  0.3919 -0.1550
   33HFIP    F4  388   1.879   2.183   1.218  0.1784  0.3335  0.2390
   33HFIP    F5  389   1.991   2.358   1.232 -0.9636 -0.0345 -0.5550
   33HFIP    F6  390   2.030   2.209   1.379  0.1258 -0.0679 -0.2201
   33HFIP    C7  391   2.100   2.195   1.013 -0.0876 -0.6849 -0.3531
   33HFIP    F8  392   2.153   2.118   0.919 -0.1098  0.0561  0.2471
   33HFIP    F9  393   2.157   2.317   1.002  0.2489  0.5714 -0.2041
   33HFIP   F10  394   1.969   2.208   0.969  0.3286 -0.8979  0.3740
   33HFIP   H11  395   2.066   1.949   1.089 -1.6904 -1.0999  1.7251
   33HFIP   H12  396   2.200   2.172   1.197 -0.1724  0.4754 -1.7865
   34HFIP    O1  397   2.547   2.475   2.865  0.2424 -0.2395  0.0557
   34HFIP    C2  398   2.469   2.590   2.856  0.4278 -0.3440 -0.1716
   34HFIP    C3  399   2.324   2.579   2.805  0.2251 -0.0707  0.6800
   34HFIP    F4  400   2.259   2.699   2.786  0.6910 -0.2601 -0.1702
   34HFIP    F5  401   2.253   2.502   2.895  0.0791 -0.0831 -0.1376
   34HFIP    F6  402   2.303   2.504   2.693  0.5645  0.1114  0.4901
   34HFIP    C7  403   2.546   2.704   2.784  1.0065 -0.5245  0.6541
   34HFIP    F8  404   2.557   2.668   2.654 -0.3306 -0.0670  0.0477
   34HFIP    F9  405   2.678   2.721   2.823 -0.2407  0.3886  0.1393
   34HFIP   F10  406   2.505   2.829   2.800  0.6412 -0.0005 -0.3117
   34HFIP   H11  407   2.499   2.403   2.915 -1.1095 -0.3020 -1.2931
   34HFIP   H12  408   2.458   2.613   2.962  1.4155 -1.2486  0.1314
   35HFIP    O1  409   0.963   2.279   2.446  0.5294  0.4762 -0.0277
   35HFIP    C2  410   1.076   2.192   2.449 -0.4904  0.0767 -0.3026
   35HFIP    C3  411   1.098   2.104   2.322  0.0608 -0.7142 -0.4923
   35HFIP    F4  412   1.094   2.181   2.211  0.1533  0.1595  0.0251
   35HFIP    F5  413   0.997   2.012   2.310 -0.3460  0.8597  0.2518
   35HFIP    F6  414   1.216   2.044   2.308  0.0614 -0.1057 -0.4787
   35HFIP    C7  415   1.077   2.107   2.578  0.2254 -0.0481  0.1033
   35HFIP    F8  416   1.191   2.036   2.586  0.3206  0.0804 -0.1926
   35HFIP    F9  417   0.970   2.025   2.589  0.1851  0.3342 -0.0489
   35HFIP   F10  418   1.089   2.183   2.693 -0.3880  0.3872  0.0450
   35HFIP   H11  419   0.987   2.376   2.452 -1.0210  0.7499  2.4062
   35HFIP   H12  420   1.166   2.252   2.452  0.5111 -1.3719 -0.7651
   36HFIP    O1  421   0.305   3.345   0.557  0.4312  0.1610 -0.2287
   36HFIP    C2  422   0.176   3.286   0.553 -0.4661 -0.5493 -0.1605
   36HFIP    C3  423   0.156   3.177   0.669 -0.0729 -0.1040 -0.0366
   36HFIP    F4  424   0.205   3.215   0.790 -0.4146  0.1033 -0.5281
   36HFIP    F5  425   0.217   3.058   0.632 -0.2196  0.8544 -0.4078
   36HFIP    F6  426   0.023   3.152   0.690  0.5612 -0.0695 -0.1354
   36HFIP    C7  427   0.141   3.227   0.411 -0.2453  0.0026  0.1111
   36HFIP    F8  428   0.223   3.129   0.366 -0.0557 -0.6062  0.1982
   36HFIP    F9  429   0.150   3.323   0.311 -0.2904  0.0983  0.1129
   36HFIP   F10  430   0.020   3.170   0.398 -0.5618 -0.3727  0.1193
   36HFIP   H11  431   0.311   3.425   0.616  2.1229 -0.7307  0.8547
   36HFIP   H12  432   0.108   3.366   0.584  0.5766 -0.0002  0.7798
   37HFIP    O1  433   0.605   3.195   1.393  0.0413  0.3373  0.2356
   37HFIP    C2  434   0.634   3.174   1.252 -0.7081  0.8123 -0.3149
   37HFIP    C3  435   0.527   3.215   1.152  0.7890  0.0750  0.4427
   37HFIP    F4  436   0.492   3.342   1.171 -0.0977 -0.4427 -0.0381
   37HFIP    F5  437   0.409   3.147   1.172  0.0096  0.1160 -0.2639
   37HFIP    F6  438   0.571   3.207   1.022  0.3553  0.3872 -0.5161
   37HFIP    C7  439   0.678   3.027   1.226 -0.4686 -0.3507  0.2264
   37HFIP    F8  440   0.579   2.958   1.286  0.7871  0.0111  0.8619
   37HFIP    F9  441   0.794   3.006   1.298  0.0428  0.1245 -0.2598
   37HFIP   F10  442   0.713   2.990   1.101 -0.3518  0.2005 -0.4993
   37HFIP   H11  443   0.663   3.134   1.446  1.4163 -0.5225 -2.1600
   37HFIP   H12  444   0.719   3.233   1.219  0.6230 -1.0305 -0.2574
   38HFIP    O1  445   1.000   2.365   1.415 -0.3382  0.3879 -0.3622
   38HFIP    C2  446   0.977   2.460   1.313  0.1344 -0.6483  0.1437
   38HFIP    C3  447   0.853   2.544   1.343 -0.1211  0.1410  0.4777
   38HFIP    F4  448   0.883   2.636   1.436 -0.2031  0.1948 -0.4327
   38HFIP    F5  449   0.744   2.471   1.383 -0.0991 -0.0896 -0.5052
   38HFIP    F6  450   0.796   2.605   1.234 -0.3722  0.4171  0.7196
   38HFIP    C7  451   0.963   2.399   1.160  0.0705  0.8469  0.2781
   38HFIP    F8  452   1.055   2.303   1.132  0.3333 -0.3502  0.1097
   38HFIP    F9  453   0.979   2.498   1.068  0.0080 -0.2051  0.0269
   38HFIP   F10  454   0.843   2.340   1.132  0.0773 -0.3792  0.1735
   38HFIP   H11  455   0.916   2.311   1.421  0.0591 -0.1716  0.1671
   38HFIP   H12  456   1.065   2.525   1.302 -1.2236  1.2811  0.4191
   39HFIP    O1  457   1.186   1.857   1.568 -0.6013  0.2133  0.0625
   39HFIP    C2  458   1.109   1.850   1.444  0.4083  0.4629  0.3776
   39HFIP    C3  459   1.174   1.777   1.322 -0.2378  0.3182  0.6348
   39HFIP    F4  460   1.244   1.661   1.350  0.0383 -0.7384 -0.1258
   39HFIP    F5  461   1.275   1.847   1.260 -0.1438 -0.2801  0.2397
   39HFIP    F6  462   1.090   1.757   1.218  0.2053  0.6617 -0.3353
   39HFIP    C7  463   1.049   1.981   1.390  0.4083 -0.2635  0.2665
   39HFIP    F8  464   0.952   1.964   1.293  0.1160 -0.0240  0.7458
   39HFIP    F9  465   1.136   2.074   1.340 -0.7161 -0.3486 -0.1626
   39HFIP   F10  466   0.986   2.039   1.493  0.3564  0.0527  0.0206
   39HFIP   H11  467   1.271   1.900   1.540 -1.8397  0.9311 -2.8014
   39HFIP   H12  468   1.023   1.788   1.468  0.4621 -0.3369 -1.4493
   40HFIP    O1  469   1.523   1.963   2.448 -0.0148 -0.2036 -0.4946
   40HFIP    C2  470   1.508   1.858   2.369  0.9616  0.0344  1.1357
   40HFIP    C3  471   1.449   1.728   2.437  0.2250 -0.2428 -0.5897
   40HFIP    F4  472   1.371   1.754   2.547 -0.1191 -0.0700  0.4262
   40HFIP    F5  473   1.553   1.649   2.487 -0.2777  0.3994 -0.1728
   40HFIP    F6  474   1.387   1.636   2.357  0.0083  0.5116  0.0525
   40HFIP    C7  475   1.613   1.826   2.255  0.3512  0.6406  0.2919
   40HFIP    F8  476   1.635   1.934   2.180  0.2682 -0.0968  0.4371
   40HFIP    F9  477   1.575   1.726   2.175 -0.6393  0.2674 -0.1664
   40HFIP   F10  478   1.731   1.791   2.311  0.3599  0.0611  0.0271
   40HFIP   H11  479   1.499   1.937   2.542  1.0339  1.8156  0.3688
   40HFIP   H12  480   1.421   1.889   2.311 -0.2050 -3.0773  1.1172
   41HFIP    O1  481   0.827   1.742   3.323 -0.2891 -0.2188 -0.2116
   41HFIP    C2  482   0.725   1.705   3.236  0.7927  0.0856  0.0476
   41HFIP    C3  483   0.610   1.634   3.313  0.3092  0.4659 -0.0339
   41HFIP    F4  484   0.568   1.718   3.408  0.3610 -0.1295 -0.2333
   41HFIP    F5  485   0.643   1.510   3.366  0.0694  0.1954  0.1376
   41HFIP    F6  486   0.489   1.622   3.248  0.3981 -0.4440 -0.4237
   41HFIP    C7  487   0.764   1.619   3.100  0.3455 -0.0422 -0.7728
   41HFIP    F8  488   0.780   1.483   3.112  0.4303  0.3513 -0.2584
   41HFIP    F9  489   0.872   1.667   3.039  0.2330  0.3202  0.3674
   41HFIP   F10  490   0.662   1.636   3.009 -0.2272  0.3783  0.0833
   41HFIP   H11  491   0.872   1.821   3.280 -0.4916 -0.7301 -1.3931
   41HFIP   H12  492   0.679   1.795   3.195  3.0354  0.7552 -1.0377
   42HFIP    O1  493   0.493   3.058   1.742 -0.6713  0.0441  0.1911
   42HFIP    C2  494   0.455   2.995   1.859  1.1295  0.0747  0.5896
   42HFIP    C3  495   0.321   2.929   1.845 -0.2727 -0.4020  0.0273
   42HFIP    F4  496   0.314   2.863   1.724  0.1096  0.1932 -0.4094
   42HFIP    F5  497   0.211   3.008   1.846  0.3041 -0.0922 -0.3287
   42HFIP    F6  498   0.291   2.837   1.939  0.1000 -0.0237 -0.4521
   42HFIP    C7  499   0.465   3.085   1.981  0.2016  0.2371  0.6400
   42HFIP    F8  500   0.462   3.018   2.099  0.1450 -0.0069  0.2941
   42HFIP    F9  501   0.376   3.188   1.985 -0.0414 -0.1721  0.0410
   42HFIP   F10  502   0.583   3.147   1.977  0.1029 -0.4683  0.2731
   42HFIP   H11  503   0.450   3.148   1.737 -0.5423  0.0646 -0.6511
   42HFIP   H12  504   0.523   2.912   1.875  0.4264 -1.1435 -2.4215
   43HFIP    O1  505   1.194   2.351   1.589 -0.4481 -0.2902 -0.6448
   43HFIP    C2  506   1.154   2.357   1.724 -0.2420  0.5897 -0.0275
   43HFIP    C3  507   1.075   2.234   1.787  0.5065 -0.3633 -0.5163
   43HFIP    F4  508   1.153   2.124   1.777 -0.0422 -0.1499 -0.2588
   43HFIP    F5  509   0.959   2.201   1.732 -0.2694 -0.5100  0.0732
   43HFIP    F6  510   1.064   2.244   1.924  0.0707 -0.5546 -0.4530
   43HFIP    C7  511   1.077   2.492   1.762  0.8425 -0.4061 -0.7513
   43HFIP    F8  512   0.948   2.499   1.716  0.1561  0.1230 -0.1374
   43HFIP    F9  513   1.134   2.595   1.699  0.3356 -0.3387  0.0163
   43HFIP   F10  514   1.080   2.524   1.894  0.1967  0.1395  0.0473
   43HFIP   H11  515   1.125   2.336   1.519 -0.3641 -1.4627 -0.4890
   43HFIP   H12  516   1.237   2.370   1.793 -1.1194  1.7977  0.8119
   44HFIP    O1  517   1.448   2.374   2.332 -0.2251  0.0051  0.0370
   44HFIP    C2  518   1.464   2.418   2.206 -0.0344  0.0276  0.1624
   44HFIP    C3  519   1.374   2.541   2.161 -1.4019  0.2584  0.3169
   44HFIP    F4  520   1.385   2.638   2.256 -0.0395 -0.1970  0.3388
   44HFIP    F5  521   1.244   2.517   2.168  0.2089  0.3975 -0.2724
   44HFIP    F6  522   1.407   2.587   2.034  0.0981  0.0493 -0.8196
   44HFIP    C7  523   1.479   2.319   2.093  0.8315 -0.1421 -0.2628
   44HFIP    F8  524   1.581   2.347   2.007  0.1956  0.4285 -0.3554
   44HFIP    F9  525   1.375   2.310   2.010 -0.1101  0.0235  0.1854
   44HFIP   F10  526   1.507   2.194   2.135  0.2719 -0.1669 -0.3220
   44HFIP   H11  527   1.513   2.308   2.369  1.3642  0.5686 -1.6750
   44HFIP   H12  528   1.562   2.464   2.213  0.5304 -0.9665 -1.0328
   45HFIP    O1  529   1.218   2.251   3.169  0.0855  0.1211 -0.6054
   45HFIP    C2  530   1.300   2.294   3.277  0.0416  0.5546  0.7215
   45HFIP    C3  531   1.236   2.268   3.422  0.1306 -0.1408  0.4946
   45HFIP    F4  532   1.150   2.367   3.463 -0.0872 -0.1738 -0.6440
   45HFIP    F5  533   1.320   2.256   3.527  0.5984  0.0013 -0.0284
   45HFIP    F6  534   1.173   2.148   3.429  0.2278  0.4138 -0.0438
   45HFIP    C7  535   1.350   2.443   3.257 -0.4287 -0.5184  0.2045
   45HFIP    F8  536   1.385   2.475   3.127 -0.1387  0.4355  0.3278
   45HFIP    F9  537   1.462   2.471   3.333  0.4604  0.2844 -0.3978
   45HFIP   F10  538   1.263   2.541   3.292  0.3803  0.2011  0.1675
   45HFIP   H11  539   1.199   2.328   3.108  0.7602 -0.5328 -1.6455
   45HFIP   H12  540   1.388   2.230   3.276 -0.2785  0.1182 -0.0334
   46HFIP    O1  541   0.544   3.379   0.408 -0.4577  0.5923  0.2154
   46HFIP    C2  542   0.598   3.261   0.362 -0.7454  0.1374  0.0743
   46HFIP    C3  543   0.653   3.156   0.468  0.0991 -0.0856  0.6111
   46HFIP    F4  544   0.746   3.217   0.545 -0.0501 -0.2545 -0.1802
   46HFIP    F5  545   0.701   3.043   0.409 -0.5996  0.0429  0.4431
   46HFIP    F6  546   0.553   3.104   0.541  0.3718 -0.6474 -0.0783
   46HFIP    C7  547   0.705   3.293   0.256 -0.4653  0.1864 -0.1728
   46HFIP    F8  548   0.656   3.390   0.172  0.4404  0.3268 -0.4136
   46HFIP    F9  549   0.751   3.194   0.177 -0.1277  0.1927  0.0275
   46HFIP   F10  550   0.818   3.346   0.311  0.0069 -0.0001 -0.2346
   46HFIP   H11  551   0.449   3.359   0.433 -0.1736 -1.1990 -0.0403
   46HFIP   H12  552   0.527   3.206   0.300  1.3740 -0.0405 -2.2390
   47HFIP    O1  553   0.372   0.077   0.652 -0.0189 -1.0457 -0.4864
   47HFIP    C2  554   0.463   0.083   0.757  0.1844  0.5190 -0.2157
   47HFIP    C3  555   0.481  -0.050   0.831 -0.7837  0.4879  0.2166
   47HFIP    F4  556   0.372  -0.106   0.889 -0.2297 -0.0958 -0.1756
   47HFIP    F5  557   0.585  -0.046   0.924  0.3238 -0.8342  0.4804
   47HFIP    F6  558   0.518  -0.142   0.736 -0.0124  0.0330  0.3149
   47HFIP    C7  559   0.445   0.203   0.858  0.0519  0.6185 -0.2570
   47HFIP    F8  560   0.403   0.317   0.793 -0.3265 -0.1727 -0.1890
   47HFIP    F9  561   0.554   0.245   0.931 -0.2424  0.1294 -0.3593
   47HFIP   F10  562   0.357   0.172   0.955 -0.4439  0.2303 -0.1748
   47HFIP   H11  563   0.357   0.164   0.605  2.6147 -0.7440 -0.8654
   47HFIP   H12  564   0.562   0.112   0.722  0.1137  2.6212  1.1983
   48HFIP    O1  565   0.008   0.376   1.624  0.7649  0.3336 -0.1854
   48HFIP    C2  566  -0.112   0.294   1.610 -0.2078  0.4092  0.2780
   48HFIP    C3  567  -0.123   0.162   1.702 -0.4455 -0.1174  0.2911
   48HFIP    F4  568  -0.054   0.055   1.656  0.2569  0.1085 -0.0762
   48HFIP    F5  569  -0.251   0.121   1.728  0.7263 -0.0413 -0.5578
   48HFIP    F6  570  -0.078   0.179   1.827  0.1221  0.1119  0.1292
   48HFIP    C7  571  -0.136   0.257   1.463 -0.2165  0.1587 -0.0824
   48HFIP    F8  572  -0.252   0.189   1.450 -0.5257  0.0136 -0.2147
   48HFIP    F9  573  -0.034   0.186   1.416 -0.0257  0.0693 -0.0982
   48HFIP   F10  574  -0.143   0.364   1.381 -0.0306 -0.1842 -0.2948
   48HFIP   H11  575  -0.018   0.470   1.644  0.2489  0.0610  0.4626
   48HFIP   H12  576  -0.195   0.360   1.638 -1.2013 -1.0204  0.7999
   49HFIP    O1  577   2.493   2.865   1.754  0.4207  0.2634 -0.2225
   49HFIP    C2  578   2.425   2.752   1.712  0.4960  0.4216  0.5853
   49HFIP    C3  579   2.290   2.779   1.640 -0.2308  0.2457 -0.0925
   49HFIP    F4  580   2.189   2.797   1.728 -0.0390  0.3071  0.3930
   49HFIP    F5  581   2.250   2.681   1.555  0.4468  0.0266 -0.1080
   49HFIP    F6  582   2.283   2.896   1.570  0.0183  0.0684 -0.6080
   49HFIP    C7  583   2.427   2.625   1.809 -0.7143  0.4082 -0.5296
   49HFIP    F8  584   2.415   2.500   1.755 -0.0030 -0.2348 -0.5758
   49HFIP    F9  585   2.341   2.632   1.908  0.0864 -0.2983  0.2382
   49HFIP   F10  586   2.553   2.628   1.867  0.3699  0.3384 -0.2230
   49HFIP   H11  587   2.562   2.856   1.826  1.5380  0.3247 -1.2674
   49HFIP   H12  588   2.482   2.706   1.631 -1.5169 -1.9350  0.4194
   50HFIP    O1  589   0.203   3.026   3.243 -0.3577 -0.0834 -1.0687
   50HFIP    C2  590   0.105   2.939   3.194 -1.1578 -0.1198 -0.5277
   50HFIP    C3  591   0.057   2.979   3.050 -0.0018 -0.0436  0.4706
   50HFIP    F4  592  -0.025   3.090   3.047  0.4092 -0.2461  0.3619
   50HFIP    F5  593  -0.001   2.868   2.997  0.6064  0.1067  0.2431
   50HFIP    F6  594   0.153   3.005   2.957  0.2147 -0.3689 -0.2213
   50HFIP    C7  595  -0.015   2.910   3.290  0.5361  0.0226  0.6292
   50HFIP    F8  596  -0.091   3.022   3.305  0.3861  0.5095 -0.1222
   50HFIP    F9  597   0.034   2.883   3.414  0.2879 -0.2214  0.4254
   50HFIP   F10  598  -0.093   2.805   3.247  0.5319  0.0939  0.5068
   50HFIP   H11  599   0.285   2.970   3.259 -1.0383 -0.2804  1.9575
   50HFIP   H12  600   0.153   2.842   3.181 -1.0643 -0.0962 -0.3618
   51HFIP    O1  601   1.562   2.529   0.652 -0.4861 -0.2927 -0.0598
   51HFIP    C2  602   1.656   2.574   0.747 -0.0554  0.6270 -0.3135
   51HFIP    C3  603   1.747   2.452   0.795  0.6147 -0.0256  0.4295
   51HFIP    F4  604   1.784   2.374   0.694  0.1626  0.6259  0.1302
   51HFIP    F5  605   1.689   2.379   0.894  0.3083 -0.2281  0.3144
   51HFIP    F6  606   1.868   2.486   0.834 -0.1895 -0.7004  0.1984
   51HFIP    C7  607   1.602   2.655   0.867 -0.2001  0.1241  0.8022
   51HFIP    F8  608   1.553   2.770   0.812 -0.4206 -0.1889 -0.6797
   51HFIP    F9  609   1.692   2.700   0.963 -0.0097  0.3684  0.0082
   51HFIP   F10  610   1.501   2.612   0.941  0.1125 -0.1763 -0.2478
   51HFIP   H11  611   1.469   2.564   0.665 -0.7144 -1.0627  0.4223
   51HFIP   H12  612   1.723   2.648   0.704  0.3444  0.2254 -0.3836
   52HFIP    O1  613   0.846   0.424   0.956  0.7180 -0.1774  1.2639
   52HFIP    C2  614   0.862   0.529   0.854 -0.8687 -0.1009 -0.0083
   52HFIP    C3  615   0.982   0.626   0.869 -0.5395 -0.2450 -0.1256
   52HFIP    F4  616   0.981   0.709   0.977  0.1157  0.5776  0.6085
   52HFIP    F5  617   0.988   0.726   0.773  0.0606 -0.0994 -0.1861
   52HFIP    F6  618   1.104   0.567   0.847 -0.3343  0.1273 -0.1760
   52HFIP    C7  619   0.727   0.618   0.821 -0.3475 -0.8231 -0.3320
   52HFIP    F8  620   0.623   0.533   0.829 -0.2087 -0.0666 -0.2327
   52HFIP    F9  621   0.723   0.674   0.700 -0.1392 -0.1697 -0.3814
   52HFIP   F10  622   0.694   0.708   0.919  0.8648 -0.2546 -0.1552
   52HFIP   H11  623   0.759   0.377   0.943  0.3959  0.4986  0.9071
   52HFIP   H12  624   0.893   0.475   0.765 -1.3311 -0.8043  0.2543
   53HFIP    O1  625   0.979   0.372   1.193  0.0038 -0.3319 -0.6947
   53HFIP    C2  626   1.097   0.426   1.248 -0.2018 -1.2756 -0.0389
   53HFIP    C3  627   1.233   0.358   1.203 -0.5040 -0.7969  0.2134
   53HFIP    F4  628   1.343   0.421   1.249  0.0229 -0.3109  0.3268
   53HFIP    F5  629   1.241   0.354   1.068  0.1998 -0.2337  0.2952
   53HFIP    F6  630   1.231   0.238   1.255 -0.2483  0.5866 -0.3373
   53HFIP    C7  631   1.088   0.438   1.410 -0.4212 -0.3999 -0.1527
   53HFIP    F8  632   1.073   0.326   1.488  0.8550  0.2687  0.0002
   53HFIP    F9  633   0.983   0.514   1.447  0.0455  0.7833 -0.0075
   53HFIP   F10  634   1.200   0.500   1.457 -0.0252 -0.1849  0.1168
   53HFIP   H11  635   0.952   0.403   1.102 -0.2458  2.5445  0.2968
   53HFIP   H12  636   1.112   0.529   1.214  1.8815 -1.8124 -0.8084
   54HFIP    O1  637   1.434   1.984   1.592  0.2673  0.4740 -0.8554
   54HFIP    C2  638   1.559   1.933   1.630  0.3464  0.1595 -0.6733
   54HFIP    C3  639   1.553   1.774   1.651 -0.4266  0.2358 -0.1620
   54HFIP    F4  640   1.488   1.716   1.544 -0.5529  0.6997  0.5720
   54HFIP    F5  641   1.494   1.726   1.763 -0.0472  0.4926 -0.2977
   54HFIP    F6  642   1.680   1.724   1.647  0.4015 -0.2923  0.0095
   54HFIP    C7  643   1.644   1.994   1.752  0.6958  0.0437 -0.3445
   54HFIP    F8  644   1.655   2.122   1.721 -0.4773 -0.4047  0.2004
   54HFIP    F9  645   1.771   1.936   1.776 -0.6509  0.1558 -0.2743
   54HFIP   F10  646   1.584   1.982   1.874 -0.0721  0.2323 -0.1916
   54HFIP   H11  647   1.437   2.081   1.569  1.4164  0.7405  0.3407
   54HFIP   H12  648   1.617   1.948   1.539 -0.9881  2.6739 -1.1591
   55HFIP    O1  649   1.641   3.039   1.268  0.1625 -0.2124 -0.0066
   55HFIP    C2  650   1.693   3.025   1.134 -0.8335 -0.2049  1.2155
   55HFIP    C3  651   1.837   2.972   1.132  0.0468 -0.3635 -0.3140
   55HFIP    F4  652   1.868   2.960   1.000 -0.1447 -0.2637 -0.1768
   55HFIP    F5  653   1.850   2.845   1.182  0.3518  0.3353 -0.8647
   55HFIP    F6  654   1.928   3.047   1.195 -0.2873  0.7297 -0.1071
   55HFIP    C7  655   1.674   3.157   1.043  0.5813 -0.5418  0.3741
   55HFIP    F8  656   1.741   3.274   1.068 -0.2263 -0.2318  0.1780
   55HFIP    F9  657   1.540   3.177   1.037  0.7046  0.7452  0.0752
   55HFIP   F10  658   1.700   3.127   0.914 -0.3168 -0.2058 -0.2245
   55HFIP   H11  659   1.542   3.050   1.271  0.1615  0.0868 -1.1482
   55HFIP   H12  660   1.645   2.939   1.089 -0.0999 -0.0708  0.1510
   56HFIP    O1  661   1.981   1.834   0.290 -0.0810  0.2747  0.1659
   56HFIP    C2  662   1.930   1.739   0.385 -0.1096  0.4613  0.9390
   56HFIP    C3  663   2.018   1.615   0.413 -0.6755  0.2847  0.4794
   56HFIP    F4  664   2.151   1.655   0.416 -0.1383  0.0096 -0.6503
   56HFIP    F5  665   2.014   1.507   0.325  0.1571  0.8108  0.2011
   56HFIP    F6  666   1.991   1.567   0.536 -0.1192  0.0752 -0.2400
   56HFIP    C7  667   1.791   1.696   0.345  0.1898 -0.1942  0.3714
   56HFIP    F8  668   1.738   1.601   0.434 -0.0103 -0.1838 -0.3430
   56HFIP    F9  669   1.784   1.651   0.219 -0.3881  0.1861  0.0587
   56HFIP   F10  670   1.708   1.808   0.362  0.6223  0.5235  0.1725
   56HFIP   H11  671   1.950   1.923   0.322 -0.8304  0.4476 -1.0362
   56HFIP   H12  672   1.926   1.790   0.481 -3.0517  0.1374  1.0294
   57HFIP    O1  673   1.884   2.029   0.451 -0.4410  0.6694 -0.6359
   57HFIP    C2  674   1.972   2.109   0.525  0.2298 -0.0859 -0.5291
   57HFIP    C3  675   1.987   2.257   0.463  0.0737  0.2318 -0.4078
   57HFIP    F4  676   2.052   2.258   0.345  0.0540 -0.3514 -0.2645
   57HFIP    F5  677   2.070   2.336   0.542  0.3929  0.3066  0.4501
   57HFIP    F6  678   1.864   2.306   0.436 -0.0612 -0.2996  0.0053
   57HFIP    C7  679   2.112   2.045   0.541  0.1196  0.1352  0.6696
   57HFIP    F8  680   2.092   1.923   0.600 -0.4129  0.2937  0.7943
   57HFIP    F9  681   2.198   2.113   0.618  0.3345 -0.1082  0.4528
   57HFIP   F10  682   2.178   2.023   0.425  0.0291 -0.1516  0.0531
   57HFIP   H11  683   1.790   2.053   0.478  0.0576 -0.7232  2.6421
   57HFIP   H12  684   1.931   2.130   0.623  2.8883  1.7219  0.2447
   58HFIP    O1  685   2.692   2.935   1.903  0.2474 -0.3131 -0.0269
   58HFIP    C2  686   2.699   3.068   1.853  0.0212 -0.5325 -0.5500
   58HFIP    C3  687   2.804   3.079   1.739 -0.8149  0.0029  0.0162
   58HFIP    F4  688   2.818   2.966   1.664  0.5636  0.2164 -0.6777
   58HFIP    F5  689   2.932   3.103   1.784 -0.5088  0.0305  0.0254
   58HFIP    F6  690   2.770   3.176   1.650  0.3503  0.0668  0.6386
   58HFIP    C7  691   2.696   3.187   1.953 -0.2698  0.1826 -0.7495
   58HFIP    F8  692   2.591   3.188   2.035  0.2518  0.7827  0.6760
   58HFIP    F9  693   2.687   3.306   1.889 -0.1317  0.3363  0.2367
   58HFIP   F10  694   2.806   3.190   2.029  0.4615  0.2894 -0.6425
   58HFIP   H11  695   2.707   2.939   2.002  0.4157 -3.6187  0.1687
   58HFIP   H12  696   2.606   3.077   1.797 -0.3590 -0.2948  0.1134
   59HFIP    O1  697   2.209   2.067   3.222  0.4482  0.3798  0.4793
   59HFIP    C2  698   2.192   2.007   3.092  0.7197  0.5847  0.5920
   59HFIP    C3  699   2.276   1.879   3.071  0.2593  0.5459 -0.3392
   59HFIP    F4  700   2.271   1.785   3.170 -0.2841  0.5297 -0.6491
   59HFIP    F5  701   2.409   1.896   3.050  0.2306  0.2960 -0.4696
   59HFIP    F6  702   2.240   1.813   2.953 -0.1431 -0.1829 -0.2221
   59HFIP    C7  703   2.204   2.104   2.969 -0.9249  0.1489  0.0627
   59HFIP    F8  704   2.173   2.060   2.844 -0.4412  0.0514  0.2463
   59HFIP    F9  705   2.325   2.173   2.964 -0.4834  0.5638 -0.4616
   59HFIP   F10  706   2.117   2.204   2.991 -0.3092  0.0361 -0.0536
   59HFIP   H11  707   2.155   2.024   3.295  2.0121  0.6504  1.8229
   59HFIP   H12  708   2.088   1.977   3.084  0.1807  2.5539 -0.2057
   60HFIP    O1  709   0.096   2.063   3.238  0.7344 -1.0287 -0.0971
   60HFIP    C2  710   0.186   1.958   3.238 -0.0538 -0.0953 -0.0024
   60HFIP    C3  711   0.197   1.885   3.381  1.0703 -0.0978 -0.7811
   60HFIP    F4  712   0.241   1.960   3.486  0.1061  0.0318  0.1939
   60HFIP    F5  713   0.270   1.772   3.391 -0.2215  0.3310  0.1845
   60HFIP    F6  714   0.078   1.834   3.419 -0.0088 -0.3575  0.0018
   60HFIP    C7  715   0.331   1.994   3.185  0.6135  0.0695  0.0067
   60HFIP    F8  716   0.322   2.097   3.096  0.2880  1.0236 -0.4364
   60HFIP    F9  717   0.392   1.881   3.142  0.1030  0.2461  0.4873
   60HFIP   F10  718   0.424   2.045   3.270 -0.1075  0.1550 -0.3014
   60HFIP   H11  719   0.017   2.046   3.179  2.1819 -2.1902 -1.7581
   60HFIP   H12  720   0.155   1.881   3.168  0.8426  0.0645 -0.5775
   61HFIP    O1  721   2.057   1.947   3.380 -0.1898  0.7261 -0.2488
   61HFIP    C2  722   1.930   1.900   3.354  0.8340 -0.4024 -0.4240
   61HFIP    C3  723   1.823   1.955   3.453  0.1613  0.3386  0.1307
   61HFIP    F4  724   1.696   1.931   3.409  0.2598  0.3931  0.1339
   61HFIP    F5  725   1.842   2.087   3.459  0.0847  0.0099  0.1679
   61HFIP    F6  726   1.845   1.891   3.574 -0.3508  0.4983 -0.0591
   61HFIP    C7  727   1.912   1.746   3.331 -0.2587  0.1312 -0.7123
   61HFIP    F8  728   1.787   1.695   3.321 -0.9568  0.0910 -0.0557
   61HFIP    F9  729   1.968   1.664   3.428  0.0675  0.0896 -0.0010
   61HFIP   F10  730   1.969   1.716   3.212 -0.5660 -0.3526  0.1344
   61HFIP   H11  731   2.078   1.927   3.475 -1.4412  0.3555 -0.0410
   61HFIP   H12  732   1.903   1.943   3.257  0.4581 -1.0915 -0.6274
   62HFIP    O1  733   2.714   1.445   0.959  0.2480 -0.4876 -0.3343
   62HFIP    C2  734   2.795   1.531   0.884 -0.0881  0.1370  0.5445
   62HFIP    C3  735   2.856   1.454   0.762  0.5676 -0.2112 -0.2841
   62HFIP    F4  736   2.955   1.358   0.781  0.4513 -0.3975  0.0134
   62HFIP    F5  737   2.901   1.547   0.670  0.3017  0.0149 -0.3005
   62HFIP    F6  738   2.760   1.394   0.694  0.0936  0.9451  0.1695
   62HFIP    C7  739   2.908   1.595   0.962 -0.1966 -0.6670  0.0271
   62HFIP    F8  740   3.007   1.514   1.002 -0.1466  0.1404  0.9866
   62HFIP    F9  741   2.858   1.641   1.081  0.2382 -0.1718 -0.2976
   62HFIP   F10  742   2.967   1.707   0.908 -0.0077  0.1523  0.1593
   62HFIP   H11  743   2.620   1.476   0.949  0.6222  1.3555  1.5671
   62HFIP   H12  744   2.738   1.615   0.845  3.2918  1.1424 -2.4867
   63HFIP    O1  745   1.418   2.234   1.508  0.1041  0.4126  0.1227
   63HFIP    C2  746   1.490   2.308   1.416 -0.0899 -0.0416 -0.6030
   63HFIP    C3  747   1.437   2.451   1.376 -0.6291 -0.3359 -0.0735
   63HFIP    F4  748   1.429   2.526   1.492  0.0459 -0.1613 -0.3644
   63HFIP    F5  749   1.316   2.442   1.321 -0.6387 -0.0275  0.4750
   63HFIP    F6  750   1.511   2.518   1.289  0.4739 -0.0778 -0.0805
   63HFIP    C7  751   1.509   2.233   1.279 -0.9418  0.2256 -0.2026
   63HFIP    F8  752   1.396   2.197   1.218 -0.8453 -0.0396 -0.3799
   63HFIP    F9  753   1.563   2.115   1.313 -0.2286  0.2883 -0.0815
   63HFIP   F10  754   1.599   2.292   1.195 -0.2467  0.2361  0.0351
   63HFIP   H11  755   1.338   2.286   1.539 -0.4398  0.8276 -1.8775
   63HFIP   H12  756   1.587   2.308   1.466 -0.4617  0.0487  0.1204
   64HFIP    O1  757   2.551   2.391   3.163 -0.8131 -0.3364 -0.2841
   64HFIP    C2  758   2.673   2.383   3.238 -0.6365 -0.5969  0.0873
   64HFIP    C3  759   2.738   2.527   3.248 -0.1240 -0.0784  0.4933
   64HFIP    F4  760   2.796   2.575   3.134 -0.1144  0.0389 -0.5166
   64HFIP    F5  761   2.837   2.520   3.338 -0.0523 -0.3328  0.3038
   64HFIP    F6  762   2.660   2.623   3.295  0.1304  0.0070  0.3605
   64HFIP    C7  763   2.761   2.271   3.181 -0.4922 -0.1708  0.4381
   64HFIP    F8  764   2.801   2.280   3.051 -0.3069  0.1962 -0.1242
   64HFIP    F9  765   2.707   2.147   3.176 -0.1516  0.2532 -0.0391
   64HFIP   F10  766   2.881   2.261   3.240  0.2289 -0.0040 -0.2756
   64HFIP   H11  767   2.470   2.361   3.213  0.0633 -2.3379 -0.0058
   64HFIP   H12  768   2.653   2.346   3.339 -0.9616  0.1186  0.2952
   65HFIP    O1  769   1.618   2.179   2.423  0.0305 -0.0937 -0.1128
   65HFIP    C2  770   1.755   2.170   2.443 -0.1997 -0.3986  0.2232
   65HFIP    C3  771   1.789   2.148   2.595  0.3963 -0.0701 -0.1170
   65HFIP    F4  772   1.910   2.090   2.623  0.1291 -0.2116 -0.2454
   65HFIP    F5  773   1.699   2.059   2.646  0.2036  0.3852  0.1396
   65HFIP    F6  774   1.794   2.257   2.676  0.6711  0.2651  0.4837
   65HFIP    C7  775   1.828   2.309   2.391  0.4146 -0.1381  0.2093
   65HFIP    F8  776   1.802   2.322   2.258  0.0342  0.0638  0.0586
   65HFIP    F9  777   1.966   2.309   2.398  0.0961  0.1633  0.4972
   65HFIP   F10  778   1.786   2.418   2.460 -0.3246 -0.0291  0.2615
   65HFIP   H11  779   1.577   2.088   2.434  2.4476 -1.1323  0.5428
   65HFIP   H12  780   1.809   2.087   2.398 -0.9510 -1.2393  0.8472
   66HFIP    O1  781   2.358   2.942   0.866 -0.3308 -0.2164 -0.8197
   66HFIP    C2  782   2.331   3.067   0.928  0.0232  0.3803 -0.7115
   66HFIP    C3  783   2.190   3.135   0.894  0.3711 -0.2128  0.7896
   66HFIP    F4  784   2.191   3.248   0.817 -0.5869  0.1523  0.5417
   66HFIP    F5  785   2.123   3.162   1.009 -0.1013 -0.1077  0.1219
   66HFIP    F6  786   2.101   3.053   0.835 -0.2373 -0.2649 -0.2140
   66HFIP    C7  787   2.446   3.168   0.919  0.5168 -0.0795  0.5042
   66HFIP    F8  788   2.469   3.207   0.792 -0.6298 -0.3570 -0.7188
   66HFIP    F9  789   2.554   3.112   0.977 -0.0048 -0.6029 -0.2726
   66HFIP   F10  790   2.419   3.279   0.996  0.1815 -0.4161 -0.0026
   66HFIP   H11  791   2.379   2.961   0.770  1.0441  0.0870 -0.4735
   66HFIP   H12  792   2.328   3.052   1.036  2.1393  0.3487 -0.6334
   67HFIP    O1  793   0.404   3.246   1.551  0.2175 -0.1924  0.0518
   67HFIP    C2  794   0.280   3.251   1.483 -0.7279 -0.2914 -0.4772
   67HFIP    C3  795   0.195   3.376   1.522 -0.9867  0.1819 -0.9360
   67HFIP    F4  796   0.277   3.484   1.513 -0.2018 -0.2714 -0.3574
   67HFIP    F5  797   0.157   3.371   1.652  0.3999  0.1151 -0.0315
   67HFIP    F6  798   0.094   3.402   1.442 -0.0224  0.2955 -0.4253
   67HFIP    C7  799   0.194   3.124   1.486  0.4206  0.3833  0.3777
   67HFIP    F8  800   0.122   3.110   1.370 -0.3047  0.0767 -0.1690
   67HFIP    F9  801   0.118   3.096   1.600 -0.3192 -0.0598  0.0545
   67HFIP   F10  802   0.278   3.018   1.475 -0.4809 -0.2089 -0.2411
   67HFIP   H11  803   0.487   3.245   1.494  0.8258  1.4270  0.8866
   67HFIP   H12  804   0.311   3.263   1.379  1.6237  1.7762  0.4314
   68HFIP    O1  805   1.302   2.433   0.676  0.2041 -0.2426 -0.0548
   68HFIP    C2  806   1.186   2.497   0.714  0.6723 -0.0092 -0.1117
   68HFIP    C3  807   1.050   2.419   0.696 -0.2905  0.1801 -0.4981
   68HFIP    F4  808   0.942   2.492   0.648 -0.3857 -0.6706 -0.4701
   68HFIP    F5  809   0.998   2.356   0.807  0.4472 -0.2308 -0.2912
   68HFIP    F6  810   1.062   2.316   0.608 -0.2591 -0.0077  0.4354
   68HFIP    C7  811   1.175   2.639   0.655  0.0787 -0.4666  1.2380
   68HFIP    F8  812   1.097   2.722   0.726  0.5442 -0.2316  0.1249
   68HFIP    F9  813   1.141   2.633   0.519 -0.4060 -0.0366 -0.6576
   68HFIP   F10  814   1.296   2.701   0.640 -0.4740 -0.4010 -0.2269
   68HFIP   H11  815   1.283   2.348   0.627 -1.4862  1.3045 -2.1837
   68HFIP   H12  816   1.201   2.517   0.820  0.2427 -1.3253  0.2036
   69HFIP    O1  817   3.021   2.185   1.157  0.2154 -0.1978 -0.8337
   69HFIP    C2  818   2.978   2.311   1.212 -0.0506 -0.6131  0.0303
   69HFIP    C3  819   3.092   2.391   1.276  0.4618  0.8985  0.2308
   69HFIP    F4  820   3.070   2.519   1.308 -0.4262  0.3947 -0.2354
   69HFIP    F5  821   3.192   2.401   1.185 -0.0205 -0.0469  0.0836
   69HFIP    F6  822   3.142   2.331   1.386  0.0437 -0.2722  0.3022
   69HFIP    C7  823   2.862   2.287   1.314  0.3650  0.0132  0.5342
   69HFIP    F8  824   2.899   2.199   1.412 -0.2756 -0.0951 -0.0100
   69HFIP    F9  825   2.753   2.235   1.241  0.5507 -0.1712  0.0911
   69HFIP   F10  826   2.800   2.390   1.373 -0.6447 -0.5066 -0.0649
   69HFIP   H11  827   3.114   2.160   1.183 -0.3050 -1.3528 -0.0617
   69HFIP   H12  828   2.938   2.378   1.136  2.5522  0.2646 -0.6172
   70HFIP    O1  829   3.100   2.552   2.801 -0.6415 -0.1380 -0.2014
   70HFIP    C2  830   3.130   2.490   2.925  0.4710  0.4326  0.0172
   70HFIP    C3  831   3.140   2.595   3.045 -0.4866  0.2026 -0.2467
   70HFIP    F4  832   3.261   2.658   3.047  0.2730 -0.2277 -0.2538
   70HFIP    F5  833   3.125   2.556   3.171  0.0813 -0.1346  0.2102
   70HFIP    F6  834   3.051   2.696   3.037  0.0542  0.0034 -0.0694
   70HFIP    C7  835   3.238   2.380   2.926 -0.4741 -0.0387  0.3133
   70HFIP    F8  836   3.246   2.297   2.819  0.3586  0.1281 -0.4510
   70HFIP    F9  837   3.202   2.293   3.025  0.2304  0.3562 -0.3548
   70HFIP   F10  838   3.362   2.420   2.948 -0.3750  0.1040  0.1837
   70HFIP   H11  839   3.175   2.615   2.780 -1.3999  0.3185 -1.6744
   70HFIP   H12  840   3.037   2.435   2.944  1.3175 -1.2710 -0.6246
   71HFIP    O1  841   1.127   2.013   3.115  0.8255 -0.2124 -0.2862
   71HFIP    C2  842   1.201   1.921   3.038  0.7244 -0.2480  0.0847
   71HFIP    C3  843   1.217   1.780   3.105  0.6874 -0.1570  0.9573
   71HFIP    F4  844   1.232   1.681   3.014  0.4762 -0.1754 -0.0549
   71HFIP    F5  845   1.106   1.740   3.172  0.1702 -0.5664 -0.2835
   71HFIP    F6  846   1.321   1.781   3.190 -0.0293 -0.3696 -0.5258
   71HFIP    C7  847   1.337   1.978   2.993 -0.2440  0.0231 -0.2413
   71HFIP    F8  848   1.308   2.087   2.920  0.2908 -0.1422 -0.5983
   71HFIP    F9  849   1.406   1.895   2.910  0.0117 -0.1128 -0.2449
   71HFIP   F10  850   1.412   2.025   3.100 -0.4311 -0.0584  0.0961
   71HFIP   H11  851   1.186   2.091   3.137  0.7077 -0.2087  0.0075
   71HFIP   H12  852   1.148   1.899   2.946  0.0415  1.3582  0.0799
   72HFIP    O1  853   1.250   3.297   1.199  0.1370  0.3693 -0.0807
   72HFIP    C2  854   1.195   3.305   1.064 -0.8881 -0.3923 -0.2575
   72HFIP    C3  855   1.185   3.451   1.006  0.4150 -0.2967  0.1402
   72HFIP    F4  856   1.302   3.510   1.039 -0.2106 -0.0898 -0.1990
   72HFIP    F5  857   1.076   3.517   1.055 -0.4162  0.1958 -0.0170
   72HFIP    F6  858   1.171   3.458   0.870 -0.0507 -0.0805 -0.2133
   72HFIP    C7  859   1.068   3.223   1.046 -0.1905  0.5810  0.4683
   72HFIP    F8  860   0.990   3.247   0.937  0.4389 -0.1012  0.0519
   72HFIP    F9  861   0.976   3.239   1.144 -0.1032 -0.0480 -0.0559
   72HFIP   F10  862   1.105   3.091   1.053  0.4104 -0.3816  0.1966
   72HFIP   H11  863   1.214   3.371   1.256 -2.0492 -0.7697  0.0841
   72HFIP   H12  864   1.276   3.260   1.005  0.0803 -0.1736  0.8787
   73HFIP    O1  865   0.841   1.819   0.256 -0.1801 -0.1196  0.4611
   73HFIP    C2  866   0.853   1.959   0.233  0.2282  0.4320  0.0437
   73HFIP    C3  867   0.845   2.032   0.375 -0.0527 -0.2643  0.2865
   73HFIP    F4  868   0.866   2.164   0.368  0.0587 -0.0862 -0.3767
   73HFIP    F5  869   0.940   1.995   0.464  0.1371  0.0203  0.6558
   73HFIP    F6  870   0.727   2.005   0.438 -0.1762 -0.0324 -0.0004
   73HFIP    C7  871   0.761   2.020   0.130  0.2202 -1.0486  0.8100
   73HFIP    F8  872   0.774   1.965   0.009 -0.1082  0.0997  0.8334
   73HFIP    F9  873   0.795   2.154   0.109 -0.5028 -0.2492  0.4012
   73HFIP   F10  874   0.633   2.024   0.173 -0.6167  0.3671  0.5436
   73HFIP   H11  875   0.860   1.769   0.171 -0.4506 -0.4834  0.6122
   73HFIP   H12  876   0.954   1.982   0.201 -0.1060 -1.0101 -2.1304
   74HFIP    O1  877   1.513   2.946   2.465 -1.2682  0.3727 -0.0611
   74HFIP    C2  878   1.540   3.014   2.586 -0.1315 -0.2465 -0.2499
   74HFIP    C3  879   1.456   2.957   2.705 -0.1103 -1.1695 -0.1367
   74HFIP    F4  880   1.445   3.041   2.814 -0.1755  0.5614 -0.3842
   74HFIP    F5  881   1.499   2.836   2.738  0.6738  0.1627 -0.1743
   74HFIP    F6  882   1.326   2.954   2.665  0.5510  0.4099  0.5107
   74HFIP    C7  883   1.536   3.169   2.581  0.4391  0.0769  0.5289
   74HFIP    F8  884   1.595   3.231   2.477 -0.5624  0.0658  0.5657
   74HFIP    F9  885   1.589   3.231   2.689  0.4948  0.2690 -0.9366
   74HFIP   F10  886   1.416   3.222   2.551  0.0831  0.2095  0.2571
   74HFIP   H11  887   1.446   2.991   2.405  0.8709  2.2744 -1.1400
   74HFIP   H12  888   1.646   3.000   2.609 -0.0932 -0.7858 -0.7355
   75HFIP    O1  889   1.682   2.760   2.513 -0.2784  0.0699  0.4534
   75HFIP    C2  890   1.808   2.766   2.455  0.5746  0.0908 -0.2217
   75HFIP    C3  891   1.895   2.890   2.490 -0.8975 -0.8028  0.2353
   75HFIP    F4  892   2.015   2.897   2.428 -0.3728  0.1533 -0.6216
   75HFIP    F5  893   1.922   2.912   2.622  0.3281 -0.6848 -0.1126
   75HFIP    F6  894   1.830   3.009   2.462  0.7066  0.7905  0.8378
   75HFIP    C7  895   1.807   2.752   2.300 -0.2334 -0.0322 -0.5342
   75HFIP    F8  896   1.750   2.858   2.237  0.2713  0.2778 -0.6027
   75HFIP    F9  897   1.729   2.647   2.260  0.2076 -1.0215 -0.0561
   75HFIP   F10  898   1.923   2.714   2.243 -0.4200  0.4018 -0.5121
   75HFIP   H11  899   1.618   2.827   2.476  0.9520  2.5825  2.7022
   75HFIP   H12  900   1.868   2.687   2.499 -0.5715 -0.0394  1.1407
   76HFIP    O1  901   1.169   3.484   1.374  0.0491  0.2002 -0.0387
   76HFIP    C2  902   1.254   3.478   1.488  0.4375 -0.0717 -0.2527
   76HFIP    C3  903   1.409   3.474   1.451  0.2116  0.4101 -0.8021
   76HFIP    F4  904   1.490   3.521   1.549 -0.0903  0.7932  0.1922
   76HFIP    F5  905   1.433   3.556   1.350 -0.1178 -0.3024  0.0950
   76HFIP    F6  906   1.451   3.356   1.397  0.3990  0.5714  0.1848
   76HFIP    C7  907   1.225   3.359   1.582 -0.9540  0.0154 -0.1375
   76HFIP    F8  908   1.248   3.233   1.528  0.8110 -0.2929 -0.2442
   76HFIP    F9  909   1.098   3.360   1.625  0.6694 -0.3114 -0.1809
   76HFIP   F10  910   1.302   3.365   1.696 -0.1729 -0.2947 -0.5134
   76HFIP   H11  911   1.089   3.543   1.389  1.6147  2.6663 -1.1642
   76HFIP   H12  912   1.248   3.563   1.557  2.6119 -0.8659  0.9567
   77HFIP    O1  913   0.942   0.136   1.347  0.2424 -0.2292 -0.2382
   77HFIP    C2  914   0.801   0.121   1.344 -0.0059 -1.0471 -0.4594
   77HFIP    C3  915   0.746   0.021   1.452  0.7883  1.2102  0.3085
   77HFIP    F4  916   0.622  -0.038   1.431 -0.3653 -0.0597 -0.0237
   77HFIP    F5  917   0.736   0.080   1.572  0.3549  0.1100  0.1586
   77HFIP    F6  918   0.830  -0.081   1.482  0.1127  0.1342  0.0835
   77HFIP    C7  919   0.748   0.084   1.204  0.9197  0.6885  0.1352
   77HFIP    F8  920   0.773  -0.051   1.170  0.6136 -0.0151  0.6186
   77HFIP    F9  921   0.812   0.144   1.104  0.1255 -0.5012  0.3386
   77HFIP   F10  922   0.612   0.106   1.187  0.3365  0.2633 -0.4325
   77HFIP   H11  923   0.958   0.224   1.302  1.3683  0.3175  1.2049
   77HFIP   H12  924   0.763   0.219   1.373 -1.1437 -1.1833 -1.4368
   78HFIP    O1  925   1.781   2.933   1.488  0.3109 -0.1437 -0.1638
   78HFIP    C2  926   1.807   3.020   1.596  0.3146 -1.0293  0.1099
   78HFIP    C3  927   1.687   3.063   1.694 -0.2547  0.1632  0.0559
   78HFIP    F4  928   1.702   3.164   1.782  0.0519 -0.2145  0.0759
   78HFIP    F5  929   1.638   2.956   1.760  0.8505 -0.2152 -0.0657
   78HFIP    F6  930   1.585   3.112   1.616  0.2494 -0.5889 -0.1051
   78HFIP    C7  931   1.892   3.148   1.562 -0.2114  0.0208 -0.7549
   78HFIP    F8  932   1.999   3.109   1.488  0.1243  0.0554 -0.6295
   78HFIP    F9  933   1.943   3.222   1.661 -0.2458 -0.6031 -0.6067
   78HFIP   F10  934   1.827   3.239   1.485  0.3318  0.0025  0.2438
   78HFIP   H11  935   1.733   2.983   1.417  1.5577  1.5547  0.1582
   78HFIP   H12  936   1.878   2.961   1.654  0.8012  0.9008  1.5001
   79HFIP    O1  937   0.027   0.884   0.487 -0.2200 -0.4276 -0.1146
   79HFIP    C2  938   0.075   0.832   0.357 -0.8861 -0.3089  0.1695
   79HFIP    C3  939   0.125   0.949   0.265  0.8054  0.0695 -0.4625
   79HFIP    F4  940   0.174   1.056   0.336 -0.4330 -0.1505 -0.2143
   79HFIP    F5  941   0.023   0.998   0.190 -0.3201 -0.1021 -0.4755
   79HFIP    F6  942   0.205   0.904   0.168  0.2110 -0.5152  0.0755
   79HFIP    C7  943  -0.021   0.730   0.283  0.8761  0.2056  0.4248
   79HFIP    F8  944   0.029   0.681   0.164  0.2088 -0.4121 -0.0223
   79HFIP    F9  945  -0.143   0.785   0.248  0.4816 -0.1507 -0.1315
   79HFIP   F10  946  -0.049   0.621   0.358 -0.0246 -0.4657 -0.5890
   79HFIP   H11  947  -0.034   0.963   0.477  0.3553  0.2227  1.3216
   79HFIP   H12  948   0.166   0.775   0.381 -0.3765  0.2364 -0.4516
   80HFIP    O1  949   0.267   0.283   0.529 -0.2419  0.0672  0.1996
   80HFIP    C2  950   0.277   0.309   0.388 -0.7422  0.3500  0.2409
   80HFIP    C3  951   0.366   0.199   0.319  0.2715 -0.2368 -0.0525
   80HFIP    F4  952   0.356   0.213   0.185  0.3035  0.8805 -0.0791
   80HFIP    F5  953   0.314   0.074   0.352 -0.3560  0.4834  0.3769
   80HFIP    F6  954   0.494   0.201   0.362 -0.0626 -0.0713 -0.2822
   80HFIP    C7  955   0.319   0.457   0.353  0.3364 -0.6111  0.5096
   80HFIP    F8  956   0.446   0.493   0.387  0.2750  0.7879  0.0726
   80HFIP    F9  957   0.234   0.543   0.421 -0.0341 -0.5861 -0.5022
   80HFIP   F10  958   0.309   0.496   0.222 -0.0059 -0.0137  0.6736
   80HFIP   H11  959   0.192   0.339   0.565  0.2431  0.2231  0.9925
   80HFIP   H12  960   0.176   0.292   0.350 -0.1439  1.2084 -1.7732
   81HFIP    O1  961   0.082   0.444   0.646  0.3417  0.3226  0.3393
   81HFIP    C2  962  -0.029   0.386   0.716 -0.4324 -0.6228  1.0142
   81HFIP    C3  963  -0.008   0.382   0.868 -0.5620  0.6914 -1.0719
   81HFIP    F4  964  -0.106   0.324   0.932 -0.2506 -0.0798 -0.3740
   81HFIP    F5  965   0.012   0.501   0.924  0.0536 -0.1921  0.4665
   81HFIP    F6  966   0.095   0.309   0.914  0.3314  0.4982 -0.4446
   81HFIP    C7  967  -0.059   0.241   0.648 -0.4657 -0.0892 -0.5137
   81HFIP    F8  968   0.036   0.153   0.694  0.3969  0.2148 -0.4508
   81HFIP    F9  969  -0.046   0.240   0.511 -0.2809 -0.3066  0.0291
   81HFIP   F10  970  -0.188   0.200   0.677  0.5525  0.1011  0.3128
   81HFIP   H11  971   0.070   0.543   0.634 -0.1878  0.0448 -1.6624
   81HFIP   H12  972  -0.110   0.454   0.691  0.3645 -0.0118  0.0417
   82HFIP    O1  973   1.565   2.333   0.479  0.7117  0.2048  0.3605
   82HFIP    C2  974   1.540   2.361   0.343 -0.1999 -0.0561  0.1247
   82HFIP    C3  975   1.413   2.440   0.317  0.3926  0.2137 -0.5277
   82HFIP    F4  976   1.389   2.474   0.185  0.4917 -0.1240 -0.0761
   82HFIP    F5  977   1.413   2.563   0.380 -0.5249 -0.0769  0.2174
   82HFIP    F6  978   1.297   2.380   0.357  0.6718  0.2447 -0.2602
   82HFIP    C7  979   1.554   2.227   0.257 -0.4082 -0.1998 -0.1028
   82HFIP    F8  980   1.587   2.263   0.133  0.4751 -0.3950  0.1594
   82HFIP    F9  981   1.442   2.152   0.263 -0.3468  0.3479 -0.1229
   82HFIP   F10  982   1.653   2.149   0.305 -0.5775 -0.3829  0.2323
   82HFIP   H11  983   1.561   2.415   0.536 -0.0459  0.3760  0.0748
   82HFIP   H12  984   1.615   2.431   0.306 -0.8750  0.2866 -0.6019
   83HFIP    O1  985   2.530   1.097   1.114  0.1076  0.6179  0.8601
   83HFIP    C2  986   2.433   1.095   1.218  0.0589 -0.2366  0.4264
   83HFIP    C3  987   2.392   0.948   1.250  0.4297  0.0174 -0.5849
   83HFIP    F4  988   2.499   0.880   1.294 -0.3853 -0.0661 -0.2498
   83HFIP    F5  989   2.341   0.861   1.156  0.2826  0.1346 -0.0552
   83HFIP    F6  990   2.312   0.941   1.363  0.1368  0.3029 -0.0594
   83HFIP    C7  991   2.300   1.182   1.187  0.1412 -0.9070  0.7071
   83HFIP    F8  992   2.337   1.299   1.124  0.9123 -0.5925 -0.6103
   83HFIP    F9  993   2.248   1.226   1.302  0.2169  0.7943 -0.1427
   83HFIP   F10  994   2.202   1.121   1.115 -0.6402  0.1898  0.3431
   83HFIP   H11  995   2.619   1.070   1.151  0.7444  0.3807 -0.8123
   83HFIP   H12  996   2.468   1.133   1.314 -1.7595  1.8376  0.3030
   84HFIP    O1  997   2.497   1.234   0.911  0.3363 -0.4324  0.2771
   84HFIP    C2  998   2.497   1.163   0.785 -0.7319 -0.0280 -0.3909
   84HFIP    C3  999   2.371   1.191   0.700 -0.1626 -0.4316  0.5233
   84HFIP    F4 1000   2.316   1.306   0.745 -0.0622 -0.0428  0.3828
   84HFIP    F5 1001   2.270   1.100   0.706 -0.3966  0.5782  0.3104
   84HFIP    F6 1002   2.405   1.211   0.565 -0.2950  0.2754 -0.1806
   84HFIP    C7 1003   2.536   1.013   0.785  0.1928  0.3021  0.0523
   84HFIP    F8 1004   2.551   0.966   0.656 -0.0850 -0.0031 -0.2030
   84HFIP    F9 1005   2.447   0.932   0.844  0.0624 -0.4097  0.2426
   84HFIP   F10 1006   2.655   0.997   0.846  0.2863  0.0803 -0.4471
   84HFIP   H11 1007   2.521   1.171   0.985  1.4905  0.5059  0.7257
   84HFIP   H12 1008   2.582   1.215   0.741 -0.4661  0.5121  0.7422
   85HFIP    O1 1009   0.878   1.669   0.040  0.7609  0.7025 -0.2864
   85HFIP    C2 1010   0.976   1.572   0.069 -0.1251 -0.1944 -0.1513
   85HFIP    C3 1011   1.126   1.622   0.080 -0.1917  0.6261  0.1917
   85HFIP    F4 1012   1.128   1.741   0.143 -0.5404 -0.0443  0.0139
   85HFIP    F5 1013   1.183   1.653  -0.041 -0.0214 -0.3429  0.4533
   85HFIP    F6 1014   1.207   1.545   0.153 -0.0258 -0.1169 -0.7532
   85HFIP    C7 1015   0.971   1.445  -0.019  0.0824 -0.4009 -0.5847
   85HFIP    F8 1016   1.011   1.449  -0.146 -0.1482 -0.0565 -0.3687
   85HFIP    F9 1017   0.851   1.384  -0.020  0.2817 -0.0982  0.4781
   85HFIP   F10 1018   1.050   1.349   0.036 -0.5442 -0.1791  0.2572
   85HFIP   H11 1019   0.855   1.671  -0.057 -1.9231 -1.1214  0.2685
   85HFIP   H12 1020   0.942   1.543   0.169 -0.8040  1.0848  0.0027
   86HFIP    O1 1021   0.067   0.715   0.674 -0.2835  0.3823  0.7654
   86HFIP    C2 1022   0.152   0.753   0.776 -0.1077 -0.0427  0.0389
   86HFIP    C3 1023   0.136   0.900   0.829 -0.0210  0.3772  1.3541
   86HFIP    F4 1024   0.003   0.930   0.841 -0.4076  0.4618 -0.4945
   86HFIP    F5 1025   0.191   0.993   0.742 -0.1831  0.0706  0.2832
   86HFIP    F6 1026   0.192   0.933   0.947 -0.1963 -0.0207 -0.6609
   86HFIP    C7 1027   0.304   0.714   0.746  0.0091 -0.0951 -0.0975
   86HFIP    F8 1028   0.379   0.751   0.849 -0.0130  0.0066  0.4609
   86HFIP    F9 1029   0.356   0.775   0.638  0.0576  0.0512  0.5202
   86HFIP   F10 1030   0.319   0.582   0.739 -0.1871 -0.1728 -0.0101
   86HFIP   H11 1031   0.045   0.786   0.607  1.5052 -0.1986 -0.4850
   86HFIP   H12 1032   0.125   0.693   0.863  0.3555 -1.0183 -0.4827
   87HFIP    O1 1033   2.815   1.321   1.166  0.1834  0.2021 -0.1480
   87HFIP    C2 1034   2.810   1.398   1.288  0.3687 -0.4669  0.5080
   87HFIP    C3 1035   2.869   1.314   1.412 -0.2720 -0.1295  0.0778
   87HFIP    F4 1036   2.852   1.367   1.538  0.0162  0.4972 -0.3667
   87HFIP    F5 1037   3.003   1.299   1.393  0.0481 -0.0172  0.2294
   87HFIP    F6 1038   2.829   1.189   1.410 -0.0325  0.5968 -0.6392
   87HFIP    C7 1039   2.672   1.456   1.331 -0.8388  0.1392  0.1181
   87HFIP    F8 1040   2.598   1.486   1.220 -0.0011  0.1138  0.2091
   87HFIP    F9 1041   2.677   1.572   1.403  0.6029  0.3810 -0.1196
   87HFIP   F10 1042   2.591   1.367   1.396  0.3881 -0.0656  0.1737
   87HFIP   H11 1043   2.777   1.371   1.089 -0.7421  1.1058  0.8697
   87HFIP   H12 1044   2.874   1.485   1.276 -1.3298  0.8996  1.1244
   88HFIP    O1 1045   2.449   1.509   0.936  0.3842 -0.3663  0.0489
   88HFIP    C2 1046   2.388   1.631   0.926  0.2212  0.2536  0.2869
   88HFIP    C3 1047   2.258   1.635   1.005  0.3288  0.9081 -0.0480
   88HFIP    F4 1048   2.294   1.615   1.137  0.3193 -0.3472 -0.2204
   88HFIP    F5 1049   2.179   1.528   0.980 -0.3019  0.0078 -0.5370
   88HFIP    F6 1050   2.186   1.751   1.005  0.3671  0.4864 -0.2908
   88HFIP    C7 1051   2.367   1.685   0.784  0.3454  0.3683 -0.2703
   88HFIP    F8 1052   2.263   1.623   0.715 -0.7668  0.3904 -0.3154
   88HFIP    F9 1053   2.479   1.677   0.714  0.0389 -0.0226 -0.2934
   88HFIP   F10 1054   2.327   1.815   0.781  0.0088  0.6499 -0.5420
   88HFIP   H11 1055   2.400   1.424   0.954 -1.2665  0.6350  0.3293
   88HFIP   H12 1056   2.460   1.693   0.979  1.4455 -1.0413  0.1649
   89HFIP    O1 1057   2.320   2.306   3.256  0.4729  0.1044  0.4917
   89HFIP    C2 1058   2.247   2.390   3.352  0.2848 -0.0735 -0.1895
   89HFIP    C3 1059   2.125   2.323   3.420  0.1609  0.2784  0.5229
   89HFIP    F4 1060   2.153   2.207   3.482 -0.3250  0.0887 -0.0280
   89HFIP    F5 1061   2.036   2.282   3.319 -0.0139  0.0846 -1.1782
   89HFIP    F6 1062   2.066   2.392   3.518  0.7312 -0.1831 -0.4774
   89HFIP    C7 1063   2.220   2.539   3.302  0.2145  0.3595 -0.8628
   89HFIP    F8 1064   2.146   2.543   3.191  0.1117  0.2640  0.1016
   89HFIP    F9 1065   2.340   2.593   3.268 -0.5773  0.0642 -0.3575
   89HFIP   F10 1066   2.166   2.621   3.392 -0.2591 -0.0186 -0.1947
   89HFIP   H11 1067   2.278   2.217   3.240 -0.7149  0.6549  0.4797
   89HFIP   H12 1068   2.321   2.406   3.431  0.6900  1.6279 -0.8901
   90HFIP    O1 1069   2.144   1.845   0.093  0.3113 -0.2410 -0.0032
   90HFIP    C2 1070   2.272   1.830   0.142 -0.2077  0.2417  0.7446
   90HFIP    C3 1071   2.356   1.957   0.105 -0.3277  0.0068 -0.4754
   90HFIP    F4 1072   2.302   2.068   0.164 -0.2017  0.2183 -0.0746
   90HFIP    F5 1073   2.369   1.985  -0.027  0.1161  0.4189  0.3793
   90HFIP    F6 1074   2.478   1.949   0.160  0.0968 -0.0088  0.0949
   90HFIP    C7 1075   2.357   1.696   0.109  0.3914  0.1933 -1.0245
   90HFIP    F8 1076   2.441   1.664   0.212  0.5382 -0.7895  0.3851
   90HFIP    F9 1077   2.436   1.695   0.001  0.9104  0.0854  0.1406
   90HFIP   F10 1078   2.273   1.590   0.100 -0.0041  0.0020  0.2281
   90HFIP   H11 1079   2.069   1.835   0.159 -0.9741  1.5931 -1.1043
   90HFIP   H12 1080   2.261   1.838   0.250  0.2565 -0.3521  0.8414
   91HFIP    O1 1081   2.323   2.871   0.621 -0.2830 -0.4960  0.3144
   91HFIP    C2 1082   2.186   2.849   0.596 -0.1323 -0.1523  0.8264
   91HFIP    C3 1083   2.160   2.706   0.532  0.0018 -0.2889 -0.1863
   91HFIP    F4 1084   2.242   2.660   0.429 -1.0135  0.1719  0.8401
   91HFIP    F5 1085   2.028   2.694   0.499  0.8088 -0.3602 -0.2284
   91HFIP    F6 1086   2.181   2.608   0.625  0.5298 -0.0798  0.1256
   91HFIP    C7 1087   2.121   2.967   0.507 -0.2477  0.3141  0.1223
   91HFIP    F8 1088   2.150   3.095   0.545 -0.4889  0.4548 -0.1503
   91HFIP    F9 1089   1.986   2.963   0.522  0.1242  0.2381  0.0435
   91HFIP   F10 1090   2.160   2.965   0.378  0.3010  0.3987  0.1524
   91HFIP   H11 1091   2.381   2.837   0.547 -0.7033  1.1908 -0.8163
   91HFIP   H12 1092   2.129   2.858   0.688 -0.7974 -0.0609  0.4079
   92HFIP    O1 1093   2.366   2.685   0.927 -0.1250  0.1441  1.1339
   92HFIP    C2 1094   2.280   2.638   1.027 -0.1339  0.1069  1.1068
   92HFIP    C3 1095   2.148   2.719   1.058  0.1106  0.1025  0.4340
   92HFIP    F4 1096   2.171   2.848   1.093 -0.6797 -0.1067 -0.2957
   92HFIP    F5 1097   2.058   2.664   1.149 -0.2396  0.0852 -0.8575
   92HFIP    F6 1098   2.076   2.713   0.943  0.4214 -0.2363 -0.0568
   92HFIP    C7 1099   2.359   2.614   1.161 -0.2770 -0.0358 -0.3180
   92HFIP    F8 1100   2.380   2.732   1.227 -0.6418  0.2607  0.3247
   92HFIP    F9 1101   2.489   2.572   1.136  0.0313  0.7258  0.2247
   92HFIP   F10 1102   2.304   2.522   1.247  0.0677 -0.0983 -0.2441
   92HFIP   H11 1103   2.352   2.782   0.912 -0.3614  0.0635  0.8257
   92HFIP   H12 1104   2.253   2.538   0.992 -0.2574  0.7186 -0.5867
   93HFIP    O1 1105   3.229   2.080   1.233 -0.0210 -0.5956  0.0293
   93HFIP    C2 1106   3.346   2.017   1.178  0.3191  0.1562 -1.1642
   93HFIP    C3 1107   3.485   2.084   1.215  0.0096  0.0950 -0.1715
   93HFIP    F4 1108   3.598   2.011   1.188  0.2968  0.4340 -0.2124
   93HFIP    F5 1109   3.492   2.130   1.341 -0.3820 -0.2470  0.6735
   93HFIP    F6 1110   3.502   2.197   1.140 -0.6114 -0.1826  0.1135
   93HFIP    C7 1111   3.333   1.996   1.026 -1.3851 -0.2145 -0.3464
   93HFIP    F8 1112   3.439   1.929   0.964  0.2918  0.1086  0.0623
   93HFIP    F9 1113   3.296   2.107   0.961  0.0708  0.2428 -0.0282
   93HFIP   F10 1114   3.225   1.914   1.019  0.0676 -0.2493  0.1959
   93HFIP   H11 1115   3.220   2.061   1.330  0.2049  0.2496  0.2180
   93HFIP   H12 1116   3.357   1.918   1.223  2.1313 -0.3978 -2.8037
   94HFIP    O1 1117   3.225   2.049   1.488  0.1948  0.2804  0.0474
   94HFIP    C2 1118   3.174   1.915   1.531 -0.5784  1.0508 -0.0602
   94HFIP    C3 1119   3.285   1.815   1.589 -0.1647  0.5127 -0.2510
   94HFIP    F4 1120   3.266   1.682   1.572  0.2235  0.2308 -0.0275
   94HFIP    F5 1121   3.276   1.823   1.725 -0.6757  0.0067  0.5673
   94HFIP    F6 1122   3.413   1.842   1.556  0.4147  0.6216 -0.1576
   94HFIP    C7 1123   3.073   1.842   1.430  0.0011 -0.5788 -0.1838
   94HFIP    F8 1124   2.986   1.931   1.379 -0.5671  0.0180 -0.4044
   94HFIP    F9 1125   3.008   1.742   1.493 -0.5621 -0.3328  0.2038
   94HFIP   F10 1126   3.136   1.793   1.323  0.1306 -0.1358  0.0911
   94HFIP   H11 1127   3.263   2.096   1.568 -2.3390  0.7533  1.0080
   94HFIP   H12 1128   3.105   1.951   1.608  1.4719  1.9865  1.3908
   95HFIP    O1 1129   3.054   2.064   2.882 -0.1259 -0.2207  0.5778
   95HFIP    C2 1130   2.942   2.075   2.788 -0.1103 -0.1591 -0.8452
   95HFIP    C3 1131   2.845   1.953   2.787 -0.1365  0.4838 -0.1501
   95HFIP    F4 1132   2.814   1.927   2.915 -0.0111 -0.7244 -0.3602
   95HFIP    F5 1133   2.905   1.846   2.725 -0.0742  0.2328  0.3247
   95HFIP    F6 1134   2.727   1.981   2.727 -0.2436  0.0937 -0.1094
   95HFIP    C7 1135   2.992   2.108   2.641 -0.1507 -0.4136 -0.4596
   95HFIP    F8 1136   3.091   2.025   2.600  0.2647  0.3764  0.0914
   95HFIP    F9 1137   3.038   2.237   2.642  0.5674 -0.6033  0.2681
   95HFIP   F10 1138   2.907   2.096   2.536  0.2876  0.1353 -0.5483
   95HFIP   H11 1139   3.025   2.040   2.975 -1.4224 -1.4629 -0.1437
   95HFIP   H12 1140   2.887   2.164   2.819 -2.8055 -1.9967 -0.1885
   96HFIP    O1 1141   1.382   3.076   1.252 -0.5100  0.2183  0.2355
   96HFIP    C2 1142   1.306   2.959   1.259 -0.7685 -0.2997 -0.3242
   96HFIP    C3 1143   1.311   2.886   1.395  0.2197 -0.0507  0.3126
   96HFIP    F4 1144   1.196   2.823   1.429  0.4601  0.1850  0.3536
   96HFIP    F5 1145   1.316   2.974   1.503  0.2032 -0.1774  0.0050
   96HFIP    F6 1146   1.426   2.815   1.417 -0.4819 -0.1576  0.2502
   96HFIP    C7 1147   1.338   2.855   1.140  0.2841  0.6636  0.2165
   96HFIP    F8 1148   1.321   2.898   1.009 -0.2706  0.7000 -0.2478
   96HFIP    F9 1149   1.253   2.749   1.145  0.4326 -0.3947  0.8041
   96HFIP   F10 1150   1.468   2.812   1.147  0.1827  0.0068 -0.4102
   96HFIP   H11 1151   1.333   3.162   1.239  2.4980  1.9434 -0.0855
   96HFIP   H12 1152   1.203   2.993   1.247 -0.5571  1.2936  1.9599
   97HFIP    O1 1153   1.698   2.707   1.572  0.4473 -0.0397  0.2982
   97HFIP    C2 1154   1.804   2.619   1.603 -0.5301  0.0294  0.0670
   97HFIP    C3 1155   1.865   2.544   1.481  0.1319 -0.1235 -0.5338
   97HFIP    F4 1156   1.985   2.597   1.434 -0.0828  0.2054 -0.6395
   97HFIP    F5 1157   1.786   2.542   1.371  0.2456 -0.0322 -0.1903
   97HFIP    F6 1158   1.894   2.411   1.499 -0.2488 -0.5882  0.1077
   97HFIP    C7 1159   1.751   2.517   1.715 -0.5888  0.0975  0.3799
   97HFIP    F8 1160   1.652   2.441   1.672  0.2028 -0.5463  0.4969
   97HFIP    F9 1161   1.706   2.582   1.823 -0.3178 -0.1470  0.9153
   97HFIP   F10 1162   1.856   2.440   1.760 -0.2061 -0.3662 -0.6251
   97HFIP   H11 1163   1.735   2.788   1.525  3.0111 -0.5638  1.3044
   97HFIP   H12 1164   1.882   2.677   1.653 -1.9706 -0.8704  3.4960
   98HFIP    O1 1165   3.442   2.625   0.513 -0.3762  0.0108  0.3688
   98HFIP    C2 1166   3.451   2.689   0.386  1.0765 -0.0074  0.2335
   98HFIP    C3 1167   3.588   2.722   0.338 -0.3070  0.0322 -0.0164
   98HFIP    F4 1168   3.644   2.826   0.408  0.6215 -0.5756  0.7236
   98HFIP    F5 1169   3.595   2.755   0.205 -0.4476 -0.3404  0.0501
   98HFIP    F6 1170   3.671   2.618   0.358  0.0980 -0.1613  0.3838
   98HFIP    C7 1171   3.360   2.820   0.380 -0.4190 -0.1657 -0.6106
   98HFIP    F8 1172   3.238   2.794   0.443 -0.1913  0.2914  0.1903
   98HFIP    F9 1173   3.329   2.866   0.256  0.4182  0.0997  0.2774
   98HFIP   F10 1174   3.409   2.926   0.449 -0.1583 -0.1826 -0.0531
   98HFIP   H11 1175   3.502   2.546   0.523  0.9653  0.7052 -1.9004
   98HFIP   H12 1176   3.397   2.617   0.323 -1.0158  0.1305  1.8153
   99HFIP    O1 1177   0.873   2.003   3.189  0.6595 -0.1821  0.2558
   99HFIP    C2 1178   0.779   2.105   3.155 -0.1267  0.0858  0.3318
   99HFIP    C3 1179   0.718   2.103   3.011  0.4418 -0.2505 -0.1293
   99HFIP    F4 1180   0.632   2.203   2.985 -0.1450  0.2028 -0.3436
   99HFIP    F5 1181   0.646   1.988   2.992 -0.1521 -0.1597 -0.2002
   99HFIP    F6 1182   0.813   2.112   2.916 -0.1925 -0.2784  0.0572
   99HFIP    C7 1183   0.822   2.250   3.203 -0.1187  0.5503 -0.0221
   99HFIP    F8 1184   0.915   2.299   3.116 -0.1657 -0.0251 -0.1126
   99HFIP    F9 1185   0.876   2.251   3.328  0.0471 -0.4146 -0.7311
   99HFIP   F10 1186   0.714   2.334   3.208  0.3640  0.5024  0.2076
   99HFIP   H11 1187   0.971   2.022   3.178  0.8188  0.6449  2.7215
   99HFIP   H12 1188   0.698   2.074   3.220 -1.9903 -0.5963 -2.2420
  100HFIP    O1 1189   2.509   2.781   0.450  0.1836 -0.1417 -0.0503
  100HFIP    C2 1190   2.586   2.841   0.346  0.2325  0.8347 -0.3121
  100HFIP    C3 1191   2.611   2.995   0.358  0.1080  0.2075  0.1641
  100HFIP    F4 1192   2.686   3.013   0.470  0.4233 -0.0825 -0.0762
  100HFIP    F5 1193   2.495   3.061   0.382 -0.6029 -0.3669 -0.3231
  100HFIP    F6 1194   2.671   3.055   0.252  0.2792 -0.4912 -0.2655
  100HFIP    C7 1195   2.524   2.809   0.204 -0.1575 -0.0640 -0.3968
  100HFIP    F8 1196   2.501   2.676   0.206  0.1470  0.2067 -0.0219
  100HFIP    F9 1197   2.616   2.833   0.102  0.3843  0.2011 -0.3466
  100HFIP   F10 1198   2.409   2.879   0.173 -0.3092  0.0998  0.5649
  100HFIP   H11 1199   2.547   2.693   0.479  1.0392  0.1053 -0.3948
  100HFIP   H12 1200   2.685   2.794   0.344 -1.3661 -2.7096 -3.3078
  101HFIP    O1 1201   3.200   3.138   0.791  0.1387 -0.1823  0.4860
  101HFIP    C2 1202   3.087   3.152   0.714 -0.3734  0.1893  0.1411
  101HFIP    C3 1203   3.114   3.201   0.573 -0.1698 -0.1299 -0.2722
  101HFIP    F4 1204   3.133   3.337   0.573  0.3119 -0.4332 -0.2035
  101HFIP    F5 1205   3.010   3.167   0.497 -0.3000 -0.3968 -0.2423
  101HFIP    F6 1206   3.220   3.140   0.518 -0.3720  0.0796  0.1340
  101HFIP    C7 1207   2.961   3.225   0.783 -0.8060  0.4735  0.4544
  101HFIP    F8 1208   2.925   3.178   0.903  0.3872  0.4268  0.1684
  101HFIP    F9 1209   2.846   3.204   0.709  0.2360  0.2074 -0.0522
  101HFIP   F10 1210   2.979   3.358   0.799  0.0728  0.1640 -0.1150
  101HFIP   H11 1211   3.262   3.064   0.768  0.8192  0.8050 -0.8738
  101HFIP   H12 1212   3.051   3.050   0.702  1.1841 -0.0979 -2.3655
  102HFIP    O1 1213   0.122   2.335   3.251  0.0347 -0.1377  0.1880
  102HFIP    C2 1214   0.061   2.407   3.357 -0.2404 -0.1496  0.2243
  102HFIP    C3 1215   0.135   2.386   3.494  0.1379 -0.0784  0.6503
  102HFIP    F4 1216   0.261   2.434   3.492  0.3594 -0.3102  0.1370
  102HFIP    F5 1217   0.149   2.249   3.509 -0.0018 -0.2449  0.5291
  102HFIP    F6 1218   0.075   2.444   3.599 -0.0709  0.2853  0.2786
  102HFIP    C7 1219  -0.093   2.379   3.373 -0.5004  0.0319  0.5150
  102HFIP    F8 1220  -0.165   2.370   3.260 -0.0611  0.3984  0.3282
  102HFIP    F9 1221  -0.154   2.487   3.441  0.0644 -0.0580  0.5859
  102HFIP   F10 1222  -0.116   2.276   3.455  0.1484 -0.0211  0.4158
  102HFIP   H11 1223   0.128   2.237   3.271 -0.4643 -0.0883  0.5849
  102HFIP   H12 1224   0.075   2.513   3.334  0.8034 -1.1192 -4.1887
  103HFIP    O1 1225   3.022   3.273   1.214 -0.0790 -0.7923 -0.0140
  103HFIP    C2 1226   2.972   3.388   1.282  0.4208  0.5098  0.3148
  103HFIP    C3 1227   3.006   3.528   1.215  0.2328 -0.0102  0.4996
  103HFIP    F4 1228   2.987   3.647   1.282 -0.0624 -0.3127 -0.2513
  103HFIP    F5 1229   2.936   3.541   1.102  0.1486 -0.1999 -0.1286
  103HFIP    F6 1230   3.140   3.535   1.183  0.1084 -0.2254  0.2047
  103HFIP    C7 1231   3.021   3.397   1.432  0.7179 -0.6193  0.4883
  103HFIP    F8 1232   2.953   3.483   1.516 -0.5370 -0.3702 -0.1069
  103HFIP    F9 1233   3.153   3.422   1.448  0.1506  0.2915  0.3989
  103HFIP   F10 1234   2.997   3.276   1.484  0.6953  0.4932  0.1467
  103HFIP   H11 1235   3.091   3.286   1.143 -1.2215 -0.1270 -1.0325
  103HFIP   H12 1236   2.864   3.370   1.277  0.7190 -0.7512 -2.0952
  104HFIP    O1 1237   3.222   3.291   1.010 -0.4308 -0.2782 -0.3240
  104HFIP    C2 1238   3.342   3.359   1.032 -0.5735 -0.0454  0.3038
  104HFIP    C3 1239   3.380   3.461   0.920 -0.1241 -0.0743  0.2539
  104HFIP    F4 1240   3.481   3.543   0.953 -0.5929 -0.0770 -0.0144
  104HFIP    F5 1241   3.279   3.553   0.889 -0.1105 -0.3962 -0.0444
  104HFIP    F6 1242   3.406   3.400   0.796  0.4696  0.1179 -0.0120
  104HFIP    C7 1243   3.459   3.263   1.075  0.4358 -0.0997 -0.1253
  104HFIP    F8 1244   3.578   3.322   1.095 -0.3403 -0.4340  0.4540
  104HFIP    F9 1245   3.476   3.157   0.993  0.2573  0.5622  0.2390
  104HFIP   F10 1246   3.421   3.206   1.192  0.0208 -0.7411 -0.0594
  104HFIP   H11 1247   3.209   3.255   0.918 -1.6112 -2.9040  0.8088
  104HFIP   H12 1248   3.339   3.425   1.120 -0.7472  0.9432 -0.4304
  105HFIP    O1 1249   0.856   3.159   3.218  0.4343 -0.3859  0.1952
  105HFIP    C2 1250   0.991   3.189   3.223 -0.1428  0.1352 -0.7968
  105HFIP    C3 1251   1.027   3.319   3.305 -0.2671  0.5184 -0.6292
  105HFIP    F4 1252   0.981   3.302   3.432 -0.4447  0.7671 -0.0547
  105HFIP    F5 1253   0.970   3.432   3.259  0.2731  0.0667  0.2679
  105HFIP    F6 1254   1.157   3.331   3.335 -0.1892 -0.3408 -0.2285
  105HFIP    C7 1255   1.073   3.170   3.097  0.5365 -0.0741  0.2137
  105HFIP    F8 1256   1.050   3.261   2.998 -0.0386 -0.4782 -0.3751
  105HFIP    F9 1257   1.037   3.049   3.051  0.1752  0.1082  0.0875
  105HFIP   F10 1258   1.207   3.137   3.108  0.1227 -0.2497  0.1163
  105HFIP   H11 1259   0.815   3.213   3.145  1.1146 -2.9539 -2.1373
  105HFIP   H12 1260   1.024   3.110   3.291  0.1116 -0.1015 -1.1897
  106HFIP    O1 1261   0.712   1.369   0.829  0.0205  0.7447 -0.3354
  106HFIP    C2 1262   0.778   1.245   0.794  0.9566 -0.1953 -0.2838
  106HFIP    C3 1263   0.740   1.199   0.646  0.4210 -0.0033 -0.3245
  106HFIP    F4 1264   0.794   1.082   0.607  0.3166  0.0704  0.4397
  106HFIP    F5 1265   0.780   1.289   0.555 -0.1961  0.6833  0.5392
  106HFIP    F6 1266   0.608   1.172   0.628 -0.4159  0.3358 -0.0972
  106HFIP    C7 1267   0.760   1.131   0.896  0.7224 -0.1930 -0.2971
  106HFIP    F8 1268   0.630   1.099   0.890 -0.0291 -0.2572 -0.6895
  106HFIP    F9 1269   0.802   1.163   1.022  0.3059  0.4994  0.3664
  106HFIP   F10 1270   0.836   1.023   0.872 -0.0935  0.4156 -0.1203
  106HFIP   H11 1271   0.734   1.432   0.754 -2.9045  1.3878 -0.7316
  106HFIP   H12 1272   0.887   1.258   0.792  1.0189 -0.6513  0.1178
  107HFIP    O1 1273   1.886   1.889   1.076 -0.4404 -0.1417  0.1858
  107HFIP    C2 1274   1.873   1.763   1.134  0.3384  0.2608  0.0278
  107HFIP    C3 1275   1.746   1.686   1.083 -0.6683 -0.4877 -0.0904
  107HFIP    F4 1276   1.734   1.556   1.113 -0.0562 -0.1264 -0.3406
  107HFIP    F5 1277   1.749   1.675   0.951 -0.0580 -0.7490  0.5432
  107HFIP    F6 1278   1.632   1.753   1.111  0.0860  0.4437  0.1907
  107HFIP    C7 1279   1.868   1.772   1.291 -0.7941 -0.2480 -0.1001
  107HFIP    F8 1280   1.779   1.870   1.328  0.0626 -0.0510 -0.4297
  107HFIP    F9 1281   1.991   1.802   1.338 -0.6767  0.1632 -0.0447
  107HFIP   F10 1282   1.834   1.652   1.350 -0.0046  0.3071  0.6203
  107HFIP   H11 1283   1.795   1.931   1.067  0.0518  0.9118  0.1163
  107HFIP   H12 1284   1.956   1.693   1.121 -2.5153 -3.0946 -0.8593
  108HFIP    O1 1285   0.002   0.834   1.588  0.1426 -0.0974  0.0404
  108HFIP    C2 1286  -0.062   0.949   1.531  0.2008 -0.0149  0.2088
  108HFIP    C3 1287  -0.187   1.007   1.601 -0.9516 -0.3067 -0.8343
  108HFIP    F4 1288  -0.209   1.130   1.553  0.2194 -0.3608 -0.0459
  108HFIP    F5 1289  -0.159   1.019   1.733  0.0448  0.1215 -0.3193
  108HFIP    F6 1290  -0.296   0.922   1.598  0.3102 -0.8145  0.0421
  108HFIP    C7 1291  -0.095   0.927   1.378  0.2074 -0.1919  0.4425
  108HFIP    F8 1292  -0.134   1.037   1.312  0.2058  0.0241  0.2564
  108HFIP    F9 1293  -0.188   0.827   1.350 -0.1741 -0.5918 -0.0151
  108HFIP   F10 1294   0.020   0.889   1.314 -0.0814 -0.2024  0.3971
  108HFIP   H11 1295   0.101   0.849   1.588  0.1898 -0.4098  0.1364
  108HFIP   H12 1296   0.013   1.029   1.530 -1.7257  1.8532 -1.0212
  109HFIP    O1 1297   1.058   1.839   1.797 -0.3747  0.1550 -0.5877
  109HFIP    C2 1298   1.131   1.734   1.845 -0.3982 -0.2123 -0.1869
  109HFIP    C3 1299   1.066   1.593   1.831 -0.4757  1.1924  0.5412
  109HFIP    F4 1300   1.146   1.494   1.880 -0.3020 -0.3410 -0.3462
  109HFIP    F5 1301   1.047   1.561   1.699  0.9649  0.4230 -0.3842
  109HFIP    F6 1302   0.937   1.590   1.877  0.1585 -0.0443 -0.1287
  109HFIP    C7 1303   1.198   1.751   1.988  0.4975 -0.7215  0.2439
  109HFIP    F8 1304   1.104   1.743   2.084  0.1487  0.1277 -0.7183
  109HFIP    F9 1305   1.243   1.879   1.997  1.0219  0.0085 -0.5528
  109HFIP   F10 1306   1.300   1.669   2.014  0.2371 -0.2322  0.0827
  109HFIP   H11 1307   1.087   1.865   1.706  2.5228 -2.9973 -0.6477
  109HFIP   H12 1308   1.216   1.719   1.778  0.6120  0.0331  1.0291
  110HFIP    O1 1309   2.776   1.074   1.166  0.3348  0.3440 -0.3957
  110HFIP    C2 1310   2.871   0.985   1.111  0.1763  0.7083  0.1951
  110HFIP    C3 1311   2.956   0.903   1.216 -0.1546 -0.2381  0.1380
  110HFIP    F4 1312   3.078   0.860   1.182  0.0400  0.1111  0.6782
  110HFIP    F5 1313   2.890   0.792   1.264  0.1148 -0.0689 -0.0422
  110HFIP    F6 1314   2.981   0.971   1.327 -0.1051 -0.5397 -0.1539
  110HFIP    C7 1315   2.974   1.046   1.007  0.1100 -0.1000  0.3498
  110HFIP    F8 1316   3.027   0.943   0.930 -0.8430 -0.5865 -0.3504
  110HFIP    F9 1317   3.075   1.124   1.059 -0.0888 -0.2393  0.0268
  110HFIP   F10 1318   2.908   1.131   0.919 -0.0648  0.0217  0.0658
  110HFIP   H11 1319   2.798   1.172   1.176  0.4919  0.2864 -0.1810
  110HFIP   H12 1320   2.815   0.907   1.059  0.3974 -0.0370  1.0566
  111HFIP    O1 1321   3.390   1.063   0.451 -0.7922  0.6714 -0.5344
  111HFIP    C2 1322   3.252   1.020   0.454 -1.0159 -0.4704 -0.1886
  111HFIP    C3 1323   3.147   1.092   0.366 -0.0341 -0.2462 -0.1547
  111HFIP    F4 1324   3.200   1.134   0.246 -0.7756 -0.8491  0.2057
  111HFIP    F5 1325   3.096   1.206   0.423 -0.6008  0.6784 -0.1445
  111HFIP    F6 1326   3.035   1.020   0.341 -0.0921  0.6173  0.6618
  111HFIP    C7 1327   3.208   0.987   0.605  0.1695  0.2963  0.0177
  111HFIP    F8 1328   3.241   1.086   0.690  0.4767  0.7898 -0.2465
  111HFIP    F9 1329   3.259   0.872   0.650 -0.6077 -0.0761 -0.0159
  111HFIP   F10 1330   3.079   0.965   0.609 -0.7428  0.4313  0.2402
  111HFIP   H11 1331   3.408   1.161   0.449  2.1856  0.3218  2.8242
  111HFIP   H12 1332   3.262   0.924   0.402  0.2313 -0.1986 -0.4717
  112HFIP    O1 1333   2.879   1.497   0.306  0.0901 -0.6130 -0.0439
  112HFIP    C2 1334   2.766   1.475   0.224  0.0847  0.1904  0.3196
  112HFIP    C3 1335   2.657   1.383   0.288  0.3700 -0.0899  0.5903
  112HFIP    F4 1336   2.708   1.286   0.372 -0.2904  0.1875 -0.5606
  112HFIP    F5 1337   2.579   1.308   0.206 -0.1503  0.2209 -0.6337
  112HFIP    F6 1338   2.574   1.465   0.358  0.5295  0.0373  0.4374
  112HFIP    C7 1339   2.811   1.414   0.086  0.2336 -0.2107  1.0116
  112HFIP    F8 1340   2.878   1.295   0.104  0.0703 -0.0391 -0.4329
  112HFIP    F9 1341   2.893   1.508   0.026 -0.7101 -0.3340 -0.1061
  112HFIP   F10 1342   2.708   1.407  -0.003 -0.2082  0.3607 -0.1681
  112HFIP   H11 1343   2.861   1.466   0.400 -2.1383 -0.4757 -0.3922
  112HFIP   H12 1344   2.719   1.572   0.207  1.1533  1.0319  1.9643
  113HFIP    O1 1345   3.323   2.174   1.687 -0.2835  0.0973 -0.6000
  113HFIP    C2 1346   3.254   2.255   1.778  0.0053 -0.2139  0.1652
  113HFIP    C3 1347   3.113   2.204   1.809  1.0418 -0.0496 -0.3717
  113HFIP    F4 1348   3.048   2.288   1.895 -0.7048 -0.3173  0.5541
  113HFIP    F5 1349   3.115   2.085   1.868  0.2736  0.0856  0.3391
  113HFIP    F6 1350   3.028   2.191   1.703 -0.0211  0.6027  0.4346
  113HFIP    C7 1351   3.265   2.408   1.750 -0.5644 -0.4709  0.1372
  113HFIP    F8 1352   3.226   2.492   1.851 -0.4217  0.3077  0.5358
  113HFIP    F9 1353   3.186   2.461   1.655  0.1641 -0.1625 -0.3453
  113HFIP   F10 1354   3.389   2.454   1.722 -0.3432 -0.2548  0.1466
  113HFIP   H11 1355   3.422   2.178   1.698 -0.4834 -1.1105  2.2590
  113HFIP   H12 1356   3.313   2.245   1.869  3.1440 -0.9943 -1.8802
  114HFIP    O1 1357   3.284   2.468   2.474  0.0210  0.2826 -0.2016
  114HFIP    C2 1358   3.346   2.422   2.362 -0.0439 -0.2465  0.5820
  114HFIP    C3 1359   3.255   2.399   2.237 -0.3136 -0.1007  0.9098
  114HFIP    F4 1360   3.318   2.343   2.129 -0.1150  0.1934  0.0191
  114HFIP    F5 1361   3.218   2.518   2.190  0.1876 -0.1622 -0.3666
  114HFIP    F6 1362   3.154   2.310   2.250 -0.2347  0.6017 -0.1155
  114HFIP    C7 1363   3.434   2.298   2.387  0.5722 -0.7929  0.0201
  114HFIP    F8 1364   3.506   2.309   2.501 -0.0652  0.2996 -0.0517
  114HFIP    F9 1365   3.543   2.295   2.306  0.3924 -0.5627  0.1992
  114HFIP   F10 1366   3.369   2.177   2.381 -0.2469  0.2974  0.3017
  114HFIP   H11 1367   3.189   2.495   2.460  0.2035  1.3243  0.5163
  114HFIP   H12 1368   3.421   2.495   2.333  0.8779 -1.1597  0.6192
  115HFIP    O1 1369   3.387   1.329   0.472 -0.3408  0.0009 -0.0577
  115HFIP    C2 1370   3.384   1.379   0.601  0.4902 -0.1483 -0.3918
  115HFIP    C3 1371   3.364   1.537   0.623  0.0874 -0.4564  0.1298
  115HFIP    F4 1372   3.256   1.568   0.545 -0.1250 -0.3249  0.3496
  115HFIP    F5 1373   3.463   1.623   0.576  0.4880 -0.0926  0.2066
  115HFIP    F6 1374   3.320   1.565   0.746  0.0428 -0.0350  0.0274
  115HFIP    C7 1375   3.509   1.339   0.689  0.6383  0.2633  1.1376
  115HFIP    F8 1376   3.488   1.353   0.823 -0.7723  0.4515  0.0200
  115HFIP    F9 1377   3.620   1.410   0.659 -0.4071 -0.0227  0.2951
  115HFIP   F10 1378   3.534   1.206   0.677 -0.3180  0.1074  1.0457
  115HFIP   H11 1379   3.380   1.400   0.401 -0.6426 -0.3516 -0.3795
  115HFIP   H12 1380   3.300   1.325   0.643 -0.1722 -0.0662 -1.5932
  116HFIP    O1 1381   3.319   1.460   0.242  0.2769 -0.1578 -0.2533
  116HFIP    C2 1382   3.363   1.412   0.113 -0.1457  0.2617  0.5601
  116HFIP    C3 1383   3.516   1.393   0.102 -0.4335 -0.1083 -0.1524
  116HFIP    F4 1384   3.583   1.354   0.209  0.1878 -0.2741  0.2321
  116HFIP    F5 1385   3.587   1.503   0.061 -0.5451  0.3249  0.4078
  116HFIP    F6 1386   3.546   1.296   0.015  0.3650 -0.1589  0.0355
  116HFIP    C7 1387   3.309   1.495  -0.009 -0.5576  0.8481 -1.0920
  116HFIP    F8 1388   3.353   1.623   0.002  0.4098 -0.4231 -0.4321
  116HFIP    F9 1389   3.176   1.501  -0.006  0.4845 -0.0127  0.2005
  116HFIP   F10 1390   3.349   1.452  -0.131 -0.0596 -0.0504  0.2271
  116HFIP   H11 1391   3.241   1.522   0.232  0.3115 -0.3559 -1.8184
  116HFIP   H12 1392   3.315   1.315   0.099 -0.2725  0.3402  0.4568
  117HFIP    O1 1393   0.662   1.838   0.863 -0.0038  0.7664 -0.8641
  117HFIP    C2 1394   0.632   1.969   0.898  0.3448 -0.2958 -0.4332
  117HFIP    C3 1395   0.506   2.031   0.814  0.0063  0.5803  0.0340
  117HFIP    F4 1396   0.395   1.952   0.822  0.0382 -0.3990  0.2552
  117HFIP    F5 1397   0.536   2.066   0.686 -0.0945 -0.3370  0.0390
  117HFIP    F6 1398   0.465   2.143   0.876 -0.7456 -0.3254  0.1212
  117HFIP    C7 1399   0.758   2.060   0.885  0.1922  1.0964  0.2549
  117HFIP    F8 1400   0.735   2.189   0.850 -0.2241 -0.3876 -0.1898
  117HFIP    F9 1401   0.834   2.011   0.782  0.4015  0.7384  0.3437
  117HFIP   F10 1402   0.827   2.066   0.998  0.1828  0.4612 -0.0952
  117HFIP   H11 1403   0.648   1.776   0.941  0.3456  0.7100 -0.8473
  117HFIP   H12 1404   0.601   1.973   1.002 -1.8263 -3.8542 -0.8620
  118HFIP    O1 1405   3.516   2.848   1.634 -0.1170  0.2077 -0.2894
  118HFIP    C2 1406   3.392   2.817   1.570  0.0898  0.0120  0.3308
  118HFIP    C3 1407   3.379   2.888   1.428 -0.5021 -1.1205  0.3822
  118HFIP    F4 1408   3.359   3.022   1.434  0.2215  0.0857  0.5364
  118HFIP    F5 1409   3.291   2.825   1.348 -0.3419  0.0754  0.0091
  118HFIP    F6 1410   3.498   2.872   1.359  0.1330  0.3391  0.5472
  118HFIP    C7 1411   3.268   2.853   1.650  1.0337 -0.3411  0.1087
  118HFIP    F8 1412   3.153   2.803   1.600  0.2892 -0.3427 -0.5553
  118HFIP    F9 1413   3.256   2.986   1.688  0.3420  0.3168 -0.4114
  118HFIP   F10 1414   3.261   2.787   1.771 -0.3138 -0.0434 -0.3308
  118HFIP   H11 1415   3.524   2.946   1.654 -2.3262  0.1688  1.0203
  118HFIP   H12 1416   3.381   2.709   1.556  1.7016 -0.5604  3.0057
  119HFIP    O1 1417   3.321   1.975   2.850 -0.0805 -0.4076 -0.6709
  119HFIP    C2 1418   3.416   1.985   2.753  0.1718  0.8321  0.1955
  119HFIP    C3 1419   3.440   1.854   2.678 -0.5785  0.1565  0.6133
  119HFIP    F4 1420   3.504   1.886   2.562  0.0825  0.4842 -0.8413
  119HFIP    F5 1421   3.324   1.795   2.636  0.0377 -0.0395 -0.1548
  119HFIP    F6 1422   3.518   1.764   2.745 -0.8366 -0.9171 -0.5189
  119HFIP    C7 1423   3.556   2.052   2.796  0.0851 -0.0574 -0.5900
  119HFIP    F8 1424   3.556   2.179   2.842 -0.3085  0.9454  0.0202
  119HFIP    F9 1425   3.652   2.058   2.701 -0.4453 -0.2414 -0.0678
  119HFIP   F10 1426   3.603   1.989   2.907 -0.0919  0.4529 -0.2009
  119HFIP   H11 1427   3.244   2.031   2.818 -1.0710 -0.5438  1.3578
  119HFIP   H12 1428   3.371   2.055   2.682 -1.5920 -0.4690 -0.0255
  120HFIP    O1 1429   3.103   1.641   0.261  0.3885  0.3968  0.1879
  120HFIP    C2 1430   3.098   1.773   0.221 -0.8515 -0.8633  0.0127
  120HFIP    C3 1431   3.225   1.859   0.255  0.2217 -0.6060 -0.3507
  120HFIP    F4 1432   3.338   1.786   0.244 -0.9981 -0.2282  0.7494
  120HFIP    F5 1433   3.227   1.901   0.385  0.2112  0.1208 -0.0083
  120HFIP    F6 1434   3.247   1.966   0.175 -0.4996 -0.3686 -0.2231
  120HFIP    C7 1435   2.959   1.845   0.252  0.0019  0.7039 -0.2023
  120HFIP    F8 1436   2.846   1.783   0.197  0.1564 -0.3553 -0.1602
  120HFIP    F9 1437   2.963   1.974   0.214  0.7522  0.1945  0.2084
  120HFIP   F10 1438   2.940   1.858   0.387  0.0141 -0.3641  0.4970
  120HFIP   H11 1439   3.012   1.602   0.276 -0.2645  0.9688 -2.0581
  120HFIP   H12 1440   3.104   1.776   0.112  0.2757 -1.1479  0.0696
  121HFIP    O1 1441   2.572   2.572   0.794  0.0156 -0.4944  0.6312
  121HFIP    C2 1442   2.675   2.652   0.857 -0.2195 -0.2206  0.3036
  121HFIP    C3 1443   2.722   2.782   0.787  0.3687  0.0545  0.2068
  121HFIP    F4 1444   2.613   2.851   0.748  0.3573  0.2534  0.3755
  121HFIP    F5 1445   2.801   2.764   0.675  0.2989  0.2776 -0.1348
  121HFIP    F6 1446   2.784   2.867   0.877  0.0363 -0.0895  0.3713
  121HFIP    C7 1447   2.785   2.561   0.919  0.0146 -0.8439  0.2950
  121HFIP    F8 1448   2.892   2.536   0.835 -0.2114 -0.4876  0.3280
  121HFIP    F9 1449   2.735   2.447   0.967 -0.3592 -0.3914  0.3467
  121HFIP   F10 1450   2.849   2.618   1.026 -0.4012  0.0555  0.6464
  121HFIP   H11 1451   2.494   2.570   0.857  0.6227 -0.0679  1.4056
  121HFIP   H12 1452   2.629   2.687   0.949 -3.3671 -0.6853 -1.0076
  122HFIP    O1 1453   0.341   2.441   0.531  0.1476  0.1766 -0.5088
  122HFIP    C2 1454   0.417   2.414   0.414 -0.0759  0.6464  0.7797
  122HFIP    C3 1455   0.414   2.280   0.342 -0.2561 -0.2683 -0.5763
  122HFIP    F4 1456   0.461   2.275   0.215  0.6020 -0.3173  0.0816
  122HFIP    F5 1457   0.283   2.240   0.325  0.0541 -0.2628 -0.1523
  122HFIP    F6 1458   0.472   2.181   0.408  0.5234  0.3245 -0.2982
  122HFIP    C7 1459   0.563   2.467   0.429  0.6945  0.1006  0.3195
  122HFIP    F8 1460   0.641   2.392   0.500 -0.7332  0.0994  0.0792
  122HFIP    F9 1461   0.564   2.590   0.490 -0.1629 -0.5311 -0.2188
  122HFIP   F10 1462   0.624   2.491   0.309 -0.4660  0.2417  0.2475
  122HFIP   H11 1463   0.396   2.443   0.614 -0.2233  2.9810 -0.2694
  122HFIP   H12 1464   0.373   2.487   0.346 -0.1891  0.1942  0.3637
  123HFIP    O1 1465   0.165   2.606   1.620 -0.1561  0.1858  0.0827
  123HFIP    C2 1466   0.190   2.603   1.482 -0.3958 -0.3609  0.5532
  123HFIP    C3 1467   0.121   2.482   1.410 -0.3083 -0.5172  0.0967
  123HFIP    F4 1468   0.001   2.452   1.470 -0.1413  0.0062  0.6840
  123HFIP    F5 1469   0.194   2.365   1.401  0.3461 -0.7247  0.6389
  123HFIP    F6 1470   0.088   2.513   1.281 -0.3014 -0.1992  0.2883
  123HFIP    C7 1471   0.343   2.603   1.441 -0.2407 -0.3431 -0.4208
  123HFIP    F8 1472   0.407   2.525   1.529  0.5411  0.3651  0.0758
  123HFIP    F9 1473   0.392   2.734   1.461 -0.3773  0.5832 -0.0264
  123HFIP   F10 1474   0.371   2.574   1.315  0.1153 -0.2905  0.1245
  123HFIP   H11 1475   0.119   2.691   1.645  1.5436  1.0523  0.3200
  123HFIP   H12 1476   0.146   2.693   1.439 -0.8956  0.9010  3.5573
  124HFIP    O1 1477   3.040   2.542   2.541 -0.3037  0.2212  0.3554
  124HFIP    C2 1478   2.920   2.594   2.482 -0.7124 -0.2676 -0.7205
  124HFIP    C3 1479   2.821   2.477   2.472  0.1823 -0.0456  0.2603
  124HFIP    F4 1480   2.707   2.516   2.425 -0.3213 -0.0315  0.1741
  124HFIP    F5 1481   2.787   2.433   2.596  0.2475  0.2307  0.0552
  124HFIP    F6 1482   2.876   2.370   2.412 -0.2104  0.5187  0.4867
  124HFIP    C7 1483   2.927   2.669   2.348  0.0147 -0.0772 -0.5850
  124HFIP    F8 1484   2.946   2.582   2.244 -0.0968 -0.1269  0.2992
  124HFIP    F9 1485   3.043   2.744   2.340  0.1666 -0.5611  0.1494
  124HFIP   F10 1486   2.827   2.756   2.330  0.2463  0.1412 -0.4690
  124HFIP   H11 1487   3.026   2.516   2.636  0.1091  0.3356  0.4452
  124HFIP   H12 1488   2.865   2.661   2.548 -0.7134 -0.8528 -0.1242
  125HFIP    O1 1489   2.578   2.540   0.530 -0.1362 -0.9253  0.3118
  125HFIP    C2 1490   2.627   2.413   0.502  0.0434  0.3450 -0.5450
  125HFIP    C3 1491   2.760   2.409   0.418 -0.4716  0.3433  1.0029
  125HFIP    F4 1492   2.863   2.448   0.495 -0.1356 -0.4882 -0.1244
  125HFIP    F5 1493   2.739   2.499   0.317 -0.1760 -0.7510 -0.5128
  125HFIP    F6 1494   2.796   2.290   0.365  0.3958 -0.1173  0.2951
  125HFIP    C7 1495   2.521   2.320   0.445 -0.1347 -0.2038 -0.4721
  125HFIP    F8 1496   2.474   2.354   0.321 -0.0394 -0.0040  0.0274
  125HFIP    F9 1497   2.412   2.332   0.529 -0.0805 -0.3126  0.2390
  125HFIP   F10 1498   2.563   2.190   0.454  0.3118  1.0175 -0.0367
  125HFIP   H11 1499   2.578   2.558   0.629  0.7215  0.1949  0.1165
  125HFIP   H12 1500   2.652   2.364   0.597 -0.0405  1.4954  0.0736
   3.51960   3.51960   3.51960
