DMF comparator n4
 4173
    1GR      C1    1   0.000   0.000   1.900  0.0000  0.0000  0.0000
    1GR      C2    2   0.142   0.000   1.900  0.0000  0.0000  0.0000
    1GR      C3    3   0.213   0.123   1.900  0.0000  0.0000  0.0000
    1GR      C4    4   0.354   0.123   1.900  0.0000  0.0000  0.0000
    1GR      C5    5   0.000   0.246   1.900  0.0000  0.0000  0.0000
    1GR      C6    6   0.142   0.246   1.900  0.0000  0.0000  0.0000
    1GR      C7    7   0.213   0.368   1.900  0.0000  0.0000  0.0000
    1GR      C8    8   0.354   0.368   1.900  0.0000  0.0000  0.0000
    1GR      C9    9   0.000   0.491   1.900  0.0000  0.0000  0.0000
    1GR     C10   10   0.142   0.491   1.900  0.0000  0.0000  0.0000
    1GR     C11   11   0.213   0.614   1.900  0.0000  0.0000  0.0000
    1GR     C12   12   0.354   0.614   1.900  0.0000  0.0000  0.0000
    1GR     C13   13   0.000   0.737   1.900  0.0000  0.0000  0.0000
    1GR     C14   14   0.142   0.737   1.900  0.0000  0.0000  0.0000
    1GR     C15   15   0.213   0.860   1.900  0.0000  0.0000  0.0000
    1GR     C16   16   0.354   0.860   1.900  0.0000  0.0000  0.0000
    1GR     C17   17   0.000   0.982   1.900  0.0000  0.0000  0.0000
    1GR     C18   18   0.142   0.982   1.900  0.0000  0.0000  0.0000
    1GR     C19   19   0.213   1.105   1.900  0.0000  0.0000  0.0000
    1GR     C20   20   0.354   1.105   1.900  0.0000  0.0000  0.0000
    1GR     C21   21   0.000   1.228   1.900  0.0000  0.0000  0.0000
    1GR     C22   22   0.142   1.228   1.900  0.0000  0.0000  0.0000
    1GR     C23   23   0.213   1.351   1.900  0.0000  0.0000  0.0000
    1GR     C24   24   0.354   1.351   1.900  0.0000  0.0000  0.0000
    1GR     C25   25   0.000   1.474   1.900  0.0000  0.0000  0.0000
    1GR     C26   26   0.142   1.474   1.900  0.0000  0.0000  0.0000
    1GR     C27   27   0.213   1.596   1.900  0.0000  0.0000  0.0000
    1GR     C28   28   0.354   1.596   1.900  0.0000  0.0000  0.0000
    1GR     C29   29   0.000   1.719   1.900  0.0000  0.0000  0.0000
    1GR     C30   30   0.142   1.719   1.900  0.0000  0.0000  0.0000
    1GR     C31   31   0.213   1.842   1.900  0.0000  0.0000  0.0000
    1GR     C32   32   0.354   1.842   1.900  0.0000  0.0000  0.0000
    1GR     C33   33   0.000   1.965   1.900  0.0000  0.0000  0.0000
    1GR     C34   34   0.142   1.965   1.900  0.0000  0.0000  0.0000
    1GR     C35   35   0.213   2.088   1.900  0.0000  0.0000  0.0000
    1GR     C36   36   0.354   2.088   1.900  0.0000  0.0000  0.0000
    1GR     C37   37   0.000   2.210   1.900  0.0000  0.0000  0.0000
    1GR     C38   38   0.142   2.210   1.900  0.0000  0.0000  0.0000
    1GR     C39   39   0.213   2.333   1.900  0.0000  0.0000  0.0000
    1GR     C40   40   0.354   2.333   1.900  0.0000  0.0000  0.0000
    1GR     C41   41   0.000   2.456   1.900  0.0000  0.0000  0.0000
    1GR     C42   42   0.142   2.456   1.900  0.0000  0.0000  0.0000
    1GR     C43   43   0.213   2.579   1.900  0.0000  0.0000  0.0000
    1GR     C44   44   0.354   2.579   1.900  0.0000  0.0000  0.0000
    1GR     C45   45   0.000   2.702   1.900  0.0000  0.0000  0.0000
    1GR     C46   46   0.142   2.702   1.900  0.0000  0.0000  0.0000
    1GR     C47   47   0.213   2.824   1.900  0.0000  0.0000  0.0000
    1GR     C48   48   0.354   2.824   1.900  0.0000  0.0000  0.0000
    1GR     C49   49   0.000   2.947   1.900  0.0000  0.0000  0.0000
    1GR     C50   50   0.142   2.947   1.900  0.0000  0.0000  0.0000
    1GR     C51   51   0.213   3.070   1.900  0.0000  0.0000  0.0000
    1GR     C52   52   0.354   3.070   1.900  0.0000  0.0000  0.0000
    1GR     C53   53   0.000   3.193   1.900  0.0000  0.0000  0.0000
    1GR     C54   54   0.142   3.193   1.900  0.0000  0.0000  0.0000
    1GR     C55   55   0.213   3.316   1.900  0.0000  0.0000  0.0000
    1GR     C56   56   0.354   3.316   1.900  0.0000  0.0000  0.0000
    1GR     C57   57   0.425   0.000   1.900  0.0000  0.0000  0.0000
    1GR     C58   58   0.567   0.000   1.900  0.0000  0.0000  0.0000
    1GR     C59   59   0.638   0.123   1.900  0.0000  0.0000  0.0000
    1GR     C60   60   0.780   0.123   1.900  0.0000  0.0000  0.0000
    1GR     C61   61   0.425   0.246   1.900  0.0000  0.0000  0.0000
    1GR     C62   62   0.567   0.246   1.900  0.0000  0.0000  0.0000
    1GR     C63   63   0.638   0.368   1.900  0.0000  0.0000  0.0000
    1GR     C64   64   0.780   0.368   1.900  0.0000  0.0000  0.0000
    1GR     C65   65   0.425   0.491   1.900  0.0000  0.0000  0.0000
    1GR     C66   66   0.567   0.491   1.900  0.0000  0.0000  0.0000
    1GR     C67   67   0.638   0.614   1.900  0.0000  0.0000  0.0000
    1GR     C68   68   0.780   0.614   1.900  0.0000  0.0000  0.0000
    1GR     C69   69   0.425   0.737   1.900  0.0000  0.0000  0.0000
    1GR     C70   70   0.567   0.737   1.900  0.0000  0.0000  0.0000
    1GR     C71   71   0.638   0.860   1.900  0.0000  0.0000  0.0000
    1GR     C72   72   0.780   0.860   1.900  0.0000  0.0000  0.0000
    1GR     C73   73   0.425   0.982   1.900  0.0000  0.0000  0.0000
    1GR     C74   74   0.567   0.982   1.900  0.0000  0.0000  0.0000
    1GR     C75   75   0.638   1.105   1.900  0.0000  0.0000  0.0000
    1GR     C76   76   0.780   1.105   1.900  0.0000  0.0000  0.0000
    1GR     C77   77   0.425   1.228   1.900  0.0000  0.0000  0.0000
    1GR     C78   78   0.567   1.228   1.900  0.0000  0.0000  0.0000
    1GR     C79   79   0.638   1.351   1.900  0.0000  0.0000  0.0000
    1GR     C80   80   0.780   1.351   1.900  0.0000  0.0000  0.0000
    1GR     C81   81   0.425   1.474   1.900  0.0000  0.0000  0.0000
    1GR     C82   82   0.567   1.474   1.900  0.0000  0.0000  0.0000
    1GR     C83   83   0.638   1.596   1.900  0.0000  0.0000  0.0000
    1GR     C84   84   0.780   1.596   1.900  0.0000  0.0000  0.0000
    1GR     C85   85   0.425   1.719   1.900  0.0000  0.0000  0.0000
    1GR     C86   86   0.567   1.719   1.900  0.0000  0.0000  0.0000
    1GR     C87   87   0.638   1.842   1.900  0.0000  0.0000  0.0000
    1GR     C88   88   0.780   1.842   1.900  0.0000  0.0000  0.0000
    1GR     C89   89   0.425   1.965   1.900  0.0000  0.0000  0.0000
    1GR     C90   90   0.567   1.965   1.900  0.0000  0.0000  0.0000
    1GR     C91   91   0.638   2.088   1.900  0.0000  0.0000  0.0000
    1GR     C92   92   0.780   2.088   1.900  0.0000  0.0000  0.0000
    1GR     C93   93   0.425   2.210   1.900  0.0000  0.0000  0.0000
    1GR     C94   94   0.567   2.210   1.900  0.0000  0.0000  0.0000
    1GR     C95   95   0.638   2.333   1.900  0.0000  0.0000  0.0000
    1GR     C96   96   0.780   2.333   1.900  0.0000  0.0000  0.0000
    1GR     C97   97   0.425   2.456   1.900  0.0000  0.0000  0.0000
    1GR     C98   98   0.567   2.456   1.900  0.0000  0.0000  0.0000
    1GR     C99   99   0.638   2.579   1.900  0.0000  0.0000  0.0000
    1GR    C100  100   0.780   2.579   1.900  0.0000  0.0000  0.0000
    1GR    C101  101   0.425   2.702   1.900  0.0000  0.0000  0.0000
    1GR    C102  102   0.567   2.702   1.900  0.0000  0.0000  0.0000
    1GR    C103  103   0.638   2.824   1.900  0.0000  0.0000  0.0000
    1GR    C104  104   0.780   2.824   1.900  0.0000  0.0000  0.0000
    1GR    C105  105   0.425   2.947   1.900  0.0000  0.0000  0.0000
    1GR    C106  106   0.567   2.947   1.900  0.0000  0.0000  0.0000
    1GR    C107  107   0.638   3.070   1.900  0.0000  0.0000  0.0000
    1GR    C108  108   0.780   3.070   1.900  0.0000  0.0000  0.0000
    1GR    C109  109   0.425   3.193   1.900  0.0000  0.0000  0.0000
    1GR    C110  110   0.567   3.193   1.900  0.0000  0.0000  0.0000
    1GR    C111  111   0.638   3.316   1.900  0.0000  0.0000  0.0000
    1GR    C112  112   0.780   3.316   1.900  0.0000  0.0000  0.0000
    1GR    C113  113   0.851   0.000   1.900  0.0000  0.0000  0.0000
    1GR    C114  114   0.993   0.000   1.900  0.0000  0.0000  0.0000
    1GR    C115  115   1.064   0.123   1.900  0.0000  0.0000  0.0000
    1GR    C116  116   1.205   0.123   1.900  0.0000  0.0000  0.0000
    1GR    C117  117   0.851   0.246   1.900  0.0000  0.0000  0.0000
    1GR    C118  118   0.993   0.246   1.900  0.0000  0.0000  0.0000
    1GR    C119  119   1.064   0.368   1.900  0.0000  0.0000  0.0000
    1GR    C120  120   1.205   0.368   1.900  0.0000  0.0000  0.0000
    1GR    C121  121   0.851   0.491   1.900  0.0000  0.0000  0.0000
    1GR    C122  122   0.993   0.491   1.900  0.0000  0.0000  0.0000
    1GR    C123  123   1.064   0.614   1.900  0.0000  0.0000  0.0000
    1GR    C124  124   1.205   0.614   1.900  0.0000  0.0000  0.0000
    1GR    C125  125   0.851   0.737   1.900  0.0000  0.0000  0.0000
    1GR    C126  126   0.993   0.737   1.900  0.0000  0.0000  0.0000
    1GR    C127  127   1.064   0.860   1.900  0.0000  0.0000  0.0000
    1GR    C128  128   1.205   0.860   1.900  0.0000  0.0000  0.0000
    1GR    C129  129   0.851   0.982   1.900  0.0000  0.0000  0.0000
    1GR    C130  130   0.993   0.982   1.900  0.0000  0.0000  0.0000
    1GR    C131  131   1.064   1.105   1.900  0.0000  0.0000  0.0000
    1GR    C132  132   1.205   1.105   1.900  0.0000  0.0000  0.0000
    1GR    C133  133   0.851   1.228   1.900  0.0000  0.0000  0.0000
    1GR    C134  134   0.993   1.228   1.900  0.0000  0.0000  0.0000
    1GR    C135  135   1.064   1.351   1.900  0.0000  0.0000  0.0000
    1GR    C136  136   1.205   1.351   1.900  0.0000  0.0000  0.0000
    1GR    C137  137   0.851   1.474   1.900  0.0000  0.0000  0.0000
    1GR    C138  138   0.993   1.474   1.900  0.0000  0.0000  0.0000
    1GR    C139  139   1.064   1.596   1.900  0.0000  0.0000  0.0000
    1GR    C140  140   1.205   1.596   1.900  0.0000  0.0000  0.0000
    1GR    C141  141   0.851   1.719   1.900  0.0000  0.0000  0.0000
    1GR    C142  142   0.993   1.719   1.900  0.0000  0.0000  0.0000
    1GR    C143  143   1.064   1.842   1.900  0.0000  0.0000  0.0000
    1GR    C144  144   1.205   1.842   1.900  0.0000  0.0000  0.0000
    1GR    C145  145   0.851   1.965   1.900  0.0000  0.0000  0.0000
    1GR    C146  146   0.993   1.965   1.900  0.0000  0.0000  0.0000
    1GR    C147  147   1.064   2.088   1.900  0.0000  0.0000  0.0000
    1GR    C148  148   1.205   2.088   1.900  0.0000  0.0000  0.0000
    1GR    C149  149   0.851   2.210   1.900  0.0000  0.0000  0.0000
    1GR    C150  150   0.993   2.210   1.900  0.0000  0.0000  0.0000
    1GR    C151  151   1.064   2.333   1.900  0.0000  0.0000  0.0000
    1GR    C152  152   1.205   2.333   1.900  0.0000  0.0000  0.0000
    1GR    C153  153   0.851   2.456   1.900  0.0000  0.0000  0.0000
    1GR    C154  154   0.993   2.456   1.900  0.0000  0.0000  0.0000
    1GR    C155  155   1.064   2.579   1.900  0.0000  0.0000  0.0000
    1GR    C156  156   1.205   2.579   1.900  0.0000  0.0000  0.0000
    1GR    C157  157   0.851   2.702   1.900  0.0000  0.0000  0.0000
    1GR    C158  158   0.993   2.702   1.900  0.0000  0.0000  0.0000
    1GR    C159  159   1.064   2.824   1.900  0.0000  0.0000  0.0000
    1GR    C160  160   1.205   2.824   1.900  0.0000  0.0000  0.0000
    1GR    C161  161   0.851   2.947   1.900  0.0000  0.0000  0.0000
    1GR    C162  162   0.993   2.947   1.900  0.0000  0.0000  0.0000
    1GR    C163  163   1.064   3.070   1.900  0.0000  0.0000  0.0000
    1GR    C164  164   1.205   3.070   1.900  0.0000  0.0000  0.0000
    1GR    C165  165   0.851   3.193   1.900  0.0000  0.0000  0.0000
    1GR    C166  166   0.993   3.193   1.900  0.0000  0.0000  0.0000
    1GR    C167  167   1.064   3.316   1.900  0.0000  0.0000  0.0000
    1GR    C168  168   1.205   3.316   1.900  0.0000  0.0000  0.0000
    1GR    C169  169   1.276   0.000   1.900  0.0000  0.0000  0.0000
    1GR    C170  170   1.418   0.000   1.900  0.0000  0.0000  0.0000
    1GR    C171  171   1.489   0.123   1.900  0.0000  0.0000  0.0000
    1GR    C172  172   1.631   0.123   1.900  0.0000  0.0000  0.0000
    1GR    C173  173   1.276   0.246   1.900  0.0000  0.0000  0.0000
    1GR    C174  174   1.418   0.246   1.900  0.0000  0.0000  0.0000
    1GR    C175  175   1.489   0.368   1.900  0.0000  0.0000  0.0000
    1GR    C176  176   1.631   0.368   1.900  0.0000  0.0000  0.0000
    1GR    C177  177   1.276   0.491   1.900  0.0000  0.0000  0.0000
    1GR    C178  178   1.418   0.491   1.900  0.0000  0.0000  0.0000
    1GR    C179  179   1.489   0.614   1.900  0.0000  0.0000  0.0000
    1GR    C180  180   1.631   0.614   1.900  0.0000  0.0000  0.0000
    1GR    C181  181   1.276   0.737   1.900  0.0000  0.0000  0.0000
    1GR    C182  182   1.418   0.737   1.900  0.0000  0.0000  0.0000
    1GR    C183  183   1.489   0.860   1.900  0.0000  0.0000  0.0000
    1GR    C184  184   1.631   0.860   1.900  0.0000  0.0000  0.0000
    1GR    C185  185   1.276   0.982   1.900  0.0000  0.0000  0.0000
    1GR    C186  186   1.418   0.982   1.900  0.0000  0.0000  0.0000
    1GR    C187  187   1.489   1.105   1.900  0.0000  0.0000  0.0000
    1GR    C188  188   1.631   1.105   1.900  0.0000  0.0000  0.0000
    1GR    C189  189   1.276   1.228   1.900  0.0000  0.0000  0.0000
    1GR    C190  190   1.418   1.228   1.900  0.0000  0.0000  0.0000
    1GR    C191  191   1.489   1.351   1.900  0.0000  0.0000  0.0000
    1GR    C192  192   1.631   1.351   1.900  0.0000  0.0000  0.0000
    1GR    C193  193   1.276   1.474   1.900  0.0000  0.0000  0.0000
    1GR    C194  194   1.418   1.474   1.900  0.0000  0.0000  0.0000
    1GR    C195  195   1.489   1.596   1.900  0.0000  0.0000  0.0000
    1GR    C196  196   1.631   1.596   1.900  0.0000  0.0000  0.0000
    1GR    C197  197   1.276   1.719   1.900  0.0000  0.0000  0.0000
    1GR    C198  198   1.418   1.719   1.900  0.0000  0.0000  0.0000
    1GR    C199  199   1.489   1.842   1.900  0.0000  0.0000  0.0000
    1GR    C200  200   1.631   1.842   1.900  0.0000  0.0000  0.0000
    1GR    C201  201   1.276   1.965   1.900  0.0000  0.0000  0.0000
    1GR    C202  202   1.418   1.965   1.900  0.0000  0.0000  0.0000
    1GR    C203  203   1.489   2.088   1.900  0.0000  0.0000  0.0000
    1GR    C204  204   1.631   2.088   1.900  0.0000  0.0000  0.0000
    1GR    C205  205   1.276   2.210   1.900  0.0000  0.0000  0.0000
    1GR    C206  206   1.418   2.210   1.900  0.0000  0.0000  0.0000
    1GR    C207  207   1.489   2.333   1.900  0.0000  0.0000  0.0000
    1GR    C208  208   1.631   2.333   1.900  0.0000  0.0000  0.0000
    1GR    C209  209   1.276   2.456   1.900  0.0000  0.0000  0.0000
    1GR    C210  210   1.418   2.456   1.900  0.0000  0.0000  0.0000
    1GR    C211  211   1.489   2.579   1.900  0.0000  0.0000  0.0000
    1GR    C212  212   1.631   2.579   1.900  0.0000  0.0000  0.0000
    1GR    C213  213   1.276   2.702   1.900  0.0000  0.0000  0.0000
    1GR    C214  214   1.418   2.702   1.900  0.0000  0.0000  0.0000
    1GR    C215  215   1.489   2.824   1.900  0.0000  0.0000  0.0000
    1GR    C216  216   1.631   2.824   1.900  0.0000  0.0000  0.0000
    1GR    C217  217   1.276   2.947   1.900  0.0000  0.0000  0.0000
    1GR    C218  218   1.418   2.947   1.900  0.0000  0.0000  0.0000
    1GR    C219  219   1.489   3.070   1.900  0.0000  0.0000  0.0000
    1GR    C220  220   1.631   3.070   1.900  0.0000  0.0000  0.0000
    1GR    C221  221   1.276   3.193   1.900  0.0000  0.0000  0.0000
    1GR    C222  222   1.418   3.193   1.900  0.0000  0.0000  0.0000
    1GR    C223  223   1.489   3.316   1.900  0.0000  0.0000  0.0000
    1GR    C224  224   1.631   3.316   1.900  0.0000  0.0000  0.0000
    1GR    C225  225   1.702   0.000   1.900  0.0000  0.0000  0.0000
    1GR    C226  226   1.843   0.000   1.900  0.0000  0.0000  0.0000
    1GR    C227  227   1.914   0.123   1.900  0.0000  0.0000  0.0000
    1GR    C228  228   2.056   0.123   1.900  0.0000  0.0000  0.0000
    1GR    C229  229   1.702   0.246   1.900  0.0000  0.0000  0.0000
    1GR    C230  230   1.843   0.246   1.900  0.0000  0.0000  0.0000
    1GR    C231  231   1.914   0.368   1.900  0.0000  0.0000  0.0000
    1GR    C232  232   2.056   0.368   1.900  0.0000  0.0000  0.0000
    1GR    C233  233   1.702   0.491   1.900  0.0000  0.0000  0.0000
    1GR    C234  234   1.843   0.491   1.900  0.0000  0.0000  0.0000
    1GR    C235  235   1.914   0.614   1.900  0.0000  0.0000  0.0000
    1GR    C236  236   2.056   0.614   1.900  0.0000  0.0000  0.0000
    1GR    C237  237   1.702   0.737   1.900  0.0000  0.0000  0.0000
    1GR    C238  238   1.843   0.737   1.900  0.0000  0.0000  0.0000
    1GR    C239  239   1.914   0.860   1.900  0.0000  0.0000  0.0000
    1GR    C240  240   2.056   0.860   1.900  0.0000  0.0000  0.0000
    1GR    C241  241   1.702   0.982   1.900  0.0000  0.0000  0.0000
    1GR    C242  242   1.843   0.982   1.900  0.0000  0.0000  0.0000
    1GR    C243  243   1.914   1.105   1.900  0.0000  0.0000  0.0000
    1GR    C244  244   2.056   1.105   1.900  0.0000  0.0000  0.0000
    1GR    C245  245   1.702   1.228   1.900  0.0000  0.0000  0.0000
    1GR    C246  246   1.843   1.228   1.900  0.0000  0.0000  0.0000
    1GR    C247  247   1.914   1.351   1.900  0.0000  0.0000  0.0000
    1GR    C248  248   2.056   1.351   1.900  0.0000  0.0000  0.0000
    1GR    C249  249   1.702   1.474   1.900  0.0000  0.0000  0.0000
    1GR    C250  250   1.843   1.474   1.900  0.0000  0.0000  0.0000
    1GR    C251  251   1.914   1.596   1.900  0.0000  0.0000  0.0000
    1GR    C252  252   2.056   1.596   1.900  0.0000  0.0000  0.0000
    1GR    C253  253   1.702   1.719   1.900  0.0000  0.0000  0.0000
    1GR    C254  254   1.843   1.719   1.900  0.0000  0.0000  0.0000
    1GR    C255  255   1.914   1.842   1.900  0.0000  0.0000  0.0000
    1GR    C256  256   2.056   1.842   1.900  0.0000  0.0000  0.0000
    1GR    C257  257   1.702   1.965   1.900  0.0000  0.0000  0.0000
    1GR    C258  258   1.843   1.965   1.900  0.0000  0.0000  0.0000
    1GR    C259  259   1.914   2.088   1.900  0.0000  0.0000  0.0000
    1GR    C260  260   2.056   2.088   1.900  0.0000  0.0000  0.0000
    1GR    C261  261   1.702   2.210   1.900  0.0000  0.0000  0.0000
    1GR    C262  262   1.843   2.210   1.900  0.0000  0.0000  0.0000
    1GR    C263  263   1.914   2.333   1.900  0.0000  0.0000  0.0000
    1GR    C264  264   2.056   2.333   1.900  0.0000  0.0000  0.0000
    1GR    C265  265   1.702   2.456   1.900  0.0000  0.0000  0.0000
    1GR    C266  266   1.843   2.456   1.900  0.0000  0.0000  0.0000
    1GR    C267  267   1.914   2.579   1.900  0.0000  0.0000  0.0000
    1GR    C268  268   2.056   2.579   1.900  0.0000  0.0000  0.0000
    1GR    C269  269   1.702   2.702   1.900  0.0000  0.0000  0.0000
    1GR    C270  270   1.843   2.702   1.900  0.0000  0.0000  0.0000
    1GR    C271  271   1.914   2.824   1.900  0.0000  0.0000  0.0000
    1GR    C272  272   2.056   2.824   1.900  0.0000  0.0000  0.0000
    1GR    C273  273   1.702   2.947   1.900  0.0000  0.0000  0.0000
    1GR    C274  274   1.843   2.947   1.900  0.0000  0.0000  0.0000
    1GR    C275  275   1.914   3.070   1.900  0.0000  0.0000  0.0000
    1GR    C276  276   2.056   3.070   1.900  0.0000  0.0000  0.0000
    1GR    C277  277   1.702   3.193   1.900  0.0000  0.0000  0.0000
    1GR    C278  278   1.843   3.193   1.900  0.0000  0.0000  0.0000
    1GR    C279  279   1.914   3.316   1.900  0.0000  0.0000  0.0000
    1GR    C280  280   2.056   3.316   1.900  0.0000  0.0000  0.0000
    1GR    C281  281   2.127   0.000   1.900  0.0000  0.0000  0.0000
    1GR    C282  282   2.269   0.000   1.900  0.0000  0.0000  0.0000
    1GR    C283  283   2.340   0.123   1.900  0.0000  0.0000  0.0000
    1GR    C284  284   2.481   0.123   1.900  0.0000  0.0000  0.0000
    1GR    C285  285   2.127   0.246   1.900  0.0000  0.0000  0.0000
    1GR    C286  286   2.269   0.246   1.900  0.0000  0.0000  0.0000
    1GR    C287  287   2.340   0.368   1.900  0.0000  0.0000  0.0000
    1GR    C288  288   2.481   0.368   1.900  0.0000  0.0000  0.0000
    1GR    C289  289   2.127   0.491   1.900  0.0000  0.0000  0.0000
    1GR    C290  290   2.269   0.491   1.900  0.0000  0.0000  0.0000
    1GR    C291  291   2.340   0.614   1.900  0.0000  0.0000  0.0000
    1GR    C292  292   2.481   0.614   1.900  0.0000  0.0000  0.0000
    1GR    C293  293   2.127   0.737   1.900  0.0000  0.0000  0.0000
    1GR    C294  294   2.269   0.737   1.900  0.0000  0.0000  0.0000
    1GR    C295  295   2.340   0.860   1.900  0.0000  0.0000  0.0000
    1GR    C296  296   2.481   0.860   1.900  0.0000  0.0000  0.0000
    1GR    C297  297   2.127   0.982   1.900  0.0000  0.0000  0.0000
    1GR    C298  298   2.269   0.982   1.900  0.0000  0.0000  0.0000
    1GR    C299  299   2.340   1.105   1.900  0.0000  0.0000  0.0000
    1GR    C300  300   2.481   1.105   1.900  0.0000  0.0000  0.0000
    1GR    C301  301   2.127   1.228   1.900  0.0000  0.0000  0.0000
    1GR    C302  302   2.269   1.228   1.900  0.0000  0.0000  0.0000
    1GR    C303  303   2.340   1.351   1.900  0.0000  0.0000  0.0000
    1GR    C304  304   2.481   1.351   1.900  0.0000  0.0000  0.0000
    1GR    C305  305   2.127   1.474   1.900  0.0000  0.0000  0.0000
    1GR    C306  306   2.269   1.474   1.900  0.0000  0.0000  0.0000
    1GR    C307  307   2.340   1.596   1.900  0.0000  0.0000  0.0000
    1GR    C308  308   2.481   1.596   1.900  0.0000  0.0000  0.0000
    1GR    C309  309   2.127   1.719   1.900  0.0000  0.0000  0.0000
    1GR    C310  310   2.269   1.719   1.900  0.0000  0.0000  0.0000
    1GR    C311  311   2.340   1.842   1.900  0.0000  0.0000  0.0000
    1GR    C312  312   2.481   1.842   1.900  0.0000  0.0000  0.0000
    1GR    C313  313   2.127   1.965   1.900  0.0000  0.0000  0.0000
    1GR    C314  314   2.269   1.965   1.900  0.0000  0.0000  0.0000
    1GR    C315  315   2.340   2.088   1.900  0.0000  0.0000  0.0000
    1GR    C316  316   2.481   2.088   1.900  0.0000  0.0000  0.0000
    1GR    C317  317   2.127   2.210   1.900  0.0000  0.0000  0.0000
    1GR    C318  318   2.269   2.210   1.900  0.0000  0.0000  0.0000
    1GR    C319  319   2.340   2.333   1.900  0.0000  0.0000  0.0000
    1GR    C320  320   2.481   2.333   1.900  0.0000  0.0000  0.0000
    1GR    C321  321   2.127   2.456   1.900  0.0000  0.0000  0.0000
    1GR    C322  322   2.269   2.456   1.900  0.0000  0.0000  0.0000
    1GR    C323  323   2.340   2.579   1.900  0.0000  0.0000  0.0000
    1GR    C324  324   2.481   2.579   1.900  0.0000  0.0000  0.0000
    1GR    C325  325   2.127   2.702   1.900  0.0000  0.0000  0.0000
    1GR    C326  326   2.269   2.702   1.900  0.0000  0.0000  0.0000
    1GR    C327  327   2.340   2.824   1.900  0.0000  0.0000  0.0000
    1GR    C328  328   2.481   2.824   1.900  0.0000  0.0000  0.0000
    1GR    C329  329   2.127   2.947   1.900  0.0000  0.0000  0.0000
    1GR    C330  330   2.269   2.947   1.900  0.0000  0.0000  0.0000
    1GR    C331  331   2.340   3.070   1.900  0.0000  0.0000  0.0000
    1GR    C332  332   2.481   3.070   1.900  0.0000  0.0000  0.0000
    1GR    C333  333   2.127   3.193   1.900  0.0000  0.0000  0.0000
    1GR    C334  334   2.269   3.193   1.900  0.0000  0.0000  0.0000
    1GR    C335  335   2.340   3.316   1.900  0.0000  0.0000  0.0000
    1GR    C336  336   2.481   3.316   1.900  0.0000  0.0000  0.0000
    1GR    C337  337   2.552   0.000   1.900  0.0000  0.0000  0.0000
    1GR    C338  338   2.694   0.000   1.900  0.0000  0.0000  0.0000
    1GR    C339  339   2.765   0.123   1.900  0.0000  0.0000  0.0000
    1GR    C340  340   2.907   0.123   1.900  0.0000  0.0000  0.0000
    1GR    C341  341   2.552   0.246   1.900  0.0000  0.0000  0.0000
    1GR    C342  342   2.694   0.246   1.900  0.0000  0.0000  0.0000
    1GR    C343  343   2.765   0.368   1.900  0.0000  0.0000  0.0000
    1GR    C344  344   2.907   0.368   1.900  0.0000  0.0000  0.0000
    1GR    C345  345   2.552   0.491   1.900  0.0000  0.0000  0.0000
    1GR    C346  346   2.694   0.491   1.900  0.0000  0.0000  0.0000
    1GR    C347  347   2.765   0.614   1.900  0.0000  0.0000  0.0000
    1GR    C348  348   2.907   0.614   1.900  0.0000  0.0000  0.0000
    1GR    C349  349   2.552   0.737   1.900  0.0000  0.0000  0.0000
    1GR    C350  350   2.694   0.737   1.900  0.0000  0.0000  0.0000
    1GR    C351  351   2.765   0.860   1.900  0.0000  0.0000  0.0000
    1GR    C352  352   2.907   0.860   1.900  0.0000  0.0000  0.0000
    1GR    C353  353   2.552   0.982   1.900  0.0000  0.0000  0.0000
    1GR    C354  354   2.694   0.982   1.900  0.0000  0.0000  0.0000
    1GR    C355  355   2.765   1.105   1.900  0.0000  0.0000  0.0000
    1GR    C356  356   2.907   1.105   1.900  0.0000  0.0000  0.0000
    1GR    C357  357   2.552   1.228   1.900  0.0000  0.0000  0.0000
    1GR    C358  358   2.694   1.228   1.900  0.0000  0.0000  0.0000
    1GR    C359  359   2.765   1.351   1.900  0.0000  0.0000  0.0000
    1GR    C360  360   2.907   1.351   1.900  0.0000  0.0000  0.0000
    1GR    C361  361   2.552   1.474   1.900  0.0000  0.0000  0.0000
    1GR    C362  362   2.694   1.474   1.900  0.0000  0.0000  0.0000
    1GR    C363  363   2.765   1.596   1.900  0.0000  0.0000  0.0000
    1GR    C364  364   2.907   1.596   1.900  0.0000  0.0000  0.0000
    1GR    C365  365   2.552   1.719   1.900  0.0000  0.0000  0.0000
    1GR    C366  366   2.694   1.719   1.900  0.0000  0.0000  0.0000
    1GR    C367  367   2.765   1.842   1.900  0.0000  0.0000  0.0000
    1GR    C368  368   2.907   1.842   1.900  0.0000  0.0000  0.0000
    1GR    C369  369   2.552   1.965   1.900  0.0000  0.0000  0.0000
    1GR    C370  370   2.694   1.965   1.900  0.0000  0.0000  0.0000
    1GR    C371  371   2.765   2.088   1.900  0.0000  0.0000  0.0000
    1GR    C372  372   2.907   2.088   1.900  0.0000  0.0000  0.0000
    1GR    C373  373   2.552   2.210   1.900  0.0000  0.0000  0.0000
    1GR    C374  374   2.694   2.210   1.900  0.0000  0.0000  0.0000
    1GR    C375  375   2.765   2.333   1.900  0.0000  0.0000  0.0000
    1GR    C376  376   2.907   2.333   1.900  0.0000  0.0000  0.0000
    1GR    C377  377   2.552   2.456   1.900  0.0000  0.0000  0.0000
    1GR    C378  378   2.694   2.456   1.900  0.0000  0.0000  0.0000
    1GR    C379  379   2.765   2.579   1.900  0.0000  0.0000  0.0000
    1GR    C380  380   2.907   2.579   1.900  0.0000  0.0000  0.0000
    1GR    C381  381   2.552   2.702   1.900  0.0000  0.0000  0.0000
    1GR    C382  382   2.694   2.702   1.900  0.0000  0.0000  0.0000
    1GR    C383  383   2.765   2.824   1.900  0.0000  0.0000  0.0000
    1GR    C384  384   2.907   2.824   1.900  0.0000  0.0000  0.0000
    1GR    C385  385   2.552   2.947   1.900  0.0000  0.0000  0.0000
    1GR    C386  386   2.694   2.947   1.900  0.0000  0.0000  0.0000
    1GR    C387  387   2.765   3.070   1.900  0.0000  0.0000  0.0000
    1GR    C388  388   2.907   3.070   1.900  0.0000  0.0000  0.0000
    1GR    C389  389   2.552   3.193   1.900  0.0000  0.0000  0.0000
    1GR    C390  390   2.694   3.193   1.900  0.0000  0.0000  0.0000
    1GR    C391  391   2.765   3.316   1.900  0.0000  0.0000  0.0000
    1GR    C392  392   2.907   3.316   1.900  0.0000  0.0000  0.0000
    1GR    C393  393   2.978   0.000   1.900  0.0000  0.0000  0.0000
    1GR    C394  394   3.120   0.000   1.900  0.0000  0.0000  0.0000
    1GR    C395  395   3.191   0.123   1.900  0.0000  0.0000  0.0000
    1GR    C396  396   3.332   0.123   1.900  0.0000  0.0000  0.0000
    1GR    C397  397   2.978   0.246   1.900  0.0000  0.0000  0.0000
    1GR    C398  398   3.120   0.246   1.900  0.0000  0.0000  0.0000
    1GR    C399  399   3.191   0.368   1.900  0.0000  0.0000  0.0000
    1GR    C400  400   3.332   0.368   1.900  0.0000  0.0000  0.0000
    1GR    C401  401   2.978   0.491   1.900  0.0000  0.0000  0.0000
    1GR    C402  402   3.120   0.491   1.900  0.0000  0.0000  0.0000
    1GR    C403  403   3.191   0.614   1.900  0.0000  0.0000  0.0000
    1GR    C404  404   3.332   0.614   1.900  0.0000  0.0000  0.0000
    1GR    C405  405   2.978   0.737   1.900  0.0000  0.0000  0.0000
    1GR    C406  406   3.120   0.737   1.900  0.0000  0.0000  0.0000
    1GR    C407  407   3.191   0.860   1.900  0.0000  0.0000  0.0000
    1GR    C408  408   3.332   0.860   1.900  0.0000  0.0000  0.0000
    1GR    C409  409   2.978   0.982   1.900  0.0000  0.0000  0.0000
    1GR    C410  410   3.120   0.982   1.900  0.0000  0.0000  0.0000
    1GR    C411  411   3.191   1.105   1.900  0.0000  0.0000  0.0000
    1GR    C412  412   3.332   1.105   1.900  0.0000  0.0000  0.0000
    1GR    C413  413   2.978   1.228   1.900  0.0000  0.0000  0.0000
    1GR    C414  414   3.120   1.228   1.900  0.0000  0.0000  0.0000
    1GR    C415  415   3.191   1.351   1.900  0.0000  0.0000  0.0000
    1GR    C416  416   3.332   1.351   1.900  0.0000  0.0000  0.0000
    1GR    C417  417   2.978   1.474   1.900  0.0000  0.0000  0.0000
    1GR    C418  418   3.120   1.474   1.900  0.0000  0.0000  0.0000
    1GR    C419  419   3.191   1.596   1.900  0.0000  0.0000  0.0000
    1GR    C420  420   3.332   1.596   1.900  0.0000  0.0000  0.0000
    1GR    C421  421   2.978   1.719   1.900  0.0000  0.0000  0.0000
    1GR    C422  422   3.120   1.719   1.900  0.0000  0.0000  0.0000
    1GR    C423  423   3.191   1.842   1.900  0.0000  0.0000  0.0000
    1GR    C424  424   3.332   1.842   1.900  0.0000  0.0000  0.0000
    1GR    C425  425   2.978   1.965   1.900  0.0000  0.0000  0.0000
    1GR    C426  426   3.120   1.965   1.900  0.0000  0.0000  0.0000
    1GR    C427  427   3.191   2.088   1.900  0.0000  0.0000  0.0000
    1GR    C428  428   3.332   2.088   1.900  0.0000  0.0000  0.0000
    1GR    C429  429   2.978   2.210   1.900  0.0000  0.0000  0.0000
    1GR    C430  430   3.120   2.210   1.900  0.0000  0.0000  0.0000
    1GR    C431  431   3.191   2.333   1.900  0.0000  0.0000  0.0000
    1GR    C432  432   3.332   2.333   1.900  0.0000  0.0000  0.0000
    1GR    C433  433   2.978   2.456   1.900  0.0000  0.0000  0.0000
    1GR    C434  434   3.120   2.456   1.900  0.0000  0.0000  0.0000
    1GR    C435  435   3.191   2.579   1.900  0.0000  0.0000  0.0000
    1GR    C436  436   3.332   2.579   1.900  0.0000  0.0000  0.0000
    1GR    C437  437   2.978   2.702   1.900  0.0000  0.0000  0.0000
    1GR    C438  438   3.120   2.702   1.900  0.0000  0.0000  0.0000
    1GR    C439  439   3.191   2.824   1.900  0.0000  0.0000  0.0000
    1GR    C440  440   3.332   2.824   1.900  0.0000  0.0000  0.0000
    1GR    C441  441   2.978   2.947   1.900  0.0000  0.0000  0.0000
    1GR    C442  442   3.120   2.947   1.900  0.0000  0.0000  0.0000
    1GR    C443  443   3.191   3.070   1.900  0.0000  0.0000  0.0000
    1GR    C444  444   3.332   3.070   1.900  0.0000  0.0000  0.0000
    1GR    C445  445   2.978   3.193   1.900  0.0000  0.0000  0.0000
    1GR    C446  446   3.120   3.193   1.900  0.0000  0.0000  0.0000
    1GR    C447  447   3.191   3.316   1.900  0.0000  0.0000  0.0000
    1GR    C448  448   3.332   3.316   1.900  0.0000  0.0000  0.0000
    2PMMA   CX1  449   0.854   1.440   3.763  0.2886 -1.1319 -0.3591
    2PMMA   CA2  450   0.779   1.414   3.632  0.1330  0.0885 -0.3014
    2PMMA   CX3  451   0.654   1.324   3.665 -0.3645 -0.0108  0.1254
    2PMMA    C4  452   0.745   1.554   3.576 -0.0816 -0.1275  0.4819
    2PMMA    O5  453   0.817   1.627   3.508 -0.3432  0.3255  0.0502
    2PMMA   OS6  454   0.616   1.595   3.613 -0.7128 -0.3517 -0.1989
    2PMMA   CE7  455   0.552   1.728   3.576  0.1205  0.1602 -0.0410
    2PMMA   CX8  456   0.884   1.337   3.542  0.3006  0.3102  0.3278
    2PMMA   CA9  457   0.837   1.289   3.399  0.7709  0.2276  0.5624
    2PMMA  CX10  458   0.761   1.391   3.315 -0.5572 -0.3996  0.0562
    2PMMA   C11  459   0.752   1.162   3.420  1.0770  0.0380  1.0780
    2PMMA   O12  460   0.636   1.154   3.387 -0.0247 -0.1178 -0.1189
    2PMMA  OS13  461   0.819   1.065   3.481  0.2326 -0.3891 -0.2828
    2PMMA  CE14  462   0.743   0.944   3.506  0.3438 -0.1001 -0.3359
    2PMMA  CX15  463   0.972   1.256   3.325 -0.3921 -0.6115 -0.1227
    2PMMA  CA16  464   0.982   1.185   3.187 -0.0916 -0.2279 -0.5884
    2PMMA  CX17  465   0.883   1.063   3.156 -0.6221 -0.1144 -0.5078
    2PMMA   C18  466   0.954   1.292   3.075  1.1965  0.1082  0.4712
    2PMMA   O19  467   0.872   1.285   2.984  0.3100 -0.4210 -0.7205
    2PMMA  OS20  468   1.027   1.409   3.090  0.0690  0.4550 -0.2098
    2PMMA  CE21  469   1.024   1.508   2.995 -0.0277 -0.3109 -0.2673
    2PMMA  CX22  470   1.139   1.150   3.167  0.2402 -0.0863 -0.4007
    2PMMA  CA23  471   1.209   1.070   3.050  0.7284  0.5463  0.2830
    2PMMA  CX24  472   1.194   1.148   2.910 -0.3753 -0.0650 -0.3828
    2PMMA   C25  473   1.151   0.930   3.034  0.1229  0.2977 -0.3159
    2PMMA   O26  474   1.062   0.899   2.959  0.1255  0.0515  0.1607
    2PMMA  OS27  475   1.209   0.851   3.124 -0.0388 -0.1237 -0.0235
    2PMMA  CE28  476   1.179   0.717   3.125  0.4421 -0.2107 -0.0126
    2PMMA  CX29  477   1.364   1.074   3.088  0.0167  0.2958  0.0374
    2PMMA  HC30  478   0.788   1.470   3.845  1.3165 -0.4694  0.2410
    2PMMA  HC31  479   0.884   1.340   3.797  2.0004 -0.3774  0.4174
    2PMMA  HC32  480   0.938   1.508   3.744  1.0230 -1.2797  2.2047
    2PMMA  HC33  481   0.602   1.360   3.754 -1.0265 -0.1169 -0.2104
    2PMMA  HC34  482   0.677   1.219   3.682  1.3222  0.4166  0.5734
    2PMMA  HC35  483   0.581   1.325   3.583  0.5241 -0.8267 -0.6794
    2PMMA  H136  484   0.444   1.719   3.592  0.0360  0.9849 -0.1250
    2PMMA  H137  485   0.567   1.736   3.468  0.0239 -0.6068 -0.1170
    2PMMA  H138  486   0.597   1.815   3.623 -0.0554  0.1777  0.0942
    2PMMA  HC39  487   0.971   1.402   3.527  0.2171  0.1538 -0.8668
    2PMMA  HC40  488   0.925   1.252   3.598 -1.3124 -0.1640  0.7994
    2PMMA  HC41  489   0.673   1.428   3.370  0.4670  0.1101  1.3813
    2PMMA  HC42  490   0.814   1.484   3.293 -0.2097 -1.1202 -2.2334
    2PMMA  HC43  491   0.730   1.352   3.218 -1.3363 -1.5636  0.7579
    2PMMA  H144  492   0.813   0.863   3.526  1.2955  0.7761 -0.0832
    2PMMA  H145  493   0.676   0.926   3.421 -1.1641 -0.7291  0.9689
    2PMMA  H146  494   0.686   0.952   3.598 -0.2282 -0.1188 -0.6870
    2PMMA  HC47  495   1.026   1.350   3.337 -2.5767  0.6334  0.0887
    2PMMA  HC48  496   1.019   1.191   3.400 -1.0534 -1.5178 -0.4837
    2PMMA  HC49  497   0.915   0.974   3.212 -1.1926 -0.1553 -0.2404
    2PMMA  HC50  498   0.878   1.022   3.054  0.5684 -0.5140 -0.4175
    2PMMA  HC51  499   0.779   1.081   3.186 -0.0135 -0.5234  1.9668
    2PMMA  H152  500   1.085   1.596   3.017  1.8491 -0.7645 -3.4514
    2PMMA  H153  501   0.924   1.552   2.994  0.4331  0.8185  0.9117
    2PMMA  H154  502   1.039   1.468   2.895 -0.5913  0.5919 -0.7234
    2PMMA  HC55  503   1.187   1.247   3.178 -1.4493  0.9051 -1.4668
    2PMMA  HC56  504   1.164   1.092   3.256 -2.6158  0.2712  0.7084
    2PMMA  HC57  505   1.256   1.239   2.915  0.5023 -0.6042 -1.4291
    2PMMA  HC58  506   1.229   1.096   2.821  0.4354 -0.7452  0.3293
    2PMMA  HC59  507   1.087   1.169   2.898 -0.0520  1.8382 -0.2024
    2PMMA  H160  508   1.075   0.708   3.157 -0.1516  1.2315 -1.4299
    2PMMA  H161  509   1.242   0.669   3.200  0.7562  1.1985  0.6310
    2PMMA  H162  510   1.197   0.669   3.028  1.8065  0.6889 -0.2278
    2PMMA  HC63  511   1.416   1.004   3.021 -0.5674 -0.0655 -0.0449
    2PMMA  HC64  512   1.404   1.176   3.082  1.4301 -0.2152  0.4462
    2PMMA  HC65  513   1.380   1.047   3.193 -0.0799  0.4186  0.0827
    3DMF     C1  514   1.236   1.745   3.377 -0.7286 -0.3246  0.4902
    3DMF     N1  515   1.128   1.761   3.487  0.6524 -0.9082  0.5595
    3DMF     C2  516   1.135   1.662   3.596  0.4126 -0.1032 -0.2057
    3DMF     C3  517   1.037   1.865   3.476  0.0716 -0.0114  0.0932
    3DMF     O1  518   1.040   1.937   3.381  0.3572  0.1819 -0.0425
    3DMF     H1  519   1.330   1.716   3.426 -0.2216 -0.4249 -0.5303
    3DMF     H2  520   1.251   1.848   3.342 -2.1864 -0.3062 -0.1004
    3DMF     H3  521   1.209   1.676   3.297 -2.3563  0.8312  0.0272
    3DMF     H4  522   1.101   1.710   3.689  2.0155 -0.9650  0.8744
    3DMF     H5  523   1.235   1.618   3.612  0.8856  1.3596  0.9836
    3DMF     H6  524   1.067   1.583   3.562 -1.8219  1.2922  0.9357
    3DMF     H7  525   0.981   1.894   3.566  0.9391  1.4854  0.1703
    4DMF     C1  526   1.439   1.737   2.241 -0.7987  0.4934 -0.1068
    4DMF     N1  527   1.323   1.649   2.278 -0.8168 -0.5673  0.1224
    4DMF     C2  528   1.348   1.509   2.323  0.7589 -0.0481  0.2936
    4DMF     C3  529   1.187   1.691   2.281 -0.4157  0.4109 -0.2306
    4DMF     O1  530   1.156   1.799   2.235  0.3208 -0.0881 -0.1632
    4DMF     H1  531   1.520   1.722   2.314 -0.1255  0.6101 -0.8251
    4DMF     H2  532   1.403   1.840   2.232  1.4150  1.3366  0.2532
    4DMF     H3  533   1.489   1.707   2.148 -2.9960 -1.7369 -0.6242
    4DMF     H4  534   1.305   1.440   2.249  0.8588 -0.1486  0.3296
    4DMF     H5  535   1.286   1.494   2.412 -0.8911  0.4609 -0.7400
    4DMF     H6  536   1.453   1.488   2.346  1.2752 -0.4558 -2.2922
    4DMF     H7  537   1.112   1.619   2.319 -1.1390  1.4871  0.3954
    5DMF     C1  538   2.980   3.049   3.789  0.1229 -0.6302 -0.1946
    5DMF     N1  539   2.940   3.163   3.698 -0.2529  0.1239  0.6128
    5DMF     C2  540   2.855   3.123   3.583  0.2827  0.1688  0.1308
    5DMF     C3  541   2.957   3.298   3.726 -0.2542 -0.3738  0.1164
    5DMF     O1  542   3.011   3.341   3.829  0.0154  0.3046  0.2164
    5DMF     H1  543   2.994   2.955   3.735 -2.3266 -1.1964  0.0907
    5DMF     H2  544   2.913   3.050   3.876  0.7369 -1.4979  0.2971
    5DMF     H3  545   3.076   3.077   3.835  0.8486 -0.3721 -1.8377
    5DMF     H4  546   2.903   3.046   3.521 -0.3022  0.1838 -0.3515
    5DMF     H5  547   2.827   3.200   3.510 -0.4670 -0.9734 -0.8380
    5DMF     H6  548   2.759   3.077   3.610 -1.4189  1.6959 -2.9662
    5DMF     H7  549   2.913   3.364   3.649 -0.4186  0.4809  0.9484
    6DMF     C1  550   1.377   2.641   2.325 -0.6660  0.1077  0.1817
    6DMF     N1  551   1.502   2.703   2.282 -0.0471 -0.0836 -0.1451
    6DMF     C2  552   1.621   2.624   2.259 -0.2942 -0.0002 -0.0694
    6DMF     C3  553   1.504   2.842   2.267  0.0777  0.0202  0.2262
    6DMF     O1  554   1.402   2.910   2.282 -0.3459 -0.6366  0.2193
    6DMF     H1  555   1.385   2.533   2.307  1.0689  0.4081 -0.9700
    6DMF     H2  556   1.296   2.685   2.267  0.0360 -0.8023 -1.5423
    6DMF     H3  557   1.363   2.663   2.432  0.9914  0.9691  0.2385
    6DMF     H4  558   1.639   2.550   2.338  2.8788  1.0675  0.2383
    6DMF     H5  559   1.707   2.685   2.232  1.9903 -2.4934  1.2978
    6DMF     H6  560   1.595   2.562   2.173  1.5566 -3.2565  1.6114
    6DMF     H7  561   1.599   2.883   2.229  0.2727 -1.1267 -0.5624
    7DMF     C1  562   1.623   1.475   3.212 -0.2073  0.0199  0.0149
    7DMF     N1  563   1.533   1.433   3.102 -0.5474  0.3944 -0.7828
    7DMF     C2  564   1.399   1.469   3.124  0.0498  0.3791 -0.4901
    7DMF     C3  565   1.574   1.369   2.984 -0.6736 -0.3708  0.0715
    7DMF     O1  566   1.687   1.369   2.945  0.1712  0.1501 -0.3255
    7DMF     H1  567   1.624   1.584   3.205  1.9173 -0.0081 -0.5862
    7DMF     H2  568   1.719   1.427   3.187 -0.5495  0.2742 -1.8395
    7DMF     H3  569   1.575   1.444   3.306 -1.4395 -1.6317 -1.1318
    7DMF     H4  570   1.375   1.447   3.229 -0.4633  1.1932 -0.4380
    7DMF     H5  571   1.325   1.418   3.061 -2.0406 -1.4243  3.2695
    7DMF     H6  572   1.388   1.577   3.108 -0.6262  0.1212 -1.8302
    7DMF     H7  573   1.490   1.327   2.926 -2.7421  1.3471  1.7622
    8DMF     C1  574   3.224   0.876   1.069 -0.1038  0.0685 -0.1654
    8DMF     N1  575   3.140   0.966   1.152  0.0656  0.0061 -0.0065
    8DMF     C2  576   3.213   1.063   1.217 -0.0580  0.2048  1.1784
    8DMF     C3  577   2.998   0.956   1.166 -0.0348  0.4970 -0.3310
    8DMF     O1  578   2.927   0.895   1.088  0.1776  0.3128  0.5733
    8DMF     H1  579   3.167   0.793   1.024  0.9931 -0.2084 -1.0902
    8DMF     H2  580   3.295   0.819   1.130  0.1026 -0.0659 -0.5266
    8DMF     H3  581   3.285   0.926   0.993 -2.1955 -0.5007 -2.2918
    8DMF     H4  582   3.155   1.156   1.227 -0.3555 -0.0801  2.1280
    8DMF     H5  583   3.302   1.097   1.162  1.3959 -2.8203  1.5670
    8DMF     H6  584   3.254   1.032   1.314  2.2159 -2.2559 -0.5282
    8DMF     H7  585   2.956   1.014   1.250 -2.7357 -1.4480 -0.2740
    9DMF     C1  586   0.939   3.396   3.614 -0.0476 -0.3812  0.3646
    9DMF     N1  587   0.896   3.478   3.494  0.1040 -0.6297 -0.6736
    9DMF     C2  588   0.969   3.600   3.455  0.8005 -0.6332  0.1195
    9DMF     C3  589   0.790   3.440   3.418  0.0820  0.1624 -0.0631
    9DMF     O1  590   0.704   3.364   3.463  0.1396  0.0561 -0.3757
    9DMF     H1  591   1.024   3.338   3.574  0.7372  0.3344  0.9884
    9DMF     H2  592   0.856   3.331   3.645 -1.7295  0.5843 -2.0246
    9DMF     H3  593   0.976   3.463   3.692  2.5013 -1.1953 -0.0894
    9DMF     H4  594   1.056   3.611   3.521  0.0009 -0.1230  1.1110
    9DMF     H5  595   0.909   3.691   3.464 -1.1823 -1.9345  0.2773
    9DMF     H6  596   0.998   3.593   3.350 -0.9362  1.2130 -0.5037
    9DMF     H7  597   0.787   3.489   3.318  0.8590 -0.4364 -0.3859
   10DMF     C1  598   3.052   2.345   1.398  0.4066 -0.1858 -0.3833
   10DMF     N1  599   3.142   2.395   1.504  0.2658  0.0006 -0.3918
   10DMF     C2  600   3.240   2.299   1.567  0.1982  0.3919  0.3889
   10DMF     C3  601   3.134   2.530   1.547 -0.4481 -0.3311 -0.4601
   10DMF     O1  602   3.059   2.610   1.502 -0.4996  0.1877 -0.2576
   10DMF     H1  603   3.059   2.237   1.381  2.4959  0.2798 -2.7729
   10DMF     H2  604   3.069   2.409   1.311 -0.3615  0.0851 -0.3363
   10DMF     H3  605   2.950   2.359   1.435  0.9467  0.6985  0.8076
   10DMF     H4  606   3.318   2.335   1.635  1.5460 -1.3280 -0.2132
   10DMF     H5  607   3.291   2.235   1.495 -0.7113 -1.3605  1.2652
   10DMF     H6  608   3.186   2.233   1.636  0.7942 -1.4640 -0.8809
   10DMF     H7  609   3.214   2.552   1.621 -1.1729  0.5834  0.0669
   11DMF     C1  610   1.577   0.473   0.331  0.3310 -0.6210 -0.0360
   11DMF     N1  611   1.652   0.348   0.373 -0.1256 -0.1276  0.3423
   11DMF     C2  612   1.763   0.286   0.290 -0.2076  0.4682 -0.5173
   11DMF     C3  613   1.649   0.314   0.507  0.7697  0.2262 -0.2460
   11DMF     O1  614   1.588   0.369   0.598  0.3321  0.2595 -0.2027
   11DMF     H1  615   1.469   0.461   0.338  0.1611 -1.0272 -2.9167
   11DMF     H2  616   1.596   0.510   0.230 -0.7136  3.1411  1.0524
   11DMF     H3  617   1.597   0.553   0.404 -0.9037  0.0377 -0.4027
   11DMF     H4  618   1.757   0.335   0.192  1.8623  0.8501 -0.4803
   11DMF     H5  619   1.747   0.177   0.282  0.4263  0.2345  1.2688
   11DMF     H6  620   1.862   0.314   0.328 -0.4265  0.9629 -0.3120
   11DMF     H7  621   1.701   0.217   0.523  2.0353  0.6682 -1.4867
   12DMF     C1  622   2.210   1.583   1.528  0.4256 -0.4694  0.0708
   12DMF     N1  623   2.152   1.716   1.545 -0.1586 -0.3352 -0.3700
   12DMF     C2  624   2.007   1.722   1.536 -0.4120  0.2099  0.4630
   12DMF     C3  625   2.235   1.828   1.573  1.3945 -0.4594  0.7272
   12DMF     O1  626   2.344   1.806   1.614  0.0062  0.0721  0.1210
   12DMF     H1  627   2.131   1.508   1.537  0.0301  0.1659  2.0573
   12DMF     H2  628   2.266   1.557   1.619  0.6070 -1.9372 -0.4568
   12DMF     H3  629   2.266   1.573   1.434  0.6027  0.0815  0.1131
   12DMF     H4  630   1.964   1.622   1.549  1.3974 -0.2611  3.3298
   12DMF     H5  631   1.974   1.761   1.439  2.3729 -1.1181 -1.0590
   12DMF     H6  632   1.971   1.778   1.624 -1.4557  2.4094 -1.3071
   12DMF     H7  633   2.177   1.922   1.569 -2.0090 -2.3938  1.8606
   13DMF     C1  634   1.591   2.568   3.031 -0.6174  0.3135  0.8928
   13DMF     N1  635   1.651   2.575   3.161  0.4822 -0.2799 -0.0823
   13DMF     C2  636   1.657   2.710   3.219  0.4395  0.3192  0.0552
   13DMF     C3  637   1.730   2.475   3.208  0.0115 -0.0623  0.1866
   13DMF     O1  638   1.738   2.364   3.156 -0.3370  0.0980 -0.4574
   13DMF     H1  639   1.670   2.570   2.954 -1.2745  0.8015  0.2293
   13DMF     H2  640   1.510   2.640   3.018 -1.0300 -0.5658 -1.8415
   13DMF     H3  641   1.543   2.471   3.013  0.4550  0.2270 -1.8134
   13DMF     H4  642   1.718   2.703   3.310 -0.6906 -1.7490  0.6833
   13DMF     H5  643   1.560   2.752   3.248  0.8600  1.3771 -0.0306
   13DMF     H6  644   1.692   2.776   3.138  0.4186 -0.7089 -0.8007
   13DMF     H7  645   1.786   2.505   3.298  0.8094 -2.5147  0.5540
   14DMF     C1  646   3.015   0.063   0.617  0.7982 -0.0794 -0.0457
   14DMF     N1  647   3.064   0.002   0.740  0.1537 -0.1887 -0.4230
   14DMF     C2  648   2.967  -0.021   0.846  0.5145  0.3576  0.0424
   14DMF     C3  649   3.197  -0.036   0.753  0.4778 -0.2349 -0.3790
   14DMF     O1  650   3.282  -0.027   0.661  0.1770  0.1204 -0.4279
   14DMF     H1  651   3.050   0.009   0.528  1.2264  0.0103  0.0674
   14DMF     H2  652   3.065   0.160   0.610 -1.2167  1.1358  1.8660
   14DMF     H3  653   2.907   0.074   0.626  0.6854 -0.3629 -1.0559
   14DMF     H4  654   3.009  -0.084   0.926  0.2359 -0.6554 -0.5931
   14DMF     H5  655   2.886  -0.084   0.806 -0.3736 -1.6007  4.4941
   14DMF     H6  656   2.923   0.075   0.874 -0.9456  0.1369 -1.4160
   14DMF     H7  657   3.216  -0.084   0.851 -0.4752 -0.3397 -0.2404
   15DMF     C1  658   0.161   2.666   3.605  0.4335 -0.0547 -0.1946
   15DMF     N1  659   0.274   2.733   3.533  0.5078 -0.6419 -0.0363
   15DMF     C2  660   0.240   2.858   3.468 -0.2691 -0.6383  0.3205
   15DMF     C3  661   0.398   2.664   3.504 -0.3275  0.5787  0.3573
   15DMF     O1  662   0.422   2.554   3.549  0.1753  0.2460 -0.0586
   15DMF     H1  663   0.206   2.588   3.668 -0.7988 -0.7774 -0.1945
   15DMF     H2  664   0.094   2.616   3.534  0.0587 -1.3334  1.0364
   15DMF     H3  665   0.115   2.730   3.681 -1.4439 -0.6570 -0.7932
   15DMF     H4  666   0.135   2.856   3.437 -0.0267 -0.5180 -0.5426
   15DMF     H5  667   0.301   2.870   3.377 -0.6466  0.0439  0.1499
   15DMF     H6  668   0.245   2.944   3.537 -1.2890  0.5202 -1.0247
   15DMF     H7  669   0.471   2.723   3.446  0.7164 -0.4889  0.5745
   16DMF     C1  670   2.191   0.037   2.312  0.0520 -0.1359 -0.6700
   16DMF     N1  671   2.096   0.137   2.257 -0.0595  0.2244 -0.0139
   16DMF     C2  672   1.957   0.083   2.233  0.2519 -0.8784 -0.2633
   16DMF     C3  673   2.137   0.269   2.225  0.3695 -0.0718  0.8963
   16DMF     O1  674   2.250   0.306   2.254  0.3305 -0.1112  0.3163
   16DMF     H1  675   2.273   0.086   2.366 -1.3976 -0.6336  2.0598
   16DMF     H2  676   2.223  -0.031   2.233 -1.7010  0.8525 -2.2678
   16DMF     H3  677   2.140  -0.018   2.392  2.3176 -0.0279  0.9070
   16DMF     H4  678   1.904   0.154   2.169  1.7475  0.5805  0.0703
   16DMF     H5  679   1.907   0.080   2.330  0.3098  0.3824 -0.1927
   16DMF     H6  680   1.958  -0.019   2.192  2.3202  0.0754 -2.7712
   16DMF     H7  681   2.064   0.325   2.164  1.9305  0.2489 -0.7241
   17DMF     C1  682   0.676   1.873   0.317  0.1322  0.5296 -0.6397
   17DMF     N1  683   0.646   1.738   0.371  0.4379 -0.1950  0.3956
   17DMF     C2  684   0.642   1.622   0.274 -0.6333  0.2355 -0.6881
   17DMF     C3  685   0.628   1.713   0.502 -0.0825  0.1449 -0.0903
   17DMF     O1  686   0.638   1.791   0.594  0.0683  0.6179  0.6958
   17DMF     H1  687   0.630   1.880   0.218  2.1425 -0.8084 -1.7111
   17DMF     H2  688   0.782   1.898   0.302 -0.0940  3.1723  1.7920
   17DMF     H3  689   0.642   1.943   0.395  2.1215  1.4754 -0.6093
   17DMF     H4  690   0.596   1.648   0.178 -0.2522 -0.3376 -1.0379
   17DMF     H5  691   0.577   1.554   0.330  0.5124 -0.8638 -0.6666
   17DMF     H6  692   0.745   1.588   0.257 -1.4723 -1.4915 -2.5373
   17DMF     H7  693   0.609   1.604   0.513  0.5099  0.3172  3.2943
   18DMF     C1  694   3.053   2.938   0.324 -0.5063 -0.0361 -0.5585
   18DMF     N1  695   3.134   3.070   0.333  0.2205 -0.3666  0.2481
   18DMF     C2  696   3.058   3.190   0.358 -0.0434  0.1074 -0.4001
   18DMF     C3  697   3.248   3.081   0.260 -0.4349 -0.2443  0.8365
   18DMF     O1  698   3.299   2.989   0.200 -0.0756  0.0289  0.2126
   18DMF     H1  699   2.958   2.947   0.269 -0.2994 -1.6032 -1.1886
   18DMF     H2  700   3.033   2.928   0.432  0.6238  2.0201 -0.1338
   18DMF     H3  701   3.117   2.859   0.284 -1.6378 -0.8265 -0.8238
   18DMF     H4  702   3.066   3.207   0.466 -1.2649  1.0543 -0.4522
   18DMF     H5  703   2.951   3.176   0.339 -0.2769  0.4520  0.6276
   18DMF     H6  704   3.097   3.279   0.307 -2.3089  0.5959 -1.3417
   18DMF     H7  705   3.284   3.185   0.248  1.1198 -1.1368 -3.1121
   19DMF     C1  706   3.254   1.794   1.497 -0.7934  0.1627 -0.3786
   19DMF     N1  707   3.167   1.697   1.432 -0.0183 -0.1543  0.8708
   19DMF     C2  708   3.180   1.562   1.477  0.2617 -0.0448 -0.0224
   19DMF     C3  709   3.070   1.735   1.341 -0.6561  0.2594 -0.8748
   19DMF     O1  710   3.069   1.849   1.290 -0.0657  0.2524  0.0000
   19DMF     H1  711   3.200   1.864   1.561  0.6822  1.0601 -0.1035
   19DMF     H2  712   3.325   1.845   1.430 -0.8468 -0.4210 -0.8917
   19DMF     H3  713   3.324   1.741   1.563 -2.0490 -0.7799  0.2129
   19DMF     H4  714   3.280   1.523   1.454  0.8767  1.7052 -0.3765
   19DMF     H5  715   3.107   1.502   1.420  1.6848 -1.0877 -0.7776
   19DMF     H6  716   3.162   1.541   1.583 -0.3768  1.7281  0.2361
   19DMF     H7  717   3.011   1.644   1.321  2.4520 -2.0583  0.0539
   20DMF     C1  718   2.988   1.557   0.455 -0.4989 -0.0653  1.0495
   20DMF     N1  719   3.048   1.429   0.469 -0.8323  0.8045 -0.5588
   20DMF     C2  720   3.190   1.422   0.507 -0.4336 -0.4577  0.0154
   20DMF     C3  721   2.980   1.316   0.441  0.1401  0.3470  0.0166
   20DMF     O1  722   2.863   1.305   0.423  0.1793 -0.2353  0.0422
   20DMF     H1  723   2.880   1.545   0.441  0.0161 -1.9287 -1.6586
   20DMF     H2  724   3.032   1.613   0.371 -0.8686  0.5209  1.2445
   20DMF     H3  725   2.989   1.612   0.550 -2.5791 -1.0208  1.6566
   20DMF     H4  726   3.193   1.370   0.604  0.5137 -0.8767 -0.2347
   20DMF     H5  727   3.237   1.521   0.516  0.6637 -1.0035  0.5213
   20DMF     H6  728   3.256   1.364   0.442 -0.2997 -0.5603  0.2405
   20DMF     H7  729   3.048   1.231   0.420 -0.1252  0.7391 -2.5700
   21DMF     C1  730   3.374   0.967   3.159  0.0288 -0.6760  0.0205
   21DMF     N1  731   3.298   1.096   3.162 -0.1156 -0.4103 -0.5358
   21DMF     C2  732   3.373   1.219   3.127  0.2551  1.1923 -0.0983
   21DMF     C3  733   3.160   1.092   3.203  0.1908  0.4081  0.3755
   21DMF     O1  734   3.091   0.991   3.185 -0.1727  0.0132 -0.2694
   21DMF     H1  735   3.357   0.916   3.063  0.8023 -1.7253  0.4336
   21DMF     H2  736   3.322   0.904   3.231 -0.6589 -1.8496 -1.4674
   21DMF     H3  737   3.482   0.978   3.173  0.0094  1.5115 -1.2753
   21DMF     H4  738   3.431   1.191   3.039  0.3035 -1.1207  0.6477
   21DMF     H5  739   3.442   1.252   3.205 -0.5145  0.7880  0.7634
   21DMF     H6  740   3.308   1.303   3.099  1.1056  1.2666 -1.9379
   21DMF     H7  741   3.123   1.194   3.227  0.0367  0.0762  1.5978
   22DMF     C1  742   1.433   3.081   1.285  0.7156  0.2811 -0.5978
   22DMF     N1  743   1.354   2.992   1.378  0.0881  0.7724 -0.1814
   22DMF     C2  744   1.355   3.005   1.522  0.2916 -0.6938 -0.0252
   22DMF     C3  745   1.272   2.893   1.324 -0.1100  0.0018 -0.4638
   22DMF     O1  746   1.273   2.868   1.203 -0.1401 -0.6148  1.0050
   22DMF     H1  747   1.363   3.141   1.226 -2.3473 -0.5528  2.0518
   22DMF     H2  748   1.493   3.018   1.217  2.0441  1.9896 -1.0720
   22DMF     H3  749   1.485   3.154   1.348  0.5350 -1.0269  1.0939
   22DMF     H4  750   1.389   2.919   1.580  0.7133 -0.0550  0.6797
   22DMF     H5  751   1.252   3.015   1.559  0.3726  0.5193 -0.1137
   22DMF     H6  752   1.421   3.089   1.545  0.1620 -0.6846  0.3061
   22DMF     H7  753   1.234   2.834   1.409 -1.2151  1.6240  0.1941
   23DMF     C1  754   0.605   2.644   0.633  0.3936  0.1341 -0.3897
   23DMF     N1  755   0.666   2.522   0.696 -0.5236  0.0276  0.2366
   23DMF     C2  756   0.579   2.434   0.782  0.1768  0.3452 -0.9866
   23DMF     C3  757   0.793   2.479   0.656 -0.3318 -0.1799 -0.3374
   23DMF     O1  758   0.876   2.548   0.593  0.7319 -0.0477 -0.5987
   23DMF     H1  759   0.496   2.635   0.648  0.6990 -1.5692  1.0737
   23DMF     H2  760   0.624   2.630   0.527 -2.9568 -1.4980 -0.8572
   23DMF     H3  761   0.641   2.743   0.665 -1.7762  1.3992 -1.7049
   23DMF     H4  762   0.641   2.357   0.829 -2.4585 -1.7265 -0.8188
   23DMF     H5  763   0.498   2.389   0.724 -1.9536  1.5844  0.9698
   23DMF     H6  764   0.530   2.488   0.864 -0.5423 -0.9412 -0.5618
   23DMF     H7  765   0.813   2.376   0.690  0.0618  0.1727  0.5107
   24DMF     C1  766   1.268   0.044   3.689 -0.3014 -0.6644 -0.6979
   24DMF     N1  767   1.222   0.107   3.815  0.0066 -0.0306 -0.5487
   24DMF     C2  768   1.273   0.250   3.846  0.4036  0.0807  0.3630
   24DMF     C3  769   1.151   0.034   3.913  0.0660  0.2852  0.1560
   24DMF     O1  770   1.115  -0.079   3.896  0.3420  0.0327 -0.2705
   24DMF     H1  771   1.259   0.107   3.600  1.3189 -0.9202 -1.0520
   24DMF     H2  772   1.207  -0.045   3.671 -4.2959  1.1629  2.8499
   24DMF     H3  773   1.371   0.007   3.701 -1.2269 -3.0031  0.3629
   24DMF     H4  774   1.216   0.318   3.782 -0.9141 -1.4212 -0.0845
   24DMF     H5  775   1.383   0.259   3.839  0.5529  0.1030  2.4203
   24DMF     H6  776   1.238   0.269   3.948  0.0789  0.2265  0.2240
   24DMF     H7  777   1.134   0.099   4.001 -1.3354  1.7136 -1.1558
   25DMF     C1  778   1.950   2.747   3.016 -0.2445 -0.2995  0.4911
   25DMF     N1  779   2.025   2.829   2.916  0.6941 -0.5279  0.6043
   25DMF     C2  780   1.973   2.952   2.871  0.3441 -0.4940 -0.2416
   25DMF     C3  781   2.141   2.794   2.854 -0.6122  1.1648  0.3595
   25DMF     O1  782   2.204   2.697   2.892 -0.2001 -0.4618 -0.1451
   25DMF     H1  783   2.013   2.680   3.075 -0.4988 -1.8489 -0.9477
   25DMF     H2  784   1.881   2.676   2.968  0.6088 -1.0705  0.3712
   25DMF     H3  785   1.902   2.823   3.078 -0.9523 -1.1601  1.0212
   25DMF     H4  786   1.882   2.982   2.924  1.3307  0.0670  1.1593
   25DMF     H5  787   1.946   2.961   2.765  0.7606  1.0210 -0.2268
   25DMF     H6  788   2.047   3.032   2.880 -3.0151  2.7674 -0.4137
   25DMF     H7  789   2.182   2.862   2.777  0.6396 -1.2630 -1.1651
   26DMF     C1  790   1.880   1.199   3.168  0.2912  0.1977  0.4958
   26DMF     N1  791   1.842   1.082   3.255 -0.6983  0.5053 -0.3188
   26DMF     C2  792   1.707   1.105   3.312  0.0773  0.0288  0.0727
   26DMF     C3  793   1.930   0.978   3.294 -0.1432  0.3125 -0.1564
   26DMF     O1  794   2.051   0.983   3.259 -0.0673  0.1660 -0.0739
   26DMF     H1  795   1.816   1.205   3.080  1.3022  0.7217 -0.2124
   26DMF     H2  796   1.984   1.178   3.141 -0.2896 -2.8714  0.4508
   26DMF     H3  797   1.864   1.295   3.219  1.8662  0.7950 -0.1275
   26DMF     H4  798   1.715   1.172   3.398  0.9154  0.5181 -0.3727
   26DMF     H5  799   1.661   1.017   3.358 -0.9830  1.6990  2.3089
   26DMF     H6  800   1.641   1.148   3.236  0.3641 -1.9445 -1.3246
   26DMF     H7  801   1.893   0.903   3.366  3.5180  1.0710  2.6580
   27DMF     C1  802   0.252   1.464   3.228 -0.0518  0.4914 -0.1478
   27DMF     N1  803   0.253   1.504   3.362 -0.1497  0.2799  0.0479
   27DMF     C2  804   0.370   1.463   3.437  0.4848 -0.1670  0.0119
   27DMF     C3  805   0.157   1.590   3.419  0.1952 -0.4925 -0.5873
   27DMF     O1  806   0.045   1.604   3.383 -0.1304  0.1794  0.1259
   27DMF     H1  807   0.352   1.488   3.189  0.0700  0.3042  0.0430
   27DMF     H2  808   0.185   1.528   3.170  0.4331 -0.5527 -1.9132
   27DMF     H3  809   0.245   1.354   3.219 -1.2029  0.4728  0.7890
   27DMF     H4  810   0.448   1.539   3.426 -1.2267  1.7547  0.9075
   27DMF     H5  811   0.423   1.378   3.392  0.1010 -1.6402  2.3178
   27DMF     H6  812   0.345   1.449   3.543 -0.1613  0.2518 -0.0804
   27DMF     H7  813   0.198   1.643   3.506  2.4658 -0.4861 -1.6169
   28DMF     C1  814   0.667   2.823   3.769 -0.4428 -0.2136  0.1857
   28DMF     N1  815   0.704   2.952   3.703 -0.3605 -0.7344 -0.9205
   28DMF     C2  816   0.807   3.037   3.763  0.0085 -0.0735  0.5746
   28DMF     C3  817   0.642   2.994   3.587  0.3028  0.0490  0.0415
   28DMF     O1  818   0.546   2.939   3.542  0.3004 -0.0675  0.3818
   28DMF     H1  819   0.750   2.789   3.832  0.9003  0.1698 -1.3380
   28DMF     H2  820   0.638   2.747   3.696  1.7112 -0.6598 -0.2496
   28DMF     H3  821   0.598   2.844   3.851 -0.7292  0.5360 -0.2461
   28DMF     H4  822   0.833   3.115   3.690 -1.2340 -1.2956 -1.2243
   28DMF     H5  823   0.892   2.975   3.793 -0.1001 -1.2632 -1.4619
   28DMF     H6  824   0.771   3.093   3.850 -0.8583  0.0342  0.1576
   28DMF     H7  825   0.693   3.082   3.544 -1.3916  0.0209 -2.1152
   29DMF     C1  826   1.409   2.647   3.621  0.4735 -0.1300 -0.2339
   29DMF     N1  827   1.310   2.753   3.585 -0.0900 -0.3516  0.0432
   29DMF     C2  828   1.169   2.738   3.632 -0.5005 -0.1474 -0.4215
   29DMF     C3  829   1.358   2.866   3.509  0.4188 -0.4418  0.6625
   29DMF     O1  830   1.476   2.887   3.482 -0.3643 -0.5090 -0.0014
   29DMF     H1  831   1.507   2.662   3.574  0.7384 -0.8062  0.1024
   29DMF     H2  832   1.370   2.548   3.595 -0.4241 -0.0822  0.8766
   29DMF     H3  833   1.420   2.651   3.730  0.4166  0.8317 -0.2598
   29DMF     H4  834   1.150   2.660   3.706  2.1619 -0.9796 -0.5891
   29DMF     H5  835   1.104   2.723   3.545 -0.0057 -0.0673 -0.8056
   29DMF     H6  836   1.145   2.834   3.680 -4.5193 -0.0037 -2.5164
   29DMF     H7  837   1.281   2.945   3.498  0.0741 -0.2237  4.1882
   30DMF     C1  838   3.165   0.251   2.278  0.7530  0.2291 -0.3811
   30DMF     N1  839   3.193   0.116   2.251 -0.4960 -0.1311 -0.3470
   30DMF     C2  840   3.328   0.068   2.277 -0.4572 -0.4165  0.6251
   30DMF     C3  841   3.092   0.023   2.237 -0.4893 -0.2284  0.0447
   30DMF     O1  842   2.976   0.056   2.231 -0.2205 -0.2007  0.3499
   30DMF     H1  843   3.250   0.317   2.296 -1.0870  2.1117  1.8440
   30DMF     H2  844   3.109   0.260   2.372 -1.0384  2.3564 -1.5727
   30DMF     H3  845   3.109   0.298   2.196 -0.6516 -2.7386 -1.1718
   30DMF     H4  846   3.392   0.093   2.190  1.6373  0.7345  2.4465
   30DMF     H5  847   3.325  -0.038   2.302 -0.7002 -1.0293 -1.8432
   30DMF     H6  848   3.362   0.120   2.367  1.9202 -0.4825 -0.1943
   30DMF     H7  849   3.135  -0.077   2.217  0.4254  0.2317 -0.3072
   31DMF     C1  850   3.146   2.644   3.104 -0.4327  0.7522 -0.5604
   31DMF     N1  851   3.153   2.658   2.958  0.5181  0.4015 -0.4829
   31DMF     C2  852   3.161   2.533   2.883  0.4029  0.9228  0.2910
   31DMF     C3  853   3.165   2.781   2.898  0.0848 -0.2697 -0.4735
   31DMF     O1  854   3.166   2.884   2.957  0.0491 -0.0401  0.2507
   31DMF     H1  855   3.238   2.594   3.140 -1.5984 -0.9989  0.0738
   31DMF     H2  856   3.064   2.578   3.134  0.1702  0.0360 -0.4475
   31DMF     H3  857   3.147   2.738   3.160  0.6739  1.1743 -1.2743
   31DMF     H4  858   3.077   2.471   2.916  1.8414 -0.7769  0.8379
   31DMF     H5  859   3.245   2.469   2.913  0.0296  0.0690 -0.4515
   31DMF     H6  860   3.176   2.535   2.774  1.4998 -0.7611  0.3805
   31DMF     H7  861   3.180   2.773   2.788  2.2394 -2.2652 -0.0710
   32DMF     C1  862   2.351   0.219   0.016  0.0657 -0.2788 -0.8038
   32DMF     N1  863   2.402   0.353   0.041 -0.5641  0.4808 -0.2904
   32DMF     C2  864   2.474   0.371   0.167  0.0989  0.0212  0.4203
   32DMF     C3  865   2.414   0.452  -0.058  0.0312  0.5316 -0.3727
   32DMF     O1  866   2.383   0.436  -0.177 -0.0900  0.3633 -0.4402
   32DMF     H1  867   2.303   0.189  -0.079 -3.1291  1.0824  0.2905
   32DMF     H2  868   2.286   0.207   0.104  1.2347  1.6082  0.3505
   32DMF     H3  869   2.439   0.155   0.029 -0.0528  0.1453  2.5129
   32DMF     H4  870   2.578   0.338   0.156 -0.2011 -0.8099  0.0052
   32DMF     H5  871   2.429   0.313   0.249  0.5124  0.2401  0.7994
   32DMF     H6  872   2.469   0.477   0.194 -0.2428  0.3202 -0.7572
   32DMF     H7  873   2.468   0.539  -0.015  2.0415 -0.1122 -1.5040
   33DMF     C1  874   1.902   1.683   2.236  0.0857  0.7423  0.0027
   33DMF     N1  875   1.893   1.698   2.376  0.0464 -0.7336 -0.0403
   33DMF     C2  876   1.796   1.623   2.448  0.5757  0.1009 -0.5711
   33DMF     C3  877   1.989   1.778   2.455  0.1357 -0.5424  0.5927
   33DMF     O1  878   2.094   1.804   2.401  0.4957  0.6173 -0.2904
   33DMF     H1  879   1.931   1.775   2.183  0.2570  0.4455 -0.4268
   33DMF     H2  880   1.808   1.642   2.198 -0.6262  1.8595  0.5561
   33DMF     H3  881   1.988   1.619   2.211 -1.0368 -1.3678  1.4201
   33DMF     H4  882   1.814   1.515   2.433 -0.0357  0.0582 -1.0273
   33DMF     H5  883   1.699   1.646   2.402  0.5197  1.7654  0.3691
   33DMF     H6  884   1.795   1.647   2.555 -1.5926  1.2586 -0.8178
   33DMF     H7  885   1.959   1.812   2.556 -1.1975 -1.9598  0.6898
   34DMF     C1  886   0.325   1.160   3.600 -0.3112 -0.0206 -0.4230
   34DMF     N1  887   0.185   1.164   3.562  0.1715  0.0709  0.6010
   34DMF     C2  888   0.090   1.219   3.661  0.3462  0.4828 -0.9983
   34DMF     C3  889   0.149   1.130   3.431  0.7681  0.3210  1.2542
   34DMF     O1  890   0.231   1.079   3.348  0.2784 -0.2340 -0.7018
   34DMF     H1  891   0.351   1.061   3.639  0.1018  0.3072  0.1470
   34DMF     H2  892   0.355   1.250   3.655 -1.2241  0.1689 -0.2203
   34DMF     H3  893   0.375   1.189   3.507 -1.2301  2.7512 -0.1018
   34DMF     H4  894   0.003   1.154   3.666 -0.1675  1.1324 -1.3323
   34DMF     H5  895   0.057   1.319   3.629  0.4328  1.3567  1.5212
   34DMF     H6  896   0.136   1.228   3.760  1.0097  1.9501 -1.4231
   34DMF     H7  897   0.041   1.143   3.415  0.4415 -0.0093  3.0843
   35DMF     C1  898   2.817   0.334   3.086  0.4278  0.0380 -0.4330
   35DMF     N1  899   2.942   0.278   3.145  0.0684  0.4161 -0.1064
   35DMF     C2  900   3.042   0.219   3.053  0.7133  0.1766  0.4983
   35DMF     C3  901   2.953   0.245   3.284 -0.7724 -0.1717  0.2237
   35DMF     O1  902   2.867   0.270   3.366 -0.4717 -0.0418  0.1409
   35DMF     H1  903   2.831   0.335   2.977  0.5827  4.0455 -0.4619
   35DMF     H2  904   2.795   0.434   3.125 -2.2704 -1.0916  1.0763
   35DMF     H3  905   2.736   0.262   3.104  1.0480 -0.8611 -1.2392
   35DMF     H4  906   3.029   0.265   2.954  1.8055 -0.0717  0.2363
   35DMF     H5  907   3.024   0.112   3.037 -0.5283  0.3794  0.4917
   35DMF     H6  908   3.145   0.231   3.088  1.5447 -0.9581 -1.5376
   35DMF     H7  909   3.051   0.194   3.296 -0.5638 -0.0628 -0.9904
   36DMF     C1  910   0.721   0.234   0.856 -0.5333  0.8688 -0.4523
   36DMF     N1  911   0.582   0.261   0.889  0.7351  0.2123 -0.0446
   36DMF     C2  912   0.502   0.324   0.784  0.9670  0.9617 -0.0105
   36DMF     C3  913   0.534   0.234   1.020 -0.3933  0.6226 -0.4745
   36DMF     O1  914   0.614   0.179   1.103  0.0683 -0.2177 -0.1285
   36DMF     H1  915   0.782   0.291   0.927  0.3900  1.7131 -1.8883
   36DMF     H2  916   0.747   0.261   0.753 -0.5557 -3.0573 -1.5943
   36DMF     H3  917   0.731   0.127   0.880 -5.3673  0.1982 -0.9001
   36DMF     H4  918   0.400   0.348   0.815  0.9562  0.7405  0.1265
   36DMF     H5  919   0.508   0.259   0.696  0.7453 -1.7131  1.9013
   36DMF     H6  920   0.560   0.411   0.752  1.9228 -0.0448 -1.0376
   36DMF     H7  921   0.432   0.266   1.045  0.3783  1.9598  1.1209
   37DMF     C1  922   1.536   1.151   2.636  1.3849 -0.7708 -0.2855
   37DMF     N1  923   1.655   1.224   2.662  0.4310 -0.5587 -0.3634
   37DMF     C2  924   1.769   1.145   2.721  0.2668 -0.0382 -0.2947
   37DMF     C3  925   1.667   1.363   2.632 -0.7800  0.5935 -0.2742
   37DMF     O1  926   1.578   1.417   2.570 -0.0358  0.4449  0.1259
   37DMF     H1  927   1.491   1.120   2.731  1.1987 -1.3963 -0.5700
   37DMF     H2  928   1.541   1.074   2.558 -1.1810  0.4129 -1.6957
   37DMF     H3  929   1.455   1.220   2.609  0.6387 -1.1425  0.9484
   37DMF     H4  930   1.765   1.159   2.830  2.3953 -1.4631 -0.0047
   37DMF     H5  931   1.862   1.178   2.672  0.5708 -2.1413 -1.1763
   37DMF     H6  932   1.765   1.036   2.716  3.5082 -0.3127  1.1134
   37DMF     H7  933   1.754   1.417   2.674  0.3181 -1.4434  0.1118
   38DMF     C1  934   2.645   1.205   3.729 -0.1988  0.0188 -0.3900
   38DMF     N1  935   2.703   1.199   3.868 -0.8296 -0.0989 -0.2516
   38DMF     C2  936   2.850   1.228   3.882 -0.3405 -0.3272  0.1199
   38DMF     C3  937   2.632   1.148   3.978 -0.2657  0.3756 -0.1776
   38DMF     O1  938   2.519   1.108   3.964  0.4249  0.0548  0.1522
   38DMF     H1  939   2.538   1.220   3.741  0.2002  1.5837  1.3380
   38DMF     H2  940   2.658   1.106   3.683 -0.7598 -0.2590  0.0428
   38DMF     H3  941   2.691   1.285   3.671 -1.7062  1.4138  0.3144
   38DMF     H4  942   2.905   1.190   3.794  1.5736 -0.9816  1.5692
   38DMF     H5  943   2.893   1.176   3.968  0.9304  0.1473 -0.2074
   38DMF     H6  944   2.861   1.337   3.883 -0.6516 -0.2746 -1.1384
   38DMF     H7  945   2.691   1.148   4.071 -0.5972  1.8820  0.0551
   39DMF     C1  946   0.680   1.234   1.522 -0.1010 -0.1686  0.4549
   39DMF     N1  947   0.745   1.146   1.418  0.8366 -0.4099 -0.0565
   39DMF     C2  948   0.732   1.179   1.275 -0.1609 -0.5665 -0.6457
   39DMF     C3  949   0.824   1.037   1.468 -0.3167  0.0433 -0.5114
   39DMF     O1  950   0.820   1.012   1.588 -0.3091  0.6763  0.0165
   39DMF     H1  951   0.754   1.298   1.573  1.7495 -2.8097  1.1648
   39DMF     H2  952   0.643   1.165   1.598  1.7541 -0.8762  0.7326
   39DMF     H3  953   0.595   1.290   1.480 -0.4307 -0.7367  0.3631
   39DMF     H4  954   0.817   1.229   1.227 -1.2398 -0.6247 -2.6286
   39DMF     H5  955   0.647   1.242   1.248 -0.8928 -1.1104  0.3379
   39DMF     H6  956   0.696   1.092   1.220 -1.1105  0.4307 -1.6066
   39DMF     H7  957   0.886   0.986   1.392  1.8974 -0.2112  1.4256
   40DMF     C1  958   2.386   1.673   2.304 -0.2934 -0.3237  0.4540
   40DMF     N1  959   2.524   1.670   2.290  0.0046  0.4779 -0.6847
   40DMF     C2  960   2.594   1.803   2.305 -0.5825  1.0880 -0.3759
   40DMF     C3  961   2.590   1.551   2.234 -0.4363 -0.3542  0.1874
   40DMF     O1  962   2.529   1.447   2.212  0.2803  0.2685 -0.3465
   40DMF     H1  963   2.345   1.576   2.335 -2.6048  0.3971 -0.3217
   40DMF     H2  964   2.345   1.692   2.205  0.1960 -2.2402 -0.1302
   40DMF     H3  965   2.349   1.743   2.381 -2.1504  2.5746 -2.9390
   40DMF     H4  966   2.672   1.816   2.228 -0.1259 -0.5649 -0.2137
   40DMF     H5  967   2.653   1.802   2.398 -2.4136 -1.0857  0.8072
   40DMF     H6  968   2.526   1.888   2.299 -1.8716 -0.0264 -1.9387
   40DMF     H7  969   2.700   1.558   2.223 -0.6985 -0.2739 -2.8294
   41DMF     C1  970   0.536   1.863   2.748  0.4458  0.0313 -0.3027
   41DMF     N1  971   0.525   1.816   2.610  0.2265 -0.5926 -0.5363
   41DMF     C2  972   0.611   1.874   2.508 -0.0106  0.1485  0.6734
   41DMF     C3  973   0.428   1.718   2.572 -0.7672 -0.1849 -0.5279
   41DMF     O1  974   0.353   1.659   2.650 -0.5899  0.8234  0.8623
   41DMF     H1  975   0.639   1.900   2.752  0.1552  0.7994  0.0926
   41DMF     H2  976   0.521   1.788   2.827 -3.9284  0.9194 -0.1567
   41DMF     H3  977   0.461   1.942   2.767  0.5516  0.0823 -0.1006
   41DMF     H4  978   0.701   1.813   2.496 -0.0631  0.0446  0.8106
   41DMF     H5  979   0.637   1.979   2.529 -3.4648  1.1235  0.5472
   41DMF     H6  980   0.556   1.886   2.413 -0.2659 -1.5145  0.6032
   41DMF     H7  981   0.436   1.690   2.466  0.3617 -0.3944 -0.3906
   42DMF     C1  982   0.865   2.673   2.217 -0.0029  0.0480  0.0663
   42DMF     N1  983   0.847   2.621   2.357  0.4444 -0.0579  0.4604
   42DMF     C2  984   0.943   2.676   2.459 -0.2560 -0.3800 -0.0254
   42DMF     C3  985   0.748   2.536   2.392  0.2067 -0.5631 -0.4619
   42DMF     O1  986   0.669   2.490   2.314  0.4710 -0.2490 -0.0407
   42DMF     H1  987   0.816   2.599   2.152 -2.3563  0.0287  1.8209
   42DMF     H2  988   0.971   2.692   2.199 -0.2886  0.9815 -0.6591
   42DMF     H3  989   0.812   2.768   2.206  0.7433  0.4031 -0.4785
   42DMF     H4  990   0.941   2.633   2.560  0.8487 -2.7930 -1.0054
   42DMF     H5  991   0.916   2.780   2.483  1.0558 -0.4609  1.9509
   42DMF     H6  992   1.041   2.662   2.413 -0.1901 -1.2927  0.3743
   42DMF     H7  993   0.756   2.511   2.499 -0.4157  1.8810  0.1900
   43DMF     C1  994   2.224   0.888   2.250  0.2619 -0.2480 -0.2988
   43DMF     N1  995   2.192   0.749   2.283 -0.2057  0.3190  0.5492
   43DMF     C2  996   2.062   0.693   2.246  0.7844 -0.2209  0.1003
   43DMF     C3  997   2.294   0.658   2.336  0.1927 -0.6542  0.1193
   43DMF     O1  998   2.402   0.690   2.366 -0.6947 -0.2650 -0.0820
   43DMF     H1  999   2.306   0.922   2.315  0.2881  1.1266 -1.0431
   43DMF     H2 1000   2.134   0.951   2.255 -2.1850 -3.5215 -1.6658
   43DMF     H3 1001   2.267   0.894   2.150  0.8173 -1.3810 -0.1339
   43DMF     H4 1002   2.030   0.735   2.150 -0.0060  0.0399  0.4744
   43DMF     H5 1003   1.988   0.738   2.313 -0.7872  1.0487 -2.4055
   43DMF     H6 1004   2.056   0.583   2.253 -1.9387 -0.0643  0.5578
   43DMF     H7 1005   2.254   0.555   2.335  1.2849 -1.0777 -0.7083
   44DMF     C1 1006   0.730   0.552   2.341  0.5256  0.1167 -0.5708
   44DMF     N1 1007   0.659   0.446   2.267  0.0172 -0.1766  0.2675
   44DMF     C2 1008   0.511   0.462   2.256  0.2576 -0.0245  1.0135
   44DMF     C3 1009   0.732   0.354   2.195  0.4869  0.0803 -0.6139
   44DMF     O1 1010   0.854   0.342   2.195 -0.2640  0.5539  0.2130
   44DMF     H1 1011   0.662   0.638   2.333 -0.9921 -0.8070  1.6456
   44DMF     H2 1012   0.831   0.577   2.307  0.4575 -1.3828 -1.9498
   44DMF     H3 1013   0.732   0.528   2.448  1.7001 -0.6252 -0.7534
   44DMF     H4 1014   0.453   0.410   2.178  0.0401 -0.5541  1.5213
   44DMF     H5 1015   0.489   0.569   2.253 -0.9695 -0.2741  0.4325
   44DMF     H6 1016   0.484   0.427   2.357 -0.4947 -1.5496  0.2964
   44DMF     H7 1017   0.663   0.281   2.148 -0.2914 -0.2400  0.9965
   45DMF     C1 1018   1.559   3.302   3.133  0.4879 -0.5332  0.0723
   45DMF     N1 1019   1.669   3.242   3.213 -0.5774 -0.2039 -0.6603
   45DMF     C2 1020   1.656   3.095   3.248 -0.1480  0.4276 -0.1860
   45DMF     C3 1021   1.740   3.331   3.299 -0.1175 -0.7611 -0.2876
   45DMF     O1 1022   1.739   3.454   3.281 -0.0734  0.4161  0.1167
   45DMF     H1 1023   1.463   3.314   3.185 -0.2089  1.5569 -1.5948
   45DMF     H2 1024   1.531   3.230   3.055 -3.1055 -0.4418  1.1521
   45DMF     H3 1025   1.574   3.401   3.089  0.8045 -0.2714  0.7743
   45DMF     H4 1026   1.585   3.046   3.181  0.4539  0.5973 -0.9633
   45DMF     H5 1027   1.620   3.100   3.351  1.1727  2.0598  0.2230
   45DMF     H6 1028   1.754   3.044   3.248 -0.3225  0.0823 -0.8980
   45DMF     H7 1029   1.801   3.272   3.369 -2.1856 -2.2461  0.3382
   46DMF     C1 1030   1.234   1.152   3.642  1.3566 -0.9016  0.0662
   46DMF     N1 1031   1.361   1.148   3.573 -0.1770  0.3741  0.5127
   46DMF     C2 1032   1.458   1.052   3.616  0.2889 -0.7876  0.5103
   46DMF     C3 1033   1.374   1.226   3.461  0.2795 -0.4251 -0.1943
   46DMF     O1 1034   1.290   1.311   3.429  0.3101  0.4135 -0.1172
   46DMF     H1 1035   1.252   1.117   3.745 -0.6537  1.1025  1.1261
   46DMF     H2 1036   1.161   1.081   3.601 -0.1699  0.1907  0.8575
   46DMF     H3 1037   1.191   1.252   3.650  1.7874 -0.7623  0.7170
   46DMF     H4 1038   1.507   1.003   3.531  3.4315  1.2438  1.0776
   46DMF     H5 1039   1.407   0.978   3.678 -0.5619  0.1270  0.9124
   46DMF     H6 1040   1.540   1.100   3.671 -0.9270  0.9800  0.8092
   46DMF     H7 1041   1.470   1.205   3.410 -0.1656 -2.9658 -0.0357
   47DMF     C1 1042   2.589   2.152   3.648  0.5487  0.2462 -0.5419
   47DMF     N1 1043   2.524   2.039   3.711 -0.4558  0.2169 -0.1721
   47DMF     C2 1044   2.568   1.899   3.672  0.5891 -0.4493 -0.5170
   47DMF     C3 1045   2.438   2.048   3.819  0.0416 -0.6691 -0.0316
   47DMF     O1 1046   2.398   2.159   3.855 -0.5439 -0.2608 -0.3341
   47DMF     H1 1047   2.610   2.233   3.719  2.4122 -0.4904 -0.2211
   47DMF     H2 1048   2.534   2.185   3.559  0.6866  1.4760 -0.1844
   47DMF     H3 1049   2.688   2.131   3.607  1.2649  0.1224  1.2001
   47DMF     H4 1050   2.665   1.866   3.713  0.4821  1.0569  1.0102
   47DMF     H5 1051   2.557   1.876   3.566 -0.5361 -0.6380 -0.3609
   47DMF     H6 1052   2.494   1.842   3.729 -1.5276  3.3258  0.7088
   47DMF     H7 1053   2.412   1.953   3.870  1.0981 -1.2109 -0.4865
   48DMF     C1 1054   2.116   1.441   3.043  0.0079  1.0229 -0.5717
   48DMF     N1 1055   2.212   1.522   2.971  0.2969  0.3313 -0.7951
   48DMF     C2 1056   2.236   1.485   2.830 -0.5990  0.1330 -0.5660
   48DMF     C3 1057   2.259   1.646   3.020  0.4053  0.2937 -0.3377
   48DMF     O1 1058   2.223   1.699   3.127 -0.1853 -0.3966  0.4455
   48DMF     H1 1059   2.019   1.491   3.057 -0.1908  0.4717  0.0857
   48DMF     H2 1060   2.165   1.405   3.135 -1.3636 -1.2994 -0.7026
   48DMF     H3 1061   2.093   1.347   2.992 -1.7589  1.7421 -1.1316
   48DMF     H4 1062   2.236   1.579   2.774 -0.9785 -0.0537 -0.8768
   48DMF     H5 1063   2.162   1.420   2.783 -0.0589 -0.1453 -1.0424
   48DMF     H6 1064   2.339   1.447   2.824  0.3790  1.9605  3.0636
   48DMF     H7 1065   2.335   1.694   2.955  0.8965  0.4634  0.3611
   49DMF     C1 1066   1.384   0.055   2.236  0.4430  0.1438 -0.0402
   49DMF     N1 1067   1.264   0.109   2.302 -0.3121 -0.2702 -0.5621
   49DMF     C2 1068   1.137   0.123   2.228  0.5713 -0.2738  0.0273
   49DMF     C3 1069   1.273   0.138   2.437 -0.1371 -0.0367  0.0950
   49DMF     O1 1070   1.373   0.131   2.502 -0.5488  0.2398  0.4595
   49DMF     H1 1071   1.475   0.047   2.296  0.3672 -0.4419  0.0022
   49DMF     H2 1072   1.406   0.114   2.146  1.9095 -0.7598 -0.2917
   49DMF     H3 1073   1.355  -0.046   2.206 -0.7719 -0.0097  1.6059
   49DMF     H4 1074   1.148   0.195   2.146  1.2489  0.4162  0.7188
   49DMF     H5 1075   1.055   0.146   2.297  1.5873 -2.2137  1.9551
   49DMF     H6 1076   1.114   0.023   2.190  0.6186 -0.2591 -0.0391
   49DMF     H7 1077   1.178   0.172   2.482  0.8362  0.5568  1.8005
   50DMF     C1 1078   0.887   0.299   1.460  0.2470  0.4815 -0.1297
   50DMF     N1 1079   0.895   0.429   1.516  0.8339  0.4689 -0.0364
   50DMF     C2 1080   1.017   0.503   1.518  0.1607  0.0624 -0.3793
   50DMF     C3 1081   0.778   0.500   1.544 -0.4808 -0.2337  0.1234
   50DMF     O1 1082   0.665   0.453   1.526 -0.5325  0.2225  0.2767
   50DMF     H1 1083   0.980   0.251   1.491  0.4681  1.5553  0.8939
   50DMF     H2 1084   0.899   0.307   1.351 -3.2559 -1.3117 -0.7173
   50DMF     H3 1085   0.801   0.235   1.484  0.4191 -0.6438 -2.3913
   50DMF     H4 1086   0.998   0.606   1.485 -0.3771  0.0368 -0.1638
   50DMF     H5 1087   1.091   0.462   1.448  0.4175 -1.9506  1.0250
   50DMF     H6 1088   1.049   0.502   1.623 -1.7244 -0.9694  0.2197
   50DMF     H7 1089   0.793   0.606   1.573 -0.1875  0.4088 -2.2279
   51DMF     C1 1090   2.601   2.738   0.275 -0.7096 -0.5328  0.0057
   51DMF     N1 1091   2.550   2.875   0.297 -0.6920 -0.2250  0.5637
   51DMF     C2 1092   2.464   2.902   0.413  0.2181 -0.0671 -0.2309
   51DMF     C3 1093   2.639   2.989   0.263  0.4930  0.4432 -1.1192
   51DMF     O1 1094   2.730   2.971   0.182 -0.2333 -0.3960 -0.5371
   51DMF     H1 1095   2.681   2.735   0.201 -0.0352 -0.3723  0.7229
   51DMF     H2 1096   2.518   2.671   0.250 -0.7001 -0.7332  0.5035
   51DMF     H3 1097   2.644   2.701   0.369  0.0849 -2.0821 -0.9536
   51DMF     H4 1098   2.535   2.935   0.490  0.6242  1.3199 -1.1959
   51DMF     H5 1099   2.427   2.802   0.441  0.1059 -0.5476 -2.0493
   51DMF     H6 1100   2.392   2.976   0.378  2.3168  1.9213 -0.4420
   51DMF     H7 1101   2.613   3.087   0.306  0.7481  0.0958 -0.1501
   52DMF     C1 1102   2.663   1.029   2.341 -0.2419  0.7940 -0.3582
   52DMF     N1 1103   2.710   0.914   2.417 -0.7830  0.7695 -0.7352
   52DMF     C2 1104   2.734   0.794   2.337 -0.2039 -0.2340  0.5142
   52DMF     C3 1105   2.780   0.935   2.539 -0.2603 -0.1266 -0.3870
   52DMF     O1 1106   2.752   1.029   2.616  0.1456  0.3601 -0.4575
   52DMF     H1 1107   2.660   1.118   2.406 -0.0587 -0.5992  1.6024
   52DMF     H2 1108   2.564   1.003   2.303 -1.3579  0.1392  2.8402
   52DMF     H3 1109   2.723   1.052   2.252 -0.4634  0.1350 -0.6848
   52DMF     H4 1110   2.836   0.798   2.298  0.9395  2.0049  3.4911
   52DMF     H5 1111   2.672   0.775   2.249 -0.0381  0.8389  0.1622
   52DMF     H6 1112   2.727   0.708   2.405  2.6587 -0.6387  0.3698
   52DMF     H7 1113   2.841   0.847   2.563  0.0131 -0.1486 -1.1496
   53DMF     C1 1114   1.126   1.533   1.227  0.3690 -0.0959  0.1966
   53DMF     N1 1115   1.156   1.682   1.249 -0.1184  0.5957 -0.2090
   53DMF     C2 1116   1.051   1.758   1.325  1.3367 -0.0350 -0.6115
   53DMF     C3 1117   1.288   1.736   1.235 -0.5255  0.4958  0.1478
   53DMF     O1 1118   1.384   1.667   1.212 -0.0208 -0.0685 -0.5528
   53DMF     H1 1119   1.085   1.495   1.321  0.7179  1.4352  0.9821
   53DMF     H2 1120   1.224   1.486   1.209 -0.0703 -1.4433  1.3132
   53DMF     H3 1121   1.045   1.525   1.154  1.7463 -0.3248 -1.3387
   53DMF     H4 1122   0.954   1.731   1.283  0.7785  1.2935 -0.1955
   53DMF     H5 1123   1.053   1.867   1.316 -2.0914 -0.0001 -1.7549
   53DMF     H6 1124   1.040   1.734   1.432  2.9072 -1.9631 -0.8608
   53DMF     H7 1125   1.292   1.844   1.259  1.3435  0.1851  1.3173
   54DMF     C1 1126   3.322   2.775   0.542  0.7985 -0.1067  0.2794
   54DMF     N1 1127   3.414   2.882   0.592 -0.3971 -0.5282  0.3479
   54DMF     C2 1128   3.345   3.021   0.601  0.1297  1.1254  0.1366
   54DMF     C3 1129   3.555   2.873   0.587  0.1494  0.3803  0.1798
   54DMF     O1 1130   3.611   2.768   0.567 -0.3542  0.1186 -0.6222
   54DMF     H1 1131   3.218   2.812   0.543  0.3206 -1.4106  1.8762
   54DMF     H2 1132   3.316   2.679   0.596 -0.1537  0.4128  1.1296
   54DMF     H3 1133   3.347   2.766   0.436 -0.3651 -2.1987  0.1472
   54DMF     H4 1134   3.395   3.074   0.683 -0.3134  1.9810 -0.1352
   54DMF     H5 1135   3.237   3.007   0.618  0.3078 -0.2638  0.1534
   54DMF     H6 1136   3.358   3.070   0.504 -1.8366 -0.9666 -1.2399
   54DMF     H7 1137   3.610   2.967   0.605 -0.1099  0.9561 -1.9486
   55DMF     C1 1138   0.015   1.808   3.079  0.6384  0.0749 -0.2067
   55DMF     N1 1139   0.089   1.764   2.960  0.3229 -0.2905 -0.2399
   55DMF     C2 1140   0.048   1.645   2.887  0.2126 -0.1778 -0.5052
   55DMF     C3 1141   0.198   1.842   2.913  0.3375  0.5967 -0.1263
   55DMF     O1 1142   0.238   1.943   2.963  0.2099  0.1918 -0.3918
   55DMF     H1 1143   0.064   1.769   3.169 -1.4368  1.1256  1.4323
   55DMF     H2 1144  -0.089   1.775   3.079  0.7270 -0.2034 -0.2272
   55DMF     H3 1145   0.010   1.916   3.096  1.8959  0.1674 -0.3611
   55DMF     H4 1146   0.082   1.652   2.783 -0.1766  2.0092 -0.5112
   55DMF     H5 1147  -0.062   1.647   2.894  0.2336 -1.8551  0.5720
   55DMF     H6 1148   0.096   1.557   2.931  0.6174 -0.1378 -0.8661
   55DMF     H7 1149   0.225   1.805   2.812 -2.9191 -2.6231  0.0715
   56DMF     C1 1150   1.578   2.266   2.224  0.4287  0.0517 -0.2356
   56DMF     N1 1151   1.710   2.214   2.260  0.2625 -0.0476  0.1366
   56DMF     C2 1152   1.713   2.071   2.287  0.3719  0.8259 -0.0185
   56DMF     C3 1153   1.831   2.288   2.271 -0.1256 -0.1850  0.1103
   56DMF     O1 1154   1.845   2.404   2.233 -0.4258 -0.4118  0.1831
   56DMF     H1 1155   1.525   2.278   2.319  1.5043 -1.5920  0.5855
   56DMF     H2 1156   1.518   2.192   2.169  0.0365 -0.7713  1.2748
   56DMF     H3 1157   1.579   2.362   2.171 -0.2206  0.0335 -0.2828
   56DMF     H4 1158   1.728   2.043   2.392  1.1619 -0.2511 -0.4089
   56DMF     H5 1159   1.789   2.028   2.220  1.2274 -0.3008  1.6290
   56DMF     H6 1160   1.618   2.027   2.256  1.1925  0.1821 -1.6780
   56DMF     H7 1161   1.910   2.225   2.317 -2.6510 -3.1941  0.5551
   57DMF     C1 1162   2.503   3.093   1.391 -0.3926 -0.5549 -0.5345
   57DMF     N1 1163   2.527   3.204   1.487 -0.2055  0.0578 -0.1506
   57DMF     C2 1164   2.655   3.208   1.549  0.1577 -0.4573 -0.0048
   57DMF     C3 1165   2.419   3.272   1.540 -0.1531  0.7255  0.5379
   57DMF     O1 1166   2.310   3.249   1.495  0.1337  0.0499  0.7304
   57DMF     H1 1167   2.496   3.136   1.291  0.2910 -1.0003 -0.7750
   57DMF     H2 1168   2.412   3.036   1.414  0.2797 -0.6632  1.9968
   57DMF     H3 1169   2.590   3.026   1.396 -0.4540 -0.4953  2.0781
   57DMF     H4 1170   2.737   3.185   1.480  2.7128 -0.1209  2.8308
   57DMF     H5 1171   2.668   3.144   1.637  1.7040 -1.9332 -1.2737
   57DMF     H6 1172   2.666   3.309   1.591 -2.2871 -0.3138  0.3418
   57DMF     H7 1173   2.443   3.335   1.628  1.0347  0.1164  0.6614
   58DMF     C1 1174   1.742   1.037   0.951  0.1210 -0.4254 -0.2523
   58DMF     N1 1175   1.613   0.990   0.998 -0.3128  0.1760  0.6864
   58DMF     C2 1176   1.590   0.948   1.138 -0.8536  0.0616  0.9582
   58DMF     C3 1177   1.502   1.001   0.917 -0.6028  0.3448 -0.1455
   58DMF     O1 1178   1.522   1.033   0.800 -0.4751 -0.1468  0.3439
   58DMF     H1 1179   1.729   1.134   0.901 -3.4201 -1.1251 -0.7581
   58DMF     H2 1180   1.799   0.959   0.899 -0.4109 -2.5304  2.1937
   58DMF     H3 1181   1.805   1.064   1.038  0.2937  3.6122 -1.5092
   58DMF     H4 1182   1.553   0.845   1.147 -0.7490  0.0711  1.5366
   58DMF     H5 1183   1.522   1.021   1.184 -1.6331 -1.0692  1.6305
   58DMF     H6 1184   1.680   0.953   1.200 -1.1813  0.4950  1.4066
   58DMF     H7 1185   1.405   0.963   0.954 -1.5784  2.0588 -0.9047
   59DMF     C1 1186   2.546   3.034   2.630  0.0687 -1.2547 -0.6139
   59DMF     N1 1187   2.491   3.163   2.683 -0.4095 -0.4064  0.5897
   59DMF     C2 1188   2.589   3.267   2.706 -0.1578  0.9490 -0.0874
   59DMF     C3 1189   2.370   3.179   2.742 -0.2284 -0.0447  0.4037
   59DMF     O1 1190   2.300   3.080   2.749 -0.3404 -0.1235 -0.0341
   59DMF     H1 1191   2.465   2.969   2.594  0.0035 -1.3338 -0.3256
   59DMF     H2 1192   2.609   2.990   2.708  3.4260  0.1179 -2.4475
   59DMF     H3 1193   2.602   3.056   2.538  2.5026  0.3920  1.1768
   59DMF     H4 1194   2.664   3.221   2.772 -1.0295 -1.2079 -0.5677
   59DMF     H5 1195   2.533   3.347   2.757  2.7029  1.9236  1.6466
   59DMF     H6 1196   2.639   3.309   2.618  1.3015  1.9762  1.2073
   59DMF     H7 1197   2.342   3.272   2.795 -0.1708 -1.0757  2.2994
   60DMF     C1 1198   2.900   0.548   0.195  0.7773 -0.5439  0.2201
   60DMF     N1 1199   2.867   0.682   0.252  0.2080 -0.0362 -0.5781
   60DMF     C2 1200   2.965   0.751   0.341 -0.0429 -0.0154 -0.1873
   60DMF     C3 1201   2.747   0.749   0.215  0.1690  0.6926  0.6474
   60DMF     O1 1202   2.641   0.688   0.185 -0.0708  0.4163 -0.5423
   60DMF     H1 1203   2.818   0.475   0.191  0.1916  0.1388 -0.2361
   60DMF     H2 1204   2.982   0.504   0.253  1.2600 -0.9594 -0.7536
   60DMF     H3 1205   2.929   0.569   0.091  0.7386 -4.0637 -0.5865
   60DMF     H4 1206   2.926   0.841   0.390 -1.6257  1.4357 -3.8579
   60DMF     H5 1207   3.052   0.772   0.277  0.8863  0.0709  1.0890
   60DMF     H6 1208   3.005   0.683   0.417  1.9519  0.4758 -0.7772
   60DMF     H7 1209   2.740   0.856   0.244 -4.5066  0.2839  1.3557
   61DMF     C1 1210   2.722   3.223   2.273 -0.1669  0.2185 -0.3698
   61DMF     N1 1211   2.578   3.191   2.274 -0.0897  0.3060 -0.7885
   61DMF     C2 1212   2.547   3.048   2.243  0.3724 -0.0459  0.4212
   61DMF     C3 1213   2.483   3.283   2.310  0.2369  0.2117  0.2494
   61DMF     O1 1214   2.503   3.399   2.345 -0.0062  0.0008  0.1213
   61DMF     H1 1215   2.768   3.204   2.370 -0.9871 -1.0879 -0.2184
   61DMF     H2 1216   2.737   3.325   2.237 -2.1674  1.2787  1.7003
   61DMF     H3 1217   2.772   3.161   2.198 -0.0154 -1.3720  1.0177
   61DMF     H4 1218   2.596   3.013   2.151  0.2733 -0.9418  0.7085
   61DMF     H5 1219   2.439   3.030   2.233  0.2560  1.2217 -0.7969
   61DMF     H6 1220   2.598   2.984   2.316  0.2001 -1.2971 -0.5292
   61DMF     H7 1221   2.379   3.247   2.312 -0.0109  0.7690 -1.6086
   62DMF     C1 1222   2.457   2.467   1.165 -0.3572 -0.3127  0.0711
   62DMF     N1 1223   2.402   2.597   1.135  0.4236  0.4062 -0.0261
   62DMF     C2 1224   2.398   2.640   0.998  0.0192 -0.6014 -0.0972
   62DMF     C3 1225   2.315   2.667   1.226 -0.5513  0.1047  0.4145
   62DMF     O1 1226   2.272   2.615   1.330 -0.3682 -0.1166  0.0513
   62DMF     H1 1227   2.504   2.427   1.074 -1.6395  0.5173 -0.9697
   62DMF     H2 1228   2.376   2.400   1.197  1.0668 -2.8111 -1.3797
   62DMF     H3 1229   2.537   2.466   1.240 -1.0228  1.6548  0.8183
   62DMF     H4 1230   2.328   2.574   0.946 -1.3391 -0.1261  1.1045
   62DMF     H5 1231   2.494   2.621   0.948 -0.8566 -3.9987 -0.6299
   62DMF     H6 1232   2.361   2.743   1.001  0.1570 -0.5626  0.3214
   62DMF     H7 1233   2.269   2.760   1.189  2.3884  1.6172  0.4279
   63DMF     C1 1234   0.782   3.299   0.585 -0.0466 -0.2759 -0.3270
   63DMF     N1 1235   0.677   3.340   0.483  0.0021  0.6739  0.4177
   63DMF     C2 1236   0.628   3.238   0.395  0.1430  0.5529 -0.0490
   63DMF     C3 1237   0.620   3.470   0.478 -0.2379 -0.3280 -0.0210
   63DMF     O1 1238   0.661   3.556   0.550  0.0108  0.0926  0.2741
   63DMF     H1 1239   0.773   3.349   0.682  1.0712  0.0948 -0.4168
   63DMF     H2 1240   0.884   3.308   0.546  0.9351  0.0003  2.2404
   63DMF     H3 1241   0.760   3.191   0.587 -1.0808 -0.1328 -2.5946
   63DMF     H4 1242   0.532   3.198   0.431 -0.6962 -1.2097 -3.9516
   63DMF     H5 1243   0.689   3.147   0.388 -3.3478 -1.9121 -0.0631
   63DMF     H6 1244   0.621   3.284   0.296 -0.6380 -1.0814 -0.7768
   63DMF     H7 1245   0.539   3.475   0.403  1.7706  2.0589 -2.1344
   64DMF     C1 1246   0.459   3.298   0.875 -0.0242 -0.2863 -0.4875
   64DMF     N1 1247   0.545   3.178   0.860  0.1764 -0.1641  0.1321
   64DMF     C2 1248   0.681   3.186   0.914  0.0735  0.8189  0.3085
   64DMF     C3 1249   0.514   3.082   0.766  0.2908  0.0655  0.6672
   64DMF     O1 1250   0.401   3.074   0.724 -0.0420  0.1114 -0.2789
   64DMF     H1 1251   0.500   3.364   0.952 -0.6169  0.5586 -0.8927
   64DMF     H2 1252   0.354   3.277   0.899  0.2160  0.5172  1.3781
   64DMF     H3 1253   0.461   3.343   0.775  0.1708  0.3020 -0.2252
   64DMF     H4 1254   0.704   3.293   0.909  0.4609  0.8960  2.9917
   64DMF     H5 1255   0.763   3.128   0.869  0.1755 -0.0036  1.5379
   64DMF     H6 1256   0.676   3.167   1.022 -1.0982  3.7878  0.8129
   64DMF     H7 1257   0.593   3.015   0.727  1.7206  2.0148  0.1044
   65DMF     C1 1258   3.255   0.592   2.284 -0.7633  0.3642 -0.4024
   65DMF     N1 1259   3.236   0.728   2.323  0.6570 -0.3054 -0.2671
   65DMF     C2 1260   3.089   0.755   2.356 -0.5296 -0.0761  0.4437
   65DMF     C3 1261   3.339   0.824   2.313 -0.0838 -0.0996  0.5878
   65DMF     O1 1262   3.450   0.810   2.259 -0.1515  0.3249 -0.3321
   65DMF     H1 1263   3.319   0.591   2.195 -0.0984 -0.8779  0.0686
   65DMF     H2 1264   3.161   0.551   2.246 -0.6640  0.8207 -1.1345
   65DMF     H3 1265   3.302   0.527   2.359  1.8363  1.3639 -1.1052
   65DMF     H4 1266   3.042   0.769   2.257 -0.5722  1.7089  0.7006
   65DMF     H5 1267   3.083   0.835   2.430  1.3154  1.8386 -1.4008
   65DMF     H6 1268   3.032   0.674   2.403  1.6040 -1.9715 -0.1764
   65DMF     H7 1269   3.315   0.919   2.365  0.8375  0.3964  0.1104
   66DMF     C1 1270   1.080   3.349   3.182 -0.3177  0.0383  0.0511
   66DMF     N1 1271   1.187   3.304   3.269  0.4298 -0.2875 -0.3232
   66DMF     C2 1272   1.205   3.160   3.295 -0.9659  0.5382 -0.1066
   66DMF     C3 1273   1.253   3.393   3.351 -0.0731  0.1734  0.4449
   66DMF     O1 1274   1.245   3.511   3.335  0.0662 -0.2322 -0.1995
   66DMF     H1 1275   1.089   3.305   3.082  0.9479 -0.4625  0.3760
   66DMF     H2 1276   1.085   3.457   3.162 -1.3280 -0.3028 -2.2012
   66DMF     H3 1277   0.976   3.336   3.217 -0.2324  0.0405  0.3024
   66DMF     H4 1278   1.279   3.118   3.225  0.1382 -0.9745  1.9325
   66DMF     H5 1279   1.105   3.115   3.293  0.2509 -2.4130  1.7038
   66DMF     H6 1280   1.238   3.141   3.398  0.6682 -0.3798 -0.7681
   66DMF     H7 1281   1.320   3.347   3.425  0.4473  1.3322  0.7003
   67DMF     C1 1282   0.786   2.486   1.136  0.2103 -0.1314 -0.5559
   67DMF     N1 1283   0.931   2.473   1.112  0.3795 -0.4560  0.0797
   67DMF     C2 1284   1.026   2.489   1.221 -0.5623  0.1955 -0.4923
   67DMF     C3 1285   0.972   2.410   0.990  0.4897 -0.1055 -0.0130
   67DMF     O1 1286   0.895   2.373   0.910 -0.6291 -0.6329  0.0359
   67DMF     H1 1287   0.725   2.474   1.046 -0.4267  0.9008 -0.2681
   67DMF     H2 1288   0.766   2.587   1.176 -3.7060 -0.2189 -2.1374
   67DMF     H3 1289   0.759   2.407   1.208 -0.1824  1.1069  0.6908
   67DMF     H4 1290   1.126   2.452   1.194  0.3473  2.7535 -0.8132
   67DMF     H5 1291   0.983   2.438   1.308 -0.8376  1.3740  0.0731
   67DMF     H6 1292   1.029   2.595   1.250  0.0925  0.3335 -1.0404
   67DMF     H7 1293   1.082   2.412   0.980  0.5460 -0.4752  0.5175
   68DMF     C1 1294   1.164   3.110   0.615  0.4590 -1.1184  0.3192
   68DMF     N1 1295   1.244   3.092   0.733 -0.0640 -0.1171 -0.2727
   68DMF     C2 1296   1.363   3.008   0.718  0.7573 -0.0547 -0.4346
   68DMF     C3 1297   1.196   3.124   0.864  0.2149 -0.9252 -0.0042
   68DMF     O1 1298   1.096   3.190   0.876  0.0651  0.1729  0.3715
   68DMF     H1 1299   1.137   3.013   0.571  0.9766 -1.6135  1.0779
   68DMF     H2 1300   1.219   3.172   0.543 -1.4338 -2.4735 -2.3592
   68DMF     H3 1301   1.070   3.160   0.643  2.0794  1.8798  0.7005
   68DMF     H4 1302   1.319   2.909   0.734  0.2337 -0.0248 -1.6888
   68DMF     H5 1303   1.435   3.025   0.799  0.3807  0.7559 -0.2585
   68DMF     H6 1304   1.407   3.009   0.618 -1.0947  1.3403 -1.2631
   68DMF     H7 1305   1.255   3.090   0.951  2.9487  0.0284 -1.4257
   69DMF     C1 1306   0.630   1.625   1.287  0.3502  0.1832  0.1912
   69DMF     N1 1307   0.617   1.620   1.436 -0.4519  0.1557  0.5018
   69DMF     C2 1308   0.478   1.593   1.493 -0.2929 -0.0232  0.7882
   69DMF     C3 1309   0.720   1.621   1.522 -0.4168  0.7367 -0.0237
   69DMF     O1 1310   0.832   1.649   1.487  0.1975 -0.1010  0.2315
   69DMF     H1 1311   0.736   1.607   1.263  0.4770 -0.5443  1.2553
   69DMF     H2 1312   0.616   1.729   1.253 -1.4577 -0.5791 -1.5047
   69DMF     H3 1313   0.574   1.554   1.225  1.5543 -0.3841 -0.2625
   69DMF     H4 1314   0.473   1.629   1.596 -1.3215  0.0065  0.7264
   69DMF     H5 1315   0.455   1.486   1.502  0.9069 -0.3299  0.4292
   69DMF     H6 1316   0.403   1.648   1.435 -1.6573 -0.7404  1.8724
   69DMF     H7 1317   0.688   1.597   1.625 -0.3374  0.8193  0.0211
   70DMF     C1 1318   0.190   2.842   1.568  0.0974  0.4145  0.6519
   70DMF     N1 1319   0.304   2.936   1.560 -0.2530 -0.8583  0.0568
   70DMF     C2 1320   0.282   3.078   1.564 -0.0728 -0.5813  0.0113
   70DMF     C3 1321   0.433   2.876   1.568 -0.4249  0.0177 -0.9947
   70DMF     O1 1322   0.445   2.757   1.563  0.0268 -0.4783  0.2398
   70DMF     H1 1323   0.107   2.904   1.605 -0.6641 -0.7984  0.9762
   70DMF     H2 1324   0.204   2.763   1.643 -2.4912 -0.2002  0.5416
   70DMF     H3 1325   0.152   2.804   1.472  0.8087 -1.5253  1.1242
   70DMF     H4 1326   0.241   3.112   1.468 -1.1628  0.3852  0.8010
   70DMF     H5 1327   0.381   3.121   1.582  0.0584  0.0164 -1.9841
   70DMF     H6 1328   0.211   3.104   1.643  0.1343 -0.1936  0.0668
   70DMF     H7 1329   0.516   2.945   1.590 -0.2374  0.3596 -2.7131
   71DMF     C1 1330   1.682   1.182   1.523 -1.1091 -0.3233  0.0208
   71DMF     N1 1331   1.751   1.316   1.524  0.3131  0.4828 -0.9534
   71DMF     C2 1332   1.897   1.313   1.499  1.2082  0.1633 -0.2229
   71DMF     C3 1333   1.685   1.436   1.538  0.4663 -0.0685  0.1275
   71DMF     O1 1334   1.564   1.447   1.568  0.2487 -0.2970 -0.1187
   71DMF     H1 1335   1.633   1.168   1.425  1.5954 -2.1816 -1.1135
   71DMF     H2 1336   1.607   1.182   1.603 -0.9709  0.9384  0.1590
   71DMF     H3 1337   1.760   1.107   1.538  1.9122  2.7139  0.0891
   71DMF     H4 1338   1.930   1.400   1.441 -2.1396 -0.1640 -2.7148
   71DMF     H5 1339   1.917   1.219   1.447 -0.2681 -0.0703 -0.3653
   71DMF     H6 1340   1.941   1.318   1.600 -1.6674  2.2384  1.0094
   71DMF     H7 1341   1.750   1.525   1.524 -1.1618  1.3835  1.5909
   72DMF     C1 1342   2.088   2.858   1.545 -0.4105  0.7637  0.4745
   72DMF     N1 1343   1.961   2.935   1.560  0.1735  0.3461 -0.1837
   72DMF     C2 1344   1.951   3.083   1.582 -0.2824 -0.0550 -0.6431
   72DMF     C3 1345   1.841   2.869   1.545  0.2301 -0.0267  0.2024
   72DMF     O1 1346   1.831   2.746   1.543  0.3015  0.2583 -0.2992
   72DMF     H1 1347   2.108   2.801   1.637 -0.9882  0.1396  0.2136
   72DMF     H2 1348   2.175   2.920   1.517  2.1844 -3.7605 -1.9968
   72DMF     H3 1349   2.069   2.781   1.469  1.5269  1.5831 -0.8866
   72DMF     H4 1350   1.856   3.102   1.633  0.3277 -0.0444  0.5165
   72DMF     H5 1351   1.958   3.126   1.482 -0.4687 -0.0662 -0.6609
   72DMF     H6 1352   2.045   3.113   1.631  0.4340 -0.8734 -1.4854
   72DMF     H7 1353   1.758   2.937   1.520 -0.7990 -0.3942  2.5026
   73DMF     C1 1354   0.191   1.867   1.585  0.4384 -0.3505 -0.2649
   73DMF     N1 1355   0.278   1.984   1.570  0.4200 -0.2446  0.4986
   73DMF     C2 1356   0.421   1.968   1.558  0.8700  0.5018 -0.3609
   73DMF     C3 1357   0.227   2.115   1.534 -0.2436 -0.6538 -0.4072
   73DMF     O1 1358   0.107   2.141   1.538  0.0906  0.1838  0.1025
   73DMF     H1 1359   0.107   1.897   1.648  1.2690  0.6151  0.3976
   73DMF     H2 1360   0.243   1.777   1.623  3.0845  1.4891  0.6523
   73DMF     H3 1361   0.148   1.833   1.490 -1.6534 -0.0147  0.5453
   73DMF     H4 1362   0.446   1.896   1.637 -2.5080 -1.4250 -0.9256
   73DMF     H5 1363   0.475   2.062   1.571  1.8267  0.1125 -1.4426
   73DMF     H6 1364   0.453   1.920   1.465  0.4727 -2.0707  0.7951
   73DMF     H7 1365   0.302   2.187   1.496 -0.4938  1.1786  2.4053
   74DMF     C1 1366   2.136   1.019   2.780 -0.6533  0.0375  0.4087
   74DMF     N1 1367   2.256   1.007   2.702  0.3161  0.6073  0.2782
   74DMF     C2 1368   2.333   1.124   2.687 -0.5595  0.1461 -0.1874
   74DMF     C3 1369   2.314   0.879   2.672 -0.2781  0.2829 -0.3291
   74DMF     O1 1370   2.262   0.778   2.717  0.4654 -0.4171 -0.9114
   74DMF     H1 1371   2.143   1.088   2.865 -2.8178 -1.7813  2.1287
   74DMF     H2 1372   2.112   0.923   2.827  0.5581  0.2779  1.5636
   74DMF     H3 1373   2.047   1.035   2.719 -0.5185 -2.1045 -0.3706
   74DMF     H4 1374   2.429   1.092   2.645 -0.4290  0.1212  0.1282
   74DMF     H5 1375   2.344   1.175   2.784 -2.9116  1.8921 -0.7834
   74DMF     H6 1376   2.288   1.196   2.617 -1.6784  0.0668  0.4337
   74DMF     H7 1377   2.399   0.867   2.603 -0.4025 -0.1116 -0.4143
   75DMF     C1 1378   2.748   0.704   2.804  0.0310 -0.1842 -0.5109
   75DMF     N1 1379   2.720   0.636   2.681  0.1861  0.1912  0.5264
   75DMF     C2 1380   2.581   0.640   2.639  0.6336  0.8084  0.6745
   75DMF     C3 1381   2.823   0.556   2.622 -0.0613  0.0366 -0.2009
   75DMF     O1 1382   2.931   0.532   2.678  0.0068 -0.1937 -0.3308
   75DMF     H1 1383   2.840   0.761   2.788  0.4772 -1.0881 -1.1971
   75DMF     H2 1384   2.758   0.639   2.893 -2.2614 -0.0542 -0.1370
   75DMF     H3 1385   2.666   0.772   2.830  1.5398  1.2107  0.7609
   75DMF     H4 1386   2.517   0.594   2.715  1.0596  0.3864  0.7821
   75DMF     H5 1387   2.574   0.582   2.546 -1.0523  1.8487  0.1426
   75DMF     H6 1388   2.551   0.745   2.630  1.3631  0.9888  0.2855
   75DMF     H7 1389   2.791   0.499   2.532 -0.1076 -0.3308  0.0496
   76DMF     C1 1390   1.174   0.993   1.191 -0.0625 -0.2846 -0.5887
   76DMF     N1 1391   1.115   1.083   1.087  0.5653 -0.0654 -0.3029
   76DMF     C2 1392   0.975   1.071   1.055  0.7266  0.2332 -0.3637
   76DMF     C3 1393   1.185   1.201   1.051 -0.3155  0.3623 -0.2280
   76DMF     O1 1394   1.302   1.229   1.089  0.5404  0.6171  0.7029
   76DMF     H1 1395   1.108   0.991   1.279 -0.1449  3.5425 -0.4964
   76DMF     H2 1396   1.270   1.032   1.226 -0.7447 -1.0824  2.2892
   76DMF     H3 1397   1.184   0.899   1.136  0.0060 -0.8365  0.3504
   76DMF     H4 1398   0.967   1.013   0.962 -0.5053  1.3331 -0.9607
   76DMF     H5 1399   0.930   1.169   1.033 -1.2160 -0.4076  0.6961
   76DMF     H6 1400   0.928   1.011   1.134  1.4554  0.9295  0.6162
   76DMF     H7 1401   1.124   1.270   0.990 -2.8861 -1.2053  0.4729
   77DMF     C1 1402   2.050   3.432   1.545 -0.6697 -0.2908  0.9960
   77DMF     N1 1403   1.951   3.528   1.496  0.1452  0.0541 -0.0401
   77DMF     C2 1404   1.982   3.677   1.497  0.1756  0.4943  0.9222
   77DMF     C3 1405   1.827   3.479   1.439 -0.7133  0.8717 -0.2598
   77DMF     O1 1406   1.794   3.357   1.439  0.4128 -0.3141  0.5095
   77DMF     H1 1407   2.063   3.435   1.654 -0.4346  0.3791  0.9521
   77DMF     H2 1408   2.144   3.465   1.498 -3.0179  1.6564 -2.5753
   77DMF     H3 1409   2.028   3.330   1.512 -1.2249  0.5930 -1.4748
   77DMF     H4 1410   1.916   3.728   1.569  1.1395  1.6037  1.0388
   77DMF     H5 1411   1.969   3.708   1.392 -0.7702  0.9885  1.1765
   77DMF     H6 1412   2.088   3.690   1.520  0.2858  1.5187 -0.1007
   77DMF     H7 1413   1.771   3.562   1.393 -0.4834  0.8823 -0.5233
   78DMF     C1 1414   3.175   1.192   2.586  0.6391  0.6171 -0.0246
   78DMF     N1 1415   3.251   1.217   2.713  0.1905  0.9337 -0.3178
   78DMF     C2 1416   3.315   1.098   2.781 -0.0526 -0.0966  0.3176
   78DMF     C3 1417   3.281   1.347   2.746  0.7146 -0.2653  0.4524
   78DMF     O1 1418   3.232   1.444   2.689  0.2161 -0.2461 -0.1988
   78DMF     H1 1419   3.222   1.111   2.529 -1.2113 -1.0389  0.7473
   78DMF     H2 1420   3.166   1.284   2.527 -0.3927  0.9426  0.6252
   78DMF     H3 1421   3.069   1.174   2.605  0.7568  0.7838  0.8378
   78DMF     H4 1422   3.416   1.079   2.742 -0.1478  3.0094 -1.6156
   78DMF     H5 1423   3.243   1.017   2.770 -1.0114  1.1162 -2.6330
   78DMF     H6 1424   3.314   1.121   2.889  0.6212  0.1972  0.2692
   78DMF     H7 1425   3.365   1.362   2.816  0.0274 -1.8533  1.6316
   79DMF     C1 1426   2.162   1.421   0.086  0.1233 -0.1985 -0.0683
   79DMF     N1 1427   2.235   1.528   0.014  0.1077  0.1545  0.4584
   79DMF     C2 1428   2.370   1.502  -0.041  0.1025  0.0497 -0.0693
   79DMF     C3 1429   2.183   1.656   0.001  0.0493 -1.0341  0.6638
   79DMF     O1 1430   2.071   1.682   0.042  0.2323 -0.0359  0.1882
   79DMF     H1 1431   2.055   1.435   0.068 -0.2263 -2.9335 -0.3642
   79DMF     H2 1432   2.193   1.416   0.191  1.4368  1.3955 -0.3589
   79DMF     H3 1433   2.200   1.328   0.041  0.6963 -0.2807  0.5779
   79DMF     H4 1434   2.436   1.580  -0.001  0.2387 -1.3162  2.5161
   79DMF     H5 1435   2.361   1.504  -0.150  0.7832  0.3698 -0.1238
   79DMF     H6 1436   2.401   1.403  -0.004 -2.6946 -0.4219  1.1337
   79DMF     H7 1437   2.246   1.728  -0.054  0.6289 -1.3499  0.9113
   80DMF     C1 1438   1.017   1.345   1.553  0.2426 -0.1335  0.7005
   80DMF     N1 1439   1.170   1.364   1.570  0.2424 -0.1068 -0.4588
   80DMF     C2 1440   1.205   1.503   1.595 -0.6376  0.6843 -0.4120
   80DMF     C3 1441   1.267   1.265   1.547  0.2716 -1.0347 -0.3336
   80DMF     O1 1442   1.236   1.151   1.516  0.2101 -0.0888  0.3889
   80DMF     H1 1443   0.992   1.255   1.495 -0.7241 -0.3280  1.4111
   80DMF     H2 1444   0.960   1.426   1.507 -0.7597 -1.3518 -0.2607
   80DMF     H3 1445   0.987   1.336   1.658  2.4972 -1.9067  1.2465
   80DMF     H4 1446   1.300   1.499   1.651 -0.7117 -0.1088 -0.3354
   80DMF     H5 1447   1.131   1.557   1.655 -0.7408 -1.4691  1.5005
   80DMF     H6 1448   1.225   1.546   1.496  1.2590  1.6643  0.3538
   80DMF     H7 1449   1.367   1.309   1.565  0.2812 -0.7486 -1.0371
   81DMF     C1 1450   0.694   1.057   2.565 -0.3735  0.6151 -0.4378
   81DMF     N1 1451   0.828   0.994   2.611  0.2343 -0.4992 -0.6000
   81DMF     C2 1452   0.923   1.079   2.687  0.0653  1.0712  0.4257
   81DMF     C3 1453   0.836   0.859   2.618  0.3508  0.4093 -0.6245
   81DMF     O1 1454   0.772   0.777   2.556 -0.1787 -0.5426  0.0083
   81DMF     H1 1455   0.616   1.042   2.640  2.2365 -1.2988  1.9969
   81DMF     H2 1456   0.649   1.010   2.476  0.4540 -2.5996  0.7659
   81DMF     H3 1457   0.705   1.163   2.537  0.3439  0.1439 -2.0128
   81DMF     H4 1458   1.024   1.045   2.662  0.5600  3.3755 -0.9593
   81DMF     H5 1459   0.900   1.055   2.791 -2.1404  0.3956 -0.1951
   81DMF     H6 1460   0.917   1.189   2.677 -1.3543  0.8551 -1.5527
   81DMF     H7 1461   0.927   0.820   2.669  0.2063  0.3159 -0.4380
   82DMF     C1 1462   0.057   3.343   1.283  0.0513  0.4411 -0.2135
   82DMF     N1 1463   0.135   3.287   1.174  0.2211 -0.6649 -0.2599
   82DMF     C2 1464   0.274   3.266   1.208  0.0681 -0.0949  0.1457
   82DMF     C3 1465   0.082   3.265   1.040  0.3706  0.5779 -0.2806
   82DMF     O1 1466  -0.033   3.297   1.021  0.2471 -0.3315 -0.3134
   82DMF     H1 1467  -0.049   3.322   1.261  0.6052 -1.6120 -1.0764
   82DMF     H2 1468   0.087   3.447   1.304 -0.2411  0.1299  1.8446
   82DMF     H3 1469   0.072   3.274   1.367 -0.9246  0.7896  0.2481
   82DMF     H4 1470   0.300   3.322   1.298  0.7308 -1.3539  0.7510
   82DMF     H5 1471   0.342   3.298   1.127 -0.1578 -0.3674 -0.1540
   82DMF     H6 1472   0.293   3.160   1.226 -0.6921  0.1645  2.5441
   82DMF     H7 1473   0.159   3.222   0.974 -0.2017 -0.8881 -0.0131
   83DMF     C1 1474   1.418   0.633   1.514  0.0024 -0.0403  0.2148
   83DMF     N1 1475   1.381   0.770   1.479 -0.3853 -0.6616  0.1291
   83DMF     C2 1476   1.243   0.817   1.507 -0.0331 -1.5240  0.3065
   83DMF     C3 1477   1.471   0.863   1.446  0.2889  0.5508  0.3179
   83DMF     O1 1478   1.597   0.838   1.447 -0.3100 -0.4958  0.3077
   83DMF     H1 1479   1.469   0.603   1.422  1.0347  0.3152  0.6695
   83DMF     H2 1480   1.332   0.565   1.521  0.1844 -0.6477 -2.9345
   83DMF     H3 1481   1.485   0.628   1.601  0.6675  0.3355 -0.2702
   83DMF     H4 1482   1.229   0.891   1.586  2.1160 -0.4276 -0.3082
   83DMF     H5 1483   1.180   0.729   1.528  0.1704 -1.9010 -0.6463
   83DMF     H6 1484   1.215   0.869   1.415  1.3266 -0.2126  0.6146
   83DMF     H7 1485   1.427   0.961   1.419 -0.7765  0.3039  1.1352
   84DMF     C1 1486   3.192   2.716   0.056  0.3054 -0.6807 -0.8928
   84DMF     N1 1487   3.258   2.646   0.173 -0.3007  0.0853  0.5126
   84DMF     C2 1488   3.408   2.638   0.176  0.3517 -0.2749 -1.2838
   84DMF     C3 1489   3.181   2.575   0.263  0.4758  1.2999 -0.5937
   84DMF     O1 1490   3.056   2.569   0.259 -0.0600 -0.6357  0.4252
   84DMF     H1 1491   3.084   2.728   0.073  0.5971 -0.4857  0.8902
   84DMF     H2 1492   3.205   2.656  -0.034 -1.4096 -4.1187  1.0778
   84DMF     H3 1493   3.225   2.821   0.055 -1.5322 -0.0780 -0.6530
   84DMF     H4 1494   3.439   2.574   0.092  1.6096  0.2719 -1.2422
   84DMF     H5 1495   3.443   2.586   0.266  1.6231 -0.1971 -1.7155
   84DMF     H6 1496   3.451   2.739   0.174 -0.4066  0.0579 -0.9601
   84DMF     H7 1497   3.236   2.535   0.350 -0.9075  2.3196  0.7786
   85DMF     C1 1498   1.678   0.387   1.346 -0.1840 -0.2140 -0.1662
   85DMF     N1 1499   1.767   0.429   1.234  0.2847 -0.4215  1.0365
   85DMF     C2 1500   1.768   0.576   1.200 -0.3834 -0.3324  0.3456
   85DMF     C3 1501   1.852   0.348   1.162 -0.2749  0.0760 -0.0471
   85DMF     O1 1502   1.859   0.228   1.186  0.1713 -0.2001  0.5718
   85DMF     H1 1503   1.740   0.352   1.430  1.3350 -1.4978 -1.7944
   85DMF     H2 1504   1.601   0.314   1.318 -1.3540  0.9655 -0.0742
   85DMF     H3 1505   1.616   0.470   1.381  0.5805  0.2906  0.0030
   85DMF     H4 1506   1.673   0.596   1.147 -0.0631 -1.6155 -0.7214
   85DMF     H5 1507   1.851   0.611   1.137  0.3963 -0.2077  1.4239
   85DMF     H6 1508   1.768   0.641   1.289  0.6211 -0.2075  0.2518
   85DMF     H7 1509   1.914   0.395   1.083  1.5337  1.2710  2.0244
   86DMF     C1 1510   0.496   2.928   1.133 -0.3243 -0.4273  0.0962
   86DMF     N1 1511   0.436   2.891   1.000 -0.4310 -0.1574 -0.4298
   86DMF     C2 1512   0.507   2.799   0.909 -0.3649 -0.1118 -0.0216
   86DMF     C3 1513   0.297   2.925   0.981  0.0109 -0.2586  0.1629
   86DMF     O1 1514   0.239   2.995   1.063  0.2791  0.2468 -0.1893
   86DMF     H1 1515   0.590   2.872   1.142 -0.0659  0.0940  0.6660
   86DMF     H2 1516   0.433   2.892   1.215 -1.3015 -0.0719 -0.4896
   86DMF     H3 1517   0.525   3.032   1.153 -2.4827  0.5052 -1.4601
   86DMF     H4 1518   0.605   2.842   0.882  0.7764 -2.1095  0.7866
   86DMF     H5 1519   0.450   2.789   0.816  1.3250  0.1992 -1.1276
   86DMF     H6 1520   0.508   2.698   0.953 -1.9700 -0.0254  0.2360
   86DMF     H7 1521   0.252   2.880   0.892 -0.2884  1.1897 -0.4340
   87DMF     C1 1522   3.261   3.123   1.562 -0.4498  0.3456  0.3178
   87DMF     N1 1523   3.158   3.021   1.564 -0.5676 -0.4544 -0.3888
   87DMF     C2 1524   3.198   2.877   1.565 -0.4672  0.1861  0.5747
   87DMF     C3 1525   3.023   3.053   1.571  0.4540  0.2429  0.0728
   87DMF     O1 1526   2.988   3.173   1.573  0.1103 -0.4930 -0.2991
   87DMF     H1 1527   3.232   3.199   1.634 -0.8421  0.4632  0.0384
   87DMF     H2 1528   3.268   3.169   1.462  0.3151  2.7685  1.4638
   87DMF     H3 1529   3.361   3.091   1.594  0.2816 -0.4888 -2.6089
   87DMF     H4 1530   3.195   2.824   1.470 -0.4048 -0.0155  0.6849
   87DMF     H5 1531   3.128   2.834   1.639 -0.1139 -1.7011 -0.1533
   87DMF     H6 1532   3.295   2.862   1.613 -0.3043 -0.3990  0.0676
   87DMF     H7 1533   2.956   2.966   1.565  0.2158  0.5416 -2.1052
   88DMF     C1 1534   3.352   3.237   3.497 -0.1202  0.7457  0.0387
   88DMF     N1 1535   3.371   3.203   3.636  0.2929 -0.2333 -0.1257
   88DMF     C2 1536   3.347   3.300   3.738 -0.8970  0.4662 -0.8106
   88DMF     C3 1537   3.370   3.069   3.666 -0.4341  0.1968  0.9192
   88DMF     O1 1538   3.370   2.978   3.582 -0.2737 -0.3318  0.1940
   88DMF     H1 1539   3.250   3.236   3.457  0.0537 -0.2560 -0.3947
   88DMF     H2 1540   3.412   3.175   3.429  0.2052  2.2053 -1.0390
   88DMF     H3 1541   3.393   3.335   3.467  0.1743  0.8618  0.8126
   88DMF     H4 1542   3.278   3.249   3.807 -0.3949 -1.2658 -1.5556
   88DMF     H5 1543   3.307   3.392   3.694  0.0276  1.8840  1.2265
   88DMF     H6 1544   3.437   3.319   3.797 -0.5055 -0.7493 -1.0088
   88DMF     H7 1545   3.364   3.045   3.774 -1.3813  0.5961  0.9595
   89DMF     C1 1546   2.223   0.664   0.190 -0.3864 -0.3279  0.8938
   89DMF     N1 1547   2.129   0.565   0.145 -0.2508  0.4302  0.1504
   89DMF     C2 1548   2.071   0.574   0.004 -1.0562  0.8043 -0.5218
   89DMF     C3 1549   2.118   0.443   0.213  0.1308 -0.7818 -0.0293
   89DMF     O1 1550   2.180   0.416   0.311  0.3125  0.4087 -0.4386
   89DMF     H1 1551   2.198   0.756   0.136 -1.0019 -1.5071 -0.8679
   89DMF     H2 1552   2.316   0.622   0.148 -0.6748  0.4332 -0.5444
   89DMF     H3 1553   2.220   0.680   0.298 -0.5384  0.3597  0.7902
   89DMF     H4 1554   2.056   0.471  -0.030  2.0154 -0.0513  0.5076
   89DMF     H5 1555   2.132   0.632  -0.067  1.5082 -1.1601  0.0051
   89DMF     H6 1556   1.972   0.621   0.004 -1.6194 -0.3781 -0.2695
   89DMF     H7 1557   2.049   0.365   0.176  1.6255 -1.4333 -1.4756
   90DMF     C1 1558   0.818   2.826   1.502  0.5896 -0.0439 -0.0115
   90DMF     N1 1559   0.860   2.693   1.545  0.1462  0.7568  0.7584
   90DMF     C2 1560   0.761   2.578   1.564  0.3350  0.2878  0.3769
   90DMF     C3 1561   0.994   2.673   1.582 -0.1395 -0.0209  0.8330
   90DMF     O1 1562   1.076   2.762   1.578 -0.3907  0.5495  0.2126
   90DMF     H1 1563   0.860   2.902   1.569  1.5420 -1.3653  0.9013
   90DMF     H2 1564   0.708   2.832   1.501  0.5831  0.0475  1.0482
   90DMF     H3 1565   0.853   2.845   1.400 -1.3045 -0.8734 -0.8401
   90DMF     H4 1566   0.673   2.613   1.620 -1.0904  0.9579 -2.2074
   90DMF     H5 1567   0.797   2.495   1.626  3.3652  0.5092 -1.0036
   90DMF     H6 1568   0.739   2.537   1.465 -1.4200 -0.8969  1.2191
   90DMF     H7 1569   1.021   2.568   1.603 -0.9336 -0.5265 -0.6152
   91DMF     C1 1570   2.922   0.874   3.759 -0.2295 -0.1443 -0.5594
   91DMF     N1 1571   3.031   0.865   3.666  0.8142  0.6761 -0.4038
   91DMF     C2 1572   3.078   0.981   3.600  0.0901 -0.8365 -0.0710
   91DMF     C3 1573   3.098   0.744   3.656  0.4053 -0.3886  0.0763
   91DMF     O1 1574   3.076   0.642   3.720 -0.2846  0.0574 -0.6395
   91DMF     H1 1575   2.827   0.863   3.705 -0.2662 -0.3472 -0.4534
   91DMF     H2 1576   2.911   0.976   3.797 -0.2157 -0.5325  0.5062
   91DMF     H3 1577   2.927   0.809   3.847  0.9859  0.3051 -0.2858
   91DMF     H4 1578   3.046   0.976   3.496  0.7620  1.8919 -0.4469
   91DMF     H5 1579   3.188   0.980   3.605  0.1555  1.1652 -0.7132
   91DMF     H6 1580   3.043   1.074   3.648  2.8751  2.0764 -3.4308
   91DMF     H7 1581   3.181   0.744   3.582  0.1150  1.8388 -0.2780
   92DMF     C1 1582   3.057   0.429   0.643  0.3330  0.7308  0.3886
   92DMF     N1 1583   3.200   0.446   0.685  0.4601 -0.3368 -0.0537
   92DMF     C2 1584   3.277   0.322   0.669 -0.7611 -0.1950 -0.6676
   92DMF     C3 1585   3.250   0.548   0.767 -0.0223 -0.6597  0.1758
   92DMF     O1 1586   3.180   0.644   0.795  0.1615 -0.2409 -0.0987
   92DMF     H1 1587   3.009   0.368   0.720  0.4159 -0.2460 -0.3112
   92DMF     H2 1588   3.061   0.375   0.547  0.7235 -0.2284  0.9399
   92DMF     H3 1589   3.005   0.524   0.631  0.1911  0.4664 -1.2954
   92DMF     H4 1590   3.263   0.273   0.572  0.4109 -1.7338 -0.1011
   92DMF     H5 1591   3.261   0.252   0.752  0.9512 -0.9106 -0.9200
   92DMF     H6 1592   3.380   0.357   0.683 -0.5201 -1.2616  0.3628
   92DMF     H7 1593   3.359   0.545   0.784 -0.0631  1.1802  0.7801
   93DMF     C1 1594   0.976   3.420   1.182 -0.2970  0.9040  0.1216
   93DMF     N1 1595   1.103   3.355   1.196 -0.0091 -0.3101 -0.8037
   93DMF     C2 1596   1.099   3.211   1.232 -0.4856 -0.3409  0.5042
   93DMF     C3 1597   1.221   3.401   1.152 -0.0932  0.1721 -0.2253
   93DMF     O1 1598   1.251   3.512   1.105 -0.2360  0.8228  0.3593
   93DMF     H1 1599   0.971   3.453   1.078 -1.6223 -1.4471 -0.6034
   93DMF     H2 1600   0.952   3.500   1.253 -1.2911  0.3134  0.4592
   93DMF     H3 1601   0.898   3.345   1.199  0.2420  0.2506 -0.2723
   93DMF     H4 1602   1.009   3.175   1.283 -0.0193 -0.8531  0.9811
   93DMF     H5 1603   1.193   3.187   1.284  0.0286  0.9621  0.2015
   93DMF     H6 1604   1.107   3.150   1.141 -4.2130  0.1644 -0.2489
   93DMF     H7 1605   1.304   3.328   1.154 -0.6467 -0.5821 -2.7456
   94DMF     C1 1606   3.167   2.539   0.861  0.1549  0.4871  0.7801
   94DMF     N1 1607   3.118   2.396   0.829 -0.3605 -0.1057  0.1348
   94DMF     C2 1608   3.089   2.356   0.692  0.0940 -0.4813 -0.0461
   94DMF     C3 1609   3.101   2.308   0.936 -0.3824  0.1021 -0.1048
   94DMF     O1 1610   3.104   2.343   1.049  0.2071 -0.2588 -0.5917
   94DMF     H1 1611   3.136   2.611   0.784  2.5126  0.9686  0.2335
   94DMF     H2 1612   3.276   2.530   0.862  0.2850  1.8091 -0.0296
   94DMF     H3 1613   3.131   2.568   0.960  0.5137  3.5716  0.0681
   94DMF     H4 1614   2.984   2.329   0.674 -0.2138  1.2956 -0.9922
   94DMF     H5 1615   3.156   2.270   0.678  1.6274  0.7748 -0.6369
   94DMF     H6 1616   3.126   2.436   0.627  0.1231  1.8508  2.8047
   94DMF     H7 1617   3.093   2.202   0.904 -0.5482  0.0237  0.2013
   95DMF     C1 1618   1.389   1.904   0.957  0.3370 -0.2783 -0.4921
   95DMF     N1 1619   1.529   1.860   0.976 -0.3349 -0.4367 -0.1282
   95DMF     C2 1620   1.594   1.787   0.865  1.0487 -0.7117 -0.0056
   95DMF     C3 1621   1.613   1.913   1.077 -0.3831 -0.3930  0.1324
   95DMF     O1 1622   1.574   1.991   1.161 -0.1947 -0.4347  0.8454
   95DMF     H1 1623   1.395   2.004   0.912 -1.9804  0.2368  0.2784
   95DMF     H2 1624   1.333   1.906   1.052  2.4275 -0.3096  0.7650
   95DMF     H3 1625   1.340   1.832   0.890  2.2220  0.0701 -2.2738
   95DMF     H4 1626   1.554   1.816   0.767  0.1420 -0.9904  0.2733
   95DMF     H5 1627   1.579   1.678   0.868 -1.4698 -0.3973  0.7480
   95DMF     H6 1628   1.702   1.804   0.870  0.7611  0.9271  0.8887
   95DMF     H7 1629   1.716   1.872   1.076 -0.0819  0.3599  0.2685
   96DMF     C1 1630   0.313   2.446   0.454  0.6859 -0.1684  0.1368
   96DMF     N1 1631   0.425   2.351   0.424 -0.2762  0.3884 -0.1453
   96DMF     C2 1632   0.545   2.404   0.353 -0.3767  0.5016  0.2625
   96DMF     C3 1633   0.394   2.217   0.422 -0.1439  0.2346 -0.6199
   96DMF     O1 1634   0.287   2.173   0.459  0.3869  0.4564  0.4480
   96DMF     H1 1635   0.293   2.464   0.560 -1.1595  2.9706 -0.6559
   96DMF     H2 1636   0.218   2.417   0.407 -0.2877  4.2238 -0.9401
   96DMF     H3 1637   0.347   2.540   0.409  1.6197 -0.8256 -0.5474
   96DMF     H4 1638   0.541   2.414   0.244  2.8462 -0.4128  0.0303
   96DMF     H5 1639   0.626   2.330   0.351 -1.3808 -0.6031 -0.6557
   96DMF     H6 1640   0.582   2.494   0.403 -1.6764  1.6435 -0.7682
   96DMF     H7 1641   0.479   2.156   0.389 -0.5352  1.1519 -3.4881
   97DMF     C1 1642   0.374   0.230   1.587 -0.7839 -0.0928  0.2947
   97DMF     N1 1643   0.238   0.188   1.550  0.3582 -0.3230  0.0560
   97DMF     C2 1644   0.137   0.288   1.528 -0.1360 -0.0538 -0.2586
   97DMF     C3 1645   0.195   0.050   1.563  0.3902  0.1749  1.0658
   97DMF     O1 1646   0.264  -0.048   1.591 -0.0374  0.2876  0.4395
   97DMF     H1 1647   0.428   0.156   1.647 -0.1179 -0.2698 -0.5096
   97DMF     H2 1648   0.371   0.332   1.629 -0.2218  0.2501 -0.4774
   97DMF     H3 1649   0.417   0.234   1.487  0.8370 -4.0424  0.7584
   97DMF     H4 1650   0.111   0.347   1.617 -1.7814  0.8879 -1.3262
   97DMF     H5 1651   0.036   0.255   1.502 -0.5051  0.3656  0.6402
   97DMF     H6 1652   0.174   0.352   1.447  1.7624 -1.5873 -0.6364
   97DMF     H7 1653   0.086   0.049   1.541  0.5991 -1.0656  0.0941
   98DMF     C1 1654   2.535   1.480   1.529 -0.0278  0.1071  0.2992
   98DMF     N1 1655   2.650   1.523   1.446  0.0208  0.6242  0.2620
   98DMF     C2 1656   2.710   1.652   1.474  0.3463 -0.5360 -0.6571
   98DMF     C3 1657   2.684   1.454   1.323 -0.5420 -0.0253 -0.2563
   98DMF     O1 1658   2.630   1.345   1.304 -0.0377 -0.1473  0.7157
   98DMF     H1 1659   2.568   1.406   1.603  1.4541  0.4157 -0.0365
   98DMF     H2 1660   2.449   1.458   1.464  0.6195 -0.0946 -0.4945
   98DMF     H3 1661   2.506   1.567   1.589 -0.0918 -0.5172  1.1885
   98DMF     H4 1662   2.628   1.723   1.490  0.1899 -0.5010 -1.5479
   98DMF     H5 1663   2.768   1.682   1.385 -0.7996  1.0330 -0.9010
   98DMF     H6 1664   2.768   1.647   1.566 -0.0392 -0.5600 -0.4145
   98DMF     H7 1665   2.760   1.507   1.263  2.9216 -2.6729  1.6395
   99DMF     C1 1666   2.637   1.476   0.309  0.6992  0.3078 -0.0218
   99DMF     N1 1667   2.599   1.601   0.381  0.9428 -0.3812  0.7729
   99DMF     C2 1668   2.580   1.588   0.528  0.2240 -0.1569  0.5624
   99DMF     C3 1669   2.587   1.726   0.318 -0.0897 -0.1090  0.2049
   99DMF     O1 1670   2.609   1.742   0.196 -0.0433 -0.3220  0.2752
   99DMF     H1 1671   2.567   1.454   0.227 -0.2697  1.8234  0.3872
   99DMF     H2 1672   2.635   1.389   0.376  1.8364 -0.7926 -1.3691
   99DMF     H3 1673   2.741   1.491   0.278  0.7360  2.5584  1.1182
   99DMF     H4 1674   2.477   1.559   0.552  0.3980  0.0823  1.6117
   99DMF     H5 1675   2.605   1.686   0.570 -1.0324  0.5560 -0.3129
   99DMF     H6 1676   2.644   1.514   0.577  0.5262 -0.2060  0.1022
   99DMF     H7 1677   2.541   1.803   0.382 -1.9244 -1.4328  0.5279
  100DMF     C1 1678   2.515   2.669   2.717  0.9894  0.1311  0.5111
  100DMF     N1 1679   2.486   2.523   2.723  0.5782 -0.3927  0.1575
  100DMF     C2 1680   2.448   2.454   2.601 -0.2262 -0.3367 -0.2197
  100DMF     C3 1681   2.491   2.456   2.849 -0.2014  0.4164 -0.5601
  100DMF     O1 1682   2.549   2.502   2.948  0.8325  0.2952 -0.0373
  100DMF     H1 1683   2.584   2.707   2.793  4.0704 -1.7278 -1.2483
  100DMF     H2 1684   2.416   2.714   2.732  1.2999  1.6529 -1.7579
  100DMF     H3 1685   2.556   2.692   2.618  1.9091 -1.2287  0.5611
  100DMF     H4 1686   2.342   2.478   2.581 -0.1466  0.8128  0.7228
  100DMF     H5 1687   2.463   2.345   2.608  2.0521 -0.1110 -1.4783
  100DMF     H6 1688   2.514   2.477   2.517 -0.6970 -0.8546 -0.7445
  100DMF     H7 1689   2.470   2.348   2.844  0.8914  0.1562  0.3534
  101DMF     C1 1690   1.842   2.218   2.873 -0.1910  0.3005  0.4361
  101DMF     N1 1691   1.891   2.308   2.772  0.1561 -0.5059 -0.0802
  101DMF     C2 1692   1.931   2.442   2.821  0.5043 -0.2593 -0.2838
  101DMF     C3 1693   1.913   2.264   2.644  0.4995 -0.4306 -0.2395
  101DMF     O1 1694   1.899   2.141   2.618  0.5006  0.3894 -0.2775
  101DMF     H1 1695   1.794   2.135   2.820 -2.2779  0.9536  1.2432
  101DMF     H2 1696   1.773   2.272   2.939 -1.6914 -1.3615  0.2651
  101DMF     H3 1697   1.931   2.179   2.924  0.2828 -0.6329 -1.0813
  101DMF     H4 1698   1.912   2.516   2.742 -4.1845  0.0933  1.0277
  101DMF     H5 1699   2.035   2.440   2.854  1.1641 -0.5775 -2.3524
  101DMF     H6 1700   1.855   2.461   2.898 -0.1835  2.1394 -1.5064
  101DMF     H7 1701   1.969   2.340   2.586  0.8089  0.8076  1.6322
  102DMF     C1 1702   2.729   0.720   1.409  0.0132  0.6328 -0.0650
  102DMF     N1 1703   2.721   0.626   1.513  0.2512 -0.5454 -0.0033
  102DMF     C2 1704   2.590   0.561   1.545 -0.0472 -0.0645  0.2467
  102DMF     C3 1705   2.835   0.575   1.574  0.4435  0.3617 -0.1384
  102DMF     O1 1706   2.945   0.615   1.547  0.3726  0.3595  0.2715
  102DMF     H1 1707   2.642   0.718   1.342 -1.2127 -0.7343  1.5442
  102DMF     H2 1708   2.820   0.704   1.350 -0.1085  0.0962 -0.1082
  102DMF     H3 1709   2.742   0.820   1.453  0.1269  0.2863  0.6872
  102DMF     H4 1710   2.530   0.639   1.593  2.5955  0.8311  2.2305
  102DMF     H5 1711   2.597   0.476   1.614  0.1116  0.3568  0.7569
  102DMF     H6 1712   2.543   0.528   1.452 -1.7508 -0.2031  1.1420
  102DMF     H7 1713   2.811   0.494   1.646 -2.5370  1.6745  0.4409
  103DMF     C1 1714   3.146   1.797   0.743  0.4030 -0.0543 -0.1396
  103DMF     N1 1715   3.245   1.743   0.654 -0.2593  0.1131  0.2636
  103DMF     C2 1716   3.252   1.791   0.517  0.0396 -0.5307  1.0742
  103DMF     C3 1717   3.348   1.663   0.705 -0.1671 -0.6717  0.5585
  103DMF     O1 1718   3.352   1.630   0.825 -0.4849  0.2914  0.7109
  103DMF     H1 1719   3.140   1.905   0.723 -2.5023 -0.3192 -0.8594
  103DMF     H2 1720   3.183   1.794   0.847  0.1535 -1.5050 -0.0778
  103DMF     H3 1721   3.051   1.750   0.715  1.3581 -1.8846 -0.3383
  103DMF     H4 1722   3.234   1.709   0.446  0.8207 -0.6497  1.0027
  103DMF     H5 1723   3.348   1.832   0.483  0.3098 -1.5724  0.5282
  103DMF     H6 1724   3.171   1.857   0.485  1.3552  0.9023  0.6911
  103DMF     H7 1725   3.417   1.625   0.627  0.1544  1.3530 -0.1755
  104DMF     C1 1726   1.363   1.903   2.979 -0.4803 -0.1332 -0.1199
  104DMF     N1 1727   1.418   2.035   3.000 -0.1388  0.3986 -0.0214
  104DMF     C2 1728   1.451   2.069   3.136 -0.1429  0.1295 -0.6457
  104DMF     C3 1729   1.409   2.134   2.899 -0.4425  0.1485  0.2510
  104DMF     O1 1730   1.372   2.102   2.786 -0.5378 -0.2515 -0.5032
  104DMF     H1 1731   1.297   1.873   3.061 -4.1943  1.2307 -2.4957
  104DMF     H2 1732   1.442   1.831   2.956  0.8644  1.2707  0.0342
  104DMF     H3 1733   1.295   1.904   2.893 -1.9135 -0.5077  0.9921
  104DMF     H4 1734   1.467   1.978   3.195  0.2299 -0.0797 -1.0662
  104DMF     H5 1735   1.386   2.149   3.174  0.0760  0.5815 -1.2148
  104DMF     H6 1736   1.552   2.111   3.121  0.2884 -0.4966  0.4893
  104DMF     H7 1737   1.460   2.229   2.924  0.6000 -0.6690  1.2484
  105DMF     C1 1738   0.775   0.316   2.726  0.1538 -0.5269  0.0586
  105DMF     N1 1739   0.777   0.260   2.591 -0.3835 -0.4433  0.7391
  105DMF     C2 1740   0.648   0.203   2.546  0.0763 -0.4664 -0.2566
  105DMF     C3 1741   0.880   0.276   2.498  0.1869  0.1675 -0.4289
  105DMF     O1 1742   0.982   0.332   2.531 -0.2778 -0.6158 -0.1430
  105DMF     H1 1743   0.865   0.289   2.782 -0.5626  1.5822  2.3292
  105DMF     H2 1744   0.683   0.285   2.778  0.6298  0.8533  1.8020
  105DMF     H3 1745   0.761   0.425   2.726  1.0447 -0.4035 -0.4081
  105DMF     H4 1746   0.573   0.217   2.625  0.6504 -0.0541  0.2118
  105DMF     H5 1747   0.652   0.093   2.539  3.6883 -0.5510  2.3157
  105DMF     H6 1748   0.625   0.253   2.451 -0.5673  0.2757  0.2848
  105DMF     H7 1749   0.858   0.218   2.407 -1.9010  0.1510  0.0655
  106DMF     C1 1750   0.085   1.664   3.764  0.0263 -0.4192 -0.3969
  106DMF     N1 1751   0.221   1.671   3.817  0.3047  0.4568 -0.5630
  106DMF     C2 1752   0.279   1.807   3.848 -1.3358 -0.0909  0.3978
  106DMF     C3 1753   0.306   1.556   3.833  0.0014 -0.3365 -0.0645
  106DMF     O1 1754   0.269   1.441   3.805  0.0302  1.0043 -0.3474
  106DMF     H1 1755   0.081   1.727   3.674  1.4062 -1.7865 -1.4578
  106DMF     H2 1756   0.018   1.712   3.837 -0.7179 -1.3295 -0.4701
  106DMF     H3 1757   0.062   1.558   3.746  2.1721 -1.1260  0.8162
  106DMF     H4 1758   0.200   1.879   3.876  0.3557  0.7842  3.1514
  106DMF     H5 1759   0.327   1.856   3.763  0.0191 -2.5419 -0.2844
  106DMF     H6 1760   0.346   1.809   3.935  2.3884  0.8561 -2.3844
  106DMF     H7 1761   0.409   1.584   3.860 -1.2477  2.0556  2.4532
  107DMF     C1 1762   1.498   0.962   2.311  0.1882  0.7466  0.3104
  107DMF     N1 1763   1.629   1.023   2.267 -0.1970 -0.0409 -0.1768
  107DMF     C2 1764   1.630   1.168   2.253  0.3373 -0.4592  0.5374
  107DMF     C3 1765   1.729   0.947   2.206  0.1305  0.8633  0.4651
  107DMF     O1 1766   1.720   0.821   2.204 -0.2096 -0.0038  0.3494
  107DMF     H1 1767   1.417   1.032   2.334 -0.7602 -0.7915  1.7022
  107DMF     H2 1768   1.510   0.893   2.395  0.1993 -0.5337 -0.7258
  107DMF     H3 1769   1.479   0.897   2.225  0.2022 -0.5094  1.2424
  107DMF     H4 1770   1.540   1.205   2.204  0.1728 -1.9501 -0.3349
  107DMF     H5 1771   1.711   1.197   2.185 -0.4455 -1.5736 -0.8858
  107DMF     H6 1772   1.639   1.212   2.353  2.1692 -1.3674  0.8090
  107DMF     H7 1773   1.817   1.008   2.181 -0.7843  0.7312 -3.3096
  108DMF     C1 1774   1.043   1.779   0.880 -0.2345 -0.4413  0.0363
  108DMF     N1 1775   0.930   1.711   0.805 -0.1904  0.0666  0.1365
  108DMF     C2 1776   0.817   1.668   0.891  0.0458  0.3189 -0.5964
  108DMF     C3 1777   0.938   1.667   0.674 -0.1114  0.2120  0.1099
  108DMF     O1 1778   1.042   1.686   0.610 -0.0184 -0.2755  0.1536
  108DMF     H1 1779   1.005   1.842   0.961 -0.3132 -0.3759 -0.0515
  108DMF     H2 1780   1.102   1.834   0.805  0.0863  2.4404  2.2951
  108DMF     H3 1781   1.112   1.707   0.926  0.1979 -0.3114 -0.4009
  108DMF     H4 1782   0.789   1.564   0.867 -1.5688  0.3924  0.8244
  108DMF     H5 1783   0.730   1.730   0.868  0.0612 -0.0372 -1.6237
  108DMF     H6 1784   0.855   1.667   0.994  1.4035 -2.3695 -1.0561
  108DMF     H7 1785   0.849   1.605   0.652 -0.9206  0.8779  1.4613
  109DMF     C1 1786   1.819   3.073   1.189  0.1076  0.3381  0.5646
  109DMF     N1 1787   1.960   3.121   1.188 -0.1074 -0.3847  0.5938
  109DMF     C2 1788   1.984   3.271   1.189  0.0745 -0.0443  0.1303
  109DMF     C3 1789   2.067   3.026   1.197  0.1417 -0.2961 -0.0655
  109DMF     O1 1790   2.053   2.904   1.200 -0.0694  0.5840 -0.2313
  109DMF     H1 1791   1.747   3.156   1.184 -0.1582 -0.0088 -2.0076
  109DMF     H2 1792   1.793   3.022   1.282  0.2637 -1.3610 -0.3037
  109DMF     H3 1793   1.817   3.001   1.106 -1.0852  1.7851 -0.6923
  109DMF     H4 1794   2.044   3.301   1.276  0.6731 -0.9622  0.0393
  109DMF     H5 1795   1.887   3.322   1.187  0.7436  1.2032 -2.9749
  109DMF     H6 1796   2.048   3.296   1.104 -1.7392  2.4188 -0.5699
  109DMF     H7 1797   2.165   3.075   1.182 -0.0091  0.0106 -0.0655
  110DMF     C1 1798   1.808   2.189   0.634  0.3881 -0.2443  0.3531
  110DMF     N1 1799   1.662   2.175   0.613  0.9389 -0.0308 -1.1560
  110DMF     C2 1800   1.576   2.104   0.712 -0.6226  0.1634 -0.4881
  110DMF     C3 1801   1.621   2.183   0.478  0.3086 -0.1234 -0.1270
  110DMF     O1 1802   1.685   2.212   0.378  0.2599 -0.3884 -0.4630
  110DMF     H1 1803   1.857   2.092   0.625  1.7441  0.5635 -1.3924
  110DMF     H2 1804   1.828   2.223   0.737 -2.2674  0.6903  0.5847
  110DMF     H3 1805   1.856   2.264   0.569 -0.3280  0.6228  0.8077
  110DMF     H4 1806   1.645   2.077   0.793 -1.9635 -0.1028  0.5802
  110DMF     H5 1807   1.538   2.016   0.658  0.7012 -0.5232 -0.3151
  110DMF     H6 1808   1.494   2.165   0.753  0.9072  0.3164  2.5083
  110DMF     H7 1809   1.518   2.142   0.470  0.3926  0.1417 -3.4747
  111DMF     C1 1810   0.483   2.881   0.293  0.0828 -0.1908  0.2101
  111DMF     N1 1811   0.372   2.843   0.207 -0.4201  0.4433  0.7862
  111DMF     C2 1812   0.305   2.956   0.144 -0.2265  0.1693  0.5182
  111DMF     C3 1813   0.372   2.725   0.128  0.4823  0.4292 -0.0421
  111DMF     O1 1814   0.465   2.640   0.143 -0.2040 -0.1185 -0.2251
  111DMF     H1 1815   0.438   2.910   0.389 -0.2309  2.6715 -0.7673
  111DMF     H2 1816   0.536   2.970   0.257 -3.0514  1.1796 -1.2086
  111DMF     H3 1817   0.547   2.797   0.324  1.1229  0.0860 -1.1728
  111DMF     H4 1818   0.357   3.050   0.166  1.4408 -0.3105 -1.1843
  111DMF     H5 1819   0.201   2.943   0.175  0.4232 -1.0954  2.2234
  111DMF     H6 1820   0.311   2.938   0.036  1.1952 -0.5992  0.7074
  111DMF     H7 1821   0.286   2.715   0.060  0.3592  0.2529  0.1405
  112DMF     C1 1822   2.457   2.761   1.554  0.4362  0.6086 -0.2903
  112DMF     N1 1823   2.580   2.682   1.552  0.0012  0.6617  0.0817
  112DMF     C2 1824   2.563   2.541   1.561 -0.3284 -0.1632 -0.1375
  112DMF     C3 1825   2.704   2.737   1.561  0.1129 -0.8450  0.4902
  112DMF     O1 1826   2.733   2.856   1.574  0.5601 -0.0909 -0.3585
  112DMF     H1 1827   2.425   2.789   1.452 -0.1548 -0.3677 -0.3725
  112DMF     H2 1828   2.478   2.849   1.616 -0.3806 -0.1999  1.1584
  112DMF     H3 1829   2.369   2.705   1.588  0.0426  0.5421 -1.3697
  112DMF     H4 1830   2.563   2.494   1.462  2.4277  0.4708 -0.4834
  112DMF     H5 1831   2.465   2.524   1.606  0.6722 -0.8140  1.8284
  112DMF     H6 1832   2.635   2.484   1.621  1.5155  1.2343 -0.9705
  112DMF     H7 1833   2.785   2.663   1.544  2.0196  1.3096 -0.2008
  113DMF     C1 1834   2.342   2.923   0.040  0.9594  0.5645 -0.1199
  113DMF     N1 1835   2.234   3.020   0.044  0.0788 -1.0124 -0.0359
  113DMF     C2 1836   2.131   2.996   0.143 -0.7718 -0.6515 -0.1825
  113DMF     C3 1837   2.247   3.137  -0.028  0.0434 -0.5805 -0.1280
  113DMF     O1 1838   2.344   3.164  -0.101  0.3011  0.2601 -0.3556
  113DMF     H1 1839   2.433   2.964   0.084 -0.1190 -0.0398  2.8064
  113DMF     H2 1840   2.350   2.891  -0.065  0.4021 -0.3916  0.1250
  113DMF     H3 1841   2.319   2.831   0.095 -0.6523  1.6727  1.1222
  113DMF     H4 1842   2.151   3.062   0.228 -1.1512 -0.4968 -0.2123
  113DMF     H5 1843   2.124   2.890   0.172  2.8951 -1.1888 -0.9509
  113DMF     H6 1844   2.031   3.024   0.109  0.1204  0.7418 -1.7452
  113DMF     H7 1845   2.169   3.214  -0.016  0.1763 -0.4410 -0.1622
  114DMF     C1 1846   3.304   2.258   0.175  0.1423  0.7735  0.2270
  114DMF     N1 1847   3.366   2.168   0.277 -0.9063 -0.8835 -0.8371
  114DMF     C2 1848   3.447   2.060   0.236 -0.7520 -0.2266 -0.3743
  114DMF     C3 1849   3.338   2.192   0.412  0.0021 -0.4606  0.2002
  114DMF     O1 1850   3.252   2.274   0.446 -0.3985 -0.3214 -0.0464
  114DMF     H1 1851   3.196   2.246   0.187  0.2025 -0.4552 -0.3602
  114DMF     H2 1852   3.338   2.234   0.073  1.2041 -1.1446  1.0036
  114DMF     H3 1853   3.326   2.361   0.203 -2.5447  1.2812  0.5532
  114DMF     H4 1854   3.548   2.088   0.202 -0.1275 -0.6427  1.0699
  114DMF     H5 1855   3.399   2.009   0.152  2.0207 -3.2680 -0.2289
  114DMF     H6 1856   3.443   1.987   0.318 -2.9538 -1.4318 -1.5226
  114DMF     H7 1857   3.399   2.133   0.483  1.3029  0.5543 -0.0466
  115DMF     C1 1858   1.264   2.472   3.282  0.4495 -0.9671 -0.2336
  115DMF     N1 1859   1.222   2.563   3.168  0.6175 -0.1251 -0.1075
  115DMF     C2 1860   1.202   2.707   3.197  0.5004  0.2928 -0.2447
  115DMF     C3 1861   1.241   2.521   3.040 -0.8189 -0.0806 -0.5066
  115DMF     O1 1862   1.283   2.415   3.011  0.3113  0.1254 -0.7190
  115DMF     H1 1863   1.330   2.526   3.351 -1.0784 -0.1117  0.5743
  115DMF     H2 1864   1.315   2.385   3.238 -0.5005 -1.0980 -1.0829
  115DMF     H3 1865   1.185   2.435   3.347 -0.1435 -0.7725 -0.8398
  115DMF     H4 1866   1.236   2.753   3.104 -2.3625  0.5605 -1.2000
  115DMF     H5 1867   1.261   2.739   3.283 -1.5668 -1.2659  1.8274
  115DMF     H6 1868   1.095   2.725   3.217  0.7107  0.4097  0.7930
  115DMF     H7 1869   1.226   2.598   2.962 -0.2691  0.3720 -0.1647
  116DMF     C1 1870   1.161   0.851   0.757  0.3582 -0.4974  0.2009
  116DMF     N1 1871   1.093   0.905   0.643  0.4185  0.2360 -1.3160
  116DMF     C2 1872   1.167   0.938   0.523  0.6219  0.4549 -0.6253
  116DMF     C3 1873   0.949   0.916   0.645 -0.1500  0.1113  0.7147
  116DMF     O1 1874   0.874   0.869   0.729  0.1877  0.2927 -0.1980
  116DMF     H1 1875   1.117   0.897   0.847  1.8645  2.7288 -0.6623
  116DMF     H2 1876   1.269   0.864   0.755  0.5281 -1.2938  2.4559
  116DMF     H3 1877   1.159   0.742   0.745 -0.2778 -0.2302 -2.3702
  116DMF     H4 1878   1.101   0.972   0.443 -0.3939  3.6169  1.4682
  116DMF     H5 1879   1.231   0.853   0.496  1.6582  1.1074 -0.2791
  116DMF     H6 1880   1.235   1.023   0.536  0.2396  0.8141 -0.9423
  116DMF     H7 1881   0.898   0.964   0.560 -0.1577 -0.1898  0.5485
  117DMF     C1 1882   1.860   0.236   2.719  0.9230 -0.0899  0.2274
  117DMF     N1 1883   1.764   0.236   2.833 -0.0242  0.0874  0.3891
  117DMF     C2 1884   1.622   0.186   2.812  0.4788 -0.0174 -0.3942
  117DMF     C3 1885   1.787   0.311   2.949 -0.4044  0.5772 -0.1240
  117DMF     O1 1886   1.890   0.375   2.967  0.1569  0.1929  0.4733
  117DMF     H1 1887   1.800   0.259   2.630 -1.5565  0.2269  1.9198
  117DMF     H2 1888   1.906   0.137   2.713 -1.5774 -1.2926  0.0545
  117DMF     H3 1889   1.939   0.307   2.744 -0.5570  1.1372  1.5571
  117DMF     H4 1890   1.624   0.077   2.828  2.3291 -0.1169 -1.1934
  117DMF     H5 1891   1.576   0.210   2.715 -1.5724  0.5925  0.7024
  117DMF     H6 1892   1.557   0.248   2.875 -0.6435 -2.1992  0.6557
  117DMF     H7 1893   1.702   0.309   3.020 -0.9080  0.9109 -0.7121
  118DMF     C1 1894   0.559   2.042   3.404 -0.5192  0.1026 -0.1105
  118DMF     N1 1895   0.436   2.051   3.326 -0.3167  0.6334 -0.2399
  118DMF     C2 1896   0.403   2.185   3.270 -0.6598 -0.0980  0.7457
  118DMF     C3 1897   0.355   1.935   3.309  0.2751  0.0353 -0.2804
  118DMF     O1 1898   0.375   1.825   3.359  0.6037 -0.2731  0.7659
  118DMF     H1 1899   0.545   2.093   3.500 -0.6656  0.0031 -0.0808
  118DMF     H2 1900   0.641   2.084   3.344 -2.1174  0.9441 -1.7645
  118DMF     H3 1901   0.584   1.937   3.422 -0.7882 -0.1720 -1.3456
  118DMF     H4 1902   0.479   2.207   3.194 -0.7935 -2.4337 -0.0807
  118DMF     H5 1903   0.410   2.264   3.347  2.9422  0.6882 -0.2508
  118DMF     H6 1904   0.301   2.187   3.231 -0.3987  1.3483  0.0882
  118DMF     H7 1905   0.269   1.964   3.246 -0.5946  0.1050  0.9233
  119DMF     C1 1906   2.852   0.404   1.222 -0.4303 -0.0853  0.6228
  119DMF     N1 1907   2.863   0.460   1.083  0.0782 -0.1641  0.7949
  119DMF     C2 1908   2.760   0.562   1.042  0.4825 -0.5921 -0.2772
  119DMF     C3 1909   2.958   0.415   0.988  0.0828  0.2361 -0.3829
  119DMF     O1 1910   3.018   0.312   1.008  0.3774  0.8207  0.0698
  119DMF     H1 1911   2.907   0.309   1.218 -1.3383 -0.5649 -1.3617
  119DMF     H2 1912   2.749   0.381   1.254 -0.5832 -0.3170 -0.0177
  119DMF     H3 1913   2.899   0.473   1.293 -1.1184  1.5765 -0.5053
  119DMF     H4 1914   2.662   0.514   1.048 -0.6761  1.8872  1.1457
  119DMF     H5 1915   2.796   0.595   0.943  0.5375  0.1012 -0.0270
  119DMF     H6 1916   2.775   0.644   1.112  0.6470 -0.9699  0.1320
  119DMF     H7 1917   2.961   0.477   0.896  2.0597 -1.6001 -1.5963
  120DMF     C1 1918   2.541   1.116   1.015  0.2061 -0.0742  0.0059
  120DMF     N1 1919   2.516   1.065   0.881  0.2291 -0.8280  0.7543
  120DMF     C2 1920   2.607   1.116   0.781 -0.6638 -0.2448  0.1389
  120DMF     C3 1921   2.458   0.943   0.858  0.3724  0.4969 -0.5828
  120DMF     O1 1922   2.412   0.873   0.951 -0.3232 -0.0338  0.6937
  120DMF     H1 1923   2.558   1.224   1.006  0.1054  0.2262  2.8659
  120DMF     H2 1924   2.630   1.071   1.059 -0.2919  0.6885  1.8484
  120DMF     H3 1925   2.457   1.098   1.083 -1.6918  2.8014 -1.4733
  120DMF     H4 1926   2.554   1.132   0.686 -1.8608  0.3571  0.9012
  120DMF     H5 1927   2.681   1.041   0.751  0.7212  1.4660 -0.8641
  120DMF     H6 1928   2.664   1.205   0.812  1.2219 -1.3316 -0.1534
  120DMF     H7 1929   2.458   0.920   0.750  1.2071  1.7304 -0.8587
  121DMF     C1 1930   1.645   0.275   2.345 -0.3886 -0.3978 -0.3496
  121DMF     N1 1931   1.655   0.425   2.323 -0.2236 -0.0863  0.0613
  121DMF     C2 1932   1.528   0.505   2.321  0.4996 -0.0238 -0.1560
  121DMF     C3 1933   1.774   0.484   2.282 -0.9641 -0.1883 -0.3013
  121DMF     O1 1934   1.879   0.421   2.299  0.7935 -0.0048 -0.1670
  121DMF     H1 1935   1.732   0.240   2.402  0.0396  0.7888 -0.2638
  121DMF     H2 1936   1.651   0.223   2.248  0.0001  1.3608 -1.3028
  121DMF     H3 1937   1.562   0.246   2.411  0.7157  2.3342  2.3717
  121DMF     H4 1938   1.537   0.611   2.295  0.3142  0.9118  3.3855
  121DMF     H5 1939   1.486   0.499   2.422 -0.8051 -1.3317 -0.7593
  121DMF     H6 1940   1.449   0.461   2.258 -0.4069  0.3669  0.6927
  121DMF     H7 1941   1.766   0.591   2.256 -0.9253 -0.4509 -1.3919
  122DMF     C1 1942   0.190   2.537   0.854 -0.1880  0.5930 -0.3999
  122DMF     N1 1943   0.168   2.386   0.843 -0.0490  0.6907  0.1113
  122DMF     C2 1944   0.075   2.350   0.731  0.1902 -0.2254 -0.5304
  122DMF     C3 1945   0.256   2.293   0.907  1.1654  0.9692  0.7032
  122DMF     O1 1946   0.327   2.326   0.997  0.5415  0.1286 -0.0582
  122DMF     H1 1947   0.211   2.575   0.753  0.8311  1.6488  0.1916
  122DMF     H2 1948   0.279   2.559   0.914 -2.0083  3.4795  1.3910
  122DMF     H3 1949   0.106   2.591   0.900 -0.5669 -1.6739  1.7115
  122DMF     H4 1950   0.004   2.277   0.772 -1.2159  0.5265 -1.5815
  122DMF     H5 1951   0.136   2.306   0.651 -2.0142 -0.8294 -1.9209
  122DMF     H6 1952   0.028   2.443   0.697  0.3745 -0.3562 -1.1487
  122DMF     H7 1953   0.244   2.190   0.867 -1.6321  1.3272  0.5276
  123DMF     C1 1954   3.313   0.633   0.399 -0.3298  0.4883  0.3107
  123DMF     N1 1955   3.351   0.592   0.264 -0.1319 -0.5005  0.3934
  123DMF     C2 1956   3.242   0.543   0.187  0.9920  0.5214 -0.1068
  123DMF     C3 1957   3.475   0.629   0.200  1.1704 -0.0373 -0.1565
  123DMF     O1 1958   3.564   0.668   0.272 -0.7033  0.4878  0.6765
  123DMF     H1 1959   3.248   0.720   0.388 -0.7576  0.3222  1.3958
  123DMF     H2 1960   3.403   0.658   0.456  0.0040 -1.0726  0.4994
  123DMF     H3 1961   3.273   0.544   0.450 -0.6401 -0.0270 -0.8033
  123DMF     H4 1962   3.285   0.484   0.105 -0.2184 -0.5568  0.0043
  123DMF     H5 1963   3.189   0.631   0.150 -0.2193 -0.5396 -0.9353
  123DMF     H6 1964   3.185   0.472   0.249 -0.6145  1.9417  0.0963
  123DMF     H7 1965   3.475   0.601   0.093 -1.1637 -1.3987  0.1583
  124DMF     C1 1966   0.764   2.160   1.511 -0.1561 -0.2294 -0.2300
  124DMF     N1 1967   0.890   2.086   1.542 -0.5552  0.2106  0.5562
  124DMF     C2 1968   0.882   1.940   1.548 -0.7456  0.1619  0.2365
  124DMF     C3 1969   1.003   2.155   1.579  0.7915  0.7229 -0.0721
  124DMF     O1 1970   1.012   2.276   1.570 -0.2624  0.2043 -0.3833
  124DMF     H1 1971   0.672   2.105   1.530  0.1755 -0.4226  0.8336
  124DMF     H2 1972   0.762   2.176   1.402 -0.1316  2.8930  0.1828
  124DMF     H3 1973   0.766   2.259   1.558  2.3599 -0.1404 -0.4388
  124DMF     H4 1974   0.974   1.894   1.586  0.1039  1.4092 -0.2766
  124DMF     H5 1975   0.863   1.906   1.445 -2.4580  0.0995  0.5597
  124DMF     H6 1976   0.804   1.901   1.615 -0.0494  1.1306  1.6142
  124DMF     H7 1977   1.086   2.088   1.610  0.6967  0.9077  0.5744
  125DMF     C1 1978   1.039   3.123   0.262 -0.0244  0.1046  0.0478
  125DMF     N1 1979   1.064   2.976   0.318  0.0927 -0.0128  0.6858
  125DMF     C2 1980   1.208   2.928   0.305  0.3426  1.0619 -0.0748
  125DMF     C3 1981   0.967   2.880   0.328  0.2266  0.9017  0.7369
  125DMF     O1 1982   0.848   2.908   0.300  0.6493  0.0537  0.1444
  125DMF     H1 1983   1.060   3.191   0.346  1.0991 -0.1114 -0.0462
  125DMF     H2 1984   0.935   3.135   0.230 -0.2919 -0.0605  0.8506
  125DMF     H3 1985   1.114   3.150   0.187 -0.5367 -0.1862 -0.5723
  125DMF     H4 1986   1.229   2.860   0.222  1.1450  0.7470  0.3827
  125DMF     H5 1987   1.229   2.877   0.400  2.7895 -0.3976 -1.3656
  125DMF     H6 1988   1.284   3.006   0.303 -0.0227  1.4005 -1.0898
  125DMF     H7 1989   1.003   2.782   0.364  0.4714  0.3176 -1.0703
  126DMF     C1 1990   3.391   0.597   1.446 -0.3401  0.0857  0.5228
  126DMF     N1 1991   3.269   0.645   1.374  0.4006 -0.2674  0.3224
  126DMF     C2 1992   3.171   0.546   1.328 -0.7691 -0.0724 -0.7628
  126DMF     C3 1993   3.223   0.773   1.411 -0.1335  0.1160  0.3784
  126DMF     O1 1994   3.297   0.856   1.455 -0.1261  0.6335  0.5928
  126DMF     H1 1995   3.373   0.587   1.554  3.0938  0.6082  1.2055
  126DMF     H2 1996   3.478   0.662   1.428 -1.3798  1.4490  0.3197
  126DMF     H3 1997   3.412   0.495   1.411  4.5075  0.0337  3.1359
  126DMF     H4 1998   3.137   0.490   1.415 -1.6243  2.0730  0.3398
  126DMF     H5 1999   3.215   0.476   1.256  0.4479 -0.5620  0.4379
  126DMF     H6 2000   3.083   0.593   1.281  0.0262  1.7312 -0.4991
  126DMF     H7 2001   3.116   0.786   1.388 -0.7460 -1.9025  1.9588
  127DMF     C1 2002   0.556   2.438   3.117 -0.2618  0.3506 -0.6164
  127DMF     N1 2003   0.587   2.576   3.060  0.4461  0.0146 -0.3900
  127DMF     C2 2004   0.687   2.596   2.954 -0.0778  0.3458 -0.7368
  127DMF     C3 2005   0.512   2.690   3.104  0.6119 -0.5398  0.1876
  127DMF     O1 2006   0.414   2.682   3.178  0.0680  0.5811 -0.0080
  127DMF     H1 2007   0.568   2.447   3.226 -1.1771  0.7280 -0.5424
  127DMF     H2 2008   0.631   2.369   3.076  0.8405 -0.0304  1.9372
  127DMF     H3 2009   0.458   2.413   3.075 -0.4200  2.3808 -1.5277
  127DMF     H4 2010   0.664   2.531   2.868 -0.6333  0.0268 -0.3446
  127DMF     H5 2011   0.784   2.567   2.996 -0.8743 -1.0787  0.1044
  127DMF     H6 2012   0.683   2.702   2.924 -0.6846 -0.1677 -2.5584
  127DMF     H7 2013   0.548   2.786   3.064 -0.4697  0.3778  1.4064
  128DMF     C1 2014   0.942   2.819   0.996  0.1155 -0.6688 -0.7154
  128DMF     N1 2015   0.991   2.783   0.860  0.0960 -0.5528 -0.3234
  128DMF     C2 2016   1.120   2.712   0.858  0.5601 -0.2761 -0.1675
  128DMF     C3 2017   0.930   2.834   0.746 -0.5352  0.3002  0.6740
  128DMF     O1 2018   0.824   2.898   0.747  0.0164 -0.2511 -0.8464
  128DMF     H1 2019   0.865   2.897   0.989 -1.0355 -1.7593 -0.4537
  128DMF     H2 2020   1.018   2.841   1.072 -3.2985  0.9241  2.4013
  128DMF     H3 2021   0.890   2.728   1.029 -1.0321  0.5447  0.9000
  128DMF     H4 2022   1.137   2.677   0.960  0.9125  2.4339  0.7571
  128DMF     H5 2023   1.199   2.779   0.821 -0.5351  0.8088 -0.5973
  128DMF     H6 2024   1.111   2.622   0.796 -0.3192 -0.5797  0.3912
  128DMF     H7 2025   1.001   2.815   0.663  0.1139  0.6568  1.1450
  129DMF     C1 2026   2.537   1.880   0.999 -0.6179  0.4059 -0.1753
  129DMF     N1 2027   2.464   1.929   1.119  0.3755  0.3322  0.4282
  129DMF     C2 2028   2.389   2.062   1.115  0.2973  0.6051  0.3950
  129DMF     C3 2029   2.441   1.841   1.222  0.4922  0.3097 -0.5501
  129DMF     O1 2030   2.487   1.730   1.223 -0.2481  0.4373 -0.1790
  129DMF     H1 2031   2.627   1.823   1.026 -1.8904 -1.9861 -0.8365
  129DMF     H2 2032   2.571   1.970   0.948  0.3780 -0.2872 -0.7610
  129DMF     H3 2033   2.481   1.816   0.930  1.5537 -0.0189 -1.6005
  129DMF     H4 2034   2.435   2.144   1.172  0.6520  0.0641  0.8927
  129DMF     H5 2035   2.294   2.048   1.169 -1.5201  0.9909 -2.6288
  129DMF     H6 2036   2.361   2.092   1.013 -1.4062 -0.3762  0.5551
  129DMF     H7 2037   2.366   1.877   1.295 -0.3126 -1.2126 -0.6165
  130DMF     C1 2038   0.132   1.810   2.249  0.0679  0.8073  0.2620
  130DMF     N1 2039   0.073   1.884   2.357  0.0396 -0.5362  0.0066
  130DMF     C2 2040   0.115   1.847   2.496 -0.0164 -0.3271 -0.6018
  130DMF     C3 2041  -0.038   1.976   2.327 -0.2154  0.1685 -0.3333
  130DMF     O1 2042  -0.094   1.983   2.216 -0.0419  0.4639 -0.6453
  130DMF     H1 2043   0.240   1.822   2.265  0.2391  3.8126 -2.4547
  130DMF     H2 2044   0.110   1.848   2.149  1.1817  0.6148 -0.0632
  130DMF     H3 2045   0.098   1.706   2.256  1.1035  0.4939  0.7239
  130DMF     H4 2046   0.224   1.858   2.507 -0.1604  1.4908 -0.8317
  130DMF     H5 2047   0.088   1.741   2.507  0.9302 -0.5721 -0.5631
  130DMF     H6 2048   0.063   1.894   2.580 -0.7896 -1.8340 -0.2237
  130DMF     H7 2049  -0.072   2.028   2.419 -0.5532 -2.1389  0.8718
  131DMF     C1 2050   1.804   2.076   3.217 -0.5411 -0.2010  1.0618
  131DMF     N1 2051   1.854   1.944   3.267  0.2735 -0.3994 -0.1460
  131DMF     C2 2052   2.000   1.928   3.269  0.4043  0.4629  0.1158
  131DMF     C3 2053   1.773   1.840   3.313 -0.2581  0.3173 -0.2504
  131DMF     O1 2054   1.648   1.847   3.302  0.1338 -0.1660  0.3073
  131DMF     H1 2055   1.800   2.066   3.108  1.5573  0.9660  0.8521
  131DMF     H2 2056   1.871   2.161   3.231  0.3956 -0.8138  0.3509
  131DMF     H3 2057   1.712   2.102   3.270 -0.0175 -0.6292  2.2088
  131DMF     H4 2058   2.050   2.014   3.316  1.8104 -0.1265 -0.2528
  131DMF     H5 2059   2.047   1.913   3.171 -0.9887 -1.6435 -0.2550
  131DMF     H6 2060   2.019   1.835   3.324  0.4147  1.2372  1.4383
  131DMF     H7 2061   1.821   1.752   3.359 -3.5113 -1.8220 -0.7614
  132DMF     C1 2062   0.865   1.858   3.105  0.0412 -0.4753 -0.3298
  132DMF     N1 2063   0.716   1.880   3.092  0.0155  0.0454  0.4242
  132DMF     C2 2064   0.629   1.761   3.097  0.3944 -0.5990 -0.1344
  132DMF     C3 2065   0.658   2.006   3.080 -0.7712 -0.4278  0.2485
  132DMF     O1 2066   0.719   2.112   3.064 -0.3983 -0.4225 -0.1859
  132DMF     H1 2067   0.917   1.931   3.043  0.5731  1.0738  1.8651
  132DMF     H2 2068   0.884   1.751   3.086 -0.5384 -1.3457  3.4945
  132DMF     H3 2069   0.896   1.874   3.209  2.8305 -0.8353 -1.0552
  132DMF     H4 2070   0.645   1.705   3.190  1.3605  0.2702  0.2330
  132DMF     H5 2071   0.662   1.696   3.015  0.3436 -0.1550 -0.5076
  132DMF     H6 2072   0.523   1.775   3.072  0.8320  1.0356 -1.1485
  132DMF     H7 2073   0.548   2.007   3.077 -0.7753  1.5579  0.3972
  133DMF     C1 2074   2.241   3.175   3.342  0.4146 -0.6956 -0.4301
  133DMF     N1 2075   2.175   3.152   3.209  0.2471  0.0312  0.0827
  133DMF     C2 2076   2.032   3.101   3.207 -0.8940 -0.2230  0.5742
  133DMF     C3 2077   2.243   3.160   3.086  0.6474 -0.7853 -0.0573
  133DMF     O1 2078   2.364   3.190   3.075 -0.4009  0.4621  0.1696
  133DMF     H1 2079   2.334   3.118   3.356  2.0810  1.4982 -2.0353
  133DMF     H2 2080   2.178   3.145   3.427 -1.2504  1.5649 -0.8044
  133DMF     H3 2081   2.261   3.283   3.351  0.9590 -0.8984  0.9184
  133DMF     H4 2082   1.981   3.142   3.295 -1.1081 -0.2192  0.4494
  133DMF     H5 2083   2.031   2.991   3.209  0.1864 -0.2464  0.2142
  133DMF     H6 2084   1.977   3.140   3.120 -1.2607  0.7578  1.2402
  133DMF     H7 2085   2.174   3.161   3.000  0.1750 -1.0771  0.3165
  134DMF     C1 2086   0.676   0.554   0.361 -0.0320  0.1740  0.3852
  134DMF     N1 2087   0.561   0.631   0.402 -0.0903  0.0627  0.5159
  134DMF     C2 2088   0.568   0.676   0.541  0.6570  0.1494 -0.0563
  134DMF     C3 2089   0.463   0.674   0.312  0.1524 -0.0250 -0.1793
  134DMF     O1 2090   0.470   0.648   0.197  0.2661  0.1151 -0.0932
  134DMF     H1 2091   0.647   0.495   0.273  0.3003 -1.5443  1.4185
  134DMF     H2 2092   0.721   0.498   0.444  0.2839 -1.6479 -0.9851
  134DMF     H3 2093   0.747   0.627   0.320  0.5748 -1.4501 -1.5570
  134DMF     H4 2094   0.540   0.586   0.597  1.5378 -0.2413 -0.2276
  134DMF     H5 2095   0.490   0.753   0.545 -0.8416 -1.3197 -0.1836
  134DMF     H6 2096   0.669   0.704   0.571  0.6175  2.2987 -1.7655
  134DMF     H7 2097   0.382   0.730   0.361  1.0546  1.5994 -0.5185
  135DMF     C1 2098   2.970   1.301   2.286 -0.2310 -0.2463  0.3783
  135DMF     N1 2099   3.107   1.270   2.260  0.9877 -0.5652  0.3305
  135DMF     C2 2100   3.214   1.377   2.256  0.9162  0.3994 -0.4228
  135DMF     C3 2101   3.147   1.136   2.224 -0.6786 -0.3777 -0.6234
  135DMF     O1 2102   3.067   1.049   2.218 -0.0699  0.5760  0.5326
  135DMF     H1 2103   2.906   1.291   2.197  0.7737  1.6483 -0.5832
  135DMF     H2 2104   2.961   1.400   2.331  0.3056  0.6862 -1.5345
  135DMF     H3 2105   2.938   1.229   2.362  0.9256 -0.1909  0.9236
  135DMF     H4 2106   3.228   1.429   2.351 -0.2603 -0.4629  0.2287
  135DMF     H5 2107   3.176   1.458   2.192  0.0201 -1.4863 -2.3693
  135DMF     H6 2108   3.310   1.342   2.217  1.5094  2.4519 -0.8690
  135DMF     H7 2109   3.257   1.126   2.222 -0.6841 -0.3273 -1.2489
  136DMF     C1 2110   1.846   1.316   1.177  0.4511  0.0176  0.0895
  136DMF     N1 2111   1.714   1.385   1.165 -0.3079 -0.2993  0.4522
  136DMF     C2 2112   1.602   1.297   1.165  0.3113  0.1460 -0.7004
  136DMF     C3 2113   1.709   1.522   1.158 -0.1254  0.4994 -0.2079
  136DMF     O1 2114   1.802   1.597   1.176  0.1487  0.4464 -0.3704
  136DMF     H1 2115   1.922   1.386   1.214  2.5465 -0.9712 -2.2183
  136DMF     H2 2116   1.866   1.287   1.073 -0.9763  1.0515 -0.4894
  136DMF     H3 2117   1.850   1.224   1.238 -0.5311 -0.0158  0.1097
  136DMF     H4 2118   1.524   1.347   1.107  0.7962  0.4642 -1.0684
  136DMF     H5 2119   1.582   1.275   1.271 -0.1695  1.5245 -0.4977
  136DMF     H6 2120   1.624   1.206   1.107  0.1269  0.2388 -0.9133
  136DMF     H7 2121   1.605   1.557   1.142 -0.5886 -0.7653 -0.0369
  137DMF     C1 2122   3.365   0.681   2.909  0.8807  0.1641  0.6231
  137DMF     N1 2123   3.219   0.714   2.878  0.0506 -0.5211 -1.0337
  137DMF     C2 2124   3.124   0.679   2.986 -0.4951 -0.4062  0.3678
  137DMF     C3 2125   3.178   0.764   2.757 -0.3305  0.0754  0.5434
  137DMF     O1 2126   3.256   0.787   2.661  0.3515 -0.8647 -0.5452
  137DMF     H1 2127   3.432   0.764   2.884  1.1723 -0.3072 -0.1878
  137DMF     H2 2128   3.398   0.618   2.825  1.8805  0.9227  0.4425
  137DMF     H3 2129   3.381   0.626   3.002  1.6618  2.5402  1.9363
  137DMF     H4 2130   3.088   0.577   2.971 -0.4344 -0.2925 -0.5527
  137DMF     H5 2131   3.033   0.738   2.974 -1.0743 -1.6394 -1.4161
  137DMF     H6 2132   3.178   0.687   3.081 -0.8562 -2.1024  0.7338
  137DMF     H7 2133   3.070   0.776   2.741 -0.0555  1.3908 -0.3624
  138DMF     C1 2134   2.354   1.938   3.381 -0.9246  0.3782 -0.2818
  138DMF     N1 2135   2.414   1.803   3.354  0.3109 -0.3533  0.0921
  138DMF     C2 2136   2.508   1.793   3.247  0.2082  0.5687 -0.2251
  138DMF     C3 2137   2.354   1.684   3.406 -0.2362 -0.5282  0.3874
  138DMF     O1 2138   2.265   1.689   3.487 -0.2569 -0.1341  0.2617
  138DMF     H1 2139   2.254   1.937   3.426 -0.7014  1.0002  0.2523
  138DMF     H2 2140   2.344   1.992   3.286 -0.7636  3.4337  1.3756
  138DMF     H3 2141   2.424   1.998   3.442 -0.8457  0.5221 -0.5139
  138DMF     H4 2142   2.495   1.870   3.170  1.4696 -0.0309 -1.0611
  138DMF     H5 2143   2.500   1.701   3.188 -2.0424  0.3343  0.3904
  138DMF     H6 2144   2.609   1.791   3.289  0.2587  3.3776 -0.1246
  138DMF     H7 2145   2.406   1.592   3.376  0.4599  0.3829 -1.2676
  139DMF     C1 2146   2.245   1.400   0.901  0.1602 -0.7848 -1.7379
  139DMF     N1 2147   2.361   1.419   0.995 -0.2980  0.0093 -1.0489
  139DMF     C2 2148   2.336   1.391   1.133  0.0012  0.7422 -0.0907
  139DMF     C3 2149   2.468   1.499   0.960 -0.5435 -0.5052 -0.0655
  139DMF     O1 2150   2.475   1.536   0.843 -0.3369  0.0465 -0.3173
  139DMF     H1 2151   2.268   1.359   0.802  1.5832  0.3821 -1.9050
  139DMF     H2 2152   2.206   1.499   0.874  1.2024  0.1551  0.0964
  139DMF     H3 2153   2.163   1.351   0.956  0.6870  0.5400  0.2985
  139DMF     H4 2154   2.405   1.317   1.176 -2.6189 -0.3843  2.3912
  139DMF     H5 2155   2.236   1.346   1.136 -0.1591  1.1672  1.2282
  139DMF     H6 2156   2.344   1.487   1.186  2.0769  1.8317 -2.2775
  139DMF     H7 2157   2.541   1.528   1.039  2.2219  1.8107 -3.3157
  140DMF     C1 2158   1.419   0.552   2.743  0.1237  0.5411 -0.2359
  140DMF     N1 2159   1.291   0.613   2.767 -0.3977  0.0443  0.1813
  140DMF     C2 2160   1.167   0.537   2.743 -0.0424 -0.0379  0.1452
  140DMF     C3 2161   1.291   0.754   2.788 -0.3951 -0.5341  0.0607
  140DMF     O1 2162   1.386   0.825   2.814 -0.2946 -0.2744 -0.2154
  140DMF     H1 2163   1.459   0.532   2.843  0.3662  0.4052 -0.3608
  140DMF     H2 2164   1.485   0.617   2.684 -1.4434  0.3838 -2.1981
  140DMF     H3 2165   1.416   0.452   2.699 -1.2394  0.9309 -1.0537
  140DMF     H4 2166   1.088   0.611   2.727 -0.4851 -0.6895 -0.7398
  140DMF     H5 2167   1.140   0.477   2.830 -3.1782  1.0859  0.0108
  140DMF     H6 2168   1.172   0.457   2.668  1.1589 -0.2456  0.4350
  140DMF     H7 2169   1.189   0.797   2.780 -1.3358 -2.1957  2.7999
  141DMF     C1 2170   2.174   2.296   1.514  0.0354  0.0272  0.3911
  141DMF     N1 2171   2.037   2.321   1.556  0.0128 -0.6593 -0.0812
  141DMF     C2 2172   1.987   2.462   1.561 -0.3045  0.3216  0.1751
  141DMF     C3 2173   1.956   2.208   1.583  0.0615 -0.2074  0.5557
  141DMF     O1 2174   1.995   2.091   1.588 -0.4074 -0.7186  0.0874
  141DMF     H1 2175   2.244   2.332   1.590  0.1113  3.1356 -1.0975
  141DMF     H2 2176   2.189   2.359   1.426 -1.3179  1.9016  1.4803
  141DMF     H3 2177   2.197   2.190   1.497  2.5596  0.3430  1.5815
  141DMF     H4 2178   1.968   2.490   1.457  0.5912 -0.4926 -0.2255
  141DMF     H5 2179   2.066   2.533   1.589 -0.1646  0.5007 -0.6707
  141DMF     H6 2180   1.892   2.467   1.615 -0.1087 -0.7805  0.6521
  141DMF     H7 2181   1.857   2.239   1.620 -0.4763  0.7597 -1.6220
  142DMF     C1 2182   0.150   2.048   1.193 -0.6136 -0.5007 -0.3365
  142DMF     N1 2183   0.041   2.019   1.100  0.1042  0.2064 -0.0955
  142DMF     C2 2184  -0.093   2.003   1.148 -1.0090  0.1320  0.8994
  142DMF     C3 2185   0.059   1.974   0.969  0.2830  0.5912  0.1167
  142DMF     O1 2186   0.170   1.948   0.926  0.4538 -0.1550 -0.3611
  142DMF     H1 2187   0.123   2.122   1.269 -0.0997 -1.1822  0.5232
  142DMF     H2 2188   0.237   2.088   1.138  2.1431 -0.2788  3.9788
  142DMF     H3 2189   0.175   1.953   1.241 -1.0168 -0.0841  0.6992
  142DMF     H4 2190  -0.139   1.909   1.112 -2.4827  1.3720 -0.5789
  142DMF     H5 2191  -0.151   2.091   1.119  0.4416  1.1628  1.1159
  142DMF     H6 2192  -0.087   1.992   1.257  1.3269 -2.3327  0.5837
  142DMF     H7 2193  -0.036   1.965   0.913 -0.0130  1.4882  0.4614
  143DMF     C1 2194   2.456   2.047   2.597  0.0475 -0.1215 -0.1076
  143DMF     N1 2195   2.334   2.000   2.664 -0.3261  0.7352 -0.2569
  143DMF     C2 2196   2.303   1.854   2.673 -0.3637 -0.4024  0.7383
  143DMF     C3 2197   2.242   2.097   2.716 -0.9128  0.2979  0.4522
  143DMF     O1 2198   2.276   2.212   2.730 -0.1267  0.4220  0.3271
  143DMF     H1 2199   2.496   1.982   2.518  0.0904 -0.5448  0.2586
  143DMF     H2 2200   2.530   2.060   2.677 -0.3126 -0.7648  0.3391
  143DMF     H3 2201   2.435   2.136   2.537  1.8490  0.6383  0.3351
  143DMF     H4 2202   2.337   1.820   2.771  1.8104 -0.9516 -0.1568
  143DMF     H5 2203   2.354   1.804   2.590 -1.0187  0.2723 -0.0858
  143DMF     H6 2204   2.197   1.845   2.647 -0.1271 -2.7121  0.5084
  143DMF     H7 2205   2.153   2.047   2.757  0.0162 -0.9329  1.0036
  144DMF     C1 2206   0.510   2.733   2.626  0.1081  0.3814  0.3790
  144DMF     N1 2207   0.544   2.866   2.683 -0.0038 -0.0185  0.6453
  144DMF     C2 2208   0.427   2.944   2.721 -0.3087 -0.0366  0.0447
  144DMF     C3 2209   0.675   2.901   2.719 -0.3229  0.6714 -0.0900
  144DMF     O1 2210   0.765   2.830   2.684 -0.4194  0.1604 -0.3570
  144DMF     H1 2211   0.412   2.730   2.577 -0.8569 -0.9344  2.3028
  144DMF     H2 2212   0.495   2.658   2.705  2.2274 -1.1071 -0.5732
  144DMF     H3 2213   0.590   2.702   2.558 -0.5288 -0.8411  0.1619
  144DMF     H4 2214   0.371   2.955   2.628 -0.4084  0.8742  0.2036
  144DMF     H5 2215   0.455   3.044   2.759  2.1370 -0.1721 -1.3110
  144DMF     H6 2216   0.355   2.898   2.790  0.0880 -2.5111 -1.1705
  144DMF     H7 2217   0.682   2.998   2.773  1.9776  0.3589  0.1997
  145DMF     C1 2218   2.746   2.004   1.320  1.4931  0.0249  0.2047
  145DMF     N1 2219   2.743   2.028   1.464  0.3794 -0.0183  0.4540
  145DMF     C2 2220   2.860   1.969   1.536  0.4884 -0.0106 -0.4162
  145DMF     C3 2221   2.657   2.120   1.529 -0.5584 -0.5146 -0.4573
  145DMF     O1 2222   2.567   2.185   1.474 -0.0898  0.2498 -0.1987
  145DMF     H1 2223   2.667   2.062   1.272 -0.6779 -0.1979  3.3143
  145DMF     H2 2224   2.735   1.897   1.298 -2.1778  0.6209 -1.2434
  145DMF     H3 2225   2.843   2.045   1.289  2.3419 -2.6370 -0.7548
  145DMF     H4 2226   2.936   1.916   1.478 -0.3006 -1.5958 -0.0190
  145DMF     H5 2227   2.830   1.894   1.610  2.1729 -0.0727  0.2336
  145DMF     H6 2228   2.910   2.050   1.591 -0.5785  1.2386 -1.2375
  145DMF     H7 2229   2.681   2.132   1.636  1.6863  0.3404 -1.0104
  146DMF     C1 2230   0.888   3.154   2.402  0.7379 -0.3260 -0.2945
  146DMF     N1 2231   1.034   3.156   2.375 -0.8066 -0.5750 -0.0144
  146DMF     C2 2232   1.091   3.058   2.285  0.7570 -0.0483  0.1742
  146DMF     C3 2233   1.117   3.253   2.429 -0.3887  0.2736  0.8310
  146DMF     O1 2234   1.082   3.339   2.510  0.0636  0.0919  0.1109
  146DMF     H1 2235   0.853   3.194   2.498 -0.8527 -0.7973 -0.6507
  146DMF     H2 2236   0.859   3.048   2.410  0.9030 -0.4099 -0.8102
  146DMF     H3 2237   0.848   3.202   2.312  1.7678  0.1879 -0.4809
  146DMF     H4 2238   1.099   2.953   2.317 -1.4912  0.4699  2.6669
  146DMF     H5 2239   1.197   3.078   2.264  0.8089 -0.9878 -0.4818
  146DMF     H6 2240   1.027   3.062   2.196 -0.4834 -0.4060  1.0294
  146DMF     H7 2241   1.224   3.247   2.401 -0.2160 -0.5161  1.6674
  147DMF     C1 2242   3.118   1.955   0.167  0.4403  0.6878  0.4661
  147DMF     N1 2243   3.082   1.942   0.025 -0.0046  0.3729  0.9139
  147DMF     C2 2244   2.956   1.870  -0.009 -0.4245 -0.1576 -1.7682
  147DMF     C3 2245   3.175   1.984  -0.072  0.7083 -0.2069  0.1097
  147DMF     O1 2246   3.285   2.030  -0.057  0.3830  0.3160  0.2502
  147DMF     H1 2247   3.212   1.906   0.196  0.4757  0.2693 -0.3467
  147DMF     H2 2248   3.044   1.899   0.226 -0.1936 -2.2426 -2.9000
  147DMF     H3 2249   3.117   2.062   0.190 -0.6117  0.9299 -0.6565
  147DMF     H4 2250   2.972   1.764  -0.031 -1.8720 -0.6750 -0.4356
  147DMF     H5 2251   2.904   1.917  -0.094  0.6933  0.8690 -1.9001
  147DMF     H6 2252   2.887   1.856   0.075 -1.9975 -0.0519 -3.0082
  147DMF     H7 2253   3.136   1.973  -0.175  0.6959 -1.2998  0.2178
  148DMF     C1 2254   0.484   0.419   3.496 -0.1131 -0.1057 -0.2820
  148DMF     N1 2255   0.475   0.391   3.644 -0.1401 -0.4374 -0.2667
  148DMF     C2 2256   0.409   0.483   3.728  0.3759 -0.1358  0.6534
  148DMF     C3 2257   0.573   0.309   3.699  0.9860  0.7126 -0.4446
  148DMF     O1 2258   0.647   0.238   3.628 -0.0868 -0.4378 -0.1117
  148DMF     H1 2259   0.497   0.526   3.474  1.8077 -0.1743  0.3770
  148DMF     H2 2260   0.389   0.386   3.452  0.3093  1.2820 -2.3035
  148DMF     H3 2261   0.563   0.366   3.441  1.0977  1.4309 -0.0676
  148DMF     H4 2262   0.465   0.574   3.754 -1.1018  0.9515  0.0947
  148DMF     H5 2263   0.396   0.434   3.825 -0.9901 -0.0645  0.5099
  148DMF     H6 2264   0.309   0.503   3.688 -0.5024 -0.5445  2.5683
  148DMF     H7 2265   0.570   0.298   3.809  2.5653  1.2165 -0.3361
  149DMF     C1 2266   2.637   1.441   2.826 -0.2288  0.1271  0.2883
  149DMF     N1 2267   2.620   1.466   2.682 -1.0156  0.8320 -0.1747
  149DMF     C2 2268   2.627   1.342   2.599  0.3139 -0.4890  0.1775
  149DMF     C3 2269   2.590   1.592   2.629  0.1217 -0.2055 -0.1771
  149DMF     O1 2270   2.567   1.684   2.708 -0.1361 -0.3029  0.2300
  149DMF     H1 2271   2.740   1.456   2.862 -0.7941  0.7730  1.6741
  149DMF     H2 2272   2.608   1.338   2.848 -0.3065 -0.2567 -1.5822
  149DMF     H3 2273   2.564   1.499   2.883  0.4625  0.9603  0.3424
  149DMF     H4 2274   2.622   1.372   2.494 -1.2893  0.7869  0.6039
  149DMF     H5 2275   2.528   1.299   2.621  0.3742 -1.2296 -0.9336
  149DMF     H6 2276   2.718   1.284   2.618  0.6644  0.5949  1.9434
  149DMF     H7 2277   2.593   1.596   2.518  2.1566 -0.7072 -0.1549
  150DMF     C1 2278   1.524   0.421   3.198 -0.4428  0.1421  0.2945
  150DMF     N1 2279   1.427   0.376   3.296 -0.1087  0.0172 -0.0759
  150DMF     C2 2280   1.486   0.328   3.419  0.6305  0.0558 -0.3863
  150DMF     C3 2281   1.290   0.343   3.258 -0.1711 -0.9426  0.6124
  150DMF     O1 2282   1.239   0.361   3.146  0.1110  0.0481  0.2224
  150DMF     H1 2283   1.624   0.377   3.211 -0.5518 -0.0046  0.6415
  150DMF     H2 2284   1.524   0.530   3.186  0.3636  0.2426  1.1519
  150DMF     H3 2285   1.492   0.379   3.102  0.0474 -2.6871  1.3015
  150DMF     H4 2286   1.595   0.334   3.423  0.8162 -1.5355 -2.2608
  150DMF     H5 2287   1.448   0.226   3.431 -1.3272  0.7999 -0.0713
  150DMF     H6 2288   1.445   0.393   3.497  1.6691 -1.7306  1.6835
  150DMF     H7 2289   1.233   0.299   3.342 -1.1158 -0.2911  0.3222
  151DMF     C1 2290   0.500   2.293   1.260  0.7958 -0.5049 -0.1578
  151DMF     N1 2291   0.498   2.423   1.325  0.1314 -0.7195 -0.0144
  151DMF     C2 2292   0.452   2.547   1.255  0.5813  0.3405 -0.5516
  151DMF     C3 2293   0.493   2.422   1.464 -0.1917  0.1414 -0.4593
  151DMF     O1 2294   0.510   2.325   1.531 -0.1686  0.2315 -0.5730
  151DMF     H1 2295   0.501   2.301   1.151 -0.4937 -0.3923 -0.1672
  151DMF     H2 2296   0.415   2.238   1.301 -1.2708  2.8924  0.2542
  151DMF     H3 2297   0.599   2.248   1.280  1.3937  0.5030 -0.8017
  151DMF     H4 2298   0.377   2.585   1.326  0.7628  0.0555 -0.2064
  151DMF     H5 2299   0.406   2.526   1.157 -1.2929  2.8437 -0.2912
  151DMF     H6 2300   0.534   2.619   1.248  1.6263 -0.5613  2.0539
  151DMF     H7 2301   0.476   2.516   1.519 -0.0425 -1.1770  1.8845
  152DMF     C1 2302   1.496   1.809   0.379 -0.3067 -0.0779  0.2648
  152DMF     N1 2303   1.445   1.755   0.503 -0.0168  0.9982 -0.2728
  152DMF     C2 2304   1.450   1.611   0.541 -0.0769  0.1165 -0.3125
  152DMF     C3 2305   1.358   1.837   0.576 -0.1711  0.1459 -0.0547
  152DMF     O1 2306   1.333   1.957   0.540 -0.1095 -0.3061  0.1305
  152DMF     H1 2307   1.535   1.719   0.328 -2.3455 -0.5544 -0.4914
  152DMF     H2 2308   1.587   1.868   0.395 -0.3787  0.3115 -0.7137
  152DMF     H3 2309   1.417   1.865   0.327 -1.3290 -2.0023 -0.3133
  152DMF     H4 2310   1.375   1.557   0.482  0.9449 -0.3148 -1.2252
  152DMF     H5 2311   1.426   1.612   0.648  0.3444 -2.2620 -0.1847
  152DMF     H6 2312   1.553   1.574   0.530 -0.0150  0.3098 -0.3862
  152DMF     H7 2313   1.308   1.791   0.663 -0.9525  2.3119  0.6826
  153DMF     C1 2314   1.067   2.414   0.066 -0.3615 -0.8405 -0.0656
  153DMF     N1 2315   1.000   2.450   0.193 -0.1460  0.0340  0.2630
  153DMF     C2 2316   0.862   2.404   0.215 -0.2441  0.4355 -0.2647
  153DMF     C3 2317   1.062   2.546   0.272  0.7921  0.5602  0.0860
  153DMF     O1 2318   1.167   2.592   0.235 -0.3821  0.1594  0.2359
  153DMF     H1 2319   1.020   2.478  -0.010 -1.1482 -1.1940  0.1200
  153DMF     H2 2320   1.037   2.313   0.037 -1.2603 -0.5015 -0.3596
  153DMF     H3 2321   1.176   2.421   0.072 -0.4018  0.9743 -1.1320
  153DMF     H4 2322   0.829   2.427   0.317 -3.4057 -3.8873 -0.1749
  153DMF     H5 2323   0.867   2.296   0.198 -0.7817  0.4769 -0.6789
  153DMF     H6 2324   0.796   2.452   0.142  1.4459  1.7453 -0.9622
  153DMF     H7 2325   1.007   2.573   0.365  0.6917 -2.0668  0.8205
  154DMF     C1 2326   2.524   3.400   3.502 -0.7022 -0.1137 -0.7663
  154DMF     N1 2327   2.557   3.543   3.490  0.6124  0.3132  0.0502
  154DMF     C2 2328   2.492   3.619   3.384  0.1559 -0.2125  0.4669
  154DMF     C3 2329   2.631   3.612   3.589 -0.1733  0.1307  0.6688
  154DMF     O1 2330   2.670   3.553   3.687 -0.2963 -0.4915 -0.2514
  154DMF     H1 2331   2.490   3.370   3.602 -1.8694  0.2335 -1.0532
  154DMF     H2 2332   2.619   3.349   3.480 -0.4590 -0.5564  1.2673
  154DMF     H3 2333   2.454   3.363   3.426 -0.9137 -1.5517  0.1032
  154DMF     H4 2334   2.549   3.644   3.294 -1.6854  0.2773 -0.5914
  154DMF     H5 2335   2.450   3.709   3.431  2.4376  1.0839  0.1268
  154DMF     H6 2336   2.408   3.562   3.344 -0.1387  0.9603 -0.6223
  154DMF     H7 2337   2.638   3.719   3.560  1.8001  0.0112  0.6176
  155DMF     C1 2338   0.481   2.190   2.597  0.2157  0.5667 -0.7095
  155DMF     N1 2339   0.367   2.216   2.688  0.8633  0.0217 -0.0487
  155DMF     C2 2340   0.390   2.234   2.831  0.4405  0.2666 -0.1242
  155DMF     C3 2341   0.230   2.196   2.640 -0.6225 -0.6862  0.7802
  155DMF     O1 2342   0.205   2.164   2.528  0.1495  0.4600  0.0735
  155DMF     H1 2343   0.495   2.271   2.524 -1.3457 -0.8292 -2.6235
  155DMF     H2 2344   0.470   2.099   2.537  1.1113  0.6695 -1.0326
  155DMF     H3 2345   0.573   2.179   2.655 -0.1364 -0.4347 -0.3297
  155DMF     H4 2346   0.486   2.195   2.866 -0.0392 -0.8143  0.0206
  155DMF     H5 2347   0.316   2.180   2.892  0.5735  0.0228 -0.1767
  155DMF     H6 2348   0.387   2.342   2.850  0.9090  0.4583 -1.0681
  155DMF     H7 2349   0.152   2.210   2.718 -0.0175  1.4705  1.0299
  156DMF     C1 2350   2.679   0.446   0.443  0.2445 -0.3682  0.5891
  156DMF     N1 2351   2.616   0.533   0.546 -0.3534 -0.1693 -0.0827
  156DMF     C2 2352   2.494   0.609   0.505 -0.9702 -0.3591 -0.0700
  156DMF     C3 2353   2.655   0.535   0.681  0.6573 -0.4834 -0.1821
  156DMF     O1 2354   2.750   0.466   0.717 -0.6872 -0.2708 -0.4782
  156DMF     H1 2355   2.786   0.469   0.433  0.4036 -1.3819 -0.1749
  156DMF     H2 2356   2.629   0.452   0.345  3.9043 -2.0549 -1.5031
  156DMF     H3 2357   2.674   0.342   0.474  1.5614 -1.2578 -2.0067
  156DMF     H4 2358   2.423   0.537   0.462 -0.7169 -0.6904  0.0576
  156DMF     H5 2359   2.524   0.679   0.426 -1.1412 -0.1814  0.0225
  156DMF     H6 2360   2.453   0.673   0.583  1.9755  1.3915  0.1103
  156DMF     H7 2361   2.586   0.586   0.751 -0.5591 -0.9828 -1.0026
  157DMF     C1 2362   2.407   0.608   3.025 -0.2922 -0.6017 -0.5291
  157DMF     N1 2363   2.265   0.607   3.075  0.5290 -0.2384  0.4170
  157DMF     C2 2364   2.201   0.742   3.102  0.3852  0.3235 -0.5240
  157DMF     C3 2365   2.192   0.492   3.132  0.0395  0.0583  0.0474
  157DMF     O1 2366   2.236   0.378   3.120  0.5220  0.5255 -0.2516
  157DMF     H1 2367   2.462   0.653   3.108  4.0674 -2.7164 -2.1068
  157DMF     H2 2368   2.409   0.676   2.939 -0.2691  1.9645  1.4520
  157DMF     H3 2369   2.437   0.503   3.014  0.1621 -0.2850 -2.5403
  157DMF     H4 2370   2.176   0.778   3.002 -0.4115 -0.8552 -0.7603
  157DMF     H5 2371   2.249   0.824   3.157  1.9413  1.0636 -2.9170
  157DMF     H6 2372   2.100   0.732   3.144  0.3572  0.7989 -0.4764
  157DMF     H7 2373   2.093   0.513   3.175 -1.5280  1.5847 -4.0536
  158DMF     C1 2374   2.882   2.718   3.350 -0.4836 -0.3343  0.3706
  158DMF     N1 2375   2.985   2.827   3.363  0.6858 -0.0108  0.1997
  158DMF     C2 2376   2.979   2.930   3.260 -0.7384  0.3417 -0.2543
  158DMF     C3 2377   3.095   2.810   3.440 -0.0342 -0.0067  0.1998
  158DMF     O1 2378   3.111   2.704   3.502  0.2688 -0.1388 -0.9717
  158DMF     H1 2379   2.806   2.729   3.428  1.4933  1.2338  2.1340
  158DMF     H2 2380   2.924   2.617   3.359 -1.4999 -0.7420  0.6545
  158DMF     H3 2381   2.833   2.729   3.253  1.3647 -0.9116 -0.6416
  158DMF     H4 2382   2.932   3.022   3.298 -0.1895  0.6018 -0.1965
  158DMF     H5 2383   2.929   2.885   3.174  0.7524  1.0333 -1.4957
  158DMF     H6 2384   3.078   2.963   3.227 -0.3772  1.4708  1.8182
  158DMF     H7 2385   3.162   2.897   3.441 -0.5192  0.3646  0.5511
  159DMF     C1 2386   0.176   1.397   2.279  0.8065 -0.1653  0.2354
  159DMF     N1 2387   0.159   1.334   2.413  0.3756 -0.2680  0.3092
  159DMF     C2 2388   0.239   1.389   2.527  0.1449  0.1562 -0.0578
  159DMF     C3 2389   0.092   1.217   2.425  0.1470  0.1029  0.1357
  159DMF     O1 2390   0.038   1.158   2.335  0.3216 -0.1219 -0.1145
  159DMF     H1 2391   0.137   1.499   2.268 -1.5518 -1.1291 -0.6619
  159DMF     H2 2392   0.141   1.342   2.191  1.0301 -1.9514  1.2331
  159DMF     H3 2393   0.283   1.419   2.265  0.4831  3.1353  2.4815
  159DMF     H4 2394   0.261   1.330   2.616  2.0468  1.6549  0.5128
  159DMF     H5 2395   0.179   1.472   2.568 -0.4412  0.1343 -0.8619
  159DMF     H6 2396   0.333   1.424   2.483  0.9616 -1.9260  0.0011
  159DMF     H7 2397   0.098   1.168   2.523 -0.1540 -2.1865 -0.9554
  160DMF     C1 2398   0.253   1.412   1.149 -0.2350 -0.6710 -0.9747
  160DMF     N1 2399   0.182   1.535   1.107 -0.7326  0.0176 -0.4342
  160DMF     C2 2400   0.092   1.596   1.203 -0.4239  0.5995 -0.2437
  160DMF     C3 2401   0.211   1.594   0.986 -0.7166  0.0307 -0.1985
  160DMF     O1 2402   0.295   1.547   0.911 -0.1336 -0.6529  0.1513
  160DMF     H1 2403   0.222   1.367   1.244 -0.0504  1.8988  0.3506
  160DMF     H2 2404   0.357   1.444   1.164  0.4386 -3.2036  0.0847
  160DMF     H3 2405   0.258   1.342   1.065 -1.0717  0.8212 -2.2871
  160DMF     H4 2406   0.009   1.525   1.216 -0.1962  0.1981 -0.9155
  160DMF     H5 2407   0.063   1.697   1.172  1.3188  0.8328 -1.1527
  160DMF     H6 2408   0.150   1.615   1.294  1.2445  1.8988 -1.5575
  160DMF     H7 2409   0.166   1.695   0.987 -0.5036  0.1320  3.0527
  161DMF     C1 2410   2.094   1.907   0.939  0.2897 -0.3245 -0.0918
  161DMF     N1 2411   2.060   1.783   0.999 -0.2749 -0.5539 -0.0813
  161DMF     C2 2412   2.115   1.758   1.132  0.1948  0.3938 -0.4362
  161DMF     C3 2413   1.990   1.689   0.930  0.4261 -0.1291  0.2261
  161DMF     O1 2414   1.944   1.701   0.820  0.0109  0.2754 -0.0762
  161DMF     H1 2415   2.012   1.936   0.872  0.7051 -2.3828 -1.5576
  161DMF     H2 2416   2.186   1.883   0.884 -0.0195 -0.0829 -0.7189
  161DMF     H3 2417   2.112   1.982   1.016  0.5731 -1.4705  0.9725
  161DMF     H4 2418   2.043   1.704   1.195 -0.9613  1.0464 -1.1918
  161DMF     H5 2419   2.149   1.847   1.186 -1.5205  0.9476 -0.2663
  161DMF     H6 2420   2.194   1.682   1.128 -0.9808 -0.8630 -0.1781
  161DMF     H7 2421   1.990   1.596   0.990  1.3863 -1.6324 -2.0804
  162DMF     C1 2422   3.274   2.269   2.699 -0.1230 -0.1113  0.1531
  162DMF     N1 2423   3.299   2.177   2.812 -0.1754 -0.3052 -0.0430
  162DMF     C2 2424   3.375   2.210   2.939  0.0980 -0.0009 -0.0539
  162DMF     C3 2425   3.257   2.046   2.800 -0.0688 -0.6891 -0.2255
  162DMF     O1 2426   3.211   2.000   2.694 -0.4145  0.0003  0.2736
  162DMF     H1 2427   3.361   2.334   2.685  0.7159 -1.6125 -1.8235
  162DMF     H2 2428   3.182   2.326   2.717  0.7212  0.6625  2.1072
  162DMF     H3 2429   3.266   2.202   2.612  3.0537 -0.2899 -0.0438
  162DMF     H4 2430   3.410   2.124   2.998  1.2616  0.6976  0.2823
  162DMF     H5 2431   3.309   2.264   3.008  0.4024  1.0335 -0.5765
  162DMF     H6 2432   3.453   2.284   2.916 -2.1898  1.6502 -2.7533
  162DMF     H7 2433   3.280   1.987   2.890 -0.1123 -1.1459 -0.5097
  163DMF     C1 2434   1.498   0.571   3.751  0.3541  0.1966  0.3819
  163DMF     N1 2435   1.618   0.641   3.719 -0.4111 -0.1071  0.2875
  163DMF     C2 2436   1.673   0.630   3.581  0.8101 -0.7472 -0.1302
  163DMF     C3 2437   1.685   0.723   3.809 -0.0931 -0.2650 -0.2358
  163DMF     O1 2438   1.646   0.743   3.924  0.2323  0.3135 -0.2536
  163DMF     H1 2439   1.471   0.576   3.857  0.7283 -0.3262  0.5047
  163DMF     H2 2440   1.515   0.464   3.736 -1.6334 -0.7153  4.1477
  163DMF     H3 2441   1.422   0.616   3.687  1.2535  1.1707 -0.0243
  163DMF     H4 2442   1.661   0.725   3.526  0.5348 -0.3502  0.6043
  163DMF     H5 2443   1.618   0.556   3.522 -0.2664 -0.8962  1.0418
  163DMF     H6 2444   1.776   0.593   3.589  0.9867 -0.0504  0.9790
  163DMF     H7 2445   1.784   0.758   3.775  0.4466 -0.2077  1.3355
  164DMF     C1 2446   1.256   2.059   3.667  0.5061  0.3028 -0.5388
  164DMF     N1 2447   1.349   2.015   3.777 -0.4557 -0.3822  0.1727
  164DMF     C2 2448   1.402   1.884   3.775 -0.4502  0.5655 -0.0374
  164DMF     C3 2449   1.390   2.101   3.874  0.0228 -0.0474 -0.0163
  164DMF     O1 2450   1.353   2.218   3.875  0.5399  0.4448  0.0575
  164DMF     H1 2451   1.167   1.994   3.667  1.3589 -0.8741  0.1048
  164DMF     H2 2452   1.306   2.043   3.571  1.7070  0.9359 -0.0259
  164DMF     H3 2453   1.220   2.162   3.679  0.8898  0.7548 -3.0780
  164DMF     H4 2454   1.510   1.890   3.758 -0.2586 -1.1607  0.3853
  164DMF     H5 2455   1.348   1.822   3.702 -0.8681 -0.9476  1.5088
  164DMF     H6 2456   1.379   1.824   3.865  0.5306 -0.7375 -0.6420
  164DMF     H7 2457   1.455   2.046   3.944  0.0378 -2.8000 -2.1340
  165DMF     C1 2458   1.561   2.356   3.538  0.2694 -0.0174 -0.0017
  165DMF     N1 2459   1.674   2.257   3.549 -0.3447  0.2554 -0.4921
  165DMF     C2 2460   1.638   2.111   3.566 -0.5187  0.0637 -0.0628
  165DMF     C3 2461   1.804   2.302   3.559 -0.2695 -0.0726  0.9252
  165DMF     O1 2462   1.827   2.418   3.559 -0.5879 -0.9084 -0.6077
  165DMF     H1 2463   1.584   2.439   3.606 -0.7935  1.1662 -1.0680
  165DMF     H2 2464   1.471   2.306   3.574 -1.2548  1.1646 -2.0078
  165DMF     H3 2465   1.556   2.401   3.438 -0.2483  1.3880  0.6481
  165DMF     H4 2466   1.574   2.096   3.654  3.4209 -1.6800  2.6282
  165DMF     H5 2467   1.727   2.049   3.578 -0.4211  0.0810 -0.6917
  165DMF     H6 2468   1.596   2.068   3.475  1.6860 -1.8511 -0.2295
  165DMF     H7 2469   1.880   2.222   3.563  1.1300  1.0124 -2.1957
  166DMF     C1 2470   1.679   2.345   0.943 -0.5297  0.6829 -0.6912
  166DMF     N1 2471   1.733   2.284   1.063  0.2185 -0.1433  0.1655
  166DMF     C2 2472   1.688   2.324   1.190  0.1552 -0.4980  0.2853
  166DMF     C3 2473   1.817   2.171   1.063 -0.4337 -0.3479 -0.4485
  166DMF     O1 2474   1.863   2.118   0.960  0.6004  0.1019  0.1200
  166DMF     H1 2475   1.641   2.445   0.967  1.7172  1.0096  1.7868
  166DMF     H2 2476   1.596   2.288   0.898 -0.9079  0.3512  0.4087
  166DMF     H3 2477   1.760   2.354   0.870 -0.0078 -1.7543 -0.4753
  166DMF     H4 2478   1.593   2.379   1.186  0.2387 -0.3200  0.6952
  166DMF     H5 2479   1.772   2.375   1.238  1.9437 -0.3602 -2.8320
  166DMF     H6 2480   1.674   2.235   1.253  0.6821  1.5409  3.3410
  166DMF     H7 2481   1.820   2.134   1.167 -0.6428 -0.0796 -0.3470
  167DMF     C1 2482   2.785   2.570   1.250  0.2110 -0.7852 -0.0318
  167DMF     N1 2483   2.780   2.462   1.142 -0.4024 -0.1199  0.5487
  167DMF     C2 2484   2.768   2.316   1.178  0.0120 -0.3646 -0.6820
  167DMF     C3 2485   2.830   2.499   1.012  0.2615 -0.6780 -0.0367
  167DMF     O1 2486   2.845   2.619   0.982  0.0414 -0.2148 -0.1612
  167DMF     H1 2487   2.820   2.528   1.345 -0.1742  1.4838  1.1559
  167DMF     H2 2488   2.691   2.625   1.249  1.7301  1.9410  0.5770
  167DMF     H3 2489   2.865   2.638   1.217 -0.4952  0.0133 -0.1258
  167DMF     H4 2490   2.733   2.263   1.089 -1.3407 -0.5057 -0.0785
  167DMF     H5 2491   2.706   2.307   1.268  1.4931 -0.1979  0.3800
  167DMF     H6 2492   2.861   2.268   1.211  0.6765  1.1794 -0.2548
  167DMF     H7 2493   2.843   2.415   0.941  0.4279  1.3762 -2.5070
  168DMF     C1 2494   0.779   2.376   3.489  0.3836 -0.1784  0.7142
  168DMF     N1 2495   0.858   2.352   3.371 -0.2507  0.9858  0.6004
  168DMF     C2 2496   0.907   2.219   3.346  0.5707  0.3087 -1.1691
  168DMF     C3 2497   0.894   2.452   3.274  0.2081  0.4678 -0.0936
  168DMF     O1 2498   0.873   2.569   3.298 -0.2732 -0.2467 -0.0102
  168DMF     H1 2499   0.731   2.284   3.523 -2.4697  1.3045  0.8755
  168DMF     H2 2500   0.702   2.449   3.460  0.7965 -0.1488 -0.3329
  168DMF     H3 2501   0.849   2.410   3.566  0.0957 -0.1419  0.9591
  168DMF     H4 2502   1.016   2.209   3.357  0.5144  0.9954  0.1996
  168DMF     H5 2503   0.881   2.195   3.242 -1.0221  0.7897 -0.8998
  168DMF     H6 2504   0.862   2.136   3.401 -0.7205 -0.0849 -2.7744
  168DMF     H7 2505   0.945   2.421   3.181 -0.3321  0.8723 -0.5319
  169DMF     C1 2506   1.895   3.421   3.000  0.3008  0.1009 -0.5389
  169DMF     N1 2507   2.034   3.434   2.936  0.1810 -0.1533 -0.4674
  169DMF     C2 2508   2.108   3.555   2.976  0.2088 -0.1461  0.0630
  169DMF     C3 2509   2.057   3.377   2.806  0.0553 -0.3266 -0.0455
  169DMF     O1 2510   1.984   3.293   2.764  0.1900 -0.2118  0.3536
  169DMF     H1 2511   1.884   3.508   3.066 -0.5283 -0.5275  0.1713
  169DMF     H2 2512   1.886   3.326   3.055 -0.8945  0.7735  0.4485
  169DMF     H3 2513   1.825   3.426   2.917 -0.9268  0.5866  0.5143
  169DMF     H4 2514   2.100   3.626   2.893  0.9758 -0.2691 -0.1163
  169DMF     H5 2515   2.208   3.518   3.003 -0.4517 -2.3870 -0.4111
  169DMF     H6 2516   2.070   3.596   3.071  0.2585 -0.8910  0.4100
  169DMF     H7 2517   2.146   3.407   2.748  1.4756 -2.7713  0.7965
  170DMF     C1 2518   0.972   1.483   2.612  0.0705 -0.3684 -0.3212
  170DMF     N1 2519   0.955   1.627   2.655  0.1459 -0.3678  0.2316
  170DMF     C2 2520   0.828   1.666   2.717  0.4254 -0.1814 -0.0236
  170DMF     C3 2521   1.055   1.724   2.638  0.4953  0.2669 -0.3914
  170DMF     O1 2522   1.159   1.693   2.591 -0.1561 -0.3351 -0.2559
  170DMF     H1 2523   0.927   1.475   2.513  0.0191  0.4969 -0.3726
  170DMF     H2 2524   0.935   1.421   2.694 -0.0100 -1.5956 -1.2867
  170DMF     H3 2525   1.080   1.465   2.602  0.0272  0.1156 -1.7698
  170DMF     H4 2526   0.747   1.601   2.680  1.7273 -1.3986 -0.7722
  170DMF     H5 2527   0.805   1.769   2.687 -0.6127 -0.0994  1.0074
  170DMF     H6 2528   0.836   1.660   2.826  0.0480 -0.1557  0.0056
  170DMF     H7 2529   1.030   1.826   2.674 -2.2487 -0.4185 -0.3211
  171DMF     C1 2530   2.280   1.127   0.578  0.2068 -0.5529  0.0694
  171DMF     N1 2531   2.297   1.084   0.439  0.5719  0.8845  0.4373
  171DMF     C2 2532   2.242   1.159   0.328  0.7261 -0.3338 -0.0936
  171DMF     C3 2533   2.379   0.980   0.412  0.1670 -0.4254  0.3899
  171DMF     O1 2534   2.460   0.937   0.494 -0.2227  0.0838  0.3350
  171DMF     H1 2535   2.176   1.158   0.593  0.5778  0.0709  1.3682
  171DMF     H2 2536   2.349   1.211   0.592 -0.5276  0.2234 -0.8308
  171DMF     H3 2537   2.305   1.044   0.644  3.3421  0.7544  0.6437
  171DMF     H4 2538   2.135   1.183   0.336  1.3695  3.3040 -1.3927
  171DMF     H5 2539   2.249   1.108   0.231 -1.7144  1.3534 -1.2044
  171DMF     H6 2540   2.301   1.251   0.320  0.0473  0.3030  1.9187
  171DMF     H7 2541   2.374   0.949   0.306  2.5775 -0.8538  0.3858
  172DMF     C1 2542   1.323   2.645   0.529 -0.8175 -0.0835 -0.9475
  172DMF     N1 2543   1.381   2.517   0.588 -0.3475  0.4372 -0.0489
  172DMF     C2 2544   1.381   2.404   0.500 -0.0202  0.2514 -0.4044
  172DMF     C3 2545   1.420   2.508   0.722  0.1498 -0.7099 -0.4238
  172DMF     O1 2546   1.412   2.606   0.801  0.0238  0.1455  0.1479
  172DMF     H1 2547   1.372   2.672   0.435  1.1058  2.3707  0.6581
  172DMF     H2 2548   1.345   2.733   0.592 -0.1426  1.5684 -3.4424
  172DMF     H3 2549   1.215   2.638   0.517 -0.6184 -1.2655 -2.0416
  172DMF     H4 2550   1.421   2.316   0.552 -1.3350 -0.4887 -0.6276
  172DMF     H5 2551   1.445   2.419   0.412  1.9640  0.0631  0.9630
  172DMF     H6 2552   1.281   2.371   0.471 -0.8380  0.1557  2.3225
  172DMF     H7 2553   1.452   2.407   0.752  1.3617  0.4145  2.1931
  173DMF     C1 2554   0.413   1.144   3.106  0.5714 -0.2027  0.1401
  173DMF     N1 2555   0.425   1.140   2.956 -0.1547  0.4746 -0.4937
  173DMF     C2 2556   0.520   1.053   2.894  0.3222 -0.8407 -0.1959
  173DMF     C3 2557   0.330   1.211   2.869 -0.2746  0.7740  0.4503
  173DMF     O1 2558   0.238   1.282   2.914 -0.0329  0.1930  0.2470
  173DMF     H1 2559   0.485   1.078   3.156  0.3673 -0.2770  0.3346
  173DMF     H2 2560   0.307   1.124   3.126  0.3644 -0.3240 -1.0383
  173DMF     H3 2561   0.440   1.243   3.144  1.3810 -0.8650  1.3121
  173DMF     H4 2562   0.479   0.978   2.824 -0.4944 -0.0643 -0.5580
  173DMF     H5 2563   0.579   1.004   2.972 -0.8858 -0.3534  1.0351
  173DMF     H6 2564   0.590   1.107   2.829 -0.2161 -2.3240 -2.0482
  173DMF     H7 2565   0.357   1.208   2.762  0.0079  1.0032  0.5141
  174DMF     C1 2566   1.551   2.046   1.546  0.4103 -0.3494 -0.1926
  174DMF     N1 2567   1.531   1.905   1.547  0.4303  0.8369 -0.4215
  174DMF     C2 2568   1.653   1.827   1.522  0.7956  0.4274 -0.2043
  174DMF     C3 2569   1.410   1.831   1.542 -1.0169 -0.7514  0.2659
  174DMF     O1 2570   1.295   1.876   1.553  0.1179  0.2896  1.0047
  174DMF     H1 2571   1.639   2.061   1.482  0.2252  2.1257  0.0842
  174DMF     H2 2572   1.555   2.093   1.645 -0.5049 -0.1064 -0.2695
  174DMF     H3 2573   1.459   2.079   1.495 -0.3918 -1.6417  0.3801
  174DMF     H4 2574   1.631   1.723   1.549  0.4440  0.2834 -1.0413
  174DMF     H5 2575   1.740   1.867   1.576  0.8227 -2.2846  1.8768
  174DMF     H6 2576   1.671   1.825   1.414  1.4199  2.4778 -0.1638
  174DMF     H7 2577   1.436   1.724   1.541 -0.2669 -0.5770 -1.3758
  175DMF     C1 2578   0.201   1.652   0.411  0.0140  0.0881 -0.2331
  175DMF     N1 2579   0.283   1.663   0.528  0.3974  0.1209 -0.1444
  175DMF     C2 2580   0.299   1.797   0.596 -0.4781  0.0516 -0.7555
  175DMF     C3 2581   0.348   1.548   0.577  0.3470  0.3676 -0.9401
  175DMF     O1 2582   0.334   1.439   0.524  0.2240  0.3215  0.0373
  175DMF     H1 2583   0.259   1.683   0.322 -1.5678 -0.2997 -1.4237
  175DMF     H2 2584   0.104   1.703   0.413  0.1611  0.4522 -1.5397
  175DMF     H3 2585   0.171   1.550   0.385  1.0383 -0.0255 -1.0041
  175DMF     H4 2586   0.380   1.785   0.670 -0.2912 -0.5009 -1.0403
  175DMF     H5 2587   0.213   1.840   0.647  1.4251  1.2172  1.5819
  175DMF     H6 2588   0.330   1.873   0.523 -2.6822  0.7508 -0.9921
  175DMF     H7 2589   0.414   1.558   0.665  1.4080 -0.0832 -1.6811
  176DMF     C1 2590   1.988   2.102   0.012  0.0061 -0.6799  0.1779
  176DMF     N1 2591   1.875   2.178   0.055  0.3555 -0.3365 -0.5293
  176DMF     C2 2592   1.900   2.312   0.107 -0.8322 -0.0418  0.0556
  176DMF     C3 2593   1.742   2.114   0.068 -0.3520  0.1885 -0.3389
  176DMF     O1 2594   1.731   2.002   0.030  0.4534  0.3082  0.8012
  176DMF     H1 2595   2.015   2.091  -0.094  1.5323  1.0947  0.3593
  176DMF     H2 2596   1.972   2.000   0.049 -0.9768 -0.6609 -0.1775
  176DMF     H3 2597   2.077   2.146   0.059 -0.1454 -0.0370 -0.1389
  176DMF     H4 2598   1.963   2.372   0.041 -1.1206 -1.1214 -1.2097
  176DMF     H5 2599   1.937   2.293   0.208 -1.3888  0.6485  0.4010
  176DMF     H6 2600   1.808   2.372   0.110 -2.0418 -1.8910  0.3042
  176DMF     H7 2601   1.664   2.182   0.107 -1.2109 -1.0032  0.0611
  177DMF     C1 2602   1.437   2.952   2.932  0.2936  0.6038  0.0187
  177DMF     N1 2603   1.502   2.913   2.802  0.5457  0.0103  0.5677
  177DMF     C2 2604   1.640   2.866   2.802 -0.1397 -0.3211 -0.4971
  177DMF     C3 2605   1.442   2.937   2.677  0.1493  0.0417 -0.0409
  177DMF     O1 2606   1.333   2.987   2.658 -0.2138  0.2383 -0.5860
  177DMF     H1 2607   1.364   3.034   2.927  0.4716  0.6986 -1.0858
  177DMF     H2 2608   1.510   2.980   3.009 -0.8848 -0.9531  1.7588
  177DMF     H3 2609   1.384   2.859   2.953 -0.0833  0.4140 -1.7000
  177DMF     H4 2610   1.676   2.870   2.906  1.1572  1.4581 -0.9977
  177DMF     H5 2611   1.702   2.935   2.744  3.2015 -2.8342 -0.0763
  177DMF     H6 2612   1.646   2.764   2.761 -1.7362 -0.3700 -0.6299
  177DMF     H7 2613   1.502   2.924   2.585  0.0154  2.0171 -0.4411
  178DMF     C1 2614   2.561   2.808   3.137  0.5140  0.4253  0.1002
  178DMF     N1 2615   2.441   2.819   3.225  0.6310 -0.4174 -0.2234
  178DMF     C2 2616   2.311   2.797   3.162  0.4575  0.0183 -0.3017
  178DMF     C3 2617   2.448   2.842   3.363  0.8721 -0.2318 -0.4897
  178DMF     O1 2618   2.552   2.860   3.428  0.4803  0.1931  0.2069
  178DMF     H1 2619   2.608   2.907   3.140 -1.2223  1.2176  2.8467
  178DMF     H2 2620   2.536   2.796   3.031 -0.5811 -0.1944  0.4182
  178DMF     H3 2621   2.629   2.735   3.182  0.7296  0.2838 -0.4511
  178DMF     H4 2622   2.322   2.717   3.087  0.4793 -1.4898  1.2769
  178DMF     H5 2623   2.266   2.886   3.116 -0.6584  0.0710  0.8745
  178DMF     H6 2624   2.246   2.763   3.243  0.6114  1.1038  0.2827
  178DMF     H7 2625   2.348   2.844   3.411  0.4575  0.0156 -1.3579
  179DMF     C1 2626   0.520   3.286   2.327  0.7933 -0.0739  0.0723
  179DMF     N1 2627   0.390   3.321   2.267  0.5442 -0.3590  0.4466
  179DMF     C2 2628   0.293   3.214   2.241  0.4339  0.1680  0.0390
  179DMF     C3 2629   0.374   3.458   2.213  0.4686 -0.6027 -0.4676
  179DMF     O1 2630   0.467   3.537   2.220 -0.0436  0.7032 -0.1461
  179DMF     H1 2631   0.598   3.360   2.308  1.5295 -1.2042 -1.3979
  179DMF     H2 2632   0.548   3.191   2.279 -1.2678 -0.1694 -0.9564
  179DMF     H3 2633   0.502   3.271   2.435  2.3786  0.2764  0.4014
  179DMF     H4 2634   0.190   3.250   2.233 -0.2217 -1.8931 -1.2687
  179DMF     H5 2635   0.287   3.151   2.331 -1.0919  0.6124  0.2631
  179DMF     H6 2636   0.312   3.163   2.146 -0.4877  0.7101 -0.4454
  179DMF     H7 2637   0.273   3.478   2.174  0.3052  0.0169  0.2698
  180DMF     C1 2638   0.069   2.937   2.587  0.4402  0.5835 -0.9364
  180DMF     N1 2639  -0.011   3.004   2.693  0.0073  0.2110 -0.2631
  180DMF     C2 2640  -0.147   3.051   2.652  0.4363  0.4266  0.0046
  180DMF     C3 2641   0.037   3.050   2.817 -0.1247  0.9268 -0.3902
  180DMF     O1 2642   0.154   3.054   2.852 -0.0113 -0.7449 -0.0533
  180DMF     H1 2643   0.007   2.902   2.504 -0.1237 -0.1337 -0.2274
  180DMF     H2 2644   0.140   2.862   2.624 -1.0082  0.5251  1.8995
  180DMF     H3 2645   0.136   3.017   2.554  2.7518 -1.6437 -1.7874
  180DMF     H4 2646  -0.167   3.027   2.546  1.0304 -0.3643  0.0665
  180DMF     H5 2647  -0.161   3.159   2.660 -2.0328  0.1167  0.1917
  180DMF     H6 2648  -0.224   3.011   2.719 -0.2658 -1.2258 -1.7441
  180DMF     H7 2649  -0.051   3.081   2.877 -0.2676 -2.1280  1.0597
  181DMF     C1 2650   3.297   0.930   0.107  0.0914  0.2551 -0.5281
  181DMF     N1 2651   3.370   0.995   0.218  0.3049 -0.1379 -0.0418
  181DMF     C2 2652   3.512   1.018   0.199 -0.4195  0.7410 -0.7107
  181DMF     C3 2653   3.292   1.058   0.327 -0.7334 -0.1280  0.2240
  181DMF     O1 2654   3.171   1.053   0.339  0.5607  0.1977 -0.3527
  181DMF     H1 2655   3.197   0.897   0.136 -0.0884 -0.5078 -1.9552
  181DMF     H2 2656   3.353   0.844   0.066  2.3125  0.3641  2.1498
  181DMF     H3 2657   3.289   0.999   0.022  2.1309 -0.8018 -1.6427
  181DMF     H4 2658   3.541   1.030   0.094  2.5658 -1.4874 -0.1912
  181DMF     H5 2659   3.572   0.941   0.250  0.2693  2.6176  1.3968
  181DMF     H6 2660   3.534   1.113   0.250  0.1822 -0.9301  2.2697
  181DMF     H7 2661   3.362   1.087   0.408 -0.4679  0.1137 -0.0883
  182DMF     C1 2662   0.329   0.724   3.050  0.9171 -0.2389  0.9713
  182DMF     N1 2663   0.321   0.580   3.059  0.0993  0.1487 -0.0415
  182DMF     C2 2664   0.370   0.495   2.950  0.1739 -0.4642  0.9709
  182DMF     C3 2665   0.258   0.521   3.175 -0.3138  0.2894 -0.0007
  182DMF     O1 2666   0.204   0.582   3.266  0.1371 -0.0973  0.1521
  182DMF     H1 2667   0.431   0.760   3.035  0.3672  1.2845  0.7926
  182DMF     H2 2668   0.298   0.761   3.148 -1.2610 -0.8672  0.5564
  182DMF     H3 2669   0.260   0.757   2.971  0.2012 -0.2023  1.6029
  182DMF     H4 2670   0.311   0.404   2.965  0.0301 -0.0677  3.0282
  182DMF     H5 2671   0.478   0.473   2.955  0.5675  1.5922  2.1858
  182DMF     H6 2672   0.344   0.542   2.854  3.4747 -0.4634  0.0131
  182DMF     H7 2673   0.246   0.411   3.164  0.6863  0.1743 -0.0440
  183DMF     C1 2674   1.543   1.612   3.588 -0.2370 -0.4615  0.0916
  183DMF     N1 2675   1.627   1.653   3.706 -0.7342 -0.0244  0.0552
  183DMF     C2 2676   1.765   1.684   3.675  0.2452  0.2845  0.0765
  183DMF     C3 2677   1.585   1.645   3.837  0.6580 -0.3160  1.3705
  183DMF     O1 2678   1.474   1.595   3.858  0.0587 -0.0082 -0.1907
  183DMF     H1 2679   1.439   1.646   3.590 -0.0401  0.1872 -0.5778
  183DMF     H2 2680   1.539   1.502   3.583 -0.5020 -0.4009 -1.4315
  183DMF     H3 2681   1.580   1.660   3.496 -0.0194 -2.5940 -0.9662
  183DMF     H4 2682   1.835   1.658   3.756  0.1241  3.4498  1.2848
  183DMF     H5 2683   1.775   1.794   3.674 -1.1967  0.4259 -0.4974
  183DMF     H6 2684   1.793   1.647   3.576 -1.9161  2.3349 -1.3522
  183DMF     H7 2685   1.661   1.678   3.910  0.5265 -0.6931  1.6807
  184DMF     C1 2686   2.252   1.652   0.361 -0.9263  0.6160 -1.5307
  184DMF     N1 2687   2.215   1.618   0.501  0.1901  0.3191 -0.1607
  184DMF     C2 2688   2.125   1.503   0.519 -0.4675 -0.0174  0.2291
  184DMF     C3 2689   2.253   1.698   0.615  0.0684 -0.1992  0.2821
  184DMF     O1 2690   2.318   1.801   0.602  0.4425 -0.0168  0.3273
  184DMF     H1 2691   2.165   1.659   0.295 -0.9167 -0.6931 -1.6895
  184DMF     H2 2692   2.327   1.574   0.342  0.4673  1.4050  0.4693
  184DMF     H3 2693   2.306   1.748   0.366  0.6339 -0.2817 -0.8826
  184DMF     H4 2694   2.187   1.414   0.530 -0.1372 -0.0453 -1.6910
  184DMF     H5 2695   2.058   1.494   0.432  1.9055 -2.0427 -1.4652
  184DMF     H6 2696   2.068   1.516   0.612 -0.1905 -2.4478  0.7807
  184DMF     H7 2697   2.217   1.666   0.714 -1.4684  0.1188 -0.1598
  185DMF     C1 2698   1.397   3.325   0.338  0.0791  0.0110  0.1714
  185DMF     N1 2699   1.412   3.391   0.470  0.4035 -0.3861 -0.1378
  185DMF     C2 2700   1.300   3.470   0.515  0.7377 -0.2280 -0.3221
  185DMF     C3 2701   1.527   3.371   0.554  0.4252  0.0344 -0.2116
  185DMF     O1 2702   1.614   3.303   0.513 -0.0807  0.6926 -0.0791
  185DMF     H1 2703   1.292   3.307   0.310  0.7273 -1.5862 -1.3436
  185DMF     H2 2704   1.442   3.225   0.346  0.7904  0.3172  0.0352
  185DMF     H3 2705   1.440   3.392   0.263 -2.3928 -0.7928 -2.0430
  185DMF     H4 2706   1.319   3.507   0.616  1.5757  0.4059 -0.7134
  185DMF     H5 2707   1.212   3.405   0.527 -0.4417  1.5953  1.1944
  185DMF     H6 2708   1.282   3.548   0.440 -1.4769 -0.6263 -0.2527
  185DMF     H7 2709   1.528   3.419   0.654 -1.9311  0.4067 -0.3276
  186DMF     C1 2710   0.676   3.280   3.004 -0.2049  0.2685  0.0594
  186DMF     N1 2711   0.730   3.382   2.911 -0.4327  0.2900  0.3366
  186DMF     C2 2712   0.789   3.497   2.972  1.1585 -0.4724  0.0765
  186DMF     C3 2713   0.725   3.363   2.774 -0.1678  0.1023 -0.2701
  186DMF     O1 2714   0.674   3.263   2.724 -0.0902  0.3671 -0.3934
  186DMF     H1 2715   0.571   3.274   2.974 -0.4018  1.1461  0.5532
  186DMF     H2 2716   0.694   3.307   3.109 -3.2134  2.3008  0.0981
  186DMF     H3 2717   0.728   3.187   2.979 -1.4767  0.3025 -2.8711
  186DMF     H4 2718   0.811   3.482   3.078 -2.9664 -0.5155  1.0376
  186DMF     H5 2719   0.717   3.579   2.965  2.6011  0.7365 -0.8464
  186DMF     H6 2720   0.879   3.529   2.919  1.0326  0.6104  0.5036
  186DMF     H7 2721   0.778   3.445   2.721  0.1591  1.1308  1.5977
  187DMF     C1 2722   2.128   0.384   3.469  0.4114 -0.0897 -0.1571
  187DMF     N1 2723   2.024   0.293   3.414 -0.4329 -0.6696 -0.0536
  187DMF     C2 2724   2.070   0.155   3.381 -0.0956 -0.5039 -0.1149
  187DMF     C3 2725   1.897   0.339   3.367  0.3501 -0.9015  0.3582
  187DMF     O1 2726   1.860   0.449   3.381  0.3444 -0.6899  0.3188
  187DMF     H1 2727   2.110   0.484   3.426  1.0496 -0.2069 -0.6938
  187DMF     H2 2728   2.230   0.362   3.436  0.5860  1.0967 -0.4316
  187DMF     H3 2729   2.119   0.400   3.578 -1.4876  1.6889 -0.5262
  187DMF     H4 2730   2.156   0.131   3.445 -0.8455 -1.4663  0.5412
  187DMF     H5 2731   2.089   0.124   3.278 -0.1107 -0.9415  0.0143
  187DMF     H6 2732   2.001   0.080   3.422  1.0185 -0.9271  1.0294
  187DMF     H7 2733   1.837   0.254   3.331  0.9539 -0.9961 -0.4282
  188DMF     C1 2734   3.113   2.838   1.083  0.3859 -0.3222  0.3574
  188DMF     N1 2735   3.244   2.912   1.089  0.0502  0.0249 -0.2566
  188DMF     C2 2736   3.294   2.946   1.216  0.6644 -0.1487 -0.1659
  188DMF     C3 2737   3.297   2.967   0.973 -0.2727 -0.2378 -0.1156
  188DMF     O1 2738   3.238   2.965   0.867  0.6093  0.7695  0.3205
  188DMF     H1 2739   3.026   2.899   1.054  1.0849  1.6909  2.3435
  188DMF     H2 2740   3.079   2.794   1.178  2.6651 -0.9060  0.9289
  188DMF     H3 2741   3.122   2.750   1.018 -1.0206  0.2442 -0.6404
  188DMF     H4 2742   3.211   2.951   1.288  0.0139  1.0515 -0.9820
  188DMF     H5 2743   3.329   3.050   1.207  0.3093 -0.0472 -0.3667
  188DMF     H6 2744   3.377   2.884   1.251  0.2044  0.0725  1.3705
  188DMF     H7 2745   3.396   3.015   0.983 -0.1974 -0.5843  0.8143
  189DMF     C1 2746   1.654   1.876   2.698 -0.5197 -0.2124 -0.6093
  189DMF     N1 2747   1.529   1.830   2.638  0.8313 -0.8083 -0.3197
  189DMF     C2 2748   1.457   1.928   2.544 -0.4835  0.2440 -0.1679
  189DMF     C3 2749   1.471   1.709   2.672  0.6953  0.1750  0.7025
  189DMF     O1 2750   1.518   1.627   2.759  0.2167 -0.2749  0.0373
  189DMF     H1 2751   1.717   1.792   2.732 -1.8797 -0.3568  1.6574
  189DMF     H2 2752   1.642   1.952   2.776  0.0169 -1.6868  0.9532
  189DMF     H3 2753   1.712   1.922   2.617  0.1475  0.4626  0.2349
  189DMF     H4 2754   1.495   1.921   2.441 -2.1212  1.4803 -0.8967
  189DMF     H5 2755   1.469   2.035   2.566  1.2715 -0.1839  1.0049
  189DMF     H6 2756   1.351   1.901   2.539 -0.5011 -0.8650  4.5283
  189DMF     H7 2757   1.379   1.688   2.614  0.1235  1.9152  0.9589
  190DMF     C1 2758   2.801   2.737   2.276  0.1602 -0.7141  0.2285
  190DMF     N1 2759   2.724   2.628   2.229 -0.5712 -0.3019 -0.1809
  190DMF     C2 2760   2.579   2.650   2.222 -0.5347 -0.5361 -0.7056
  190DMF     C3 2761   2.781   2.498   2.225  0.3813  0.2030 -0.3966
  190DMF     O1 2762   2.900   2.478   2.244 -0.0008  0.1750  0.1211
  190DMF     H1 2763   2.742   2.819   2.320 -0.0954 -0.2192 -1.0306
  190DMF     H2 2764   2.869   2.765   2.195  0.3259  0.7211  0.8396
  190DMF     H3 2765   2.859   2.709   2.365  0.6458  0.9210  0.4479
  190DMF     H4 2766   2.540   2.735   2.166 -0.7047  0.3981  0.7835
  190DMF     H5 2767   2.556   2.672   2.327  2.3819  2.4247 -0.5951
  190DMF     H6 2768   2.521   2.560   2.199  1.1044 -1.7906 -0.1094
  190DMF     H7 2769   2.709   2.421   2.193 -1.2130  1.3493  0.4097
  191DMF     C1 2770   1.151   1.169   2.390  0.3422 -0.3620  0.4250
  191DMF     N1 2771   1.042   1.149   2.297 -0.6570 -0.2021  0.7988
  191DMF     C2 2772   1.001   1.000   2.274 -0.0665 -0.3922  0.1334
  191DMF     C3 2773   0.976   1.256   2.251  0.7032 -0.1131  0.6482
  191DMF     O1 2774   1.002   1.374   2.271  0.0777 -0.0762  0.2349
  191DMF     H1 2775   1.220   1.245   2.352 -0.7627 -0.6117 -2.1676
  191DMF     H2 2776   1.208   1.076   2.403  2.4413  1.0407  1.5008
  191DMF     H3 2777   1.091   1.192   2.479 -0.2541 -1.8290  0.4293
  191DMF     H4 2778   0.897   1.008   2.241  0.0580 -0.7800 -0.3543
  191DMF     H5 2779   1.025   0.941   2.364  0.4030  2.2251  1.7848
  191DMF     H6 2780   1.058   0.961   2.189 -0.5549  0.8321 -0.7673
  191DMF     H7 2781   0.885   1.229   2.193  0.8331  0.2764  0.2610
  192DMF     C1 2782   3.046   3.024   2.261 -0.5925 -0.2475 -0.6128
  192DMF     N1 2783   3.175   2.962   2.239 -0.4420 -0.5851 -0.0088
  192DMF     C2 2784   3.174   2.810   2.242  0.8629 -0.5340  0.2981
  192DMF     C3 2785   3.294   3.039   2.248 -0.2336 -0.5180 -0.1719
  192DMF     O1 2786   3.298   3.159   2.242  0.5568  0.2596 -0.0202
  192DMF     H1 2787   3.049   3.132   2.238  4.3455 -0.5955 -2.1356
  192DMF     H2 2788   3.030   3.018   2.369  0.0107 -0.0533 -0.5108
  192DMF     H3 2789   2.969   2.966   2.208 -0.9855 -2.7445  2.5897
  192DMF     H4 2790   3.278   2.780   2.257  0.5790 -1.5394  0.2909
  192DMF     H5 2791   3.130   2.776   2.148  1.0676  0.1534 -0.0494
  192DMF     H6 2792   3.102   2.778   2.319  0.7771  1.0184  0.8973
  192DMF     H7 2793   3.383   2.974   2.262  0.1147 -0.0628 -0.2630
  193DMF     C1 2794   2.052   0.844   0.490 -0.1363 -0.9286  0.0009
  193DMF     N1 2795   1.952   0.821   0.382  0.0860  0.7431 -0.7948
  193DMF     C2 2796   1.840   0.738   0.417  0.4896 -0.2160 -0.1853
  193DMF     C3 2797   1.966   0.855   0.251  0.1691  0.1540  0.0615
  193DMF     O1 2798   2.054   0.931   0.213 -0.4661  0.3250 -0.0562
  193DMF     H1 2799   2.128   0.765   0.490  0.9694  0.1062 -1.8853
  193DMF     H2 2800   1.996   0.852   0.584 -0.5256 -0.5559 -0.2642
  193DMF     H3 2801   2.110   0.936   0.473  0.9309 -1.1902  2.0684
  193DMF     H4 2802   1.750   0.789   0.381 -0.7139 -0.5024  2.3214
  193DMF     H5 2803   1.839   0.731   0.526  0.5498 -0.0143 -0.1699
  193DMF     H6 2804   1.843   0.638   0.372  0.5237 -0.5351  0.5379
  193DMF     H7 2805   1.888   0.815   0.184  0.6928 -1.0013  0.1274
  194DMF     C1 2806   1.669   0.695   0.850  1.0392  0.2927  0.0296
  194DMF     N1 2807   1.572   0.586   0.842 -0.1752  0.0600  0.2840
  194DMF     C2 2808   1.438   0.621   0.792  0.2219 -0.0458  0.1749
  194DMF     C3 2809   1.601   0.457   0.874 -0.2512 -0.2683 -0.2633
  194DMF     O1 2810   1.708   0.426   0.926 -0.0421 -0.1325 -0.5250
  194DMF     H1 2811   1.768   0.668   0.889  0.6950 -1.9667 -0.5532
  194DMF     H2 2812   1.636   0.769   0.924  0.4623  1.1913 -1.1073
  194DMF     H3 2813   1.689   0.724   0.746  0.9191  0.1127 -0.0444
  194DMF     H4 2814   1.403   0.708   0.848  3.9970  1.1632  0.8033
  194DMF     H5 2815   1.372   0.536   0.812 -0.5961 -0.4104 -3.6672
  194DMF     H6 2816   1.437   0.649   0.686  0.0704 -0.5735  0.0378
  194DMF     H7 2817   1.520   0.384   0.858 -2.2597  0.9601  3.5317
  195DMF     C1 2818   2.976   1.003   1.558 -0.2142 -0.1542  0.7004
  195DMF     N1 2819   2.924   1.140   1.552  0.5813 -0.0624  0.5390
  195DMF     C2 2820   2.779   1.171   1.549  0.8077 -0.2221  0.0972
  195DMF     C3 2821   3.015   1.247   1.557 -0.2744 -0.5840  0.0006
  195DMF     O1 2822   3.137   1.228   1.552  0.4715  0.3142 -0.3439
  195DMF     H1 2823   2.984   0.972   1.453 -1.1396 -0.6983  0.7836
  195DMF     H2 2824   2.897   0.936   1.596  0.8218 -1.4392  0.6531
  195DMF     H3 2825   3.073   0.996   1.610 -0.0619 -1.2477  0.2968
  195DMF     H4 2826   2.739   1.106   1.628  2.4831 -2.4930 -0.8718
  195DMF     H5 2827   2.741   1.146   1.450  3.4188 -0.0648 -0.9727
  195DMF     H6 2828   2.764   1.277   1.572  0.6355 -0.7871  2.7870
  195DMF     H7 2829   2.972   1.348   1.554 -0.2325 -0.5850 -0.8033
  196DMF     C1 2830   1.246   1.496   0.849 -0.2283 -0.0422 -0.7350
  196DMF     N1 2831   1.333   1.386   0.795 -0.5059  0.6179 -0.8187
  196DMF     C2 2832   1.479   1.377   0.848  0.6376  1.0771  0.5286
  196DMF     C3 2833   1.274   1.282   0.718  0.7213  1.0153  0.1119
  196DMF     O1 2834   1.153   1.282   0.682 -0.0740  0.8862  0.4577
  196DMF     H1 2835   1.234   1.481   0.957 -1.0606  1.9136 -0.5407
  196DMF     H2 2836   1.156   1.502   0.786 -0.6339 -3.5566 -0.6001
  196DMF     H3 2837   1.304   1.588   0.833 -2.6516  2.0277  1.8578
  196DMF     H4 2838   1.495   1.460   0.917 -0.5641  1.0246  0.8829
  196DMF     H5 2839   1.553   1.386   0.768 -0.4200  3.6732 -0.2076
  196DMF     H6 2840   1.501   1.283   0.900  1.7235  0.9989 -0.0678
  196DMF     H7 2841   1.349   1.206   0.691 -0.4018  0.0392 -0.2799
  197DMF     C1 2842   1.322   0.740   3.433  0.5568  0.1467 -0.3891
  197DMF     N1 2843   1.187   0.727   3.482 -0.4606  0.7120 -0.3315
  197DMF     C2 2844   1.092   0.841   3.456 -0.0886 -0.1709 -0.0936
  197DMF     C3 2845   1.142   0.618   3.547 -0.4420  0.9899 -0.2260
  197DMF     O1 2846   1.215   0.523   3.573 -0.1197  0.0012  0.0081
  197DMF     H1 2847   1.392   0.759   3.515  0.7958 -2.6693  0.1048
  197DMF     H2 2848   1.329   0.809   3.348 -1.0921 -0.3557 -0.9592
  197DMF     H3 2849   1.350   0.646   3.383 -2.3749 -0.9700 -0.0399
  197DMF     H4 2850   1.018   0.803   3.385 -1.6045 -1.0415  1.8975
  197DMF     H5 2851   1.151   0.927   3.422 -0.9108 -0.5813 -2.6541
  197DMF     H6 2852   1.044   0.860   3.553  0.7742  1.7756 -0.0229
  197DMF     H7 2853   1.037   0.630   3.580  0.0982  1.7851  1.2545
  198DMF     C1 2854   3.053   3.307   3.285  0.0903  0.3996  0.3807
  198DMF     N1 2855   3.148   3.309   3.169  0.0835 -0.6100  0.1504
  198DMF     C2 2856   3.122   3.208   3.054  0.1789 -0.3881 -1.3981
  198DMF     C3 2857   3.263   3.379   3.163  0.3284  0.2627 -0.1567
  198DMF     O1 2858   3.290   3.470   3.235  0.8693 -0.5065 -0.5339
  198DMF     H1 2859   3.079   3.239   3.367 -1.7208 -0.0297  0.6218
  198DMF     H2 2860   2.952   3.288   3.247 -0.2787  2.1304  0.4308
  198DMF     H3 2861   3.046   3.404   3.336  0.7555 -0.1762  1.5753
  198DMF     H4 2862   3.213   3.156   3.021  1.4369  0.1334  1.1496
  198DMF     H5 2863   3.080   3.268   2.973 -0.4001 -2.0313 -2.3544
  198DMF     H6 2864   3.039   3.143   3.087 -0.3467  1.6804  1.4895
  198DMF     H7 2865   3.327   3.348   3.079  0.3330 -2.4066  0.7668
  199DMF     C1 2866   1.362   2.414   1.532  0.3830 -0.1377  0.0961
  199DMF     N1 2867   1.479   2.499   1.550 -0.0739 -0.2054  0.5873
  199DMF     C2 2868   1.471   2.639   1.517 -0.2520 -0.9847  0.0583
  199DMF     C3 2869   1.609   2.439   1.554 -0.0730 -0.3341 -0.2487
  199DMF     O1 2870   1.632   2.321   1.556  0.4652  0.1198  0.2074
  199DMF     H1 2871   1.382   2.325   1.593  0.0488 -0.2134  0.0951
  199DMF     H2 2872   1.359   2.378   1.429  2.1643  0.7534 -0.2995
  199DMF     H3 2873   1.266   2.455   1.565  1.1716  0.9378  1.1076
  199DMF     H4 2874   1.402   2.657   1.434  0.4573 -0.6776 -0.4705
  199DMF     H5 2875   1.568   2.683   1.492  0.1141 -1.5267  0.5211
  199DMF     H6 2876   1.433   2.692   1.605 -0.9965  1.5949 -1.7602
  199DMF     H7 2877   1.691   2.512   1.566  1.3267 -1.8501 -0.4860
  200DMF     C1 2878   2.828   1.210   3.087  0.6553 -0.3484 -0.6977
  200DMF     N1 2879   2.834   1.126   2.974  0.6959  0.4845  0.7167
  200DMF     C2 2880   2.956   1.116   2.889  0.9103 -0.0729  0.0395
  200DMF     C3 2881   2.725   1.044   2.947 -0.3507 -0.3490 -0.0950
  200DMF     O1 2882   2.625   1.051   3.007  0.0255  0.3349 -0.8138
  200DMF     H1 2883   2.773   1.302   3.064 -1.7381 -1.6900 -0.5464
  200DMF     H2 2884   2.926   1.217   3.135  1.6679 -0.4526 -2.7061
  200DMF     H3 2885   2.775   1.159   3.169  2.2536  0.1114  0.6349
  200DMF     H4 2886   2.961   1.011   2.856  2.1769  0.6766 -2.2680
  200DMF     H5 2887   3.048   1.128   2.947  0.4153 -0.4954  0.9299
  200DMF     H6 2888   2.939   1.169   2.795 -1.6837 -0.3114  0.3480
  200DMF     H7 2889   2.746   0.973   2.865  2.3307 -0.1064  0.3194
  201DMF     C1 2890   3.353   2.557   1.269 -0.1722  0.2987  0.0943
  201DMF     N1 2891   3.452   2.470   1.327 -0.1698 -0.3645 -0.0957
  201DMF     C2 2892   3.536   2.380   1.234 -0.3228 -0.7734 -0.0432
  201DMF     C3 2893   3.492   2.475   1.463  0.7950  0.0326 -0.4640
  201DMF     O1 2894   3.453   2.560   1.540  0.3027 -0.3066 -0.5077
  201DMF     H1 2895   3.391   2.591   1.172 -1.5469 -0.2885 -0.6742
  201DMF     H2 2896   3.330   2.642   1.334 -0.8282 -0.8549  1.4022
  201DMF     H3 2897   3.266   2.492   1.253  0.4900 -1.0493  1.7607
  201DMF     H4 2898   3.477   2.295   1.197  1.6928 -1.4207 -1.8950
  201DMF     H5 2899   3.628   2.336   1.272 -0.6354 -0.0808  1.5535
  201DMF     H6 2900   3.554   2.430   1.138  1.8063  0.7198  1.1053
  201DMF     H7 2901   3.562   2.395   1.496 -0.5041 -1.4996 -1.3261
  202DMF     C1 2902   1.691   1.116   0.220  0.1824  0.1353  0.2711
  202DMF     N1 2903   1.676   1.256   0.168 -0.1977  0.4581  0.2848
  202DMF     C2 2904   1.594   1.351   0.242  0.2271  0.0288  0.2665
  202DMF     C3 2905   1.771   1.302   0.071 -0.6873 -0.5594 -0.3061
  202DMF     O1 2906   1.863   1.231   0.024  0.0395  0.2746 -0.2718
  202DMF     H1 2907   1.788   1.101   0.268 -0.6022  0.6651  2.0534
  202DMF     H2 2908   1.684   1.050   0.133  4.0576  1.3118 -1.0173
  202DMF     H3 2909   1.613   1.094   0.294  0.5238 -0.6830  0.3862
  202DMF     H4 2910   1.551   1.304   0.331 -0.4986  1.3043  0.5850
  202DMF     H5 2911   1.511   1.389   0.182  0.2473  0.1611  0.3222
  202DMF     H6 2912   1.656   1.438   0.267  0.3531  0.3280 -1.0235
  202DMF     H7 2913   1.751   1.406   0.042  0.5926 -0.1869  0.1399
  203DMF     C1 2914   0.103   2.276   3.445  1.1474 -0.7375 -0.9267
  203DMF     N1 2915   0.109   2.151   3.524  0.1637 -0.2895  0.5534
  203DMF     C2 2916   0.193   2.154   3.646  0.4256 -0.7273 -0.4665
  203DMF     C3 2917   0.040   2.034   3.486  0.1260 -0.0688  0.2913
  203DMF     O1 2918  -0.029   2.019   3.379  0.2087 -0.7389  0.2519
  203DMF     H1 2919   0.200   2.328   3.448  1.4992 -1.2964 -2.2081
  203DMF     H2 2920   0.029   2.341   3.493  1.5447 -0.6064 -0.4775
  203DMF     H3 2921   0.083   2.259   3.338  0.6231 -1.3426 -0.7364
  203DMF     H4 2922   0.161   2.229   3.719  2.4082 -0.6606  0.3578
  203DMF     H5 2923   0.300   2.163   3.623  0.6100 -0.5392  0.4248
  203DMF     H6 2924   0.184   2.055   3.693  1.1143 -0.3350  0.5037
  203DMF     H7 2925   0.062   1.953   3.557  0.1131 -0.7054 -0.4194
  204DMF     C1 2926   2.099   0.671   1.521  0.0444  0.2882  0.0482
  204DMF     N1 2927   1.966   0.728   1.546 -0.4513 -0.4404 -0.0030
  204DMF     C2 2928   1.927   0.860   1.498  0.3833  0.2324 -0.5887
  204DMF     C3 2929   1.865   0.639   1.577  0.3318 -0.1415  0.4264
  204DMF     O1 2930   1.892   0.522   1.593 -0.2557 -0.1792  0.0555
  204DMF     H1 2931   2.085   0.599   1.439 -2.8087  0.1805  0.5542
  204DMF     H2 2932   2.139   0.636   1.617 -0.5972 -0.2190  0.1369
  204DMF     H3 2933   2.158   0.747   1.470  0.8072 -0.2462  0.1261
  204DMF     H4 2934   2.018   0.908   1.460  1.2909  0.2112  1.4953
  204DMF     H5 2935   1.884   0.918   1.580 -0.6685 -1.3236  0.0002
  204DMF     H6 2936   1.849   0.840   1.424 -0.3417 -0.6529  0.4094
  204DMF     H7 2937   1.764   0.683   1.574  1.7307  3.3040  1.7566
  205DMF     C1 2938   0.601   0.881   2.234  0.0681  0.9900 -0.1000
  205DMF     N1 2939   0.496   0.978   2.230  0.3605  0.4173  0.4815
  205DMF     C2 2940   0.360   0.936   2.218  0.5235  0.4700 -0.0248
  205DMF     C3 2941   0.528   1.115   2.224 -0.0382  0.5298  1.0302
  205DMF     O1 2942   0.644   1.148   2.238  0.0904 -0.3518  0.0373
  205DMF     H1 2943   0.675   0.897   2.155  0.3027 -0.6336 -0.2381
  205DMF     H2 2944   0.561   0.779   2.231  2.2067  0.0863  0.7832
  205DMF     H3 2945   0.659   0.882   2.327 -1.0949 -1.1309  0.6861
  205DMF     H4 2946   0.309   0.960   2.312  0.9507 -1.7494  0.8040
  205DMF     H5 2947   0.344   0.828   2.217  1.3836  0.3330 -2.8750
  205DMF     H6 2948   0.304   0.986   2.139  0.9540 -1.3132 -1.4860
  205DMF     H7 2949   0.441   1.184   2.222  0.2831  0.9285 -2.7304
  206DMF     C1 2950   2.999   1.678   2.898 -0.0095  0.4998  0.5940
  206DMF     N1 2951   2.869   1.742   2.888  0.3202 -0.4245  0.1893
  206DMF     C2 2952   2.854   1.870   2.804 -0.7335  0.4122  0.0135
  206DMF     C3 2953   2.766   1.713   2.978 -0.2037  0.0035  0.2097
  206DMF     O1 2954   2.776   1.624   3.062 -0.5721  0.0046  0.0358
  206DMF     H1 2955   3.053   1.694   2.993  0.6310 -0.0704  0.3281
  206DMF     H2 2956   3.062   1.710   2.814  0.4119  1.2449  1.1850
  206DMF     H3 2957   2.987   1.570   2.889 -0.1656  0.5638 -0.0005
  206DMF     H4 2958   2.768   1.927   2.839 -0.7901 -0.2013  0.9000
  206DMF     H5 2959   2.837   1.840   2.700  0.8551  0.4470 -0.2745
  206DMF     H6 2960   2.948   1.927   2.804  0.2472 -1.1870  0.2641
  206DMF     H7 2961   2.684   1.786   2.980 -0.8402 -0.6751 -0.6927
  207DMF     C1 2962   2.598   0.457   2.240  0.0422  0.1264 -0.4104
  207DMF     N1 2963   2.703   0.360   2.248  0.3015  0.0619  0.3201
  207DMF     C2 2964   2.665   0.217   2.231  0.5391 -0.3511  0.2647
  207DMF     C3 2965   2.844   0.403   2.256 -0.0298  0.3260  0.2289
  207DMF     O1 2966   2.877   0.519   2.277 -0.2029  0.1085 -0.6199
  207DMF     H1 2967   2.552   0.477   2.338  0.4646  1.2127 -0.4321
  207DMF     H2 2968   2.516   0.433   2.171 -0.3967  0.0402  0.1396
  207DMF     H3 2969   2.641   0.555   2.218 -0.1829  0.0863 -1.0487
  207DMF     H4 2970   2.746   0.164   2.181  0.7545  0.8212 -0.6342
  207DMF     H5 2971   2.575   0.203   2.170  0.6124 -3.0228  0.7216
  207DMF     H6 2972   2.649   0.170   2.329 -2.5490 -0.2669 -0.1446
  207DMF     H7 2973   2.905   0.313   2.239  1.2352  0.7003  2.5875
  208DMF     C1 2974   1.651   2.679   1.202  0.2499 -0.7689 -0.0123
  208DMF     N1 2975   1.537   2.709   1.117 -1.1013  0.5236  0.0302
  208DMF     C2 2976   1.541   2.819   1.024 -0.1360 -0.6786  0.7836
  208DMF     C3 2977   1.416   2.636   1.131  0.3814 -1.2394 -0.2706
  208DMF     O1 2978   1.400   2.546   1.207  0.2186 -0.1716 -0.3159
  208DMF     H1 2979   1.677   2.770   1.257 -2.0316  1.5872 -2.6895
  208DMF     H2 2980   1.725   2.643   1.129 -0.0932 -0.0738 -0.7017
  208DMF     H3 2981   1.622   2.607   1.280 -2.4364 -0.3895 -0.5971
  208DMF     H4 2982   1.558   2.772   0.926  1.6592 -1.5050  1.4844
  208DMF     H5 2983   1.621   2.892   1.041  1.3606 -2.5140  1.7373
  208DMF     H6 2984   1.448   2.878   1.029 -0.0627 -0.5436  0.5538
  208DMF     H7 2985   1.333   2.671   1.068 -1.8099 -2.8626  1.6419
  209DMF     C1 2986   2.218   0.790   3.514 -0.3501 -0.1059  0.5733
  209DMF     N1 2987   2.200   0.909   3.605  0.4259  0.6365 -0.2220
  209DMF     C2 2988   2.299   1.016   3.596  0.2572 -0.0813 -0.3496
  209DMF     C3 2989   2.090   0.919   3.690 -0.3768  0.2328  0.5129
  209DMF     O1 2990   1.992   0.840   3.690 -0.4028  0.1532 -0.1006
  209DMF     H1 2991   2.270   0.712   3.571  2.2622  1.0716 -0.1667
  209DMF     H2 2992   2.260   0.823   3.419 -2.5116 -1.0516 -0.7676
  209DMF     H3 2993   2.125   0.745   3.475 -0.3476  0.1687  0.2480
  209DMF     H4 2994   2.370   0.998   3.514  0.4971  2.1793 -0.6771
  209DMF     H5 2995   2.348   1.019   3.695 -1.8155  1.5442  0.6690
  209DMF     H6 2996   2.259   1.118   3.586 -2.6237 -1.1178  0.1964
  209DMF     H7 2997   2.110   1.002   3.761 -0.0903  1.7617 -1.3186
  210DMF     C1 2998   2.890   3.101   0.751  0.4230 -0.8463 -0.3015
  210DMF     N1 2999   2.881   2.975   0.681  0.7433  0.1402 -0.6727
  210DMF     C2 3000   2.932   2.857   0.751  0.6070 -0.1856  0.6738
  210DMF     C3 3001   2.825   2.969   0.556  0.4485 -0.0992  0.3907
  210DMF     O1 3002   2.775   3.067   0.511  0.1366 -0.0345 -0.5058
  210DMF     H1 3003   2.840   3.188   0.705  0.9741  1.5729  3.4237
  210DMF     H2 3004   2.997   3.122   0.750  0.3540 -0.4778 -1.0853
  210DMF     H3 3005   2.855   3.094   0.854  2.3667  0.2877  0.4540
  210DMF     H4 3006   3.032   2.827   0.718  0.0117  0.2630 -1.6165
  210DMF     H5 3007   2.860   2.775   0.743  0.2044  0.1657  0.6938
  210DMF     H6 3008   2.939   2.885   0.857  0.1131 -0.2990  0.7393
  210DMF     H7 3009   2.825   2.866   0.518  0.0199 -0.9585  2.6087
  211DMF     C1 3010   2.585   2.210   3.210  0.4201  0.0491 -0.5627
  211DMF     N1 3011   2.724   2.219   3.167  0.0504  0.7196  0.4532
  211DMF     C2 3012   2.794   2.347   3.174  0.1821  0.0120  0.0212
  211DMF     C3 3013   2.798   2.113   3.112  0.3863 -0.0050 -0.4656
  211DMF     O1 3014   2.746   2.005   3.089 -0.4417 -0.3792 -0.0078
  211DMF     H1 3015   2.565   2.271   3.300 -0.5992 -1.2051  0.0652
  211DMF     H2 3016   2.566   2.108   3.243  1.3147  0.0224 -0.1093
  211DMF     H3 3017   2.531   2.247   3.123 -0.3410  0.4411  0.0642
  211DMF     H4 3018   2.757   2.415   3.097 -0.9683  1.1020  1.5207
  211DMF     H5 3019   2.902   2.342   3.154  0.6828  1.3976  2.1775
  211DMF     H6 3020   2.769   2.394   3.270  1.1804 -0.2607  0.4227
  211DMF     H7 3021   2.907   2.123   3.096  1.0883 -2.5722  2.1448
  212DMF     C1 3022   2.344   2.124   0.379  0.3403 -0.2908  0.0073
  212DMF     N1 3023   2.342   2.108   0.528  0.1123 -0.4140 -0.0544
  212DMF     C2 3024   2.233   2.179   0.600  0.5282 -0.3594  0.4843
  212DMF     C3 3025   2.448   2.053   0.598 -0.9681 -0.1668 -0.0438
  212DMF     O1 3026   2.553   2.022   0.548  0.1052  0.2447 -0.0210
  212DMF     H1 3027   2.245   2.123   0.332 -0.2158 -3.3430  1.1234
  212DMF     H2 3028   2.404   2.039   0.345  1.4996  0.6110 -0.2590
  212DMF     H3 3029   2.410   2.206   0.347  0.2484 -0.3659 -0.3665
  212DMF     H4 3030   2.146   2.185   0.533  0.0996  2.2384  1.2179
  212DMF     H5 3031   2.259   2.281   0.629  2.3455 -1.3134  2.2918
  212DMF     H6 3032   2.197   2.116   0.682  0.8515 -1.9401 -0.5540
  212DMF     H7 3033   2.437   2.046   0.707  3.7271 -2.3100  0.4029
  213DMF     C1 3034   2.105   3.032   0.793  0.7453  0.2593 -0.1864
  213DMF     N1 3035   2.099   2.888   0.794  0.0675  0.6786  0.7650
  213DMF     C2 3036   1.994   2.815   0.869 -0.7629 -0.1620 -0.0785
  213DMF     C3 3037   2.184   2.822   0.715 -0.1432  0.9939  0.1921
  213DMF     O1 3038   2.270   2.876   0.649  0.5797 -0.7603 -0.0335
  213DMF     H1 3039   2.058   3.055   0.696 -0.8292  1.1731  0.7656
  213DMF     H2 3040   2.202   3.081   0.804  2.3893 -2.6288 -1.2039
  213DMF     H3 3041   2.046   3.058   0.882  0.1742 -0.3181 -0.3925
  213DMF     H4 3042   1.911   2.881   0.896 -1.0015  0.9083 -3.1371
  213DMF     H5 3043   2.036   2.768   0.958 -0.1920 -0.1255 -0.3244
  213DMF     H6 3044   1.950   2.737   0.806 -0.7593  0.6863 -1.1627
  213DMF     H7 3045   2.164   2.713   0.711 -0.6838  1.1226 -1.0496
  214DMF     C1 3046   0.818   3.095   3.306  0.0676 -0.5564 -0.7504
  214DMF     N1 3047   0.833   2.946   3.317 -0.1390 -0.2493  0.1862
  214DMF     C2 3048   0.731   2.862   3.244 -1.0869 -0.1489 -1.2164
  214DMF     C3 3049   0.923   2.890   3.411 -0.8366 -0.6402 -0.2493
  214DMF     O1 3050   0.998   2.958   3.476 -0.3290  0.5355  0.0646
  214DMF     H1 3051   0.877   3.138   3.387  0.1420 -0.7859 -0.6821
  214DMF     H2 3052   0.716   3.128   3.326 -0.9048 -1.6607 -3.6277
  214DMF     H3 3053   0.852   3.141   3.212  0.5733  1.8517  0.5723
  214DMF     H4 3054   0.719   2.764   3.292 -2.9688  1.2370  1.2831
  214DMF     H5 3055   0.764   2.852   3.140  3.0636 -0.5380  0.0396
  214DMF     H6 3056   0.632   2.908   3.250 -0.6034  0.8924 -1.0593
  214DMF     H7 3057   0.920   2.781   3.427 -1.4884 -0.4702  0.7863
  215DMF     C1 3058   1.883   2.983   2.244  0.6159 -0.3259  0.6941
  215DMF     N1 3059   1.907   3.027   2.384 -0.1239  0.1635  0.3729
  215DMF     C2 3060   1.994   3.144   2.398 -0.6483  0.3332  0.0175
  215DMF     C3 3061   1.827   2.981   2.491  0.3413 -0.1825  0.4060
  215DMF     O1 3062   1.743   2.889   2.481 -0.0183 -0.9722 -0.5190
  215DMF     H1 3063   1.976   2.957   2.193  0.3508 -1.0890  0.5958
  215DMF     H2 3064   1.835   3.063   2.186  0.3998 -0.1409  1.1287
  215DMF     H3 3065   1.819   2.895   2.234  0.2738  0.0669 -0.7885
  215DMF     H4 3066   1.954   3.214   2.325  0.1781  1.3584  0.5327
  215DMF     H5 3067   2.094   3.114   2.363 -1.0629  0.7435 -1.5289
  215DMF     H6 3068   1.994   3.181   2.501 -2.0513  1.6139 -0.4383
  215DMF     H7 3069   1.839   3.049   2.577  1.0746 -0.5988  0.6300
  216DMF     C1 3070   1.973   3.240   0.345  0.3952 -0.3453  0.3790
  216DMF     N1 3071   2.086   3.333   0.366  0.5720  0.0681 -0.0036
  216DMF     C2 3072   2.189   3.283   0.448 -0.0031 -0.0565 -0.5300
  216DMF     C3 3073   2.073   3.471   0.340  0.2918  0.5692 -0.1779
  216DMF     O1 3074   1.974   3.512   0.282  0.5861  0.4627 -0.1095
  216DMF     H1 3075   1.988   3.141   0.389 -0.7711  0.0212  1.6287
  216DMF     H2 3076   1.950   3.227   0.238 -2.3676 -1.4495  1.0419
  216DMF     H3 3077   1.891   3.293   0.395 -1.0063  0.6576 -2.8425
  216DMF     H4 3078   2.271   3.263   0.377 -0.1397 -0.4626 -0.5760
  216DMF     H5 3079   2.154   3.188   0.492  0.6974  0.4920  1.2546
  216DMF     H6 3080   2.209   3.356   0.527 -4.7087  0.7194  0.1185
  216DMF     H7 3081   2.157   3.532   0.377 -0.2709  0.4108  1.4015
  217DMF     C1 3082   2.113   2.621   0.160 -0.4796  0.3048  0.0775
  217DMF     N1 3083   2.192   2.504   0.184 -0.1408 -0.3111 -0.2936
  217DMF     C2 3084   2.257   2.442   0.070  0.6188 -0.0910  0.2172
  217DMF     C3 3085   2.203   2.449   0.317  0.1356 -0.2033  0.4282
  217DMF     O1 3086   2.144   2.490   0.415 -0.1297 -0.2676  0.4406
  217DMF     H1 3087   2.144   2.702   0.227  0.9773 -0.5196  0.4150
  217DMF     H2 3088   2.006   2.604   0.177 -0.1481  0.2824  2.1654
  217DMF     H3 3089   2.127   2.660   0.058  2.1976 -0.9672 -0.0850
  217DMF     H4 3090   2.254   2.333   0.083  0.6636  0.1042  2.0093
  217DMF     H5 3091   2.360   2.479   0.058  0.9898 -1.3967 -0.7610
  217DMF     H6 3092   2.203   2.478  -0.018  0.9432 -0.0897  0.0186
  217DMF     H7 3093   2.264   2.357   0.318 -0.4469 -0.5897  0.3435
  218DMF     C1 3094   1.275   0.702   2.263  0.3995 -0.4085  0.4907
  218DMF     N1 3095   1.187   0.619   2.341  0.0366 -0.4956  0.1676
  218DMF     C2 3096   1.141   0.487   2.290  0.3917  0.0704 -0.5891
  218DMF     C3 3097   1.124   0.682   2.455 -0.4754 -0.9589 -0.0954
  218DMF     O1 3098   1.163   0.791   2.500 -0.5090  0.2768  0.1463
  218DMF     H1 3099   1.367   0.717   2.321  0.1536 -2.1864  1.3465
  218DMF     H2 3100   1.223   0.796   2.239 -0.4691 -1.1310 -0.4854
  218DMF     H3 3101   1.310   0.647   2.174 -2.3201 -0.2383 -0.7257
  218DMF     H4 3102   1.172   0.474   2.186 -2.3981  0.1575 -1.4669
  218DMF     H5 3103   1.033   0.482   2.309  0.3700 -1.7213 -1.1167
  218DMF     H6 3104   1.187   0.408   2.351 -0.2694  0.2268  0.1239
  218DMF     H7 3105   1.027   0.633   2.477 -0.4259 -2.0896 -2.2336
  219DMF     C1 3106   2.770   3.402   2.942  0.4496  0.1913 -0.3565
  219DMF     N1 3107   2.719   3.324   3.060 -0.6313  0.1510  0.2949
  219DMF     C2 3108   2.651   3.404   3.164 -0.3796 -0.0697 -0.2881
  219DMF     C3 3109   2.739   3.187   3.074 -0.9866 -0.6969  0.5489
  219DMF     O1 3110   2.801   3.119   2.993  0.1791 -0.0280  0.1880
  219DMF     H1 3111   2.860   3.451   2.982  1.2486 -0.9149 -0.7866
  219DMF     H2 3112   2.698   3.480   2.914 -1.5747 -1.0737  1.1657
  219DMF     H3 3113   2.792   3.343   2.853 -1.7176  0.2066 -0.9253
  219DMF     H4 3114   2.632   3.508   3.135  2.4001  0.5092 -0.1580
  219DMF     H5 3115   2.711   3.414   3.255 -0.0740 -0.7575 -0.4140
  219DMF     H6 3116   2.553   3.360   3.188 -0.3028  0.3535  0.8506
  219DMF     H7 3117   2.684   3.137   3.156 -2.4584  0.7483  0.4684
  220DMF     C1 3118   0.353   2.069   2.241  0.1825  0.0134 -0.0997
  220DMF     N1 3119   0.441   2.180   2.204 -0.3045  0.4678 -0.5246
  220DMF     C2 3120   0.381   2.310   2.225  0.4209  0.3677  0.4852
  220DMF     C3 3121   0.579   2.164   2.222 -0.1483 -0.3892 -0.9727
  220DMF     O1 3122   0.627   2.056   2.245 -0.1783 -0.1979 -0.1234
  220DMF     H1 3123   0.366   1.986   2.171  1.7346  0.0112  0.1786
  220DMF     H2 3124   0.248   2.098   2.235  0.2351  0.3778  0.6648
  220DMF     H3 3125   0.379   2.034   2.342  0.6691 -0.8964 -0.5339
  220DMF     H4 3126   0.386   2.328   2.333  3.8773  2.6881  0.0317
  220DMF     H5 3127   0.276   2.307   2.196  0.3189 -0.2025  0.8897
  220DMF     H6 3128   0.442   2.388   2.178  1.6669 -1.8020 -1.6361
  220DMF     H7 3129   0.642   2.254   2.227  0.5109 -0.9400  1.0856
  221DMF     C1 3130   0.645   0.528   1.206  0.0352 -1.0719  0.3432
  221DMF     N1 3131   0.690   0.632   1.112  0.5790 -0.4168 -0.3795
  221DMF     C2 3132   0.692   0.605   0.967 -0.4949 -0.0770  0.6666
  221DMF     C3 3133   0.748   0.750   1.156  1.0291  0.2759 -0.4502
  221DMF     O1 3134   0.769   0.773   1.277 -0.1081 -0.3689 -0.9396
  221DMF     H1 3135   0.712   0.442   1.216  3.1789  1.4398  1.6325
  221DMF     H2 3136   0.540   0.503   1.185  0.1526 -0.8660 -0.5013
  221DMF     H3 3137   0.646   0.573   1.307  0.0427  0.0673 -0.1601
  221DMF     H4 3138   0.782   0.555   0.929 -0.4307  0.6717 -0.1926
  221DMF     H5 3139   0.664   0.692   0.905 -0.1379 -0.6183 -0.2602
  221DMF     H6 3140   0.615   0.528   0.957 -2.2115  1.5820  0.7577
  221DMF     H7 3141   0.771   0.823   1.076 -0.0076  2.3237  1.0402
  222DMF     C1 3142   2.447   0.144   0.977 -0.0077 -0.5352 -0.0412
  222DMF     N1 3143   2.494   0.143   0.838  0.2968  0.3969 -0.0754
  222DMF     C2 3144   2.636   0.175   0.804  0.1395  0.7331  0.0937
  222DMF     C3 3145   2.398   0.106   0.738 -0.1283  0.1284 -0.2908
  222DMF     O1 3146   2.281   0.071   0.765 -0.0589 -0.2577 -0.0186
  222DMF     H1 3147   2.413   0.042   1.000 -1.8416 -0.1290 -0.8150
  222DMF     H2 3148   2.371   0.224   0.986  0.4006  0.0879 -1.7583
  222DMF     H3 3149   2.530   0.171   1.042  0.1654 -1.6818  0.2209
  222DMF     H4 3150   2.677   0.236   0.885 -0.0180  0.7870  0.1324
  222DMF     H5 3151   2.650   0.230   0.710 -0.1131  1.5448  0.5258
  222DMF     H6 3152   2.695   0.083   0.809 -2.5678 -1.0594  0.1888
  222DMF     H7 3153   2.442   0.125   0.639 -0.8491  0.2630 -0.5882
  223DMF     C1 3154   0.640   2.122   0.007  0.8761 -0.3111  0.3340
  223DMF     N1 3155   0.538   2.220   0.026 -0.0731  0.0891  1.3752
  223DMF     C2 3156   0.548   2.335  -0.065  0.1643  0.3883  0.5941
  223DMF     C3 3157   0.424   2.197   0.101 -0.3622  0.6997 -0.4299
  223DMF     O1 3158   0.409   2.087   0.154  0.5713  0.7239 -0.6972
  223DMF     H1 3159   0.708   2.150  -0.074 -0.9757  5.2672  0.5417
  223DMF     H2 3160   0.593   2.029  -0.026  2.5621 -0.8731 -0.5598
  223DMF     H3 3161   0.689   2.107   0.104 -2.4140 -0.6414  2.0211
  223DMF     H4 3162   0.487   2.321  -0.155 -0.3063  1.6408  0.6968
  223DMF     H5 3163   0.654   2.348  -0.089  0.0515 -1.5965 -1.1453
  223DMF     H6 3164   0.508   2.428  -0.021 -1.3493 -1.0402  2.3340
  223DMF     H7 3165   0.349   2.278   0.108 -2.4178 -1.1787 -0.1065
  224DMF     C1 3166   0.869   1.254   0.779  0.0296 -0.2356 -0.2176
  224DMF     N1 3167   0.732   1.253   0.833  0.1688 -0.3002 -0.3412
  224DMF     C2 3168   0.625   1.182   0.753 -0.0818  0.0905  1.0258
  224DMF     C3 3169   0.695   1.322   0.954  0.5257  0.6269 -0.2394
  224DMF     O1 3170   0.776   1.379   1.030 -0.3676 -0.1284 -0.2751
  224DMF     H1 3171   0.920   1.157   0.790 -0.8718 -0.7667 -0.7100
  224DMF     H2 3172   0.929   1.330   0.830 -0.8253  1.7480 -2.1082
  224DMF     H3 3173   0.869   1.267   0.670  0.3820  0.8646 -0.0886
  224DMF     H4 3174   0.543   1.252   0.732  0.4477  0.1120 -1.1414
  224DMF     H5 3175   0.599   1.088   0.802  1.4548 -0.8657  0.0504
  224DMF     H6 3176   0.661   1.168   0.650  0.7311 -2.3520  1.6082
  224DMF     H7 3177   0.587   1.316   0.977  0.6821  3.5425  1.5803
  225DMF     C1 3178   1.304   3.092   3.763 -0.7961 -0.2785 -0.4809
  225DMF     N1 3179   1.450   3.082   3.742 -0.0697 -0.0339  0.3694
  225DMF     C2 3180   1.519   2.978   3.821 -0.1916  0.0781 -0.2712
  225DMF     C3 3181   1.516   3.145   3.639 -0.3908  0.0206 -0.7486
  225DMF     O1 3182   1.461   3.218   3.564  0.2924  0.4110 -0.0373
  225DMF     H1 3183   1.247   3.028   3.695 -0.3376 -0.8958 -0.2898
  225DMF     H2 3184   1.268   3.193   3.742  0.0070 -0.1275 -1.1527
  225DMF     H3 3185   1.286   3.070   3.869 -1.0194 -1.3521 -0.7357
  225DMF     H4 3186   1.537   2.902   3.744  0.1703 -0.6701  0.5583
  225DMF     H5 3187   1.447   2.944   3.896 -1.1504  1.6954 -0.4249
  225DMF     H6 3188   1.614   3.005   3.867 -0.7699 -0.8367  1.5047
  225DMF     H7 3189   1.625   3.129   3.635 -0.1787  1.5711 -1.5881
  226DMF     C1 3190   2.000   1.292   2.274  0.3304  0.0727 -0.0302
  226DMF     N1 3191   2.124   1.342   2.341  0.3515  0.9566  0.1469
  226DMF     C2 3192   2.117   1.445   2.449  0.6554  1.0164 -0.0112
  226DMF     C3 3193   2.248   1.278   2.316 -0.2498 -0.1205  0.3771
  226DMF     O1 3194   2.261   1.181   2.248  0.8615 -0.1684 -0.1491
  226DMF     H1 3195   2.005   1.183   2.286 -0.1924 -0.1722 -1.8902
  226DMF     H2 3196   2.013   1.323   2.170  2.7853 -0.8381 -0.0306
  226DMF     H3 3197   1.922   1.332   2.341 -1.2383 -3.8217  0.5993
  226DMF     H4 3198   2.031   1.425   2.514 -0.7148 -0.1458 -2.1217
  226DMF     H5 3199   2.101   1.546   2.408 -0.9236  1.7027  2.2383
  226DMF     H6 3200   2.208   1.442   2.511  0.1194 -1.6331  0.7269
  226DMF     H7 3201   2.334   1.328   2.364 -1.7301  1.5550  1.3731
  227DMF     C1 3202   0.982   2.923   3.005 -0.1145 -0.4393  0.4316
  227DMF     N1 3203   1.004   2.931   2.859 -0.1571 -0.8303 -0.5171
  227DMF     C2 3204   0.987   3.061   2.800 -0.4505 -0.6397  0.1606
  227DMF     C3 3205   1.056   2.826   2.784 -0.5359 -0.0537  0.3849
  227DMF     O1 3206   1.079   2.716   2.833 -0.7942  0.8763  0.4245
  227DMF     H1 3207   0.895   2.987   3.024 -0.5161 -0.7028 -0.4751
  227DMF     H2 3208   1.072   2.952   3.062  2.2347 -3.6528 -1.4532
  227DMF     H3 3209   0.963   2.816   3.019  1.9840 -0.8808  0.1613
  227DMF     H4 3210   1.025   3.138   2.868  0.8745 -0.9047 -0.2709
  227DMF     H5 3211   0.879   3.073   2.784  0.0154  4.3069  0.0332
  227DMF     H6 3212   1.028   3.060   2.698  0.7017 -0.2032  0.6056
  227DMF     H7 3213   1.067   2.850   2.676 -0.3732  0.3006  0.4774
  228DMF     C1 3214   0.428   0.823   1.160 -0.2549 -0.0358 -0.2515
  228DMF     N1 3215   0.298   0.882   1.176  0.1881 -0.5720 -0.1108
  228DMF     C2 3216   0.179   0.801   1.204 -0.0484 -0.0597 -0.2874
  228DMF     C3 3217   0.294   1.019   1.201 -0.5459 -0.3819  0.1770
  228DMF     O1 3218   0.398   1.084   1.192  0.6433 -0.5715  0.2984
  228DMF     H1 3219   0.474   0.845   1.063  0.5451 -0.4241  0.0328
  228DMF     H2 3220   0.416   0.714   1.164 -0.3780 -0.0154 -0.0288
  228DMF     H3 3221   0.496   0.839   1.245  0.0274 -0.3033 -0.4234
  228DMF     H4 3222   0.120   0.848   1.284  0.7307 -0.4177  0.4987
  228DMF     H5 3223   0.212   0.706   1.247 -1.8855 -1.2117 -1.3187
  228DMF     H6 3224   0.127   0.787   1.108 -1.8334  0.5673  0.5615
  228DMF     H7 3225   0.195   1.049   1.239 -0.5517 -0.9864  0.6386
  229DMF     C1 3226   2.798   3.217   1.187  0.6392  0.3518 -0.2246
  229DMF     N1 3227   2.904   3.323   1.181 -0.2211 -0.9588 -0.4198
  229DMF     C2 3228   3.042   3.278   1.182 -0.4213 -0.4254  0.6165
  229DMF     C3 3229   2.874   3.459   1.185 -0.2421 -0.3093 -0.0970
  229DMF     O1 3230   2.763   3.505   1.177 -0.0035  0.4840  0.1442
  229DMF     H1 3231   2.697   3.259   1.185  0.4278 -0.1724 -0.5583
  229DMF     H2 3232   2.820   3.160   1.278  1.6272  1.2214  0.0963
  229DMF     H3 3233   2.815   3.164   1.093 -3.4670 -0.8435 -0.3596
  229DMF     H4 3234   3.061   3.182   1.134 -0.8120 -0.3559  0.3246
  229DMF     H5 3235   3.085   3.271   1.282  0.2168 -0.8143  0.3153
  229DMF     H6 3236   3.102   3.342   1.116 -1.3158  1.8991  1.9754
  229DMF     H7 3237   2.955   3.533   1.199  2.2376 -2.8013 -0.9091
  230DMF     C1 3238   2.893   1.920   0.955  0.8392 -0.0771 -0.0933
  230DMF     N1 3239   2.806   1.942   0.836 -0.1810  0.1102 -0.2006
  230DMF     C2 3240   2.763   1.836   0.744 -0.2219 -0.4097  0.9740
  230DMF     C3 3241   2.783   2.074   0.796  0.5761  0.4430  0.3578
  230DMF     O1 3242   2.801   2.173   0.873  0.5384  0.0034 -0.6102
  230DMF     H1 3243   2.972   1.996   0.951  0.0642  0.6850 -1.2006
  230DMF     H2 3244   2.942   1.822   0.960  2.5980  0.7899  0.2250
  230DMF     H3 3245   2.840   1.929   1.051 -1.3817 -0.5345 -1.2484
  230DMF     H4 3246   2.808   1.742   0.776 -1.7015 -1.3439  0.3620
  230DMF     H5 3247   2.814   1.851   0.648  0.6624 -2.5273  1.0804
  230DMF     H6 3248   2.654   1.839   0.732 -0.0825 -1.0026 -0.5964
  230DMF     H7 3249   2.741   2.089   0.695 -3.4685  0.4204  1.9108
  231DMF     C1 3250   2.696   2.524   3.704 -1.0062 -0.3292  0.1275
  231DMF     N1 3251   2.686   2.668   3.712 -0.1881 -0.1062  0.4851
  231DMF     C2 3252   2.803   2.753   3.740 -0.3943 -0.1190  0.3071
  231DMF     C3 3253   2.568   2.734   3.675 -0.2754 -0.1699 -0.4438
  231DMF     O1 3254   2.467   2.671   3.653 -0.1859  0.2680  0.0526
  231DMF     H1 3255   2.603   2.469   3.721 -1.6216  0.3619 -0.9441
  231DMF     H2 3256   2.767   2.498   3.784 -1.3635  0.4848  0.7278
  231DMF     H3 3257   2.740   2.499   3.607  0.0437 -1.0835  0.7802
  231DMF     H4 3258   2.855   2.719   3.830  1.1010 -2.6865 -1.4372
  231DMF     H5 3259   2.763   2.852   3.764 -0.3045  0.1585 -0.6560
  231DMF     H6 3260   2.861   2.754   3.647 -1.6232 -1.8677 -0.5172
  231DMF     H7 3261   2.574   2.844   3.683  0.5085 -0.2092 -0.4366
  232DMF     C1 3262   0.289   3.214   3.627  0.1123  0.3739 -0.0543
  232DMF     N1 3263   0.353   3.352   3.631  0.5050 -0.5719  0.1587
  232DMF     C2 3264   0.465   3.365   3.722 -0.3071 -0.5243 -0.1528
  232DMF     C3 3265   0.311   3.458   3.557 -0.1464  0.2289 -0.4697
  232DMF     O1 3266   0.225   3.454   3.472  0.3442 -0.0835  0.7829
  232DMF     H1 3267   0.252   3.183   3.726 -1.6630  0.3091 -0.7144
  232DMF     H2 3268   0.369   3.143   3.602 -0.1527 -0.1224  0.4924
  232DMF     H3 3269   0.214   3.198   3.548  1.0955 -0.2715 -0.8704
  232DMF     H4 3270   0.413   3.331   3.812 -0.0808  0.7229  0.4541
  232DMF     H5 3271   0.507   3.466   3.730 -1.9422  0.2571 -1.1417
  232DMF     H6 3272   0.547   3.295   3.708 -1.3840 -1.5855 -1.2935
  232DMF     H7 3273   0.373   3.546   3.582  2.1878 -1.3887 -0.4145
  233DMF     C1 3274   3.130   0.232   1.408 -0.1223  0.3133  0.2105
  233DMF     N1 3275   3.074   0.125   1.499  0.8575  0.8043  0.2321
  233DMF     C2 3276   2.931   0.120   1.516 -1.0747 -0.0438  0.2686
  233DMF     C3 3277   3.149   0.019   1.548  0.0291 -0.4128 -0.3413
  233DMF     O1 3278   3.267   0.005   1.531 -0.0236  0.5338  0.2526
  233DMF     H1 3279   3.041   0.278   1.362 -0.5918 -1.1638 -0.3915
  233DMF     H2 3280   3.180   0.192   1.319 -1.7061 -2.5321  0.5355
  233DMF     H3 3281   3.201   0.298   1.459 -0.5509  0.8885  0.0690
  233DMF     H4 3282   2.908   0.186   1.601 -1.0156 -0.5028  0.6430
  233DMF     H5 3283   2.903   0.014   1.517 -1.3711  0.0241 -0.5597
  233DMF     H6 3284   2.882   0.154   1.424 -0.7179  0.9693  0.4489
  233DMF     H7 3285   3.085  -0.045   1.612  1.1724 -1.0329  0.2092
  234DMF     C1 3286   0.402   0.722   2.633  0.2496 -0.6392 -0.1248
  234DMF     N1 3287   0.265   0.756   2.598  0.2857  0.4709  0.6550
  234DMF     C2 3288   0.178   0.652   2.550 -0.0353  0.8101  0.6557
  234DMF     C3 3289   0.211   0.880   2.611 -0.3827 -0.2017 -0.0542
  234DMF     O1 3290   0.270   0.973   2.663  0.0452  0.7622 -0.4238
  234DMF     H1 3291   0.470   0.776   2.566 -0.2367  0.1697  0.0147
  234DMF     H2 3292   0.423   0.615   2.621  1.2177 -0.5892  1.0985
  234DMF     H3 3293   0.424   0.762   2.733  1.2355  1.8874 -1.3008
  234DMF     H4 3294   0.133   0.593   2.631 -2.1707 -0.0356 -1.1234
  234DMF     H5 3295   0.233   0.578   2.491 -0.1312  1.6198 -0.4638
  234DMF     H6 3296   0.090   0.688   2.497 -0.6714 -0.8104  0.5800
  234DMF     H7 3297   0.105   0.885   2.579  0.1954  0.2541 -1.9738
  235DMF     C1 3298   0.391   0.078   2.988  0.3064  0.3185  0.3489
  235DMF     N1 3299   0.371   0.117   3.130 -0.0656  0.4532 -0.0016
  235DMF     C2 3300   0.242   0.109   3.189 -0.3953 -0.3651  0.2231
  235DMF     C3 3301   0.480   0.163   3.208  0.2266  0.3115  0.1526
  235DMF     O1 3302   0.596   0.169   3.176 -0.2688  0.2894 -0.4519
  235DMF     H1 3303   0.335   0.146   2.923  0.8085  0.4624  0.0570
  235DMF     H2 3304   0.361  -0.027   2.976  2.5670 -0.3075 -0.1007
  235DMF     H3 3305   0.499   0.091   2.971 -0.3761  2.0060 -3.1654
  235DMF     H4 3306   0.161   0.132   3.120 -0.7474 -1.7254  0.1872
  235DMF     H5 3307   0.228   0.174   3.277  2.2024 -0.2258  0.5973
  235DMF     H6 3308   0.223   0.009   3.230 -0.5936 -0.0688  0.8737
  235DMF     H7 3309   0.446   0.202   3.306 -0.8109  1.5473 -0.6912
  236DMF     C1 3310   3.367   0.009   2.682 -0.7760 -0.1910 -0.3428
  236DMF     N1 3311   3.503  -0.048   2.714 -0.3505 -0.2902  0.6203
  236DMF     C2 3312   3.576  -0.100   2.599  0.0220  0.3896 -0.1544
  236DMF     C3 3313   3.548  -0.079   2.836  0.8180 -0.3603 -0.6302
  236DMF     O1 3314   3.492  -0.032   2.934  0.4052 -0.6377 -0.1970
  236DMF     H1 3315   3.351   0.036   2.577 -1.1359  0.9210 -0.0091
  236DMF     H2 3316   3.335   0.094   2.744 -1.6107 -1.1541  0.5681
  236DMF     H3 3317   3.292  -0.069   2.700 -0.5300 -1.0032 -2.6524
  236DMF     H4 3318   3.631  -0.193   2.620 -0.8498  0.0850  0.8028
  236DMF     H5 3319   3.646  -0.027   2.556  0.0361  0.1951 -0.4617
  236DMF     H6 3320   3.507  -0.127   2.518 -0.0017  2.0721 -0.7197
  236DMF     H7 3321   3.644  -0.133   2.840  0.0524 -1.7778 -1.0504
  237DMF     C1 3322   2.909   3.405   2.560 -0.2499 -0.0139 -0.2145
  237DMF     N1 3323   2.883   3.548   2.588 -0.2771 -0.2191  0.1574
  237DMF     C2 3324   2.748   3.588   2.612  0.0274  0.1152 -0.1908
  237DMF     C3 3325   2.991   3.638   2.600  0.3424 -0.0591  0.1580
  237DMF     O1 3326   3.108   3.599   2.603 -0.6652  0.1776  0.2736
  237DMF     H1 3327   3.014   3.385   2.537  0.4320  0.5503  2.2936
  237DMF     H2 3328   2.849   3.374   2.474  0.9150 -2.9670 -0.0023
  237DMF     H3 3329   2.880   3.348   2.649  3.0616  1.4892  1.9211
  237DMF     H4 3330   2.726   3.680   2.557  1.4468  0.7120  0.2137
  237DMF     H5 3331   2.733   3.600   2.721 -0.1405  2.8605 -0.4688
  237DMF     H6 3332   2.683   3.508   2.576  0.3047  1.0661 -2.9346
  237DMF     H7 3333   2.954   3.742   2.607 -0.7788 -0.5515  2.0115
  238DMF     C1 3334   2.476   3.221   0.945 -0.6347 -0.5452  0.3256
  238DMF     N1 3335   2.537   3.122   0.853 -0.2868  0.0238 -0.0948
  238DMF     C2 3336   2.552   3.159   0.711  0.1687 -0.6474  0.0109
  238DMF     C3 3337   2.558   2.992   0.891 -0.1013  0.2721 -0.0624
  238DMF     O1 3338   2.547   2.963   1.010 -0.8578 -0.0082  0.0597
  238DMF     H1 3339   2.447   3.311   0.890 -1.3508 -1.6101 -1.0910
  238DMF     H2 3340   2.549   3.253   1.021 -0.2143 -0.4711 -0.1036
  238DMF     H3 3341   2.392   3.178   1.000  0.6480 -0.1738  2.6032
  238DMF     H4 3342   2.465   3.213   0.673  0.2427 -0.7956 -0.3738
  238DMF     H5 3343   2.567   3.066   0.654 -1.6722 -2.3035  2.1260
  238DMF     H6 3344   2.636   3.228   0.701  1.0722 -1.7317  0.0287
  238DMF     H7 3345   2.598   2.925   0.813 -3.4907 -0.2102 -1.4753
  239DMF     C1 3346   1.114   2.064   1.137 -0.4178  0.2669 -0.1612
  239DMF     N1 3347   1.226   2.148   1.170 -0.4169 -0.0366 -0.7234
  239DMF     C2 3348   1.265   2.140   1.318  0.4411 -0.0983  0.9012
  239DMF     C3 3349   1.305   2.224   1.079 -0.3904  0.2446  0.1329
  239DMF     O1 3350   1.292   2.224   0.958 -0.0197  0.3164 -0.5196
  239DMF     H1 3351   1.080   2.100   1.039 -0.5250 -2.3400 -1.1144
  239DMF     H2 3352   1.031   2.085   1.205 -1.7935  1.3337 -2.0935
  239DMF     H3 3353   1.135   1.957   1.139  2.8674  0.8913  3.4300
  239DMF     H4 3354   1.211   2.208   1.384 -0.6619 -0.7692  0.7094
  239DMF     H5 3355   1.372   2.165   1.321  0.9486 -1.8934 -0.9347
  239DMF     H6 3356   1.257   2.036   1.352 -0.8223  0.3300  1.9379
  239DMF     H7 3357   1.391   2.272   1.130 -0.2717 -0.8212  0.9391
  240DMF     C1 3358   0.182   0.815   3.672 -0.5100 -0.5529 -0.0294
  240DMF     N1 3359   0.221   0.822   3.528 -0.2843 -0.7624 -0.7942
  240DMF     C2 3360   0.360   0.818   3.485 -0.0468 -0.5613 -0.3741
  240DMF     C3 3361   0.115   0.826   3.435 -0.0276  0.1091 -0.4970
  240DMF     O1 3362   0.003   0.836   3.470 -0.3386  0.7923 -0.1307
  240DMF     H1 3363   0.279   0.800   3.721 -1.0649 -3.5309  0.2877
  240DMF     H2 3364   0.120   0.725   3.689 -0.4420 -0.8220 -1.1621
  240DMF     H3 3365   0.125   0.904   3.702  3.8055  2.2349  0.2656
  240DMF     H4 3366   0.390   0.923   3.477  0.7534 -0.9168 -2.2402
  240DMF     H5 3367   0.380   0.764   3.392  0.5784 -2.1932  0.6651
  240DMF     H6 3368   0.412   0.768   3.568  0.5189 -0.1351 -0.4685
  240DMF     H7 3369   0.151   0.820   3.331  3.0391  0.6403  0.4720
  241DMF     C1 3370   2.908   1.031   0.562  0.7750 -0.4724  0.1736
  241DMF     N1 3371   2.968   0.940   0.668 -0.3895  0.1274 -0.2474
  241DMF     C2 3372   2.894   0.818   0.707  0.8436  0.1078 -0.0638
  241DMF     C3 3373   3.096   0.973   0.717  0.7803  0.4331  0.0250
  241DMF     O1 3374   3.158   1.069   0.675 -0.5028  0.0384  0.1421
  241DMF     H1 3375   2.968   1.030   0.471  0.6760  0.9614  0.0745
  241DMF     H2 3376   2.876   1.132   0.592 -0.7852 -0.1960 -2.2486
  241DMF     H3 3377   2.810   1.000   0.524  0.7719 -0.6397  0.3195
  241DMF     H4 3378   2.828   0.786   0.625 -1.2955 -0.4509  1.8142
  241DMF     H5 3379   2.831   0.823   0.797  0.8877  1.2081 -0.0886
  241DMF     H6 3380   2.963   0.734   0.717  0.7317 -0.1114 -1.0368
  241DMF     H7 3381   3.134   0.916   0.803 -1.6417 -0.9620  0.1938
  242DMF     C1 3382   0.765   0.651   3.012 -0.9983  0.1982 -0.3571
  242DMF     N1 3383   0.814   0.581   3.131 -0.5306  0.4722 -0.1574
  242DMF     C2 3384   0.872   0.446   3.112 -0.0360  0.1909 -0.1369
  242DMF     C3 3385   0.819   0.642   3.254 -0.0649 -0.3007 -0.4953
  242DMF     O1 3386   0.778   0.754   3.281  0.3546  0.0339  0.4840
  242DMF     H1 3387   0.850   0.710   2.974 -1.5852  2.4484  1.6859
  242DMF     H2 3388   0.689   0.729   3.021  0.1403  1.1841  1.0013
  242DMF     H3 3389   0.738   0.577   2.936  1.0219 -0.2693 -0.6669
  242DMF     H4 3390   0.981   0.436   3.114 -0.0057  0.2508 -1.0357
  242DMF     H5 3391   0.846   0.415   3.010 -0.9944 -0.1875  0.2229
  242DMF     H6 3392   0.831   0.376   3.185  0.8545  0.4189  0.6008
  242DMF     H7 3393   0.855   0.574   3.333 -0.2813 -1.0237 -1.0127
  243DMF     C1 3394   2.855   2.019   2.523  0.1568 -0.5292  0.1492
  243DMF     N1 3395   2.891   2.122   2.417  0.2469  0.2363 -0.8091
  243DMF     C2 3396   2.965   2.242   2.468 -0.6890 -0.1549  0.0976
  243DMF     C3 3397   2.862   2.101   2.277  0.4542 -0.2089  0.0832
  243DMF     O1 3398   2.786   2.015   2.230 -0.4461 -0.3896  0.2968
  243DMF     H1 3399   2.848   2.060   2.624  2.8600 -1.2812  0.6826
  243DMF     H2 3400   2.949   1.962   2.516  1.5765  1.5091  1.8918
  243DMF     H3 3401   2.771   1.952   2.502 -0.8278  1.0392 -1.0477
  243DMF     H4 3402   3.057   2.257   2.411  0.6767 -3.4767  1.2879
  243DMF     H5 3403   3.001   2.230   2.571  1.2466 -0.0929 -0.5476
  243DMF     H6 3404   2.902   2.331   2.457 -0.1047  0.3451  0.8020
  243DMF     H7 3405   2.926   2.164   2.214  2.1491 -2.7176 -0.7824
  244DMF     C1 3406   2.603   0.756   3.493 -0.2245 -0.1240 -0.7292
  244DMF     N1 3407   2.730   0.783   3.408  0.5824 -0.2018 -0.2056
  244DMF     C2 3408   2.789   0.670   3.340  0.7375  0.0528  0.1764
  244DMF     C3 3409   2.764   0.915   3.375 -0.1717 -0.3500  0.4511
  244DMF     O1 3410   2.704   1.004   3.419 -0.6669 -0.2948  0.2194
  244DMF     H1 3411   2.515   0.796   3.442  0.4204  0.5980 -1.2801
  244DMF     H2 3412   2.612   0.809   3.589 -0.9898  0.4881 -0.9952
  244DMF     H3 3413   2.593   0.647   3.505  1.8770 -0.3608 -0.8716
  244DMF     H4 3414   2.774   0.571   3.386  0.5723  0.1665  0.3713
  244DMF     H5 3415   2.896   0.692   3.337  0.6839  0.1762 -0.7921
  244DMF     H6 3416   2.737   0.675   3.243 -1.4557  1.2825  1.3599
  244DMF     H7 3417   2.847   0.917   3.302  0.9093 -0.2463  1.6539
  245DMF     C1 3418   1.921   1.350   0.753 -0.4904 -0.0230 -0.0120
  245DMF     N1 3419   1.873   1.272   0.632  0.2299 -0.1870  0.3498
  245DMF     C2 3420   1.795   1.332   0.518 -0.0076 -0.3970 -0.2013
  245DMF     C3 3421   1.913   1.139   0.614 -0.1689 -0.2519  0.2832
  245DMF     O1 3422   1.976   1.076   0.700  0.2833  0.1294  0.2995
  245DMF     H1 3423   2.029   1.363   0.741 -0.6186  2.1930  1.1556
  245DMF     H2 3424   1.908   1.284   0.839 -1.9947 -0.2904 -0.4355
  245DMF     H3 3425   1.883   1.452   0.766 -0.3164 -0.1554  1.6275
  245DMF     H4 3426   1.818   1.274   0.428 -0.4749 -0.2587 -0.4115
  245DMF     H5 3427   1.835   1.431   0.493  0.7627 -0.9018 -0.9817
  245DMF     H6 3428   1.687   1.330   0.539  0.5869  0.3744  3.2034
  245DMF     H7 3429   1.881   1.100   0.515  1.6544 -2.6846  0.6366
  246DMF     C1 3430   0.878   0.232   0.259  0.3641  0.0018  0.3084
  246DMF     N1 3431   0.846   0.187   0.123 -0.2284 -0.0552 -0.0857
  246DMF     C2 3432   0.770   0.064   0.099  0.3091  0.1691  0.2657
  246DMF     C3 3433   0.900   0.257   0.018 -0.0571 -0.2892  0.2959
  246DMF     O1 3434   0.975   0.353   0.031 -0.9170 -0.1462 -0.2397
  246DMF     H1 3435   0.798   0.201   0.327  0.8329 -1.2988  0.2826
  246DMF     H2 3436   0.892   0.341   0.261  3.9984 -0.4013  0.7126
  246DMF     H3 3437   0.974   0.189   0.291 -0.7947 -1.2190  2.2097
  246DMF     H4 3438   0.709   0.086   0.010  1.8788 -1.6392 -1.2927
  246DMF     H5 3439   0.694   0.061   0.178 -1.1574  1.0135 -1.0611
  246DMF     H6 3440   0.824  -0.029   0.083  0.4270 -0.4062  3.6321
  246DMF     H7 3441   0.867   0.219  -0.080 -1.3879  1.5887 -0.0187
  247DMF     C1 3442   2.424   3.349   0.158 -0.7158  1.1217 -0.1676
  247DMF     N1 3443   2.551   3.381   0.220 -0.0642  0.2790  0.0806
  247DMF     C2 3444   2.678   3.357   0.143  0.2692 -0.2996  0.4757
  247DMF     C3 3445   2.560   3.442   0.346  0.1264 -0.0791  0.0676
  247DMF     O1 3446   2.461   3.486   0.395  0.5750 -0.0817 -0.8200
  247DMF     H1 3447   2.355   3.421   0.205 -0.2356  1.4374  0.0547
  247DMF     H2 3448   2.398   3.248   0.191  3.2494  0.4353  1.0790
  247DMF     H3 3449   2.438   3.353   0.050  0.3451 -2.0664 -0.1900
  247DMF     H4 3450   2.655   3.274   0.075  2.7688 -0.8723  0.2849
  247DMF     H5 3451   2.768   3.341   0.203 -0.1387 -1.4580  0.8047
  247DMF     H6 3452   2.702   3.448   0.087  1.4923 -0.0771  1.3595
  247DMF     H7 3453   2.658   3.429   0.394  1.6031 -0.3858 -2.9242
  248DMF     C1 3454   2.367   0.232   1.566 -1.1694  0.7182 -0.2723
  248DMF     N1 3455   2.449   0.162   1.455 -0.0740 -0.2400  0.7105
  248DMF     C2 3456   2.380   0.118   1.333 -0.6339 -0.0346  0.6285
  248DMF     C3 3457   2.580   0.112   1.474 -0.6750  0.3426  0.3750
  248DMF     O1 3458   2.627   0.127   1.589  0.6004 -1.1073  0.0559
  248DMF     H1 3459   2.335   0.158   1.641  2.0262 -1.9106 -1.3800
  248DMF     H2 3460   2.276   0.273   1.521 -0.9166 -1.3495 -2.7445
  248DMF     H3 3461   2.428   0.303   1.623  0.0148  0.1429 -0.8253
  248DMF     H4 3462   2.415   0.194   1.261  0.8235 -1.4986 -0.2321
  248DMF     H5 3463   2.271   0.128   1.341 -0.8385 -1.4151 -0.3221
  248DMF     H6 3464   2.415   0.018   1.305 -0.0503  0.1945  0.5309
  248DMF     H7 3465   2.629   0.065   1.387 -0.0454 -2.6482  2.2591
  249DMF     C1 3466   0.421   3.197   3.285 -0.5039 -0.7035  0.1096
  249DMF     N1 3467   0.331   3.130   3.191 -0.7514  0.3714  0.0772
  249DMF     C2 3468   0.195   3.121   3.236 -0.4680  0.0387 -0.0802
  249DMF     C3 3469   0.387   3.050   3.087  0.7650 -0.1902 -0.2406
  249DMF     O1 3470   0.507   3.039   3.069 -0.5012 -0.3829 -0.3088
  249DMF     H1 3471   0.352   3.277   3.314  0.6684  0.3063  0.1235
  249DMF     H2 3472   0.509   3.233   3.231 -0.4198 -1.6035 -0.3754
  249DMF     H3 3473   0.450   3.146   3.377  1.1935  2.1615  1.2126
  249DMF     H4 3474   0.195   3.086   3.340 -0.9504 -2.4919 -0.8949
  249DMF     H5 3475   0.138   3.059   3.166 -0.0917  1.3341 -1.5668
  249DMF     H6 3476   0.149   3.220   3.245 -2.1751 -0.8578  1.2223
  249DMF     H7 3477   0.310   2.996   3.028  0.1314  0.3501  0.0871
  250DMF     C1 3478   2.361   0.315   2.571  0.3822 -0.6030 -0.6925
  250DMF     N1 3479   2.329   0.328   2.714  0.4931  0.2114  0.6007
  250DMF     C2 3480   2.227   0.425   2.764 -1.2879 -0.3859  0.6490
  250DMF     C3 3481   2.399   0.252   2.816  0.0473  0.6026 -0.8711
  250DMF     O1 3482   2.468   0.161   2.777 -0.3588  0.4173  0.1301
  250DMF     H1 3483   2.426   0.398   2.538  0.3108 -0.3819 -0.2810
  250DMF     H2 3484   2.272   0.309   2.507  0.8660 -1.3609 -1.3060
  250DMF     H3 3485   2.415   0.220   2.564 -0.6118 -1.1929 -0.4502
  250DMF     H4 3486   2.280   0.519   2.784  0.3805 -0.5810 -2.4837
  250DMF     H5 3487   2.176   0.394   2.856 -1.5256  1.9386  1.3186
  250DMF     H6 3488   2.149   0.428   2.687  0.4159  0.9472 -1.0731
  250DMF     H7 3489   2.386   0.289   2.920  3.2029  0.7615 -0.4624
  251DMF     C1 3490   1.268   0.784   0.135 -0.7255 -0.2981  0.4836
  251DMF     N1 3491   1.166   0.680   0.167 -0.5020  0.1043 -0.5245
  251DMF     C2 3492   1.193   0.585   0.270  0.2505 -0.0246  0.2878
  251DMF     C3 3493   1.046   0.676   0.080  0.0042 -0.3281 -0.3400
  251DMF     O1 3494   1.020   0.763   0.000  0.1215  0.1120  0.1444
  251DMF     H1 3495   1.236   0.884   0.167 -0.2008  0.5970 -1.7086
  251DMF     H2 3496   1.293   0.798   0.029 -2.6829  0.6779  0.1374
  251DMF     H3 3497   1.368   0.765   0.178 -0.6547 -0.7313  0.1240
  251DMF     H4 3498   1.201   0.648   0.360 -0.3118  1.9989 -1.0382
  251DMF     H5 3499   1.289   0.537   0.251  0.5779  0.8525 -0.2977
  251DMF     H6 3500   1.107   0.519   0.288  0.9036 -1.1270 -0.5738
  251DMF     H7 3501   0.986   0.589   0.112  0.5636 -0.5942 -0.0128
  252DMF     C1 3502   1.016   1.702   0.164 -0.1160  0.2519 -0.0692
  252DMF     N1 3503   1.044   1.839   0.195 -0.4518 -0.2322  0.4076
  252DMF     C2 3504   1.104   1.878   0.325  1.1367  0.1717  0.1295
  252DMF     C3 3505   0.991   1.949   0.119  0.0330  0.3585  0.4678
  252DMF     O1 3506   0.949   1.937   0.007 -0.4560  0.5569  0.5763
  252DMF     H1 3507   1.109   1.644   0.164 -0.1633  0.1741  1.4642
  252DMF     H2 3508   0.967   1.694   0.066  0.1962  1.6875 -0.3603
  252DMF     H3 3509   0.951   1.669   0.245  1.4210 -0.7930  0.7802
  252DMF     H4 3510   1.163   1.800   0.375  1.1428  1.4368  2.1200
  252DMF     H5 3511   1.028   1.911   0.396  0.3726  0.4408 -0.8008
  252DMF     H6 3512   1.159   1.973   0.318 -0.6572  1.1015 -1.8129
  252DMF     H7 3513   1.012   2.049   0.162 -1.9480  0.3218  1.5834
  253DMF     C1 3514   2.204   2.269   2.279  0.2363 -0.0840 -0.2942
  253DMF     N1 3515   2.309   2.165   2.262  0.1438 -0.1591 -0.1220
  253DMF     C2 3516   2.259   2.023   2.247 -0.0883  0.5729  0.8930
  253DMF     C3 3517   2.445   2.197   2.241  0.8458  0.1987 -0.4138
  253DMF     O1 3518   2.482   2.309   2.234 -0.2456 -0.2879 -0.2315
  253DMF     H1 3519   2.142   2.247   2.366  0.4198  0.0620 -0.1286
  253DMF     H2 3520   2.159   2.275   2.179 -0.7376  4.2062  0.3333
  253DMF     H3 3521   2.250   2.366   2.300  0.8568 -0.3198 -0.5527
  253DMF     H4 3522   2.328   1.961   2.188 -1.0104 -1.2810  1.7366
  253DMF     H5 3523   2.156   2.026   2.211  0.2911 -0.4185 -0.3254
  253DMF     H6 3524   2.259   1.969   2.342 -1.1494 -0.7625  0.1482
  253DMF     H7 3525   2.509   2.109   2.220 -1.4568 -1.6775  0.1841
  254DMF     C1 3526   2.006   2.503   1.087 -0.0730 -0.0990 -0.1812
  254DMF     N1 3527   2.086   2.406   1.000 -0.1905  0.0856  0.2084
  254DMF     C2 3528   2.172   2.306   1.061  0.3376 -0.2412  0.7046
  254DMF     C3 3529   2.077   2.412   0.855  0.3516 -0.6482 -0.2435
  254DMF     O1 3530   2.002   2.488   0.795  0.0721 -0.2998  0.6211
  254DMF     H1 3531   1.996   2.473   1.192  0.8041 -0.1157 -0.0997
  254DMF     H2 3532   1.903   2.511   1.051  0.2841 -0.0557 -1.2111
  254DMF     H3 3533   2.059   2.599   1.098  0.0509 -0.3360  1.4871
  254DMF     H4 3534   2.198   2.330   1.165 -1.6264  0.9562  0.9526
  254DMF     H5 3535   2.264   2.309   1.003  0.9988 -0.9781  1.6862
  254DMF     H6 3536   2.121   2.210   1.051  0.0057 -0.0378  0.4524
  254DMF     H7 3537   2.149   2.349   0.800 -0.5908 -1.1938 -0.8572
  255DMF     C1 3538   1.193   0.251   0.816  0.2000 -0.1451 -0.4354
  255DMF     N1 3539   1.067   0.209   0.750 -0.1569  0.0031 -0.2669
  255DMF     C2 3540   1.031   0.064   0.744  0.9478 -0.0997 -0.3568
  255DMF     C3 3541   0.995   0.303   0.663  0.0438  0.3365 -0.9138
  255DMF     O1 3542   1.028   0.423   0.658  0.2442 -0.1767 -0.1774
  255DMF     H1 3543   1.169   0.347   0.864 -3.4119 -1.0861 -0.2500
  255DMF     H2 3544   1.262   0.273   0.733 -1.2293  0.8780 -1.3839
  255DMF     H3 3545   1.229   0.169   0.878 -2.5690 -0.1942  1.1798
  255DMF     H4 3546   0.935   0.044   0.794  0.2817  1.0539 -1.1542
  255DMF     H5 3547   1.097   0.004   0.808 -0.8238 -1.2808  0.3893
  255DMF     H6 3548   1.045   0.020   0.645  1.6622 -0.6820 -0.0040
  255DMF     H7 3549   0.910   0.253   0.613  1.0971 -2.4861  0.0362
  256DMF     C1 3550   1.029   1.164   0.214 -0.7654  0.0914 -0.8163
  256DMF     N1 3551   1.080   1.293   0.272 -0.8825  0.0753 -0.5312
  256DMF     C2 3552   1.223   1.301   0.304  0.5098 -0.0997 -0.5610
  256DMF     C3 3553   0.990   1.389   0.334 -0.0795 -0.0932  0.5960
  256DMF     O1 3554   0.865   1.385   0.315 -0.3032  0.0038  0.3157
  256DMF     H1 3555   0.961   1.117   0.286 -1.4152  0.5287 -1.1402
  256DMF     H2 3556   1.115   1.099   0.191 -0.9722  0.1972 -1.9088
  256DMF     H3 3557   0.966   1.187   0.128 -0.8043  0.7894 -0.6032
  256DMF     H4 3558   1.253   1.402   0.335 -2.3921  0.0919  1.8814
  256DMF     H5 3559   1.282   1.290   0.213  2.9744  0.2304  0.9622
  256DMF     H6 3560   1.251   1.226   0.379 -0.7360  0.7460  0.7691
  256DMF     H7 3561   1.044   1.460   0.398  1.0014  1.2081 -1.7124
  257DMF     C1 3562   0.269   0.821   1.568 -0.1035 -0.7820  0.4610
  257DMF     N1 3563   0.400   0.778   1.519  0.1893  0.4777  0.0764
  257DMF     C2 3564   0.510   0.869   1.548 -0.0582  0.3391  0.2694
  257DMF     C3 3565   0.418   0.650   1.458  0.0218 -0.3455  0.6390
  257DMF     O1 3566   0.328   0.585   1.421  0.4082  0.0620 -0.0803
  257DMF     H1 3567   0.221   0.871   1.483  0.4295  0.6620  0.9841
  257DMF     H2 3568   0.280   0.895   1.648 -1.6115 -2.0181  1.8452
  257DMF     H3 3569   0.204   0.742   1.609 -0.7022 -0.9171 -0.7201
  257DMF     H4 3570   0.530   0.852   1.654 -0.5497  0.6322  0.4083
  257DMF     H5 3571   0.481   0.972   1.523  1.0134  0.6675  0.3773
  257DMF     H6 3572   0.596   0.844   1.484  0.2773  2.8674 -0.3238
  257DMF     H7 3573   0.524   0.632   1.436 -0.1388 -1.9740  1.1075
  258DMF     C1 3574   1.861   2.950   3.562 -0.2031 -0.1117 -0.2614
  258DMF     N1 3575   1.878   2.805   3.582  0.1398  0.3850  0.4783
  258DMF     C2 3576   1.816   2.750   3.697  0.0294 -0.7780 -0.0964
  258DMF     C3 3577   1.952   2.725   3.488 -0.0853 -0.0071 -0.2579
  258DMF     O1 3578   1.988   2.763   3.382  0.2032 -0.6891  0.2312
  258DMF     H1 3579   1.818   2.976   3.465  1.6054  0.5355 -0.8990
  258DMF     H2 3580   1.960   2.993   3.576 -0.7801  1.5770 -1.2146
  258DMF     H3 3581   1.807   3.000   3.643  0.7527  2.1026 -0.9810
  258DMF     H4 3582   1.762   2.658   3.673 -0.3665 -0.0793 -2.0069
  258DMF     H5 3583   1.752   2.825   3.746 -0.1021 -0.0739 -1.3313
  258DMF     H6 3584   1.888   2.716   3.773  1.2408  0.2684 -0.7697
  258DMF     H7 3585   1.974   2.621   3.517  1.4482  0.0331 -1.2797
  259DMF     C1 3586   1.010   2.303   2.230  0.1950  0.1466 -0.6953
  259DMF     N1 3587   1.062   2.172   2.227 -0.4371 -0.2083 -0.0180
  259DMF     C2 3588   0.963   2.063   2.233  0.1649  0.7185  0.3883
  259DMF     C3 3589   1.202   2.147   2.246  0.3198  0.3567  0.1597
  259DMF     O1 3590   1.281   2.240   2.261  0.3141  0.2369 -0.1298
  259DMF     H1 3591   0.910   2.309   2.186  0.2334  0.1234 -0.7851
  259DMF     H2 3592   1.072   2.374   2.173 -0.1189  0.7791 -0.2513
  259DMF     H3 3593   1.011   2.344   2.332  0.3405  0.4556 -0.8211
  259DMF     H4 3594   0.866   2.109   2.209  0.8984  1.8821 -0.3826
  259DMF     H5 3595   0.974   2.022   2.334 -2.2999 -0.7490  0.0858
  259DMF     H6 3596   0.992   1.980   2.169 -1.4300  0.0740  0.4881
  259DMF     H7 3597   1.225   2.041   2.264  0.9721  0.5599  0.5246
  260DMF     C1 3598   1.717   0.029   3.651  0.0992  0.2837  0.7672
  260DMF     N1 3599   1.852   0.030   3.714 -0.1824 -0.0290 -0.0104
  260DMF     C2 3600   1.900   0.169   3.755  0.2858 -0.3205 -0.2012
  260DMF     C3 3601   1.952  -0.064   3.678  0.1272  0.2059  0.0354
  260DMF     O1 3602   1.919  -0.167   3.625  0.3324 -0.3081  0.0899
  260DMF     H1 3603   1.675  -0.068   3.676  0.7164 -0.3583 -0.6137
  260DMF     H2 3604   1.721   0.047   3.543  3.2145 -0.5738  0.6980
  260DMF     H3 3605   1.663   0.115   3.693  0.2678  0.9646 -0.3829
  260DMF     H4 3606   2.007   0.176   3.732  0.4315 -0.5059  0.4042
  260DMF     H5 3607   1.882   0.165   3.863  1.7321  0.8987  0.0959
  260DMF     H6 3608   1.847   0.250   3.704  0.7708  1.4504  2.0088
  260DMF     H7 3609   2.047  -0.042   3.731  0.3289  1.6283 -0.8947
  261DMF     C1 3610   1.676   2.815   0.620  0.5764 -1.4610 -0.3610
  261DMF     N1 3611   1.695   2.961   0.579 -0.4916  0.3706 -0.5556
  261DMF     C2 3612   1.758   3.048   0.672 -0.3119 -0.2753  0.6138
  261DMF     C3 3613   1.665   3.002   0.448 -0.7337  0.3698 -0.4020
  261DMF     O1 3614   1.591   2.940   0.375  0.0119  0.3311  0.1414
  261DMF     H1 3615   1.644   2.798   0.723 -1.0330  1.5926 -0.2761
  261DMF     H2 3616   1.776   2.771   0.612  1.4539  0.6191 -1.4811
  261DMF     H3 3617   1.614   2.760   0.548  0.5340 -0.8645 -0.7861
  261DMF     H4 3618   1.814   2.992   0.748  2.3793  0.9125 -0.4304
  261DMF     H5 3619   1.676   3.107   0.714 -0.4481  0.1305 -0.2191
  261DMF     H6 3620   1.835   3.099   0.612  0.6081 -0.2041  1.8440
  261DMF     H7 3621   1.713   3.098   0.422  2.2346 -0.7202  0.7942
  262DMF     C1 3622   0.165   0.410   0.987  0.7073  0.2087 -0.4945
  262DMF     N1 3623   0.084   0.291   1.019  0.2871 -0.1698  0.0674
  262DMF     C2 3624  -0.055   0.299   1.061  0.1285  0.0676  0.1987
  262DMF     C3 3625   0.138   0.163   0.999  0.0538 -0.3516  0.1897
  262DMF     O1 3626   0.249   0.141   0.962 -0.2585 -0.2348  0.7050
  262DMF     H1 3627   0.260   0.382   0.941  0.3674 -0.0464 -1.0336
  262DMF     H2 3628   0.200   0.467   1.075 -0.1623  1.1566 -0.7440
  262DMF     H3 3629   0.115   0.478   0.917  0.1339 -0.6190 -0.9017
  262DMF     H4 3630  -0.080   0.239   1.149 -1.5186  2.2486  1.2640
  262DMF     H5 3631  -0.123   0.265   0.982  1.4874 -0.3294 -0.8305
  262DMF     H6 3632  -0.085   0.403   1.079 -1.9940 -0.4748 -0.0952
  262DMF     H7 3633   0.060   0.088   1.019  1.2911 -2.2748 -2.0502
  263DMF     C1 3634   1.323   0.116   2.964 -0.4680  0.2691 -0.0727
  263DMF     N1 3635   1.250   0.056   2.853 -0.5886  1.2856  0.3526
  263DMF     C2 3636   1.161   0.143   2.779  0.3674  0.1994  0.2376
  263DMF     C3 3637   1.286  -0.075   2.810  0.0065  0.2517 -0.2646
  263DMF     O1 3638   1.375  -0.132   2.871 -0.0141 -0.0406  0.5924
  263DMF     H1 3639   1.300   0.070   3.061 -0.1182 -1.1985 -0.6736
  263DMF     H2 3640   1.302   0.223   2.957 -0.1688  0.0898 -6.3637
  263DMF     H3 3641   1.431   0.110   2.948 -0.5092 -0.8738  0.0595
  263DMF     H4 3642   1.085   0.081   2.729  0.2895  0.3174  0.2113
  263DMF     H5 3643   1.209   0.207   2.704  1.1117  0.0783  0.6050
  263DMF     H6 3644   1.100   0.208   2.842 -1.3621 -0.3555 -0.8335
  263DMF     H7 3645   1.240  -0.113   2.717  0.7465  0.3323 -0.6698
  264DMF     C1 3646   0.558   1.039   0.143 -0.7922  0.4172  0.3498
  264DMF     N1 3647   0.512   1.142   0.241  0.0216 -1.3197 -0.2448
  264DMF     C2 3648   0.515   1.288   0.203  0.7165 -0.8743  0.1074
  264DMF     C3 3649   0.487   1.102   0.371  0.3811  0.4274 -0.3374
  264DMF     O1 3650   0.496   0.987   0.417 -0.2397 -0.0882 -0.3554
  264DMF     H1 3651   0.557   0.934   0.176 -0.7276  0.3717  0.2073
  264DMF     H2 3652   0.657   1.057   0.101 -0.5710  0.7226  1.0009
  264DMF     H3 3653   0.487   1.033   0.059 -0.1000 -0.8861 -0.1665
  264DMF     H4 3654   0.436   1.300   0.127  0.6669  0.0587  0.2990
  264DMF     H5 3655   0.609   1.325   0.162 -0.6157 -0.1371 -2.4163
  264DMF     H6 3656   0.482   1.343   0.292 -0.3198 -1.2627 -0.0293
  264DMF     H7 3657   0.473   1.187   0.440 -1.6197  1.2078 -1.6804
  265DMF     C1 3658   1.110   0.574   1.117 -0.6454 -0.1197  0.1993
  265DMF     N1 3659   1.244   0.525   1.150 -0.0625  0.2193 -0.5090
  265DMF     C2 3660   1.256   0.384   1.188  0.9066 -0.0705  0.0568
  265DMF     C3 3661   1.359   0.606   1.170 -0.7697 -0.2375  0.6070
  265DMF     O1 3662   1.356   0.727   1.158 -0.4372  0.4645 -0.1860
  265DMF     H1 3663   1.100   0.596   1.010 -1.4092 -0.1638  0.2629
  265DMF     H2 3664   1.098   0.667   1.173 -0.9445 -0.9136  1.4953
  265DMF     H3 3665   1.037   0.498   1.147 -1.3814  0.2304 -0.7003
  265DMF     H4 3666   1.264   0.382   1.297  0.2274  0.5692  0.1216
  265DMF     H5 3667   1.343   0.326   1.155 -0.0416 -0.8798 -1.0466
  265DMF     H6 3668   1.164   0.324   1.175  0.2543  0.9478 -0.0768
  265DMF     H7 3669   1.455   0.555   1.187  0.0249  0.9662 -0.1076
  266DMF     C1 3670   1.374   2.578   2.710 -0.0871  0.0073 -0.1933
  266DMF     N1 3671   1.442   2.477   2.631 -0.3087  0.5490 -0.2973
  266DMF     C2 3672   1.369   2.377   2.560 -0.4279  0.3353  0.3783
  266DMF     C3 3673   1.585   2.471   2.626 -0.6633  0.2992  0.2518
  266DMF     O1 3674   1.659   2.547   2.684 -0.4347 -0.0074 -0.1757
  266DMF     H1 3675   1.315   2.523   2.784  1.0394 -0.3725  0.4457
  266DMF     H2 3676   1.303   2.641   2.655 -1.7003 -0.7732  0.9646
  266DMF     H3 3677   1.454   2.634   2.762  0.7921 -1.6759  0.3117
  266DMF     H4 3678   1.312   2.435   2.487  0.4094  0.8170  0.0901
  266DMF     H5 3679   1.296   2.339   2.632 -0.5548  0.9370  0.5731
  266DMF     H6 3680   1.424   2.292   2.519 -0.4593 -0.9275  2.9039
  266DMF     H7 3681   1.626   2.388   2.566  0.1543  0.4975  0.5306
  267DMF     C1 3682   1.834   1.801   0.543 -0.0783  0.2228 -0.5576
  267DMF     N1 3683   1.893   1.802   0.412 -0.7522  1.1426  0.0297
  267DMF     C2 3684   1.996   1.906   0.391 -0.6490 -0.3046  0.2124
  267DMF     C3 3685   1.848   1.717   0.307 -0.2829  0.0196  0.7204
  267DMF     O1 3686   1.754   1.644   0.323  0.0500  0.2893 -0.3886
  267DMF     H1 3687   1.790   1.705   0.572  1.4717  0.2553  2.0994
  267DMF     H2 3688   1.752   1.874   0.541  1.1558  1.7551  1.9626
  267DMF     H3 3689   1.908   1.831   0.619 -0.5170  0.0384 -0.0616
  267DMF     H4 3690   2.007   1.936   0.286 -1.2330  0.8513  0.4790
  267DMF     H5 3691   2.096   1.873   0.421 -0.1760  0.2687 -0.7403
  267DMF     H6 3692   1.969   1.999   0.443 -0.9293 -0.0970 -0.3036
  267DMF     H7 3693   1.912   1.714   0.217  0.5172 -1.7197  1.3242
  268DMF     C1 3694   2.222   2.853   2.473 -0.0718  0.2066  0.0200
  268DMF     N1 3695   2.169   2.729   2.414  0.0116 -0.2095 -0.1584
  268DMF     C2 3696   2.089   2.636   2.508 -0.0368 -0.9239  0.3456
  268DMF     C3 3697   2.221   2.682   2.291 -0.1174 -0.5802  0.4483
  268DMF     O1 3698   2.301   2.743   2.218 -0.0854 -0.0673  0.0715
  268DMF     H1 3699   2.319   2.838   2.523 -0.2853  1.3932  0.7969
  268DMF     H2 3700   2.147   2.904   2.534  1.1270 -0.5600  2.1542
  268DMF     H3 3701   2.245   2.925   2.393  0.6529 -0.8207 -0.7119
  268DMF     H4 3702   2.024   2.691   2.578  1.5277  2.0890 -0.5200
  268DMF     H5 3703   2.158   2.564   2.555  1.2165  0.3419  0.4699
  268DMF     H6 3704   2.016   2.579   2.450 -0.6171 -0.8372  0.9716
  268DMF     H7 3705   2.174   2.585   2.269  2.0156 -1.5981  0.2388
  269DMF     C1 3706   1.541   0.077   0.959 -0.0506  0.2060 -0.2679
  269DMF     N1 3707   1.662  -0.005   0.960  0.0241  0.1630  0.3122
  269DMF     C2 3708   1.788   0.043   0.883  0.1964  0.2096  0.4048
  269DMF     C3 3709   1.655  -0.143   0.985 -0.3493 -0.1647  0.1556
  269DMF     O1 3710   1.548  -0.197   1.015 -0.5115  0.4900 -0.1769
  269DMF     H1 3711   1.481   0.055   0.870 -1.0524  1.5020  0.0808
  269DMF     H2 3712   1.568   0.183   0.966 -0.3408  0.1993  1.0983
  269DMF     H3 3713   1.486   0.051   1.050  1.9074 -0.0285  0.8977
  269DMF     H4 3714   1.832   0.132   0.931  0.2562  0.3107  0.1642
  269DMF     H5 3715   1.755   0.077   0.785  2.0897 -0.6951 -0.5816
  269DMF     H6 3716   1.860  -0.038   0.867 -0.4553 -0.4356  0.7271
  269DMF     H7 3717   1.751  -0.197   0.982 -1.1579 -1.5483 -1.1658
  270DMF     C1 3718   2.853   1.272   1.085 -0.1860 -0.0033  0.2047
  270DMF     N1 3719   2.938   1.348   0.988 -0.3775 -1.0662  0.5880
  270DMF     C2 3720   2.953   1.284   0.853  0.8422  0.0062 -0.3066
  270DMF     C3 3721   2.956   1.485   1.002 -0.2751 -0.1894 -0.0795
  270DMF     O1 3722   2.929   1.553   1.101 -0.2095  0.1038  0.7334
  270DMF     H1 3723   2.878   1.166   1.097  1.6860  0.1725 -1.7299
  270DMF     H2 3724   2.749   1.296   1.057 -0.1032 -1.7791 -1.7833
  270DMF     H3 3725   2.876   1.317   1.182 -3.7974  1.9080  0.2487
  270DMF     H4 3726   2.891   1.196   0.833  0.9409  0.3182 -2.0350
  270DMF     H5 3727   3.060   1.259   0.846  0.7014 -1.7669  2.6777
  270DMF     H6 3728   2.922   1.359   0.779 -2.5264 -1.3637 -0.3504
  270DMF     H7 3729   2.993   1.531   0.908  2.7765  1.3921  1.8129
  271DMF     C1 3730   2.886   1.299   3.378  0.0213 -0.4084 -0.1282
  271DMF     N1 3731   3.011   1.383   3.343  0.1688 -0.0823  0.5805
  271DMF     C2 3732   3.010   1.453   3.215  0.0028  0.5472 -0.0779
  271DMF     C3 3733   3.134   1.382   3.413 -0.0279 -0.3174 -0.1443
  271DMF     O1 3734   3.153   1.301   3.497  0.1432 -0.0743 -0.2334
  271DMF     H1 3735   2.862   1.312   3.484 -1.7572  0.9828 -0.6800
  271DMF     H2 3736   2.900   1.195   3.348  1.4094 -0.5880  1.0783
  271DMF     H3 3737   2.798   1.332   3.321 -0.5496 -2.5070 -0.5106
  271DMF     H4 3738   3.112   1.436   3.177  0.5692  0.2324  1.5451
  271DMF     H5 3739   3.010   1.559   3.241  0.2306  0.4161  0.4658
  271DMF     H6 3740   2.926   1.441   3.146  0.0521  0.1973 -0.0783
  271DMF     H7 3741   3.206   1.456   3.373 -0.9727  1.5440  1.5134
  272DMF     C1 3742   0.486   2.889   2.325 -0.5314 -0.2343  0.5550
  272DMF     N1 3743   0.396   2.773   2.295 -0.2074 -0.6448  0.2228
  272DMF     C2 3744   0.456   2.655   2.231 -0.1465  0.0010 -0.0761
  272DMF     C3 3745   0.256   2.795   2.295 -0.0529  0.1345 -1.2498
  272DMF     O1 3746   0.207   2.898   2.327 -0.0814  0.6338  0.1247
  272DMF     H1 3747   0.467   2.970   2.254  1.0646 -0.5935 -0.3018
  272DMF     H2 3748   0.591   2.858   2.314 -0.2591  1.5265 -2.4326
  272DMF     H3 3749   0.457   2.927   2.424 -1.7017 -0.6776  0.3856
  272DMF     H4 3750   0.550   2.677   2.179  1.0934  2.1173  2.9729
  272DMF     H5 3751   0.380   2.624   2.158  1.7227 -2.4367 -1.0556
  272DMF     H6 3752   0.452   2.567   2.297 -1.7849 -0.3528 -0.6137
  272DMF     H7 3753   0.200   2.704   2.267  1.2283 -0.9658 -0.3242
  273DMF     C1 3754   1.718   0.724   2.560  0.3571  0.2250 -0.1089
  273DMF     N1 3755   1.862   0.704   2.562  0.6504  0.9472 -0.3319
  273DMF     C2 3756   1.916   0.575   2.585 -0.0334  0.2189 -0.2512
  273DMF     C3 3757   1.944   0.812   2.552 -0.3034 -0.5260  0.3905
  273DMF     O1 3758   1.902   0.924   2.529  0.1653  0.5080 -0.4740
  273DMF     H1 3759   1.661   0.634   2.535  2.0172 -0.6844 -0.6960
  273DMF     H2 3760   1.682   0.803   2.492  1.1763  1.0767  0.4415
  273DMF     H3 3761   1.687   0.749   2.662 -1.9023  0.3934 -0.8075
  273DMF     H4 3762   1.970   0.556   2.491 -0.5357 -1.9306 -0.1350
  273DMF     H5 3763   1.829   0.511   2.605 -2.3307  3.3428  0.0706
  273DMF     H6 3764   1.984   0.585   2.670 -0.0301 -2.0886  0.0495
  273DMF     H7 3765   2.052   0.789   2.545 -0.1563  0.3336 -0.1841
  274DMF     C1 3766   2.931   1.765   3.445  0.1062  0.7522  0.7965
  274DMF     N1 3767   3.062   1.791   3.388 -0.1442  0.0359  0.4067
  274DMF     C2 3768   3.068   1.861   3.254  0.6877 -0.7974 -0.3697
  274DMF     C3 3769   3.175   1.750   3.446  0.0889 -0.1178 -0.0997
  274DMF     O1 3770   3.184   1.702   3.559 -0.5838 -0.4721 -0.1652
  274DMF     H1 3771   2.903   1.846   3.513 -0.1830  1.1614  0.1963
  274DMF     H2 3772   2.931   1.673   3.504  2.2414  1.6596  2.2726
  274DMF     H3 3773   2.864   1.742   3.361  0.6732  1.9597 -0.0116
  274DMF     H4 3774   3.168   1.841   3.212  1.8632  1.7334  1.1592
  274DMF     H5 3775   3.055   1.970   3.257  2.2962 -0.6012 -0.1409
  274DMF     H6 3776   2.993   1.817   3.187 -1.7936  0.8689  1.2467
  274DMF     H7 3777   3.264   1.772   3.385 -0.6274  1.2735 -0.6554
  275DMF     C1 3778   0.288   3.272   0.461 -0.3982  0.2587  0.0637
  275DMF     N1 3779   0.182   3.347   0.525  0.5999  0.2076 -0.4708
  275DMF     C2 3780   0.203   3.419   0.651 -0.1256  0.2587 -0.2361
  275DMF     C3 3781   0.078   3.386   0.429 -0.0873  0.2856 -0.6187
  275DMF     O1 3782   0.081   3.357   0.310  0.2095 -0.1393  0.3854
  275DMF     H1 3783   0.340   3.341   0.394 -0.4831  0.3232  0.0629
  275DMF     H2 3784   0.250   3.185   0.405  1.4621 -0.5343  0.0033
  275DMF     H3 3785   0.364   3.231   0.529 -0.4202 -0.3563 -0.2762
  275DMF     H4 3786   0.115   3.477   0.680 -0.8464 -0.1985 -1.4286
  275DMF     H5 3787   0.293   3.480   0.655  1.1807 -1.7121  1.1889
  275DMF     H6 3788   0.221   3.342   0.726 -2.4626 -1.1998 -1.0998
  275DMF     H7 3789  -0.006   3.444   0.472  0.9197  1.0272  0.3662
  276DMF     C1 3790   0.314   1.215   1.524 -0.2165 -0.7293  0.0792
  276DMF     N1 3791   0.170   1.239   1.512  0.3380 -0.0447 -0.6668
  276DMF     C2 3792   0.086   1.117   1.522 -0.0378 -0.8451  0.0748
  276DMF     C3 3793   0.125   1.367   1.547  0.3281  0.1216  0.5186
  276DMF     O1 3794   0.198   1.465   1.552 -0.2155  0.1353  0.0500
  276DMF     H1 3795   0.323   1.138   1.602  0.9994  1.6981  2.4087
  276DMF     H2 3796   0.367   1.303   1.562 -0.5726 -0.5767  0.2276
  276DMF     H3 3797   0.371   1.197   1.432 -0.7589  1.4281 -0.7033
  276DMF     H4 3798   0.108   1.053   1.608  0.4139  0.0830  0.6660
  276DMF     H5 3799   0.094   1.051   1.435 -2.9320 -1.2040  0.0367
  276DMF     H6 3800  -0.021   1.137   1.532 -0.1633  0.1302 -2.8169
  276DMF     H7 3801   0.016   1.374   1.564  0.4562 -1.5637  2.1909
  277DMF     C1 3802   3.254   2.503   2.404 -0.1243 -0.4634  0.9715
  277DMF     N1 3803   3.380   2.427   2.420 -0.1619  0.0895  0.0554
  277DMF     C2 3804   3.402   2.316   2.320  0.2436 -0.8884 -0.1442
  277DMF     C3 3805   3.476   2.465   2.510 -0.1407 -0.0496  0.4410
  277DMF     O1 3806   3.465   2.556   2.586  0.0904  0.2497  0.1568
  277DMF     H1 3807   3.265   2.581   2.327 -1.5211 -0.0474  1.1862
  277DMF     H2 3808   3.235   2.553   2.500 -0.2251  1.8750 -0.2159
  277DMF     H3 3809   3.172   2.434   2.383 -0.3637  0.3810 -0.9624
  277DMF     H4 3810   3.310   2.258   2.321 -0.2788 -0.0943 -1.1562
  277DMF     H5 3811   3.488   2.251   2.342  1.2517  0.1174 -1.0231
  277DMF     H6 3812   3.412   2.355   2.218  1.3026 -1.5195 -0.2922
  277DMF     H7 3813   3.564   2.398   2.505  1.2388  1.5803  2.0451
  278DMF     C1 3814   0.129   2.589   2.882  0.6318  0.2484 -0.0066
  278DMF     N1 3815   0.113   2.617   3.027  0.3243 -0.3737 -0.1364
  278DMF     C2 3816   0.093   2.769   3.059 -0.3376  0.4965 -0.0982
  278DMF     C3 3817   0.143   2.518   3.129 -0.6541 -0.4216 -0.1108
  278DMF     O1 3818   0.164   2.403   3.107 -0.0572  0.1958  0.3925
  278DMF     H1 3819   0.221   2.529   2.875 -0.1259 -0.8746 -0.3343
  278DMF     H2 3820   0.147   2.685   2.833 -1.5395  0.4256 -0.4993
  278DMF     H3 3821   0.032   2.550   2.849  0.8319  0.3063 -0.6664
  278DMF     H4 3822   0.170   2.825   3.004 -0.6265 -0.3905 -1.4137
  278DMF     H5 3823   0.090   2.775   3.169 -0.3517 -0.4477 -0.0395
  278DMF     H6 3824  -0.008   2.807   3.039 -0.0281  1.9864  1.0708
  278DMF     H7 3825   0.141   2.558   3.232  0.3599  0.3335 -0.3691
  279DMF     C1 3826   1.960   1.852   2.907  0.5348  0.1845 -0.4903
  279DMF     N1 3827   1.874   1.735   2.914 -0.6325  0.1668  0.5118
  279DMF     C2 3828   1.769   1.737   3.013 -0.7232  0.2147  0.4917
  279DMF     C3 3829   1.903   1.620   2.840  0.1342 -0.0516  0.3370
  279DMF     O1 3830   1.982   1.624   2.751 -0.7011 -0.3642 -0.6147
  279DMF     H1 3831   1.928   1.922   2.829  1.7420 -0.4479 -1.5794
  279DMF     H2 3832   2.065   1.828   2.887  0.8461 -0.1038  1.3554
  279DMF     H3 3833   1.959   1.914   2.997 -2.0570  0.4147 -0.6564
  279DMF     H4 3834   1.701   1.655   2.988 -0.1519  0.3299 -1.5340
  279DMF     H5 3835   1.709   1.828   3.013  0.7250  1.1911  0.2552
  279DMF     H6 3836   1.817   1.705   3.107  0.0814 -0.4042 -0.1178
  279DMF     H7 3837   1.836   1.534   2.861  0.4370 -0.3956 -0.0995
  280DMF     C1 3838   1.762   2.675   0.290  0.2968  0.5010 -0.7671
  280DMF     N1 3839   1.855   2.642   0.402 -0.8390 -0.6395  0.4246
  280DMF     C2 3840   1.827   2.518   0.481  0.4845  0.0597 -0.3380
  280DMF     C3 3841   1.966   2.730   0.436  0.3706 -0.2290 -0.6918
  280DMF     O1 3842   1.986   2.835   0.379  0.0355  0.3411  0.1462
  280DMF     H1 3843   1.796   2.768   0.243  3.1690  0.8990  1.9242
  280DMF     H2 3844   1.660   2.674   0.329  0.5538  0.3109 -0.0795
  280DMF     H3 3845   1.778   2.588   0.224 -1.9361 -0.2624 -0.3537
  280DMF     H4 3846   1.719   2.509   0.497  1.0506 -1.2316  3.2830
  280DMF     H5 3847   1.882   2.527   0.575  0.3172  0.3611 -0.2695
  280DMF     H6 3848   1.861   2.427   0.429  1.1203 -1.4414  2.5862
  280DMF     H7 3849   2.023   2.701   0.526 -0.9005 -0.4569  0.0641
  281DMF     C1 3850   3.386   0.318   2.889  0.0749  0.0113  0.2060
  281DMF     N1 3851   3.387   0.360   2.749  0.3292 -0.1523  0.4860
  281DMF     C2 3852   3.268   0.426   2.695  0.2379  0.2372 -0.2559
  281DMF     C3 3853   3.492   0.341   2.667 -0.1113 -1.2601 -0.3766
  281DMF     O1 3854   3.596   0.284   2.692 -0.8183  0.8310  0.0826
  281DMF     H1 3855   3.393   0.408   2.952 -0.9117  0.7908 -0.7847
  281DMF     H2 3856   3.463   0.241   2.894 -0.8058 -0.9106 -0.2191
  281DMF     H3 3857   3.286   0.283   2.918 -0.4034  0.9927 -0.2459
  281DMF     H4 3858   3.174   0.406   2.749  1.1704 -0.1284  1.2652
  281DMF     H5 3859   3.241   0.378   2.600  4.3126 -1.1809 -0.8034
  281DMF     H6 3860   3.278   0.529   2.660 -0.9185  0.4478  0.0264
  281DMF     H7 3861   3.482   0.404   2.577  0.2467 -0.9132 -0.1736
  282DMF     C1 3862   3.339   1.290   0.908  0.5310 -0.4797  0.1403
  282DMF     N1 3863   3.459   1.243   0.834 -0.2751 -0.5324  0.2620
  282DMF     C2 3864   3.513   1.322   0.713  0.4376 -0.6017  0.9494
  282DMF     C3 3865   3.548   1.162   0.891  0.1613 -0.0876 -0.7420
  282DMF     O1 3866   3.518   1.093   0.988  0.0835 -0.1590 -0.0144
  282DMF     H1 3867   3.270   1.338   0.837  0.9221 -0.7781 -0.4404
  282DMF     H2 3868   3.368   1.363   0.984  0.6726 -0.4009  0.0108
  282DMF     H3 3869   3.288   1.212   0.966  1.6310 -0.2937  1.3684
  282DMF     H4 3870   3.447   1.403   0.681  1.5646 -1.3962 -3.7166
  282DMF     H5 3871   3.542   1.249   0.637 -0.4540 -0.0630  0.0804
  282DMF     H6 3872   3.600   1.378   0.751 -0.0991  1.0497 -0.1898
  282DMF     H7 3873   3.649   1.162   0.846  0.6581  0.1409  0.3568
  283DMF     C1 3874   0.837   3.326   1.532  0.2171 -0.7290  0.5896
  283DMF     N1 3875   0.717   3.310   1.447 -0.1655 -0.9292 -0.4705
  283DMF     C2 3876   0.629   3.422   1.433  0.2225  0.5766  0.5333
  283DMF     C3 3877   0.681   3.184   1.390  0.3102 -0.3324  0.2591
  283DMF     O1 3878   0.755   3.087   1.385 -0.9677 -0.2758 -0.2462
  283DMF     H1 3879   0.872   3.430   1.529  1.0287 -0.9916  0.6960
  283DMF     H2 3880   0.912   3.251   1.504  1.7861  1.2894 -0.7213
  283DMF     H3 3881   0.797   3.307   1.632  1.1527 -1.5708  0.8162
  283DMF     H4 3882   0.611   3.474   1.338 -1.0867 -1.5078 -0.4122
  283DMF     H5 3883   0.667   3.494   1.506 -1.3005 -1.3409  3.3453
  283DMF     H6 3884   0.524   3.405   1.462 -0.8201 -0.4273 -3.4681
  283DMF     H7 3885   0.579   3.187   1.347  0.0570  1.4659  0.9349
  284DMF     C1 3886   0.046   0.283   3.490 -0.7915  0.0018  0.0437
  284DMF     N1 3887  -0.036   0.402   3.506 -0.2096  0.2423  0.4961
  284DMF     C2 3888  -0.110   0.448   3.390 -0.3485  0.1662 -0.2715
  284DMF     C3 3889  -0.050   0.463   3.630  0.1887 -0.2576 -0.9504
  284DMF     O1 3890   0.027   0.439   3.721  0.2784  0.1833 -0.2333
  284DMF     H1 3891   0.032   0.232   3.395  2.5985 -1.1562  0.1094
  284DMF     H2 3892   0.034   0.205   3.567  1.4539  1.3027  1.8098
  284DMF     H3 3893   0.153   0.310   3.492 -0.8611  0.4799 -2.1089
  284DMF     H4 3894  -0.195   0.512   3.417 -0.7160 -0.7742  0.8218
  284DMF     H5 3895  -0.142   0.356   3.340 -1.2503  0.8247 -0.9100
  284DMF     H6 3896  -0.044   0.493   3.313 -0.3566 -2.0240 -1.5907
  284DMF     H7 3897  -0.128   0.540   3.635 -1.0042 -1.4116 -1.4481
  285DMF     C1 3898   2.183   0.452   1.179  0.1425  0.2141 -0.0990
  285DMF     N1 3899   2.297   0.522   1.119 -0.2104  0.0434  0.3975
  285DMF     C2 3900   2.300   0.531   0.970  0.2202  0.1205  0.2281
  285DMF     C3 3901   2.375   0.609   1.196 -0.1323  0.3607 -0.1040
  285DMF     O1 3902   2.350   0.635   1.314  0.7052 -0.5389  0.1647
  285DMF     H1 3903   2.097   0.433   1.113 -1.6968 -2.9380  3.0171
  285DMF     H2 3904   2.135   0.507   1.260 -2.5008 -1.2811 -0.5542
  285DMF     H3 3905   2.231   0.359   1.211 -1.5299 -0.3196  0.9222
  285DMF     H4 3906   2.220   0.602   0.945 -0.1920 -0.3262  0.2777
  285DMF     H5 3907   2.283   0.437   0.916 -0.2069  0.3122  0.0320
  285DMF     H6 3908   2.400   0.568   0.942  0.5044 -0.9911 -0.2642
  285DMF     H7 3909   2.455   0.656   1.137 -0.6383 -0.3978 -1.4232
  286DMF     C1 3910   2.478   1.394   3.131 -0.4075 -0.1459 -0.0636
  286DMF     N1 3911   2.432   1.293   3.223  0.1907  0.0936  0.3859
  286DMF     C2 3912   2.356   1.177   3.169  0.0702 -0.3742  1.1021
  286DMF     C3 3913   2.478   1.294   3.355  0.4481  0.2185 -0.2957
  286DMF     O1 3914   2.538   1.386   3.406  0.5067  0.0986 -0.3832
  286DMF     H1 3915   2.585   1.413   3.143 -0.4911 -0.3940  1.1254
  286DMF     H2 3916   2.429   1.489   3.158 -0.8689 -1.6429  4.7488
  286DMF     H3 3917   2.459   1.370   3.025  0.2460  0.8475 -0.4182
  286DMF     H4 3918   2.342   1.092   3.236 -1.3770 -0.2654  0.9596
  286DMF     H5 3919   2.413   1.130   3.088 -1.0416 -1.0808  0.7263
  286DMF     H6 3920   2.267   1.226   3.128  1.2519  0.8668 -0.0178
  286DMF     H7 3921   2.438   1.211   3.416  2.3826  1.1949  2.3940
  287DMF     C1 3922   1.724   3.384   2.487  0.3069 -0.7049 -0.3390
  287DMF     N1 3923   1.619   3.309   2.418 -0.0480  0.3818 -0.4489
  287DMF     C2 3924   1.508   3.259   2.506 -0.0173 -0.2696 -0.3351
  287DMF     C3 3925   1.622   3.259   2.290  0.2513 -0.4904 -0.1138
  287DMF     O1 3926   1.713   3.285   2.218 -0.2360  0.2601  0.2641
  287DMF     H1 3927   1.820   3.369   2.436  0.2521  3.8041 -1.9693
  287DMF     H2 3928   1.731   3.345   2.589  1.5665  1.3466  0.3916
  287DMF     H3 3929   1.705   3.491   2.502 -0.8072 -0.8255 -0.8669
  287DMF     H4 3930   1.449   3.348   2.533 -0.7628 -1.4439  2.0729
  287DMF     H5 3931   1.541   3.192   2.587  0.7387  1.8687  1.1646
  287DMF     H6 3932   1.442   3.202   2.440 -0.8587 -0.2970  0.5127
  287DMF     H7 3933   1.536   3.198   2.259  1.0669 -1.5280 -0.3569
  288DMF     C1 3934   0.157   0.797   0.825 -0.4208 -0.2098  0.1481
  288DMF     N1 3935   0.144   0.811   0.676  0.3130 -0.1534  0.2798
  288DMF     C2 3936   0.136   0.946   0.608 -0.3301  0.2877 -0.2648
  288DMF     C3 3937   0.191   0.699   0.603  0.7610 -0.0106 -0.3013
  288DMF     O1 3938   0.203   0.590   0.655  0.3379  0.1647  0.3013
  288DMF     H1 3939   0.074   0.738   0.866 -0.1902 -0.4601  0.2559
  288DMF     H2 3940   0.156   0.898   0.866 -2.1624  0.2558 -0.9912
  288DMF     H3 3941   0.249   0.747   0.857  0.2135 -0.5747 -2.1058
  288DMF     H4 3942   0.240   0.974   0.591  0.1136  0.0837  1.9850
  288DMF     H5 3943   0.091   1.019   0.677  0.0188 -1.8121  2.2330
  288DMF     H6 3944   0.074   0.957   0.518  1.6910  1.7071 -1.5109
  288DMF     H7 3945   0.205   0.721   0.495  2.1062 -1.7080 -0.4950
  289DMF     C1 3946   3.015   1.711   2.257  0.2063  0.3851 -0.5036
  289DMF     N1 3947   3.052   1.688   2.397  0.4968 -0.3793 -0.3636
  289DMF     C2 3948   3.193   1.714   2.435 -0.1145 -0.0660 -0.4062
  289DMF     C3 3949   2.959   1.641   2.493  0.6818 -0.0024 -0.1429
  289DMF     O1 3950   2.842   1.618   2.458  0.1944  0.0268  0.0642
  289DMF     H1 3951   3.047   1.620   2.205  0.8772  0.0647  0.4350
  289DMF     H2 3952   3.063   1.799   2.213  1.4040 -0.1483 -0.2965
  289DMF     H3 3953   2.908   1.733   2.256  0.3700  1.2108 -0.1328
  289DMF     H4 3954   3.199   1.819   2.467 -1.7139 -0.4612  1.2507
  289DMF     H5 3955   3.247   1.718   2.340  0.4444 -0.1961 -0.0931
  289DMF     H6 3956   3.245   1.643   2.500  0.6568  0.4009 -0.5116
  289DMF     H7 3957   2.995   1.628   2.597 -4.5153  0.3211  1.8228
  290DMF     C1 3958   0.696   2.093   1.058  0.4766  0.3420 -1.1971
  290DMF     N1 3959   0.617   1.997   0.987 -0.0380  0.1147  0.1714
  290DMF     C2 3960   0.636   1.995   0.835  0.0813  0.6303  0.1140
  290DMF     C3 3961   0.514   1.926   1.050  1.0310  0.1909  0.5494
  290DMF     O1 3962   0.482   1.942   1.161  0.5000  0.5016  0.5520
  290DMF     H1 3963   0.796   2.051   1.071  0.3104 -0.1941 -1.6482
  290DMF     H2 3964   0.663   2.107   1.162  0.6476 -0.9850 -0.9509
  290DMF     H3 3965   0.715   2.192   1.015  3.6945  1.2599  2.0873
  290DMF     H4 3966   0.616   2.094   0.794  1.7413  0.4984 -1.0563
  290DMF     H5 3967   0.570   1.920   0.790  0.1519 -0.3446  1.5758
  290DMF     H6 3968   0.741   1.968   0.818 -0.1588  0.0290 -0.4419
  290DMF     H7 3969   0.468   1.846   0.989 -2.1567  1.6578  0.9297
  291DMF     C1 3970   0.168   0.269   0.160 -0.2050  0.5697  0.0941
  291DMF     N1 3971   0.232   0.290   0.293  0.2907 -0.5417 -0.6617
  291DMF     C2 3972   0.141   0.319   0.405 -0.3830  0.2441 -0.3260
  291DMF     C3 3973   0.369   0.266   0.319  1.1027  0.3920 -0.6698
  291DMF     O1 3974   0.452   0.223   0.240  0.2410  0.3538 -0.1685
  291DMF     H1 3975   0.249   0.260   0.086  0.7815  0.9998  1.1214
  291DMF     H2 3976   0.105   0.356   0.138  0.3003  0.5468 -1.5553
  291DMF     H3 3977   0.108   0.177   0.162  1.1625 -0.3495  0.0095
  291DMF     H4 3978   0.063   0.243   0.416  1.2186 -1.3385  0.1666
  291DMF     H5 3979   0.084   0.412   0.393  2.9524  2.3723 -0.3891
  291DMF     H6 3980   0.199   0.333   0.497 -1.6284  0.6460  0.4172
  291DMF     H7 3981   0.409   0.293   0.418  1.5232  2.2618 -1.3391
  292DMF     C1 3982   2.874   2.593   2.694 -0.2417 -0.4425  0.5332
  292DMF     N1 3983   2.876   2.715   2.775  0.1585 -0.0798 -0.4047
  292DMF     C2 3984   2.821   2.723   2.918  0.1491  0.0873 -0.1857
  292DMF     C3 3985   2.918   2.837   2.716 -0.0960 -1.0297 -1.3261
  292DMF     O1 3986   2.962   2.846   2.603  0.2030 -0.0212 -0.4026
  292DMF     H1 3987   2.775   2.568   2.653  0.0568 -0.6015 -0.0974
  292DMF     H2 3988   2.896   2.509   2.762  0.2889  0.7712  1.8966
  292DMF     H3 3989   2.949   2.609   2.616 -0.8142 -0.4961 -0.0307
  292DMF     H4 3990   2.749   2.642   2.934  0.4709 -0.5640 -1.9979
  292DMF     H5 3991   2.768   2.817   2.932  1.6654  0.4640  3.7076
  292DMF     H6 3992   2.900   2.722   2.995  1.1864 -0.8323 -1.2375
  292DMF     H7 3993   2.892   2.922   2.783  3.3829 -0.2229 -0.8923
  293DMF     C1 3994   0.675   1.533   2.299  0.3518  0.0137 -0.4408
  293DMF     N1 3995   0.672   1.674   2.260 -0.5496 -0.0396 -0.5598
  293DMF     C2 3996   0.803   1.735   2.230  0.0165  0.3365 -0.4491
  293DMF     C3 3997   0.550   1.725   2.217 -0.1654 -0.1651 -0.0121
  293DMF     O1 3998   0.440   1.682   2.239 -0.9224  0.3809 -0.4250
  293DMF     H1 3999   0.586   1.502   2.355  0.4898 -2.3111 -1.4262
  293DMF     H2 4000   0.775   1.512   2.341  0.2156  0.4850  0.1268
  293DMF     H3 4001   0.675   1.471   2.209 -0.6986 -3.6329  1.9739
  293DMF     H4 4002   0.864   1.727   2.321  0.6434 -0.9160 -0.9656
  293DMF     H5 4003   0.793   1.840   2.199 -1.3256  1.2881  3.0009
  293DMF     H6 4004   0.856   1.681   2.150  0.2798  1.9763 -1.4077
  293DMF     H7 4005   0.572   1.819   2.163  2.1171 -0.3931  0.4718
  294DMF     C1 4006   2.359   1.030   1.563 -0.0251  0.1173 -0.3682
  294DMF     N1 4007   2.352   1.029   1.418  0.7370  0.3755  0.1365
  294DMF     C2 4008   2.464   0.972   1.348 -0.2052  0.4856  0.0031
  294DMF     C3 4009   2.251   1.104   1.348  0.6351  0.0041  0.0147
  294DMF     O1 4010   2.145   1.133   1.398 -0.2470  0.8088  0.4518
  294DMF     H1 4011   2.335   0.927   1.593  1.3342  0.0143  0.3649
  294DMF     H2 4012   2.291   1.106   1.606 -0.6310 -0.4757 -0.2663
  294DMF     H3 4013   2.460   1.057   1.594 -0.2934 -0.1873  0.7912
  294DMF     H4 4014   2.435   0.940   1.247 -2.0078  0.3428  0.5533
  294DMF     H5 4015   2.511   0.897   1.412  2.2980 -0.0909 -2.4055
  294DMF     H6 4016   2.546   1.043   1.332  0.5873 -0.5387 -0.5520
  294DMF     H7 4017   2.281   1.129   1.245  1.2405 -0.2503  0.1236
  295DMF     C1 4018   3.211   0.208   0.292 -0.0680 -0.5596 -0.0440
  295DMF     N1 4019   3.107   0.204   0.188 -0.4069 -0.0143  0.2102
  295DMF     C2 4020   3.151   0.212   0.044 -0.4045  0.0425 -0.1706
  295DMF     C3 4021   2.965   0.190   0.218 -0.7921 -0.4208  0.7617
  295DMF     O1 4022   2.926   0.179   0.336  0.1031  0.0504 -0.1844
  295DMF     H1 4023   3.312   0.218   0.252  0.2021 -1.4057  0.4136
  295DMF     H2 4024   3.215   0.104   0.325 -1.7426 -0.7116 -0.2767
  295DMF     H3 4025   3.190   0.279   0.373  2.1921  1.8496 -1.5060
  295DMF     H4 4026   3.133   0.118  -0.009  0.3785 -0.2764  0.1256
  295DMF     H5 4027   3.260   0.223   0.042  0.0592 -3.9735 -1.9591
  295DMF     H6 4028   3.102   0.299  -0.000 -2.1837 -1.2739 -0.8569
  295DMF     H7 4029   2.900   0.201   0.129  1.8623  3.3252 -0.8466
  296DMF     C1 4030   2.442   2.481   0.592  1.0203 -0.6259 -0.3906
  296DMF     N1 4031   2.545   2.436   0.690  0.1243  0.3499 -0.8667
  296DMF     C2 4032   2.672   2.492   0.661 -0.2310  0.0895 -0.1983
  296DMF     C3 4033   2.513   2.351   0.801 -0.7047 -0.2246  0.1258
  296DMF     O1 4034   2.405   2.295   0.816  0.2880  0.1156  0.5476
  296DMF     H1 4035   2.463   2.575   0.540  2.2490 -0.9588 -0.5041
  296DMF     H2 4036   2.347   2.500   0.644  2.3566  0.2803  1.8478
  296DMF     H3 4037   2.442   2.398   0.520 -1.2220 -1.0213  0.0206
  296DMF     H4 4038   2.688   2.459   0.558  0.0371  0.0212 -0.1350
  296DMF     H5 4039   2.743   2.440   0.726 -0.2864 -2.3130 -1.9858
  296DMF     H6 4040   2.679   2.601   0.673  0.6509 -0.0104  0.2261
  296DMF     H7 4041   2.607   2.330   0.856 -0.7148 -0.3104  0.1098
  297DMF     C1 4042   3.082   1.548   0.104  0.0944  0.1982 -0.0194
  297DMF     N1 4043   3.203   1.483   0.104 -0.2533 -0.3920  0.3352
  297DMF     C2 4044   3.209   1.350   0.052  0.3485 -0.0314  0.4946
  297DMF     C3 4045   3.318   1.526   0.172 -0.5057 -0.2179 -0.3358
  297DMF     O1 4046   3.316   1.617   0.249  0.5079 -0.2992 -0.0488
  297DMF     H1 4047   3.100   1.656   0.107 -0.6345  0.3108  0.6380
  297DMF     H2 4048   3.013   1.508   0.180  1.0527  2.0751  1.9076
  297DMF     H3 4049   3.033   1.540   0.006  0.8140 -0.9766 -0.2874
  297DMF     H4 4050   3.265   1.353  -0.043 -0.3037 -0.5638  0.0840
  297DMF     H5 4051   3.110   1.307   0.028 -0.0472 -0.1071  2.2347
  297DMF     H6 4052   3.262   1.279   0.116 -0.7865 -1.3653 -0.0100
  297DMF     H7 4053   3.403   1.461   0.147  0.0917 -0.2033  1.5950
  298DMF     C1 4054   1.065   2.235   0.500 -0.3949  0.2660 -0.8502
  298DMF     N1 4055   0.984   2.142   0.571  0.2340 -0.4749  0.1362
  298DMF     C2 4056   1.036   2.092   0.700  0.3259  0.1119 -0.1526
  298DMF     C3 4057   0.860   2.101   0.516 -0.5122 -0.4124  0.1712
  298DMF     O1 4058   0.819   2.140   0.413 -0.3680  0.1273 -0.1015
  298DMF     H1 4059   1.119   2.289   0.579 -3.0084  0.1641  1.0843
  298DMF     H2 4060   1.014   2.319   0.451  0.7691  0.0115 -2.5174
  298DMF     H3 4061   1.139   2.180   0.442 -0.1349  0.7595 -0.9853
  298DMF     H4 4062   0.956   2.051   0.763  2.5386 -4.0588  0.0607
  298DMF     H5 4063   1.098   2.165   0.754  0.9676 -0.0358 -0.6818
  298DMF     H6 4064   1.113   2.021   0.667  1.5238  2.0274 -1.6271
  298DMF     H7 4065   0.811   2.039   0.593  1.6952  0.3797  2.2869
  299DMF     C1 4066   2.020   0.863   1.172 -0.5667 -0.2153  0.5274
  299DMF     N1 4067   2.045   0.898   1.031  0.8325  0.1785  0.3195
  299DMF     C2 4068   2.033   0.784   0.935  0.6521 -0.2330  0.0442
  299DMF     C3 4069   2.093   1.019   1.000  0.7106  0.3805 -0.6906
  299DMF     O1 4070   2.103   1.116   1.080 -0.5461 -0.0058  0.5863
  299DMF     H1 4071   2.059   0.938   1.241  0.6695 -0.1946 -0.1898
  299DMF     H2 4072   2.060   0.763   1.192 -0.6424 -0.1683  0.9070
  299DMF     H3 4073   1.915   0.857   1.203 -0.5622 -0.8899  0.4305
  299DMF     H4 4074   1.950   0.806   0.866  0.7633  0.5102  0.1430
  299DMF     H5 4075   2.006   0.688   0.980 -1.6429  0.2846 -0.1509
  299DMF     H6 4076   2.120   0.781   0.869  1.3240 -2.7110  1.0006
  299DMF     H7 4077   2.118   1.022   0.892  2.2690  2.3602 -0.3016
  300DMF     C1 4078   2.918   2.274   0.338  0.5862  0.2985 -0.4573
  300DMF     N1 4079   2.843   2.148   0.365 -0.0872 -0.2204 -0.1802
  300DMF     C2 4080   2.723   2.123   0.283  0.0587 -0.2173  0.2607
  300DMF     C3 4081   2.905   2.043   0.445  0.2716  0.1754 -0.4030
  300DMF     O1 4082   3.021   2.052   0.491 -0.7036  0.3168 -0.3805
  300DMF     H1 4083   2.969   2.278   0.241  0.4250  2.6915 -0.4568
  300DMF     H2 4084   2.992   2.300   0.415  0.3240 -0.1590 -0.0436
  300DMF     H3 4085   2.847   2.356   0.351 -0.1175 -0.4482  0.5285
  300DMF     H4 4086   2.701   2.016   0.287 -1.3383 -0.1214 -3.0853
  300DMF     H5 4087   2.744   2.145   0.177 -0.6563 -0.9794 -0.0443
  300DMF     H6 4088   2.641   2.183   0.324  0.0806 -1.0953  1.6124
  300DMF     H7 4089   2.844   1.951   0.443  1.5790 -0.8724  3.2187
  301DMF     C1 4090   2.954   2.198   3.486 -0.5212  0.1389 -0.6321
  301DMF     N1 4091   3.054   2.304   3.518 -0.4664  0.3537 -0.4229
  301DMF     C2 4092   3.101   2.323   3.656 -0.4204 -0.2144  0.4811
  301DMF     C3 4093   3.107   2.388   3.418 -0.2666 -0.0863 -0.7528
  301DMF     O1 4094   3.062   2.397   3.309 -0.5959  0.4119  0.3058
  301DMF     H1 4095   2.914   2.151   3.577  0.8873 -2.6433 -1.3894
  301DMF     H2 4096   2.990   2.119   3.419  1.4005  0.9386 -0.5802
  301DMF     H3 4097   2.876   2.248   3.427  0.4548  2.3230 -0.1074
  301DMF     H4 4098   3.097   2.428   3.685  1.8149 -0.2408  1.0384
  301DMF     H5 4099   3.199   2.274   3.671 -0.0747  0.1592 -0.5489
  301DMF     H6 4100   3.039   2.270   3.729 -1.5412 -2.3458 -1.9130
  301DMF     H7 4101   3.192   2.446   3.459 -1.8434  0.1126  2.4591
  302DMF     C1 4102   2.043   0.392   0.815 -0.3517  0.6225  0.1781
  302DMF     N1 4103   2.097   0.384   0.677 -0.6072 -0.2217  0.3575
  302DMF     C2 4104   2.052   0.270   0.596  1.3202 -0.5599 -0.4405
  302DMF     C3 4105   2.196   0.466   0.629  0.2910  0.4981 -0.0516
  302DMF     O1 4106   2.228   0.575   0.678 -0.1087 -0.3403 -0.4580
  302DMF     H1 4107   2.110   0.341   0.885 -0.6753  0.2775  0.2355
  302DMF     H2 4108   1.946   0.340   0.817 -0.8351  1.4055 -1.8029
  302DMF     H3 4109   2.046   0.499   0.841  0.1064  0.3224  1.4182
  302DMF     H4 4110   2.063   0.273   0.487  0.6785  1.6421 -0.4691
  302DMF     H5 4111   1.945   0.260   0.619  1.8334 -0.9038  1.8833
  302DMF     H6 4112   2.103   0.183   0.640  0.0631 -0.9181  0.3368
  302DMF     H7 4113   2.245   0.427   0.538  0.4913  1.6344 -0.4426
  303DMF     C1 4114   1.473   0.005   1.482 -0.6350  0.5684 -0.4523
  303DMF     N1 4115   1.338   0.054   1.517 -0.3190 -0.3091 -0.0452
  303DMF     C2 4116   1.229  -0.042   1.537  0.1653 -0.2093  0.3498
  303DMF     C3 4117   1.317   0.192   1.546  0.5677  0.0740  0.8118
  303DMF     O1 4118   1.398   0.282   1.545  0.1605  0.9285 -0.1032
  303DMF     H1 4119   1.551   0.045   1.549 -1.3887  0.1833  0.6713
  303DMF     H2 4120   1.485   0.034   1.377  3.0964  1.4616  0.1300
  303DMF     H3 4121   1.488  -0.103   1.486  0.9102  0.7884  0.1141
  303DMF     H4 4122   1.258  -0.145   1.560  0.4651 -0.4824 -1.2434
  303DMF     H5 4123   1.173  -0.044   1.443  0.3446 -1.9922  0.2608
  303DMF     H6 4124   1.155  -0.004   1.608 -0.5397  0.8538 -0.9377
  303DMF     H7 4125   1.213   0.204   1.583  0.4814  1.8014  0.0889
  304DMF     C1 4126   0.951   2.251   2.591 -0.2363 -0.8058 -0.3206
  304DMF     N1 4127   0.953   2.249   2.734  0.8901  0.3907 -0.4512
  304DMF     C2 4128   1.036   2.351   2.806 -0.3389 -0.2318  0.6450
  304DMF     C3 4129   0.916   2.134   2.809 -0.3549  0.1361  0.4230
  304DMF     O1 4130   0.857   2.035   2.762  0.3488  0.1225 -0.8705
  304DMF     H1 4131   1.023   2.186   2.540  0.9773  1.5157 -1.6362
  304DMF     H2 4132   0.980   2.351   2.556  0.5194 -0.2195  1.8559
  304DMF     H3 4133   0.850   2.234   2.551 -0.0817  1.5137 -1.7571
  304DMF     H4 4134   1.077   2.312   2.900 -1.1241  1.6807  1.8252
  304DMF     H5 4135   0.968   2.432   2.836  0.9292  0.2367  2.3765
  304DMF     H6 4136   1.112   2.394   2.740 -0.4650  0.6164  1.0386
  304DMF     H7 4137   0.941   2.131   2.916 -0.0991 -0.8584  0.3397
  305DMF     C1 4138   2.182   2.380   3.297  0.1405 -0.1082 -0.2433
  305DMF     N1 4139   2.277   2.397   3.407 -0.4028  0.3279 -0.3116
  305DMF     C2 4140   2.397   2.478   3.396  0.4140 -0.2379 -0.5661
  305DMF     C3 4141   2.244   2.331   3.528 -1.0233 -0.0543 -0.8308
  305DMF     O1 4142   2.143   2.272   3.561 -0.1400  0.2924  0.8445
  305DMF     H1 4143   2.229   2.427   3.210 -0.3936 -1.4653 -1.3041
  305DMF     H2 4144   2.091   2.433   3.328  2.2326  3.3027  0.2582
  305DMF     H3 4145   2.166   2.276   3.266 -0.8517  0.1855 -0.7477
  305DMF     H4 4146   2.468   2.463   3.478  2.8607  0.0086 -2.5940
  305DMF     H5 4147   2.368   2.584   3.393 -0.4067 -0.4858 -3.5520
  305DMF     H6 4148   2.449   2.448   3.304  0.9806  1.0104 -0.6623
  305DMF     H7 4149   2.326   2.349   3.600  2.1160 -1.6959 -3.8509
  306DMF     C1 4150   1.997   1.518   3.368  0.1788  0.7260  0.1801
  306DMF     N1 4151   1.997   1.392   3.449 -0.4240  0.0637  0.2753
  306DMF     C2 4152   2.119   1.304   3.439  0.2103  0.5297 -0.7108
  306DMF     C3 4153   1.879   1.340   3.512  0.2184  0.2214  0.0293
  306DMF     O1 4154   1.771   1.396   3.495  0.0627 -0.2896 -0.1903
  306DMF     H1 4155   1.957   1.597   3.432  3.0267  3.0169 -0.8146
  306DMF     H2 4156   1.932   1.519   3.279  1.4719  1.5404 -0.7736
  306DMF     H3 4157   2.098   1.552   3.344  0.1015  0.1426 -1.0406
  306DMF     H4 4158   2.176   1.329   3.529 -1.1857  0.8544  0.0945
  306DMF     H5 4159   2.179   1.321   3.349  0.6099  0.5341 -0.4466
  306DMF     H6 4160   2.088   1.199   3.448 -0.5035  0.5658 -2.5448
  306DMF     H7 4161   1.893   1.238   3.554 -2.8347 -0.0131  0.6572
  307DMF     C1 4162   1.664   0.834   2.986 -0.1281 -0.1095 -0.1493
  307DMF     N1 4163   1.768   0.742   3.033  0.3069  0.3790  0.5540
  307DMF     C2 4164   1.871   0.713   2.933 -0.1798 -0.0359 -0.5516
  307DMF     C3 4165   1.785   0.689   3.163 -0.8897  0.2234  0.1719
  307DMF     O1 4166   1.721   0.726   3.265 -0.2894 -0.7468 -0.2235
  307DMF     H1 4167   1.665   0.832   2.877  0.7389  0.1551 -0.1549
  307DMF     H2 4168   1.673   0.931   3.038  0.9830 -0.2783 -0.0008
  307DMF     H3 4169   1.576   0.780   3.021  0.6282 -1.1029  0.2687
  307DMF     H4 4170   1.936   0.629   2.960  2.2010  1.7035 -0.7194
  307DMF     H5 4171   1.937   0.801   2.933 -0.9460  0.5479 -0.2548
  307DMF     H6 4172   1.823   0.692   2.836  0.3231  2.9591 -1.5120
  307DMF     H7 4173   1.872   0.622   3.177 -1.5191 -0.8878 -1.0684
   3.40320   3.43847   3.80000
