DMF comparator n4
 4173
    1GR      C1    1   0.000   0.000   1.900  0.0000  0.0000  0.0000
    1GR      C2    2   0.142   0.000   1.900  0.0000  0.0000  0.0000
    1GR      C3    3   0.213   0.123   1.900  0.0000  0.0000  0.0000
    1GR      C4    4   0.354   0.123   1.900  0.0000  0.0000  0.0000
    1GR      C5    5   0.000   0.246   1.900  0.0000  0.0000  0.0000
    1GR      C6    6   0.142   0.246   1.900  0.0000  0.0000  0.0000
    1GR      C7    7   0.213   0.368   1.900  0.0000  0.0000  0.0000
    1GR      C8    8   0.354   0.368   1.900  0.0000  0.0000  0.0000
    1GR      C9    9   0.000   0.491   1.900  0.0000  0.0000  0.0000
    1GR     C10   10   0.142   0.491   1.900  0.0000  0.0000  0.0000
    1GR     C11   11   0.213   0.614   1.900  0.0000  0.0000  0.0000
    1GR     C12   12   0.354   0.614   1.900  0.0000  0.0000  0.0000
    1GR     C13   13   0.000   0.737   1.900  0.0000  0.0000  0.0000
    1GR     C14   14   0.142   0.737   1.900  0.0000  0.0000  0.0000
    1GR     C15   15   0.213   0.860   1.900  0.0000  0.0000  0.0000
    1GR     C16   16   0.354   0.860   1.900  0.0000  0.0000  0.0000
    1GR     C17   17   0.000   0.982   1.900  0.0000  0.0000  0.0000
    1GR     C18   18   0.142   0.982   1.900  0.0000  0.0000  0.0000
    1GR     C19   19   0.213   1.105   1.900  0.0000  0.0000  0.0000
    1GR     C20   20   0.354   1.105   1.900  0.0000  0.0000  0.0000
    1GR     C21   21   0.000   1.228   1.900  0.0000  0.0000  0.0000
    1GR     C22   22   0.142   1.228   1.900  0.0000  0.0000  0.0000
    1GR     C23   23   0.213   1.351   1.900  0.0000  0.0000  0.0000
    1GR     C24   24   0.354   1.351   1.900  0.0000  0.0000  0.0000
    1GR     C25   25   0.000   1.474   1.900  0.0000  0.0000  0.0000
    1GR     C26   26   0.142   1.474   1.900  0.0000  0.0000  0.0000
    1GR     C27   27   0.213   1.596   1.900  0.0000  0.0000  0.0000
    1GR     C28   28   0.354   1.596   1.900  0.0000  0.0000  0.0000
    1GR     C29   29   0.000   1.719   1.900  0.0000  0.0000  0.0000
    1GR     C30   30   0.142   1.719   1.900  0.0000  0.0000  0.0000
    1GR     C31   31   0.213   1.842   1.900  0.0000  0.0000  0.0000
    1GR     C32   32   0.354   1.842   1.900  0.0000  0.0000  0.0000
    1GR     C33   33   0.000   1.965   1.900  0.0000  0.0000  0.0000
    1GR     C34   34   0.142   1.965   1.900  0.0000  0.0000  0.0000
    1GR     C35   35   0.213   2.088   1.900  0.0000  0.0000  0.0000
    1GR     C36   36   0.354   2.088   1.900  0.0000  0.0000  0.0000
    1GR     C37   37   0.000   2.210   1.900  0.0000  0.0000  0.0000
    1GR     C38   38   0.142   2.210   1.900  0.0000  0.0000  0.0000
    1GR     C39   39   0.213   2.333   1.900  0.0000  0.0000  0.0000
    1GR     C40   40   0.354   2.333   1.900  0.0000  0.0000  0.0000
    1GR     C41   41   0.000   2.456   1.900  0.0000  0.0000  0.0000
    1GR     C42   42   0.142   2.456   1.900  0.0000  0.0000  0.0000
    1GR     C43   43   0.213   2.579   1.900  0.0000  0.0000  0.0000
    1GR     C44   44   0.354   2.579   1.900  0.0000  0.0000  0.0000
    1GR     C45   45   0.000   2.702   1.900  0.0000  0.0000  0.0000
    1GR     C46   46   0.142   2.702   1.900  0.0000  0.0000  0.0000
    1GR     C47   47   0.213   2.824   1.900  0.0000  0.0000  0.0000
    1GR     C48   48   0.354   2.824   1.900  0.0000  0.0000  0.0000
    1GR     C49   49   0.000   2.947   1.900  0.0000  0.0000  0.0000
    1GR     C50   50   0.142   2.947   1.900  0.0000  0.0000  0.0000
    1GR     C51   51   0.213   3.070   1.900  0.0000  0.0000  0.0000
    1GR     C52   52   0.354   3.070   1.900  0.0000  0.0000  0.0000
    1GR     C53   53   0.000   3.193   1.900  0.0000  0.0000  0.0000
    1GR     C54   54   0.142   3.193   1.900  0.0000  0.0000  0.0000
    1GR     C55   55   0.213   3.316   1.900  0.0000  0.0000  0.0000
    1GR     C56   56   0.354   3.316   1.900  0.0000  0.0000  0.0000
    1GR     C57   57   0.425   0.000   1.900  0.0000  0.0000  0.0000
    1GR     C58   58   0.567   0.000   1.900  0.0000  0.0000  0.0000
    1GR     C59   59   0.638   0.123   1.900  0.0000  0.0000  0.0000
    1GR     C60   60   0.780   0.123   1.900  0.0000  0.0000  0.0000
    1GR     C61   61   0.425   0.246   1.900  0.0000  0.0000  0.0000
    1GR     C62   62   0.567   0.246   1.900  0.0000  0.0000  0.0000
    1GR     C63   63   0.638   0.368   1.900  0.0000  0.0000  0.0000
    1GR     C64   64   0.780   0.368   1.900  0.0000  0.0000  0.0000
    1GR     C65   65   0.425   0.491   1.900  0.0000  0.0000  0.0000
    1GR     C66   66   0.567   0.491   1.900  0.0000  0.0000  0.0000
    1GR     C67   67   0.638   0.614   1.900  0.0000  0.0000  0.0000
    1GR     C68   68   0.780   0.614   1.900  0.0000  0.0000  0.0000
    1GR     C69   69   0.425   0.737   1.900  0.0000  0.0000  0.0000
    1GR     C70   70   0.567   0.737   1.900  0.0000  0.0000  0.0000
    1GR     C71   71   0.638   0.860   1.900  0.0000  0.0000  0.0000
    1GR     C72   72   0.780   0.860   1.900  0.0000  0.0000  0.0000
    1GR     C73   73   0.425   0.982   1.900  0.0000  0.0000  0.0000
    1GR     C74   74   0.567   0.982   1.900  0.0000  0.0000  0.0000
    1GR     C75   75   0.638   1.105   1.900  0.0000  0.0000  0.0000
    1GR     C76   76   0.780   1.105   1.900  0.0000  0.0000  0.0000
    1GR     C77   77   0.425   1.228   1.900  0.0000  0.0000  0.0000
    1GR     C78   78   0.567   1.228   1.900  0.0000  0.0000  0.0000
    1GR     C79   79   0.638   1.351   1.900  0.0000  0.0000  0.0000
    1GR     C80   80   0.780   1.351   1.900  0.0000  0.0000  0.0000
    1GR     C81   81   0.425   1.474   1.900  0.0000  0.0000  0.0000
    1GR     C82   82   0.567   1.474   1.900  0.0000  0.0000  0.0000
    1GR     C83   83   0.638   1.596   1.900  0.0000  0.0000  0.0000
    1GR     C84   84   0.780   1.596   1.900  0.0000  0.0000  0.0000
    1GR     C85   85   0.425   1.719   1.900  0.0000  0.0000  0.0000
    1GR     C86   86   0.567   1.719   1.900  0.0000  0.0000  0.0000
    1GR     C87   87   0.638   1.842   1.900  0.0000  0.0000  0.0000
    1GR     C88   88   0.780   1.842   1.900  0.0000  0.0000  0.0000
    1GR     C89   89   0.425   1.965   1.900  0.0000  0.0000  0.0000
    1GR     C90   90   0.567   1.965   1.900  0.0000  0.0000  0.0000
    1GR     C91   91   0.638   2.088   1.900  0.0000  0.0000  0.0000
    1GR     C92   92   0.780   2.088   1.900  0.0000  0.0000  0.0000
    1GR     C93   93   0.425   2.210   1.900  0.0000  0.0000  0.0000
    1GR     C94   94   0.567   2.210   1.900  0.0000  0.0000  0.0000
    1GR     C95   95   0.638   2.333   1.900  0.0000  0.0000  0.0000
    1GR     C96   96   0.780   2.333   1.900  0.0000  0.0000  0.0000
    1GR     C97   97   0.425   2.456   1.900  0.0000  0.0000  0.0000
    1GR     C98   98   0.567   2.456   1.900  0.0000  0.0000  0.0000
    1GR     C99   99   0.638   2.579   1.900  0.0000  0.0000  0.0000
    1GR    C100  100   0.780   2.579   1.900  0.0000  0.0000  0.0000
    1GR    C101  101   0.425   2.702   1.900  0.0000  0.0000  0.0000
    1GR    C102  102   0.567   2.702   1.900  0.0000  0.0000  0.0000
    1GR    C103  103   0.638   2.824   1.900  0.0000  0.0000  0.0000
    1GR    C104  104   0.780   2.824   1.900  0.0000  0.0000  0.0000
    1GR    C105  105   0.425   2.947   1.900  0.0000  0.0000  0.0000
    1GR    C106  106   0.567   2.947   1.900  0.0000  0.0000  0.0000
    1GR    C107  107   0.638   3.070   1.900  0.0000  0.0000  0.0000
    1GR    C108  108   0.780   3.070   1.900  0.0000  0.0000  0.0000
    1GR    C109  109   0.425   3.193   1.900  0.0000  0.0000  0.0000
    1GR    C110  110   0.567   3.193   1.900  0.0000  0.0000  0.0000
    1GR    C111  111   0.638   3.316   1.900  0.0000  0.0000  0.0000
    1GR    C112  112   0.780   3.316   1.900  0.0000  0.0000  0.0000
    1GR    C113  113   0.851   0.000   1.900  0.0000  0.0000  0.0000
    1GR    C114  114   0.993   0.000   1.900  0.0000  0.0000  0.0000
    1GR    C115  115   1.064   0.123   1.900  0.0000  0.0000  0.0000
    1GR    C116  116   1.205   0.123   1.900  0.0000  0.0000  0.0000
    1GR    C117  117   0.851   0.246   1.900  0.0000  0.0000  0.0000
    1GR    C118  118   0.993   0.246   1.900  0.0000  0.0000  0.0000
    1GR    C119  119   1.064   0.368   1.900  0.0000  0.0000  0.0000
    1GR    C120  120   1.205   0.368   1.900  0.0000  0.0000  0.0000
    1GR    C121  121   0.851   0.491   1.900  0.0000  0.0000  0.0000
    1GR    C122  122   0.993   0.491   1.900  0.0000  0.0000  0.0000
    1GR    C123  123   1.064   0.614   1.900  0.0000  0.0000  0.0000
    1GR    C124  124   1.205   0.614   1.900  0.0000  0.0000  0.0000
    1GR    C125  125   0.851   0.737   1.900  0.0000  0.0000  0.0000
    1GR    C126  126   0.993   0.737   1.900  0.0000  0.0000  0.0000
    1GR    C127  127   1.064   0.860   1.900  0.0000  0.0000  0.0000
    1GR    C128  128   1.205   0.860   1.900  0.0000  0.0000  0.0000
    1GR    C129  129   0.851   0.982   1.900  0.0000  0.0000  0.0000
    1GR    C130  130   0.993   0.982   1.900  0.0000  0.0000  0.0000
    1GR    C131  131   1.064   1.105   1.900  0.0000  0.0000  0.0000
    1GR    C132  132   1.205   1.105   1.900  0.0000  0.0000  0.0000
    1GR    C133  133   0.851   1.228   1.900  0.0000  0.0000  0.0000
    1GR    C134  134   0.993   1.228   1.900  0.0000  0.0000  0.0000
    1GR    C135  135   1.064   1.351   1.900  0.0000  0.0000  0.0000
    1GR    C136  136   1.205   1.351   1.900  0.0000  0.0000  0.0000
    1GR    C137  137   0.851   1.474   1.900  0.0000  0.0000  0.0000
    1GR    C138  138   0.993   1.474   1.900  0.0000  0.0000  0.0000
    1GR    C139  139   1.064   1.596   1.900  0.0000  0.0000  0.0000
    1GR    C140  140   1.205   1.596   1.900  0.0000  0.0000  0.0000
    1GR    C141  141   0.851   1.719   1.900  0.0000  0.0000  0.0000
    1GR    C142  142   0.993   1.719   1.900  0.0000  0.0000  0.0000
    1GR    C143  143   1.064   1.842   1.900  0.0000  0.0000  0.0000
    1GR    C144  144   1.205   1.842   1.900  0.0000  0.0000  0.0000
    1GR    C145  145   0.851   1.965   1.900  0.0000  0.0000  0.0000
    1GR    C146  146   0.993   1.965   1.900  0.0000  0.0000  0.0000
    1GR    C147  147   1.064   2.088   1.900  0.0000  0.0000  0.0000
    1GR    C148  148   1.205   2.088   1.900  0.0000  0.0000  0.0000
    1GR    C149  149   0.851   2.210   1.900  0.0000  0.0000  0.0000
    1GR    C150  150   0.993   2.210   1.900  0.0000  0.0000  0.0000
    1GR    C151  151   1.064   2.333   1.900  0.0000  0.0000  0.0000
    1GR    C152  152   1.205   2.333   1.900  0.0000  0.0000  0.0000
    1GR    C153  153   0.851   2.456   1.900  0.0000  0.0000  0.0000
    1GR    C154  154   0.993   2.456   1.900  0.0000  0.0000  0.0000
    1GR    C155  155   1.064   2.579   1.900  0.0000  0.0000  0.0000
    1GR    C156  156   1.205   2.579   1.900  0.0000  0.0000  0.0000
    1GR    C157  157   0.851   2.702   1.900  0.0000  0.0000  0.0000
    1GR    C158  158   0.993   2.702   1.900  0.0000  0.0000  0.0000
    1GR    C159  159   1.064   2.824   1.900  0.0000  0.0000  0.0000
    1GR    C160  160   1.205   2.824   1.900  0.0000  0.0000  0.0000
    1GR    C161  161   0.851   2.947   1.900  0.0000  0.0000  0.0000
    1GR    C162  162   0.993   2.947   1.900  0.0000  0.0000  0.0000
    1GR    C163  163   1.064   3.070   1.900  0.0000  0.0000  0.0000
    1GR    C164  164   1.205   3.070   1.900  0.0000  0.0000  0.0000
    1GR    C165  165   0.851   3.193   1.900  0.0000  0.0000  0.0000
    1GR    C166  166   0.993   3.193   1.900  0.0000  0.0000  0.0000
    1GR    C167  167   1.064   3.316   1.900  0.0000  0.0000  0.0000
    1GR    C168  168   1.205   3.316   1.900  0.0000  0.0000  0.0000
    1GR    C169  169   1.276   0.000   1.900  0.0000  0.0000  0.0000
    1GR    C170  170   1.418   0.000   1.900  0.0000  0.0000  0.0000
    1GR    C171  171   1.489   0.123   1.900  0.0000  0.0000  0.0000
    1GR    C172  172   1.631   0.123   1.900  0.0000  0.0000  0.0000
    1GR    C173  173   1.276   0.246   1.900  0.0000  0.0000  0.0000
    1GR    C174  174   1.418   0.246   1.900  0.0000  0.0000  0.0000
    1GR    C175  175   1.489   0.368   1.900  0.0000  0.0000  0.0000
    1GR    C176  176   1.631   0.368   1.900  0.0000  0.0000  0.0000
    1GR    C177  177   1.276   0.491   1.900  0.0000  0.0000  0.0000
    1GR    C178  178   1.418   0.491   1.900  0.0000  0.0000  0.0000
    1GR    C179  179   1.489   0.614   1.900  0.0000  0.0000  0.0000
    1GR    C180  180   1.631   0.614   1.900  0.0000  0.0000  0.0000
    1GR    C181  181   1.276   0.737   1.900  0.0000  0.0000  0.0000
    1GR    C182  182   1.418   0.737   1.900  0.0000  0.0000  0.0000
    1GR    C183  183   1.489   0.860   1.900  0.0000  0.0000  0.0000
    1GR    C184  184   1.631   0.860   1.900  0.0000  0.0000  0.0000
    1GR    C185  185   1.276   0.982   1.900  0.0000  0.0000  0.0000
    1GR    C186  186   1.418   0.982   1.900  0.0000  0.0000  0.0000
    1GR    C187  187   1.489   1.105   1.900  0.0000  0.0000  0.0000
    1GR    C188  188   1.631   1.105   1.900  0.0000  0.0000  0.0000
    1GR    C189  189   1.276   1.228   1.900  0.0000  0.0000  0.0000
    1GR    C190  190   1.418   1.228   1.900  0.0000  0.0000  0.0000
    1GR    C191  191   1.489   1.351   1.900  0.0000  0.0000  0.0000
    1GR    C192  192   1.631   1.351   1.900  0.0000  0.0000  0.0000
    1GR    C193  193   1.276   1.474   1.900  0.0000  0.0000  0.0000
    1GR    C194  194   1.418   1.474   1.900  0.0000  0.0000  0.0000
    1GR    C195  195   1.489   1.596   1.900  0.0000  0.0000  0.0000
    1GR    C196  196   1.631   1.596   1.900  0.0000  0.0000  0.0000
    1GR    C197  197   1.276   1.719   1.900  0.0000  0.0000  0.0000
    1GR    C198  198   1.418   1.719   1.900  0.0000  0.0000  0.0000
    1GR    C199  199   1.489   1.842   1.900  0.0000  0.0000  0.0000
    1GR    C200  200   1.631   1.842   1.900  0.0000  0.0000  0.0000
    1GR    C201  201   1.276   1.965   1.900  0.0000  0.0000  0.0000
    1GR    C202  202   1.418   1.965   1.900  0.0000  0.0000  0.0000
    1GR    C203  203   1.489   2.088   1.900  0.0000  0.0000  0.0000
    1GR    C204  204   1.631   2.088   1.900  0.0000  0.0000  0.0000
    1GR    C205  205   1.276   2.210   1.900  0.0000  0.0000  0.0000
    1GR    C206  206   1.418   2.210   1.900  0.0000  0.0000  0.0000
    1GR    C207  207   1.489   2.333   1.900  0.0000  0.0000  0.0000
    1GR    C208  208   1.631   2.333   1.900  0.0000  0.0000  0.0000
    1GR    C209  209   1.276   2.456   1.900  0.0000  0.0000  0.0000
    1GR    C210  210   1.418   2.456   1.900  0.0000  0.0000  0.0000
    1GR    C211  211   1.489   2.579   1.900  0.0000  0.0000  0.0000
    1GR    C212  212   1.631   2.579   1.900  0.0000  0.0000  0.0000
    1GR    C213  213   1.276   2.702   1.900  0.0000  0.0000  0.0000
    1GR    C214  214   1.418   2.702   1.900  0.0000  0.0000  0.0000
    1GR    C215  215   1.489   2.824   1.900  0.0000  0.0000  0.0000
    1GR    C216  216   1.631   2.824   1.900  0.0000  0.0000  0.0000
    1GR    C217  217   1.276   2.947   1.900  0.0000  0.0000  0.0000
    1GR    C218  218   1.418   2.947   1.900  0.0000  0.0000  0.0000
    1GR    C219  219   1.489   3.070   1.900  0.0000  0.0000  0.0000
    1GR    C220  220   1.631   3.070   1.900  0.0000  0.0000  0.0000
    1GR    C221  221   1.276   3.193   1.900  0.0000  0.0000  0.0000
    1GR    C222  222   1.418   3.193   1.900  0.0000  0.0000  0.0000
    1GR    C223  223   1.489   3.316   1.900  0.0000  0.0000  0.0000
    1GR    C224  224   1.631   3.316   1.900  0.0000  0.0000  0.0000
    1GR    C225  225   1.702   0.000   1.900  0.0000  0.0000  0.0000
    1GR    C226  226   1.843   0.000   1.900  0.0000  0.0000  0.0000
    1GR    C227  227   1.914   0.123   1.900  0.0000  0.0000  0.0000
    1GR    C228  228   2.056   0.123   1.900  0.0000  0.0000  0.0000
    1GR    C229  229   1.702   0.246   1.900  0.0000  0.0000  0.0000
    1GR    C230  230   1.843   0.246   1.900  0.0000  0.0000  0.0000
    1GR    C231  231   1.914   0.368   1.900  0.0000  0.0000  0.0000
    1GR    C232  232   2.056   0.368   1.900  0.0000  0.0000  0.0000
    1GR    C233  233   1.702   0.491   1.900  0.0000  0.0000  0.0000
    1GR    C234  234   1.843   0.491   1.900  0.0000  0.0000  0.0000
    1GR    C235  235   1.914   0.614   1.900  0.0000  0.0000  0.0000
    1GR    C236  236   2.056   0.614   1.900  0.0000  0.0000  0.0000
    1GR    C237  237   1.702   0.737   1.900  0.0000  0.0000  0.0000
    1GR    C238  238   1.843   0.737   1.900  0.0000  0.0000  0.0000
    1GR    C239  239   1.914   0.860   1.900  0.0000  0.0000  0.0000
    1GR    C240  240   2.056   0.860   1.900  0.0000  0.0000  0.0000
    1GR    C241  241   1.702   0.982   1.900  0.0000  0.0000  0.0000
    1GR    C242  242   1.843   0.982   1.900  0.0000  0.0000  0.0000
    1GR    C243  243   1.914   1.105   1.900  0.0000  0.0000  0.0000
    1GR    C244  244   2.056   1.105   1.900  0.0000  0.0000  0.0000
    1GR    C245  245   1.702   1.228   1.900  0.0000  0.0000  0.0000
    1GR    C246  246   1.843   1.228   1.900  0.0000  0.0000  0.0000
    1GR    C247  247   1.914   1.351   1.900  0.0000  0.0000  0.0000
    1GR    C248  248   2.056   1.351   1.900  0.0000  0.0000  0.0000
    1GR    C249  249   1.702   1.474   1.900  0.0000  0.0000  0.0000
    1GR    C250  250   1.843   1.474   1.900  0.0000  0.0000  0.0000
    1GR    C251  251   1.914   1.596   1.900  0.0000  0.0000  0.0000
    1GR    C252  252   2.056   1.596   1.900  0.0000  0.0000  0.0000
    1GR    C253  253   1.702   1.719   1.900  0.0000  0.0000  0.0000
    1GR    C254  254   1.843   1.719   1.900  0.0000  0.0000  0.0000
    1GR    C255  255   1.914   1.842   1.900  0.0000  0.0000  0.0000
    1GR    C256  256   2.056   1.842   1.900  0.0000  0.0000  0.0000
    1GR    C257  257   1.702   1.965   1.900  0.0000  0.0000  0.0000
    1GR    C258  258   1.843   1.965   1.900  0.0000  0.0000  0.0000
    1GR    C259  259   1.914   2.088   1.900  0.0000  0.0000  0.0000
    1GR    C260  260   2.056   2.088   1.900  0.0000  0.0000  0.0000
    1GR    C261  261   1.702   2.210   1.900  0.0000  0.0000  0.0000
    1GR    C262  262   1.843   2.210   1.900  0.0000  0.0000  0.0000
    1GR    C263  263   1.914   2.333   1.900  0.0000  0.0000  0.0000
    1GR    C264  264   2.056   2.333   1.900  0.0000  0.0000  0.0000
    1GR    C265  265   1.702   2.456   1.900  0.0000  0.0000  0.0000
    1GR    C266  266   1.843   2.456   1.900  0.0000  0.0000  0.0000
    1GR    C267  267   1.914   2.579   1.900  0.0000  0.0000  0.0000
    1GR    C268  268   2.056   2.579   1.900  0.0000  0.0000  0.0000
    1GR    C269  269   1.702   2.702   1.900  0.0000  0.0000  0.0000
    1GR    C270  270   1.843   2.702   1.900  0.0000  0.0000  0.0000
    1GR    C271  271   1.914   2.824   1.900  0.0000  0.0000  0.0000
    1GR    C272  272   2.056   2.824   1.900  0.0000  0.0000  0.0000
    1GR    C273  273   1.702   2.947   1.900  0.0000  0.0000  0.0000
    1GR    C274  274   1.843   2.947   1.900  0.0000  0.0000  0.0000
    1GR    C275  275   1.914   3.070   1.900  0.0000  0.0000  0.0000
    1GR    C276  276   2.056   3.070   1.900  0.0000  0.0000  0.0000
    1GR    C277  277   1.702   3.193   1.900  0.0000  0.0000  0.0000
    1GR    C278  278   1.843   3.193   1.900  0.0000  0.0000  0.0000
    1GR    C279  279   1.914   3.316   1.900  0.0000  0.0000  0.0000
    1GR    C280  280   2.056   3.316   1.900  0.0000  0.0000  0.0000
    1GR    C281  281   2.127   0.000   1.900  0.0000  0.0000  0.0000
    1GR    C282  282   2.269   0.000   1.900  0.0000  0.0000  0.0000
    1GR    C283  283   2.340   0.123   1.900  0.0000  0.0000  0.0000
    1GR    C284  284   2.481   0.123   1.900  0.0000  0.0000  0.0000
    1GR    C285  285   2.127   0.246   1.900  0.0000  0.0000  0.0000
    1GR    C286  286   2.269   0.246   1.900  0.0000  0.0000  0.0000
    1GR    C287  287   2.340   0.368   1.900  0.0000  0.0000  0.0000
    1GR    C288  288   2.481   0.368   1.900  0.0000  0.0000  0.0000
    1GR    C289  289   2.127   0.491   1.900  0.0000  0.0000  0.0000
    1GR    C290  290   2.269   0.491   1.900  0.0000  0.0000  0.0000
    1GR    C291  291   2.340   0.614   1.900  0.0000  0.0000  0.0000
    1GR    C292  292   2.481   0.614   1.900  0.0000  0.0000  0.0000
    1GR    C293  293   2.127   0.737   1.900  0.0000  0.0000  0.0000
    1GR    C294  294   2.269   0.737   1.900  0.0000  0.0000  0.0000
    1GR    C295  295   2.340   0.860   1.900  0.0000  0.0000  0.0000
    1GR    C296  296   2.481   0.860   1.900  0.0000  0.0000  0.0000
    1GR    C297  297   2.127   0.982   1.900  0.0000  0.0000  0.0000
    1GR    C298  298   2.269   0.982   1.900  0.0000  0.0000  0.0000
    1GR    C299  299   2.340   1.105   1.900  0.0000  0.0000  0.0000
    1GR    C300  300   2.481   1.105   1.900  0.0000  0.0000  0.0000
    1GR    C301  301   2.127   1.228   1.900  0.0000  0.0000  0.0000
    1GR    C302  302   2.269   1.228   1.900  0.0000  0.0000  0.0000
    1GR    C303  303   2.340   1.351   1.900  0.0000  0.0000  0.0000
    1GR    C304  304   2.481   1.351   1.900  0.0000  0.0000  0.0000
    1GR    C305  305   2.127   1.474   1.900  0.0000  0.0000  0.0000
    1GR    C306  306   2.269   1.474   1.900  0.0000  0.0000  0.0000
    1GR    C307  307   2.340   1.596   1.900  0.0000  0.0000  0.0000
    1GR    C308  308   2.481   1.596   1.900  0.0000  0.0000  0.0000
    1GR    C309  309   2.127   1.719   1.900  0.0000  0.0000  0.0000
    1GR    C310  310   2.269   1.719   1.900  0.0000  0.0000  0.0000
    1GR    C311  311   2.340   1.842   1.900  0.0000  0.0000  0.0000
    1GR    C312  312   2.481   1.842   1.900  0.0000  0.0000  0.0000
    1GR    C313  313   2.127   1.965   1.900  0.0000  0.0000  0.0000
    1GR    C314  314   2.269   1.965   1.900  0.0000  0.0000  0.0000
    1GR    C315  315   2.340   2.088   1.900  0.0000  0.0000  0.0000
    1GR    C316  316   2.481   2.088   1.900  0.0000  0.0000  0.0000
    1GR    C317  317   2.127   2.210   1.900  0.0000  0.0000  0.0000
    1GR    C318  318   2.269   2.210   1.900  0.0000  0.0000  0.0000
    1GR    C319  319   2.340   2.333   1.900  0.0000  0.0000  0.0000
    1GR    C320  320   2.481   2.333   1.900  0.0000  0.0000  0.0000
    1GR    C321  321   2.127   2.456   1.900  0.0000  0.0000  0.0000
    1GR    C322  322   2.269   2.456   1.900  0.0000  0.0000  0.0000
    1GR    C323  323   2.340   2.579   1.900  0.0000  0.0000  0.0000
    1GR    C324  324   2.481   2.579   1.900  0.0000  0.0000  0.0000
    1GR    C325  325   2.127   2.702   1.900  0.0000  0.0000  0.0000
    1GR    C326  326   2.269   2.702   1.900  0.0000  0.0000  0.0000
    1GR    C327  327   2.340   2.824   1.900  0.0000  0.0000  0.0000
    1GR    C328  328   2.481   2.824   1.900  0.0000  0.0000  0.0000
    1GR    C329  329   2.127   2.947   1.900  0.0000  0.0000  0.0000
    1GR    C330  330   2.269   2.947   1.900  0.0000  0.0000  0.0000
    1GR    C331  331   2.340   3.070   1.900  0.0000  0.0000  0.0000
    1GR    C332  332   2.481   3.070   1.900  0.0000  0.0000  0.0000
    1GR    C333  333   2.127   3.193   1.900  0.0000  0.0000  0.0000
    1GR    C334  334   2.269   3.193   1.900  0.0000  0.0000  0.0000
    1GR    C335  335   2.340   3.316   1.900  0.0000  0.0000  0.0000
    1GR    C336  336   2.481   3.316   1.900  0.0000  0.0000  0.0000
    1GR    C337  337   2.552   0.000   1.900  0.0000  0.0000  0.0000
    1GR    C338  338   2.694   0.000   1.900  0.0000  0.0000  0.0000
    1GR    C339  339   2.765   0.123   1.900  0.0000  0.0000  0.0000
    1GR    C340  340   2.907   0.123   1.900  0.0000  0.0000  0.0000
    1GR    C341  341   2.552   0.246   1.900  0.0000  0.0000  0.0000
    1GR    C342  342   2.694   0.246   1.900  0.0000  0.0000  0.0000
    1GR    C343  343   2.765   0.368   1.900  0.0000  0.0000  0.0000
    1GR    C344  344   2.907   0.368   1.900  0.0000  0.0000  0.0000
    1GR    C345  345   2.552   0.491   1.900  0.0000  0.0000  0.0000
    1GR    C346  346   2.694   0.491   1.900  0.0000  0.0000  0.0000
    1GR    C347  347   2.765   0.614   1.900  0.0000  0.0000  0.0000
    1GR    C348  348   2.907   0.614   1.900  0.0000  0.0000  0.0000
    1GR    C349  349   2.552   0.737   1.900  0.0000  0.0000  0.0000
    1GR    C350  350   2.694   0.737   1.900  0.0000  0.0000  0.0000
    1GR    C351  351   2.765   0.860   1.900  0.0000  0.0000  0.0000
    1GR    C352  352   2.907   0.860   1.900  0.0000  0.0000  0.0000
    1GR    C353  353   2.552   0.982   1.900  0.0000  0.0000  0.0000
    1GR    C354  354   2.694   0.982   1.900  0.0000  0.0000  0.0000
    1GR    C355  355   2.765   1.105   1.900  0.0000  0.0000  0.0000
    1GR    C356  356   2.907   1.105   1.900  0.0000  0.0000  0.0000
    1GR    C357  357   2.552   1.228   1.900  0.0000  0.0000  0.0000
    1GR    C358  358   2.694   1.228   1.900  0.0000  0.0000  0.0000
    1GR    C359  359   2.765   1.351   1.900  0.0000  0.0000  0.0000
    1GR    C360  360   2.907   1.351   1.900  0.0000  0.0000  0.0000
    1GR    C361  361   2.552   1.474   1.900  0.0000  0.0000  0.0000
    1GR    C362  362   2.694   1.474   1.900  0.0000  0.0000  0.0000
    1GR    C363  363   2.765   1.596   1.900  0.0000  0.0000  0.0000
    1GR    C364  364   2.907   1.596   1.900  0.0000  0.0000  0.0000
    1GR    C365  365   2.552   1.719   1.900  0.0000  0.0000  0.0000
    1GR    C366  366   2.694   1.719   1.900  0.0000  0.0000  0.0000
    1GR    C367  367   2.765   1.842   1.900  0.0000  0.0000  0.0000
    1GR    C368  368   2.907   1.842   1.900  0.0000  0.0000  0.0000
    1GR    C369  369   2.552   1.965   1.900  0.0000  0.0000  0.0000
    1GR    C370  370   2.694   1.965   1.900  0.0000  0.0000  0.0000
    1GR    C371  371   2.765   2.088   1.900  0.0000  0.0000  0.0000
    1GR    C372  372   2.907   2.088   1.900  0.0000  0.0000  0.0000
    1GR    C373  373   2.552   2.210   1.900  0.0000  0.0000  0.0000
    1GR    C374  374   2.694   2.210   1.900  0.0000  0.0000  0.0000
    1GR    C375  375   2.765   2.333   1.900  0.0000  0.0000  0.0000
    1GR    C376  376   2.907   2.333   1.900  0.0000  0.0000  0.0000
    1GR    C377  377   2.552   2.456   1.900  0.0000  0.0000  0.0000
    1GR    C378  378   2.694   2.456   1.900  0.0000  0.0000  0.0000
    1GR    C379  379   2.765   2.579   1.900  0.0000  0.0000  0.0000
    1GR    C380  380   2.907   2.579   1.900  0.0000  0.0000  0.0000
    1GR    C381  381   2.552   2.702   1.900  0.0000  0.0000  0.0000
    1GR    C382  382   2.694   2.702   1.900  0.0000  0.0000  0.0000
    1GR    C383  383   2.765   2.824   1.900  0.0000  0.0000  0.0000
    1GR    C384  384   2.907   2.824   1.900  0.0000  0.0000  0.0000
    1GR    C385  385   2.552   2.947   1.900  0.0000  0.0000  0.0000
    1GR    C386  386   2.694   2.947   1.900  0.0000  0.0000  0.0000
    1GR    C387  387   2.765   3.070   1.900  0.0000  0.0000  0.0000
    1GR    C388  388   2.907   3.070   1.900  0.0000  0.0000  0.0000
    1GR    C389  389   2.552   3.193   1.900  0.0000  0.0000  0.0000
    1GR    C390  390   2.694   3.193   1.900  0.0000  0.0000  0.0000
    1GR    C391  391   2.765   3.316   1.900  0.0000  0.0000  0.0000
    1GR    C392  392   2.907   3.316   1.900  0.0000  0.0000  0.0000
    1GR    C393  393   2.978   0.000   1.900  0.0000  0.0000  0.0000
    1GR    C394  394   3.120   0.000   1.900  0.0000  0.0000  0.0000
    1GR    C395  395   3.191   0.123   1.900  0.0000  0.0000  0.0000
    1GR    C396  396   3.332   0.123   1.900  0.0000  0.0000  0.0000
    1GR    C397  397   2.978   0.246   1.900  0.0000  0.0000  0.0000
    1GR    C398  398   3.120   0.246   1.900  0.0000  0.0000  0.0000
    1GR    C399  399   3.191   0.368   1.900  0.0000  0.0000  0.0000
    1GR    C400  400   3.332   0.368   1.900  0.0000  0.0000  0.0000
    1GR    C401  401   2.978   0.491   1.900  0.0000  0.0000  0.0000
    1GR    C402  402   3.120   0.491   1.900  0.0000  0.0000  0.0000
    1GR    C403  403   3.191   0.614   1.900  0.0000  0.0000  0.0000
    1GR    C404  404   3.332   0.614   1.900  0.0000  0.0000  0.0000
    1GR    C405  405   2.978   0.737   1.900  0.0000  0.0000  0.0000
    1GR    C406  406   3.120   0.737   1.900  0.0000  0.0000  0.0000
    1GR    C407  407   3.191   0.860   1.900  0.0000  0.0000  0.0000
    1GR    C408  408   3.332   0.860   1.900  0.0000  0.0000  0.0000
    1GR    C409  409   2.978   0.982   1.900  0.0000  0.0000  0.0000
    1GR    C410  410   3.120   0.982   1.900  0.0000  0.0000  0.0000
    1GR    C411  411   3.191   1.105   1.900  0.0000  0.0000  0.0000
    1GR    C412  412   3.332   1.105   1.900  0.0000  0.0000  0.0000
    1GR    C413  413   2.978   1.228   1.900  0.0000  0.0000  0.0000
    1GR    C414  414   3.120   1.228   1.900  0.0000  0.0000  0.0000
    1GR    C415  415   3.191   1.351   1.900  0.0000  0.0000  0.0000
    1GR    C416  416   3.332   1.351   1.900  0.0000  0.0000  0.0000
    1GR    C417  417   2.978   1.474   1.900  0.0000  0.0000  0.0000
    1GR    C418  418   3.120   1.474   1.900  0.0000  0.0000  0.0000
    1GR    C419  419   3.191   1.596   1.900  0.0000  0.0000  0.0000
    1GR    C420  420   3.332   1.596   1.900  0.0000  0.0000  0.0000
    1GR    C421  421   2.978   1.719   1.900  0.0000  0.0000  0.0000
    1GR    C422  422   3.120   1.719   1.900  0.0000  0.0000  0.0000
    1GR    C423  423   3.191   1.842   1.900  0.0000  0.0000  0.0000
    1GR    C424  424   3.332   1.842   1.900  0.0000  0.0000  0.0000
    1GR    C425  425   2.978   1.965   1.900  0.0000  0.0000  0.0000
    1GR    C426  426   3.120   1.965   1.900  0.0000  0.0000  0.0000
    1GR    C427  427   3.191   2.088   1.900  0.0000  0.0000  0.0000
    1GR    C428  428   3.332   2.088   1.900  0.0000  0.0000  0.0000
    1GR    C429  429   2.978   2.210   1.900  0.0000  0.0000  0.0000
    1GR    C430  430   3.120   2.210   1.900  0.0000  0.0000  0.0000
    1GR    C431  431   3.191   2.333   1.900  0.0000  0.0000  0.0000
    1GR    C432  432   3.332   2.333   1.900  0.0000  0.0000  0.0000
    1GR    C433  433   2.978   2.456   1.900  0.0000  0.0000  0.0000
    1GR    C434  434   3.120   2.456   1.900  0.0000  0.0000  0.0000
    1GR    C435  435   3.191   2.579   1.900  0.0000  0.0000  0.0000
    1GR    C436  436   3.332   2.579   1.900  0.0000  0.0000  0.0000
    1GR    C437  437   2.978   2.702   1.900  0.0000  0.0000  0.0000
    1GR    C438  438   3.120   2.702   1.900  0.0000  0.0000  0.0000
    1GR    C439  439   3.191   2.824   1.900  0.0000  0.0000  0.0000
    1GR    C440  440   3.332   2.824   1.900  0.0000  0.0000  0.0000
    1GR    C441  441   2.978   2.947   1.900  0.0000  0.0000  0.0000
    1GR    C442  442   3.120   2.947   1.900  0.0000  0.0000  0.0000
    1GR    C443  443   3.191   3.070   1.900  0.0000  0.0000  0.0000
    1GR    C444  444   3.332   3.070   1.900  0.0000  0.0000  0.0000
    1GR    C445  445   2.978   3.193   1.900  0.0000  0.0000  0.0000
    1GR    C446  446   3.120   3.193   1.900  0.0000  0.0000  0.0000
    1GR    C447  447   3.191   3.316   1.900  0.0000  0.0000  0.0000
    1GR    C448  448   3.332   3.316   1.900  0.0000  0.0000  0.0000
    2PMMA   CX1  449   2.433   3.266   2.454  0.6720  0.3134 -0.3355
    2PMMA   CA2  450   2.313   3.339   2.399  0.1557 -0.5054  0.5033
    2PMMA   CX3  451   2.340   3.390   2.253 -1.3490 -0.1037  0.1050
    2PMMA    C4  452   2.187   3.245   2.396  0.1666 -0.1977 -0.2284
    2PMMA    O5  453   2.114   3.242   2.490  0.5005 -0.0778  0.2737
    2PMMA   OS6  454   2.160   3.189   2.279 -0.4558 -0.4078 -0.5093
    2PMMA   CE7  455   2.031   3.124   2.255  0.0095  0.2825 -0.1052
    2PMMA   CX8  456   2.278   3.467   2.488  0.5890  0.7971 -0.2158
    2PMMA   CA9  457   2.164   3.577   2.455 -0.2069  0.3341  0.2189
    2PMMA  CX10  458   2.030   3.520   2.419  0.1101 -0.4184  0.2875
    2PMMA   C11  459   2.225   3.651   2.328  0.3389 -0.2128 -0.6706
    2PMMA   O12  460   2.179   3.642   2.215  0.0310  0.1997 -0.1597
    2PMMA  OS13  461   2.320   3.734   2.356  0.4010 -0.1207 -0.0040
    2PMMA  CE14  462   2.375   3.827   2.267  0.4281 -0.3711 -0.1321
    2PMMA  CX15  463   2.161   3.673   2.585 -1.3435 -0.1747  0.4171
    2PMMA  CA16  464   2.057   3.797   2.603  0.8466  0.2607 -0.5157
    2PMMA  CX17  465   2.031   3.871   2.479 -0.1509 -0.3653 -0.2613
    2PMMA   C18  466   1.926   3.745   2.656  0.4478 -0.0943 -0.2635
    2PMMA   O19  467   1.825   3.746   2.594 -0.1142  0.0596 -0.0226
    2PMMA  OS20  468   1.936   3.662   2.760 -0.1288  0.5471 -0.1923
    2PMMA  CE21  469   1.820   3.587   2.809  0.7646  0.2867  0.0834
    2PMMA  CX22  470   2.126   3.881   2.717 -0.0586 -0.2771 -0.5425
    2PMMA  CA23  471   2.066   4.020   2.757  0.4123  0.8070  0.2268
    2PMMA  CX24  472   1.910   4.025   2.778 -0.4118 -0.1342 -0.7240
    2PMMA   C25  473   2.110   4.129   2.656  0.5809 -0.1056 -0.2563
    2PMMA   O26  474   2.041   4.172   2.564 -0.2466  0.4671 -0.0984
    2PMMA  OS27  475   2.222   4.201   2.696  0.2451  0.7191 -0.2699
    2PMMA  CE28  476   2.266   4.322   2.629  0.0554 -0.0439 -0.0072
    2PMMA  CX29  477   2.120   4.049   2.899 -0.5299 -0.0645  0.0770
    2PMMA  HC30  478   2.527   3.318   2.437 -0.1023  1.4838 -1.0786
    2PMMA  HC31  479   2.424   3.247   2.561 -2.2431  1.6241 -0.3062
    2PMMA  HC32  480   2.447   3.169   2.404  0.1995  1.1979 -2.2362
    2PMMA  HC33  481   2.401   3.316   2.199  1.0661  0.7461  1.6095
    2PMMA  HC34  482   2.399   3.482   2.243 -1.3110 -0.0616  0.7241
    2PMMA  HC35  483   2.248   3.401   2.194 -0.3802  0.7780 -1.2754
    2PMMA  H136  484   1.994   3.065   2.339 -0.3240  1.5422  0.6485
    2PMMA  H137  485   2.034   3.050   2.175 -2.4319  1.8144 -1.6586
    2PMMA  H138  486   1.957   3.200   2.229 -1.6383 -0.5355  1.9979
    2PMMA  HC39  487   2.271   3.438   2.593  2.2741 -1.0418 -0.5955
    2PMMA  HC40  488   2.370   3.523   2.505  1.8172 -0.9487 -0.9730
    2PMMA  HC41  489   2.039   3.447   2.337 -0.8373 -1.6474  1.2449
    2PMMA  HC42  490   1.985   3.475   2.508  1.5570 -0.9834  0.7426
    2PMMA  HC43  491   1.966   3.600   2.382 -0.3626 -0.2738  1.4025
    2PMMA  H144  492   2.449   3.780   2.202 -0.6716 -2.3542  0.0077
    2PMMA  H145  493   2.432   3.898   2.327 -0.5620  0.4205 -0.1108
    2PMMA  H146  494   2.304   3.885   2.207 -1.6008 -1.5862  1.0500
    2PMMA  HC47  495   2.156   3.603   2.669 -0.1713 -0.5944  0.1425
    2PMMA  HC48  496   2.264   3.710   2.587 -1.2499 -0.4232  0.1366
    2PMMA  HC49  497   2.102   3.948   2.447 -2.0023  1.8355  0.8292
    2PMMA  HC50  498   1.935   3.923   2.479  0.0442  0.0248 -1.6168
    2PMMA  HC51  499   2.019   3.805   2.392  1.1386 -0.7749 -0.1384
    2PMMA  H152  500   1.813   3.493   2.753 -0.4007  1.2879 -1.5045
    2PMMA  H153  501   1.728   3.645   2.802 -0.0537 -0.7577  1.8195
    2PMMA  H154  502   1.837   3.558   2.913 -3.1070  1.1903  1.0512
    2PMMA  HC55  503   2.132   3.827   2.812 -1.4044  0.6066  0.0569
    2PMMA  HC56  504   2.232   3.904   2.700  0.0020 -1.3697 -1.6949
    2PMMA  HC57  505   1.888   4.126   2.813  4.1476  0.7208  0.0745
    2PMMA  HC58  506   1.854   4.003   2.687  1.6163 -2.6098 -1.4419
    2PMMA  HC59  507   1.871   3.955   2.852 -0.7925  1.1805  0.3465
    2PMMA  H160  508   2.373   4.333   2.646  0.1738  1.9032 -1.8048
    2PMMA  H161  509   2.209   4.407   2.668  0.4478 -0.8651  2.3931
    2PMMA  H162  510   2.247   4.323   2.521  2.2370 -0.6028 -0.4114
    2PMMA  HC63  511   2.087   3.971   2.968  0.2770 -1.8597 -1.5008
    2PMMA  HC64  512   2.229   4.055   2.905 -0.6627  3.3853 -0.1055
    2PMMA  HC65  513   2.088   4.143   2.944 -0.0014  0.9569 -1.6003
    3DMF     C1  514   1.971   2.131   0.126 -0.1516  0.4984  0.0310
    3DMF     N1  515   2.100   2.082   0.165 -0.3443  0.2902 -0.4286
    3DMF     C2  516   2.207   2.172   0.217  0.5091 -0.2453  0.4072
    3DMF     C3  517   2.130   1.942   0.149 -0.4386  0.1594  0.3984
    3DMF     O1  518   2.053   1.855   0.118 -0.4014  0.0475  0.2225
    3DMF     H1  519   1.916   2.171   0.211 -0.5692 -3.7781  1.8966
    3DMF     H2  520   1.906   2.054   0.082  0.9023  0.0200 -0.7287
    3DMF     H3  521   1.987   2.215   0.058 -0.9939  0.1232 -0.6440
    3DMF     H4  522   2.265   2.226   0.141 -1.5446  2.4364  0.6895
    3DMF     H5  523   2.278   2.122   0.284 -2.1391 -3.1016  1.2011
    3DMF     H6  524   2.152   2.245   0.277  3.0742  2.7766 -0.7848
    3DMF     H7  525   2.234   1.917   0.181 -1.0646  0.1468  2.5174
    4DMF     C1  526   1.143   1.939   2.304 -0.3353 -0.0697 -0.2331
    4DMF     N1  527   1.281   1.998   2.320 -0.1709  0.1947  0.7551
    4DMF     C2  528   1.387   1.944   2.238  0.0331  0.2260 -1.0006
    4DMF     C3  529   1.310   2.096   2.411 -0.1550 -0.5186 -0.1223
    4DMF     O1  530   1.216   2.150   2.477 -0.1155 -0.0475  0.7704
    4DMF     H1  531   1.154   1.860   2.229  0.1547 -2.4380  2.2373
    4DMF     H2  532   1.072   2.017   2.274  0.7657  1.4468  1.0183
    4DMF     H3  533   1.111   1.895   2.400 -0.8946  1.1029  0.1244
    4DMF     H4  534   1.444   2.030   2.201 -0.0278  0.5920 -0.2587
    4DMF     H5  535   1.336   1.883   2.162 -3.5626  1.0714  0.6375
    4DMF     H6  536   1.455   1.888   2.304 -1.8115 -1.8123 -0.7508
    4DMF     H7  537   1.413   2.133   2.427 -0.2346 -0.1814 -0.3764
    5DMF     C1  538   0.012   2.707   3.097  0.3849 -0.2556 -0.0307
    5DMF     N1  539  -0.000   2.655   3.237 -0.7030  0.2827  0.4548
    5DMF     C2  540   0.083   2.712   3.346 -0.2125 -0.3772  0.1355
    5DMF     C3  541  -0.098   2.562   3.271 -0.4240  0.2474 -0.2971
    5DMF     O1  542  -0.182   2.517   3.191  0.2183 -0.3518 -0.0143
    5DMF     H1  543   0.002   2.817   3.097 -1.1920 -0.3782  0.8050
    5DMF     H2  544  -0.062   2.663   3.029 -1.5581 -0.4475  2.1416
    5DMF     H3  545   0.111   2.691   3.053 -0.3418  1.0937 -2.2486
    5DMF     H4  546   0.188   2.708   3.312 -0.2829 -1.4320  0.0084
    5DMF     H5  547   0.069   2.652   3.437  0.5735  1.2711  1.3809
    5DMF     H6  548   0.052   2.815   3.363 -1.0978 -0.6117 -0.0529
    5DMF     H7  549  -0.094   2.531   3.377 -1.8996  0.6457 -0.0996
    6DMF     C1  550   1.536   3.195   0.131  0.4736 -0.2407 -0.4282
    6DMF     N1  551   1.639   3.233   0.229 -0.3769 -0.0476 -0.4694
    6DMF     C2  552   1.600   3.341   0.330  0.4217  0.0324 -0.4435
    6DMF     C3  553   1.768   3.168   0.239  0.1343  0.0240 -0.1014
    6DMF     O1  554   1.796   3.071   0.171 -0.7605  0.0839  0.4376
    6DMF     H1  555   1.470   3.280   0.109  2.6379  1.7880  0.7776
    6DMF     H2  556   1.473   3.119   0.179  0.2897  1.1945  1.6667
    6DMF     H3  557   1.585   3.166   0.037 -0.5563  0.4456 -1.1894
    6DMF     H4  558   1.653   3.433   0.302 -0.4224  0.3516 -1.0222
    6DMF     H5  559   1.625   3.319   0.434 -3.9584 -3.3076  0.0245
    6DMF     H6  560   1.494   3.361   0.314  0.8372  1.5494 -1.3696
    6DMF     H7  561   1.820   3.222   0.320  0.2726  0.1608 -0.2812
    7DMF     C1  562   2.296   1.649   0.446  0.5616  0.7153 -1.0191
    7DMF     N1  563   2.401   1.577   0.367  0.0555 -0.3478  0.6903
    7DMF     C2  564   2.452   1.451   0.426 -0.4335 -0.0029 -0.0409
    7DMF     C3  565   2.448   1.620   0.235 -0.2000  0.5181  0.5431
    7DMF     O1  566   2.394   1.705   0.171  0.7454  0.5548  0.6961
    7DMF     H1  567   2.337   1.744   0.482 -2.4815  1.5693  0.3150
    7DMF     H2  568   2.278   1.585   0.533  1.8905  0.1954 -1.1093
    7DMF     H3  569   2.206   1.662   0.385 -1.0256  1.6682  1.4641
    7DMF     H4  570   2.414   1.445   0.528 -0.4168  3.5004  0.2027
    7DMF     H5  571   2.562   1.451   0.430 -0.4469 -2.0765  1.4992
    7DMF     H6  572   2.412   1.361   0.378 -0.3506 -0.3890  0.6077
    7DMF     H7  573   2.540   1.575   0.195 -0.5071  1.7126 -1.5837
    8DMF     C1  574   0.230   1.646   1.559  0.1485 -0.5090 -0.2187
    8DMF     N1  575   0.215   1.651   1.413 -0.1670  0.5631  0.1558
    8DMF     C2  576   0.294   1.756   1.342  0.2127 -0.6831 -0.6575
    8DMF     C3  577   0.125   1.565   1.346 -0.0412  0.0385  0.4390
    8DMF     O1  578   0.065   1.472   1.409 -0.2196  0.4249 -0.0259
    8DMF     H1  579   0.252   1.747   1.597 -0.6087 -1.3219  2.5196
    8DMF     H2  580   0.309   1.579   1.594 -1.4962 -0.7555  3.2759
    8DMF     H3  581   0.137   1.608   1.605  0.4108  0.8371  1.5060
    8DMF     H4  582   0.237   1.844   1.312 -1.6772 -2.1231 -1.4264
    8DMF     H5  583   0.338   1.715   1.250  1.0071  1.0513 -1.0630
    8DMF     H6  584   0.375   1.777   1.413 -0.7085  0.3407  0.0951
    8DMF     H7  585   0.104   1.593   1.242 -0.3300 -1.3008  0.1367
    9DMF     C1  586   1.534   2.249   1.573  0.4126  0.2921  0.3583
    9DMF     N1  587   1.439   2.138   1.564  0.6011 -0.3958 -0.4370
    9DMF     C2  588   1.292   2.171   1.542 -0.5435 -0.2279 -0.0558
    9DMF     C3  589   1.483   2.004   1.567 -0.4297  0.0020  0.5491
    9DMF     O1  590   1.599   1.964   1.559 -0.1926  0.0749  0.0991
    9DMF     H1  591   1.535   2.305   1.479  0.2446 -1.0996 -0.4879
    9DMF     H2  592   1.637   2.215   1.588  0.7454  0.7322 -0.9415
    9DMF     H3  593   1.500   2.327   1.642  0.1872  0.1662  0.3903
    9DMF     H4  594   1.227   2.129   1.620 -0.0018 -0.7666  0.1060
    9DMF     H5  595   1.262   2.137   1.441  1.9036 -3.7628  0.3214
    9DMF     H6  596   1.282   2.280   1.539 -1.3052 -0.3039 -0.4439
    9DMF     H7  597   1.394   1.938   1.567  0.1193 -0.7501 -0.4072
   10DMF     C1  598   1.749   0.472   0.351 -0.2588 -0.6331  0.1049
   10DMF     N1  599   1.743   0.578   0.246 -0.3613 -0.6701 -0.6578
   10DMF     C2  600   1.708   0.541   0.104  0.2189 -0.2073 -0.1096
   10DMF     C3  601   1.767   0.716   0.283 -0.6160 -0.1287 -0.5653
   10DMF     O1  602   1.837   0.753   0.376 -0.0006  0.4141 -0.2288
   10DMF     H1  603   1.683   0.509   0.430  0.4253 -0.7701  0.7447
   10DMF     H2  604   1.843   0.466   0.408 -0.2939  0.0695  0.2501
   10DMF     H3  605   1.710   0.374   0.322  0.1544 -0.6728 -0.3306
   10DMF     H4  606   1.728   0.434   0.091 -0.6210 -0.4695  0.7356
   10DMF     H5  607   1.780   0.595   0.040 -0.1858 -0.1270 -0.4964
   10DMF     H6  608   1.605   0.571   0.082  0.0376  1.0229  2.2297
   10DMF     H7  609   1.727   0.785   0.207 -0.1947 -1.3658 -1.9591
   11DMF     C1  610   2.483   1.029   1.275 -0.2013 -0.1119 -0.5279
   11DMF     N1  611   2.572   1.022   1.396  0.2548 -0.0044 -0.2610
   11DMF     C2  612   2.508   0.992   1.525 -0.4846  0.3434  0.8638
   11DMF     C3  613   2.710   1.045   1.388  0.3755  0.0024 -0.3108
   11DMF     O1  614   2.767   1.067   1.284 -0.0360 -0.3368 -0.0870
   11DMF     H1  615   2.461   1.134   1.256 -0.5345 -0.2522 -0.9367
   11DMF     H2  616   2.390   0.975   1.296 -2.5403  3.9780 -0.0100
   11DMF     H3  617   2.531   0.974   1.193 -0.3663  0.6783 -1.1600
   11DMF     H4  618   2.579   0.967   1.605 -1.6036 -2.0054  1.1723
   11DMF     H5  619   2.455   0.896   1.515  2.1381 -1.2023  1.4609
   11DMF     H6  620   2.443   1.069   1.569  0.5133  0.8399  1.4755
   11DMF     H7  621   2.755   1.038   1.489  0.2012 -0.9677 -0.2909
   12DMF     C1  622   2.238   0.233   3.108  0.2160 -0.4829  1.5329
   12DMF     N1  623   2.338   0.145   3.046 -0.4771  0.2253  0.6084
   12DMF     C2  624   2.351   0.013   3.101  0.1978  0.5325  0.4807
   12DMF     C3  625   2.430   0.193   2.958  0.0958 -0.0264  0.6738
   12DMF     O1  626   2.433   0.305   2.911 -0.2837 -0.4948  0.1955
   12DMF     H1  627   2.179   0.286   3.032  0.1506 -0.2764  1.7292
   12DMF     H2  628   2.292   0.307   3.167  3.7548 -0.5235 -1.5014
   12DMF     H3  629   2.168   0.173   3.167  0.3813 -0.5887  1.6215
   12DMF     H4  630   2.433  -0.007   3.171  0.9542 -0.9109 -0.7999
   12DMF     H5  631   2.359  -0.050   3.012  0.9835 -0.0506  0.9618
   12DMF     H6  632   2.258  -0.023   3.145 -0.5484  1.5732 -0.2153
   12DMF     H7  633   2.497   0.114   2.918 -1.9319 -0.2329 -2.4673
   13DMF     C1  634   3.083   0.569   2.601  0.3967  1.1322  0.3437
   13DMF     N1  635   3.077   0.457   2.697 -0.7787 -0.3275 -0.2050
   13DMF     C2  636   3.061   0.491   2.846 -0.4408 -0.3246 -0.3554
   13DMF     C3  637   3.089   0.322   2.658  0.4847 -0.2429  0.0680
   13DMF     O1  638   3.082   0.291   2.541  0.2692 -0.0059 -0.0131
   13DMF     H1  639   3.180   0.579   2.549  0.7757  1.4580  1.1176
   13DMF     H2  640   3.055   0.662   2.652 -2.2283 -0.1621  1.3661
   13DMF     H3  641   3.017   0.543   2.517  0.5700  1.0082  0.2434
   13DMF     H4  642   3.065   0.598   2.868 -0.6793 -0.6530  1.3615
   13DMF     H5  643   3.153   0.452   2.893 -0.3743 -1.1664 -1.1565
   13DMF     H6  644   2.977   0.438   2.892  1.0337 -0.2358  2.5118
   13DMF     H7  645   3.096   0.252   2.743  3.7537 -0.2750 -0.1897
   14DMF     C1  646   2.890   0.831   0.977 -0.7410 -0.2609  0.0929
   14DMF     N1  647   2.877   0.714   1.075  0.3531  0.2948  0.1435
   14DMF     C2  648   2.774   0.734   1.173 -0.5784  0.2650 -0.2457
   14DMF     C3  649   2.967   0.607   1.087  0.0506 -0.9019  0.5999
   14DMF     O1  650   3.068   0.597   1.017 -0.3732 -0.2964  0.0103
   14DMF     H1  651   2.793   0.881   0.965 -0.2252  0.5717 -0.6676
   14DMF     H2  652   2.926   0.788   0.883  3.1545  1.1611  0.8116
   14DMF     H3  653   2.970   0.893   1.021 -1.9963  1.2836  0.2715
   14DMF     H4  654   2.757   0.635   1.218  0.2616 -1.1201 -2.8955
   14DMF     H5  655   2.685   0.789   1.142 -0.2256  1.0265  0.0746
   14DMF     H6  656   2.817   0.808   1.243 -0.1161  1.2790 -1.5815
   14DMF     H7  657   2.946   0.526   1.160 -0.8556 -0.5162  0.7704
   15DMF     C1  658   2.590   0.405   3.257 -0.6308  0.1630  0.1803
   15DMF     N1  659   2.724   0.346   3.228 -0.0408 -0.0060 -0.6479
   15DMF     C2  660   2.829   0.438   3.195 -0.0865 -0.2529 -0.6546
   15DMF     C3  661   2.742   0.202   3.215  0.1399 -1.0466 -0.0733
   15DMF     O1  662   2.649   0.127   3.224 -0.0864 -0.0213  0.3248
   15DMF     H1  663   2.524   0.329   3.300  1.0205 -0.5440  1.5203
   15DMF     H2  664   2.550   0.453   3.167 -0.6068  0.9419  0.5812
   15DMF     H3  665   2.606   0.478   3.337 -0.8090  0.9853 -0.5164
   15DMF     H4  666   2.891   0.445   3.285 -3.8222 -1.4818  2.1445
   15DMF     H5  667   2.779   0.529   3.160  0.3194  0.2069 -0.0505
   15DMF     H6  668   2.883   0.391   3.113  0.9451 -3.1934  1.6392
   15DMF     H7  669   2.847   0.176   3.191 -0.1789 -2.9625  0.5442
   16DMF     C1  670   0.874   0.489   1.502  0.1719 -0.0606 -0.2324
   16DMF     N1  671   0.987   0.404   1.537 -0.8138 -0.4813 -0.2867
   16DMF     C2  672   0.973   0.251   1.536 -0.9221  0.3670 -0.3916
   16DMF     C3  673   1.110   0.455   1.575  1.0614  0.3110 -0.0610
   16DMF     O1  674   1.131   0.573   1.583  0.2062 -0.2772  0.2465
   16DMF     H1  675   0.853   0.565   1.578 -0.8506 -0.6169  0.0467
   16DMF     H2  676   0.783   0.429   1.488  1.4348 -2.1269  0.2380
   16DMF     H3  677   0.887   0.535   1.403  1.3813 -0.3946 -0.2344
   16DMF     H4  678   0.924   0.219   1.629  1.5557  2.3924  1.6672
   16DMF     H5  679   1.072   0.205   1.524 -0.7147  0.4101  1.0273
   16DMF     H6  680   0.904   0.217   1.457  1.8096 -2.6013 -1.5929
   16DMF     H7  681   1.187   0.381   1.602  0.5949  0.2419  1.0998
   17DMF     C1  682   3.402   2.297   1.506 -0.1751  0.0987  0.1410
   17DMF     N1  683   3.263   2.353   1.488 -0.6618 -0.0130  0.4365
   17DMF     C2  684   3.136   2.278   1.525  0.2852  0.1474  0.4736
   17DMF     C3  685   3.245   2.482   1.432  0.7871 -0.2416 -1.2621
   17DMF     O1  686   3.335   2.552   1.390 -0.3505  0.4929 -0.0513
   17DMF     H1  687   3.460   2.318   1.416  0.3617  1.3995  0.7888
   17DMF     H2  688   3.406   2.187   1.511  1.5459 -0.1207 -4.2780
   17DMF     H3  689   3.447   2.343   1.595  1.6465  0.6176 -1.0390
   17DMF     H4  690   3.059   2.334   1.580 -1.8765 -0.4019 -1.9203
   17DMF     H5  691   3.149   2.192   1.592  2.3209 -0.0527 -0.1499
   17DMF     H6  692   3.082   2.236   1.440  1.0885 -1.0744  0.5555
   17DMF     H7  693   3.140   2.513   1.446  0.7564  0.0554 -2.1018
   18DMF     C1  694   0.763   0.433   1.165 -0.6124  0.0660  0.0753
   18DMF     N1  695   0.719   0.543   1.085  0.2032 -0.0340  0.6022
   18DMF     C2  696   0.612   0.520   0.985 -0.3464  0.4445  0.7462
   18DMF     C3  697   0.762   0.673   1.118 -0.1789 -0.2991  0.7613
   18DMF     O1  698   0.853   0.690   1.197 -0.2930  0.4590  0.3797
   18DMF     H1  699   0.699   0.345   1.151 -1.3510  0.1792  2.4422
   18DMF     H2  700   0.753   0.461   1.271  1.6750  1.5015 -0.0549
   18DMF     H3  701   0.867   0.411   1.140 -0.5934 -1.0647  1.0469
   18DMF     H4  702   0.593   0.609   0.923 -0.2724 -0.9406 -1.2828
   18DMF     H5  703   0.518   0.488   1.032  0.2402 -3.3893 -0.5841
   18DMF     H6  704   0.637   0.439   0.917  4.2805  2.3523  0.0190
   18DMF     H7  705   0.724   0.755   1.054  4.1779 -0.6172 -2.5061
   19DMF     C1  706   2.672   1.270   0.145  0.3545 -0.5144 -0.9736
   19DMF     N1  707   2.600   1.227   0.026 -0.4795 -0.1459 -0.1378
   19DMF     C2  708   2.603   1.084   0.003  0.7604 -0.5814 -0.2115
   19DMF     C3  709   2.569   1.325  -0.065  0.3463  0.2156 -0.2744
   19DMF     O1  710   2.564   1.445  -0.040  0.1920  0.4723  0.4413
   19DMF     H1  711   2.597   1.317   0.210  2.8925 -0.4300  2.0064
   19DMF     H2  712   2.741   1.345   0.105 -0.8003  0.2582 -1.5519
   19DMF     H3  713   2.727   1.187   0.190  1.5494  0.6921 -0.1581
   19DMF     H4  714   2.618   1.060  -0.104  0.9715 -0.6028 -0.1767
   19DMF     H5  715   2.513   1.045   0.051  0.4827  1.3984  0.9286
   19DMF     H6  716   2.692   1.053   0.059  0.8030  3.6328  2.2059
   19DMF     H7  717   2.554   1.282  -0.166  1.1174 -0.5174 -0.0767
   20DMF     C1  718   0.592   1.963   1.551 -0.3626  0.0289  0.0920
   20DMF     N1  719   0.508   2.055   1.472  0.0849 -0.6440 -0.5900
   20DMF     C2  720   0.447   2.171   1.538 -0.4127  0.1667 -0.0481
   20DMF     C3  721   0.496   2.032   1.335  0.6323 -0.5672  0.0320
   20DMF     O1  722   0.550   1.946   1.268 -0.4158 -0.6230  0.0954
   20DMF     H1  723   0.536   1.877   1.588  0.7637 -1.4809 -1.6131
   20DMF     H2  724   0.620   2.014   1.644 -1.0804  2.3215 -0.9033
   20DMF     H3  725   0.673   1.925   1.487 -0.7557  1.2480 -1.1670
   20DMF     H4  726   0.402   2.234   1.460 -1.7433 -0.1233  0.4628
   20DMF     H5  727   0.517   2.220   1.607 -0.6664 -2.2653  2.0221
   20DMF     H6  728   0.361   2.141   1.599  0.2944 -0.5367  0.6090
   20DMF     H7  729   0.423   2.104   1.293  2.2636  1.1756  0.1176
   21DMF     C1  730   2.286   1.989   0.863 -0.4386 -0.2948 -0.2834
   21DMF     N1  731   2.289   2.102   0.770  0.3065 -0.5420  0.7660
   21DMF     C2  732   2.156   2.165   0.730 -0.4229  0.0434  0.3700
   21DMF     C3  733   2.410   2.140   0.710 -0.5041 -0.0932 -0.3184
   21DMF     O1  734   2.515   2.080   0.738  0.0220 -0.5160  0.3914
   21DMF     H1  735   2.298   2.018   0.969  1.4421  2.3963 -1.1774
   21DMF     H2  736   2.357   1.905   0.854  0.8076  0.9472 -2.2067
   21DMF     H3  737   2.188   1.941   0.862 -0.0952 -0.9824 -0.9569
   21DMF     H4  738   2.088   2.091   0.686  0.0973 -0.3888  0.2933
   21DMF     H5  739   2.169   2.242   0.653 -2.2935 -0.2892 -0.3042
   21DMF     H6  740   2.106   2.196   0.823  0.1666 -0.1265  0.7450
   21DMF     H7  741   2.402   2.227   0.642  0.7997  0.3538  0.0816
   22DMF     C1  742   1.638   0.976   3.433  0.3024  0.1579  0.3127
   22DMF     N1  743   1.715   0.960   3.560  0.2985 -0.0162  0.2256
   22DMF     C2  744   1.654   1.001   3.688 -0.1357 -0.1943  0.4635
   22DMF     C3  745   1.842   0.902   3.564 -0.5058 -0.4687  0.3140
   22DMF     O1  746   1.886   0.836   3.470  0.6009 -0.3909  0.0337
   22DMF     H1  747   1.670   0.904   3.357 -1.7454  1.6910 -2.0818
   22DMF     H2  748   1.661   1.073   3.386  1.1257 -0.8911 -1.4839
   22DMF     H3  749   1.530   0.967   3.451  0.1439  2.0081  0.4434
   22DMF     H4  750   1.545   0.999   3.680  0.0063 -4.6144 -2.0480
   22DMF     H5  751   1.697   1.100   3.711  1.0287 -0.8588  1.2153
   22DMF     H6  752   1.679   0.923   3.761  0.4811 -1.0431 -0.6361
   22DMF     H7  753   1.894   0.923   3.659 -0.3513  1.2546 -0.1470
   23DMF     C1  754   3.139   0.429   0.667 -0.2259  0.2723  0.4240
   23DMF     N1  755   3.224   0.502   0.761  0.4358  0.9081  0.4399
   23DMF     C2  756   3.256   0.643   0.735  0.7024  0.6743  0.2766
   23DMF     C3  757   3.277   0.434   0.873 -1.1021 -0.7259 -0.1337
   23DMF     O1  758   3.269   0.319   0.902 -0.1948  0.2906 -0.6688
   23DMF     H1  759   3.114   0.495   0.583 -2.0741  2.1871  2.4262
   23DMF     H2  760   3.043   0.413   0.717 -0.9641  1.5003 -0.5751
   23DMF     H3  761   3.182   0.333   0.637 -1.2779 -0.7517  2.1060
   23DMF     H4  762   3.311   0.658   0.641  0.0017  2.7635  0.1743
   23DMF     H5  763   3.320   0.676   0.817 -2.4122 -0.6845  3.3982
   23DMF     H6  764   3.160   0.697   0.735  0.3342  0.0691 -1.4986
   23DMF     H7  765   3.339   0.503   0.934 -0.5703 -0.3078 -1.1186
   24DMF     C1  766   1.419   1.784   3.371 -0.2535  0.2929  0.3879
   24DMF     N1  767   1.331   1.869   3.464  0.4542  0.0531  0.2837
   24DMF     C2  768   1.389   1.976   3.548  0.0579  0.0321  0.5135
   24DMF     C3  769   1.200   1.836   3.487 -0.0168 -0.3839 -0.3127
   24DMF     O1  770   1.144   1.754   3.418  0.3064  0.5349  0.4225
   24DMF     H1  771   1.385   1.679   3.370 -2.1399  0.8807  1.0119
   24DMF     H2  772   1.526   1.793   3.389  0.3795 -0.7016 -2.6454
   24DMF     H3  773   1.392   1.828   3.275 -0.6454 -0.6797  0.0406
   24DMF     H4  774   1.494   1.952   3.569  0.0940 -0.3642 -0.1135
   24DMF     H5  775   1.327   1.995   3.636 -1.8757  0.8302 -0.9724
   24DMF     H6  776   1.391   2.072   3.494 -0.7230  0.5348  1.3723
   24DMF     H7  777   1.145   1.902   3.557  0.4410 -0.7156  0.3646
   25DMF     C1  778   3.396   1.584   2.296 -0.6897  0.3739 -0.3204
   25DMF     N1  779   3.532   1.602   2.353 -0.3775  0.4900  0.0267
   25DMF     C2  780   3.648   1.603   2.256 -0.5818 -0.3179 -0.8733
   25DMF     C3  781   3.549   1.589   2.492 -0.5034  0.0705  0.0121
   25DMF     O1  782   3.456   1.601   2.568  0.2468 -0.0035 -0.1787
   25DMF     H1  783   3.317   1.597   2.372 -0.8884 -1.6624 -0.1537
   25DMF     H2  784   3.398   1.479   2.264  2.3860  0.2732  0.0680
   25DMF     H3  785   3.381   1.658   2.217 -0.6992  1.1178  0.3673
   25DMF     H4  786   3.670   1.501   2.223 -0.3495 -0.8589  0.8932
   25DMF     H5  787   3.742   1.647   2.293 -0.8443 -0.8698  0.4885
   25DMF     H6  788   3.615   1.665   2.172 -0.0282  0.1712 -0.7416
   25DMF     H7  789   3.651   1.562   2.527 -1.5793  0.9615  4.2004
   26DMF     C1  790   2.667   3.281   1.103  0.5195  0.0827 -0.7799
   26DMF     N1  791   2.799   3.203   1.082 -0.1463 -0.3297  0.2734
   26DMF     C2  792   2.891   3.246   0.969  0.0319  0.3834  0.0509
   26DMF     C3  793   2.827   3.088   1.149  0.5055  1.2459 -0.3713
   26DMF     O1  794   2.744   3.039   1.218 -0.9681 -0.5284  0.1440
   26DMF     H1  795   2.687   3.387   1.124 -3.5345  0.9235 -0.7306
   26DMF     H2  796   2.606   3.242   1.185  1.0511 -0.5362 -0.6841
   26DMF     H3  797   2.613   3.284   1.007  1.8646 -0.0888 -1.5638
   26DMF     H4  798   2.852   3.201   0.877 -0.4804 -1.7106  1.2561
   26DMF     H5  799   2.991   3.207   0.994 -0.4773 -0.5987  0.5789
   26DMF     H6  800   2.896   3.355   0.964  0.6686  0.4127  1.0734
   26DMF     H7  801   2.935   3.065   1.140 -0.4219 -2.9124 -2.2869
   27DMF     C1  802   0.280   1.495   3.510  0.1171 -0.0269  0.2988
   27DMF     N1  803   0.152   1.448   3.564  0.6848 -0.5225  0.2004
   27DMF     C2  804   0.061   1.376   3.466 -0.0587 -0.2137  0.3095
   27DMF     C3  805   0.102   1.496   3.687  0.5137  0.3889  0.3983
   27DMF     O1  806   0.161   1.574   3.753 -0.0422 -0.2685 -0.2808
   27DMF     H1  807   0.276   1.598   3.473 -0.7536  0.5310  1.8837
   27DMF     H2  808   0.315   1.431   3.429  1.4274 -0.0078  0.8377
   27DMF     H3  809   0.359   1.499   3.586  1.0932 -0.9426 -0.6511
   27DMF     H4  810   0.120   1.326   3.388  1.6031  0.9347  0.7977
   27DMF     H5  811  -0.002   1.451   3.417 -1.1442 -2.8958 -2.6024
   27DMF     H6  812   0.003   1.296   3.513 -2.3838  0.9259 -0.5573
   27DMF     H7  813   0.004   1.454   3.716  1.0486 -1.7620 -0.7732
   28DMF     C1  814   0.965   2.245   1.546 -0.7209  0.9989  0.1256
   28DMF     N1  815   0.908   2.376   1.550  0.1112  0.5870 -0.6011
   28DMF     C2  816   0.760   2.399   1.557 -0.2162  0.1819 -0.2834
   28DMF     C3  817   0.995   2.477   1.565  0.0728 -0.9412  0.8433
   28DMF     O1  818   1.113   2.468   1.587 -0.5242  0.1411  0.2894
   28DMF     H1  819   1.040   2.246   1.466  0.2649  0.5682  1.0279
   28DMF     H2  820   0.880   2.176   1.536  0.3606 -0.7067  2.1759
   28DMF     H3  821   1.016   2.221   1.641  1.3346 -0.5346 -1.3178
   28DMF     H4  822   0.711   2.352   1.643 -1.4597  1.6472 -0.1897
   28DMF     H5  823   0.717   2.358   1.465 -0.2372  0.0672 -0.2231
   28DMF     H6  824   0.731   2.504   1.557 -0.0191  0.2372 -1.1102
   28DMF     H7  825   0.946   2.576   1.575  2.5341  0.2885  1.0110
   29DMF     C1  826   1.538   2.836   1.509  0.5999 -0.4000 -0.5630
   29DMF     N1  827   1.429   2.739   1.527  0.2214 -0.4876 -0.1645
   29DMF     C2  828   1.299   2.804   1.537  0.3430  0.1348 -0.1997
   29DMF     C3  829   1.452   2.611   1.571 -0.4819  0.0248 -0.0038
   29DMF     O1  830   1.562   2.567   1.590 -0.1665 -0.2006  0.1820
   29DMF     H1  831   1.638   2.793   1.520  1.0511  0.8377  0.2234
   29DMF     H2  832   1.514   2.907   1.589 -0.8424 -1.5268  0.0214
   29DMF     H3  833   1.529   2.882   1.409  0.4717 -0.7047 -0.6932
   29DMF     H4  834   1.302   2.895   1.599 -3.3746  0.2962 -0.1283
   29DMF     H5  835   1.222   2.736   1.574 -0.1312 -0.4472 -2.2404
   29DMF     H6  836   1.273   2.825   1.433  1.5661  3.5730  0.0954
   29DMF     H7  837   1.362   2.557   1.605 -1.3110  1.9918  1.0272
   30DMF     C1  838   2.845   3.176   0.200  0.3364 -0.2411 -0.0700
   30DMF     N1  839   2.777   3.309   0.193 -0.2869 -0.2562 -0.6864
   30DMF     C2  840   2.858   3.429   0.231 -0.7302  0.3261  0.0129
   30DMF     C3  841   2.650   3.322   0.139 -0.6164  0.3711  0.0009
   30DMF     O1  842   2.584   3.231   0.097 -0.2291 -0.1249 -0.4526
   30DMF     H1  843   2.775   3.092   0.210  0.9769 -0.9568 -1.5045
   30DMF     H2  844   2.927   3.166   0.273  1.0856 -0.6720 -0.9716
   30DMF     H3  845   2.882   3.168   0.098 -1.1275  0.2113 -0.6474
   30DMF     H4  846   2.843   3.513   0.162  3.3170 -1.0540 -2.7369
   30DMF     H5  847   2.965   3.405   0.239 -0.8037  0.6780  2.6024
   30DMF     H6  848   2.828   3.467   0.329 -1.2758  2.2077 -0.8547
   30DMF     H7  849   2.608   3.424   0.144 -1.4553  0.0808 -1.0599
   31DMF     C1  850   0.067   3.110   3.404 -0.5803 -0.1048 -0.2922
   31DMF     N1  851  -0.057   3.058   3.473 -0.1770 -0.0296  0.3143
   31DMF     C2  852  -0.162   2.988   3.389 -0.8017 -0.4360  0.1165
   31DMF     C3  853  -0.090   3.109   3.597  0.5538  0.1361 -0.8248
   31DMF     O1  854  -0.009   3.167   3.662  0.0598 -0.2746 -0.3353
   31DMF     H1  855   0.148   3.085   3.474 -1.9079  0.6377  1.5552
   31DMF     H2  856   0.056   3.214   3.371 -0.3092 -0.3290 -1.0921
   31DMF     H3  857   0.094   3.057   3.312  1.5706  0.1780  0.1432
   31DMF     H4  858  -0.266   2.991   3.426 -0.9190  1.1382 -0.2853
   31DMF     H5  859  -0.144   2.880   3.391  0.5620 -0.2099  0.3143
   31DMF     H6  860  -0.161   3.027   3.287 -1.3520  0.1224  0.3140
   31DMF     H7  861  -0.198   3.098   3.621  1.6100  0.8384  4.9831
   32DMF     C1  862   1.504   2.338   0.491 -0.3421  0.2232  0.1405
   32DMF     N1  863   1.460   2.479   0.484  0.5615 -0.1642  0.4442
   32DMF     C2  864   1.526   2.569   0.579 -0.4151 -0.3281  0.9032
   32DMF     C3  865   1.408   2.536   0.363 -0.4497 -0.0871 -0.6682
   32DMF     O1  866   1.371   2.471   0.266  0.1143 -0.5991 -0.3118
   32DMF     H1  867   1.421   2.268   0.474 -0.2205 -0.1313  1.0265
   32DMF     H2  868   1.549   2.318   0.588  1.3632 -0.9016 -0.8547
   32DMF     H3  869   1.574   2.308   0.412 -1.3602  1.2707 -1.1927
   32DMF     H4  870   1.632   2.587   0.555 -0.0728 -1.2413  1.7318
   32DMF     H5  871   1.528   2.531   0.682 -3.6942  0.8776  1.4860
   32DMF     H6  872   1.483   2.670   0.579  0.0366 -0.1262 -1.0494
   32DMF     H7  873   1.407   2.647   0.364 -0.8932 -0.0629 -2.2760
   33DMF     C1  874   0.720   3.081   1.219 -0.5873  0.1869  0.6201
   33DMF     N1  875   0.692   3.130   1.080 -0.2747  0.0963  0.8466
   33DMF     C2  876   0.737   3.270   1.047  0.3132 -0.3748 -0.5187
   33DMF     C3  877   0.612   3.055   0.985  0.3181 -0.0248 -0.5894
   33DMF     O1  878   0.575   2.939   1.017 -0.8661 -0.6070  0.3828
   33DMF     H1  879   0.765   3.161   1.279 -2.3436  3.0471 -1.7629
   33DMF     H2  880   0.779   2.990   1.203 -0.2664  0.6357 -0.7898
   33DMF     H3  881   0.625   3.058   1.269 -1.0073 -0.1386 -0.3315
   33DMF     H4  882   0.725   3.343   1.128 -1.1688 -0.7009 -0.4292
   33DMF     H5  883   0.665   3.314   0.977 -0.1099  0.1763  0.2396
   33DMF     H6  884   0.843   3.263   1.019  0.1565  0.3019 -1.3128
   33DMF     H7  885   0.576   3.103   0.892  0.9889 -1.1978 -1.4649
   34DMF     C1  886   3.002   2.926   2.321 -0.2697  0.7717  1.3605
   34DMF     N1  887   2.868   2.961   2.362 -0.1175  0.3050 -0.1179
   34DMF     C2  888   2.760   2.905   2.285  0.2320 -0.1285 -0.1251
   34DMF     C3  889   2.841   3.045   2.471 -0.8379 -0.2512 -0.1842
   34DMF     O1  890   2.923   3.114   2.537 -0.4305  0.9031  0.1044
   34DMF     H1  891   3.003   2.938   2.212 -0.7010  0.4773  1.3254
   34DMF     H2  892   3.021   2.822   2.349 -0.6318  0.7266  1.4470
   34DMF     H3  893   3.077   2.992   2.366  2.2519 -0.6717 -0.6223
   34DMF     H4  894   2.715   2.986   2.226  1.6278 -0.3714 -1.5376
   34DMF     H5  895   2.683   2.866   2.353  0.1640  0.8498  0.3720
   34DMF     H6  896   2.789   2.829   2.212 -0.7404  1.2588 -1.9862
   34DMF     H7  897   2.732   3.042   2.492 -0.7119  0.5679  0.6220
   35DMF     C1  898   2.112   2.527   1.489  0.3360 -0.6696 -0.7380
   35DMF     N1  899   1.973   2.526   1.552  0.0197 -0.2761 -0.1895
   35DMF     C2  900   1.919   2.666   1.586 -0.5153 -0.5199  0.1004
   35DMF     C3  901   1.900   2.415   1.563 -0.1522 -0.1072 -0.1129
   35DMF     O1  902   1.932   2.310   1.510  0.2464  0.2641  0.1996
   35DMF     H1  903   2.178   2.451   1.533 -0.0526 -0.3487  0.4230
   35DMF     H2  904   2.149   2.629   1.509 -0.7191  0.0081 -2.1312
   35DMF     H3  905   2.107   2.514   1.380 -0.1074 -2.0014 -0.5698
   35DMF     H4  906   1.991   2.727   1.643  0.1027 -2.8663  1.8756
   35DMF     H5  907   1.836   2.656   1.656 -0.9837  2.8676  0.1437
   35DMF     H6  908   1.896   2.722   1.494 -1.5843 -1.1104  0.0074
   35DMF     H7  909   1.804   2.430   1.617  0.7871 -0.9198  1.8325
   36DMF     C1  910   3.002   2.946   1.519  0.7452 -0.0653 -0.4967
   36DMF     N1  911   3.079   3.059   1.576  0.0576 -0.3167  0.2165
   36DMF     C2  912   3.024   3.199   1.566  0.1470 -0.1467 -0.1735
   36DMF     C3  913   3.216   3.036   1.595 -0.3881  0.6120 -0.0459
   36DMF     O1  914   3.275   2.937   1.565  0.5012  0.6659  0.1739
   36DMF     H1  915   3.011   2.853   1.576  1.0570  1.5804  2.2480
   36DMF     H2  916   3.038   2.931   1.416  2.2251 -0.9127  0.1241
   36DMF     H3  917   2.896   2.973   1.531  1.2508  1.3242  1.1002
   36DMF     H4  918   2.925   3.216   1.611  1.2832  0.7954  2.0664
   36DMF     H5  919   3.030   3.215   1.458 -0.4079 -0.3042 -0.2275
   36DMF     H6  920   3.101   3.262   1.613  0.0243  0.6826 -1.0681
   36DMF     H7  921   3.271   3.125   1.630  1.4492 -0.9929  1.2806
   37DMF     C1  922   1.773   0.577   0.900 -0.7920  0.3370 -0.3735
   37DMF     N1  923   1.806   0.663   0.787 -0.3063  0.0525  0.2783
   37DMF     C2  924   1.697   0.748   0.733  0.6508 -0.2834  0.0704
   37DMF     C3  925   1.919   0.654   0.717 -0.7694 -0.2727 -0.0499
   37DMF     O1  926   2.007   0.574   0.748  0.3844 -0.2463  0.0542
   37DMF     H1  927   1.699   0.503   0.870 -0.9791 -0.1039  1.1444
   37DMF     H2  928   1.734   0.640   0.980  0.6012  0.7011  0.0320
   37DMF     H3  929   1.863   0.535   0.946 -0.4103  0.4240 -1.0355
   37DMF     H4  930   1.633   0.774   0.819  0.7829 -0.4336  0.2150
   37DMF     H5  931   1.641   0.695   0.655  3.2430  1.3095 -2.9820
   37DMF     H6  932   1.744   0.836   0.687 -0.8942  1.4796  1.7767
   37DMF     H7  933   1.927   0.720   0.629  0.8060 -0.8118 -0.3349
   38DMF     C1  934   2.656   2.226   0.439  0.7609  0.0995  0.5926
   38DMF     N1  935   2.666   2.305   0.319  0.2108 -0.0814  0.3396
   38DMF     C2  936   2.803   2.320   0.266  0.7950 -0.1127 -0.6866
   38DMF     C3  937   2.554   2.375   0.264  0.0537 -0.1251 -0.1963
   38DMF     O1  938   2.443   2.372   0.312  0.5476  0.1395  0.6478
   38DMF     H1  939   2.568   2.160   0.437  1.4555 -0.8669  1.7053
   38DMF     H2  940   2.651   2.295   0.524  1.8389  0.7499  0.1457
   38DMF     H3  941   2.748   2.169   0.457  0.9572  0.0521 -0.5121
   38DMF     H4  942   2.866   2.370   0.342 -1.7792  1.4932  0.4437
   38DMF     H5  943   2.811   2.363   0.166 -2.1242  1.9095 -0.1174
   38DMF     H6  944   2.845   2.219   0.254 -1.1736 -1.1991  1.1413
   38DMF     H7  945   2.592   2.425   0.172  2.3300 -3.4718 -1.1639
   39DMF     C1  946   0.594   1.587   3.322  0.7417  0.2949  0.5196
   39DMF     N1  947   0.735   1.611   3.308 -0.5313  0.5570 -0.6603
   39DMF     C2  948   0.827   1.597   3.430  0.2354  0.6238  1.0194
   39DMF     C3  949   0.794   1.634   3.184 -0.6212 -0.1224  0.6590
   39DMF     O1  950   0.734   1.633   3.077 -0.1172  0.0659 -0.1027
   39DMF     H1  951   0.573   1.580   3.430  1.5677  1.7983  0.8012
   39DMF     H2  952   0.570   1.492   3.273 -1.9873  1.9475 -1.4886
   39DMF     H3  953   0.538   1.669   3.276  0.5658  0.6496  1.3582
   39DMF     H4  954   0.839   1.697   3.473  2.3529  0.2534  1.3503
   39DMF     H5  955   0.922   1.553   3.398 -0.1493  1.1078 -0.8277
   39DMF     H6  956   0.776   1.544   3.512 -0.0517 -1.1075 -0.2361
   39DMF     H7  957   0.904   1.628   3.192 -0.6379 -2.9997 -0.7780
   40DMF     C1  958   1.681   2.117   1.097 -0.2845  0.2123 -0.1167
   40DMF     N1  959   1.807   2.105   1.164  0.3405 -0.4281 -0.0792
   40DMF     C2  960   1.815   2.151   1.300  0.1596  0.4821  1.0082
   40DMF     C3  961   1.921   2.095   1.082  0.1659  0.1099 -0.0412
   40DMF     O1  962   1.908   2.069   0.963  0.3369 -0.4190  0.1235
   40DMF     H1  963   1.592   2.140   1.157  1.1469 -0.5432  2.3596
   40DMF     H2  964   1.651   2.027   1.043  0.8022  1.5438 -3.0317
   40DMF     H3  965   1.677   2.199   1.025 -1.5895 -0.3713 -0.7309
   40DMF     H4  966   1.723   2.136   1.358 -1.1527  1.6277 -0.7220
   40DMF     H5  967   1.849   2.255   1.291  2.2032 -0.2659 -0.3921
   40DMF     H6  968   1.895   2.100   1.355  1.3224  1.4654  0.2401
   40DMF     H7  969   2.020   2.116   1.126  0.0406  2.1029 -0.6537
   41DMF     C1  970   0.015   3.250   2.613  0.7917 -0.6188 -0.2396
   41DMF     N1  971  -0.077   3.363   2.591  0.0450 -0.7629  0.4033
   41DMF     C2  972  -0.221   3.334   2.565 -0.4403 -0.5648  0.3706
   41DMF     C3  973  -0.037   3.495   2.611  0.1891  0.2918 -0.0585
   41DMF     O1  974   0.076   3.528   2.644 -0.1646  0.4610  0.6436
   41DMF     H1  975   0.026   3.237   2.721 -1.4980 -0.8774 -0.0013
   41DMF     H2  976   0.109   3.274   2.562  0.8631  2.0489  1.0864
   41DMF     H3  977  -0.025   3.158   2.568 -2.2327  1.1780 -1.3777
   41DMF     H4  978  -0.238   3.234   2.523 -0.8502 -0.4639  0.2920
   41DMF     H5  979  -0.246   3.406   2.486  0.6055 -0.2402  0.3293
   41DMF     H6  980  -0.283   3.343   2.655 -1.8420  0.8212 -0.6977
   41DMF     H7  981  -0.120   3.567   2.598  2.1746  2.5022 -0.7600
   42DMF     C1  982   3.117   1.565   1.091 -0.0902 -0.0815  0.4391
   42DMF     N1  983   3.194   1.529   0.973 -0.0452  0.7823  0.3189
   42DMF     C2  984   3.126   1.463   0.863  0.3064  0.5109 -0.3484
   42DMF     C3  985   3.327   1.568   0.957  0.0107 -0.2554  0.1475
   42DMF     O1  986   3.381   1.657   1.025 -0.3338  0.2613  0.1538
   42DMF     H1  987   3.031   1.500   1.111  1.3189 -1.1474  3.2250
   42DMF     H2  988   3.080   1.667   1.073 -0.5588 -0.2896  0.2024
   42DMF     H3  989   3.186   1.576   1.174 -0.5720  1.7052  0.6297
   42DMF     H4  990   3.192   1.481   0.777  1.0447 -1.2488 -0.1722
   42DMF     H5  991   3.026   1.498   0.837 -0.9332 -2.1042  0.7859
   42DMF     H6  992   3.133   1.355   0.880 -2.1231  0.3014 -0.4987
   42DMF     H7  993   3.381   1.513   0.878  2.1844  1.3118  0.4822
   43DMF     C1  994   3.335   0.355   3.694 -0.8978 -0.4890  0.0261
   43DMF     N1  995   3.415   0.261   3.768 -0.2747  0.3095 -0.0391
   43DMF     C2  996   3.364   0.131   3.798  0.6978  0.0639 -0.4756
   43DMF     C3  997   3.534   0.300   3.832  0.0282 -0.0052  0.6588
   43DMF     O1  998   3.577   0.415   3.820 -0.0860 -0.4213  0.1956
   43DMF     H1  999   3.258   0.296   3.642 -2.7519  1.4578  0.4577
   43DMF     H2 1000   3.404   0.407   3.627 -1.4869  0.7676  0.3591
   43DMF     H3 1001   3.281   0.425   3.760 -0.4309 -0.3772  0.2869
   43DMF     H4 1002   3.255   0.126   3.786  0.7745 -2.2537 -0.4204
   43DMF     H5 1003   3.394   0.098   3.898 -0.7486 -1.2255 -0.4469
   43DMF     H6 1004   3.396   0.054   3.727 -2.2572 -1.1956 -0.5006
   43DMF     H7 1005   3.590   0.223   3.889 -1.5591 -2.9935 -1.6353
   44DMF     C1 1006   2.427   1.550   1.550  0.0790  0.8595  0.6330
   44DMF     N1 1007   2.554   1.482   1.573  0.0696 -0.0954  0.0070
   44DMF     C2 1008   2.561   1.337   1.550  0.0292 -0.0330 -0.9590
   44DMF     C3 1009   2.666   1.563   1.585 -0.2765 -0.2140 -0.5658
   44DMF     O1 1010   2.657   1.682   1.583  0.2281  0.1607 -0.0203
   44DMF     H1 1011   2.439   1.637   1.484  2.6988 -0.6897 -1.0088
   44DMF     H2 1012   2.390   1.597   1.642  1.7339 -0.2361  1.8974
   44DMF     H3 1013   2.354   1.475   1.518 -0.7371  1.3682  1.2863
   44DMF     H4 1014   2.460   1.295   1.552 -0.9943  2.4048  1.1233
   44DMF     H5 1015   2.616   1.294   1.634  1.0447  1.9367 -0.6041
   44DMF     H6 1016   2.602   1.311   1.451 -4.8231 -2.4873 -2.4916
   44DMF     H7 1017   2.761   1.507   1.595 -0.9373 -1.1615  0.5132
   45DMF     C1 1018   1.857   2.531   3.317 -0.1126 -0.7497  0.0637
   45DMF     N1 1019   1.717   2.487   3.285  0.1297  0.2075  0.6015
   45DMF     C2 1020   1.631   2.440   3.400  0.1704  0.2304 -0.3708
   45DMF     C3 1021   1.683   2.461   3.152 -0.6871 -0.3312  0.4881
   45DMF     O1 1022   1.762   2.483   3.064 -0.5877  0.0651 -0.2261
   45DMF     H1 1023   1.935   2.491   3.251  0.2292 -0.1839  0.1181
   45DMF     H2 1024   1.892   2.501   3.416 -0.4383  0.5041  0.5725
   45DMF     H3 1025   1.853   2.640   3.303 -2.0027 -0.7162  0.7429
   45DMF     H4 1026   1.669   2.342   3.430 -0.5447 -0.1458 -0.6802
   45DMF     H5 1027   1.527   2.426   3.370  0.4536  0.3791 -1.4662
   45DMF     H6 1028   1.633   2.509   3.485 -1.4630 -1.6427  1.2257
   45DMF     H7 1029   1.582   2.419   3.138 -1.1687  0.7304  0.7312
   46DMF     C1 1030   3.030   2.715   0.073 -0.0624  0.4234 -0.6517
   46DMF     N1 1031   3.175   2.716   0.028  0.1603  0.0392 -0.1935
   46DMF     C2 1032   3.282   2.670   0.121 -0.0443  0.0192  0.1624
   46DMF     C3 1033   3.205   2.767  -0.095  0.3314  0.8333  0.5953
   46DMF     O1 1034   3.121   2.833  -0.156  1.2575  0.0964  0.4137
   46DMF     H1 1035   2.975   2.637   0.019 -1.0388  0.6903 -0.0632
   46DMF     H2 1036   2.974   2.809   0.066 -0.5492  0.1470 -0.5160
   46DMF     H3 1037   3.034   2.686   0.179  0.3856  1.1408 -0.4760
   46DMF     H4 1038   3.372   2.731   0.112 -0.1200  0.0082 -0.6448
   46DMF     H5 1039   3.302   2.572   0.077  3.9131  0.5310  0.6401
   46DMF     H6 1040   3.249   2.673   0.226 -2.0692 -1.2685 -0.4030
   46DMF     H7 1041   3.311   2.762  -0.126  0.3042 -0.7473  0.7239
   47DMF     C1 1042   1.266   1.130   0.087  1.4092  0.2967  0.4225
   47DMF     N1 1043   1.404   1.176   0.102 -0.0673 -0.2567  0.4911
   47DMF     C2 1044   1.487   1.101   0.183 -0.2473  0.2236  0.3737
   47DMF     C3 1045   1.448   1.277   0.014  0.3679 -0.3473 -0.5100
   47DMF     O1 1046   1.378   1.337  -0.067 -0.0535  0.7377  0.5906
   47DMF     H1 1047   1.194   1.201   0.129  1.6940  0.7208  0.1884
   47DMF     H2 1048   1.253   1.032   0.136  0.5837  0.8002  1.2325
   47DMF     H3 1049   1.242   1.120  -0.019  0.4752  0.4454  0.6129
   47DMF     H4 1050   1.561   1.169   0.228  1.4538 -0.3777 -1.4449
   47DMF     H5 1051   1.544   1.023   0.131 -1.4255 -0.7080  0.4477
   47DMF     H6 1052   1.434   1.049   0.263 -1.8485  0.7679 -0.3021
   47DMF     H7 1053   1.558   1.295   0.011  0.3750 -0.3981 -0.5428
   48DMF     C1 1054   1.585   1.498   1.553 -0.5954 -0.8935 -0.1439
   48DMF     N1 1055   1.580   1.437   1.416 -0.4993  0.0909 -0.4197
   48DMF     C2 1056   1.708   1.386   1.359  0.0766  0.2883  0.0848
   48DMF     C3 1057   1.454   1.411   1.350 -0.9705  0.4928  0.2834
   48DMF     O1 1058   1.348   1.419   1.404 -0.3763 -0.1809  0.5201
   48DMF     H1 1059   1.486   1.541   1.576 -0.8632 -1.2081 -0.7063
   48DMF     H2 1060   1.669   1.568   1.560 -0.4817 -0.9935 -0.5062
   48DMF     H3 1061   1.608   1.427   1.634  3.0382 -2.0131 -2.0908
   48DMF     H4 1062   1.789   1.408   1.430  0.6361 -2.0770  0.2284
   48DMF     H5 1063   1.728   1.427   1.259 -1.4574 -2.4391 -1.4091
   48DMF     H6 1064   1.709   1.276   1.352 -2.3900  0.2585 -0.1006
   48DMF     H7 1065   1.467   1.383   1.244  1.3686  1.5576  0.2613
   49DMF     C1 1066   2.697   2.816   0.564  0.0040  0.1186 -0.3013
   49DMF     N1 1067   2.797   2.823   0.670 -0.6543 -0.2240 -0.0568
   49DMF     C2 1068   2.932   2.762   0.647  0.6184  0.3709 -1.2558
   49DMF     C3 1069   2.785   2.905   0.789  0.2187 -0.4773 -0.4753
   49DMF     O1 1070   2.675   2.950   0.822 -0.1225 -0.0823  0.3747
   49DMF     H1 1071   2.596   2.835   0.603  1.3819  0.8595  3.0486
   49DMF     H2 1072   2.707   2.717   0.519 -0.4340 -0.2980  0.5168
   49DMF     H3 1073   2.727   2.889   0.487  0.9883 -0.1805 -0.2001
   49DMF     H4 1074   3.018   2.829   0.654  1.0654 -0.2066 -1.2254
   49DMF     H5 1075   2.943   2.711   0.551  1.5471 -1.2966 -0.2826
   49DMF     H6 1076   2.949   2.687   0.725 -2.9397 -1.4251 -2.1106
   49DMF     H7 1077   2.874   2.917   0.853 -0.9815  2.5629  0.7401
   50DMF     C1 1078   1.091   0.314   3.238  0.1810 -0.5978  0.3418
   50DMF     N1 1079   1.139   0.221   3.134  0.1229  0.0670 -0.4395
   50DMF     C2 1080   1.269   0.263   3.077 -0.4476  0.0724  0.0505
   50DMF     C3 1081   1.098   0.081   3.151  0.4252 -0.2780 -0.0145
   50DMF     O1 1082   1.003   0.039   3.214 -0.8712  0.1092 -0.1825
   50DMF     H1 1083   1.124   0.280   3.337 -0.3247 -0.8927  0.4093
   50DMF     H2 1084   0.983   0.330   3.233  0.2569  0.5216  1.7866
   50DMF     H3 1085   1.141   0.411   3.235  1.2318 -1.1698 -1.3146
   50DMF     H4 1086   1.262   0.286   2.969 -1.2757 -1.3384 -0.2086
   50DMF     H5 1087   1.340   0.180   3.088  0.3971  0.7157 -0.4560
   50DMF     H6 1088   1.309   0.351   3.130  3.5269  0.5438 -3.4462
   50DMF     H7 1089   1.154   0.018   3.079 -0.7068 -0.6809 -0.5426
   51DMF     C1 1090   2.951   2.163   3.303  0.1776 -0.5000  0.0800
   51DMF     N1 1091   2.809   2.115   3.313 -0.3549 -0.1145  0.4152
   51DMF     C2 1092   2.709   2.228   3.322  0.3274 -0.7338 -0.6023
   51DMF     C3 1093   2.782   1.976   3.328 -0.3776 -0.3242  0.6702
   51DMF     O1 1094   2.872   1.891   3.314  0.3890 -0.3016 -0.2295
   51DMF     H1 1095   3.024   2.087   3.273 -0.0964 -0.1378 -1.5330
   51DMF     H2 1096   2.990   2.194   3.401 -0.3173 -0.4892  0.2741
   51DMF     H3 1097   2.953   2.246   3.232  0.4542 -0.5777 -0.0028
   51DMF     H4 1098   2.605   2.194   3.310  0.4940 -0.9366 -1.4952
   51DMF     H5 1099   2.735   2.296   3.240 -1.0682 -1.8474 -1.9972
   51DMF     H6 1100   2.708   2.273   3.422  2.6513 -1.7584 -0.0846
   51DMF     H7 1101   2.679   1.950   3.358 -0.9009  1.7746  0.7329
   52DMF     C1 1102   2.151   1.960   1.534  0.1167  0.2782 -0.3747
   52DMF     N1 1103   2.042   1.861   1.549 -0.4384  0.3471  0.0918
   52DMF     C2 1104   1.902   1.910   1.564 -0.2601  0.3100 -0.0581
   52DMF     C3 1105   2.069   1.720   1.570 -0.2826 -0.2339  0.9622
   52DMF     O1 1106   2.182   1.680   1.579 -0.4949 -0.7332  0.2806
   52DMF     H1 1107   2.105   2.057   1.510 -1.0225 -0.7254 -2.3789
   52DMF     H2 1108   2.211   1.927   1.449  0.5642 -1.2530  0.5265
   52DMF     H3 1109   2.218   1.966   1.621  0.2645  0.6974 -0.5176
   52DMF     H4 1110   1.901   2.012   1.605  2.5055 -0.6139  2.4918
   52DMF     H5 1111   1.844   1.850   1.634  1.9497 -1.5733  0.2371
   52DMF     H6 1112   1.851   1.904   1.468 -0.5575 -1.0766  0.1758
   52DMF     H7 1113   1.977   1.659   1.581 -2.8566  3.4974  0.9370
   53DMF     C1 1114   0.185   2.988   0.288 -0.6158 -0.1109  0.0127
   53DMF     N1 1115   0.196   3.072   0.164  0.0088  0.0768  0.1534
   53DMF     C2 1116   0.217   2.999   0.027  0.2975 -0.2476 -0.1543
   53DMF     C3 1117   0.164   3.200   0.172 -0.0785 -0.2984 -0.2576
   53DMF     O1 1118   0.171   3.265   0.279  0.5968  0.0541  0.2745
   53DMF     H1 1119   0.200   2.883   0.259 -1.4825 -0.2587  0.1024
   53DMF     H2 1120   0.080   3.000   0.315 -0.8847 -0.5364 -0.8220
   53DMF     H3 1121   0.253   3.027   0.365 -1.3215  1.2874 -0.0630
   53DMF     H4 1122   0.137   2.931  -0.004  2.3149 -1.4474 -2.9711
   53DMF     H5 1123   0.319   2.960   0.014  0.3301  0.4289 -2.1289
   53DMF     H6 1124   0.205   3.081  -0.045  0.1293  0.4938  0.7142
   53DMF     H7 1125   0.126   3.245   0.079  0.6706  2.0443  0.5270
   54DMF     C1 1126   1.207   0.077   0.328 -0.4065  0.4477 -0.1377
   54DMF     N1 1127   1.093   0.037   0.250 -0.3013 -0.3011 -0.0318
   54DMF     C2 1128   0.982   0.132   0.232 -0.0309  0.3620 -0.1511
   54DMF     C3 1129   1.099  -0.085   0.176  0.1759  0.1279  0.3049
   54DMF     O1 1130   1.186  -0.170   0.199 -0.3369 -1.0998 -0.2404
   54DMF     H1 1131   1.255  -0.009   0.376 -1.5801 -0.5034 -0.6246
   54DMF     H2 1132   1.162   0.138   0.408  0.4992 -1.7895  2.1441
   54DMF     H3 1133   1.270   0.142   0.267  0.4071 -1.3550 -1.2366
   54DMF     H4 1134   1.006   0.228   0.279 -2.1784  0.5798  0.5361
   54DMF     H5 1135   0.891   0.097   0.281  1.5111  0.5304  2.9802
   54DMF     H6 1136   0.968   0.153   0.125 -0.8179  0.1478 -0.0920
   54DMF     H7 1137   1.013  -0.099   0.108  1.4270 -3.1686 -0.6817
   55DMF     C1 1138   0.047   0.926   1.533 -0.3020 -0.3717 -0.2680
   55DMF     N1 1139   0.194   0.956   1.552  0.9446  0.4520  0.6409
   55DMF     C2 1140   0.236   1.096   1.545 -0.7723 -0.3071  0.0313
   55DMF     C3 1141   0.290   0.855   1.592  0.5615 -0.5135 -0.2722
   55DMF     O1 1142   0.262   0.732   1.597  0.5768 -0.0506  0.1546
   55DMF     H1 1143   0.040   0.833   1.475 -0.0158 -0.1526 -0.6619
   55DMF     H2 1144   0.003   1.006   1.473 -0.7549  0.0528  0.6261
   55DMF     H3 1145   0.000   0.920   1.632  1.6304 -2.0061  0.5882
   55DMF     H4 1146   0.319   1.124   1.612 -3.5222  1.3170  2.9576
   55DMF     H5 1147   0.153   1.165   1.567  0.3296  1.2021 -0.4449
   55DMF     H6 1148   0.256   1.119   1.440  2.1036  1.8284  0.9672
   55DMF     H7 1149   0.381   0.904   1.630  0.9756 -1.0847 -0.5192
   56DMF     C1 1150   1.286   2.374   3.390 -0.2305  0.1178 -0.2188
   56DMF     N1 1151   1.228   2.315   3.271  0.2796  0.5949  0.1967
   56DMF     C2 1152   1.244   2.173   3.259  0.7730  0.1806 -0.0171
   56DMF     C3 1153   1.155   2.400   3.178  0.6746  0.3133  0.0087
   56DMF     O1 1154   1.127   2.514   3.205  0.0431 -0.3675  0.6931
   56DMF     H1 1155   1.365   2.313   3.434 -0.2838  0.3147  0.1488
   56DMF     H2 1156   1.210   2.381   3.468  0.3636 -1.7715  0.5549
   56DMF     H3 1157   1.319   2.477   3.372 -1.6570  0.6585  0.1651
   56DMF     H4 1158   1.348   2.140   3.247  0.2914 -1.4590  0.0878
   56DMF     H5 1159   1.185   2.143   3.172 -0.3716  1.6615  0.2340
   56DMF     H6 1160   1.203   2.124   3.348  0.0536  1.5770  0.4338
   56DMF     H7 1161   1.137   2.351   3.081 -1.3992  0.7210  0.1521
   57DMF     C1 1162   0.955   2.277   0.927  0.3848 -0.5164  0.1326
   57DMF     N1 1163   0.876   2.235   1.048 -0.2021 -0.3543  0.1347
   57DMF     C2 1164   0.906   2.298   1.172  0.0166 -0.2358  0.1538
   57DMF     C3 1165   0.775   2.139   1.037 -0.4805 -0.2491 -0.1841
   57DMF     O1 1166   0.753   2.090   0.928  0.6279  0.0665 -0.0490
   57DMF     H1 1167   0.887   2.288   0.842 -0.0802 -1.6205  0.3582
   57DMF     H2 1168   1.022   2.193   0.904 -1.7900 -2.4412  0.7216
   57DMF     H3 1169   1.010   2.372   0.936 -0.6292 -0.1567  2.7942
   57DMF     H4 1170   0.864   2.400   1.176 -1.6849 -0.9525  0.9126
   57DMF     H5 1171   1.016   2.306   1.177  0.1111  0.0015 -2.0865
   57DMF     H6 1172   0.875   2.241   1.261  2.1366 -0.8521  0.5375
   57DMF     H7 1173   0.733   2.106   1.133 -2.6708  0.6043 -0.8299
   58DMF     C1 1174   0.127   2.935   0.636  0.3476 -0.3012 -0.3272
   58DMF     N1 1175   0.185   2.968   0.773  0.3233 -0.1895  0.2240
   58DMF     C2 1176   0.100   2.949   0.889  0.0936 -0.3396  0.2132
   58DMF     C3 1177   0.291   3.063   0.777 -0.3791  0.2097 -0.1153
   58DMF     O1 1178   0.367   3.089   0.683 -0.0769 -0.0416  0.0339
   58DMF     H1 1179   0.167   2.999   0.556 -0.3750  0.0997 -0.3789
   58DMF     H2 1180   0.018   2.951   0.641  0.4738  1.3823 -2.3628
   58DMF     H3 1181   0.134   2.829   0.610 -0.5993 -1.3906  3.4500
   58DMF     H4 1182   0.162   2.966   0.977 -0.0624 -0.9164  0.4350
   58DMF     H5 1183   0.062   2.846   0.881 -0.3239 -0.2666  1.1472
   58DMF     H6 1184   0.008   3.008   0.877  1.2404  1.7809  1.5894
   58DMF     H7 1185   0.302   3.106   0.879 -0.1007 -0.6843  0.2344
   59DMF     C1 1186   0.922   2.560   3.468  0.1358  0.4653  0.2947
   59DMF     N1 1187   0.783   2.629   3.469  0.2608 -0.2788 -0.4315
   59DMF     C2 1188   0.740   2.691   3.340  0.4985 -0.3391 -0.3669
   59DMF     C3 1189   0.696   2.597   3.576  0.7358  0.1890  0.0059
   59DMF     O1 1190   0.737   2.548   3.677  0.6051 -0.2253  0.6877
   59DMF     H1 1191   0.989   2.587   3.551 -1.5384 -1.0586  2.1856
   59DMF     H2 1192   0.979   2.595   3.381  0.5314  0.7032  0.6470
   59DMF     H3 1193   0.912   2.451   3.468  1.8197  0.2819 -1.8358
   59DMF     H4 1194   0.818   2.759   3.304 -0.0967 -0.3318 -1.6746
   59DMF     H5 1195   0.663   2.767   3.358 -2.5547 -3.2985 -0.4086
   59DMF     H6 1196   0.701   2.608   3.280 -0.8427 -1.1957  1.6467
   59DMF     H7 1197   0.590   2.625   3.563  0.2392 -1.3610  0.5904
   60DMF     C1 1198   1.233   1.370   2.359  0.0229 -0.0228  0.9956
   60DMF     N1 1199   1.158   1.474   2.284 -0.3273  0.5208  0.2929
   60DMF     C2 1200   1.025   1.429   2.244  0.1514 -0.3635 -0.2693
   60DMF     C3 1201   1.210   1.593   2.229  0.2226  0.5130  0.0506
   60DMF     O1 1202   1.325   1.623   2.241 -0.1042 -0.3593  0.1172
   60DMF     H1 1203   1.311   1.421   2.418 -0.0995  1.8420 -0.4095
   60DMF     H2 1204   1.285   1.303   2.290 -0.6855 -0.1137  0.5484
   60DMF     H3 1205   1.161   1.311   2.417  0.4101 -0.8338  0.6622
   60DMF     H4 1206   0.973   1.378   2.326 -0.2905  1.1563  0.4097
   60DMF     H5 1207   1.034   1.367   2.154 -1.1604  1.0004 -1.3499
   60DMF     H6 1208   0.976   1.519   2.204  0.5537  0.6959  1.5746
   60DMF     H7 1209   1.134   1.663   2.190  0.8626  0.7069 -0.8615
   61DMF     C1 1210   1.166   2.845   1.013 -0.1048  0.2921 -0.6346
   61DMF     N1 1211   1.098   2.907   0.905  1.0161  0.1424  0.4260
   61DMF     C2 1212   1.098   2.834   0.782 -0.3275  0.0680 -0.0129
   61DMF     C3 1213   1.034   3.028   0.919  0.0439 -0.6096 -0.0694
   61DMF     O1 1214   1.022   3.094   1.022 -0.2410  0.5291  0.0104
   61DMF     H1 1215   1.267   2.812   0.986 -0.0378  0.4418 -0.5697
   61DMF     H2 1216   1.109   2.761   1.054  0.1643  1.4027  2.1549
   61DMF     H3 1217   1.174   2.917   1.095 -3.5215  2.0182 -1.7363
   61DMF     H4 1218   1.195   2.785   0.762 -1.0415 -1.1005 -0.6488
   61DMF     H5 1219   1.069   2.896   0.696  1.7936 -1.5076 -1.9209
   61DMF     H6 1220   1.025   2.754   0.796  0.5980 -0.7362  0.3296
   61DMF     H7 1221   1.002   3.074   0.823  1.4440  0.1895 -0.1718
   62DMF     C1 1222   2.029   0.947   1.449  0.7887  0.5162 -0.0491
   62DMF     N1 1223   2.022   1.088   1.492  0.4342  0.8489  0.5446
   62DMF     C2 1224   2.150   1.164   1.492  0.3798  1.1734  0.1141
   62DMF     C3 1225   1.899   1.142   1.542  0.3078  0.3272 -0.4004
   62DMF     O1 1226   1.801   1.075   1.556  0.6330  0.0734  0.1730
   62DMF     H1 1227   2.018   0.885   1.539  0.2991 -2.1449 -1.8782
   62DMF     H2 1228   2.129   0.925   1.411  0.6882  1.3055 -0.7676
   62DMF     H3 1229   1.947   0.922   1.380  0.5416 -0.5646  0.6190
   62DMF     H4 1230   2.235   1.101   1.464 -0.6289 -0.1739  0.0363
   62DMF     H5 1231   2.178   1.204   1.591  0.0214 -2.6178  1.8546
   62DMF     H6 1232   2.155   1.244   1.418 -2.5858 -0.3072 -1.7547
   62DMF     H7 1233   1.906   1.249   1.568  1.1211 -0.2033  1.6941
   63DMF     C1 1234   2.175   2.619   1.023  0.7115 -0.7155  0.3553
   63DMF     N1 1235   2.130   2.701   0.909  0.2504  0.4111  0.7100
   63DMF     C2 1236   2.169   2.669   0.770  0.1359 -0.3654 -0.4216
   63DMF     C3 1237   2.038   2.807   0.924 -0.4766 -0.0574  0.1803
   63DMF     O1 1238   1.987   2.842   1.026 -0.0559  0.4129 -0.0246
   63DMF     H1 1239   2.109   2.621   1.111 -1.9419 -0.2090 -1.5817
   63DMF     H2 1240   2.278   2.638   1.053  0.7963 -0.6732  0.0344
   63DMF     H3 1241   2.174   2.512   0.998 -0.9510 -0.7769  0.6031
   63DMF     H4 1242   2.191   2.561   0.762 -0.4626 -0.3827 -2.1095
   63DMF     H5 1243   2.256   2.728   0.742  0.1730 -0.6156 -0.8319
   63DMF     H6 1244   2.085   2.689   0.702 -0.1047  1.0624  0.2803
   63DMF     H7 1245   2.027   2.863   0.830  0.6168  0.1647  0.1723
   64DMF     C1 1246   1.203   2.087   1.129 -0.4384 -0.2448  0.7915
   64DMF     N1 1247   1.234   1.980   1.235  0.3687 -0.1960  0.4634
   64DMF     C2 1248   1.361   1.915   1.230 -0.6934  0.1257 -0.2853
   64DMF     C3 1249   1.129   1.930   1.317  0.2691 -1.0359  0.0017
   64DMF     O1 1250   1.021   1.984   1.339  0.1709 -0.5351  0.8163
   64DMF     H1 1251   1.284   2.090   1.054 -0.8469  0.4188  0.3725
   64DMF     H2 1252   1.199   2.185   1.179  1.3117  0.2581 -0.0075
   64DMF     H3 1253   1.118   2.054   1.068  2.2764 -2.8863 -1.7454
   64DMF     H4 1254   1.342   1.809   1.254 -0.5099 -0.1684 -1.4271
   64DMF     H5 1255   1.431   1.966   1.297 -0.8902 -1.9976  1.6229
   64DMF     H6 1256   1.389   1.920   1.124 -0.8450  0.0816 -0.3278
   64DMF     H7 1257   1.153   1.833   1.365 -0.5250 -1.7800 -1.0708
   65DMF     C1 1258   1.478   2.976   0.803 -0.3811 -0.1160  0.0963
   65DMF     N1 1259   1.451   3.020   0.938  0.1750 -0.1665  0.4201
   65DMF     C2 1260   1.518   2.962   1.051  0.3489 -0.0506 -0.4592
   65DMF     C3 1261   1.367   3.138   0.955 -0.1588  0.3435  0.3667
   65DMF     O1 1262   1.331   3.197   0.861  0.3319 -0.2412  0.3355
   65DMF     H1 1263   1.381   2.966   0.751  1.5586  1.4160 -4.0002
   65DMF     H2 1264   1.529   2.879   0.802 -2.1478 -1.0851 -3.1409
   65DMF     H3 1265   1.530   3.049   0.741 -1.3799 -0.9385 -1.7418
   65DMF     H4 1266   1.565   2.868   1.019  1.1000 -0.0328  0.5689
   65DMF     H5 1267   1.443   2.958   1.131  1.4787  0.3212  0.6395
   65DMF     H6 1268   1.593   3.027   1.099 -2.2706  1.3644  1.8643
   65DMF     H7 1269   1.341   3.161   1.060  0.0620  1.9934  0.0620
   66DMF     C1 1270   2.407   0.603   0.307 -0.3502 -1.1042  0.1165
   66DMF     N1 1271   2.285   0.592   0.385  0.6106  0.6563  0.0346
   66DMF     C2 1272   2.155   0.583   0.316  0.2402  0.2099  0.0568
   66DMF     C3 1273   2.290   0.592   0.522 -0.6422 -0.3385  0.3487
   66DMF     O1 1274   2.391   0.597   0.590 -0.0526 -0.5051  0.5291
   66DMF     H1 1275   2.475   0.660   0.371  1.1197 -1.5685 -1.0024
   66DMF     H2 1276   2.387   0.639   0.205 -0.3648 -0.3314  0.3902
   66DMF     H3 1277   2.453   0.504   0.296 -0.2585 -0.7329 -3.3612
   66DMF     H4 1278   2.130   0.682   0.276  0.3600 -0.1229 -0.8449
   66DMF     H5 1279   2.078   0.539   0.381  2.9353 -1.7020  2.0494
   66DMF     H6 1280   2.144   0.515   0.231  0.7828  2.1288 -1.5658
   66DMF     H7 1281   2.192   0.586   0.573 -1.2771 -1.6390 -0.9782
   67DMF     C1 1282   2.997   0.753   1.535  0.1364 -0.1865  0.3950
   67DMF     N1 1283   2.916   0.631   1.524  0.0420 -0.2192  0.7466
   67DMF     C2 1284   2.982   0.505   1.522 -0.4351 -0.1877 -0.3592
   67DMF     C3 1285   2.770   0.645   1.517  0.2092  0.3856  0.3821
   67DMF     O1 1286   2.718   0.756   1.530  0.2229 -0.2053  0.2719
   67DMF     H1 1287   2.959   0.808   1.623 -5.4707  0.4706 -2.1959
   67DMF     H2 1288   2.978   0.811   1.444 -0.7714 -0.8862  0.1294
   67DMF     H3 1289   3.103   0.728   1.531 -0.4077 -2.5273 -0.1215
   67DMF     H4 1290   3.032   0.479   1.617 -1.8207  2.3225  1.1286
   67DMF     H5 1291   3.053   0.509   1.439  0.3945  1.8174  0.4178
   67DMF     H6 1292   2.902   0.430   1.515 -1.1133  0.4344  0.5542
   67DMF     H7 1293   2.716   0.549   1.517  1.0346 -0.0791  0.6341
   68DMF     C1 1294   1.607   2.217   3.665  0.1269  0.4652 -0.1436
   68DMF     N1 1295   1.509   2.206   3.773 -0.3364  0.5492 -0.0818
   68DMF     C2 1296   1.519   2.084   3.854  0.5619 -0.1742  0.3613
   68DMF     C3 1297   1.403   2.292   3.781 -0.3061  0.7675 -0.6683
   68DMF     O1 1298   1.392   2.380   3.702  0.1516 -0.2672  0.0082
   68DMF     H1 1299   1.555   2.193   3.571  0.0961  1.7299 -0.4614
   68DMF     H2 1300   1.685   2.141   3.676  1.9965  2.2001 -1.0573
   68DMF     H3 1301   1.659   2.314   3.659 -1.2594  1.2139 -0.1981
   68DMF     H4 1302   1.546   2.002   3.786  2.1592  1.4426 -1.0058
   68DMF     H5 1303   1.423   2.059   3.901 -1.1526  1.2083 -2.2375
   68DMF     H6 1304   1.596   2.095   3.931  0.2360 -0.6205  0.7518
   68DMF     H7 1305   1.330   2.259   3.857 -0.1621  0.7322 -0.5443
   69DMF     C1 1306   0.604   0.174   0.348  0.1525  0.3005 -0.4943
   69DMF     N1 1307   0.684   0.294   0.356  0.6518 -0.9247 -0.4920
   69DMF     C2 1308   0.742   0.321   0.494  0.0372  0.0109  0.0215
   69DMF     C3 1309   0.724   0.366   0.240 -0.1096 -0.3854 -0.0905
   69DMF     O1 1310   0.677   0.336   0.128  0.0178 -0.3866 -0.0223
   69DMF     H1 1311   0.534   0.181   0.264 -1.8437 -2.2104  0.8731
   69DMF     H2 1312   0.551   0.152   0.442 -1.2117  2.4525 -0.7275
   69DMF     H3 1313   0.669   0.086   0.336 -1.1982 -1.0477  1.7664
   69DMF     H4 1314   0.748   0.229   0.553 -1.8454 -1.4829 -2.0082
   69DMF     H5 1315   0.668   0.381   0.549 -0.2437  1.0152 -1.3979
   69DMF     H6 1316   0.833   0.382   0.486 -0.5911  1.4167  2.9524
   69DMF     H7 1317   0.798   0.447   0.249  1.5779 -1.8968 -0.1286
   70DMF     C1 1318   2.082   1.116   3.779 -0.8269  0.1700  0.2985
   70DMF     N1 1319   2.131   1.046   3.904 -0.2630 -0.4976 -0.0361
   70DMF     C2 1320   2.262   1.093   3.951  0.3962 -0.0100  0.3684
   70DMF     C3 1321   2.046   0.960   3.978  0.4026 -0.1223  0.4058
   70DMF     O1 1322   1.934   0.933   3.938 -0.0946 -0.1470  0.5077
   70DMF     H1 1323   1.974   1.136   3.785 -1.3233 -2.3912  0.5118
   70DMF     H2 1324   2.111   1.053   3.694  0.4514  2.1866 -0.8257
   70DMF     H3 1325   2.130   1.214   3.766 -1.2152  0.5447  1.5625
   70DMF     H4 1326   2.286   1.028   4.035  1.6482  1.0214  0.8103
   70DMF     H5 1327   2.256   1.198   3.981  1.2779  0.2453 -0.3179
   70DMF     H6 1328   2.338   1.065   3.877 -0.1793 -0.7602  0.0376
   70DMF     H7 1329   2.081   0.929   4.078  0.9402  1.8313  0.8413
   71DMF     C1 1330   1.201   1.141   0.584  0.0228 -0.6030  0.0338
   71DMF     N1 1331   1.118   1.234   0.509  0.6702  0.5454  0.4047
   71DMF     C2 1332   1.082   1.374   0.561  0.5853 -0.2547 -0.0103
   71DMF     C3 1333   1.062   1.203   0.374  0.8526  0.0178 -0.8702
   71DMF     O1 1334   1.084   1.094   0.318  0.4375  0.0553  0.3327
   71DMF     H1 1335   1.244   1.062   0.521  1.5478  2.0785 -2.3701
   71DMF     H2 1336   1.136   1.084   0.652 -1.2474  0.2467 -0.4594
   71DMF     H3 1337   1.275   1.198   0.641 -0.9824  1.9418 -1.1361
   71DMF     H4 1338   1.080   1.377   0.671 -1.8900  2.1195 -0.0667
   71DMF     H5 1339   0.982   1.404   0.527  0.5815  1.4241  1.4278
   71DMF     H6 1340   1.160   1.443   0.528 -2.2915  2.2866 -1.7534
   71DMF     H7 1341   1.003   1.282   0.324  1.0877 -0.0933 -1.3240
   72DMF     C1 1342   2.085   0.124   1.425  0.3754  0.2101  0.2575
   72DMF     N1 1343   1.977   0.087   1.515 -0.5899  0.2283  0.1962
   72DMF     C2 1344   1.946  -0.053   1.547  0.4499 -0.4927  0.1213
   72DMF     C3 1345   1.903   0.192   1.576  0.0854  0.6358  0.0984
   72DMF     O1 1346   1.916   0.312   1.550  0.4821 -0.2581  0.0396
   72DMF     H1 1347   2.164   0.157   1.493 -0.2255 -1.6087  1.8547
   72DMF     H2 1348   2.048   0.206   1.361 -2.9020 -0.3084  1.4203
   72DMF     H3 1349   2.120   0.043   1.360 -1.3983  1.0928 -1.8927
   72DMF     H4 1350   1.886  -0.053   1.639 -1.1431 -1.1690 -0.9044
   72DMF     H5 1351   2.038  -0.107   1.574  1.2949  1.8159  2.0548
   72DMF     H6 1352   1.898  -0.108   1.466 -1.4373 -0.6668  1.3391
   72DMF     H7 1353   1.826   0.155   1.647  2.1867  0.1596  2.1752
   73DMF     C1 1354   0.465   0.597   0.642 -0.6398 -0.2578  0.2860
   73DMF     N1 1355   0.366   0.515   0.570  0.1033 -0.9138  0.6481
   73DMF     C2 1356   0.388   0.477   0.430 -0.3955 -0.1453  0.0063
   73DMF     C3 1357   0.253   0.468   0.637  0.1581 -0.7235  0.4964
   73DMF     O1 1358   0.210   0.506   0.749  0.0037 -0.1763  0.2758
   73DMF     H1 1359   0.548   0.638   0.583 -1.9090  1.6099 -0.2300
   73DMF     H2 1360   0.505   0.538   0.725 -1.8588  0.4554  1.4096
   73DMF     H3 1361   0.413   0.683   0.686 -0.8456 -0.3415  0.2075
   73DMF     H4 1362   0.403   0.371   0.410  3.4919  0.6697 -1.8650
   73DMF     H5 1363   0.490   0.512   0.411 -0.5276  0.0023 -0.4430
   73DMF     H6 1364   0.318   0.523   0.359  0.0258  0.4446 -0.0382
   73DMF     H7 1365   0.195   0.397   0.575 -1.2981  1.9506 -1.2969
   74DMF     C1 1366   1.938   1.164   1.123  0.3543  0.2229 -0.1853
   74DMF     N1 1367   2.035   1.194   1.019  0.0724 -0.2803  0.0365
   74DMF     C2 1368   2.023   1.311   0.939  0.1241 -0.2326  1.0040
   74DMF     C3 1369   2.157   1.122   1.023 -0.4101 -0.0687 -0.0805
   74DMF     O1 1370   2.184   1.035   1.107 -0.6301 -0.1270  0.0556
   74DMF     H1 1371   1.974   1.212   1.215  0.5418  0.1476 -0.2195
   74DMF     H2 1372   1.940   1.056   1.141 -2.0186  0.0546 -0.7508
   74DMF     H3 1373   1.836   1.185   1.090  0.5263  0.6494 -0.4494
   74DMF     H4 1374   2.040   1.393   1.011 -0.2310 -0.0475  0.8809
   74DMF     H5 1375   1.919   1.323   0.906  0.1684  0.1888  1.0059
   74DMF     H6 1376   2.087   1.315   0.850 -2.9933  0.4829 -1.3211
   74DMF     H7 1377   2.233   1.147   0.947  1.7232  0.2727  2.0769
   75DMF     C1 1378   0.488   3.028   2.607  0.2709 -0.4535  0.1401
   75DMF     N1 1379   0.498   3.171   2.632 -0.2496  0.2754  0.1091
   75DMF     C2 1380   0.401   3.260   2.549  0.1478  0.3059  0.0093
   75DMF     C3 1381   0.551   3.215   2.752  0.6844 -0.0870 -0.1533
   75DMF     O1 1382   0.638   3.162   2.817  0.2168 -0.6599 -0.2604
   75DMF     H1 1383   0.436   2.972   2.685  1.0928  0.9232  1.7010
   75DMF     H2 1384   0.590   2.988   2.608  0.0823 -0.9328  1.7574
   75DMF     H3 1385   0.442   3.001   2.511 -0.1560 -0.3191  0.3055
   75DMF     H4 1386   0.334   3.311   2.620 -0.8159 -0.5795 -0.2489
   75DMF     H5 1387   0.349   3.200   2.474 -0.6693  1.4409 -0.3436
   75DMF     H6 1388   0.463   3.336   2.500  1.8545 -0.5468  0.8202
   75DMF     H7 1389   0.518   3.319   2.771  1.2703  0.3479 -1.4181
   76DMF     C1 1390   1.790   2.265   0.763 -0.0116 -0.5532  0.1697
   76DMF     N1 1391   1.841   2.350   0.649  0.0745 -0.2847 -0.6273
   76DMF     C2 1392   1.879   2.274   0.529 -0.0714 -0.3684  0.6695
   76DMF     C3 1393   1.871   2.488   0.650 -0.7940  0.3458 -0.8878
   76DMF     O1 1394   1.839   2.568   0.739 -0.2621 -0.3579  0.1689
   76DMF     H1 1395   1.825   2.162   0.749  2.3032  0.4156 -1.4787
   76DMF     H2 1396   1.681   2.260   0.768  0.0931 -2.9329  0.5421
   76DMF     H3 1397   1.831   2.309   0.856 -1.5978 -0.1807  0.7150
   76DMF     H4 1398   1.973   2.311   0.487 -0.4535  1.0997  1.0898
   76DMF     H5 1399   1.808   2.285   0.447  1.5149  0.5917 -0.6104
   76DMF     H6 1400   1.897   2.168   0.553 -1.0879 -0.6089  0.3917
   76DMF     H7 1401   1.934   2.523   0.566  0.0378 -0.5168 -0.6192
   77DMF     C1 1402   2.666   2.520   0.823 -0.5018  0.3471  0.1917
   77DMF     N1 1403   2.533   2.486   0.780 -0.2262 -0.3066  0.0777
   77DMF     C2 1404   2.487   2.498   0.638 -0.1295 -0.4952  0.5663
   77DMF     C3 1405   2.441   2.424   0.869 -0.0274  0.0170 -0.4135
   77DMF     O1 1406   2.459   2.412   0.988  0.4076  0.0565 -0.0389
   77DMF     H1 1407   2.683   2.628   0.816  2.4215 -0.0759  0.3331
   77DMF     H2 1408   2.738   2.490   0.746 -1.0912  2.0770 -1.0752
   77DMF     H3 1409   2.697   2.474   0.917 -0.8046 -0.9045 -0.3048
   77DMF     H4 1410   2.477   2.399   0.590  1.2333 -0.9711  1.2368
   77DMF     H5 1411   2.555   2.551   0.570  0.3171 -1.4884  0.2300
   77DMF     H6 1412   2.391   2.551   0.632  0.6524  0.7002 -2.2202
   77DMF     H7 1413   2.351   2.384   0.819 -0.3226  2.0550 -1.5776
   78DMF     C1 1414   2.668   0.206   1.561 -0.1957 -0.3411 -0.4255
   78DMF     N1 1415   2.709   0.183   1.421  0.1190 -0.1092 -0.6778
   78DMF     C2 1416   2.766   0.054   1.379 -0.4285  0.3355  0.1186
   78DMF     C3 1417   2.711   0.284   1.318  0.2150 -0.1761 -0.8248
   78DMF     O1 1418   2.680   0.397   1.340  0.4458 -0.1141  0.1989
   78DMF     H1 1419   2.560   0.221   1.576 -0.5635 -2.7871 -0.3975
   78DMF     H2 1420   2.728   0.288   1.601  0.6722 -0.7126 -0.9687
   78DMF     H3 1421   2.694   0.115   1.617  1.5801  0.7473  0.5434
   78DMF     H4 1422   2.858   0.041   1.437 -1.5429  0.5280  1.9729
   78DMF     H5 1423   2.795   0.046   1.274 -0.3711  1.1053  0.0756
   78DMF     H6 1424   2.697  -0.030   1.399 -1.1911  0.4056 -2.1045
   78DMF     H7 1425   2.744   0.253   1.218  0.0629 -0.0150 -0.9241
   79DMF     C1 1426   0.556   0.596   3.511 -0.3816  0.1202  0.0201
   79DMF     N1 1427   0.465   0.588   3.627  0.7396  0.0809 -0.7549
   79DMF     C2 1428   0.526   0.542   3.753  0.1537  0.0028  0.0640
   79DMF     C3 1429   0.330   0.633   3.628  0.2087  0.0715  0.0007
   79DMF     O1 1430   0.275   0.683   3.535  0.0690  0.4008 -0.0558
   79DMF     H1 1431   0.544   0.514   3.439 -1.3813 -0.1379  0.4714
   79DMF     H2 1432   0.657   0.588   3.554 -0.2099 -0.4737 -0.4803
   79DMF     H3 1433   0.533   0.683   3.449  1.3878  0.9667  0.5378
   79DMF     H4 1434   0.456   0.555   3.837 -2.1095  0.3438 -1.8091
   79DMF     H5 1435   0.617   0.598   3.774 -0.1662  0.1041  1.1909
   79DMF     H6 1436   0.562   0.439   3.743 -0.7009 -0.2504 -0.5248
   79DMF     H7 1437   0.286   0.621   3.729 -0.4017  0.3259 -0.2339
   80DMF     C1 1438   1.195   2.618   2.833  0.3145 -0.2685 -0.8761
   80DMF     N1 1439   1.211   2.521   2.716  0.7864  0.4492  0.7733
   80DMF     C2 1440   1.210   2.575   2.576 -0.0137 -0.7633 -0.4495
   80DMF     C3 1441   1.251   2.389   2.741  0.1060 -0.0124  0.8132
   80DMF     O1 1442   1.268   2.354   2.852 -0.3805  0.2526 -0.4932
   80DMF     H1 1443   1.259   2.594   2.919 -0.4194  0.1866 -0.1814
   80DMF     H2 1444   1.089   2.606   2.858  0.1531  3.5096  0.6631
   80DMF     H3 1445   1.213   2.722   2.804  0.8029  0.0114  0.3742
   80DMF     H4 1446   1.289   2.534   2.512 -0.0964  2.1101 -2.4588
   80DMF     H5 1447   1.223   2.684   2.580 -1.0711 -0.6613  0.5729
   80DMF     H6 1448   1.107   2.564   2.539 -0.6401  2.6012  0.1502
   80DMF     H7 1449   1.266   2.321   2.655  2.4883  1.4160  0.0545
   81DMF     C1 1450   2.150   0.295   0.863 -0.4326  0.4749 -0.1411
   81DMF     N1 1451   2.226   0.183   0.917 -0.4573  0.4070  0.1016
   81DMF     C2 1452   2.338   0.131   0.841 -0.2772 -1.2542  0.4181
   81DMF     C3 1453   2.178   0.117   1.037  0.7344 -0.4936  0.3835
   81DMF     O1 1454   2.081   0.155   1.097  0.3002 -0.1343 -0.5905
   81DMF     H1 1455   2.141   0.283   0.754 -0.9283  0.7171 -0.1327
   81DMF     H2 1456   2.201   0.389   0.888 -0.4842  0.8682 -1.4667
   81DMF     H3 1457   2.052   0.300   0.912 -0.8438 -0.0445 -0.8935
   81DMF     H4 1458   2.323   0.134   0.733  1.6566 -0.1780  0.1560
   81DMF     H5 1459   2.361   0.029   0.874  3.9495  0.1753  2.2067
   81DMF     H6 1460   2.422   0.199   0.858 -3.3451  2.3329  1.7781
   81DMF     H7 1461   2.243   0.033   1.067 -0.2369 -2.1664 -2.1103
   82DMF     C1 1462   2.791   0.352   3.558  0.0957  0.2746 -0.4990
   82DMF     N1 1463   2.782   0.317   3.702 -0.4936 -0.2722 -1.2859
   82DMF     C2 1464   2.906   0.285   3.770 -0.1116 -0.1671  0.3689
   82DMF     C3 1465   2.666   0.320   3.776  1.2231  0.2177 -0.6819
   82DMF     O1 1466   2.558   0.367   3.729  0.1075 -0.5077  0.3729
   82DMF     H1 1467   2.692   0.385   3.525  0.9217  3.9557  0.4955
   82DMF     H2 1468   2.821   0.268   3.494 -0.0820 -0.0544 -0.1549
   82DMF     H3 1469   2.868   0.430   3.556  0.5872 -0.2132 -3.5382
   82DMF     H4 1470   2.996   0.332   3.727 -0.5951 -0.8383 -1.4237
   82DMF     H5 1471   2.907   0.176   3.773  1.1218 -0.1415  1.3613
   82DMF     H6 1472   2.898   0.323   3.873  1.2299 -0.8198  0.7293
   82DMF     H7 1473   2.678   0.287   3.881 -0.2084 -0.1476 -0.6114
   83DMF     C1 1474   3.255   0.253   1.549  0.7263 -0.6662  0.6339
   83DMF     N1 1475   3.382   0.180   1.562 -0.5609 -0.3263 -0.5064
   83DMF     C2 1476   3.504   0.257   1.559 -0.7344  0.8211  0.0152
   83DMF     C3 1477   3.390   0.039   1.566 -0.5714 -0.2532  0.9494
   83DMF     O1 1478   3.286  -0.028   1.565 -0.2037  0.7712  0.4302
   83DMF     H1 1479   3.238   0.315   1.460  2.9253  0.2285  0.8212
   83DMF     H2 1480   3.267   0.321   1.635 -0.4228 -0.2559  0.4885
   83DMF     H3 1481   3.164   0.192   1.546  0.2191  0.1564 -0.8278
   83DMF     H4 1482   3.549   0.263   1.459  0.5127 -2.4737  0.3254
   83DMF     H5 1483   3.576   0.223   1.635  1.2280  1.0310 -1.7082
   83DMF     H6 1484   3.483   0.361   1.587  0.9596  1.4607 -0.9663
   83DMF     H7 1485   3.490  -0.007   1.571 -0.1858  0.3760 -0.6662
   84DMF     C1 1486   1.599   1.555   0.603 -0.6522 -0.2112  0.2588
   84DMF     N1 1487   1.567   1.465   0.493 -1.3020  0.5240  0.5403
   84DMF     C2 1488   1.430   1.430   0.450 -0.3401 -0.4591  0.4656
   84DMF     C3 1489   1.676   1.395   0.433  0.5564 -1.3399 -0.2268
   84DMF     O1 1490   1.797   1.407   0.449 -0.7416  0.0819 -0.1143
   84DMF     H1 1491   1.612   1.659   0.571  0.1639 -0.4158 -0.0727
   84DMF     H2 1492   1.703   1.546   0.638 -0.9357 -1.5030  0.7853
   84DMF     H3 1493   1.531   1.545   0.688 -0.9992 -2.1935 -0.2340
   84DMF     H4 1494   1.443   1.348   0.378  3.7680 -0.7775  1.4105
   84DMF     H5 1495   1.368   1.514   0.417 -1.9745 -1.7789  0.1539
   84DMF     H6 1496   1.374   1.384   0.533  0.0889 -2.9811 -0.6098
   84DMF     H7 1497   1.644   1.335   0.345 -0.4821 -0.7878 -0.2301
   85DMF     C1 1498   2.744   0.579   2.648 -0.4749  0.2681 -0.0306
   85DMF     N1 1499   2.621   0.560   2.727  0.1572 -0.4949 -0.4637
   85DMF     C2 1500   2.510   0.508   2.650  0.9944  0.2296  0.5857
   85DMF     C3 1501   2.635   0.547   2.865  1.0165  0.4284  0.4198
   85DMF     O1 1502   2.734   0.575   2.929  0.4528  0.3211  0.1602
   85DMF     H1 1503   2.825   0.540   2.711 -0.5055 -1.3478 -0.9579
   85DMF     H2 1504   2.762   0.686   2.632  0.4169  0.3774  1.6160
   85DMF     H3 1505   2.747   0.522   2.555 -3.0177  2.0148 -1.2351
   85DMF     H4 1506   2.494   0.402   2.675 -0.6084  0.0810 -0.9734
   85DMF     H5 1507   2.534   0.509   2.543 -2.5136  1.1988 -0.2741
   85DMF     H6 1508   2.419   0.567   2.665 -1.2344 -2.5883 -1.1918
   85DMF     H7 1509   2.550   0.504   2.921  2.0742 -2.1907  0.0906
   86DMF     C1 1510   2.299   0.800   0.912 -0.0033  0.1877  0.0072
   86DMF     N1 1511   2.426   0.723   0.903 -0.1706  0.5699 -0.2887
   86DMF     C2 1512   2.432   0.590   0.951  0.6437 -0.1274 -0.4121
   86DMF     C3 1513   2.555   0.774   0.861 -0.1681  0.3647 -0.0492
   86DMF     O1 1514   2.566   0.890   0.824  0.7037  0.4544 -0.7715
   86DMF     H1 1515   2.306   0.878   0.834  0.5357  0.9518  0.8055
   86DMF     H2 1516   2.308   0.846   1.011 -0.1794 -0.0524  0.1328
   86DMF     H3 1517   2.213   0.736   0.890  0.2720 -0.6223  1.2386
   86DMF     H4 1518   2.331   0.557   0.977  0.9177 -0.1789  0.6142
   86DMF     H5 1519   2.509   0.569   1.026 -0.9911 -0.4029  1.2023
   86DMF     H6 1520   2.464   0.534   0.862  2.9522  0.0919  0.2469
   86DMF     H7 1521   2.638   0.701   0.865 -1.2315 -0.8225  1.6505
   87DMF     C1 1522   2.133   2.021   2.298 -1.0647 -0.2025 -1.1940
   87DMF     N1 1523   2.029   2.112   2.334  0.1598  0.2286  0.0776
   87DMF     C2 1524   1.971   2.177   2.218  0.1615  0.8375 -0.3334
   87DMF     C3 1525   1.976   2.133   2.462 -0.0562  0.1018 -0.3931
   87DMF     O1 1526   2.016   2.072   2.556 -0.0231  0.1160 -0.6337
   87DMF     H1 1527   2.219   2.075   2.257 -0.3802  0.5326  1.1222
   87DMF     H2 1528   2.094   1.940   2.235 -0.7901 -0.1914 -1.3805
   87DMF     H3 1529   2.176   1.979   2.390  0.1167 -0.4745 -1.8602
   87DMF     H4 1530   1.894   2.246   2.253 -0.1347 -0.9758  2.8690
   87DMF     H5 1531   1.925   2.101   2.154  1.4441 -1.3797  1.3069
   87DMF     H6 1532   2.040   2.245   2.166  0.5737  0.3289 -0.4629
   87DMF     H7 1533   1.897   2.209   2.471 -1.2422 -1.2387  0.5603
   88DMF     C1 1534   0.616   1.594   1.399  0.5039  0.4438  0.2304
   88DMF     N1 1535   0.540   1.482   1.457  0.4615  0.6297 -0.6295
   88DMF     C2 1536   0.587   1.429   1.585  0.3814 -0.3973 -0.0772
   88DMF     C3 1537   0.437   1.420   1.384 -0.2092  0.2156 -0.5219
   88DMF     O1 1538   0.429   1.437   1.261 -0.8877 -0.2504  0.0626
   88DMF     H1 1539   0.562   1.628   1.310  1.6161 -0.2973 -0.7338
   88DMF     H2 1540   0.718   1.561   1.377  0.4509  0.1915  0.3566
   88DMF     H3 1541   0.623   1.674   1.474  3.4442  1.5400 -1.1362
   88DMF     H4 1542   0.511   1.365   1.631  1.2522 -1.3927 -0.0198
   88DMF     H5 1543   0.607   1.510   1.656  1.7084 -2.1720  1.6294
   88DMF     H6 1544   0.669   1.360   1.562  3.1273  2.2162  1.4680
   88DMF     H7 1545   0.377   1.342   1.435 -0.0032  1.0689  1.0850
   89DMF     C1 1546   2.404   1.434   2.258 -0.2871 -0.3799  0.8783
   89DMF     N1 1547   2.268   1.488   2.288 -0.0853  0.9093 -0.3829
   89DMF     C2 1548   2.232   1.638   2.256 -0.1415 -0.1581 -0.0768
   89DMF     C3 1549   2.188   1.415   2.382 -0.4544 -0.3618  0.2880
   89DMF     O1 1550   2.212   1.296   2.413  0.4737  0.0696  0.8802
   89DMF     H1 1551   2.467   1.496   2.193  1.4552 -1.3141  1.6545
   89DMF     H2 1552   2.396   1.336   2.209 -2.7730  0.9085 -1.4712
   89DMF     H3 1553   2.466   1.438   2.348  0.7962 -0.7180  0.1587
   89DMF     H4 1554   2.275   1.662   2.158  2.6342 -1.6853  0.6887
   89DMF     H5 1555   2.271   1.711   2.328  1.0826 -1.7543  0.9303
   89DMF     H6 1556   2.124   1.653   2.260 -0.2308 -0.9992  0.8205
   89DMF     H7 1557   2.104   1.475   2.420 -1.9362 -1.1587 -1.6065
   90DMF     C1 1558   0.450   1.137   0.146 -0.1183 -0.3639 -0.0838
   90DMF     N1 1559   0.476   1.280   0.105 -0.7711 -0.2246 -0.4375
   90DMF     C2 1560   0.365   1.344   0.036  0.5535 -0.4194 -0.0039
   90DMF     C3 1561   0.567   1.363   0.173  0.9276 -0.0116  0.9290
   90DMF     O1 1562   0.644   1.319   0.258 -0.8533 -0.4255  0.2302
   90DMF     H1 1563   0.539   1.102   0.200  1.1654  0.4280 -1.6217
   90DMF     H2 1564   0.442   1.075   0.056  1.3423  1.1061 -1.2719
   90DMF     H3 1565   0.364   1.113   0.209  0.0427 -0.7058  0.0084
   90DMF     H4 1566   0.326   1.280  -0.044  0.3602 -0.1086 -0.1591
   90DMF     H5 1567   0.401   1.439  -0.006  0.1509  1.3348  3.4692
   90DMF     H6 1568   0.288   1.358   0.112  0.1702 -1.4109 -0.2007
   90DMF     H7 1569   0.565   1.469   0.142  0.2821 -0.2076  0.3012
   91DMF     C1 1570   3.261   0.896   3.703  0.1131  0.0512 -0.2542
   91DMF     N1 1571   3.394   0.846   3.742 -0.3708  0.0546  0.4103
   91DMF     C2 1572   3.402   0.713   3.786 -0.2153 -0.0402  1.0684
   91DMF     C3 1573   3.507   0.931   3.745 -0.5814  0.4735  0.5903
   91DMF     O1 1574   3.504   1.047   3.711  0.7292  0.4191 -0.5826
   91DMF     H1 1575   3.274   0.980   3.635  2.5616  0.9925  1.3087
   91DMF     H2 1576   3.223   0.942   3.796 -0.6581 -0.5291 -0.2790
   91DMF     H3 1577   3.195   0.813   3.676 -0.3251  0.1346  0.5346
   91DMF     H4 1578   3.309   0.680   3.835 -0.5295 -1.6486 -0.5725
   91DMF     H5 1579   3.479   0.718   3.863  0.3168  3.1140  0.4133
   91DMF     H6 1580   3.431   0.646   3.704  0.4749 -0.3402  1.5615
   91DMF     H7 1581   3.595   0.877   3.785  0.1976  2.3159  1.4263
   92DMF     C1 1582   3.125   1.057   1.522 -0.7342 -0.3465 -0.1898
   92DMF     N1 1583   3.125   1.197   1.556 -0.0467  0.1991  0.5015
   92DMF     C2 1584   3.242   1.275   1.531  0.0455 -0.7169  0.3714
   92DMF     C3 1585   3.004   1.270   1.579  0.5095 -0.1010 -0.1134
   92DMF     O1 1586   2.893   1.220   1.601 -0.5976  0.3047  0.5408
   92DMF     H1 1587   3.213   1.027   1.463  1.0861  1.2896  1.6291
   92DMF     H2 1588   3.034   1.033   1.466 -2.3039  0.3560  1.9991
   92DMF     H3 1589   3.136   1.004   1.617 -1.0670  1.9417  1.1510
   92DMF     H4 1590   3.231   1.342   1.444 -0.8010 -0.7042  0.4788
   92DMF     H5 1591   3.326   1.211   1.502  0.3578  0.1373 -0.6672
   92DMF     H6 1592   3.278   1.336   1.614  3.2080 -0.6117 -1.0237
   92DMF     H7 1593   3.010   1.380   1.588  0.2378  0.0625 -1.7930
   93DMF     C1 1594   2.512   1.931   1.190  0.2836  0.0236 -0.0015
   93DMF     N1 1595   2.536   2.073   1.208  0.1005  0.0256  0.1928
   93DMF     C2 1596   2.669   2.125   1.204 -0.4299 -0.1446  0.4123
   93DMF     C3 1597   2.427   2.165   1.228  0.2483  0.6782 -0.4138
   93DMF     O1 1598   2.306   2.137   1.225 -0.5560 -0.2558 -0.3259
   93DMF     H1 1599   2.605   1.880   1.162  0.3596  0.2535 -0.1644
   93DMF     H2 1600   2.447   1.913   1.103  0.1986  3.0677 -0.6140
   93DMF     H3 1601   2.455   1.882   1.270  2.3873 -0.1276  1.4401
   93DMF     H4 1602   2.678   2.202   1.127  0.9842  0.7476  1.4443
   93DMF     H5 1603   2.732   2.041   1.171 -2.6309 -1.0361 -1.6670
   93DMF     H6 1604   2.690   2.167   1.303 -0.8832 -0.2315  0.5454
   93DMF     H7 1605   2.457   2.270   1.244 -1.9822  1.3350 -0.3190
   94DMF     C1 1606   1.433   0.617   1.547 -0.5214 -0.1098  0.6546
   94DMF     N1 1607   1.579   0.609   1.566  0.1538 -0.0181 -0.4388
   94DMF     C2 1608   1.666   0.725   1.564  0.2724 -0.5928 -0.7679
   94DMF     C3 1609   1.646   0.486   1.571 -0.1736  0.3314  0.5580
   94DMF     O1 1610   1.588   0.382   1.553  0.6449 -0.1782 -0.0805
   94DMF     H1 1611   1.408   0.715   1.590  1.2280  1.4033 -1.6686
   94DMF     H2 1612   1.388   0.539   1.609  0.5327 -0.7296  0.6376
   94DMF     H3 1613   1.403   0.593   1.444 -0.6929  1.8158  0.2377
   94DMF     H4 1614   1.615   0.822   1.562  1.8780  0.2769 -0.6269
   94DMF     H5 1615   1.723   0.724   1.470 -0.6211 -1.5882 -1.3055
   94DMF     H6 1616   1.734   0.722   1.650 -0.9234 -2.2481  0.1412
   94DMF     H7 1617   1.755   0.495   1.587  0.1173 -0.7663 -0.6818
   95DMF     C1 1618   0.606   2.183   0.367 -0.2232  0.2730  0.2410
   95DMF     N1 1619   0.506   2.168   0.471 -0.5696 -0.0100 -0.1117
   95DMF     C2 1620   0.551   2.125   0.604  0.5488 -0.1154 -0.2141
   95DMF     C3 1621   0.365   2.192   0.447 -0.5989 -0.0249 -0.1537
   95DMF     O1 1622   0.324   2.239   0.344 -0.0145 -0.1558  0.0018
   95DMF     H1 1623   0.576   2.210   0.265  0.2984 -1.3385 -0.3421
   95DMF     H2 1624   0.659   2.087   0.372 -1.7499 -0.6094 -0.3477
   95DMF     H3 1625   0.678   2.265   0.386 -2.2787  2.1488  0.1667
   95DMF     H4 1626   0.569   2.210   0.671  2.2544 -0.3237 -0.3963
   95DMF     H5 1627   0.649   2.078   0.594  1.2824  1.1729  0.8638
   95DMF     H6 1628   0.486   2.056   0.660  0.9769 -0.0931  0.3104
   95DMF     H7 1629   0.297   2.161   0.528 -0.1348 -0.1847  0.1784
   96DMF     C1 1630   1.373   1.119   2.546 -0.6226 -0.0419 -0.0104
   96DMF     N1 1631   1.267   1.115   2.659 -0.4637 -0.1804 -0.4260
   96DMF     C2 1632   1.128   1.070   2.623  0.1972 -0.4249  0.1685
   96DMF     C3 1633   1.292   1.192   2.774 -0.7787 -0.2949 -0.5421
   96DMF     O1 1634   1.400   1.251   2.798 -0.1160 -0.3904 -0.3134
   96DMF     H1 1635   1.405   1.223   2.529 -3.3718  0.9557  0.6827
   96DMF     H2 1636   1.346   1.077   2.449  2.5892 -0.7187 -0.6724
   96DMF     H3 1637   1.468   1.082   2.587 -0.2650 -0.0267 -0.8303
   96DMF     H4 1638   1.078   1.134   2.550  0.5358 -0.1341  0.1881
   96DMF     H5 1639   1.062   1.085   2.710 -1.7986  1.5408 -1.6164
   96DMF     H6 1640   1.137   0.968   2.582 -4.2025 -1.0118  0.3764
   96DMF     H7 1641   1.199   1.197   2.833  0.3460 -1.4999  1.4114
   97DMF     C1 1642   1.085   3.053   0.448 -0.4952  0.1191 -0.1063
   97DMF     N1 1643   1.220   3.004   0.476 -0.4232  0.4475 -0.1793
   97DMF     C2 1644   1.329   3.103   0.499 -0.9881 -1.1300  0.0528
   97DMF     C3 1645   1.249   2.870   0.453 -0.2314  0.9315 -0.6168
   97DMF     O1 1646   1.170   2.781   0.430 -0.1265  1.2143 -0.0780
   97DMF     H1 1647   1.077   3.099   0.349  0.7635  1.3111  0.3378
   97DMF     H2 1648   1.055   3.130   0.519 -1.1124  0.8665 -1.1689
   97DMF     H3 1649   1.008   2.974   0.454 -0.9356  0.7289  3.8071
   97DMF     H4 1650   1.421   3.067   0.452  1.5132  1.1664  2.9158
   97DMF     H5 1651   1.339   3.122   0.607  0.3788  0.5222 -0.3428
   97DMF     H6 1652   1.300   3.198   0.453 -2.3888 -2.0261 -0.9497
   97DMF     H7 1653   1.357   2.845   0.456 -0.6244 -0.9926 -1.4235
   98DMF     C1 1654   1.766   0.256   1.045  0.4677 -0.1825 -0.4105
   98DMF     N1 1655   1.679   0.302   1.153 -0.3834 -0.1192 -0.6441
   98DMF     C2 1656   1.722   0.285   1.295 -0.0085 -0.1079  0.2961
   98DMF     C3 1657   1.578   0.395   1.120 -0.3298  0.5685 -0.5647
   98DMF     O1 1658   1.531   0.406   1.011 -0.2787  0.0580  0.1207
   98DMF     H1 1659   1.850   0.325   1.030  0.4445 -0.6946 -3.2886
   98DMF     H2 1660   1.712   0.236   0.952  1.4773  0.1409 -1.0714
   98DMF     H3 1661   1.800   0.157   1.078  2.8526  1.6232  2.8099
   98DMF     H4 1662   1.825   0.247   1.296 -0.0750 -0.2711  1.9305
   98DMF     H5 1663   1.648   0.214   1.333 -0.4873  1.4227  2.3547
   98DMF     H6 1664   1.720   0.381   1.349 -0.5081  0.1604 -0.1891
   98DMF     H7 1665   1.547   0.457   1.206  1.9835  0.3261  0.4925
   99DMF     C1 1666   1.356   0.097   1.162  1.1015 -0.2239  0.1350
   99DMF     N1 1667   1.222   0.151   1.162 -0.2347  0.0468  0.1257
   99DMF     C2 1668   1.128   0.099   1.058 -0.3705 -0.5208 -0.8487
   99DMF     C3 1669   1.182   0.248   1.260 -0.6196  0.2015 -0.0314
   99DMF     O1 1670   1.245   0.283   1.359 -0.6685  0.2137 -0.5421
   99DMF     H1 1671   1.420   0.158   1.227  1.1256  0.3380 -0.4042
   99DMF     H2 1672   1.392   0.071   1.062 -0.7180 -1.7926 -0.1367
   99DMF     H3 1673   1.354   0.003   1.218 -1.2893 -0.7614 -0.7793
   99DMF     H4 1674   1.049   0.029   1.087 -0.7041  1.0596  2.3097
   99DMF     H5 1675   1.186   0.045   0.982 -1.7110  1.6960 -3.5971
   99DMF     H6 1676   1.083   0.183   1.003 -0.1760  1.1250  1.4350
   99DMF     H7 1677   1.074   0.268   1.246 -0.4896  1.3976  0.6349
  100DMF     C1 1678   0.970   0.659   3.487 -0.2430  0.2559 -0.5970
  100DMF     N1 1679   0.944   0.795   3.421 -0.2192 -0.6796  0.7223
  100DMF     C2 1680   0.907   0.814   3.283  0.0249 -0.3415 -0.7113
  100DMF     C3 1681   0.952   0.911   3.503 -0.2447 -0.3499  0.1097
  100DMF     O1 1682   0.976   0.907   3.621 -0.0161 -0.8603 -0.0703
  100DMF     H1 1683   0.973   0.680   3.594 -0.4720  0.2038 -0.5814
  100DMF     H2 1684   1.065   0.607   3.468  1.5968  3.3481 -0.3059
  100DMF     H3 1685   0.889   0.591   3.459  1.5541 -2.4831  0.6445
  100DMF     H4 1686   0.804   0.849   3.271  0.3685  0.8751 -0.1857
  100DMF     H5 1687   0.918   0.720   3.228  0.9147  0.2228 -1.5208
  100DMF     H6 1688   0.982   0.874   3.229  0.5672 -0.0448  0.3667
  100DMF     H7 1689   0.929   1.008   3.455 -2.7582 -1.3534 -0.8108
  101DMF     C1 1690   2.286   0.527   3.734 -0.3431 -0.2316  0.8740
  101DMF     N1 1691   2.147   0.561   3.757  0.8640  0.6264  0.7461
  101DMF     C2 1692   2.036   0.460   3.760 -0.2186  0.3763  0.0446
  101DMF     C3 1693   2.114   0.696   3.767  0.6545 -0.0684 -1.1676
  101DMF     O1 1694   2.202   0.780   3.766 -0.1995 -0.1309  0.6142
  101DMF     H1 1695   2.322   0.582   3.647 -0.4543 -3.2144 -1.1514
  101DMF     H2 1696   2.284   0.420   3.710 -2.4776  0.2105 -1.0228
  101DMF     H3 1697   2.342   0.554   3.825  1.7445  1.6431 -0.9172
  101DMF     H4 1698   1.939   0.499   3.727 -0.6280 -2.2926 -2.1411
  101DMF     H5 1699   2.019   0.411   3.856  0.9834  0.1832  0.1655
  101DMF     H6 1700   2.055   0.376   3.693 -0.6660  1.3389 -1.3277
  101DMF     H7 1701   2.007   0.722   3.777  0.6055 -0.8566  0.4396
  102DMF     C1 1702   1.159   1.969   2.833  0.4988  0.6062  0.3019
  102DMF     N1 1703   1.103   1.909   2.957  0.6540  0.1925 -0.4268
  102DMF     C2 1704   0.955   1.904   2.987 -0.7257  0.0864 -0.3999
  102DMF     C3 1705   1.186   1.866   3.058  0.4182  0.2210 -0.1748
  102DMF     O1 1706   1.305   1.875   3.047 -0.3492  0.1936  0.0071
  102DMF     H1 1707   1.225   1.901   2.778  0.9684  1.1345  0.2108
  102DMF     H2 1708   1.213   2.057   2.871  0.2468  0.6871  0.4727
  102DMF     H3 1709   1.086   2.000   2.758  1.1592  1.6421  0.0705
  102DMF     H4 1710   0.931   1.798   2.994 -0.8773  0.0969 -0.7550
  102DMF     H5 1711   0.910   1.960   2.904  0.0013  1.8221  0.3429
  102DMF     H6 1712   0.923   1.961   3.075  0.7697  3.7584 -2.1210
  102DMF     H7 1713   1.137   1.816   3.144 -1.8266  0.5075 -1.2461
  103DMF     C1 1714   2.751   1.628   0.579  0.8575 -0.4985 -0.2227
  103DMF     N1 1715   2.694   1.758   0.624  0.5923  0.1006 -0.3560
  103DMF     C2 1716   2.711   1.875   0.538  0.5421  0.0330 -0.2393
  103DMF     C3 1717   2.600   1.756   0.727  0.7703  0.0368 -0.1342
  103DMF     O1 1718   2.577   1.657   0.792  0.1264  0.0773 -0.1638
  103DMF     H1 1719   2.783   1.640   0.474  2.2968 -0.0099  0.2580
  103DMF     H2 1720   2.668   1.556   0.578  1.3146 -1.0665  1.4516
  103DMF     H3 1721   2.828   1.594   0.649  0.4496 -0.4890  0.2273
  103DMF     H4 1722   2.806   1.874   0.483  0.5112  2.4226 -0.3987
  103DMF     H5 1723   2.710   1.968   0.597 -0.3035 -0.2334  0.1688
  103DMF     H6 1724   2.635   1.878   0.459 -0.4935 -1.1099  0.6997
  103DMF     H7 1725   2.555   1.854   0.752 -0.7926 -0.2449 -1.7793
  104DMF     C1 1726   1.956   1.125   2.990  0.1788  0.9191  0.3818
  104DMF     N1 1727   1.982   1.108   2.844 -0.5143 -0.0839 -0.4549
  104DMF     C2 1728   1.943   0.985   2.783 -0.1553  0.4227 -0.1780
  104DMF     C3 1729   2.030   1.221   2.772  0.3919  0.1033 -0.0862
  104DMF     O1 1730   2.051   1.327   2.829  0.4400  0.4697 -0.4414
  104DMF     H1 1731   2.039   1.184   3.028  0.8109  0.5283 -0.3810
  104DMF     H2 1732   1.948   1.031   3.048  3.2574  0.1247 -0.4121
  104DMF     H3 1733   1.864   1.184   2.998 -0.9638 -0.7749  0.0772
  104DMF     H4 1734   1.835   0.965   2.787 -0.0823 -0.4054 -2.0577
  104DMF     H5 1735   1.999   0.912   2.842  1.4072  1.1828 -0.7046
  104DMF     H6 1736   1.980   0.971   2.681  2.8083 -2.0289  1.1374
  104DMF     H7 1737   2.037   1.205   2.663  3.0472  1.8991 -0.2406
  105DMF     C1 1738   1.503   3.054   3.236  0.1035 -0.8474  0.2783
  105DMF     N1 1739   1.532   2.911   3.200  0.2829 -0.2104  0.7262
  105DMF     C2 1740   1.464   2.864   3.075 -0.2879  0.5270  0.0965
  105DMF     C3 1741   1.563   2.819   3.301 -0.5477 -0.0683 -0.3279
  105DMF     O1 1742   1.553   2.844   3.416  0.0498 -0.2253  0.2692
  105DMF     H1 1743   1.440   3.109   3.166 -0.6049 -0.8436  0.9149
  105DMF     H2 1744   1.594   3.112   3.257 -1.4179  2.3347 -1.5626
  105DMF     H3 1745   1.456   3.062   3.335 -0.6819 -0.1522 -0.1466
  105DMF     H4 1746   1.539   2.805   3.020 -1.2732  0.8331 -1.6017
  105DMF     H5 1747   1.445   2.949   3.008 -3.5824  0.1066  0.4327
  105DMF     H6 1748   1.372   2.806   3.088 -0.5231  0.5731 -1.2585
  105DMF     H7 1749   1.594   2.719   3.266  0.9876  0.4214 -0.3962
  106DMF     C1 1750   0.926   0.815   2.253  0.6704 -0.1260  0.4183
  106DMF     N1 1751   1.046   0.903   2.238 -0.4496 -0.1235  0.1411
  106DMF     C2 1752   1.181   0.832   2.252  0.4230 -0.9085  0.1745
  106DMF     C3 1753   1.034   1.038   2.259  0.2998  0.6564  0.5705
  106DMF     O1 1754   0.920   1.085   2.261  0.3083  0.0228  0.0569
  106DMF     H1 1755   0.952   0.757   2.343 -1.5662  2.5411  2.8622
  106DMF     H2 1756   0.919   0.758   2.159  1.1289  1.1534 -0.4065
  106DMF     H3 1757   0.833   0.870   2.271  1.3264  1.4716 -0.8940
  106DMF     H4 1758   1.182   0.803   2.358 -0.5538 -0.8956  0.1932
  106DMF     H5 1759   1.253   0.914   2.240  0.3623 -1.0068 -0.9174
  106DMF     H6 1760   1.197   0.747   2.185 -1.4150 -1.9482  1.0299
  106DMF     H7 1761   1.125   1.091   2.290  1.1640 -1.0029  0.8999
  107DMF     C1 1762   1.288   0.988   1.453 -0.0627  0.4786  0.1019
  107DMF     N1 1763   1.343   1.106   1.527  0.4815  0.5904 -0.5331
  107DMF     C2 1764   1.484   1.098   1.566  0.4059  0.0765 -0.2798
  107DMF     C3 1765   1.264   1.208   1.587  0.1520  0.3478  0.2969
  107DMF     O1 1766   1.145   1.209   1.564 -0.6365  0.0494 -0.3430
  107DMF     H1 1767   1.362   0.908   1.465 -0.1914  0.2227 -0.7865
  107DMF     H2 1768   1.271   1.019   1.349  0.7349 -0.8193 -0.4247
  107DMF     H3 1769   1.188   0.963   1.490 -0.2614 -1.2353 -1.5262
  107DMF     H4 1770   1.549   1.109   1.479  3.9174 -1.7974  1.9822
  107DMF     H5 1771   1.502   0.998   1.607  0.4029  0.5915  1.0134
  107DMF     H6 1772   1.510   1.175   1.639 -1.3142 -1.0510  1.5965
  107DMF     H7 1773   1.317   1.265   1.665 -0.1886  0.7289  0.2484
  108DMF     C1 1774   2.861   0.063   2.617 -0.5227  0.6316  0.0055
  108DMF     N1 1775   2.760   0.086   2.726 -0.5292  0.7231  0.2865
  108DMF     C2 1776   2.619   0.097   2.686  0.1972 -0.5087 -0.0678
  108DMF     C3 1777   2.801   0.139   2.854  0.6417  0.5195 -0.3590
  108DMF     O1 1778   2.918   0.139   2.892  0.3348 -0.2424  0.1977
  108DMF     H1 1779   2.860  -0.041   2.583 -2.5590  0.6146  0.0565
  108DMF     H2 1780   2.964   0.077   2.653 -0.6056  2.7287 -0.4769
  108DMF     H3 1781   2.840   0.130   2.533 -1.8611  1.2837  0.8362
  108DMF     H4 1782   2.589   0.200   2.709 -0.8748 -0.5560 -1.2324
  108DMF     H5 1783   2.555   0.032   2.746 -0.6962  1.0951  0.7614
  108DMF     H6 1784   2.596   0.082   2.580 -1.0258 -0.1092  0.1319
  108DMF     H7 1785   2.720   0.179   2.918 -1.3119 -1.0104 -1.8317
  109DMF     C1 1786   0.335   2.025   1.008 -0.4685  0.9434  0.6369
  109DMF     N1 1787   0.257   1.979   0.888 -0.3297  0.0504  0.2703
  109DMF     C2 1788   0.201   1.844   0.887 -0.7568  0.0549  0.1034
  109DMF     C3 1789   0.214   2.065   0.785 -0.3881 -0.0678 -0.3598
  109DMF     O1 1790   0.248   2.183   0.783  0.0853 -0.1033 -0.0167
  109DMF     H1 1791   0.368   1.938   1.066  1.0959  1.0315 -0.1125
  109DMF     H2 1792   0.270   2.089   1.070 -1.2926  0.3368  0.4078
  109DMF     H3 1793   0.416   2.088   0.970 -1.0974  1.0225 -0.5780
  109DMF     H4 1794   0.160   1.817   0.985 -1.3694  0.2227 -0.1056
  109DMF     H5 1795   0.275   1.773   0.847  1.9250  2.2804  0.9215
  109DMF     H6 1796   0.126   1.839   0.807 -1.6603 -0.9542  1.0108
  109DMF     H7 1797   0.150   2.017   0.709 -0.7161  1.7315 -1.2501
  110DMF     C1 1798   1.502   3.270   3.561  0.3480  0.1240  0.2490
  110DMF     N1 1799   1.359   3.298   3.517 -0.1541  0.4129 -0.8167
  110DMF     C2 1800   1.253   3.248   3.602  0.7202 -0.6803  0.0204
  110DMF     C3 1801   1.324   3.356   3.394 -0.4435  0.4286  0.0045
  110DMF     O1 1802   1.415   3.387   3.314 -0.2827 -0.4994 -0.1684
  110DMF     H1 1803   1.575   3.345   3.528 -1.1935  0.2760 -2.9992
  110DMF     H2 1804   1.536   3.174   3.520 -0.3683  0.3789 -0.9737
  110DMF     H3 1805   1.509   3.269   3.670 -0.6536  0.6695  0.3271
  110DMF     H4 1806   1.179   3.326   3.619  0.9216 -1.2441  4.0298
  110DMF     H5 1807   1.298   3.225   3.699  2.0473  1.6915 -0.0048
  110DMF     H6 1808   1.205   3.166   3.547  0.5351 -0.6483  0.1358
  110DMF     H7 1809   1.217   3.352   3.368 -0.4586 -0.7661  0.2144
  111DMF     C1 1810   1.321   0.655   0.977  0.1018  0.6142  0.1081
  111DMF     N1 1811   1.216   0.666   1.075  0.8158  0.3523  0.1531
  111DMF     C2 1812   1.164   0.543   1.135 -0.4889 -0.6916  0.6412
  111DMF     C3 1813   1.190   0.787   1.144 -0.0952 -0.4189 -0.3287
  111DMF     O1 1814   1.237   0.888   1.106  1.1772  0.2520  0.6106
  111DMF     H1 1815   1.290   0.569   0.917 -3.0347  0.7048  1.5055
  111DMF     H2 1816   1.418   0.641   1.026 -0.1538  1.7902  0.9692
  111DMF     H3 1817   1.335   0.736   0.905 -0.8016 -0.9930 -1.9157
  111DMF     H4 1818   1.184   0.537   1.243 -0.6717  0.8827  0.7851
  111DMF     H5 1819   1.210   0.457   1.085  1.6341  1.5641 -1.4738
  111DMF     H6 1820   1.057   0.544   1.112 -0.1880 -0.9852 -0.8198
  111DMF     H7 1821   1.118   0.771   1.227  1.2428  1.1798  1.1786
  112DMF     C1 1822   0.424   1.929   0.196 -0.0700 -0.6852  0.0851
  112DMF     N1 1823   0.362   1.885   0.065  0.1848 -0.0240 -0.5531
  112DMF     C2 1824   0.219   1.906   0.045 -0.0293  0.5332 -0.1708
  112DMF     C3 1825   0.435   1.814  -0.030  0.5447  0.5632 -0.8018
  112DMF     O1 1826   0.556   1.781  -0.016  0.4899 -0.3676  0.5523
  112DMF     H1 1827   0.522   1.975   0.181 -0.5931 -0.1057 -1.7638
  112DMF     H2 1828   0.436   1.840   0.259  0.3218 -1.2224 -0.7413
  112DMF     H3 1829   0.360   1.995   0.255 -1.1275 -0.5866 -1.1565
  112DMF     H4 1830   0.192   1.938  -0.056 -1.1351  1.2054  0.3293
  112DMF     H5 1831   0.184   1.987   0.110  0.7987  2.5551 -2.1885
  112DMF     H6 1832   0.161   1.815   0.065  1.5714 -0.4761 -0.0855
  112DMF     H7 1833   0.370   1.788  -0.116  0.8000 -1.2328 -0.4749
  113DMF     C1 1834   1.723   2.534   0.075 -0.1334 -0.2416  0.4103
  113DMF     N1 1835   1.842   2.624   0.092 -0.5646 -0.4853  0.0508
  113DMF     C2 1836   1.869   2.723  -0.022  0.7154  0.3041  0.3624
  113DMF     C3 1837   1.894   2.657   0.222  0.7915 -0.2055 -0.1827
  113DMF     O1 1838   1.865   2.587   0.319 -0.3920 -0.2191  0.4380
  113DMF     H1 1839   1.658   2.532   0.163 -1.9018 -1.4829 -0.8688
  113DMF     H2 1840   1.758   2.435   0.042  0.0658 -0.7320  2.0459
  113DMF     H3 1841   1.661   2.574  -0.007 -0.4091 -0.4149  0.5330
  113DMF     H4 1842   1.943   2.682  -0.091 -1.5338 -0.2863 -1.7993
  113DMF     H5 1843   1.919   2.814   0.011 -0.0233  0.7201  0.3529
  113DMF     H6 1844   1.780   2.745  -0.082 -0.3631 -0.1038  1.7807
  113DMF     H7 1845   1.972   2.735   0.228 -0.4888  1.0839 -0.2030
  114DMF     C1 1846   0.864   1.654   1.173  0.3542 -0.4332  0.4988
  114DMF     N1 1847   0.938   1.691   1.056  0.0254  0.0946  0.1889
  114DMF     C2 1848   0.958   1.837   1.033 -0.5730  0.2368 -1.0026
  114DMF     C3 1849   0.976   1.595   0.964  0.4249  0.6517  0.2554
  114DMF     O1 1850   0.961   1.473   0.981 -0.2132 -0.9167  0.1398
  114DMF     H1 1851   0.921   1.597   1.248  0.7589  0.3980  0.8366
  114DMF     H2 1852   0.776   1.600   1.136  2.6483 -1.6931 -3.3755
  114DMF     H3 1853   0.827   1.751   1.208 -1.0032 -0.8355  0.1995
  114DMF     H4 1854   0.892   1.899   1.096  0.9919  0.7968  0.1223
  114DMF     H5 1855   0.934   1.860   0.929  0.9222  2.3992 -0.9215
  114DMF     H6 1856   1.064   1.867   1.043 -0.6041  0.0317 -0.0051
  114DMF     H7 1857   1.015   1.639   0.871 -1.2720 -0.0762 -0.8348
  115DMF     C1 1858   0.195   1.704   0.384  0.3645  0.5141 -0.3055
  115DMF     N1 1859   0.314   1.680   0.468 -0.3665 -0.2591 -0.2161
  115DMF     C2 1860   0.398   1.566   0.449  0.6872 -0.6144  0.5073
  115DMF     C3 1861   0.361   1.778   0.563  0.9097  0.0304 -0.4319
  115DMF     O1 1862   0.309   1.888   0.568 -0.3050 -0.2392 -0.5450
  115DMF     H1 1863   0.110   1.721   0.452  1.3758  1.3966  0.7685
  115DMF     H2 1864   0.173   1.614   0.326  0.0333 -0.3479  1.1228
  115DMF     H3 1865   0.210   1.793   0.322 -2.8538 -0.8247 -3.1521
  115DMF     H4 1866   0.404   1.535   0.344  0.3648  0.6295  0.1122
  115DMF     H5 1867   0.358   1.481   0.506 -1.5231 -0.7948 -1.2084
  115DMF     H6 1868   0.499   1.587   0.486  0.9388  1.5245 -1.3322
  115DMF     H7 1869   0.448   1.748   0.624  0.4346 -0.0227  0.2319
  116DMF     C1 1870   1.792   3.237   1.013 -0.1958 -0.0907  0.5765
  116DMF     N1 1871   1.829   3.314   1.133 -0.0901  0.8282 -0.7351
  116DMF     C2 1872   1.725   3.368   1.219  0.1641 -0.2841 -0.3079
  116DMF     C3 1873   1.963   3.320   1.165  0.5895  0.1305 -0.4643
  116DMF     O1 1874   2.048   3.290   1.081 -0.3718  0.3141 -0.8045
  116DMF     H1 1875   1.698   3.188   1.041 -1.4477  1.6263 -0.5096
  116DMF     H2 1876   1.862   3.157   0.988 -0.6946 -0.1605 -0.6105
  116DMF     H3 1877   1.778   3.299   0.924 -2.1927 -1.5085 -0.1462
  116DMF     H4 1878   1.765   3.419   1.307 -1.7878  0.6994  0.0353
  116DMF     H5 1879   1.658   3.284   1.242  0.5813 -0.8608 -1.1763
  116DMF     H6 1880   1.668   3.449   1.172  2.1446  1.9390  0.9884
  116DMF     H7 1881   1.991   3.369   1.260 -0.4933  0.8053 -0.4837
  117DMF     C1 1882   3.041   1.915   1.539 -1.2137  0.6672  0.2249
  117DMF     N1 1883   3.136   1.805   1.522 -0.1319 -0.7035 -0.4417
  117DMF     C2 1884   3.071   1.673   1.529  0.5458  0.5934 -0.0090
  117DMF     C3 1885   3.266   1.824   1.553  0.1475  0.0787 -0.0582
  117DMF     O1 1886   3.328   1.934   1.564 -0.0543 -0.1350  0.2895
  117DMF     H1 1887   2.942   1.881   1.572 -1.1872  0.8648  0.5109
  117DMF     H2 1888   3.047   1.981   1.452  0.4891  3.0235  2.0587
  117DMF     H3 1889   3.085   1.977   1.619 -0.9728  1.9331 -0.8666
  117DMF     H4 1890   3.120   1.603   1.598  0.5655 -0.2924 -0.9130
  117DMF     H5 1891   3.053   1.639   1.426 -0.7097  2.1501 -0.3173
  117DMF     H6 1892   2.969   1.684   1.568  0.2495  0.1009 -0.6314
  117DMF     H7 1893   3.322   1.729   1.550 -1.0864 -0.6793  0.9526
  118DMF     C1 1894   2.947   0.804   3.384  0.3371 -0.2434 -0.0468
  118DMF     N1 1895   2.932   0.895   3.267  0.2691 -0.4468 -0.2566
  118DMF     C2 1896   2.819   0.871   3.181 -0.5829  0.1254 -0.5772
  118DMF     C3 1897   3.016   0.998   3.243  0.1186  0.1307  0.6361
  118DMF     O1 1898   3.110   1.032   3.314 -0.5888 -0.6778 -0.4116
  118DMF     H1 1899   3.041   0.827   3.436  0.8224  2.0304 -1.8682
  118DMF     H2 1900   2.943   0.698   3.356  0.0655  0.2482 -1.9088
  118DMF     H3 1901   2.859   0.816   3.449 -0.1989  0.0254 -0.8143
  118DMF     H4 1902   2.752   0.811   3.243  0.4310 -0.6834 -0.2396
  118DMF     H5 1903   2.857   0.811   3.097 -0.8696 -0.3494 -0.3702
  118DMF     H6 1904   2.766   0.964   3.156 -2.6065 -0.0012  2.9755
  118DMF     H7 1905   2.986   1.062   3.158 -3.5040  1.3287  2.7224
  119DMF     C1 1906   2.138   0.695   1.189 -0.2850 -0.0122  0.2328
  119DMF     N1 1907   2.101   0.546   1.198 -0.7253 -0.0298  0.9070
  119DMF     C2 1908   2.209   0.448   1.189  0.0043 -0.4932  0.1105
  119DMF     C3 1909   1.967   0.496   1.198 -0.4786  0.1352  0.4751
  119DMF     O1 1910   1.879   0.577   1.195  0.1946  1.0611  0.4804
  119DMF     H1 1911   2.136   0.734   1.087 -0.1805  0.9122  0.5838
  119DMF     H2 1912   2.231   0.725   1.238  0.0654  0.4932 -0.7388
  119DMF     H3 1913   2.057   0.750   1.240 -0.5440 -2.0825  2.1394
  119DMF     H4 1914   2.300   0.475   1.244 -0.7704 -0.0762  1.2043
  119DMF     H5 1915   2.222   0.422   1.083  0.2554  1.0593 -0.2479
  119DMF     H6 1916   2.172   0.355   1.234 -0.4793 -0.7850 -0.8721
  119DMF     H7 1917   1.964   0.386   1.205 -0.8407  0.1382  0.3751
  120DMF     C1 1918   0.528   2.213   3.437 -0.9502 -0.7310  0.5348
  120DMF     N1 1919   0.559   2.326   3.353  1.0604  0.5394 -0.7309
  120DMF     C2 1920   0.668   2.315   3.254  0.0190  0.1860  0.0419
  120DMF     C3 1921   0.475   2.440   3.351 -0.1579  0.2196  0.0560
  120DMF     O1 1922   0.374   2.460   3.421 -0.3623 -0.6425  0.5644
  120DMF     H1 1923   0.622   2.156   3.442  0.9096  2.1127 -0.9810
  120DMF     H2 1924   0.455   2.145   3.392 -0.9677 -0.0066 -0.5572
  120DMF     H3 1925   0.491   2.248   3.534 -2.7208 -0.0981 -0.3641
  120DMF     H4 1926   0.692   2.415   3.216 -2.0253  1.9613  3.2273
  120DMF     H5 1927   0.644   2.251   3.168  1.0125 -0.5365  0.2921
  120DMF     H6 1928   0.759   2.285   3.307  0.6987  0.8882 -0.7028
  120DMF     H7 1929   0.510   2.503   3.267 -3.1945 -1.1826 -2.3563
  121DMF     C1 1930   2.328   3.265   1.298 -0.2386  0.2465 -0.5562
  121DMF     N1 1931   2.381   3.388   1.372  0.4763  0.0070 -0.4402
  121DMF     C2 1932   2.385   3.387   1.519  0.1826  0.5033  0.2009
  121DMF     C3 1933   2.434   3.500   1.306 -0.3960  0.0849  0.0229
  121DMF     O1 1934   2.450   3.489   1.185 -0.4216 -0.8037  0.3648
  121DMF     H1 1935   2.361   3.250   1.195 -0.8277 -1.4470 -0.5027
  121DMF     H2 1936   2.218   3.268   1.296 -0.2873 -1.4352 -0.6644
  121DMF     H3 1937   2.349   3.181   1.365  0.9905  1.7527  0.9976
  121DMF     H4 1938   2.302   3.335   1.570  0.6705  0.8014  1.3254
  121DMF     H5 1939   2.379   3.486   1.568  1.1312  0.7227 -0.1297
  121DMF     H6 1940   2.477   3.340   1.554  0.2720  1.1564  0.8848
  121DMF     H7 1941   2.455   3.587   1.371 -0.3249 -2.2165  3.1694
  122DMF     C1 1942   0.005   0.889   3.334 -0.2492 -0.7270  0.0928
  122DMF     N1 1943   0.147   0.848   3.325  0.5216 -0.5176  0.1898
  122DMF     C2 1944   0.244   0.936   3.388  0.3967 -0.0978  0.2763
  122DMF     C3 1945   0.194   0.738   3.255  0.1693 -0.2291 -0.1398
  122DMF     O1 1946   0.118   0.661   3.202 -0.2195  0.2871  0.5689
  122DMF     H1 1947  -0.046   0.826   3.261 -2.3622  0.3638  0.5765
  122DMF     H2 1948  -0.009   0.995   3.311 -1.8820 -0.8611  0.3772
  122DMF     H3 1949  -0.035   0.866   3.434  0.1404  1.8133  0.8816
  122DMF     H4 1950   0.280   1.020   3.327 -1.1859  0.1110 -0.4063
  122DMF     H5 1951   0.337   0.885   3.415  0.8333  1.8195  2.4998
  122DMF     H6 1952   0.200   0.971   3.481  0.4762  0.5861  0.0559
  122DMF     H7 1953   0.304   0.727   3.248  0.1046 -0.8322 -0.3033
  123DMF     C1 1954   2.206   2.203   2.997 -0.2415  0.9238 -0.5049
  123DMF     N1 1955   2.109   2.316   2.962 -0.0580  0.2173  0.4167
  123DMF     C2 1956   2.044   2.299   2.831  0.1191 -0.1244  0.5064
  123DMF     C3 1957   2.114   2.440   3.028 -0.4921  0.4844 -0.3178
  123DMF     O1 1958   2.180   2.461   3.130 -0.1955 -0.4813 -0.1166
  123DMF     H1 1959   2.247   2.156   2.907  3.0547 -0.4897  1.6576
  123DMF     H2 1960   2.165   2.131   3.069 -0.2338  0.9321 -0.4915
  123DMF     H3 1961   2.287   2.245   3.058  0.7333  0.8682 -1.7446
  123DMF     H4 1962   1.935   2.306   2.830  0.1893  1.0588 -2.0463
  123DMF     H5 1963   2.069   2.203   2.783  1.2021  0.0489  0.6994
  123DMF     H6 1964   2.087   2.377   2.768  1.6863 -0.7637  0.7396
  123DMF     H7 1965   2.066   2.525   2.975  0.7391  0.0130 -2.2207
  124DMF     C1 1966   1.516   0.033   0.733 -0.3831 -0.0441 -0.6530
  124DMF     N1 1967   1.449   0.157   0.690  0.0084  0.0315  0.6336
  124DMF     C2 1968   1.366   0.230   0.780 -0.3374 -0.6213 -0.5748
  124DMF     C3 1969   1.487   0.220   0.568 -0.1310 -0.1412 -0.5207
  124DMF     O1 1970   1.559   0.165   0.482 -0.0766  0.2569 -0.1545
  124DMF     H1 1971   1.448  -0.054   0.733 -0.3602 -0.0991  1.7537
  124DMF     H2 1972   1.573   0.040   0.826  0.3861  1.4901 -1.2283
  124DMF     H3 1973   1.582   0.000   0.652 -1.2463 -2.7703 -0.3258
  124DMF     H4 1974   1.278   0.261   0.722  0.5890 -1.1840 -2.2815
  124DMF     H5 1975   1.424   0.318   0.811  1.8076 -0.9276 -3.5740
  124DMF     H6 1976   1.332   0.180   0.872  1.6112 -1.5386 -0.3220
  124DMF     H7 1977   1.436   0.316   0.552 -1.3181 -0.5575  0.6849
  125DMF     C1 1978   1.903   3.431   3.173  0.3618  0.0261  0.0372
  125DMF     N1 1979   1.756   3.463   3.174 -0.4969  0.0037  0.1150
  125DMF     C2 1980   1.712   3.588   3.223  0.1993 -0.0145  0.2926
  125DMF     C3 1981   1.665   3.386   3.100 -0.0771 -0.0292 -0.2424
  125DMF     O1 1982   1.694   3.281   3.045  0.3227  0.0617  0.0362
  125DMF     H1 1983   1.928   3.341   3.116 -0.9041 -0.7330  0.6633
  125DMF     H2 1984   1.942   3.424   3.275  0.0578  1.4111  0.2596
  125DMF     H3 1985   1.947   3.522   3.129  0.0937  0.5495  0.8557
  125DMF     H4 1986   1.607   3.619   3.216  0.7452  1.7232 -0.6132
  125DMF     H5 1987   1.767   3.669   3.173 -0.3873 -0.6400 -1.3563
  125DMF     H6 1988   1.739   3.591   3.330 -1.5731  2.8825  0.7092
  125DMF     H7 1989   1.564   3.430   3.099  1.4253  3.6668  1.3813
  126DMF     C1 1990   0.604   2.986   0.040 -0.3572  0.5461  0.0587
  126DMF     N1 1991   0.587   2.833   0.061  0.4547  0.1165 -0.3515
  126DMF     C2 1992   0.662   2.769   0.166  0.4846 -0.1702 -0.6776
  126DMF     C3 1993   0.513   2.757  -0.023 -0.2658  0.3503 -0.0377
  126DMF     O1 1994   0.465   2.807  -0.125  0.2023 -0.6614  0.0978
  126DMF     H1 1995   0.514   3.041   0.066  0.0315  0.6343  1.2553
  126DMF     H2 1996   0.637   3.015  -0.061 -1.4765  1.8257  0.0523
  126DMF     H3 1997   0.684   3.007   0.113  0.1053 -1.6024  0.2117
  126DMF     H4 1998   0.664   2.831   0.256 -0.9276  0.6130 -1.1545
  126DMF     H5 1999   0.767   2.765   0.133  0.1220 -0.4208 -1.8433
  126DMF     H6 2000   0.624   2.670   0.192  0.1447 -0.5282 -2.4632
  126DMF     H7 2001   0.507   2.648  -0.002 -1.0291  0.0759 -1.5830
  127DMF     C1 2002   2.862   0.709   3.748  0.3431 -0.1081 -0.3714
  127DMF     N1 2003   2.722   0.662   3.741  0.5203  0.1510 -0.2235
  127DMF     C2 2004   2.648   0.662   3.871  0.4418  0.0667 -0.1228
  127DMF     C3 2005   2.652   0.640   3.617 -0.2540 -0.1200 -0.6110
  127DMF     O1 2006   2.710   0.648   3.505 -0.2487 -0.7890  1.0729
  127DMF     H1 2007   2.923   0.619   3.737  0.2357  0.0523 -2.6448
  127DMF     H2 2008   2.883   0.764   3.841  0.5061 -2.4374  1.0041
  127DMF     H3 2009   2.870   0.781   3.665  2.5515 -0.4663 -0.5017
  127DMF     H4 2010   2.681   0.574   3.928  0.4399 -0.6388 -1.1970
  127DMF     H5 2011   2.540   0.663   3.851  0.4729  1.9314 -0.2973
  127DMF     H6 2012   2.671   0.754   3.926 -1.1111  1.6257 -1.9850
  127DMF     H7 2013   2.546   0.610   3.628 -0.5086  0.8173 -0.4579
  128DMF     C1 2014   0.905   3.147   3.752 -0.4354  0.1221  0.2835
  128DMF     N1 2015   0.939   3.040   3.656  0.3624  0.1975  0.6773
  128DMF     C2 2016   0.910   2.901   3.706  0.0638  0.7860 -0.0279
  128DMF     C3 2017   0.950   3.068   3.520 -0.1149 -0.0761 -0.3991
  128DMF     O1 2018   0.958   3.183   3.472  0.3599  0.3955 -0.2632
  128DMF     H1 2019   0.795   3.154   3.755 -0.6675 -2.7072 -0.6118
  128DMF     H2 2020   0.944   3.246   3.725  1.0962 -0.3557  0.7287
  128DMF     H3 2021   0.950   3.120   3.849  1.4596  0.6378 -0.4362
  128DMF     H4 2022   0.962   2.818   3.657 -3.4608 -0.7782 -1.2725
  128DMF     H5 2023   0.806   2.887   3.673 -0.7678  2.8223  1.6238
  128DMF     H6 2024   0.910   2.887   3.814  0.3456  2.8275  0.2585
  128DMF     H7 2025   0.945   2.976   3.459 -3.7146 -0.2393  0.0195
  129DMF     C1 2026   2.076   2.652   2.295 -0.0369 -0.3080 -0.1337
  129DMF     N1 2027   2.170   2.759   2.333 -0.0665 -0.5554  0.3233
  129DMF     C2 2028   2.273   2.811   2.252 -0.3330  1.4177  0.6632
  129DMF     C3 2029   2.182   2.789   2.466  0.0658 -0.5219 -0.3977
  129DMF     O1 2030   2.109   2.746   2.555 -0.2572 -0.4006  0.3395
  129DMF     H1 2031   1.977   2.701   2.298  0.2934  0.4283 -1.1895
  129DMF     H2 2032   2.074   2.566   2.362 -2.5783  0.5708  0.9945
  129DMF     H3 2033   2.107   2.611   2.198 -1.1328  0.6861 -0.9219
  129DMF     H4 2034   2.284   2.752   2.160 -0.5899  0.6302  1.1308
  129DMF     H5 2035   2.366   2.792   2.308  0.1013  1.9657  0.1384
  129DMF     H6 2036   2.261   2.919   2.233 -2.2202  1.1157  0.0520
  129DMF     H7 2037   2.258   2.869   2.478 -1.1305  0.7049 -0.7833
  130DMF     C1 2038   2.062   2.200   3.363 -0.2569  0.5073 -0.6524
  130DMF     N1 2039   2.130   2.090   3.438 -0.2340  0.5970  0.0843
  130DMF     C2 2040   2.047   2.038   3.554  0.3188 -0.1227  0.4423
  130DMF     C3 2041   2.254   2.027   3.397 -0.3562  0.1048  0.4152
  130DMF     O1 2042   2.317   2.065   3.303  0.1638  0.2538  0.5681
  130DMF     H1 2043   2.101   2.298   3.394  2.9400 -1.3657  1.6350
  130DMF     H2 2044   1.953   2.203   3.375 -0.5415  2.4515 -3.2585
  130DMF     H3 2045   2.084   2.193   3.256 -0.7092  0.3930 -0.7359
  130DMF     H4 2046   2.041   1.929   3.540 -1.3392  0.2352 -1.8430
  130DMF     H5 2047   1.951   2.090   3.544  0.5276 -0.2759 -2.9141
  130DMF     H6 2048   2.103   2.061   3.645  2.5880 -2.0333 -0.4145
  130DMF     H7 2049   2.281   1.940   3.460  0.3593  1.0086  1.3837
  131DMF     C1 2050   0.774   1.185   0.760  0.2043 -0.1937  1.0045
  131DMF     N1 2051   0.695   1.165   0.635 -0.8843 -0.9031 -0.4006
  131DMF     C2 2052   0.751   1.077   0.537  0.0935  0.0896 -0.1407
  131DMF     C3 2053   0.590   1.248   0.606 -0.8576  1.2810 -0.1353
  131DMF     O1 2054   0.551   1.343   0.669 -0.0845 -0.2528  0.1172
  131DMF     H1 2055   0.871   1.226   0.731 -0.1057  1.0411  1.6612
  131DMF     H2 2056   0.796   1.084   0.797  2.2208 -0.3787 -0.6483
  131DMF     H3 2057   0.722   1.240   0.840 -0.9114  1.8495 -1.0544
  131DMF     H4 2058   0.695   1.090   0.443 -1.4047 -0.9396  0.5926
  131DMF     H5 2059   0.732   0.975   0.573  0.7578  0.7212  2.0912
  131DMF     H6 2060   0.859   1.094   0.529  0.0302  0.3071 -0.5427
  131DMF     H7 2061   0.541   1.211   0.514  0.8718  1.2633 -1.0704
  132DMF     C1 2062   2.366   0.606   1.519  0.6223  0.2217 -0.7596
  132DMF     N1 2063   2.238   0.528   1.555  0.0647  0.6792 -0.1203
  132DMF     C2 2064   2.113   0.609   1.556 -1.4702  0.2014  0.2970
  132DMF     C3 2065   2.246   0.387   1.579 -0.5256 -0.3619  0.3945
  132DMF     O1 2066   2.352   0.325   1.565  0.2748 -0.0928 -0.1098
  132DMF     H1 2067   2.384   0.630   1.414  1.7233  1.6007 -0.2660
  132DMF     H2 2068   2.450   0.543   1.552 -0.2701  0.5955  2.4123
  132DMF     H3 2069   2.371   0.694   1.585  1.4836 -0.1393 -0.3367
  132DMF     H4 2070   2.043   0.570   1.631 -0.0269 -1.3391  0.8852
  132DMF     H5 2071   2.076   0.589   1.455  1.0626  1.5772 -0.9526
  132DMF     H6 2072   2.135   0.714   1.577  1.1898 -0.7576  2.6782
  132DMF     H7 2073   2.153   0.343   1.620 -0.7526 -2.0858 -1.8705
  133DMF     C1 2074   2.825   1.271   0.931 -0.1891 -0.5435 -0.2653
  133DMF     N1 2075   2.738   1.263   0.809  0.1861 -0.5999  0.4576
  133DMF     C2 2076   2.591   1.273   0.815  0.0206  0.5647 -0.0141
  133DMF     C3 2077   2.809   1.252   0.681  0.2429 -0.1128  0.2628
  133DMF     O1 2078   2.926   1.250   0.671 -0.2135  0.0274 -0.3873
  133DMF     H1 2079   2.905   1.344   0.912  0.0085 -0.5992  0.3436
  133DMF     H2 2080   2.868   1.173   0.956 -1.7002 -0.4302  3.1032
  133DMF     H3 2081   2.758   1.304   1.011 -1.1651 -2.2449 -0.3453
  133DMF     H4 2082   2.559   1.378   0.810 -1.5633  0.1671  1.1732
  133DMF     H5 2083   2.553   1.214   0.899 -0.9077  1.5135  0.2464
  133DMF     H6 2084   2.552   1.226   0.724 -2.2569  0.4956  0.9743
  133DMF     H7 2085   2.736   1.228   0.602  0.5324 -1.9871  0.5471
  134DMF     C1 2086   0.481   3.365   1.334 -0.2082  0.5177  0.6857
  134DMF     N1 2087   0.524   3.406   1.469  0.6555  0.1688  0.0643
  134DMF     C2 2088   0.668   3.382   1.509  0.4559 -0.3375  0.5719
  134DMF     C3 2089   0.435   3.464   1.563 -0.0721 -0.3178 -0.5374
  134DMF     O1 2090   0.319   3.474   1.547 -0.8544 -0.1588  0.2736
  134DMF     H1 2091   0.381   3.322   1.344 -0.9520  2.5044  2.1141
  134DMF     H2 2092   0.547   3.295   1.280 -0.0911 -0.1529  1.6887
  134DMF     H3 2093   0.477   3.453   1.268  1.0137  0.8021  0.9913
  134DMF     H4 2094   0.728   3.469   1.479 -1.1691  1.2458  1.8050
  134DMF     H5 2095   0.700   3.284   1.473 -1.7991 -0.8108 -0.2255
  134DMF     H6 2096   0.685   3.365   1.615 -0.0992 -3.3924  0.2147
  134DMF     H7 2097   0.489   3.485   1.657 -2.0832  1.6579  0.2308
  135DMF     C1 2098   3.087   1.131   0.278 -0.4087  0.2346 -0.7735
  135DMF     N1 2099   3.084   1.233   0.388 -0.4296 -0.0601 -0.1590
  135DMF     C2 2100   3.183   1.211   0.501  0.6502 -1.1027  0.7083
  135DMF     C3 2101   3.011   1.355   0.384 -0.4090 -0.2435  0.5460
  135DMF     O1 2102   2.932   1.371   0.290  0.5909  0.6739  0.0108
  135DMF     H1 2103   2.999   1.145   0.214 -0.0645 -0.0380 -1.3072
  135DMF     H2 2104   3.089   1.027   0.313 -1.9023  1.0463  1.8515
  135DMF     H3 2105   3.174   1.151   0.215  0.1461  0.2008 -0.0180
  135DMF     H4 2106   3.137   1.200   0.600  0.3279 -1.4764  0.5212
  135DMF     H5 2107   3.250   1.297   0.512  0.0529 -0.7060  1.3477
  135DMF     H6 2108   3.231   1.115   0.481  0.2548 -0.7332 -2.2284
  135DMF     H7 2109   3.030   1.416   0.474 -0.5928 -1.0319  1.1180
  136DMF     C1 2110   2.722   0.086   2.296  0.4477 -0.3749  0.7820
  136DMF     N1 2111   2.846  -0.003   2.287 -0.3609  0.2299  0.1547
  136DMF     C2 2112   2.973   0.064   2.270 -0.2207  0.1972  0.0900
  136DMF     C3 2113   2.826  -0.144   2.271  0.4284 -1.5013  0.3308
  136DMF     O1 2114   2.715  -0.194   2.281 -0.4028 -0.1752  0.7462
  136DMF     H1 2115   2.732   0.165   2.372 -1.6192  1.4808 -0.8294
  136DMF     H2 2116   2.627   0.032   2.301  0.8130 -1.2038 -0.9456
  136DMF     H3 2117   2.709   0.141   2.203 -2.5277 -0.9898  0.7849
  136DMF     H4 2118   2.980   0.106   2.169 -1.3163 -1.5600 -0.7302
  136DMF     H5 2119   3.051  -0.007   2.299  0.1500  0.5846  0.0398
  136DMF     H6 2120   2.994   0.143   2.344 -0.2931  0.2424  0.0628
  136DMF     H7 2121   2.917  -0.203   2.252  0.8971 -0.5694 -0.3342
  137DMF     C1 2122   2.195   3.096   0.313  0.6566  0.4389 -0.3671
  137DMF     N1 2123   2.229   3.145   0.179  0.0984  0.4045 -0.3511
  137DMF     C2 2124   2.225   3.291   0.159 -0.3847 -0.1087 -0.1310
  137DMF     C3 2125   2.275   3.057   0.086  0.6985 -0.2096  0.2012
  137DMF     O1 2126   2.263   2.936   0.098  0.3099  0.1871 -0.4497
  137DMF     H1 2127   2.155   3.174   0.379  1.2619 -0.6280  1.2941
  137DMF     H2 2128   2.287   3.066   0.364  0.1029  0.4261  0.6336
  137DMF     H3 2129   2.123   3.016   0.293  0.5828  0.5202 -0.4324
  137DMF     H4 2130   2.122   3.326   0.151 -0.1862  1.0303  2.0579
  137DMF     H5 2131   2.288   3.320   0.073  0.6915 -0.0768  0.6530
  137DMF     H6 2132   2.276   3.342   0.242  3.2538  0.1545 -2.3784
  137DMF     H7 2133   2.308   3.104  -0.008 -0.5424 -2.2988 -1.3397
  138DMF     C1 2134   1.359   1.669   2.558 -0.7685  0.5037 -0.5640
  138DMF     N1 2135   1.378   1.671   2.702  0.0593  0.3772  0.3045
  138DMF     C2 2136   1.305   1.569   2.783 -0.5459 -0.0268  0.4326
  138DMF     C3 2137   1.476   1.751   2.763  0.1672 -0.6787  0.1035
  138DMF     O1 2138   1.543   1.831   2.698  0.1296  0.6125  0.2709
  138DMF     H1 2139   1.414   1.587   2.510 -2.2143 -0.3017 -0.8785
  138DMF     H2 2140   1.396   1.762   2.513 -0.9725  2.2425  2.7318
  138DMF     H3 2141   1.254   1.652   2.532  0.0327  0.5012 -4.0236
  138DMF     H4 2142   1.218   1.606   2.837 -1.3997 -0.3029 -0.7240
  138DMF     H5 2143   1.384   1.536   2.852  1.1402 -2.8337 -2.6202
  138DMF     H6 2144   1.265   1.497   2.711 -1.0767  0.4325  0.2709
  138DMF     H7 2145   1.490   1.727   2.870  0.8827 -1.0761 -0.0750
  139DMF     C1 2146   1.838   1.759   3.281 -0.4272 -0.0686 -0.3002
  139DMF     N1 2147   1.830   1.730   3.131 -0.3222  0.2352  0.0848
  139DMF     C2 2148   1.695   1.748   3.064 -0.2734 -0.3276  0.1149
  139DMF     C3 2149   1.916   1.635   3.079 -0.3394 -0.3034  0.7784
  139DMF     O1 2150   1.997   1.582   3.155  0.5411 -0.4149  0.0002
  139DMF     H1 2151   1.796   1.858   3.303  1.0525  0.1262  1.7528
  139DMF     H2 2152   1.941   1.758   3.319 -0.0390 -1.0671 -1.3339
  139DMF     H3 2153   1.794   1.682   3.346  1.8935 -0.8891  0.3327
  139DMF     H4 2154   1.648   1.649   3.063  0.5391 -0.7329  0.6978
  139DMF     H5 2155   1.700   1.784   2.961  1.4155 -1.0490 -0.0720
  139DMF     H6 2156   1.636   1.824   3.117 -2.1236 -1.0773 -0.8158
  139DMF     H7 2157   1.899   1.604   2.975  0.3856 -0.7222  0.7768
  140DMF     C1 2158   0.235   2.583   3.707  0.2722  0.6902 -0.6757
  140DMF     N1 2159   0.265   2.485   3.814  0.0758 -0.0651  0.4080
  140DMF     C2 2160   0.311   2.356   3.778  0.0566  0.3429 -0.4696
  140DMF     C3 2161   0.273   2.530   3.947 -0.3430  0.6205 -0.5059
  140DMF     O1 2162   0.234   2.635   3.991 -0.1367  0.2146  0.2849
  140DMF     H1 2163   0.325   2.615   3.653  0.8526  0.8074  0.3441
  140DMF     H2 2164   0.177   2.667   3.747 -0.3479 -0.1322  0.1815
  140DMF     H3 2165   0.161   2.529   3.647  2.2634  0.0431 -2.6522
  140DMF     H4 2166   0.400   2.328   3.836 -0.2513  3.5995  1.6657
  140DMF     H5 2167   0.317   2.343   3.669 -0.4903  0.2331 -0.4853
  140DMF     H6 2168   0.232   2.292   3.820  0.4901  1.1925  1.7188
  140DMF     H7 2169   0.311   2.450   4.013 -1.1695  0.4172 -0.2833
  141DMF     C1 2170   2.736   2.775   2.666 -0.2959 -0.1933  0.4754
  141DMF     N1 2171   2.651   2.874   2.741  0.1173  0.3933 -0.6571
  141DMF     C2 2172   2.666   2.876   2.886 -0.1621 -0.1366 -0.1853
  141DMF     C3 2173   2.553   2.938   2.677 -0.3392  0.1346 -0.6080
  141DMF     O1 2174   2.523   2.905   2.566 -0.3496 -0.0313  0.5327
  141DMF     H1 2175   2.789   2.709   2.735  2.0881 -1.4988 -2.4652
  141DMF     H2 2176   2.812   2.829   2.608 -0.4752 -1.7055 -1.2084
  141DMF     H3 2177   2.684   2.711   2.593  0.9834  0.1909 -0.8056
  141DMF     H4 2178   2.753   2.931   2.925 -1.1218  0.9659  0.4399
  141DMF     H5 2179   2.662   2.779   2.936  2.2639  0.2839  0.9310
  141DMF     H6 2180   2.588   2.931   2.940 -0.5394 -0.3713 -0.4971
  141DMF     H7 2181   2.502   3.021   2.729 -2.2767 -0.5112 -1.4260
  142DMF     C1 2182   1.567   1.973   0.732  0.5486  0.0729 -0.0523
  142DMF     N1 2183   1.460   1.875   0.689  0.2692 -0.3541 -0.0911
  142DMF     C2 2184   1.384   1.811   0.789  0.1499  0.2455 -0.2311
  142DMF     C3 2185   1.429   1.848   0.552 -0.2916  1.0125 -0.1895
  142DMF     O1 2186   1.494   1.886   0.459  0.6082 -0.0320  0.8424
  142DMF     H1 2187   1.652   1.921   0.779  1.1670  1.2624  0.1770
  142DMF     H2 2188   1.527   2.039   0.810 -0.2146 -1.4917  0.9316
  142DMF     H3 2189   1.590   2.030   0.642 -1.0713  0.3339 -0.3142
  142DMF     H4 2190   1.288   1.863   0.803  0.4428  0.9497 -0.8366
  142DMF     H5 2191   1.436   1.823   0.885  0.2739 -1.7816 -0.0202
  142DMF     H6 2192   1.382   1.702   0.775 -0.5692  0.1875  0.2643
  142DMF     H7 2193   1.336   1.790   0.540  0.9042 -1.0133 -0.0225
  143DMF     C1 2194   3.151   0.939   1.207 -0.9304  1.1634 -0.0872
  143DMF     N1 2195   3.176   1.077   1.168  0.0519  0.5184  0.4265
  143DMF     C2 2196   3.053   1.150   1.121  0.0153  0.1378 -0.0167
  143DMF     C3 2197   3.296   1.144   1.194 -0.1837  0.0651  0.8028
  143DMF     O1 2198   3.399   1.085   1.239  0.1353  0.0060 -0.2425
  143DMF     H1 2199   3.240   0.897   1.256 -1.1641  1.4802  0.6159
  143DMF     H2 2200   3.132   0.885   1.113 -1.8934  0.4334  0.5248
  143DMF     H3 2201   3.069   0.935   1.279  0.2709 -0.1727  1.2365
  143DMF     H4 2202   3.014   1.211   1.203 -0.3070 -1.6430  1.1963
  143DMF     H5 2203   2.974   1.080   1.092 -0.1596  0.6205 -0.7295
  143DMF     H6 2204   3.086   1.219   1.043 -0.7484  1.5605  0.9054
  143DMF     H7 2205   3.288   1.251   1.171 -1.1084 -0.1765 -0.0209
  144DMF     C1 2206   2.757   1.022   0.407  0.0663  0.0171 -0.2051
  144DMF     N1 2207   2.699   0.922   0.496  0.2925  0.5869  0.5031
  144DMF     C2 2208   2.791   0.874   0.598  0.5418  0.5195 -0.5257
  144DMF     C3 2209   2.564   0.877   0.487  0.3627  0.1791  0.3032
  144DMF     O1 2210   2.489   0.923   0.406 -0.0841  0.3308  0.2648
  144DMF     H1 2211   2.860   1.041   0.440  0.3079 -1.6091 -0.0016
  144DMF     H2 2212   2.708   1.120   0.416 -0.5451 -0.1618 -1.4842
  144DMF     H3 2213   2.757   0.990   0.302  0.3274 -1.6100  0.2733
  144DMF     H4 2214   2.732   0.812   0.667 -0.2597  1.8092 -0.0259
  144DMF     H5 2215   2.844   0.954   0.650  0.2361  0.0761  0.4792
  144DMF     H6 2216   2.870   0.816   0.550  0.1063  0.4629 -1.1791
  144DMF     H7 2217   2.543   0.793   0.556  0.1431 -2.2553 -2.6160
  145DMF     C1 2218   1.012   3.241   1.550  0.0975 -0.5227 -0.1560
  145DMF     N1 2219   1.036   3.200   1.416  0.4545  0.5174  0.5507
  145DMF     C2 2220   1.069   3.060   1.388 -0.2573 -0.6650 -0.7084
  145DMF     C3 2221   0.993   3.286   1.308  0.3879  0.2226 -0.0633
  145DMF     O1 2222   0.946   3.401   1.323 -0.0595  0.4179 -0.2916
  145DMF     H1 2223   0.994   3.154   1.614  2.3485 -0.3535  0.7780
  145DMF     H2 2224   0.930   3.313   1.557  1.7172  1.3450  0.3024
  145DMF     H3 2225   1.103   3.292   1.585 -0.6581  0.8936 -0.2033
  145DMF     H4 2226   0.990   3.015   1.326 -0.0028 -2.2875  0.1152
  145DMF     H5 2227   1.086   2.993   1.473 -0.3899  1.1861  0.7763
  145DMF     H6 2228   1.155   3.054   1.320 -1.4410  1.8785 -2.5280
  145DMF     H7 2229   1.012   3.233   1.213 -1.7796 -0.3719 -0.1908
  146DMF     C1 2230   3.383   0.030   0.753  0.6420 -0.0606  0.1353
  146DMF     N1 2231   3.445  -0.054   0.650  0.3517  0.1508 -1.0666
  146DMF     C2 2232   3.402  -0.194   0.642 -0.3700 -0.8657 -0.5510
  146DMF     C3 2233   3.563  -0.016   0.584 -0.1458  0.0015 -0.2531
  146DMF     O1 2234   3.613   0.096   0.585  0.6958 -0.2647  0.2869
  146DMF     H1 2235   3.437   0.039   0.847 -0.5862 -0.3420  0.8857
  146DMF     H2 2236   3.291  -0.025   0.777  1.4896 -2.2125 -1.3973
  146DMF     H3 2237   3.343   0.124   0.712  0.6099  0.1412  0.6278
  146DMF     H4 2238   3.422  -0.239   0.741 -0.3953  2.0523  0.8324
  146DMF     H5 2239   3.469  -0.250   0.576  0.4801 -1.0987  0.4834
  146DMF     H6 2240   3.294  -0.206   0.624 -0.5002 -2.5108  1.1201
  146DMF     H7 2241   3.606  -0.096   0.520  0.3668  0.8638 -1.0049
  147DMF     C1 2242   2.938   2.699   1.286  0.2581 -0.2775 -0.8875
  147DMF     N1 2243   2.896   2.571   1.221  0.0655 -0.1544 -0.3626
  147DMF     C2 2244   2.864   2.456   1.315  0.0722 -0.5996  0.1212
  147DMF     C3 2245   2.896   2.556   1.078  0.0799  0.5459 -0.0040
  147DMF     O1 2246   2.929   2.651   1.016  0.8192 -0.0728  0.0956
  147DMF     H1 2247   2.847   2.746   1.326 -0.0430 -0.8284 -0.9248
  147DMF     H2 2248   2.999   2.760   1.218 -0.6083  1.3933 -0.1992
  147DMF     H3 2249   3.011   2.677   1.365  0.9747 -0.8872 -1.7118
  147DMF     H4 2250   2.952   2.394   1.336 -1.0317 -1.9238  0.8923
  147DMF     H5 2251   2.783   2.394   1.275  1.2424 -0.8744 -1.9310
  147DMF     H6 2252   2.831   2.500   1.410  1.1034 -1.4623  0.8972
  147DMF     H7 2253   2.856   2.461   1.037  2.1042 -0.0404 -0.6768
  148DMF     C1 2254   2.772   1.643   1.240  0.3693  0.9309  0.0118
  148DMF     N1 2255   2.747   1.496   1.240  0.2975 -0.1826 -0.0152
  148DMF     C2 2256   2.611   1.451   1.189 -0.0901 -0.3127 -0.0347
  148DMF     C3 2257   2.832   1.408   1.288 -1.0301  0.4144 -0.1620
  148DMF     O1 2258   2.936   1.433   1.333  0.3037 -0.6756 -0.0418
  148DMF     H1 2259   2.680   1.702   1.233  1.5675  2.6631 -1.7156
  148DMF     H2 2260   2.847   1.661   1.162 -0.0786 -0.1675 -0.6742
  148DMF     H3 2261   2.815   1.672   1.337 -1.4213  0.8192  0.8582
  148DMF     H4 2262   2.621   1.454   1.080  1.3915 -2.3113  0.0054
  148DMF     H5 2263   2.530   1.522   1.210  1.1976  1.1043  0.2006
  148DMF     H6 2264   2.595   1.345   1.214  2.0170 -0.2232  1.8090
  148DMF     H7 2265   2.800   1.306   1.261  0.5927 -0.5673  1.5099
  149DMF     C1 2266   1.562   2.488   1.235  0.1671  0.1552 -0.2464
  149DMF     N1 2267   1.643   2.539   1.120  0.2401 -0.8133  0.2526
  149DMF     C2 2268   1.786   2.543   1.129  0.2482  0.0893 -0.5542
  149DMF     C3 2269   1.582   2.567   0.994  0.1529 -0.6029 -0.0062
  149DMF     O1 2270   1.463   2.589   0.985 -0.2178  0.1234 -0.0471
  149DMF     H1 2271   1.637   2.454   1.307 -1.1711 -2.1694  0.0828
  149DMF     H2 2272   1.507   2.398   1.206  0.3470  0.6219 -2.1316
  149DMF     H3 2273   1.497   2.564   1.281  0.2569 -1.6605  3.0012
  149DMF     H4 2274   1.826   2.623   1.065  0.5969 -0.1161 -0.5934
  149DMF     H5 2275   1.827   2.453   1.082 -1.1009 -1.5784  1.3804
  149DMF     H6 2276   1.823   2.561   1.231 -0.7162  1.8156 -0.4760
  149DMF     H7 2277   1.653   2.579   0.910 -0.2553  0.3129 -0.2251
  150DMF     C1 2278   0.390   0.228   3.285 -0.2229 -0.3551  0.1034
  150DMF     N1 2279   0.254   0.236   3.356  0.0984  0.1777 -0.2188
  150DMF     C2 2280   0.225   0.366   3.415  0.5268  0.0454  0.2814
  150DMF     C3 2281   0.182   0.128   3.397  0.2745 -1.0416  0.1627
  150DMF     O1 2282   0.212   0.013   3.372 -0.3322 -0.8424 -0.2022
  150DMF     H1 2283   0.380   0.242   3.177 -0.1049  1.7752  0.3488
  150DMF     H2 2284   0.442   0.138   3.320 -1.7027 -1.0038  0.6914
  150DMF     H3 2285   0.453   0.308   3.328  2.1831 -2.3967  0.5180
  150DMF     H4 2286   0.262   0.446   3.351 -0.2365 -0.0462 -0.2731
  150DMF     H5 2287   0.276   0.367   3.513 -1.7325  2.7283  1.4946
  150DMF     H6 2288   0.118   0.385   3.416  0.6409  0.6608  0.7359
  150DMF     H7 2289   0.082   0.156   3.435  0.1277 -1.1007 -0.1757
  151DMF     C1 2290   2.498   1.772   2.861 -1.0035 -0.5028 -0.3790
  151DMF     N1 2291   2.493   1.868   2.975  0.2296 -0.0552  0.1922
  151DMF     C2 2292   2.512   1.811   3.110  0.3933  0.1159 -0.0028
  151DMF     C3 2293   2.458   2.002   2.970  0.4370 -0.3929  0.5450
  151DMF     O1 2294   2.461   2.063   2.860 -0.4651 -0.6888 -0.2448
  151DMF     H1 2295   2.594   1.720   2.871 -0.7023  0.0366 -0.4402
  151DMF     H2 2296   2.493   1.829   2.767  4.2352 -0.6969 -0.8986
  151DMF     H3 2297   2.407   1.710   2.864 -1.6396  0.1922 -3.3994
  151DMF     H4 2298   2.601   1.854   3.158 -1.3284  2.5535  1.0961
  151DMF     H5 2299   2.507   1.701   3.109 -0.2400  0.1439  0.2245
  151DMF     H6 2300   2.436   1.849   3.180  0.3780  0.6902 -0.3338
  151DMF     H7 2301   2.453   2.055   3.067 -0.4061  0.2412  0.1634
  152DMF     C1 2302   1.939   1.514   0.044  0.2473 -0.4306 -0.1799
  152DMF     N1 2303   2.003   1.431   0.149  0.3393  0.1266  0.3217
  152DMF     C2 2304   2.138   1.469   0.199  0.2182 -0.6105 -0.1008
  152DMF     C3 2305   1.935   1.328   0.211  1.2357 -0.5781  0.1081
  152DMF     O1 2306   1.824   1.292   0.177  0.5331  0.2200 -0.2244
  152DMF     H1 2307   2.015   1.519  -0.034  0.8684  0.5633  0.4762
  152DMF     H2 2308   1.919   1.617   0.076 -1.3443 -0.9526  0.5208
  152DMF     H3 2309   1.845   1.470   0.009 -0.2034 -0.0949  0.5951
  152DMF     H4 2310   2.211   1.396   0.162  0.5802 -0.0866 -0.4356
  152DMF     H5 2311   2.142   1.460   0.308 -1.2270 -1.4211 -0.1083
  152DMF     H6 2312   2.157   1.575   0.175 -0.2709 -1.0880 -2.7637
  152DMF     H7 2313   1.987   1.278   0.295  2.3020 -1.9102 -1.3098
  153DMF     C1 2314   1.915   0.222   0.564 -0.6591 -0.6221 -0.1884
  153DMF     N1 2315   1.930   0.080   0.595  0.0506  0.3388  0.5866
  153DMF     C2 2316   1.956   0.051   0.742 -0.1747  0.2610 -0.5160
  153DMF     C3 2317   1.957  -0.018   0.496 -1.0191 -0.6404 -0.2425
  153DMF     O1 2318   1.941   0.000   0.374 -0.3685  0.0926 -0.8198
  153DMF     H1 2319   1.931   0.238   0.456 -5.4566 -1.4733 -1.1507
  153DMF     H2 2320   1.982   0.283   0.625  0.2508 -1.2818 -0.5187
  153DMF     H3 2321   1.814   0.259   0.586  0.4520  0.5968  3.0192
  153DMF     H4 2322   1.887  -0.028   0.776 -1.2386  0.9989 -0.9229
  153DMF     H5 2323   1.946   0.140   0.805  0.0864 -0.0743  0.0026
  153DMF     H6 2324   2.056   0.012   0.762 -0.3874 -0.8378 -1.5135
  153DMF     H7 2325   1.998  -0.112   0.536  0.5520  0.6132  1.1902
  154DMF     C1 2326   0.669   2.573   2.637 -0.0706 -0.3959 -0.3113
  154DMF     N1 2327   0.734   2.664   2.732  0.2065  0.0050 -0.1229
  154DMF     C2 2328   0.812   2.774   2.665  0.1270 -0.5582 -0.5098
  154DMF     C3 2329   0.745   2.630   2.870 -0.2158  0.6804  0.3887
  154DMF     O1 2330   0.701   2.528   2.924 -0.3719  0.2335  0.4656
  154DMF     H1 2331   0.644   2.612   2.538 -4.4490 -1.7624  0.1188
  154DMF     H2 2332   0.579   2.541   2.691 -1.1531  1.4743 -0.9590
  154DMF     H3 2333   0.731   2.483   2.628 -1.9366 -1.5794 -1.6641
  154DMF     H4 2334   0.919   2.750   2.663  0.4821  0.7279  1.6368
  154DMF     H5 2335   0.807   2.869   2.721  0.3463 -0.9355  0.1566
  154DMF     H6 2336   0.773   2.795   2.565  0.9504  2.5537 -0.2417
  154DMF     H7 2337   0.794   2.715   2.920 -1.2142  0.5374  1.6450
  155DMF     C1 2338   2.810   2.219   0.803  0.5822  0.4783  0.7360
  155DMF     N1 2339   2.943   2.268   0.773 -0.4122 -0.3165  0.1411
  155DMF     C2 2340   2.981   2.315   0.638  0.5316 -0.1486  0.3782
  155DMF     C3 2341   3.032   2.269   0.883  0.2812  0.0965 -0.6116
  155DMF     O1 2342   2.998   2.254   1.001  0.0121 -0.5812  0.4621
  155DMF     H1 2343   2.811   2.110   0.814  2.8659  0.4528  0.4020
  155DMF     H2 2344   2.746   2.246   0.717  2.9831 -0.5456 -1.4224
  155DMF     H3 2345   2.765   2.265   0.892  0.0786 -2.1318  1.8855
  155DMF     H4 2346   2.939   2.262   0.551  1.6773 -0.5061  0.0440
  155DMF     H5 2347   3.090   2.314   0.639  0.5496  1.6060  1.5385
  155DMF     H6 2348   2.951   2.420   0.626 -2.9290 -1.1499 -0.5702
  155DMF     H7 2349   3.137   2.290   0.855  0.6613  0.8576  1.3038
  156DMF     C1 2350   0.893   1.499   0.150 -0.0387 -0.6815  1.0395
  156DMF     N1 2351   1.025   1.467   0.088  0.0315 -0.4615  0.2765
  156DMF     C2 2352   1.034   1.457  -0.059 -0.1129 -0.8906 -0.3536
  156DMF     C3 2353   1.147   1.492   0.155 -0.0589  0.4747 -0.6039
  156DMF     O1 2354   1.149   1.487   0.278  0.2049 -0.1351 -0.5555
  156DMF     H1 2355   0.880   1.608   0.149 -1.4911 -0.8495 -0.8582
  156DMF     H2 2356   0.888   1.452   0.249  0.5823 -2.5913  0.1807
  156DMF     H3 2357   0.817   1.457   0.084  2.3291 -2.0244 -0.9136
  156DMF     H4 2358   0.955   1.511  -0.112 -1.0083 -0.5471  1.3054
  156DMF     H5 2359   1.025   1.354  -0.094  0.2798 -1.3356  0.8324
  156DMF     H6 2360   1.133   1.496  -0.086 -0.4804  0.6719  0.5023
  156DMF     H7 2361   1.237   1.519   0.097  0.0231  1.1396 -0.1692
  157DMF     C1 2362   2.184   1.676   3.471 -0.5760 -0.4451  0.6720
  157DMF     N1 2363   2.298   1.662   3.569  0.4680 -0.9121 -0.3931
  157DMF     C2 2364   2.269   1.601   3.701  0.6323 -0.1215 -0.1436
  157DMF     C3 2365   2.424   1.687   3.531 -0.1126  0.1947  0.1393
  157DMF     O1 2366   2.454   1.733   3.423  0.9050  0.2303  0.3114
  157DMF     H1 2367   2.213   1.732   3.381 -1.8980 -1.8441 -0.6643
  157DMF     H2 2368   2.091   1.718   3.511  0.1109  0.4952  1.3073
  157DMF     H3 2369   2.165   1.577   3.428  2.0647 -1.0735  0.8268
  157DMF     H4 2370   2.220   1.504   3.685 -1.3009  0.3712  2.4316
  157DMF     H5 2371   2.205   1.658   3.770 -0.3009  2.3815 -2.9765
  157DMF     H6 2372   2.367   1.579   3.744 -0.2308 -2.3935  0.7095
  157DMF     H7 2373   2.502   1.667   3.606 -0.8030 -0.1643  0.7689
  158DMF     C1 2374   3.220   0.482   0.294 -0.1910 -0.0569 -0.3414
  158DMF     N1 2375   3.240   0.336   0.327  0.3197 -0.0655  0.9399
  158DMF     C2 2376   3.378   0.285   0.334  0.4417  0.6712  0.8193
  158DMF     C3 2377   3.121   0.254   0.357 -0.1363 -0.4170 -0.0993
  158DMF     O1 2378   3.001   0.287   0.348  0.1610 -0.2925  0.0756
  158DMF     H1 2379   3.155   0.481   0.206 -1.5305  0.2760  0.6321
  158DMF     H2 2380   3.321   0.515   0.269 -0.2433  0.8022  0.5283
  158DMF     H3 2381   3.182   0.544   0.377 -0.5840 -1.3109  0.4427
  158DMF     H4 2382   3.383   0.179   0.306  1.7730  1.0202 -0.3517
  158DMF     H5 2383   3.419   0.306   0.433  0.0863  0.4965  1.0028
  158DMF     H6 2384   3.439   0.320   0.249 -1.7521  1.0571 -0.6271
  158DMF     H7 2385   3.153   0.150   0.376  0.4421  0.0209  1.3559
  159DMF     C1 2386   1.878   2.901   0.571 -0.4209  0.5751  0.3337
  159DMF     N1 2387   1.759   2.965   0.513 -1.1560  0.4669 -0.4912
  159DMF     C2 2388   1.682   2.877   0.417 -0.6780 -0.2728  0.0734
  159DMF     C3 2389   1.712   3.094   0.543  0.6629 -0.7209  0.7947
  159DMF     O1 2390   1.758   3.174   0.624 -0.4170 -0.1352 -0.2956
  159DMF     H1 2391   1.872   2.902   0.680 -0.2780 -0.0440  0.3493
  159DMF     H2 2392   1.963   2.960   0.532  0.8486 -0.9861  0.6864
  159DMF     H3 2393   1.891   2.803   0.523 -0.3109 -0.1101  1.7281
  159DMF     H4 2394   1.575   2.893   0.437 -0.7261  0.5436 -0.7697
  159DMF     H5 2395   1.709   2.771   0.424  1.9167  0.4077  0.7822
  159DMF     H6 2396   1.708   2.905   0.314  0.6983  1.7271  0.9330
  159DMF     H7 2397   1.633   3.121   0.470  1.0336 -2.9728 -0.4986
  160DMF     C1 2398   2.856   2.921   3.223  0.2986  0.0455  0.8025
  160DMF     N1 2399   2.886   2.784   3.189  0.2403  0.5946 -0.1273
  160DMF     C2 2400   3.025   2.754   3.152 -0.3163 -0.0429 -0.3993
  160DMF     C3 2401   2.789   2.678   3.196  0.3226  0.7959  0.1900
  160DMF     O1 2402   2.675   2.695   3.234 -0.0007  0.5834 -0.0880
  160DMF     H1 2403   2.753   2.937   3.258  0.6173  3.0500  0.5153
  160DMF     H2 2404   2.873   2.974   3.128  0.4854 -0.3988  0.5923
  160DMF     H3 2405   2.928   2.946   3.301  1.7603 -0.2236 -0.4374
  160DMF     H4 2406   3.032   2.699   3.057  1.4259  1.1052 -0.9523
  160DMF     H5 2407   3.064   2.698   3.238 -3.1072 -0.1748  0.8256
  160DMF     H6 2408   3.076   2.851   3.145 -1.5941  0.6536 -0.1780
  160DMF     H7 2409   2.823   2.582   3.153 -0.4448  1.2115 -1.4143
  161DMF     C1 2410   1.010   3.065   3.198  0.1033 -0.6373  0.2433
  161DMF     N1 2411   1.046   2.916   3.197 -0.2114  0.4506  0.1107
  161DMF     C2 2412   0.992   2.824   3.089 -0.3466  0.0447 -0.0751
  161DMF     C3 2413   1.134   2.860   3.298 -0.3645  0.2433  0.1647
  161DMF     O1 2414   1.184   2.924   3.385  0.2019  0.5866 -0.5633
  161DMF     H1 2415   1.009   3.114   3.100 -0.4139  0.1464  0.6351
  161DMF     H2 2416   1.079   3.128   3.256 -0.7045  0.8403 -0.3728
  161DMF     H3 2417   0.918   3.072   3.257  1.7185  0.6964  2.6973
  161DMF     H4 2418   0.900   2.871   3.050  0.6617  2.3829  0.2980
  161DMF     H5 2419   0.970   2.727   3.133  0.1998 -0.0405  0.0050
  161DMF     H6 2420   1.063   2.822   3.005  0.7458 -1.0794  0.8703
  161DMF     H7 2421   1.146   2.751   3.288 -1.7773  0.0058  0.9048
  162DMF     C1 2422   1.831   2.120   3.130  0.2271 -0.1449  0.9837
  162DMF     N1 2423   1.697   2.109   3.080  0.4899 -0.2106 -0.5041
  162DMF     C2 2424   1.670   2.109   2.934  0.3732  0.3406 -0.7021
  162DMF     C3 2425   1.594   2.064   3.165 -0.0752  0.3425 -0.5223
  162DMF     O1 2426   1.613   2.056   3.281  0.2096  0.7531 -0.0596
  162DMF     H1 2427   1.868   2.223   3.126  0.5374 -0.3372 -1.6273
  162DMF     H2 2428   1.885   2.061   3.055  1.6745  1.2601  0.8957
  162DMF     H3 2429   1.848   2.080   3.231 -0.5932 -0.2766  1.0761
  162DMF     H4 2430   1.565   2.091   2.908  0.4343  1.1800 -1.5436
  162DMF     H5 2431   1.719   2.029   2.879 -0.7515  0.2663 -1.6145
  162DMF     H6 2432   1.713   2.203   2.897 -1.3907  1.7371  0.6539
  162DMF     H7 2433   1.501   2.045   3.108  0.8962 -0.7073 -1.7949
  163DMF     C1 2434   3.207   0.589   3.426  0.5781 -0.2206 -0.8447
  163DMF     N1 2435   3.195   0.508   3.305 -0.6188  0.1683 -0.2872
  163DMF     C2 2436   3.184   0.572   3.167  0.0752  0.0067 -0.8387
  163DMF     C3 2437   3.232   0.370   3.314 -0.5029  0.3493  0.5560
  163DMF     O1 2438   3.276   0.317   3.414  0.3643  0.0258  0.0867
  163DMF     H1 2439   3.205   0.695   3.397  1.0741  0.4271  1.3905
  163DMF     H2 2440   3.303   0.565   3.473 -0.3785  0.3416  1.4703
  163DMF     H3 2441   3.123   0.573   3.495  1.8307 -0.8534  0.5581
  163DMF     H4 2442   3.282   0.561   3.120 -0.3568 -2.2514 -1.2625
  163DMF     H5 2443   3.173   0.682   3.166  0.6385  0.3207  5.4665
  163DMF     H6 2444   3.103   0.526   3.109  0.9289 -1.3498 -0.9680
  163DMF     H7 2445   3.239   0.317   3.217 -1.5266  2.7410 -0.8810
  164DMF     C1 2446   2.323   2.354   2.455 -0.5654  0.7152 -0.0183
  164DMF     N1 2447   2.410   2.406   2.354 -0.3638 -0.6538  0.3998
  164DMF     C2 2448   2.530   2.475   2.382  0.0704  0.1799  0.3959
  164DMF     C3 2449   2.343   2.431   2.231  0.9958 -0.1280  0.1079
  164DMF     O1 2450   2.227   2.398   2.212 -0.0827  0.3406  0.3055
  164DMF     H1 2451   2.260   2.272   2.420  2.1509 -1.9392  1.0771
  164DMF     H2 2452   2.253   2.432   2.485 -0.9259  0.4995 -0.2928
  164DMF     H3 2453   2.383   2.317   2.539 -1.2615  1.0433  0.6263
  164DMF     H4 2454   2.510   2.547   2.463  1.9279  1.3852 -0.1839
  164DMF     H5 2455   2.577   2.530   2.300 -0.3337  0.4403  0.3373
  164DMF     H6 2456   2.603   2.400   2.414  0.0268  1.5460  3.9118
  164DMF     H7 2457   2.398   2.488   2.153  1.6444 -0.3282  0.4178
  165DMF     C1 2458   3.268   1.844   0.747  0.9995 -0.1841 -0.6402
  165DMF     N1 2459   3.178   1.785   0.648  0.1557  0.1148  0.6582
  165DMF     C2 2460   3.058   1.862   0.611  0.6704  0.0123  0.4136
  165DMF     C3 2461   3.213   1.672   0.570  0.6920 -0.2052 -0.1419
  165DMF     O1 2462   3.315   1.605   0.586 -0.3070 -0.3546  0.5614
  165DMF     H1 2463   3.226   1.936   0.792  1.2716  0.3051 -1.3776
  165DMF     H2 2464   3.359   1.867   0.691  0.7389 -0.5849 -1.2282
  165DMF     H3 2465   3.279   1.768   0.825  0.7170  0.5580  0.1404
  165DMF     H4 2466   3.014   1.937   0.678 -0.4070  0.0204 -0.2936
  165DMF     H5 2467   2.975   1.793   0.595  1.0561  0.0636 -2.1373
  165DMF     H6 2468   3.081   1.929   0.526 -1.5436  0.7538  0.3679
  165DMF     H7 2469   3.132   1.645   0.500 -0.3323  0.1430  0.9052
  166DMF     C1 2470   3.150   3.418   1.258  0.1931  0.0464  0.0888
  166DMF     N1 2471   3.190   3.542   1.205 -0.4710  0.3901 -0.0287
  166DMF     C2 2472   3.333   3.568   1.178  0.4653  0.6722  0.1802
  166DMF     C3 2473   3.100   3.646   1.185 -0.1400 -0.3225 -0.5965
  166DMF     O1 2474   2.983   3.645   1.220  0.0176  0.3715 -0.4175
  166DMF     H1 2475   3.231   3.381   1.322 -0.9146  1.8340  2.5940
  166DMF     H2 2476   3.122   3.344   1.181  1.5099 -0.6792  0.2821
  166DMF     H3 2477   3.064   3.437   1.323 -0.0418  0.5278 -0.3613
  166DMF     H4 2478   3.378   3.622   1.263  0.5711  0.1205  0.4762
  166DMF     H5 2479   3.345   3.611   1.078 -3.5495  0.1169 -0.6131
  166DMF     H6 2480   3.388   3.473   1.180  1.0921  1.0240 -0.2406
  166DMF     H7 2481   3.143   3.742   1.149 -0.7303  0.3965  0.5693
  167DMF     C1 2482   0.410   2.127   2.481  0.2639  0.8408  0.0962
  167DMF     N1 2483   0.319   2.158   2.366 -0.2056  0.4493  0.5810
  167DMF     C2 2484   0.181   2.101   2.372  0.0415 -0.2114 -0.1372
  167DMF     C3 2485   0.362   2.229   2.254 -0.6298 -0.8003 -0.1209
  167DMF     O1 2486   0.468   2.301   2.255  0.4194 -0.1409  0.1830
  167DMF     H1 2487   0.364   2.169   2.571  1.1878 -1.0981  1.5011
  167DMF     H2 2488   0.512   2.169   2.476  1.9803 -2.9497  1.4024
  167DMF     H3 2489   0.411   2.020   2.503  0.4623 -0.2221 -4.5998
  167DMF     H4 2490   0.146   2.070   2.273 -0.5674  1.0740 -0.3307
  167DMF     H5 2491   0.110   2.176   2.408  1.7419 -0.4042  3.9471
  167DMF     H6 2492   0.186   2.019   2.445  1.7956  3.7626  4.4832
  167DMF     H7 2493   0.287   2.231   2.174 -1.1227 -0.2019  0.3423
  168DMF     C1 2494   1.879   3.050   1.514  0.0957  0.2048 -0.1753
  168DMF     N1 2495   1.909   2.995   1.382  0.4312  0.0254  0.6305
  168DMF     C2 2496   2.032   2.923   1.353  0.4313 -0.6742  0.0673
  168DMF     C3 2497   1.809   2.993   1.285  0.0287  0.8065 -0.0273
  168DMF     O1 2498   1.695   3.012   1.310  0.0004  0.0277 -0.3933
  168DMF     H1 2499   1.818   3.142   1.506  0.0778  0.0153 -2.4587
  168DMF     H2 2500   1.975   3.064   1.565  0.0869  2.9490 -0.8345
  168DMF     H3 2501   1.834   2.974   1.579  1.4326  0.5327  1.1426
  168DMF     H4 2502   2.082   2.909   1.450 -0.7099 -2.2072  0.4599
  168DMF     H5 2503   2.087   2.984   1.281  2.8002 -1.3597  1.2488
  168DMF     H6 2504   2.013   2.824   1.310 -0.6377 -0.1859 -0.6189
  168DMF     H7 2505   1.839   2.956   1.185  0.2253 -1.2936  0.7804
  169DMF     C1 2506   0.689   0.518   2.269 -0.7606 -0.1653  0.0789
  169DMF     N1 2507   0.564   0.594   2.287 -0.3694  0.4126 -0.5438
  169DMF     C2 2508   0.572   0.736   2.267  0.0359 -0.0619 -0.1313
  169DMF     C3 2509   0.441   0.527   2.311  0.0011 -0.4473 -0.4279
  169DMF     O1 2510   0.428   0.410   2.343 -0.3346 -0.0192 -0.0992
  169DMF     H1 2511   0.727   0.458   2.352  0.9004 -0.1626 -0.6513
  169DMF     H2 2512   0.772   0.586   2.245  0.9007 -2.2532 -0.1758
  169DMF     H3 2513   0.663   0.447   2.190 -2.5885  0.2686  0.2708
  169DMF     H4 2514   0.487   0.760   2.202 -0.2944  1.5370  0.8707
  169DMF     H5 2515   0.661   0.762   2.208 -2.0941  1.9999 -2.5862
  169DMF     H6 2516   0.564   0.794   2.360 -0.4368  0.7945 -0.6946
  169DMF     H7 2517   0.353   0.594   2.305 -0.2813 -0.7766 -0.0425
  170DMF     C1 2518   0.143   0.775   2.787  0.1487 -0.6628 -0.2934
  170DMF     N1 2519   0.102   0.651   2.709 -0.0687  0.0300  0.0384
  170DMF     C2 2520   0.027   0.545   2.776 -0.1937 -0.4409  0.2476
  170DMF     C3 2521   0.123   0.634   2.572  0.3646 -0.4843 -0.9012
  170DMF     O1 2522   0.190   0.704   2.503  0.2231 -0.0168  0.3052
  170DMF     H1 2523   0.126   0.762   2.894 -1.2269 -0.6219 -0.5018
  170DMF     H2 2524   0.091   0.863   2.748  1.3445  1.2971  2.4207
  170DMF     H3 2525   0.250   0.792   2.772 -0.0525  0.3581 -0.5887
  170DMF     H4 2526   0.025   0.455   2.712  2.0647 -1.3248  1.3489
  170DMF     H5 2527  -0.075   0.576   2.802  0.5192  0.7449  1.7087
  170DMF     H6 2528   0.084   0.524   2.867  3.7652  2.2018 -1.4721
  170DMF     H7 2529   0.061   0.551   2.533 -0.0711 -0.7258  0.3048
  171DMF     C1 2530   1.037   0.279   2.492 -0.4883 -0.1975 -0.4467
  171DMF     N1 2531   1.125   0.373   2.418 -0.6370 -0.2783  0.1978
  171DMF     C2 2532   1.197   0.480   2.496  1.0418 -0.2172 -0.1406
  171DMF     C3 2533   1.129   0.380   2.277 -0.0332 -0.1821  0.4528
  171DMF     O1 2534   1.066   0.315   2.204 -0.3608  0.5414 -0.0554
  171DMF     H1 2535   0.952   0.327   2.542  0.6232 -0.9560  2.2535
  171DMF     H2 2536   1.093   0.242   2.579  2.7949  2.2406 -1.3936
  171DMF     H3 2537   1.004   0.199   2.424  1.8301  0.2124 -2.1161
  171DMF     H4 2538   1.167   0.484   2.601  0.3943 -0.2494 -0.3206
  171DMF     H5 2539   1.165   0.575   2.453  1.0995 -0.2405 -0.2349
  171DMF     H6 2540   1.305   0.462   2.490  1.1056  0.1398 -0.0395
  171DMF     H7 2541   1.189   0.466   2.243 -1.8073  1.6545  1.7916
  172DMF     C1 2542   1.469   1.678   0.008 -0.4194  0.4174  0.8110
  172DMF     N1 2543   1.605   1.703   0.063  0.0531  0.7117  0.0358
  172DMF     C2 2544   1.622   1.710   0.207 -0.4367  0.2806 -0.8839
  172DMF     C3 2545   1.704   1.765  -0.017 -0.4125  0.4373  0.3052
  172DMF     O1 2546   1.681   1.775  -0.137 -0.0832  0.0747  0.2200
  172DMF     H1 2547   1.479   1.611  -0.079  1.3766  0.3394  1.0565
  172DMF     H2 2548   1.431   1.773  -0.031  0.7486 -0.3651 -2.4148
  172DMF     H3 2549   1.411   1.634   0.090 -0.6679 -1.7866 -0.4950
  172DMF     H4 2550   1.552   1.638   0.251  1.6657 -1.0670  0.3531
  172DMF     H5 2551   1.596   1.811   0.240 -1.3309 -0.3081  0.2366
  172DMF     H6 2552   1.722   1.683   0.245 -1.3966 -1.6058  0.4078
  172DMF     H7 2553   1.790   1.807   0.039  0.2526  0.0523 -0.4098
  173DMF     C1 2554   2.370   0.949   3.564 -0.1459 -0.1430 -0.8775
  173DMF     N1 2555   2.394   1.062   3.478 -0.0907 -0.4756 -0.5441
  173DMF     C2 2556   2.277   1.128   3.412  0.0765 -0.3007 -0.3039
  173DMF     C3 2557   2.524   1.083   3.427  0.1106  0.4099  0.0623
  173DMF     O1 2558   2.620   1.010   3.461 -0.4067 -0.5296 -0.7446
  173DMF     H1 2559   2.328   0.975   3.662  1.1476  0.6678 -0.5375
  173DMF     H2 2560   2.463   0.895   3.580 -1.0121 -1.5726 -0.5652
  173DMF     H3 2561   2.304   0.875   3.517 -1.5752  0.3463  0.3140
  173DMF     H4 2562   2.273   1.230   3.452  0.6149 -0.2474 -0.3851
  173DMF     H5 2563   2.188   1.076   3.451  1.0251 -1.8525 -0.1585
  173DMF     H6 2564   2.288   1.114   3.304 -0.5684 -0.1202 -0.3919
  173DMF     H7 2565   2.527   1.158   3.346 -1.2768  1.5498  1.0285
  174DMF     C1 2566   2.467   2.029   2.204 -0.2663  0.8352 -0.3969
  174DMF     N1 2567   2.490   1.958   2.332 -0.7116 -0.3030  0.4503
  174DMF     C2 2568   2.473   2.026   2.462  0.5481 -0.0579 -0.3746
  174DMF     C3 2569   2.504   1.823   2.333  0.1663 -0.3608 -0.5494
  174DMF     O1 2570   2.529   1.754   2.236  1.0006 -0.2070 -0.4010
  174DMF     H1 2571   2.401   1.967   2.142 -0.4958  0.3722  0.3072
  174DMF     H2 2572   2.562   2.035   2.150 -0.1536  1.3177 -0.1470
  174DMF     H3 2573   2.421   2.126   2.227 -2.2053 -0.4893  1.4896
  174DMF     H4 2574   2.550   1.992   2.532 -0.2762  0.9120  1.0253
  174DMF     H5 2575   2.376   2.012   2.511  0.3735  2.0708 -0.0645
  174DMF     H6 2576   2.496   2.132   2.451  0.2213  0.2185  1.5250
  174DMF     H7 2577   2.486   1.788   2.436 -2.0643 -1.1030 -1.1553
  175DMF     C1 2578   0.703   3.184   0.366 -0.0705 -0.1213  0.2336
  175DMF     N1 2579   0.568   3.220   0.323 -0.6655 -0.3864  0.3088
  175DMF     C2 2580   0.467   3.254   0.429  0.4136 -0.5045 -0.6747
  175DMF     C3 2581   0.556   3.287   0.193  0.2878  0.1995  0.6006
  175DMF     O1 2582   0.649   3.297   0.120  0.5553 -0.4775  0.0223
  175DMF     H1 2583   0.694   3.142   0.467  0.0044 -0.8912 -0.0798
  175DMF     H2 2584   0.769   3.271   0.378 -1.6260  1.3435 -1.2833
  175DMF     H3 2585   0.740   3.111   0.294 -1.9987 -0.6586 -0.2437
  175DMF     H4 2586   0.383   3.186   0.408 -1.1071  1.3172 -0.6549
  175DMF     H5 2587   0.436   3.359   0.419 -0.0570 -0.5396  0.3998
  175DMF     H6 2588   0.512   3.231   0.526 -0.9957 -0.9846 -0.1228
  175DMF     H7 2589   0.458   3.331   0.169  1.0952  1.6127 -0.1291
  176DMF     C1 2590   3.204   0.020   2.972 -0.5013 -0.2820  0.0479
  176DMF     N1 2591   3.326  -0.050   3.026 -0.1995 -0.1442  0.1691
  176DMF     C2 2592   3.463  -0.004   2.990  0.3327  1.0095  0.3626
  176DMF     C3 2593   3.304  -0.180   3.087  0.7231  0.0139 -0.0498
  176DMF     O1 2594   3.193  -0.221   3.124  0.0801 -0.5814 -0.2954
  176DMF     H1 2595   3.213   0.129   2.963  0.7851 -0.3581  0.3067
  176DMF     H2 2596   3.133   0.011   3.054 -0.8290  2.3655  0.1008
  176DMF     H3 2597   3.169  -0.017   2.875 -0.7944  0.7247 -0.2428
  176DMF     H4 2598   3.496  -0.017   2.887  0.7212  2.0475  0.3461
  176DMF     H5 2599   3.533  -0.053   3.059 -0.9767  0.5857  1.4127
  176DMF     H6 2600   3.466   0.103   3.016 -1.8878  0.8706  1.3687
  176DMF     H7 2601   3.400  -0.235   3.095 -0.0443 -1.4951 -0.9528
  177DMF     C1 2602   3.028   2.462   3.499 -0.5106 -0.5776 -0.3785
  177DMF     N1 2603   3.077   2.389   3.619 -0.8893 -0.5911  0.1266
  177DMF     C2 2604   2.983   2.325   3.705 -0.0242 -0.1828 -0.3949
  177DMF     C3 2605   3.211   2.403   3.662  0.4325  0.1082  0.3335
  177DMF     O1 2606   3.296   2.457   3.594  0.5859  0.6707  0.0945
  177DMF     H1 2607   3.070   2.564   3.494 -3.7738  0.8464  0.0016
  177DMF     H2 2608   2.920   2.478   3.492 -0.6651 -0.9005  1.1369
  177DMF     H3 2609   3.069   2.409   3.413  0.0175  0.8616 -1.0397
  177DMF     H4 2610   2.879   2.346   3.675  0.0647  0.2577 -0.4042
  177DMF     H5 2611   3.002   2.363   3.806 -2.6677  1.1543 -0.3405
  177DMF     H6 2612   2.992   2.217   3.716  3.0713  0.2271  1.4336
  177DMF     H7 2613   3.229   2.349   3.756  0.7079  2.3090  1.5800
  178DMF     C1 2614   1.036   2.344   2.286  0.2793  0.0450  0.1634
  178DMF     N1 2615   0.934   2.440   2.242 -0.2111  0.1942 -0.1336
  178DMF     C2 2616   0.801   2.392   2.233  0.3493 -0.2366  0.8755
  178DMF     C3 2617   0.963   2.581   2.255 -0.1684  0.3425  0.5838
  178DMF     O1 2618   1.070   2.632   2.286 -0.1922  0.0532  0.3991
  178DMF     H1 2619   1.121   2.387   2.339 -0.8521 -0.0756  2.1262
  178DMF     H2 2620   1.075   2.291   2.198 -1.0752  0.9430 -1.0241
  178DMF     H3 2621   0.992   2.272   2.355  0.2559  0.7694  0.9153
  178DMF     H4 2622   0.758   2.385   2.334  1.4676  1.2534  1.4729
  178DMF     H5 2623   0.797   2.295   2.183  2.5751  1.0575 -1.9034
  178DMF     H6 2624   0.738   2.462   2.177  0.7403 -2.1789 -2.1206
  178DMF     H7 2625   0.877   2.641   2.221  0.5460  0.8097 -0.4183
  179DMF     C1 2626   1.237   0.038   2.318 -0.3950 -0.2175  0.5281
  179DMF     N1 2627   1.287  -0.088   2.368 -0.2325 -0.3347 -0.2326
  179DMF     C2 2628   1.269  -0.204   2.283  1.1651 -0.3204  0.6007
  179DMF     C3 2629   1.334  -0.097   2.495  0.2568  0.3339 -1.0772
  179DMF     O1 2630   1.328  -0.005   2.570  0.0092  0.4458  0.0166
  179DMF     H1 2631   1.234   0.122   2.389 -1.7152 -1.1567  1.6057
  179DMF     H2 2632   1.136   0.027   2.277 -0.8240 -1.8979  1.9919
  179DMF     H3 2633   1.295   0.068   2.230  0.9089 -0.1836  1.3858
  179DMF     H4 2634   1.363  -0.228   2.232  0.4950 -1.0953 -0.2809
  179DMF     H5 2635   1.185  -0.187   2.215  1.7831  1.2831  0.2079
  179DMF     H6 2636   1.252  -0.298   2.336  0.2098 -0.9388 -0.7918
  179DMF     H7 2637   1.354  -0.199   2.530 -0.2678 -0.8392 -4.0474
  180DMF     C1 2638   0.810   1.953   3.391 -0.1942 -0.5045  0.5395
  180DMF     N1 2639   0.828   2.009   3.526 -0.0787 -0.8503  0.8977
  180DMF     C2 2640   0.755   1.943   3.626 -0.2504  0.0839  0.2026
  180DMF     C3 2641   0.902   2.127   3.553 -0.0174 -0.5356  0.6917
  180DMF     O1 2642   0.933   2.206   3.467 -0.1658  0.2984  0.0320
  180DMF     H1 2643   0.796   2.034   3.317  0.0777  1.3743  2.4783
  180DMF     H2 2644   0.731   1.878   3.373  1.1082 -1.6733 -0.3806
  180DMF     H3 2645   0.901   1.901   3.361 -0.3312 -0.4366  0.0014
  180DMF     H4 2646   0.745   1.836   3.605  0.2250 -0.0916  0.8507
  180DMF     H5 2647   0.652   1.978   3.643 -0.6858 -1.8579  1.8971
  180DMF     H6 2648   0.814   1.946   3.719  0.7307  5.2750 -0.4720
  180DMF     H7 2649   0.930   2.145   3.658  1.1797  0.4354  0.2168
  181DMF     C1 2650   0.024   1.233   2.820 -0.2967 -0.1960 -0.0955
  181DMF     N1 2651  -0.070   1.204   2.931  0.6162  0.2669  0.6454
  181DMF     C2 2652  -0.027   1.143   3.056 -0.0002  0.6971  0.6641
  181DMF     C3 2653  -0.205   1.232   2.918  0.5601  0.6711 -0.4676
  181DMF     O1 2654  -0.252   1.278   2.816 -0.3496  0.0858  0.1524
  181DMF     H1 2655  -0.018   1.179   2.735 -0.3982  3.2766 -2.3814
  181DMF     H2 2656   0.121   1.190   2.849 -1.1500 -1.2522  1.2655
  181DMF     H3 2657   0.037   1.341   2.804 -1.8034  0.2735  1.6155
  181DMF     H4 2658  -0.109   1.140   3.130  0.4588 -0.3028  1.1516
  181DMF     H5 2659   0.055   1.203   3.097 -0.0074  2.5637 -1.9547
  181DMF     H6 2660   0.005   1.044   3.021  1.0410  0.3433  2.5368
  181DMF     H7 2661  -0.262   1.210   3.010  1.2977  0.1279 -0.1356
  182DMF     C1 2662   1.534   1.010   1.086  0.4875 -0.1849  0.6895
  182DMF     N1 2663   1.654   0.935   1.128  0.3408  0.5141  0.7557
  182DMF     C2 2664   1.662   0.869   1.262 -0.0781  0.8223  0.6842
  182DMF     C3 2665   1.755   0.906   1.038 -0.5294 -0.0527 -0.1713
  182DMF     O1 2666   1.762   0.959   0.929 -0.8768  0.3140 -0.2415
  182DMF     H1 2667   1.472   0.948   1.021  0.5894  1.7373 -1.2776
  182DMF     H2 2668   1.579   1.092   1.028 -3.4705  0.5928 -1.3993
  182DMF     H3 2669   1.477   1.042   1.174  0.1622 -1.4247  0.9411
  182DMF     H4 2670   1.751   0.806   1.273  0.1758  1.1983  0.8031
  182DMF     H5 2671   1.571   0.809   1.271 -0.7571  1.6803 -0.4786
  182DMF     H6 2672   1.662   0.941   1.345 -2.7214  0.8668  0.6880
  182DMF     H7 2673   1.829   0.836   1.082 -0.6119 -1.3582 -2.0362
  183DMF     C1 2674   0.524   2.461   1.127 -0.0463  0.2738  0.4134
  183DMF     N1 2675   0.394   2.524   1.169  0.1845  0.3444  0.2984
  183DMF     C2 2676   0.372   2.672   1.163  0.0111  0.1653 -0.9039
  183DMF     C3 2677   0.281   2.445   1.212  0.1657 -0.1664  0.0530
  183DMF     O1 2678   0.300   2.326   1.212 -0.1021  0.2997  0.2821
  183DMF     H1 2679   0.494   2.411   1.034 -1.1949 -1.1236  1.5185
  183DMF     H2 2680   0.557   2.385   1.199  0.7298  1.0108  0.8406
  183DMF     H3 2681   0.597   2.541   1.113  0.0779 -0.1192 -1.2879
  183DMF     H4 2682   0.428   2.718   1.081  1.6000  1.8358  1.0346
  183DMF     H5 2683   0.387   2.721   1.260 -1.5456  0.0884 -0.6061
  183DMF     H6 2684   0.266   2.682   1.139 -0.0911 -0.4407 -0.7115
  183DMF     H7 2685   0.190   2.501   1.240 -0.0968  0.2083 -1.5266
  184DMF     C1 2686   1.097   3.372   0.737 -0.0144  0.2237 -0.7788
  184DMF     N1 2687   0.969   3.432   0.707  0.3515  0.5386 -0.3523
  184DMF     C2 2688   0.981   3.572   0.677  0.3227  0.0317  0.4140
  184DMF     C3 2689   0.851   3.353   0.694 -0.3768 -0.3334  0.4518
  184DMF     O1 2690   0.856   3.231   0.710  0.2019  0.3196  0.0796
  184DMF     H1 2691   1.116   3.301   0.656 -0.5297  0.6988 -1.3274
  184DMF     H2 2692   1.096   3.328   0.837  2.6039  1.8555  0.0179
  184DMF     H3 2693   1.183   3.440   0.741 -0.2149  0.4470 -0.1899
  184DMF     H4 2694   0.912   3.627   0.742  0.2061  2.2776 -1.5036
  184DMF     H5 2695   0.959   3.588   0.570  0.5433 -1.3908  0.1539
  184DMF     H6 2696   1.085   3.608   0.681  0.4111  0.1259 -1.9737
  184DMF     H7 2697   0.761   3.410   0.665 -0.2502  0.0360  0.7665
  185DMF     C1 2698   0.516   3.425   0.776  1.2136  0.8822  0.3099
  185DMF     N1 2699   0.410   3.486   0.858  0.4709 -0.0922 -0.1796
  185DMF     C2 2700   0.379   3.628   0.842  0.1810 -0.1479 -0.6635
  185DMF     C3 2701   0.348   3.414   0.968 -0.1561 -0.4683  0.3435
  185DMF     O1 2702   0.383   3.303   0.997 -0.0706  0.7723 -0.0235
  185DMF     H1 2703   0.614   3.438   0.823  2.5981  1.7094 -2.6493
  185DMF     H2 2704   0.511   3.472   0.677 -2.1931 -0.1827 -0.1003
  185DMF     H3 2705   0.503   3.318   0.756 -1.7967  1.3121 -0.2456
  185DMF     H4 2706   0.274   3.653   0.856 -0.1858 -2.1384  0.2124
  185DMF     H5 2707   0.417   3.675   0.750 -0.5006  1.4153 -0.1497
  185DMF     H6 2708   0.430   3.677   0.926 -0.2152  1.0759 -1.1298
  185DMF     H7 2709   0.274   3.470   1.029 -0.7020  0.5332 -1.1987
  186DMF     C1 2710   1.385   3.299   2.849 -0.0549  0.2515  0.3668
  186DMF     N1 2711   1.322   3.161   2.841 -0.3377 -0.0838  0.0669
  186DMF     C2 2712   1.387   3.059   2.762  0.1079  0.0394  0.9250
  186DMF     C3 2713   1.183   3.164   2.868 -0.7312  0.3807  0.0082
  186DMF     O1 2714   1.120   3.248   2.925 -0.1720  0.1789 -0.0546
  186DMF     H1 2715   1.473   3.297   2.784 -0.8930 -2.7975 -0.7603
  186DMF     H2 2716   1.419   3.313   2.953  1.4400 -0.4172 -0.0100
  186DMF     H3 2717   1.317   3.382   2.828 -0.4280  0.2895  1.6942
  186DMF     H4 2718   1.370   2.959   2.803  2.0823  0.2969  2.4393
  186DMF     H5 2719   1.492   3.081   2.743 -0.0828 -0.3602 -0.7363
  186DMF     H6 2720   1.339   3.074   2.664 -0.8903  1.1652  1.5716
  186DMF     H7 2721   1.150   3.063   2.839  2.2593 -0.9738  1.0739
  187DMF     C1 2722   1.051   0.749   2.836  0.0008 -0.4876  0.9801
  187DMF     N1 2723   1.149   0.739   2.957 -0.1071 -0.2884  0.2277
  187DMF     C2 2724   1.127   0.616   3.045 -0.1601  1.1745  0.4761
  187DMF     C3 2725   1.230   0.848   2.995 -0.2522  0.3801  0.0817
  187DMF     O1 2726   1.209   0.959   2.953  0.1992 -0.7930  0.0127
  187DMF     H1 2727   0.979   0.828   2.862  0.5974 -0.1831  1.7161
  187DMF     H2 2728   0.991   0.660   2.816 -0.4052  0.5086 -2.6801
  187DMF     H3 2729   1.105   0.773   2.743  2.0251  2.2048  2.7603
  187DMF     H4 2730   1.019   0.603   3.046  0.1279 -1.5459  1.1420
  187DMF     H5 2731   1.162   0.616   3.149 -3.1287 -0.0807  1.5308
  187DMF     H6 2732   1.168   0.533   2.986  0.9721  1.9212  0.1996
  187DMF     H7 2733   1.305   0.829   3.074 -0.8741  0.4621  0.6946
  188DMF     C1 2734   3.332   2.073   3.320  0.0075 -0.7065  0.0747
  188DMF     N1 2735   3.450   2.143   3.368  0.3735 -0.4465  0.4027
  188DMF     C2 2736   3.527   2.223   3.269 -0.0231  0.0439  0.1755
  188DMF     C3 2737   3.500   2.130   3.499  0.7910  0.6684 -0.4273
  188DMF     O1 2738   3.445   2.062   3.585  0.3993 -0.2222  0.2562
  188DMF     H1 2739   3.311   2.102   3.217  1.4194  0.4291  0.0945
  188DMF     H2 2740   3.248   2.087   3.390  0.6505  0.8368  0.5574
  188DMF     H3 2741   3.357   1.967   3.310  1.3672 -0.4025  0.1859
  188DMF     H4 2742   3.625   2.247   3.310 -0.5068  4.4139 -0.9827
  188DMF     H5 2743   3.474   2.316   3.247  1.0390  0.9222  1.2578
  188DMF     H6 2744   3.543   2.172   3.173 -0.4493  0.0039  0.1224
  188DMF     H7 2745   3.590   2.192   3.519  0.4426  1.4722 -1.2746
  189DMF     C1 2746   1.385   0.261   3.489 -0.3341 -0.4066 -0.3663
  189DMF     N1 2747   1.309   0.245   3.611  0.0064  0.7235 -0.0788
  189DMF     C2 2748   1.393   0.182   3.715  0.1320 -0.1977  0.3380
  189DMF     C3 2749   1.199   0.325   3.644 -0.2633  0.3723  0.1239
  189DMF     O1 2750   1.149   0.410   3.573 -0.0804 -0.2116  0.1882
  189DMF     H1 2751   1.365   0.360   3.445 -0.4513  0.8201  2.3526
  189DMF     H2 2752   1.357   0.192   3.409  0.1064 -0.0743 -0.8106
  189DMF     H3 2753   1.490   0.270   3.518 -0.1910  4.5491 -1.8061
  189DMF     H4 2754   1.454   0.096   3.682 -1.9551 -0.6997 -2.2939
  189DMF     H5 2755   1.329   0.135   3.791  0.9801  0.8678  1.7465
  189DMF     H6 2756   1.470   0.252   3.750  0.3060  0.3266 -1.0730
  189DMF     H7 2757   1.180   0.316   3.753 -0.6488 -1.0557 -0.0485
  190DMF     C1 2758   0.259   2.558   1.538 -0.4612 -0.3136  0.5017
  190DMF     N1 2759   0.301   2.701   1.553  0.1848 -0.6652  0.1875
  190DMF     C2 2760   0.196   2.802   1.543  0.5598  0.0703 -0.5610
  190DMF     C3 2761   0.435   2.735   1.549  0.1266 -0.0343 -0.0620
  190DMF     O1 2762   0.515   2.646   1.521  0.6009 -0.1006 -0.1658
  190DMF     H1 2763   0.154   2.543   1.509 -1.4250  1.6471  2.7969
  190DMF     H2 2764   0.282   2.500   1.628  1.1733  0.9352  0.9118
  190DMF     H3 2765   0.322   2.519   1.457 -0.7281  1.8973 -0.8142
  190DMF     H4 2766   0.227   2.903   1.572 -1.1494  1.0958 -2.1661
  190DMF     H5 2767   0.108   2.778   1.605 -0.0569  1.8729 -0.6878
  190DMF     H6 2768   0.164   2.802   1.438 -0.4557 -1.1117 -0.2680
  190DMF     H7 2769   0.456   2.839   1.582 -1.6519 -0.0170  1.0875
  191DMF     C1 2770   1.671   1.372   3.503  0.0109  0.8745 -0.0917
  191DMF     N1 2771   1.800   1.319   3.452  0.1548 -0.5266 -0.6225
  191DMF     C2 2772   1.913   1.297   3.547 -0.3948  0.3023  0.4338
  191DMF     C3 2773   1.824   1.317   3.320  0.1502 -0.4293 -0.4152
  191DMF     O1 2774   1.731   1.335   3.239 -0.0141 -0.1765 -0.2123
  191DMF     H1 2775   1.669   1.345   3.609  3.8773  0.8801  0.0432
  191DMF     H2 2776   1.580   1.325   3.463  0.3168 -1.0117  1.3770
  191DMF     H3 2777   1.666   1.480   3.484 -0.8911  0.8031 -0.2690
  191DMF     H4 2778   1.969   1.206   3.522  0.9068  1.1316  0.2823
  191DMF     H5 2779   1.882   1.294   3.652  1.4109  1.9293  1.0418
  191DMF     H6 2780   1.983   1.379   3.530 -1.1724  0.6975 -0.9201
  191DMF     H7 2781   1.927   1.285   3.298  0.7323  2.0323 -1.4563
  192DMF     C1 2782   2.998   1.985   2.803 -0.2288 -0.0691 -0.3334
  192DMF     N1 2783   2.871   2.035   2.865  0.7617  0.2669 -0.9242
  192DMF     C2 2784   2.859   2.009   3.009 -0.1304  0.0520 -0.0419
  192DMF     C3 2785   2.785   2.126   2.798 -0.5746  0.8501 -0.4890
  192DMF     O1 2786   2.789   2.145   2.675 -0.2844  0.5154  0.1004
  192DMF     H1 2787   3.074   1.984   2.882 -0.3111 -0.6996 -0.2635
  192DMF     H2 2788   3.038   2.052   2.726 -0.0306 -0.1833 -0.3307
  192DMF     H3 2789   2.989   1.886   2.757 -1.4749 -0.8944  1.6384
  192DMF     H4 2790   2.787   2.075   3.059  1.9238  1.7580  0.7263
  192DMF     H5 2791   2.959   2.027   3.050 -0.1089  0.0533 -0.0957
  192DMF     H6 2792   2.839   1.902   3.020 -0.0770 -0.0969 -1.3442
  192DMF     H7 2793   2.717   2.177   2.868  2.8865  0.4281  3.4167
  193DMF     C1 2794   0.788   0.303   3.647  0.7134  0.0919 -0.5123
  193DMF     N1 2795   0.821   0.197   3.559 -1.1107 -0.5056 -0.5501
  193DMF     C2 2796   0.758   0.206   3.421  0.9108 -0.5119 -0.6752
  193DMF     C3 2797   0.922   0.103   3.590 -1.2049 -0.5114  0.2649
  193DMF     O1 2798   0.995   0.108   3.687  0.2839 -0.2539 -0.4236
  193DMF     H1 2799   0.753   0.394   3.597 -0.1609 -0.0225 -0.1183
  193DMF     H2 2800   0.877   0.326   3.706 -0.6256  0.4030  1.4554
  193DMF     H3 2801   0.698   0.272   3.701  0.7754 -0.0870 -0.5124
  193DMF     H4 2802   0.649   0.200   3.418  0.8984 -0.1797 -0.8641
  193DMF     H5 2803   0.786   0.112   3.372  1.0201 -1.4849  1.1838
  193DMF     H6 2804   0.795   0.283   3.353  3.7805 -1.0807  0.1653
  193DMF     H7 2805   0.938   0.024   3.515  0.3556 -1.3768  1.4745
  194DMF     C1 2806   0.910   1.720   1.538 -0.1923  0.2628 -0.0093
  194DMF     N1 2807   1.013   1.616   1.560 -0.0355 -0.2390  0.4793
  194DMF     C2 2808   0.980   1.475   1.533  0.0180  0.0933  0.5501
  194DMF     C3 2809   1.143   1.653   1.588 -0.4520 -0.2899 -0.9933
  194DMF     O1 2810   1.170   1.767   1.592 -0.0840 -0.2640  0.0642
  194DMF     H1 2811   0.932   1.813   1.592  0.2158  0.4313 -0.4623
  194DMF     H2 2812   0.812   1.689   1.578 -0.1466  0.5541  0.3364
  194DMF     H3 2813   0.903   1.722   1.429  1.7126 -0.1302 -0.1387
  194DMF     H4 2814   1.049   1.429   1.461  1.1889 -0.5404  2.0372
  194DMF     H5 2815   0.878   1.482   1.494 -0.3958  0.6674  1.7057
  194DMF     H6 2816   0.969   1.413   1.624 -0.1492  0.2589  0.6427
  194DMF     H7 2817   1.212   1.568   1.589 -0.9491 -0.6968  2.9289
  195DMF     C1 2818   2.718   0.407   2.234  1.2866  0.3139  0.2305
  195DMF     N1 2819   2.755   0.554   2.234 -0.2686 -0.0922 -0.7220
  195DMF     C2 2820   2.652   0.654   2.267  0.1212  0.4609  0.2877
  195DMF     C3 2821   2.882   0.596   2.210 -0.3574  0.0647  0.1232
  195DMF     O1 2822   2.975   0.518   2.204  0.7572 -0.2833 -0.3634
  195DMF     H1 2823   2.642   0.399   2.155  0.3566  2.8344  0.8069
  195DMF     H2 2824   2.665   0.389   2.329 -0.5366  0.8844 -0.6603
  195DMF     H3 2825   2.802   0.342   2.205  0.9637  1.0780 -2.5481
  195DMF     H4 2826   2.689   0.754   2.240  0.9499  0.0643 -0.0572
  195DMF     H5 2827   2.623   0.645   2.372 -1.1978  0.5174 -0.0693
  195DMF     H6 2828   2.565   0.634   2.203  1.0316 -1.3903 -0.4028
  195DMF     H7 2829   2.896   0.705   2.203 -1.6208  0.3602  2.0204
  196DMF     C1 2830   0.275   2.580   2.577 -0.4923 -0.1541  0.0559
  196DMF     N1 2831   0.154   2.522   2.647  0.2610  0.2503  0.2021
  196DMF     C2 2832   0.100   2.395   2.598 -0.3741 -0.2762 -0.8522
  196DMF     C3 2833   0.088   2.586   2.743  0.1367  0.0794 -0.6361
  196DMF     O1 2834   0.128   2.685   2.793 -0.6729 -0.3160  0.1822
  196DMF     H1 2835   0.363   2.548   2.634 -0.0492  1.3165  0.2094
  196DMF     H2 2836   0.267   2.689   2.583 -0.1600 -0.1064 -0.3743
  196DMF     H3 2837   0.285   2.544   2.474  0.2523 -1.5346  0.5960
  196DMF     H4 2838   0.109   2.323   2.680  2.7233  0.9901  0.0169
  196DMF     H5 2839   0.161   2.354   2.517  0.9712  0.6494 -0.3362
  196DMF     H6 2840  -0.006   2.401   2.570 -0.5340  2.2593  0.1366
  196DMF     H7 2841  -0.003   2.537   2.784  0.7097  0.3247  0.9815
  197DMF     C1 2842   2.382   2.843   3.128 -0.8431 -0.1947 -0.5005
  197DMF     N1 2843   2.367   2.986   3.131 -0.2721  0.0862 -0.2988
  197DMF     C2 2844   2.391   3.063   3.254  0.1943 -0.1663  0.7038
  197DMF     C3 2845   2.332   3.060   3.016 -1.0046 -0.7385 -0.0031
  197DMF     O1 2846   2.287   3.009   2.916 -0.1461 -0.7344  0.5803
  197DMF     H1 2847   2.281   2.803   3.141 -0.1775 -1.3504  1.3663
  197DMF     H2 2848   2.431   2.814   3.222 -1.5462  0.4318  0.0736
  197DMF     H3 2849   2.429   2.800   3.039 -2.4000 -2.7033 -0.1584
  197DMF     H4 2850   2.294   3.105   3.284  1.0162  2.4244 -0.1046
  197DMF     H5 2851   2.464   3.144   3.239 -1.2904  0.5407 -3.1718
  197DMF     H6 2852   2.438   3.007   3.336  0.9182  1.1702  1.2207
  197DMF     H7 2853   2.339   3.168   3.040 -0.1906 -0.1798 -2.5571
  198DMF     C1 2854   1.237   0.760   3.796  0.2296 -0.8050 -0.1511
  198DMF     N1 2855   1.246   0.674   3.916  0.0910 -0.1608 -0.6804
  198DMF     C2 2856   1.148   0.569   3.932  0.0669 -0.1908 -0.1859
  198DMF     C3 2857   1.334   0.696   4.022  0.3496 -0.4496 -0.2494
  198DMF     O1 2858   1.408   0.789   4.010 -0.0697  0.2086  0.4813
  198DMF     H1 2859   1.281   0.860   3.810  0.0960 -0.5924 -1.1866
  198DMF     H2 2860   1.137   0.782   3.758 -0.1439  0.9261  1.7275
  198DMF     H3 2861   1.289   0.712   3.712  3.7935  1.7343  0.4283
  198DMF     H4 2862   1.181   0.469   3.963  1.9216  0.8978  1.4431
  198DMF     H5 2863   1.085   0.558   3.843 -0.0778  1.5106 -0.3122
  198DMF     H6 2864   1.077   0.606   4.007 -0.1992 -2.3306  0.6724
  198DMF     H7 2865   1.321   0.628   4.108  0.5728 -2.1003 -1.4912
  199DMF     C1 2866   1.809   1.217   2.228 -0.0488  0.0195  0.5728
  199DMF     N1 2867   1.716   1.338   2.232  0.0581  0.0233  0.2729
  199DMF     C2 2868   1.779   1.460   2.269  0.5953  0.2954 -0.3262
  199DMF     C3 2869   1.577   1.322   2.263  0.0046  0.6950 -1.0920
  199DMF     O1 2870   1.513   1.216   2.246  0.1806  0.0575 -0.3033
  199DMF     H1 2871   1.749   1.139   2.179  0.3984 -1.0094  1.6156
  199DMF     H2 2872   1.839   1.192   2.331  2.3703  0.5318  0.0009
  199DMF     H3 2873   1.891   1.230   2.157 -0.5379  0.5731  0.1070
  199DMF     H4 2874   1.712   1.546   2.255  0.2160 -0.1011 -0.9713
  199DMF     H5 2875   1.861   1.471   2.197  0.7711 -0.7687 -0.2848
  199DMF     H6 2876   1.804   1.451   2.375  1.3319  2.2093 -0.3070
  199DMF     H7 2877   1.525   1.409   2.306 -0.7653 -0.2991  0.0567
  200DMF     C1 2878   2.589   3.319   0.681 -0.0638  0.0448  0.0692
  200DMF     N1 2879   2.572   3.255   0.548 -0.3742 -0.5715 -0.0491
  200DMF     C2 2880   2.694   3.177   0.503 -0.1869 -0.1293  0.0421
  200DMF     C3 2881   2.459   3.272   0.464  0.4709 -0.3083  0.1411
  200DMF     O1 2882   2.365   3.346   0.499  0.3925  0.4412 -0.1667
  200DMF     H1 2883   2.587   3.428   0.675  0.0413  0.1910  2.2217
  200DMF     H2 2884   2.691   3.299   0.717 -0.7387 -0.7113  1.6114
  200DMF     H3 2885   2.519   3.276   0.754  0.2883 -2.0947 -0.8216
  200DMF     H4 2886   2.709   3.097   0.576  0.1249  1.0237  1.2685
  200DMF     H5 2887   2.783   3.241   0.506 -0.6249  0.5970 -1.7025
  200DMF     H6 2888   2.672   3.130   0.407 -0.9344  2.2596 -1.0032
  200DMF     H7 2889   2.474   3.223   0.366  0.0042  3.5502 -1.9983
  201DMF     C1 2890   1.323   0.615   0.601 -0.4015 -0.3241 -0.2741
  201DMF     N1 2891   1.183   0.632   0.553 -0.2587 -0.2521 -0.1665
  201DMF     C2 2892   1.136   0.770   0.520 -0.6337 -0.5143  0.1833
  201DMF     C3 2893   1.110   0.522   0.518 -0.1176  0.1910 -0.7791
  201DMF     O1 2894   1.150   0.412   0.558  0.2353 -0.4402 -0.1920
  201DMF     H1 2895   1.364   0.716   0.620  0.2519 -0.9495  1.7910
  201DMF     H2 2896   1.384   0.556   0.532 -0.3060 -0.0716 -0.4072
  201DMF     H3 2897   1.323   0.559   0.695  2.4734 -0.8128 -0.5439
  201DMF     H4 2898   1.027   0.777   0.512 -0.6536 -2.1375 -1.1997
  201DMF     H5 2899   1.182   0.815   0.430 -1.0918  0.7691  0.5835
  201DMF     H6 2900   1.157   0.838   0.602 -0.7966  0.4425 -0.5587
  201DMF     H7 2901   1.014   0.531   0.465 -2.2288 -0.8758  2.6919
  202DMF     C1 2902   2.268   2.737   0.400 -0.4086  0.6016 -0.0372
  202DMF     N1 2903   2.248   2.619   0.323  0.3386  0.4595 -0.1353
  202DMF     C2 2904   2.284   2.625   0.184 -0.5679 -0.6311  0.3245
  202DMF     C3 2905   2.196   2.504   0.375  0.1247 -1.0219 -0.0339
  202DMF     O1 2906   2.175   2.497   0.495  0.3291 -0.2339  0.5368
  202DMF     H1 2907   2.190   2.744   0.477 -3.4003  2.3826 -3.0851
  202DMF     H2 2908   2.260   2.820   0.328  0.3452 -0.0375 -0.8643
  202DMF     H3 2909   2.372   2.735   0.432 -0.7693 -1.8173  1.0869
  202DMF     H4 2910   2.326   2.534   0.139 -0.1422  0.4924 -1.5887
  202DMF     H5 2911   2.351   2.706   0.155 -0.5485 -0.5839  0.4986
  202DMF     H6 2912   2.196   2.657   0.126  0.7206  2.2783 -0.1111
  202DMF     H7 2913   2.173   2.429   0.298 -3.4592 -1.0592  1.0018
  203DMF     C1 2914   0.743   1.233   1.170  0.0920 -0.5711  0.6528
  203DMF     N1 2915   0.873   1.168   1.175 -0.9980  0.2816  0.2283
  203DMF     C2 2916   0.982   1.222   1.272 -0.4701  0.3424 -1.0004
  203DMF     C3 2917   0.898   1.049   1.102 -1.3353  0.5178 -0.4985
  203DMF     O1 2918   0.815   0.994   1.032  0.1611  0.5231 -0.6262
  203DMF     H1 2919   0.712   1.299   1.252  1.3953 -0.6071  1.1718
  203DMF     H2 2920   0.667   1.155   1.163 -1.2151  0.8086 -1.2995
  203DMF     H3 2921   0.738   1.289   1.075 -1.7412  0.2857  1.2274
  203DMF     H4 2922   0.920   1.267   1.351  0.4481 -1.9258  1.0652
  203DMF     H5 2923   1.064   1.279   1.228  0.3084  1.6209  1.9650
  203DMF     H6 2924   1.024   1.143   1.336 -0.3305  1.7455  0.6906
  203DMF     H7 2925   0.998   1.002   1.108 -1.3868  0.2830 -1.5370
  204DMF     C1 2926   1.241   2.951   0.099 -0.2848 -0.0762  0.0123
  204DMF     N1 2927   1.348   2.897   0.017 -0.8317  0.5318  0.1773
  204DMF     C2 2928   1.340   2.915  -0.124 -0.7437  0.5546 -0.0714
  204DMF     C3 2929   1.465   2.834   0.066 -0.9292  0.7831  0.4732
  204DMF     O1 2930   1.486   2.822   0.185  0.3796  0.2888  0.3132
  204DMF     H1 2931   1.281   3.001   0.188  1.9848 -1.9310  0.0718
  204DMF     H2 2932   1.182   2.864   0.128  1.3726 -2.2385 -2.8544
  204DMF     H3 2933   1.173   3.018   0.045 -3.0481 -2.3553  0.5970
  204DMF     H4 2934   1.236   2.936  -0.153 -0.1395  1.6999 -1.4729
  204DMF     H5 2935   1.381   2.828  -0.176 -3.7780 -0.1510 -1.3658
  204DMF     H6 2936   1.409   2.998  -0.147  2.1035 -1.5132  0.7453
  204DMF     H7 2937   1.538   2.802  -0.011 -0.5813  0.6392  0.8641
  205DMF     C1 2938   2.129   3.169   0.762 -0.4569  1.2147  0.1548
  205DMF     N1 2939   2.258   3.109   0.801 -0.0185 -0.5130  0.5785
  205DMF     C2 2940   2.328   3.160   0.921  0.0897  0.7242 -0.4906
  205DMF     C3 2941   2.325   3.023   0.717 -0.6155 -0.3816 -0.1076
  205DMF     O1 2942   2.284   3.002   0.602  0.0131 -0.3711 -0.2925
  205DMF     H1 2943   2.151   3.253   0.695 -0.3851  0.3119 -0.9623
  205DMF     H2 2944   2.070   3.203   0.848 -0.2287  0.7716  0.4904
  205DMF     H3 2945   2.072   3.097   0.703  0.2549  0.6092  0.1983
  205DMF     H4 2946   2.424   3.108   0.926 -0.8652 -0.9163  2.2591
  205DMF     H5 2947   2.268   3.139   1.011  0.0738  0.7306 -0.4993
  205DMF     H6 2948   2.357   3.265   0.909 -0.6950  0.8938 -0.9404
  205DMF     H7 2949   2.430   3.004   0.746 -0.1307 -2.0443 -2.7346
  206DMF     C1 2950   3.282   1.110   0.809 -0.5166 -0.0287  0.6940
  206DMF     N1 2951   3.419   1.070   0.862 -0.3473  0.1627  0.5756
  206DMF     C2 2952   3.466   0.927   0.850 -0.6617  0.1828  0.0246
  206DMF     C3 2953   3.486   1.156   0.953  0.1685  0.9123 -0.5763
  206DMF     O1 2954   3.452   1.270   0.978  0.4758 -0.2765  0.2480
  206DMF     H1 2955   3.265   1.063   0.711  0.5119 -1.1564  1.0360
  206DMF     H2 2956   3.278   1.219   0.799  0.5229  0.0682  1.2741
  206DMF     H3 2957   3.205   1.075   0.879  0.3039  2.3420  2.8692
  206DMF     H4 2958   3.420   0.866   0.928  3.2871 -2.6117  0.3149
  206DMF     H5 2959   3.574   0.922   0.865 -0.8585  0.7375  1.7352
  206DMF     H6 2960   3.436   0.881   0.755 -0.2942  0.3309 -0.1659
  206DMF     H7 2961   3.580   1.120   0.999 -0.0596 -0.6494 -1.3148
  207DMF     C1 2962   0.212   1.249   2.328 -0.1373  0.0083  0.3709
  207DMF     N1 2963   0.279   1.124   2.375 -0.3421  0.3452  0.1447
  207DMF     C2 2964   0.367   1.050   2.280 -0.2555 -0.8201 -0.1358
  207DMF     C3 2965   0.250   1.069   2.501 -0.2206 -0.0308 -0.1421
  207DMF     O1 2966   0.159   1.117   2.567 -0.5051 -0.2952 -0.0667
  207DMF     H1 2967   0.113   1.213   2.298 -0.2077  1.0934 -0.7185
  207DMF     H2 2968   0.257   1.298   2.242  1.8767  1.4610  2.2076
  207DMF     H3 2969   0.209   1.320   2.412  0.3452  1.2312 -0.6360
  207DMF     H4 2970   0.315   1.014   2.191 -0.9615  1.8933 -0.8890
  207DMF     H5 2971   0.432   0.974   2.326  0.1771  1.3098  2.9862
  207DMF     H6 2972   0.435   1.121   2.231 -0.9744  0.0500  0.0948
  207DMF     H7 2973   0.310   0.981   2.530  1.2924  1.5111  1.5754
  208DMF     C1 2974   0.644   1.770   0.881 -0.6310 -0.4842 -0.4319
  208DMF     N1 2975   0.637   1.622   0.878  0.3927 -0.3346  0.3188
  208DMF     C2 2976   0.536   1.551   0.961  0.5405 -0.3847 -0.3277
  208DMF     C3 2977   0.726   1.555   0.796 -0.5888 -0.7184 -0.4001
  208DMF     O1 2978   0.812   1.611   0.730  0.2684 -0.8410  0.4492
  208DMF     H1 2979   0.647   1.786   0.989 -1.9698  1.2348 -0.6267
  208DMF     H2 2980   0.555   1.819   0.839 -2.7190 -1.9450  2.1409
  208DMF     H3 2981   0.742   1.806   0.847 -0.0260  0.5379  2.2660
  208DMF     H4 2982   0.519   1.451   0.919 -1.3934 -0.6054  0.9405
  208DMF     H5 2983   0.443   1.608   0.968  0.8915  0.5259 -2.6121
  208DMF     H6 2984   0.579   1.536   1.061  1.4024  0.2695 -0.5954
  208DMF     H7 2985   0.714   1.446   0.799 -0.0219 -0.7681  0.0565
  209DMF     C1 2986   0.098   0.341   2.355  0.6193  0.6713 -0.3498
  209DMF     N1 2987  -0.041   0.363   2.316 -0.1276 -0.3357  0.0350
  209DMF     C2 2988  -0.096   0.495   2.297 -0.1245 -0.4467 -0.2639
  209DMF     C3 2989  -0.121   0.253   2.287  0.4410  0.1625 -0.3415
  209DMF     O1 2990  -0.082   0.141   2.288  0.1064  0.3437 -0.2892
  209DMF     H1 2991   0.152   0.431   2.388  0.1593  1.4911 -1.8211
  209DMF     H2 2992   0.152   0.310   2.265  3.2260 -0.5606  1.5704
  209DMF     H3 2993   0.105   0.264   2.433  1.1592 -1.0335 -2.0732
  209DMF     H4 2994  -0.088   0.532   2.194 -1.8168 -2.5530 -1.1647
  209DMF     H5 2995  -0.050   0.571   2.362  2.0966 -1.9148 -0.0590
  209DMF     H6 2996  -0.204   0.498   2.316  0.0268 -3.5755  1.3655
  209DMF     H7 2997  -0.226   0.278   2.261 -0.0617 -0.0591  1.4508
  210DMF     C1 2998   2.595   2.412   2.763  0.5125  0.2895  0.5719
  210DMF     N1 2999   2.514   2.458   2.876  0.0484 -0.4502  0.1534
  210DMF     C2 3000   2.402   2.538   2.844  0.5112 -0.1315  0.0041
  210DMF     C3 3001   2.551   2.417   3.011  0.1920  0.2115  0.7437
  210DMF     O1 3002   2.637   2.336   3.032 -0.2819  0.0321 -0.2428
  210DMF     H1 3003   2.607   2.495   2.693  2.2114 -0.6040 -0.2295
  210DMF     H2 3004   2.548   2.325   2.716  1.0149  1.0716 -1.4484
  210DMF     H3 3005   2.699   2.388   2.789  0.9908  1.4659 -0.1813
  210DMF     H4 3006   2.320   2.479   2.803 -0.2423  0.9410 -0.0543
  210DMF     H5 3007   2.436   2.602   2.762 -1.1000 -0.1380 -0.6887
  210DMF     H6 3008   2.382   2.604   2.929  1.8054  2.9897 -2.0420
  210DMF     H7 3009   2.487   2.466   3.086 -0.3564  0.7551 -0.0795
  211DMF     C1 3010   0.145   3.118   2.235 -0.0244  0.2759  0.2165
  211DMF     N1 3011   0.070   3.238   2.272  0.1643 -0.0794 -0.0504
  211DMF     C2 3012   0.144   3.362   2.277  0.3401 -0.4697  0.4872
  211DMF     C3 3013  -0.077   3.230   2.275 -0.3976 -0.3656 -0.2554
  211DMF     O1 3014  -0.137   3.127   2.256 -0.3665 -0.4341  0.0165
  211DMF     H1 3015   0.137   3.037   2.309  0.2419 -0.7728 -0.8661
  211DMF     H2 3016   0.251   3.141   2.224 -0.5162  1.2192 -3.0880
  211DMF     H3 3017   0.113   3.089   2.134  1.9025 -1.4141  0.0640
  211DMF     H4 3018   0.252   3.344   2.276  0.4091 -0.1176  1.1572
  211DMF     H5 3019   0.114   3.424   2.362 -0.9546 -0.0069 -0.2932
  211DMF     H6 3020   0.117   3.415   2.185  1.0031 -0.1150  0.4910
  211DMF     H7 3021  -0.129   3.328   2.279 -0.6063 -0.5278  1.1526
  212DMF     C1 3022   2.865   2.506   2.231  0.4187 -0.5737  0.5001
  212DMF     N1 3023   2.922   2.407   2.330 -0.1468  0.0730 -0.0325
  212DMF     C2 3024   2.982   2.281   2.279 -0.0687  0.0646 -0.2184
  212DMF     C3 3025   2.900   2.431   2.468 -0.4178  0.3998  1.2612
  212DMF     O1 3026   2.865   2.534   2.518  0.1885  0.0238 -0.4136
  212DMF     H1 3027   2.939   2.573   2.186  0.9190 -1.2322  0.3307
  212DMF     H2 3028   2.784   2.550   2.291 -2.0333 -3.5864 -0.4168
  212DMF     H3 3029   2.807   2.460   2.149  0.4348 -0.4845  0.4383
  212DMF     H4 3030   3.041   2.222   2.350 -3.9966 -1.8500  1.6545
  212DMF     H5 3031   3.052   2.307   2.199  0.9145 -1.1550  0.2302
  212DMF     H6 3032   2.895   2.222   2.249 -0.2039  0.5682 -0.8326
  212DMF     H7 3033   2.907   2.333   2.519  0.6278 -0.4434 -0.4419
  213DMF     C1 3034   1.224   2.165   0.693 -0.6332  0.2038  0.0497
  213DMF     N1 3035   1.231   2.304   0.732 -0.6064  0.8693 -0.6228
  213DMF     C2 3036   1.167   2.397   0.644 -0.2876 -0.1191  0.3822
  213DMF     C3 3037   1.330   2.353   0.833  0.6134  0.2651 -0.1242
  213DMF     O1 3038   1.400   2.281   0.895 -0.4659  0.7751  0.7662
  213DMF     H1 3039   1.274   2.162   0.595  0.3688  1.3394  0.5051
  213DMF     H2 3040   1.123   2.134   0.666 -0.3714  0.0903 -0.8205
  213DMF     H3 3041   1.277   2.102   0.766 -0.5136  0.0694 -0.1535
  213DMF     H4 3042   1.210   2.392   0.543 -1.7015 -0.1133 -0.2331
  213DMF     H5 3043   1.169   2.500   0.681  1.1201 -0.6884  1.9294
  213DMF     H6 3044   1.065   2.358   0.641  0.2525 -1.5194 -0.8729
  213DMF     H7 3045   1.328   2.464   0.832 -0.0247  0.2663 -2.7848
  214DMF     C1 3046   0.224   2.628   0.761  0.3819 -0.6273  0.2074
  214DMF     N1 3047   0.291   2.513   0.814  0.4618  1.4504 -0.6917
  214DMF     C2 3048   0.435   2.479   0.780  0.3867  0.6270  0.3337
  214DMF     C3 3049   0.231   2.444   0.916 -0.2926  0.4897 -0.1842
  214DMF     O1 3050   0.114   2.468   0.960 -0.2210  0.0136 -0.1532
  214DMF     H1 3051   0.129   2.594   0.719  1.3440 -1.4390 -1.3658
  214DMF     H2 3052   0.292   2.677   0.690  0.0216  0.5819  0.6908
  214DMF     H3 3053   0.216   2.694   0.848 -1.4384  0.1591 -0.5340
  214DMF     H4 3054   0.454   2.373   0.801  2.2401  0.8670 -0.1219
  214DMF     H5 3055   0.505   2.540   0.837  0.6440  2.0148 -1.4231
  214DMF     H6 3056   0.452   2.496   0.673 -1.5657  1.3931  0.1208
  214DMF     H7 3057   0.290   2.356   0.947  0.0898  1.2920  1.4220
  215DMF     C1 3058   3.305   2.534   0.498 -0.0050 -0.1740  0.6013
  215DMF     N1 3059   3.366   2.444   0.604 -0.1869  0.1124 -0.0592
  215DMF     C2 3060   3.457   2.333   0.569 -0.1346 -0.5875  0.0119
  215DMF     C3 3061   3.315   2.448   0.738  0.4397  0.0481 -0.0233
  215DMF     O1 3062   3.225   2.519   0.772 -0.5522 -0.1764 -0.0502
  215DMF     H1 3063   3.379   2.572   0.427  1.0524  1.3550  2.4701
  215DMF     H2 3064   3.239   2.612   0.539  0.8901  2.1413 -2.2545
  215DMF     H3 3065   3.248   2.464   0.436 -2.0091 -0.1229  2.3053
  215DMF     H4 3066   3.443   2.305   0.464 -0.1495  1.0607 -0.4396
  215DMF     H5 3067   3.445   2.251   0.641 -0.6533 -0.3753  0.1689
  215DMF     H6 3068   3.558   2.374   0.579 -0.5401  0.5953 -0.6271
  215DMF     H7 3069   3.360   2.371   0.804  1.9061 -0.3364 -1.4294
  216DMF     C1 3070   0.361   1.022   1.219 -0.5011  0.1967  0.3883
  216DMF     N1 3071   0.418   1.005   1.085 -0.4363 -0.0149  0.1796
  216DMF     C2 3072   0.455   1.128   1.014 -0.4712  0.3224 -0.3166
  216DMF     C3 3073   0.429   0.878   1.022  0.0110 -0.2361 -0.2502
  216DMF     O1 3074   0.402   0.770   1.076 -0.1713 -0.2098  0.0029
  216DMF     H1 3075   0.356   0.924   1.270  1.0541  0.3032  0.7546
  216DMF     H2 3076   0.265   1.075   1.225 -0.4160  0.1594  2.7328
  216DMF     H3 3077   0.436   1.077   1.278 -0.7996  0.0620  0.9044
  216DMF     H4 3078   0.455   1.217   1.079 -3.3336  0.7927 -0.8990
  216DMF     H5 3079   0.387   1.139   0.929  1.2391 -1.2531 -1.9286
  216DMF     H6 3080   0.554   1.117   0.967 -1.9208 -0.5243 -3.2304
  216DMF     H7 3081   0.458   0.880   0.916 -1.4156 -2.4819 -0.7338
  217DMF     C1 3082   3.174   3.008   2.797  0.8531 -0.0299 -0.2151
  217DMF     N1 3083   3.293   2.953   2.746 -0.2926  0.2952 -0.3755
  217DMF     C2 3084   3.300   2.896   2.609 -0.9422  0.2968  0.4984
  217DMF     C3 3085   3.414   2.961   2.818  0.2598 -0.7901 -0.3429
  217DMF     O1 3086   3.422   3.024   2.921  0.3686 -0.6143 -0.2931
  217DMF     H1 3087   3.194   3.080   2.877  2.1801 -1.6798  0.9782
  217DMF     H2 3088   3.120   2.923   2.840 -0.2641  0.8213  0.0966
  217DMF     H3 3089   3.124   3.053   2.710  1.1668 -1.0443 -0.9393
  217DMF     H4 3090   3.246   2.800   2.608  0.2983 -0.4075  0.0736
  217DMF     H5 3091   3.401   2.877   2.570 -1.0913  0.3480  0.0786
  217DMF     H6 3092   3.252   2.954   2.529 -0.2895  0.6199  0.3472
  217DMF     H7 3093   3.492   2.908   2.762 -1.2664 -1.4262 -1.9055
  218DMF     C1 3094   0.308   1.696   2.818  0.9475  0.4214 -0.5486
  218DMF     N1 3095   0.438   1.740   2.782  0.0934  0.1386 -0.4142
  218DMF     C2 3096   0.536   1.791   2.880 -0.1174 -0.5299 -0.9721
  218DMF     C3 3097   0.471   1.758   2.648 -0.2031 -0.3354 -0.8154
  218DMF     O1 3098   0.396   1.728   2.558  0.8541  0.5825 -0.1620
  218DMF     H1 3099   0.234   1.777   2.822  0.1387 -0.2547 -1.2732
  218DMF     H2 3100   0.317   1.653   2.918 -0.0353  1.2585 -0.0966
  218DMF     H3 3101   0.274   1.615   2.751 -1.6846  0.7997  0.2636
  218DMF     H4 3102   0.641   1.778   2.852  0.1691 -0.5789  0.1086
  218DMF     H5 3103   0.521   1.748   2.980  1.6981 -0.0719 -0.4959
  218DMF     H6 3104   0.519   1.899   2.887 -1.0358 -0.6729 -0.9072
  218DMF     H7 3105   0.567   1.810   2.636 -0.6814  0.8433  0.2904
  219DMF     C1 3106   1.405   3.253   1.527 -0.6547  0.5086 -0.2291
  219DMF     N1 3107   1.424   3.398   1.515 -0.1701  0.0790 -0.0863
  219DMF     C2 3108   1.311   3.479   1.551 -0.4620 -0.4912 -0.3814
  219DMF     C3 3109   1.553   3.457   1.538  0.1601 -0.2733  0.2560
  219DMF     O1 3110   1.656   3.392   1.541  0.4105  0.3117  0.1495
  219DMF     H1 3111   1.355   3.211   1.616  1.4145  0.3482  0.8896
  219DMF     H2 3112   1.505   3.210   1.511 -0.1245  1.5449  0.2655
  219DMF     H3 3113   1.345   3.219   1.442 -0.5334 -1.6403  0.5218
  219DMF     H4 3114   1.251   3.430   1.629 -0.4404  0.0608 -0.0167
  219DMF     H5 3115   1.246   3.491   1.463  2.5456  0.2909 -2.5615
  219DMF     H6 3116   1.337   3.577   1.593 -1.8684  0.1283 -0.9272
  219DMF     H7 3117   1.554   3.568   1.548 -1.2313 -0.4823  3.1177
  220DMF     C1 3118   3.284   2.548   2.292  0.3424 -0.2049  0.5320
  220DMF     N1 3119   3.404   2.632   2.253  0.4286 -0.3246 -0.3956
  220DMF     C2 3120   3.381   2.782   2.254 -0.0104 -0.0317 -0.3442
  220DMF     C3 3121   3.531   2.583   2.210  0.3839 -0.2737  0.6522
  220DMF     O1 3122   3.566   2.467   2.216 -0.5309  0.0625 -0.7434
  220DMF     H1 3123   3.259   2.469   2.220  1.2193 -1.0152  1.1034
  220DMF     H2 3124   3.194   2.606   2.317  0.2908  0.1949 -0.5527
  220DMF     H3 3125   3.329   2.493   2.376 -0.4736 -3.2100 -0.9345
  220DMF     H4 3126   3.474   2.836   2.276  0.9801 -1.0476 -1.8924
  220DMF     H5 3127   3.315   2.805   2.339 -2.3708  1.5372 -2.4935
  220DMF     H6 3128   3.331   2.824   2.166 -0.9880  0.1007  0.2663
  220DMF     H7 3129   3.601   2.666   2.189  1.4297 -1.5005 -0.7530
  221DMF     C1 3130   2.882   0.946   2.858 -0.0429  0.2491 -0.0576
  221DMF     N1 3131   3.008   0.976   2.789 -0.6212  0.1589 -0.1355
  221DMF     C2 3132   3.003   1.060   2.666  0.1187  0.1092  0.1850
  221DMF     C3 3133   3.136   0.935   2.840  0.8916 -0.1575 -0.5355
  221DMF     O1 3134   3.142   0.873   2.946  0.2284  0.1932  0.0913
  221DMF     H1 3135   2.802   0.973   2.788 -1.1068 -1.7661  0.3508
  221DMF     H2 3136   2.866   0.997   2.954  0.1675 -0.2717  0.2581
  221DMF     H3 3137   2.868   0.840   2.882 -0.2817 -0.4623 -3.1211
  221DMF     H4 3138   2.951   1.156   2.679 -0.0961 -0.0231  0.2999
  221DMF     H5 3139   2.944   1.007   2.590  1.5738 -0.6207 -0.4466
  221DMF     H6 3140   3.104   1.082   2.628 -0.6490 -0.4598 -2.2690
  221DMF     H7 3141   3.224   0.968   2.782  1.8345 -1.4885  0.1028
  222DMF     C1 3142   2.300   1.605   1.022 -0.2739  0.0153 -0.0423
  222DMF     N1 3143   2.230   1.609   1.152  0.0584 -0.7769  0.3020
  222DMF     C2 3144   2.165   1.735   1.187  0.5132  0.1222 -0.2224
  222DMF     C3 3145   2.231   1.499   1.235 -0.5522 -0.4287 -0.8490
  222DMF     O1 3146   2.300   1.402   1.226  0.6526  0.0230  0.1292
  222DMF     H1 3147   2.247   1.654   0.939  0.2780  2.3290  0.9217
  222DMF     H2 3148   2.323   1.502   0.994  2.5204  0.4504  0.5547
  222DMF     H3 3149   2.393   1.662   1.035 -2.1886  3.4084 -0.6823
  222DMF     H4 3150   2.239   1.816   1.188  1.0840 -0.3954 -0.3782
  222DMF     H5 3151   2.129   1.725   1.290 -0.2095 -0.0254 -0.4798
  222DMF     H6 3152   2.079   1.761   1.124 -1.9700 -0.2756  2.8894
  222DMF     H7 3153   2.161   1.507   1.320 -1.4742 -2.8405 -1.3231
  223DMF     C1 3154   0.427   2.876   3.224  0.4399 -0.0621 -0.6101
  223DMF     N1 3155   0.435   2.913   3.087 -0.5702 -0.6650 -0.5723
  223DMF     C2 3156   0.316   2.964   3.020  0.1043 -0.0138 -0.0986
  223DMF     C3 3157   0.558   2.893   3.025 -0.0894 -0.0818  0.4078
  223DMF     O1 3158   0.656   2.847   3.079 -1.0108 -0.1131  0.5641
  223DMF     H1 3159   0.322   2.879   3.257  0.6122  0.6790 -0.1058
  223DMF     H2 3160   0.473   2.953   3.288 -0.8218 -0.1552  0.4373
  223DMF     H3 3161   0.468   2.776   3.244  1.1034 -0.1729 -2.4631
  223DMF     H4 3162   0.281   2.911   2.931  1.3927 -0.2709 -0.4607
  223DMF     H5 3163   0.329   3.071   2.997  0.7970 -0.0405  0.1549
  223DMF     H6 3164   0.234   2.945   3.090 -0.3906  0.0107 -0.6690
  223DMF     H7 3165   0.558   2.923   2.918 -1.6871 -2.5822 -0.3452
  224DMF     C1 3166   0.951   2.709   1.327  0.1390  0.2187 -0.8519
  224DMF     N1 3167   0.818   2.751   1.366  0.5736 -0.2848  0.6670
  224DMF     C2 3168   0.709   2.731   1.277 -0.2974 -0.4175 -0.0452
  224DMF     C3 3169   0.796   2.809   1.489  0.5839  0.6301  0.3053
  224DMF     O1 3170   0.884   2.840   1.570 -0.5375  0.1602 -0.1149
  224DMF     H1 3171   0.949   2.600   1.320  1.2487  0.2240 -1.4007
  224DMF     H2 3172   1.034   2.737   1.394  0.2935  0.1754 -1.0222
  224DMF     H3 3173   0.978   2.744   1.226 -1.4428 -0.3527 -1.4786
  224DMF     H4 3174   0.739   2.736   1.172  3.0674 -0.9198  0.8277
  224DMF     H5 3175   0.643   2.818   1.289  1.1103  0.6044  0.3590
  224DMF     H6 3176   0.663   2.637   1.308  1.4845 -1.0528  0.7284
  224DMF     H7 3177   0.688   2.828   1.500  0.4768  1.0605 -1.3323
  225DMF     C1 3178   1.912   1.834   0.714  0.6302  0.3733  0.5630
  225DMF     N1 3179   1.931   1.734   0.605 -0.4749 -0.1779  0.5078
  225DMF     C2 3180   1.910   1.777   0.471  0.0496  0.1275 -0.6366
  225DMF     C3 3181   1.963   1.598   0.633  0.4906  0.3005 -0.2174
  225DMF     O1 3182   1.968   1.545   0.742 -0.4614 -0.1510 -0.3733
  225DMF     H1 3183   1.852   1.792   0.795 -0.2004 -1.2922 -0.8739
  225DMF     H2 3184   1.873   1.933   0.686 -1.5559 -0.4122  0.7756
  225DMF     H3 3185   2.009   1.841   0.764  0.8054  0.2156  0.2482
  225DMF     H4 3186   2.007   1.775   0.420  0.2415  0.1147 -0.2648
  225DMF     H5 3187   1.871   1.879   0.456  2.8548  1.9053  3.4487
  225DMF     H6 3188   1.844   1.700   0.428 -1.2056  0.8650 -0.0634
  225DMF     H7 3189   1.980   1.544   0.538 -0.2351 -0.6839  0.2028
  226DMF     C1 3190   2.293   1.083   0.641 -0.1822 -0.1426 -0.9710
  226DMF     N1 3191   2.149   1.100   0.642  0.0074  0.0339  0.2683
  226DMF     C2 3192   2.056   1.003   0.704 -0.7138 -0.7711  0.1205
  226DMF     C3 3193   2.098   1.226   0.605  0.1116 -0.0334  0.5593
  226DMF     O1 3194   2.167   1.312   0.548 -0.5694 -0.1558  0.0941
  226DMF     H1 3195   2.334   1.100   0.742  2.3118 -1.0573 -1.8006
  226DMF     H2 3196   2.351   1.155   0.582  1.7012 -0.6633  0.1796
  226DMF     H3 3197   2.323   0.988   0.596 -2.4729 -0.0507 -2.7499
  226DMF     H4 3198   1.980   0.985   0.626 -1.4821  0.9794  0.4446
  226DMF     H5 3199   1.991   1.054   0.776  0.4924 -0.6615  1.1448
  226DMF     H6 3200   2.106   0.914   0.746  0.7406  0.1340  0.3218
  226DMF     H7 3201   1.995   1.245   0.638 -0.0718 -0.3577  0.1719
  227DMF     C1 3202   1.674   1.117   0.633  0.3776 -1.0160  0.0206
  227DMF     N1 3203   1.659   1.057   0.499  0.4970 -0.6420 -0.6968
  227DMF     C2 3204   1.772   1.066   0.415  0.0043  0.4529  0.4220
  227DMF     C3 3205   1.562   0.955   0.483  0.1786  0.4539  0.4029
  227DMF     O1 3206   1.465   0.934   0.552  0.4287 -0.0237 -0.0759
  227DMF     H1 3207   1.715   1.218   0.628 -0.6143 -0.6921 -1.9723
  227DMF     H2 3208   1.746   1.060   0.692  0.6685  0.5345  1.1802
  227DMF     H3 3209   1.576   1.117   0.683  0.2546 -2.7172 -0.1824
  227DMF     H4 3210   1.817   1.166   0.422  0.7500  0.0046  2.3497
  227DMF     H5 3211   1.738   1.037   0.314 -0.8428 -2.6325  1.5332
  227DMF     H6 3212   1.839   0.984   0.442 -0.0260 -0.4141 -1.9921
  227DMF     H7 3213   1.582   0.897   0.391 -2.0115 -0.8392  0.7187
  228DMF     C1 3214   0.510   2.679   2.249 -0.5270 -0.5209 -0.2467
  228DMF     N1 3215   0.554   2.812   2.224  0.0789  0.2636 -0.2151
  228DMF     C2 3216   0.700   2.840   2.224 -0.0235 -0.6994 -0.2319
  228DMF     C3 3217   0.454   2.915   2.216 -0.1655 -0.0773 -0.8298
  228DMF     O1 3218   0.334   2.888   2.208 -0.2103  0.3042 -0.1264
  228DMF     H1 3219   0.547   2.606   2.177 -0.3958  0.1006 -0.8097
  228DMF     H2 3220   0.404   2.668   2.275 -0.7944 -0.3138 -1.2453
  228DMF     H3 3221   0.543   2.649   2.349  1.4401  0.4068 -0.6029
  228DMF     H4 3222   0.743   2.820   2.323 -1.8768 -1.3983  0.4551
  228DMF     H5 3223   0.699   2.949   2.214 -2.8995 -0.6616  0.0725
  228DMF     H6 3224   0.765   2.793   2.149 -0.0582 -0.4267 -0.4331
  228DMF     H7 3225   0.497   3.018   2.214 -0.1895 -0.0772 -1.2669
  229DMF     C1 3226   1.965   0.432   3.313  0.1110  0.2988  0.4725
  229DMF     N1 3227   1.993   0.578   3.286  0.4341  0.1141  0.0550
  229DMF     C2 3228   2.108   0.640   3.341  0.1431 -0.4551  0.1377
  229DMF     C3 3229   1.897   0.647   3.213 -0.9210 -0.1766 -0.8449
  229DMF     O1 3230   1.803   0.591   3.160 -0.2793  0.2952  0.9463
  229DMF     H1 3231   1.990   0.392   3.412  1.3755  0.4240  0.2022
  229DMF     H2 3232   2.021   0.374   3.239  0.4241  1.2714 -0.0467
  229DMF     H3 3233   1.858   0.412   3.298  0.4842 -1.2739 -0.1823
  229DMF     H4 3234   2.190   0.635   3.268 -0.6267 -0.8503 -0.6999
  229DMF     H5 3235   2.146   0.568   3.415  2.0817  1.0594  0.6526
  229DMF     H6 3236   2.096   0.743   3.375  1.2245 -0.3724  0.2857
  229DMF     H7 3237   1.912   0.756   3.204  1.6533 -0.3970  0.3254
  230DMF     C1 3238   3.185   3.110   0.366 -0.0225 -0.9919 -0.3246
  230DMF     N1 3239   3.214   3.162   0.232 -0.0228 -0.1255 -0.3076
  230DMF     C2 3240   3.192   3.074   0.121  0.0183  0.1680  0.2757
  230DMF     C3 3241   3.241   3.296   0.210 -0.4699 -0.9079  0.1039
  230DMF     O1 3242   3.252   3.375   0.309 -0.2877  1.0165  0.3820
  230DMF     H1 3243   3.122   3.177   0.425  0.0830 -1.1340 -0.0534
  230DMF     H2 3244   3.280   3.098   0.420  0.7201  3.3528 -0.4220
  230DMF     H3 3245   3.138   3.012   0.356 -0.3662 -0.8482 -0.1231
  230DMF     H4 3246   3.168   3.126   0.027 -0.3377  1.0251  0.8414
  230DMF     H5 3247   3.104   3.012   0.142  0.8711  0.0399  3.7349
  230DMF     H6 3248   3.277   3.008   0.101 -0.5065 -1.6577  3.6517
  230DMF     H7 3249   3.280   3.319   0.109 -0.8398 -0.5209  0.0506
  231DMF     C1 3250   0.746   2.041   2.247  0.2915 -0.3718 -0.2774
  231DMF     N1 3251   0.682   1.916   2.234 -0.0350 -0.2537 -0.2080
  231DMF     C2 3252   0.539   1.904   2.259 -0.0881 -0.1019 -0.2922
  231DMF     C3 3253   0.752   1.797   2.241  0.0378 -0.3010  0.0998
  231DMF     O1 3254   0.873   1.787   2.233 -0.0273  0.5841 -0.0760
  231DMF     H1 3255   0.800   2.068   2.155  0.9322  0.8015  0.4399
  231DMF     H2 3256   0.822   2.032   2.325  0.1516  0.5389 -0.0269
  231DMF     H3 3257   0.672   2.115   2.281  1.4970  1.0505 -0.6969
  231DMF     H4 3258   0.496   2.002   2.236  1.0647  0.2322 -1.0838
  231DMF     H5 3259   0.524   1.873   2.363  0.1221  0.4486 -0.0937
  231DMF     H6 3260   0.512   1.830   2.184  0.8277  1.2037 -1.9460
  231DMF     H7 3261   0.690   1.706   2.246  1.3979 -1.3086 -0.7082
  232DMF     C1 3262   3.264   2.335   2.890 -0.1297  0.3302  0.7123
  232DMF     N1 3263   3.124   2.361   2.867  0.1920 -1.0314  0.1153
  232DMF     C2 3264   3.034   2.368   2.980  0.0972 -0.0002  0.3563
  232DMF     C3 3265   3.077   2.397   2.739 -0.1006 -0.3397 -0.8893
  232DMF     O1 3266   3.147   2.382   2.638 -0.3695 -0.0449  0.0342
  232DMF     H1 3267   3.278   2.233   2.929  2.2914 -0.2160 -1.4266
  232DMF     H2 3268   3.311   2.401   2.964  3.0370  1.8632 -2.5548
  232DMF     H3 3269   3.321   2.332   2.797 -0.7425  0.1330  0.3377
  232DMF     H4 3270   3.074   2.307   3.062  0.6205  0.1921  0.2497
  232DMF     H5 3271   2.936   2.322   2.963  0.2708 -0.0211 -0.6493
  232DMF     H6 3272   3.004   2.465   3.020 -1.5864 -0.1989 -0.4173
  232DMF     H7 3273   2.973   2.435   2.733 -0.2440 -0.7805 -1.1740
  233DMF     C1 3274   0.535   0.023   3.677  0.0856 -0.7050 -0.0138
  233DMF     N1 3275   0.454  -0.080   3.607 -0.2982 -0.0793 -0.4465
  233DMF     C2 3276   0.517  -0.186   3.523  1.2046 -0.3609  0.1604
  233DMF     C3 3277   0.315  -0.089   3.640 -0.0658 -0.6356  0.5730
  233DMF     O1 3278   0.257  -0.012   3.715 -0.2664  0.7330 -0.1877
  233DMF     H1 3279   0.642   0.005   3.691 -0.0445 -2.1476 -0.8303
  233DMF     H2 3280   0.494   0.047   3.776 -1.0842 -1.5217 -0.2885
  233DMF     H3 3281   0.527   0.111   3.612 -0.3316 -1.8514 -1.5508
  233DMF     H4 3282   0.602  -0.219   3.585  1.3540 -0.0244  0.1312
  233DMF     H5 3283   0.554  -0.143   3.429  1.0799  0.6507  0.5720
  233DMF     H6 3284   0.448  -0.268   3.499  2.0835 -0.5182 -1.9432
  233DMF     H7 3285   0.275  -0.176   3.585 -0.7254  0.7867 -1.2456
  234DMF     C1 3286   2.001   3.021   2.708  0.7052 -0.0441 -0.1183
  234DMF     N1 3287   1.914   3.127   2.762 -0.1710 -0.9617  0.3611
  234DMF     C2 3288   1.970   3.253   2.811  0.0294 -1.0547 -0.0604
  234DMF     C3 3289   1.777   3.100   2.782  0.0374  0.2280  0.3882
  234DMF     O1 3290   1.717   2.994   2.762 -0.5255 -0.1514  0.5660
  234DMF     H1 3291   2.001   2.934   2.776 -0.8319  0.9997  1.2629
  234DMF     H2 3292   2.105   3.052   2.698  1.3104 -1.4984  1.5159
  234DMF     H3 3293   1.960   3.000   2.608 -2.3673  2.9366  0.4040
  234DMF     H4 3294   2.065   3.241   2.864  0.2300 -0.4187 -0.2675
  234DMF     H5 3295   1.904   3.310   2.877  0.8810 -1.1016  0.8373
  234DMF     H6 3296   2.002   3.310   2.722 -0.6448  0.2050  0.4856
  234DMF     H7 3297   1.728   3.195   2.811 -1.6047 -0.0039 -1.5193
  235DMF     C1 3298   0.643   0.543   3.196 -0.3886 -0.1236  0.1595
  235DMF     N1 3299   0.696   0.553   3.058  0.6138 -0.1093  0.0751
  235DMF     C2 3300   0.748   0.427   2.994 -0.4157  0.3415 -0.1703
  235DMF     C3 3301   0.715   0.675   2.999  0.0899  0.3913  0.1604
  235DMF     O1 3302   0.679   0.778   3.043 -0.1419  0.0380  0.8581
  235DMF     H1 3303   0.594   0.447   3.217 -0.7305 -0.1989 -0.9941
  235DMF     H2 3304   0.568   0.619   3.221 -1.1467 -0.9564  0.4391
  235DMF     H3 3305   0.730   0.549   3.263 -1.1437 -1.8741  1.3467
  235DMF     H4 3306   0.729   0.342   3.061  2.1337 -1.2084 -1.3518
  235DMF     H5 3307   0.855   0.435   2.970 -0.6078  2.6741 -0.3469
  235DMF     H6 3308   0.698   0.405   2.899 -2.9025 -0.4852  1.2988
  235DMF     H7 3309   0.762   0.666   2.899  0.6040  0.6277  0.3811
  236DMF     C1 3310   1.385   2.430   2.223  0.7170  0.6198 -0.0294
  236DMF     N1 3311   1.528   2.452   2.240  0.2126  0.0413  0.0293
  236DMF     C2 3312   1.566   2.586   2.283  0.5108 -0.4137 -0.2446
  236DMF     C3 3313   1.615   2.346   2.252  0.2180  0.0945 -0.0047
  236DMF     O1 3314   1.588   2.226   2.246  0.0567  0.4098 -0.5416
  236DMF     H1 3315   1.334   2.510   2.169  0.5470  0.8497  0.4704
  236DMF     H2 3316   1.333   2.417   2.318  0.6058 -0.3122 -0.2142
  236DMF     H3 3317   1.376   2.341   2.159 -0.1022  0.3774  0.4252
  236DMF     H4 3318   1.658   2.595   2.343  0.4186 -2.3851  0.2511
  236DMF     H5 3319   1.485   2.627   2.344 -1.0995 -2.3833 -0.9852
  236DMF     H6 3320   1.587   2.645   2.193 -0.2798  1.9086  1.0595
  236DMF     H7 3321   1.715   2.378   2.288 -0.6792  0.8304  1.9460
  237DMF     C1 3322   0.811   0.727   0.691 -0.4931  0.3149  0.2341
  237DMF     N1 3323   0.922   0.673   0.769 -0.4558  0.0420 -0.2642
  237DMF     C2 3324   1.006   0.764   0.840 -0.6045  0.2654 -0.3515
  237DMF     C3 3325   0.922   0.536   0.815  0.1283 -0.8404 -0.7846
  237DMF     O1 3326   0.841   0.455   0.777 -0.4173 -0.4410 -0.5897
  237DMF     H1 3327   0.850   0.777   0.602  1.1069  1.3118  1.4501
  237DMF     H2 3328   0.743   0.780   0.759 -0.7142  1.3351 -0.7627
  237DMF     H3 3329   0.747   0.647   0.653 -0.3028 -0.5323  1.6468
  237DMF     H4 3330   1.106   0.764   0.795 -0.0716 -0.1310  0.7967
  237DMF     H5 3331   1.025   0.729   0.943  2.4025 -4.9894 -2.4696
  237DMF     H6 3332   0.968   0.866   0.839  0.6485  0.7663  0.5864
  237DMF     H7 3333   1.002   0.520   0.889 -0.3063 -1.1780 -0.3927
  238DMF     C1 3334   3.195   1.976   1.093  0.0497  0.4467  0.7849
  238DMF     N1 3335   3.303   2.078   1.113  0.1439 -0.3320  0.4392
  238DMF     C2 3336   3.359   2.093   1.248  0.0044 -0.8230  0.4297
  238DMF     C3 3337   3.347   2.162   1.006 -1.0458 -0.1385  0.0850
  238DMF     O1 3338   3.320   2.146   0.885 -0.1970 -0.1246  0.0773
  238DMF     H1 3339   3.229   1.872   1.096 -0.4632  0.1256 -2.5805
  238DMF     H2 3340   3.131   1.996   1.006 -2.4077 -0.1034  2.3854
  238DMF     H3 3341   3.127   1.987   1.179  0.4500 -0.6164  1.2433
  238DMF     H4 3342   3.321   2.180   1.303  0.0467 -1.8960  2.2154
  238DMF     H5 3343   3.467   2.098   1.234 -0.0151  2.1974  1.0476
  238DMF     H6 3344   3.336   2.003   1.307  0.2783 -1.0143  0.2400
  238DMF     H7 3345   3.413   2.247   1.031  0.5687 -0.9477 -1.3314
  239DMF     C1 3346   2.321   2.620   3.606 -0.4890  1.1025  0.4255
  239DMF     N1 3347   2.371   2.493   3.546 -0.3057 -0.2011 -0.2603
  239DMF     C2 3348   2.451   2.510   3.421  0.1381  0.2296  0.6679
  239DMF     C3 3349   2.349   2.365   3.606  0.2728  0.1952 -1.1321
  239DMF     O1 3350   2.295   2.356   3.712  0.3538 -0.4840  0.0370
  239DMF     H1 3351   2.257   2.661   3.527 -1.3273 -2.7275 -0.9700
  239DMF     H2 3352   2.402   2.689   3.635 -1.4352  3.5572 -2.4814
  239DMF     H3 3353   2.259   2.602   3.695  0.5395  0.2144  0.9729
  239DMF     H4 3354   2.393   2.529   3.330  1.2612 -2.3047 -0.6075
  239DMF     H5 3355   2.487   2.409   3.399 -2.6764 -0.6495 -0.1424
  239DMF     H6 3356   2.536   2.577   3.436 -1.5589  2.0696  2.3897
  239DMF     H7 3357   2.373   2.277   3.543 -0.5179  0.6256 -2.0655
  240DMF     C1 3358   0.507   3.313   3.157 -0.0302  0.1446 -0.2665
  240DMF     N1 3359   0.648   3.372   3.147 -0.1476 -0.3601 -0.3544
  240DMF     C2 3360   0.765   3.301   3.200 -0.3489 -1.2145 -0.0175
  240DMF     C3 3361   0.663   3.498   3.085 -0.2076 -0.0203 -0.8001
  240DMF     O1 3362   0.570   3.556   3.029 -0.0493 -0.0109  0.0029
  240DMF     H1 3363   0.513   3.224   3.220  1.7503 -0.9348 -1.8860
  240DMF     H2 3364   0.469   3.302   3.055  1.0706 -1.4031 -0.5320
  240DMF     H3 3365   0.448   3.389   3.209 -2.6917  0.5554 -3.7012
  240DMF     H4 3366   0.751   3.194   3.220 -3.9376 -0.5304  1.5841
  240DMF     H5 3367   0.809   3.362   3.280 -1.8855 -1.7009  1.2287
  240DMF     H6 3368   0.840   3.316   3.121  1.8438 -0.4791  2.1423
  240DMF     H7 3369   0.763   3.541   3.099  0.0436 -0.9696  0.4361
  241DMF     C1 3370   1.468   0.335   2.670  0.6609  0.3642 -0.4010
  241DMF     N1 3371   1.500   0.429   2.780  0.4568 -0.0733 -0.0729
  241DMF     C2 3372   1.487   0.576   2.757 -0.0835 -0.4728 -0.0626
  241DMF     C3 3373   1.539   0.391   2.911 -0.3119  0.5208 -0.1794
  241DMF     O1 3374   1.570   0.274   2.936 -0.1682 -0.1181  0.2235
  241DMF     H1 3375   1.517   0.364   2.576  0.1000  0.1632 -0.7613
  241DMF     H2 3376   1.361   0.335   2.648  0.3400  0.2020  1.1594
  241DMF     H3 3377   1.494   0.235   2.704 -0.3467 -1.3524 -4.3677
  241DMF     H4 3378   1.393   0.613   2.799  0.6671  1.4445  0.0154
  241DMF     H5 3379   1.477   0.594   2.650  0.8091 -0.6014 -0.1695
  241DMF     H6 3380   1.570   0.633   2.802  0.8180 -1.2745 -0.6857
  241DMF     H7 3381   1.538   0.478   2.980 -3.1660  1.4379 -1.2993
  242DMF     C1 3382   2.884   0.262   0.913 -0.6617  0.2629 -0.7214
  242DMF     N1 3383   2.831   0.267   0.776 -0.2131 -0.0038 -0.5436
  242DMF     C2 3384   2.867   0.156   0.680  0.0126 -0.5517  0.5667
  242DMF     C3 3385   2.755   0.370   0.726 -0.5783 -0.5387 -0.1089
  242DMF     O1 3386   2.732   0.472   0.799 -0.2363 -0.8701  0.2240
  242DMF     H1 3387   2.808   0.287   0.988 -1.6922  0.6748 -1.8935
  242DMF     H2 3388   2.952   0.348   0.919  1.5357 -1.4706 -0.3546
  242DMF     H3 3389   2.938   0.169   0.933 -2.1659 -0.6922 -0.9713
  242DMF     H4 3390   2.941   0.190   0.607 -2.7935 -1.9121 -3.0655
  242DMF     H5 3391   2.776   0.127   0.626 -0.5753  1.8284  0.2148
  242DMF     H6 3392   2.907   0.072   0.737 -0.7832  0.1889  2.2695
  242DMF     H7 3393   2.715   0.354   0.625 -0.8362 -0.8654  0.0439
  243DMF     C1 3394   0.593   1.445   2.483  0.7512 -0.1688 -0.5711
  243DMF     N1 3395   0.640   1.378   2.358 -0.0412  0.3120  0.8121
  243DMF     C2 3396   0.670   1.233   2.383  0.0606 -0.9605  0.1046
  243DMF     C3 3397   0.616   1.427   2.231  0.6120 -0.3090  0.1486
  243DMF     O1 3398   0.549   1.528   2.217 -0.4475 -0.0441 -0.5468
  243DMF     H1 3399   0.641   1.397   2.569 -0.4718  1.5229  1.1038
  243DMF     H2 3400   0.485   1.432   2.493  0.6814 -1.9653 -3.2559
  243DMF     H3 3401   0.616   1.552   2.486 -1.7436  0.3780  1.1585
  243DMF     H4 3402   0.669   1.173   2.291 -1.6156 -1.3452  0.3484
  243DMF     H5 3403   0.605   1.176   2.450 -2.4752 -0.5936 -1.9352
  243DMF     H6 3404   0.774   1.234   2.416 -0.4039  2.0642  1.6496
  243DMF     H7 3405   0.655   1.361   2.151 -1.3097  1.2680 -2.1846
  244DMF     C1 3406   0.768   1.236   3.245 -0.2641  0.2360 -0.3460
  244DMF     N1 3407   0.722   1.128   3.155  0.2320 -0.2358  0.2527
  244DMF     C2 3408   0.814   1.076   3.050 -0.0386  0.5978  0.1331
  244DMF     C3 3409   0.586   1.080   3.152 -0.0999  0.2240  0.1763
  244DMF     O1 3410   0.489   1.122   3.218 -0.0991 -0.0933 -0.0805
  244DMF     H1 3411   0.854   1.285   3.197  0.2800 -0.5999 -0.2362
  244DMF     H2 3412   0.823   1.185   3.326 -1.6419  0.7483  0.9341
  244DMF     H3 3413   0.684   1.303   3.267 -0.7372 -1.3509  2.9314
  244DMF     H4 3414   0.906   1.136   3.046  2.1660 -2.5268  1.8173
  244DMF     H5 3415   0.757   1.065   2.957  1.1025  0.0466 -0.5033
  244DMF     H6 3416   0.847   0.978   3.085  1.0875  1.0533  0.3486
  244DMF     H7 3417   0.577   1.004   3.073  0.5576  2.3110 -1.9533
  245DMF     C1 3418   0.913   2.015   0.403 -0.9540  0.0141 -0.1797
  245DMF     N1 3419   0.894   1.890   0.477  0.7924  0.6727 -0.6783
  245DMF     C2 3420   0.763   1.828   0.472 -0.3173 -0.5109 -0.1550
  245DMF     C3 3421   1.004   1.834   0.548 -1.0121 -0.2955 -0.2295
  245DMF     O1 3422   1.115   1.885   0.557 -0.5818 -0.0513 -0.1430
  245DMF     H1 3423   0.903   2.001   0.295  3.0754  0.8500 -0.7532
  245DMF     H2 3424   1.016   2.049   0.419 -1.3164  1.0757 -0.0926
  245DMF     H3 3425   0.844   2.088   0.446  0.4191  1.0014  0.3852
  245DMF     H4 3426   0.695   1.881   0.404  1.6241  1.2096 -0.8025
  245DMF     H5 3427   0.717   1.833   0.571  0.7848  1.0976  0.2894
  245DMF     H6 3428   0.771   1.727   0.429  1.4295 -0.3775 -0.1932
  245DMF     H7 3429   0.977   1.738   0.597 -1.1157 -0.0254  0.2499
  246DMF     C1 3430   0.862   2.380   0.161  0.0467 -0.0762 -0.2990
  246DMF     N1 3431   0.982   2.468   0.172 -0.2815 -0.4185  0.0876
  246DMF     C2 3432   1.039   2.535   0.051 -0.8217  0.2339 -0.2258
  246DMF     C3 3433   1.052   2.485   0.293  0.7764  0.0124  0.1870
  246DMF     O1 3434   1.007   2.446   0.399 -0.2594 -0.3964  0.0859
  246DMF     H1 3435   0.885   2.272   0.164  0.8076  0.1269  1.7860
  246DMF     H2 3436   0.797   2.405   0.076 -0.4871 -0.1207  0.0904
  246DMF     H3 3437   0.801   2.400   0.249  0.4698  1.2539 -0.3014
  246DMF     H4 3438   0.963   2.590  -0.005  0.7138  1.4913 -1.1013
  246DMF     H5 3439   1.072   2.446  -0.005  2.7094  1.1361  0.2993
  246DMF     H6 3440   1.125   2.600   0.074 -0.6753  0.2164 -0.7263
  246DMF     H7 3441   1.139   2.552   0.286  0.2070  0.9422  1.9551
  247DMF     C1 3442   2.268   1.009   2.218  0.1591  1.0169 -0.0068
  247DMF     N1 3443   2.169   0.905   2.254  0.3163 -0.0367 -0.4964
  247DMF     C2 3444   2.026   0.938   2.242  0.5563 -0.0256  0.3719
  247DMF     C3 3445   2.205   0.774   2.288 -0.4870  0.8022 -0.0921
  247DMF     O1 3446   2.318   0.734   2.296  0.3489  0.2909  0.1045
  247DMF     H1 3447   2.295   1.058   2.313  1.3121  0.5884 -0.1121
  247DMF     H2 3448   2.213   1.084   2.160 -2.6860  0.9672  2.5011
  247DMF     H3 3449   2.358   0.969   2.171 -1.5553 -1.3946 -1.3377
  247DMF     H4 3450   1.990   0.944   2.345  0.0101  0.0584  0.1787
  247DMF     H5 3451   1.965   0.864   2.189  0.0163  0.5375  0.1915
  247DMF     H6 3452   2.015   1.040   2.202 -0.0037  0.8120  2.5739
  247DMF     H7 3453   2.111   0.721   2.309 -0.6899  0.8281 -0.9158
  248DMF     C1 3454   1.765   3.254   2.481 -0.0123 -0.3583  0.3275
  248DMF     N1 3455   1.696   3.340   2.391  0.3193  0.3203  0.3117
  248DMF     C2 3456   1.657   3.471   2.442 -0.1653  0.7589  0.5040
  248DMF     C3 3457   1.666   3.314   2.253 -0.3598 -0.7412  0.6681
  248DMF     O1 3458   1.687   3.201   2.217  0.5073 -0.6303  0.3663
  248DMF     H1 3459   1.824   3.194   2.411 -1.2879 -3.2710  1.6648
  248DMF     H2 3460   1.701   3.183   2.535 -0.3187  0.0710  0.5341
  248DMF     H3 3461   1.827   3.302   2.558 -0.0428  0.5448 -0.2127
  248DMF     H4 3462   1.604   3.539   2.375 -0.1947 -0.1481 -0.4064
  248DMF     H5 3463   1.748   3.524   2.475 -1.2126  2.5252  0.6053
  248DMF     H6 3464   1.595   3.457   2.531 -0.1071 -2.9055  0.0349
  248DMF     H7 3465   1.617   3.393   2.193  1.8762  0.7988  0.8059
  249DMF     C1 3466   0.822   0.725   0.037 -0.0451  0.0967 -0.7152
  249DMF     N1 3467   0.807   0.818   0.150 -0.3843  0.2109 -0.4156
  249DMF     C2 3468   0.807   0.960   0.110 -0.0305 -0.0469  0.2990
  249DMF     C3 3469   0.833   0.774   0.282  0.0599 -0.3637 -0.7732
  249DMF     O1 3470   0.864   0.658   0.317 -0.0233  0.0840  0.1226
  249DMF     H1 3471   0.927   0.722   0.006 -0.0419 -1.0077 -0.5962
  249DMF     H2 3472   0.757   0.766  -0.042 -1.1282 -2.2116 -1.0478
  249DMF     H3 3473   0.802   0.619   0.053  3.3502 -0.6170 -0.8204
  249DMF     H4 3474   0.706   0.999   0.094  0.1988  0.3268 -0.2616
  249DMF     H5 3475   0.871   0.975   0.022  0.1960  0.9221  0.6223
  249DMF     H6 3476   0.848   1.023   0.190  1.7249  1.4580 -1.7379
  249DMF     H7 3477   0.818   0.861   0.349 -2.9916 -0.9604 -0.5908
  250DMF     C1 3478   1.346   0.675   3.406  0.5190 -0.2173 -0.7867
  250DMF     N1 3479   1.467   0.593   3.360  0.2478 -0.0121  0.5130
  250DMF     C2 3480   1.590   0.560   3.444  0.8332  0.1106 -0.5284
  250DMF     C3 3481   1.479   0.565   3.224 -0.0168  0.1756 -0.2932
  250DMF     O1 3482   1.399   0.602   3.140  0.6916 -0.5238  0.4870
  250DMF     H1 3483   1.320   0.745   3.326  0.3692  0.1215 -0.4384
  250DMF     H2 3484   1.372   0.730   3.497  0.2411  0.4360 -1.0999
  250DMF     H3 3485   1.275   0.594   3.426  1.8066 -1.4589 -1.1376
  250DMF     H4 3486   1.586   0.451   3.456  0.3068  0.3286  1.4386
  250DMF     H5 3487   1.582   0.610   3.542 -1.8895 -0.0426 -0.6383
  250DMF     H6 3488   1.676   0.605   3.395  1.6586  2.4155  2.8648
  250DMF     H7 3489   1.569   0.506   3.199 -1.3188 -0.7756 -2.8457
  251DMF     C1 3490   2.499   1.306   3.106  1.0925  0.7026  0.3954
  251DMF     N1 3491   2.413   1.420   3.127  0.0390  0.1784 -0.0035
  251DMF     C2 3492   2.338   1.470   3.018  0.4416  0.1800  0.3633
  251DMF     C3 3493   2.395   1.476   3.254 -0.5981 -0.4911 -0.1582
  251DMF     O1 3494   2.436   1.423   3.352  0.1527 -0.2038  0.1340
  251DMF     H1 3495   2.437   1.221   3.137  1.6101  0.0242 -0.3950
  251DMF     H2 3496   2.592   1.319   3.163  1.4422  0.5610 -0.1369
  251DMF     H3 3497   2.524   1.297   3.000  0.6022 -3.0228  0.5292
  251DMF     H4 3498   2.395   1.553   2.975  2.1155 -1.2372 -0.1944
  251DMF     H5 3499   2.241   1.513   3.048  0.9458  1.0449  0.7945
  251DMF     H6 3500   2.328   1.393   2.941  1.2285 -0.2454  0.6833
  251DMF     H7 3501   2.338   1.570   3.245 -2.1255 -1.5014 -1.1760
  252DMF     C1 3502   0.474   0.311   1.345  0.0120  0.0236  0.1072
  252DMF     N1 3503   0.477   0.436   1.418  0.1482  0.8881 -0.2626
  252DMF     C2 3504   0.427   0.559   1.354  0.3775 -0.1497 -0.0364
  252DMF     C3 3505   0.512   0.441   1.556  0.0887  0.5872 -0.0147
  252DMF     O1 3506   0.548   0.344   1.619  0.6324  0.5560 -0.4890
  252DMF     H1 3507   0.421   0.322   1.250  0.9180  2.3894 -0.1514
  252DMF     H2 3508   0.431   0.233   1.409  0.6538  0.3052  0.9026
  252DMF     H3 3509   0.581   0.292   1.330 -0.1546 -0.1465 -0.8966
  252DMF     H4 3510   0.478   0.648   1.391  1.2861 -0.5691 -0.2795
  252DMF     H5 3511   0.318   0.572   1.357  0.4398  1.2273 -2.4198
  252DMF     H6 3512   0.454   0.547   1.248 -0.9113 -2.4936 -0.1340
  252DMF     H7 3513   0.509   0.543   1.599 -0.6690 -0.8060  3.4531
  253DMF     C1 3514   2.089   1.643   2.775 -0.0319  0.3344 -0.4963
  253DMF     N1 3515   2.113   1.789   2.762 -0.4718  0.1189 -0.2636
  253DMF     C2 3516   2.031   1.873   2.850  0.3385 -0.2280  0.0570
  253DMF     C3 3517   2.212   1.837   2.671  0.4595  0.5495 -0.3223
  253DMF     O1 3518   2.271   1.765   2.590 -0.5209  0.3651 -0.3435
  253DMF     H1 3519   1.986   1.617   2.748  0.2755 -1.2878 -0.1601
  253DMF     H2 3520   2.106   1.614   2.879  1.2129  0.8499 -0.5462
  253DMF     H3 3521   2.159   1.576   2.723  1.6058 -0.3853  2.5245
  253DMF     H4 3522   2.026   1.830   2.951 -1.0972  1.7653  0.8890
  253DMF     H5 3523   1.927   1.886   2.817  0.4145 -1.9637 -0.8901
  253DMF     H6 3524   2.076   1.972   2.867  0.4648 -0.0326 -1.3350
  253DMF     H7 3525   2.228   1.946   2.663 -1.3408  0.7447 -1.6027
  254DMF     C1 3526   1.436   1.279   0.888 -0.3847  0.1146 -0.5013
  254DMF     N1 3527   1.328   1.302   0.979  0.3723 -0.3192 -0.2696
  254DMF     C2 3528   1.256   1.187   1.032 -0.2320 -0.2717  0.2872
  254DMF     C3 3529   1.281   1.433   1.015 -0.0051 -0.0850  0.4694
  254DMF     O1 3530   1.331   1.534   0.960  0.2834 -0.5001  0.0847
  254DMF     H1 3531   1.461   1.174   0.873 -1.2410 -0.5476  2.4088
  254DMF     H2 3532   1.517   1.350   0.912  0.4013 -1.5819  2.0617
  254DMF     H3 3533   1.408   1.309   0.786  1.3594 -2.5269 -1.7934
  254DMF     H4 3534   1.299   1.144   1.124 -2.5066 -1.3664  0.8937
  254DMF     H5 3535   1.278   1.112   0.955  1.4864  1.6422 -1.1419
  254DMF     H6 3536   1.149   1.212   1.037 -0.1382  0.0322  0.8623
  254DMF     H7 3537   1.195   1.438   1.085 -1.7165 -1.7387 -1.4524
  255DMF     C1 3538   2.505   2.287   1.549  0.0495  0.0692  0.0046
  255DMF     N1 3539   2.583   2.164   1.553 -0.1292  0.4258 -0.1801
  255DMF     C2 3540   2.512   2.032   1.571 -0.0466  0.2583  0.0907
  255DMF     C3 3541   2.719   2.173   1.569  0.2791 -0.1112  0.3481
  255DMF     O1 3542   2.778   2.278   1.571  0.2546 -0.2216  1.0235
  255DMF     H1 3543   2.513   2.342   1.643 -1.5032 -0.7470  0.6435
  255DMF     H2 3544   2.397   2.267   1.545  0.2853 -1.2161 -0.2290
  255DMF     H3 3545   2.538   2.355   1.470 -0.3402  2.8722  2.1891
  255DMF     H4 3546   2.578   1.967   1.629 -2.0731  0.2597  2.4980
  255DMF     H5 3547   2.492   1.981   1.476 -2.6055  0.0732  0.6819
  255DMF     H6 3548   2.418   2.050   1.624 -1.2849 -0.7008 -1.7201
  255DMF     H7 3549   2.765   2.075   1.593  0.4454 -0.4855 -1.4015
  256DMF     C1 3550   0.627   1.386   2.847  0.6632  0.0184  0.0527
  256DMF     N1 3551   0.490   1.332   2.866 -0.5571  0.2629  0.0462
  256DMF     C2 3552   0.420   1.385   2.982  0.1188  1.1883  0.7550
  256DMF     C3 3553   0.421   1.243   2.768 -0.3210  0.0377 -0.7785
  256DMF     O1 3554   0.481   1.199   2.670 -0.1149  0.4976 -0.2616
  256DMF     H1 3555   0.684   1.374   2.940 -1.2524 -0.9859  1.1289
  256DMF     H2 3556   0.634   1.493   2.822 -1.9062 -0.1271 -1.5298
  256DMF     H3 3557   0.670   1.326   2.766 -2.1025 -1.3624 -0.4632
  256DMF     H4 3558   0.313   1.370   2.961  0.2358 -0.8581  1.4963
  256DMF     H5 3559   0.452   1.489   2.994 -0.6000  1.4605  0.3654
  256DMF     H6 3560   0.453   1.331   3.072  1.5770 -0.9273 -0.9822
  256DMF     H7 3561   0.319   1.218   2.803  0.3616 -1.0982  0.4412
  257DMF     C1 3562   0.303   3.024   1.265 -0.3267 -0.8796 -0.1059
  257DMF     N1 3563   0.258   3.085   1.391  0.2455  0.1939 -0.2983
  257DMF     C2 3564   0.125   3.150   1.400  0.0401 -0.0371 -0.3292
  257DMF     C3 3565   0.349   3.100   1.496 -0.7227  0.2958  0.0857
  257DMF     O1 3566   0.462   3.060   1.493  0.4888  0.2500  0.1075
  257DMF     H1 3567   0.361   2.933   1.282  2.7645  0.8262 -1.1146
  257DMF     H2 3568   0.377   3.092   1.220  1.3521 -1.4117  1.7595
  257DMF     H3 3569   0.219   3.012   1.196 -1.1164  0.0257  0.6840
  257DMF     H4 3570   0.080   3.162   1.300  2.0925 -1.7144 -1.4814
  257DMF     H5 3571   0.148   3.243   1.453  1.6107  0.1752 -1.3530
  257DMF     H6 3572   0.065   3.079   1.457  1.2364 -0.8142 -0.0332
  257DMF     H7 3573   0.305   3.151   1.583 -0.9355 -0.7697  0.6034
  258DMF     C1 3574   1.628   2.515   2.712  0.1372 -0.2298  0.2184
  258DMF     N1 3575   1.774   2.565   2.702  0.0414 -0.5416 -0.6163
  258DMF     C2 3576   1.817   2.661   2.806  0.2519  0.0400  0.3513
  258DMF     C3 3577   1.855   2.527   2.598 -0.0569  0.1909  0.0699
  258DMF     O1 3578   1.820   2.440   2.526  0.0440  0.7679 -0.1315
  258DMF     H1 3579   1.552   2.587   2.680 -0.0360 -0.3084  0.4524
  258DMF     H2 3580   1.611   2.481   2.814 -1.9385  1.5646  0.4973
  258DMF     H3 3581   1.620   2.434   2.638  0.5029 -0.6231  0.6045
  258DMF     H4 3582   1.745   2.670   2.888 -0.8941  2.3488 -0.8473
  258DMF     H5 3583   1.817   2.762   2.763 -3.5429 -0.3422 -0.6762
  258DMF     H6 3584   1.916   2.628   2.840  0.3394  1.2963  1.3805
  258DMF     H7 3585   1.954   2.576   2.600  0.3513 -0.6411  0.4193
  259DMF     C1 3586   3.306   2.098   2.592 -0.0874  0.5213  0.4609
  259DMF     N1 3587   3.315   1.951   2.588 -0.2185  0.3349 -0.6846
  259DMF     C2 3588   3.414   1.883   2.680 -0.2030 -0.9517  0.5052
  259DMF     C3 3589   3.240   1.880   2.499  0.1411  0.4270 -0.6324
  259DMF     O1 3590   3.166   1.934   2.417  1.0945 -0.3715  0.3345
  259DMF     H1 3591   3.237   2.134   2.669 -0.0361  2.7705 -0.5029
  259DMF     H2 3592   3.267   2.152   2.504 -0.3939  1.1944  1.0105
  259DMF     H3 3593   3.406   2.131   2.621  0.1605 -0.7529  1.1170
  259DMF     H4 3594   3.390   1.777   2.690 -0.3848 -0.8178  1.5076
  259DMF     H5 3595   3.398   1.921   2.782 -1.6442  1.9525 -0.7483
  259DMF     H6 3596   3.514   1.911   2.646 -1.1278  1.3384 -0.4376
  259DMF     H7 3597   3.256   1.773   2.524  1.4151  0.7716  0.0520
  260DMF     C1 3598   2.613   1.258   2.683 -0.3431  0.1104  0.0526
  260DMF     N1 3599   2.490   1.324   2.654  0.3952 -0.4884 -0.0521
  260DMF     C2 3600   2.499   1.469   2.609 -0.2488  0.8298 -0.1151
  260DMF     C3 3601   2.366   1.272   2.689  0.2578  0.0850 -0.1702
  260DMF     O1 3602   2.354   1.160   2.737  0.0230  0.0157 -0.0803
  260DMF     H1 3603   2.638   1.283   2.787 -0.8759  2.8356 -0.4217
  260DMF     H2 3604   2.697   1.286   2.617  1.8147  0.0506  2.6935
  260DMF     H3 3605   2.608   1.149   2.677  0.5008  0.1017 -0.6424
  260DMF     H4 3606   2.600   1.480   2.568  0.2349  0.4346  0.9558
  260DMF     H5 3607   2.478   1.521   2.703  1.1668  0.3072  0.4974
  260DMF     H6 3608   2.420   1.492   2.536  1.1959  3.7985 -0.7994
  260DMF     H7 3609   2.283   1.342   2.666  0.0934  0.1790  0.7253
  261DMF     C1 3610   2.439   0.804   3.177 -0.3330 -0.0464  0.3932
  261DMF     N1 3611   2.431   0.876   3.051  0.4831  0.3175 -0.5718
  261DMF     C2 3612   2.524   0.858   2.938 -0.6898 -0.0164  0.1654
  261DMF     C3 3613   2.310   0.939   3.011 -0.3514  0.7149  0.2164
  261DMF     O1 3614   2.220   0.953   3.091 -0.3016 -0.2759 -0.7690
  261DMF     H1 3615   2.544   0.789   3.205 -0.5222 -0.4191  0.9065
  261DMF     H2 3616   2.389   0.707   3.172 -0.3295 -0.0168 -0.1737
  261DMF     H3 3617   2.389   0.868   3.251  2.3949  0.8157  1.5664
  261DMF     H4 3618   2.465   0.804   2.863 -2.7515  1.3301  0.7917
  261DMF     H5 3619   2.615   0.801   2.961  0.6839  2.0736  0.0185
  261DMF     H6 3620   2.554   0.954   2.895  2.3525 -1.6072 -1.4386
  261DMF     H7 3621   2.309   0.973   2.906  1.4191  1.6802  0.4961
  262DMF     C1 3622   0.651   0.817   1.497  0.0805  0.1416  0.2881
  262DMF     N1 3623   0.757   0.919   1.535  0.1404  0.8011  0.3388
  262DMF     C2 3624   0.906   0.877   1.544 -0.1257 -0.2740 -0.6669
  262DMF     C3 3625   0.707   1.044   1.560  0.0680  0.3936 -0.4243
  262DMF     O1 3626   0.584   1.066   1.566  0.4819  0.4696 -0.5261
  262DMF     H1 3627   0.577   0.802   1.577  0.1655  0.3082  0.3987
  262DMF     H2 3628   0.696   0.721   1.470 -1.9411 -0.9489  0.6487
  262DMF     H3 3629   0.600   0.848   1.405  0.4206 -0.6132 -0.1519
  262DMF     H4 3630   0.965   0.969   1.543 -0.4726 -0.0390 -0.0124
  262DMF     H5 3631   0.939   0.820   1.456  2.1758 -0.3331  0.1906
  262DMF     H6 3632   0.933   0.821   1.634 -0.5850 -0.0884 -0.4144
  262DMF     H7 3633   0.784   1.122   1.577 -0.1513  0.8186 -1.3385
  263DMF     C1 3634   1.476   0.307   2.241  0.2867  0.3093 -0.0821
  263DMF     N1 3635   1.573   0.411   2.247  0.0392  0.3510 -0.1160
  263DMF     C2 3636   1.708   0.378   2.284  0.3081  0.3325 -0.1841
  263DMF     C3 3637   1.544   0.548   2.216  0.2741 -1.3606  0.1246
  263DMF     O1 3638   1.427   0.583   2.209  0.0870 -0.3980 -0.6281
  263DMF     H1 3639   1.415   0.313   2.332  0.5299 -0.7859  0.1514
  263DMF     H2 3640   1.519   0.206   2.237 -0.0141  0.1878 -0.2785
  263DMF     H3 3641   1.401   0.324   2.162 -0.1181  0.8402  0.4036
  263DMF     H4 3642   1.737   0.288   2.227  0.1754 -0.0503  0.3410
  263DMF     H5 3643   1.721   0.353   2.390  1.9248  2.4191  0.1391
  263DMF     H6 3644   1.783   0.452   2.255 -0.3932  2.8727  4.1064
  263DMF     H7 3645   1.634   0.607   2.193  0.0655 -1.9951 -2.5419
  264DMF     C1 3646   1.192   1.874   0.215  0.3951  0.0785 -0.5341
  264DMF     N1 3647   1.201   2.023   0.210  0.4741 -0.1732  0.5045
  264DMF     C2 3648   1.270   2.098   0.321 -0.8549  0.4166  0.5584
  264DMF     C3 3649   1.135   2.091   0.108  0.1725 -0.4611 -0.3405
  264DMF     O1 3650   1.105   2.031   0.008 -0.2168 -0.0673  0.5435
  264DMF     H1 3651   1.094   1.850   0.258  0.2868  0.5687 -0.5102
  264DMF     H2 3652   1.256   1.829   0.292 -0.0589  1.6279  0.7893
  264DMF     H3 3653   1.217   1.833   0.116  1.3861  2.3225 -1.2437
  264DMF     H4 3654   1.212   2.064   0.408 -0.6683  0.5381  0.7313
  264DMF     H5 3655   1.268   2.206   0.303 -1.3661  0.5734  1.5416
  264DMF     H6 3656   1.371   2.055   0.324 -2.2038 -2.8390  2.9068
  264DMF     H7 3657   1.127   2.200   0.118  0.0469 -0.5701  0.8165
  265DMF     C1 3658   3.188   1.620   2.966 -0.5321 -0.4139 -0.1066
  265DMF     N1 3659   3.153   1.638   3.103  0.5632  0.0266 -0.0220
  265DMF     C2 3660   3.153   1.523   3.195  0.4046  0.7390 -0.3737
  265DMF     C3 3661   3.118   1.759   3.155  0.5718 -0.3713  0.3512
  265DMF     O1 3662   3.121   1.857   3.089 -0.5967  0.0305  0.5226
  265DMF     H1 3663   3.289   1.660   2.949 -0.5227 -0.8040 -0.9694
  265DMF     H2 3664   3.120   1.686   2.911 -0.4412 -1.2887 -1.2975
  265DMF     H3 3665   3.187   1.517   2.930 -0.3950 -1.4738  2.7863
  265DMF     H4 3666   3.210   1.549   3.285 -0.2920  0.4337  0.1604
  265DMF     H5 3667   3.202   1.437   3.148 -1.8441 -0.7511 -0.0886
  265DMF     H6 3668   3.053   1.489   3.224  2.1002 -1.1802  3.5194
  265DMF     H7 3669   3.082   1.764   3.259  1.4932 -0.4521  0.6827
  266DMF     C1 3670   1.717   1.500   2.660 -0.0873  0.0289  0.5088
  266DMF     N1 3671   1.688   1.374   2.728 -0.2430 -0.3121 -0.4149
  266DMF     C2 3672   1.679   1.374   2.882  0.1192 -0.0533  0.8561
  266DMF     C3 3673   1.703   1.255   2.659 -0.2711 -0.3594 -0.1964
  266DMF     O1 3674   1.744   1.249   2.540  0.6863  0.1952 -0.9368
  266DMF     H1 3675   1.798   1.482   2.588  0.0890  1.3487  0.3788
  266DMF     H2 3676   1.741   1.578   2.733  1.5992  0.8773 -0.9139
  266DMF     H3 3677   1.633   1.531   2.596  0.3477 -1.3798 -0.7846
  266DMF     H4 3678   1.690   1.275   2.929  1.5800  0.1822  1.0401
  266DMF     H5 3679   1.580   1.414   2.907 -0.6987  0.4661 -2.8895
  266DMF     H6 3680   1.757   1.444   2.916 -0.0709  1.5375 -1.8779
  266DMF     H7 3681   1.686   1.172   2.729  0.9495  1.7168  2.6430
  267DMF     C1 3682   2.388   2.868   1.239  0.6258  0.8424  0.2745
  267DMF     N1 3683   2.458   2.759   1.170 -0.5779  0.7289  0.3798
  267DMF     C2 3684   2.534   2.789   1.058  0.4266 -0.0197 -0.2896
  267DMF     C3 3685   2.464   2.630   1.228  0.4199 -0.1090 -0.3109
  267DMF     O1 3686   2.409   2.599   1.335  0.3084 -0.3838 -0.0792
  267DMF     H1 3687   2.455   2.899   1.321  1.3077 -0.5534  0.2589
  267DMF     H2 3688   2.292   2.839   1.282  0.2928  0.7791 -0.5021
  267DMF     H3 3689   2.358   2.948   1.171 -0.3661  1.1601  1.0820
  267DMF     H4 3690   2.473   2.796   0.968 -0.3685  3.6750  0.4517
  267DMF     H5 3691   2.619   2.721   1.045  0.1357 -0.1576 -1.4804
  267DMF     H6 3692   2.577   2.890   1.060  0.9381 -0.2582  1.5674
  267DMF     H7 3693   2.531   2.559   1.175  1.0394 -0.0630  0.3934
  268DMF     C1 3694   0.421   2.305   2.882 -0.1357  0.6199 -0.0223
  268DMF     N1 3695   0.332   2.402   2.951 -0.3974 -0.4784 -0.1935
  268DMF     C2 3696   0.370   2.543   2.972 -0.3766 -0.0726  0.2658
  268DMF     C3 3697   0.205   2.364   2.983  0.5843  0.6074  0.2525
  268DMF     O1 3698   0.156   2.257   2.951 -0.0318 -0.1783 -0.1486
  268DMF     H1 3699   0.505   2.367   2.847 -1.9175  2.7138 -0.6878
  268DMF     H2 3700   0.374   2.252   2.799 -0.5363  0.7405  0.1293
  268DMF     H3 3701   0.461   2.231   2.953 -1.6202 -0.2449 -0.0641
  268DMF     H4 3702   0.475   2.548   3.005 -0.7947 -2.8613  2.1518
  268DMF     H5 3703   0.298   2.595   3.036  1.5123  1.5491  1.1393
  268DMF     H6 3704   0.372   2.597   2.876 -0.1328  2.1625  1.5109
  268DMF     H7 3705   0.145   2.431   3.047  1.1375 -1.0264  2.5495
  269DMF     C1 3706   1.752   1.840   2.243 -0.2043 -0.0411 -0.5122
  269DMF     N1 3707   1.783   1.872   2.381 -0.0533 -0.1936  0.7166
  269DMF     C2 3708   1.704   1.970   2.451 -0.8510  0.4598  0.1022
  269DMF     C3 3709   1.880   1.793   2.456  0.1946 -0.5913  0.1510
  269DMF     O1 3710   1.922   1.692   2.404  0.1099 -0.5153  0.0558
  269DMF     H1 3711   1.693   1.748   2.247  0.1421 -0.2818 -0.8322
  269DMF     H2 3712   1.849   1.827   2.192  0.2101 -1.3396  0.5717
  269DMF     H3 3713   1.698   1.922   2.195 -0.5725 -0.1186 -0.2281
  269DMF     H4 3714   1.740   1.971   2.554  2.7120  2.2945 -1.0678
  269DMF     H5 3715   1.597   1.953   2.436 -1.1465  0.3190  2.2522
  269DMF     H6 3716   1.739   2.066   2.412  1.2870 -0.5350 -0.5733
  269DMF     H7 3717   1.887   1.823   2.562 -0.1799 -2.3199  0.6813
  270DMF     C1 3718   0.342   0.315   2.636  0.3381 -0.0648  0.7361
  270DMF     N1 3719   0.358   0.337   2.778  0.5645  0.2114  0.5312
  270DMF     C2 3720   0.276   0.248   2.866  0.6813 -0.5611  0.5313
  270DMF     C3 3721   0.462   0.417   2.831  0.6416  0.1007 -0.0479
  270DMF     O1 3722   0.533   0.483   2.753 -0.0099 -0.5279 -0.2559
  270DMF     H1 3723   0.292   0.400   2.589 -0.1883 -0.9259 -0.2875
  270DMF     H2 3724   0.284   0.224   2.618 -0.6213  0.7387 -0.2694
  270DMF     H3 3725   0.441   0.298   2.591  0.3490  1.5862  0.1114
  270DMF     H4 3726   0.286   0.143   2.836 -1.1198 -0.4633 -0.4944
  270DMF     H5 3727   0.171   0.276   2.852  0.5362 -1.4195 -0.1249
  270DMF     H6 3728   0.306   0.282   2.966  1.3724  2.4556 -0.6264
  270DMF     H7 3729   0.469   0.411   2.941 -1.1618 -0.7095  0.0330
  271DMF     C1 3730   2.861   1.912   2.492 -0.6405 -0.2746 -0.4962
  271DMF     N1 3731   2.849   1.822   2.376 -0.3763 -0.0158  0.0105
  271DMF     C2 3732   2.867   1.882   2.244  0.9326  0.0467  0.0649
  271DMF     C3 3733   2.801   1.694   2.393 -0.2767  0.1271 -0.5584
  271DMF     O1 3734   2.763   1.641   2.496 -0.2343 -0.0692 -0.2255
  271DMF     H1 3735   2.949   1.890   2.554 -1.1595 -1.9893 -0.3258
  271DMF     H2 3736   2.773   1.905   2.556 -0.7582 -3.7046 -0.9427
  271DMF     H3 3737   2.874   2.017   2.462  3.1638 -0.2164  1.0275
  271DMF     H4 3738   2.845   1.808   2.166  2.4257 -0.7060  0.3394
  271DMF     H5 3739   2.969   1.921   2.229  0.4566  0.7315 -1.4678
  271DMF     H6 3740   2.800   1.968   2.236 -0.1561 -0.8208 -0.2746
  271DMF     H7 3741   2.795   1.639   2.297  2.9834  0.1695 -0.8359
  272DMF     C1 3742   0.767   0.874   2.610  0.2117 -0.0252 -0.3566
  272DMF     N1 3743   0.681   0.759   2.601 -0.0110  0.5350 -0.5137
  272DMF     C2 3744   0.536   0.787   2.619 -0.4387 -0.5154  0.2016
  272DMF     C3 3745   0.724   0.626   2.583 -0.8311 -0.4499  0.4762
  272DMF     O1 3746   0.840   0.595   2.587  0.0703 -0.0243 -0.2015
  272DMF     H1 3747   0.707   0.952   2.561 -0.1226 -0.8280 -1.2352
  272DMF     H2 3748   0.863   0.854   2.560  0.0062 -1.1595 -0.3120
  272DMF     H3 3749   0.772   0.892   2.718  0.5275 -0.8204 -0.2309
  272DMF     H4 3750   0.477   0.704   2.578  1.3190 -1.2574 -0.9063
  272DMF     H5 3751   0.512   0.873   2.556  1.7216 -0.1012 -0.1049
  272DMF     H6 3752   0.512   0.798   2.726 -2.3691  1.4512 -0.4138
  272DMF     H7 3753   0.646   0.555   2.551 -1.4146  1.5764 -2.9266
  273DMF     C1 3754   1.564   2.843   2.530  0.3410 -0.0998 -0.3917
  273DMF     N1 3755   1.630   2.871   2.400 -0.2819 -0.2705  0.0883
  273DMF     C2 3756   1.775   2.867   2.399 -0.6190  0.0171  0.0705
  273DMF     C3 3757   1.559   2.933   2.299 -0.2786  0.7657 -0.2414
  273DMF     O1 3758   1.438   2.951   2.291  0.1198 -0.2918  0.1317
  273DMF     H1 3759   1.474   2.782   2.513  0.8595 -0.5573 -1.5773
  273DMF     H2 3760   1.551   2.941   2.577 -0.8892  0.1599 -1.2495
  273DMF     H3 3761   1.631   2.780   2.591 -0.7941 -0.2888  0.6781
  273DMF     H4 3762   1.808   2.763   2.393 -0.8982 -0.0221 -0.8522
  273DMF     H5 3763   1.816   2.921   2.486 -0.4239 -0.2055  0.1188
  273DMF     H6 3764   1.805   2.904   2.301 -2.2546 -4.4816 -2.2581
  273DMF     H7 3765   1.624   2.942   2.209  1.6116  0.5944  1.0829
  274DMF     C1 3766   3.064   1.782   3.554  0.6968 -0.5854  0.1659
  274DMF     N1 3767   3.196   1.835   3.608 -0.3780  0.4350  0.4229
  274DMF     C2 3768   3.201   1.923   3.730  0.0196 -0.1853 -0.6730
  274DMF     C3 3769   3.315   1.763   3.567 -0.2035 -0.4877  0.0668
  274DMF     O1 3770   3.318   1.680   3.475 -0.1098 -0.2701  0.2485
  274DMF     H1 3771   3.029   1.693   3.608  0.5605 -0.5580  0.1236
  274DMF     H2 3772   3.074   1.771   3.446  0.6914  1.5830 -0.0913
  274DMF     H3 3773   2.994   1.865   3.574  2.5384  1.7502 -2.6783
  274DMF     H4 3774   3.296   1.915   3.784  0.7044  0.4071 -1.7819
  274DMF     H5 3775   3.115   1.904   3.795  0.1070 -0.0710 -0.5223
  274DMF     H6 3776   3.196   2.023   3.685 -1.9357  1.0004  2.0160
  274DMF     H7 3777   3.407   1.798   3.618  0.2225  0.2133 -1.1479
  275DMF     C1 3778   3.121   1.257   2.247 -0.2354 -0.0453 -0.4912
  275DMF     N1 3779   3.150   1.332   2.373 -0.1951 -0.1055  0.4800
  275DMF     C2 3780   3.242   1.274   2.471  0.2481 -0.1326 -0.2480
  275DMF     C3 3781   3.087   1.461   2.384 -0.1746  0.3232  0.0782
  275DMF     O1 3782   3.009   1.498   2.299 -0.3862 -0.2845 -0.3983
  275DMF     H1 3783   3.214   1.231   2.195  0.9052 -1.5068  2.1866
  275DMF     H2 3784   3.053   1.313   2.182  0.2342 -0.1546 -1.0804
  275DMF     H3 3785   3.073   1.159   2.257 -1.4164  0.5484 -0.3181
  275DMF     H4 3786   3.333   1.336   2.472 -0.8132  1.4936 -1.9628
  275DMF     H5 3787   3.243   1.165   2.453  1.7714  0.0437 -1.4553
  275DMF     H6 3788   3.186   1.283   2.565 -2.9805 -1.8914 -1.9111
  275DMF     H7 3789   3.120   1.518   2.473  0.5112  0.0067  0.0342
  276DMF     C1 3790   2.566   3.034   1.541  0.7257  0.0819  0.3879
  276DMF     N1 3791   2.521   2.904   1.569 -0.1998 -0.3071 -0.5958
  276DMF     C2 3792   2.609   2.797   1.543 -0.1990 -0.1573 -0.3525
  276DMF     C3 3793   2.381   2.885   1.579 -0.3451 -0.7918  0.2166
  276DMF     O1 3794   2.306   2.979   1.580  0.7764  0.4290  0.0270
  276DMF     H1 3795   2.651   3.060   1.605 -0.7346  0.1413  2.3801
  276DMF     H2 3796   2.501   3.119   1.569  2.3521  1.5120 -0.1180
  276DMF     H3 3797   2.599   3.048   1.438  0.4359  1.0391  0.4124
  276DMF     H4 3798   2.559   2.706   1.509 -1.0543  1.4988 -3.8065
  276DMF     H5 3799   2.687   2.779   1.617 -0.6009  0.2101  0.1708
  276DMF     H6 3800   2.656   2.816   1.446  1.8565  1.5164  0.9113
  276DMF     H7 3801   2.358   2.777   1.568  0.6413 -1.2222  2.0391
  277DMF     C1 3802   3.384   2.209   0.149  0.0495 -0.2136  0.4469
  277DMF     N1 3803   3.307   2.116   0.231  0.0190  0.6851 -0.4137
  277DMF     C2 3804   3.382   2.008   0.301  0.3466  0.1590 -0.0564
  277DMF     C3 3805   3.171   2.147   0.269 -0.1189  0.1753  0.2826
  277DMF     O1 3806   3.113   2.245   0.225 -0.1184 -0.3048  0.3278
  277DMF     H1 3807   3.354   2.314   0.153 -2.3810 -0.8020 -1.1619
  277DMF     H2 3808   3.371   2.186   0.042  1.3376 -0.2683  0.2900
  277DMF     H3 3809   3.491   2.201   0.171  0.2164  1.1752  0.1501
  277DMF     H4 3810   3.346   1.913   0.260 -0.8463  0.2956  0.6434
  277DMF     H5 3811   3.353   2.000   0.406 -2.0014 -2.0824 -0.8062
  277DMF     H6 3812   3.492   2.014   0.301  0.3917 -0.5605 -0.5380
  277DMF     H7 3813   3.121   2.077   0.339  0.3726 -0.1009  0.3570
  278DMF     C1 3814   1.952   0.101   3.650 -0.2759  0.0891  0.2100
  278DMF     N1 3815   1.842   0.109   3.747 -0.1128 -0.3501 -0.3873
  278DMF     C2 3816   1.822  -0.007   3.842 -0.4720 -0.0322  0.3719
  278DMF     C3 3817   1.747   0.205   3.744  0.1943  0.2894  0.4831
  278DMF     O1 3818   1.756   0.302   3.672 -0.0367 -0.0338 -0.1392
  278DMF     H1 3819   1.931   0.136   3.549  1.4111  0.6081  0.0213
  278DMF     H2 3820   1.990  -0.001   3.634  1.9821  1.1302 -1.3289
  278DMF     H3 3821   2.034   0.165   3.684  0.9988 -0.5427 -1.5807
  278DMF     H4 3822   1.878  -0.097   3.813 -0.4556  0.2744 -0.5855
  278DMF     H5 3823   1.716  -0.032   3.852 -0.3003 -0.6185  0.7657
  278DMF     H6 3824   1.856   0.022   3.942  0.2139 -2.2305  0.7973
  278DMF     H7 3825   1.664   0.175   3.810 -1.2830 -0.7783 -1.7812
  279DMF     C1 3826   2.805   1.584   3.087  0.0345 -0.5631  0.2075
  279DMF     N1 3827   2.836   1.499   2.964 -0.0617 -0.5516 -0.3234
  279DMF     C2 3828   2.829   1.568   2.836 -0.3895 -0.4949  0.3744
  279DMF     C3 3829   2.902   1.374   2.980 -0.0726 -0.2458 -0.0977
  279DMF     O1 3830   2.942   1.333   3.089 -0.1353 -0.1117 -0.3648
  279DMF     H1 3831   2.893   1.650   3.087 -0.1249 -0.3493  0.7454
  279DMF     H2 3832   2.796   1.522   3.177  1.7968 -2.0552 -0.6053
  279DMF     H3 3833   2.717   1.646   3.066 -0.6554 -2.5502 -3.0929
  279DMF     H4 3834   2.841   1.500   2.750  0.8190  0.2233 -0.0444
  279DMF     H5 3835   2.892   1.657   2.827 -0.5209 -0.5050 -0.8084
  279DMF     H6 3836   2.727   1.603   2.817 -0.5135 -0.5376  0.9502
  279DMF     H7 3837   2.930   1.319   2.888 -0.1913 -1.6115  0.6611
  280DMF     C1 3838   0.803   2.525   0.677 -0.4693  0.2373  0.9100
  280DMF     N1 3839   0.761   2.642   0.757 -0.2496 -0.5113  0.0465
  280DMF     C2 3840   0.677   2.750   0.696  0.5541 -0.1953 -0.2331
  280DMF     C3 3841   0.800   2.653   0.893 -0.2562 -0.7261  0.2719
  280DMF     O1 3842   0.860   2.568   0.952  0.2275 -0.3186  0.4330
  280DMF     H1 3843   0.905   2.485   0.686 -1.9489 -4.1323 -0.5431
  280DMF     H2 3844   0.808   2.578   0.581 -0.1195  0.7263  1.1958
  280DMF     H3 3845   0.727   2.446   0.679 -1.4335  1.1505  0.7112
  280DMF     H4 3846   0.612   2.802   0.767  0.3413  0.0492 -0.6074
  280DMF     H5 3847   0.618   2.705   0.615 -0.3515 -0.1168  0.3833
  280DMF     H6 3848   0.738   2.827   0.647  0.4011  1.4045  2.0481
  280DMF     H7 3849   0.765   2.750   0.932 -1.9977 -1.1572 -0.1639
  281DMF     C1 3850   0.916   3.074   2.431  0.0599 -0.5339 -0.0260
  281DMF     N1 3851   1.003   2.991   2.358 -0.7219  0.7040  0.3834
  281DMF     C2 3852   1.028   2.998   2.211 -0.3645  0.0400 -0.2437
  281DMF     C3 3853   1.104   2.920   2.436  0.1144 -0.4151  0.1144
  281DMF     O1 3854   1.109   2.904   2.561  0.1471 -0.1110  0.3673
  281DMF     H1 3855   0.904   3.033   2.532  2.4670 -0.8996  0.1383
  281DMF     H2 3856   0.814   3.086   2.392 -0.6155 -0.0183  1.8442
  281DMF     H3 3857   0.960   3.172   2.452 -0.8559  0.0583 -0.8321
  281DMF     H4 3858   1.039   3.104   2.186  1.1309 -0.2957 -1.0861
  281DMF     H5 3859   0.938   2.974   2.154 -0.1569  0.2549 -0.6636
  281DMF     H6 3860   1.118   2.949   2.170 -1.3305 -1.5163 -0.5672
  281DMF     H7 3861   1.193   2.888   2.379  0.2279  2.9028 -1.6701
  282DMF     C1 3862   2.305   0.277   0.173 -0.1415 -0.7410 -0.8785
  282DMF     N1 3863   2.325   0.213   0.304  0.0862  0.2234 -0.4303
  282DMF     C2 3864   2.204   0.219   0.397  0.1465 -0.7011  0.4562
  282DMF     C3 3865   2.449   0.167   0.359 -0.7113 -0.8612 -0.5414
  282DMF     O1 3866   2.553   0.167   0.290  0.3644  0.2857 -0.5266
  282DMF     H1 3867   2.218   0.343   0.185  0.4173 -0.6977  3.6489
  282DMF     H2 3868   2.286   0.204   0.093  3.3893 -1.9330 -0.6792
  282DMF     H3 3869   2.391   0.339   0.144  1.8554 -2.9987  0.1471
  282DMF     H4 3870   2.108   0.207   0.347  0.8374 -1.8244 -0.6258
  282DMF     H5 3871   2.200   0.323   0.430 -0.9010 -0.2253 -1.1185
  282DMF     H6 3872   2.207   0.150   0.483 -2.0155 -1.5860 -0.1541
  282DMF     H7 3873   2.443   0.124   0.461  0.8047 -0.3853 -0.2383
  283DMF     C1 3874   0.680   2.159   2.723 -0.3920  0.2145 -0.9682
  283DMF     N1 3875   0.818   2.152   2.681 -0.2935 -0.4711  0.7854
  283DMF     C2 3876   0.913   2.259   2.721  0.9082 -0.0342 -0.2414
  283DMF     C3 3877   0.868   2.044   2.616 -0.1509 -0.6799 -0.7968
  283DMF     O1 3878   0.797   1.944   2.600  0.5775  0.3867  0.0975
  283DMF     H1 3879   0.611   2.099   2.662 -3.0635 -2.4851  4.4044
  283DMF     H2 3880   0.644   2.261   2.703 -1.0712 -0.4519 -3.3420
  283DMF     H3 3881   0.665   2.133   2.828 -0.3595 -0.3891 -1.1149
  283DMF     H4 3882   0.889   2.350   2.665 -2.6680 -0.6810  0.0831
  283DMF     H5 3883   1.016   2.231   2.697  0.3555 -3.5712  1.1708
  283DMF     H6 3884   0.912   2.277   2.829  0.2666 -1.7814  0.0678
  283DMF     H7 3885   0.971   2.058   2.580 -0.0545  2.0945  0.4803
  284DMF     C1 3886   0.248   1.829   3.255 -0.2884  0.1675 -0.2165
  284DMF     N1 3887   0.211   1.882   3.119 -0.2093 -0.1241  0.2231
  284DMF     C2 3888   0.077   1.847   3.059 -0.1185 -0.1027 -0.4978
  284DMF     C3 3889   0.287   1.972   3.042  0.6852  0.3105  0.3716
  284DMF     O1 3890   0.392   2.017   3.083  0.4032 -0.0777 -0.2341
  284DMF     H1 3891   0.253   1.921   3.316 -0.7848 -0.7853  1.2837
  284DMF     H2 3892   0.338   1.767   3.257 -0.2395  0.2532  0.3494
  284DMF     H3 3893   0.166   1.771   3.299 -0.8463  0.8521 -0.3369
  284DMF     H4 3894   0.083   1.851   2.950  0.5617  2.6363 -0.3996
  284DMF     H5 3895   0.000   1.908   3.108 -0.7004 -0.1399 -1.3585
  284DMF     H6 3896   0.044   1.744   3.081 -0.9310  0.4355  0.8708
  284DMF     H7 3897   0.257   1.990   2.937  2.6289 -0.2895 -0.3068
  285DMF     C1 3898   2.585   0.964   2.434  0.1220 -0.1038 -0.0109
  285DMF     N1 3899   2.681   1.058   2.364  0.1835 -0.0717  0.3985
  285DMF     C2 3900   2.629   1.192   2.318  0.1912 -0.6603 -0.0323
  285DMF     C3 3901   2.813   1.025   2.349  0.2038 -0.0450 -0.2884
  285DMF     O1 3902   2.844   0.918   2.406  0.4665  0.0156  1.2049
  285DMF     H1 3903   2.597   0.858   2.412  0.0817 -0.3745  1.2336
  285DMF     H2 3904   2.478   0.980   2.417  0.1511  0.5685  0.4017
  285DMF     H3 3905   2.598   0.978   2.542 -3.0893  1.7410  0.1993
  285DMF     H4 3906   2.586   1.237   2.408 -0.2408 -1.2049  0.0402
  285DMF     H5 3907   2.551   1.176   2.242  1.3410 -1.9474 -0.9856
  285DMF     H6 3908   2.719   1.242   2.281 -0.1379 -1.5806 -2.1386
  285DMF     H7 3909   2.871   1.096   2.287 -0.3843 -0.1179 -0.9260
  286DMF     C1 3910   0.950   1.367   2.658 -0.7310 -0.1727  0.1521
  286DMF     N1 3911   0.941   1.490   2.737  1.3595 -0.2194  0.0772
  286DMF     C2 3912   0.905   1.614   2.672  0.3695  0.1239  0.3544
  286DMF     C3 3913   0.965   1.498   2.876 -0.1746  0.2986 -0.1556
  286DMF     O1 3914   1.004   1.396   2.937  0.2265 -0.3393 -0.5594
  286DMF     H1 3915   0.955   1.278   2.722 -1.7014  0.9014  1.7712
  286DMF     H2 3916   1.044   1.365   2.602 -0.6918 -1.9093  0.2403
  286DMF     H3 3917   0.866   1.356   2.588  0.4260 -1.0076 -1.1436
  286DMF     H4 3918   0.929   1.615   2.565 -1.1906 -1.6582 -0.0488
  286DMF     H5 3919   0.968   1.694   2.711  0.2618  1.0027 -1.2502
  286DMF     H6 3920   0.800   1.645   2.678  0.4450  0.4030  0.2161
  286DMF     H7 3921   0.944   1.594   2.927 -2.3044 -0.0911 -0.2366
  287DMF     C1 3922   3.242   2.904   1.179 -0.3572 -0.3684  0.0883
  287DMF     N1 3923   3.232   2.826   1.049  0.5149 -0.2331  0.0592
  287DMF     C2 3924   3.302   2.699   1.041 -0.6143 -1.0316 -0.2362
  287DMF     C3 3925   3.156   2.876   0.946 -0.0914 -0.1197  0.0092
  287DMF     O1 3926   3.097   2.982   0.944  0.0455  0.0977  1.1208
  287DMF     H1 3927   3.320   2.979   1.159 -1.3930 -0.0702 -3.1856
  287DMF     H2 3928   3.258   2.834   1.261 -1.2652  0.3398  0.8779
  287DMF     H3 3929   3.143   2.945   1.199  0.7684  4.0589 -2.4580
  287DMF     H4 3930   3.353   2.683   0.945 -0.8989 -1.3738 -0.3308
  287DMF     H5 3931   3.223   2.625   1.057 -0.9189 -2.0787 -5.7371
  287DMF     H6 3932   3.375   2.683   1.122  1.3329  2.3009 -1.2323
  287DMF     H7 3933   3.151   2.808   0.859 -1.9939  1.0135 -0.8021
  288DMF     C1 3934   0.489   0.079   2.265  0.3075 -0.0985 -0.0800
  288DMF     N1 3935   0.624   0.017   2.274  0.0240 -0.0027 -0.1853
  288DMF     C2 3936   0.733   0.114   2.304 -0.4617 -0.1386  0.2903
  288DMF     C3 3937   0.644  -0.122   2.288 -0.6693  0.1037  0.2202
  288DMF     O1 3938   0.557  -0.207   2.294 -0.3481  0.0421 -0.2595
  288DMF     H1 3939   0.420   0.015   2.208  0.3746 -0.9679  0.8011
  288DMF     H2 3940   0.504   0.176   2.215  1.9388 -0.6656 -0.7143
  288DMF     H3 3941   0.444   0.080   2.365  3.9479 -0.7607  1.6307
  288DMF     H4 3942   0.738   0.171   2.210 -0.9946 -0.7109 -0.0848
  288DMF     H5 3943   0.830   0.063   2.313 -0.0501  0.2800 -1.5764
  288DMF     H6 3944   0.706   0.179   2.389 -2.5616 -1.0957  0.3857
  288DMF     H7 3945   0.752  -0.143   2.293 -0.1127  2.6113 -0.4478
  289DMF     C1 3946   1.993   2.875   3.299  0.8960 -0.1472 -0.5047
  289DMF     N1 3947   1.939   2.957   3.186 -0.6847 -0.4085 -0.1175
  289DMF     C2 3948   1.845   2.895   3.092  0.0724 -0.2707 -0.1975
  289DMF     C3 3949   1.990   3.085   3.154 -0.4689  0.5484 -0.6538
  289DMF     O1 3950   2.089   3.137   3.203 -0.1452  0.0808 -0.5342
  289DMF     H1 3951   1.923   2.874   3.384  0.4581 -1.7395 -0.8715
  289DMF     H2 3952   2.086   2.918   3.337 -0.0071 -0.1483  1.8445
  289DMF     H3 3953   2.027   2.777   3.264  0.0711 -0.4866 -0.3812
  289DMF     H4 3954   1.822   2.796   3.133  1.7330 -0.5506  0.1014
  289DMF     H5 3955   1.886   2.888   2.991  1.3189  2.6176  0.0406
  289DMF     H6 3956   1.753   2.953   3.079 -0.8998 -1.8046 -0.3468
  289DMF     H7 3957   1.929   3.130   3.074  0.3590  0.3497 -1.4094
  290DMF     C1 3958   1.664   0.887   2.241  0.0649  0.3797 -0.0469
  290DMF     N1 3959   1.715   0.842   2.375 -0.7356  0.0209 -0.2287
  290DMF     C2 3960   1.658   0.901   2.501 -0.3132 -0.4071  0.0019
  290DMF     C3 3961   1.797   0.727   2.375 -0.5028 -0.5414  0.7533
  290DMF     O1 3962   1.853   0.684   2.278 -0.1198 -0.1250  0.0169
  290DMF     H1 3963   1.632   0.991   2.254 -2.8340 -0.4126 -0.3606
  290DMF     H2 3964   1.575   0.835   2.204  0.4835 -1.7104  1.7666
  290DMF     H3 3965   1.749   0.897   2.173 -0.9713 -0.2501 -1.4696
  290DMF     H4 3966   1.646   1.009   2.481 -0.0050 -0.4178 -0.2497
  290DMF     H5 3967   1.724   0.878   2.585 -1.1469  1.7195  1.2887
  290DMF     H6 3968   1.554   0.875   2.522 -0.8173 -0.5316 -2.5254
  290DMF     H7 3969   1.801   0.686   2.477 -1.8368 -0.6958  0.7553
  291DMF     C1 3970   1.910   3.214   3.477  0.4655 -0.1276  0.2416
  291DMF     N1 3971   1.874   3.134   3.594  0.5560 -0.5312  0.2332
  291DMF     C2 3972   1.752   3.056   3.581  0.7146 -0.1250  0.7603
  291DMF     C3 3973   1.962   3.122   3.705  0.0801  0.5684 -0.1406
  291DMF     O1 3974   2.055   3.194   3.717 -0.0458 -0.0131  0.5248
  291DMF     H1 3975   1.863   3.177   3.385 -1.9612  1.6845  0.7045
  291DMF     H2 3976   2.018   3.203   3.460  1.0226  0.3933  3.2042
  291DMF     H3 3977   1.875   3.317   3.491 -0.4699 -0.4358  0.2542
  291DMF     H4 3978   1.707   3.082   3.484  0.5627 -2.2477  0.2337
  291DMF     H5 3979   1.686   3.080   3.665 -0.6439 -0.6042 -0.1532
  291DMF     H6 3980   1.773   2.948   3.574  0.5629 -0.1554  0.7851
  291DMF     H7 3981   1.946   3.042   3.779 -0.9163  0.3493 -0.5784
  292DMF     C1 3982   1.845   1.587   1.022  0.3602  0.0677  0.2783
  292DMF     N1 3983   1.746   1.668   1.093  0.1036  0.4332 -0.4902
  292DMF     C2 3984   1.611   1.690   1.038 -0.0945 -0.1932 -0.2169
  292DMF     C3 3985   1.776   1.720   1.229  0.4370  0.7545 -0.5189
  292DMF     O1 3986   1.874   1.688   1.290 -0.4975 -0.6193  0.0570
  292DMF     H1 3987   1.826   1.585   0.914 -0.2890  2.7600  0.3092
  292DMF     H2 3988   1.841   1.483   1.058  0.4821  0.1704  0.5971
  292DMF     H3 3989   1.945   1.624   1.049  0.6747 -1.1013  0.7784
  292DMF     H4 3990   1.564   1.778   1.084 -1.1106  0.7897 -3.0250
  292DMF     H5 3991   1.549   1.602   1.059 -0.3900  0.1513  0.3781
  292DMF     H6 3992   1.619   1.696   0.929  0.2710  0.1740 -0.1719
  292DMF     H7 3993   1.697   1.786   1.268  0.6228  0.2738  0.6892
  293DMF     C1 3994   2.709   2.747   0.228  0.0339 -0.4417  0.3286
  293DMF     N1 3995   2.670   2.763   0.083 -0.2957  0.1082 -0.5861
  293DMF     C2 3996   2.597   2.884   0.043 -0.4007 -0.2321  0.3524
  293DMF     C3 3997   2.676   2.651  -0.008  0.5607  0.4562  0.3217
  293DMF     O1 3998   2.720   2.539   0.026  0.3287 -0.1328 -0.3067
  293DMF     H1 3999   2.767   2.830   0.270 -1.0131  0.4881 -0.0349
  293DMF     H2 4000   2.774   2.660   0.241 -1.1979 -1.2456  1.3031
  293DMF     H3 4001   2.616   2.735   0.286  1.6545 -0.0964  3.1272
  293DMF     H4 4002   2.595   2.951   0.129  0.6377  0.0494  0.1591
  293DMF     H5 4003   2.494   2.862   0.013 -0.7122 -0.1149  1.3200
  293DMF     H6 4004   2.645   2.929  -0.045 -0.9213  0.4514  0.4172
  293DMF     H7 4005   2.633   2.668  -0.108 -3.0504 -1.0331  1.5517
  294DMF     C1 4006   0.400   0.790   0.221  0.2593  0.5184 -0.1407
  294DMF     N1 4007   0.350   0.827   0.360  0.1207  0.4913  0.4166
  294DMF     C2 4008   0.213   0.779   0.396 -0.2882 -0.9256  0.2660
  294DMF     C3 4009   0.440   0.873   0.461 -0.3033  0.3011 -0.2677
  294DMF     O1 4010   0.557   0.884   0.430  0.1537  0.6799  0.8537
  294DMF     H1 4011   0.478   0.714   0.232  1.0709  1.2388 -0.8108
  294DMF     H2 4012   0.460   0.876   0.187  0.1658  1.3837  1.7811
  294DMF     H3 4013   0.322   0.755   0.152 -1.6587  0.2508  2.1212
  294DMF     H4 4014   0.178   0.687   0.348 -0.6732 -1.1700  1.0122
  294DMF     H5 4015   0.137   0.855   0.373 -0.3723  0.3521  4.3221
  294DMF     H6 4016   0.205   0.762   0.504 -2.3551 -2.2448 -0.0612
  294DMF     H7 4017   0.393   0.887   0.560  1.8556 -2.2690  1.1646
  295DMF     C1 4018   3.350   0.523   1.250 -0.2184 -0.1012  0.1267
  295DMF     N1 4019   3.475   0.553   1.175 -0.0512  0.4961 -0.2588
  295DMF     C2 4020   3.501   0.690   1.147  0.7725  0.4173 -0.7132
  295DMF     C3 4021   3.569   0.448   1.151 -0.5406 -1.0993  0.4462
  295DMF     O1 4022   3.554   0.334   1.185  0.6972 -0.3537  0.0425
  295DMF     H1 4023   3.384   0.494   1.350 -1.9327 -0.5354  0.5951
  295DMF     H2 4024   3.298   0.446   1.191 -2.4557  1.2572  0.2628
  295DMF     H3 4025   3.284   0.610   1.255 -0.8803 -0.6796  1.4442
  295DMF     H4 4026   3.571   0.729   1.222  0.9006 -1.1215 -0.0169
  295DMF     H5 4027   3.409   0.750   1.157  1.4111  1.1954  0.6779
  295DMF     H6 4028   3.557   0.703   1.054 -1.0809  1.8146 -1.6736
  295DMF     H7 4029   3.658   0.488   1.100  0.2607  0.3759  2.8950
  296DMF     C1 4030   1.317   1.249   3.369  0.3917 -0.1466 -0.1388
  296DMF     N1 4031   1.254   1.257   3.235 -0.4306 -0.9507  0.2803
  296DMF     C2 4032   1.294   1.377   3.149  0.4384  0.7532 -0.1163
  296DMF     C3 4033   1.166   1.156   3.191 -0.3957  0.6257  0.4686
  296DMF     O1 4034   1.127   1.065   3.266 -0.1148  0.2655 -0.2568
  296DMF     H1 4035   1.354   1.351   3.386 -0.9140  0.4459 -0.7508
  296DMF     H2 4036   1.404   1.183   3.362 -0.6634 -1.6518  0.5749
  296DMF     H3 4037   1.248   1.218   3.449 -1.7457  0.3652 -1.7268
  296DMF     H4 4038   1.289   1.469   3.208 -0.9422 -0.8593  2.3682
  296DMF     H5 4039   1.221   1.400   3.070 -0.3309 -0.1161  0.3323
  296DMF     H6 4040   1.389   1.361   3.095 -0.0307 -2.9416  0.0032
  296DMF     H7 4041   1.126   1.161   3.087 -1.2539  0.6679  0.7943
  297DMF     C1 4042   2.621   1.978   3.627  0.4727 -0.3044 -1.1287
  297DMF     N1 4043   2.549   2.046   3.742 -0.1400 -0.2563  0.0695
  297DMF     C2 4044   2.453   1.962   3.816  0.2161  0.5827 -0.1641
  297DMF     C3 4045   2.564   2.181   3.763 -0.6721 -0.4262 -0.0728
  297DMF     O1 4046   2.641   2.257   3.697 -0.9949 -0.0526 -0.9222
  297DMF     H1 4047   2.561   1.990   3.536 -2.2366 -1.5220  0.4610
  297DMF     H2 4048   2.619   1.870   3.646  1.0907 -0.1161  0.0705
  297DMF     H3 4049   2.718   2.028   3.615  0.8616 -0.9646 -0.8019
  297DMF     H4 4050   2.414   1.884   3.749 -2.1777  2.1619 -0.6332
  297DMF     H5 4051   2.370   2.013   3.866  0.3022  0.1655  0.4161
  297DMF     H6 4052   2.514   1.915   3.895 -0.0066 -0.7752 -0.7910
  297DMF     H7 4053   2.498   2.211   3.846  2.2754  1.1953  1.7579
  298DMF     C1 4054   0.165   1.209   0.448 -0.2300  0.5406 -0.2181
  298DMF     N1 4055   0.203   1.260   0.579 -0.1047 -0.2320  0.0098
  298DMF     C2 4056   0.127   1.386   0.612  0.2736 -0.5875 -0.3492
  298DMF     C3 4057   0.264   1.182   0.679  0.3819  0.1175  0.0840
  298DMF     O1 4058   0.310   1.070   0.661  0.1598 -0.0056 -0.4747
  298DMF     H1 4059   0.205   1.279   0.374 -1.7580  0.3707 -1.2271
  298DMF     H2 4060   0.059   1.186   0.429  0.1316 -0.3545 -1.1640
  298DMF     H3 4061   0.212   1.111   0.435 -2.0369 -0.3476 -0.2828
  298DMF     H4 4062   0.028   1.364   0.654  0.6690 -0.6892  0.5623
  298DMF     H5 4063   0.111   1.449   0.524 -4.6414 -1.1610 -0.0039
  298DMF     H6 4064   0.184   1.450   0.681 -1.2380 -0.4082  0.7702
  298DMF     H7 4065   0.258   1.241   0.772 -0.8609  1.3407 -0.7478
  299DMF     C1 4066   3.114   0.014   3.489  0.3330  0.7881  0.0588
  299DMF     N1 4067   3.003  -0.079   3.529 -0.2505 -0.6193  0.5131
  299DMF     C2 4068   2.915  -0.130   3.423 -0.0819 -0.5379 -0.2051
  299DMF     C3 4069   2.987  -0.112   3.666  0.5021  0.0253  0.1911
  299DMF     O1 4070   3.046  -0.053   3.753  0.7327 -0.0180  0.0800
  299DMF     H1 4071   3.099   0.110   3.538  3.5656  0.9121  0.9014
  299DMF     H2 4072   3.120   0.041   3.383 -2.5276  2.9372  0.3979
  299DMF     H3 4073   3.207  -0.040   3.513  0.4181  0.0280 -1.9110
  299DMF     H4 4074   2.901  -0.056   3.343  1.9142  0.3596  0.2298
  299DMF     H5 4075   2.815  -0.159   3.457  0.8157 -0.9438  2.1987
  299DMF     H6 4076   2.970  -0.212   3.374  0.1934  0.0927 -0.9736
  299DMF     H7 4077   2.906  -0.186   3.680  1.5949 -0.6455  3.1566
  300DMF     C1 4078   2.837   1.957   0.144 -0.2591  0.0524  1.1904
  300DMF     N1 4079   2.866   1.810   0.141  0.4916 -0.0015 -0.7546
  300DMF     C2 4080   2.764   1.731   0.073 -0.0170 -0.7416  0.4831
  300DMF     C3 4081   2.975   1.757   0.209  0.5205 -0.8673 -0.3756
  300DMF     O1 4082   3.048   1.825   0.280  0.4513 -0.1040  0.0349
  300DMF     H1 4083   2.730   1.979   0.154  0.0437  1.4003  1.5344
  300DMF     H2 4084   2.862   1.978   0.040 -1.6159 -1.8659  0.4388
  300DMF     H3 4085   2.896   2.022   0.210  2.8828 -0.5315 -0.9564
  300DMF     H4 4086   2.664   1.744   0.117 -0.8500  0.1605 -1.6327
  300DMF     H5 4087   2.792   1.624   0.070 -0.8260 -0.9484  0.2947
  300DMF     H6 4088   2.755   1.760  -0.032  1.7379 -0.3780  0.4185
  300DMF     H7 4089   3.002   1.655   0.175  5.0864  0.1912 -0.2224
  301DMF     C1 4090   2.951   1.394   3.658  0.1427  0.0015 -0.3055
  301DMF     N1 4091   2.910   1.264   3.593 -0.0753  0.2879 -0.5424
  301DMF     C2 4092   2.875   1.257   3.455  0.3119  0.4549  0.5289
  301DMF     C3 4093   2.922   1.146   3.667  0.2771  0.9956  0.4283
  301DMF     O1 4094   2.949   1.145   3.788  0.9678 -0.7929  0.1120
  301DMF     H1 4095   2.961   1.473   3.582  1.6579 -0.6166 -0.7721
  301DMF     H2 4096   3.041   1.379   3.719 -0.5851 -0.7613  0.5957
  301DMF     H3 4097   2.870   1.414   3.728 -0.4502  1.3817 -1.3677
  301DMF     H4 4098   2.970   1.244   3.402  0.4954 -2.2543  1.4524
  301DMF     H5 4099   2.820   1.349   3.433  0.4199  0.6029  0.8829
  301DMF     H6 4100   2.818   1.164   3.445 -0.5943  1.2270 -1.8348
  301DMF     H7 4101   2.897   1.052   3.616 -1.2946  0.1000  2.7363
  302DMF     C1 4102   0.716   1.184   3.670  0.2249 -0.2625  0.3898
  302DMF     N1 4103   0.598   1.133   3.592 -0.0020 -0.2327 -0.1127
  302DMF     C2 4104   0.569   0.995   3.589 -0.2536  0.2008  0.0949
  302DMF     C3 4105   0.511   1.230   3.535 -0.1208 -0.3414 -0.3450
  302DMF     O1 4106   0.538   1.348   3.534  0.0528 -0.4207 -0.0505
  302DMF     H1 4107   0.801   1.119   3.645 -0.1599 -1.2185  1.5322
  302DMF     H2 4108   0.697   1.195   3.778 -1.6425 -0.5114  0.0990
  302DMF     H3 4109   0.742   1.282   3.628  0.9175 -0.3765  0.5535
  302DMF     H4 4110   0.461   0.978   3.599 -0.4409  0.7249 -0.8832
  302DMF     H5 4111   0.633   0.940   3.659  0.7867  1.4876  0.1853
  302DMF     H6 4112   0.615   0.963   3.494  2.4151 -1.9759  2.0506
  302DMF     H7 4113   0.432   1.180   3.476 -1.1080  0.7469  0.0388
  303DMF     C1 4114   0.759   0.149   2.694 -0.0686 -0.0896  0.4476
  303DMF     N1 4115   0.888   0.080   2.714 -0.2694  0.6277 -0.4928
  303DMF     C2 4116   0.964   0.111   2.845  0.3929  0.5436 -0.4857
  303DMF     C3 4117   0.928  -0.027   2.637 -0.5563  0.2397 -0.7786
  303DMF     O1 4118   0.878  -0.057   2.527  0.5432  0.6188  0.5549
  303DMF     H1 4119   0.780   0.254   2.671 -1.9720  0.5844  1.6683
  303DMF     H2 4120   0.687   0.140   2.776 -1.0204  0.9764 -0.2513
  303DMF     H3 4121   0.709   0.095   2.612  2.0919 -0.4434 -0.6646
  303DMF     H4 4122   1.053   0.174   2.833  0.3082  0.4464 -1.7588
  303DMF     H5 4123   1.001   0.018   2.890 -1.8607  1.4113  3.3347
  303DMF     H6 4124   0.895   0.158   2.917  0.3428  0.5883 -0.5624
  303DMF     H7 4125   1.011  -0.079   2.687 -0.2387  0.9727 -0.5361
  304DMF     C1 4126   2.778   3.276   3.081  0.0121 -0.0508  0.0097
  304DMF     N1 4127   2.780   3.245   2.931 -0.3330 -0.1306 -0.3005
  304DMF     C2 4128   2.913   3.200   2.878  0.3257 -0.1311 -0.6163
  304DMF     C3 4129   2.672   3.238   2.844  0.4228 -0.1883  0.6729
  304DMF     O1 4130   2.556   3.269   2.870  0.5433  0.3428 -0.0172
  304DMF     H1 4131   2.701   3.218   3.134  0.7213 -0.8859  0.1349
  304DMF     H2 4132   2.761   3.382   3.103 -0.4925 -0.0391 -0.4087
  304DMF     H3 4133   2.874   3.238   3.117  0.8025  0.0074 -1.9360
  304DMF     H4 4134   2.983   3.232   2.957 -1.1939 -1.8623  1.4936
  304DMF     H5 4135   2.946   3.257   2.790  1.3696  0.2988  0.0430
  304DMF     H6 4136   2.912   3.090   2.867  0.0732 -0.2324  0.3485
  304DMF     H7 4137   2.699   3.198   2.745  1.0678 -0.0509  0.7913
  305DMF     C1 4138   3.156   0.852   2.311 -0.0002  0.0783  0.0962
  305DMF     N1 4139   3.295   0.878   2.340 -0.1464  0.4340  0.9478
  305DMF     C2 4140   3.403   0.881   2.229  0.7955  0.3764 -0.1982
  305DMF     C3 4141   3.331   0.880   2.475 -0.0814 -0.3565  0.1177
  305DMF     O1 4142   3.259   0.852   2.566 -0.3186 -0.3139  0.1509
  305DMF     H1 4143   3.145   0.818   2.208  1.0349 -1.5317  0.5061
  305DMF     H2 4144   3.106   0.950   2.319  0.1468  0.2275 -0.7835
  305DMF     H3 4145   3.112   0.782   2.383  1.8139 -1.6481 -0.4447
  305DMF     H4 4146   3.487   0.947   2.255 -0.5246  1.2563  1.9832
  305DMF     H5 4147   3.344   0.921   2.146 -1.2288 -0.8646  0.6094
  305DMF     H6 4148   3.443   0.782   2.202  1.3917  0.8426 -1.0537
  305DMF     H7 4149   3.440   0.895   2.488 -0.1523 -1.0181  1.4796
  306DMF     C1 4150   2.284   3.360   3.535  0.2105  0.0533  0.1435
  306DMF     N1 4151   2.394   3.460   3.547 -0.4137 -0.4208 -0.2689
  306DMF     C2 4152   2.511   3.400   3.608 -0.5689 -0.0258  0.4693
  306DMF     C3 4153   2.387   3.587   3.496  0.4834  0.2662 -0.1284
  306DMF     O1 4154   2.286   3.627   3.440  0.9032  0.4519  0.5770
  306DMF     H1 4155   2.185   3.407   3.532  0.1533 -0.1124 -2.0592
  306DMF     H2 4156   2.275   3.298   3.625  0.3845 -0.7971 -0.4116
  306DMF     H3 4157   2.292   3.291   3.449 -0.0988  0.7878 -0.4844
  306DMF     H4 4158   2.517   3.423   3.715  0.3644 -0.2131  0.4621
  306DMF     H5 4159   2.603   3.439   3.563 -1.2658  0.6417 -0.4001
  306DMF     H6 4160   2.510   3.290   3.603 -3.2670 -0.0300  0.5798
  306DMF     H7 4161   2.482   3.643   3.499 -0.5172  2.0698 -1.2869
  307DMF     C1 4162   1.627   0.859   3.101 -0.2949  0.4103  0.1153
  307DMF     N1 4163   1.578   0.976   3.031  0.4995  0.2085 -0.7881
  307DMF     C2 4164   1.526   1.091   3.101  0.5310  0.6920  0.0303
  307DMF     C3 4165   1.567   0.966   2.891  1.0716 -0.1233 -0.6334
  307DMF     O1 4166   1.591   0.867   2.828 -0.3751 -0.4255 -0.4026
  307DMF     H1 4167   1.652   0.777   3.034  2.1426  0.2059  1.2124
  307DMF     H2 4168   1.560   0.820   3.179 -0.3678  1.9056  0.8280
  307DMF     H3 4169   1.721   0.884   3.154 -0.6926 -0.6261  1.3271
  307DMF     H4 4170   1.580   1.116   3.192 -1.3015  4.2520  0.1971
  307DMF     H5 4171   1.422   1.083   3.136 -0.1282 -2.1282 -2.2888
  307DMF     H6 4172   1.517   1.184   3.044  2.2178  1.4871  1.0481
  307DMF     H7 4173   1.534   1.063   2.849 -1.6469 -0.6895  0.1089
   3.40320   3.43847   3.80000
