DMF comparator n4
 4173
    1GR      C1    1   0.000   0.000   1.900  0.0000  0.0000  0.0000
    1GR      C2    2   0.142   0.000   1.900  0.0000  0.0000  0.0000
    1GR      C3    3   0.213   0.123   1.900  0.0000  0.0000  0.0000
    1GR      C4    4   0.354   0.123   1.900  0.0000  0.0000  0.0000
    1GR      C5    5   0.000   0.246   1.900  0.0000  0.0000  0.0000
    1GR      C6    6   0.142   0.246   1.900  0.0000  0.0000  0.0000
    1GR      C7    7   0.213   0.368   1.900  0.0000  0.0000  0.0000
    1GR      C8    8   0.354   0.368   1.900  0.0000  0.0000  0.0000
    1GR      C9    9   0.000   0.491   1.900  0.0000  0.0000  0.0000
    1GR     C10   10   0.142   0.491   1.900  0.0000  0.0000  0.0000
    1GR     C11   11   0.213   0.614   1.900  0.0000  0.0000  0.0000
    1GR     C12   12   0.354   0.614   1.900  0.0000  0.0000  0.0000
    1GR     C13   13   0.000   0.737   1.900  0.0000  0.0000  0.0000
    1GR     C14   14   0.142   0.737   1.900  0.0000  0.0000  0.0000
    1GR     C15   15   0.213   0.860   1.900  0.0000  0.0000  0.0000
    1GR     C16   16   0.354   0.860   1.900  0.0000  0.0000  0.0000
    1GR     C17   17   0.000   0.982   1.900  0.0000  0.0000  0.0000
    1GR     C18   18   0.142   0.982   1.900  0.0000  0.0000  0.0000
    1GR     C19   19   0.213   1.105   1.900  0.0000  0.0000  0.0000
    1GR     C20   20   0.354   1.105   1.900  0.0000  0.0000  0.0000
    1GR     C21   21   0.000   1.228   1.900  0.0000  0.0000  0.0000
    1GR     C22   22   0.142   1.228   1.900  0.0000  0.0000  0.0000
    1GR     C23   23   0.213   1.351   1.900  0.0000  0.0000  0.0000
    1GR     C24   24   0.354   1.351   1.900  0.0000  0.0000  0.0000
    1GR     C25   25   0.000   1.474   1.900  0.0000  0.0000  0.0000
    1GR     C26   26   0.142   1.474   1.900  0.0000  0.0000  0.0000
    1GR     C27   27   0.213   1.596   1.900  0.0000  0.0000  0.0000
    1GR     C28   28   0.354   1.596   1.900  0.0000  0.0000  0.0000
    1GR     C29   29   0.000   1.719   1.900  0.0000  0.0000  0.0000
    1GR     C30   30   0.142   1.719   1.900  0.0000  0.0000  0.0000
    1GR     C31   31   0.213   1.842   1.900  0.0000  0.0000  0.0000
    1GR     C32   32   0.354   1.842   1.900  0.0000  0.0000  0.0000
    1GR     C33   33   0.000   1.965   1.900  0.0000  0.0000  0.0000
    1GR     C34   34   0.142   1.965   1.900  0.0000  0.0000  0.0000
    1GR     C35   35   0.213   2.088   1.900  0.0000  0.0000  0.0000
    1GR     C36   36   0.354   2.088   1.900  0.0000  0.0000  0.0000
    1GR     C37   37   0.000   2.210   1.900  0.0000  0.0000  0.0000
    1GR     C38   38   0.142   2.210   1.900  0.0000  0.0000  0.0000
    1GR     C39   39   0.213   2.333   1.900  0.0000  0.0000  0.0000
    1GR     C40   40   0.354   2.333   1.900  0.0000  0.0000  0.0000
    1GR     C41   41   0.000   2.456   1.900  0.0000  0.0000  0.0000
    1GR     C42   42   0.142   2.456   1.900  0.0000  0.0000  0.0000
    1GR     C43   43   0.213   2.579   1.900  0.0000  0.0000  0.0000
    1GR     C44   44   0.354   2.579   1.900  0.0000  0.0000  0.0000
    1GR     C45   45   0.000   2.702   1.900  0.0000  0.0000  0.0000
    1GR     C46   46   0.142   2.702   1.900  0.0000  0.0000  0.0000
    1GR     C47   47   0.213   2.824   1.900  0.0000  0.0000  0.0000
    1GR     C48   48   0.354   2.824   1.900  0.0000  0.0000  0.0000
    1GR     C49   49   0.000   2.947   1.900  0.0000  0.0000  0.0000
    1GR     C50   50   0.142   2.947   1.900  0.0000  0.0000  0.0000
    1GR     C51   51   0.213   3.070   1.900  0.0000  0.0000  0.0000
    1GR     C52   52   0.354   3.070   1.900  0.0000  0.0000  0.0000
    1GR     C53   53   0.000   3.193   1.900  0.0000  0.0000  0.0000
    1GR     C54   54   0.142   3.193   1.900  0.0000  0.0000  0.0000
    1GR     C55   55   0.213   3.316   1.900  0.0000  0.0000  0.0000
    1GR     C56   56   0.354   3.316   1.900  0.0000  0.0000  0.0000
    1GR     C57   57   0.425   0.000   1.900  0.0000  0.0000  0.0000
    1GR     C58   58   0.567   0.000   1.900  0.0000  0.0000  0.0000
    1GR     C59   59   0.638   0.123   1.900  0.0000  0.0000  0.0000
    1GR     C60   60   0.780   0.123   1.900  0.0000  0.0000  0.0000
    1GR     C61   61   0.425   0.246   1.900  0.0000  0.0000  0.0000
    1GR     C62   62   0.567   0.246   1.900  0.0000  0.0000  0.0000
    1GR     C63   63   0.638   0.368   1.900  0.0000  0.0000  0.0000
    1GR     C64   64   0.780   0.368   1.900  0.0000  0.0000  0.0000
    1GR     C65   65   0.425   0.491   1.900  0.0000  0.0000  0.0000
    1GR     C66   66   0.567   0.491   1.900  0.0000  0.0000  0.0000
    1GR     C67   67   0.638   0.614   1.900  0.0000  0.0000  0.0000
    1GR     C68   68   0.780   0.614   1.900  0.0000  0.0000  0.0000
    1GR     C69   69   0.425   0.737   1.900  0.0000  0.0000  0.0000
    1GR     C70   70   0.567   0.737   1.900  0.0000  0.0000  0.0000
    1GR     C71   71   0.638   0.860   1.900  0.0000  0.0000  0.0000
    1GR     C72   72   0.780   0.860   1.900  0.0000  0.0000  0.0000
    1GR     C73   73   0.425   0.982   1.900  0.0000  0.0000  0.0000
    1GR     C74   74   0.567   0.982   1.900  0.0000  0.0000  0.0000
    1GR     C75   75   0.638   1.105   1.900  0.0000  0.0000  0.0000
    1GR     C76   76   0.780   1.105   1.900  0.0000  0.0000  0.0000
    1GR     C77   77   0.425   1.228   1.900  0.0000  0.0000  0.0000
    1GR     C78   78   0.567   1.228   1.900  0.0000  0.0000  0.0000
    1GR     C79   79   0.638   1.351   1.900  0.0000  0.0000  0.0000
    1GR     C80   80   0.780   1.351   1.900  0.0000  0.0000  0.0000
    1GR     C81   81   0.425   1.474   1.900  0.0000  0.0000  0.0000
    1GR     C82   82   0.567   1.474   1.900  0.0000  0.0000  0.0000
    1GR     C83   83   0.638   1.596   1.900  0.0000  0.0000  0.0000
    1GR     C84   84   0.780   1.596   1.900  0.0000  0.0000  0.0000
    1GR     C85   85   0.425   1.719   1.900  0.0000  0.0000  0.0000
    1GR     C86   86   0.567   1.719   1.900  0.0000  0.0000  0.0000
    1GR     C87   87   0.638   1.842   1.900  0.0000  0.0000  0.0000
    1GR     C88   88   0.780   1.842   1.900  0.0000  0.0000  0.0000
    1GR     C89   89   0.425   1.965   1.900  0.0000  0.0000  0.0000
    1GR     C90   90   0.567   1.965   1.900  0.0000  0.0000  0.0000
    1GR     C91   91   0.638   2.088   1.900  0.0000  0.0000  0.0000
    1GR     C92   92   0.780   2.088   1.900  0.0000  0.0000  0.0000
    1GR     C93   93   0.425   2.210   1.900  0.0000  0.0000  0.0000
    1GR     C94   94   0.567   2.210   1.900  0.0000  0.0000  0.0000
    1GR     C95   95   0.638   2.333   1.900  0.0000  0.0000  0.0000
    1GR     C96   96   0.780   2.333   1.900  0.0000  0.0000  0.0000
    1GR     C97   97   0.425   2.456   1.900  0.0000  0.0000  0.0000
    1GR     C98   98   0.567   2.456   1.900  0.0000  0.0000  0.0000
    1GR     C99   99   0.638   2.579   1.900  0.0000  0.0000  0.0000
    1GR    C100  100   0.780   2.579   1.900  0.0000  0.0000  0.0000
    1GR    C101  101   0.425   2.702   1.900  0.0000  0.0000  0.0000
    1GR    C102  102   0.567   2.702   1.900  0.0000  0.0000  0.0000
    1GR    C103  103   0.638   2.824   1.900  0.0000  0.0000  0.0000
    1GR    C104  104   0.780   2.824   1.900  0.0000  0.0000  0.0000
    1GR    C105  105   0.425   2.947   1.900  0.0000  0.0000  0.0000
    1GR    C106  106   0.567   2.947   1.900  0.0000  0.0000  0.0000
    1GR    C107  107   0.638   3.070   1.900  0.0000  0.0000  0.0000
    1GR    C108  108   0.780   3.070   1.900  0.0000  0.0000  0.0000
    1GR    C109  109   0.425   3.193   1.900  0.0000  0.0000  0.0000
    1GR    C110  110   0.567   3.193   1.900  0.0000  0.0000  0.0000
    1GR    C111  111   0.638   3.316   1.900  0.0000  0.0000  0.0000
    1GR    C112  112   0.780   3.316   1.900  0.0000  0.0000  0.0000
    1GR    C113  113   0.851   0.000   1.900  0.0000  0.0000  0.0000
    1GR    C114  114   0.993   0.000   1.900  0.0000  0.0000  0.0000
    1GR    C115  115   1.064   0.123   1.900  0.0000  0.0000  0.0000
    1GR    C116  116   1.205   0.123   1.900  0.0000  0.0000  0.0000
    1GR    C117  117   0.851   0.246   1.900  0.0000  0.0000  0.0000
    1GR    C118  118   0.993   0.246   1.900  0.0000  0.0000  0.0000
    1GR    C119  119   1.064   0.368   1.900  0.0000  0.0000  0.0000
    1GR    C120  120   1.205   0.368   1.900  0.0000  0.0000  0.0000
    1GR    C121  121   0.851   0.491   1.900  0.0000  0.0000  0.0000
    1GR    C122  122   0.993   0.491   1.900  0.0000  0.0000  0.0000
    1GR    C123  123   1.064   0.614   1.900  0.0000  0.0000  0.0000
    1GR    C124  124   1.205   0.614   1.900  0.0000  0.0000  0.0000
    1GR    C125  125   0.851   0.737   1.900  0.0000  0.0000  0.0000
    1GR    C126  126   0.993   0.737   1.900  0.0000  0.0000  0.0000
    1GR    C127  127   1.064   0.860   1.900  0.0000  0.0000  0.0000
    1GR    C128  128   1.205   0.860   1.900  0.0000  0.0000  0.0000
    1GR    C129  129   0.851   0.982   1.900  0.0000  0.0000  0.0000
    1GR    C130  130   0.993   0.982   1.900  0.0000  0.0000  0.0000
    1GR    C131  131   1.064   1.105   1.900  0.0000  0.0000  0.0000
    1GR    C132  132   1.205   1.105   1.900  0.0000  0.0000  0.0000
    1GR    C133  133   0.851   1.228   1.900  0.0000  0.0000  0.0000
    1GR    C134  134   0.993   1.228   1.900  0.0000  0.0000  0.0000
    1GR    C135  135   1.064   1.351   1.900  0.0000  0.0000  0.0000
    1GR    C136  136   1.205   1.351   1.900  0.0000  0.0000  0.0000
    1GR    C137  137   0.851   1.474   1.900  0.0000  0.0000  0.0000
    1GR    C138  138   0.993   1.474   1.900  0.0000  0.0000  0.0000
    1GR    C139  139   1.064   1.596   1.900  0.0000  0.0000  0.0000
    1GR    C140  140   1.205   1.596   1.900  0.0000  0.0000  0.0000
    1GR    C141  141   0.851   1.719   1.900  0.0000  0.0000  0.0000
    1GR    C142  142   0.993   1.719   1.900  0.0000  0.0000  0.0000
    1GR    C143  143   1.064   1.842   1.900  0.0000  0.0000  0.0000
    1GR    C144  144   1.205   1.842   1.900  0.0000  0.0000  0.0000
    1GR    C145  145   0.851   1.965   1.900  0.0000  0.0000  0.0000
    1GR    C146  146   0.993   1.965   1.900  0.0000  0.0000  0.0000
    1GR    C147  147   1.064   2.088   1.900  0.0000  0.0000  0.0000
    1GR    C148  148   1.205   2.088   1.900  0.0000  0.0000  0.0000
    1GR    C149  149   0.851   2.210   1.900  0.0000  0.0000  0.0000
    1GR    C150  150   0.993   2.210   1.900  0.0000  0.0000  0.0000
    1GR    C151  151   1.064   2.333   1.900  0.0000  0.0000  0.0000
    1GR    C152  152   1.205   2.333   1.900  0.0000  0.0000  0.0000
    1GR    C153  153   0.851   2.456   1.900  0.0000  0.0000  0.0000
    1GR    C154  154   0.993   2.456   1.900  0.0000  0.0000  0.0000
    1GR    C155  155   1.064   2.579   1.900  0.0000  0.0000  0.0000
    1GR    C156  156   1.205   2.579   1.900  0.0000  0.0000  0.0000
    1GR    C157  157   0.851   2.702   1.900  0.0000  0.0000  0.0000
    1GR    C158  158   0.993   2.702   1.900  0.0000  0.0000  0.0000
    1GR    C159  159   1.064   2.824   1.900  0.0000  0.0000  0.0000
    1GR    C160  160   1.205   2.824   1.900  0.0000  0.0000  0.0000
    1GR    C161  161   0.851   2.947   1.900  0.0000  0.0000  0.0000
    1GR    C162  162   0.993   2.947   1.900  0.0000  0.0000  0.0000
    1GR    C163  163   1.064   3.070   1.900  0.0000  0.0000  0.0000
    1GR    C164  164   1.205   3.070   1.900  0.0000  0.0000  0.0000
    1GR    C165  165   0.851   3.193   1.900  0.0000  0.0000  0.0000
    1GR    C166  166   0.993   3.193   1.900  0.0000  0.0000  0.0000
    1GR    C167  167   1.064   3.316   1.900  0.0000  0.0000  0.0000
    1GR    C168  168   1.205   3.316   1.900  0.0000  0.0000  0.0000
    1GR    C169  169   1.276   0.000   1.900  0.0000  0.0000  0.0000
    1GR    C170  170   1.418   0.000   1.900  0.0000  0.0000  0.0000
    1GR    C171  171   1.489   0.123   1.900  0.0000  0.0000  0.0000
    1GR    C172  172   1.631   0.123   1.900  0.0000  0.0000  0.0000
    1GR    C173  173   1.276   0.246   1.900  0.0000  0.0000  0.0000
    1GR    C174  174   1.418   0.246   1.900  0.0000  0.0000  0.0000
    1GR    C175  175   1.489   0.368   1.900  0.0000  0.0000  0.0000
    1GR    C176  176   1.631   0.368   1.900  0.0000  0.0000  0.0000
    1GR    C177  177   1.276   0.491   1.900  0.0000  0.0000  0.0000
    1GR    C178  178   1.418   0.491   1.900  0.0000  0.0000  0.0000
    1GR    C179  179   1.489   0.614   1.900  0.0000  0.0000  0.0000
    1GR    C180  180   1.631   0.614   1.900  0.0000  0.0000  0.0000
    1GR    C181  181   1.276   0.737   1.900  0.0000  0.0000  0.0000
    1GR    C182  182   1.418   0.737   1.900  0.0000  0.0000  0.0000
    1GR    C183  183   1.489   0.860   1.900  0.0000  0.0000  0.0000
    1GR    C184  184   1.631   0.860   1.900  0.0000  0.0000  0.0000
    1GR    C185  185   1.276   0.982   1.900  0.0000  0.0000  0.0000
    1GR    C186  186   1.418   0.982   1.900  0.0000  0.0000  0.0000
    1GR    C187  187   1.489   1.105   1.900  0.0000  0.0000  0.0000
    1GR    C188  188   1.631   1.105   1.900  0.0000  0.0000  0.0000
    1GR    C189  189   1.276   1.228   1.900  0.0000  0.0000  0.0000
    1GR    C190  190   1.418   1.228   1.900  0.0000  0.0000  0.0000
    1GR    C191  191   1.489   1.351   1.900  0.0000  0.0000  0.0000
    1GR    C192  192   1.631   1.351   1.900  0.0000  0.0000  0.0000
    1GR    C193  193   1.276   1.474   1.900  0.0000  0.0000  0.0000
    1GR    C194  194   1.418   1.474   1.900  0.0000  0.0000  0.0000
    1GR    C195  195   1.489   1.596   1.900  0.0000  0.0000  0.0000
    1GR    C196  196   1.631   1.596   1.900  0.0000  0.0000  0.0000
    1GR    C197  197   1.276   1.719   1.900  0.0000  0.0000  0.0000
    1GR    C198  198   1.418   1.719   1.900  0.0000  0.0000  0.0000
    1GR    C199  199   1.489   1.842   1.900  0.0000  0.0000  0.0000
    1GR    C200  200   1.631   1.842   1.900  0.0000  0.0000  0.0000
    1GR    C201  201   1.276   1.965   1.900  0.0000  0.0000  0.0000
    1GR    C202  202   1.418   1.965   1.900  0.0000  0.0000  0.0000
    1GR    C203  203   1.489   2.088   1.900  0.0000  0.0000  0.0000
    1GR    C204  204   1.631   2.088   1.900  0.0000  0.0000  0.0000
    1GR    C205  205   1.276   2.210   1.900  0.0000  0.0000  0.0000
    1GR    C206  206   1.418   2.210   1.900  0.0000  0.0000  0.0000
    1GR    C207  207   1.489   2.333   1.900  0.0000  0.0000  0.0000
    1GR    C208  208   1.631   2.333   1.900  0.0000  0.0000  0.0000
    1GR    C209  209   1.276   2.456   1.900  0.0000  0.0000  0.0000
    1GR    C210  210   1.418   2.456   1.900  0.0000  0.0000  0.0000
    1GR    C211  211   1.489   2.579   1.900  0.0000  0.0000  0.0000
    1GR    C212  212   1.631   2.579   1.900  0.0000  0.0000  0.0000
    1GR    C213  213   1.276   2.702   1.900  0.0000  0.0000  0.0000
    1GR    C214  214   1.418   2.702   1.900  0.0000  0.0000  0.0000
    1GR    C215  215   1.489   2.824   1.900  0.0000  0.0000  0.0000
    1GR    C216  216   1.631   2.824   1.900  0.0000  0.0000  0.0000
    1GR    C217  217   1.276   2.947   1.900  0.0000  0.0000  0.0000
    1GR    C218  218   1.418   2.947   1.900  0.0000  0.0000  0.0000
    1GR    C219  219   1.489   3.070   1.900  0.0000  0.0000  0.0000
    1GR    C220  220   1.631   3.070   1.900  0.0000  0.0000  0.0000
    1GR    C221  221   1.276   3.193   1.900  0.0000  0.0000  0.0000
    1GR    C222  222   1.418   3.193   1.900  0.0000  0.0000  0.0000
    1GR    C223  223   1.489   3.316   1.900  0.0000  0.0000  0.0000
    1GR    C224  224   1.631   3.316   1.900  0.0000  0.0000  0.0000
    1GR    C225  225   1.702   0.000   1.900  0.0000  0.0000  0.0000
    1GR    C226  226   1.843   0.000   1.900  0.0000  0.0000  0.0000
    1GR    C227  227   1.914   0.123   1.900  0.0000  0.0000  0.0000
    1GR    C228  228   2.056   0.123   1.900  0.0000  0.0000  0.0000
    1GR    C229  229   1.702   0.246   1.900  0.0000  0.0000  0.0000
    1GR    C230  230   1.843   0.246   1.900  0.0000  0.0000  0.0000
    1GR    C231  231   1.914   0.368   1.900  0.0000  0.0000  0.0000
    1GR    C232  232   2.056   0.368   1.900  0.0000  0.0000  0.0000
    1GR    C233  233   1.702   0.491   1.900  0.0000  0.0000  0.0000
    1GR    C234  234   1.843   0.491   1.900  0.0000  0.0000  0.0000
    1GR    C235  235   1.914   0.614   1.900  0.0000  0.0000  0.0000
    1GR    C236  236   2.056   0.614   1.900  0.0000  0.0000  0.0000
    1GR    C237  237   1.702   0.737   1.900  0.0000  0.0000  0.0000
    1GR    C238  238   1.843   0.737   1.900  0.0000  0.0000  0.0000
    1GR    C239  239   1.914   0.860   1.900  0.0000  0.0000  0.0000
    1GR    C240  240   2.056   0.860   1.900  0.0000  0.0000  0.0000
    1GR    C241  241   1.702   0.982   1.900  0.0000  0.0000  0.0000
    1GR    C242  242   1.843   0.982   1.900  0.0000  0.0000  0.0000
    1GR    C243  243   1.914   1.105   1.900  0.0000  0.0000  0.0000
    1GR    C244  244   2.056   1.105   1.900  0.0000  0.0000  0.0000
    1GR    C245  245   1.702   1.228   1.900  0.0000  0.0000  0.0000
    1GR    C246  246   1.843   1.228   1.900  0.0000  0.0000  0.0000
    1GR    C247  247   1.914   1.351   1.900  0.0000  0.0000  0.0000
    1GR    C248  248   2.056   1.351   1.900  0.0000  0.0000  0.0000
    1GR    C249  249   1.702   1.474   1.900  0.0000  0.0000  0.0000
    1GR    C250  250   1.843   1.474   1.900  0.0000  0.0000  0.0000
    1GR    C251  251   1.914   1.596   1.900  0.0000  0.0000  0.0000
    1GR    C252  252   2.056   1.596   1.900  0.0000  0.0000  0.0000
    1GR    C253  253   1.702   1.719   1.900  0.0000  0.0000  0.0000
    1GR    C254  254   1.843   1.719   1.900  0.0000  0.0000  0.0000
    1GR    C255  255   1.914   1.842   1.900  0.0000  0.0000  0.0000
    1GR    C256  256   2.056   1.842   1.900  0.0000  0.0000  0.0000
    1GR    C257  257   1.702   1.965   1.900  0.0000  0.0000  0.0000
    1GR    C258  258   1.843   1.965   1.900  0.0000  0.0000  0.0000
    1GR    C259  259   1.914   2.088   1.900  0.0000  0.0000  0.0000
    1GR    C260  260   2.056   2.088   1.900  0.0000  0.0000  0.0000
    1GR    C261  261   1.702   2.210   1.900  0.0000  0.0000  0.0000
    1GR    C262  262   1.843   2.210   1.900  0.0000  0.0000  0.0000
    1GR    C263  263   1.914   2.333   1.900  0.0000  0.0000  0.0000
    1GR    C264  264   2.056   2.333   1.900  0.0000  0.0000  0.0000
    1GR    C265  265   1.702   2.456   1.900  0.0000  0.0000  0.0000
    1GR    C266  266   1.843   2.456   1.900  0.0000  0.0000  0.0000
    1GR    C267  267   1.914   2.579   1.900  0.0000  0.0000  0.0000
    1GR    C268  268   2.056   2.579   1.900  0.0000  0.0000  0.0000
    1GR    C269  269   1.702   2.702   1.900  0.0000  0.0000  0.0000
    1GR    C270  270   1.843   2.702   1.900  0.0000  0.0000  0.0000
    1GR    C271  271   1.914   2.824   1.900  0.0000  0.0000  0.0000
    1GR    C272  272   2.056   2.824   1.900  0.0000  0.0000  0.0000
    1GR    C273  273   1.702   2.947   1.900  0.0000  0.0000  0.0000
    1GR    C274  274   1.843   2.947   1.900  0.0000  0.0000  0.0000
    1GR    C275  275   1.914   3.070   1.900  0.0000  0.0000  0.0000
    1GR    C276  276   2.056   3.070   1.900  0.0000  0.0000  0.0000
    1GR    C277  277   1.702   3.193   1.900  0.0000  0.0000  0.0000
    1GR    C278  278   1.843   3.193   1.900  0.0000  0.0000  0.0000
    1GR    C279  279   1.914   3.316   1.900  0.0000  0.0000  0.0000
    1GR    C280  280   2.056   3.316   1.900  0.0000  0.0000  0.0000
    1GR    C281  281   2.127   0.000   1.900  0.0000  0.0000  0.0000
    1GR    C282  282   2.269   0.000   1.900  0.0000  0.0000  0.0000
    1GR    C283  283   2.340   0.123   1.900  0.0000  0.0000  0.0000
    1GR    C284  284   2.481   0.123   1.900  0.0000  0.0000  0.0000
    1GR    C285  285   2.127   0.246   1.900  0.0000  0.0000  0.0000
    1GR    C286  286   2.269   0.246   1.900  0.0000  0.0000  0.0000
    1GR    C287  287   2.340   0.368   1.900  0.0000  0.0000  0.0000
    1GR    C288  288   2.481   0.368   1.900  0.0000  0.0000  0.0000
    1GR    C289  289   2.127   0.491   1.900  0.0000  0.0000  0.0000
    1GR    C290  290   2.269   0.491   1.900  0.0000  0.0000  0.0000
    1GR    C291  291   2.340   0.614   1.900  0.0000  0.0000  0.0000
    1GR    C292  292   2.481   0.614   1.900  0.0000  0.0000  0.0000
    1GR    C293  293   2.127   0.737   1.900  0.0000  0.0000  0.0000
    1GR    C294  294   2.269   0.737   1.900  0.0000  0.0000  0.0000
    1GR    C295  295   2.340   0.860   1.900  0.0000  0.0000  0.0000
    1GR    C296  296   2.481   0.860   1.900  0.0000  0.0000  0.0000
    1GR    C297  297   2.127   0.982   1.900  0.0000  0.0000  0.0000
    1GR    C298  298   2.269   0.982   1.900  0.0000  0.0000  0.0000
    1GR    C299  299   2.340   1.105   1.900  0.0000  0.0000  0.0000
    1GR    C300  300   2.481   1.105   1.900  0.0000  0.0000  0.0000
    1GR    C301  301   2.127   1.228   1.900  0.0000  0.0000  0.0000
    1GR    C302  302   2.269   1.228   1.900  0.0000  0.0000  0.0000
    1GR    C303  303   2.340   1.351   1.900  0.0000  0.0000  0.0000
    1GR    C304  304   2.481   1.351   1.900  0.0000  0.0000  0.0000
    1GR    C305  305   2.127   1.474   1.900  0.0000  0.0000  0.0000
    1GR    C306  306   2.269   1.474   1.900  0.0000  0.0000  0.0000
    1GR    C307  307   2.340   1.596   1.900  0.0000  0.0000  0.0000
    1GR    C308  308   2.481   1.596   1.900  0.0000  0.0000  0.0000
    1GR    C309  309   2.127   1.719   1.900  0.0000  0.0000  0.0000
    1GR    C310  310   2.269   1.719   1.900  0.0000  0.0000  0.0000
    1GR    C311  311   2.340   1.842   1.900  0.0000  0.0000  0.0000
    1GR    C312  312   2.481   1.842   1.900  0.0000  0.0000  0.0000
    1GR    C313  313   2.127   1.965   1.900  0.0000  0.0000  0.0000
    1GR    C314  314   2.269   1.965   1.900  0.0000  0.0000  0.0000
    1GR    C315  315   2.340   2.088   1.900  0.0000  0.0000  0.0000
    1GR    C316  316   2.481   2.088   1.900  0.0000  0.0000  0.0000
    1GR    C317  317   2.127   2.210   1.900  0.0000  0.0000  0.0000
    1GR    C318  318   2.269   2.210   1.900  0.0000  0.0000  0.0000
    1GR    C319  319   2.340   2.333   1.900  0.0000  0.0000  0.0000
    1GR    C320  320   2.481   2.333   1.900  0.0000  0.0000  0.0000
    1GR    C321  321   2.127   2.456   1.900  0.0000  0.0000  0.0000
    1GR    C322  322   2.269   2.456   1.900  0.0000  0.0000  0.0000
    1GR    C323  323   2.340   2.579   1.900  0.0000  0.0000  0.0000
    1GR    C324  324   2.481   2.579   1.900  0.0000  0.0000  0.0000
    1GR    C325  325   2.127   2.702   1.900  0.0000  0.0000  0.0000
    1GR    C326  326   2.269   2.702   1.900  0.0000  0.0000  0.0000
    1GR    C327  327   2.340   2.824   1.900  0.0000  0.0000  0.0000
    1GR    C328  328   2.481   2.824   1.900  0.0000  0.0000  0.0000
    1GR    C329  329   2.127   2.947   1.900  0.0000  0.0000  0.0000
    1GR    C330  330   2.269   2.947   1.900  0.0000  0.0000  0.0000
    1GR    C331  331   2.340   3.070   1.900  0.0000  0.0000  0.0000
    1GR    C332  332   2.481   3.070   1.900  0.0000  0.0000  0.0000
    1GR    C333  333   2.127   3.193   1.900  0.0000  0.0000  0.0000
    1GR    C334  334   2.269   3.193   1.900  0.0000  0.0000  0.0000
    1GR    C335  335   2.340   3.316   1.900  0.0000  0.0000  0.0000
    1GR    C336  336   2.481   3.316   1.900  0.0000  0.0000  0.0000
    1GR    C337  337   2.552   0.000   1.900  0.0000  0.0000  0.0000
    1GR    C338  338   2.694   0.000   1.900  0.0000  0.0000  0.0000
    1GR    C339  339   2.765   0.123   1.900  0.0000  0.0000  0.0000
    1GR    C340  340   2.907   0.123   1.900  0.0000  0.0000  0.0000
    1GR    C341  341   2.552   0.246   1.900  0.0000  0.0000  0.0000
    1GR    C342  342   2.694   0.246   1.900  0.0000  0.0000  0.0000
    1GR    C343  343   2.765   0.368   1.900  0.0000  0.0000  0.0000
    1GR    C344  344   2.907   0.368   1.900  0.0000  0.0000  0.0000
    1GR    C345  345   2.552   0.491   1.900  0.0000  0.0000  0.0000
    1GR    C346  346   2.694   0.491   1.900  0.0000  0.0000  0.0000
    1GR    C347  347   2.765   0.614   1.900  0.0000  0.0000  0.0000
    1GR    C348  348   2.907   0.614   1.900  0.0000  0.0000  0.0000
    1GR    C349  349   2.552   0.737   1.900  0.0000  0.0000  0.0000
    1GR    C350  350   2.694   0.737   1.900  0.0000  0.0000  0.0000
    1GR    C351  351   2.765   0.860   1.900  0.0000  0.0000  0.0000
    1GR    C352  352   2.907   0.860   1.900  0.0000  0.0000  0.0000
    1GR    C353  353   2.552   0.982   1.900  0.0000  0.0000  0.0000
    1GR    C354  354   2.694   0.982   1.900  0.0000  0.0000  0.0000
    1GR    C355  355   2.765   1.105   1.900  0.0000  0.0000  0.0000
    1GR    C356  356   2.907   1.105   1.900  0.0000  0.0000  0.0000
    1GR    C357  357   2.552   1.228   1.900  0.0000  0.0000  0.0000
    1GR    C358  358   2.694   1.228   1.900  0.0000  0.0000  0.0000
    1GR    C359  359   2.765   1.351   1.900  0.0000  0.0000  0.0000
    1GR    C360  360   2.907   1.351   1.900  0.0000  0.0000  0.0000
    1GR    C361  361   2.552   1.474   1.900  0.0000  0.0000  0.0000
    1GR    C362  362   2.694   1.474   1.900  0.0000  0.0000  0.0000
    1GR    C363  363   2.765   1.596   1.900  0.0000  0.0000  0.0000
    1GR    C364  364   2.907   1.596   1.900  0.0000  0.0000  0.0000
    1GR    C365  365   2.552   1.719   1.900  0.0000  0.0000  0.0000
    1GR    C366  366   2.694   1.719   1.900  0.0000  0.0000  0.0000
    1GR    C367  367   2.765   1.842   1.900  0.0000  0.0000  0.0000
    1GR    C368  368   2.907   1.842   1.900  0.0000  0.0000  0.0000
    1GR    C369  369   2.552   1.965   1.900  0.0000  0.0000  0.0000
    1GR    C370  370   2.694   1.965   1.900  0.0000  0.0000  0.0000
    1GR    C371  371   2.765   2.088   1.900  0.0000  0.0000  0.0000
    1GR    C372  372   2.907   2.088   1.900  0.0000  0.0000  0.0000
    1GR    C373  373   2.552   2.210   1.900  0.0000  0.0000  0.0000
    1GR    C374  374   2.694   2.210   1.900  0.0000  0.0000  0.0000
    1GR    C375  375   2.765   2.333   1.900  0.0000  0.0000  0.0000
    1GR    C376  376   2.907   2.333   1.900  0.0000  0.0000  0.0000
    1GR    C377  377   2.552   2.456   1.900  0.0000  0.0000  0.0000
    1GR    C378  378   2.694   2.456   1.900  0.0000  0.0000  0.0000
    1GR    C379  379   2.765   2.579   1.900  0.0000  0.0000  0.0000
    1GR    C380  380   2.907   2.579   1.900  0.0000  0.0000  0.0000
    1GR    C381  381   2.552   2.702   1.900  0.0000  0.0000  0.0000
    1GR    C382  382   2.694   2.702   1.900  0.0000  0.0000  0.0000
    1GR    C383  383   2.765   2.824   1.900  0.0000  0.0000  0.0000
    1GR    C384  384   2.907   2.824   1.900  0.0000  0.0000  0.0000
    1GR    C385  385   2.552   2.947   1.900  0.0000  0.0000  0.0000
    1GR    C386  386   2.694   2.947   1.900  0.0000  0.0000  0.0000
    1GR    C387  387   2.765   3.070   1.900  0.0000  0.0000  0.0000
    1GR    C388  388   2.907   3.070   1.900  0.0000  0.0000  0.0000
    1GR    C389  389   2.552   3.193   1.900  0.0000  0.0000  0.0000
    1GR    C390  390   2.694   3.193   1.900  0.0000  0.0000  0.0000
    1GR    C391  391   2.765   3.316   1.900  0.0000  0.0000  0.0000
    1GR    C392  392   2.907   3.316   1.900  0.0000  0.0000  0.0000
    1GR    C393  393   2.978   0.000   1.900  0.0000  0.0000  0.0000
    1GR    C394  394   3.120   0.000   1.900  0.0000  0.0000  0.0000
    1GR    C395  395   3.191   0.123   1.900  0.0000  0.0000  0.0000
    1GR    C396  396   3.332   0.123   1.900  0.0000  0.0000  0.0000
    1GR    C397  397   2.978   0.246   1.900  0.0000  0.0000  0.0000
    1GR    C398  398   3.120   0.246   1.900  0.0000  0.0000  0.0000
    1GR    C399  399   3.191   0.368   1.900  0.0000  0.0000  0.0000
    1GR    C400  400   3.332   0.368   1.900  0.0000  0.0000  0.0000
    1GR    C401  401   2.978   0.491   1.900  0.0000  0.0000  0.0000
    1GR    C402  402   3.120   0.491   1.900  0.0000  0.0000  0.0000
    1GR    C403  403   3.191   0.614   1.900  0.0000  0.0000  0.0000
    1GR    C404  404   3.332   0.614   1.900  0.0000  0.0000  0.0000
    1GR    C405  405   2.978   0.737   1.900  0.0000  0.0000  0.0000
    1GR    C406  406   3.120   0.737   1.900  0.0000  0.0000  0.0000
    1GR    C407  407   3.191   0.860   1.900  0.0000  0.0000  0.0000
    1GR    C408  408   3.332   0.860   1.900  0.0000  0.0000  0.0000
    1GR    C409  409   2.978   0.982   1.900  0.0000  0.0000  0.0000
    1GR    C410  410   3.120   0.982   1.900  0.0000  0.0000  0.0000
    1GR    C411  411   3.191   1.105   1.900  0.0000  0.0000  0.0000
    1GR    C412  412   3.332   1.105   1.900  0.0000  0.0000  0.0000
    1GR    C413  413   2.978   1.228   1.900  0.0000  0.0000  0.0000
    1GR    C414  414   3.120   1.228   1.900  0.0000  0.0000  0.0000
    1GR    C415  415   3.191   1.351   1.900  0.0000  0.0000  0.0000
    1GR    C416  416   3.332   1.351   1.900  0.0000  0.0000  0.0000
    1GR    C417  417   2.978   1.474   1.900  0.0000  0.0000  0.0000
    1GR    C418  418   3.120   1.474   1.900  0.0000  0.0000  0.0000
    1GR    C419  419   3.191   1.596   1.900  0.0000  0.0000  0.0000
    1GR    C420  420   3.332   1.596   1.900  0.0000  0.0000  0.0000
    1GR    C421  421   2.978   1.719   1.900  0.0000  0.0000  0.0000
    1GR    C422  422   3.120   1.719   1.900  0.0000  0.0000  0.0000
    1GR    C423  423   3.191   1.842   1.900  0.0000  0.0000  0.0000
    1GR    C424  424   3.332   1.842   1.900  0.0000  0.0000  0.0000
    1GR    C425  425   2.978   1.965   1.900  0.0000  0.0000  0.0000
    1GR    C426  426   3.120   1.965   1.900  0.0000  0.0000  0.0000
    1GR    C427  427   3.191   2.088   1.900  0.0000  0.0000  0.0000
    1GR    C428  428   3.332   2.088   1.900  0.0000  0.0000  0.0000
    1GR    C429  429   2.978   2.210   1.900  0.0000  0.0000  0.0000
    1GR    C430  430   3.120   2.210   1.900  0.0000  0.0000  0.0000
    1GR    C431  431   3.191   2.333   1.900  0.0000  0.0000  0.0000
    1GR    C432  432   3.332   2.333   1.900  0.0000  0.0000  0.0000
    1GR    C433  433   2.978   2.456   1.900  0.0000  0.0000  0.0000
    1GR    C434  434   3.120   2.456   1.900  0.0000  0.0000  0.0000
    1GR    C435  435   3.191   2.579   1.900  0.0000  0.0000  0.0000
    1GR    C436  436   3.332   2.579   1.900  0.0000  0.0000  0.0000
    1GR    C437  437   2.978   2.702   1.900  0.0000  0.0000  0.0000
    1GR    C438  438   3.120   2.702   1.900  0.0000  0.0000  0.0000
    1GR    C439  439   3.191   2.824   1.900  0.0000  0.0000  0.0000
    1GR    C440  440   3.332   2.824   1.900  0.0000  0.0000  0.0000
    1GR    C441  441   2.978   2.947   1.900  0.0000  0.0000  0.0000
    1GR    C442  442   3.120   2.947   1.900  0.0000  0.0000  0.0000
    1GR    C443  443   3.191   3.070   1.900  0.0000  0.0000  0.0000
    1GR    C444  444   3.332   3.070   1.900  0.0000  0.0000  0.0000
    1GR    C445  445   2.978   3.193   1.900  0.0000  0.0000  0.0000
    1GR    C446  446   3.120   3.193   1.900  0.0000  0.0000  0.0000
    1GR    C447  447   3.191   3.316   1.900  0.0000  0.0000  0.0000
    1GR    C448  448   3.332   3.316   1.900  0.0000  0.0000  0.0000
    2PMMA   CX1  449   2.387   2.870   2.241  0.5290  0.3105 -0.2221
    2PMMA   CA2  450   2.433   2.932   2.373  0.1751  0.5243 -0.1233
    2PMMA   CX3  451   2.426   3.081   2.351  0.0387  0.0838 -0.2465
    2PMMA    C4  452   2.349   2.881   2.487 -0.3485  0.4846 -0.2955
    2PMMA    O5  453   2.346   2.761   2.507 -0.3981 -0.0891  0.4639
    2PMMA   OS6  454   2.290   2.968   2.570 -0.2322  0.2515  0.0283
    2PMMA   CE7  455   2.228   2.936   2.690 -0.0173  0.4728  0.3298
    2PMMA   CX8  456   2.583   2.876   2.394  0.2351  0.0362 -0.1502
    2PMMA   CA9  457   2.674   2.922   2.516  0.3890  0.6423  0.1282
    2PMMA  CX10  458   2.597   2.909   2.648  0.2202 -0.2056 -0.4021
    2PMMA   C11  459   2.717   3.074   2.499  0.5650  0.2342  0.2664
    2PMMA   O12  460   2.701   3.162   2.582 -0.2192  0.0160  0.1095
    2PMMA  OS13  461   2.759   3.101   2.373  0.3192  0.1947  0.3171
    2PMMA  CE14  462   2.796   3.231   2.326 -0.6396  0.1993 -0.5403
    2PMMA  CX15  463   2.817   2.850   2.506 -0.0928  0.0270  0.0254
    2PMMA  CA16  464   2.915   2.821   2.628  0.0494 -0.0638 -0.0737
    2PMMA  CX17  465   2.958   2.952   2.685 -0.1356  0.4221 -0.9696
    2PMMA   C18  466   2.831   2.745   2.735 -0.7825 -0.2174  0.6798
    2PMMA   O19  467   2.802   2.782   2.846 -0.6165  0.1231 -0.0578
    2PMMA  OS20  468   2.766   2.638   2.681 -0.5317  0.2471 -0.2254
    2PMMA  CE21  469   2.679   2.553   2.750 -0.0970 -0.5579  0.0404
    2PMMA  CX22  470   3.032   2.723   2.576  0.2036 -0.0685 -0.5726
    2PMMA  CA23  471   3.154   2.690   2.672 -0.0344  0.7214  0.7457
    2PMMA  CX24  472   3.110   2.622   2.809  0.2189 -0.1606  0.2347
    2PMMA   C25  473   3.245   2.807   2.702  0.3020  0.5513  0.4162
    2PMMA   O26  474   3.300   2.825   2.808 -0.0308  0.0250  0.0396
    2PMMA  OS27  475   3.257   2.900   2.602 -0.6766  0.5696 -0.3121
    2PMMA  CE28  476   3.339   3.009   2.605  0.3783 -1.2836  0.4829
    2PMMA  CX29  477   3.246   2.585   2.606 -0.0579  0.6575 -0.1782
    2PMMA  HC30  478   2.434   2.924   2.159 -0.4088  2.6931  0.7646
    2PMMA  HC31  479   2.412   2.764   2.223  1.1339  0.3153  0.5866
    2PMMA  HC32  480   2.278   2.878   2.230  0.6311  1.8307 -0.1921
    2PMMA  HC33  481   2.323   3.115   2.362  0.1095 -0.2813  1.9236
    2PMMA  HC34  482   2.477   3.118   2.262  0.5429 -0.3599 -0.1451
    2PMMA  HC35  483   2.476   3.124   2.438  0.6960 -0.1392 -0.5123
    2PMMA  H136  484   2.181   3.019   2.743 -1.6969 -1.3586  1.8183
    2PMMA  H137  485   2.306   2.899   2.758  0.2303  1.2738  0.4871
    2PMMA  H138  486   2.157   2.854   2.679  0.2973  0.5847 -2.9333
    2PMMA  HC39  487   2.592   2.767   2.388 -0.1069 -0.1148  2.0407
    2PMMA  HC40  488   2.648   2.911   2.312  0.7491  1.3758  0.8180
    2PMMA  HC41  489   2.519   2.986   2.646  1.0068  0.5942 -2.4198
    2PMMA  HC42  490   2.547   2.813   2.664 -0.2025  0.2564  1.1187
    2PMMA  HC43  491   2.646   2.923   2.745 -2.3649  0.8801  0.7891
    2PMMA  H144  492   2.890   3.256   2.377 -1.4036 -0.7805  1.3955
    2PMMA  H145  493   2.713   3.300   2.342 -1.3158 -0.8734  0.6776
    2PMMA  H146  494   2.805   3.232   2.217 -0.1890  2.2656 -0.5080
    2PMMA  HC47  495   2.803   2.747   2.472  0.1785 -0.2173  0.6433
    2PMMA  HC48  496   2.882   2.895   2.430  1.7303 -1.6185  0.5646
    2PMMA  HC49  497   3.006   3.014   2.609 -1.9674  2.5341 -0.4768
    2PMMA  HC50  498   3.023   2.942   2.773  0.2890 -2.2569 -1.5570
    2PMMA  HC51  499   2.877   3.014   2.725 -0.0263  2.1589 -3.3181
    2PMMA  H152  500   2.584   2.556   2.696 -0.2278  0.1417  0.2989
    2PMMA  H153  501   2.667   2.585   2.853 -0.4552  1.4070 -0.5880
    2PMMA  H154  502   2.716   2.450   2.745 -1.0991 -0.8768 -0.9427
    2PMMA  HC55  503   2.986   2.626   2.555  2.0421 -1.2400  0.6399
    2PMMA  HC56  504   3.072   2.752   2.479  0.1817 -2.7340 -1.4224
    2PMMA  HC57  505   3.051   2.691   2.871  0.2475  0.0685  0.0077
    2PMMA  HC58  506   3.042   2.538   2.790  0.3915 -0.5035  1.1383
    2PMMA  HC59  507   3.192   2.591   2.873  0.5259  1.5301  0.6717
    2PMMA  H160  508   3.340   3.079   2.521  0.5505 -0.8782  0.8277
    2PMMA  H161  509   3.442   2.986   2.633  0.6852 -1.9161 -1.1037
    2PMMA  H162  510   3.303   3.073   2.685 -0.8777 -1.8616  0.3972
    2PMMA  HC63  511   3.196   2.490   2.584  0.9332  0.4171 -1.4766
    2PMMA  HC64  512   3.305   2.609   2.516  0.9374 -0.0693  0.2576
    2PMMA  HC65  513   3.316   2.564   2.687 -1.2728 -0.9730  0.4798
    3DMF     C1  514   3.158   2.395   3.577 -0.5949  0.7654 -0.0497
    3DMF     N1  515   3.215   2.512   3.643 -0.1236  0.1732  0.1126
    3DMF     C2  516   3.128   2.585   3.737  0.2588  1.2179 -0.0053
    3DMF     C3  517   3.350   2.541   3.647  0.0976 -0.1035 -0.3615
    3DMF     O1  518   3.428   2.490   3.575  0.7123 -0.4683  0.1734
    3DMF     H1  519   3.066   2.356   3.621  1.3164 -1.7542  1.9020
    3DMF     H2  520   3.237   2.319   3.565 -0.5279  1.2901 -3.3007
    3DMF     H3  521   3.134   2.419   3.473 -0.3661 -0.2579 -0.3420
    3DMF     H4  522   3.152   2.692   3.743 -1.2427  1.5012  1.1510
    3DMF     H5  523   3.140   2.545   3.838  2.3353  0.2227 -0.6210
    3DMF     H6  524   3.026   2.556   3.709  1.3066 -0.8111 -1.8974
    3DMF     H7  525   3.374   2.627   3.713  0.0167 -0.0556 -0.3950
    4DMF     C1  526   0.100   0.503   2.430 -0.5462  0.4010  0.3170
    4DMF     N1  527   0.169   0.393   2.359 -0.0267  0.0450 -0.5425
    4DMF     C2  528   0.309   0.419   2.299 -0.5881  0.0610 -0.0817
    4DMF     C3  529   0.118   0.264   2.362  0.1189 -0.3578  0.3605
    4DMF     O1  530   0.014   0.235   2.421 -0.0278  0.4224 -0.0329
    4DMF     H1  531   0.151   0.518   2.525 -1.8530  6.6185  0.2717
    4DMF     H2  532  -0.008   0.492   2.442 -0.8347  3.0646  0.5182
    4DMF     H3  533   0.124   0.592   2.370  1.9024 -2.2407 -2.8011
    4DMF     H4  534   0.357   0.322   2.279 -0.0894 -0.1761  2.1209
    4DMF     H5  535   0.365   0.472   2.377 -0.0216  0.2586 -0.6179
    4DMF     H6  536   0.309   0.492   2.218 -2.0089 -1.9975 -1.9894
    4DMF     H7  537   0.180   0.187   2.312 -1.2607 -0.0284 -1.9153
    5DMF     C1  538   0.347   1.500   0.125  0.2097  0.1816 -0.1886
    5DMF     N1  539   0.468   1.478   0.036 -0.0047  0.0545 -0.0764
    5DMF     C2  540   0.476   1.356  -0.055  0.1863  0.3065  0.1914
    5DMF     C3  541   0.555   1.584  -0.005  0.4373  0.1361 -0.3627
    5DMF     O1  542   0.565   1.695   0.036 -0.4860 -0.1777 -0.1723
    5DMF     H1  543   0.252   1.496   0.069  0.0590  0.1272  0.0706
    5DMF     H2  544   0.349   1.601   0.169 -1.4195 -0.5970  1.7949
    5DMF     H3  545   0.339   1.431   0.210 -1.4744  0.3438 -0.1907
    5DMF     H4  546   0.576   1.354  -0.100  0.5320  0.5694  0.9476
    5DMF     H5  547   0.397   1.368  -0.131 -1.0290  0.8291  1.5180
    5DMF     H6  548   0.463   1.274   0.016  0.4096  1.5937  1.7481
    5DMF     H7  549   0.624   1.551  -0.085  0.2951 -1.1988  0.0535
    6DMF     C1  550   2.881   2.625   1.218  0.0028 -0.0657 -0.6502
    6DMF     N1  551   2.822   2.509   1.284 -0.2634  0.2248  0.3737
    6DMF     C2  552   2.671   2.513   1.321  0.4037 -0.2922 -0.3151
    6DMF     C3  553   2.889   2.392   1.298 -0.0015  0.4665 -0.3301
    6DMF     O1  554   3.003   2.376   1.252  0.5372 -0.3175  0.2458
    6DMF     H1  555   2.947   2.681   1.285 -0.7831 -0.5020  0.5050
    6DMF     H2  556   2.805   2.695   1.182  0.7649  0.5105 -1.1369
    6DMF     H3  557   2.942   2.595   1.132  2.7221  0.2627  1.0941
    6DMF     H4  558   2.607   2.537   1.236  0.3015  1.7444  0.3163
    6DMF     H5  559   2.659   2.588   1.401  2.8487 -0.0888 -0.0848
    6DMF     H6  560   2.631   2.424   1.372  1.4008  1.1759  3.2358
    6DMF     H7  561   2.829   2.314   1.349  0.5801  0.4716  0.3730
    7DMF     C1  562   1.856   0.796   2.842 -0.0662 -0.4711 -0.6639
    7DMF     N1  563   1.733   0.766   2.774 -0.4981  0.0463  0.3187
    7DMF     C2  564   1.715   0.819   2.633  0.2548 -0.3728 -0.5369
    7DMF     C3  565   1.637   0.683   2.825  0.0955 -0.2316 -0.4919
    7DMF     O1  566   1.644   0.639   2.946  0.0657 -0.5524  1.0475
    7DMF     H1  567   1.944   0.786   2.776  1.4923  1.0229  1.1292
    7DMF     H2  568   1.882   0.711   2.907  0.0897  1.5952  2.0415
    7DMF     H3  569   1.851   0.889   2.899  0.0495 -0.3250 -0.8873
    7DMF     H4  570   1.689   0.925   2.637  0.0913 -0.4857  3.8501
    7DMF     H5  571   1.650   0.749   2.579 -0.3252 -2.5877  2.8459
    7DMF     H6  572   1.813   0.804   2.586  0.5427 -0.6370  0.1314
    7DMF     H7  573   1.546   0.688   2.763 -1.0976  2.0076  1.3501
    8DMF     C1  574   0.599   0.853   1.246 -0.0872  0.4874  0.4121
    8DMF     N1  575   0.644   0.729   1.172 -0.2765  0.7838  0.6937
    8DMF     C2  576   0.784   0.670   1.189 -0.4223  0.4023 -0.2738
    8DMF     C3  577   0.557   0.658   1.090  0.1033  0.4605 -0.2604
    8DMF     O1  578   0.436   0.682   1.075 -0.3479  0.6622 -0.0983
    8DMF     H1  579   0.683   0.897   1.301  0.8562 -0.8013  0.0335
    8DMF     H2  580   0.543   0.818   1.334 -2.4736  2.9987 -0.0500
    8DMF     H3  581   0.548   0.923   1.178 -0.9113 -0.1399  0.3804
    8DMF     H4  582   0.854   0.744   1.149  2.0038 -2.5740 -1.7222
    8DMF     H5  583   0.790   0.570   1.145  1.3288 -0.0029  0.8671
    8DMF     H6  584   0.798   0.657   1.297  0.6615  0.6780 -0.3788
    8DMF     H7  585   0.606   0.575   1.036  0.6405  1.3902 -1.2200
    9DMF     C1  586   1.743   2.941   1.550  0.1849  0.7939  0.2532
    9DMF     N1  587   1.626   2.912   1.470  0.8103 -0.7088  0.0112
    9DMF     C2  588   1.493   2.941   1.527  0.3059 -0.2159 -0.3797
    9DMF     C3  589   1.634   2.846   1.349 -0.4020 -0.0085  0.2286
    9DMF     O1  590   1.744   2.831   1.295  0.0625  0.6154 -0.0181
    9DMF     H1  591   1.712   2.991   1.642 -0.1850  1.3514 -0.1700
    9DMF     H2  592   1.813   2.997   1.487 -0.6598  1.7857  0.1723
    9DMF     H3  593   1.793   2.846   1.568 -1.0201 -0.6473 -3.4346
    9DMF     H4  594   1.487   2.915   1.633 -0.5471  1.4894  0.0089
    9DMF     H5  595   1.416   2.890   1.468  0.0419  0.0593 -0.2743
    9DMF     H6  596   1.474   3.048   1.508  1.1019 -0.0543 -0.2857
    9DMF     H7  597   1.536   2.815   1.310  0.8865 -2.0498 -1.5105
   10DMF     C1  598   3.305   2.131   3.131 -0.2856 -0.2623  0.2796
   10DMF     N1  599   3.265   2.251   3.051  0.1998 -0.3342  0.0751
   10DMF     C2  600   3.123   2.267   3.027  0.1099  0.1401  0.4173
   10DMF     C3  601   3.359   2.342   3.001 -0.1018  1.0353  0.4570
   10DMF     O1  602   3.477   2.318   3.001 -0.0305  0.0449  0.3856
   10DMF     H1  603   3.245   2.115   3.222 -2.7700 -1.5185 -1.5268
   10DMF     H2  604   3.412   2.121   3.152 -0.2707  1.4315  1.1452
   10DMF     H3  605   3.279   2.039   3.078 -1.9728 -1.0984  2.4621
   10DMF     H4  606   3.083   2.365   3.054 -1.4774 -0.7200  1.2516
   10DMF     H5  607   3.065   2.187   3.074  0.0657 -0.1191 -0.0771
   10DMF     H6  608   3.099   2.257   2.921  0.0386 -1.8587  0.6067
   10DMF     H7  609   3.312   2.438   2.975 -2.8208 -0.6272 -1.0775
   11DMF     C1  610   1.763   2.787   0.966 -0.1009  0.4325 -0.5253
   11DMF     N1  611   1.835   2.743   0.846 -0.2659  0.4625  0.1593
   11DMF     C2  612   1.978   2.731   0.859  0.1127  0.5631  0.3269
   11DMF     C3  613   1.770   2.694   0.734 -0.0785  0.3763  0.5548
   11DMF     O1  614   1.648   2.696   0.708 -0.7701 -0.6161 -0.0573
   11DMF     H1  615   1.658   2.756   0.974  0.2576 -1.0054 -1.1227
   11DMF     H2  616   1.788   2.892   0.985 -0.3533  0.4084 -0.0483
   11DMF     H3  617   1.798   2.718   1.044 -0.8490  1.4779  0.7603
   11DMF     H4  618   2.009   2.626   0.862 -0.6339  0.3362  0.1335
   11DMF     H5  619   2.028   2.778   0.945 -0.1771  0.1314  0.7307
   11DMF     H6  620   2.024   2.776   0.769 -0.5188  3.7370  1.5320
   11DMF     H7  621   1.842   2.656   0.659 -0.9431 -0.6440  0.2225
   12DMF     C1  622   0.126   2.800   3.369  0.5837 -0.6126  0.4221
   12DMF     N1  623   0.153   2.700   3.270 -0.7277 -0.3811  0.0377
   12DMF     C2  624   0.037   2.626   3.211 -0.1714  0.3409  0.1614
   12DMF     C3  625   0.287   2.655   3.245  0.4603  0.1103 -0.1339
   12DMF     O1  626   0.391   2.700   3.299 -0.0482  0.2839 -0.1178
   12DMF     H1  627   0.018   2.820   3.374  0.0140 -3.2914 -0.3750
   12DMF     H2  628   0.173   2.894   3.338  2.0411 -1.0958  1.1420
   12DMF     H3  629   0.150   2.768   3.471 -0.6525  0.9681  1.2266
   12DMF     H4  630  -0.005   2.687   3.131 -0.5816  2.7972  2.1935
   12DMF     H5  631  -0.036   2.598   3.289 -1.1810  0.9349 -0.5582
   12DMF     H6  632   0.084   2.535   3.171  0.0925  0.1251  0.9615
   12DMF     H7  633   0.292   2.581   3.164  2.0418  1.4557 -1.3080
   13DMF     C1  634   1.339   2.729   3.740  0.3430  0.0499  0.0778
   13DMF     N1  635   1.212   2.776   3.797  0.0823  0.6900 -0.2468
   13DMF     C2  636   1.111   2.846   3.709 -0.2322 -0.4900  0.2955
   13DMF     C3  637   1.164   2.735   3.922  0.7596  0.7659 -0.1213
   13DMF     O1  638   1.238   2.683   4.011 -0.1511 -0.3142  0.5258
   13DMF     H1  639   1.336   2.718   3.631 -0.7819 -0.4916  0.1544
   13DMF     H2  640   1.359   2.630   3.782 -2.0774 -0.3488  0.3053
   13DMF     H3  641   1.424   2.787   3.778  0.3441  0.5206 -0.6337
   13DMF     H4  642   1.174   2.889   3.630 -1.2067  1.6064  0.6210
   13DMF     H5  643   1.070   2.930   3.766 -1.4806 -1.1899  0.4539
   13DMF     H6  644   1.036   2.774   3.672  0.6103 -1.0153 -0.4213
   13DMF     H7  645   1.056   2.758   3.931  0.2706 -1.3640 -0.2998
   14DMF     C1  646   1.557   2.378   1.420 -0.3897  0.2724  0.8090
   14DMF     N1  647   1.672   2.463   1.438  0.1185 -1.0126 -0.3854
   14DMF     C2  648   1.685   2.532   1.571  0.3524 -1.0383  0.7339
   14DMF     C3  649   1.780   2.467   1.353 -0.5339  0.1181  0.6644
   14DMF     O1  650   1.789   2.394   1.256 -0.1346 -0.1348 -0.5689
   14DMF     H1  651   1.521   2.373   1.316  0.5294 -0.3806  0.5153
   14DMF     H2  652   1.473   2.412   1.481  0.9419  0.1504  2.7534
   14DMF     H3  653   1.585   2.278   1.454  1.2792 -0.2850 -2.0234
   14DMF     H4  654   1.766   2.488   1.630  0.3125 -0.6119  1.1075
   14DMF     H5  655   1.591   2.532   1.628 -1.3967  0.9134 -2.0125
   14DMF     H6  656   1.701   2.639   1.552  0.5619 -1.2854 -0.4899
   14DMF     H7  657   1.854   2.541   1.390 -0.8868  1.2674 -0.8896
   15DMF     C1  658   0.357   0.536   0.018 -0.2736 -0.5177 -0.4509
   15DMF     N1  659   0.483   0.622   0.031  0.5566  0.4773  0.2172
   15DMF     C2  660   0.486   0.747  -0.052 -0.1025  0.4020 -0.5404
   15DMF     C3  661   0.602   0.565   0.085  0.0476 -0.4546  0.1648
   15DMF     O1  662   0.600   0.461   0.153  0.3170 -0.3755 -0.5308
   15DMF     H1  663   0.279   0.583  -0.043 -2.6709 -1.8105  1.4943
   15DMF     H2  664   0.310   0.523   0.117 -1.8072 -0.5672 -1.1770
   15DMF     H3  665   0.386   0.439  -0.025  0.6208 -0.8253  0.8078
   15DMF     H4  666   0.382   0.781  -0.057 -0.4780 -0.5219  0.8818
   15DMF     H5  667   0.519   0.715  -0.152  1.2380 -3.3808  1.0480
   15DMF     H6  668   0.542   0.835  -0.020 -0.2088  0.5797 -0.8345
   15DMF     H7  669   0.695   0.623   0.070 -0.2861  0.3200  1.0786
   16DMF     C1  670   1.144   3.128   1.569  0.7957 -1.0231 -0.3673
   16DMF     N1  671   1.086   3.062   1.449 -0.2470  1.0280  0.6368
   16DMF     C2  672   1.105   2.922   1.436 -0.0327  0.1189  0.1829
   16DMF     C3  673   1.068   3.133   1.330  0.3520 -0.1417 -0.5782
   16DMF     O1  674   1.056   3.256   1.331 -0.1737 -0.1643 -0.2443
   16DMF     H1  675   1.205   3.061   1.630 -1.2215 -0.9655  1.7950
   16DMF     H2  676   1.061   3.157   1.635  1.8500  0.7822  0.1963
   16DMF     H3  677   1.201   3.217   1.541  0.6164 -0.4479  1.0612
   16DMF     H4  678   1.102   2.869   1.532 -0.9299 -1.3315 -0.6268
   16DMF     H5  679   1.202   2.898   1.389 -0.2442  1.4101 -0.9252
   16DMF     H6  680   1.033   2.882   1.364  2.6312  1.6266 -3.4925
   16DMF     H7  681   1.058   3.075   1.236  1.3495 -1.1784 -0.0548
   17DMF     C1  682   0.948   0.779   1.499 -0.3200  0.3006  0.0396
   17DMF     N1  683   0.955   0.904   1.417 -0.4169 -0.1089  0.3238
   17DMF     C2  684   1.016   0.904   1.285 -0.3236  0.4056 -0.6896
   17DMF     C3  685   0.877   1.015   1.459  0.7667  0.5395 -0.7082
   17DMF     O1  686   0.786   1.000   1.536  0.3361 -0.6411  0.3714
   17DMF     H1  687   0.856   0.726   1.472  0.2641 -0.1653 -1.0959
   17DMF     H2  688   0.942   0.797   1.607 -0.5924 -1.4957  0.3412
   17DMF     H3  689   1.027   0.705   1.477  0.2219  0.9400 -0.1732
   17DMF     H4  690   1.058   0.807   1.256 -0.4636  0.6063 -1.5899
   17DMF     H5  691   1.105   0.966   1.298 -0.1052 -0.4339  2.0474
   17DMF     H6  692   0.956   0.954   1.208 -0.0146  1.6250 -0.1404
   17DMF     H7  693   0.903   1.110   1.409  1.6124  3.0966  4.2729
   18DMF     C1  694   0.117   2.524   0.297 -0.0290  0.5048  0.0494
   18DMF     N1  695   0.116   2.670   0.296 -0.0241  0.6743 -0.1564
   18DMF     C2  696   0.241   2.740   0.266  0.7185  0.3748 -0.2853
   18DMF     C3  697  -0.008   2.742   0.305  0.6721 -0.2270 -0.1048
   18DMF     O1  698  -0.113   2.684   0.318  0.4389 -0.0006 -0.1581
   18DMF     H1  699   0.126   2.483   0.398 -0.0919  2.6685  0.9409
   18DMF     H2  700   0.211   2.482   0.258 -0.4648 -1.9370  1.5037
   18DMF     H3  701   0.032   2.475   0.247 -0.8575  0.3732  1.5780
   18DMF     H4  702   0.324   2.671   0.248  0.7420  0.2057  0.4362
   18DMF     H5  703   0.286   2.793   0.352  1.2611 -1.4816  0.6000
   18DMF     H6  704   0.236   2.814   0.185 -0.4575  0.1098 -0.4517
   18DMF     H7  705   0.007   2.848   0.277  2.1664 -0.2002  0.7776
   19DMF     C1  706   1.970   0.279   0.511 -0.1528  0.6309 -0.6074
   19DMF     N1  707   1.866   0.265   0.605 -0.0247 -0.0369 -0.2638
   19DMF     C2  708   1.759   0.374   0.616 -0.3936 -0.5045 -0.0060
   19DMF     C3  709   1.849   0.147   0.679 -0.8811 -0.5748 -0.2324
   19DMF     O1  710   1.936   0.054   0.686  0.4686  0.2996 -0.7033
   19DMF     H1  711   1.960   0.227   0.415 -0.5348  0.9953 -0.7688
   19DMF     H2  712   2.070   0.260   0.550  0.1667  2.2336 -0.6369
   19DMF     H3  713   1.976   0.385   0.485 -1.8315  0.8072 -0.3631
   19DMF     H4  714   1.710   0.377   0.518 -1.3483 -0.2197  0.4772
   19DMF     H5  715   1.809   0.471   0.625 -1.2331 -0.1781  1.3972
   19DMF     H6  716   1.692   0.361   0.702  4.0048 -2.5392  3.3553
   19DMF     H7  717   1.750   0.131   0.726 -0.3822 -1.5555  0.4944
   20DMF     C1  718   3.095   2.764   1.576  0.2653  0.2828 -0.2244
   20DMF     N1  719   3.026   2.637   1.566 -0.0011  0.5329  0.0167
   20DMF     C2  720   3.112   2.511   1.555 -0.1898 -1.1158  0.2423
   20DMF     C3  721   2.883   2.630   1.555  0.0713 -0.6042 -0.7268
   20DMF     O1  722   2.815   2.727   1.567 -0.0667  0.0794 -0.0232
   20DMF     H1  723   3.053   2.824   1.494  1.0168  1.0890 -0.0305
   20DMF     H2  724   3.203   2.754   1.561  0.3956  0.2534  0.6865
   20DMF     H3  725   3.082   2.810   1.675 -0.6091  0.3900 -0.3801
   20DMF     H4  726   3.218   2.523   1.580 -0.2511 -0.3228  0.1205
   20DMF     H5  727   3.104   2.470   1.453  1.5297  0.0141 -0.3678
   20DMF     H6  728   3.059   2.440   1.620  0.1165  0.0784  1.8361
   20DMF     H7  729   2.850   2.524   1.554  0.5588 -0.7734  0.2090
   21DMF     C1  730   2.713   3.203   1.380  0.3504 -0.1852  0.1835
   21DMF     N1  731   2.699   3.065   1.424  0.1624 -0.1967  0.0912
   21DMF     C2  732   2.687   3.043   1.567  0.6471  0.3468 -0.4360
   21DMF     C3  733   2.701   2.948   1.337  0.1282  0.2161  0.3034
   21DMF     O1  734   2.736   2.959   1.220 -0.4492  0.1218  0.0912
   21DMF     H1  735   2.807   3.217   1.325  1.3626 -3.4761  0.9322
   21DMF     H2  736   2.722   3.274   1.463  0.5242 -1.2155  1.0565
   21DMF     H3  737   2.636   3.242   1.313  0.4926 -0.6829 -0.2764
   21DMF     H4  738   2.665   2.937   1.586  3.6288 -0.6706 -2.2772
   21DMF     H5  739   2.615   3.110   1.616  0.6681  1.1648 -1.5213
   21DMF     H6  740   2.783   3.057   1.619  1.2159 -0.8734 -1.1403
   21DMF     H7  741   2.655   2.856   1.376 -2.0252  0.6078 -1.1842
   22DMF     C1  742   0.510   3.186   3.389 -0.0280 -0.0635  0.0651
   22DMF     N1  743   0.534   3.061   3.317  0.0787 -0.5831  0.1212
   22DMF     C2  744   0.652   2.979   3.354  0.5144 -0.3225 -0.0460
   22DMF     C3  745   0.450   3.015   3.216  0.6609  0.2795 -0.1556
   22DMF     O1  746   0.340   3.065   3.190  0.4317 -0.1993  0.2220
   22DMF     H1  747   0.490   3.269   3.321 -0.7727  0.5867  1.0639
   22DMF     H2  748   0.586   3.205   3.466  0.3821  0.5468 -0.4855
   22DMF     H3  749   0.418   3.164   3.444 -1.1864  0.7716 -1.5178
   22DMF     H4  750   0.665   3.013   3.458  0.7122 -0.3361 -0.0654
   22DMF     H5  751   0.744   3.021   3.311 -0.4994  0.3294 -1.5963
   22DMF     H6  752   0.630   2.873   3.336 -1.7189 -0.3346  2.4549
   22DMF     H7  753   0.498   2.932   3.162  0.2001  0.5418 -0.9806
   23DMF     C1  754   0.927   2.741   3.300  0.0768 -0.4225  0.6751
   23DMF     N1  755   0.811   2.643   3.319 -0.1985  0.3115  0.4686
   23DMF     C2  756   0.717   2.616   3.206 -0.7928  0.6704 -0.0330
   23DMF     C3  757   0.792   2.588   3.446 -0.3088  0.1601  0.0048
   23DMF     O1  758   0.860   2.619   3.546  0.6582  0.2522  0.1969
   23DMF     H1  759   0.893   2.810   3.221 -0.2354 -0.4528  0.7871
   23DMF     H2  760   1.014   2.683   3.266  0.9266  0.1279  1.9124
   23DMF     H3  761   0.951   2.806   3.384  0.3159 -1.8335  1.7096
   23DMF     H4  762   0.753   2.534   3.143  2.3729  2.6690 -0.9218
   23DMF     H5  763   0.704   2.701   3.138  0.1904 -1.1968 -2.6500
   23DMF     H6  764   0.619   2.579   3.239  0.6756 -2.8476  0.6838
   23DMF     H7  765   0.706   2.520   3.456  0.1904 -0.4748 -0.0196
   24DMF     C1  766   2.062   2.625   3.139  0.4017  0.9551  0.4361
   24DMF     N1  767   2.098   2.480   3.145  0.3326 -0.0586 -0.1946
   24DMF     C2  768   2.243   2.442   3.160 -0.5588 -0.6080  0.2856
   24DMF     C3  769   2.004   2.381   3.162 -0.8145 -0.0187  0.3624
   24DMF     O1  770   1.886   2.398   3.153  0.3141  0.0417 -0.1948
   24DMF     H1  771   2.147   2.691   3.117  0.1603  0.8940 -0.6866
   24DMF     H2  772   2.014   2.645   3.236  0.0968 -0.4283  0.5825
   24DMF     H3  773   1.983   2.655   3.069  0.8480 -0.3658 -0.6479
   24DMF     H4  774   2.310   2.529   3.159  0.3795 -1.2985  1.6845
   24DMF     H5  775   2.270   2.365   3.087 -1.5530 -0.8829  0.2044
   24DMF     H6  776   2.260   2.385   3.252  0.3934  0.4440  0.7693
   24DMF     H7  777   2.056   2.285   3.179  1.9649  1.9779  4.0058
   25DMF     C1  778   1.236   1.660   3.157  0.1183 -0.2764 -0.6325
   25DMF     N1  779   1.196   1.536   3.223  0.1827  0.3317 -0.6732
   25DMF     C2  780   1.222   1.509   3.370  0.4974  0.1643  0.2338
   25DMF     C3  781   1.129   1.434   3.150 -0.1984  0.3830 -0.2855
   25DMF     O1  782   1.119   1.422   3.023  0.4132 -0.0632 -0.6850
   25DMF     H1  783   1.345   1.662   3.144  0.0999  0.8119 -0.6683
   25DMF     H2  784   1.206   1.748   3.216  2.4860  1.2237 -1.5847
   25DMF     H3  785   1.192   1.654   3.057  1.2547 -0.9258 -1.0908
   25DMF     H4  786   1.321   1.462   3.378 -0.9905 -3.1750 -0.0399
   25DMF     H5  787   1.142   1.449   3.415 -0.1061 -0.7017 -1.8850
   25DMF     H6  788   1.239   1.605   3.420  0.0825  0.3495  0.0176
   25DMF     H7  789   1.089   1.354   3.215  0.2713 -0.8034 -1.4255
   26DMF     C1  790   2.420   0.751   1.438  0.7638  0.0200 -0.1005
   26DMF     N1  791   2.421   0.880   1.503 -0.1157  0.1553 -0.2003
   26DMF     C2  792   2.540   0.938   1.551 -0.3416 -0.1149 -0.2143
   26DMF     C3  793   2.300   0.934   1.545  0.1940  0.5631  0.4322
   26DMF     O1  794   2.186   0.888   1.528 -0.5654  0.1898 -0.4582
   26DMF     H1  795   2.380   0.681   1.513 -1.7627  1.3641 -0.1406
   26DMF     H2  796   2.518   0.725   1.398 -1.1729 -2.3525 -3.5806
   26DMF     H3  797   2.362   0.752   1.345 -0.2210 -0.5137  0.4974
   26DMF     H4  798   2.615   0.954   1.473  1.1346 -1.8009  0.8071
   26DMF     H5  799   2.585   0.871   1.626  0.5347  1.8966  1.0993
   26DMF     H6  800   2.525   1.034   1.602 -0.6627  0.6662 -1.7689
   26DMF     H7  801   2.318   1.019   1.613 -1.5213 -0.0762  1.7266
   27DMF     C1  802   2.633   0.735   2.266 -0.3062  0.0418 -0.2724
   27DMF     N1  803   2.742   0.680   2.358 -0.1683 -0.0692  0.3398
   27DMF     C2  804   2.822   0.776   2.431  0.2457  0.3913  0.7340
   27DMF     C3  805   2.740   0.546   2.395  0.6903  0.9771  0.1671
   27DMF     O1  806   2.670   0.466   2.332 -0.5922 -0.4622  0.6723
   27DMF     H1  807   2.662   0.820   2.202  0.2167  1.5805  1.9612
   27DMF     H2  808   2.560   0.775   2.338  0.0401 -0.2831  0.2637
   27DMF     H3  809   2.583   0.653   2.212  1.1301 -0.5166 -0.7846
   27DMF     H4  810   2.789   0.877   2.404  0.4563  0.3446  0.2989
   27DMF     H5  811   2.927   0.756   2.407  0.6553  2.0602  1.1035
   27DMF     H6  812   2.807   0.752   2.537  4.5696 -0.4672  1.2535
   27DMF     H7  813   2.807   0.512   2.476  0.6344 -2.3201 -1.0825
   28DMF     C1  814   2.377   3.309   1.448  0.0475 -0.3754  0.0790
   28DMF     N1  815   2.252   3.323   1.528 -0.6593  0.3602 -0.4455
   28DMF     C2  816   2.173   3.195   1.551 -0.4555 -0.0066 -0.1529
   28DMF     C3  817   2.196   3.441   1.577  0.5481  0.1036  0.2157
   28DMF     O1  818   2.244   3.553   1.565 -0.4128 -0.0222  0.2352
   28DMF     H1  819   2.384   3.387   1.372  0.5365 -0.8214 -0.3371
   28DMF     H2  820   2.368   3.217   1.390 -1.5535  0.6157 -1.2775
   28DMF     H3  821   2.469   3.310   1.509 -0.5539 -2.2224  1.0393
   28DMF     H4  822   2.245   3.130   1.602 -0.7225  0.0954  0.3660
   28DMF     H5  823   2.134   3.150   1.458 -1.0020 -0.4336  0.2740
   28DMF     H6  824   2.089   3.219   1.617  0.1130 -1.3972  1.1083
   28DMF     H7  825   2.111   3.416   1.641 -0.4191  0.1328 -1.0362
   29DMF     C1  826   1.264   2.215   1.067 -0.0905  0.1783  0.6247
   29DMF     N1  827   1.322   2.074   1.058  0.3147  0.5876 -0.2637
   29DMF     C2  828   1.466   2.065   1.031 -0.5789  0.0208  0.1040
   29DMF     C3  829   1.245   1.966   1.078 -0.2565 -0.3490  0.1383
   29DMF     O1  830   1.125   1.968   1.084  0.0611  0.0850 -0.0340
   29DMF     H1  831   1.225   2.242   1.166  0.9166 -0.0921  1.1009
   29DMF     H2  832   1.179   2.222   0.998  1.8866 -1.6703 -2.1164
   29DMF     H3  833   1.335   2.287   1.026  0.7460 -1.5474 -0.9868
   29DMF     H4  834   1.482   2.082   0.923  2.1273  1.6818  0.7089
   29DMF     H5  835   1.519   1.974   1.062 -0.1639  0.2702  0.1375
   29DMF     H6  836   1.533   2.145   1.065 -0.4172 -0.0638 -0.0133
   29DMF     H7  837   1.296   1.868   1.085  0.8519  0.0656 -1.8985
   30DMF     C1  838   1.227   2.336   3.315 -0.5231  0.3640 -0.5599
   30DMF     N1  839   1.153   2.364   3.434 -0.0355  0.2014  0.0043
   30DMF     C2  840   1.088   2.261   3.510 -0.2168  0.5169 -0.6953
   30DMF     C3  841   1.158   2.497   3.489  0.0725 -0.7903  0.2134
   30DMF     O1  842   1.212   2.591   3.427 -0.7368  0.1868 -0.6445
   30DMF     H1  843   1.194   2.248   3.259 -0.4959 -0.0741  0.1070
   30DMF     H2  844   1.334   2.322   3.336 -0.3617 -0.1344 -1.6569
   30DMF     H3  845   1.208   2.423   3.251 -0.0962  1.0360  0.2089
   30DMF     H4  846   1.125   2.159   3.493  0.4742  0.5171  0.6755
   30DMF     H5  847   0.990   2.247   3.463  0.0775  0.6029 -1.3291
   30DMF     H6  848   1.063   2.284   3.615 -1.0504 -0.2930 -0.7012
   30DMF     H7  849   1.097   2.507   3.581 -2.0919 -1.3264 -1.1254
   31DMF     C1  850   2.531   1.764   3.179 -0.7934 -0.2654 -0.4459
   31DMF     N1  851   2.646   1.716   3.253 -0.9256  0.0678  0.2063
   31DMF     C2  852   2.677   1.767   3.386  0.1819 -0.2153 -0.6660
   31DMF     C3  853   2.727   1.624   3.193 -0.4489 -0.0893  0.2489
   31DMF     O1  854   2.698   1.559   3.094 -0.3961 -0.4908  0.1149
   31DMF     H1  855   2.508   1.869   3.203 -0.5811 -0.1644 -0.6863
   31DMF     H2  856   2.445   1.707   3.216 -0.3524 -0.2162  0.6492
   31DMF     H3  857   2.549   1.758   3.071  0.3058  0.9935 -0.3473
   31DMF     H4  858   2.720   1.868   3.394  0.0714 -0.3103  1.7779
   31DMF     H5  859   2.752   1.708   3.441 -0.5270 -1.0591 -0.5990
   31DMF     H6  860   2.581   1.782   3.437 -0.3038 -3.1982 -0.6262
   31DMF     H7  861   2.822   1.604   3.248 -0.1439  0.7953  0.0477
   32DMF     C1  862   3.208   1.191   0.034  0.1300 -0.4957  0.0185
   32DMF     N1  863   3.190   1.332   0.072 -0.0293  0.3931 -0.1449
   32DMF     C2  864   3.075   1.412   0.025  0.6598 -0.3140  0.0572
   32DMF     C3  865   3.283   1.380   0.161  0.2488 -0.2075  0.5389
   32DMF     O1  866   3.389   1.324   0.193  0.0950 -0.4352  0.0228
   32DMF     H1  867   3.128   1.144  -0.024 -1.1673  0.8371  0.6950
   32DMF     H2  868   3.233   1.134   0.125 -1.3186 -2.8120 -0.9912
   32DMF     H3  869   3.305   1.190  -0.017  1.5752  1.8871  2.5730
   32DMF     H4  870   3.016   1.455   0.107  1.0535 -0.7615  0.5753
   32DMF     H5  871   3.005   1.364  -0.044 -1.0625  0.1086  1.4802
   32DMF     H6  872   3.108   1.495  -0.038 -1.2067  0.9992  0.7618
   32DMF     H7  873   3.248   1.478   0.199  1.0345  0.7933 -1.2659
   33DMF     C1  874   2.650   3.179   2.964  0.6875 -0.3379  0.8297
   33DMF     N1  875   2.512   3.189   2.997  0.8310 -0.0882  0.1400
   33DMF     C2  876   2.414   3.131   2.901  0.2542 -0.0644  0.0425
   33DMF     C3  877   2.461   3.263   3.108 -0.1405 -0.9849  0.0649
   33DMF     O1  878   2.529   3.313   3.193  0.4645  0.1456 -0.6621
   33DMF     H1  879   2.665   3.263   2.894 -0.9907  0.2118  1.1077
   33DMF     H2  880   2.666   3.082   2.916  1.8624  2.0462 -3.9273
   33DMF     H3  881   2.710   3.195   3.054  1.2353 -0.7424  0.5404
   33DMF     H4  882   2.327   3.078   2.942 -1.0366  2.4329  0.6554
   33DMF     H5  883   2.462   3.060   2.832 -1.2945 -0.7834 -0.3400
   33DMF     H6  884   2.373   3.206   2.832 -1.1237 -0.9631 -0.1301
   33DMF     H7  885   2.351   3.265   3.115 -0.1576 -0.3070 -0.3658
   34DMF     C1  886   1.848   1.772   2.275 -0.5230  0.1835  0.0010
   34DMF     N1  887   1.704   1.756   2.279  0.8080 -0.1772 -0.4761
   34DMF     C2  888   1.650   1.624   2.255  0.1314  0.4658 -0.2309
   34DMF     C3  889   1.620   1.859   2.314 -0.3972 -0.2625  0.0840
   34DMF     O1  890   1.665   1.971   2.319 -0.5132 -0.6559 -0.2786
   34DMF     H1  891   1.881   1.723   2.368  2.3654  0.9036 -0.6026
   34DMF     H2  892   1.866   1.879   2.290 -2.0891  0.5425 -0.5181
   34DMF     H3  893   1.895   1.713   2.196  2.2838  1.2294  0.8225
   34DMF     H4  894   1.560   1.637   2.194 -0.2751 -0.3886  0.1823
   34DMF     H5  895   1.611   1.563   2.337 -1.3780 -0.5206 -1.6374
   34DMF     H6  896   1.716   1.564   2.191  3.4711  3.9166 -0.1619
   34DMF     H7  897   1.515   1.830   2.335  0.1722 -0.7126  2.4126
   35DMF     C1  898   1.123   0.615   0.921  0.6738  0.0807  0.2735
   35DMF     N1  899   1.240   0.605   0.830 -0.0671 -0.5947  0.0754
   35DMF     C2  900   1.367   0.551   0.883 -0.6545  0.1174 -0.1525
   35DMF     C3  901   1.241   0.673   0.714 -0.3944 -0.3033 -0.2581
   35DMF     O1  902   1.148   0.742   0.678  0.1683  1.1072  0.6031
   35DMF     H1  903   1.034   0.657   0.872  1.2367  0.0786 -0.7519
   35DMF     H2  904   1.141   0.677   1.010 -0.4754 -0.1609  0.6892
   35DMF     H3  905   1.082   0.516   0.943 -1.4521  0.6650 -0.8711
   35DMF     H4  906   1.388   0.467   0.815  1.0945 -1.6955  2.4963
   35DMF     H5  907   1.346   0.512   0.984  4.5407  1.2067  1.4941
   35DMF     H6  908   1.454   0.617   0.892 -0.9654  0.5872 -0.5779
   35DMF     H7  909   1.337   0.674   0.659 -0.6176  1.0342 -0.6278
   36DMF     C1  910   2.561   0.097   1.215 -0.1921  0.4038 -0.2555
   36DMF     N1  911   2.685   0.138   1.157  0.7263  0.4836  0.7007
   36DMF     C2  912   2.816   0.127   1.228 -0.5437  0.3865  0.2673
   36DMF     C3  913   2.689   0.183   1.022  0.0485  1.3962 -0.2125
   36DMF     O1  914   2.584   0.201   0.963  0.0281  0.4748 -0.3701
   36DMF     H1  915   2.468   0.128   1.168 -1.4539 -0.1905  1.7958
   36DMF     H2  916   2.550   0.142   1.314 -0.8501 -0.1988 -0.0552
   36DMF     H3  917   2.558  -0.010   1.237  1.5136  0.6680  1.4255
   36DMF     H4  918   2.876   0.216   1.203  0.1511 -0.3891 -0.8800
   36DMF     H5  919   2.861   0.035   1.189  1.2901  1.6589 -0.7152
   36DMF     H6  920   2.797   0.123   1.336  1.4631  1.1009  0.6763
   36DMF     H7  921   2.794   0.186   0.986  0.6111  1.5090  1.3604
   37DMF     C1  922   0.031   0.979   0.929 -0.0323  0.7754  0.2173
   37DMF     N1  923   0.137   0.918   0.849  0.4121 -0.3050  0.0684
   37DMF     C2  924   0.260   0.879   0.919  0.0176 -0.4599 -0.3887
   37DMF     C3  925   0.116   0.873   0.720  0.7943  0.1082 -0.3943
   37DMF     O1  926   0.003   0.871   0.662  0.5213  0.1622 -0.1559
   37DMF     H1  927   0.039   0.949   1.035  1.2958  0.7013  0.1104
   37DMF     H2  928  -0.066   0.944   0.892  0.4570 -0.9876  0.5295
   37DMF     H3  929   0.036   1.088   0.918  0.1821  0.7951  0.5104
   37DMF     H4  930   0.283   0.773   0.902  0.5904 -0.2958 -0.6427
   37DMF     H5  931   0.244   0.894   1.027 -0.6751  1.7064 -0.7651
   37DMF     H6  932   0.341   0.947   0.890  0.3000 -0.8116 -0.4295
   37DMF     H7  933   0.210   0.835   0.676 -0.3300 -1.1410 -1.7797
   38DMF     C1  934   0.089   0.536   0.853 -0.0185  1.2432  0.0359
   38DMF     N1  935   0.185   0.435   0.797  0.0236 -0.1616 -0.3986
   38DMF     C2  936   0.330   0.466   0.811 -0.1651  0.1529  0.0838
   38DMF     C3  937   0.143   0.321   0.740 -0.3535  0.0821 -1.1954
   38DMF     O1  938   0.025   0.285   0.737 -0.2114  0.5395 -0.2667
   38DMF     H1  939   0.150   0.588   0.928 -1.7129  1.5569  1.2229
   38DMF     H2  940   0.003   0.480   0.892  0.8198 -0.6712 -0.7967
   38DMF     H3  941   0.060   0.605   0.773 -0.6493  1.7903  0.7292
   38DMF     H4  942   0.357   0.496   0.914  0.0345  1.0651 -0.2280
   38DMF     H5  943   0.363   0.536   0.734 -0.8485  0.7428  0.3256
   38DMF     H6  944   0.385   0.371   0.807 -1.1997 -0.3723 -2.6651
   38DMF     H7  945   0.228   0.265   0.696 -1.0916 -1.7545 -0.3437
   39DMF     C1  946   1.287   1.416   0.410  0.0186 -0.1415  0.6669
   39DMF     N1  947   1.342   1.535   0.344  1.0599  0.1820  0.0064
   39DMF     C2  948   1.437   1.611   0.430  0.3291 -0.6140 -0.3635
   39DMF     C3  949   1.285   1.581   0.226  0.3471  0.0562  0.6956
   39DMF     O1  950   1.221   1.510   0.155 -0.1392  0.1593  0.0729
   39DMF     H1  951   1.180   1.410   0.389  0.4705  1.0612 -2.1423
   39DMF     H2  952   1.309   1.412   0.518 -2.3116 -0.1570  1.1631
   39DMF     H3  953   1.335   1.327   0.367  0.1918  0.0763  0.4097
   39DMF     H4  954   1.475   1.690   0.364 -1.4194  0.6581  0.1045
   39DMF     H5  955   1.515   1.537   0.452 -1.3071 -2.1518  0.4467
   39DMF     H6  956   1.402   1.662   0.521  0.8446 -0.3289 -0.3203
   39DMF     H7  957   1.312   1.682   0.189 -1.9481  0.3051 -0.4465
   40DMF     C1  958   1.750   1.601   0.337  0.1211  0.2743  0.0253
   40DMF     N1  959   1.878   1.581   0.264  0.5470  0.7827  0.9359
   40DMF     C2  960   2.000   1.616   0.342  0.5855  0.4440 -0.4707
   40DMF     C3  961   1.883   1.563   0.126 -0.4529  0.3981  0.5580
   40DMF     O1  962   1.783   1.528   0.059  0.6138 -0.0463  0.1615
   40DMF     H1  963   1.746   1.706   0.370 -0.0286  0.3207 -0.1383
   40DMF     H2  964   1.744   1.527   0.417  1.2983 -0.3815 -0.4777
   40DMF     H3  965   1.665   1.579   0.273  1.6082 -0.6163 -1.6835
   40DMF     H4  966   2.071   1.536   0.319 -1.1039 -2.1327  2.8374
   40DMF     H5  967   1.964   1.621   0.446 -2.1801 -1.1334 -1.3037
   40DMF     H6  968   2.038   1.714   0.310  1.6644  0.2357  0.1665
   40DMF     H7  969   1.983   1.563   0.079 -0.4754  1.0798  0.5015
   41DMF     C1  970   0.690   0.758   0.502  0.1563  0.1116 -0.5701
   41DMF     N1  971   0.705   0.735   0.650 -0.4051  0.6868 -0.0101
   41DMF     C2  972   0.831   0.717   0.711  0.7440 -0.3128  0.5302
   41DMF     C3  973   0.592   0.706   0.730 -0.5127 -0.2516 -0.0821
   41DMF     O1  974   0.479   0.724   0.686  0.6943 -0.0692 -0.1783
   41DMF     H1  975   0.736   0.854   0.477 -1.1453  0.8431 -0.2258
   41DMF     H2  976   0.585   0.771   0.474  0.2175 -0.2073 -0.9483
   41DMF     H3  977   0.734   0.682   0.436  1.1176  0.2668 -0.1054
   41DMF     H4  978   0.909   0.778   0.664 -1.1707  2.1915  0.5163
   41DMF     H5  979   0.871   0.615   0.706  0.5367 -0.3856  0.2870
   41DMF     H6  980   0.823   0.730   0.819 -2.6849 -3.0222  0.6863
   41DMF     H7  981   0.617   0.663   0.829  0.9022  0.1129 -0.2750
   42DMF     C1  982   0.198   3.431   0.593  0.8419  0.7509 -0.1385
   42DMF     N1  983   0.336   3.477   0.617  0.5788  0.1515  0.1896
   42DMF     C2  984   0.382   3.482   0.754  0.4799 -0.3722 -0.3765
   42DMF     C3  985   0.419   3.523   0.513 -0.6128  0.3191  0.1663
   42DMF     O1  986   0.367   3.534   0.394  0.2024  0.5648  0.4795
   42DMF     H1  987   0.122   3.509   0.608  0.7323  0.2918  1.7521
   42DMF     H2  988   0.192   3.349   0.665  0.7169 -1.1211 -2.2391
   42DMF     H3  989   0.179   3.394   0.491 -2.7524 -0.4827  0.9005
   42DMF     H4  990   0.417   3.383   0.784  0.9172  0.2573  1.2698
   42DMF     H5  991   0.301   3.506   0.825 -0.1900 -0.3603 -1.1347
   42DMF     H6  992   0.465   3.552   0.765 -0.1875  0.2047  1.0897
   42DMF     H7  993   0.524   3.551   0.535  0.4735 -1.0571 -2.8736
   43DMF     C1  994   0.373   0.097   3.631  0.2764 -0.1264 -0.1304
   43DMF     N1  995   0.441   0.066   3.761 -0.5668  0.1358  0.1312
   43DMF     C2  996   0.454   0.178   3.862  0.0675 -0.4160  0.2136
   43DMF     C3  997   0.502  -0.054   3.788 -0.2050  0.4454 -0.2202
   43DMF     O1  998   0.496  -0.148   3.707 -0.0843 -0.7489 -0.2362
   43DMF     H1  999   0.268   0.119   3.652  0.1255 -0.1627 -0.8453
   43DMF     H2 1000   0.371   0.010   3.565 -0.1243  0.2797 -0.6591
   43DMF     H3 1001   0.435   0.176   3.587 -1.4667  2.8438  2.5521
   43DMF     H4 1002   0.505   0.135   3.950 -2.0533 -0.3305  1.5061
   43DMF     H5 1003   0.352   0.197   3.895 -0.9771 -1.2253 -2.4550
   43DMF     H6 1004   0.495   0.269   3.818 -0.0136 -0.6175 -0.2759
   43DMF     H7 1005   0.565  -0.055   3.879  0.9396  3.6531 -0.9101
   44DMF     C1 1006   3.303   0.498   1.576  0.4361 -0.0983 -0.1438
   44DMF     N1 1007   3.306   0.353   1.536 -0.0438  0.3513  0.1125
   44DMF     C2 1008   3.178   0.279   1.522 -0.1532  0.4553  0.0197
   44DMF     C3 1009   3.427   0.280   1.534 -0.3328  0.2050  0.0817
   44DMF     O1 1010   3.533   0.327   1.569 -0.1723 -0.0747 -0.6431
   44DMF     H1 1011   3.401   0.548   1.575 -0.3852  1.5701  0.2395
   44DMF     H2 1012   3.244   0.512   1.667 -2.1483 -3.4643 -1.2148
   44DMF     H3 1013   3.257   0.557   1.496 -0.0419  1.5138  1.2765
   44DMF     H4 1014   3.189   0.215   1.434 -0.6545  0.8880 -0.3568
   44DMF     H5 1015   3.093   0.344   1.499 -0.7759  0.1235  1.3490
   44DMF     H6 1016   3.161   0.208   1.604 -0.1435  1.9629  1.3534
   44DMF     H7 1017   3.416   0.174   1.507 -0.7415 -0.1528  1.6301
   45DMF     C1 1018   3.387   2.094   2.787  0.3556 -0.1054 -0.0733
   45DMF     N1 1019   3.381   2.067   2.638  0.3017 -0.3422 -0.1958
   45DMF     C2 1020   3.389   2.185   2.550 -0.0049 -0.3943  0.0748
   45DMF     C3 1021   3.382   1.940   2.588  0.3756 -0.1514 -0.7956
   45DMF     O1 1022   3.407   1.839   2.653 -0.4843 -0.1450  0.3194
   45DMF     H1 1023   3.485   2.119   2.830  1.0716 -2.3064 -0.3971
   45DMF     H2 1024   3.359   2.000   2.836 -0.8474  0.2477 -0.0528
   45DMF     H3 1025   3.308   2.166   2.814 -0.7537 -1.6817  0.9479
   45DMF     H4 1026   3.411   2.282   2.598  2.8682  0.4184 -2.7005
   45DMF     H5 1027   3.299   2.194   2.488  0.1203 -2.2026 -0.3887
   45DMF     H6 1028   3.480   2.169   2.491  0.4763  3.0971 -0.2571
   45DMF     H7 1029   3.346   1.930   2.484 -1.5021 -1.9316 -0.0207
   46DMF     C1 1030   1.409   2.604   1.018  0.0539 -0.3366  0.1380
   46DMF     N1 1031   1.269   2.658   1.036  0.2795 -0.1456 -0.7849
   46DMF     C2 1032   1.246   2.771   1.132  0.0193  0.0817 -0.3929
   46DMF     C3 1033   1.167   2.582   0.987 -0.8806  0.6090 -1.0662
   46DMF     O1 1034   1.193   2.481   0.922 -0.5439  0.0609  0.6927
   46DMF     H1 1035   1.404   2.498   1.045 -0.6310 -0.6409 -1.1590
   46DMF     H2 1036   1.480   2.654   1.085 -1.1988  2.6932 -0.7189
   46DMF     H3 1037   1.433   2.627   0.914 -1.6166  2.2138  0.2573
   46DMF     H4 1038   1.302   2.757   1.225  1.2920  3.5317 -0.5634
   46DMF     H5 1039   1.138   2.781   1.153 -0.0884 -2.7316  0.5941
   46DMF     H6 1040   1.285   2.861   1.084  0.5954  0.2663  0.4016
   46DMF     H7 1041   1.069   2.630   1.009 -0.5113  1.5697 -1.5073
   47DMF     C1 1042   3.116   1.469   3.450  0.2405  0.0382  0.6805
   47DMF     N1 1043   2.980   1.412   3.456 -0.6480 -0.1212  0.7994
   47DMF     C2 1044   2.946   1.310   3.356 -0.2325 -0.4965  0.3049
   47DMF     C3 1045   2.884   1.467   3.543 -0.0352  0.3164 -0.4660
   47DMF     O1 1046   2.913   1.554   3.618  0.6560  0.2637 -0.3398
   47DMF     H1 1047   3.095   1.575   3.431  1.1548 -0.1786 -1.7185
   47DMF     H2 1048   3.165   1.417   3.367  0.7549  1.3078  0.1745
   47DMF     H3 1049   3.170   1.449   3.543  3.0144  1.5849 -0.5165
   47DMF     H4 1050   2.940   1.367   3.263  1.0765 -2.1906 -0.8578
   47DMF     H5 1051   2.856   1.258   3.393 -1.7624  0.1866 -2.2846
   47DMF     H6 1052   3.025   1.235   3.342  1.0727  0.9634 -0.2045
   47DMF     H7 1053   2.781   1.426   3.538  0.2770 -0.2394 -2.7462
   48DMF     C1 1054   2.824   0.282   1.572  0.2620 -0.0776  0.8940
   48DMF     N1 1055   2.678   0.247   1.574  0.1675  0.0267  0.1375
   48DMF     C2 1056   2.577   0.346   1.541  0.5105  0.4046 -0.2798
   48DMF     C3 1057   2.630   0.118   1.585  0.2715  0.8663  0.1690
   48DMF     O1 1058   2.701   0.022   1.594 -0.0847  0.2522  0.5159
   48DMF     H1 1059   2.839   0.386   1.603 -2.9088  0.8049 -0.3552
   48DMF     H2 1060   2.863   0.283   1.470  1.5404 -0.1813  1.3841
   48DMF     H3 1061   2.881   0.212   1.634 -0.4061 -1.7181 -0.3289
   48DMF     H4 1062   2.601   0.394   1.445 -1.4989  1.6300 -0.2095
   48DMF     H5 1063   2.582   0.424   1.619 -3.4561 -1.3298  1.9198
   48DMF     H6 1064   2.474   0.308   1.545  1.1516 -1.1431  2.7191
   48DMF     H7 1065   2.520   0.116   1.588  0.2815 -1.8968 -0.2673
   49DMF     C1 1066   1.444   1.526   2.820 -0.6835 -0.3683 -0.5537
   49DMF     N1 1067   1.457   1.419   2.716 -0.6732  0.0802 -0.0665
   49DMF     C2 1068   1.360   1.306   2.711  0.1027  0.2593  0.5971
   49DMF     C3 1069   1.570   1.416   2.630  0.8552 -0.2897  0.0739
   49DMF     O1 1070   1.664   1.493   2.628 -0.0081  0.4678 -0.3897
   49DMF     H1 1071   1.533   1.510   2.882 -0.1919 -0.5504 -1.2958
   49DMF     H2 1072   1.354   1.502   2.878 -0.4978 -0.9892 -0.5147
   49DMF     H3 1073   1.423   1.619   2.766 -0.9794  0.6039  1.2131
   49DMF     H4 1074   1.270   1.326   2.771 -0.8540 -1.5596 -0.1876
   49DMF     H5 1075   1.418   1.223   2.753  0.5269  0.1170 -0.2571
   49DMF     H6 1076   1.334   1.300   2.604  0.7944  1.7256  0.3313
   49DMF     H7 1077   1.561   1.334   2.557  1.0828  0.4872 -0.8381
   50DMF     C1 1078   0.032   3.206   3.024  0.4054 -0.5328 -0.6344
   50DMF     N1 1079  -0.040   3.144   3.142  0.0429  1.3421  0.1343
   50DMF     C2 1080  -0.020   2.994   3.160  0.5758 -0.6842 -0.0622
   50DMF     C3 1081  -0.136   3.217   3.211  0.5337  0.5098  1.2450
   50DMF     O1 1082  -0.154   3.335   3.187  0.3332  0.3274 -0.0636
   50DMF     H1 1083   0.127   3.249   3.059  1.0057  0.1152 -2.9466
   50DMF     H2 1084  -0.033   3.277   2.972  0.4473 -1.7367 -2.3694
   50DMF     H3 1085   0.054   3.122   2.957  0.5663  0.1872 -1.4916
   50DMF     H4 1086   0.081   2.952   3.168  0.1548 -1.1424  3.7408
   50DMF     H5 1087  -0.064   2.950   3.070 -0.2726 -2.2146  1.0809
   50DMF     H6 1088  -0.077   2.957   3.246 -0.3069 -0.8562 -0.7178
   50DMF     H7 1089  -0.196   3.158   3.282  0.5178 -0.3055  0.5612
   51DMF     C1 1090   2.174   0.256   3.335  0.2221 -0.4143  0.5833
   51DMF     N1 1091   2.304   0.313   3.344 -0.9574 -0.6338 -0.3026
   51DMF     C2 1092   2.399   0.274   3.236 -0.0425  0.5643  0.2538
   51DMF     C3 1093   2.329   0.410   3.449 -0.2165 -0.6922 -0.7063
   51DMF     O1 1094   2.244   0.437   3.535  0.5480  0.3947 -0.1051
   51DMF     H1 1095   2.176   0.170   3.268  2.7009 -0.7362  1.0358
   51DMF     H2 1096   2.103   0.328   3.293  1.2907  0.3060 -0.0082
   51DMF     H3 1097   2.144   0.214   3.432  2.2353 -0.2144  1.3199
   51DMF     H4 1098   2.485   0.341   3.246 -1.3284  2.1411  0.9438
   51DMF     H5 1099   2.343   0.289   3.143 -0.0822 -0.4910  0.0971
   51DMF     H6 1100   2.439   0.173   3.252 -1.1009 -0.0614 -0.8972
   51DMF     H7 1101   2.423   0.468   3.448 -0.6364 -0.0027 -0.8787
   52DMF     C1 1102   0.032   3.399   3.788  0.1722  0.2630  0.8580
   52DMF     N1 1103   0.012   3.469   3.918 -0.3755 -0.2927 -0.4150
   52DMF     C2 1104   0.121   3.461   4.015  0.3840 -0.8342 -0.9263
   52DMF     C3 1105  -0.114   3.493   3.973 -0.1985  0.1305 -0.4244
   52DMF     O1 1106  -0.216   3.455   3.910 -0.2608 -0.6498 -0.0341
   52DMF     H1 1107  -0.007   3.470   3.714  1.0866  1.4748  1.5056
   52DMF     H2 1108  -0.020   3.303   3.790  0.1922  0.2158 -0.3154
   52DMF     H3 1109   0.139   3.381   3.770 -0.2470 -2.2441  0.7588
   52DMF     H4 1110   0.173   3.558   4.024 -1.3415  0.0931 -0.8309
   52DMF     H5 1111   0.193   3.389   3.972  1.1286 -0.8312  0.2998
   52DMF     H6 1112   0.091   3.427   4.114 -0.0321  3.5234  0.5576
   52DMF     H7 1113  -0.113   3.532   4.076  2.4896 -1.6811  0.2803
   53DMF     C1 1114   0.836   0.847   3.277 -0.1410 -0.1110 -0.8258
   53DMF     N1 1115   0.739   0.956   3.261  0.5016 -0.0122 -0.9029
   53DMF     C2 1116   0.765   1.053   3.161 -0.0413  0.9955  0.0513
   53DMF     C3 1117   0.648   0.990   3.363 -0.3972 -0.0859 -0.0204
   53DMF     O1 1118   0.640   0.925   3.465 -0.1845  0.1482  0.0929
   53DMF     H1 1119   0.815   0.781   3.362  0.8883 -1.3638 -1.5119
   53DMF     H2 1120   0.939   0.884   3.283  0.2394 -1.2694  0.0698
   53DMF     H3 1121   0.819   0.789   3.185  0.4855  0.8585 -1.5610
   53DMF     H4 1122   0.665   1.058   3.115 -0.6753 -1.1253  1.1394
   53DMF     H5 1123   0.833   1.024   3.081  0.7966  0.0018  1.1075
   53DMF     H6 1124   0.787   1.155   3.194  2.0899  0.5686 -0.0332
   53DMF     H7 1125   0.588   1.078   3.333  2.2507  1.8389  0.2061
   54DMF     C1 1126   2.138   0.599   3.128 -0.1546 -0.6655  0.2853
   54DMF     N1 1127   2.278   0.600   3.100 -0.0105 -0.1867 -0.5031
   54DMF     C2 1128   2.327   0.543   2.972  0.0341 -0.2332  0.0337
   54DMF     C3 1129   2.363   0.664   3.185  0.3539  0.6596  0.5398
   54DMF     O1 1130   2.337   0.697   3.297  0.4498 -0.0247  0.2319
   54DMF     H1 1131   2.099   0.496   3.118  0.7872 -0.9709 -0.3041
   54DMF     H2 1132   2.086   0.666   3.059  0.3495 -0.6169 -0.0409
   54DMF     H3 1133   2.120   0.624   3.233 -0.2638 -1.2001  0.3983
   54DMF     H4 1134   2.402   0.611   2.929  2.1010 -0.6787  2.8088
   54DMF     H5 1135   2.242   0.532   2.903  1.4171  1.4346 -2.0127
   54DMF     H6 1136   2.368   0.444   2.991  0.2059 -0.2979 -0.6493
   54DMF     H7 1137   2.463   0.680   3.141  0.4029  2.6666  1.3220
   55DMF     C1 1138   0.164   3.160   1.447  0.3552 -0.9381 -0.2301
   55DMF     N1 1139   0.084   3.066   1.365  0.2033 -0.2526 -0.2167
   55DMF     C2 1140   0.094   3.082   1.223  0.4341  0.3858 -0.6256
   55DMF     C3 1141  -0.014   2.980   1.419 -0.2669  0.0909 -0.0728
   55DMF     O1 1142  -0.032   2.973   1.540 -0.4879 -0.1880 -0.1610
   55DMF     H1 1143   0.246   3.109   1.499  0.6665 -0.6260 -0.4132
   55DMF     H2 1144   0.105   3.186   1.536  0.4394 -3.0103  0.4424
   55DMF     H3 1145   0.188   3.249   1.387  1.2745 -0.0442  1.4179
   55DMF     H4 1146   0.004   3.042   1.173  0.7576  0.3167 -1.1592
   55DMF     H5 1147   0.183   3.027   1.191 -0.7386 -1.3681 -0.9355
   55DMF     H6 1148   0.107   3.187   1.196 -0.9592  1.0066  1.0342
   55DMF     H7 1149  -0.067   2.915   1.347  0.4931 -0.4828 -0.1113
   56DMF     C1 1150   1.870   0.720   0.408 -0.1205 -0.3962 -0.1218
   56DMF     N1 1151   1.996   0.642   0.416 -0.0158  0.0667  0.3697
   56DMF     C2 1152   2.061   0.588   0.286  0.3937 -0.5717 -0.7961
   56DMF     C3 1153   2.062   0.625   0.544  0.6147  0.4899 -0.1863
   56DMF     O1 1154   2.014   0.664   0.652 -0.1171 -0.0311  0.1439
   56DMF     H1 1155   1.880   0.799   0.484  0.8665 -0.6988  0.0710
   56DMF     H2 1156   1.783   0.655   0.419  0.8598 -1.8240 -0.6250
   56DMF     H3 1157   1.864   0.772   0.312 -0.8051  0.8657  0.5770
   56DMF     H4 1158   2.119   0.675   0.251 -1.3175  1.7946  2.0477
   56DMF     H5 1159   1.986   0.551   0.215 -3.2518  2.3792  1.3964
   56DMF     H6 1160   2.127   0.503   0.308  0.2836 -0.5847 -0.5186
   56DMF     H7 1161   2.160   0.575   0.531  0.7165  0.6216  0.0657
   57DMF     C1 1162   2.073   3.291   0.360 -0.2257 -0.1255 -0.0767
   57DMF     N1 1163   2.197   3.369   0.365 -0.1217 -0.0468 -0.0765
   57DMF     C2 1164   2.236   3.422   0.495  0.1007  0.1247 -0.2833
   57DMF     C3 1165   2.289   3.372   0.254 -0.0683 -0.0906 -0.1409
   57DMF     O1 1166   2.260   3.317   0.153 -0.1418 -0.0472  0.3078
   57DMF     H1 1167   2.027   3.306   0.261  1.1800 -1.5875 -0.9689
   57DMF     H2 1168   2.001   3.329   0.433  1.0554 -1.5732  1.9768
   57DMF     H3 1169   2.085   3.183   0.372  3.0941  0.1153 -0.6981
   57DMF     H4 1170   2.341   3.415   0.527 -0.2300 -0.3097  0.7571
   57DMF     H5 1171   2.178   3.358   0.564 -0.3355  2.2359  1.3670
   57DMF     H6 1172   2.212   3.528   0.507 -1.1396 -0.1462 -0.3185
   57DMF     H7 1173   2.378   3.434   0.269 -0.3030  0.5632 -1.3617
   58DMF     C1 1174   3.307   1.930   1.548  0.2468  0.4103  0.2688
   58DMF     N1 1175   3.162   1.958   1.525  0.7200 -0.1195 -0.1865
   58DMF     C2 1176   3.069   1.848   1.536 -0.1339 -0.6090  0.3445
   58DMF     C3 1177   3.107   2.084   1.521  0.0067  0.1994 -0.3349
   58DMF     O1 1178   3.180   2.186   1.520 -0.3873 -0.2024 -0.1837
   58DMF     H1 1179   3.353   1.871   1.468 -0.5388 -0.9288  0.7794
   58DMF     H2 1180   3.318   1.893   1.651  0.7662 -0.8378 -0.2334
   58DMF     H3 1181   3.361   2.025   1.555  0.9641 -0.0368  0.8936
   58DMF     H4 1182   2.990   1.865   1.462 -0.3537 -1.4621  0.3855
   58DMF     H5 1183   3.033   1.837   1.639 -1.0100  0.8278  0.2117
   58DMF     H6 1184   3.125   1.756   1.516  0.7746 -0.0759  0.4179
   58DMF     H7 1185   2.997   2.077   1.520  0.0280 -0.1327 -0.9922
   59DMF     C1 1186   2.864   2.004   3.191  0.0486 -0.2114  0.2664
   59DMF     N1 1187   2.916   2.032   3.323  0.0758 -0.5752  0.0486
   59DMF     C2 1188   2.878   2.156   3.393 -0.0269 -0.8708  0.2977
   59DMF     C3 1189   2.995   1.939   3.400 -0.7370 -0.7293  0.0738
   59DMF     O1 1190   3.012   1.821   3.367 -0.3029  0.0702  0.0788
   59DMF     H1 1191   2.784   2.073   3.161  0.9322 -0.0739 -1.8463
   59DMF     H2 1192   2.826   1.902   3.176  1.7372 -0.7808 -0.2939
   59DMF     H3 1193   2.951   2.012   3.124 -0.2701 -1.9863 -0.3851
   59DMF     H4 1194   2.778   2.137   3.434 -0.2648  1.4573  0.8746
   59DMF     H5 1195   2.867   2.241   3.324 -1.2540 -0.1823  1.3292
   59DMF     H6 1196   2.938   2.186   3.479 -1.9292 -0.3766  1.4900
   59DMF     H7 1197   3.033   1.986   3.492 -1.2260 -2.5104  1.1995
   60DMF     C1 1198   1.674   0.590   2.226  0.0336  0.0165 -0.3321
   60DMF     N1 1199   1.814   0.598   2.240  0.6114  0.0320  0.2007
   60DMF     C2 1200   1.872   0.732   2.247  0.0276 -0.2614 -0.2666
   60DMF     C3 1201   1.902   0.490   2.252  0.1489  0.3290 -0.2592
   60DMF     O1 1202   1.866   0.377   2.258 -0.6933 -0.2206  0.1508
   60DMF     H1 1203   1.649   0.672   2.158  0.2111 -0.6502 -1.2074
   60DMF     H2 1204   1.622   0.585   2.322  0.3977  2.6452  0.0387
   60DMF     H3 1205   1.666   0.496   2.170 -0.3154 -0.4981  0.5664
   60DMF     H4 1206   1.947   0.740   2.167 -0.8942 -0.3123 -1.1423
   60DMF     H5 1207   1.911   0.750   2.348 -1.2127 -0.4230  0.2566
   60DMF     H6 1208   1.792   0.806   2.241 -0.1407 -0.4973 -1.0017
   60DMF     H7 1209   2.007   0.524   2.255  0.3809  0.0317 -3.3367
   61DMF     C1 1210   1.186   0.981   0.926  0.0426 -0.5955 -0.5115
   61DMF     N1 1211   1.296   1.070   0.882 -0.3022  0.0483 -0.5066
   61DMF     C2 1212   1.268   1.212   0.853  1.0508 -0.7148 -0.5608
   61DMF     C3 1213   1.429   1.027   0.888 -0.3641  0.5096 -0.5803
   61DMF     O1 1214   1.453   0.915   0.922  0.0970  0.1188 -0.2830
   61DMF     H1 1215   1.099   0.973   0.859  0.0823  0.5060 -0.7068
   61DMF     H2 1216   1.160   1.028   1.022  0.0843  0.0588 -0.8120
   61DMF     H3 1217   1.222   0.878   0.937 -1.3080 -1.3480 -2.7002
   61DMF     H4 1218   1.359   1.267   0.824  0.3264  1.0256  0.4287
   61DMF     H5 1219   1.229   1.264   0.941  1.1513 -0.4710 -0.6579
   61DMF     H6 1220   1.194   1.221   0.773  0.5372 -0.9160 -0.1078
   61DMF     H7 1221   1.502   1.107   0.868 -1.6093  1.8656  0.1352
   62DMF     C1 1222   3.002   3.383   1.524 -0.1898 -0.1530  0.1934
   62DMF     N1 1223   3.101   3.269   1.535  0.4691  0.7098  0.4606
   62DMF     C2 1224   3.055   3.139   1.558  0.6542 -0.6923  0.0687
   62DMF     C3 1225   3.236   3.299   1.545  0.2555  0.0835  0.0365
   62DMF     O1 1226   3.274   3.416   1.540  0.3688 -0.1279  0.0140
   62DMF     H1 1227   2.915   3.356   1.464 -0.1041  3.2258 -1.5476
   62DMF     H2 1228   3.040   3.475   1.479 -0.4807  0.5874  1.4377
   62DMF     H3 1229   2.960   3.398   1.624  1.3452 -1.3001  1.0328
   62DMF     H4 1230   3.020   3.100   1.462  2.1743 -0.4496 -0.5970
   62DMF     H5 1231   2.973   3.149   1.630  0.2575  0.1866 -0.4919
   62DMF     H6 1232   3.132   3.083   1.612  1.8989  1.8988  1.0353
   62DMF     H7 1233   3.305   3.217   1.574  1.3412  0.6867 -0.8241
   63DMF     C1 1234   2.080   0.728   3.527 -0.7636  0.2867 -0.1452
   63DMF     N1 1235   1.963   0.803   3.590  0.2172 -0.0866 -0.1594
   63DMF     C2 1236   1.924   0.758   3.729 -1.0041 -0.2483 -0.2495
   63DMF     C3 1237   1.908   0.924   3.536  0.4130 -0.3691 -0.3258
   63DMF     O1 1238   1.950   0.959   3.424  0.2212  0.3425 -0.0918
   63DMF     H1 1239   2.166   0.790   3.498 -0.0139 -0.4129  0.5732
   63DMF     H2 1240   2.051   0.671   3.438  0.8656 -0.3113 -0.3163
   63DMF     H3 1241   2.116   0.647   3.591 -1.0849  0.0803 -0.2282
   63DMF     H4 1242   1.815   0.768   3.738 -1.1551  0.0209 -2.1364
   63DMF     H5 1243   1.979   0.826   3.795  0.3015 -1.3655 -0.1767
   63DMF     H6 1244   1.961   0.656   3.747 -1.4106 -0.5633 -1.1292
   63DMF     H7 1245   1.833   0.968   3.604  0.2522  0.2104 -0.8817
   64DMF     C1 1246   0.715   3.311   0.398  0.5879 -0.3725 -0.1135
   64DMF     N1 1247   0.849   3.325   0.454 -0.4706  0.8092 -0.1078
   64DMF     C2 1248   0.957   3.272   0.375  0.0083 -0.3868 -0.0000
   64DMF     C3 1249   0.870   3.366   0.589 -0.4559  0.5070  0.0829
   64DMF     O1 1250   0.778   3.390   0.662 -0.4102  0.1558  0.0086
   64DMF     H1 1251   0.676   3.414   0.405 -0.0199 -0.7040  1.6429
   64DMF     H2 1252   0.660   3.247   0.468 -2.7499 -0.3193 -2.5789
   64DMF     H3 1253   0.714   3.264   0.299  2.4294  1.2512 -0.9450
   64DMF     H4 1254   1.058   3.304   0.404  0.7925 -2.1043 -0.7158
   64DMF     H5 1255   0.936   3.290   0.269  1.6210  0.2688 -0.2233
   64DMF     H6 1256   0.963   3.163   0.389  0.7995 -0.6208 -1.9168
   64DMF     H7 1257   0.974   3.361   0.626 -0.9841 -1.3591  1.4211
   65DMF     C1 1258   3.028   0.688   0.316  0.1481  0.0890  0.1621
   65DMF     N1 1259   3.119   0.602   0.393 -0.3639 -0.1357  0.8707
   65DMF     C2 1260   3.136   0.628   0.540 -0.6166 -0.7530  0.4229
   65DMF     C3 1261   3.168   0.478   0.340  1.3520  0.6103 -0.4020
   65DMF     O1 1262   3.184   0.466   0.222 -0.3248 -0.2795  0.1688
   65DMF     H1 1263   3.073   0.697   0.217 -0.3651 -1.8779 -0.2837
   65DMF     H2 1264   3.031   0.789   0.359  0.8919  0.1139  0.0678
   65DMF     H3 1265   2.933   0.634   0.308  0.1504  0.0997  0.0715
   65DMF     H4 1266   3.213   0.705   0.550 -0.3787 -0.7700 -1.0927
   65DMF     H5 1267   3.170   0.538   0.593  0.7939  0.0195  0.8520
   65DMF     H6 1268   3.045   0.669   0.586  0.6236  3.3458 -0.6188
   65DMF     H7 1269   3.195   0.400   0.414 -0.5250 -0.4383 -0.7829
   66DMF     C1 1270   0.616   2.178   1.206  0.2500 -0.1213 -0.9110
   66DMF     N1 1271   0.723   2.079   1.160  0.0273  0.2725 -0.4208
   66DMF     C2 1272   0.862   2.085   1.220 -0.1197  0.3580  0.1284
   66DMF     C3 1273   0.698   1.986   1.063 -0.0938  0.0927 -0.1702
   66DMF     O1 1274   0.595   1.983   0.997 -0.0884 -0.4007 -0.2652
   66DMF     H1 1275   0.574   2.146   1.302 -0.5736 -0.2106 -1.3008
   66DMF     H2 1276   0.540   2.183   1.128  0.5946  2.4956 -1.1298
   66DMF     H3 1277   0.661   2.278   1.210  1.1695 -0.5693  0.4818
   66DMF     H4 1278   0.895   1.981   1.228 -1.4063  0.0864  2.3420
   66DMF     H5 1279   0.860   2.132   1.319  3.2063  2.8288 -0.9042
   66DMF     H6 1280   0.930   2.137   1.152 -2.5826  0.8632 -2.0115
   66DMF     H7 1281   0.781   1.917   1.041  0.3514  0.8961 -1.0551
   67DMF     C1 1282   2.754   0.672   1.509  0.5243  0.3091 -0.6204
   67DMF     N1 1283   2.857   0.631   1.414 -0.1060  0.0156 -0.2876
   67DMF     C2 1284   2.825   0.627   1.269 -0.2197  0.6111  0.1343
   67DMF     C3 1285   2.993   0.615   1.449 -0.4708 -0.2257  0.6287
   67DMF     O1 1286   3.026   0.638   1.566 -0.0886  0.2204 -0.0484
   67DMF     H1 1287   2.681   0.591   1.524  2.9843 -2.2432 -1.9468
   67DMF     H2 1288   2.709   0.770   1.489  1.0335  0.1993 -2.3643
   67DMF     H3 1289   2.779   0.679   1.615 -0.0388 -0.4095 -0.4359
   67DMF     H4 1290   2.719   0.652   1.256 -0.1348  0.9727  0.1400
   67DMF     H5 1291   2.838   0.523   1.238  0.1441  0.1045  1.9582
   67DMF     H6 1292   2.880   0.702   1.210 -0.2948 -1.3438 -2.5118
   67DMF     H7 1293   3.062   0.591   1.365 -0.7079  0.2106  0.3089
   68DMF     C1 1294   2.252   2.282   0.778  0.1895  1.1744  0.5017
   68DMF     N1 1295   2.214   2.415   0.721 -0.1369  0.2245 -0.5168
   68DMF     C2 1296   2.310   2.522   0.718 -0.0053 -0.3506  0.5620
   68DMF     C3 1297   2.089   2.436   0.666 -0.0583 -0.3495  0.1551
   68DMF     O1 1298   2.003   2.352   0.667  0.2010 -0.4526 -0.0041
   68DMF     H1 1299   2.235   2.195   0.712 -0.8867  0.5036  1.6383
   68DMF     H2 1300   2.188   2.269   0.866 -1.1169  1.4858 -0.3796
   68DMF     H3 1301   2.356   2.282   0.814  0.8662  3.4041 -1.3073
   68DMF     H4 1302   2.392   2.488   0.654  0.4902 -1.4793  1.7542
   68DMF     H5 1303   2.355   2.548   0.815 -0.6408 -0.5451  0.9125
   68DMF     H6 1304   2.274   2.617   0.679  3.1980  0.3700 -0.8154
   68DMF     H7 1305   2.078   2.532   0.612 -2.0830 -1.1182 -0.8767
   69DMF     C1 1306   1.320   1.501   1.155 -0.1449  0.2486  0.3451
   69DMF     N1 1307   1.219   1.601   1.129  0.4050 -0.0037  0.2419
   69DMF     C2 1308   1.172   1.691   1.239  0.2740 -0.6019 -0.2463
   69DMF     C3 1309   1.181   1.627   0.994  0.1436 -0.3824  0.9863
   69DMF     O1 1310   1.228   1.562   0.900  0.5379  0.1141 -0.2916
   69DMF     H1 1311   1.289   1.412   1.100 -0.6600  0.8941 -0.4200
   69DMF     H2 1312   1.325   1.483   1.263  0.7772  1.9298  0.6082
   69DMF     H3 1313   1.419   1.540   1.130 -1.0254  0.8100 -2.3772
   69DMF     H4 1314   1.130   1.631   1.321 -1.4014 -0.9722 -1.3512
   69DMF     H5 1315   1.099   1.758   1.192  0.7275  0.0031 -0.0994
   69DMF     H6 1316   1.255   1.742   1.289  0.2041  2.4756 -3.1658
   69DMF     H7 1317   1.106   1.707   0.982 -3.5617 -4.1190 -2.2788
   70DMF     C1 1318   0.156   1.225   3.610  0.4785  0.2297  0.5618
   70DMF     N1 1319   0.190   1.113   3.514  0.4651 -0.6061 -0.1064
   70DMF     C2 1320   0.328   1.079   3.501  0.0430  0.1382  0.7853
   70DMF     C3 1321   0.092   1.071   3.419  0.8570  0.4443 -0.0314
   70DMF     O1 1322  -0.025   1.106   3.419  0.4669 -0.1977 -0.3294
   70DMF     H1 1323   0.178   1.323   3.566 -2.2409 -0.4135 -2.3752
   70DMF     H2 1324   0.224   1.215   3.695  0.4217  1.7329  0.7935
   70DMF     H3 1325   0.050   1.218   3.637  0.2926 -0.1022 -0.2362
   70DMF     H4 1326   0.352   0.979   3.540 -0.6258 -0.0802  0.6342
   70DMF     H5 1327   0.400   1.155   3.533  1.0099 -0.1743 -0.5855
   70DMF     H6 1328   0.360   1.077   3.396 -1.6046  2.1345  0.2069
   70DMF     H7 1329   0.134   1.003   3.343 -0.0689 -2.3401  1.8445
   71DMF     C1 1330   2.278   2.054   3.796 -0.0285 -0.3458 -0.5641
   71DMF     N1 1331   2.280   1.916   3.839 -0.5886 -0.0427 -0.7427
   71DMF     C2 1332   2.161   1.867   3.921 -0.7955 -0.0473 -0.4172
   71DMF     C3 1333   2.356   1.822   3.758  0.3453  0.3119  0.0022
   71DMF     O1 1334   2.443   1.851   3.676 -0.1771 -0.0360  0.1783
   71DMF     H1 1335   2.201   2.113   3.848  0.8770 -0.1305  0.5483
   71DMF     H2 1336   2.262   2.065   3.688  1.0067 -0.0292 -0.6879
   71DMF     H3 1337   2.376   2.096   3.821 -0.0828  0.7142 -2.0521
   71DMF     H4 1338   2.198   1.872   4.024  0.2702 -2.1303 -0.6926
   71DMF     H5 1339   2.144   1.762   3.895 -0.3261 -0.6705  1.6788
   71DMF     H6 1340   2.061   1.910   3.903 -0.6026  0.7353  0.3548
   71DMF     H7 1341   2.341   1.716   3.786  0.1398 -0.1519 -1.7912
   72DMF     C1 1342   0.959   1.781   1.516 -0.0467  0.3411  0.7552
   72DMF     N1 1343   0.926   1.921   1.527  0.7660 -0.4145 -0.1171
   72DMF     C2 1344   0.783   1.955   1.512  0.2533 -0.2110  0.1293
   72DMF     C3 1345   1.026   2.023   1.543  0.1024  0.7359  0.3684
   72DMF     O1 1346   1.142   1.995   1.556 -0.1373 -0.6873  0.4651
   72DMF     H1 1347   0.933   1.736   1.612 -1.8596  0.1001  0.1710
   72DMF     H2 1348   1.066   1.771   1.495 -0.3346 -3.1846  0.7159
   72DMF     H3 1349   0.906   1.733   1.433 -1.1138  0.8017  1.1533
   72DMF     H4 1350   0.761   2.062   1.503 -2.0384 -0.5600  1.2704
   72DMF     H5 1351   0.723   1.915   1.595  0.4562 -1.5401 -0.3556
   72DMF     H6 1352   0.740   1.910   1.422 -0.9369  1.9370 -0.4066
   72DMF     H7 1353   0.990   2.127   1.537  0.8957  1.0494  0.8245
   73DMF     C1 1354   3.067   0.058   0.430  0.6943  0.5897  0.3141
   73DMF     N1 1355   3.111   0.077   0.575 -0.1250 -0.8385  0.2787
   73DMF     C2 1356   3.193  -0.028   0.631  0.0709  0.6841  0.1156
   73DMF     C3 1357   3.112   0.207   0.635  0.4000 -0.0303  0.9677
   73DMF     O1 1358   3.059   0.304   0.580 -0.0378 -0.4099 -0.2591
   73DMF     H1 1359   2.960   0.036   0.429  1.1292 -1.7176 -1.2233
   73DMF     H2 1360   3.108  -0.032   0.382  0.7763  0.5957  0.3732
   73DMF     H3 1361   3.092   0.140   0.361 -2.5359 -0.1499 -1.8150
   73DMF     H4 1362   3.196  -0.030   0.741 -0.5637 -0.2258  0.1227
   73DMF     H5 1363   3.298  -0.017   0.603  0.3036  0.8660  1.0459
   73DMF     H6 1364   3.155  -0.122   0.588  0.5569 -1.1069  3.4493
   73DMF     H7 1365   3.131   0.200   0.744  0.2331  0.8302  1.0485
   74DMF     C1 1366   0.842   3.228   1.024  0.2759 -0.3009 -0.0922
   74DMF     N1 1367   0.808   3.095   0.974  0.3470  0.1421 -0.0666
   74DMF     C2 1368   0.793   3.086   0.826 -0.2766 -1.5655  0.1941
   74DMF     C3 1369   0.805   2.983   1.056 -0.3915 -0.1327 -0.1092
   74DMF     O1 1370   0.832   2.994   1.175  0.3034 -0.1919 -0.0565
   74DMF     H1 1371   0.908   3.286   0.959  0.6722 -0.5057  0.1222
   74DMF     H2 1372   0.898   3.217   1.118 -1.9288  1.6611  1.5063
   74DMF     H3 1373   0.749   3.280   1.048  1.0675  0.4768  1.3897
   74DMF     H4 1374   0.856   3.008   0.781  0.8811  0.4339 -1.7188
   74DMF     H5 1375   0.821   3.184   0.787 -0.5127 -1.4751  0.2508
   74DMF     H6 1376   0.688   3.070   0.800  0.5859 -0.8727 -4.0070
   74DMF     H7 1377   0.788   2.893   0.993 -0.4995 -0.2458  0.0820
   75DMF     C1 1378   1.199   2.299   2.286  0.8138  0.7054 -0.1495
   75DMF     N1 1379   1.313   2.205   2.272 -0.0475 -0.2252  0.0209
   75DMF     C2 1380   1.293   2.058   2.270 -0.4026  0.8231 -0.2011
   75DMF     C3 1381   1.445   2.253   2.236  0.6235 -0.4386 -0.3505
   75DMF     O1 1382   1.465   2.375   2.222  0.4543  0.6638  1.0118
   75DMF     H1 1383   1.210   2.365   2.373 -0.8448 -0.9388  1.3670
   75DMF     H2 1384   1.104   2.244   2.294  0.7496  0.7725 -0.4372
   75DMF     H3 1385   1.195   2.356   2.193 -0.2521 -1.0236 -1.1909
   75DMF     H4 1386   1.219   2.040   2.349  1.0026 -1.6560  0.6088
   75DMF     H5 1387   1.378   1.994   2.296 -0.9654  0.8291  1.7684
   75DMF     H6 1388   1.247   2.032   2.173  0.8610  1.4260 -0.9742
   75DMF     H7 1389   1.523   2.177   2.216 -1.3126 -2.3573 -0.7629
   76DMF     C1 1390   2.553   0.173   0.621  0.0758  0.0607 -0.3310
   76DMF     N1 1391   2.693   0.215   0.612  0.1082 -0.3625  0.3619
   76DMF     C2 1392   2.792   0.143   0.698 -0.6648  0.2771 -0.1836
   76DMF     C3 1393   2.733   0.310   0.516 -0.3741  1.0533 -0.5147
   76DMF     O1 1394   2.657   0.355   0.432 -0.4015  0.1777  0.0509
   76DMF     H1 1395   2.507   0.175   0.521 -0.9941  1.0797  0.1861
   76DMF     H2 1396   2.507   0.250   0.683 -0.2978 -1.3407  1.1683
   76DMF     H3 1397   2.538   0.074   0.665 -0.1824  0.3746  0.2862
   76DMF     H4 1398   2.838   0.203   0.777  0.3861 -0.8305  0.0708
   76DMF     H5 1399   2.873   0.103   0.635 -0.4769 -0.7419  0.6923
   76DMF     H6 1400   2.752   0.052   0.743 -1.3173  1.4025  1.5323
   76DMF     H7 1401   2.835   0.346   0.538  0.0314 -0.9494  1.0386
   77DMF     C1 1402   0.878   0.217   3.651 -0.6804 -0.3762 -0.7621
   77DMF     N1 1403   0.953   0.178   3.528 -0.1664  0.3759  0.2653
   77DMF     C2 1404   1.067   0.256   3.483 -0.2329  0.3875 -0.0932
   77DMF     C3 1405   0.921   0.059   3.460 -0.1022  0.1875 -0.2602
   77DMF     O1 1406   0.837  -0.021   3.502 -0.6040 -0.5539 -0.1058
   77DMF     H1 1407   0.900   0.321   3.680  0.0986 -0.8473  0.3891
   77DMF     H2 1408   0.925   0.157   3.730 -1.9961 -1.1467 -0.5456
   77DMF     H3 1409   0.770   0.196   3.653 -1.0304  1.2365 -1.7104
   77DMF     H4 1410   1.039   0.350   3.435  1.3894  1.0601  0.2252
   77DMF     H5 1411   1.133   0.189   3.427 -1.2888 -1.8146  1.2256
   77DMF     H6 1412   1.129   0.281   3.571  1.6767 -0.6770 -1.1078
   77DMF     H7 1413   0.986   0.055   3.371  0.6847  1.8413  0.2221
   78DMF     C1 1414   0.053   1.296   0.745  0.2661 -0.1542 -0.7324
   78DMF     N1 1415   0.154   1.322   0.631 -0.4229  0.0166  0.1194
   78DMF     C2 1416   0.117   1.424   0.528 -0.0531 -0.2444  0.3680
   78DMF     C3 1417   0.281   1.255   0.620 -0.0069 -0.8258  0.0533
   78DMF     O1 1418   0.307   1.157   0.682  0.2971  0.2443 -0.0142
   78DMF     H1 1419   0.019   1.192   0.737 -0.1516 -0.1248  0.5548
   78DMF     H2 1420  -0.035   1.362   0.746  0.4052  0.0529 -1.8512
   78DMF     H3 1421   0.110   1.293   0.839 -0.3038 -2.4300 -0.4475
   78DMF     H4 1422   0.056   1.371   0.454 -1.3812 -0.3629  1.5308
   78DMF     H5 1423   0.210   1.466   0.487  1.5563 -1.3784  2.6715
   78DMF     H6 1424   0.054   1.504   0.569 -0.7892 -0.5372 -0.1902
   78DMF     H7 1425   0.347   1.299   0.544  0.8254 -2.1991 -0.0342
   79DMF     C1 1426   0.199   2.739   0.858 -0.1435 -0.1882 -0.0842
   79DMF     N1 1427   0.063   2.789   0.828 -0.2744 -0.2045 -0.7897
   79DMF     C2 1428  -0.022   2.701   0.742  0.3090 -0.1972  0.3794
   79DMF     C3 1429   0.022   2.924   0.845  0.6411 -0.1331  0.7223
   79DMF     O1 1430   0.093   3.006   0.899 -0.2984 -0.2411  0.2088
   79DMF     H1 1431   0.265   2.772   0.777  0.7121 -1.1461  0.2058
   79DMF     H2 1432   0.206   2.629   0.856  1.2849 -0.1257  0.8682
   79DMF     H3 1433   0.235   2.772   0.956 -1.8412  0.3082  0.3939
   79DMF     H4 1434   0.034   2.704   0.648 -1.2083 -2.0613 -0.6126
   79DMF     H5 1435  -0.117   2.754   0.731  1.4733  2.2219  1.4340
   79DMF     H6 1436  -0.028   2.597   0.774  2.1343 -0.3630  0.2469
   79DMF     H7 1437  -0.077   2.952   0.804  1.4320  2.0854  0.2899
   80DMF     C1 1438   3.401   3.393   2.651 -1.0324 -0.3864 -0.0376
   80DMF     N1 1439   3.483   3.406   2.771 -0.9031 -0.1523  0.2815
   80DMF     C2 1440   3.462   3.529   2.853  0.1898  0.3120  0.3354
   80DMF     C3 1441   3.583   3.316   2.791  0.2205  0.3393  0.6642
   80DMF     O1 1442   3.605   3.218   2.717  0.3215  0.0796 -0.1114
   80DMF     H1 1443   3.374   3.290   2.629 -0.1444 -0.7419  0.5061
   80DMF     H2 1444   3.456   3.438   2.568  0.5859 -2.6944 -0.2542
   80DMF     H3 1445   3.313   3.458   2.661 -0.7272 -0.0262  0.3665
   80DMF     H4 1446   3.552   3.528   2.915 -0.5313 -1.0788  1.3683
   80DMF     H5 1447   3.375   3.525   2.919  2.0926 -0.9570  2.8338
   80DMF     H6 1448   3.449   3.624   2.798  0.7675 -0.8388 -1.8696
   80DMF     H7 1449   3.616   3.321   2.897 -1.7686  1.3413  1.2628
   81DMF     C1 1450   0.014   1.884   0.651 -0.1260 -0.1894 -0.1365
   81DMF     N1 1451  -0.058   1.794   0.568  0.3512 -0.4422  0.2235
   81DMF     C2 1452  -0.085   1.836   0.434  0.7293 -0.1851 -0.6305
   81DMF     C3 1453  -0.128   1.687   0.624 -0.0983  0.1578 -0.3156
   81DMF     O1 1454  -0.105   1.652   0.740  0.0459 -0.1813  0.3175
   81DMF     H1 1455   0.070   1.955   0.588 -0.4927  0.3899  0.1812
   81DMF     H2 1456   0.081   1.823   0.713  0.2650 -0.1099 -0.4820
   81DMF     H3 1457  -0.053   1.932   0.724  0.8487  1.7125 -0.4432
   81DMF     H4 1458   0.019   1.851   0.403  1.3762  2.7469  2.6957
   81DMF     H5 1459  -0.141   1.928   0.453  0.4906 -0.1587 -1.4229
   81DMF     H6 1460  -0.146   1.764   0.378  0.3702 -0.5835  0.2613
   81DMF     H7 1461  -0.200   1.643   0.552  0.8653  1.6912 -2.2738
   82DMF     C1 1462   1.785   0.652   0.909 -0.4283 -0.3674 -0.9153
   82DMF     N1 1463   1.717   0.604   1.033  0.3136 -0.1788 -0.3023
   82DMF     C2 1464   1.682   0.700   1.137  0.4260 -0.1886 -0.5112
   82DMF     C3 1465   1.693   0.469   1.055  0.3657 -0.3707  0.4469
   82DMF     O1 1466   1.738   0.385   0.985 -0.0947  0.1870  0.2386
   82DMF     H1 1467   1.881   0.599   0.900 -0.7766 -1.0120 -0.8727
   82DMF     H2 1468   1.796   0.761   0.917  0.8454 -0.4419 -1.4202
   82DMF     H3 1469   1.717   0.630   0.826  1.2213  0.8093 -2.6246
   82DMF     H4 1470   1.595   0.759   1.107 -0.0128 -1.3588 -1.5693
   82DMF     H5 1471   1.763   0.770   1.164  1.3191 -0.7534 -1.6826
   82DMF     H6 1472   1.656   0.642   1.226 -1.3461 -0.3037 -1.0971
   82DMF     H7 1473   1.637   0.436   1.144 -0.3094  0.4624  0.3334
   83DMF     C1 1474   0.671   1.333   1.564 -0.5347  0.0282  0.1445
   83DMF     N1 1475   0.630   1.395   1.436  0.1555 -0.0340  0.6067
   83DMF     C2 1476   0.682   1.528   1.401 -0.4058 -0.6269  0.1183
   83DMF     C3 1477   0.568   1.316   1.333  0.1919  0.7351  0.9618
   83DMF     O1 1478   0.544   1.195   1.344  0.3847 -0.1716 -0.2955
   83DMF     H1 1479   0.776   1.301   1.569 -0.2193  0.9193 -0.5366
   83DMF     H2 1480   0.605   1.253   1.599 -0.3473 -0.0178  0.3902
   83DMF     H3 1481   0.643   1.409   1.637 -0.4847 -0.6192  0.8415
   83DMF     H4 1482   0.606   1.602   1.430  2.2133  1.4178  1.9372
   83DMF     H5 1483   0.708   1.535   1.295  0.9301  0.8429  0.5372
   83DMF     H6 1484   0.771   1.554   1.459 -0.3171  1.5845 -0.9507
   83DMF     H7 1485   0.554   1.366   1.235  0.1862 -2.1351 -0.5523
   84DMF     C1 1486   3.112   1.006   3.554 -0.0352  0.4053 -0.6226
   84DMF     N1 1487   2.977   0.959   3.607 -0.1690  0.3969 -0.2362
   84DMF     C2 1488   2.870   1.053   3.644 -0.3902  0.1917  0.5629
   84DMF     C3 1489   2.956   0.827   3.625 -0.7210 -0.7320  0.1755
   84DMF     O1 1490   3.036   0.748   3.579 -0.1973 -0.1193  0.5849
   84DMF     H1 1491   3.179   0.953   3.622 -2.5310 -1.4563  0.4704
   84DMF     H2 1492   3.122   1.115   3.562 -1.8084  0.5294  0.1630
   84DMF     H3 1493   3.113   0.976   3.448  0.7723  1.4381 -0.9103
   84DMF     H4 1494   2.914   1.151   3.667 -0.6638  0.4231  0.1066
   84DMF     H5 1495   2.808   1.016   3.727 -1.4112 -0.4590 -0.4672
   84DMF     H6 1496   2.799   1.059   3.561 -1.5066  2.0208  1.6021
   84DMF     H7 1497   2.861   0.803   3.674 -1.6716  0.2290 -1.1525
   85DMF     C1 1498   0.325   3.389   2.277  0.6714  0.0988 -0.6231
   85DMF     N1 1499   0.470   3.395   2.299  0.1150 -0.3342 -0.3973
   85DMF     C2 1500   0.555   3.297   2.237 -0.4153 -0.2780  0.5126
   85DMF     C3 1501   0.528   3.495   2.371  1.2851  0.5424  1.1067
   85DMF     O1 1502   0.453   3.576   2.415 -0.3534  0.4692  0.3191
   85DMF     H1 1503   0.277   3.482   2.242  1.3574  0.6294 -0.1641
   85DMF     H2 1504   0.277   3.366   2.373 -0.3206  0.0082 -1.1314
   85DMF     H3 1505   0.310   3.314   2.198  2.9454 -0.0725 -0.9095
   85DMF     H4 1506   0.612   3.241   2.312  0.1474  1.8926  1.7449
   85DMF     H5 1507   0.631   3.355   2.184  0.8811 -0.6010  1.9695
   85DMF     H6 1508   0.506   3.226   2.169 -0.2453 -0.1178  0.2231
   85DMF     H7 1509   0.638   3.487   2.369  1.3750  2.0148 -0.0146
   86DMF     C1 1510   0.241   3.049   0.551  0.9148 -0.8794  0.2014
   86DMF     N1 1511   0.373   3.023   0.488  0.6520  0.1815 -0.0623
   86DMF     C2 1512   0.494   2.999   0.581  0.3477  0.3730  0.3092
   86DMF     C3 1513   0.392   3.030   0.350  0.4626 -0.9040 -0.1535
   86DMF     O1 1514   0.299   3.038   0.270 -0.3105 -0.0645 -0.2546
   86DMF     H1 1515   0.256   3.090   0.651  1.0846 -0.8515  0.1647
   86DMF     H2 1516   0.188   2.954   0.563 -1.3865  0.4360  0.8444
   86DMF     H3 1517   0.187   3.126   0.493  0.4708 -2.9122 -2.1799
   86DMF     H4 1518   0.587   3.019   0.526  0.2825  0.8980  0.3803
   86DMF     H5 1519   0.490   2.893   0.608  0.3330  0.0861 -0.7861
   86DMF     H6 1520   0.478   3.067   0.666 -0.7649  0.5399 -0.0324
   86DMF     H7 1521   0.497   3.033   0.316  0.0736  3.0075 -1.2976
   87DMF     C1 1522   0.161   2.431   2.266 -0.0128  0.2594  0.2786
   87DMF     N1 1523   0.285   2.452   2.351 -0.1211  0.0509 -0.1300
   87DMF     C2 1524   0.419   2.420   2.295  0.6553  0.1497  0.4846
   87DMF     C3 1525   0.273   2.496   2.479  0.9455  0.2617 -0.2580
   87DMF     O1 1526   0.157   2.506   2.526 -0.0317  0.1505  0.0480
   87DMF     H1 1527   0.189   2.377   2.175  0.6991 -1.1663  1.3193
   87DMF     H2 1528   0.132   2.531   2.232 -0.2634  0.0441 -0.1572
   87DMF     H3 1529   0.088   2.377   2.328 -0.6523 -0.9047 -1.4573
   87DMF     H4 1530   0.482   2.366   2.367 -1.4731  1.3091  3.3405
   87DMF     H5 1531   0.464   2.514   2.259  0.4190  0.4740  1.0273
   87DMF     H6 1532   0.423   2.354   2.208  1.3314  1.1419 -0.2492
   87DMF     H7 1533   0.369   2.504   2.533  0.7303  0.4527  0.0960
   88DMF     C1 1534   1.973   1.249   0.893  0.0370 -0.1192 -0.6128
   88DMF     N1 1535   1.966   1.108   0.853 -0.4482  0.3887  0.5690
   88DMF     C2 1536   1.900   1.068   0.723  0.1494  0.3444  0.5747
   88DMF     C3 1537   1.997   1.003   0.946 -0.2855  0.3541 -0.0484
   88DMF     O1 1538   2.044   1.026   1.056 -0.8329  0.5343 -0.5447
   88DMF     H1 1539   2.078   1.280   0.882 -0.4748  1.5857 -0.7991
   88DMF     H2 1540   1.934   1.257   0.995 -0.1194  0.1090 -0.6897
   88DMF     H3 1541   1.905   1.306   0.829 -0.2311  0.6318  0.3388
   88DMF     H4 1542   1.859   0.967   0.730 -0.9319  0.8432  1.7640
   88DMF     H5 1543   1.965   1.078   0.636 -1.6547  1.1727 -0.7191
   88DMF     H6 1544   1.814   1.133   0.700  0.6006  0.8638  0.3411
   88DMF     H7 1545   1.973   0.900   0.914  0.6652 -0.2239  1.0733
   89DMF     C1 1546   2.729   1.023   2.739 -0.3222 -0.5611 -0.8569
   89DMF     N1 1547   2.860   1.009   2.807 -0.1991  0.6943 -0.2309
   89DMF     C2 1548   2.857   1.011   2.951 -0.7420  0.1341 -0.2179
   89DMF     C3 1549   2.975   0.987   2.739  0.9013  0.3486  0.0150
   89DMF     O1 1550   2.983   0.987   2.621 -0.0839  0.4712 -0.6148
   89DMF     H1 1551   2.659   1.065   2.812  0.6268 -2.3327  1.1362
   89DMF     H2 1552   2.705   0.924   2.700 -2.0665  0.7671 -3.2542
   89DMF     H3 1553   2.741   1.092   2.655  0.1661 -2.7306 -2.6002
   89DMF     H4 1554   2.958   1.005   2.992 -0.8220 -0.3733 -0.0908
   89DMF     H5 1555   2.797   0.926   2.987  0.9067 -0.9808 -0.0714
   89DMF     H6 1556   2.813   1.103   2.991  0.8359  1.6734 -1.9520
   89DMF     H7 1557   3.070   0.985   2.797  1.7759  0.0925 -1.4085
   90DMF     C1 1558   2.749   2.006   1.448  0.1024  0.2235 -0.1169
   90DMF     N1 1559   2.615   2.057   1.447 -0.4628  0.0882  0.0252
   90DMF     C2 1560   2.508   1.984   1.397  0.2705 -0.0222 -0.2731
   90DMF     C3 1561   2.587   2.176   1.522  0.1839 -0.1038 -0.4029
   90DMF     O1 1562   2.674   2.245   1.577 -0.0229  0.2882 -0.5672
   90DMF     H1 1563   2.817   2.091   1.438 -0.3478  0.7575  1.2194
   90DMF     H2 1564   2.762   1.941   1.361 -0.3676 -0.5485  0.3793
   90DMF     H3 1565   2.765   1.955   1.544 -0.3121 -0.4046 -0.3745
   90DMF     H4 1566   2.501   1.994   1.288 -1.5143  0.9959 -0.0812
   90DMF     H5 1567   2.412   2.021   1.435 -1.2142 -3.5637 -0.4075
   90DMF     H6 1568   2.529   1.880   1.423 -0.4847 -0.2495 -0.5582
   90DMF     H7 1569   2.479   2.194   1.537 -0.0060 -0.3355 -1.4052
   91DMF     C1 1570   0.930   0.351   2.598  0.3191 -0.5866  0.7635
   91DMF     N1 1571   1.069   0.318   2.631  0.1077  0.5096  0.6734
   91DMF     C2 1572   1.179   0.411   2.600  0.2776 -0.3104  0.1265
   91DMF     C3 1573   1.097   0.188   2.669 -0.4970 -0.0800  0.5448
   91DMF     O1 1574   1.020   0.097   2.697  0.6685  0.1564  0.2234
   91DMF     H1 1575   0.907   0.449   2.641  2.8631  0.6536 -0.6256
   91DMF     H2 1576   0.868   0.278   2.653  0.4475 -1.0424  0.3105
   91DMF     H3 1577   0.913   0.343   2.490  1.9224  0.8138  0.3918
   91DMF     H4 1578   1.252   0.371   2.530  1.7598  1.9231  0.3649
   91DMF     H5 1579   1.219   0.444   2.697 -0.3312  0.8771 -0.0135
   91DMF     H6 1580   1.128   0.496   2.552  0.6765 -0.1486 -0.0100
   91DMF     H7 1581   1.206   0.169   2.675 -0.2818  0.5692 -0.9222
   92DMF     C1 1582   2.560   1.580   1.570 -0.0018 -0.1357  0.7570
   92DMF     N1 1583   2.634   1.585   1.440  0.2941 -0.4038 -0.0686
   92DMF     C2 1584   2.557   1.548   1.318 -0.0905  0.3536  0.6484
   92DMF     C3 1585   2.762   1.639   1.421  0.6529  0.2183  0.6342
   92DMF     O1 1586   2.824   1.686   1.515  0.3134 -0.0088  0.0568
   92DMF     H1 1587   2.527   1.477   1.586  1.6418 -1.0165 -1.2965
   92DMF     H2 1588   2.485   1.660   1.569  2.6055  2.4119 -0.7185
   92DMF     H3 1589   2.635   1.597   1.649  0.4179  1.8915 -0.0567
   92DMF     H4 1590   2.531   1.643   1.271 -1.6604 -0.2184  0.3258
   92DMF     H5 1591   2.473   1.480   1.335 -0.4147  0.2041 -1.5126
   92DMF     H6 1592   2.623   1.497   1.247 -1.0222 -0.8329  0.6152
   92DMF     H7 1593   2.789   1.641   1.314 -1.0744  0.8994  0.1942
   93DMF     C1 1594   1.769   0.540   1.554 -0.3798  0.2913  0.8623
   93DMF     N1 1595   1.866   0.643   1.529  0.6002  0.1268  0.0990
   93DMF     C2 1596   1.999   0.601   1.482 -0.4373 -0.1047  0.2348
   93DMF     C3 1597   1.847   0.784   1.542  0.0445 -0.8123  0.0944
   93DMF     O1 1598   1.739   0.840   1.567  0.4735 -0.2361 -0.4837
   93DMF     H1 1599   1.704   0.546   1.466 -0.5972 -4.2730  0.6077
   93DMF     H2 1600   1.718   0.544   1.651 -1.8705  0.3161  0.0890
   93DMF     H3 1601   1.815   0.440   1.546 -0.2709  0.4808 -1.1255
   93DMF     H4 1602   2.071   0.617   1.564  1.1185 -0.8626 -0.9603
   93DMF     H5 1603   2.039   0.662   1.400  3.1822 -1.4590  0.8987
   93DMF     H6 1604   1.997   0.499   1.441 -0.7393  0.4402 -1.1070
   93DMF     H7 1605   1.940   0.840   1.524  0.4080 -0.9733  1.5001
   94DMF     C1 1606   0.889   2.576   1.533  0.1936 -0.5297  0.4740
   94DMF     N1 1607   0.755   2.521   1.559  0.3141  0.3262  0.5298
   94DMF     C2 1608   0.648   2.618   1.555  0.5850 -0.2155 -0.2203
   94DMF     C3 1609   0.728   2.384   1.571  1.0024  0.0001  0.1334
   94DMF     O1 1610   0.822   2.307   1.578 -0.6494 -0.3644 -0.0858
   94DMF     H1 1611   0.963   2.508   1.577  0.2631  0.2207  1.5514
   94DMF     H2 1612   0.893   2.673   1.585  2.0066 -0.8288  0.9310
   94DMF     H3 1613   0.904   2.591   1.426  3.6852  0.6912  1.0905
   94DMF     H4 1614   0.671   2.699   1.624  2.5113  0.9299 -2.1403
   94DMF     H5 1615   0.560   2.570   1.599  0.8847 -2.3025 -1.8023
   94DMF     H6 1616   0.630   2.652   1.452  0.4844  0.2798 -0.0393
   94DMF     H7 1617   0.619   2.369   1.584  0.8293  0.2806 -0.9205
   95DMF     C1 1618   3.007   1.160   0.376  0.2210 -0.3231 -0.0613
   95DMF     N1 1619   3.136   1.162   0.451  0.5014 -0.4943  0.0490
   95DMF     C2 1620   3.212   1.037   0.473 -0.6254  0.0435  0.8404
   95DMF     C3 1621   3.188   1.287   0.489 -0.0220  0.6160 -0.1806
   95DMF     O1 1622   3.122   1.380   0.457  0.2002  0.0653 -0.0401
   95DMF     H1 1623   3.018   1.227   0.290 -1.1151  0.6352  0.5073
   95DMF     H2 1624   2.931   1.202   0.443  0.3586 -0.7802  0.3832
   95DMF     H3 1625   2.983   1.058   0.343 -3.3116  1.0240 -1.9177
   95DMF     H4 1626   3.311   1.058   0.431 -2.4093 -1.0335 -4.2367
   95DMF     H5 1627   3.172   0.957   0.410 -0.3670  1.7837 -1.6140
   95DMF     H6 1628   3.204   1.008   0.579  2.2865 -1.6958  0.6463
   95DMF     H7 1629   3.274   1.290   0.558 -1.9126 -1.0944  2.3053
   96DMF     C1 1630   1.631   0.651   0.095  0.2778 -0.5093  0.2861
   96DMF     N1 1631   1.617   0.527   0.179  0.4117 -0.2929 -0.1296
   96DMF     C2 1632   1.508   0.515   0.289  0.4642 -0.3728 -0.4025
   96DMF     C3 1633   1.692   0.418   0.160 -0.2513  0.1908  0.0745
   96DMF     O1 1634   1.791   0.424   0.085  0.7142 -0.1584 -0.1841
   96DMF     H1 1635   1.601   0.616  -0.004  1.6660 -1.4689  0.2033
   96DMF     H2 1636   1.728   0.700   0.105 -0.5074  1.0152  0.7886
   96DMF     H3 1637   1.548   0.721   0.115 -0.1367 -0.8251 -0.3111
   96DMF     H4 1638   1.451   0.429   0.253 -0.0856  0.3668 -1.3270
   96DMF     H5 1639   1.462   0.614   0.282  1.6204  0.1458 -0.8859
   96DMF     H6 1640   1.542   0.491   0.390 -1.1693 -2.0605 -0.2194
   96DMF     H7 1641   1.676   0.319   0.205  3.7934 -1.1120 -1.1111
   97DMF     C1 1642   0.758   1.043   3.791 -0.1995  0.4553 -0.0846
   97DMF     N1 1643   0.823   1.045   3.925  0.6518  0.0973 -0.7469
   97DMF     C2 1644   0.895   1.165   3.967 -0.2609  0.6417  0.1837
   97DMF     C3 1645   0.798   0.950   4.025 -1.2818  0.1163  0.3227
   97DMF     O1 1646   0.724   0.854   4.005 -0.0767  0.1061 -0.0411
   97DMF     H1 1647   0.812   0.965   3.736 -0.4972  1.0684 -1.2751
   97DMF     H2 1648   0.763   1.143   3.746 -1.1340  0.6723  0.2776
   97DMF     H3 1649   0.654   1.013   3.807  0.0019  0.2572  0.8660
   97DMF     H4 1650   0.918   1.159   4.074  3.9955  1.0184 -0.6176
   97DMF     H5 1651   0.830   1.249   3.941 -1.1157 -0.1220 -0.1706
   97DMF     H6 1652   0.995   1.166   3.923 -0.1051  2.6320  0.5115
   97DMF     H7 1653   0.851   0.969   4.120  1.3349  0.8340 -1.2321
   98DMF     C1 1654   2.175   0.536   1.157 -0.2115  0.4596 -0.4822
   98DMF     N1 1655   2.149   0.407   1.225  0.0405 -0.5348 -0.2297
   98DMF     C2 1656   2.060   0.316   1.162 -0.6171 -0.0120  0.0258
   98DMF     C3 1657   2.224   0.372   1.344 -0.2850 -0.2935 -0.3567
   98DMF     O1 1658   2.315   0.448   1.371 -0.4017  0.5140  0.3414
   98DMF     H1 1659   2.284   0.539   1.147 -0.0145 -0.5698  1.2879
   98DMF     H2 1660   2.141   0.614   1.225 -0.3374 -0.8154  0.9505
   98DMF     H3 1661   2.127   0.534   1.058  2.4362 -1.1086 -1.8128
   98DMF     H4 1662   1.957   0.354   1.155 -0.1883  1.4821  1.4593
   98DMF     H5 1663   2.048   0.224   1.221  3.4355  0.3197  1.4944
   98DMF     H6 1664   2.106   0.277   1.071  0.6595  0.0807  0.6188
   98DMF     H7 1665   2.184   0.298   1.416  1.5832 -1.7383 -0.7632
   99DMF     C1 1666   0.372   1.916   0.311 -0.3843  0.4599  0.0988
   99DMF     N1 1667   0.365   2.032   0.404  0.4900 -0.1754  0.4158
   99DMF     C2 1668   0.395   2.166   0.349 -0.2086 -0.0994 -0.0542
   99DMF     C3 1669   0.358   2.022   0.546 -0.1907  0.1651 -0.3648
   99DMF     O1 1670   0.339   1.909   0.592  0.0050  0.3958  0.6954
   99DMF     H1 1671   0.417   1.936   0.213  0.0002  2.0860  0.6038
   99DMF     H2 1672   0.269   1.884   0.292 -0.4551  0.7363  0.0245
   99DMF     H3 1673   0.434   1.837   0.356 -0.9949  0.3337  0.7289
   99DMF     H4 1674   0.306   2.216   0.389 -0.7356 -0.8203 -0.3059
   99DMF     H5 1675   0.392   2.170   0.239 -0.0168 -2.0067 -0.1369
   99DMF     H6 1676   0.485   2.209   0.393 -0.3092 -1.0906  1.1292
   99DMF     H7 1677   0.357   2.121   0.594  2.9163  0.4253 -0.7392
  100DMF     C1 1678   1.070   3.194   2.825 -0.0334 -0.4303 -0.2477
  100DMF     N1 1679   1.078   3.045   2.832 -0.0285 -0.0311 -0.0423
  100DMF     C2 1680   1.025   2.985   2.956 -0.0403 -0.2235  0.0781
  100DMF     C3 1681   1.148   2.970   2.742 -0.1836  0.2817 -0.4908
  100DMF     O1 1682   1.190   3.020   2.638  0.0714  0.1236 -0.1550
  100DMF     H1 1683   0.993   3.234   2.759  0.0329  0.3678  0.1539
  100DMF     H2 1684   1.168   3.233   2.795 -0.5732  0.6074 -0.6740
  100DMF     H3 1685   1.045   3.226   2.927 -2.0784  0.2884 -0.9520
  100DMF     H4 1686   1.032   2.875   2.958  0.9492 -0.1830 -0.7458
  100DMF     H5 1687   0.918   3.009   2.966 -0.2001 -0.7878 -0.2336
  100DMF     H6 1688   1.068   3.029   3.047  0.7297 -3.1786  1.2044
  100DMF     H7 1689   1.155   2.865   2.775  0.4047  0.4397 -0.0950
  101DMF     C1 1690   0.057   0.319   3.602  0.4071  0.4440 -0.0821
  101DMF     N1 1691  -0.029   0.341   3.721  0.2233  0.2142 -0.3573
  101DMF     C2 1692  -0.176   0.346   3.706 -0.2052 -0.4534  0.5710
  101DMF     C3 1693   0.026   0.350   3.848  0.6230 -0.0267  0.0288
  101DMF     O1 1694   0.143   0.330   3.872 -0.2727 -0.3487 -0.8839
  101DMF     H1 1695   0.162   0.315   3.631  0.2655 -0.9501  0.2990
  101DMF     H2 1696   0.052   0.403   3.532  0.1763  1.4957  1.1862
  101DMF     H3 1697   0.017   0.227   3.557 -1.2883  1.2453 -0.2773
  101DMF     H4 1698  -0.232   0.302   3.790 -0.2586  2.2491  2.0081
  101DMF     H5 1699  -0.202   0.315   3.605 -0.2655 -1.9070  1.0268
  101DMF     H6 1700  -0.191   0.454   3.719 -1.4317 -0.6266  0.5706
  101DMF     H7 1701  -0.045   0.369   3.930  0.1265 -2.3689  0.1677
  102DMF     C1 1702   0.330   1.906   2.660  0.2023 -0.8675 -0.2183
  102DMF     N1 1703   0.425   2.019   2.657  0.0082  0.1019  0.0964
  102DMF     C2 1704   0.376   2.160   2.666 -0.1479  0.1807  0.5224
  102DMF     C3 1705   0.554   1.997   2.615  0.7221  0.1578  0.9200
  102DMF     O1 1706   0.594   1.881   2.613  0.1058 -0.7377  0.1790
  102DMF     H1 1707   0.266   1.911   2.749 -0.0244 -2.0828 -0.3098
  102DMF     H2 1708   0.382   1.810   2.663  1.7828 -0.0641 -1.2834
  102DMF     H3 1709   0.266   1.911   2.571  1.2161  1.9273 -0.8637
  102DMF     H4 1710   0.353   2.192   2.564  0.7290 -1.8132 -0.3241
  102DMF     H5 1711   0.441   2.230   2.720  0.9773  2.5605 -3.6762
  102DMF     H6 1712   0.284   2.163   2.726 -0.1103  0.1422  0.5827
  102DMF     H7 1713   0.611   2.090   2.599  1.2637 -0.4262 -0.6046
  103DMF     C1 1714   2.889   3.181   0.705 -0.4986 -0.1581  0.7757
  103DMF     N1 1715   2.806   3.183   0.830 -0.5011  0.1323 -0.4281
  103DMF     C2 1716   2.702   3.079   0.843  0.1967 -0.3495 -0.8820
  103DMF     C3 1717   2.820   3.284   0.929 -0.6413 -0.0388  0.0880
  103DMF     O1 1718   2.909   3.367   0.924 -0.4089  0.1629  0.1961
  103DMF     H1 1719   2.834   3.132   0.623 -0.4423  1.8058 -0.4929
  103DMF     H2 1720   2.979   3.118   0.709  1.8355  3.0032  0.2494
  103DMF     H3 1721   2.918   3.281   0.670  0.3882 -0.8983 -0.6298
  103DMF     H4 1722   2.671   3.057   0.740  0.9666 -1.8519 -0.8113
  103DMF     H5 1723   2.623   3.115   0.910 -1.2017 -2.0918 -1.5803
  103DMF     H6 1724   2.741   2.985   0.884  4.4450  2.1066  1.0667
  103DMF     H7 1725   2.755   3.273   1.017  2.1109  0.1048  2.1900
  104DMF     C1 1726   1.624   1.845   0.104  0.4275  0.3995 -0.5675
  104DMF     N1 1727   1.589   1.984   0.099 -0.0246 -0.3789  0.4594
  104DMF     C2 1728   1.466   2.029   0.156  0.2650 -0.2012  0.5770
  104DMF     C3 1729   1.693   2.080   0.077 -0.4089  0.1892 -0.3280
  104DMF     O1 1730   1.805   2.052   0.043 -0.2821  0.6379  0.0024
  104DMF     H1 1731   1.729   1.825   0.127  0.2239  1.2698  1.1873
  104DMF     H2 1732   1.599   1.801   0.007  1.6382  2.8896 -2.0546
  104DMF     H3 1733   1.561   1.795   0.178 -1.2676  2.4815 -0.5492
  104DMF     H4 1734   1.433   2.116   0.098 -3.2117 -2.0308 -0.3428
  104DMF     H5 1735   1.483   2.063   0.259 -0.0133 -0.2331  0.6328
  104DMF     H6 1736   1.388   1.955   0.133  0.7376 -0.4597 -0.2148
  104DMF     H7 1737   1.661   2.184   0.099 -1.3549 -0.4632  1.5000
  105DMF     C1 1738   2.587   0.977   1.110 -0.6077  0.4517 -0.6347
  105DMF     N1 1739   2.685   0.982   0.992  0.3106 -0.4837  0.0691
  105DMF     C2 1740   2.730   0.850   0.946 -0.5725  0.2008  0.1155
  105DMF     C3 1741   2.720   1.109   0.933 -0.0057  0.5167  0.5405
  105DMF     O1 1742   2.675   1.211   0.975  0.1707 -0.2082  0.2069
  105DMF     H1 1743   2.565   0.872   1.134 -1.6219  0.6022 -0.8811
  105DMF     H2 1744   2.496   1.019   1.064 -0.6360 -0.2317 -1.2115
  105DMF     H3 1745   2.611   1.033   1.201 -3.7030  2.1490 -0.7624
  105DMF     H4 1746   2.829   0.860   0.900 -0.7304  1.0205 -0.0607
  105DMF     H5 1747   2.645   0.816   0.885  0.0824  0.4613 -0.9634
  105DMF     H6 1748   2.744   0.782   1.031  0.8075  1.6847  1.0951
  105DMF     H7 1749   2.793   1.107   0.849  0.2216 -3.0895  0.7410
  106DMF     C1 1750   1.973   3.411   2.240  0.0995  0.7274 -0.1772
  106DMF     N1 1751   2.012   3.311   2.347  0.3193 -0.2162 -0.1345
  106DMF     C2 1752   2.096   3.353   2.464 -0.8661 -0.2520 -0.3408
  106DMF     C3 1753   1.983   3.174   2.328 -0.9196  0.5654 -0.1827
  106DMF     O1 1754   1.913   3.127   2.241  0.2350 -0.0426  0.0314
  106DMF     H1 1755   1.927   3.502   2.281 -0.4885  0.8633 -1.1125
  106DMF     H2 1756   1.900   3.362   2.173 -1.1750  1.8241  0.3785
  106DMF     H3 1757   2.060   3.432   2.178  1.8996 -0.5153  1.8756
  106DMF     H4 1758   2.190   3.399   2.432 -0.3952 -1.4970 -0.7388
  106DMF     H5 1759   2.120   3.266   2.526  3.2994 -1.3589 -3.3157
  106DMF     H6 1760   2.042   3.434   2.515  1.5907  1.2483 -0.0426
  106DMF     H7 1761   2.031   3.118   2.411  0.1552  1.1276 -0.4188
  107DMF     C1 1762   2.981   1.865   1.163 -0.4999 -0.5198 -1.3465
  107DMF     N1 1763   3.055   1.871   1.043  0.3863  0.3033 -0.3163
  107DMF     C2 1764   3.148   1.977   1.027 -0.0920 -0.3768 -0.6046
  107DMF     C3 1765   3.050   1.771   0.946  0.7922 -0.5316 -0.0151
  107DMF     O1 1766   2.965   1.681   0.963 -0.3724  0.0727 -0.0404
  107DMF     H1 1767   2.882   1.820   1.150 -0.7781  0.0356 -1.1705
  107DMF     H2 1768   2.979   1.965   1.208  0.0180 -1.1431  0.0889
  107DMF     H3 1769   3.040   1.803   1.231  0.6431 -0.7992 -2.5829
  107DMF     H4 1770   3.246   1.929   1.025 -1.0186 -2.4319  1.4744
  107DMF     H5 1771   3.147   2.035   1.120 -1.3733 -2.0246  0.4301
  107DMF     H6 1772   3.125   2.045   0.943 -1.1976 -0.0070 -0.0191
  107DMF     H7 1773   3.109   1.786   0.854 -1.7406 -3.3066 -2.2060
  108DMF     C1 1774   0.912   0.026   3.049 -0.1742 -0.0423 -0.0154
  108DMF     N1 1775   0.824  -0.048   3.147 -0.4602  0.6255 -0.3425
  108DMF     C2 1776   0.699   0.028   3.188  1.2121  0.6972  0.0105
  108DMF     C3 1777   0.875  -0.152   3.227  0.1160  1.7767 -0.2397
  108DMF     O1 1778   0.981  -0.203   3.204  0.0506  0.5858  0.2166
  108DMF     H1 1779   1.017  -0.008   3.042  0.1435  0.8516  0.3187
  108DMF     H2 1780   0.916   0.132   3.078 -2.1480  0.4301 -1.4414
  108DMF     H3 1781   0.869   0.018   2.949 -0.6447 -0.4893  0.2206
  108DMF     H4 1782   0.723   0.106   3.261 -0.4690 -0.3983  1.7744
  108DMF     H5 1783   0.614  -0.033   3.221  1.4398  0.3875  0.0249
  108DMF     H6 1784   0.667   0.074   3.093  0.0211  0.4601  0.2929
  108DMF     H7 1785   0.808  -0.175   3.311  2.2851 -1.0339  0.8015
  109DMF     C1 1786   1.296   3.277   1.060  0.5090 -0.7434 -0.0966
  109DMF     N1 1787   1.407   3.221   0.976  0.1895  0.2238  0.6400
  109DMF     C2 1788   1.462   3.297   0.859 -0.3055  0.2563  0.3348
  109DMF     C3 1789   1.474   3.101   1.009  0.4164  0.6738  0.1257
  109DMF     O1 1790   1.462   3.036   1.113 -0.2982  0.5873 -0.0264
  109DMF     H1 1791   1.311   3.255   1.166 -2.6113 -0.4579  0.4424
  109DMF     H2 1792   1.195   3.244   1.032 -0.1827  2.1688 -1.2435
  109DMF     H3 1793   1.291   3.385   1.041  0.6100 -1.2457 -3.2559
  109DMF     H4 1794   1.521   3.229   0.796  0.8778  0.5233  1.1358
  109DMF     H5 1795   1.533   3.376   0.887 -0.0050  0.0728  0.0825
  109DMF     H6 1796   1.376   3.331   0.799 -1.0928 -2.1105  0.0797
  109DMF     H7 1797   1.539   3.067   0.926  0.5654  1.4925 -0.0929
  110DMF     C1 1798   3.086   3.423   2.922  0.2379 -0.7339  0.6621
  110DMF     N1 1799   2.985   3.439   2.810 -0.8593  0.3291 -0.3139
  110DMF     C2 1800   2.863   3.507   2.854 -0.8751  0.3736 -0.8498
  110DMF     C3 1801   3.009   3.394   2.679  0.2340 -0.4712 -0.0483
  110DMF     O1 1802   3.110   3.329   2.645  0.1596  0.2828  0.4626
  110DMF     H1 1803   3.041   3.382   3.013 -0.1633 -0.1366  0.7370
  110DMF     H2 1804   3.133   3.521   2.940 -0.1891 -0.3312 -0.3629
  110DMF     H3 1805   3.156   3.348   2.884  1.4116  0.3124  0.7124
  110DMF     H4 1806   2.782   3.435   2.872  1.5959 -2.4908 -0.7676
  110DMF     H5 1807   2.832   3.572   2.771  1.1238  1.4157 -0.8171
  110DMF     H6 1808   2.882   3.560   2.948  2.9623 -0.4174 -1.1191
  110DMF     H7 1809   2.929   3.424   2.609  0.6257 -0.6290 -0.5608
  111DMF     C1 1810   1.837   0.107   1.495  0.1220  0.8878  0.4540
  111DMF     N1 1811   1.709   0.069   1.556  0.0518 -0.8887  0.1866
  111DMF     C2 1812   1.590   0.158   1.548 -0.1988  0.8560 -0.1480
  111DMF     C3 1813   1.690  -0.067   1.580 -0.4776  0.2990  0.2259
  111DMF     O1 1814   1.781  -0.149   1.568  0.2541 -0.2447 -0.0705
  111DMF     H1 1815   1.842   0.084   1.387  0.5502 -0.6462  0.7797
  111DMF     H2 1816   1.923   0.058   1.542  0.8433  0.4248 -1.2799
  111DMF     H3 1817   1.847   0.215   1.511 -1.5442  1.5538 -2.6267
  111DMF     H4 1818   1.623   0.263   1.550  0.8127  0.5322  0.3649
  111DMF     H5 1819   1.524   0.136   1.632  0.4348 -0.6018 -0.0227
  111DMF     H6 1820   1.530   0.138   1.458 -2.3643 -1.7982  1.8034
  111DMF     H7 1821   1.588  -0.093   1.613 -1.3614  1.7896 -1.2924
  112DMF     C1 1822   0.807   1.043   0.837 -0.0154  0.1429 -0.2273
  112DMF     N1 1823   0.704   1.130   0.893  0.4353  0.4910  0.0468
  112DMF     C2 1824   0.577   1.157   0.821  0.9111 -0.0207  0.0953
  112DMF     C3 1825   0.720   1.174   1.026 -0.9203  0.4333 -0.5726
  112DMF     O1 1826   0.814   1.145   1.099 -0.0929 -0.1953 -0.0833
  112DMF     H1 1827   0.803   0.948   0.891  0.1796 -0.2715 -0.9259
  112DMF     H2 1828   0.901   1.096   0.857 -0.4068  0.3632  1.0166
  112DMF     H3 1829   0.776   1.032   0.732  0.3391 -0.4127 -0.2747
  112DMF     H4 1830   0.544   1.068   0.767 -2.2940  0.3662  1.3082
  112DMF     H5 1831   0.599   1.244   0.757  1.2772 -0.7522 -0.7909
  112DMF     H6 1832   0.505   1.204   0.889 -0.9376 -2.1007 -0.3503
  112DMF     H7 1833   0.635   1.236   1.060  0.4682  0.6997  2.5730
  113DMF     C1 1834   3.107   2.124   0.689  0.4818 -0.4437 -0.7349
  113DMF     N1 1835   2.971   2.094   0.703 -0.2744 -0.6016 -0.4627
  113DMF     C2 1836   2.876   2.202   0.736 -0.3582  0.5471 -0.1220
  113DMF     C3 1837   2.930   1.976   0.645  0.1926  0.0721 -0.2729
  113DMF     O1 1838   3.002   1.885   0.604 -0.2104  0.0395  0.1090
  113DMF     H1 1839   3.132   2.122   0.582 -0.3586 -0.3706 -0.9408
  113DMF     H2 1840   3.157   2.036   0.731  0.0558  0.2292  1.2473
  113DMF     H3 1841   3.139   2.215   0.741  3.0945 -3.3984  3.0713
  113DMF     H4 1842   2.815   2.165   0.819 -0.5229  0.1473 -0.4196
  113DMF     H5 1843   2.809   2.233   0.655 -2.3009  0.5465  1.4392
  113DMF     H6 1844   2.928   2.294   0.766  0.4200  1.4392 -4.0348
  113DMF     H7 1845   2.820   1.965   0.656  0.2026 -0.6301 -0.7942
  114DMF     C1 1846   2.400   3.044   0.454  0.3538 -0.0774 -0.4251
  114DMF     N1 1847   2.513   3.135   0.448  0.2709 -0.1935  0.6393
  114DMF     C2 1848   2.603   3.139   0.333 -0.4231 -0.1388 -0.3618
  114DMF     C3 1849   2.556   3.219   0.554  0.3989  0.1087  0.1219
  114DMF     O1 1850   2.487   3.228   0.659  0.7186  0.5090  0.5979
  114DMF     H1 1851   2.319   3.068   0.384  0.2625  0.7569 -0.0478
  114DMF     H2 1852   2.348   3.040   0.551 -1.8234 -0.5934 -1.5912
  114DMF     H3 1853   2.430   2.942   0.428  1.7299 -0.0644  1.0302
  114DMF     H4 1854   2.626   3.246   0.318  1.9048 -0.5616 -0.0672
  114DMF     H5 1855   2.547   3.101   0.247 -2.2458 -2.7007  1.9082
  114DMF     H6 1856   2.688   3.070   0.342 -2.1090 -2.0514  1.0650
  114DMF     H7 1857   2.648   3.280   0.547 -0.5920  1.4846 -1.2394
  115DMF     C1 1858   2.795   2.302   2.978 -0.5182  0.0219  0.2177
  115DMF     N1 1859   2.660   2.264   2.934 -0.3988  0.5253  0.0374
  115DMF     C2 1860   2.635   2.157   2.841 -0.3472  0.2114 -0.1365
  115DMF     C3 1861   2.549   2.339   2.980  0.0574 -0.5867  0.2661
  115DMF     O1 1862   2.559   2.449   3.030  0.1697 -0.0667 -0.0338
  115DMF     H1 1863   2.860   2.229   2.927 -0.3335 -0.5508  1.2498
  115DMF     H2 1864   2.809   2.296   3.086  2.2737  1.0998 -0.0373
  115DMF     H3 1865   2.831   2.396   2.935 -0.3866 -0.6859 -1.2869
  115DMF     H4 1866   2.540   2.174   2.789 -0.3873  1.7765  0.4113
  115DMF     H5 1867   2.643   2.058   2.886 -1.1229  0.0560 -0.3335
  115DMF     H6 1868   2.711   2.165   2.762  1.4273 -1.2022  1.4117
  115DMF     H7 1869   2.452   2.287   2.970  0.2795 -0.9906  0.1915
  116DMF     C1 1870   0.048   2.221   3.415  0.2681 -0.2998 -0.6567
  116DMF     N1 1871   0.083   2.080   3.448 -0.2026  0.4225  0.3522
  116DMF     C2 1872   0.227   2.049   3.480  0.3852  0.2061  0.4360
  116DMF     C3 1873  -0.011   1.983   3.450 -0.2902  0.2141  0.2297
  116DMF     O1 1874  -0.126   2.007   3.425  0.7872 -1.0472 -0.3281
  116DMF     H1 1875  -0.059   2.238   3.399 -0.3695 -2.5279  1.0619
  116DMF     H2 1876   0.096   2.250   3.321  1.7479 -0.4680  0.0346
  116DMF     H3 1877   0.079   2.282   3.501  1.6317 -0.3225 -1.1321
  116DMF     H4 1878   0.248   2.087   3.581 -0.4671  3.3284 -0.4895
  116DMF     H5 1879   0.294   2.109   3.417 -1.7856  1.1223 -1.0712
  116DMF     H6 1880   0.242   1.941   3.467 -1.9110 -0.1123  0.1620
  116DMF     H7 1881   0.029   1.885   3.482  1.0508 -0.2724 -2.8367
  117DMF     C1 1882   0.152   0.187   1.136  0.3403 -0.4919 -0.1778
  117DMF     N1 1883   0.257   0.296   1.155  0.9326 -0.3390  0.1804
  117DMF     C2 1884   0.226   0.409   1.235  0.4959  0.7633  0.4280
  117DMF     C3 1885   0.387   0.268   1.117 -0.3111 -0.1030 -0.4441
  117DMF     O1 1886   0.423   0.160   1.071  0.2994  0.3985 -0.0024
  117DMF     H1 1887   0.191   0.086   1.157  0.0790 -0.8881 -1.5450
  117DMF     H2 1888   0.102   0.204   1.041  0.9506 -0.2938 -0.4652
  117DMF     H3 1889   0.080   0.203   1.217 -0.5252  0.5031 -1.1536
  117DMF     H4 1890   0.232   0.381   1.341 -1.3943 -0.4493  0.2362
  117DMF     H5 1891   0.124   0.446   1.220 -0.1617 -0.0523  2.6859
  117DMF     H6 1892   0.294   0.491   1.209 -0.4656  1.3097 -0.3823
  117DMF     H7 1893   0.450   0.358   1.116 -0.2176 -0.1723 -1.2619
  118DMF     C1 1894   3.055   0.069   2.291  0.1205 -0.2809  0.4885
  118DMF     N1 1895   2.978   0.194   2.264 -0.0397  0.3695 -0.0910
  118DMF     C2 1896   3.048   0.325   2.290  0.3410  0.7070 -0.2703
  118DMF     C3 1897   2.849   0.193   2.215 -0.7135 -1.2413  0.6196
  118DMF     O1 1898   2.780   0.093   2.204 -0.2484  0.1691  0.6173
  118DMF     H1 1899   3.162   0.095   2.287  0.0594 -0.0615  0.2943
  118DMF     H2 1900   3.035  -0.003   2.211 -0.3627  0.5298 -0.1379
  118DMF     H3 1901   3.018   0.029   2.386  1.4242 -0.4537  0.9427
  118DMF     H4 1902   3.061   0.392   2.204  1.5184  1.6394  0.6167
  118DMF     H5 1903   3.153   0.305   2.313 -0.4829 -0.4291  2.7072
  118DMF     H6 1904   2.998   0.364   2.380  2.6857  0.5649  1.1137
  118DMF     H7 1905   2.810   0.295   2.201 -1.1933 -1.7210 -1.7472
  119DMF     C1 1906   2.455   1.047   0.565  0.0557 -0.4103 -0.1886
  119DMF     N1 1907   2.371   0.951   0.640  0.1196  0.2177  0.7598
  119DMF     C2 1908   2.397   0.941   0.781  0.0688 -0.1830  0.2131
  119DMF     C3 1909   2.291   0.872   0.568  0.6482  0.1217 -0.4803
  119DMF     O1 1910   2.275   0.875   0.449  0.3192  0.4152  0.5748
  119DMF     H1 1911   2.408   1.098   0.480  2.5547 -0.3224 -1.5856
  119DMF     H2 1912   2.548   1.001   0.528  1.6732  1.9537  0.7681
  119DMF     H3 1913   2.492   1.123   0.635 -2.3193 -0.1916  0.8653
  119DMF     H4 1914   2.452   1.033   0.807 -0.8916  0.3419  0.3941
  119DMF     H5 1915   2.454   0.848   0.793  3.3348  1.8284  1.1772
  119DMF     H6 1916   2.305   0.931   0.840 -0.4121 -0.1581 -0.5349
  119DMF     H7 1917   2.237   0.803   0.636 -0.3813  0.9056 -0.5002
  120DMF     C1 1918   1.723   2.548   2.884  0.2086  0.0572 -0.3525
  120DMF     N1 1919   1.764   2.542   2.746 -0.1256  0.1249  0.8447
  120DMF     C2 1920   1.726   2.432   2.664 -0.0621  0.2413 -0.3640
  120DMF     C3 1921   1.841   2.645   2.694 -0.8751 -0.6978 -0.1287
  120DMF     O1 1922   1.900   2.724   2.766  0.3321 -0.0511 -0.1347
  120DMF     H1 1923   1.649   2.628   2.896  3.4528  2.9463  1.1689
  120DMF     H2 1924   1.799   2.565   2.961  0.3001 -2.1771  0.0906
  120DMF     H3 1925   1.676   2.452   2.911 -1.6957  1.3052  0.9006
  120DMF     H4 1926   1.799   2.350   2.673 -0.4746 -0.0362  0.5328
  120DMF     H5 1927   1.705   2.476   2.566  2.0469  2.2101  0.0232
  120DMF     H6 1928   1.637   2.389   2.712 -0.5167  0.5969 -0.8879
  120DMF     H7 1929   1.857   2.654   2.585  2.1161  2.1229  0.4756
  121DMF     C1 1930   2.411   0.541   0.704  0.2832  0.5154 -0.1552
  121DMF     N1 1931   2.404   0.479   0.836  0.7312  0.1554  0.9202
  121DMF     C2 1932   2.293   0.382   0.867  0.2532  0.2950  0.3014
  121DMF     C3 1933   2.511   0.493   0.924  0.1544  0.0140 -0.1717
  121DMF     O1 1934   2.609   0.562   0.896  0.0029 -0.5397 -0.1187
  121DMF     H1 1935   2.481   0.625   0.710  2.0020 -0.9664  0.9762
  121DMF     H2 1936   2.319   0.590   0.669  1.3186  0.9038 -2.4587
  121DMF     H3 1937   2.440   0.459   0.636  3.0331  0.3259  1.1778
  121DMF     H4 1938   2.197   0.434   0.879 -0.2906 -0.8913  1.1480
  121DMF     H5 1939   2.319   0.333   0.962 -1.9242  3.0032  2.3892
  121DMF     H6 1940   2.284   0.312   0.784  2.6201 -2.5627  2.3521
  121DMF     H7 1941   2.491   0.442   1.019  0.1384  2.7332  1.3428
  122DMF     C1 1942   1.846   1.184   0.372  0.2853  0.4926  0.0450
  122DMF     N1 1943   1.969   1.125   0.319 -0.9319  0.1499  0.0276
  122DMF     C2 1944   2.102   1.178   0.357 -0.2723 -0.6778  0.0343
  122DMF     C3 1945   1.954   1.020   0.228 -0.1134 -0.4817 -0.6504
  122DMF     O1 1946   1.851   0.976   0.182 -0.2411  0.5207  0.0869
  122DMF     H1 1947   1.759   1.118   0.369  1.4402 -1.0458 -0.0287
  122DMF     H2 1948   1.833   1.280   0.319 -2.4323  0.0644 -0.1557
  122DMF     H3 1949   1.862   1.192   0.480 -1.9800 -3.5644  0.7673
  122DMF     H4 1950   2.138   1.266   0.302 -0.5047  0.2839  1.3941
  122DMF     H5 1951   2.178   1.099   0.352  0.9630  0.5792 -1.8815
  122DMF     H6 1952   2.097   1.213   0.461  2.1881 -2.4039  0.7730
  122DMF     H7 1953   2.052   0.973   0.211  1.6485  1.6508  2.8917
  123DMF     C1 1954   2.225   3.363   1.082 -0.5403 -0.4076  0.3829
  123DMF     N1 1955   2.303   3.391   0.959  0.8207 -0.2310 -0.2557
  123DMF     C2 1956   2.235   3.455   0.849 -0.2053 -0.3712 -0.0062
  123DMF     C3 1957   2.435   3.353   0.948 -0.4118 -0.4044 -0.4277
  123DMF     O1 1958   2.498   3.293   1.033 -0.2122 -0.3316 -0.4017
  123DMF     H1 1959   2.279   3.301   1.154  0.8516 -0.9075 -1.0565
  123DMF     H2 1960   2.130   3.318   1.051 -0.6916  0.3759 -0.3073
  123DMF     H3 1961   2.209   3.460   1.131 -0.3017 -0.1482 -0.0475
  123DMF     H4 1962   2.160   3.526   0.888 -1.1377 -1.7540  0.7463
  123DMF     H5 1963   2.193   3.370   0.794 -0.5060 -0.7071  0.7337
  123DMF     H6 1964   2.315   3.511   0.800 -0.9579  3.0527  2.4746
  123DMF     H7 1965   2.474   3.379   0.848  1.7699  1.4243  0.8545
  124DMF     C1 1966   1.878   2.948   0.492 -0.3166 -0.8810  0.3146
  124DMF     N1 1967   1.980   2.902   0.398  0.0982  0.3128 -0.2378
  124DMF     C2 1968   1.977   2.953   0.264  0.4759  0.3481  0.4557
  124DMF     C3 1969   2.086   2.812   0.439 -0.5880  1.6272 -0.6649
  124DMF     O1 1970   2.091   2.765   0.555  0.0639  0.0116  0.2386
  124DMF     H1 1971   1.852   2.867   0.561  1.5750  0.2390  2.4376
  124DMF     H2 1972   1.787   2.984   0.444 -0.5056 -1.4545  0.2478
  124DMF     H3 1973   1.932   3.018   0.557 -1.6987  0.5248 -0.0168
  124DMF     H4 1974   1.903   2.898   0.204  1.7645 -1.6796  0.7193
  124DMF     H5 1975   2.076   2.946   0.218 -0.7417 -2.3597 -1.9014
  124DMF     H6 1976   1.947   3.059   0.262  0.0330  0.2044 -1.0578
  124DMF     H7 1977   2.158   2.784   0.360 -0.1537 -1.5704  0.7915
  125DMF     C1 1978   0.239   1.299   3.172 -0.3556  0.6788  0.8073
  125DMF     N1 1979   0.257   1.425   3.244 -0.2727 -0.0240 -0.1740
  125DMF     C2 1980   0.384   1.504   3.245  0.4739  0.6298 -1.0249
  125DMF     C3 1981   0.150   1.487   3.310  0.6037  0.1701  0.5842
  125DMF     O1 1982   0.043   1.434   3.317 -0.1520  0.1142  0.1154
  125DMF     H1 1983   0.333   1.242   3.165  0.1710  1.4246  1.7881
  125DMF     H2 1984   0.186   1.321   3.079  0.4308 -0.4771  0.0651
  125DMF     H3 1985   0.180   1.233   3.237 -1.7141  1.0460 -0.0263
  125DMF     H4 1986   0.378   1.579   3.325  1.2303  0.7522 -1.0821
  125DMF     H5 1987   0.395   1.556   3.149  0.1069 -1.8493 -2.4582
  125DMF     H6 1988   0.471   1.441   3.265  0.4335  0.7681 -0.4259
  125DMF     H7 1989   0.175   1.577   3.370 -0.9788  0.8831  0.1912
  126DMF     C1 1990   0.455   1.606   0.763 -1.1328  0.3487  0.1600
  126DMF     N1 1991   0.432   1.635   0.899  0.3352 -0.2608 -0.3325
  126DMF     C2 1992   0.354   1.757   0.935 -0.4569 -0.9035  0.0000
  126DMF     C3 1993   0.477   1.558   1.001 -0.3754  0.8309  0.2757
  126DMF     O1 1994   0.531   1.453   0.975  0.3238 -0.1911  0.0951
  126DMF     H1 1995   0.541   1.539   0.752 -0.2258  1.3414  1.0844
  126DMF     H2 1996   0.473   1.694   0.701  0.6821  0.5596  0.9557
  126DMF     H3 1997   0.365   1.556   0.725  0.2927 -0.9964 -1.5330
  126DMF     H4 1998   0.340   1.758   1.044  1.8603  1.5412  0.3018
  126DMF     H5 1999   0.257   1.736   0.887 -0.6316 -1.6551  0.6576
  126DMF     H6 2000   0.409   1.838   0.886  0.1168 -0.0769  1.9724
  126DMF     H7 2001   0.454   1.597   1.102 -1.4404  0.6048  0.1256
  127DMF     C1 2002   0.226   1.094   0.297 -0.3371 -0.2140  0.5734
  127DMF     N1 2003   0.331   0.992   0.309 -0.3522  0.4864 -0.8389
  127DMF     C2 2004   0.284   0.852   0.317  0.4071 -0.1718 -0.4874
  127DMF     C3 2005   0.464   1.037   0.313 -0.1425  0.0253 -0.4969
  127DMF     O1 2006   0.492   1.154   0.324  0.2651 -0.3230 -0.3320
  127DMF     H1 2007   0.131   1.047   0.271  0.1702 -0.4055 -0.9743
  127DMF     H2 2008   0.265   1.155   0.215 -1.3502 -0.2471  0.0645
  127DMF     H3 2009   0.227   1.148   0.393  1.8272 -0.9362  0.9867
  127DMF     H4 2010   0.273   0.826   0.423 -1.0847  0.1103 -0.5650
  127DMF     H5 2011   0.349   0.784   0.261  0.9971 -1.3239  1.5629
  127DMF     H6 2012   0.187   0.845   0.266  1.3292 -0.7885 -2.2280
  127DMF     H7 2013   0.534   0.952   0.318  1.6289  1.4466 -0.7583
  128DMF     C1 2014   0.752   2.082   0.335 -0.8064  0.3737 -0.7410
  128DMF     N1 2015   0.792   2.022   0.205 -0.9453  0.5260 -0.3795
  128DMF     C2 2016   0.862   1.893   0.208 -0.4350 -0.3817  0.2377
  128DMF     C3 2017   0.734   2.059   0.079 -0.1789 -0.3521 -0.0021
  128DMF     O1 2018   0.642   2.139   0.071  0.0229  0.1827  0.2341
  128DMF     H1 2019   0.821   2.162   0.365 -1.2693  0.1421  0.9771
  128DMF     H2 2020   0.760   2.000   0.407  2.4796  1.2137 -0.0692
  128DMF     H3 2021   0.649   2.118   0.333 -0.5939  1.1385  1.3872
  128DMF     H4 2022   0.930   1.887   0.294  2.2587  1.3155 -1.6977
  128DMF     H5 2023   0.921   1.870   0.118  0.2857 -0.5505  0.7461
  128DMF     H6 2024   0.776   1.825   0.212 -1.9418  1.5413  1.3704
  128DMF     H7 2025   0.777   2.009  -0.009  0.8484  0.8109 -0.1637
  129DMF     C1 2026   3.266   3.258   2.297 -0.6067  0.5702  0.0433
  129DMF     N1 2027   3.256   3.110   2.278  0.1295  0.7907  0.0148
  129DMF     C2 2028   3.126   3.048   2.309 -0.2890  0.5750  0.2233
  129DMF     C3 2029   3.365   3.036   2.238 -0.0665 -0.1255 -0.5908
  129DMF     O1 2030   3.474   3.088   2.244 -0.3247  0.1902 -0.5774
  129DMF     H1 2031   3.236   3.317   2.209 -1.3008  0.5658  0.2756
  129DMF     H2 2032   3.368   3.276   2.335 -0.9892  0.3843  1.1826
  129DMF     H3 2033   3.208   3.283   2.387  0.4103  0.6647  0.6775
  129DMF     H4 2034   3.087   3.003   2.217  1.4841  0.6926 -0.6068
  129DMF     H5 2035   3.048   3.114   2.348 -1.1239  0.2145 -0.7961
  129DMF     H6 2036   3.146   2.968   2.381  0.2190 -1.3973 -2.0252
  129DMF     H7 2037   3.351   2.931   2.207 -3.8487 -0.4634  2.0088
  130DMF     C1 2038   0.924   1.186   2.816  0.1452  0.2412  0.1328
  130DMF     N1 2039   0.803   1.199   2.733 -0.3631  0.4008 -0.5145
  130DMF     C2 2040   0.679   1.133   2.779  0.4948 -0.9445 -0.2710
  130DMF     C3 2041   0.816   1.237   2.597 -0.1919  0.1848  0.7685
  130DMF     O1 2042   0.921   1.249   2.545 -0.3364 -0.0969 -0.4375
  130DMF     H1 2043   0.897   1.149   2.915  0.0058 -0.2042 -0.0702
  130DMF     H2 2044   0.978   1.281   2.828  2.8876 -1.3202  0.2941
  130DMF     H3 2045   0.994   1.112   2.776  0.4207  1.1541 -1.1301
  130DMF     H4 2046   0.694   1.025   2.769 -2.6945 -1.8488  3.4264
  130DMF     H5 2047   0.591   1.171   2.726 -0.0606 -0.1991  1.1676
  130DMF     H6 2048   0.657   1.138   2.886 -1.1257  2.6904 -0.7193
  130DMF     H7 2049   0.720   1.228   2.544  1.1097  0.2050 -1.6419
  131DMF     C1 2050   1.461   0.380   3.714  0.0503 -0.1060 -0.4921
  131DMF     N1 2051   1.457   0.252   3.643 -0.1726  0.6335 -0.0477
  131DMF     C2 2052   1.533   0.241   3.516  0.5301  0.6587  0.0982
  131DMF     C3 2053   1.373   0.153   3.672 -0.3367  0.4623 -0.2484
  131DMF     O1 2054   1.299   0.163   3.773 -0.1439  0.1489  1.1498
  131DMF     H1 2055   1.561   0.423   3.708  1.2926 -2.7110  0.7998
  131DMF     H2 2056   1.450   0.351   3.819  1.4389 -3.1927 -1.1175
  131DMF     H3 2057   1.377   0.441   3.679  1.2361  0.7359 -1.9447
  131DMF     H4 2058   1.538   0.345   3.481  0.0215 -0.4845 -3.5520
  131DMF     H5 2059   1.494   0.165   3.446 -0.9181  1.4416  0.0271
  131DMF     H6 2060   1.633   0.202   3.539  0.6049  0.2998 -0.8179
  131DMF     H7 2061   1.366   0.069   3.601 -0.5196  0.0468  0.2589
  132DMF     C1 2062   1.187   2.472   1.305  0.6101 -0.5082 -0.5572
  132DMF     N1 2063   1.214   2.469   1.449  0.2331  0.2198  0.0870
  132DMF     C2 2064   1.175   2.357   1.528 -0.5399  0.1434  0.1958
  132DMF     C3 2065   1.260   2.581   1.513  0.0511  0.1375 -0.9331
  132DMF     O1 2066   1.294   2.680   1.450  1.1860 -0.1308  0.3123
  132DMF     H1 2067   1.143   2.562   1.260  1.7150 -0.6525 -1.9696
  132DMF     H2 2068   1.120   2.387   1.283  0.6036 -0.6143 -0.1409
  132DMF     H3 2069   1.281   2.451   1.252  1.3898 -0.4888  0.7966
  132DMF     H4 2070   1.163   2.386   1.634 -3.1412  2.3478 -0.6488
  132DMF     H5 2071   1.256   2.283   1.522  0.9616  1.5839  1.8351
  132DMF     H6 2072   1.089   2.310   1.479 -0.2554 -1.4530  1.1858
  132DMF     H7 2073   1.277   2.564   1.621  0.7123 -1.3571 -1.2544
  133DMF     C1 2074   1.956   1.948   1.575  0.5623 -0.1696  0.1389
  133DMF     N1 2075   2.007   2.083   1.560  0.2880 -0.1509 -0.3466
  133DMF     C2 2076   1.919   2.190   1.511 -0.1471  0.2742  0.4681
  133DMF     C3 2077   2.147   2.106   1.566  1.2987 -0.8434 -0.4167
  133DMF     O1 2078   2.222   2.012   1.571 -0.4024 -0.2077 -0.1746
  133DMF     H1 2079   2.010   1.899   1.657 -1.9215 -1.1335  1.2339
  133DMF     H2 2080   1.948   1.900   1.477  0.9300  0.9655 -0.4519
  133DMF     H3 2081   1.855   1.965   1.614  1.6091  2.2605  1.9732
  133DMF     H4 2082   1.931   2.186   1.402 -0.7681 -0.4427  0.4261
  133DMF     H5 2083   1.946   2.286   1.556 -0.1463  0.0773  0.8830
  133DMF     H6 2084   1.816   2.173   1.544  0.4497 -3.3486  0.5921
  133DMF     H7 2085   2.183   2.210   1.575 -0.8832 -0.1433  0.4939
  134DMF     C1 2086   2.162   2.752   1.529  0.7182  0.4540 -0.2106
  134DMF     N1 2087   2.272   2.649   1.543  0.0025 -0.3574  0.2329
  134DMF     C2 2088   2.414   2.705   1.552 -0.2704  0.4888  0.1565
  134DMF     C3 2089   2.253   2.514   1.562 -0.1003 -0.0400  0.8019
  134DMF     O1 2090   2.137   2.474   1.577  0.2138  0.2711  0.4095
  134DMF     H1 2091   2.202   2.854   1.525  0.6418  0.4881 -0.0975
  134DMF     H2 2092   2.099   2.750   1.619  1.5338  2.8174  0.4351
  134DMF     H3 2093   2.097   2.734   1.442 -0.0009 -0.9050  0.5808
  134DMF     H4 2094   2.462   2.721   1.455  2.6910  0.7458  1.6286
  134DMF     H5 2095   2.477   2.630   1.602 -0.1588 -0.1832 -0.9950
  134DMF     H6 2096   2.408   2.800   1.608  0.2789 -0.1129  1.2524
  134DMF     H7 2097   2.340   2.445   1.565 -0.3374 -0.4647 -1.5709
  135DMF     C1 2098   0.392   0.169   2.762 -0.1781  0.1252  1.0074
  135DMF     N1 2099   0.374   0.314   2.787 -0.1959 -0.5783 -0.1865
  135DMF     C2 2100   0.277   0.376   2.695 -0.2528  0.5224  0.0574
  135DMF     C3 2101   0.392   0.375   2.908 -0.8202 -0.5582 -0.0324
  135DMF     O1 2102   0.461   0.336   2.996 -0.2758  0.2882  0.0918
  135DMF     H1 2103   0.489   0.145   2.719 -0.9505 -1.1811 -0.0205
  135DMF     H2 2104   0.312   0.120   2.705  0.7950 -0.4673  0.1624
  135DMF     H3 2105   0.393   0.128   2.864 -0.4209 -0.5832  0.7282
  135DMF     H4 2106   0.288   0.483   2.675 -0.7583  0.4658 -0.5293
  135DMF     H5 2107   0.175   0.340   2.713 -0.1122 -0.0538 -0.3025
  135DMF     H6 2108   0.291   0.333   2.595  1.6528  1.3198 -0.0341
  135DMF     H7 2109   0.342   0.474   2.907 -1.0390 -0.6590  0.9184
  136DMF     C1 2110   0.313   2.867   2.297  0.0882 -0.0079 -0.0136
  136DMF     N1 2111   0.256   2.839   2.430 -0.5716  0.2443  0.0993
  136DMF     C2 2112   0.325   2.906   2.540 -0.4102 -0.0587  0.8025
  136DMF     C3 2113   0.123   2.782   2.443 -0.2870 -0.0996  0.5129
  136DMF     O1 2114   0.046   2.750   2.349 -0.1849  0.5698 -0.1560
  136DMF     H1 2115   0.345   2.972   2.299 -2.7104  0.8795 -0.0661
  136DMF     H2 2116   0.231   2.856   2.224  0.4469 -2.0292 -0.1399
  136DMF     H3 2117   0.396   2.800   2.273  0.1853  0.6649 -1.6091
  136DMF     H4 2118   0.432   2.923   2.523 -0.8179 -0.2559 -2.2228
  136DMF     H5 2119   0.316   2.840   2.627  1.1566 -0.0525  0.9882
  136DMF     H6 2120   0.276   2.999   2.570 -0.1366  0.5895 -0.7469
  136DMF     H7 2121   0.097   2.778   2.551  0.7136 -0.0428  0.7596
  137DMF     C1 2122   2.265   1.321   1.537  0.2275  0.2515 -0.1446
  137DMF     N1 2123   2.223   1.258   1.409  0.0700  0.5444 -0.1436
  137DMF     C2 2124   2.080   1.210   1.397  0.3937  0.4597 -0.2517
  137DMF     C3 2125   2.324   1.200   1.320  0.1967  0.3986 -0.9385
  137DMF     O1 2126   2.438   1.241   1.334 -0.6054 -0.2342  0.1220
  137DMF     H1 2127   2.249   1.427   1.517 -1.8737 -0.2761 -1.4561
  137DMF     H2 2128   2.375   1.320   1.539  0.2265 -1.2775  0.0235
  137DMF     H3 2129   2.220   1.272   1.625  1.3332  0.1163  0.3547
  137DMF     H4 2130   2.035   1.270   1.317 -0.1750  1.4494  0.7997
  137DMF     H5 2131   2.031   1.215   1.495  1.1733  1.8534  0.0810
  137DMF     H6 2132   2.088   1.103   1.374  1.4652  0.5927 -0.5277
  137DMF     H7 2133   2.280   1.145   1.235  0.8880 -1.2623 -0.2322
  138DMF     C1 2134   2.274   1.302   2.997  1.2613  0.1339  0.0862
  138DMF     N1 2135   2.399   1.315   3.060 -0.0491  0.2652  0.3704
  138DMF     C2 2136   2.520   1.308   2.975 -0.3248 -0.4995  0.2011
  138DMF     C3 2137   2.416   1.291   3.193 -0.7792  0.0675 -0.2216
  138DMF     O1 2138   2.327   1.273   3.269  0.1013 -0.1282  0.3755
  138DMF     H1 2139   2.249   1.398   2.951 -1.1154 -1.0212 -1.0912
  138DMF     H2 2140   2.197   1.278   3.072  2.1045  1.2046  1.3275
  138DMF     H3 2141   2.281   1.229   2.915  0.7728 -0.1128  0.2627
  138DMF     H4 2142   2.546   1.412   2.952  0.7130 -0.7565  0.1827
  138DMF     H5 2143   2.498   1.246   2.887  0.9550  0.3512 -0.7422
  138DMF     H6 2144   2.602   1.254   3.023  0.0880 -0.9526 -0.9816
  138DMF     H7 2145   2.521   1.281   3.227 -0.3476  3.8722 -0.2865
  139DMF     C1 2146   1.025   1.588   2.746  0.2296  0.3816  0.6210
  139DMF     N1 2147   0.937   1.668   2.660  0.4534 -0.1650 -0.2630
  139DMF     C2 2148   0.822   1.595   2.603 -0.4869  0.4480  0.9405
  139DMF     C3 2149   0.931   1.809   2.669  0.2913  0.1008 -0.2289
  139DMF     O1 2150   1.007   1.878   2.747 -0.3032  0.1171  0.6162
  139DMF     H1 2151   1.013   1.480   2.732  2.1424  0.3318 -0.7417
  139DMF     H2 2152   1.008   1.617   2.850  0.8833 -0.5129  0.9785
  139DMF     H3 2153   1.131   1.612   2.732 -0.2018  2.3627  0.6843
  139DMF     H4 2154   0.854   1.543   2.511 -2.3066  1.1778 -0.1322
  139DMF     H5 2155   0.738   1.662   2.582  0.0590  0.8401 -0.0515
  139DMF     H6 2156   0.791   1.525   2.682  0.9056 -2.2893 -0.8181
  139DMF     H7 2157   0.847   1.850   2.610 -0.2923 -1.6354 -0.6528
  140DMF     C1 2158   1.467   1.062   2.460 -0.6096  0.4567 -0.1158
  140DMF     N1 2159   1.513   1.080   2.321  0.6925 -0.0014  0.5692
  140DMF     C2 2160   1.586   0.975   2.260  0.4721 -0.2984  0.2228
  140DMF     C3 2161   1.497   1.208   2.257  0.3060  0.2156  0.2853
  140DMF     O1 2162   1.436   1.296   2.307 -0.0514 -0.2059 -0.0578
  140DMF     H1 2163   1.522   1.131   2.525 -2.0859  1.0192  0.5427
  140DMF     H2 2164   1.478   0.959   2.497 -1.1643  0.6380  0.5597
  140DMF     H3 2165   1.363   1.096   2.471 -0.7623 -0.0834  0.1389
  140DMF     H4 2166   1.638   1.014   2.172  2.0119  0.0818  1.2674
  140DMF     H5 2167   1.526   0.895   2.215 -0.9846 -1.5589  4.1285
  140DMF     H6 2168   1.656   0.927   2.330 -0.5557 -1.0073  0.7826
  140DMF     H7 2169   1.538   1.221   2.155 -1.8402  1.6438 -0.4279
  141DMF     C1 2170   3.009   2.130   2.485  0.3082 -0.2657 -0.1115
  141DMF     N1 2171   2.980   2.048   2.363 -0.3902  0.5578  0.8662
  141DMF     C2 2172   2.838   2.021   2.318  0.1304  0.1314 -0.1903
  141DMF     C3 2173   3.084   2.028   2.261  0.2962  0.1771  0.1029
  141DMF     O1 2174   3.199   2.068   2.274  0.0971  0.1564  0.4034
  141DMF     H1 2175   3.114   2.114   2.511  0.0608  0.1764  1.1909
  141DMF     H2 2176   2.940   2.103   2.566  1.2384  0.5064  0.9328
  141DMF     H3 2177   2.991   2.238   2.479  2.6945  0.1519 -0.0193
  141DMF     H4 2178   2.819   1.913   2.312  0.4818  0.0574  0.0692
  141DMF     H5 2179   2.833   2.071   2.220  0.6009  0.0780 -0.2436
  141DMF     H6 2180   2.771   2.059   2.396  0.5214 -0.6770  0.5454
  141DMF     H7 2181   3.043   1.988   2.166  1.9897  0.0387 -0.5887
  142DMF     C1 2182   3.308   3.402   0.991 -0.1857  0.4300  0.3038
  142DMF     N1 2183   3.258   3.469   1.114  0.0479  0.4040  0.3703
  142DMF     C2 2184   3.219   3.616   1.104 -0.0841 -0.4243  0.7781
  142DMF     C3 2185   3.240   3.392   1.233  0.2537 -0.0853  0.8952
  142DMF     O1 2186   3.280   3.276   1.236  0.2082 -0.7497 -0.1217
  142DMF     H1 2187   3.223   3.347   0.950  1.4468 -0.2385 -2.3505
  142DMF     H2 2188   3.390   3.332   1.012 -1.0811  0.4169  3.9201
  142DMF     H3 2189   3.329   3.467   0.904  0.5401 -1.0741 -0.6647
  142DMF     H4 2190   3.243   3.667   1.010 -2.0463  0.4935  0.7579
  142DMF     H5 2191   3.269   3.666   1.188 -2.6765  0.8733  1.5756
  142DMF     H6 2192   3.113   3.628   1.127 -0.1195 -2.8491  2.1361
  142DMF     H7 2193   3.198   3.452   1.316 -0.2709  2.1134 -0.9106
  143DMF     C1 2194   0.322   2.685   1.288  0.3232  0.0962 -1.0399
  143DMF     N1 2195   0.228   2.732   1.391 -0.6737  0.0412  0.1198
  143DMF     C2 2196   0.084   2.685   1.373 -0.5158 -0.6964  0.1503
  143DMF     C3 2197   0.270   2.785   1.514  0.1763  0.1170 -0.1202
  143DMF     O1 2198   0.384   2.807   1.544  0.2674 -0.0668  0.2570
  143DMF     H1 2199   0.274   2.650   1.196  0.9040 -1.6143 -0.6958
  143DMF     H2 2200   0.384   2.608   1.334  0.1939 -0.8153 -2.3715
  143DMF     H3 2201   0.383   2.774   1.269  3.5509 -1.9858 -0.6871
  143DMF     H4 2202   0.037   2.684   1.472  2.0605 -1.1834  1.4174
  143DMF     H5 2203   0.075   2.582   1.338 -1.1277 -0.9959  1.1481
  143DMF     H6 2204   0.026   2.749   1.305 -1.0080 -1.3053 -0.0023
  143DMF     H7 2205   0.184   2.802   1.582  0.8365 -0.8974  0.9688
  144DMF     C1 2206   2.892   0.990   1.551  0.4457  0.4158  0.5883
  144DMF     N1 2207   2.835   1.073   1.444  0.0912 -0.1773  0.4337
  144DMF     C2 2208   2.776   1.201   1.487 -0.1185  0.0759  0.2945
  144DMF     C3 2209   2.871   1.058   1.308  0.1333 -0.2964  0.0052
  144DMF     O1 2210   2.916   0.954   1.278 -0.2862  0.7599 -0.2488
  144DMF     H1 2211   2.990   1.025   1.585  1.6465  0.7149 -2.9534
  144DMF     H2 2212   2.915   0.889   1.515 -2.3199  0.0851 -0.3810
  144DMF     H3 2213   2.824   0.977   1.636  0.7279  0.6926  0.8595
  144DMF     H4 2214   2.702   1.233   1.412 -0.6749  1.7916  1.5242
  144DMF     H5 2215   2.850   1.281   1.474 -1.0428  0.8200 -0.5939
  144DMF     H6 2216   2.742   1.204   1.591 -2.2073 -0.5684 -0.3348
  144DMF     H7 2217   2.846   1.143   1.242 -0.4642  0.3374  1.0290
  145DMF     C1 2218   0.836   2.489   0.918 -0.0043 -0.1777 -0.1950
  145DMF     N1 2219   0.737   2.555   1.004 -0.0312 -0.1930  0.4347
  145DMF     C2 2220   0.603   2.577   0.951  0.5139  0.4023  0.5097
  145DMF     C3 2221   0.757   2.583   1.137  0.4886  0.5586 -0.6055
  145DMF     O1 2222   0.873   2.577   1.184 -0.1217  0.0476 -0.5351
  145DMF     H1 2223   0.782   2.402   0.879  1.9758 -1.3887 -0.2847
  145DMF     H2 2224   0.923   2.457   0.976 -0.9496  1.0069  1.9519
  145DMF     H3 2225   0.861   2.557   0.835 -1.7132  2.4278  1.3365
  145DMF     H4 2226   0.600   2.679   0.911  0.7027  0.7753  1.4500
  145DMF     H5 2227   0.526   2.567   1.028  0.6526  0.1335  0.6132
  145DMF     H6 2228   0.572   2.505   0.875  1.8807 -0.6876  0.9565
  145DMF     H7 2229   0.667   2.618   1.192  0.2502  0.8699 -1.1940
  146DMF     C1 2230   1.603   0.338   2.522 -0.6180  0.0165  0.4547
  146DMF     N1 2231   1.629   0.213   2.598  0.0772  0.5936 -0.2569
  146DMF     C2 2232   1.751   0.131   2.580 -0.0692 -0.4680 -0.3909
  146DMF     C3 2233   1.534   0.176   2.698 -0.2788 -0.2587  0.2322
  146DMF     O1 2234   1.439   0.239   2.734  0.1063  0.0518  0.4480
  146DMF     H1 2235   1.593   0.307   2.418  2.4060  0.3204  0.0319
  146DMF     H2 2236   1.676   0.417   2.543 -1.9723  1.5189 -0.3907
  146DMF     H3 2237   1.506   0.383   2.548 -0.4716  1.4161 -1.3885
  146DMF     H4 2238   1.729   0.024   2.567  1.9507 -0.8908 -0.5430
  146DMF     H5 2239   1.821   0.141   2.664 -1.2798 -2.2819  0.8877
  146DMF     H6 2240   1.798   0.170   2.489 -1.9214 -0.0408 -1.2024
  146DMF     H7 2241   1.560   0.080   2.746 -1.5728 -1.0635 -0.6524
  147DMF     C1 2242   1.776   1.548   0.794  0.2204 -0.8040  0.4828
  147DMF     N1 2243   1.633   1.565   0.798  0.0453  0.2332 -0.2878
  147DMF     C2 2244   1.585   1.698   0.840 -0.2451  0.5147 -0.4381
  147DMF     C3 2245   1.542   1.461   0.757 -0.4883  0.2892  0.4057
  147DMF     O1 2246   1.573   1.352   0.720  0.0294 -0.1063  0.1171
  147DMF     H1 2247   1.826   1.645   0.778 -1.8056  0.2300  0.3063
  147DMF     H2 2248   1.801   1.479   0.713  0.4261  0.3385 -0.4543
  147DMF     H3 2249   1.808   1.495   0.884 -1.9432 -1.5028  0.8480
  147DMF     H4 2250   1.617   1.725   0.941  0.6095  0.2018 -0.6184
  147DMF     H5 2251   1.477   1.689   0.829 -0.0897  1.1265 -2.6725
  147DMF     H6 2252   1.627   1.775   0.774 -2.2450  1.1213 -1.0385
  147DMF     H7 2253   1.436   1.489   0.767 -0.1052  2.5743 -1.5494
  148DMF     C1 2254   1.123   3.311   3.756  0.5906 -0.0468  0.8858
  148DMF     N1 2255   1.016   3.230   3.674  0.2532  0.5393  0.9098
  148DMF     C2 2256   1.053   3.180   3.538 -0.0638 -0.5008  0.4908
  148DMF     C3 2257   0.883   3.220   3.711  0.5388  0.5492 -0.1420
  148DMF     O1 2258   0.830   3.261   3.811 -0.3115  0.7037 -0.2246
  148DMF     H1 2259   1.098   3.417   3.766  1.4178  0.3784 -1.3060
  148DMF     H2 2260   1.222   3.303   3.709 -0.6174 -1.7087 -1.5151
  148DMF     H3 2261   1.126   3.257   3.852 -0.7399  0.0555  0.9972
  148DMF     H4 2262   1.151   3.218   3.508 -0.4220 -0.8497 -1.1210
  148DMF     H5 2263   0.968   3.209   3.475 -0.7935  0.2667  1.7993
  148DMF     H6 2264   1.057   3.071   3.533  0.9678 -0.4055 -0.7488
  148DMF     H7 2265   0.822   3.175   3.630  2.1068  1.7365 -2.0287
  149DMF     C1 2266   2.224   1.466   0.642  0.1754 -0.8314  0.5288
  149DMF     N1 2267   2.197   1.604   0.683  0.1210 -0.5599  0.0130
  149DMF     C2 2268   2.261   1.707   0.591 -0.4649 -0.0186  0.1399
  149DMF     C3 2269   2.129   1.639   0.795 -0.2894  0.4978  0.3138
  149DMF     O1 2270   2.089   1.552   0.869 -0.2507  0.6825 -0.7280
  149DMF     H1 2271   2.274   1.397   0.711 -0.1954 -2.4949 -0.7970
  149DMF     H2 2272   2.278   1.458   0.547 -0.7814 -1.4219  0.0238
  149DMF     H3 2273   2.128   1.413   0.631 -0.1248 -0.6884  2.3640
  149DMF     H4 2274   2.342   1.755   0.648  0.3837 -1.2363 -0.0258
  149DMF     H5 2275   2.183   1.782   0.573 -0.7931  0.1607  2.1400
  149DMF     H6 2276   2.301   1.657   0.502 -0.7272 -0.2223  0.1326
  149DMF     H7 2277   2.106   1.747   0.798  0.5041  0.7135 -0.9807
  150DMF     C1 2278   0.842   2.801   0.510 -0.7385 -0.4280 -0.3467
  150DMF     N1 2279   0.963   2.732   0.556 -0.0547  0.2265  0.3549
  150DMF     C2 2280   1.061   2.687   0.461  0.2707 -0.6717  0.5279
  150DMF     C3 2281   1.004   2.736   0.688  0.0747  0.0601  0.4431
  150DMF     O1 2282   0.952   2.804   0.777 -0.0458  0.6154 -0.0084
  150DMF     H1 2283   0.773   2.780   0.592  0.3924  0.0966  0.7733
  150DMF     H2 2284   0.809   2.742   0.425 -0.2767 -2.1802  0.6589
  150DMF     H3 2285   0.858   2.907   0.487  1.0989 -0.8584 -1.1257
  150DMF     H4 2286   1.049   2.588   0.416 -1.3375  0.3413 -1.3882
  150DMF     H5 2287   1.161   2.695   0.505  0.6127  0.2345 -0.3960
  150DMF     H6 2288   1.055   2.750   0.371  0.1328 -2.1960 -0.5475
  150DMF     H7 2289   1.089   2.669   0.709  1.6627  2.0889  0.6295
  151DMF     C1 2290   1.257   0.886   2.749 -0.3376  0.2471 -0.4926
  151DMF     N1 2291   1.189   0.828   2.640  0.8936 -0.2349 -0.3150
  151DMF     C2 2292   1.035   0.831   2.632 -0.3274  0.5987 -0.6519
  151DMF     C3 2293   1.256   0.750   2.549  0.5136  0.2554 -0.3275
  151DMF     O1 2294   1.368   0.710   2.563  0.0580  0.0203  0.0723
  151DMF     H1 2295   1.344   0.937   2.707 -1.0770  0.6043 -1.6003
  151DMF     H2 2296   1.284   0.807   2.820 -0.4691  2.3060  1.9316
  151DMF     H3 2297   1.188   0.957   2.797  1.3882  0.2382  2.1470
  151DMF     H4 2298   0.995   0.741   2.582  0.5225 -0.7791  1.0921
  151DMF     H5 2299   1.010   0.915   2.566 -0.8054  0.0729 -1.1422
  151DMF     H6 2300   0.993   0.831   2.733 -1.1307  3.4246 -0.9657
  151DMF     H7 2301   1.185   0.715   2.471  0.2043  2.9823 -1.3267
  152DMF     C1 2302   2.481   3.325   3.619 -0.4963 -0.2556  0.6284
  152DMF     N1 2303   2.486   3.465   3.655 -1.1637 -0.8872  0.5533
  152DMF     C2 2304   2.422   3.558   3.565 -0.1222 -0.1641 -0.5698
  152DMF     C3 2305   2.526   3.496   3.789 -0.0002  0.6369 -0.7815
  152DMF     O1 2306   2.567   3.414   3.870  0.2469  0.6704  0.0396
  152DMF     H1 2307   2.484   3.305   3.511 -0.6278  1.9035  0.2018
  152DMF     H2 2308   2.385   3.296   3.662 -1.2062  1.7277  0.4158
  152DMF     H3 2309   2.548   3.258   3.674  1.1822  1.7113  1.0158
  152DMF     H4 2310   2.323   3.576   3.609 -0.5022  0.7093 -1.7463
  152DMF     H5 2311   2.409   3.515   3.465 -1.4054 -0.9640 -0.0595
  152DMF     H6 2312   2.488   3.647   3.567  2.3189 -1.9531  1.1295
  152DMF     H7 2313   2.493   3.599   3.810 -0.4565  0.1811  0.7666
  153DMF     C1 2314   3.099   0.735   3.282  0.2755 -0.1205  0.2834
  153DMF     N1 2315   3.202   0.701   3.181  0.1073 -0.0748  0.2369
  153DMF     C2 2316   3.279   0.579   3.198 -0.2767  0.7449  0.4188
  153DMF     C3 2317   3.232   0.796   3.086  0.1740 -0.4825 -0.5934
  153DMF     O1 2318   3.159   0.884   3.050 -0.0293 -0.3157 -0.1329
  153DMF     H1 2319   3.080   0.648   3.347 -1.7416  1.2174  1.5625
  153DMF     H2 2320   3.006   0.763   3.231  0.2790 -0.1565  0.2568
  153DMF     H3 2321   3.137   0.820   3.339 -0.9328 -0.2284  1.2807
  153DMF     H4 2322   3.299   0.570   3.305 -0.9328 -1.3810  0.3810
  153DMF     H5 2323   3.371   0.580   3.138 -1.1163 -0.0296 -0.9071
  153DMF     H6 2324   3.203   0.506   3.168  1.5218 -0.7961 -0.4355
  153DMF     H7 2325   3.326   0.781   3.030  0.5573 -1.5163  0.3070
  154DMF     C1 2326   1.551   1.047   3.609 -1.0075  0.4702  0.0586
  154DMF     N1 2327   1.585   1.168   3.681  0.7174 -0.2329 -0.1428
  154DMF     C2 2328   1.558   1.171   3.822  0.0728 -0.4497 -0.2375
  154DMF     C3 2329   1.640   1.271   3.612  0.9894 -0.0357 -0.0066
  154DMF     O1 2330   1.663   1.267   3.493  0.5927 -0.2368 -0.0947
  154DMF     H1 2331   1.596   0.962   3.662 -1.0710  0.0222 -0.6078
  154DMF     H2 2332   1.578   1.053   3.503 -1.0162 -0.6382 -0.0138
  154DMF     H3 2333   1.444   1.025   3.615 -0.2948 -2.9713  0.9367
  154DMF     H4 2334   1.571   1.069   3.862  1.3760  0.0981  0.7719
  154DMF     H5 2335   1.458   1.207   3.848  0.0471  0.4035 -1.4973
  154DMF     H6 2336   1.634   1.229   3.876  0.4782  0.9417 -2.2570
  154DMF     H7 2337   1.649   1.363   3.673  0.3055 -0.7828  1.2613
  155DMF     C1 2338   2.353   1.329   0.100 -0.1907 -0.2287  0.0134
  155DMF     N1 2339   2.455   1.395   0.169  0.3426 -0.3877 -0.2194
  155DMF     C2 2340   2.585   1.314   0.195  0.0186  0.3132  0.1952
  155DMF     C3 2341   2.437   1.510   0.253 -0.2173  0.6591  0.0048
  155DMF     O1 2342   2.333   1.572   0.273 -0.0723 -0.0825  0.1157
  155DMF     H1 2343   2.264   1.392   0.088  0.5944  0.5880 -1.6969
  155DMF     H2 2344   2.319   1.241   0.157 -2.0353  0.5078  0.0793
  155DMF     H3 2345   2.384   1.308  -0.003 -1.9470 -1.9973 -0.1716
  155DMF     H4 2346   2.611   1.320   0.301  0.0248  1.7290  0.1246
  155DMF     H5 2347   2.665   1.366   0.140  1.7240 -1.4716  0.9548
  155DMF     H6 2348   2.564   1.211   0.166 -0.4911  1.7256 -5.0035
  155DMF     H7 2349   2.530   1.539   0.306 -0.4746 -0.7268  1.2398
  156DMF     C1 2350   2.056   3.312   3.520  0.3078 -1.0420  0.8438
  156DMF     N1 2351   1.938   3.402   3.501 -0.5854  0.5513 -0.4312
  156DMF     C2 2352   1.935   3.531   3.567 -0.4274  0.4141  0.2951
  156DMF     C3 2353   1.828   3.355   3.424 -0.0964  0.2432  1.1226
  156DMF     O1 2354   1.830   3.239   3.378 -0.3212  0.2028  0.2044
  156DMF     H1 2355   2.061   3.228   3.450 -2.5084 -1.9349  1.6610
  156DMF     H2 2356   2.061   3.287   3.626  0.7418 -1.0769  0.8162
  156DMF     H3 2357   2.146   3.371   3.494  0.1248 -1.2076 -0.2022
  156DMF     H4 2358   2.021   3.521   3.635 -1.3556 -2.0373  1.1365
  156DMF     H5 2359   1.840   3.534   3.622 -0.8732 -0.8570 -0.4067
  156DMF     H6 2360   1.957   3.614   3.499 -1.5191  0.5972  0.1564
  156DMF     H7 2361   1.749   3.432   3.409 -0.8147 -0.6050  0.5248
  157DMF     C1 2362   2.027   1.167   2.726 -0.0196 -0.5156 -0.6026
  157DMF     N1 2363   1.908   1.211   2.799 -0.1734  0.1071  0.3635
  157DMF     C2 2364   1.934   1.275   2.930  0.8455  0.1851 -0.0112
  157DMF     C3 2365   1.779   1.195   2.751 -0.5449 -0.0448 -0.1970
  157DMF     O1 2366   1.755   1.156   2.636 -0.0045 -0.7614  0.1642
  157DMF     H1 2367   2.108   1.240   2.743 -0.3903 -0.1157 -0.5592
  157DMF     H2 2368   2.008   1.163   2.618 -0.4310 -1.7945 -0.4920
  157DMF     H3 2369   2.068   1.073   2.765  1.7384 -0.3177 -1.9287
  157DMF     H4 2370   1.984   1.201   2.994 -4.4909 -2.1576  1.8065
  157DMF     H5 2371   1.837   1.293   2.979  0.0709 -1.9263 -0.7170
  157DMF     H6 2372   1.997   1.364   2.922  1.7140 -0.5003 -0.8673
  157DMF     H7 2373   1.699   1.219   2.823 -0.8122 -0.4823 -0.3482
  158DMF     C1 2374   1.440   2.107   3.551  0.5828 -0.0531 -0.1894
  158DMF     N1 2375   1.537   2.216   3.528  0.4949  0.0545  0.0138
  158DMF     C2 2376   1.628   2.204   3.415  0.0656  0.8024 -0.4561
  158DMF     C3 2377   1.551   2.328   3.624  0.2171  0.6602 -0.1141
  158DMF     O1 2378   1.495   2.336   3.733  0.0191 -0.4963 -0.1354
  158DMF     H1 2379   1.445   2.030   3.473  0.4532  0.5826 -0.8339
  158DMF     H2 2380   1.335   2.139   3.553  0.9576  1.2451 -0.5091
  158DMF     H3 2381   1.475   2.048   3.637 -1.1190 -1.7850 -0.6638
  158DMF     H4 2382   1.611   2.290   3.349 -1.1978  0.3248 -0.7633
  158DMF     H5 2383   1.601   2.119   3.352 -1.9496 -0.0150  1.4363
  158DMF     H6 2384   1.732   2.195   3.450 -0.2926  0.5909  0.5821
  158DMF     H7 2385   1.618   2.409   3.590 -0.8969  2.7161  2.4066
  159DMF     C1 2386   0.716   0.298   0.719 -0.7578 -0.0920  0.1884
  159DMF     N1 2387   0.741   0.272   0.867  0.0617  0.0376 -0.5915
  159DMF     C2 2388   0.757   0.126   0.915  0.0087  0.4445 -0.2695
  159DMF     C3 2389   0.770   0.379   0.953 -0.4240  0.4469  0.1153
  159DMF     O1 2390   0.782   0.498   0.911 -0.3130  0.4123  0.5937
  159DMF     H1 2391   0.778   0.377   0.674  0.4959 -1.5223 -0.6274
  159DMF     H2 2392   0.615   0.339   0.707 -0.2114  0.7836 -1.6623
  159DMF     H3 2393   0.726   0.205   0.661  1.4129  1.6347 -2.2928
  159DMF     H4 2394   0.664   0.069   0.900  0.3609 -0.1021 -0.3661
  159DMF     H5 2395   0.782   0.111   1.021 -2.8965  1.6142  0.6236
  159DMF     H6 2396   0.848   0.089   0.866  0.2341 -0.6358  0.9173
  159DMF     H7 2397   0.787   0.339   1.055 -0.6808  0.6173  0.2247
  160DMF     C1 2398   0.541   2.160   2.994 -0.6422  0.7175  0.3827
  160DMF     N1 2399   0.422   2.212   3.057 -0.4056 -0.0964 -0.1037
  160DMF     C2 2400   0.340   2.120   3.133  0.3782 -1.0183  0.1559
  160DMF     C3 2401   0.396   2.345   3.061  0.1054 -0.7465  0.6691
  160DMF     O1 2402   0.462   2.424   2.997  0.2931 -0.3288 -0.2364
  160DMF     H1 2403   0.524   2.055   2.964  0.3420  1.2637 -2.2511
  160DMF     H2 2404   0.621   2.162   3.069 -0.4103 -2.2651  0.2914
  160DMF     H3 2405   0.577   2.214   2.905 -0.0360 -3.3829 -1.9960
  160DMF     H4 2406   0.245   2.170   3.156  2.3722  2.1686  1.8639
  160DMF     H5 2407   0.394   2.114   3.228  0.8626 -0.2128 -0.0746
  160DMF     H6 2408   0.333   2.017   3.094 -0.2936  0.0962 -2.7670
  160DMF     H7 2409   0.316   2.369   3.133  0.3882  0.2101  0.6711
  161DMF     C1 2410   2.526   2.198   1.021 -0.4509  0.7895  0.0307
  161DMF     N1 2411   2.667   2.235   1.054  0.1251  0.2526 -0.2161
  161DMF     C2 2412   2.745   2.149   1.149  0.3873  0.6608  0.0731
  161DMF     C3 2413   2.724   2.354   0.994  0.3904 -0.2281 -0.2553
  161DMF     O1 2414   2.665   2.423   0.906 -0.0795  0.0780  0.5836
  161DMF     H1 2415   2.455   2.280   1.037 -0.4212  0.4179  2.1585
  161DMF     H2 2416   2.482   2.114   1.075 -0.0575 -0.4273 -1.4902
  161DMF     H3 2417   2.511   2.176   0.914 -2.2264 -1.4262  0.7013
  161DMF     H4 2418   2.849   2.185   1.149  1.4766 -2.2958 -0.1783
  161DMF     H5 2419   2.741   2.040   1.132 -1.3801  0.6215  0.6958
  161DMF     H6 2420   2.699   2.168   1.246 -1.2446  3.9329 -1.2845
  161DMF     H7 2421   2.832   2.367   1.015  0.6386  1.2746 -2.3042
  162DMF     C1 2422   1.432   2.002   0.552 -0.3192  0.0128 -0.0508
  162DMF     N1 2423   1.299   1.962   0.582 -0.6535  0.0205  0.3694
  162DMF     C2 2424   1.249   1.991   0.721 -0.4779  0.2925 -0.0503
  162DMF     C3 2425   1.216   1.900   0.481 -0.0980 -0.7055 -0.3597
  162DMF     O1 2426   1.260   1.866   0.373  0.4645  0.3230  0.0233
  162DMF     H1 2427   1.497   1.984   0.639  1.4451 -1.0814 -1.5753
  162DMF     H2 2428   1.442   2.111   0.540 -2.6775  0.7597  3.7303
  162DMF     H3 2429   1.469   1.952   0.462  1.2162 -0.6176  0.9028
  162DMF     H4 2430   1.275   1.906   0.785 -0.6897  0.9677  0.9502
  162DMF     H5 2431   1.141   1.993   0.705 -0.3406 -0.1347 -1.0648
  162DMF     H6 2432   1.280   2.086   0.767 -1.0248  1.3927 -1.9247
  162DMF     H7 2433   1.113   1.881   0.517 -0.3630  1.0330 -0.1495
  163DMF     C1 2434   1.935   1.657   3.002 -0.1698  0.3792  0.1708
  163DMF     N1 2435   2.078   1.639   3.040 -0.0476  0.2450 -0.2846
  163DMF     C2 2436   2.184   1.700   2.955 -0.2534  0.0144  0.1714
  163DMF     C3 2437   2.114   1.580   3.164 -0.3202 -0.5382 -0.6970
  163DMF     O1 2438   2.028   1.546   3.239 -0.3529  0.4121  0.5537
  163DMF     H1 2439   1.868   1.643   3.088  0.8852 -1.6105  0.7035
  163DMF     H2 2440   1.896   1.590   2.923 -0.8984 -0.7949  1.5011
  163DMF     H3 2441   1.917   1.755   2.958  1.7418  0.4186 -0.5672
  163DMF     H4 2442   2.257   1.621   2.931 -0.4098 -0.4195  1.0912
  163DMF     H5 2443   2.236   1.776   3.014  1.7394 -0.4886 -0.8645
  163DMF     H6 2444   2.137   1.751   2.870  0.5347  0.4256 -0.0240
  163DMF     H7 2445   2.222   1.560   3.178 -0.3974 -0.5680 -0.1495
  164DMF     C1 2446   2.246   0.830   2.239  0.6312 -0.6019 -0.7808
  164DMF     N1 2447   2.201   0.968   2.257 -0.1955  0.0708  0.3348
  164DMF     C2 2448   2.054   0.999   2.250  0.9542  0.1693  0.2369
  164DMF     C3 2449   2.281   1.058   2.316 -0.0258  0.4213 -0.1545
  164DMF     O1 2450   2.397   1.040   2.348  0.1020 -0.1222  0.1502
  164DMF     H1 2451   2.347   0.827   2.196  0.4733  0.8624 -1.2990
  164DMF     H2 2452   2.164   0.784   2.182  1.1067 -1.7459 -0.5418
  164DMF     H3 2453   2.246   0.778   2.335 -0.0425 -1.2536 -1.1177
  164DMF     H4 2454   2.011   0.940   2.168  0.8835 -2.7346  2.3316
  164DMF     H5 2455   2.032   1.104   2.228  0.4706 -0.0833 -0.5057
  164DMF     H6 2456   2.001   0.990   2.345 -0.2366  0.4107 -0.3898
  164DMF     H7 2457   2.223   1.149   2.338 -1.5062  0.7166 -4.7941
  165DMF     C1 2458   1.790   3.411   1.135  0.1579  0.5943  0.2461
  165DMF     N1 2459   1.738   3.288   1.196 -0.8145  0.5803 -0.4554
  165DMF     C2 2460   1.815   3.163   1.180 -0.1101  0.4980  0.0422
  165DMF     C3 2461   1.642   3.275   1.292  0.3619 -0.1816  0.1310
  165DMF     O1 2462   1.571   3.365   1.325  0.5311 -0.1710 -0.7569
  165DMF     H1 2463   1.739   3.493   1.186 -0.9663  0.6316 -0.9283
  165DMF     H2 2464   1.769   3.419   1.028 -1.9672 -0.1146  0.5908
  165DMF     H3 2465   1.900   3.403   1.139  0.1493 -0.0032 -0.4522
  165DMF     H4 2466   1.898   3.191   1.114 -0.5363  4.5084  1.0925
  165DMF     H5 2467   1.752   3.093   1.123 -2.8307 -0.0534  3.5264
  165DMF     H6 2468   1.848   3.124   1.277 -3.6963 -2.7669  0.0681
  165DMF     H7 2469   1.625   3.170   1.319  1.2512 -0.5577 -0.7052
  166DMF     C1 2470   3.161   2.793   1.075  0.2235 -0.4169  0.4311
  166DMF     N1 2471   3.073   2.907   1.094  0.0907  0.1247  0.0647
  166DMF     C2 2472   3.070   2.973   1.226 -0.1852 -0.0043  0.1522
  166DMF     C3 2473   2.964   2.911   1.010 -0.2508 -0.2892  0.1398
  166DMF     O1 2474   2.953   2.840   0.913  0.1303  0.5352 -0.1171
  166DMF     H1 2475   3.253   2.814   1.131 -0.1689  0.9475  0.5868
  166DMF     H2 2476   3.196   2.790   0.971  0.8522  1.0471  0.5868
  166DMF     H3 2477   3.121   2.700   1.117 -2.3421  1.4239  2.2618
  166DMF     H4 2478   3.152   2.954   1.295  0.8429  2.7785 -0.2448
  166DMF     H5 2479   2.985   2.931   1.282  0.2454  1.6178  2.0857
  166DMF     H6 2480   3.062   3.081   1.212 -1.5700 -0.0742  0.3292
  166DMF     H7 2481   2.890   2.989   1.037  1.8674  1.9592 -0.3713
  167DMF     C1 2482   2.838   2.633   3.161  0.4422  0.1108  0.8869
  167DMF     N1 2483   2.935   2.628   3.277 -0.6156  0.1911 -0.4495
  167DMF     C2 2484   2.879   2.640   3.413  0.1725  0.1771  0.0029
  167DMF     C3 2485   3.071   2.625   3.256  0.5951 -0.3208  0.0330
  167DMF     O1 2486   3.120   2.606   3.146 -0.0136  0.1670 -0.5970
  167DMF     H1 2487   2.755   2.562   3.164 -0.1366  0.6879 -0.8273
  167DMF     H2 2488   2.885   2.622   3.063  0.2121  2.3490  0.5013
  167DMF     H3 2489   2.774   2.722   3.159 -0.9151 -0.8417  1.4098
  167DMF     H4 2490   2.781   2.688   3.418  0.6549  1.0839  0.9817
  167DMF     H5 2491   2.948   2.687   3.484  0.4443 -1.0846  0.5907
  167DMF     H6 2492   2.872   2.537   3.451  1.0535 -0.3122 -1.1425
  167DMF     H7 2493   3.132   2.645   3.347 -0.4930  0.4607  0.6025
  168DMF     C1 2494   1.632   1.278   1.092  0.2330  0.2878  0.3284
  168DMF     N1 2495   1.607   1.155   1.160 -0.0898  0.1520  0.5348
  168DMF     C2 2496   1.702   1.048   1.146  0.1699 -0.1868 -0.0582
  168DMF     C3 2497   1.486   1.129   1.227  0.2893  0.0438 -0.2948
  168DMF     O1 2498   1.402   1.218   1.256 -0.5743  0.1241 -0.3646
  168DMF     H1 2499   1.569   1.364   1.117  0.2252  0.0498  1.1577
  168DMF     H2 2500   1.612   1.255   0.987 -1.5824  0.6545  0.5830
  168DMF     H3 2501   1.736   1.309   1.113  1.1564 -1.4532 -1.5239
  168DMF     H4 2502   1.806   1.079   1.160  0.0730  0.2237 -0.2633
  168DMF     H5 2503   1.703   1.001   1.046 -1.9160  0.0220 -0.2013
  168DMF     H6 2504   1.677   0.981   1.229 -0.6387  1.2914  0.8978
  168DMF     H7 2505   1.468   1.023   1.253 -0.6687 -0.2419 -2.0408
  169DMF     C1 2506   1.452   2.150   2.550 -0.0860  0.0333  0.5461
  169DMF     N1 2507   1.336   2.099   2.621  0.2939  0.1449  0.8918
  169DMF     C2 2508   1.328   1.947   2.644  0.2866 -0.8057 -0.7796
  169DMF     C3 2509   1.220   2.184   2.644  0.5588 -0.0938  0.2802
  169DMF     O1 2510   1.209   2.298   2.624  0.4118 -0.0199  0.7696
  169DMF     H1 2511   1.491   2.076   2.479 -0.5949 -0.6402  0.9646
  169DMF     H2 2512   1.531   2.175   2.623 -1.2606  1.6446  1.3091
  169DMF     H3 2513   1.419   2.236   2.490 -0.8440 -0.9491 -0.4596
  169DMF     H4 2514   1.266   1.914   2.728 -1.3690  1.9094 -0.8704
  169DMF     H5 2515   1.425   1.908   2.676  1.1355  0.5380 -1.6780
  169DMF     H6 2516   1.287   1.905   2.551 -1.3230 -1.4469  0.1977
  169DMF     H7 2517   1.143   2.131   2.702  1.0446 -0.5413  0.5208
  170DMF     C1 2518   3.030   3.188   3.721  0.7771  0.0675  0.7870
  170DMF     N1 2519   2.905   3.182   3.797  0.7132  0.4196  0.2728
  170DMF     C2 2520   2.886   3.261   3.922 -1.0242  0.3195 -0.5158
  170DMF     C3 2521   2.797   3.093   3.761  0.4858 -0.3475 -0.5001
  170DMF     O1 2522   2.802   3.019   3.666 -0.0207  0.4032 -0.2995
  170DMF     H1 2523   3.115   3.153   3.780  1.1141 -1.2126 -0.4361
  170DMF     H2 2524   3.055   3.290   3.688  2.2333 -0.9181 -1.3014
  170DMF     H3 2525   3.022   3.117   3.638  1.4276 -0.8223  1.4778
  170DMF     H4 2526   2.973   3.272   3.989 -0.5515 -2.2005 -0.6660
  170DMF     H5 2527   2.802   3.228   3.983 -0.8881  3.0731  1.2356
  170DMF     H6 2528   2.874   3.363   3.884  0.6205  0.3782 -0.9324
  170DMF     H7 2529   2.711   3.096   3.829 -0.3513 -2.8300 -1.3937
  171DMF     C1 2530   2.423   0.253   2.620 -0.2943  0.5876  0.3466
  171DMF     N1 2531   2.474   0.115   2.625 -0.2187  0.5011  0.6295
  171DMF     C2 2532   2.600   0.099   2.546 -0.2590 -0.0299 -1.0932
  171DMF     C3 2533   2.446   0.031   2.736 -0.0078  0.5645  0.1777
  171DMF     O1 2534   2.359   0.048   2.820 -0.6831 -0.0254 -0.2360
  171DMF     H1 2535   2.356   0.276   2.703 -0.4907  0.8076  0.1304
  171DMF     H2 2536   2.356   0.245   2.533  0.4406  2.5340 -0.4334
  171DMF     H3 2537   2.508   0.321   2.608 -1.1184  1.7912  1.2320
  171DMF     H4 2538   2.585   0.043   2.453  0.3773 -0.2338 -1.0749
  171DMF     H5 2539   2.675   0.041   2.602 -0.3760  0.2284 -0.6648
  171DMF     H6 2540   2.637   0.199   2.523  1.6616 -0.3300  0.5112
  171DMF     H7 2541   2.517  -0.053   2.746 -0.0313  0.7000  1.7372
  172DMF     C1 2542   1.098   2.207   0.266 -0.0959 -0.0735 -0.2787
  172DMF     N1 2543   1.212   2.302   0.254  0.2141 -0.1449  0.5175
  172DMF     C2 2544   1.303   2.327   0.374 -0.0410  0.7586 -0.5029
  172DMF     C3 2545   1.240   2.379   0.142  0.4709  0.4841  0.1816
  172DMF     O1 2546   1.168   2.390   0.048  0.1388  0.0626  0.6996
  172DMF     H1 2547   1.039   2.221   0.358 -0.1247 -0.1585 -0.2846
  172DMF     H2 2548   1.128   2.102   0.275 -2.0800 -0.5463  1.1495
  172DMF     H3 2549   1.030   2.218   0.180  1.2613  0.5835 -1.2888
  172DMF     H4 2550   1.275   2.260   0.456 -0.5419  2.4981  0.7734
  172DMF     H5 2551   1.283   2.431   0.404 -2.7989  0.0460  0.3163
  172DMF     H6 2552   1.407   2.302   0.353  0.4580 -1.8274  4.2410
  172DMF     H7 2553   1.332   2.440   0.150  1.6672 -0.9180 -2.2381
  173DMF     C1 2554   1.177   0.877   3.694  0.3920 -0.3915 -0.4835
  173DMF     N1 2555   1.206   0.779   3.583  0.3468 -0.3145 -0.0512
  173DMF     C2 2556   1.097   0.732   3.498  0.3088 -0.0032 -0.1418
  173DMF     C3 2557   1.329   0.725   3.562 -0.0146  1.0773 -0.1938
  173DMF     O1 2558   1.420   0.738   3.640  0.0506  0.0576  0.5973
  173DMF     H1 2559   1.166   0.828   3.791 -1.0580  0.1678 -0.3476
  173DMF     H2 2560   1.079   0.924   3.682 -0.4743 -1.6923  1.3029
  173DMF     H3 2561   1.259   0.950   3.697  1.2027 -1.3472  1.5186
  173DMF     H4 2562   1.083   0.623   3.500 -0.2606  0.0841  0.6334
  173DMF     H5 2563   1.124   0.754   3.394  0.9453 -1.3995 -0.2946
  173DMF     H6 2564   1.004   0.784   3.524 -1.1735 -2.5543 -0.1298
  173DMF     H7 2565   1.341   0.655   3.477  2.4614 -0.0687  1.0470
  174DMF     C1 2566   2.222   0.928   2.934  0.6092 -0.2220  0.5811
  174DMF     N1 2567   2.237   0.960   3.071  0.0409 -0.0938  0.4083
  174DMF     C2 2568   2.117   0.964   3.151  0.5479  0.1651 -0.1761
  174DMF     C3 2569   2.367   0.962   3.122 -0.3887 -0.3274  0.3164
  174DMF     O1 2570   2.463   0.946   3.051  0.7617  0.4428 -0.0164
  174DMF     H1 2571   2.266   1.006   2.870  3.6180 -3.1372 -1.0238
  174DMF     H2 2572   2.117   0.905   2.913  0.9721 -2.0110  0.6658
  174DMF     H3 2573   2.287   0.843   2.911 -0.5749 -0.4472 -2.2118
  174DMF     H4 2574   2.107   1.045   3.224  2.5907  0.6717 -0.4458
  174DMF     H5 2575   2.118   0.875   3.216 -1.5123 -0.5506 -1.0829
  174DMF     H6 2576   2.025   0.951   3.093  0.2094  0.2347  0.3373
  174DMF     H7 2577   2.369   0.981   3.231 -1.7085  0.9149  0.1320
  175DMF     C1 2578   2.791   0.356   3.167 -0.5818 -0.5461 -0.6117
  175DMF     N1 2579   2.944   0.362   3.185  0.3931 -0.7146 -1.0479
  175DMF     C2 2580   2.997   0.356   3.328  0.1435 -0.2199 -0.0251
  175DMF     C3 2581   3.030   0.328   3.082 -0.3309 -0.0795 -0.5184
  175DMF     O1 2582   2.997   0.314   2.963 -0.6350  0.2328 -0.0092
  175DMF     H1 2583   2.751   0.437   3.229 -0.3624  0.4254 -1.7165
  175DMF     H2 2584   2.752   0.268   3.219 -0.0136 -0.1084  0.5713
  175DMF     H3 2585   2.767   0.356   3.060  0.0325 -1.7052 -0.7610
  175DMF     H4 2586   2.931   0.419   3.389 -1.1054 -1.5077 -0.0088
  175DMF     H5 2587   3.094   0.407   3.331 -0.5028  0.9947  0.1347
  175DMF     H6 2588   2.997   0.252   3.364  1.4399  1.2987  4.7092
  175DMF     H7 2589   3.135   0.320   3.116 -0.5284 -1.9759 -0.2901
  176DMF     C1 2590   3.303   1.672   2.927 -0.5282 -0.5918 -0.3386
  176DMF     N1 2591   3.227   1.696   3.056 -0.5560 -0.2519  0.5900
  176DMF     C2 2592   3.083   1.689   3.061  0.5095 -0.3325 -0.4250
  176DMF     C3 2593   3.297   1.723   3.179  0.1271  0.0948  0.0717
  176DMF     O1 2594   3.418   1.737   3.180  0.2492 -0.2232 -0.6083
  176DMF     H1 2595   3.388   1.739   2.909  0.5318 -1.4713  1.2191
  176DMF     H2 2596   3.239   1.681   2.838  1.4795 -0.4068 -1.8067
  176DMF     H3 2597   3.345   1.571   2.930  1.5209  0.1470 -2.5267
  176DMF     H4 2598   3.037   1.676   3.160  0.1247 -0.4327 -0.6162
  176DMF     H5 2599   3.040   1.623   2.985  1.8678 -0.0098 -1.4761
  176DMF     H6 2600   3.056   1.790   3.029  0.2759 -0.7999 -1.7048
  176DMF     H7 2601   3.225   1.724   3.263 -0.6233 -2.0837 -0.4990
  177DMF     C1 2602   1.434   3.135   3.181  0.3220 -0.4835 -0.0261
  177DMF     N1 2603   1.407   2.983   3.172 -0.1617 -0.5152 -0.2582
  177DMF     C2 2604   1.350   2.910   3.288  0.3140  0.5601  0.4816
  177DMF     C3 2605   1.400   2.919   3.050  0.4573  0.2357 -0.0762
  177DMF     O1 2606   1.440   2.972   2.952 -0.7453  0.1365  0.3282
  177DMF     H1 2607   1.488   3.176   3.095  2.5901 -3.0994  0.0901
  177DMF     H2 2608   1.492   3.151   3.273  1.1394  2.3787 -0.9902
  177DMF     H3 2609   1.333   3.179   3.188 -0.2444 -1.8078  0.1896
  177DMF     H4 2610   1.328   2.980   3.370 -0.6080  0.9273 -0.0738
  177DMF     H5 2611   1.419   2.832   3.323 -0.1627 -1.1740 -2.3368
  177DMF     H6 2612   1.262   2.847   3.267  0.0013  1.2512 -0.2800
  177DMF     H7 2613   1.354   2.819   3.061 -2.7450  1.7808  1.5466
  178DMF     C1 2614   0.217   1.339   2.469 -0.1735 -0.0287  0.4549
  178DMF     N1 2615   0.301   1.452   2.520  0.4007  0.0676  0.0968
  178DMF     C2 2616   0.240   1.585   2.534  0.7922  0.7206  0.0768
  178DMF     C3 2617   0.438   1.439   2.554 -0.3314 -0.6470 -0.1546
  178DMF     O1 2618   0.504   1.332   2.533 -0.0718  0.8143  1.3609
  178DMF     H1 2619   0.135   1.329   2.540 -0.7948 -1.9049 -0.4871
  178DMF     H2 2620   0.257   1.237   2.465 -3.0210 -1.2894  2.4720
  178DMF     H3 2621   0.176   1.357   2.369  1.4415  1.1783 -0.0118
  178DMF     H4 2622   0.155   1.592   2.465  1.7812  0.2893 -1.2036
  178DMF     H5 2623   0.313   1.659   2.500  0.4477  1.5485  1.1147
  178DMF     H6 2624   0.212   1.608   2.638  1.3243  0.9022  0.1827
  178DMF     H7 2625   0.481   1.531   2.596  2.6964 -2.0199 -0.0799
  179DMF     C1 2626   0.526   1.709   2.880 -0.3451  0.9010  0.1450
  179DMF     N1 2627   0.414   1.612   2.896  0.8641 -0.2117 -0.0317
  179DMF     C2 2628   0.277   1.662   2.932  0.0333 -0.1539  0.4467
  179DMF     C3 2629   0.433   1.475   2.886  0.0107 -0.1848 -0.1379
  179DMF     O1 2630   0.543   1.422   2.863 -0.1326  0.3385  0.5297
  179DMF     H1 2631   0.587   1.683   2.793 -1.9274  1.1431 -1.0653
  179DMF     H2 2632   0.598   1.706   2.962  0.2772  2.2853 -0.3339
  179DMF     H3 2633   0.489   1.811   2.868  0.2238  0.9785 -1.0873
  179DMF     H4 2634   0.240   1.707   2.839  0.0223 -0.2360  0.4113
  179DMF     H5 2635   0.280   1.734   3.015 -2.1503 -1.2207  1.4965
  179DMF     H6 2636   0.212   1.577   2.955 -0.4265  0.4776  1.5631
  179DMF     H7 2637   0.345   1.416   2.917  0.0865  0.6393  1.7418
  180DMF     C1 2638   2.955   2.532   0.249 -0.3871 -0.2161  0.3246
  180DMF     N1 2639   2.809   2.549   0.231  0.3880  0.2977 -0.4998
  180DMF     C2 2640   2.750   2.445   0.148 -0.4078  0.3395 -0.1683
  180DMF     C3 2641   2.741   2.663   0.276  0.7343 -0.1844 -0.2070
  180DMF     O1 2642   2.798   2.761   0.315 -0.1618  0.6267  0.5150
  180DMF     H1 2643   2.963   2.506   0.355 -2.6611  0.0188  0.5867
  180DMF     H2 2644   3.012   2.622   0.221 -0.2444 -0.1339  0.8772
  180DMF     H3 2645   3.001   2.456   0.184  0.0126  0.6923 -0.4718
  180DMF     H4 2646   2.665   2.402   0.203  0.2824  0.1085  0.7317
  180DMF     H5 2647   2.822   2.364   0.133 -0.0196  0.3751  1.3905
  180DMF     H6 2648   2.722   2.492   0.053 -0.1221 -0.2572 -0.5515
  180DMF     H7 2649   2.631   2.663   0.266  0.7752 -1.1313 -0.7464
  181DMF     C1 2650   2.654   0.637   2.873  0.0668  0.1309 -0.0153
  181DMF     N1 2651   2.792   0.572   2.850 -0.6618  0.5380  0.3371
  181DMF     C2 2652   2.903   0.620   2.934  0.0957 -0.2883  1.1658
  181DMF     C3 2653   2.806   0.453   2.775  0.3228  0.2151  0.0459
  181DMF     O1 2654   2.711   0.401   2.714  0.9562 -0.0138  0.1641
  181DMF     H1 2655   2.664   0.746   2.879 -0.3760  0.3422 -2.6374
  181DMF     H2 2656   2.609   0.603   2.967  0.6363 -2.6580 -0.7087
  181DMF     H3 2657   2.586   0.617   2.790  0.4704 -1.4391  0.0140
  181DMF     H4 2658   2.890   0.595   3.040  0.4183  1.4694  1.6271
  181DMF     H5 2659   2.899   0.729   2.928 -0.6087 -0.3446  0.5176
  181DMF     H6 2660   3.000   0.583   2.897  0.7037  0.5986  1.8531
  181DMF     H7 2661   2.909   0.415   2.762 -0.2475 -1.1914 -0.4494
  182DMF     C1 2662   2.293   2.619   1.171  0.0669 -0.7346  0.4615
  182DMF     N1 2663   2.228   2.485   1.183 -0.3562  0.1822  0.0753
  182DMF     C2 2664   2.097   2.463   1.106 -0.4500 -0.3826  0.3810
  182DMF     C3 2665   2.280   2.377   1.263 -0.0275 -0.0928 -0.6751
  182DMF     O1 2666   2.385   2.384   1.323 -0.1782  0.2203 -0.3720
  182DMF     H1 2667   2.216   2.694   1.190  1.5317  0.7745  0.5472
  182DMF     H2 2668   2.337   2.636   1.072 -1.3498 -1.2578 -0.2713
  182DMF     H3 2669   2.357   2.634   1.259  0.1590  0.6144  0.1739
  182DMF     H4 2670   2.035   2.379   1.142  1.0296 -0.8924  1.8184
  182DMF     H5 2671   2.126   2.434   1.004 -0.5245  2.6168 -0.5136
  182DMF     H6 2672   2.042   2.557   1.107 -0.2256 -0.2172 -1.4881
  182DMF     H7 2673   2.218   2.286   1.258 -1.1441  0.6303 -0.4059
  183DMF     C1 2674   1.002   1.216   3.517 -0.2937 -0.4703 -0.2140
  183DMF     N1 2675   1.068   1.295   3.619 -0.0997  0.3108  0.6674
  183DMF     C2 2676   1.194   1.242   3.680  0.6989  0.0089 -0.1497
  183DMF     C3 2677   1.010   1.403   3.682  0.6651  0.0436 -0.1536
  183DMF     O1 2678   0.899   1.448   3.660  0.0528 -0.3530  0.2758
  183DMF     H1 2679   1.073   1.220   3.433 -1.3258 -0.9263 -1.1085
  183DMF     H2 2680   0.908   1.263   3.486 -0.4081 -0.2550  0.4661
  183DMF     H3 2681   0.986   1.109   3.537  2.4179 -1.0472 -0.8044
  183DMF     H4 2682   1.158   1.187   3.768  0.4727 -0.6099 -0.6217
  183DMF     H5 2683   1.250   1.333   3.704 -1.2026  1.3573 -0.7029
  183DMF     H6 2684   1.240   1.168   3.613  0.6294 -0.0715 -0.1096
  183DMF     H7 2685   1.081   1.436   3.760  0.4414  1.6142 -0.6058
  184DMF     C1 2686   1.004   0.188   0.299  0.7040 -0.6584 -0.0407
  184DMF     N1 2687   0.862   0.218   0.287  0.3526  0.9303 -0.7073
  184DMF     C2 2688   0.788   0.153   0.178  0.1560 -0.3515 -0.5054
  184DMF     C3 2689   0.801   0.318   0.365  0.5828  1.2154  0.6616
  184DMF     O1 2690   0.860   0.374   0.454  0.6983  0.1211 -0.0348
  184DMF     H1 2691   1.022   0.140   0.396  2.5334  0.7520  0.3404
  184DMF     H2 2692   1.069   0.276   0.290  2.0093 -1.6537 -0.5169
  184DMF     H3 2693   1.039   0.127   0.215  0.4614 -2.1844  0.9566
  184DMF     H4 2694   0.698   0.107   0.221  0.8664 -0.5402  0.7966
  184DMF     H5 2695   0.849   0.070   0.142 -0.2395 -0.4532 -0.9441
  184DMF     H6 2696   0.758   0.217   0.094 -0.0944  0.5134  0.2330
  184DMF     H7 2697   0.699   0.349   0.334 -0.1265 -0.4574  1.2266
  185DMF     C1 2698   3.286   1.586   1.199  0.0870 -0.6840  0.0051
  185DMF     N1 2699   3.350   1.517   1.094 -0.0538  0.0130  0.4217
  185DMF     C2 2700   3.341   1.376   1.076 -0.1565  0.0427  0.0154
  185DMF     C3 2701   3.453   1.595   1.029 -0.4759  0.5617  0.4524
  185DMF     O1 2702   3.476   1.714   1.048  0.1356 -0.0587 -0.1996
  185DMF     H1 2703   3.298   1.695   1.186  3.7836 -0.9157  1.0245
  185DMF     H2 2704   3.338   1.560   1.292 -0.0783 -0.2802  0.2132
  185DMF     H3 2705   3.179   1.563   1.191  0.0258 -0.1866 -0.5983
  185DMF     H4 2706   3.318   1.320   1.167 -0.4448  0.7801  0.4015
  185DMF     H5 2707   3.448   1.360   1.058 -0.1630 -0.3739  0.3401
  185DMF     H6 2708   3.284   1.332   0.993  0.4499 -1.0309  0.1549
  185DMF     H7 2709   3.512   1.529   0.963  0.2302  1.3030  0.3393
  186DMF     C1 2710   1.674   2.733   3.221 -0.7314 -0.1121  0.3173
  186DMF     N1 2711   1.560   2.640   3.243 -0.5198 -0.3260  0.3996
  186DMF     C2 2712   1.476   2.603   3.127  0.3018 -0.3839  0.6359
  186DMF     C3 2713   1.547   2.580   3.368  0.6718 -0.1220 -0.1466
  186DMF     O1 2714   1.604   2.622   3.467  0.8162  0.4402  0.1764
  186DMF     H1 2715   1.720   2.736   3.321 -1.5405 -0.8548  0.7200
  186DMF     H2 2716   1.642   2.831   3.182  2.2026  0.1190 -1.5806
  186DMF     H3 2717   1.732   2.674   3.150 -1.7302 -2.0439  1.0808
  186DMF     H4 2718   1.499   2.499   3.099 -2.2664 -0.6808 -0.5245
  186DMF     H5 2719   1.476   2.666   3.037 -1.7431  1.6451  2.0016
  186DMF     H6 2720   1.372   2.615   3.158  0.1093 -2.5052  0.8633
  186DMF     H7 2721   1.474   2.499   3.352  1.1519 -0.9822  1.8917
  187DMF     C1 2722   1.891   3.006   3.184 -0.4506  0.1844  0.1982
  187DMF     N1 2723   1.898   2.976   3.035  0.4325  0.0297  0.1740
  187DMF     C2 2724   1.777   2.987   2.954 -0.1397 -0.4330 -0.1706
  187DMF     C3 2725   2.016   2.942   2.974  0.3161  0.2366 -0.5460
  187DMF     O1 2726   2.118   2.927   3.035  0.4091  0.3971  0.0076
  187DMF     H1 2727   1.943   2.937   3.252 -0.9357  0.9177  1.3199
  187DMF     H2 2728   1.785   3.015   3.210 -0.3221 -0.8006  1.0825
  187DMF     H3 2729   1.931   3.106   3.202 -2.5785  1.1003 -0.0757
  187DMF     H4 2730   1.707   3.051   3.009  2.4281  1.6645  0.7739
  187DMF     H5 2731   1.748   2.881   2.948  1.5188 -0.9452  0.4157
  187DMF     H6 2732   1.797   3.020   2.851 -2.4315  1.0484 -0.1585
  187DMF     H7 2733   2.014   2.937   2.863 -2.1658 -0.4713 -0.4835
  188DMF     C1 2734   2.836   0.888   0.559  0.3844 -0.6331 -0.6270
  188DMF     N1 2735   2.737   0.831   0.469 -0.8265  0.6612 -0.4284
  188DMF     C2 2736   2.695   0.690   0.500  0.4829  0.3867 -0.3116
  188DMF     C3 2737   2.681   0.900   0.353 -0.1115 -0.8246  0.4480
  188DMF     O1 2738   2.722   1.009   0.316 -0.3041 -0.1033  0.2315
  188DMF     H1 2739   2.899   0.806   0.595 -0.3636 -0.2880  1.4995
  188DMF     H2 2740   2.799   0.937   0.650  2.9870 -0.0992  0.1846
  188DMF     H3 2741   2.897   0.958   0.501 -0.6060  1.3827  0.7217
  188DMF     H4 2742   2.598   0.668   0.453  0.5536 -2.1339  0.6378
  188DMF     H5 2743   2.674   0.681   0.608 -0.0045  0.7717 -0.3738
  188DMF     H6 2744   2.760   0.607   0.469  0.8216  0.5057  0.0768
  188DMF     H7 2745   2.613   0.838   0.291 -2.8302  0.8744  1.6229
  189DMF     C1 2746   2.992   2.945   3.105 -0.0784 -0.1912 -0.2403
  189DMF     N1 2747   2.935   2.963   3.242  0.2334  0.2587  0.6355
  189DMF     C2 2748   2.805   3.029   3.249  0.5021 -0.6690 -0.3719
  189DMF     C3 2749   3.003   2.930   3.362  0.7611  0.0150  0.6064
  189DMF     O1 2750   3.126   2.903   3.366 -0.0280  0.0453  0.0382
  189DMF     H1 2751   2.962   2.851   3.057  0.3635 -0.8328  0.7366
  189DMF     H2 2752   3.101   2.953   3.100 -0.1048 -0.6521 -1.7756
  189DMF     H3 2753   2.947   3.023   3.043 -1.7463 -0.7345  0.2611
  189DMF     H4 2754   2.806   3.138   3.239  1.2076 -0.7782 -1.7260
  189DMF     H5 2755   2.759   3.011   3.347 -0.4786 -1.0396 -0.8907
  189DMF     H6 2756   2.734   2.992   3.174 -1.3566 -0.0957  1.0860
  189DMF     H7 2757   2.931   2.928   3.445 -0.8292  1.1476 -0.7265
  190DMF     C1 2758   3.380   2.209   3.783 -0.1178  0.3206  0.5642
  190DMF     N1 2759   3.413   2.142   3.909  0.2383  0.1630  0.2361
  190DMF     C2 2760   3.321   2.172   4.018 -0.1451 -0.7845 -0.5377
  190DMF     C3 2761   3.513   2.042   3.917 -0.2477  0.4386 -0.8880
  190DMF     O1 2762   3.562   2.004   3.819 -0.0151  0.2260  0.1409
  190DMF     H1 2763   3.388   2.128   3.709 -0.2920 -0.0552  0.9589
  190DMF     H2 2764   3.448   2.295   3.773 -0.4480  0.5688  0.4306
  190DMF     H3 2765   3.272   2.233   3.783 -0.1674  0.0769  1.3787
  190DMF     H4 2766   3.339   2.098   4.097 -1.3745 -1.7788 -1.1622
  190DMF     H5 2767   3.217   2.148   3.992  0.6251 -3.3370 -1.4965
  190DMF     H6 2768   3.328   2.277   4.047  1.1771 -1.0462  0.1187
  190DMF     H7 2769   3.532   2.007   4.020  0.3704 -0.4148 -1.2857
  191DMF     C1 2770   0.537   0.860   2.250  0.3083 -0.1279 -0.3279
  191DMF     N1 2771   0.451   0.979   2.270  0.0486  0.6489 -0.1526
  191DMF     C2 2772   0.505   1.107   2.235  0.7850  0.3569  0.2430
  191DMF     C3 2773   0.316   0.966   2.301 -0.1172 -0.7853 -0.1005
  191DMF     O1 2774   0.269   0.852   2.310  0.2781 -0.0941 -0.0179
  191DMF     H1 2775   0.631   0.890   2.201  0.0069  1.0029 -0.2199
  191DMF     H2 2776   0.490   0.793   2.177 -1.6685 -2.1800  2.7397
  191DMF     H3 2777   0.542   0.807   2.345 -0.1856 -0.9134 -0.7284
  191DMF     H4 2778   0.509   1.174   2.322  1.2235  0.0405  0.4672
  191DMF     H5 2779   0.438   1.160   2.166  0.0419 -0.1730  0.5421
  191DMF     H6 2780   0.604   1.091   2.191  0.5499 -2.4059  0.6212
  191DMF     H7 2781   0.254   1.056   2.316 -1.1666 -1.6281  0.6991
  192DMF     C1 2782   0.687   0.511   3.535 -0.2138 -0.6058 -0.1049
  192DMF     N1 2783   0.698   0.444   3.405  0.0421  0.4617  0.5097
  192DMF     C2 2784   0.573   0.380   3.355 -0.5138  0.0399 -0.5247
  192DMF     C3 2785   0.811   0.458   3.325  0.3918  0.3752  0.6143
  192DMF     O1 2786   0.897   0.537   3.352  0.0391  0.3214 -0.1503
  192DMF     H1 2787   0.618   0.452   3.596  0.0830  0.3565  1.2024
  192DMF     H2 2788   0.636   0.608   3.525  0.1374 -0.3235  0.7524
  192DMF     H3 2789   0.777   0.518   3.598 -0.4727  1.9858  0.0625
  192DMF     H4 2790   0.567   0.271   3.365  2.4958 -0.1990 -0.8390
  192DMF     H5 2791   0.566   0.399   3.247 -2.3512  0.0652 -0.4149
  192DMF     H6 2792   0.483   0.418   3.406  0.0635 -2.0596  2.1667
  192DMF     H7 2793   0.807   0.392   3.236  2.3716  0.3097  0.5372
  193DMF     C1 2794   0.815   1.651   0.900 -0.4259  0.7379 -0.0329
  193DMF     N1 2795   0.860   1.511   0.884 -0.2366 -0.2735 -0.3874
  193DMF     C2 2796   0.849   1.442   0.748  0.3352  0.0873 -0.4644
  193DMF     C3 2797   0.915   1.448   0.998  0.4239 -0.4551 -0.1101
  193DMF     O1 2798   0.919   1.505   1.108 -0.0977 -0.3012 -0.1078
  193DMF     H1 2799   0.717   1.652   0.851 -1.1950  0.3595  1.4466
  193DMF     H2 2800   0.885   1.718   0.850  2.1644 -0.9094  1.2933
  193DMF     H3 2801   0.799   1.685   1.003  2.2967 -0.5860  0.8720
  193DMF     H4 2802   0.744   1.443   0.715 -0.4557  0.1907  1.8866
  193DMF     H5 2803   0.892   1.341   0.740 -2.0162 -0.8595 -1.5309
  193DMF     H6 2804   0.907   1.502   0.677 -0.8231  1.3696 -0.3484
  193DMF     H7 2805   0.944   1.343   0.975  0.3340 -0.3536 -0.6826
  194DMF     C1 2806   0.616   1.929   3.305  0.3107 -0.5710  0.3161
  194DMF     N1 2807   0.588   1.958   3.447  0.0170 -0.2430 -0.0173
  194DMF     C2 2808   0.627   2.094   3.505 -0.3286 -0.1379 -0.7351
  194DMF     C3 2809   0.554   1.854   3.542 -0.5057 -0.4634 -0.3417
  194DMF     O1 2810   0.515   1.740   3.510 -0.6476  0.1049  0.1011
  194DMF     H1 2811   0.639   2.028   3.265 -1.0714 -1.2842 -2.3639
  194DMF     H2 2812   0.536   1.879   3.248  0.4052 -1.6632  1.1183
  194DMF     H3 2813   0.714   1.881   3.301  0.6763  0.2518 -0.7053
  194DMF     H4 2814   0.732   2.114   3.480  0.5800 -1.3924  1.9178
  194DMF     H5 2815   0.615   2.109   3.613 -0.3943 -0.3801 -0.7096
  194DMF     H6 2816   0.558   2.170   3.466  0.1679  2.2537  2.7927
  194DMF     H7 2817   0.532   1.893   3.643  3.7335 -1.5126  1.0888
  195DMF     C1 2818   1.348   0.517   2.277  0.2382  0.5397  1.0460
  195DMF     N1 2819   1.253   0.416   2.230  0.4388  0.7454  0.2401
  195DMF     C2 2820   1.304   0.274   2.225 -0.3488 -0.2183  0.0270
  195DMF     C3 2821   1.112   0.438   2.227 -0.4320 -0.3961  0.6651
  195DMF     O1 2822   1.069   0.544   2.262 -0.0439 -0.4467  0.0217
  195DMF     H1 2823   1.387   0.573   2.192 -0.6123  2.4235  1.8673
  195DMF     H2 2824   1.431   0.469   2.330 -0.7818 -1.1217  1.1637
  195DMF     H3 2825   1.296   0.579   2.351 -0.3053 -0.0504  1.1624
  195DMF     H4 2826   1.390   0.268   2.157  0.9439 -1.3411  1.7051
  195DMF     H5 2827   1.225   0.210   2.186 -0.1668 -0.6315  0.3346
  195DMF     H6 2828   1.336   0.231   2.321 -4.3725  0.8640  1.9605
  195DMF     H7 2829   1.051   0.358   2.181 -1.6125  1.5911 -1.3053
  196DMF     C1 2830   1.394   2.081   3.112 -0.3664  0.1693  0.1758
  196DMF     N1 2831   1.494   2.076   3.003 -0.2183 -0.5774  0.1376
  196DMF     C2 2832   1.572   1.957   2.989 -0.1795  0.5345 -0.4618
  196DMF     C3 2833   1.514   2.181   2.915 -0.1164 -0.4289  0.1145
  196DMF     O1 2834   1.438   2.277   2.906  0.2205  0.4865  0.1553
  196DMF     H1 2835   1.371   2.186   3.136  1.1139  0.7625 -0.8862
  196DMF     H2 2836   1.438   2.031   3.199  1.6265  0.3065 -0.7286
  196DMF     H3 2837   1.303   2.032   3.077 -0.7868  1.7703 -1.0634
  196DMF     H4 2838   1.568   1.896   3.080  2.4907 -1.8022 -1.8243
  196DMF     H5 2839   1.675   1.980   2.960  0.4315  1.2273  2.1320
  196DMF     H6 2840   1.523   1.904   2.906  2.5202  1.1339 -2.5255
  196DMF     H7 2841   1.601   2.160   2.850  0.3551 -3.8697  1.7400
  197DMF     C1 2842   0.267   2.888   2.929  0.3114  0.7302 -0.6303
  197DMF     N1 2843   0.306   2.746   2.878  0.5532 -0.1006 -0.5098
  197DMF     C2 2844   0.202   2.651   2.851 -0.4610 -0.4853 -0.4429
  197DMF     C3 2845   0.442   2.705   2.856 -0.0559 -0.5962  0.9567
  197DMF     O1 2846   0.538   2.777   2.868 -0.3075  0.2491 -0.2447
  197DMF     H1 2847   0.162   2.904   2.901  0.6931  0.6531 -2.1086
  197DMF     H2 2848   0.328   2.962   2.877  0.5275  2.2107  1.6350
  197DMF     H3 2849   0.275   2.886   3.039  0.5053  0.7053 -0.6439
  197DMF     H4 2850   0.253   2.555   2.845  2.0112  0.8672 -1.6925
  197DMF     H5 2851   0.157   2.680   2.755 -1.7712  1.4856  0.7307
  197DMF     H6 2852   0.120   2.645   2.924 -0.9102  2.8594 -0.5707
  197DMF     H7 2853   0.445   2.599   2.826  0.4705  0.0418 -1.3412
  198DMF     C1 2854   0.051   0.744   1.323  0.0134 -0.3381  0.0505
  198DMF     N1 2855  -0.064   0.816   1.388  0.0597  0.0030  0.9878
  198DMF     C2 2856  -0.061   0.836   1.537  0.6496  0.6665  0.1777
  198DMF     C3 2857  -0.153   0.884   1.309 -0.4957  0.0141  0.1982
  198DMF     O1 2858  -0.136   0.897   1.186 -0.3710 -0.0851 -0.0984
  198DMF     H1 2859   0.079   0.655   1.381 -0.5292 -1.2921 -1.1137
  198DMF     H2 2860   0.138   0.809   1.307 -0.9196  0.6835 -0.9464
  198DMF     H3 2861   0.019   0.702   1.227 -0.6959 -0.3183  0.2740
  198DMF     H4 2862   0.027   0.793   1.586  1.4776  2.3470  0.1942
  198DMF     H5 2863  -0.144   0.789   1.592  1.4239 -0.1210  0.6749
  198DMF     H6 2864  -0.075   0.942   1.562 -0.4811  0.4987  0.3121
  198DMF     H7 2865  -0.239   0.917   1.370 -0.2935  0.7470  0.0927
  199DMF     C1 2866   1.915   2.377   3.531  0.0420  1.0847  0.1437
  199DMF     N1 2867   2.050   2.411   3.502  0.2633  0.0212  0.1093
  199DMF     C2 2868   2.102   2.544   3.556  0.6954 -0.1476  0.5317
  199DMF     C3 2869   2.142   2.310   3.461  0.1239  0.2452 -0.4096
  199DMF     O1 2870   2.105   2.198   3.421 -0.4973 -0.1930  0.1096
  199DMF     H1 2871   1.864   2.443   3.602 -2.0053 -0.3841  0.0676
  199DMF     H2 2872   1.920   2.277   3.575  1.5990  0.9855 -0.2396
  199DMF     H3 2873   1.853   2.367   3.441 -1.0513 -0.8513  1.0867
  199DMF     H4 2874   2.085   2.545   3.664 -0.4351  1.4748  0.3641
  199DMF     H5 2875   2.055   2.631   3.509 -1.4475 -2.2995 -1.4329
  199DMF     H6 2876   2.210   2.555   3.543  0.8717 -0.4022  1.7610
  199DMF     H7 2877   2.246   2.343   3.476 -0.2520  1.0021  0.5673
  200DMF     C1 2878   3.006   0.527   0.867 -1.0175 -0.7139 -0.0545
  200DMF     N1 2879   3.115   0.599   0.936  0.0419 -0.3129  0.5532
  200DMF     C2 2880   3.173   0.723   0.886  0.0470  0.3299 -0.0183
  200DMF     C3 2881   3.153   0.558   1.063 -0.1554 -0.2087  0.3166
  200DMF     O1 2882   3.089   0.478   1.128  0.3880  0.1970 -0.0509
  200DMF     H1 2883   2.924   0.599   0.857  0.1608  0.4317 -1.7545
  200DMF     H2 2884   2.981   0.435   0.921  1.9868 -1.9277 -0.6245
  200DMF     H3 2885   3.040   0.509   0.764  3.7047  2.0182  0.8782
  200DMF     H4 2886   3.151   0.800   0.961 -0.0632  0.3436 -0.0640
  200DMF     H5 2887   3.143   0.751   0.784  0.5244  0.1001 -0.2233
  200DMF     H6 2888   3.282   0.711   0.884  0.0888  0.1046  2.3241
  200DMF     H7 2889   3.247   0.606   1.097  0.6033 -0.8468 -0.8263
  201DMF     C1 2890   2.541   2.739   0.571 -0.2145  0.3829 -0.6671
  201DMF     N1 2891   2.631   2.675   0.660 -0.5093 -0.1676  0.4721
  201DMF     C2 2892   2.704   2.750   0.760 -0.5921 -0.0785  0.8801
  201DMF     C3 2893   2.683   2.551   0.622  0.0319 -0.7285  0.3464
  201DMF     O1 2894   2.660   2.493   0.520  0.2331  0.1835 -0.7461
  201DMF     H1 2895   2.596   2.771   0.482  1.5931  2.9494  1.2991
  201DMF     H2 2896   2.501   2.832   0.612  0.8320  0.5255  0.0547
  201DMF     H3 2897   2.452   2.678   0.551  0.0999 -0.3062  0.0180
  201DMF     H4 2898   2.781   2.807   0.706 -1.3772 -1.2990 -1.5855
  201DMF     H5 2899   2.751   2.685   0.834  1.3850  3.1178  2.5663
  201DMF     H6 2900   2.625   2.810   0.807 -1.1919  0.0472 -0.2724
  201DMF     H7 2901   2.741   2.505   0.705  0.2678 -0.7099  0.1928
  202DMF     C1 2902   3.269   3.147   0.242 -0.4533 -0.8240  0.2316
  202DMF     N1 2903   3.195   3.027   0.292 -0.2154 -0.0226 -0.4930
  202DMF     C2 2904   3.105   2.955   0.198 -0.1929 -0.1157  0.1663
  202DMF     C3 2905   3.185   2.992   0.429  0.0227 -0.0556  0.7648
  202DMF     O1 2906   3.256   3.049   0.519  0.2498 -0.2274 -0.2256
  202DMF     H1 2907   3.201   3.233   0.239  0.7108  0.1408  1.0540
  202DMF     H2 2908   3.302   3.135   0.138  0.9883  0.8723  0.4632
  202DMF     H3 2909   3.353   3.177   0.306 -0.2044  0.4683 -0.6777
  202DMF     H4 2910   3.163   2.925   0.111 -1.2452 -2.2451  0.1708
  202DMF     H5 2911   3.027   3.027   0.168  0.2599  0.0635 -0.5782
  202DMF     H6 2912   3.061   2.863   0.238 -0.2301 -2.0530 -4.1153
  202DMF     H7 2913   3.117   2.907   0.441 -0.2736 -0.0082 -0.4692
  203DMF     C1 2914   0.909   2.171   3.176 -0.4727  0.3054  0.5333
  203DMF     N1 2915   0.962   2.086   3.070 -0.0457  0.7449 -0.8103
  203DMF     C2 2916   1.019   2.139   2.940  0.0426  0.1138 -0.0840
  203DMF     C3 2917   0.974   1.951   3.099 -0.3055 -0.1473  0.5846
  203DMF     O1 2918   0.936   1.894   3.200  0.3830 -0.1462  0.2947
  203DMF     H1 2919   0.895   2.111   3.267  2.1015  0.6965  1.2364
  203DMF     H2 2920   0.809   2.194   3.138 -1.0925  0.6772  2.3029
  203DMF     H3 2921   0.969   2.261   3.191 -1.3421  1.4611 -2.5705
  203DMF     H4 2922   1.087   2.066   2.894  0.4677 -0.4538  1.4305
  203DMF     H5 2923   1.073   2.233   2.953 -0.9782  0.5821  0.8658
  203DMF     H6 2924   0.926   2.154   2.882  0.7289 -1.6046 -1.6881
  203DMF     H7 2925   1.014   1.891   3.016 -0.1775  0.9518 -0.1591
  204DMF     C1 2926   2.379   1.875   0.951  0.4609 -0.0642 -0.6386
  204DMF     N1 2927   2.491   1.777   0.920  0.6032  0.2615 -0.0418
  204DMF     C2 2928   2.465   1.630   0.938 -0.3846 -0.0070  0.3569
  204DMF     C3 2929   2.599   1.816   0.830  0.4347 -0.2135 -1.0022
  204DMF     O1 2930   2.623   1.933   0.795 -0.4999  0.0513 -0.2689
  204DMF     H1 2931   2.387   1.920   1.051 -0.6596 -0.2611 -0.4573
  204DMF     H2 2932   2.279   1.831   0.950  0.2073  0.4759  0.4115
  204DMF     H3 2933   2.391   1.944   0.867  0.4036  0.0974 -0.5140
  204DMF     H4 2934   2.498   1.600   1.038  0.1107 -0.4829  0.0571
  204DMF     H5 2935   2.492   1.568   0.852  0.0695  3.0700 -1.8092
  204DMF     H6 2936   2.356   1.624   0.948 -0.1621 -2.4687  1.4620
  204DMF     H7 2937   2.670   1.733   0.813  0.8433  0.1449 -1.0676
  205DMF     C1 2938   0.842   2.185   0.673  0.2500 -0.2347  0.5453
  205DMF     N1 2939   0.726   2.108   0.720  0.4305  0.2968  0.2678
  205DMF     C2 2940   0.756   1.962   0.733 -0.4601  0.2863  1.2341
  205DMF     C3 2941   0.605   2.163   0.742  0.4100  0.9474  0.8830
  205DMF     O1 2942   0.586   2.276   0.701 -0.0567  0.2505 -0.0465
  205DMF     H1 2943   0.918   2.202   0.750 -0.1380  1.9351  0.4992
  205DMF     H2 2944   0.810   2.283   0.635  0.8796 -0.0239  0.5569
  205DMF     H3 2945   0.880   2.143   0.579  1.7827  1.7927  0.2254
  205DMF     H4 2946   0.664   1.904   0.750 -0.8741  0.3857 -0.5472
  205DMF     H5 2947   0.812   1.948   0.826  1.8035 -0.5394 -0.2190
  205DMF     H6 2948   0.803   1.914   0.647  0.9589  1.0626  1.5734
  205DMF     H7 2949   0.528   2.088   0.767 -0.2700  0.6357 -1.9187
  206DMF     C1 2950   1.354   3.054   0.593 -0.1887  0.1068 -0.0992
  206DMF     N1 2951   1.278   2.990   0.702  0.4389  0.2338  0.7461
  206DMF     C2 2952   1.320   2.864   0.749 -0.0542  0.9734  0.1989
  206DMF     C3 2953   1.165   3.050   0.759 -0.8112 -0.3050 -0.3101
  206DMF     O1 2954   1.125   3.160   0.726  0.0947  0.2246  0.9448
  206DMF     H1 2955   1.291   3.037   0.505  1.5808 -0.0430 -1.3550
  206DMF     H2 2956   1.458   3.021   0.581 -0.0007  0.3803  0.7425
  206DMF     H3 2957   1.364   3.162   0.610  0.6499 -0.2714  2.0585
  206DMF     H4 2958   1.422   2.852   0.710 -0.5150  1.3666 -1.1522
  206DMF     H5 2959   1.258   2.789   0.698  1.7147 -1.4860  1.5737
  206DMF     H6 2960   1.322   2.844   0.857  1.6047  0.8265  0.1591
  206DMF     H7 2961   1.114   2.987   0.834  1.5713 -2.6001 -0.5546
  207DMF     C1 2962   2.090   3.288   2.891 -0.2333 -0.5413  0.2357
  207DMF     N1 2963   2.031   3.341   3.020  0.2186 -0.0672  0.2026
  207DMF     C2 2964   2.091   3.327   3.156 -0.6619 -0.1759 -0.3340
  207DMF     C3 2965   1.914   3.415   3.009  0.0291  1.1599  1.1179
  207DMF     O1 2966   1.861   3.434   2.902 -0.5107  0.0435  0.1913
  207DMF     H1 2967   2.034   3.198   2.864  1.0601 -2.2320  2.9149
  207DMF     H2 2968   2.196   3.260   2.898 -0.1205  0.3317  2.4550
  207DMF     H3 2969   2.083   3.371   2.820  1.0741  0.6767  1.4754
  207DMF     H4 2970   2.140   3.229   3.167  1.0658  0.7968  0.8120
  207DMF     H5 2971   2.017   3.331   3.237 -0.9017 -0.0650 -0.5623
  207DMF     H6 2972   2.168   3.404   3.170  2.6165 -2.7882 -3.0726
  207DMF     H7 2973   1.869   3.452   3.103 -0.9893 -0.0442  1.1141
  208DMF     C1 2974   1.467   2.016   1.429 -0.0086 -0.3672  0.5216
  208DMF     N1 2975   1.471   1.871   1.432 -0.2824  0.5375  0.1702
  208DMF     C2 2976   1.409   1.794   1.541  0.1281  0.1171  0.2629
  208DMF     C3 2977   1.545   1.793   1.336 -0.3665 -0.2861 -0.2589
  208DMF     O1 2978   1.605   1.836   1.239 -0.0901 -0.1481 -0.6025
  208DMF     H1 2979   1.512   2.054   1.336  1.7655 -0.5579  1.2696
  208DMF     H2 2980   1.529   2.056   1.510  1.0170 -2.3502  0.7450
  208DMF     H3 2981   1.366   2.052   1.451 -0.2390 -1.7395  1.8022
  208DMF     H4 2982   1.349   1.864   1.601 -1.5017 -0.1109 -1.0611
  208DMF     H5 2983   1.481   1.758   1.616 -0.3117 -2.3569 -0.4643
  208DMF     H6 2984   1.347   1.715   1.498  0.3793  0.4129 -0.6424
  208DMF     H7 2985   1.545   1.684   1.353  1.0846 -0.3372 -0.5502
  209DMF     C1 2986   0.892   2.849   2.351 -1.0716  0.6945 -0.1044
  209DMF     N1 2987   0.763   2.789   2.334  0.3198  0.7759 -0.3897
  209DMF     C2 2988   0.641   2.855   2.388 -0.1930 -0.4367  0.4107
  209DMF     C3 2989   0.749   2.662   2.273 -0.0301  0.5042  0.4687
  209DMF     O1 2990   0.844   2.601   2.237  0.6710 -0.1910  0.6421
  209DMF     H1 2991   0.886   2.924   2.430 -3.4501  0.4569 -0.0419
  209DMF     H2 2992   0.931   2.899   2.261  1.4627  0.0309  0.5672
  209DMF     H3 2993   0.968   2.775   2.379 -1.1769  0.2654 -0.9215
  209DMF     H4 2994   0.683   2.927   2.459 -2.3596  2.0414 -0.7407
  209DMF     H5 2995   0.593   2.784   2.456 -1.5696  1.4742  1.4785
  209DMF     H6 2996   0.585   2.907   2.309  0.8649  0.0405 -0.0352
  209DMF     H7 2997   0.651   2.612   2.271  0.1617 -0.3944  5.6956
  210DMF     C1 2998   1.260   1.023   3.346  0.0727  0.1214 -0.4941
  210DMF     N1 2999   1.233   0.983   3.213  0.3295 -0.0963  0.0779
  210DMF     C2 3000   1.138   1.060   3.129  0.2584 -0.6019  0.3082
  210DMF     C3 3001   1.288   0.866   3.162  0.9432  0.1033 -0.0486
  210DMF     O1 3002   1.335   0.787   3.241 -0.7634  0.1909  0.0063
  210DMF     H1 3003   1.233   1.129   3.346  1.5688  0.5181 -0.5148
  210DMF     H2 3004   1.369   1.031   3.357 -0.0017  2.2068 -1.0815
  210DMF     H3 3005   1.211   0.961   3.422 -0.1873  0.3075 -0.5091
  210DMF     H4 3006   1.196   1.139   3.081 -1.8410  0.9037  0.1520
  210DMF     H5 3007   1.056   1.104   3.187 -1.3274 -2.9324 -0.0840
  210DMF     H6 3008   1.091   0.989   3.059 -0.5134 -0.3177  0.5253
  210DMF     H7 3009   1.277   0.853   3.053  1.7871 -0.4384 -0.0699
  211DMF     C1 3010   1.765   1.833   2.639  0.3041 -0.3525 -0.1050
  211DMF     N1 3011   1.890   1.909   2.624  1.0586  0.6258 -0.1086
  211DMF     C2 3012   2.015   1.845   2.595 -0.5719 -0.1424  0.0390
  211DMF     C3 3013   1.887   2.042   2.657 -0.1528 -0.0098  0.5961
  211DMF     O1 3014   1.786   2.101   2.677  0.1607 -0.3391 -0.2146
  211DMF     H1 3015   1.681   1.885   2.590  0.5364 -0.6523 -0.8320
  211DMF     H2 3016   1.741   1.824   2.746 -0.4076 -1.3130 -0.3287
  211DMF     H3 3017   1.776   1.730   2.602  1.2696 -0.4253  0.3714
  211DMF     H4 3018   1.999   1.736   2.602  0.7428 -0.3803 -0.5306
  211DMF     H5 3019   2.078   1.877   2.678 -1.9089 -0.1106  1.0497
  211DMF     H6 3020   2.061   1.865   2.497  1.0468 -1.0471  0.5915
  211DMF     H7 3021   1.987   2.088   2.646 -0.2042  0.4663  2.0145
  212DMF     C1 3022   3.274   0.979   2.478  0.2725 -0.6998  0.3123
  212DMF     N1 3023   3.300   0.928   2.339  0.1810 -0.2388 -0.0310
  212DMF     C2 3024   3.279   0.782   2.315  0.1636 -0.2375  0.1463
  212DMF     C3 3025   3.339   1.014   2.240 -0.2772  0.1067 -0.4635
  212DMF     O1 3026   3.346   1.134   2.251  0.2310  0.0804  0.1402
  212DMF     H1 3027   3.368   1.024   2.512 -0.7262  0.7997  1.1301
  212DMF     H2 3028   3.262   0.898   2.552  2.7153 -1.5197 -0.1347
  212DMF     H3 3029   3.194   1.054   2.472 -0.6459 -1.6306  0.6830
  212DMF     H4 3030   3.345   0.747   2.235 -1.6270 -0.5769 -1.2261
  212DMF     H5 3031   3.178   0.759   2.280  0.3704 -1.3035  0.2409
  212DMF     H6 3032   3.301   0.725   2.405 -0.9806 -1.0511 -0.0820
  212DMF     H7 3033   3.339   0.958   2.145  2.9346  0.1344 -0.5224
  213DMF     C1 3034   1.079   1.347   1.546  0.3812 -0.2088  0.2153
  213DMF     N1 3035   1.122   1.255   1.442 -0.8110  0.2723 -0.4581
  213DMF     C2 3036   1.083   1.278   1.303  0.1471 -0.3939  0.5789
  213DMF     C3 3037   1.208   1.148   1.486  0.3408 -0.1621  0.0831
  213DMF     O1 3038   1.249   1.135   1.596  0.2465 -0.0274 -0.4160
  213DMF     H1 3039   1.149   1.362   1.630 -1.8532 -0.2090  2.1112
  213DMF     H2 3040   0.990   1.308   1.597  0.1945  1.2884  1.0430
  213DMF     H3 3041   1.049   1.443   1.504 -0.9883 -0.2568  1.0909
  213DMF     H4 3042   1.114   1.379   1.272  0.7682 -0.1002  2.1484
  213DMF     H5 3043   0.973   1.284   1.313  0.1533  1.6966 -0.2748
  213DMF     H6 3044   1.127   1.205   1.234 -2.0178 -1.5047  0.3170
  213DMF     H7 3045   1.241   1.088   1.400 -1.0026 -2.4317  1.0961
  214DMF     C1 3046   1.190   0.229   0.885  0.2173  0.5822  0.7330
  214DMF     N1 3047   1.169   0.247   0.743  0.0617 -0.5105  0.6407
  214DMF     C2 3048   1.045   0.314   0.699 -0.2573 -0.7270 -0.3262
  214DMF     C3 3049   1.257   0.200   0.647 -0.7222 -0.3024  0.7363
  214DMF     O1 3050   1.360   0.141   0.674 -0.4476 -0.0743 -0.5455
  214DMF     H1 3051   1.138   0.297   0.955 -0.4197 -0.4243  1.2674
  214DMF     H2 3052   1.299   0.234   0.895  0.2655 -2.3622  2.1893
  214DMF     H3 3053   1.161   0.126   0.912 -0.9231  0.6830 -0.0531
  214DMF     H4 3054   0.993   0.379   0.771  0.6096  0.6753 -0.9425
  214DMF     H5 3055   0.973   0.234   0.676  0.1706 -0.6081 -2.1728
  214DMF     H6 3056   1.070   0.377   0.613 -1.4243  0.2520  0.0256
  214DMF     H7 3057   1.231   0.235   0.545  1.5238 -0.1934  0.1695
  215DMF     C1 3058   1.446   2.762   2.674 -0.3144 -0.0422 -0.0609
  215DMF     N1 3059   1.371   2.632   2.675 -0.5041 -0.3181 -0.0059
  215DMF     C2 3060   1.356   2.570   2.541  0.1007  0.0418 -0.5520
  215DMF     C3 3061   1.292   2.597   2.784  0.6751  0.2314  0.2402
  215DMF     O1 3062   1.281   2.675   2.881  0.4339  0.6619  0.4928
  215DMF     H1 3063   1.519   2.770   2.755 -0.4407 -0.4176  0.0920
  215DMF     H2 3064   1.374   2.844   2.687  0.1745  0.4559 -0.4886
  215DMF     H3 3065   1.493   2.784   2.578  0.5957  0.3443  0.4670
  215DMF     H4 3066   1.255   2.592   2.504  0.5419  1.5378 -0.9289
  215DMF     H5 3067   1.391   2.467   2.551  0.7054  0.4187  1.4071
  215DMF     H6 3068   1.416   2.620   2.464 -1.7135  3.2384 -0.0031
  215DMF     H7 3069   1.246   2.498   2.767  0.9786  0.2245 -0.5587
  216DMF     C1 3070   2.322   2.757   3.732  0.1082  0.3954 -0.7281
  216DMF     N1 3071   2.368   2.886   3.784 -0.8060  0.4803 -0.7377
  216DMF     C2 3072   2.444   2.972   3.691  0.2173 -0.5802  0.2636
  216DMF     C3 3073   2.361   2.917   3.917  0.5215 -0.3544 -0.4112
  216DMF     O1 3074   2.325   2.837   3.998 -0.3048  0.3718 -0.4121
  216DMF     H1 3075   2.364   2.678   3.795 -1.6979  0.9336  1.1989
  216DMF     H2 3076   2.364   2.745   3.631 -1.0462  1.1072 -1.2988
  216DMF     H3 3077   2.212   2.755   3.733  0.1144  0.4841  0.1580
  216DMF     H4 3078   2.502   2.918   3.615  1.7025  3.4358 -1.6127
  216DMF     H5 3079   2.508   3.039   3.749  0.8716 -0.7439 -0.2671
  216DMF     H6 3080   2.377   3.043   3.641  0.8757 -0.6346 -0.6985
  216DMF     H7 3081   2.396   3.019   3.941  0.5121 -0.6451  0.8325
  217DMF     C1 3082   0.860   2.613   2.612  0.5218  0.0262 -0.2018
  217DMF     N1 3083   0.781   2.537   2.712 -0.3972  0.2735  0.2912
  217DMF     C2 3084   0.837   2.496   2.840  0.4938 -0.4436  0.1557
  217DMF     C3 3085   0.652   2.500   2.675  0.7431 -0.0941 -0.0456
  217DMF     O1 3086   0.605   2.533   2.564  0.0234 -0.3448  0.2043
  217DMF     H1 3087   0.871   2.552   2.522 -0.6212  0.1809 -0.4524
  217DMF     H2 3088   0.965   2.626   2.640  0.9270 -0.9220 -1.2370
  217DMF     H3 3089   0.806   2.705   2.586 -0.1640 -0.3862 -0.2564
  217DMF     H4 3090   0.868   2.592   2.885 -1.4389 -0.0562  0.7217
  217DMF     H5 3091   0.914   2.419   2.829 -1.0728 -1.8400 -1.0410
  217DMF     H6 3092   0.759   2.459   2.908 -1.0921  1.5903 -0.4968
  217DMF     H7 3093   0.600   2.437   2.749  1.1391 -1.2421 -0.7421
  218DMF     C1 3094   1.528   1.797   3.405  0.0646  0.3914 -0.0571
  218DMF     N1 3095   1.620   1.688   3.416  0.4145  0.6455 -0.0407
  218DMF     C2 3096   1.657   1.646   3.558  0.5249 -0.3153  0.3225
  218DMF     C3 3097   1.672   1.624   3.302 -0.3808  0.0710  0.6055
  218DMF     O1 3098   1.645   1.670   3.190  0.5781  0.1904 -0.7601
  218DMF     H1 3099   1.593   1.885   3.406 -0.1472  0.5450  0.2897
  218DMF     H2 3100   1.462   1.801   3.493 -0.2402  1.2258 -0.3212
  218DMF     H3 3101   1.473   1.794   3.310  0.0043  0.0486 -0.0122
  218DMF     H4 3102   1.563   1.622   3.608 -1.5394 -0.4768 -3.4639
  218DMF     H5 3103   1.706   1.728   3.611 -1.2880  1.0293 -0.0265
  218DMF     H6 3104   1.724   1.561   3.541  0.0908 -1.4505  3.9116
  218DMF     H7 3105   1.763   1.564   3.319  0.2004  0.6818 -0.2588
  219DMF     C1 3106   1.751   1.403   1.473 -0.3934 -0.2329 -0.5544
  219DMF     N1 3107   1.655   1.302   1.523 -0.0258 -0.6155  0.5478
  219DMF     C2 3108   1.708   1.172   1.539 -0.4890 -0.2286 -0.3797
  219DMF     C3 3109   1.516   1.331   1.519 -0.4818  0.1676 -0.9222
  219DMF     O1 3110   1.478   1.431   1.457 -0.2411 -0.0647 -0.6994
  219DMF     H1 3111   1.698   1.438   1.383 -2.0676  0.2699  0.5993
  219DMF     H2 3112   1.845   1.358   1.438 -1.8105 -1.0854 -3.4504
  219DMF     H3 3113   1.765   1.481   1.549 -2.9800 -0.5369  0.2854
  219DMF     H4 3114   1.723   1.152   1.645 -2.5898  0.9641  0.1676
  219DMF     H5 3115   1.804   1.152   1.488 -0.5666  0.3195 -0.7497
  219DMF     H6 3116   1.641   1.095   1.499  0.4920 -1.0792 -0.3966
  219DMF     H7 3117   1.450   1.255   1.563 -0.1724  0.7437  0.5523
  220DMF     C1 3118   2.405   1.847   2.682  0.4653  0.2992 -0.7821
  220DMF     N1 3119   2.336   1.980   2.697 -0.2633  0.2207 -0.0865
  220DMF     C2 3120   2.293   2.046   2.577  0.2044  0.3325  0.3502
  220DMF     C3 3121   2.330   2.039   2.825  0.5274  0.4055 -0.9367
  220DMF     O1 3122   2.378   1.986   2.925 -0.7634  0.1822 -0.0076
  220DMF     H1 3123   2.484   1.856   2.606  0.9860  3.8003  0.0720
  220DMF     H2 3124   2.331   1.768   2.665 -0.1572  0.2333  1.9512
  220DMF     H3 3125   2.462   1.808   2.767 -0.3198 -0.2783 -0.5137
  220DMF     H4 3126   2.279   1.994   2.482  1.0800  0.3610  0.2025
  220DMF     H5 3127   2.355   2.132   2.548 -1.3448  0.4851 -2.7104
  220DMF     H6 3128   2.192   2.088   2.587 -0.1939 -0.8608  1.5116
  220DMF     H7 3129   2.276   2.136   2.826 -1.3167 -0.6232  0.1995
  221DMF     C1 3130   1.889   0.406   2.799 -0.8119 -0.1986 -0.0544
  221DMF     N1 3131   2.015   0.332   2.781 -0.2282 -0.0739 -0.3404
  221DMF     C2 3132   2.060   0.307   2.648  0.4247  0.4703  0.1661
  221DMF     C3 3133   2.060   0.252   2.883 -0.4177 -0.9545 -0.0779
  221DMF     O1 3134   2.026   0.260   2.997 -0.0338  0.0144  0.5332
  221DMF     H1 3135   1.891   0.500   2.855 -1.5211  0.3397 -0.9093
  221DMF     H2 3136   1.815   0.346   2.853 -0.9932 -1.4339 -1.6156
  221DMF     H3 3137   1.855   0.431   2.697 -0.5831  2.5727  0.5206
  221DMF     H4 3138   2.139   0.231   2.648  0.8228  0.8816  1.6020
  221DMF     H5 3139   2.097   0.399   2.602 -0.9683  0.7816 -0.3550
  221DMF     H6 3140   1.970   0.284   2.590  0.7950 -1.9367  0.4972
  221DMF     H7 3141   2.132   0.176   2.848 -0.3740 -0.4075 -1.1799
  222DMF     C1 3142   1.362   1.010   0.306 -0.0081  0.2178  0.1427
  222DMF     N1 3143   1.348   1.003   0.449  1.1367 -0.6586 -0.6348
  222DMF     C2 3144   1.455   0.942   0.529 -0.5786  0.6159 -0.2524
  222DMF     C3 3145   1.231   1.036   0.524 -0.2713 -0.5763 -0.8663
  222DMF     O1 3146   1.121   1.064   0.474 -0.0381  0.3418  0.6324
  222DMF     H1 3147   1.335   0.920   0.249 -0.8750  0.8332 -0.4317
  222DMF     H2 3148   1.460   1.052   0.281  0.6518 -1.8981 -1.0086
  222DMF     H3 3149   1.290   1.088   0.279 -0.2309 -0.2741 -0.7207
  222DMF     H4 3150   1.426   0.905   0.628 -0.5278  1.2891  0.0164
  222DMF     H5 3151   1.543   1.008   0.532 -0.0503 -0.1520  1.2250
  222DMF     H6 3152   1.483   0.854   0.470 -1.4713  0.4926 -0.4942
  222DMF     H7 3153   1.251   1.047   0.632 -0.6611 -2.0317 -0.6406
  223DMF     C1 3154   2.173   2.472   2.822  0.3021  0.9312  0.3125
  223DMF     N1 3155   2.206   2.456   2.680 -0.1304  0.1731 -0.3449
  223DMF     C2 3156   2.132   2.539   2.579 -0.1036  0.5294  0.0672
  223DMF     C3 3157   2.329   2.397   2.647  0.0232 -0.0729 -0.0485
  223DMF     O1 3158   2.399   2.345   2.728 -0.1418 -0.1432  0.2695
  223DMF     H1 3159   2.068   2.500   2.835  0.1485  0.4298  0.1889
  223DMF     H2 3160   2.231   2.548   2.876 -0.1362  0.7521  1.0349
  223DMF     H3 3161   2.192   2.376   2.873 -0.0952  1.2696  1.1053
  223DMF     H4 3162   2.187   2.549   2.484  0.6744  2.0244  0.6531
  223DMF     H5 3163   2.106   2.640   2.614  1.5802  0.1883  2.4647
  223DMF     H6 3164   2.039   2.487   2.553 -0.3011  0.9554 -0.0879
  223DMF     H7 3165   2.353   2.393   2.540  1.4355  1.3175  0.1982
  224DMF     C1 3166   1.395   0.806   1.543  0.3357 -0.1768 -0.3584
  224DMF     N1 3167   1.343   0.691   1.469  0.0632  0.2750 -0.3473
  224DMF     C2 3168   1.332   0.562   1.541  0.1057  0.2824 -0.0728
  224DMF     C3 3169   1.307   0.700   1.332 -0.1673 -0.3235 -0.4023
  224DMF     O1 3170   1.309   0.805   1.268 -0.1527  0.0040  0.0487
  224DMF     H1 3171   1.427   0.879   1.467  1.2932  1.0000  1.1368
  224DMF     H2 3172   1.479   0.781   1.609  0.3197  1.4509  0.3154
  224DMF     H3 3173   1.310   0.835   1.606  0.7030 -2.1653  1.0919
  224DMF     H4 3174   1.293   0.605   1.635 -0.7769  0.9209 -0.7169
  224DMF     H5 3175   1.431   0.518   1.557  0.3429  0.0394 -2.0699
  224DMF     H6 3176   1.262   0.490   1.496 -0.5524  1.0933 -0.3546
  224DMF     H7 3177   1.265   0.602   1.301 -1.6140 -0.0274  0.5472
  225DMF     C1 3178   2.547   2.341   3.342 -0.4584 -0.0557  0.1034
  225DMF     N1 3179   2.479   2.272   3.463 -0.3882 -0.5200 -0.2200
  225DMF     C2 3180   2.452   2.127   3.465  0.7714  1.1556  0.1729
  225DMF     C3 3181   2.486   2.344   3.583  0.7439 -0.4351 -0.3533
  225DMF     O1 3182   2.512   2.461   3.588 -0.3433 -0.2360 -0.4168
  225DMF     H1 3183   2.485   2.427   3.314  1.8344  0.7135 -2.9620
  225DMF     H2 3184   2.564   2.271   3.259 -0.9852  0.4128 -0.4053
  225DMF     H3 3185   2.647   2.374   3.375 -0.5500  1.4626 -1.0471
  225DMF     H4 3186   2.490   2.088   3.560 -0.3706  1.3073  0.6948
  225DMF     H5 3187   2.503   2.074   3.384 -1.9989  0.3050 -1.0863
  225DMF     H6 3188   2.344   2.108   3.454  1.3245 -1.5023 -0.9483
  225DMF     H7 3189   2.459   2.279   3.669 -3.1435  2.0407  0.4322
  226DMF     C1 3190   3.214   1.742   3.645  0.0571  0.6862  0.1714
  226DMF     N1 3191   3.351   1.701   3.689  0.4989 -0.5779  0.1655
  226DMF     C2 3192   3.426   1.618   3.597  0.2219  0.2351  0.3022
  226DMF     C3 3193   3.404   1.723   3.816 -0.2407 -0.1306 -0.3183
  226DMF     O1 3194   3.340   1.772   3.902  0.2229  0.4860  0.0936
  226DMF     H1 3195   3.152   1.651   3.640  2.6459 -1.1744  0.5967
  226DMF     H2 3196   3.211   1.781   3.543  0.8269  2.0147  0.6495
  226DMF     H3 3197   3.162   1.798   3.723  1.8615  3.1259 -0.3198
  226DMF     H4 3198   3.427   1.680   3.506  2.7294  0.2906  0.3194
  226DMF     H5 3199   3.379   1.519   3.591  0.7992  0.0018 -0.4574
  226DMF     H6 3200   3.528   1.617   3.639 -0.1490 -1.7824  1.2496
  226DMF     H7 3201   3.505   1.680   3.835  0.0509  1.2779  1.5139
  227DMF     C1 3202   2.837   0.467   3.664  0.4750 -0.7683  0.0604
  227DMF     N1 3203   2.806   0.333   3.648  0.0698  0.0831  0.4997
  227DMF     C2 3204   2.845   0.240   3.760  0.6209 -0.9945 -0.1615
  227DMF     C3 3205   2.728   0.285   3.543 -0.4889 -0.0110 -0.5168
  227DMF     O1 3206   2.682   0.352   3.455 -0.4817  0.6553 -0.1028
  227DMF     H1 3207   2.814   0.526   3.575 -0.6295 -1.4018 -0.0730
  227DMF     H2 3208   2.945   0.470   3.682  0.4634  0.0149  0.0277
  227DMF     H3 3209   2.780   0.508   3.749  2.1206 -1.7852  1.7042
  227DMF     H4 3210   2.919   0.279   3.831 -2.0330  3.7997  0.1534
  227DMF     H5 3211   2.878   0.145   3.716 -0.3508 -0.9906 -0.9049
  227DMF     H6 3212   2.755   0.214   3.817  0.4630  2.1476  1.1276
  227DMF     H7 3213   2.703   0.178   3.552  0.2198  0.0071  1.7925
  228DMF     C1 3214   1.180   0.464   3.213 -0.3245  1.0301  0.2569
  228DMF     N1 3215   1.266   0.420   3.100 -0.5218  0.1967 -0.3412
  228DMF     C2 3216   1.407   0.479   3.110  0.6043 -0.5178  0.1668
  228DMF     C3 3217   1.220   0.344   2.992  0.6092 -0.5072  0.2822
  228DMF     O1 3218   1.116   0.276   3.001  0.2130 -0.7046  0.1850
  228DMF     H1 3219   1.086   0.409   3.204 -0.7046  1.8869 -1.2118
  228DMF     H2 3220   1.175   0.574   3.215  0.1995  1.0478  0.6095
  228DMF     H3 3221   1.222   0.420   3.304 -1.0337 -0.4756 -0.1339
  228DMF     H4 3222   1.472   0.411   3.054 -0.2557 -0.7980 -0.5119
  228DMF     H5 3223   1.445   0.474   3.213  0.1425 -1.2566  0.3113
  228DMF     H6 3224   1.416   0.579   3.068 -0.3372 -0.5462 -0.1301
  228DMF     H7 3225   1.276   0.353   2.898  1.1390  1.9564  0.7968
  229DMF     C1 3226   0.378   1.785   1.530  0.0656  0.4590 -0.1702
  229DMF     N1 3227   0.294   1.825   1.417 -0.2601  0.7937  0.5684
  229DMF     C2 3228   0.347   1.919   1.318 -0.1551 -0.4306  0.3165
  229DMF     C3 3229   0.188   1.747   1.380  0.0590 -0.3587  0.9541
  229DMF     O1 3230   0.136   1.662   1.454 -0.0721  0.0388  0.6059
  229DMF     H1 3231   0.325   1.815   1.621 -1.0657  0.0259 -0.6709
  229DMF     H2 3232   0.476   1.834   1.526 -0.0548  0.6742 -0.5468
  229DMF     H3 3233   0.386   1.676   1.536 -0.6221  0.3164 -1.6285
  229DMF     H4 3234   0.324   2.018   1.358 -0.2346 -0.4516  0.3221
  229DMF     H5 3235   0.303   1.907   1.219 -0.5341 -1.7853  0.6329
  229DMF     H6 3236   0.455   1.907   1.301 -0.6695 -4.3920 -0.8309
  229DMF     H7 3237   0.142   1.777   1.283  0.1398 -1.8417  0.4515
  230DMF     C1 3238   2.074   2.026   0.476  0.3537  0.5705 -0.3642
  230DMF     N1 3239   1.938   2.040   0.424 -0.0554 -0.7385 -0.3365
  230DMF     C2 3240   1.921   2.139   0.308  0.4312 -0.3268 -0.2567
  230DMF     C3 3241   1.834   1.945   0.451 -0.1668 -0.2659 -0.9227
  230DMF     O1 3242   1.853   1.852   0.530  0.3488 -0.2954 -0.4632
  230DMF     H1 3243   2.072   1.950   0.555 -0.1616 -1.9985 -2.7725
  230DMF     H2 3244   2.116   2.126   0.494  1.3281 -0.2597  2.1861
  230DMF     H3 3245   2.146   1.985   0.404  0.8223  0.2642  0.2735
  230DMF     H4 3246   1.815   2.163   0.293  0.6635 -0.3352 -2.0299
  230DMF     H5 3247   1.976   2.100   0.221  2.5878 -0.3245  1.0894
  230DMF     H6 3248   1.971   2.235   0.325 -0.0131  0.0989 -1.2855
  230DMF     H7 3249   1.734   1.971   0.412  0.6310  3.8946 -0.4192
  231DMF     C1 3250   2.332   0.625   2.542  0.0448 -0.1689 -0.1097
  231DMF     N1 3251   2.325   0.768   2.576 -0.0156 -0.5100 -0.1218
  231DMF     C2 3252   2.452   0.842   2.618 -0.2397  0.9674  0.1914
  231DMF     C3 3253   2.204   0.842   2.570 -0.3365  0.3465  0.3474
  231DMF     O1 3254   2.095   0.785   2.547  0.2540  0.3914  0.3553
  231DMF     H1 3255   2.269   0.599   2.456 -0.7921  1.5002 -0.0092
  231DMF     H2 3256   2.306   0.565   2.630  1.7478 -1.8024 -0.6957
  231DMF     H3 3257   2.435   0.591   2.527 -0.2415 -2.0617  1.8968
  231DMF     H4 3258   2.446   0.944   2.578  0.5764  0.1455 -2.0838
  231DMF     H5 3259   2.533   0.785   2.572 -2.5390 -1.2497 -1.2871
  231DMF     H6 3260   2.459   0.847   2.727 -0.3145 -0.4885  0.2727
  231DMF     H7 3261   2.213   0.949   2.594 -0.6069  0.9498 -2.0631
  232DMF     C1 3262   2.737   2.079   3.698 -0.4005  0.1241  0.0041
  232DMF     N1 3263   2.856   2.002   3.722 -0.2219 -0.0815 -0.2054
  232DMF     C2 3264   2.849   1.856   3.696  0.5887  0.2884  0.1548
  232DMF     C3 3265   2.981   2.065   3.768 -0.1044  0.2920 -0.0437
  232DMF     O1 3266   2.991   2.183   3.786 -0.4373 -0.1564 -0.3008
  232DMF     H1 3267   2.761   2.176   3.652  0.7321 -0.2303 -0.1766
  232DMF     H2 3268   2.694   2.092   3.798  2.3720 -0.0515  1.2723
  232DMF     H3 3269   2.668   2.016   3.641  1.3759 -1.6023 -0.3245
  232DMF     H4 3270   2.944   1.801   3.700 -0.5540 -1.7874 -0.6220
  232DMF     H5 3271   2.811   1.846   3.594  2.3530 -0.2635 -0.4774
  232DMF     H6 3272   2.771   1.822   3.765  2.1887 -0.7792  1.4813
  232DMF     H7 3273   3.055   1.986   3.789 -0.2616  0.2018  0.1833
  233DMF     C1 3274   0.711   1.658   0.444  0.5048 -0.6248 -0.4242
  233DMF     N1 3275   0.806   1.546   0.423  0.5945 -0.0744  0.1666
  233DMF     C2 3276   0.750   1.411   0.406 -0.4701 -0.2383  0.1822
  233DMF     C3 3277   0.942   1.570   0.386  0.5350  0.0848 -0.1939
  233DMF     O1 3278   0.991   1.681   0.400  0.8269  0.4496  0.2494
  233DMF     H1 3279   0.625   1.618   0.500  1.6515 -0.8106  1.2586
  233DMF     H2 3280   0.674   1.710   0.355 -0.5282 -0.9345 -0.1830
  233DMF     H3 3281   0.757   1.741   0.499  0.7099 -1.2792  0.4187
  233DMF     H4 3282   0.786   1.355   0.494  0.3497 -0.3193 -0.2070
  233DMF     H5 3283   0.789   1.371   0.312 -2.7949  2.8902 -2.2160
  233DMF     H6 3284   0.641   1.404   0.400 -0.6346  0.9384  1.5216
  233DMF     H7 3285   0.998   1.479   0.357 -0.1659 -0.2862 -0.4139
  234DMF     C1 3286   2.542   2.266   2.247  0.0304 -0.0026  0.1408
  234DMF     N1 3287   2.546   2.396   2.310 -0.4271  0.1359  1.1694
  234DMF     C2 3288   2.438   2.494   2.284  0.1587 -0.1390  0.4802
  234DMF     C3 3289   2.643   2.416   2.412 -0.5717  0.0318 -0.0052
  234DMF     O1 3290   2.719   2.329   2.449  0.1031 -0.3281 -0.1636
  234DMF     H1 3291   2.538   2.196   2.331  3.8380  0.9499  1.2458
  234DMF     H2 3292   2.633   2.251   2.187 -1.2499  1.2263 -2.1430
  234DMF     H3 3293   2.451   2.254   2.187 -0.7168 -0.7143  1.4009
  234DMF     H4 3294   2.416   2.511   2.178 -3.7587 -2.4730  0.8151
  234DMF     H5 3295   2.460   2.587   2.338  1.2688 -1.5969  2.5920
  234DMF     H6 3296   2.349   2.448   2.328  0.5440 -0.3551  1.0399
  234DMF     H7 3297   2.643   2.521   2.448  1.0437  0.0921 -0.1827
  235DMF     C1 3298   2.479   0.984   0.074  0.6658  0.3419 -0.0537
  235DMF     N1 3299   2.440   0.848   0.030  0.4370  0.0817  0.1719
  235DMF     C2 3300   2.303   0.810   0.021  0.3907 -0.0013  0.0087
  235DMF     C3 3301   2.528   0.770  -0.047  0.3278  0.0802  0.2549
  235DMF     O1 3302   2.642   0.810  -0.057 -0.2517 -0.0385  0.0966
  235DMF     H1 3303   2.421   1.014   0.162 -0.9266 -0.4677 -0.8042
  235DMF     H2 3304   2.451   1.062   0.001 -0.6450 -1.2407 -1.2704
  235DMF     H3 3305   2.587   0.995   0.092  0.7969 -0.4798 -0.3333
  235DMF     H4 3306   2.262   0.866  -0.064  0.5554  0.3405  0.1561
  235DMF     H5 3307   2.254   0.831   0.117  0.2462 -0.0139 -0.0613
  235DMF     H6 3308   2.290   0.702   0.002  1.7300  0.1166 -1.6848
  235DMF     H7 3309   2.479   0.677  -0.080 -0.4114  0.5519  0.0010
  236DMF     C1 3310   0.675   1.672   2.276  0.3129  0.9477  0.8724
  236DMF     N1 3311   0.630   1.535   2.265  0.3575 -0.0544  0.4536
  236DMF     C2 3312   0.731   1.424   2.263  0.0017 -0.3439  0.4922
  236DMF     C3 3313   0.495   1.506   2.268  0.2508  0.0595 -0.2994
  236DMF     O1 3314   0.412   1.598   2.292 -0.1884  0.5923 -0.2653
  236DMF     H1 3315   0.624   1.742   2.209  0.9179  0.2127 -0.3752
  236DMF     H2 3316   0.784   1.683   2.267  0.3688 -0.0262  0.2601
  236DMF     H3 3317   0.642   1.700   2.377  0.2655 -0.0836  1.1458
  236DMF     H4 3318   0.707   1.346   2.335  0.0201 -0.7036  0.1138
  236DMF     H5 3319   0.834   1.461   2.267 -0.4974  1.3150 -0.8881
  236DMF     H6 3320   0.706   1.388   2.162  1.6585  1.5336 -0.6209
  236DMF     H7 3321   0.467   1.402   2.243 -1.9630  0.8042 -1.0391
  237DMF     C1 3322   0.580   3.302   2.754 -0.5477  0.5389  0.0457
  237DMF     N1 3323   0.652   3.174   2.773 -0.8717  0.8926 -0.3026
  237DMF     C2 3324   0.621   3.100   2.893  0.1581 -0.7228 -0.2566
  237DMF     C3 3325   0.738   3.128   2.676 -0.0169 -0.3158  0.6462
  237DMF     O1 3326   0.751   3.177   2.567  0.1485 -0.2575  0.5381
  237DMF     H1 3327   0.584   3.330   2.648  1.4452 -0.4334 -0.1369
  237DMF     H2 3328   0.621   3.392   2.802 -4.3346  2.4690 -0.0666
  237DMF     H3 3329   0.475   3.282   2.780  0.2870 -1.9507  1.5878
  237DMF     H4 3330   0.631   2.991   2.882 -0.1352 -0.6427 -1.4720
  237DMF     H5 3331   0.513   3.112   2.911  0.1559 -1.3006  0.1127
  237DMF     H6 3332   0.678   3.138   2.978 -0.4159 -0.9363  0.2268
  237DMF     H7 3333   0.779   3.031   2.708 -0.3815 -0.5437  0.4223
  238DMF     C1 3334   2.655   1.668   0.550  0.8248 -0.2247  0.0385
  238DMF     N1 3335   2.737   1.553   0.574 -0.2694  0.5789 -0.3973
  238DMF     C2 3336   2.875   1.566   0.620 -0.2373 -0.0889  0.7250
  238DMF     C3 3337   2.681   1.428   0.566 -0.0363  0.1218 -0.4815
  238DMF     O1 3338   2.566   1.410   0.532  0.1656  0.0813 -0.1894
  238DMF     H1 3339   2.706   1.760   0.581 -1.1343  1.5107 -1.7165
  238DMF     H2 3340   2.555   1.657   0.594 -0.4824  2.3931 -2.1293
  238DMF     H3 3341   2.655   1.676   0.441 -0.2765 -0.2131  0.0323
  238DMF     H4 3342   2.942   1.507   0.557 -1.3297 -1.7979  1.1366
  238DMF     H5 3343   2.882   1.526   0.721 -0.0558 -0.7590  0.4501
  238DMF     H6 3344   2.909   1.671   0.618  0.6772 -0.3658  1.7868
  238DMF     H7 3345   2.747   1.340   0.577 -0.3253 -0.3405 -2.2004
  239DMF     C1 3346   2.478   1.990   0.336  1.2544  0.2341 -0.0139
  239DMF     N1 3347   2.563   2.092   0.419  0.4104 -0.7341  0.4310
  239DMF     C2 3348   2.681   2.160   0.365 -0.0970 -0.5985 -0.3946
  239DMF     C3 3349   2.520   2.120   0.548  0.2268 -0.7490 -0.4528
  239DMF     O1 3350   2.422   2.069   0.596 -0.1471  0.0884 -0.4428
  239DMF     H1 3351   2.501   1.889   0.371  0.2607  0.1263  0.3162
  239DMF     H2 3352   2.520   1.995   0.235  0.8490  0.1509 -0.1877
  239DMF     H3 3353   2.371   2.012   0.348  1.5783  0.1758  3.3024
  239DMF     H4 3354   2.696   2.131   0.260 -0.2900  0.5016 -0.7406
  239DMF     H5 3355   2.774   2.143   0.421 -1.1991 -1.0690  1.3191
  239DMF     H6 3356   2.665   2.269   0.368 -1.3355 -0.8097  1.1960
  239DMF     H7 3357   2.585   2.192   0.601 -1.3943 -0.5689  1.3109
  240DMF     C1 3358   2.824   3.323   3.424  0.0425  0.3209 -0.5669
  240DMF     N1 3359   2.911   3.402   3.334 -0.6799  0.1394 -0.0150
  240DMF     C2 3360   2.850   3.446   3.213 -0.5070 -0.2520 -0.2657
  240DMF     C3 3361   3.037   3.444   3.370 -0.1077 -0.3891  0.1392
  240DMF     O1 3362   3.090   3.393   3.464  0.4434 -0.1104 -0.2105
  240DMF     H1 3363   2.855   3.218   3.421 -0.3049 -0.0029  3.4670
  240DMF     H2 3364   2.716   3.335   3.411 -0.0472 -1.8144 -2.0918
  240DMF     H3 3365   2.843   3.361   3.525 -0.5362  1.8229 -1.0185
  240DMF     H4 3366   2.842   3.359   3.147 -1.1032 -0.6407  0.3049
  240DMF     H5 3367   2.899   3.530   3.162  0.9695 -1.2332 -0.4729
  240DMF     H6 3368   2.747   3.480   3.228  0.1008  0.9059  1.5031
  240DMF     H7 3369   3.075   3.514   3.294 -1.9954 -0.3376 -0.8059
  241DMF     C1 3370   0.222   0.210   3.225 -0.1952 -0.3820 -0.0887
  241DMF     N1 3371   0.114   0.133   3.291  0.0042  0.0874  0.1789
  241DMF     C2 3372   0.143  -0.009   3.327  0.0861  0.0709  0.0789
  241DMF     C3 3373  -0.012   0.182   3.315  0.5057 -0.3967  0.0184
  241DMF     O1 3374  -0.051   0.288   3.282  0.0407  0.7574  0.0973
  241DMF     H1 3375   0.187   0.314   3.215 -1.2361 -0.5162  1.8525
  241DMF     H2 3376   0.253   0.177   3.125  2.9482 -0.9861  1.0042
  241DMF     H3 3377   0.313   0.217   3.286  0.6779 -0.2851 -1.3747
  241DMF     H4 3378   0.207   0.004   3.415  1.8746 -0.9692 -1.0253
  241DMF     H5 3379   0.204  -0.062   3.253 -0.5508  0.4724 -0.7474
  241DMF     H6 3380   0.056  -0.068   3.358  0.1435 -0.0071  0.0915
  241DMF     H7 3381  -0.070   0.104   3.369  0.9839  0.0925  1.2529
  242DMF     C1 3382   0.347   0.697   1.518  0.2463 -0.1646  0.0070
  242DMF     N1 3383   0.468   0.779   1.546  0.3627  0.7266 -0.1702
  242DMF     C2 3384   0.448   0.926   1.556  0.7401 -0.1385 -0.7941
  242DMF     C3 3385   0.586   0.723   1.588  0.1318  0.0932  0.5996
  242DMF     O1 3386   0.595   0.604   1.576 -0.6201  0.5086  0.3389
  242DMF     H1 3387   0.288   0.766   1.456 -0.0580 -0.9777 -0.6198
  242DMF     H2 3388   0.295   0.668   1.610 -0.1054  1.6159  0.3858
  242DMF     H3 3389   0.371   0.620   1.443  1.0939  0.5006 -0.4209
  242DMF     H4 3390   0.409   0.952   1.457  0.6867 -0.3016 -0.8156
  242DMF     H5 3391   0.544   0.976   1.575  2.1189 -2.7772 -0.6569
  242DMF     H6 3392   0.361   0.947   1.621  1.5869 -0.3083  0.4109
  242DMF     H7 3393   0.655   0.800   1.628  0.2574 -0.1346  0.8238
  243DMF     C1 3394   0.866   2.234   2.548  0.2604  0.1455  0.2950
  243DMF     N1 3395   0.849   2.205   2.399 -0.3144  0.0873  0.1847
  243DMF     C2 3396   0.821   2.318   2.314 -0.2502  0.2066  0.3167
  243DMF     C3 3397   0.862   2.075   2.342  0.1640 -0.8010  0.2527
  243DMF     O1 3398   0.870   1.972   2.412 -0.0423  0.4193  0.3185
  243DMF     H1 3399   0.924   2.325   2.568  1.0025  0.0723 -1.4267
  243DMF     H2 3400   0.916   2.145   2.587 -0.1482 -0.3303 -0.2497
  243DMF     H3 3401   0.766   2.222   2.593 -0.5306  1.4397 -1.0494
  243DMF     H4 3402   0.891   2.318   2.229 -1.3295 -0.4903 -0.5782
  243DMF     H5 3403   0.826   2.410   2.374  0.5937 -1.5063  2.9091
  243DMF     H6 3404   0.720   2.298   2.276  1.0181 -0.6501 -2.7718
  243DMF     H7 3405   0.846   2.073   2.233  1.1779 -2.9063  0.1046
  244DMF     C1 3406   0.503   3.141   1.210  0.2729  0.3256 -0.4716
  244DMF     N1 3407   0.412   3.150   1.088  0.0840 -0.0596 -0.2108
  244DMF     C2 3408   0.333   3.265   1.056 -0.1970  0.6311  1.1869
  244DMF     C3 3409   0.409   3.046   0.995  0.2936  0.3846 -0.3797
  244DMF     O1 3410   0.471   2.946   1.009 -0.2688  0.0223 -0.6018
  244DMF     H1 3411   0.494   3.233   1.269  1.5883 -0.4363  0.9631
  244DMF     H2 3412   0.609   3.144   1.182 -0.2486 -0.4544 -2.5930
  244DMF     H3 3413   0.487   3.061   1.284 -2.0495  1.3873  0.2126
  244DMF     H4 3414   0.323   3.322   1.149  2.2369  1.5071  0.9568
  244DMF     H5 3415   0.240   3.240   1.004 -0.0298  0.3355  1.0278
  244DMF     H6 3416   0.400   3.330   0.997  0.5102  1.4064  2.8223
  244DMF     H7 3417   0.344   3.069   0.909 -0.5814 -1.9823 -0.3913
  245DMF     C1 3418   2.160   3.010   1.178 -0.6739 -0.6333  0.2314
  245DMF     N1 3419   2.297   2.995   1.123  0.0476  0.4256 -0.7006
  245DMF     C2 3420   2.321   2.974   0.975  0.0181  0.1720  0.2286
  245DMF     C3 3421   2.414   2.997   1.202  0.2560  0.3645 -1.3694
  245DMF     O1 3422   2.403   2.981   1.322  0.5264  0.3657  0.3800
  245DMF     H1 3423   2.140   3.103   1.234 -0.6620 -0.5818  0.1511
  245DMF     H2 3424   2.143   2.934   1.255 -0.0393 -0.1347  0.8880
  245DMF     H3 3425   2.091   3.011   1.093  0.7563 -0.1395 -0.9418
  245DMF     H4 3426   2.405   2.905   0.961 -0.5031 -0.4842  0.3170
  245DMF     H5 3427   2.351   3.070   0.929  1.3791  0.6051  1.9345
  245DMF     H6 3428   2.227   2.942   0.929  0.2183 -0.3919  0.2187
  245DMF     H7 3429   2.506   2.996   1.141  0.1787  0.8668 -1.4895
  246DMF     C1 3430   3.086   2.539   0.775 -0.0221 -0.0013 -0.3527
  246DMF     N1 3431   3.100   2.551   0.625  0.3495  1.0023  0.6124
  246DMF     C2 3432   3.030   2.663   0.554  0.6181  0.0103 -0.0066
  246DMF     C3 3433   3.192   2.470   0.549 -0.2166 -0.2988 -0.8518
  246DMF     O1 3434   3.263   2.388   0.607 -0.0052 -0.7124 -0.4365
  246DMF     H1 3435   2.995   2.485   0.805 -0.5342  1.7619  1.3720
  246DMF     H2 3436   3.087   2.644   0.808  0.4380  0.8566 -2.9331
  246DMF     H3 3437   3.174   2.490   0.818 -0.3452 -0.3523 -0.0838
  246DMF     H4 3438   3.027   2.752   0.618  0.4779 -0.0195  0.0294
  246DMF     H5 3439   2.926   2.637   0.534  0.7065 -0.0084 -0.4406
  246DMF     H6 3440   3.074   2.683   0.455 -0.4927 -0.2754 -0.5701
  246DMF     H7 3441   3.194   2.487   0.440 -0.4155  1.7943 -0.5496
  247DMF     C1 3442   2.206   0.251   2.288  0.3558 -0.3894  0.1970
  247DMF     N1 3443   2.350   0.281   2.261 -0.1792 -0.1601 -0.4157
  247DMF     C2 3444   2.436   0.168   2.237  0.1756 -0.2114  0.7968
  247DMF     C3 3445   2.389   0.407   2.225 -0.3360  0.6586  0.2662
  247DMF     O1 3446   2.311   0.503   2.232 -0.1484  0.4811  0.0932
  247DMF     H1 3447   2.146   0.309   2.218 -0.4672  0.2348  1.3980
  247DMF     H2 3448   2.170   0.282   2.387 -1.2686  0.3648 -0.6115
  247DMF     H3 3449   2.175   0.146   2.277 -0.7315 -0.2342  1.5732
  247DMF     H4 3450   2.418   0.090   2.312  1.0852 -1.2023  0.0054
  247DMF     H5 3451   2.541   0.197   2.246  0.3569  0.4986 -2.7898
  247DMF     H6 3452   2.398   0.139   2.138  0.8053 -1.6392  0.9576
  247DMF     H7 3453   2.490   0.406   2.179 -0.5259 -2.3646 -0.1701
  248DMF     C1 3454   2.988   2.445   2.287  0.9067  0.1176  0.7805
  248DMF     N1 3455   3.108   2.528   2.264  0.2161 -0.2610 -0.4612
  248DMF     C2 3456   3.233   2.465   2.230 -0.4812 -0.3888  0.1219
  248DMF     C3 3457   3.105   2.670   2.253  0.2800 -0.2806 -0.2642
  248DMF     O1 3458   3.001   2.733   2.242 -0.3002  0.1484 -0.0265
  248DMF     H1 3459   2.950   2.476   2.386  0.2908 -0.7793  0.8333
  248DMF     H2 3460   3.016   2.339   2.292 -1.4377 -0.5182  0.9452
  248DMF     H3 3461   2.914   2.462   2.208  1.1247  1.7258  0.9088
  248DMF     H4 3462   3.215   2.366   2.186  0.2264 -0.4014 -0.1321
  248DMF     H5 3463   3.299   2.473   2.317  0.1028  1.2957 -0.4661
  248DMF     H6 3464   3.285   2.516   2.148 -1.6077 -0.6081 -0.7427
  248DMF     H7 3465   3.206   2.714   2.267  0.0232 -0.6021  2.9690
  249DMF     C1 3466   3.092   1.097   0.977  0.1684 -0.0012 -0.1130
  249DMF     N1 3467   3.038   1.226   0.933  0.1926  0.1953 -0.2501
  249DMF     C2 3468   3.047   1.266   0.794  0.1204  1.3491  0.2490
  249DMF     C3 3469   3.015   1.330   1.032  0.4116 -0.3454  0.3348
  249DMF     O1 3470   3.009   1.308   1.152 -0.0564  0.8569  0.6641
  249DMF     H1 3471   3.198   1.106   1.003  0.1560 -0.0785 -0.0343
  249DMF     H2 3472   3.091   1.035   0.887 -0.3131 -0.7994  0.4271
  249DMF     H3 3473   3.029   1.042   1.048 -1.6590 -1.7599 -2.9849
  249DMF     H4 3474   3.096   1.363   0.785  1.0282  1.0406  1.6677
  249DMF     H5 3475   2.947   1.259   0.748  0.8710  0.4663 -1.3074
  249DMF     H6 3476   3.122   1.199   0.749 -0.5032  0.7811  0.0345
  249DMF     H7 3477   2.981   1.422   0.983  1.2051 -0.9415 -1.3546
  250DMF     C1 3478   1.712   2.989   2.562 -0.1122  0.8946 -0.3702
  250DMF     N1 3479   1.726   3.128   2.616  0.5707 -0.1452 -0.2281
  250DMF     C2 3480   1.606   3.191   2.667  0.4390 -0.1816  0.4700
  250DMF     C3 3481   1.850   3.188   2.648 -0.2326  0.6922  0.3517
  250DMF     O1 3482   1.952   3.121   2.627  0.2906  0.2340  0.4679
  250DMF     H1 3483   1.778   2.968   2.477  1.7313  2.1697  0.7246
  250DMF     H2 3484   1.614   2.981   2.514  0.2666 -0.9504 -0.8849
  250DMF     H3 3485   1.718   2.911   2.639  1.4216  0.0290 -1.3490
  250DMF     H4 3486   1.528   3.114   2.673  0.7248 -0.8196 -2.8184
  250DMF     H5 3487   1.571   3.261   2.590 -0.7637 -1.0874  0.1757
  250DMF     H6 3488   1.611   3.248   2.761 -0.3887  0.1108  0.3455
  250DMF     H7 3489   1.844   3.293   2.682  0.9891  0.8328  0.1333
  251DMF     C1 3490   2.098   1.602   1.279  0.6058  0.6373 -0.2102
  251DMF     N1 3491   2.125   1.648   1.417 -0.4425  0.1803  0.1237
  251DMF     C2 3492   2.047   1.590   1.536  0.0454 -0.2182 -0.1206
  251DMF     C3 3493   2.226   1.743   1.435  0.3076 -0.6597  0.5681
  251DMF     O1 3494   2.284   1.793   1.337 -0.0619  0.1819  0.1561
  251DMF     H1 3495   1.990   1.583   1.272  0.2609  1.4438  2.4190
  251DMF     H2 3496   2.147   1.505   1.265 -2.0034 -0.4335 -2.4165
  251DMF     H3 3497   2.136   1.665   1.198  1.3951  0.3556 -0.0568
  251DMF     H4 3498   1.950   1.639   1.552  0.1851  0.3150 -0.9083
  251DMF     H5 3499   2.103   1.604   1.630 -0.0691  0.8472 -0.2078
  251DMF     H6 3500   2.039   1.481   1.526  3.8100 -0.9300  3.2729
  251DMF     H7 3501   2.239   1.775   1.540 -1.7473 -0.7291  0.8700
  252DMF     C1 3502   3.333   2.258   0.978  0.4041 -0.3884 -0.4367
  252DMF     N1 3503   3.326   2.329   1.109  0.0513 -0.1690 -0.3195
  252DMF     C2 3504   3.290   2.472   1.116 -1.0290 -0.2628  0.3024
  252DMF     C3 3505   3.341   2.254   1.232 -0.0307  0.1417 -0.1801
  252DMF     O1 3506   3.362   2.135   1.236  0.0205 -0.1369 -0.2990
  252DMF     H1 3507   3.392   2.321   0.910  0.4150 -0.1445 -0.2044
  252DMF     H2 3508   3.235   2.248   0.931  0.7341 -1.2794 -0.9427
  252DMF     H3 3509   3.381   2.159   0.982 -1.9508 -1.5470 -0.2650
  252DMF     H4 3510   3.377   2.529   1.083 -1.0554 -0.6154 -0.3998
  252DMF     H5 3511   3.259   2.504   1.216 -0.6530  1.2558 -0.0570
  252DMF     H6 3512   3.206   2.499   1.051 -1.4085  0.6880  1.1828
  252DMF     H7 3513   3.330   2.310   1.327 -1.3411 -0.3580 -0.0177
  253DMF     C1 3514   0.761   0.612   2.371 -0.4099  0.2511  0.0553
  253DMF     N1 3515   0.691   0.485   2.373  0.0980  0.4100 -0.5748
  253DMF     C2 3516   0.699   0.392   2.254  0.1607  0.1719 -0.3524
  253DMF     C3 3517   0.619   0.451   2.481 -0.4369 -0.3401 -0.3082
  253DMF     O1 3518   0.613   0.516   2.588  0.0475 -0.1652 -0.8568
  253DMF     H1 3519   0.752   0.659   2.469 -1.2816 -1.2030  0.6814
  253DMF     H2 3520   0.717   0.679   2.297 -0.0310  0.5549  0.1028
  253DMF     H3 3521   0.869   0.600   2.357 -0.0309  1.1943  1.9968
  253DMF     H4 3522   0.804   0.365   2.237 -0.5117 -1.8212 -1.5120
  253DMF     H5 3523   0.659   0.446   2.168 -0.5002  0.9947  0.4595
  253DMF     H6 3524   0.647   0.298   2.276  0.7590  0.2380  1.4067
  253DMF     H7 3525   0.568   0.354   2.467  0.8350 -0.7859 -1.9777
  254DMF     C1 3526   2.058   1.997   0.904 -0.1297  0.2652  0.5283
  254DMF     N1 3527   2.037   1.911   1.020 -0.0895  0.3606  0.2031
  254DMF     C2 3528   1.921   1.811   1.017 -0.6313 -0.2964 -0.9494
  254DMF     C3 3529   2.088   1.944   1.149  0.4262 -0.0090  0.0749
  254DMF     O1 3530   2.146   2.048   1.175  0.4286 -0.0882  0.3264
  254DMF     H1 3531   2.134   1.968   0.831  0.8940  1.4317  1.1164
  254DMF     H2 3532   2.070   2.100   0.941  1.1014  0.4595 -0.3871
  254DMF     H3 3533   1.966   2.006   0.845 -0.4687  1.2697  1.1983
  254DMF     H4 3534   1.938   1.713   1.064  1.0939 -0.5292 -2.0266
  254DMF     H5 3535   1.887   1.797   0.914  0.0402 -0.3662 -1.1618
  254DMF     H6 3536   1.835   1.851   1.072 -0.5376 -0.5169 -0.6441
  254DMF     H7 3537   2.062   1.863   1.219 -0.4032  0.0069 -0.2108
  255DMF     C1 3538   0.738   3.230   1.554 -0.1658  0.0931 -0.1757
  255DMF     N1 3539   0.640   3.122   1.551 -0.4000  0.5182 -0.3525
  255DMF     C2 3540   0.692   2.982   1.551 -0.0245 -0.1617  0.2551
  255DMF     C3 3541   0.499   3.145   1.571  1.1894  0.3013 -0.0931
  255DMF     O1 3542   0.460   3.258   1.591  0.3136  0.8449 -0.2459
  255DMF     H1 3543   0.830   3.195   1.603 -0.2881  0.0756  0.0425
  255DMF     H2 3544   0.707   3.319   1.610  0.9329  0.8389 -0.7505
  255DMF     H3 3545   0.759   3.257   1.450 -0.6088  0.3921 -0.1877
  255DMF     H4 3546   0.613   2.915   1.587 -1.0810  1.6783  1.4502
  255DMF     H5 3547   0.778   2.971   1.618  0.6664 -0.3120 -0.6512
  255DMF     H6 3548   0.706   2.957   1.445  0.2082 -0.6230  0.3965
  255DMF     H7 3549   0.447   3.050   1.591 -2.1781  2.3859  1.4305
  256DMF     C1 3550   1.160   1.803   3.714  0.1206 -0.0860 -0.3716
  256DMF     N1 3551   1.064   1.817   3.604  0.6198 -0.1203 -0.8323
  256DMF     C2 3552   0.928   1.761   3.629  0.6330  0.2888  0.3684
  256DMF     C3 3553   1.102   1.862   3.475  0.2065 -0.2721  0.1590
  256DMF     O1 3554   1.211   1.904   3.449 -0.0728 -0.5355 -0.7503
  256DMF     H1 3555   1.120   1.867   3.795  0.1283 -0.8183  0.2174
  256DMF     H2 3556   1.263   1.837   3.695  0.4426 -0.7004  0.2563
  256DMF     H3 3557   1.151   1.700   3.751  0.0622 -0.5059 -1.5404
  256DMF     H4 3558   0.920   1.704   3.723  0.9210  1.3561  1.0395
  256DMF     H5 3559   0.903   1.705   3.538 -0.7973  1.3931  0.0527
  256DMF     H6 3560   0.848   1.836   3.640  1.0206  0.6480  0.7395
  256DMF     H7 3561   1.016   1.851   3.405  0.4751 -0.0424 -0.2049
  257DMF     C1 3562   0.307   2.396   1.522  0.1443  0.7033 -0.0027
  257DMF     N1 3563   0.263   2.253   1.561  0.1615 -0.0606 -0.7260
  257DMF     C2 3564   0.111   2.241   1.574  0.3679  0.0549 -0.2381
  257DMF     C3 3565   0.356   2.148   1.566  0.2437  0.2344  0.1343
  257DMF     O1 3566   0.480   2.166   1.543 -0.1945  0.1606 -0.2647
  257DMF     H1 3567   0.381   2.388   1.441  0.3760  2.9579 -0.0266
  257DMF     H2 3568   0.351   2.441   1.611  1.1441 -1.6438  0.7461
  257DMF     H3 3569   0.217   2.448   1.489  0.1327  0.5193 -0.2704
  257DMF     H4 3570   0.080   2.157   1.637  0.7190  0.3258  0.2919
  257DMF     H5 3571   0.069   2.225   1.474 -0.1921  1.3615 -0.2133
  257DMF     H6 3572   0.065   2.324   1.627  1.2520  0.3691  0.0505
  257DMF     H7 3573   0.301   2.054   1.585 -1.8004  1.6070  1.1792
  258DMF     C1 3574   2.811   1.699   2.798 -0.4439 -0.6435  0.8247
  258DMF     N1 3575   2.917   1.747   2.703  0.1538 -0.0368 -0.0526
  258DMF     C2 3576   2.946   1.674   2.579  0.3941  0.5158 -0.3302
  258DMF     C3 3577   2.966   1.876   2.723  0.3911 -0.1504 -0.4753
  258DMF     O1 3578   2.943   1.945   2.819 -0.1628 -0.1181 -0.3181
  258DMF     H1 3579   2.836   1.727   2.901 -1.6922  1.0154  0.6909
  258DMF     H2 3580   2.827   1.590   2.797  1.5505 -0.3797  1.9902
  258DMF     H3 3581   2.709   1.730   2.771  0.4579  1.8618  0.1513
  258DMF     H4 3582   2.919   1.732   2.490 -0.1734  0.8089  0.0299
  258DMF     H5 3583   2.888   1.580   2.576  2.2929 -0.7547  1.1420
  258DMF     H6 3584   3.053   1.650   2.581 -0.1566 -2.0600  2.2041
  258DMF     H7 3585   3.024   1.909   2.635 -0.0659  1.6120 -0.1416
  259DMF     C1 3586   2.003   1.421   2.225 -0.5627 -0.0116 -0.2902
  259DMF     N1 3587   1.920   1.400   2.342  0.6511  0.3683  0.1881
  259DMF     C2 3588   1.971   1.453   2.475 -0.7327  0.2347  0.0331
  259DMF     C3 3589   1.827   1.296   2.341  0.2215  0.3527  0.6676
  259DMF     O1 3590   1.806   1.227   2.242  0.2923  0.2408 -0.0638
  259DMF     H1 3591   2.088   1.485   2.250 -1.2200  0.7390  0.0718
  259DMF     H2 3592   1.932   1.465   2.154  0.2174  1.1297 -0.3780
  259DMF     H3 3593   2.042   1.325   2.191  0.0948 -0.1969  0.9545
  259DMF     H4 3594   2.077   1.481   2.459 -1.3564  2.9873  0.4116
  259DMF     H5 3595   1.967   1.380   2.556  0.1883 -0.2342 -0.3300
  259DMF     H6 3596   1.913   1.543   2.501 -0.3002 -0.2401  2.7400
  259DMF     H7 3597   1.788   1.273   2.442  2.6136 -2.9048  0.9374
  260DMF     C1 3598   2.553   1.534   3.678  0.9248  0.1907 -0.1377
  260DMF     N1 3599   2.524   1.456   3.555  0.5055  0.0205 -0.0229
  260DMF     C2 3600   2.443   1.522   3.459  0.1420 -0.8557  0.5506
  260DMF     C3 3601   2.519   1.317   3.562  0.4842 -0.0897  0.2105
  260DMF     O1 3602   2.580   1.254   3.652 -0.0287  0.0332  0.0336
  260DMF     H1 3603   2.472   1.546   3.751  0.1570 -1.2352 -0.7263
  260DMF     H2 3604   2.589   1.635   3.655 -0.5483  1.4505  2.7991
  260DMF     H3 3605   2.636   1.479   3.722 -0.1238 -1.2070  0.1336
  260DMF     H4 3606   2.457   1.501   3.352  1.1425  1.0303  0.2776
  260DMF     H5 3607   2.455   1.631   3.460  1.3320 -0.9759  0.0948
  260DMF     H6 3608   2.335   1.507   3.472  0.1127 -0.3261  0.9444
  260DMF     H7 3609   2.485   1.270   3.468  0.0556  1.5358 -0.4539
  261DMF     C1 3610   1.949   1.232   3.731 -0.3376 -0.8834  0.2485
  261DMF     N1 3611   2.036   1.258   3.609  0.4910 -0.7424 -0.1619
  261DMF     C2 3612   1.987   1.339   3.495 -1.0362 -0.2625  0.0942
  261DMF     C3 3613   2.161   1.194   3.589  0.3981  0.3546  0.2964
  261DMF     O1 3614   2.221   1.140   3.677  0.0353 -0.2302  1.1126
  261DMF     H1 3615   2.008   1.184   3.809  1.1416 -0.3643 -0.5269
  261DMF     H2 3616   1.871   1.163   3.696  0.3598 -0.5663 -1.9990
  261DMF     H3 3617   1.902   1.329   3.755 -0.5782 -0.7816 -0.6172
  261DMF     H4 3618   2.076   1.369   3.437 -0.5078  0.1796  1.1228
  261DMF     H5 3619   1.930   1.423   3.535 -1.4890 -0.5907  0.1426
  261DMF     H6 3620   1.919   1.284   3.429 -2.7680  2.4088 -0.3892
  261DMF     H7 3621   2.200   1.212   3.487 -0.1351  3.5519  0.5999
  262DMF     C1 3622   0.963   0.298   1.543 -0.7615 -0.5221  0.3169
  262DMF     N1 3623   1.018   0.168   1.557 -0.3924 -1.0348 -0.6815
  262DMF     C2 3624   0.931   0.047   1.562 -0.0205  0.3289 -0.4299
  262DMF     C3 3625   1.156   0.150   1.583 -0.1604  0.2220 -0.3716
  262DMF     O1 3626   1.230   0.241   1.605  0.3223 -0.0181 -0.6835
  262DMF     H1 3627   0.989   0.352   1.635  1.2528 -1.1843  0.1606
  262DMF     H2 3628   0.856   0.303   1.519  0.0705  1.9080 -3.3064
  262DMF     H3 3629   1.020   0.354   1.468 -2.7956  1.9638  0.5572
  262DMF     H4 3630   0.832   0.074   1.601 -0.1518 -0.5092 -0.1662
  262DMF     H5 3631   0.977  -0.022   1.633 -2.0586  0.6445  1.2643
  262DMF     H6 3632   0.907   0.000   1.466  1.4757 -1.6354  0.1289
  262DMF     H7 3633   1.184   0.043   1.572  0.2498 -0.1041  3.0541
  263DMF     C1 3634   1.845   2.523   2.239  0.3765 -0.1049 -0.2195
  263DMF     N1 3635   1.893   2.664   2.254  0.0413  0.3253 -0.3997
  263DMF     C2 3636   1.792   2.766   2.236  0.5974 -0.3608  0.1128
  263DMF     C3 3637   2.026   2.696   2.257  0.2184  0.1143 -0.3669
  263DMF     O1 3638   2.107   2.612   2.267 -0.3393  0.1751 -0.2142
  263DMF     H1 3639   1.867   2.466   2.330 -0.5881 -0.9078 -0.4911
  263DMF     H2 3640   1.897   2.482   2.151  0.9654 -0.0023  0.0791
  263DMF     H3 3641   1.736   2.524   2.231  0.3995  1.0357 -0.4165
  263DMF     H4 3642   1.716   2.738   2.162 -0.7117 -0.1955  1.3818
  263DMF     H5 3643   1.839   2.861   2.210 -0.4653  0.3441  0.7368
  263DMF     H6 3644   1.739   2.784   2.330 -0.3760  0.4358 -0.5759
  263DMF     H7 3645   2.043   2.805   2.252 -1.1886  0.2570 -3.4107
  264DMF     C1 3646   0.326   2.358   0.958  0.5920 -0.0548 -0.4018
  264DMF     N1 3647   0.281   2.257   1.053 -0.1881 -0.1360  0.3333
  264DMF     C2 3648   0.266   2.125   1.015 -0.6757 -0.3336 -0.4063
  264DMF     C3 3649   0.249   2.289   1.183  0.7704 -0.3525  0.3254
  264DMF     O1 3650   0.247   2.402   1.225  0.5432  0.1032  0.6602
  264DMF     H1 3651   0.404   2.423   1.000 -1.2228  1.1590  1.1543
  264DMF     H2 3652   0.245   2.422   0.922  0.1161  1.1958  2.6981
  264DMF     H3 3653   0.372   2.305   0.874  1.5986 -1.3069  0.9255
  264DMF     H4 3654   0.161   2.101   0.993 -0.2214  0.7160 -4.1774
  264DMF     H5 3655   0.296   2.061   1.099  0.5395  0.9249  0.1433
  264DMF     H6 3656   0.328   2.104   0.927  1.3528 -0.9794  1.1405
  264DMF     H7 3657   0.212   2.201   1.239  2.1931 -2.5410 -2.0260
  265DMF     C1 3658   0.714   0.664   2.900  0.2252 -0.4472  0.1691
  265DMF     N1 3659   0.840   0.599   2.934  0.3020  0.1467  0.0669
  265DMF     C2 3660   0.849   0.459   2.901  0.1591 -0.0468 -0.6190
  265DMF     C3 3661   0.956   0.672   2.966 -0.3749  0.3099 -0.0938
  265DMF     O1 3662   0.947   0.790   2.983  0.1853 -0.8317 -0.0970
  265DMF     H1 3663   0.637   0.608   2.953 -0.1277 -0.3097 -0.1952
  265DMF     H2 3664   0.704   0.654   2.791 -1.0470 -0.0238  0.2447
  265DMF     H3 3665   0.723   0.767   2.935 -0.4149 -0.3873  0.1534
  265DMF     H4 3666   0.945   0.431   2.856  2.3223  0.8151  3.2433
  265DMF     H5 3667   0.768   0.428   2.835  0.8970 -3.1708 -0.1291
  265DMF     H6 3668   0.834   0.393   2.987  0.7454  0.6449  0.0248
  265DMF     H7 3669   1.053   0.618   2.969 -0.3311  0.4041  0.1738
  266DMF     C1 3670   1.539   1.213   3.119 -0.1260 -0.3342 -0.2163
  266DMF     N1 3671   1.621   1.092   3.101  0.4893 -0.2089 -0.0395
  266DMF     C2 3672   1.731   1.083   3.197  0.2882 -0.3099  0.2391
  266DMF     C3 3673   1.594   0.983   3.012  0.6465  0.0654  0.8012
  266DMF     O1 3674   1.509   0.981   2.924 -0.6336  0.1983  0.3691
  266DMF     H1 3675   1.583   1.290   3.055 -3.7307  0.4901 -1.8500
  266DMF     H2 3676   1.536   1.248   3.223  0.8887  0.7282 -0.5339
  266DMF     H3 3677   1.442   1.187   3.073 -0.9013  2.0720 -0.0431
  266DMF     H4 3678   1.823   1.064   3.140  0.4903  0.2622  0.3688
  266DMF     H5 3679   1.715   0.992   3.257 -0.5074 -2.2340 -2.7930
  266DMF     H6 3680   1.733   1.178   3.252  1.3271  1.6161 -2.9661
  266DMF     H7 3681   1.677   0.914   3.034  0.9269  0.0546 -0.2264
  267DMF     C1 3682   0.099   0.830   3.777  0.1813 -0.2321  0.3067
  267DMF     N1 3683  -0.027   0.764   3.736 -0.6727 -0.1515  0.8652
  267DMF     C2 3684  -0.125   0.739   3.838 -0.6988  0.5294  0.2959
  267DMF     C3 3685  -0.045   0.702   3.603 -0.0374  0.3452  0.2190
  267DMF     O1 3686   0.042   0.698   3.518 -0.1861 -0.3730  0.4581
  267DMF     H1 3687   0.168   0.845   3.692 -0.3108  2.9957  0.4201
  267DMF     H2 3688   0.165   0.784   3.851  1.0293 -0.9368 -0.8537
  267DMF     H3 3689   0.070   0.932   3.804 -0.5846 -0.7158  1.3300
  267DMF     H4 3690  -0.084   0.669   3.912 -0.0623  0.8556  0.2504
  267DMF     H5 3691  -0.220   0.703   3.794  0.4266 -2.6696  0.3203
  267DMF     H6 3692  -0.140   0.834   3.891  1.8591  1.6288 -0.8891
  267DMF     H7 3693  -0.142   0.649   3.595 -0.1066  0.0770  2.5266
  268DMF     C1 3694   0.462   2.342   3.640  0.5960 -0.3545 -0.1237
  268DMF     N1 3695   0.380   2.463   3.618  0.4660  0.8764 -0.8753
  268DMF     C2 3696   0.346   2.555   3.732 -0.4235  0.1646  0.4811
  268DMF     C3 3697   0.308   2.476   3.499 -0.2330 -0.1756  0.3706
  268DMF     O1 3698   0.332   2.399   3.405  0.1961 -0.2601  0.5352
  268DMF     H1 3699   0.493   2.327   3.745 -1.9372 -1.5060  0.4983
  268DMF     H2 3700   0.547   2.342   3.571  0.7029  1.1813 -0.0125
  268DMF     H3 3701   0.393   2.259   3.619  0.6319 -0.4718  0.2053
  268DMF     H4 3702   0.434   2.618   3.749  0.1269 -0.7392  1.0481
  268DMF     H5 3703   0.332   2.498   3.824  0.2124  1.0886  1.1577
  268DMF     H6 3704   0.250   2.602   3.709 -0.3061  0.7859  1.2556
  268DMF     H7 3705   0.234   2.559   3.497 -1.6259 -1.4171 -1.8278
  269DMF     C1 3706   1.551   0.010   2.247  0.0453 -0.4596 -0.2066
  269DMF     N1 3707   1.499  -0.109   2.327 -0.8015  0.6610  0.3435
  269DMF     C2 3708   1.566  -0.240   2.304  0.0381 -0.1299 -0.1532
  269DMF     C3 3709   1.409  -0.086   2.424  0.4170  0.0152 -0.2632
  269DMF     O1 3710   1.358   0.018   2.462 -0.1213  0.0536  0.7464
  269DMF     H1 3711   1.590  -0.029   2.153 -1.3199 -0.2960 -0.8472
  269DMF     H2 3712   1.631   0.053   2.309  1.4464 -1.3526 -1.3528
  269DMF     H3 3713   1.476   0.088   2.232  1.2448  0.6147 -0.7464
  269DMF     H4 3714   1.548  -0.282   2.205 -2.5369 -2.0278  1.0651
  269DMF     H5 3715   1.532  -0.312   2.379 -1.0399  0.2256 -0.2916
  269DMF     H6 3716   1.676  -0.235   2.306  0.0362 -0.1642  0.1543
  269DMF     H7 3717   1.385  -0.175   2.484 -0.0758  0.9466  0.9653
  270DMF     C1 3718   1.118   3.379   2.228 -0.8014 -0.6694  0.2111
  270DMF     N1 3719   1.042   3.400   2.356 -0.1753 -0.0739 -0.1794
  270DMF     C2 3720   1.057   3.298   2.462 -0.3076  0.1305 -0.2399
  270DMF     C3 3721   0.940   3.499   2.375  0.8119 -0.1927  0.4692
  270DMF     O1 3722   0.900   3.567   2.279  0.2789  0.2071 -0.5607
  270DMF     H1 3723   1.105   3.273   2.201 -2.1067 -0.1845 -1.1080
  270DMF     H2 3724   1.227   3.395   2.228 -0.9861  0.7645 -2.2094
  270DMF     H3 3725   1.071   3.451   2.161 -0.9769 -0.8303  0.1614
  270DMF     H4 3726   1.105   3.204   2.430  0.2662  0.1699  0.4940
  270DMF     H5 3727   0.959   3.276   2.506  0.3327  1.0127  1.6925
  270DMF     H6 3728   1.127   3.338   2.536 -0.1393 -1.0073  0.2334
  270DMF     H7 3729   0.900   3.498   2.478 -0.5443  0.7707 -0.0223
  271DMF     C1 3730   3.278   1.647   2.247  0.8381  0.2913  0.3754
  271DMF     N1 3731   3.154   1.560   2.230  0.6966  0.3909 -0.2214
  271DMF     C2 3732   3.180   1.411   2.232 -0.2596 -0.4698 -0.4072
  271DMF     C3 3733   3.019   1.614   2.235  0.2584  0.3821  0.0206
  271DMF     O1 3734   2.999   1.730   2.228 -0.1854 -0.3869  0.6900
  271DMF     H1 3735   3.263   1.735   2.185 -0.1462  0.4313  0.8024
  271DMF     H2 3736   3.367   1.596   2.210 -0.9465 -0.7645 -2.6142
  271DMF     H3 3737   3.296   1.683   2.349  0.9292  0.8128  0.1736
  271DMF     H4 3738   3.265   1.383   2.168  1.4818  0.2848  1.5343
  271DMF     H5 3739   3.087   1.356   2.209 -0.2817 -0.9773  0.8376
  271DMF     H6 3740   3.216   1.381   2.331 -0.2244 -1.4402 -0.7083
  271DMF     H7 3741   2.937   1.540   2.247  0.2999  0.6481  2.1887
  272DMF     C1 3742   0.764   1.425   3.093  0.2678 -0.0291 -0.2037
  272DMF     N1 3743   0.777   1.506   3.221 -0.0197 -0.5807 -0.3050
  272DMF     C2 3744   0.829   1.639   3.211  0.2151  0.3098 -0.3720
  272DMF     C3 3745   0.729   1.455   3.336 -0.1681 -0.5412 -0.1902
  272DMF     O1 3746   0.697   1.345   3.357  0.0109 -0.1315 -0.4499
  272DMF     H1 3747   0.836   1.343   3.106 -0.9072 -1.1844 -0.8228
  272DMF     H2 3748   0.787   1.491   3.009  2.3903  0.0444  0.4110
  272DMF     H3 3749   0.666   1.376   3.084 -0.2906  1.0955 -0.2564
  272DMF     H4 3750   0.755   1.698   3.156  0.2722  1.1121  0.3930
  272DMF     H5 3751   0.929   1.642   3.165  1.4081  0.2314  2.1014
  272DMF     H6 3752   0.827   1.676   3.315  0.7702 -0.0782 -0.2230
  272DMF     H7 3753   0.716   1.522   3.423  2.0405 -2.1472  1.3994
  273DMF     C1 3754   1.508   0.097   3.153 -0.6494  0.5402 -0.5523
  273DMF     N1 3755   1.375   0.043   3.118 -0.5616 -0.3286 -0.5184
  273DMF     C2 3756   1.343  -0.001   2.983  0.0324  0.1415  0.5372
  273DMF     C3 3757   1.278   0.027   3.220 -0.2757  0.2320 -0.3439
  273DMF     O1 3758   1.300   0.068   3.336  0.5609 -0.2600 -0.0551
  273DMF     H1 3759   1.563   0.018   3.206  0.3666 -0.8294 -3.5744
  273DMF     H2 3760   1.487   0.182   3.220 -0.1648 -0.2358  0.6102
  273DMF     H3 3761   1.566   0.124   3.064 -1.6533 -1.2087 -1.7688
  273DMF     H4 3762   1.434   0.014   2.924  0.2615 -1.5169  0.4393
  273DMF     H5 3763   1.263   0.065   2.948 -1.8762 -2.1201  0.5302
  273DMF     H6 3764   1.326  -0.109   2.991 -0.3455  0.2543  1.3106
  273DMF     H7 3765   1.181  -0.016   3.191  0.4976 -0.6371 -1.7401
  274DMF     C1 3766   3.216   1.314   2.824  0.0799 -0.2707 -0.0421
  274DMF     N1 3767   3.277   1.250   2.940  0.4242 -0.2005  0.1807
  274DMF     C2 3768   3.228   1.287   3.078  0.0708 -0.4747  0.7272
  274DMF     C3 3769   3.354   1.135   2.930  0.2362 -0.0907 -0.3285
  274DMF     O1 3770   3.387   1.084   2.824  0.2170 -0.1678 -0.2993
  274DMF     H1 3771   3.111   1.341   2.842  0.4801  1.1677  0.2238
  274DMF     H2 3772   3.215   1.251   2.735  0.2771 -1.2359  0.6336
  274DMF     H3 3773   3.268   1.410   2.812  2.5840 -1.0672  3.5365
  274DMF     H4 3774   3.265   1.207   3.143 -2.3207 -0.5020  2.1055
  274DMF     H5 3775   3.119   1.295   3.075 -0.0160 -2.0605 -1.3606
  274DMF     H6 3776   3.265   1.387   3.104 -0.5668  0.0019 -0.1812
  274DMF     H7 3777   3.392   1.089   3.024  0.5572 -1.2526 -1.0187
  275DMF     C1 3778   0.969   0.878   2.279  0.1138 -0.2068 -0.1932
  275DMF     N1 3779   1.054   1.003   2.252 -0.5539 -0.1336  0.4449
  275DMF     C2 3780   1.196   1.000   2.282 -0.1814  0.6489 -0.7880
  275DMF     C3 3781   0.991   1.126   2.219  0.1152 -0.1178 -0.0734
  275DMF     O1 3782   0.868   1.145   2.200 -0.0754  1.1345  0.0588
  275DMF     H1 3783   0.865   0.900   2.304  0.6938 -0.0067  2.1570
  275DMF     H2 3784   1.008   0.822   2.365 -0.1453 -1.5647 -0.9367
  275DMF     H3 3785   0.981   0.815   2.190 -0.4019  1.9371 -1.8270
  275DMF     H4 3786   1.254   0.936   2.214 -1.6234 -0.5871 -0.8723
  275DMF     H5 3787   1.199   0.957   2.383  0.8813 -1.6288 -1.7521
  275DMF     H6 3788   1.226   1.105   2.297 -0.1484  0.4188  0.7892
  275DMF     H7 3789   1.060   1.210   2.202 -2.7296  1.9688 -1.9217
  276DMF     C1 3790   0.650   0.103   1.297  0.5509 -0.8035 -0.0074
  276DMF     N1 3791   0.589   0.204   1.384 -0.0102  0.1701 -0.6553
  276DMF     C2 3792   0.502   0.168   1.504 -0.2379  0.1652 -0.2086
  276DMF     C3 3793   0.609   0.337   1.352 -0.2062 -0.6518  0.7311
  276DMF     O1 3794   0.686   0.377   1.263  0.1065  0.4736 -0.4121
  276DMF     H1 3795   0.752   0.082   1.330 -0.4090 -0.9958  3.0032
  276DMF     H2 3796   0.641   0.133   1.191  1.5853 -1.4222 -0.2742
  276DMF     H3 3797   0.605   0.007   1.323  0.9211 -1.1998 -0.8128
  276DMF     H4 3798   0.456   0.069   1.506  0.4997 -0.1817 -0.2691
  276DMF     H5 3799   0.429   0.250   1.509 -0.8147 -0.2538 -1.4563
  276DMF     H6 3800   0.558   0.184   1.597 -0.3067  1.9467 -0.4425
  276DMF     H7 3801   0.552   0.411   1.411  0.5327 -1.2438  2.2190
  277DMF     C1 3802   0.623   2.553   0.221 -0.4664  0.4578  0.3116
  277DMF     N1 3803   0.767   2.507   0.181 -0.5040 -0.1844  0.2153
  277DMF     C2 3804   0.800   2.520   0.037 -0.5864 -0.4532  0.2695
  277DMF     C3 3805   0.854   2.447   0.268 -0.3354 -0.3348  1.0808
  277DMF     O1 3806   0.834   2.430   0.386 -0.0893  0.0475 -0.3025
  277DMF     H1 3807   0.583   2.466   0.273  0.5302  1.0895  2.2059
  277DMF     H2 3808   0.567   2.595   0.136  1.1157  0.0347 -0.9737
  277DMF     H3 3809   0.630   2.641   0.286  0.0770  1.3880 -0.9684
  277DMF     H4 3810   0.724   2.568  -0.025  0.4275 -1.0176 -1.4566
  277DMF     H5 3811   0.818   2.424  -0.013  1.7532  0.9222 -1.6786
  277DMF     H6 3812   0.893   2.578   0.025 -1.9952  1.5995 -1.2071
  277DMF     H7 3813   0.950   2.426   0.219 -1.0558  0.4588 -0.7186
  278DMF     C1 3814   3.295   1.402   1.558  0.2964 -0.4227  1.4177
  278DMF     N1 3815   3.182   1.373   1.470  0.0941  0.2563 -0.1065
  278DMF     C2 3816   3.075   1.474   1.454 -0.2694  0.2513 -0.1606
  278DMF     C3 3817   3.149   1.242   1.435 -0.1230  0.2361  0.5202
  278DMF     O1 3818   3.212   1.142   1.467  0.1659  0.0830 -0.1472
  278DMF     H1 3819   3.251   1.434   1.654 -0.4763 -1.5633  1.4487
  278DMF     H2 3820   3.358   1.479   1.512 -2.4213  1.1382  0.1908
  278DMF     H3 3821   3.363   1.317   1.573  0.5147 -0.0759  2.4760
  278DMF     H4 3822   3.030   1.458   1.356  0.2814  0.1409 -0.3975
  278DMF     H5 3823   3.133   1.567   1.450 -0.4833  0.3581 -0.7980
  278DMF     H6 3824   3.008   1.471   1.541  1.0089 -2.8746  0.8056
  278DMF     H7 3825   3.066   1.240   1.362  3.3737  0.3145 -3.6483
  279DMF     C1 3826   2.433   1.464   2.265  0.1447  1.0772  0.6557
  279DMF     N1 3827   2.488   1.592   2.285 -0.0388 -0.6641 -0.7736
  279DMF     C2 3828   2.632   1.604   2.276  0.2123  0.8819 -0.0142
  279DMF     C3 3829   2.408   1.696   2.345  0.1736 -0.1247  0.3199
  279DMF     O1 3830   2.294   1.693   2.362  0.7190  0.7069  0.5885
  279DMF     H1 3831   2.511   1.408   2.212 -1.9684 -0.0315 -1.3816
  279DMF     H2 3832   2.346   1.472   2.198  0.6532  2.4947  0.1540
  279DMF     H3 3833   2.400   1.421   2.361  1.5000 -0.7726  0.3279
  279DMF     H4 3834   2.690   1.534   2.337 -2.7615 -1.2843  0.4439
  279DMF     H5 3835   2.653   1.704   2.317  2.4745 -0.5106  2.3457
  279DMF     H6 3836   2.658   1.592   2.170  2.3674 -0.4353  0.6336
  279DMF     H7 3837   2.468   1.783   2.379  2.3248 -1.0691 -0.9592
  280DMF     C1 3838   1.701   2.429   0.467  0.0496 -0.0109 -0.2073
  280DMF     N1 3839   1.682   2.526   0.361 -0.3100 -0.0764  0.0154
  280DMF     C2 3840   1.619   2.656   0.398 -0.0532 -0.7615  0.4778
  280DMF     C3 3841   1.728   2.500   0.229 -0.3304  0.0733  0.3868
  280DMF     O1 3842   1.779   2.395   0.197 -0.3241 -0.3175  0.0818
  280DMF     H1 3843   1.605   2.404   0.514 -0.1130  0.8310 -0.0728
  280DMF     H2 3844   1.775   2.470   0.538 -0.4385 -0.2464  0.4410
  280DMF     H3 3845   1.740   2.338   0.421 -1.3779 -1.0985  0.6972
  280DMF     H4 3846   1.524   2.655   0.453  1.3283  1.5121  3.0249
  280DMF     H5 3847   1.607   2.722   0.311 -1.8218  0.0176  1.2785
  280DMF     H6 3848   1.697   2.702   0.459 -0.3760 -1.1473  1.1880
  280DMF     H7 3849   1.713   2.583   0.159 -2.1416 -0.5554 -0.0079
  281DMF     C1 3850   2.130   2.279   2.297 -0.1636 -0.8104 -0.1784
  281DMF     N1 3851   2.057   2.158   2.273 -0.1254  0.0337 -0.4029
  281DMF     C2 3852   1.906   2.154   2.285  0.4605  0.0625 -0.3762
  281DMF     C3 3853   2.117   2.047   2.218  0.0546  0.1436  0.3483
  281DMF     O1 3854   2.235   2.047   2.188 -0.3854 -0.5712 -0.7491
  281DMF     H1 3855   2.160   2.291   2.402 -0.9960 -0.8179  0.0580
  281DMF     H2 3856   2.062   2.358   2.264 -0.9979 -1.4657 -0.0416
  281DMF     H3 3857   2.229   2.267   2.249 -0.3942 -1.0101 -0.6107
  281DMF     H4 3858   1.861   2.096   2.204 -1.7554  1.0256  0.1241
  281DMF     H5 3859   1.858   2.253   2.285 -1.4882 -0.8685 -1.8704
  281DMF     H6 3860   1.883   2.112   2.384 -0.6472  0.6152 -0.3811
  281DMF     H7 3861   2.042   1.967   2.201 -0.3358  0.9769 -2.1217
  282DMF     C1 3862   2.863   1.894   0.297 -0.7369 -0.0522 -0.5916
  282DMF     N1 3863   2.886   1.769   0.217  0.7159  0.0081  0.5079
  282DMF     C2 3864   3.023   1.740   0.165 -0.1307 -0.2457 -0.0477
  282DMF     C3 3865   2.780   1.688   0.183  0.3184  0.2316  0.7261
  282DMF     O1 3866   2.661   1.716   0.196 -0.1899  0.2920  0.2087
  282DMF     H1 3867   2.958   1.936   0.333 -0.2413 -0.9139 -0.8824
  282DMF     H2 3868   2.801   1.870   0.384  1.0552 -0.5192  0.5879
  282DMF     H3 3869   2.812   1.967   0.232 -1.1409  1.1458  1.0225
  282DMF     H4 3870   3.020   1.711   0.059 -2.6434  0.6143 -0.2369
  282DMF     H5 3871   3.064   1.653   0.217 -0.2028  0.3181  0.9809
  282DMF     H6 3872   3.085   1.830   0.174 -0.6272  0.0510  0.4594
  282DMF     H7 3873   2.813   1.592   0.139 -1.1367 -0.0509  0.2194
  283DMF     C1 3874   2.350   1.437   2.694  0.1181 -0.2083  1.0066
  283DMF     N1 3875   2.464   1.352   2.647 -0.1624  0.1129 -0.3383
  283DMF     C2 3876   2.589   1.421   2.603  0.9844  0.7149  0.0040
  283DMF     C3 3877   2.433   1.226   2.593 -0.4610  0.3346  0.2755
  283DMF     O1 3878   2.324   1.171   2.603  0.5786 -0.0602  0.0891
  283DMF     H1 3879   2.289   1.379   2.765  0.1313 -0.1196  1.0900
  283DMF     H2 3880   2.285   1.448   2.606  0.6504 -2.1414  0.3473
  283DMF     H3 3881   2.376   1.537   2.730 -3.7520  1.0507  0.4653
  283DMF     H4 3882   2.585   1.414   2.494 -1.5526 -2.4761  0.2287
  283DMF     H5 3883   2.668   1.350   2.631  0.3059 -1.4489 -3.2719
  283DMF     H6 3884   2.604   1.516   2.655 -0.5118 -0.0675  1.8936
  283DMF     H7 3885   2.523   1.177   2.552 -0.7720 -0.1651  0.1886
  284DMF     C1 3886   1.996   1.686   3.514  0.1640 -0.5121 -1.0365
  284DMF     N1 3887   2.043   1.823   3.515  0.1323 -0.0978 -0.3065
  284DMF     C2 3888   1.976   1.934   3.583 -1.0983 -0.0665  0.1482
  284DMF     C3 3889   2.171   1.853   3.466 -0.3129 -0.8679 -0.0084
  284DMF     O1 3890   2.240   1.765   3.415 -0.0100 -0.8151 -0.6419
  284DMF     H1 3891   1.943   1.663   3.607  0.3272 -0.6602 -0.9820
  284DMF     H2 3892   2.083   1.621   3.509  0.9654  0.3286  1.2727
  284DMF     H3 3893   1.930   1.675   3.426 -0.3431  0.3447 -0.7759
  284DMF     H4 3894   2.041   1.988   3.653  0.4593 -3.0045  1.0467
  284DMF     H5 3895   1.883   1.898   3.629 -0.6434 -1.7397 -0.2095
  284DMF     H6 3896   1.935   1.996   3.503  0.9154  1.8859  0.5713
  284DMF     H7 3897   2.203   1.959   3.462 -1.0735 -0.5936  1.1091
  285DMF     C1 3898   0.431   0.823   3.070 -0.1060  0.7071  0.3970
  285DMF     N1 3899   0.367   0.775   3.199  0.2600  0.1616  0.1893
  285DMF     C2 3900   0.454   0.724   3.304 -0.1547  0.3667 -0.2858
  285DMF     C3 3901   0.231   0.790   3.230  0.5084 -0.8468 -0.4789
  285DMF     O1 3902   0.147   0.833   3.150 -0.2859 -0.4376  0.1345
  285DMF     H1 3903   0.539   0.841   3.085  0.0832  0.6363 -0.8779
  285DMF     H2 3904   0.389   0.917   3.032 -1.4277  0.7832  1.9856
  285DMF     H3 3905   0.427   0.740   2.999 -0.7442  0.5296  0.6402
  285DMF     H4 3906   0.416   0.623   3.324 -1.8866  0.3164 -3.6089
  285DMF     H5 3907   0.441   0.792   3.389 -0.6469 -0.0217 -0.0465
  285DMF     H6 3908   0.559   0.723   3.273 -0.1560  0.0963 -0.2884
  285DMF     H7 3909   0.212   0.741   3.327  0.4084 -3.4378 -1.7490
  286DMF     C1 3910   1.193   0.485   0.121  0.0462 -0.1857  0.6239
  286DMF     N1 3911   1.099   0.542   0.217 -0.4266  0.3406  0.0335
  286DMF     C2 3912   0.982   0.618   0.172  0.2467 -0.1695  0.2645
  286DMF     C3 3913   1.122   0.551   0.353 -0.0740  0.4540 -0.1706
  286DMF     O1 3914   1.216   0.501   0.412 -0.1339  0.1380 -0.4066
  286DMF     H1 3915   1.238   0.387   0.139  1.4111  0.6689  2.0029
  286DMF     H2 3916   1.270   0.562   0.111 -1.9973  2.4525  3.9060
  286DMF     H3 3917   1.137   0.476   0.027 -0.7627 -1.9852  1.2628
  286DMF     H4 3918   0.896   0.590   0.234  0.0871  1.7379  0.9370
  286DMF     H5 3919   0.960   0.597   0.067 -1.3871  3.8303 -0.2833
  286DMF     H6 3920   0.987   0.728   0.177  0.1092 -0.1605  0.1995
  286DMF     H7 3921   1.053   0.626   0.395 -1.4273 -1.3543  0.9078
  287DMF     C1 3922   3.332   3.000   3.584 -0.0881  0.6051  0.6464
  287DMF     N1 3923   3.446   3.049   3.661 -0.4391 -0.2392  0.5537
  287DMF     C2 3924   3.549   3.144   3.598  0.6482  0.5398 -0.3089
  287DMF     C3 3925   3.487   2.977   3.769 -0.2475  0.7394 -0.2197
  287DMF     O1 3926   3.427   2.875   3.809 -0.5525  0.4485 -0.2814
  287DMF     H1 3927   3.312   3.056   3.492  1.6781 -0.4419 -0.4119
  287DMF     H2 3928   3.245   2.997   3.651 -0.9227  1.8187 -0.3598
  287DMF     H3 3929   3.352   2.899   3.547  2.7641  1.1405  0.6403
  287DMF     H4 3930   3.638   3.157   3.661  1.6826 -2.0856 -1.1577
  287DMF     H5 3931   3.499   3.237   3.569  0.3228  0.8143  1.0638
  287DMF     H6 3932   3.582   3.091   3.508 -0.6017  0.2897 -0.6307
  287DMF     H7 3933   3.584   3.013   3.810  0.4149 -1.0344 -0.2100
  288DMF     C1 3934   1.131   1.704   2.265 -0.1682  0.0386  0.6167
  288DMF     N1 3935   1.171   1.591   2.337 -0.5047  0.6127 -0.5752
  288DMF     C2 3936   1.093   1.467   2.321 -0.5645  0.7439  0.6029
  288DMF     C3 3937   1.277   1.595   2.428 -0.7640 -0.2155 -0.2365
  288DMF     O1 3938   1.343   1.693   2.436 -0.7504  0.0819 -0.2261
  288DMF     H1 3939   1.129   1.797   2.324 -2.6862 -0.2305  1.0116
  288DMF     H2 3940   1.032   1.688   2.221 -0.5789 -0.3334  1.6535
  288DMF     H3 3941   1.194   1.714   2.176  0.4032  0.1371  1.0216
  288DMF     H4 3942   1.141   1.380   2.368  0.2123 -0.8051 -2.8707
  288DMF     H5 3943   1.082   1.452   2.213  0.1912  2.4236  0.2815
  288DMF     H6 3944   0.995   1.478   2.368  0.5448  1.2406  2.8577
  288DMF     H7 3945   1.293   1.496   2.474 -1.2858 -0.4627 -0.5794
  289DMF     C1 3946   2.349   2.359   0.303  0.0397  0.5192 -0.7758
  289DMF     N1 3947   2.240   2.442   0.239  0.4343 -0.3466 -0.5660
  289DMF     C2 3948   2.152   2.521   0.329  0.3100 -0.1504 -0.7915
  289DMF     C3 3949   2.211   2.431   0.104 -0.2292  0.2537  0.1819
  289DMF     O1 3950   2.264   2.349   0.027 -0.5951  0.2725 -0.2542
  289DMF     H1 3951   2.298   2.313   0.389 -0.7207  0.0745 -1.4633
  289DMF     H2 3952   2.428   2.420   0.349 -1.0023  0.5688  1.0068
  289DMF     H3 3953   2.395   2.281   0.242 -0.5425  1.2866 -2.2168
  289DMF     H4 3954   2.073   2.579   0.281 -1.3100 -1.8858 -0.2784
  289DMF     H5 3955   2.211   2.557   0.415  0.8189 -2.9182  0.0740
  289DMF     H6 3956   2.080   2.449   0.370  0.3543  0.3539  0.1833
  289DMF     H7 3957   2.127   2.497   0.075 -0.2520 -0.8598 -2.4247
  290DMF     C1 3958   2.705   1.138   2.272 -0.0355  0.5486 -0.7771
  290DMF     N1 3959   2.846   1.144   2.308  0.3837  0.1602 -0.4788
  290DMF     C2 3960   2.936   1.026   2.280 -0.2564  0.1456 -0.5724
  290DMF     C3 3961   2.883   1.244   2.402  0.0280 -0.0146  0.7456
  290DMF     O1 3962   2.814   1.334   2.432 -0.3478 -0.5717  0.2848
  290DMF     H1 3963   2.682   1.041   2.225  2.4122  0.0068 -0.9526
  290DMF     H2 3964   2.666   1.220   2.210 -2.1756  0.7658  0.8278
  290DMF     H3 3965   2.645   1.139   2.363 -0.6263 -1.7262 -1.1119
  290DMF     H4 3966   2.888   0.946   2.222 -0.6054  0.4882 -0.7586
  290DMF     H5 3967   2.970   0.980   2.373 -3.2866 -1.6310 -0.2777
  290DMF     H6 3968   3.021   1.067   2.224 -1.3675  1.0636 -1.6208
  290DMF     H7 3969   2.986   1.234   2.440  0.9218 -0.5647 -1.7139
  291DMF     C1 3970   2.487   2.711   3.309  1.0255 -0.3240 -0.6804
  291DMF     N1 3971   2.424   2.792   3.198 -0.1483 -0.3127  0.0018
  291DMF     C2 3972   2.464   2.763   3.058  0.9322 -0.1915 -0.0182
  291DMF     C3 3973   2.382   2.919   3.221  0.3450  0.3063 -0.8514
  291DMF     O1 3974   2.400   2.987   3.318 -0.0766  0.4334 -0.4328
  291DMF     H1 3975   2.502   2.762   3.405 -2.0231 -0.9947  0.1882
  291DMF     H2 3976   2.578   2.666   3.267  1.0093 -0.8651 -0.1343
  291DMF     H3 3977   2.413   2.635   3.336 -1.3357  2.6515  1.5879
  291DMF     H4 3978   2.477   2.858   3.005 -1.8078  0.1498 -0.1793
  291DMF     H5 3979   2.390   2.698   3.009 -1.0398 -0.3156  2.9634
  291DMF     H6 3980   2.559   2.709   3.061 -0.3858 -2.5539  2.3284
  291DMF     H7 3981   2.338   2.950   3.124 -0.5564 -1.3982 -1.0005
  292DMF     C1 3982   1.286   0.268   1.220 -0.1336 -0.5624 -0.1719
  292DMF     N1 3983   1.145   0.237   1.221 -0.1628  0.4439 -0.1530
  292DMF     C2 3984   1.101   0.095   1.233  0.0727 -0.8340 -0.3563
  292DMF     C3 3985   1.047   0.339   1.194 -0.2008  0.0850 -0.2481
  292DMF     O1 3986   1.086   0.456   1.172 -0.4388 -0.5586 -0.5483
  292DMF     H1 3987   1.326   0.202   1.298  0.0100  1.3489  1.4069
  292DMF     H2 3988   1.309   0.367   1.262  1.3973 -0.8999 -0.1846
  292DMF     H3 3989   1.329   0.274   1.119 -0.3327  0.8648 -0.1828
  292DMF     H4 3990   1.190   0.032   1.245 -0.3235 -1.0413  1.6263
  292DMF     H5 3991   1.053   0.061   1.140  0.7172 -1.0218 -0.6221
  292DMF     H6 3992   1.033   0.082   1.318 -0.5431  3.2862 -0.1424
  292DMF     H7 3993   0.944   0.305   1.212  0.5430 -0.8895  2.3854
  293DMF     C1 3994   1.852   0.400   3.491 -0.5809  0.1542  0.4047
  293DMF     N1 3995   1.779   0.430   3.362 -0.4489 -0.4012 -0.6312
  293DMF     C2 3996   1.740   0.572   3.334 -0.3889 -0.2474 -0.4170
  293DMF     C3 3997   1.776   0.331   3.262 -0.7947 -0.5509 -0.6437
  293DMF     O1 3998   1.800   0.213   3.289 -0.1244 -0.1038 -0.3849
  293DMF     H1 3999   1.839   0.489   3.553 -2.5730 -0.5531  1.0411
  293DMF     H2 4000   1.959   0.389   3.472 -0.8149  0.1032 -0.9273
  293DMF     H3 4001   1.810   0.310   3.539  1.3019  0.3795  2.5530
  293DMF     H4 4002   1.808   0.638   3.391  0.9705 -1.5533 -0.4941
  293DMF     H5 4003   1.644   0.584   3.385 -1.3343 -3.3875 -1.3760
  293DMF     H6 4004   1.739   0.592   3.226 -1.5443  1.0812 -0.1855
  293DMF     H7 4005   1.735   0.353   3.162  1.5994 -0.4075 -1.6222
  294DMF     C1 4006   0.548   3.002   0.043  0.4116 -0.5589  0.5589
  294DMF     N1 4007   0.585   2.895  -0.057  0.4949  0.6665  0.2440
  294DMF     C2 4008   0.483   2.848  -0.155  0.3696 -0.5447 -0.2730
  294DMF     C3 4009   0.718   2.847  -0.061  0.6236  0.2632 -0.1376
  294DMF     O1 4010   0.799   2.886   0.024 -0.0726 -0.3039  0.3337
  294DMF     H1 4011   0.639   3.064   0.034  1.1587 -2.0466 -2.7962
  294DMF     H2 4012   0.545   2.962   0.145 -0.0111 -3.2646 -0.4725
  294DMF     H3 4013   0.454   3.048   0.011  0.1824 -2.9006 -2.3324
  294DMF     H4 4014   0.467   2.924  -0.232  0.1613 -0.5520 -0.2357
  294DMF     H5 4015   0.385   2.823  -0.113  0.8754 -1.3285  0.4455
  294DMF     H6 4016   0.518   2.757  -0.204  3.6324  0.0954  0.7317
  294DMF     H7 4017   0.738   2.771  -0.138 -0.3858  0.5052 -0.6466
  295DMF     C1 4018   0.313   1.241   1.134 -0.4739  0.2142  0.4705
  295DMF     N1 4019   0.241   1.269   1.262 -0.5799 -0.5973 -0.0742
  295DMF     C2 4020   0.135   1.183   1.314  0.0148 -0.0915 -0.1299
  295DMF     C3 4021   0.264   1.393   1.323  0.3761  1.0045 -0.2052
  295DMF     O1 4022   0.338   1.478   1.273  0.3443  0.5170  0.0025
  295DMF     H1 4023   0.413   1.206   1.164 -0.6559 -1.2753 -0.5675
  295DMF     H2 4024   0.336   1.334   1.082 -0.4039  0.3449  0.7332
  295DMF     H3 4025   0.265   1.169   1.067 -0.6800  0.8576 -0.0756
  295DMF     H4 4026   0.164   1.115   1.395  3.3113 -0.6407 -1.6915
  295DMF     H5 4027   0.079   1.124   1.240 -0.8411 -0.0809  0.4988
  295DMF     H6 4028   0.066   1.254   1.361  0.0356 -1.4947  2.0889
  295DMF     H7 4029   0.206   1.403   1.416  0.6078  0.3574  0.0071
  296DMF     C1 4030   0.134   0.573   0.499  0.5694  0.1004  0.0331
  296DMF     N1 4031   0.217   0.471   0.432  0.2847  0.2126 -0.3182
  296DMF     C2 4032   0.362   0.485   0.438 -0.3456 -0.0838  0.0980
  296DMF     C3 4033   0.160   0.353   0.379 -0.7700 -0.3759 -0.1930
  296DMF     O1 4034   0.036   0.347   0.381 -0.5086  0.5473 -0.2211
  296DMF     H1 4035   0.061   0.521   0.562  1.0372 -0.9780 -0.3083
  296DMF     H2 4036   0.076   0.640   0.433  0.8427  1.2262  0.9187
  296DMF     H3 4037   0.187   0.641   0.567 -0.7906 -1.3454  2.6166
  296DMF     H4 4038   0.404   0.538   0.524  1.6681  0.5349 -1.2582
  296DMF     H5 4039   0.392   0.544   0.351 -1.2334  0.2191 -0.0109
  296DMF     H6 4040   0.409   0.386   0.433 -1.7950 -0.9443  2.4497
  296DMF     H7 4041   0.234   0.286   0.333 -0.3141  0.1602 -0.2437
  297DMF     C1 4042   1.572   2.369   0.802 -0.4741  0.6663  0.2512
  297DMF     N1 4043   1.710   2.313   0.824 -0.4112  0.1531 -0.2908
  297DMF     C2 4044   1.776   2.346   0.951  0.6237 -0.4206 -0.5416
  297DMF     C3 4045   1.760   2.213   0.742  0.3315  0.3716  0.8411
  297DMF     O1 4046   1.698   2.153   0.650  0.1436  0.1172 -0.2518
  297DMF     H1 4047   1.582   2.477   0.790  1.1283  0.5382  0.3712
  297DMF     H2 4048   1.508   2.344   0.887 -0.4207  0.3341  0.1972
  297DMF     H3 4049   1.528   2.330   0.708  0.1608 -0.0599  0.2490
  297DMF     H4 4050   1.743   2.441   0.994 -1.5296 -1.1973 -0.4253
  297DMF     H5 4051   1.882   2.354   0.922  0.9768 -0.3096  0.7695
  297DMF     H6 4052   1.760   2.264   1.022 -0.7252  0.1958 -0.1145
  297DMF     H7 4053   1.857   2.181   0.786  0.7691 -0.3587 -0.6291
  298DMF     C1 4054   2.273   0.280   0.162 -0.3245  0.3228 -0.2234
  298DMF     N1 4055   2.377   0.364   0.237  0.0314  0.2913 -0.2655
  298DMF     C2 4056   2.490   0.421   0.156  0.2958 -0.5333  0.5097
  298DMF     C3 4057   2.371   0.389   0.377  0.2613  0.4342 -0.4923
  298DMF     O1 4058   2.276   0.345   0.444  0.3046  0.2153 -0.6889
  298DMF     H1 4059   2.289   0.304   0.056  0.3217 -0.9791 -0.4262
  298DMF     H2 4060   2.179   0.321   0.202 -0.0577 -1.1205  1.9301
  298DMF     H3 4061   2.288   0.177   0.196  2.4970  1.3610  1.8094
  298DMF     H4 4062   2.511   0.523   0.190 -3.7708  0.1076  1.2937
  298DMF     H5 4063   2.447   0.449   0.059  2.2050  0.2531 -0.1334
  298DMF     H6 4064   2.584   0.364   0.146 -1.0313 -2.5530 -0.7783
  298DMF     H7 4065   2.442   0.467   0.411 -0.3581  0.9137 -0.2933
  299DMF     C1 4066   0.243   2.113   2.254 -0.3901  0.0890  0.3648
  299DMF     N1 4067   0.319   1.988   2.275  0.6627 -0.1058  0.1795
  299DMF     C2 4068   0.247   1.858   2.262 -0.5787 -0.5458  0.3595
  299DMF     C3 4069   0.460   1.982   2.296  0.0312 -0.3082 -0.5356
  299DMF     O1 4070   0.536   2.081   2.292 -0.4213  0.5862  0.0501
  299DMF     H1 4071   0.136   2.099   2.274 -0.3567 -0.8128 -0.0974
  299DMF     H2 4072   0.263   2.159   2.156  1.2333  0.5384  0.8923
  299DMF     H3 4073   0.283   2.184   2.328  1.1470  0.4711 -0.8015
  299DMF     H4 4074   0.291   1.785   2.331 -0.6337  0.1109  1.0907
  299DMF     H5 4075   0.257   1.819   2.160 -0.0608 -1.2701  0.6791
  299DMF     H6 4076   0.140   1.863   2.281 -0.6541 -1.2156  0.1304
  299DMF     H7 4077   0.486   1.876   2.315 -0.2369 -0.1492  0.7603
  300DMF     C1 4078   1.500   3.080   3.773  0.0411 -0.0307 -0.2367
  300DMF     N1 4079   1.604   3.177   3.813 -0.2174  0.1207 -0.3464
  300DMF     C2 4080   1.705   3.126   3.905  0.4984 -0.1429 -0.3032
  300DMF     C3 4081   1.615   3.308   3.765  0.6540  0.0002  0.3352
  300DMF     O1 4082   1.534   3.362   3.691 -0.2660 -0.3928  0.1776
  300DMF     H1 4083   1.407   3.111   3.822  0.7367  0.9918  0.4464
  300DMF     H2 4084   1.533   2.983   3.813 -0.4362  0.2301  0.7958
  300DMF     H3 4085   1.496   3.070   3.663 -0.0951  0.6493 -0.2910
  300DMF     H4 4086   1.655   3.058   3.975 -2.2038  1.2659 -0.7978
  300DMF     H5 4087   1.742   3.212   3.962  0.7085 -0.5582  0.1849
  300DMF     H6 4088   1.786   3.076   3.850  0.3156  0.5508 -1.2220
  300DMF     H7 4089   1.694   3.363   3.820 -0.4182  0.8362  1.0487
  301DMF     C1 4090   2.045   1.982   3.133 -0.3530  0.1705 -0.5833
  301DMF     N1 4091   1.931   2.052   3.079 -0.2927 -0.7337 -0.5726
  301DMF     C2 4092   1.813   2.089   3.161 -0.0507 -0.3267 -0.1757
  301DMF     C3 4093   1.938   2.116   2.952 -0.2834  0.3788 -0.4634
  301DMF     O1 4094   2.042   2.120   2.886  0.1492  0.9274  0.0167
  301DMF     H1 4095   2.011   1.878   3.140  0.3396  0.1046  2.3868
  301DMF     H2 4096   2.076   2.015   3.233 -2.7751 -0.1263  0.2952
  301DMF     H3 4097   2.133   1.994   3.069 -0.2730  0.2810 -0.4543
  301DMF     H4 4098   1.739   2.149   3.106  0.0046 -1.9293 -2.0756
  301DMF     H5 4099   1.848   2.135   3.254 -1.8620 -0.4230  0.5733
  301DMF     H6 4100   1.758   1.999   3.191 -1.8358  0.2242 -1.7183
  301DMF     H7 4101   1.843   2.164   2.921 -1.2853 -1.2429  0.0567
  302DMF     C1 4102   2.541   0.976   3.437 -0.0352  0.5919 -0.3524
  302DMF     N1 4103   2.652   0.916   3.366  0.8103 -0.2699 -0.1059
  302DMF     C2 4104   2.663   0.773   3.378  0.2551  0.6148 -0.4064
  302DMF     C3 4105   2.721   0.984   3.270 -0.3848 -0.7049 -0.0808
  302DMF     O1 4106   2.716   1.102   3.251 -0.3717 -0.3583 -0.4306
  302DMF     H1 4107   2.529   1.075   3.390  2.6440  1.3463  0.4845
  302DMF     H2 4108   2.564   0.994   3.543  0.3178  0.5067 -0.4132
  302DMF     H3 4109   2.447   0.924   3.418 -0.6432  0.5638  2.6521
  302DMF     H4 4110   2.560   0.736   3.372  0.2892  0.5272 -0.4579
  302DMF     H5 4111   2.714   0.748   3.472 -1.2253 -0.6290  0.0901
  302DMF     H6 4112   2.705   0.721   3.291 -0.6985  0.9621 -1.0830
  302DMF     H7 4113   2.790   0.920   3.212 -0.7935 -1.0168 -0.2219
  303DMF     C1 4114   1.977   2.946   3.649  0.1517 -0.1851 -0.4612
  303DMF     N1 4115   1.855   2.870   3.648 -0.5879  0.1802 -0.2150
  303DMF     C2 4116   1.758   2.915   3.549 -0.0922  0.1135 -0.2008
  303DMF     C3 4117   1.837   2.756   3.728  0.0568  0.4129  0.4455
  303DMF     O1 4118   1.924   2.721   3.804 -0.4756  0.0409 -0.1572
  303DMF     H1 4119   2.064   2.895   3.693  0.1943  0.7190  0.5112
  303DMF     H2 4120   1.959   3.040   3.702  0.3338  1.6150 -3.5057
  303DMF     H3 4121   2.002   2.974   3.547 -0.0484  0.9213 -0.2050
  303DMF     H4 4122   1.663   2.863   3.570 -0.6904  1.8415  1.5088
  303DMF     H5 4123   1.802   2.900   3.450  1.3479  2.1423  0.1143
  303DMF     H6 4124   1.740   3.023   3.559 -1.6006 -0.2000  0.6069
  303DMF     H7 4125   1.741   2.703   3.715 -0.0509  0.9107 -0.8547
  304DMF     C1 4126   1.615   3.395   0.332  0.4505 -0.7661 -0.1768
  304DMF     N1 4127   1.484   3.457   0.325 -0.1125 -0.6053 -0.2735
  304DMF     C2 4128   1.375   3.382   0.265  0.4860  0.0436 -0.2715
  304DMF     C3 4129   1.474   3.595   0.350 -1.0533 -0.5925  0.3184
  304DMF     O1 4130   1.565   3.662   0.385 -0.3129  0.1762  0.2050
  304DMF     H1 4131   1.599   3.287   0.336 -2.3872 -0.3456  0.7704
  304DMF     H2 4132   1.672   3.422   0.423 -0.8536  1.7819 -0.0571
  304DMF     H3 4133   1.668   3.418   0.239  1.0203 -1.6533 -0.0793
  304DMF     H4 4134   1.362   3.288   0.320  0.7736  0.6537  0.8734
  304DMF     H5 4135   1.391   3.369   0.158 -1.3868 -0.1027 -0.5459
  304DMF     H6 4136   1.282   3.438   0.279 -2.0956 -3.9792 -0.3885
  304DMF     H7 4137   1.368   3.626   0.345 -0.1498  2.4097 -1.5773
  305DMF     C1 4138   1.213   2.918   2.299 -0.3615  0.2991  0.6834
  305DMF     N1 4139   1.268   2.780   2.264  0.2813  0.8136  0.1849
  305DMF     C2 4140   1.167   2.666   2.259  0.3986  0.5522 -0.7853
  305DMF     C3 4141   1.401   2.750   2.228 -0.0264 -0.5142 -0.1009
  305DMF     O1 4142   1.493   2.833   2.207  0.6527  0.0210 -0.1194
  305DMF     H1 4143   1.133   2.946   2.229 -1.7603 -3.4881  0.6279
  305DMF     H2 4144   1.295   2.990   2.285 -0.2097  0.2769  1.4638
  305DMF     H3 4145   1.175   2.919   2.401  0.0145  1.3513  0.8163
  305DMF     H4 4146   1.212   2.573   2.220  0.0775  0.9918 -2.2458
  305DMF     H5 4147   1.079   2.697   2.202  0.4687  1.7052 -0.2705
  305DMF     H6 4148   1.135   2.642   2.361 -2.3616  2.2459 -1.2198
  305DMF     H7 4149   1.420   2.643   2.209  1.2905 -0.4826  0.9181
  306DMF     C1 4150   0.436   0.789   2.655  0.3519 -0.1300 -0.2444
  306DMF     N1 4151   0.317   0.865   2.713  0.6237 -0.6913 -0.0127
  306DMF     C2 4152   0.298   1.005   2.682 -0.1072  0.4433 -0.6489
  306DMF     C3 4153   0.220   0.798   2.783  1.0231  0.4241  0.2593
  306DMF     O1 4154   0.225   0.681   2.818 -0.7713  0.6176  0.2023
  306DMF     H1 4155   0.438   0.689   2.698  1.5407  0.4690  1.1374
  306DMF     H2 4156   0.532   0.832   2.684  0.6407  0.7928 -2.4833
  306DMF     H3 4157   0.423   0.792   2.546 -2.9368 -0.4230  0.0950
  306DMF     H4 4158   0.392   1.053   2.653 -0.8896  2.4668  0.1120
  306DMF     H5 4159   0.257   1.045   2.776 -1.9502 -0.5716 -0.9827
  306DMF     H6 4160   0.232   1.013   2.595 -1.4001  0.3955  0.3046
  306DMF     H7 4161   0.129   0.859   2.797 -0.2119 -1.1731 -0.7266
  307DMF     C1 4162   3.218   0.367   2.677  0.0675 -0.7628 -0.2533
  307DMF     N1 4163   3.212   0.510   2.712  0.1391  0.3654 -0.2347
  307DMF     C2 4164   3.310   0.570   2.802  0.2473  0.5850  0.8644
  307DMF     C3 4165   3.131   0.595   2.635 -0.4045  0.5563 -0.1961
  307DMF     O1 4166   3.063   0.560   2.541  1.1180  0.3293  0.3693
  307DMF     H1 4167   3.270   0.310   2.755  1.3349 -1.0392 -1.2798
  307DMF     H2 4168   3.273   0.362   2.583  1.6606 -0.8451  0.6647
  307DMF     H3 4169   3.113   0.336   2.676 -0.1879 -0.0183  1.5296
  307DMF     H4 4170   3.348   0.489   2.866  1.9948 -1.3641 -2.5296
  307DMF     H5 4171   3.248   0.641   2.858  0.1314  1.8762 -0.8531
  307DMF     H6 4172   3.388   0.617   2.742 -2.0925  0.2956 -2.5100
  307DMF     H7 4173   3.138   0.700   2.667 -0.7794  0.4130  0.3669
   3.40320   3.43847   3.80000
