HFIP comparator n4
 3225
    1GR      C1    1   0.000   0.000   1.900  0.0000  0.0000  0.0000
    1GR      C2    2   0.142   0.000   1.900  0.0000  0.0000  0.0000
    1GR      C3    3   0.213   0.123   1.900  0.0000  0.0000  0.0000
    1GR      C4    4   0.354   0.123   1.900  0.0000  0.0000  0.0000
    1GR      C5    5   0.000   0.246   1.900  0.0000  0.0000  0.0000
    1GR      C6    6   0.142   0.246   1.900  0.0000  0.0000  0.0000
    1GR      C7    7   0.213   0.368   1.900  0.0000  0.0000  0.0000
    1GR      C8    8   0.354   0.368   1.900  0.0000  0.0000  0.0000
    1GR      C9    9   0.000   0.491   1.900  0.0000  0.0000  0.0000
    1GR     C10   10   0.142   0.491   1.900  0.0000  0.0000  0.0000
    1GR     C11   11   0.213   0.614   1.900  0.0000  0.0000  0.0000
    1GR     C12   12   0.354   0.614   1.900  0.0000  0.0000  0.0000
    1GR     C13   13   0.000   0.737   1.900  0.0000  0.0000  0.0000
    1GR     C14   14   0.142   0.737   1.900  0.0000  0.0000  0.0000
    1GR     C15   15   0.213   0.860   1.900  0.0000  0.0000  0.0000
    1GR     C16   16   0.354   0.860   1.900  0.0000  0.0000  0.0000
    1GR     C17   17   0.000   0.982   1.900  0.0000  0.0000  0.0000
    1GR     C18   18   0.142   0.982   1.900  0.0000  0.0000  0.0000
    1GR     C19   19   0.213   1.105   1.900  0.0000  0.0000  0.0000
    1GR     C20   20   0.354   1.105   1.900  0.0000  0.0000  0.0000
    1GR     C21   21   0.000   1.228   1.900  0.0000  0.0000  0.0000
    1GR     C22   22   0.142   1.228   1.900  0.0000  0.0000  0.0000
    1GR     C23   23   0.213   1.351   1.900  0.0000  0.0000  0.0000
    1GR     C24   24   0.354   1.351   1.900  0.0000  0.0000  0.0000
    1GR     C25   25   0.000   1.474   1.900  0.0000  0.0000  0.0000
    1GR     C26   26   0.142   1.474   1.900  0.0000  0.0000  0.0000
    1GR     C27   27   0.213   1.596   1.900  0.0000  0.0000  0.0000
    1GR     C28   28   0.354   1.596   1.900  0.0000  0.0000  0.0000
    1GR     C29   29   0.000   1.719   1.900  0.0000  0.0000  0.0000
    1GR     C30   30   0.142   1.719   1.900  0.0000  0.0000  0.0000
    1GR     C31   31   0.213   1.842   1.900  0.0000  0.0000  0.0000
    1GR     C32   32   0.354   1.842   1.900  0.0000  0.0000  0.0000
    1GR     C33   33   0.000   1.965   1.900  0.0000  0.0000  0.0000
    1GR     C34   34   0.142   1.965   1.900  0.0000  0.0000  0.0000
    1GR     C35   35   0.213   2.088   1.900  0.0000  0.0000  0.0000
    1GR     C36   36   0.354   2.088   1.900  0.0000  0.0000  0.0000
    1GR     C37   37   0.000   2.210   1.900  0.0000  0.0000  0.0000
    1GR     C38   38   0.142   2.210   1.900  0.0000  0.0000  0.0000
    1GR     C39   39   0.213   2.333   1.900  0.0000  0.0000  0.0000
    1GR     C40   40   0.354   2.333   1.900  0.0000  0.0000  0.0000
    1GR     C41   41   0.000   2.456   1.900  0.0000  0.0000  0.0000
    1GR     C42   42   0.142   2.456   1.900  0.0000  0.0000  0.0000
    1GR     C43   43   0.213   2.579   1.900  0.0000  0.0000  0.0000
    1GR     C44   44   0.354   2.579   1.900  0.0000  0.0000  0.0000
    1GR     C45   45   0.000   2.702   1.900  0.0000  0.0000  0.0000
    1GR     C46   46   0.142   2.702   1.900  0.0000  0.0000  0.0000
    1GR     C47   47   0.213   2.824   1.900  0.0000  0.0000  0.0000
    1GR     C48   48   0.354   2.824   1.900  0.0000  0.0000  0.0000
    1GR     C49   49   0.000   2.947   1.900  0.0000  0.0000  0.0000
    1GR     C50   50   0.142   2.947   1.900  0.0000  0.0000  0.0000
    1GR     C51   51   0.213   3.070   1.900  0.0000  0.0000  0.0000
    1GR     C52   52   0.354   3.070   1.900  0.0000  0.0000  0.0000
    1GR     C53   53   0.000   3.193   1.900  0.0000  0.0000  0.0000
    1GR     C54   54   0.142   3.193   1.900  0.0000  0.0000  0.0000
    1GR     C55   55   0.213   3.316   1.900  0.0000  0.0000  0.0000
    1GR     C56   56   0.354   3.316   1.900  0.0000  0.0000  0.0000
    1GR     C57   57   0.425   0.000   1.900  0.0000  0.0000  0.0000
    1GR     C58   58   0.567   0.000   1.900  0.0000  0.0000  0.0000
    1GR     C59   59   0.638   0.123   1.900  0.0000  0.0000  0.0000
    1GR     C60   60   0.780   0.123   1.900  0.0000  0.0000  0.0000
    1GR     C61   61   0.425   0.246   1.900  0.0000  0.0000  0.0000
    1GR     C62   62   0.567   0.246   1.900  0.0000  0.0000  0.0000
    1GR     C63   63   0.638   0.368   1.900  0.0000  0.0000  0.0000
    1GR     C64   64   0.780   0.368   1.900  0.0000  0.0000  0.0000
    1GR     C65   65   0.425   0.491   1.900  0.0000  0.0000  0.0000
    1GR     C66   66   0.567   0.491   1.900  0.0000  0.0000  0.0000
    1GR     C67   67   0.638   0.614   1.900  0.0000  0.0000  0.0000
    1GR     C68   68   0.780   0.614   1.900  0.0000  0.0000  0.0000
    1GR     C69   69   0.425   0.737   1.900  0.0000  0.0000  0.0000
    1GR     C70   70   0.567   0.737   1.900  0.0000  0.0000  0.0000
    1GR     C71   71   0.638   0.860   1.900  0.0000  0.0000  0.0000
    1GR     C72   72   0.780   0.860   1.900  0.0000  0.0000  0.0000
    1GR     C73   73   0.425   0.982   1.900  0.0000  0.0000  0.0000
    1GR     C74   74   0.567   0.982   1.900  0.0000  0.0000  0.0000
    1GR     C75   75   0.638   1.105   1.900  0.0000  0.0000  0.0000
    1GR     C76   76   0.780   1.105   1.900  0.0000  0.0000  0.0000
    1GR     C77   77   0.425   1.228   1.900  0.0000  0.0000  0.0000
    1GR     C78   78   0.567   1.228   1.900  0.0000  0.0000  0.0000
    1GR     C79   79   0.638   1.351   1.900  0.0000  0.0000  0.0000
    1GR     C80   80   0.780   1.351   1.900  0.0000  0.0000  0.0000
    1GR     C81   81   0.425   1.474   1.900  0.0000  0.0000  0.0000
    1GR     C82   82   0.567   1.474   1.900  0.0000  0.0000  0.0000
    1GR     C83   83   0.638   1.596   1.900  0.0000  0.0000  0.0000
    1GR     C84   84   0.780   1.596   1.900  0.0000  0.0000  0.0000
    1GR     C85   85   0.425   1.719   1.900  0.0000  0.0000  0.0000
    1GR     C86   86   0.567   1.719   1.900  0.0000  0.0000  0.0000
    1GR     C87   87   0.638   1.842   1.900  0.0000  0.0000  0.0000
    1GR     C88   88   0.780   1.842   1.900  0.0000  0.0000  0.0000
    1GR     C89   89   0.425   1.965   1.900  0.0000  0.0000  0.0000
    1GR     C90   90   0.567   1.965   1.900  0.0000  0.0000  0.0000
    1GR     C91   91   0.638   2.088   1.900  0.0000  0.0000  0.0000
    1GR     C92   92   0.780   2.088   1.900  0.0000  0.0000  0.0000
    1GR     C93   93   0.425   2.210   1.900  0.0000  0.0000  0.0000
    1GR     C94   94   0.567   2.210   1.900  0.0000  0.0000  0.0000
    1GR     C95   95   0.638   2.333   1.900  0.0000  0.0000  0.0000
    1GR     C96   96   0.780   2.333   1.900  0.0000  0.0000  0.0000
    1GR     C97   97   0.425   2.456   1.900  0.0000  0.0000  0.0000
    1GR     C98   98   0.567   2.456   1.900  0.0000  0.0000  0.0000
    1GR     C99   99   0.638   2.579   1.900  0.0000  0.0000  0.0000
    1GR    C100  100   0.780   2.579   1.900  0.0000  0.0000  0.0000
    1GR    C101  101   0.425   2.702   1.900  0.0000  0.0000  0.0000
    1GR    C102  102   0.567   2.702   1.900  0.0000  0.0000  0.0000
    1GR    C103  103   0.638   2.824   1.900  0.0000  0.0000  0.0000
    1GR    C104  104   0.780   2.824   1.900  0.0000  0.0000  0.0000
    1GR    C105  105   0.425   2.947   1.900  0.0000  0.0000  0.0000
    1GR    C106  106   0.567   2.947   1.900  0.0000  0.0000  0.0000
    1GR    C107  107   0.638   3.070   1.900  0.0000  0.0000  0.0000
    1GR    C108  108   0.780   3.070   1.900  0.0000  0.0000  0.0000
    1GR    C109  109   0.425   3.193   1.900  0.0000  0.0000  0.0000
    1GR    C110  110   0.567   3.193   1.900  0.0000  0.0000  0.0000
    1GR    C111  111   0.638   3.316   1.900  0.0000  0.0000  0.0000
    1GR    C112  112   0.780   3.316   1.900  0.0000  0.0000  0.0000
    1GR    C113  113   0.851   0.000   1.900  0.0000  0.0000  0.0000
    1GR    C114  114   0.993   0.000   1.900  0.0000  0.0000  0.0000
    1GR    C115  115   1.064   0.123   1.900  0.0000  0.0000  0.0000
    1GR    C116  116   1.205   0.123   1.900  0.0000  0.0000  0.0000
    1GR    C117  117   0.851   0.246   1.900  0.0000  0.0000  0.0000
    1GR    C118  118   0.993   0.246   1.900  0.0000  0.0000  0.0000
    1GR    C119  119   1.064   0.368   1.900  0.0000  0.0000  0.0000
    1GR    C120  120   1.205   0.368   1.900  0.0000  0.0000  0.0000
    1GR    C121  121   0.851   0.491   1.900  0.0000  0.0000  0.0000
    1GR    C122  122   0.993   0.491   1.900  0.0000  0.0000  0.0000
    1GR    C123  123   1.064   0.614   1.900  0.0000  0.0000  0.0000
    1GR    C124  124   1.205   0.614   1.900  0.0000  0.0000  0.0000
    1GR    C125  125   0.851   0.737   1.900  0.0000  0.0000  0.0000
    1GR    C126  126   0.993   0.737   1.900  0.0000  0.0000  0.0000
    1GR    C127  127   1.064   0.860   1.900  0.0000  0.0000  0.0000
    1GR    C128  128   1.205   0.860   1.900  0.0000  0.0000  0.0000
    1GR    C129  129   0.851   0.982   1.900  0.0000  0.0000  0.0000
    1GR    C130  130   0.993   0.982   1.900  0.0000  0.0000  0.0000
    1GR    C131  131   1.064   1.105   1.900  0.0000  0.0000  0.0000
    1GR    C132  132   1.205   1.105   1.900  0.0000  0.0000  0.0000
    1GR    C133  133   0.851   1.228   1.900  0.0000  0.0000  0.0000
    1GR    C134  134   0.993   1.228   1.900  0.0000  0.0000  0.0000
    1GR    C135  135   1.064   1.351   1.900  0.0000  0.0000  0.0000
    1GR    C136  136   1.205   1.351   1.900  0.0000  0.0000  0.0000
    1GR    C137  137   0.851   1.474   1.900  0.0000  0.0000  0.0000
    1GR    C138  138   0.993   1.474   1.900  0.0000  0.0000  0.0000
    1GR    C139  139   1.064   1.596   1.900  0.0000  0.0000  0.0000
    1GR    C140  140   1.205   1.596   1.900  0.0000  0.0000  0.0000
    1GR    C141  141   0.851   1.719   1.900  0.0000  0.0000  0.0000
    1GR    C142  142   0.993   1.719   1.900  0.0000  0.0000  0.0000
    1GR    C143  143   1.064   1.842   1.900  0.0000  0.0000  0.0000
    1GR    C144  144   1.205   1.842   1.900  0.0000  0.0000  0.0000
    1GR    C145  145   0.851   1.965   1.900  0.0000  0.0000  0.0000
    1GR    C146  146   0.993   1.965   1.900  0.0000  0.0000  0.0000
    1GR    C147  147   1.064   2.088   1.900  0.0000  0.0000  0.0000
    1GR    C148  148   1.205   2.088   1.900  0.0000  0.0000  0.0000
    1GR    C149  149   0.851   2.210   1.900  0.0000  0.0000  0.0000
    1GR    C150  150   0.993   2.210   1.900  0.0000  0.0000  0.0000
    1GR    C151  151   1.064   2.333   1.900  0.0000  0.0000  0.0000
    1GR    C152  152   1.205   2.333   1.900  0.0000  0.0000  0.0000
    1GR    C153  153   0.851   2.456   1.900  0.0000  0.0000  0.0000
    1GR    C154  154   0.993   2.456   1.900  0.0000  0.0000  0.0000
    1GR    C155  155   1.064   2.579   1.900  0.0000  0.0000  0.0000
    1GR    C156  156   1.205   2.579   1.900  0.0000  0.0000  0.0000
    1GR    C157  157   0.851   2.702   1.900  0.0000  0.0000  0.0000
    1GR    C158  158   0.993   2.702   1.900  0.0000  0.0000  0.0000
    1GR    C159  159   1.064   2.824   1.900  0.0000  0.0000  0.0000
    1GR    C160  160   1.205   2.824   1.900  0.0000  0.0000  0.0000
    1GR    C161  161   0.851   2.947   1.900  0.0000  0.0000  0.0000
    1GR    C162  162   0.993   2.947   1.900  0.0000  0.0000  0.0000
    1GR    C163  163   1.064   3.070   1.900  0.0000  0.0000  0.0000
    1GR    C164  164   1.205   3.070   1.900  0.0000  0.0000  0.0000
    1GR    C165  165   0.851   3.193   1.900  0.0000  0.0000  0.0000
    1GR    C166  166   0.993   3.193   1.900  0.0000  0.0000  0.0000
    1GR    C167  167   1.064   3.316   1.900  0.0000  0.0000  0.0000
    1GR    C168  168   1.205   3.316   1.900  0.0000  0.0000  0.0000
    1GR    C169  169   1.276   0.000   1.900  0.0000  0.0000  0.0000
    1GR    C170  170   1.418   0.000   1.900  0.0000  0.0000  0.0000
    1GR    C171  171   1.489   0.123   1.900  0.0000  0.0000  0.0000
    1GR    C172  172   1.631   0.123   1.900  0.0000  0.0000  0.0000
    1GR    C173  173   1.276   0.246   1.900  0.0000  0.0000  0.0000
    1GR    C174  174   1.418   0.246   1.900  0.0000  0.0000  0.0000
    1GR    C175  175   1.489   0.368   1.900  0.0000  0.0000  0.0000
    1GR    C176  176   1.631   0.368   1.900  0.0000  0.0000  0.0000
    1GR    C177  177   1.276   0.491   1.900  0.0000  0.0000  0.0000
    1GR    C178  178   1.418   0.491   1.900  0.0000  0.0000  0.0000
    1GR    C179  179   1.489   0.614   1.900  0.0000  0.0000  0.0000
    1GR    C180  180   1.631   0.614   1.900  0.0000  0.0000  0.0000
    1GR    C181  181   1.276   0.737   1.900  0.0000  0.0000  0.0000
    1GR    C182  182   1.418   0.737   1.900  0.0000  0.0000  0.0000
    1GR    C183  183   1.489   0.860   1.900  0.0000  0.0000  0.0000
    1GR    C184  184   1.631   0.860   1.900  0.0000  0.0000  0.0000
    1GR    C185  185   1.276   0.982   1.900  0.0000  0.0000  0.0000
    1GR    C186  186   1.418   0.982   1.900  0.0000  0.0000  0.0000
    1GR    C187  187   1.489   1.105   1.900  0.0000  0.0000  0.0000
    1GR    C188  188   1.631   1.105   1.900  0.0000  0.0000  0.0000
    1GR    C189  189   1.276   1.228   1.900  0.0000  0.0000  0.0000
    1GR    C190  190   1.418   1.228   1.900  0.0000  0.0000  0.0000
    1GR    C191  191   1.489   1.351   1.900  0.0000  0.0000  0.0000
    1GR    C192  192   1.631   1.351   1.900  0.0000  0.0000  0.0000
    1GR    C193  193   1.276   1.474   1.900  0.0000  0.0000  0.0000
    1GR    C194  194   1.418   1.474   1.900  0.0000  0.0000  0.0000
    1GR    C195  195   1.489   1.596   1.900  0.0000  0.0000  0.0000
    1GR    C196  196   1.631   1.596   1.900  0.0000  0.0000  0.0000
    1GR    C197  197   1.276   1.719   1.900  0.0000  0.0000  0.0000
    1GR    C198  198   1.418   1.719   1.900  0.0000  0.0000  0.0000
    1GR    C199  199   1.489   1.842   1.900  0.0000  0.0000  0.0000
    1GR    C200  200   1.631   1.842   1.900  0.0000  0.0000  0.0000
    1GR    C201  201   1.276   1.965   1.900  0.0000  0.0000  0.0000
    1GR    C202  202   1.418   1.965   1.900  0.0000  0.0000  0.0000
    1GR    C203  203   1.489   2.088   1.900  0.0000  0.0000  0.0000
    1GR    C204  204   1.631   2.088   1.900  0.0000  0.0000  0.0000
    1GR    C205  205   1.276   2.210   1.900  0.0000  0.0000  0.0000
    1GR    C206  206   1.418   2.210   1.900  0.0000  0.0000  0.0000
    1GR    C207  207   1.489   2.333   1.900  0.0000  0.0000  0.0000
    1GR    C208  208   1.631   2.333   1.900  0.0000  0.0000  0.0000
    1GR    C209  209   1.276   2.456   1.900  0.0000  0.0000  0.0000
    1GR    C210  210   1.418   2.456   1.900  0.0000  0.0000  0.0000
    1GR    C211  211   1.489   2.579   1.900  0.0000  0.0000  0.0000
    1GR    C212  212   1.631   2.579   1.900  0.0000  0.0000  0.0000
    1GR    C213  213   1.276   2.702   1.900  0.0000  0.0000  0.0000
    1GR    C214  214   1.418   2.702   1.900  0.0000  0.0000  0.0000
    1GR    C215  215   1.489   2.824   1.900  0.0000  0.0000  0.0000
    1GR    C216  216   1.631   2.824   1.900  0.0000  0.0000  0.0000
    1GR    C217  217   1.276   2.947   1.900  0.0000  0.0000  0.0000
    1GR    C218  218   1.418   2.947   1.900  0.0000  0.0000  0.0000
    1GR    C219  219   1.489   3.070   1.900  0.0000  0.0000  0.0000
    1GR    C220  220   1.631   3.070   1.900  0.0000  0.0000  0.0000
    1GR    C221  221   1.276   3.193   1.900  0.0000  0.0000  0.0000
    1GR    C222  222   1.418   3.193   1.900  0.0000  0.0000  0.0000
    1GR    C223  223   1.489   3.316   1.900  0.0000  0.0000  0.0000
    1GR    C224  224   1.631   3.316   1.900  0.0000  0.0000  0.0000
    1GR    C225  225   1.702   0.000   1.900  0.0000  0.0000  0.0000
    1GR    C226  226   1.843   0.000   1.900  0.0000  0.0000  0.0000
    1GR    C227  227   1.914   0.123   1.900  0.0000  0.0000  0.0000
    1GR    C228  228   2.056   0.123   1.900  0.0000  0.0000  0.0000
    1GR    C229  229   1.702   0.246   1.900  0.0000  0.0000  0.0000
    1GR    C230  230   1.843   0.246   1.900  0.0000  0.0000  0.0000
    1GR    C231  231   1.914   0.368   1.900  0.0000  0.0000  0.0000
    1GR    C232  232   2.056   0.368   1.900  0.0000  0.0000  0.0000
    1GR    C233  233   1.702   0.491   1.900  0.0000  0.0000  0.0000
    1GR    C234  234   1.843   0.491   1.900  0.0000  0.0000  0.0000
    1GR    C235  235   1.914   0.614   1.900  0.0000  0.0000  0.0000
    1GR    C236  236   2.056   0.614   1.900  0.0000  0.0000  0.0000
    1GR    C237  237   1.702   0.737   1.900  0.0000  0.0000  0.0000
    1GR    C238  238   1.843   0.737   1.900  0.0000  0.0000  0.0000
    1GR    C239  239   1.914   0.860   1.900  0.0000  0.0000  0.0000
    1GR    C240  240   2.056   0.860   1.900  0.0000  0.0000  0.0000
    1GR    C241  241   1.702   0.982   1.900  0.0000  0.0000  0.0000
    1GR    C242  242   1.843   0.982   1.900  0.0000  0.0000  0.0000
    1GR    C243  243   1.914   1.105   1.900  0.0000  0.0000  0.0000
    1GR    C244  244   2.056   1.105   1.900  0.0000  0.0000  0.0000
    1GR    C245  245   1.702   1.228   1.900  0.0000  0.0000  0.0000
    1GR    C246  246   1.843   1.228   1.900  0.0000  0.0000  0.0000
    1GR    C247  247   1.914   1.351   1.900  0.0000  0.0000  0.0000
    1GR    C248  248   2.056   1.351   1.900  0.0000  0.0000  0.0000
    1GR    C249  249   1.702   1.474   1.900  0.0000  0.0000  0.0000
    1GR    C250  250   1.843   1.474   1.900  0.0000  0.0000  0.0000
    1GR    C251  251   1.914   1.596   1.900  0.0000  0.0000  0.0000
    1GR    C252  252   2.056   1.596   1.900  0.0000  0.0000  0.0000
    1GR    C253  253   1.702   1.719   1.900  0.0000  0.0000  0.0000
    1GR    C254  254   1.843   1.719   1.900  0.0000  0.0000  0.0000
    1GR    C255  255   1.914   1.842   1.900  0.0000  0.0000  0.0000
    1GR    C256  256   2.056   1.842   1.900  0.0000  0.0000  0.0000
    1GR    C257  257   1.702   1.965   1.900  0.0000  0.0000  0.0000
    1GR    C258  258   1.843   1.965   1.900  0.0000  0.0000  0.0000
    1GR    C259  259   1.914   2.088   1.900  0.0000  0.0000  0.0000
    1GR    C260  260   2.056   2.088   1.900  0.0000  0.0000  0.0000
    1GR    C261  261   1.702   2.210   1.900  0.0000  0.0000  0.0000
    1GR    C262  262   1.843   2.210   1.900  0.0000  0.0000  0.0000
    1GR    C263  263   1.914   2.333   1.900  0.0000  0.0000  0.0000
    1GR    C264  264   2.056   2.333   1.900  0.0000  0.0000  0.0000
    1GR    C265  265   1.702   2.456   1.900  0.0000  0.0000  0.0000
    1GR    C266  266   1.843   2.456   1.900  0.0000  0.0000  0.0000
    1GR    C267  267   1.914   2.579   1.900  0.0000  0.0000  0.0000
    1GR    C268  268   2.056   2.579   1.900  0.0000  0.0000  0.0000
    1GR    C269  269   1.702   2.702   1.900  0.0000  0.0000  0.0000
    1GR    C270  270   1.843   2.702   1.900  0.0000  0.0000  0.0000
    1GR    C271  271   1.914   2.824   1.900  0.0000  0.0000  0.0000
    1GR    C272  272   2.056   2.824   1.900  0.0000  0.0000  0.0000
    1GR    C273  273   1.702   2.947   1.900  0.0000  0.0000  0.0000
    1GR    C274  274   1.843   2.947   1.900  0.0000  0.0000  0.0000
    1GR    C275  275   1.914   3.070   1.900  0.0000  0.0000  0.0000
    1GR    C276  276   2.056   3.070   1.900  0.0000  0.0000  0.0000
    1GR    C277  277   1.702   3.193   1.900  0.0000  0.0000  0.0000
    1GR    C278  278   1.843   3.193   1.900  0.0000  0.0000  0.0000
    1GR    C279  279   1.914   3.316   1.900  0.0000  0.0000  0.0000
    1GR    C280  280   2.056   3.316   1.900  0.0000  0.0000  0.0000
    1GR    C281  281   2.127   0.000   1.900  0.0000  0.0000  0.0000
    1GR    C282  282   2.269   0.000   1.900  0.0000  0.0000  0.0000
    1GR    C283  283   2.340   0.123   1.900  0.0000  0.0000  0.0000
    1GR    C284  284   2.481   0.123   1.900  0.0000  0.0000  0.0000
    1GR    C285  285   2.127   0.246   1.900  0.0000  0.0000  0.0000
    1GR    C286  286   2.269   0.246   1.900  0.0000  0.0000  0.0000
    1GR    C287  287   2.340   0.368   1.900  0.0000  0.0000  0.0000
    1GR    C288  288   2.481   0.368   1.900  0.0000  0.0000  0.0000
    1GR    C289  289   2.127   0.491   1.900  0.0000  0.0000  0.0000
    1GR    C290  290   2.269   0.491   1.900  0.0000  0.0000  0.0000
    1GR    C291  291   2.340   0.614   1.900  0.0000  0.0000  0.0000
    1GR    C292  292   2.481   0.614   1.900  0.0000  0.0000  0.0000
    1GR    C293  293   2.127   0.737   1.900  0.0000  0.0000  0.0000
    1GR    C294  294   2.269   0.737   1.900  0.0000  0.0000  0.0000
    1GR    C295  295   2.340   0.860   1.900  0.0000  0.0000  0.0000
    1GR    C296  296   2.481   0.860   1.900  0.0000  0.0000  0.0000
    1GR    C297  297   2.127   0.982   1.900  0.0000  0.0000  0.0000
    1GR    C298  298   2.269   0.982   1.900  0.0000  0.0000  0.0000
    1GR    C299  299   2.340   1.105   1.900  0.0000  0.0000  0.0000
    1GR    C300  300   2.481   1.105   1.900  0.0000  0.0000  0.0000
    1GR    C301  301   2.127   1.228   1.900  0.0000  0.0000  0.0000
    1GR    C302  302   2.269   1.228   1.900  0.0000  0.0000  0.0000
    1GR    C303  303   2.340   1.351   1.900  0.0000  0.0000  0.0000
    1GR    C304  304   2.481   1.351   1.900  0.0000  0.0000  0.0000
    1GR    C305  305   2.127   1.474   1.900  0.0000  0.0000  0.0000
    1GR    C306  306   2.269   1.474   1.900  0.0000  0.0000  0.0000
    1GR    C307  307   2.340   1.596   1.900  0.0000  0.0000  0.0000
    1GR    C308  308   2.481   1.596   1.900  0.0000  0.0000  0.0000
    1GR    C309  309   2.127   1.719   1.900  0.0000  0.0000  0.0000
    1GR    C310  310   2.269   1.719   1.900  0.0000  0.0000  0.0000
    1GR    C311  311   2.340   1.842   1.900  0.0000  0.0000  0.0000
    1GR    C312  312   2.481   1.842   1.900  0.0000  0.0000  0.0000
    1GR    C313  313   2.127   1.965   1.900  0.0000  0.0000  0.0000
    1GR    C314  314   2.269   1.965   1.900  0.0000  0.0000  0.0000
    1GR    C315  315   2.340   2.088   1.900  0.0000  0.0000  0.0000
    1GR    C316  316   2.481   2.088   1.900  0.0000  0.0000  0.0000
    1GR    C317  317   2.127   2.210   1.900  0.0000  0.0000  0.0000
    1GR    C318  318   2.269   2.210   1.900  0.0000  0.0000  0.0000
    1GR    C319  319   2.340   2.333   1.900  0.0000  0.0000  0.0000
    1GR    C320  320   2.481   2.333   1.900  0.0000  0.0000  0.0000
    1GR    C321  321   2.127   2.456   1.900  0.0000  0.0000  0.0000
    1GR    C322  322   2.269   2.456   1.900  0.0000  0.0000  0.0000
    1GR    C323  323   2.340   2.579   1.900  0.0000  0.0000  0.0000
    1GR    C324  324   2.481   2.579   1.900  0.0000  0.0000  0.0000
    1GR    C325  325   2.127   2.702   1.900  0.0000  0.0000  0.0000
    1GR    C326  326   2.269   2.702   1.900  0.0000  0.0000  0.0000
    1GR    C327  327   2.340   2.824   1.900  0.0000  0.0000  0.0000
    1GR    C328  328   2.481   2.824   1.900  0.0000  0.0000  0.0000
    1GR    C329  329   2.127   2.947   1.900  0.0000  0.0000  0.0000
    1GR    C330  330   2.269   2.947   1.900  0.0000  0.0000  0.0000
    1GR    C331  331   2.340   3.070   1.900  0.0000  0.0000  0.0000
    1GR    C332  332   2.481   3.070   1.900  0.0000  0.0000  0.0000
    1GR    C333  333   2.127   3.193   1.900  0.0000  0.0000  0.0000
    1GR    C334  334   2.269   3.193   1.900  0.0000  0.0000  0.0000
    1GR    C335  335   2.340   3.316   1.900  0.0000  0.0000  0.0000
    1GR    C336  336   2.481   3.316   1.900  0.0000  0.0000  0.0000
    1GR    C337  337   2.552   0.000   1.900  0.0000  0.0000  0.0000
    1GR    C338  338   2.694   0.000   1.900  0.0000  0.0000  0.0000
    1GR    C339  339   2.765   0.123   1.900  0.0000  0.0000  0.0000
    1GR    C340  340   2.907   0.123   1.900  0.0000  0.0000  0.0000
    1GR    C341  341   2.552   0.246   1.900  0.0000  0.0000  0.0000
    1GR    C342  342   2.694   0.246   1.900  0.0000  0.0000  0.0000
    1GR    C343  343   2.765   0.368   1.900  0.0000  0.0000  0.0000
    1GR    C344  344   2.907   0.368   1.900  0.0000  0.0000  0.0000
    1GR    C345  345   2.552   0.491   1.900  0.0000  0.0000  0.0000
    1GR    C346  346   2.694   0.491   1.900  0.0000  0.0000  0.0000
    1GR    C347  347   2.765   0.614   1.900  0.0000  0.0000  0.0000
    1GR    C348  348   2.907   0.614   1.900  0.0000  0.0000  0.0000
    1GR    C349  349   2.552   0.737   1.900  0.0000  0.0000  0.0000
    1GR    C350  350   2.694   0.737   1.900  0.0000  0.0000  0.0000
    1GR    C351  351   2.765   0.860   1.900  0.0000  0.0000  0.0000
    1GR    C352  352   2.907   0.860   1.900  0.0000  0.0000  0.0000
    1GR    C353  353   2.552   0.982   1.900  0.0000  0.0000  0.0000
    1GR    C354  354   2.694   0.982   1.900  0.0000  0.0000  0.0000
    1GR    C355  355   2.765   1.105   1.900  0.0000  0.0000  0.0000
    1GR    C356  356   2.907   1.105   1.900  0.0000  0.0000  0.0000
    1GR    C357  357   2.552   1.228   1.900  0.0000  0.0000  0.0000
    1GR    C358  358   2.694   1.228   1.900  0.0000  0.0000  0.0000
    1GR    C359  359   2.765   1.351   1.900  0.0000  0.0000  0.0000
    1GR    C360  360   2.907   1.351   1.900  0.0000  0.0000  0.0000
    1GR    C361  361   2.552   1.474   1.900  0.0000  0.0000  0.0000
    1GR    C362  362   2.694   1.474   1.900  0.0000  0.0000  0.0000
    1GR    C363  363   2.765   1.596   1.900  0.0000  0.0000  0.0000
    1GR    C364  364   2.907   1.596   1.900  0.0000  0.0000  0.0000
    1GR    C365  365   2.552   1.719   1.900  0.0000  0.0000  0.0000
    1GR    C366  366   2.694   1.719   1.900  0.0000  0.0000  0.0000
    1GR    C367  367   2.765   1.842   1.900  0.0000  0.0000  0.0000
    1GR    C368  368   2.907   1.842   1.900  0.0000  0.0000  0.0000
    1GR    C369  369   2.552   1.965   1.900  0.0000  0.0000  0.0000
    1GR    C370  370   2.694   1.965   1.900  0.0000  0.0000  0.0000
    1GR    C371  371   2.765   2.088   1.900  0.0000  0.0000  0.0000
    1GR    C372  372   2.907   2.088   1.900  0.0000  0.0000  0.0000
    1GR    C373  373   2.552   2.210   1.900  0.0000  0.0000  0.0000
    1GR    C374  374   2.694   2.210   1.900  0.0000  0.0000  0.0000
    1GR    C375  375   2.765   2.333   1.900  0.0000  0.0000  0.0000
    1GR    C376  376   2.907   2.333   1.900  0.0000  0.0000  0.0000
    1GR    C377  377   2.552   2.456   1.900  0.0000  0.0000  0.0000
    1GR    C378  378   2.694   2.456   1.900  0.0000  0.0000  0.0000
    1GR    C379  379   2.765   2.579   1.900  0.0000  0.0000  0.0000
    1GR    C380  380   2.907   2.579   1.900  0.0000  0.0000  0.0000
    1GR    C381  381   2.552   2.702   1.900  0.0000  0.0000  0.0000
    1GR    C382  382   2.694   2.702   1.900  0.0000  0.0000  0.0000
    1GR    C383  383   2.765   2.824   1.900  0.0000  0.0000  0.0000
    1GR    C384  384   2.907   2.824   1.900  0.0000  0.0000  0.0000
    1GR    C385  385   2.552   2.947   1.900  0.0000  0.0000  0.0000
    1GR    C386  386   2.694   2.947   1.900  0.0000  0.0000  0.0000
    1GR    C387  387   2.765   3.070   1.900  0.0000  0.0000  0.0000
    1GR    C388  388   2.907   3.070   1.900  0.0000  0.0000  0.0000
    1GR    C389  389   2.552   3.193   1.900  0.0000  0.0000  0.0000
    1GR    C390  390   2.694   3.193   1.900  0.0000  0.0000  0.0000
    1GR    C391  391   2.765   3.316   1.900  0.0000  0.0000  0.0000
    1GR    C392  392   2.907   3.316   1.900  0.0000  0.0000  0.0000
    1GR    C393  393   2.978   0.000   1.900  0.0000  0.0000  0.0000
    1GR    C394  394   3.120   0.000   1.900  0.0000  0.0000  0.0000
    1GR    C395  395   3.191   0.123   1.900  0.0000  0.0000  0.0000
    1GR    C396  396   3.332   0.123   1.900  0.0000  0.0000  0.0000
    1GR    C397  397   2.978   0.246   1.900  0.0000  0.0000  0.0000
    1GR    C398  398   3.120   0.246   1.900  0.0000  0.0000  0.0000
    1GR    C399  399   3.191   0.368   1.900  0.0000  0.0000  0.0000
    1GR    C400  400   3.332   0.368   1.900  0.0000  0.0000  0.0000
    1GR    C401  401   2.978   0.491   1.900  0.0000  0.0000  0.0000
    1GR    C402  402   3.120   0.491   1.900  0.0000  0.0000  0.0000
    1GR    C403  403   3.191   0.614   1.900  0.0000  0.0000  0.0000
    1GR    C404  404   3.332   0.614   1.900  0.0000  0.0000  0.0000
    1GR    C405  405   2.978   0.737   1.900  0.0000  0.0000  0.0000
    1GR    C406  406   3.120   0.737   1.900  0.0000  0.0000  0.0000
    1GR    C407  407   3.191   0.860   1.900  0.0000  0.0000  0.0000
    1GR    C408  408   3.332   0.860   1.900  0.0000  0.0000  0.0000
    1GR    C409  409   2.978   0.982   1.900  0.0000  0.0000  0.0000
    1GR    C410  410   3.120   0.982   1.900  0.0000  0.0000  0.0000
    1GR    C411  411   3.191   1.105   1.900  0.0000  0.0000  0.0000
    1GR    C412  412   3.332   1.105   1.900  0.0000  0.0000  0.0000
    1GR    C413  413   2.978   1.228   1.900  0.0000  0.0000  0.0000
    1GR    C414  414   3.120   1.228   1.900  0.0000  0.0000  0.0000
    1GR    C415  415   3.191   1.351   1.900  0.0000  0.0000  0.0000
    1GR    C416  416   3.332   1.351   1.900  0.0000  0.0000  0.0000
    1GR    C417  417   2.978   1.474   1.900  0.0000  0.0000  0.0000
    1GR    C418  418   3.120   1.474   1.900  0.0000  0.0000  0.0000
    1GR    C419  419   3.191   1.596   1.900  0.0000  0.0000  0.0000
    1GR    C420  420   3.332   1.596   1.900  0.0000  0.0000  0.0000
    1GR    C421  421   2.978   1.719   1.900  0.0000  0.0000  0.0000
    1GR    C422  422   3.120   1.719   1.900  0.0000  0.0000  0.0000
    1GR    C423  423   3.191   1.842   1.900  0.0000  0.0000  0.0000
    1GR    C424  424   3.332   1.842   1.900  0.0000  0.0000  0.0000
    1GR    C425  425   2.978   1.965   1.900  0.0000  0.0000  0.0000
    1GR    C426  426   3.120   1.965   1.900  0.0000  0.0000  0.0000
    1GR    C427  427   3.191   2.088   1.900  0.0000  0.0000  0.0000
    1GR    C428  428   3.332   2.088   1.900  0.0000  0.0000  0.0000
    1GR    C429  429   2.978   2.210   1.900  0.0000  0.0000  0.0000
    1GR    C430  430   3.120   2.210   1.900  0.0000  0.0000  0.0000
    1GR    C431  431   3.191   2.333   1.900  0.0000  0.0000  0.0000
    1GR    C432  432   3.332   2.333   1.900  0.0000  0.0000  0.0000
    1GR    C433  433   2.978   2.456   1.900  0.0000  0.0000  0.0000
    1GR    C434  434   3.120   2.456   1.900  0.0000  0.0000  0.0000
    1GR    C435  435   3.191   2.579   1.900  0.0000  0.0000  0.0000
    1GR    C436  436   3.332   2.579   1.900  0.0000  0.0000  0.0000
    1GR    C437  437   2.978   2.702   1.900  0.0000  0.0000  0.0000
    1GR    C438  438   3.120   2.702   1.900  0.0000  0.0000  0.0000
    1GR    C439  439   3.191   2.824   1.900  0.0000  0.0000  0.0000
    1GR    C440  440   3.332   2.824   1.900  0.0000  0.0000  0.0000
    1GR    C441  441   2.978   2.947   1.900  0.0000  0.0000  0.0000
    1GR    C442  442   3.120   2.947   1.900  0.0000  0.0000  0.0000
    1GR    C443  443   3.191   3.070   1.900  0.0000  0.0000  0.0000
    1GR    C444  444   3.332   3.070   1.900  0.0000  0.0000  0.0000
    1GR    C445  445   2.978   3.193   1.900  0.0000  0.0000  0.0000
    1GR    C446  446   3.120   3.193   1.900  0.0000  0.0000  0.0000
    1GR    C447  447   3.191   3.316   1.900  0.0000  0.0000  0.0000
    1GR    C448  448   3.332   3.316   1.900  0.0000  0.0000  0.0000
    2PMMA   CX1  449   0.196   2.259   2.242 -0.6861  0.3907 -0.4200
    2PMMA   CA2  450   0.175   2.200   2.387 -0.5953 -0.2167  0.6301
    2PMMA   CX3  451   0.031   2.255   2.414  0.3632 -0.1140  0.0026
    2PMMA    C4  452   0.173   2.047   2.388  0.4207  0.5031 -0.4873
    2PMMA    O5  453   0.247   1.983   2.456 -0.3835 -0.8611  0.2463
    2PMMA   OS6  454   0.080   1.988   2.315  0.0158  0.2047  0.2780
    2PMMA   CE7  455   0.068   1.841   2.307  0.7292  0.5079 -0.6888
    2PMMA   CX8  456   0.294   2.265   2.469 -0.6445  0.3148  0.2880
    2PMMA   CA9  457   0.275   2.308   2.628  0.6169 -0.1257 -0.4996
    2PMMA  CX10  458   0.182   2.430   2.652 -0.4267  0.2751  0.2785
    2PMMA   C11  459   0.422   2.346   2.680 -0.5207 -0.2074  0.0552
    2PMMA   O12  460   0.464   2.462   2.677  0.3862 -0.1652  0.3120
    2PMMA  OS13  461   0.503   2.238   2.703  0.2339 -0.2109  0.2204
    2PMMA  CE14  462   0.646   2.252   2.731 -0.5025 -0.2352 -0.1981
    2PMMA  CX15  463   0.220   2.186   2.716  0.2855  0.0576 -0.0814
    2PMMA  CA16  464   0.195   2.190   2.871  0.4240  0.2466 -0.0103
    2PMMA  CX17  465   0.188   2.047   2.927 -0.2326 -0.3631  0.0493
    2PMMA   C18  466   0.312   2.261   2.955  0.2734 -0.0557 -0.6642
    2PMMA   O19  467   0.399   2.200   3.023 -0.2182  0.0112 -0.3279
    2PMMA  OS20  468   0.310   2.399   2.950 -0.0338  0.4170 -0.0502
    2PMMA  CE21  469   0.417   2.473   3.006  0.2450  0.2338 -0.0487
    2PMMA  CX22  470   0.061   2.264   2.905  0.3484 -0.0664  0.6930
    2PMMA  CA23  471  -0.019   2.263   3.041  0.7454 -0.1703  0.5116
    2PMMA  CX24  472   0.065   2.326   3.157  0.1668  0.8399  0.2598
    2PMMA   C25  473  -0.084   2.127   3.069 -0.0491 -0.7327 -0.2919
    2PMMA   O26  474  -0.128   2.053   2.980  0.4852  0.1605 -0.4299
    2PMMA  OS27  475  -0.081   2.092   3.196  0.3845  0.0133 -0.0709
    2PMMA  CE28  476  -0.131   1.964   3.236 -0.1308  0.1427 -0.4777
    2PMMA  CX29  477  -0.142   2.359   3.028 -0.0031 -0.5946 -0.0427
    2PMMA  HC30  478   0.124   2.212   2.175  0.6974 -3.3017  0.5339
    2PMMA  HC31  479   0.190   2.368   2.238  2.1705  0.6579  1.0393
    2PMMA  HC32  480   0.296   2.231   2.208 -0.5149  0.2965  0.1552
    2PMMA  HC33  481  -0.004   2.212   2.508 -1.2306 -1.2467 -1.0893
    2PMMA  HC34  482  -0.046   2.224   2.343 -1.1847  1.2010  1.0906
    2PMMA  HC35  483   0.028   2.362   2.434 -1.8258  0.2326 -1.9449
    2PMMA  H136  484  -0.018   1.827   2.242 -0.0225  0.4872  0.2963
    2PMMA  H137  485   0.043   1.798   2.404 -1.0668  1.9289 -0.4836
    2PMMA  H138  486   0.159   1.810   2.255  1.2293  1.5388 -0.4444
    2PMMA  HC39  487   0.380   2.198   2.472 -1.1333 -0.2122  4.1977
    2PMMA  HC40  488   0.328   2.357   2.420  1.5975 -0.8551 -0.4223
    2PMMA  HC41  489   0.218   2.487   2.739  0.0203  2.6571 -1.4223
    2PMMA  HC42  490   0.195   2.506   2.575  3.5853  0.3932  0.9780
    2PMMA  HC43  491   0.073   2.427   2.650 -0.3812 -0.5187 -1.9166
    2PMMA  H144  492   0.654   2.298   2.830  1.7737 -1.1256  0.0606
    2PMMA  H145  493   0.687   2.324   2.660 -2.0062 -2.8516 -3.8954
    2PMMA  H146  494   0.703   2.160   2.722 -1.8609 -1.0566 -0.5123
    2PMMA  HC47  495   0.128   2.150   2.668  0.4416 -1.0256  0.4183
    2PMMA  HC48  496   0.283   2.100   2.690  0.8778  0.8009 -1.1453
    2PMMA  HC49  497   0.168   2.053   3.034 -0.9683 -1.1142 -0.0359
    2PMMA  HC50  498   0.284   1.993   2.932 -1.3127 -2.5487 -1.6253
    2PMMA  HC51  499   0.115   1.989   2.869  0.5108 -1.1120 -0.1560
    2PMMA  H152  500   0.407   2.471   3.114 -0.4915  1.5842 -0.0750
    2PMMA  H153  501   0.418   2.577   2.970  1.6654 -0.3087 -1.6518
    2PMMA  H154  502   0.511   2.428   2.973 -0.0471 -0.2222 -0.2559
    2PMMA  HC55  503   0.085   2.369   2.885  1.8423 -0.9958 -2.9097
    2PMMA  HC56  504  -0.009   2.249   2.822  0.7270  0.8410  0.1877
    2PMMA  HC57  505   0.151   2.261   3.179  0.2003  0.7897 -0.0225
    2PMMA  HC58  506   0.102   2.427   3.134  1.9077  0.6294  1.9685
    2PMMA  HC59  507  -0.003   2.335   3.242 -0.8947 -1.8964 -0.2561
    2PMMA  H160  508  -0.163   1.962   3.341 -1.2782 -2.6213 -0.8468
    2PMMA  H161  509  -0.047   1.895   3.240 -0.0949  0.0415 -2.7676
    2PMMA  H162  510  -0.203   1.909   3.175 -1.2075  1.9789 -0.8988
    2PMMA  HC63  511  -0.223   2.314   2.970  0.7158 -0.8481 -0.8531
    2PMMA  HC64  512  -0.176   2.381   3.130  2.8618  0.0546  0.8319
    2PMMA  HC65  513  -0.105   2.447   2.975 -2.8696 -0.2561 -1.5869
    3HFI     O1  514   2.436   0.661   0.568  0.2636 -0.3703 -0.7378
    3HFI     C1  515   2.406   0.666   0.422 -0.7528  0.3944  0.2861
    3HFI     C2  516   2.269   0.604   0.377  0.2201  0.0038  0.2644
    3HFI     F1  517   2.164   0.658   0.438 -0.0379 -0.0955 -0.1446
    3HFI     F2  518   2.262   0.474   0.403  0.3149 -0.3163  0.2367
    3HFI     F3  519   2.243   0.620   0.245 -0.0431  0.2941  0.5451
    3HFI     C3  520   2.523   0.601   0.349  0.1089  0.6523 -0.5935
    3HFI     F4  521   2.639   0.640   0.406  0.3328 -0.3388  0.3232
    3HFI     F5  522   2.520   0.626   0.216  0.1328 -0.6392 -0.0391
    3HFI     F6  523   2.516   0.469   0.374 -0.0433  0.0790 -0.2038
    3HFI     H1  524   2.393   0.582   0.605  1.6210 -0.4719  0.6517
    3HFI     H2  525   2.414   0.771   0.391  1.0824  0.1768 -0.0423
    4HFI     O1  526   2.402   1.869   2.739  0.0689 -0.4865  0.7882
    4HFI     C1  527   2.429   2.016   2.770  0.4343 -0.0168 -0.1037
    4HFI     C2  528   2.574   2.066   2.755  0.5912 -0.4467  0.9967
    4HFI     F1  529   2.629   2.050   2.633  0.2444 -0.3705 -0.3886
    4HFI     F2  530   2.661   2.003   2.836  0.2515 -0.2921 -0.4859
    4HFI     F3  531   2.590   2.195   2.788 -0.0282 -0.3944 -0.2424
    4HFI     C3  532   2.378   2.034   2.909  0.1570  0.7435  0.6742
    4HFI     F4  533   2.265   1.962   2.929 -0.0949 -0.1810  0.5443
    4HFI     F5  534   2.348   2.165   2.933 -0.3584 -0.3470 -0.5333
    4HFI     F6  535   2.461   1.993   3.003 -0.3706 -0.1261 -0.1238
    4HFI     H1  536   2.381   1.819   2.820  1.7035 -1.2933  0.7357
    4HFI     H2  537   2.369   2.080   2.704 -0.3054  0.5425  1.1029
    5HFI     O1  538   1.591   1.363   3.710  0.8693  0.0132  0.5187
    5HFI     C1  539   1.492   1.469   3.727 -0.2427  0.2316 -0.4922
    5HFI     C2  540   1.407   1.453   3.855 -0.9680  0.2399  0.3814
    5HFI     F1  541   1.355   1.329   3.866 -0.0729 -0.1313  0.2117
    5HFI     F2  542   1.303   1.546   3.844 -0.1026  0.5065 -0.1096
    5HFI     F3  543   1.478   1.481   3.962  0.5097  0.1577  0.3099
    5HFI     C3  544   1.409   1.482   3.600 -0.0186  0.2570 -0.0844
    5HFI     F4  545   1.295   1.405   3.595  0.0447  0.3391 -0.1177
    5HFI     F5  546   1.484   1.446   3.490  0.4598  0.1110  0.2857
    5HFI     F6  547   1.373   1.615   3.578  0.4890 -0.1379 -0.5703
    5HFI     H1  548   1.555   1.314   3.635  0.6922  3.1054 -1.4966
    5HFI     H2  549   1.547   1.563   3.743  0.5785 -0.2698 -0.2959
    6HFI     O1  550   3.300   3.015   1.389 -0.2145 -0.2334  0.0582
    6HFI     C1  551   3.237   2.885   1.393  0.0796 -0.1101  0.4369
    6HFI     C2  552   3.214   2.838   1.246  0.1412 -0.0027 -0.6034
    6HFI     F1  553   3.321   2.817   1.177 -0.0618 -0.2522 -0.5480
    6HFI     F2  554   3.142   2.925   1.175  0.4932  0.0041 -0.6351
    6HFI     F3  555   3.140   2.720   1.254  0.1317  0.4237  0.1781
    6HFI     C3  556   3.108   2.892   1.479 -0.4864 -0.0745 -0.0101
    6HFI     F4  557   3.006   2.954   1.411  0.0527 -0.3638 -0.1951
    6HFI     F5  558   3.141   2.964   1.582  0.2168  0.6035 -0.1537
    6HFI     F6  559   3.065   2.771   1.522  0.2040  0.5299  0.4060
    6HFI     H1  560   3.397   3.008   1.385 -0.0427  1.2611  1.5869
    6HFI     H2  561   3.306   2.809   1.432  2.3188  1.1544 -0.9227
    7HFI     O1  562   1.726   2.046   3.115 -0.5714  0.1996 -0.2372
    7HFI     C1  563   1.784   1.969   3.226  0.2040 -0.6112  0.2315
    7HFI     C2  564   1.929   2.014   3.259 -0.3892  0.0271 -0.1879
    7HFI     F1  565   1.985   1.931   3.357  0.5445 -0.1628 -0.0911
    7HFI     F2  566   1.916   2.134   3.314 -0.5411  0.2180  0.1483
    7HFI     F3  567   2.013   2.018   3.146 -0.1624  0.3626  0.1324
    7HFI     C3  568   1.769   1.826   3.200 -0.5370  0.3903  0.7050
    7HFI     F4  569   1.771   1.746   3.309  0.5451  0.1062  0.0227
    7HFI     F5  570   1.865   1.777   3.112  0.1466 -0.6672 -0.6034
    7HFI     F6  571   1.648   1.807   3.144  0.1093 -0.7707  0.2098
    7HFI     H1  572   1.795   2.045   3.046 -1.2549 -1.1647 -0.9305
    7HFI     H2  573   1.727   1.984   3.318  0.9047 -2.0207  0.9083
    8HFI     O1  574   0.098   0.499   1.578  0.0890 -0.1031  0.2194
    8HFI     C1  575   0.154   0.441   1.453  0.6071 -0.5627 -0.2232
    8HFI     C2  576   0.095   0.302   1.428 -0.1307  0.9488  0.4568
    8HFI     F1  577  -0.036   0.288   1.448  0.5910 -0.3097  0.0500
    8HFI     F2  578   0.150   0.206   1.504 -0.0223  0.0959 -1.0996
    8HFI     F3  579   0.114   0.259   1.305  0.0367 -0.3787 -0.2487
    8HFI     C3  580   0.309   0.451   1.460 -0.1445  0.0341 -0.2638
    8HFI     F4  581   0.368   0.390   1.356  0.0613  0.0544 -0.0362
    8HFI     F5  582   0.371   0.392   1.568  0.5063  0.4027 -0.2385
    8HFI     F6  583   0.352   0.581   1.454  0.0505  0.7869 -0.3465
    8HFI     H1  584   0.013   0.541   1.557 -0.1108 -0.4946  0.2400
    8HFI     H2  585   0.121   0.503   1.369  3.0675 -1.8148 -2.1997
    9HFI     O1  586   0.243   1.344   1.441  0.4160  0.0580  0.8753
    9HFI     C1  587   0.247   1.464   1.516  0.4651 -0.0239 -0.0258
    9HFI     C2  588   0.109   1.533   1.531 -0.5296 -0.0549 -0.1383
    9HFI     F1  589   0.013   1.456   1.582  0.3241  0.0832 -0.2493
    9HFI     F2  590   0.071   1.580   1.404  0.6555 -0.3958  0.3519
    9HFI     F3  591   0.116   1.640   1.612  0.1219 -0.2235  0.7391
    9HFI     C3  592   0.362   1.559   1.463 -0.0241 -0.0041 -0.4994
    9HFI     F4  593   0.337   1.598   1.338 -0.3902 -0.3223  0.1690
    9HFI     F5  594   0.476   1.480   1.461 -0.6938  0.0643 -0.0231
    9HFI     F6  595   0.383   1.664   1.542  0.2735 -0.2009 -0.1748
    9HFI     H1  596   0.233   1.366   1.346  2.6930  0.7357  0.7404
    9HFI     H2  597   0.251   1.424   1.618 -0.1764 -1.9617 -0.7386
   10HFI     O1  598   1.858   3.231   0.088  0.3787  0.0041 -0.4989
   10HFI     C1  599   1.757   3.251  -0.003  0.6841 -0.0786  0.3219
   10HFI     C2  600   1.727   3.134  -0.093  0.6251 -0.0931 -0.6857
   10HFI     F1  601   1.837   3.089  -0.157  0.1831  0.2065 -0.5566
   10HFI     F2  602   1.646   3.164  -0.198  0.2147 -0.5611  0.5255
   10HFI     F3  603   1.663   3.033  -0.026 -0.2239  0.0826  0.6932
   10HFI     C3  604   1.786   3.377  -0.090 -0.4368  1.1238 -0.2824
   10HFI     F4  605   1.794   3.489  -0.019 -0.0452  0.6808  0.1035
   10HFI     F5  606   1.698   3.405  -0.184 -0.1237  0.0696  0.2787
   10HFI     F6  607   1.908   3.365  -0.150  0.2658  0.1075 -0.0471
   10HFI     H1  608   1.940   3.239   0.036  1.0622  0.7502  0.6538
   10HFI     H2  609   1.665   3.259   0.056  0.4979 -0.0799  0.0315
   11HFI     O1  610   2.375   3.035   1.036 -0.1514  0.5850  0.6084
   11HFI     C1  611   2.378   3.132   0.931  0.6079  0.1833 -0.3209
   11HFI     C2  612   2.388   3.274   0.990 -0.3757 -0.0818 -0.0130
   11HFI     F1  613   2.481   3.271   1.082 -0.3724  0.5674  0.0775
   11HFI     F2  614   2.283   3.328   1.053  0.4068 -0.3907  0.1405
   11HFI     F3  615   2.427   3.355   0.896 -0.1238  0.2110 -0.1607
   11HFI     C3  616   2.263   3.111   0.836 -0.4518  0.4542 -0.4285
   11HFI     F4  617   2.279   3.187   0.726  0.1071  0.2361 -0.1231
   11HFI     F5  618   2.146   3.151   0.892  0.1622 -0.0729  0.3348
   11HFI     F6  619   2.255   2.977   0.801 -0.5941  0.3388 -0.5259
   11HFI     H1  620   2.413   3.073   1.117  1.2042 -1.1041  0.7764
   11HFI     H2  621   2.472   3.124   0.876  1.3165  0.1869  0.8784
   12HFI     O1  622   1.206   0.507   2.745 -0.5173  0.0056 -0.2563
   12HFI     C1  623   1.338   0.547   2.789 -0.0202  0.1930 -0.4089
   12HFI     C2  624   1.461   0.466   2.732 -1.1599 -0.0437 -0.7412
   12HFI     F1  625   1.427   0.403   2.613  0.2079 -0.0124 -0.1316
   12HFI     F2  626   1.489   0.365   2.816  0.2241 -0.2340 -0.3421
   12HFI     F3  627   1.567   0.541   2.702 -0.0017  0.0590  0.3817
   12HFI     C3  628   1.343   0.552   2.948 -0.0353  0.5716 -0.1531
   12HFI     F4  629   1.468   0.567   2.993 -0.1881 -0.0242 -0.1987
   12HFI     F5  630   1.293   0.445   3.018 -0.0770  0.1159  0.1817
   12HFI     F6  631   1.280   0.666   2.990  0.3036  0.3958 -0.3626
   12HFI     H1  632   1.211   0.482   2.651  1.6588  0.4688 -0.2706
   12HFI     H2  633   1.362   0.653   2.773  2.1327  0.1803  2.2797
   13HFI     O1  634   2.681   2.834   1.423 -0.2380  0.2103 -0.1838
   13HFI     C1  635   2.661   2.693   1.380 -0.4807 -0.5692 -0.4339
   13HFI     C2  636   2.689   2.596   1.499 -0.5350 -0.2562 -0.2900
   13HFI     F1  637   2.688   2.472   1.464  0.1179  0.4273  0.5157
   13HFI     F2  638   2.599   2.623   1.588 -0.8884  0.7951  0.2706
   13HFI     F3  639   2.807   2.615   1.562  0.1785 -0.1028  0.0476
   13HFI     C3  640   2.734   2.656   1.252  0.1141  0.0121 -0.0570
   13HFI     F4  641   2.870   2.625   1.259 -0.3097  0.2813  0.3035
   13HFI     F5  642   2.715   2.750   1.156  0.1486  0.0421  0.2813
   13HFI     F6  643   2.674   2.550   1.197 -0.0865 -0.1675 -0.1954
   13HFI     H1  644   2.769   2.844   1.464 -0.2174 -0.3647 -0.0856
   13HFI     H2  645   2.553   2.683   1.364  0.0558 -0.7434 -4.5402
   14HFI     O1  646   1.501   3.409   0.988  0.2333 -0.2298 -0.4580
   14HFI     C1  647   1.487   3.553   0.962  0.0892 -0.1616 -0.0159
   14HFI     C2  648   1.408   3.570   0.830 -0.2710 -0.2153 -0.0633
   14HFI     F1  649   1.398   3.699   0.797 -0.1183 -0.1154 -0.2886
   14HFI     F2  650   1.283   3.535   0.856 -0.3966 -0.1456  0.0722
   14HFI     F3  651   1.455   3.497   0.722 -0.0400 -0.1081  0.4365
   14HFI     C3  652   1.625   3.623   0.952  0.7846 -0.6602 -0.3254
   14HFI     F4  653   1.613   3.765   0.939 -0.2834  0.5660 -0.3601
   14HFI     F5  654   1.705   3.573   0.858  0.4123  0.4427  0.4826
   14HFI     F6  655   1.684   3.599   1.068  0.1329 -0.7283  0.0050
   14HFI     H1  656   1.567   3.379   0.924  0.5060  2.3196 -1.4107
   14HFI     H2  657   1.446   3.606   1.049  1.5745 -0.8209  1.1047
   15HFI     O1  658   0.856   2.026   1.480  0.5857 -0.4635  0.0151
   15HFI     C1  659   0.884   1.894   1.538  0.0987 -0.2678 -0.0290
   15HFI     C2  660   1.025   1.839   1.488 -0.5320  1.1802  0.0410
   15HFI     F1  661   1.064   1.734   1.559  0.1527  0.4240 -0.0142
   15HFI     F2  662   1.113   1.938   1.505  0.3335  0.0846 -0.2028
   15HFI     F3  663   1.030   1.797   1.358  0.3077  0.1342  0.5230
   15HFI     C3  664   0.770   1.799   1.501  0.1135  0.0825  0.1833
   15HFI     F4  665   0.788   1.680   1.569  0.2207 -0.6236 -0.6197
   15HFI     F5  666   0.762   1.776   1.368 -0.3797  0.7720  0.2984
   15HFI     F6  667   0.653   1.852   1.551  0.5463  0.3944  0.3547
   15HFI     H1  668   0.936   2.051   1.431  1.0861 -1.4398  0.3258
   15HFI     H2  669   0.893   1.887   1.647  1.3366 -0.3222 -0.1312
   16HFI     O1  670   1.612   0.744   2.430  0.4758  0.3072  0.6067
   16HFI     C1  671   1.645   0.610   2.403  0.0852  0.0452 -0.4474
   16HFI     C2  672   1.771   0.605   2.315 -0.3514 -0.0927 -0.0842
   16HFI     F1  673   1.783   0.710   2.229 -0.0890  0.4920 -0.0264
   16HFI     F2  674   1.779   0.503   2.233 -0.1383 -0.1456  0.1124
   16HFI     F3  675   1.881   0.603   2.389  0.7058  0.5059 -0.2667
   16HFI     C3  676   1.528   0.538   2.330  0.1574  0.4350  0.0107
   16HFI     F4  677   1.415   0.567   2.397 -0.4075  0.6583  0.4272
   16HFI     F5  678   1.549   0.409   2.339  0.3004 -0.4328  0.4701
   16HFI     F6  679   1.511   0.581   2.203 -0.0134 -0.2719 -0.3210
   16HFI     H1  680   1.656   0.804   2.368  0.1990  0.2820  0.3866
   16HFI     H2  681   1.655   0.561   2.500 -1.5137  0.5560 -0.0108
   17HFI     O1  682   2.675   0.106   1.346  0.1453 -0.1461  0.2040
   17HFI     C1  683   2.553   0.188   1.363 -0.9981 -0.1399  0.0866
   17HFI     C2  684   2.527   0.224   1.510 -0.5448 -0.1749 -0.8693
   17HFI     F1  685   2.504   0.110   1.578 -0.2172 -0.4377 -0.3784
   17HFI     F2  686   2.421   0.311   1.518  0.0919  0.2333 -0.6025
   17HFI     F3  687   2.636   0.285   1.565  0.6105 -0.4220  0.2492
   17HFI     C3  688   2.436   0.131   1.287 -0.8430  0.4888  1.0466
   17HFI     F4  689   2.326   0.205   1.282 -0.4178 -0.0428  0.5099
   17HFI     F5  690   2.397   0.007   1.326 -0.0171 -0.1952  0.0758
   17HFI     F6  691   2.471   0.118   1.155  0.1347  0.1141  0.3086
   17HFI     H1  692   2.653   0.021   1.388 -1.4317 -0.1635 -0.6144
   17HFI     H2  693   2.560   0.289   1.320 -1.7306 -0.3952 -0.6515
   18HFI     O1  694   1.188   0.221   0.152  0.1203 -0.3019  0.3244
   18HFI     C1  695   1.321   0.171   0.111 -1.1137 -0.0334 -0.1120
   18HFI     C2  696   1.311   0.017   0.063  0.4710 -0.4251 -0.2592
   18HFI     F1  697   1.432  -0.035   0.056 -0.0842 -0.1018 -0.4780
   18HFI     F2  698   1.260   0.009  -0.060 -0.5749  0.1595 -0.0418
   18HFI     F3  699   1.235  -0.057   0.142  0.6085 -0.1641  0.0704
   18HFI     C3  700   1.420   0.180   0.229 -0.2210 -0.3812  0.0312
   18HFI     F4  701   1.549   0.157   0.195 -0.0168 -0.5214  0.2164
   18HFI     F5  702   1.379   0.090   0.318 -0.3585  0.3440  0.3862
   18HFI     F6  703   1.410   0.298   0.284 -0.2578 -0.2672  0.4624
   18HFI     H1  704   1.186   0.249   0.245 -0.0769  0.3171  0.1389
   18HFI     H2  705   1.364   0.228   0.029 -1.6059  0.0507 -0.3157
   19HFI     O1  706   0.453   2.559   0.226  0.6161  0.1367 -0.4298
   19HFI     C1  707   0.406   2.611   0.351  0.0860 -0.0352  0.1128
   19HFI     C2  708   0.301   2.723   0.332  0.2686  0.1511  0.3569
   19HFI     F1  709   0.232   2.748   0.445  0.1179  0.5505 -0.4625
   19HFI     F2  710   0.215   2.684   0.245  0.0452  0.4437  0.2818
   19HFI     F3  711   0.360   2.828   0.281  0.1078  0.1857  0.6230
   19HFI     C3  712   0.516   2.655   0.450 -0.1650 -0.2404  0.4681
   19HFI     F4  713   0.555   2.543   0.517 -0.0680 -0.0049 -0.4999
   19HFI     F5  714   0.474   2.748   0.542  0.7399 -0.8875  0.1644
   19HFI     F6  715   0.617   2.708   0.376  0.3856  0.5365  0.2123
   19HFI     H1  716   0.409   2.597   0.148  0.3741 -2.0472 -1.4021
   19HFI     H2  717   0.362   2.525   0.403  1.9350 -1.1369 -0.1360
   20HFI     O1  718   1.453   0.312   1.364  0.3707 -0.0877 -0.2308
   20HFI     C1  719   1.480   0.438   1.424 -0.4015 -0.6121  0.8266
   20HFI     C2  720   1.618   0.427   1.494  0.1199  0.2805  0.2085
   20HFI     F1  721   1.664   0.538   1.541 -0.3377  0.6736  0.0513
   20HFI     F2  722   1.710   0.396   1.401 -0.4276 -0.1582  0.0958
   20HFI     F3  723   1.612   0.337   1.583  0.4777  0.2483 -0.3372
   20HFI     C3  724   1.363   0.494   1.517  0.4777  0.0702  0.4539
   20HFI     F4  725   1.400   0.606   1.581 -0.2532 -0.3593  0.0670
   20HFI     F5  726   1.326   0.403   1.608 -0.2220 -0.2405  0.3630
   20HFI     F6  727   1.254   0.514   1.437  0.3588 -0.0436  0.4024
   20HFI     H1  728   1.418   0.253   1.433  0.1851  0.2778 -0.0110
   20HFI     H2  729   1.490   0.513   1.345  0.3541 -0.7872  0.7451
   21HFI     O1  730   1.570   0.635   0.183  0.8195 -0.2821 -0.0281
   21HFI     C1  731   1.700   0.587   0.206 -0.5665  0.4915 -0.0340
   21HFI     C2  732   1.739   0.589   0.356  0.7539  0.5491  0.2284
   21HFI     F1  733   1.852   0.515   0.380  0.2330  0.4294 -0.2095
   21HFI     F2  734   1.631   0.534   0.426 -0.1260 -0.1227  0.1799
   21HFI     F3  735   1.773   0.716   0.396  0.4673 -0.2778  0.1844
   21HFI     C3  736   1.811   0.658   0.120 -0.0640 -0.0385 -0.6363
   21HFI     F4  737   1.933   0.598   0.141  0.5107 -0.1583 -0.6692
   21HFI     F5  738   1.828   0.785   0.144  0.2855 -0.4582 -0.5408
   21HFI     F6  739   1.778   0.638  -0.009  0.3565  0.3005 -0.0817
   21HFI     H1  740   1.571   0.730   0.200 -1.2734 -0.1598 -0.3804
   21HFI     H2  741   1.699   0.482   0.176  1.5612  0.9417 -1.8422
   22HFI     O1  742   0.217   2.294   1.015  0.0959  0.0521 -0.0733
   22HFI     C1  743   0.257   2.434   1.021 -0.5019 -0.0664 -0.4208
   22HFI     C2  744   0.145   2.530   1.077 -1.3120  0.1792  0.3403
   22HFI     F1  745   0.052   2.543   0.985 -0.2022  0.3012  0.0424
   22HFI     F2  746   0.196   2.655   1.107 -0.4977 -0.1947 -0.4840
   22HFI     F3  747   0.102   2.480   1.194 -0.5449 -0.1971  0.0834
   22HFI     C3  748   0.320   2.494   0.887  0.2565  0.3932  0.1430
   22HFI     F4  749   0.438   2.433   0.880  0.3337  0.0069  0.8977
   22HFI     F5  750   0.353   2.620   0.891 -0.1361 -0.4901  0.1965
   22HFI     F6  751   0.247   2.478   0.772  0.3200  0.0371  0.1856
   22HFI     H1  752   0.127   2.288   0.977  0.6804  1.0247 -1.6490
   22HFI     H2  753   0.335   2.438   1.098 -0.4438  0.2669 -0.4937
   23HFI     O1  754   1.478   0.103   3.090  0.2089 -0.0104  0.2813
   23HFI     C1  755   1.593   0.010   3.098  0.7191  0.0708  0.1719
   23HFI     C2  756   1.560  -0.088   3.211  0.4399 -0.2257  0.0519
   23HFI     F1  757   1.476  -0.193   3.178 -0.7567 -0.0662  0.3152
   23HFI     F2  758   1.505  -0.023   3.321 -0.6142  0.0934 -0.3427
   23HFI     F3  759   1.667  -0.153   3.263  0.3581 -0.1432 -0.2774
   23HFI     C3  760   1.726   0.084   3.108 -0.6718 -0.0119 -0.0790
   23HFI     F4  761   1.828  -0.001   3.080 -0.1668  0.0090 -0.4608
   23HFI     F5  762   1.731   0.128   3.235  0.0149 -0.0242  0.1500
   23HFI     F6  763   1.737   0.196   3.029  0.2610 -0.3876  0.2009
   23HFI     H1  764   1.467   0.157   3.170  1.1112  3.4918 -1.8511
   23HFI     H2  765   1.602  -0.047   3.005  2.5144  1.0443 -0.2811
   24HFI     O1  766   2.149   1.328   1.320 -0.5296  0.2089 -0.2266
   24HFI     C1  767   2.129   1.193   1.373 -0.1431 -0.7557  0.1974
   24HFI     C2  768   2.143   1.191   1.528 -0.2988  0.1844  0.1343
   24HFI     F1  769   2.125   1.055   1.560  0.2720 -0.6156  0.5094
   24HFI     F2  770   2.051   1.269   1.588 -0.2987  0.5915 -0.0528
   24HFI     F3  771   2.263   1.239   1.572 -0.1889 -0.0223  0.1692
   24HFI     C3  772   2.230   1.097   1.296  0.4780  0.0014 -0.5097
   24HFI     F4  773   2.357   1.100   1.355 -0.2061  0.0434 -0.5603
   24HFI     F5  774   2.239   1.131   1.162 -0.4162  0.2786 -0.1990
   24HFI     F6  775   2.195   0.965   1.289  0.0249 -0.3491  0.0995
   24HFI     H1  776   2.243   1.343   1.300 -0.2761 -0.7214  0.2741
   24HFI     H2  777   2.027   1.160   1.353 -1.1864  3.0648 -1.1306
   25HFI     O1  778   1.346   3.145   3.646 -0.6263  0.8950  0.5041
   25HFI     C1  779   1.224   3.098   3.580  0.1182 -0.2631  0.6126
   25HFI     C2  780   1.095   3.095   3.671 -0.0189  0.6102  0.5225
   25HFI     F1  781   1.050   3.215   3.710  0.7443  0.0232  0.1791
   25HFI     F2  782   1.110   3.019   3.784 -0.4159 -0.7824 -0.3528
   25HFI     F3  783   0.994   3.046   3.591 -0.5433  0.4232 -0.3778
   25HFI     C3  784   1.248   2.960   3.503 -0.4546 -0.2262 -0.3114
   25HFI     F4  785   1.230   2.859   3.598 -0.0583 -0.7182 -0.0099
   25HFI     F5  786   1.374   2.949   3.455  0.3826 -0.1607 -0.0749
   25HFI     F6  787   1.174   2.938   3.387 -0.6037 -0.5082  0.3618
   25HFI     H1  788   1.406   3.183   3.578 -2.1810  0.6424 -1.0489
   25HFI     H2  789   1.196   3.175   3.507 -2.1851 -1.1077  0.5571
   26HFI     O1  790   1.680   1.613   0.333  0.0433  0.8066 -0.0986
   26HFI     C1  791   1.680   1.661   0.475 -0.2452  0.6557  0.1219
   26HFI     C2  792   1.804   1.748   0.507 -0.5683  0.0562 -0.3613
   26HFI     F1  793   1.915   1.669   0.494 -0.0233 -0.0816 -0.0311
   26HFI     F2  794   1.801   1.796   0.630  0.2814  0.2355  0.0156
   26HFI     F3  795   1.803   1.844   0.416 -0.4865  0.2392  0.1645
   26HFI     C3  796   1.668   1.536   0.566 -0.0976  1.1438 -0.5090
   26HFI     F4  797   1.550   1.471   0.528 -0.0234  0.0750  0.0178
   26HFI     F5  798   1.657   1.567   0.700 -0.7425  0.1424  0.0943
   26HFI     F6  799   1.770   1.456   0.549 -0.0696 -0.2155 -0.5220
   26HFI     H1  800   1.620   1.538   0.322 -0.4124  1.3124 -1.2461
   26HFI     H2  801   1.597   1.727   0.500 -0.8924 -0.7083  1.7026
   27HFI     O1  802   1.589   1.095   0.944 -0.2579 -0.0196 -0.2863
   27HFI     C1  803   1.488   1.197   0.967 -0.1864  0.0144 -0.4974
   27HFI     C2  804   1.414   1.161   1.097  0.1269  0.2777  0.4241
   27HFI     F1  805   1.345   1.047   1.087 -0.4544 -0.5173  0.3424
   27HFI     F2  806   1.324   1.263   1.137 -0.0044  0.1298 -0.4500
   27HFI     F3  807   1.503   1.146   1.201  0.1119 -0.3949  0.0284
   27HFI     C3  808   1.394   1.226   0.846 -0.1817  0.2922 -0.3033
   27HFI     F4  809   1.469   1.256   0.733  0.2463  0.8610 -0.2866
   27HFI     F5  810   1.314   1.330   0.876  0.0021 -0.3362  0.0038
   27HFI     F6  811   1.319   1.122   0.832  0.3552  0.3994 -0.0614
   27HFI     H1  812   1.547   1.030   0.885 -0.1466  2.7187 -3.5028
   27HFI     H2  813   1.532   1.296   0.982 -0.2540 -0.2550  1.6325
   28HFI     O1  814   0.345   0.835   0.323 -0.1298  0.4145 -0.3291
   28HFI     C1  815   0.473   0.839   0.250 -0.5937  0.4827  0.0314
   28HFI     C2  816   0.511   0.701   0.179 -0.1321 -0.0407 -0.3749
   28HFI     F1  817   0.527   0.592   0.265 -0.4996  0.7239  0.4187
   28HFI     F2  818   0.624   0.705   0.105 -0.1684 -0.1878 -0.1422
   28HFI     F3  819   0.410   0.665   0.092  0.0443  0.1450  0.2300
   28HFI     C3  820   0.579   0.906   0.339 -0.2283 -0.6573 -0.0034
   28HFI     F4  821   0.543   1.035   0.367 -0.1328  0.3929  0.6217
   28HFI     F5  822   0.704   0.909   0.283 -0.1736 -0.6670  0.0957
   28HFI     F6  823   0.585   0.840   0.451 -0.0823  0.1434  0.4593
   28HFI     H1  824   0.368   0.810   0.413 -0.2168  0.3748 -0.3176
   28HFI     H2  825   0.470   0.915   0.171 -1.1885  0.2919 -0.1328
   29HFI     O1  826   0.223   2.911   1.325  0.4041 -0.2731 -0.2004
   29HFI     C1  827   0.304   2.830   1.410  0.4549 -0.1124 -0.1003
   29HFI     C2  828   0.209   2.759   1.509  0.0668  0.6950  0.1115
   29HFI     F1  829   0.118   2.678   1.450 -0.1383  0.1736  0.2684
   29HFI     F2  830   0.132   2.849   1.585 -0.2198  0.1788 -0.2628
   29HFI     F3  831   0.284   2.677   1.596 -0.3147 -0.3223 -0.1796
   29HFI     C3  832   0.406   2.922   1.485 -0.6406  1.1435  0.6953
   29HFI     F4  833   0.489   2.995   1.407  0.2138 -0.0204 -0.5244
   29HFI     F5  834   0.491   2.850   1.569  0.2736  0.5331  0.1710
   29HFI     F6  835   0.349   3.013   1.567 -0.0591 -0.1568  0.0279
   29HFI     H1  836   0.267   2.968   1.261 -0.9453  1.8273  0.6970
   29HFI     H2  837   0.357   2.754   1.351  0.5244  0.7120 -1.1136
   30HFI     O1  838   0.116   0.193   0.991  0.1011  0.4574 -0.4640
   30HFI     C1  839   0.052   0.061   0.962 -0.4426 -0.2204  0.0775
   30HFI     C2  840  -0.103   0.068   1.000 -0.5771 -0.3617  0.2784
   30HFI     F1  841  -0.128   0.076   1.132  0.0199 -0.4025  0.1068
   30HFI     F2  842  -0.179  -0.033   0.953  0.4072  0.6561  0.5126
   30HFI     F3  843  -0.148   0.181   0.940  0.4968  0.3219  0.0680
   30HFI     C3  844   0.124  -0.055   1.038 -0.5680  0.4900 -0.4773
   30HFI     F4  845   0.250  -0.073   1.009 -0.5398  0.2395  0.1153
   30HFI     F5  846   0.065  -0.176   1.009 -0.2154  0.1323  0.1809
   30HFI     F6  847   0.117  -0.033   1.174 -0.1264 -0.2458  0.0199
   30HFI     H1  848   0.143   0.200   1.084  2.0511 -1.5165 -0.8572
   30HFI     H2  849   0.043   0.038   0.855  1.8633  0.9983 -0.4106
   31HFI     O1  850   0.130   1.655   1.095 -0.0987 -0.1173 -0.7456
   31HFI     C1  851   0.131   1.544   1.005  0.8648 -0.2676 -0.0022
   31HFI     C2  852   0.064   1.420   1.069 -0.6795  0.4815 -0.5768
   31HFI     F1  853   0.115   1.377   1.193  0.0667 -0.1264 -0.2674
   31HFI     F2  854   0.088   1.316   0.992  0.3319  0.4636  0.7256
   31HFI     F3  855  -0.066   1.434   1.091  0.1729  0.5145 -0.8683
   31HFI     C3  856   0.270   1.520   0.947  0.3625  0.5563 -0.2803
   31HFI     F4  857   0.328   1.633   0.928 -0.2449 -0.0827  0.1723
   31HFI     F5  858   0.266   1.452   0.829 -0.0335  0.3926 -0.1716
   31HFI     F6  859   0.343   1.446   1.032  0.1893 -0.2774  0.3471
   31HFI     H1  860   0.045   1.653   1.143  0.5768  0.1943  0.4825
   31HFI     H2  861   0.065   1.567   0.921  0.5460  1.2725  0.6534
   32HFI     O1  862   1.660   2.976   0.322 -0.2766 -0.1924  0.4863
   32HFI     C1  863   1.539   3.001   0.387 -0.0228 -0.0517 -0.3568
   32HFI     C2  864   1.437   3.074   0.287 -0.2232  0.2772 -0.0234
   32HFI     F1  865   1.329   3.111   0.364  0.5729  0.5469  0.5876
   32HFI     F2  866   1.406   2.994   0.183  0.0533  0.4269 -0.0612
   32HFI     F3  867   1.490   3.183   0.226 -0.7458  0.3812 -0.0065
   32HFI     C3  868   1.559   3.072   0.526  0.1149 -0.5653  0.2384
   32HFI     F4  869   1.598   3.199   0.501  0.0888  0.0193 -0.5849
   32HFI     F5  870   1.658   3.009   0.593 -0.1625 -0.2606  0.0619
   32HFI     F6  871   1.452   3.059   0.609 -0.4734 -0.1990 -0.0676
   32HFI     H1  872   1.657   2.889   0.280  4.1774 -0.6582  0.8803
   32HFI     H2  873   1.499   2.900   0.402 -0.4548 -0.0500 -1.5213
   33HFI     O1  874   2.511   0.383   3.270  0.1036  0.2372  0.5632
   33HFI     C1  875   2.598   0.497   3.274  0.2953 -0.4567  0.1051
   33HFI     C2  876   2.555   0.610   3.168 -0.3918 -0.3316  0.1633
   33HFI     F1  877   2.425   0.609   3.156  0.0104 -0.0859  0.5874
   33HFI     F2  878   2.612   0.600   3.042  0.3735  0.5270  0.2933
   33HFI     F3  879   2.591   0.728   3.220 -0.2754 -0.3600  0.8022
   33HFI     C3  880   2.755   0.455   3.266 -0.0911  0.1637  0.4307
   33HFI     F4  881   2.787   0.378   3.375  0.3577  0.1558 -0.0944
   33HFI     F5  882   2.840   0.559   3.262  0.2421  0.3334  0.3634
   33HFI     F6  883   2.776   0.384   3.148 -0.1643 -0.3816  0.0213
   33HFI     H1  884   2.417   0.404   3.277 -0.7114 -2.5648 -1.0987
   33HFI     H2  885   2.604   0.550   3.370 -0.9309  0.1309 -0.1382
   34HFI     O1  886   2.671   2.675   2.798 -0.2084  1.0290  0.1126
   34HFI     C1  887   2.780   2.572   2.800  0.5668 -0.6677 -0.5652
   34HFI     C2  888   2.924   2.635   2.829  0.0177 -0.7693  0.7594
   34HFI     F1  889   2.921   2.707   2.945 -0.4101  0.0672 -0.6440
   34HFI     F2  890   2.950   2.728   2.737  0.5000 -0.4607  0.2543
   34HFI     F3  891   3.029   2.544   2.833  0.0595 -0.0962 -0.9463
   34HFI     C3  892   2.776   2.488   2.673 -0.2320  0.4357 -0.1214
   34HFI     F4  893   2.654   2.447   2.647  0.0669  0.2638 -0.2503
   34HFI     F5  894   2.860   2.383   2.681 -0.2860  0.0598 -0.1480
   34HFI     F6  895   2.813   2.558   2.568  0.5160 -0.5734 -0.4315
   34HFI     H1  896   2.653   2.685   2.704  2.7288 -2.0473 -0.9176
   34HFI     H2  897   2.769   2.508   2.889 -1.1862  0.3434 -0.0352
   35HFI     O1  898   1.605   3.094   1.009  0.2941 -0.0150 -0.1238
   35HFI     C1  899   1.725   3.070   0.931 -0.3242 -0.8987  0.6137
   35HFI     C2  900   1.818   2.978   1.015  0.5425 -0.7962  0.4503
   35HFI     F1  901   1.913   2.935   0.928  0.4439  0.4627 -0.0559
   35HFI     F2  902   1.767   2.859   1.057  0.0296  0.2335 -0.4412
   35HFI     F3  903   1.873   3.043   1.120 -0.3794  0.4196  0.4982
   35HFI     C3  904   1.797   3.207   0.896 -0.4875  0.2825  0.6602
   35HFI     F4  905   1.856   3.279   1.000  0.0073 -1.1722 -0.4584
   35HFI     F5  906   1.701   3.286   0.840  0.1698 -0.3673 -0.5901
   35HFI     F6  907   1.889   3.188   0.793  0.3434  0.0396 -0.0543
   35HFI     H1  908   1.614   3.050   1.095  5.1269 -0.3827 -0.6572
   35HFI     H2  909   1.707   3.031   0.831 -1.1643  1.7786 -0.3201
   36HFI     O1  910   2.354   0.227   0.904  0.1399  0.0005 -0.3674
   36HFI     C1  911   2.233   0.249   0.830  0.8626 -0.5013 -0.6881
   36HFI     C2  912   2.251   0.392   0.767 -0.0901 -0.1076 -0.5170
   36HFI     F1  913   2.204   0.490   0.845 -0.0853  0.0292  0.0007
   36HFI     F2  914   2.184   0.404   0.650 -0.3616  0.1042 -0.1965
   36HFI     F3  915   2.381   0.414   0.726  0.4462 -0.3655 -0.6171
   36HFI     C3  916   2.101   0.229   0.904 -0.0025 -0.3291  0.1578
   36HFI     F4  917   2.095   0.272   1.035 -0.1499  0.1742 -0.4483
   36HFI     F5  918   2.049   0.096   0.895 -0.0184  0.1407  0.2275
   36HFI     F6  919   2.009   0.305   0.839 -0.1082  0.0761 -0.1587
   36HFI     H1  920   2.353   0.137   0.940  1.6457  0.4906  0.9767
   36HFI     H2  921   2.221   0.181   0.745 -0.5863 -0.7762 -0.2818
   37HFI     O1  922   2.847   0.490   1.306  0.1674 -0.3287  0.0216
   37HFI     C1  923   2.964   0.525   1.382 -0.4002  0.1957 -0.2185
   37HFI     C2  924   3.099   0.510   1.295  0.7194  0.0871 -0.1800
   37HFI     F1  925   3.212   0.516   1.374  0.6479  0.0780 -0.1644
   37HFI     F2  926   3.110   0.609   1.208  0.0718 -0.1843  0.1323
   37HFI     F3  927   3.111   0.391   1.229  0.2341  0.1856  0.0824
   37HFI     C3  928   2.974   0.442   1.513  0.0014  0.4281  0.2006
   37HFI     F4  929   3.063   0.484   1.606 -0.3573  0.1256  0.1811
   37HFI     F5  930   3.010   0.312   1.487  0.4394 -0.4766 -0.2656
   37HFI     F6  931   2.856   0.443   1.584  0.1775 -0.5637  0.3351
   37HFI     H1  932   2.866   0.430   1.233 -0.9687  2.1046 -2.3529
   37HFI     H2  933   2.955   0.630   1.411  2.5090  0.6271 -0.6994
   38HFI     O1  934   1.220   1.511   1.351 -0.1043  0.0649  0.6081
   38HFI     C1  935   1.166   1.439   1.462  0.7399 -0.0216  0.5767
   38HFI     C2  936   1.276   1.351   1.516  0.4046  0.6701 -0.4152
   38HFI     F1  937   1.371   1.431   1.567  0.2312  0.4356 -0.1412
   38HFI     F2  938   1.341   1.271   1.427 -0.0997  0.1235  0.2630
   38HFI     F3  939   1.231   1.274   1.617  0.8639  0.3119  0.1284
   38HFI     C3  940   1.034   1.362   1.422  0.3658 -0.6443  0.1543
   38HFI     F4  941   0.946   1.457   1.384 -0.6407 -0.5135 -0.1724
   38HFI     F5  942   0.985   1.298   1.528  0.0150 -0.1464 -0.0848
   38HFI     F6  943   1.053   1.270   1.318 -0.4153 -0.6276  0.3545
   38HFI     H1  944   1.179   1.484   1.267 -2.0949  2.4030  0.7502
   38HFI     H2  945   1.145   1.513   1.540 -1.5938 -2.2409  2.1288
   39HFI     O1  946   1.565   2.692   0.217 -0.0196 -0.6412 -0.5793
   39HFI     C1  947   1.434   2.649   0.173  0.0658 -0.1378 -0.0863
   39HFI     C2  948   1.378   2.537   0.264 -0.0563 -0.1282 -0.0442
   39HFI     F1  949   1.265   2.485   0.212  0.5670  0.1734  0.6216
   39HFI     F2  950   1.361   2.581   0.396 -0.4250  0.0397  0.6960
   39HFI     F3  951   1.468   2.437   0.265 -0.0802 -0.7803  0.6850
   39HFI     C3  952   1.447   2.608   0.024  0.7549  0.1366  0.5184
   39HFI     F4  953   1.481   2.716  -0.052  0.3003 -0.3843 -0.5691
   39HFI     F5  954   1.326   2.560  -0.028  0.0135 -0.0080 -0.3311
   39HFI     F6  955   1.539   2.517   0.005  0.1499  0.5613 -0.3855
   39HFI     H1  956   1.614   2.611   0.241 -1.0788 -0.4608  2.3793
   39HFI     H2  957   1.362   2.732   0.179 -1.2838 -1.2666 -0.3305
   40HFI     O1  958   0.615   1.945   0.066 -0.0057 -0.5340  0.7239
   40HFI     C1  959   0.574   1.962  -0.075  0.2141  0.0257  0.3229
   40HFI     C2  960   0.523   2.110  -0.106 -0.5092 -0.2157 -0.2412
   40HFI     F1  961   0.591   2.199  -0.028  0.1851  0.2667  0.4688
   40HFI     F2  962   0.388   2.126  -0.073 -0.1469 -0.0739 -0.2230
   40HFI     F3  963   0.539   2.137  -0.242  0.1918 -0.1563 -0.2308
   40HFI     C3  964   0.457   1.855  -0.115  0.6368 -0.1140  0.0827
   40HFI     F4  965   0.355   1.858  -0.029 -0.0872 -0.6100 -0.3697
   40HFI     F5  966   0.493   1.724  -0.110  0.5238  0.0670  0.2387
   40HFI     F6  967   0.404   1.878  -0.236  0.1210  0.7102  0.0007
   40HFI     H1  968   0.603   2.030   0.113 -3.3810 -0.0792 -0.8304
   40HFI     H2  969   0.651   1.941  -0.149  2.5556 -2.1082  3.2330
   41HFI     O1  970   3.040   0.097   0.124 -0.1782 -0.0309  0.3747
   41HFI     C1  971   3.022   0.237   0.093  0.2409 -0.5643 -0.1017
   41HFI     C2  972   3.016   0.337   0.221 -0.1052 -0.2666 -0.4067
   41HFI     F1  973   2.904   0.350   0.291  0.2251 -0.2006 -0.1403
   41HFI     F2  974   3.045   0.467   0.178  0.2649  0.2621  0.1219
   41HFI     F3  975   3.114   0.305   0.314 -0.0861 -0.0222  0.2319
   41HFI     C3  976   2.898   0.266  -0.001 -0.1932  0.8823  0.7935
   41HFI     F4  977   2.889   0.400  -0.031  0.4459  0.0659  0.0398
   41HFI     F5  978   2.778   0.222   0.043  0.6319 -0.3358 -0.5344
   41HFI     F6  979   2.913   0.198  -0.110  0.6755 -0.1926 -0.9758
   41HFI     H1  980   3.070   0.052   0.043  2.9979  2.5593  0.0462
   41HFI     H2  981   3.106   0.272   0.032 -0.4192 -1.0335 -1.2976
   42HFI     O1  982   0.932   2.635   0.067 -0.0329  0.5609 -0.3191
   42HFI     C1  983   0.949   2.487   0.072 -0.2028  0.0379  0.9360
   42HFI     C2  984   0.966   2.411  -0.068  0.0110 -0.5134 -0.1690
   42HFI     F1  985   1.018   2.283  -0.056 -0.2414  0.1714 -0.0482
   42HFI     F2  986   1.064   2.477  -0.145  0.2039 -0.0281  0.4807
   42HFI     F3  987   0.851   2.402  -0.134 -0.5495 -0.1676  0.0938
   42HFI     C3  988   0.844   2.413   0.165 -0.1749 -0.7298  0.0108
   42HFI     F4  989   0.867   2.441   0.289  0.5182  0.3461 -0.7848
   42HFI     F5  990   0.842   2.282   0.147  0.4857  0.2474  0.3363
   42HFI     F6  991   0.717   2.447   0.131 -0.3260 -0.0812 -0.5816
   42HFI     H1  992   0.874   2.673   0.135 -0.2273  3.0175 -1.8117
   42HFI     H2  993   1.050   2.481   0.117 -0.0994  1.2636  0.8935
   43HFI     O1  994   2.275   1.868   0.380 -0.2134  0.1604  0.4431
   43HFI     C1  995   2.146   1.904   0.455 -0.2938  0.3473 -0.0249
   43HFI     C2  996   2.104   2.044   0.414 -0.0740 -0.2533 -0.2656
   43HFI     F1  997   2.055   2.057   0.287  0.1311  0.0978  0.1936
   43HFI     F2  998   2.210   2.129   0.422 -0.2245  0.5688  0.0489
   43HFI     F3  999   2.017   2.093   0.502 -0.1890  0.8033 -0.4194
   43HFI     C3 1000   2.175   1.884   0.608  0.2131 -0.3476  0.9819
   43HFI     F4 1001   2.287   1.952   0.656 -0.1182  0.0079  0.2195
   43HFI     F5 1002   2.201   1.751   0.638 -0.4559  0.3715 -0.0723
   43HFI     F6 1003   2.061   1.923   0.683  0.1708  0.0760 -0.7615
   43HFI     H1 1004   2.327   1.809   0.437  0.5170  0.4210  0.0564
   43HFI     H2 1005   2.068   1.840   0.412 -1.1489 -0.0999  2.1566
   44HFI     O1 1006   2.554   3.389   0.546  0.7952  0.2636  0.3518
   44HFI     C1 1007   2.685   3.338   0.530 -0.3696  0.2073 -0.0309
   44HFI     C2 1008   2.724   3.350   0.382 -0.2168 -0.3811 -0.6135
   44HFI     F1 1009   2.843   3.305   0.352 -0.4741 -0.8159  0.3303
   44HFI     F2 1010   2.718   3.476   0.347  0.3157 -0.0508  0.1714
   44HFI     F3 1011   2.640   3.283   0.294 -0.6147  0.1163  0.3251
   44HFI     C3 1012   2.696   3.187   0.571  0.3378  0.5349 -0.4532
   44HFI     F4 1013   2.820   3.152   0.580  0.3196 -0.2127  0.2322
   44HFI     F5 1014   2.639   3.108   0.483 -0.4090 -0.8799 -0.2515
   44HFI     F6 1015   2.638   3.156   0.691  0.2135  0.2329  0.0873
   44HFI     H1 1016   2.493   3.325   0.506 -0.9195  1.0892  1.5863
   44HFI     H2 1017   2.748   3.400   0.595  0.9474 -0.5833 -0.5291
   45HFI     O1 1018   2.321   1.888   1.370 -0.5131  0.5226  0.0679
   45HFI     C1 1019   2.178   1.888   1.359  0.1194  0.4503 -0.5928
   45HFI     C2 1020   2.122   1.864   1.500  0.3134  0.1171 -0.7609
   45HFI     F1 1021   2.169   1.952   1.592  0.2178 -0.0680  0.2454
   45HFI     F2 1022   2.145   1.738   1.554 -0.3346  0.3827 -0.1349
   45HFI     F3 1023   1.989   1.880   1.515  0.0939  0.2633  1.2074
   45HFI     C3 1024   2.114   1.788   1.258 -0.2560 -0.1410 -0.2786
   45HFI     F4 1025   2.131   1.656   1.285  0.1125 -0.5038 -0.2845
   45HFI     F5 1026   2.165   1.802   1.134  0.0202  0.5843  0.2086
   45HFI     F6 1027   1.980   1.803   1.243  0.4131  0.1212  0.1360
   45HFI     H1 1028   2.352   1.802   1.402 -0.8925 -0.1204 -1.2702
   45HFI     H2 1029   2.133   1.980   1.321 -1.9039  0.7447  2.3535
   46HFI     O1 1030   0.452   1.157   0.948  0.0600 -0.1215  0.1431
   46HFI     C1 1031   0.380   1.111   0.819 -0.1937 -0.3182  0.4152
   46HFI     C2 1032   0.348   0.961   0.818 -0.3496 -0.4215  0.1316
   46HFI     F1 1033   0.258   0.934   0.724 -0.5336 -0.4521  0.3825
   46HFI     F2 1034   0.292   0.928   0.935  0.1008 -0.6909  0.2903
   46HFI     F3 1035   0.455   0.876   0.804 -0.3236 -0.7668  0.0099
   46HFI     C3 1036   0.445   1.166   0.684  0.3500  0.2944 -0.1822
   46HFI     F4 1037   0.357   1.157   0.587  0.1974 -0.2432  0.0482
   46HFI     F5 1038   0.554   1.095   0.642  0.1028 -0.2282 -0.8014
   46HFI     F6 1039   0.491   1.288   0.714  0.1663 -0.4813 -0.0982
   46HFI     H1 1040   0.424   1.248   0.970 -1.8462  0.1497 -3.0544
   46HFI     H2 1041   0.280   1.155   0.816  1.1099  2.7744 -0.1824
   47HFI     O1 1042   2.601   1.645   2.650  0.0326 -0.4826  0.3156
   47HFI     C1 1043   2.698   1.533   2.653  0.0674  0.4577  0.0379
   47HFI     C2 1044   2.759   1.515   2.801  0.0836 -0.4339  0.1030
   47HFI     F1 1045   2.862   1.422   2.807  0.3720 -0.4408  0.5703
   47HFI     F2 1046   2.664   1.465   2.887 -0.0596 -0.1931  0.5641
   47HFI     F3 1047   2.807   1.628   2.846  0.5193  0.7817 -0.0623
   47HFI     C3 1048   2.804   1.538   2.540  0.0288  0.0091  0.1311
   47HFI     F4 1049   2.882   1.429   2.537 -0.7169 -0.0239  0.4580
   47HFI     F5 1050   2.884   1.650   2.556  0.0238  0.7103 -0.0702
   47HFI     F6 1051   2.739   1.549   2.421 -0.0292 -0.4837 -0.2585
   47HFI     H1 1052   2.652   1.727   2.661 -0.0753 -0.6814  2.3779
   47HFI     H2 1053   2.654   1.433   2.645 -0.6897  0.6598  1.5080
   48HFI     O1 1054   2.293   0.535   1.317 -0.3084 -0.3110  0.2992
   48HFI     C1 1055   2.149   0.487   1.338  0.2058 -0.2667 -0.1032
   48HFI     C2 1056   2.051   0.554   1.234  0.0086 -0.0774 -0.2653
   48HFI     F1 1057   2.088   0.556   1.108  0.1461 -0.4058 -0.2515
   48HFI     F2 1058   2.029   0.682   1.268 -0.1557 -0.7774 -0.3403
   48HFI     F3 1059   1.938   0.491   1.235 -0.1563 -0.0289  0.7148
   48HFI     C3 1060   2.117   0.500   1.496 -0.1892  0.0280 -0.0454
   48HFI     F4 1061   1.979   0.495   1.530 -0.5934  0.0952 -0.0387
   48HFI     F5 1062   2.168   0.610   1.548  0.7859 -0.5035  0.4850
   48HFI     F6 1063   2.175   0.400   1.557  0.6084  0.6059  0.7379
   48HFI     H1 1064   2.288   0.632   1.323 -2.0833 -0.4860  2.4500
   48HFI     H2 1065   2.149   0.380   1.315  0.2754 -0.8849  2.5663
   49HFI     O1 1066   2.537   1.321   1.375  0.2511 -0.6858 -0.7540
   49HFI     C1 1067   2.615   1.440   1.422  0.3424 -0.2411  0.4925
   49HFI     C2 1068   2.727   1.396   1.515  0.3452  0.6140 -0.5121
   49HFI     F1 1069   2.788   1.505   1.573 -0.8626 -0.6250 -0.3466
   49HFI     F2 1070   2.816   1.334   1.439 -0.2706 -0.1710 -0.2170
   49HFI     F3 1071   2.689   1.313   1.604 -0.2303 -0.3413  0.4659
   49HFI     C3 1072   2.514   1.543   1.483 -0.9782  0.3380  0.2491
   49HFI     F4 1073   2.455   1.494   1.592  0.4334 -0.0686 -0.0744
   49HFI     F5 1074   2.421   1.568   1.397 -0.2196 -0.6017 -0.4291
   49HFI     F6 1075   2.581   1.656   1.508  0.2899  0.9227  0.2055
   49HFI     H1 1076   2.567   1.241   1.422  3.0353  1.0987  0.6478
   49HFI     H2 1077   2.666   1.485   1.335  2.2635 -0.4670  1.4771
   50HFI     O1 1078   3.269   1.444   0.006 -0.3499  0.1436 -0.2314
   50HFI     C1 1079   3.374   1.542  -0.028 -0.0244 -0.6298 -0.0716
   50HFI     C2 1080   3.425   1.525  -0.174  0.6157 -0.5334  0.5112
   50HFI     F1 1081   3.335   1.563  -0.263  0.0145  0.1600 -0.6343
   50HFI     F2 1082   3.456   1.391  -0.202  0.4497 -0.2112  0.5172
   50HFI     F3 1083   3.538   1.595  -0.202 -0.4444 -0.4149 -0.0041
   50HFI     C3 1084   3.499   1.530   0.074 -0.3963  0.3063  0.3490
   50HFI     F4 1085   3.458   1.511   0.203 -0.3623  0.3232 -0.7296
   50HFI     F5 1086   3.559   1.651   0.073 -0.1960  0.3626  0.1787
   50HFI     F6 1087   3.601   1.446   0.045 -0.2445 -0.2068  0.0253
   50HFI     H1 1088   3.210   1.451  -0.071 -2.2204  0.8441  1.2129
   50HFI     H2 1089   3.332   1.641  -0.013  0.9224 -0.3041  0.4759
   51HFI     O1 1090   0.624   0.363   3.362 -0.5759 -0.4520  0.2149
   51HFI     C1 1091   0.478   0.372   3.331 -0.9243 -0.6622  0.4272
   51HFI     C2 1092   0.443   0.516   3.295  0.4230  0.4819  0.0811
   51HFI     F1 1093   0.461   0.600   3.392  0.2075  0.3447 -0.7693
   51HFI     F2 1094   0.313   0.524   3.251  0.6539  0.7312  0.5687
   51HFI     F3 1095   0.531   0.563   3.199  0.0763 -0.2940 -0.0001
   51HFI     C3 1096   0.365   0.308   3.430  0.1494  0.4210  0.3496
   51HFI     F4 1097   0.238   0.297   3.379 -0.5309  0.2034 -0.4769
   51HFI     F5 1098   0.350   0.380   3.543  0.5416 -0.2667 -1.0848
   51HFI     F6 1099   0.402   0.187   3.474 -0.2075  0.6649  0.4935
   51HFI     H1 1100   0.630   0.368   3.459  1.4678  1.2414  0.0522
   51HFI     H2 1101   0.462   0.321   3.235 -0.3416  4.9663 -2.8925
   52HFI     O1 1102   3.153   3.387   0.370  0.6410  0.0005 -0.4957
   52HFI     C1 1103   3.191   3.486   0.478  0.1774  0.1558  0.4586
   52HFI     C2 1104   3.295   3.444   0.583  0.4733  0.2713 -0.0467
   52HFI     F1 1105   3.255   3.335   0.656 -0.6837  0.2769 -0.6952
   52HFI     F2 1106   3.322   3.543   0.669  0.0419 -0.0692  0.5947
   52HFI     F3 1107   3.407   3.409   0.516 -0.2395  0.5498  0.3043
   52HFI     C3 1108   3.064   3.543   0.543 -0.0446 -0.1986 -0.7352
   52HFI     F4 1109   3.015   3.470   0.649  0.6287  0.0758  0.5428
   52HFI     F5 1110   2.962   3.548   0.456  0.4588  0.0706  0.2038
   52HFI     F6 1111   3.083   3.672   0.587  0.5044  0.0943  0.3856
   52HFI     H1 1112   3.082   3.435   0.324 -0.1392 -0.7409 -0.0651
   52HFI     H2 1113   3.234   3.575   0.431 -0.6548  0.5916  0.4987
   53HFI     O1 1114   0.315   3.044   3.387 -0.0871  0.7341  0.8729
   53HFI     C1 1115   0.444   3.089   3.435  0.6816 -0.6017  0.3013
   53HFI     C2 1116   0.435   3.235   3.503  0.3012  0.3060 -0.1262
   53HFI     F1 1117   0.555   3.275   3.555 -0.1687  0.2970 -0.2532
   53HFI     F2 1118   0.338   3.232   3.601 -0.0443  0.1364 -0.3504
   53HFI     F3 1119   0.405   3.334   3.416  0.1275  0.7905 -0.0537
   53HFI     C3 1120   0.561   3.080   3.329 -0.6640 -0.4630 -0.2037
   53HFI     F4 1121   0.557   2.963   3.268  0.6777 -0.3663 -0.1271
   53HFI     F5 1122   0.683   3.087   3.385 -0.4916 -0.0189  0.0804
   53HFI     F6 1123   0.541   3.180   3.245  0.0766  0.1885 -0.4213
   53HFI     H1 1124   0.286   3.114   3.326 -0.0800  0.3016  0.3700
   53HFI     H2 1125   0.474   3.022   3.516 -0.2035 -0.1298  1.0175
   54HFI     O1 1126   3.061   3.172   1.016  0.0459  0.1411 -0.1349
   54HFI     C1 1127   2.924   3.189   0.975  0.2258  0.4605  0.4868
   54HFI     C2 1128   2.882   3.337   0.995 -0.2538  0.3501 -0.1991
   54HFI     F1 1129   2.760   3.366   0.949  0.1188 -0.3880  0.1497
   54HFI     F2 1130   2.974   3.421   0.943  0.6086  0.0068 -0.0092
   54HFI     F3 1131   2.876   3.364   1.126 -0.0901 -0.0786 -0.2628
   54HFI     C3 1132   2.832   3.090   1.048  0.4157 -0.0306  0.3390
   54HFI     F4 1133   2.701   3.099   1.015  0.0724 -0.1825 -0.3103
   54HFI     F5 1134   2.841   3.100   1.180  0.2042  0.2955 -0.2168
   54HFI     F6 1135   2.866   2.963   1.013 -0.4419 -0.0220 -0.3235
   54HFI     H1 1136   3.063   3.188   1.112 -2.5332  0.3006 -0.0725
   54HFI     H2 1137   2.913   3.156   0.871  0.5540  0.0052  0.5976
   55HFI     O1 1138   2.366   2.542   1.421 -0.1976 -0.8229 -0.3062
   55HFI     C1 1139   2.322   2.420   1.488 -1.0997 -0.1592  0.8058
   55HFI     C2 1140   2.371   2.291   1.416  0.0553 -0.6903 -0.1644
   55HFI     F1 1141   2.404   2.198   1.507 -0.4371 -0.2217 -0.3152
   55HFI     F2 1142   2.481   2.325   1.347  0.5192  0.1090 -0.3335
   55HFI     F3 1143   2.286   2.237   1.323  0.2667 -0.5992 -0.1285
   55HFI     C3 1144   2.171   2.408   1.519 -0.6974  0.2046  0.5239
   55HFI     F4 1145   2.137   2.523   1.583 -0.0818  0.2675 -0.4329
   55HFI     F5 1146   2.141   2.305   1.603 -0.1887 -0.7996  0.0560
   55HFI     F6 1147   2.092   2.401   1.409 -0.0859  0.4848  0.4216
   55HFI     H1 1148   2.284   2.578   1.384  0.0654  0.7975  0.6443
   55HFI     H2 1149   2.359   2.427   1.591  0.6238  0.2908  0.1713
   56HFI     O1 1150   3.257   1.059   0.508  0.1049 -0.1513 -0.5214
   56HFI     C1 1151   3.339   1.180   0.498  0.5856 -0.1591  0.2033
   56HFI     C2 1152   3.468   1.146   0.417 -0.3246  0.3037  0.2748
   56HFI     F1 1153   3.440   1.123   0.281  0.6926 -0.0772 -0.1130
   56HFI     F2 1154   3.520   1.038   0.462 -0.4583  0.6071  0.2379
   56HFI     F3 1155   3.566   1.240   0.417 -0.1886  0.1613  0.1634
   56HFI     C3 1156   3.376   1.235   0.638 -0.4176  0.2324  0.1310
   56HFI     F4 1157   3.448   1.137   0.704 -0.6121 -0.3465  0.6209
   56HFI     F5 1158   3.258   1.258   0.702 -0.1801 -0.1882  0.6754
   56HFI     F6 1159   3.448   1.343   0.635  0.6257 -0.1411  0.1923
   56HFI     H1 1160   3.317   0.990   0.474  0.2162 -0.2667 -0.0933
   56HFI     H2 1161   3.287   1.263   0.447  1.6984  2.0324  2.5274
   57HFI     O1 1162   2.110   1.257   0.639 -0.3196  0.5491  0.8141
   57HFI     C1 1163   2.230   1.251   0.552  0.0014 -0.0584 -0.3886
   57HFI     C2 1164   2.234   1.370   0.452 -0.1701 -0.2627 -0.5063
   57HFI     F1 1165   2.205   1.487   0.520 -0.1734  0.3632  0.0532
   57HFI     F2 1166   2.139   1.354   0.356 -0.0172  0.3364 -0.0166
   57HFI     F3 1167   2.355   1.383   0.392  0.0848 -0.3099 -0.4245
   57HFI     C3 1168   2.252   1.113   0.486 -0.7478  0.0008 -0.0433
   57HFI     F4 1169   2.367   1.114   0.414  0.1496  0.3309 -0.2155
   57HFI     F5 1170   2.155   1.083   0.406 -0.0559 -0.1791  0.3927
   57HFI     F6 1171   2.271   1.014   0.574  0.7180 -0.0325  0.1733
   57HFI     H1 1172   2.032   1.262   0.580 -0.6309 -3.0466  0.8406
   57HFI     H2 1173   2.317   1.277   0.614  0.8692  0.1560 -1.6674
   58HFI     O1 1174   0.460   0.233   1.075 -0.2604 -0.6697  0.8146
   58HFI     C1 1175   0.518   0.154   0.968 -0.2477  0.7551  0.1894
   58HFI     C2 1176   0.662   0.103   0.992 -0.3544 -0.1780  0.0422
   58HFI     F1 1177   0.750   0.199   0.998 -0.1602  0.1683 -0.4436
   58HFI     F2 1178   0.706   0.022   0.896 -0.4502 -0.7819  0.6413
   58HFI     F3 1179   0.673   0.027   1.104 -0.0665  0.6115 -0.6391
   58HFI     C3 1180   0.494   0.222   0.832 -0.4438 -0.1904  0.2787
   58HFI     F4 1181   0.558   0.158   0.721  0.0297 -0.3798 -0.2703
   58HFI     F5 1182   0.531   0.357   0.831  0.3145 -0.4554  0.0685
   58HFI     F6 1183   0.356   0.218   0.811 -0.1187  0.2673 -0.2286
   58HFI     H1 1184   0.493   0.322   1.056  1.1767 -0.6929  3.1051
   58HFI     H2 1185   0.453   0.065   0.960 -0.2739  0.8779 -1.0613
   59HFI     O1 1186   3.133   2.173   1.426  0.2007  0.5814 -0.0032
   59HFI     C1 1187   3.225   2.251   1.509 -0.6929 -0.4433 -0.2990
   59HFI     C2 1188   3.215   2.391   1.469 -0.6661  0.1054  0.6193
   59HFI     F1 1189   3.275   2.473   1.557 -0.0010  0.8880 -0.3654
   59HFI     F2 1190   3.089   2.428   1.473  0.3480 -0.2662  0.6078
   59HFI     F3 1191   3.261   2.419   1.345 -0.2242 -0.0809 -0.0272
   59HFI     C3 1192   3.377   2.199   1.505  0.2935  0.4873  0.5248
   59HFI     F4 1193   3.417   2.165   1.376  0.9157  0.3717 -0.0295
   59HFI     F5 1194   3.380   2.090   1.585 -0.5456  0.2771 -0.6674
   59HFI     F6 1195   3.459   2.284   1.558 -0.1770 -0.6451 -0.4804
   59HFI     H1 1196   3.049   2.222   1.433 -0.5613 -0.8815  1.3728
   59HFI     H2 1197   3.195   2.251   1.614 -0.9942  0.2912 -0.3771
   60HFI     O1 1198   1.871   0.741   2.790  0.0273  0.3676  0.4485
   60HFI     C1 1199   1.804   0.849   2.873 -0.5284 -0.0496  0.5398
   60HFI     C2 1200   1.678   0.800   2.935  0.1195 -0.4506 -0.4929
   60HFI     F1 1201   1.633   0.888   3.024  0.0544  0.4672 -0.4313
   60HFI     F2 1202   1.709   0.685   3.001  0.2175 -0.5889  0.0533
   60HFI     F3 1203   1.575   0.780   2.850  0.6233 -0.0568 -0.4383
   60HFI     C3 1204   1.784   0.978   2.779  0.2890  0.5351 -0.0168
   60HFI     F4 1205   1.905   1.026   2.743 -0.2470  0.3291 -0.1314
   60HFI     F5 1206   1.719   1.078   2.843 -0.2819 -0.0633  0.2405
   60HFI     F6 1207   1.710   0.946   2.667  0.0115  0.0288 -0.0928
   60HFI     H1 1208   1.823   0.739   2.705 -2.7997  0.3747  1.9931
   60HFI     H2 1209   1.867   0.893   2.952  1.9627  1.3421 -2.0889
   61HFI     O1 1210   2.639   0.799   0.785 -0.0492  0.3302 -0.2449
   61HFI     C1 1211   2.556   0.921   0.807  0.5100 -0.9838 -0.0782
   61HFI     C2 1212   2.615   1.048   0.735  0.8175 -0.3162  0.4094
   61HFI     F1 1213   2.715   1.101   0.805  0.1419  0.1066 -0.2437
   61HFI     F2 1214   2.520   1.138   0.720  0.0419 -0.5305  0.1564
   61HFI     F3 1215   2.676   1.020   0.617 -0.1043  0.1660  0.1131
   61HFI     C3 1216   2.531   0.940   0.954 -0.3089  0.2452 -0.1532
   61HFI     F4 1217   2.461   0.835   1.002 -0.4632  0.1995 -0.3365
   61HFI     F5 1218   2.464   1.055   0.972 -0.0523 -0.2739 -0.5187
   61HFI     F6 1219   2.647   0.941   1.025 -0.4299  0.2077 -0.1132
   61HFI     H1 1220   2.626   0.771   0.693 -0.4312 -3.0305  0.7758
   61HFI     H2 1221   2.455   0.915   0.765  1.1135 -1.2019 -1.5053
   62HFI     O1 1222   1.391   1.855   1.198  0.1462 -0.3382  0.2518
   62HFI     C1 1223   1.486   1.895   1.096  0.3016  0.2480  0.3301
   62HFI     C2 1224   1.411   1.985   0.990 -0.1349  0.0386 -0.6820
   62HFI     F1 1225   1.380   2.104   1.046 -0.6183 -0.2027 -0.2113
   62HFI     F2 1226   1.292   1.923   0.955  0.2137  0.4326  0.4624
   62HFI     F3 1227   1.479   2.009   0.882  0.3236  0.1344  0.1154
   62HFI     C3 1228   1.542   1.758   1.030  0.3357  0.2655 -0.3747
   62HFI     F4 1229   1.612   1.693   1.131  0.5594  0.3927 -0.3343
   62HFI     F5 1230   1.629   1.788   0.940 -0.1677  0.1475  0.0384
   62HFI     F6 1231   1.445   1.680   0.984  0.1639 -0.3276 -0.0893
   62HFI     H1 1232   1.432   1.784   1.251  0.2733 -0.6661 -0.2807
   62HFI     H2 1233   1.559   1.963   1.142 -0.9634  1.2981  0.8198
   63HFI     O1 1234   2.173   1.799   3.485 -0.5168 -0.3629 -0.1702
   63HFI     C1 1235   2.271   1.703   3.433  0.6356  0.1264  0.6490
   63HFI     C2 1236   2.417   1.747   3.474 -0.2781  0.3833 -0.2310
   63HFI     F1 1237   2.438   1.735   3.605 -0.1467  0.4514 -0.4675
   63HFI     F2 1238   2.423   1.881   3.452  0.0543 -0.1335  0.9556
   63HFI     F3 1239   2.514   1.686   3.409  0.4109  0.1748 -0.3745
   63HFI     C3 1240   2.250   1.690   3.279  0.5777  0.1721  0.2370
   63HFI     F4 1241   2.264   1.810   3.217 -0.3493  0.1739  0.0594
   63HFI     F5 1242   2.125   1.653   3.260 -0.2295  0.0492  0.2984
   63HFI     F6 1243   2.329   1.596   3.212 -0.2576 -0.3763  0.2659
   63HFI     H1 1244   2.154   1.853   3.407 -1.7453  1.5107  1.3924
   63HFI     H2 1245   2.248   1.606   3.479  0.7658  0.7278  2.0197
   64HFI     O1 1246   1.103   0.634   0.861  0.0594  0.0955  0.3411
   64HFI     C1 1247   1.222   0.580   0.928  0.2488  0.0834 -0.6324
   64HFI     C2 1248   1.182   0.455   1.010  0.2478  0.5636  0.3346
   64HFI     F1 1249   1.094   0.494   1.105 -0.1762 -0.1207 -0.5079
   64HFI     F2 1250   1.278   0.381   1.064  0.2275  0.0761 -0.0913
   64HFI     F3 1251   1.113   0.376   0.930 -0.0412  0.0650 -0.7357
   64HFI     C3 1252   1.308   0.686   1.008 -0.0256  0.0882  1.2022
   64HFI     F4 1253   1.232   0.759   1.088 -0.0312  0.2948 -0.0488
   64HFI     F5 1254   1.360   0.760   0.909  0.8055  0.4745 -0.6567
   64HFI     F6 1255   1.408   0.624   1.076  0.0687 -0.5152 -0.2355
   64HFI     H1 1256   1.057   0.560   0.817  1.1062  0.2665 -1.0686
   64HFI     H2 1257   1.287   0.547   0.847  0.6724 -0.1196 -0.2098
   65HFI     O1 1258   2.473   2.182   0.153  0.2122  0.5262 -0.3088
   65HFI     C1 1259   2.359   2.108   0.099 -0.2119 -0.5849  0.0707
   65HFI     C2 1260   2.397   1.982   0.007 -0.5057  0.1338  0.1032
   65HFI     F1 1261   2.485   2.015  -0.088 -0.0575  0.0026 -0.7597
   65HFI     F2 1262   2.295   1.927  -0.059 -0.1370  0.2713 -0.1784
   65HFI     F3 1263   2.459   1.890   0.088  0.0023 -0.3486 -0.3156
   65HFI     C3 1264   2.271   2.210   0.028  0.0513  0.0701  0.6138
   65HFI     F4 1265   2.347   2.270  -0.072 -0.3150 -0.1471 -0.6576
   65HFI     F5 1266   2.225   2.301   0.117 -0.0717  0.0540  0.2787
   65HFI     F6 1267   2.156   2.156  -0.022  0.5354 -0.4423  0.4304
   65HFI     H1 1268   2.542   2.188   0.085 -0.2394 -1.0792 -0.9456
   65HFI     H2 1269   2.300   2.063   0.179 -1.0948 -0.2756 -0.4059
   66HFI     O1 1270   0.638   2.093   0.281  0.5669 -0.2166  0.5154
   66HFI     C1 1271   0.584   2.186   0.378  0.8188 -0.4800 -0.4549
   66HFI     C2 1272   0.675   2.181   0.498  0.8342 -0.1945 -1.5301
   66HFI     F1 1273   0.800   2.209   0.463  0.1175 -0.1204  1.0940
   66HFI     F2 1274   0.676   2.055   0.547  0.0734  0.4048 -0.0645
   66HFI     F3 1275   0.652   2.254   0.611 -0.3996 -0.2780  0.0709
   66HFI     C3 1276   0.435   2.158   0.410 -0.1703  0.2644 -0.3017
   66HFI     F4 1277   0.416   2.031   0.421 -0.4426 -0.0009  0.0159
   66HFI     F5 1278   0.355   2.211   0.305 -0.2747 -0.0714 -0.1932
   66HFI     F6 1279   0.387   2.221   0.520 -0.1566  0.2526  0.0787
   66HFI     H1 1280   0.667   2.013   0.327  1.0779  0.1411  0.8217
   66HFI     H2 1281   0.587   2.291   0.348  1.7554 -0.7517 -1.3387
   67HFI     O1 1282   0.473   1.151   2.573  0.3602 -0.4076  0.6029
   67HFI     C1 1283   0.400   1.124   2.446  0.3508  0.8318 -0.8847
   67HFI     C2 1284   0.419   1.227   2.337 -0.5984 -0.1221 -0.9003
   67HFI     F1 1285   0.555   1.257   2.328  1.1934  0.0497  0.0119
   67HFI     F2 1286   0.351   1.341   2.361  0.3474 -0.0623  0.8073
   67HFI     F3 1287   0.372   1.178   2.221  0.2639 -0.3754 -0.5268
   67HFI     C3 1288   0.252   1.087   2.474 -0.0388 -0.8420  0.5068
   67HFI     F4 1289   0.188   1.188   2.533 -0.2898  0.1703 -0.2704
   67HFI     F5 1290   0.253   0.985   2.553  0.5489 -0.2502  0.2557
   67HFI     F6 1291   0.186   1.048   2.365 -0.5402 -0.6781  0.2294
   67HFI     H1 1292   0.487   1.247   2.582  1.6699 -0.4041 -1.2319
   67HFI     H2 1293   0.440   1.034   2.397 -1.9329 -0.6518 -0.1430
   68HFI     O1 1294   0.168   2.773   3.408 -0.0293  0.3490 -0.3209
   68HFI     C1 1295   0.182   2.680   3.520 -0.2801 -0.3180 -0.5311
   68HFI     C2 1296   0.249   2.755   3.640 -0.5091  0.0484  0.4028
   68HFI     F1 1297   0.353   2.823   3.601  0.1523  0.1664 -0.3105
   68HFI     F2 1298   0.288   2.676   3.743  0.6971 -0.5665 -0.4693
   68HFI     F3 1299   0.163   2.839   3.691  0.0431  0.6570  0.0777
   68HFI     C3 1300   0.235   2.537   3.481 -0.7105 -0.2809  0.2281
   68HFI     F4 1301   0.159   2.477   3.393 -0.1186  0.6462 -0.1602
   68HFI     F5 1302   0.232   2.452   3.583 -0.4748 -0.3074  0.0214
   68HFI     F6 1303   0.359   2.551   3.423  0.3009  0.3694 -0.0409
   68HFI     H1 1304   0.246   2.831   3.414  0.1455 -0.1173  3.5332
   68HFI     H2 1305   0.083   2.662   3.563  0.1558  0.5656  0.8637
   69HFI     O1 1306   1.599   1.066   3.288 -0.2882  0.3791  0.4141
   69HFI     C1 1307   1.580   0.960   3.386 -0.1078 -0.2062 -0.0161
   69HFI     C2 1308   1.421   0.943   3.391 -0.0826 -0.6261  0.7858
   69HFI     F1 1309   1.379   0.863   3.492 -0.1532  0.3592  0.0697
   69HFI     F2 1310   1.376   0.880   3.276  0.3393 -0.0608 -0.0149
   69HFI     F3 1311   1.359   1.064   3.405  0.5761  0.4807 -0.1640
   69HFI     C3 1312   1.628   1.009   3.524  0.1353 -0.6852  0.3220
   69HFI     F4 1313   1.613   0.914   3.615  0.7468  0.4486 -0.8700
   69HFI     F5 1314   1.555   1.121   3.570  0.2520 -0.7709 -0.1516
   69HFI     F6 1315   1.762   1.038   3.524  0.0959 -0.0861  0.3229
   69HFI     H1 1316   1.514   1.102   3.257 -0.4971 -1.2045 -0.9584
   69HFI     H2 1317   1.626   0.863   3.368 -1.2437 -0.6151 -0.7685
   70HFI     O1 1318   2.636   2.345   0.391 -0.0293  0.5915  0.1240
   70HFI     C1 1319   2.493   2.374   0.409  0.2186  0.0615 -0.0834
   70HFI     C2 1320   2.461   2.518   0.358 -0.3164 -0.5230 -0.3810
   70HFI     F1 1321   2.325   2.544   0.352 -0.6713 -0.0284 -0.1261
   70HFI     F2 1322   2.507   2.532   0.230  0.3394 -0.1197 -0.1416
   70HFI     F3 1323   2.514   2.609   0.438 -0.3175  0.1301  0.1707
   70HFI     C3 1324   2.455   2.367   0.558 -0.1536  1.1649 -0.7997
   70HFI     F4 1325   2.469   2.241   0.598 -0.0698 -0.0985  0.1829
   70HFI     F5 1326   2.325   2.397   0.569  0.6043  0.5648 -0.0922
   70HFI     F6 1327   2.534   2.443   0.643  0.0977 -0.8899  0.3327
   70HFI     H1 1328   2.694   2.378   0.462  0.2546 -1.0666  0.6798
   70HFI     H2 1329   2.431   2.308   0.347 -0.2700  0.9539 -0.5654
   71HFI     O1 1330   2.494   2.707   3.061  0.5327  0.4705  0.3969
   71HFI     C1 1331   2.354   2.689   3.029 -1.1864  0.3369  0.4337
   71HFI     C2 1332   2.339   2.673   2.876 -0.1018  0.4226  0.2087
   71HFI     F1 1333   2.213   2.638   2.853  0.2437  0.2955  0.2933
   71HFI     F2 1334   2.412   2.559   2.841 -0.2248 -0.1605 -0.3641
   71HFI     F3 1335   2.378   2.786   2.802  0.4346 -0.3707  0.1413
   71HFI     C3 1336   2.262   2.798   3.091  0.2027  1.0573 -0.4577
   71HFI     F4 1337   2.130   2.759   3.090 -0.4339  0.0331  0.0375
   71HFI     F5 1338   2.275   2.914   3.022  0.0523  0.6125  0.2651
   71HFI     F6 1339   2.289   2.804   3.226  0.6445  0.6082 -0.1874
   71HFI     H1 1340   2.536   2.780   3.013  2.4809 -0.7746  0.1517
   71HFI     H2 1341   2.315   2.594   3.069 -0.1511 -0.6871 -0.9613
   72HFI     O1 1342   2.992   1.689   1.592  0.1097 -0.2948 -0.5285
   72HFI     C1 1343   3.105   1.661   1.503  0.3973  0.0621  0.5802
   72HFI     C2 1344   3.175   1.801   1.467 -0.1033 -0.0677 -0.3272
   72HFI     F1 1345   3.091   1.878   1.398  0.0573 -0.3110 -0.2837
   72HFI     F2 1346   3.288   1.782   1.391  0.4293 -0.4659  0.5041
   72HFI     F3 1347   3.211   1.864   1.584 -0.0125  0.3039  0.3073
   72HFI     C3 1348   3.075   1.568   1.388  0.3178  0.8657  0.3281
   72HFI     F4 1349   3.170   1.567   1.291 -0.0787  0.6086  0.1681
   72HFI     F5 1350   2.959   1.603   1.317  0.2396  0.3148 -0.2283
   72HFI     F6 1351   3.070   1.439   1.434  0.3174 -0.0778 -0.0349
   72HFI     H1 1352   2.932   1.613   1.582  0.3408 -0.8265  1.7361
   72HFI     H2 1353   3.178   1.606   1.565  0.3930  0.3265  0.8192
   73HFI     O1 1354   3.376   1.585   2.927 -0.0285  0.0047 -0.6231
   73HFI     C1 1355   3.312   1.484   3.015 -0.1190 -0.1376  0.0241
   73HFI     C2 1356   3.157   1.482   3.014 -0.8311 -0.4707  0.2766
   73HFI     F1 1357   3.117   1.499   2.889 -0.2612 -0.2531  0.1420
   73HFI     F2 1358   3.107   1.588   3.081 -0.3910 -0.1032  0.0592
   73HFI     F3 1359   3.102   1.368   3.062  0.0649  0.2106 -0.1915
   73HFI     C3 1360   3.377   1.508   3.161 -0.3068 -0.1164  0.1889
   73HFI     F4 1361   3.333   1.413   3.252  0.3505 -0.6993 -0.1112
   73HFI     F5 1362   3.358   1.631   3.210  0.3583  0.0991 -0.5925
   73HFI     F6 1363   3.511   1.504   3.154  0.3968 -0.6252 -0.3558
   73HFI     H1 1364   3.310   1.650   2.897  0.7716  0.4115 -1.4968
   73HFI     H2 1365   3.341   1.383   2.984  0.3641 -0.6047  1.9265
   74HFI     O1 1366   1.112   0.486   2.475  0.2785  0.1740  0.4861
   74HFI     C1 1367   1.115   0.609   2.400  1.3367  0.5053 -0.0267
   74HFI     C2 1368   1.026   0.722   2.469  0.5203 -0.2394 -0.2091
   74HFI     F1 1369   1.006   0.829   2.389 -0.5036 -0.0486 -0.0683
   74HFI     F2 1370   1.084   0.759   2.587 -0.3542 -0.6433 -0.5128
   74HFI     F3 1371   0.897   0.678   2.497  0.0958  0.1297 -0.1391
   74HFI     C3 1372   1.082   0.581   2.249  0.3388 -1.2588  0.0958
   74HFI     F4 1373   1.104   0.690   2.176  0.3281  0.4226  0.7333
   74HFI     F5 1374   0.961   0.538   2.226 -0.1494  0.4178 -0.0477
   74HFI     F6 1375   1.165   0.484   2.208  0.3849  0.0271  0.2995
   74HFI     H1 1376   1.023   0.446   2.473 -0.0390  0.8656  0.3132
   74HFI     H2 1377   1.213   0.657   2.408  1.4910 -0.1135  1.8922
   75HFI     O1 1378   1.857   3.380   1.345 -0.1616 -0.5658  0.2175
   75HFI     C1 1379   1.951   3.379   1.455 -1.1481  0.5530  0.0746
   75HFI     C2 1380   2.030   3.512   1.459 -0.4873 -0.1263  0.7106
   75HFI     F1 1381   2.068   3.541   1.328  0.1196  0.0721  0.4562
   75HFI     F2 1382   2.143   3.509   1.536 -0.8794 -0.6775  0.1102
   75HFI     F3 1383   1.961   3.618   1.500  0.2564 -0.2091  0.8117
   75HFI     C3 1384   2.035   3.245   1.457  0.6103  0.5421  0.5786
   75HFI     F4 1385   1.956   3.134   1.451 -0.0421 -0.5015 -0.2510
   75HFI     F5 1386   2.102   3.235   1.573 -0.0358 -0.4207 -0.2308
   75HFI     F6 1387   2.124   3.232   1.357  0.5767 -0.1326 -0.3962
   75HFI     H1 1388   1.900   3.347   1.264 -0.0918  1.2189 -0.4845
   75HFI     H2 1389   1.893   3.373   1.548 -0.9897  0.0180  0.1400
   76HFI     O1 1390   1.856   1.589   1.589 -0.6854 -0.3480 -0.3538
   76HFI     C1 1391   1.731   1.554   1.515  0.7681 -0.3055  0.1469
   76HFI     C2 1392   1.765   1.477   1.384 -0.2452  0.0952  0.3886
   76HFI     F1 1393   1.818   1.561   1.289  0.4297  0.6204 -0.0185
   76HFI     F2 1394   1.647   1.419   1.337 -0.5520  0.0797 -0.4459
   76HFI     F3 1395   1.855   1.382   1.410  0.0507 -0.5764 -0.0963
   76HFI     C3 1396   1.640   1.679   1.496 -0.2282  1.0291  0.3215
   76HFI     F4 1397   1.542   1.647   1.404  0.1644  0.1200 -0.0342
   76HFI     F5 1398   1.705   1.782   1.441  0.1307  0.4875 -0.0155
   76HFI     F6 1399   1.583   1.719   1.604 -0.1557 -0.2642  0.2994
   76HFI     H1 1400   1.900   1.505   1.612 -1.0712 -1.1046 -2.2417
   76HFI     H2 1401   1.667   1.484   1.571 -1.9448  0.9758 -1.2388
   77HFI     O1 1402   1.405   2.549   3.166 -0.2362 -0.1633 -0.1567
   77HFI     C1 1403   1.462   2.485   3.282  0.5975 -0.4766 -1.2926
   77HFI     C2 1404   1.496   2.597   3.393 -0.3950 -0.2950 -0.1785
   77HFI     F1 1405   1.379   2.666   3.423 -0.3101  0.5719  0.5465
   77HFI     F2 1406   1.583   2.690   3.340 -0.1803  0.6389  0.0179
   77HFI     F3 1407   1.538   2.551   3.506  0.4642  0.4044 -0.0710
   77HFI     C3 1408   1.584   2.391   3.250 -0.0922 -0.1590 -0.0547
   77HFI     F4 1409   1.699   2.461   3.239  0.2341 -0.5787 -0.0709
   77HFI     F5 1410   1.567   2.314   3.138  0.4962 -0.5087 -0.1700
   77HFI     F6 1411   1.602   2.304   3.350  0.4363 -0.2006 -0.2059
   77HFI     H1 1412   1.433   2.642   3.162  0.7364 -0.3218  2.2618
   77HFI     H2 1413   1.379   2.430   3.326  0.5456 -0.7472 -1.7341
   78HFI     O1 1414   2.645   1.089   1.438  0.3765  0.0550  0.2828
   78HFI     C1 1415   2.694   0.968   1.509 -0.3492 -0.1439 -0.6329
   78HFI     C2 1416   2.829   0.916   1.464 -0.6422  0.8647 -0.0422
   78HFI     F1 1417   2.816   0.838   1.357 -0.6329 -0.0526  0.4155
   78HFI     F2 1418   2.876   0.843   1.566 -0.9028  0.1055  0.3290
   78HFI     F3 1419   2.917   1.019   1.438  0.2311  0.5723 -0.0524
   78HFI     C3 1420   2.586   0.855   1.522 -0.0022 -0.3610  0.4949
   78HFI     F4 1421   2.543   0.811   1.401  0.1301  0.7179  0.3118
   78HFI     F5 1422   2.470   0.900   1.582 -0.4891 -0.1505  0.0371
   78HFI     F6 1423   2.630   0.758   1.602 -0.4474 -0.1280 -0.2503
   78HFI     H1 1424   2.620   1.064   1.347 -0.2022 -1.6371  0.9078
   78HFI     H2 1425   2.703   1.001   1.613 -4.1189  0.8614 -0.5542
   79HFI     O1 1426   0.218   0.837   3.131 -0.8025  0.0225 -0.3800
   79HFI     C1 1427   0.168   0.973   3.120 -0.1458 -0.4128  0.9167
   79HFI     C2 1428   0.068   0.990   3.238 -0.9946  0.0470 -0.1537
   79HFI     F1 1429   0.131   0.969   3.355 -0.0008 -0.4658  0.4354
   79HFI     F2 1430  -0.026   0.895   3.231 -0.7428  0.5055 -0.5605
   79HFI     F3 1431   0.010   1.108   3.229 -0.8198 -0.3145 -0.0532
   79HFI     C3 1432   0.122   1.006   2.974  0.2419 -0.1982 -0.1064
   79HFI     F4 1433   0.098   1.139   2.955  0.3402  0.0226  0.1601
   79HFI     F5 1434   0.004   0.940   2.950  0.1269 -0.1020 -0.2299
   79HFI     F6 1435   0.215   0.973   2.878  0.1350  0.0979 -0.4464
   79HFI     H1 1436   0.143   0.778   3.112 -1.1550  0.6544 -0.9381
   79HFI     H2 1437   0.259   1.035   3.125 -1.7712  2.4025 -1.8419
   80HFI     O1 1438   3.020   1.863   1.051  0.5172  0.0528 -0.2270
   80HFI     C1 1439   3.010   1.722   1.009 -0.1047  0.2854  0.2487
   80HFI     C2 1440   3.121   1.685   0.912 -0.1300  0.2596 -0.5833
   80HFI     F1 1441   3.241   1.701   0.973  0.3614 -0.3231  0.1123
   80HFI     F2 1442   3.117   1.779   0.811 -0.1919 -0.4150  0.3673
   80HFI     F3 1443   3.113   1.560   0.853 -0.0915  0.4716  0.0758
   80HFI     C3 1444   2.871   1.688   0.947 -0.8857  0.1357 -0.0892
   80HFI     F4 1445   2.846   1.560   0.930  0.6863  0.4153  0.1513
   80HFI     F5 1446   2.847   1.750   0.827 -0.0157  0.1973  0.0839
   80HFI     F6 1447   2.775   1.727   1.028  0.3326 -0.0141 -0.2890
   80HFI     H1 1448   2.985   1.926   0.986 -2.5161 -1.4061 -0.0963
   80HFI     H2 1449   3.025   1.656   1.095  0.9292  0.2119  0.0196
   81HFI     O1 1450   1.129   1.607   0.450  0.1976 -0.0359  0.0320
   81HFI     C1 1451   1.054   1.484   0.484 -1.0391  0.0409  0.2219
   81HFI     C2 1452   1.115   1.348   0.429  0.5344  0.2760 -0.0321
   81HFI     F1 1453   1.254   1.343   0.443 -0.4216 -0.2482 -0.1618
   81HFI     F2 1454   1.102   1.350   0.292  0.1692  0.0156 -0.3109
   81HFI     F3 1455   1.058   1.236   0.475  0.1940  0.0041  0.1334
   81HFI     C3 1456   0.903   1.492   0.450 -0.1581 -0.6083  0.2982
   81HFI     F4 1457   0.853   1.606   0.492 -0.0163 -0.5285 -0.2350
   81HFI     F5 1458   0.829   1.396   0.508 -0.1942  0.1843 -0.1235
   81HFI     F6 1459   0.889   1.483   0.314  0.0758  0.1370 -0.4721
   81HFI     H1 1460   1.122   1.632   0.356 -0.1495  3.4177  0.8852
   81HFI     H2 1461   1.072   1.471   0.591  0.2701 -0.1486 -0.0158
   82HFI     O1 1462   2.112   1.363   0.944 -0.5014 -0.1360  0.2062
   82HFI     C1 1463   2.009   1.455   0.992 -0.2644  0.2484  0.2008
   82HFI     C2 1464   1.879   1.379   1.004  0.1571 -0.1847  0.0423
   82HFI     F1 1465   1.840   1.324   0.892 -0.2501 -0.0557 -0.2378
   82HFI     F2 1466   1.773   1.454   1.042  0.0476  0.0166 -0.1438
   82HFI     F3 1467   1.881   1.286   1.093 -0.0466 -0.2700 -0.3233
   82HFI     C3 1468   2.005   1.586   0.913  0.1246  0.0836 -0.1785
   82HFI     F4 1469   1.940   1.685   0.985  0.0897  0.3848 -0.1403
   82HFI     F5 1470   1.946   1.577   0.790 -0.4899  0.1593 -0.1784
   82HFI     F6 1471   2.127   1.628   0.889  0.4192 -0.1930 -0.2348
   82HFI     H1 1472   2.085   1.341   0.853  0.2922 -0.6560  0.0860
   82HFI     H2 1473   2.031   1.475   1.097 -0.8136 -1.2974  0.6397
   83HFI     O1 1474   2.388   1.713   0.842 -0.7661  0.5151  0.3177
   83HFI     C1 1475   2.480   1.608   0.889 -0.7171 -0.5847 -0.4621
   83HFI     C2 1476   2.494   1.481   0.804 -0.0155  0.2728  0.3444
   83HFI     F1 1477   2.619   1.423   0.809  0.0108 -0.1292 -0.1346
   83HFI     F2 1478   2.470   1.509   0.676  0.4153 -0.4222  0.1947
   83HFI     F3 1479   2.399   1.387   0.834 -0.4346 -0.5985  0.2756
   83HFI     C3 1480   2.472   1.576   1.042 -0.3269 -0.3315 -0.3757
   83HFI     F4 1481   2.587   1.527   1.098 -0.0296 -0.4869  0.1188
   83HFI     F5 1482   2.370   1.490   1.078  0.1897 -0.2703  0.4356
   83HFI     F6 1483   2.445   1.689   1.116 -0.0895  0.2680  0.1282
   83HFI     H1 1484   2.301   1.670   0.840 -0.1744 -0.8237  2.2186
   83HFI     H2 1485   2.581   1.650   0.891 -0.8242 -0.3292 -0.4061
   84HFI     O1 1486   1.162   0.795   3.708  0.0856  0.3343  0.6864
   84HFI     C1 1487   1.136   0.654   3.743  0.0293  0.6988  0.4705
   84HFI     C2 1488   1.170   0.566   3.614  0.3480  0.0294  0.4915
   84HFI     F1 1489   1.129   0.434   3.616 -0.1320  0.6832 -0.0145
   84HFI     F2 1490   1.304   0.559   3.591 -0.3140  0.1275 -0.0877
   84HFI     F3 1491   1.121   0.622   3.498  0.1348  0.4356  0.0309
   84HFI     C3 1492   0.983   0.631   3.769  0.1198 -0.7765  0.3384
   84HFI     F4 1493   0.938   0.731   3.843  0.6940 -0.2130 -0.0017
   84HFI     F5 1494   0.956   0.516   3.828  1.0964 -0.1220 -0.1558
   84HFI     F6 1495   0.903   0.636   3.657  0.3137 -0.1636  0.7611
   84HFI     H1 1496   1.129   0.801   3.616 -0.4936 -0.3087  0.8513
   84HFI     H2 1497   1.197   0.617   3.826  1.8258 -0.0154 -1.1261
   85HFI     O1 1498   2.357   2.710   1.052 -0.1858  0.5262  0.0179
   85HFI     C1 1499   2.247   2.636   0.986 -0.2663 -0.2379  0.0309
   85HFI     C2 1500   2.116   2.635   1.074  0.4257 -0.9736 -0.1967
   85HFI     F1 1501   2.135   2.554   1.184 -0.0068  0.0497 -0.5537
   85HFI     F2 1502   2.006   2.594   1.000 -0.7848 -0.0817 -0.3566
   85HFI     F3 1503   2.082   2.753   1.126  0.4786 -0.2435 -0.3620
   85HFI     C3 1504   2.283   2.497   0.937 -0.3136  0.5952  0.1371
   85HFI     F4 1505   2.192   2.465   0.851 -0.1070  0.0693 -0.2736
   85HFI     F5 1506   2.279   2.395   1.037 -0.0352  0.0562 -0.0466
   85HFI     F6 1507   2.404   2.486   0.868  0.1748  0.3641  0.1859
   85HFI     H1 1508   2.407   2.758   0.984  1.0631 -0.3418  0.3089
   85HFI     H2 1509   2.220   2.697   0.899  0.6704 -1.8995 -1.4548
   86HFI     O1 1510   0.652   2.208   1.376  0.0960  0.0377 -0.5718
   86HFI     C1 1511   0.577   2.298   1.466  0.5239 -0.5460  0.2269
   86HFI     C2 1512   0.437   2.251   1.495 -0.0953  0.2897  0.1198
   86HFI     F1 1513   0.361   2.224   1.386 -0.3205 -0.7203  0.0127
   86HFI     F2 1514   0.373   2.350   1.558 -0.2642 -0.5995  0.2625
   86HFI     F3 1515   0.431   2.136   1.569  0.3499 -0.2379 -0.0440
   86HFI     C3 1516   0.595   2.452   1.434  0.3098 -0.9760 -0.2302
   86HFI     F4 1517   0.716   2.465   1.389 -0.2358 -0.0166  0.2437
   86HFI     F5 1518   0.583   2.538   1.547 -0.4851 -0.1916  0.2045
   86HFI     F6 1519   0.522   2.498   1.331 -0.5470 -0.2936 -0.5897
   86HFI     H1 1520   0.601   2.126   1.371  0.3048 -0.2837  1.9277
   86HFI     H2 1521   0.630   2.285   1.561  0.6712 -1.6670 -0.0053
   87HFI     O1 1522   2.681   0.566   3.604 -0.7661 -0.0561 -0.1440
   87HFI     C1 1523   2.680   0.704   3.645  0.1310  0.0891 -0.4904
   87HFI     C2 1524   2.524   0.753   3.644 -0.3195 -0.4093  0.2010
   87HFI     F1 1525   2.515   0.891   3.666  0.3376  0.5337 -0.2994
   87HFI     F2 1526   2.447   0.692   3.736 -0.1258  0.1739 -0.1120
   87HFI     F3 1527   2.466   0.721   3.525  0.6443 -0.3336  0.2685
   87HFI     C3 1528   2.790   0.790   3.580  0.0405  0.5428  0.0275
   87HFI     F4 1529   2.766   0.799   3.448  0.4510  0.2702 -0.0903
   87HFI     F5 1530   2.911   0.740   3.598 -0.4079  0.1969  0.3081
   87HFI     F6 1531   2.800   0.913   3.629  0.0540 -0.2666  0.0820
   87HFI     H1 1532   2.681   0.522   3.691 -0.9818 -0.3731 -0.3032
   87HFI     H2 1533   2.701   0.710   3.753  2.4067  0.1058 -0.9131
   88HFI     O1 1534   1.013   1.173   3.471 -0.4847 -0.1624  0.3200
   88HFI     C1 1535   0.919   1.162   3.582  0.5754  1.0128  0.1815
   88HFI     C2 1536   0.989   1.164   3.722 -0.2215  1.1188 -0.2662
   88HFI     F1 1537   0.906   1.125   3.818 -0.1001  0.2703 -0.3724
   88HFI     F2 1538   1.034   1.287   3.759  0.7697  0.5870 -0.0163
   88HFI     F3 1539   1.098   1.085   3.718  0.1127  0.2677  0.2097
   88HFI     C3 1540   0.840   1.034   3.562  0.4118  0.1587 -0.4592
   88HFI     F4 1541   0.791   1.032   3.435 -0.2779 -0.4715  0.3375
   88HFI     F5 1542   0.731   1.034   3.640 -0.0204  0.4967  0.0019
   88HFI     F6 1543   0.910   0.912   3.580 -0.5572  0.1452  0.1986
   88HFI     H1 1544   0.960   1.205   3.395 -2.0440 -0.2087  1.3619
   88HFI     H2 1545   0.852   1.248   3.588 -1.1474 -0.1130 -1.9800
   89HFI     O1 1546   0.968   0.308   2.876  0.9848 -0.4104  0.1539
   89HFI     C1 1547   0.852   0.258   2.808 -0.5557 -0.2716 -0.0356
   89HFI     C2 1548   0.817   0.357   2.685  0.0888  0.7440 -0.4410
   89HFI     F1 1549   0.684   0.345   2.650 -0.0228 -0.1002  0.0058
   89HFI     F2 1550   0.889   0.327   2.575 -0.2502 -0.4893 -0.3963
   89HFI     F3 1551   0.842   0.485   2.715  0.1228  0.3108 -0.0116
   89HFI     C3 1552   0.729   0.219   2.899 -0.1193 -0.0663  0.1837
   89HFI     F4 1553   0.641   0.141   2.832 -0.3014  0.3252 -0.1702
   89HFI     F5 1554   0.652   0.325   2.941  0.2686  0.1085  0.6476
   89HFI     F6 1555   0.772   0.149   3.002  0.3839 -0.2543 -0.0028
   89HFI     H1 1556   0.953   0.396   2.914  2.0071  0.1130 -0.6147
   89HFI     H2 1557   0.876   0.163   2.759  0.7515  0.4411 -0.8088
   90HFI     O1 1558   1.794   2.726   3.736  0.2147 -0.1467  0.1777
   90HFI     C1 1559   1.937   2.690   3.746 -0.1624 -0.4609 -0.0586
   90HFI     C2 1560   1.965   2.549   3.691 -0.1249  0.1375  0.0956
   90HFI     F1 1561   2.089   2.512   3.676  0.3278 -0.0612 -0.3636
   90HFI     F2 1562   1.892   2.533   3.579  0.3118 -0.4179 -0.0138
   90HFI     F3 1563   1.906   2.450   3.776 -0.0051  0.0414 -0.0091
   90HFI     C3 1564   1.993   2.713   3.887 -0.0655 -0.1267 -0.9184
   90HFI     F4 1565   1.914   2.666   3.984 -0.1016  0.0753 -0.1189
   90HFI     F5 1566   2.016   2.844   3.910  0.0603  0.0726 -0.1620
   90HFI     F6 1567   2.107   2.646   3.904  0.0804 -0.1907  0.0601
   90HFI     H1 1568   1.769   2.684   3.652 -2.3735  2.3864 -0.3623
   90HFI     H2 1569   1.998   2.757   3.684 -0.5688 -0.0220  0.0106
   91HFI     O1 1570   2.657   3.423   2.237 -0.2247  0.1662 -0.0234
   91HFI     C1 1571   2.698   3.491   2.357  0.6164 -0.2395 -0.0856
   91HFI     C2 1572   2.845   3.530   2.334 -0.1669  0.0842  0.1664
   91HFI     F1 1573   2.922   3.426   2.362  0.0709 -0.1193  0.5044
   91HFI     F2 1574   2.885   3.628   2.426  0.1844 -0.1455 -0.0952
   91HFI     F3 1575   2.869   3.572   2.209  0.3019 -0.0391  0.0361
   91HFI     C3 1576   2.675   3.420   2.489 -0.0238  0.8265  0.0139
   91HFI     F4 1577   2.729   3.488   2.598  0.3711  0.2731 -0.7203
   91HFI     F5 1578   2.718   3.293   2.481  0.3835 -0.2456  0.3626
   91HFI     F6 1579   2.543   3.416   2.512 -0.2556  0.1195 -0.0337
   91HFI     H1 1580   2.732   3.367   2.213 -0.8966 -0.4987 -0.6150
   91HFI     H2 1581   2.650   3.588   2.370 -1.0843 -1.0411 -0.2712
   92HFI     O1 1582   1.586   2.325   1.289  0.1809  0.0087  0.0639
   92HFI     C1 1583   1.635   2.222   1.378 -0.0835  0.3041  0.2564
   92HFI     C2 1584   1.534   2.171   1.483 -0.2058 -0.5016  0.4661
   92HFI     F1 1585   1.587   2.070   1.561 -0.2524 -1.1397 -0.1677
   92HFI     F2 1586   1.416   2.120   1.431 -0.3447  0.4430  0.1773
   92HFI     F3 1587   1.503   2.270   1.577  0.0836  0.0453  0.7002
   92HFI     C3 1588   1.770   2.259   1.443 -0.2426 -0.3508  0.9073
   92HFI     F4 1589   1.821   2.164   1.525 -0.0163 -0.2411 -0.0405
   92HFI     F5 1590   1.758   2.374   1.512 -0.0089  0.0551  0.0944
   92HFI     F6 1591   1.854   2.278   1.342 -0.3272 -0.0234  0.0959
   92HFI     H1 1592   1.618   2.406   1.332 -0.7234 -1.6207  4.0188
   92HFI     H2 1593   1.652   2.135   1.313  1.2110  0.5754  0.2215
   93HFI     O1 1594   0.749   2.543   0.858  0.0081 -0.2271  0.0065
   93HFI     C1 1595   0.822   2.424   0.899 -0.1584  0.5144 -0.5199
   93HFI     C2 1596   0.804   2.391   1.045 -1.0145  0.4099 -0.4775
   93HFI     F1 1597   0.891   2.457   1.129 -0.0679  0.3648  0.2169
   93HFI     F2 1598   0.832   2.264   1.064  0.3243  0.1146 -0.9157
   93HFI     F3 1599   0.675   2.420   1.083 -0.3119 -0.0198  0.0906
   93HFI     C3 1600   0.977   2.415   0.861 -0.2779  0.1116  0.6207
   93HFI     F4 1601   0.988   2.411   0.725  0.0389 -0.2645  0.2623
   93HFI     F5 1602   1.040   2.305   0.908 -0.2211 -0.4499  0.0948
   93HFI     F6 1603   1.044   2.519   0.904 -0.0376 -0.0102  0.0884
   93HFI     H1 1604   0.667   2.548   0.910 -0.4974  1.3697 -0.8820
   93HFI     H2 1605   0.778   2.335   0.851  0.2929  0.1522 -0.2595
   94HFI     O1 1606   0.947   0.570   3.010 -0.2931  0.1268 -0.5481
   94HFI     C1 1607   0.928   0.583   3.156  0.2423  0.0913  0.2290
   94HFI     C2 1608   1.010   0.706   3.203 -0.4829 -0.0464  0.0196
   94HFI     F1 1609   1.137   0.682   3.205 -0.1351 -0.3828 -0.2876
   94HFI     F2 1610   0.967   0.742   3.329 -0.0263 -0.0653  0.0380
   94HFI     F3 1611   0.992   0.808   3.115 -0.2383  0.5897 -0.3723
   94HFI     C3 1612   0.947   0.450   3.235 -0.0871  0.5801  0.1607
   94HFI     F4 1613   0.906   0.461   3.366 -0.6007  0.0106 -0.0176
   94HFI     F5 1614   1.079   0.413   3.241  0.2917  0.6142  0.0337
   94HFI     F6 1615   0.882   0.347   3.178 -0.0487  0.0379  0.1277
   94HFI     H1 1616   0.953   0.660   2.973  0.1387  0.5353  0.4914
   94HFI     H2 1617   0.825   0.610   3.181 -0.7655 -3.8464  0.5647
   95HFI     O1 1618   2.215   1.177   0.117 -0.3900  0.5671 -0.5530
   95HFI     C1 1619   2.197   1.079   0.009 -0.4924  0.7055 -0.5311
   95HFI     C2 1620   2.069   1.122  -0.070  0.6689  0.8861 -0.9607
   95HFI     F1 1621   1.961   1.103  -0.004 -0.2791 -0.3045 -0.2765
   95HFI     F2 1622   2.062   1.054  -0.187 -0.1993 -0.1209 -0.0923
   95HFI     F3 1623   2.082   1.250  -0.100  0.7624  0.1843  0.4802
   95HFI     C3 1624   2.197   0.932   0.062  1.0056  0.0607  0.5647
   95HFI     F4 1625   2.102   0.926   0.154  0.0317  0.1421  0.0618
   95HFI     F5 1626   2.305   0.893   0.122  0.3111  0.5535 -0.3792
   95HFI     F6 1627   2.180   0.841  -0.035 -0.0291  0.2038 -0.2380
   95HFI     H1 1628   2.194   1.264   0.079  0.6565  0.7248 -0.7874
   95HFI     H2 1629   2.283   1.081  -0.058  2.2411  0.6187  2.8018
   96HFI     O1 1630   3.375   2.295   3.661 -0.5274  0.0227  0.4422
   96HFI     C1 1631   3.308   2.169   3.612 -0.0067  0.4214 -0.5267
   96HFI     C2 1632   3.206   2.092   3.711  0.7109 -0.6091  0.3548
   96HFI     F1 1633   3.142   2.192   3.773  0.0061  0.1138 -0.0892
   96HFI     F2 1634   3.261   2.023   3.810 -0.5519  0.0298 -0.2168
   96HFI     F3 1635   3.116   2.014   3.649  0.2066  0.2085  0.2742
   96HFI     C3 1636   3.424   2.075   3.573  0.5196  1.0648 -0.3256
   96HFI     F4 1637   3.484   2.141   3.473  0.1629 -0.3002 -0.4060
   96HFI     F5 1638   3.379   1.958   3.532  0.3262  0.1636  0.1859
   96HFI     F6 1639   3.500   2.057   3.686 -0.2346 -0.3587 -0.1284
   96HFI     H1 1640   3.457   2.274   3.709  0.5546 -0.6375 -1.6429
   96HFI     H2 1641   3.244   2.200   3.528 -1.6050  1.7330  1.1283
   97HFI     O1 1642   2.887   2.037   1.314  0.4492  0.0295 -0.3194
   97HFI     C1 1643   2.773   2.056   1.396 -1.3937  0.0847  0.2258
   97HFI     C2 1644   2.804   2.119   1.532 -0.7301  0.3911 -0.0161
   97HFI     F1 1645   2.892   2.032   1.593  0.5826  0.3215 -0.6266
   97HFI     F2 1646   2.700   2.137   1.616  0.2748 -0.2706 -0.3481
   97HFI     F3 1647   2.866   2.236   1.513  0.2198  0.7100  0.4106
   97HFI     C3 1648   2.697   1.922   1.395 -0.0091  0.0051 -0.9260
   97HFI     F4 1649   2.781   1.814   1.406 -0.8883  0.3757 -0.0824
   97HFI     F5 1650   2.629   1.908   1.278  0.1547  0.2555 -0.6253
   97HFI     F6 1651   2.608   1.912   1.494  0.8374 -0.6010  0.1001
   97HFI     H1 1652   2.958   1.980   1.350 -0.8913 -0.9820  0.7551
   97HFI     H2 1653   2.718   2.126   1.332 -0.2727  0.0600 -0.7950
   98HFI     O1 1654   0.807   1.003   1.078 -0.1946 -0.1281 -0.0482
   98HFI     C1 1655   0.837   1.056   0.945 -0.0693 -0.0776 -0.7405
   98HFI     C2 1656   0.885   0.949   0.848  0.1188  0.0595 -0.0255
   98HFI     F1 1657   1.022   0.943   0.835  0.3931 -0.3533 -0.0490
   98HFI     F2 1658   0.835   0.983   0.728 -0.4594  0.1978 -0.6499
   98HFI     F3 1659   0.832   0.826   0.891  0.2544 -0.3288  0.0626
   98HFI     C3 1660   0.919   1.182   0.940 -0.4922  0.3724  0.4758
   98HFI     F4 1661   1.038   1.172   1.008  0.2478  0.1444  0.2727
   98HFI     F5 1662   0.856   1.286   0.997  0.2851 -0.5281  0.1454
   98HFI     F6 1663   0.950   1.216   0.811  0.6238 -0.4224 -0.1325
   98HFI     H1 1664   0.879   0.971   1.136  0.2899  0.8624 -0.0889
   98HFI     H2 1665   0.743   1.086   0.897 -0.0316  3.1080  1.0261
   99HFI     O1 1666   1.782   2.307   2.750  0.0946 -0.3806 -0.8151
   99HFI     C1 1667   1.919   2.276   2.798  0.0899 -0.0281  1.1306
   99HFI     C2 1668   1.962   2.128   2.783  0.6786  0.7460 -0.0492
   99HFI     F1 1669   1.950   2.063   2.899  0.4741 -0.1421 -0.2295
   99HFI     F2 1670   2.087   2.116   2.738  0.6089  0.2317 -0.0803
   99HFI     F3 1671   1.878   2.068   2.696 -0.5092  0.6096 -0.1047
   99HFI     C3 1672   1.944   2.338   2.936 -0.0445 -0.0232  0.5456
   99HFI     F4 1673   1.952   2.472   2.920 -0.2294  0.1399  0.1666
   99HFI     F5 1674   2.062   2.298   2.994  0.1987  0.7524 -0.4456
   99HFI     F6 1675   1.841   2.303   3.022  0.2312 -0.2866 -0.1963
   99HFI     H1 1676   1.767   2.268   2.663  0.5278  0.9702 -1.5115
   99HFI     H2 1677   1.990   2.331   2.736 -2.1672  0.9823 -0.6126
  100HFI     O1 1678   1.076   2.193   1.335 -0.3171  0.4260 -0.2292
  100HFI     C1 1679   1.068   2.334   1.370 -0.4655 -0.4649 -0.1023
  100HFI     C2 1680   1.182   2.419   1.300 -0.1370 -0.5479 -0.6382
  100HFI     F1 1681   1.308   2.398   1.352  0.2721  0.2708  0.1284
  100HFI     F2 1682   1.157   2.549   1.304  0.7669  0.5102 -0.2868
  100HFI     F3 1683   1.190   2.382   1.170  0.3119 -0.1460 -0.5170
  100HFI     C3 1684   1.062   2.333   1.520  0.0686  0.2115 -0.2523
  100HFI     F4 1685   0.944   2.289   1.578  0.2284  0.3305  0.4074
  100HFI     F5 1686   1.072   2.463   1.559  0.6209 -0.0779  0.4282
  100HFI     F6 1687   1.162   2.255   1.573 -0.5273 -0.1310 -0.1140
  100HFI     H1 1688   1.167   2.173   1.309  0.8228 -0.4754  4.1150
  100HFI     H2 1689   0.976   2.383   1.337 -0.4401  1.2857  2.3516
  101HFI     O1 1690   1.418   1.570   2.753  0.4946 -0.4977  0.1464
  101HFI     C1 1691   1.537   1.482   2.721 -0.8683 -0.5395  0.2163
  101HFI     C2 1692   1.505   1.362   2.619 -0.2140 -0.0506 -0.7389
  101HFI     F1 1693   1.498   1.421   2.497 -0.0552  0.7250 -0.1497
  101HFI     F2 1694   1.399   1.294   2.645 -0.2630  0.1813 -0.4438
  101HFI     F3 1695   1.607   1.268   2.620 -0.4015 -0.0207  0.1069
  101HFI     C3 1696   1.599   1.437   2.854 -1.1071  0.0369  0.0807
  101HFI     F4 1697   1.522   1.352   2.927 -0.4453 -0.0554  0.4760
  101HFI     F5 1698   1.621   1.544   2.940  0.6981  0.0967  0.6314
  101HFI     F6 1699   1.719   1.389   2.826  0.4495  0.0653  0.0159
  101HFI     H1 1700   1.448   1.648   2.803 -1.9718  1.1261 -0.8081
  101HFI     H2 1701   1.617   1.540   2.675 -0.6527  0.0351  1.2874
  102HFI     O1 1702   0.052   0.543   3.456 -0.4271 -0.4011  0.4001
  102HFI     C1 1703  -0.064   0.457   3.417  0.0410 -0.1061  0.1202
  102HFI     C2 1704  -0.181   0.534   3.368  0.2963  0.9367 -0.3988
  102HFI     F1 1705  -0.162   0.589   3.244  0.0473 -0.1851 -0.4339
  102HFI     F2 1706  -0.212   0.641   3.453  0.0528 -0.3790 -0.3561
  102HFI     F3 1707  -0.294   0.464   3.356 -0.4211  0.0835 -0.4684
  102HFI     C3 1708  -0.098   0.351   3.532  0.1777 -0.1101 -0.2417
  102HFI     F4 1709  -0.168   0.247   3.493  0.0052  0.3553  0.1351
  102HFI     F5 1710  -0.173   0.407   3.628  0.0280 -0.4326 -0.1888
  102HFI     F6 1711   0.012   0.309   3.597  0.1308 -0.7792  0.1103
  102HFI     H1 1712   0.026   0.631   3.488 -4.3770 -0.7001 -1.6072
  102HFI     H2 1713  -0.036   0.398   3.330  0.4418  0.7397 -0.3304
  103HFI     O1 1714   2.692   1.455   0.197  0.1329 -0.7798  0.3911
  103HFI     C1 1715   2.598   1.366   0.126 -0.3871 -0.0295 -0.0189
  103HFI     C2 1716   2.672   1.283   0.027 -0.1373  0.6693  0.2491
  103HFI     F1 1717   2.597   1.196  -0.042 -0.1427 -0.1929  0.5554
  103HFI     F2 1718   2.768   1.213   0.089  0.4760  0.2278 -0.0010
  103HFI     F3 1719   2.740   1.348  -0.072 -0.3393  0.2928 -0.5224
  103HFI     C3 1720   2.481   1.451   0.076 -0.1482 -0.0757  0.6459
  103HFI     F4 1721   2.528   1.536  -0.020  0.3064  0.0917 -0.0572
  103HFI     F5 1722   2.438   1.528   0.182 -0.1392 -0.2586 -0.3121
  103HFI     F6 1723   2.371   1.385   0.027 -0.0497 -0.6416  0.1625
  103HFI     H1 1724   2.684   1.544   0.159  2.7122 -0.5460  0.3401
  103HFI     H2 1725   2.553   1.298   0.199 -1.6021  1.3908  0.6030
  104HFI     O1 1726   2.064   2.400   3.390 -0.2923  0.0799 -0.4148
  104HFI     C1 1727   2.194   2.361   3.446 -0.4492  0.3253 -0.3795
  104HFI     C2 1728   2.299   2.488   3.429 -0.3352 -0.2675  0.4819
  104HFI     F1 1729   2.392   2.473   3.527  0.3507 -0.0878  0.1883
  104HFI     F2 1730   2.236   2.611   3.453 -0.1090 -0.0843  0.8584
  104HFI     F3 1731   2.360   2.487   3.310  0.3088 -0.0212 -0.6750
  104HFI     C3 1732   2.265   2.242   3.380 -0.0738  0.5263  0.3774
  104HFI     F4 1733   2.271   2.246   3.241 -0.0304  0.0146  0.2866
  104HFI     F5 1734   2.192   2.138   3.416 -0.0288 -0.0132  0.3343
  104HFI     F6 1735   2.391   2.219   3.420  0.3293 -0.5086  0.5280
  104HFI     H1 1736   1.997   2.333   3.412 -0.3034  0.8312  1.8885
  104HFI     H2 1737   2.178   2.339   3.553  0.9500  0.6001 -0.1121
  105HFI     O1 1738   2.078   0.168   0.518  0.2296 -0.7727 -0.2823
  105HFI     C1 1739   2.010   0.061   0.449 -0.2751  0.4333  0.6411
  105HFI     C2 1740   1.904   0.122   0.349  0.3056  0.2816  0.3863
  105HFI     F1 1741   1.839   0.222   0.408 -0.1614  0.1033  0.1147
  105HFI     F2 1742   1.818   0.020   0.315  0.2343 -0.2834 -0.6601
  105HFI     F3 1743   1.952   0.164   0.230 -0.5849 -0.0091 -0.0887
  105HFI     C3 1744   1.951  -0.043   0.552 -0.1094  0.2111 -0.6583
  105HFI     F4 1745   1.926  -0.162   0.484  0.5131  0.6086  0.1696
  105HFI     F5 1746   1.836  -0.005   0.614 -0.1302  0.6877 -0.3302
  105HFI     F6 1747   2.050  -0.073   0.639  0.0967  0.0081  0.2410
  105HFI     H1 1748   2.031   0.251   0.499 -2.0429 -1.9975 -0.2919
  105HFI     H2 1749   2.076   0.000   0.385 -1.7403 -0.4156 -0.0991
  106HFI     O1 1750   1.325   3.436   1.450 -0.0933  0.1897 -0.1308
  106HFI     C1 1751   1.330   3.310   1.538 -0.4948 -0.5272  0.2252
  106HFI     C2 1752   1.465   3.239   1.517 -0.1286 -0.2718 -0.4544
  106HFI     F1 1753   1.496   3.236   1.387 -0.1558  0.0737 -0.5117
  106HFI     F2 1754   1.458   3.111   1.559 -0.5013  0.3216  0.1352
  106HFI     F3 1755   1.568   3.302   1.583 -0.5084 -0.3304 -0.2480
  106HFI     C3 1756   1.203   3.226   1.532  0.0593 -0.0810 -0.5054
  106HFI     F4 1757   1.175   3.187   1.405  0.5115 -0.1633  0.5528
  106HFI     F5 1758   1.101   3.297   1.588 -0.2270 -0.5962 -0.4206
  106HFI     F6 1759   1.211   3.114   1.605  0.1805  0.1545 -0.2284
  106HFI     H1 1760   1.275   3.412   1.371 -0.0289  0.5227 -0.2747
  106HFI     H2 1761   1.330   3.339   1.643  0.9898 -0.9180  0.3345
  107HFI     O1 1762   0.836   3.072   1.317 -0.1502  0.3293  0.5090
  107HFI     C1 1763   0.901   2.966   1.395  0.1127  0.0129  0.0840
  107HFI     C2 1764   0.884   2.820   1.348  0.7950  0.2800  0.3831
  107HFI     F1 1765   0.756   2.773   1.358 -0.1220  0.2140  0.1387
  107HFI     F2 1766   0.955   2.730   1.422  0.0443 -0.4382 -0.1493
  107HFI     F3 1767   0.925   2.811   1.221  0.0674 -0.4182  0.4140
  107HFI     C3 1768   0.859   2.982   1.538 -0.2853 -0.0455  0.6775
  107HFI     F4 1769   0.926   2.898   1.622 -0.4017  0.0757 -0.0934
  107HFI     F5 1770   0.725   2.968   1.555 -0.2725  0.5185 -0.1519
  107HFI     F6 1771   0.892   3.109   1.572 -0.2937  0.3776 -0.1440
  107HFI     H1 1772   0.837   3.149   1.376 -0.7504  2.4810 -2.1557
  107HFI     H2 1773   1.009   2.986   1.397  0.6507 -2.7519  0.3617
  108HFI     O1 1774   0.925   1.719   1.097  0.0505  0.2226  0.2807
  108HFI     C1 1775   0.835   1.789   1.004  0.4652 -0.9351 -0.1493
  108HFI     C2 1776   0.771   1.691   0.897  0.1913 -1.2924 -0.0053
  108HFI     F1 1777   0.681   1.620   0.956  0.4562  0.1315 -0.2486
  108HFI     F2 1778   0.869   1.611   0.845  0.0071 -0.8121 -0.0367
  108HFI     F3 1779   0.713   1.758   0.797  0.0566  0.6194  0.2685
  108HFI     C3 1780   0.920   1.906   0.936 -0.2459 -0.0821 -0.3497
  108HFI     F4 1781   0.847   1.993   0.868  0.5273 -0.4353  0.0428
  108HFI     F5 1782   1.016   1.863   0.850  0.4473 -0.5675  0.1004
  108HFI     F6 1783   0.975   1.976   1.033  0.0251 -0.3422 -0.6024
  108HFI     H1 1784   0.987   1.784   1.135  0.4750  1.3638 -2.2718
  108HFI     H2 1785   0.746   1.832   1.051  0.2823  0.3384 -1.6299
  109HFI     O1 1786   3.294   3.154   0.348  0.1327 -0.2007  0.2048
  109HFI     C1 1787   3.292   3.087   0.222  0.3667 -0.0792  0.0963
  109HFI     C2 1788   3.369   2.948   0.225 -0.1035  0.1028 -0.0871
  109HFI     F1 1789   3.320   2.860   0.317 -0.1298 -0.4215 -0.3280
  109HFI     F2 1790   3.491   2.973   0.266 -0.0499 -0.8699  0.3321
  109HFI     F3 1791   3.378   2.894   0.104 -0.4418  0.0845  0.5495
  109HFI     C3 1792   3.321   3.193   0.109  0.3407 -0.4182 -0.6027
  109HFI     F4 1793   3.329   3.138  -0.011 -0.2687 -0.3459 -0.0339
  109HFI     F5 1794   3.429   3.270   0.134 -0.1827  0.5839  0.1541
  109HFI     F6 1795   3.215   3.280   0.102 -0.0669  0.0627  0.6603
  109HFI     H1 1796   3.230   3.227   0.354  1.8873  1.1452  5.1325
  109HFI     H2 1797   3.189   3.055   0.204  0.1789  0.6514 -0.1618
  110HFI     O1 1798   2.069   3.097   0.294  0.0855  0.7940  0.5863
  110HFI     C1 1799   2.130   3.035   0.409 -0.2638 -0.3646  0.5906
  110HFI     C2 1800   2.283   3.061   0.409  0.4492  0.1639 -0.6376
  110HFI     F1 1801   2.299   3.197   0.411 -0.1018  0.4033 -0.4370
  110HFI     F2 1802   2.349   3.009   0.299 -0.0890 -0.4601 -0.6210
  110HFI     F3 1803   2.343   3.017   0.524  0.5100  0.0188 -0.7727
  110HFI     C3 1804   2.096   2.881   0.419  0.5596 -0.2207 -0.1905
  110HFI     F4 1805   2.166   2.800   0.334 -0.1173 -0.3136 -0.0576
  110HFI     F5 1806   1.965   2.853   0.407  0.1133 -0.0417  0.0510
  110HFI     F6 1807   2.127   2.845   0.545 -0.6605 -0.3602  0.0487
  110HFI     H1 1808   1.972   3.092   0.297  0.0884 -2.8788 -1.9086
  110HFI     H2 1809   2.091   3.080   0.501 -0.7512  0.1747  0.1203
  111HFI     O1 1810   1.357   2.683   1.584  0.3189  0.6639  0.1011
  111HFI     C1 1811   1.433   2.779   1.503 -0.1199  0.7392 -0.3177
  111HFI     C2 1812   1.366   2.810   1.371 -0.0411  0.5042  0.0835
  111HFI     F1 1813   1.230   2.818   1.379 -0.9936  1.1778 -0.0512
  111HFI     F2 1814   1.395   2.707   1.292  0.1895  0.2376  0.1814
  111HFI     F3 1815   1.417   2.927   1.313 -0.1117  0.0423  0.8098
  111HFI     C3 1816   1.581   2.740   1.485 -0.0867 -0.1401 -0.9280
  111HFI     F4 1817   1.638   2.745   1.607  0.4712  0.0650 -0.3355
  111HFI     F5 1818   1.644   2.827   1.407 -0.0419  0.5952  0.5577
  111HFI     F6 1819   1.603   2.618   1.427 -0.6877  0.2477  0.3108
  111HFI     H1 1820   1.265   2.705   1.564 -0.0696 -0.2273  0.8202
  111HFI     H2 1821   1.432   2.875   1.555 -2.0543  1.0370 -0.8616
  112HFI     O1 1822   1.289   3.354   1.176 -0.1631  0.0846 -0.3129
  112HFI     C1 1823   1.205   3.292   1.074 -0.2556 -0.1192  0.3228
  112HFI     C2 1824   1.059   3.342   1.069  0.1669 -0.6338  0.8268
  112HFI     F1 1825   0.986   3.324   1.185  0.2065 -0.3883  0.0734
  112HFI     F2 1826   0.990   3.275   0.974 -0.0853 -0.0161 -0.4186
  112HFI     F3 1827   1.047   3.473   1.032 -0.0717 -0.2356  0.0286
  112HFI     C3 1828   1.219   3.132   1.069 -0.1228  0.3512 -0.2461
  112HFI     F4 1829   1.352   3.102   1.097 -0.0840  0.1063  0.2734
  112HFI     F5 1830   1.190   3.078   0.947 -0.2533  0.0407  0.0604
  112HFI     F6 1831   1.138   3.071   1.163 -0.0723 -0.1387 -0.0195
  112HFI     H1 1832   1.383   3.339   1.160  0.0311  0.2699  0.6223
  112HFI     H2 1833   1.244   3.321   0.976 -0.1957 -0.4017  0.2608
  113HFI     O1 1834   1.887   0.935   1.340 -0.2327  0.6634 -0.1004
  113HFI     C1 1835   1.743   0.963   1.348  0.6124  0.3195 -1.2807
  113HFI     C2 1836   1.696   0.997   1.497 -0.3242 -0.5309  0.4287
  113HFI     F1 1837   1.570   1.041   1.503  0.0188 -0.1132  0.4009
  113HFI     F2 1838   1.776   1.104   1.545 -0.5286  0.1025  0.1349
  113HFI     F3 1839   1.711   0.894   1.584 -0.1374  0.1794 -0.3988
  113HFI     C3 1840   1.665   0.848   1.277  0.1829  0.1248 -0.4245
  113HFI     F4 1841   1.527   0.856   1.295 -0.1232 -0.2998  0.2227
  113HFI     F5 1842   1.715   0.735   1.328 -0.6095  0.4196 -0.5532
  113HFI     F6 1843   1.683   0.845   1.147  0.3933  0.2535  0.2348
  113HFI     H1 1844   1.918   0.886   1.418 -1.8107 -1.1263 -0.5421
  113HFI     H2 1845   1.720   1.051   1.287  0.1932 -0.2155 -1.8988
  114HFI     O1 1846   1.651   2.338   2.502 -0.3922 -0.2093  0.5802
  114HFI     C1 1847   1.585   2.332   2.368 -0.1849  0.4312 -0.1166
  114HFI     C2 1848   1.564   2.480   2.324 -0.1977  0.8925  0.2632
  114HFI     F1 1849   1.513   2.554   2.421  0.2326  0.0564 -0.1519
  114HFI     F2 1850   1.493   2.486   2.208  0.0918 -0.3086 -0.2470
  114HFI     F3 1851   1.682   2.535   2.293 -0.0956 -0.0877 -0.3631
  114HFI     C3 1852   1.456   2.249   2.373 -0.3147  0.4539  0.0665
  114HFI     F4 1853   1.354   2.311   2.446 -0.2699 -0.8370  0.2874
  114HFI     F5 1854   1.488   2.130   2.427 -0.1784 -0.0209 -0.0262
  114HFI     F6 1855   1.418   2.219   2.241  0.4888 -0.2001 -0.6430
  114HFI     H1 1856   1.644   2.426   2.543 -0.6241  0.6148 -1.1811
  114HFI     H2 1857   1.662   2.278   2.312 -0.6051 -0.3277  0.0251
  115HFI     O1 1858   1.243   2.175   3.457  0.7041  0.1777 -0.0215
  115HFI     C1 1859   1.231   2.047   3.392  0.1731  0.6823 -0.3516
  115HFI     C2 1860   1.116   1.956   3.444 -0.7357 -0.3185  0.0664
  115HFI     F1 1861   1.004   2.027   3.475 -0.6908 -0.2418  0.6707
  115HFI     F2 1862   1.151   1.890   3.553  0.0052  0.1838 -0.6117
  115HFI     F3 1863   1.087   1.864   3.355 -0.3680 -0.0046  0.2797
  115HFI     C3 1864   1.353   1.965   3.373 -0.5445 -0.2341 -0.3649
  115HFI     F4 1865   1.390   1.913   3.489 -0.1604  0.7620 -0.4162
  115HFI     F5 1866   1.454   2.043   3.330 -0.1790  0.7191 -0.3945
  115HFI     F6 1867   1.337   1.866   3.276  0.4584  0.2312  0.0718
  115HFI     H1 1868   1.166   2.183   3.515  0.6307 -1.7950  0.1760
  115HFI     H2 1869   1.203   2.071   3.288 -1.0680  0.6853 -0.0257
  116HFI     O1 1870   0.371   0.384   0.368  0.4145 -0.2512  0.0598
  116HFI     C1 1871   0.327   0.391   0.510 -0.2144  0.0105 -0.0017
  116HFI     C2 1872   0.178   0.353   0.529 -0.6417  0.2258 -0.3302
  116HFI     F1 1873   0.099   0.431   0.453  0.2309 -0.0533  0.5645
  116HFI     F2 1874   0.146   0.352   0.659 -0.0137 -0.3324  0.1759
  116HFI     F3 1875   0.149   0.227   0.486  0.7077 -0.4927  0.1185
  116HFI     C3 1876   0.350   0.535   0.577 -0.3686  1.2835  0.3682
  116HFI     F4 1877   0.328   0.533   0.712  0.3402  0.0239  0.9485
  116HFI     F5 1878   0.261   0.619   0.528 -0.5091  0.0622  0.4078
  116HFI     F6 1879   0.473   0.578   0.547 -0.2366  0.0725 -0.0727
  116HFI     H1 1880   0.468   0.375   0.369  0.4447  0.0755  0.1627
  116HFI     H2 1881   0.383   0.318   0.570  2.1563  1.5679 -0.2494
  117HFI     O1 1882   0.609   2.860   1.109  0.1013 -0.5207 -0.2908
  117HFI     C1 1883   0.595   3.002   1.067 -0.7584  0.3112 -0.1947
  117HFI     C2 1884   0.448   3.016   1.009 -0.4063  0.0553 -0.2465
  117HFI     F1 1885   0.422   2.918   0.918 -0.2702  0.3713  0.0935
  117HFI     F2 1886   0.439   3.136   0.946 -0.2131  0.1896 -0.4051
  117HFI     F3 1887   0.360   3.010   1.114  0.0349  0.1215  0.4208
  117HFI     C3 1888   0.707   3.029   0.968 -0.9654 -0.0561  0.1067
  117HFI     F4 1889   0.824   2.997   1.024 -0.3506 -0.3033  0.3918
  117HFI     F5 1890   0.715   3.157   0.930  0.2025 -0.2456  0.1337
  117HFI     F6 1891   0.700   2.956   0.846 -0.4116  0.4529 -0.4216
  117HFI     H1 1892   0.704   2.844   1.119  0.1138  0.0289  0.5781
  117HFI     H2 1893   0.605   3.073   1.149 -1.9389 -1.3737  1.4621
  118HFI     O1 1894   0.641   1.329   2.784  0.2034 -0.1283 -0.0377
  118HFI     C1 1895   0.535   1.425   2.840 -0.1186 -0.3093  0.0441
  118HFI     C2 1896   0.542   1.429   2.996 -0.3603  0.1774 -1.1742
  118HFI     F1 1897   0.445   1.508   3.053  0.3846  0.1849  0.4520
  118HFI     F2 1898   0.656   1.490   3.032 -0.0569  0.0616 -0.3227
  118HFI     F3 1899   0.541   1.303   3.043  0.1294  0.1757 -0.5656
  118HFI     C3 1900   0.395   1.403   2.783  0.7032  0.3323 -0.2216
  118HFI     F4 1901   0.406   1.400   2.645  0.5035  0.3203  0.0361
  118HFI     F5 1902   0.307   1.501   2.816  0.1865 -0.3150 -0.0912
  118HFI     F6 1903   0.341   1.285   2.825 -0.6064  0.0958 -0.4655
  118HFI     H1 1904   0.624   1.240   2.818  0.1899 -0.3204 -0.5336
  118HFI     H2 1905   0.560   1.522   2.798 -1.1947 -0.7904 -1.7491
  119HFI     O1 1906   1.528   2.495   0.715 -0.6408  0.3079  0.1878
  119HFI     C1 1907   1.493   2.571   0.842 -0.0226 -0.9385 -0.0744
  119HFI     C2 1908   1.336   2.574   0.852  0.6237 -0.2591 -0.6010
  119HFI     F1 1909   1.294   2.624   0.968 -0.1899 -0.2861  0.4057
  119HFI     F2 1910   1.292   2.449   0.842  0.2164 -0.0491  0.1897
  119HFI     F3 1911   1.267   2.644   0.756 -0.2815 -0.2347  0.0121
  119HFI     C3 1912   1.559   2.712   0.842  0.0464 -1.2347  0.8729
  119HFI     F4 1913   1.693   2.694   0.858  0.1963  0.1338  0.0086
  119HFI     F5 1914   1.515   2.804   0.936 -0.2140  0.2685  0.7532
  119HFI     F6 1915   1.542   2.771   0.724 -0.0097  0.4305  0.2743
  119HFI     H1 1916   1.505   2.401   0.716  1.1760 -0.1413  1.3334
  119HFI     H2 1917   1.530   2.529   0.936 -0.8084  0.9981  1.1183
  120HFI     O1 1918   2.066   0.435   2.223 -0.1975 -0.5401  0.8078
  120HFI     C1 1919   2.214   0.444   2.246 -0.4090 -0.4583  0.5162
  120HFI     C2 1920   2.275   0.323   2.318  0.1020  0.3986  0.0589
  120HFI     F1 1921   2.259   0.212   2.242  0.0650  0.2765  0.0368
  120HFI     F2 1922   2.201   0.298   2.433 -0.0901 -0.5977  0.1579
  120HFI     F3 1923   2.407   0.339   2.352  0.0566 -0.4929  0.4524
  120HFI     C3 1924   2.242   0.579   2.311  0.1408 -0.1724  0.4142
  120HFI     F4 1925   2.193   0.578   2.438 -0.0767  0.5839  0.2320
  120HFI     F5 1926   2.182   0.684   2.252  0.4369 -0.0663 -0.4059
  120HFI     F6 1927   2.375   0.611   2.308  0.1242  0.5952 -0.0715
  120HFI     H1 1928   2.025   0.388   2.298 -0.6896  1.1984  1.6481
  120HFI     H2 1929   2.254   0.455   2.144 -0.2574  3.3973  0.9373
  121HFI     O1 1930   2.392   1.763   2.220 -0.6077  0.5019 -0.2483
  121HFI     C1 1931   2.341   1.670   2.319 -0.2299 -0.2952 -0.5834
  121HFI     C2 1932   2.382   1.520   2.289 -0.4776 -0.8754  0.7514
  121HFI     F1 1933   2.399   1.454   2.405 -0.0454  0.0091 -0.2129
  121HFI     F2 1934   2.498   1.507   2.226 -0.0616  0.0606  0.2227
  121HFI     F3 1935   2.293   1.451   2.212 -0.0014 -0.3683 -0.0041
  121HFI     C3 1936   2.184   1.690   2.348  0.9769 -0.2383 -0.2771
  121HFI     F4 1937   2.160   1.810   2.397  0.1675 -0.3346 -0.2556
  121HFI     F5 1938   2.145   1.597   2.434  0.3690 -0.1583  0.5430
  121HFI     F6 1939   2.118   1.680   2.230  0.0679  0.2082  0.0657
  121HFI     H1 1940   2.393   1.728   2.129  3.1724 -1.3550  0.4395
  121HFI     H2 1941   2.393   1.703   2.410 -1.3265  1.4277 -0.5590
  122HFI     O1 1942   0.997   2.676   3.422 -0.5595 -0.2538 -0.3393
  122HFI     C1 1943   0.919   2.669   3.301  0.2231  0.1937  0.6480
  122HFI     C2 1944   0.772   2.648   3.338  0.4217  0.0642 -0.4481
  122HFI     F1 1945   0.689   2.631   3.234  0.2596  0.5706  0.7685
  122HFI     F2 1946   0.720   2.748   3.408 -0.4824 -0.0930 -0.4785
  122HFI     F3 1947   0.758   2.540   3.419  0.0802 -0.0662 -0.3343
  122HFI     C3 1948   0.973   2.552   3.210  0.2122  0.2301 -0.6860
  122HFI     F4 1949   1.095   2.592   3.158  0.2339 -0.0921  0.1889
  122HFI     F5 1950   0.903   2.521   3.103  0.1074 -0.5353 -0.2140
  122HFI     F6 1951   1.004   2.435   3.282 -0.0170 -0.2308  0.0570
  122HFI     H1 1952   1.000   2.590   3.467  3.0743 -0.0911 -0.1090
  122HFI     H2 1953   0.930   2.764   3.247  1.6575 -0.4235 -0.1637
  123HFI     O1 1954   0.108   1.509   2.446  0.6604 -0.1734 -0.1674
  123HFI     C1 1955  -0.009   1.414   2.428 -0.7068 -0.3911 -0.0365
  123HFI     C2 1956  -0.080   1.436   2.292 -0.2530  0.2176  0.1191
  123HFI     F1 1957   0.014   1.442   2.192  0.3827 -0.0975 -0.4244
  123HFI     F2 1958  -0.147   1.556   2.292  0.9083  0.0717 -0.3445
  123HFI     F3 1959  -0.169   1.338   2.261  0.4437  0.3652  0.0888
  123HFI     C3 1960  -0.107   1.425   2.543 -0.6050  0.4449  0.4198
  123HFI     F4 1961  -0.038   1.437   2.656  0.4586 -0.1696  0.5221
  123HFI     F5 1962  -0.181   1.308   2.544  0.4879  0.4811 -0.1945
  123HFI     F6 1963  -0.195   1.532   2.538 -0.1483  0.6360 -0.0449
  123HFI     H1 1964   0.168   1.455   2.500 -1.0065 -2.5382 -0.6079
  123HFI     H2 1965   0.021   1.310   2.415  1.6292  0.0298  1.7497
  124HFI     O1 1966   1.302   1.065   0.478  0.1684 -0.1971  0.2535
  124HFI     C1 1967   1.269   0.930   0.497 -0.3243  0.5125 -0.4713
  124HFI     C2 1968   1.397   0.857   0.553  0.4484 -0.6901 -0.4201
  124HFI     F1 1969   1.495   0.861   0.458 -0.3157  0.0376 -0.0768
  124HFI     F2 1970   1.366   0.732   0.580  0.1922 -0.2392 -0.1680
  124HFI     F3 1971   1.441   0.922   0.668  0.8349  0.3188 -0.0565
  124HFI     C3 1972   1.201   0.874   0.369  0.4361  0.5558 -0.5794
  124HFI     F4 1973   1.277   0.884   0.254 -0.3611 -0.5505  0.8029
  124HFI     F5 1974   1.090   0.940   0.341  0.1603 -0.0792 -0.0622
  124HFI     F6 1975   1.162   0.744   0.382  0.1532 -0.2786  0.0746
  124HFI     H1 1976   1.271   1.092   0.390  0.4819  3.7145  1.2213
  124HFI     H2 1977   1.188   0.922   0.570 -1.0311  2.0396 -1.0791
  125HFI     O1 1978   2.565   1.986   0.413  0.4488 -0.2847 -0.6055
  125HFI     C1 1979   2.656   1.916   0.510  0.4681 -0.0442  0.6863
  125HFI     C2 1980   2.799   1.971   0.511  0.4702 -0.0326 -0.2235
  125HFI     F1 1981   2.878   1.910   0.419  0.0036 -0.2549  0.0973
  125HFI     F2 1982   2.853   1.964   0.633 -0.0952  0.1242  0.3866
  125HFI     F3 1983   2.798   2.103   0.472  0.3530  0.2205 -0.0737
  125HFI     C3 1984   2.645   1.763   0.490 -0.2107 -0.3456  0.2405
  125HFI     F4 1985   2.712   1.692   0.589 -0.1609  0.2344 -0.8202
  125HFI     F5 1986   2.689   1.724   0.365 -0.2141 -0.0217 -0.1764
  125HFI     F6 1987   2.518   1.732   0.493  0.1411  0.5183 -0.0488
  125HFI     H1 1988   2.624   2.037   0.356  1.9022 -0.3111  0.8535
  125HFI     H2 1989   2.619   1.930   0.613  1.2939  0.2396  0.9535
  126HFI     O1 1990   1.655   2.603   0.485  0.1407  0.2530  0.6038
  126HFI     C1 1991   1.790   2.557   0.478  0.2335  0.0887  0.2028
  126HFI     C2 1992   1.784   2.411   0.424  0.2617  0.2425  0.1655
  126HFI     F1 1993   1.736   2.403   0.298 -0.0896  0.0572 -0.2665
  126HFI     F2 1994   1.721   2.315   0.498  0.5684  0.2647 -0.2236
  126HFI     F3 1995   1.907   2.357   0.423  0.4882 -0.5723  0.2844
  126HFI     C3 1996   1.880   2.577   0.602 -0.8012  0.4414  0.6067
  126HFI     F4 1997   1.895   2.701   0.631 -0.1943 -0.4854  0.6988
  126HFI     F5 1998   2.001   2.521   0.591  0.0675  0.0939  0.3580
  126HFI     F6 1999   1.826   2.510   0.704  0.3730 -0.2625 -0.1362
  126HFI     H1 2000   1.616   2.579   0.570  1.7308 -3.9723  0.2735
  126HFI     H2 2001   1.832   2.625   0.403 -0.2258  1.4283  1.1364
  127HFI     O1 2002   0.508   1.938   2.482 -0.2584  0.2927 -0.4103
  127HFI     C1 2003   0.576   1.834   2.405 -0.5018 -0.0465  0.3435
  127HFI     C2 2004   0.586   1.869   2.253 -0.7612 -0.0676  0.6491
  127HFI     F1 2005   0.709   1.918   2.231  0.2180  0.2811 -0.1631
  127HFI     F2 2006   0.498   1.963   2.212  0.2200  0.1534  0.2107
  127HFI     F3 2007   0.574   1.762   2.182  0.3221 -0.1818  0.5994
  127HFI     C3 2008   0.532   1.688   2.442  0.5394  0.1044 -0.2066
  127HFI     F4 2009   0.603   1.596   2.384 -0.0565  0.6326  0.6149
  127HFI     F5 2010   0.410   1.661   2.386  0.1670 -0.2710  0.2060
  127HFI     F6 2011   0.523   1.660   2.578 -0.1221 -1.1418 -0.0071
  127HFI     H1 2012   0.416   1.947   2.452  0.0139 -0.2708 -1.4487
  127HFI     H2 2013   0.681   1.837   2.435 -0.5436 -0.6787  0.5612
  128HFI     O1 2014   2.555   1.165   2.495 -0.1444 -0.2609  0.2374
  128HFI     C1 2015   2.667   1.169   2.398  0.1374  0.6755  0.4522
  128HFI     C2 2016   2.627   1.096   2.267  0.2232 -0.4310  0.1636
  128HFI     F1 2017   2.564   0.978   2.297  0.1337 -0.4101 -0.1399
  128HFI     F2 2018   2.734   1.067   2.196 -0.6558  0.4001 -0.0307
  128HFI     F3 2019   2.542   1.175   2.193  0.0956  0.6089 -0.4404
  128HFI     C3 2020   2.794   1.101   2.459 -0.4720 -1.0485  0.3983
  128HFI     F4 2021   2.805   1.134   2.580 -0.2388 -0.5524 -0.2457
  128HFI     F5 2022   2.902   1.142   2.391 -0.2151  0.2607 -0.4304
  128HFI     F6 2023   2.798   0.966   2.463  0.0878  0.2795  0.4348
  128HFI     H1 2024   2.520   1.078   2.521 -2.1269  0.4517  0.0491
  128HFI     H2 2025   2.699   1.269   2.367 -0.9281  1.2229  1.0853
  129HFI     O1 2026   1.105   2.899   2.391 -0.2145  0.4442  0.1222
  129HFI     C1 2027   1.191   2.827   2.295  0.5550 -0.2272 -0.0495
  129HFI     C2 2028   1.156   2.665   2.302 -0.2617  0.4623 -0.0603
  129HFI     F1 2029   1.022   2.632   2.293  0.1413 -0.5055 -0.7127
  129HFI     F2 2030   1.211   2.605   2.416  0.2777  0.6242 -0.4007
  129HFI     F3 2031   1.227   2.605   2.202  0.4104  0.2174 -0.2046
  129HFI     C3 2032   1.342   2.860   2.315 -0.1331 -0.0996 -0.4350
  129HFI     F4 2033   1.415   2.814   2.210  0.1642 -0.2659  0.4097
  129HFI     F5 2034   1.395   2.815   2.438  0.3598  0.2942 -0.3352
  129HFI     F6 2035   1.350   2.994   2.312  0.0890 -0.5631 -0.0096
  129HFI     H1 2036   1.152   2.911   2.475 -0.7838  1.9587  0.2422
  129HFI     H2 2037   1.165   2.862   2.195 -1.6207  1.5606  1.1000
  130HFI     O1 2038   0.408   0.738   2.355  0.6173  0.8426 -0.1922
  130HFI     C1 2039   0.527   0.699   2.276 -0.2539  0.0291  0.3985
  130HFI     C2 2040   0.569   0.547   2.306 -0.9836 -0.0799  0.5902
  130HFI     F1 2041   0.693   0.515   2.243  0.0807 -0.8351  0.4620
  130HFI     F2 2042   0.484   0.451   2.256  0.8677 -0.2700  0.2253
  130HFI     F3 2043   0.574   0.531   2.444 -0.5990  0.6682  0.0761
  130HFI     C3 2044   0.637   0.812   2.280  0.2924 -0.0867 -0.0595
  130HFI     F4 2045   0.572   0.926   2.243  0.4415 -0.0040  0.0714
  130HFI     F5 2046   0.741   0.805   2.196  0.4996 -0.1741 -0.0385
  130HFI     F6 2047   0.677   0.825   2.406  0.1647 -0.0540  0.4500
  130HFI     H1 2048   0.389   0.662   2.412  0.2297  2.2030  1.5406
  130HFI     H2 2049   0.495   0.696   2.171 -0.1737  0.2222  0.3688
  131HFI     O1 2050   1.789   2.013   3.651 -0.4875  0.3757  0.5357
  131HFI     C1 2051   1.732   2.075   3.776  0.3727  0.4524 -0.0976
  131HFI     C2 2052   1.695   1.972   3.884 -0.2057 -0.3603  0.1031
  131HFI     F1 2053   1.815   1.909   3.918 -0.2118  0.2590 -0.1211
  131HFI     F2 2054   1.614   1.878   3.839 -0.4277  0.0664  0.0649
  131HFI     F3 2055   1.644   2.040   3.996 -0.3937 -0.4066 -0.0283
  131HFI     C3 2056   1.611   2.171   3.735 -0.5650 -0.0563 -0.6674
  131HFI     F4 2057   1.664   2.264   3.655  0.1957 -0.1829 -0.7308
  131HFI     F5 2058   1.567   2.230   3.842  0.3012 -0.2682 -0.1269
  131HFI     F6 2059   1.506   2.106   3.676  0.4101  0.6248  0.1405
  131HFI     H1 2060   1.879   1.980   3.662 -0.2198  0.3359 -1.6392
  131HFI     H2 2061   1.806   2.141   3.823  0.9861 -1.1015  1.1348
  132HFI     O1 2062   2.732   0.931   3.081  0.1282 -0.0582  0.3651
  132HFI     C1 2063   2.874   0.961   3.059 -0.4543 -0.2097  0.3408
  132HFI     C2 2064   2.884   1.095   2.968 -0.4394 -0.5207  0.4549
  132HFI     F1 2065   2.836   1.077   2.844 -0.1545  0.0746 -0.0284
  132HFI     F2 2066   3.014   1.136   2.968  0.7745 -0.2228 -0.4517
  132HFI     F3 2067   2.809   1.194   3.011 -0.0275  1.1340  0.3407
  132HFI     C3 2068   2.958   0.840   2.995 -0.4451  0.7078 -0.0109
  132HFI     F4 2069   2.932   0.714   3.059 -0.3716 -0.2259 -0.1469
  132HFI     F5 2070   3.090   0.872   3.007 -0.0532 -0.1167  0.4067
  132HFI     F6 2071   2.925   0.817   2.865  0.1413  0.9156 -0.4008
  132HFI     H1 2072   2.723   0.886   3.167  0.9489  0.6264  0.8172
  132HFI     H2 2073   2.927   0.983   3.153  3.0246  0.2879 -1.6432
  133HFI     O1 2074   2.124   0.962   2.502 -0.2296  0.5714 -0.4644
  133HFI     C1 2075   2.092   1.013   2.367 -0.0425  0.2556 -0.4651
  133HFI     C2 2076   2.188   1.120   2.313  0.2326 -0.6260 -0.0189
  133HFI     F1 2077   2.160   1.233   2.381 -0.3242 -0.2071  0.0854
  133HFI     F2 2078   2.162   1.152   2.185  0.6910 -0.4717  0.1086
  133HFI     F3 2079   2.320   1.098   2.344 -0.0188 -0.2008  0.1780
  133HFI     C3 2080   1.938   1.044   2.360 -0.8806 -0.6737 -0.3195
  133HFI     F4 2081   1.868   0.927   2.386  0.0784 -0.2383 -0.3341
  133HFI     F5 2082   1.903   1.087   2.237 -0.4100  0.7461  0.8367
  133HFI     F6 2083   1.907   1.143   2.450  0.0400  0.2182 -0.1317
  133HFI     H1 2084   2.082   1.018   2.570  1.8283 -1.8922  2.9993
  133HFI     H2 2085   2.103   0.935   2.291  2.1659 -0.1185  0.2144
  134HFI     O1 2086   2.507   3.050   1.308  0.2339  0.1122  0.0812
  134HFI     C1 2087   2.428   3.096   1.421 -0.3738 -0.9482  0.0259
  134HFI     C2 2088   2.509   3.179   1.517 -0.7573 -0.4816  0.0132
  134HFI     F1 2089   2.580   3.103   1.596  0.4930  0.4510  0.1104
  134HFI     F2 2090   2.435   3.266   1.584  0.1329  0.0396  0.3296
  134HFI     F3 2091   2.595   3.252   1.445 -0.2861 -0.3703 -0.0583
  134HFI     C3 2092   2.348   2.979   1.484 -0.6041 -0.1473 -0.0285
  134HFI     F4 2093   2.428   2.879   1.523  0.6360  0.0502 -0.2677
  134HFI     F5 2094   2.255   2.933   1.398 -0.0970 -0.5965  0.2912
  134HFI     F6 2095   2.281   3.019   1.592  0.2855 -0.5873  0.5983
  134HFI     H1 2096   2.559   2.972   1.336 -0.3026 -0.2088  0.2027
  134HFI     H2 2097   2.349   3.166   1.390  0.1654 -0.2148  0.2985
  135HFI     O1 2098   1.641   1.715   2.483 -0.7327 -0.0286  0.2676
  135HFI     C1 2099   1.741   1.716   2.370  0.2248 -0.3975  0.6309
  135HFI     C2 2100   1.745   1.850   2.291  0.3692 -0.0145 -0.1085
  135HFI     F1 2101   1.628   1.876   2.218  0.0410 -0.4013  0.1678
  135HFI     F2 2102   1.846   1.844   2.205  0.3964 -0.4349  0.4457
  135HFI     F3 2103   1.763   1.957   2.378 -0.4894  0.3657 -0.3095
  135HFI     C3 2104   1.718   1.582   2.280  0.4220 -0.5555 -0.2092
  135HFI     F4 2105   1.597   1.567   2.225 -0.0463  0.4153 -0.2383
  135HFI     F5 2106   1.745   1.477   2.363  0.2778  0.3157 -0.2286
  135HFI     F6 2107   1.807   1.562   2.180 -0.4415  0.4010 -0.0086
  135HFI     H1 2108   1.554   1.732   2.443 -1.0786  0.2545  1.1186
  135HFI     H2 2109   1.837   1.701   2.422 -0.3412  0.4762  1.9444
  136HFI     O1 2110   2.149   3.170   2.946  0.1079 -0.2198  0.3721
  136HFI     C1 2111   2.016   3.178   2.878 -0.0705  0.7512  0.7462
  136HFI     C2 2112   1.985   3.048   2.809 -0.0460  0.4165 -0.2740
  136HFI     F1 2113   1.871   3.058   2.744 -0.0726  0.0712  0.5078
  136HFI     F2 2114   1.973   2.949   2.899  0.1214  0.6246 -0.1825
  136HFI     F3 2115   2.078   3.004   2.720  0.4954  0.4935 -0.3855
  136HFI     C3 2116   1.995   3.298   2.787 -0.3478 -0.6176 -0.1695
  136HFI     F4 2117   1.876   3.313   2.738 -0.1969  0.0822 -0.1788
  136HFI     F5 2118   2.074   3.280   2.680  0.7132 -0.8098 -0.4084
  136HFI     F6 2119   2.032   3.419   2.838  0.3200 -0.3889  0.4406
  136HFI     H1 2120   2.216   3.221   2.898  1.0484 -3.0417 -1.4068
  136HFI     H2 2121   1.948   3.183   2.963  0.5661  0.1149  1.2968
  137HFI     O1 2122   3.032   1.333   3.635  1.0771  0.7270  0.0032
  137HFI     C1 2123   3.030   1.187   3.618 -0.4984  0.3591 -0.4931
  137HFI     C2 2124   3.130   1.111   3.713 -0.0807 -0.4103  0.2305
  137HFI     F1 2125   3.107   1.139   3.840  0.2220  0.0359  0.1599
  137HFI     F2 2126   3.257   1.139   3.677 -0.1370  0.0277  0.4291
  137HFI     F3 2127   3.119   0.975   3.701 -0.2531  0.0853  0.0343
  137HFI     C3 2128   3.044   1.142   3.470  0.4796 -0.6415 -0.0314
  137HFI     F4 2129   3.058   1.009   3.443 -0.4574 -0.0162 -0.0136
  137HFI     F5 2130   3.150   1.209   3.416 -0.0902  0.3505 -0.1017
  137HFI     F6 2131   2.940   1.191   3.406  0.2851  0.4257 -0.4483
  137HFI     H1 2132   2.984   1.371   3.559  1.5498  2.8557  0.7279
  137HFI     H2 2133   2.934   1.147   3.652 -0.5412 -0.9149 -2.0671
  138HFI     O1 2134   1.491   2.237   2.877  0.0265 -0.0529 -0.1723
  138HFI     C1 2135   1.438   2.115   2.924 -0.2356  0.8104 -0.0264
  138HFI     C2 2136   1.473   1.991   2.831  0.2427 -0.0885 -0.1430
  138HFI     F1 2137   1.429   1.875   2.882  0.1865 -0.4772 -0.0744
  138HFI     F2 2138   1.605   1.972   2.827  1.2604  0.1433  0.3390
  138HFI     F3 2139   1.436   2.000   2.703 -0.3085 -0.8193 -0.6147
  138HFI     C3 2140   1.275   2.129   2.951  0.8638 -0.3814 -0.5109
  138HFI     F4 2141   1.231   2.236   3.029  0.5891 -0.5500  0.1437
  138HFI     F5 2142   1.230   2.028   3.018  0.1688  0.4020  0.2955
  138HFI     F6 2143   1.202   2.130   2.833 -0.3348 -0.0542  0.1031
  138HFI     H1 2144   1.513   2.297   2.950  0.7139  0.6193 -0.9288
  138HFI     H2 2145   1.485   2.089   3.019  2.1487 -1.7214 -1.8379
  139HFI     O1 2146   0.439   0.033   1.609  0.0894  0.4196 -0.3174
  139HFI     C1 2147   0.468  -0.070   1.513  0.1388 -0.5830 -0.4828
  139HFI     C2 2148   0.614  -0.067   1.465  0.1035 -0.2190 -0.0603
  139HFI     F1 2149   0.650   0.045   1.397 -0.1591 -0.0660 -0.2473
  139HFI     F2 2150   0.644  -0.169   1.385  0.0517 -0.3232 -0.2526
  139HFI     F3 2151   0.698  -0.076   1.572 -0.0336  0.5240  0.1997
  139HFI     C3 2152   0.357  -0.070   1.405 -0.6439 -0.4511  0.6730
  139HFI     F4 2153   0.231  -0.083   1.455 -0.2723  0.7108 -0.3650
  139HFI     F5 2154   0.382  -0.177   1.322  0.1505 -0.1673 -0.4102
  139HFI     F6 2155   0.370   0.045   1.340  0.1423  0.4938 -0.0129
  139HFI     H1 2156   0.349   0.065   1.589 -1.3913 -2.2628  1.5866
  139HFI     H2 2157   0.464  -0.170   1.558  1.0412  0.6720  2.4921
  140HFI     O1 2158   0.586   0.688   1.271  0.2178  0.0070 -0.0186
  140HFI     C1 2159   0.610   0.672   1.130  1.0644 -0.3101  0.4593
  140HFI     C2 2160   0.472   0.634   1.069  0.1757  0.0136  0.1276
  140HFI     F1 2161   0.422   0.514   1.110 -0.0528  0.1429 -0.1521
  140HFI     F2 2162   0.463   0.635   0.937 -0.0326  0.0967  0.1047
  140HFI     F3 2163   0.382   0.720   1.117 -0.3813 -0.3567  0.5172
  140HFI     C3 2164   0.714   0.566   1.090  0.6984  0.0963  0.5770
  140HFI     F4 2165   0.687   0.450   1.149 -0.4428  0.0783 -0.4940
  140HFI     F5 2166   0.836   0.607   1.124  0.2250  0.6603 -0.3569
  140HFI     F6 2167   0.719   0.550   0.952 -0.5135  0.0039  0.3767
  140HFI     H1 2168   0.539   0.608   1.302  1.8616  0.0740  2.8071
  140HFI     H2 2169   0.650   0.764   1.087  1.3003 -0.5801  0.1032
  141HFI     O1 2170   1.442   0.336   3.268 -0.3717 -0.2796  0.2166
  141HFI     C1 2171   1.492   0.386   3.394  0.0047 -0.3356  0.0742
  141HFI     C2 2172   1.616   0.476   3.380  0.3608  0.1498  0.2077
  141HFI     F1 2173   1.669   0.514   3.502  0.1903  0.2059 -0.1843
  141HFI     F2 2174   1.571   0.584   3.308 -0.1105  0.3477 -0.0624
  141HFI     F3 2175   1.707   0.407   3.305  0.2343 -0.1474  0.3076
  141HFI     C3 2176   1.513   0.290   3.512 -1.1111 -0.6759  0.9169
  141HFI     F4 2177   1.428   0.184   3.506  0.0747  0.1320  0.2354
  141HFI     F5 2178   1.488   0.370   3.622  0.1182  0.2253 -0.6632
  141HFI     F6 2179   1.642   0.245   3.520  0.0183 -0.2597  0.9977
  141HFI     H1 2180   1.406   0.414   3.222 -2.5760 -0.7447  1.0893
  141HFI     H2 2181   1.412   0.452   3.430 -1.2185 -0.6847 -1.9075
  142HFI     O1 2182   2.465   0.086   3.781 -0.0350  0.8709  0.0363
  142HFI     C1 2183   2.379   0.204   3.777 -0.2771 -0.2550 -0.6616
  142HFI     C2 2184   2.455   0.314   3.709  0.0325 -0.0604 -0.5404
  142HFI     F1 2185   2.379   0.397   3.639  0.2325 -0.3576  0.4175
  142HFI     F2 2186   2.542   0.268   3.623 -0.0528 -0.2064  0.1804
  142HFI     F3 2187   2.522   0.389   3.799  0.0895  0.4652 -0.4786
  142HFI     C3 2188   2.329   0.253   3.914 -0.4436  0.8102 -0.6038
  142HFI     F4 2189   2.265   0.368   3.905 -0.0881 -0.0998 -0.0378
  142HFI     F5 2190   2.427   0.261   4.008  0.3175  0.6819 -0.3499
  142HFI     F6 2191   2.242   0.164   3.965 -0.9663  0.1836 -0.2834
  142HFI     H1 2192   2.558   0.113   3.776 -0.0221  0.6696 -1.1008
  142HFI     H2 2193   2.286   0.190   3.721 -0.5841  1.5844 -0.6425
  143HFI     O1 2194   3.291   3.115   0.821  0.4298  0.0618 -0.5449
  143HFI     C1 2195   3.307   3.010   0.722 -0.1256  0.5324  0.1468
  143HFI     C2 2196   3.173   2.975   0.670  0.7196 -0.1484  0.4403
  143HFI     F1 2197   3.127   3.075   0.591 -0.0664  0.0936  0.0533
  143HFI     F2 2198   3.083   2.961   0.772 -0.2330 -0.1251  0.1938
  143HFI     F3 2199   3.172   2.857   0.602  0.3475  0.5383 -0.3184
  143HFI     C3 2200   3.392   2.896   0.777  0.5740 -0.1933 -0.3334
  143HFI     F4 2201   3.447   2.823   0.681  0.1497  0.0199  0.6766
  143HFI     F5 2202   3.313   2.818   0.853  0.5526 -0.3008  0.1199
  143HFI     F6 2203   3.496   2.946   0.848 -0.1570 -0.4318 -0.0106
  143HFI     H1 2204   3.219   3.081   0.876 -0.0404 -0.6020 -1.5500
  143HFI     H2 2205   3.362   3.051   0.636 -1.7646 -0.1201 -1.2439
  144HFI     O1 2206   3.080   2.757   3.404  0.8727 -0.0637  0.0122
  144HFI     C1 2207   3.083   2.650   3.503 -0.8684  0.4592  0.0293
  144HFI     C2 2208   3.155   2.695   3.634 -0.4168 -0.1737 -0.4023
  144HFI     F1 2209   3.271   2.749   3.600 -0.1602  0.7717 -0.4339
  144HFI     F2 2210   3.180   2.590   3.717 -0.1288 -0.0412 -0.2516
  144HFI     F3 2211   3.078   2.783   3.702 -0.3399 -0.1749  0.3143
  144HFI     C3 2212   3.142   2.525   3.432  0.5741  0.0076 -0.9770
  144HFI     F4 2213   3.089   2.507   3.312 -0.7151  0.4921 -0.2818
  144HFI     F5 2214   3.120   2.410   3.505 -0.1191  0.1350 -0.5742
  144HFI     F6 2215   3.277   2.534   3.414 -0.0465 -0.4147  0.3639
  144HFI     H1 2216   3.160   2.748   3.349  1.2697 -1.1781  0.7705
  144HFI     H2 2217   2.981   2.621   3.532 -0.1470  1.0342  3.3124
  145HFI     O1 2218   0.572   1.301   3.677 -0.0782  0.2362 -0.3073
  145HFI     C1 2219   0.441   1.276   3.613  0.2246  0.8162  0.5021
  145HFI     C2 2220   0.361   1.164   3.671  0.9722 -0.5419  0.3176
  145HFI     F1 2221   0.347   1.185   3.806  0.5318  0.1338 -0.3427
  145HFI     F2 2222   0.406   1.043   3.661  0.1389  0.6550  0.3506
  145HFI     F3 2223   0.237   1.167   3.621 -0.4914 -0.3512  0.1575
  145HFI     C3 2224   0.456   1.271   3.464 -0.1026  1.1003 -0.3663
  145HFI     F4 2225   0.335   1.270   3.397 -0.4642  0.2820  0.5694
  145HFI     F5 2226   0.528   1.161   3.420  0.2986  0.6283 -0.4432
  145HFI     F6 2227   0.525   1.381   3.420 -0.1769 -0.1082 -0.4520
  145HFI     H1 2228   0.552   1.320   3.771  0.3000  0.9972 -0.3814
  145HFI     H2 2229   0.382   1.368   3.627 -1.7093 -0.3687  0.3335
  146HFI     O1 2230   0.177   0.624   2.717 -0.1987  0.1194 -0.2225
  146HFI     C1 2231   0.179   0.522   2.822 -0.1857  0.2994 -0.4375
  146HFI     C2 2232   0.063   0.547   2.917 -0.0956  0.7218 -0.0657
  146HFI     F1 2233   0.049   0.432   2.993 -0.1057 -0.2859 -0.0896
  146HFI     F2 2234  -0.048   0.567   2.843 -0.3733 -0.6524 -0.4282
  146HFI     F3 2235   0.082   0.652   2.996 -0.5725 -0.2614 -0.4635
  146HFI     C3 2236   0.325   0.506   2.884 -0.4193  0.2396 -0.5270
  146HFI     F4 2237   0.333   0.421   2.992  0.3091 -0.3152  0.0482
  146HFI     F5 2238   0.378   0.625   2.932  0.9177 -0.2219  0.0444
  146HFI     F6 2239   0.404   0.448   2.781 -0.1035  0.1674 -0.4063
  146HFI     H1 2240   0.092   0.616   2.670 -1.0110  0.5196  1.1623
  146HFI     H2 2241   0.161   0.424   2.776  0.0030 -1.2787  2.7487
  147HFI     O1 2242   0.180   2.953   2.210  0.1796 -0.3653 -0.0043
  147HFI     C1 2243   0.255   2.852   2.284 -0.0595  1.0112 -0.4354
  147HFI     C2 2244   0.166   2.741   2.340  0.3021  0.1224 -0.4506
  147HFI     F1 2245   0.085   2.777   2.448  0.7746 -0.3151  0.0361
  147HFI     F2 2246   0.242   2.636   2.386 -0.6857 -0.6586  0.2625
  147HFI     F3 2247   0.088   2.696   2.239  0.7552  0.1112 -0.3853
  147HFI     C3 2248   0.337   2.916   2.396 -0.0513 -0.4068  0.0973
  147HFI     F4 2249   0.405   2.829   2.467 -0.1881  0.3139  0.1717
  147HFI     F5 2250   0.255   2.982   2.475  0.0066  0.2281 -0.1223
  147HFI     F6 2251   0.424   3.015   2.356 -0.0211 -0.3481 -0.3091
  147HFI     H1 2252   0.093   2.960   2.254  0.6951  1.1999  0.8149
  147HFI     H2 2253   0.331   2.807   2.218  1.4838  2.3354  0.4085
  148HFI     O1 2254   3.109   0.722   2.482 -0.0326  0.1117 -0.3007
  148HFI     C1 2255   3.128   0.859   2.495  0.5472  0.1543  0.0456
  148HFI     C2 2256   3.177   0.914   2.351  0.7740 -0.2050  0.1375
  148HFI     F1 2257   3.085   0.910   2.254 -0.6319 -0.3529 -0.1619
  148HFI     F2 2258   3.278   0.838   2.310 -0.5310  0.1618 -0.0906
  148HFI     F3 2259   3.223   1.038   2.363 -0.6648  0.2452 -0.1503
  148HFI     C3 2260   3.213   0.903   2.617 -0.0174 -0.2322 -1.1113
  148HFI     F4 2261   3.208   1.037   2.634  0.2810 -0.4996  0.4879
  148HFI     F5 2262   3.346   0.871   2.596 -0.2086  0.6911  0.3547
  148HFI     F6 2263   3.181   0.841   2.736 -0.5037  0.4297  0.0606
  148HFI     H1 2264   3.014   0.706   2.495 -0.2354  1.3251 -0.2143
  148HFI     H2 2265   3.026   0.899   2.503 -0.0611 -1.0863 -1.3715
  149HFI     O1 2266   2.624   0.061   3.229 -1.0471 -0.2972  0.3426
  149HFI     C1 2267   2.612  -0.065   3.295 -0.2772 -0.1722 -0.3441
  149HFI     C2 2268   2.487  -0.147   3.250  0.4525  0.3793  0.3852
  149HFI     F1 2269   2.494  -0.166   3.115  0.3758 -0.3178 -0.3500
  149HFI     F2 2270   2.369  -0.085   3.268  0.0934 -0.0965  0.4891
  149HFI     F3 2271   2.476  -0.264   3.311  0.3235  1.5675  0.0970
  149HFI     C3 2272   2.614  -0.045   3.447 -0.1731 -0.4894  0.3659
  149HFI     F4 2273   2.503   0.016   3.493  0.0876 -0.3912  0.0710
  149HFI     F5 2274   2.729   0.033   3.470 -0.4455 -0.8041  0.1690
  149HFI     F6 2275   2.624  -0.168   3.509  0.6527 -0.3607  0.1799
  149HFI     H1 2276   2.626   0.129   3.299 -0.0113  0.7175 -0.6696
  149HFI     H2 2277   2.697  -0.128   3.266  0.3829  0.1326  0.8984
  150HFI     O1 2278   0.457   2.737   2.731 -0.7758  0.0456  0.2119
  150HFI     C1 2279   0.550   2.850   2.741  0.9609  0.4313  0.4037
  150HFI     C2 2280   0.678   2.785   2.796 -0.0727  0.6735  0.1333
  150HFI     F1 2281   0.788   2.867   2.795  0.2212 -0.6995  0.2999
  150HFI     F2 2282   0.706   2.686   2.708  0.3257  0.6496  0.0126
  150HFI     F3 2283   0.659   2.730   2.919 -0.1783  0.4510  0.0257
  150HFI     C3 2284   0.504   2.968   2.825 -0.7009 -0.4547 -0.3732
  150HFI     F4 2285   0.377   3.003   2.795 -0.0396 -0.2334  0.2797
  150HFI     F5 2286   0.579   3.075   2.794  0.6776 -0.4256 -0.1730
  150HFI     F6 2287   0.509   2.952   2.957 -0.0495  0.3706 -0.3715
  150HFI     H1 2288   0.503   2.652   2.719 -0.1987  0.2020  1.2298
  150HFI     H2 2289   0.567   2.895   2.642  1.1276  1.3085  0.8340
  151HFI     O1 2290   0.715   1.651   3.432 -0.4308  0.4058 -0.3218
  151HFI     C1 2291   0.856   1.641   3.473  0.1815  0.0967  0.3066
  151HFI     C2 2292   0.932   1.545   3.389 -0.4080  0.5978 -0.1858
  151HFI     F1 2293   0.932   1.579   3.262  0.7362 -0.5290 -0.3711
  151HFI     F2 2294   0.876   1.420   3.384  0.3574  0.0262  0.2989
  151HFI     F3 2295   1.058   1.529   3.425  0.0177 -0.4064 -0.3388
  151HFI     C3 2296   0.876   1.615   3.628  0.8135 -0.5345 -0.1395
  151HFI     F4 2297   0.835   1.492   3.659 -0.5543 -0.0026 -0.2447
  151HFI     F5 2298   0.803   1.704   3.699  0.1896  0.0221  0.0379
  151HFI     F6 2299   1.005   1.623   3.671  0.1378  0.2236  0.5774
  151HFI     H1 2300   0.682   1.560   3.424  2.0718 -0.6246  0.5379
  151HFI     H2 2301   0.901   1.741   3.475 -0.5524  0.4046  2.9196
  152HFI     O1 2302   1.035   2.669   0.503 -0.2368 -0.5503  0.7006
  152HFI     C1 2303   1.007   2.813   0.491  0.3537 -0.5590 -0.4921
  152HFI     C2 2304   1.097   2.879   0.393 -0.5560  0.8007  0.1858
  152HFI     F1 2305   1.066   3.008   0.375  0.0640  0.5216 -0.1001
  152HFI     F2 2306   1.094   2.831   0.271 -0.3426 -0.0600 -0.6518
  152HFI     F3 2307   1.228   2.867   0.423  0.4289 -0.0979  0.0236
  152HFI     C3 2308   1.014   2.876   0.637  0.1843  0.7394  0.9040
  152HFI     F4 2309   0.961   2.997   0.630 -0.2142 -0.0769 -0.2637
  152HFI     F5 2310   1.141   2.891   0.682 -0.2359  0.2958  0.0940
  152HFI     F6 2311   0.940   2.810   0.722  0.0780 -0.1922 -0.1358
  152HFI     H1 2312   1.121   2.655   0.548 -0.2440 -0.2179  0.8194
  152HFI     H2 2313   0.902   2.820   0.459 -0.0114  0.8824  0.9617
  153HFI     O1 2314   2.887   2.930   3.537  0.2053 -0.0525 -0.3799
  153HFI     C1 2315   2.758   2.951   3.467  0.3392  0.5161 -0.0526
  153HFI     C2 2316   2.687   2.812   3.472 -0.2394  0.0316  0.7289
  153HFI     F1 2317   2.577   2.806   3.393  0.0491  0.0720  0.3494
  153HFI     F2 2318   2.638   2.781   3.598  0.2516  0.0832 -0.3912
  153HFI     F3 2319   2.772   2.710   3.433  0.4807  0.0471  0.5294
  153HFI     C3 2320   2.791   2.997   3.324  0.4071  0.5412 -0.0984
  153HFI     F4 2321   2.872   2.915   3.259  0.7028 -0.0616  0.0684
  153HFI     F5 2322   2.851   3.121   3.330 -0.2330 -0.0732  0.1612
  153HFI     F6 2323   2.673   3.011   3.250  0.1352 -0.0813  0.0577
  153HFI     H1 2324   2.953   2.888   3.479  1.0591 -1.1774  1.3701
  153HFI     H2 2325   2.700   3.028   3.519 -0.0309 -0.0480  0.3717
  154HFI     O1 2326   2.309   1.255   3.252  0.3352 -0.5221 -0.2935
  154HFI     C1 2327   2.448   1.201   3.268 -0.3381  0.2778 -0.0972
  154HFI     C2 2328   2.456   1.045   3.299 -0.2391  0.6068  0.2042
  154HFI     F1 2329   2.396   1.013   3.414 -0.5496  0.1426 -0.1784
  154HFI     F2 2330   2.584   1.003   3.308 -0.1366 -0.4198 -0.0072
  154HFI     F3 2331   2.390   0.977   3.203 -0.5909  0.1245  0.5073
  154HFI     C3 2332   2.525   1.283   3.376 -0.7452 -0.1891 -0.1888
  154HFI     F4 2333   2.475   1.278   3.502 -0.0866  0.6354 -0.0594
  154HFI     F5 2334   2.532   1.413   3.339 -0.5215  0.0483  0.0940
  154HFI     F6 2335   2.652   1.241   3.388 -0.3091  0.0136  0.3731
  154HFI     H1 2336   2.285   1.257   3.158  2.0815  0.4592 -0.7452
  154HFI     H2 2337   2.506   1.209   3.175  0.0328 -2.7810 -0.1740
  155HFI     O1 2338   2.758   1.704   0.063 -0.0440  0.0979  0.7866
  155HFI     C1 2339   2.874   1.784   0.120  0.0708  0.3056 -0.1484
  155HFI     C2 2340   2.860   1.933   0.093 -0.2736 -0.2436  0.3451
  155HFI     F1 2341   2.764   1.988   0.164  0.0770 -0.1386 -0.1815
  155HFI     F2 2342   2.829   1.943  -0.042  0.0759 -0.5734 -1.1353
  155HFI     F3 2343   2.975   2.005   0.113  0.0962 -0.3699  0.1619
  155HFI     C3 2344   3.010   1.723   0.079 -0.0223 -0.2801  0.4038
  155HFI     F4 2345   3.111   1.764   0.154 -0.6459 -0.1479  0.1335
  155HFI     F5 2346   3.032   1.752  -0.048  0.0245 -0.1088  0.1340
  155HFI     F6 2347   3.009   1.594   0.092  0.2387  0.1941  0.1439
  155HFI     H1 2348   2.716   1.746  -0.014 -0.7680  0.9401  1.6369
  155HFI     H2 2349   2.878   1.770   0.229 -0.0354  0.9878 -0.0511
  156HFI     O1 2350   1.292   1.899   0.632  0.8589 -0.3804  0.1298
  156HFI     C1 2351   1.294   2.026   0.563 -0.6943  0.1925  0.5661
  156HFI     C2 2352   1.441   2.062   0.515 -0.3532 -0.0956  0.1010
  156HFI     F1 2353   1.505   1.951   0.463  0.3295  0.0603 -0.0008
  156HFI     F2 2354   1.517   2.111   0.616  0.2894 -0.0282 -0.3024
  156HFI     F3 2355   1.439   2.165   0.419 -0.4775  0.0124  0.4109
  156HFI     C3 2356   1.217   2.133   0.648  0.3163  1.4833  0.3036
  156HFI     F4 2357   1.083   2.106   0.658  0.0309  0.7896  0.1275
  156HFI     F5 2358   1.228   2.254   0.592 -0.2372 -0.1892 -0.6538
  156HFI     F6 2359   1.270   2.142   0.770 -0.5660 -0.5217 -0.6102
  156HFI     H1 2360   1.224   1.907   0.701  1.3138  3.2128  0.2359
  156HFI     H2 2361   1.227   2.005   0.478 -0.3701  0.8762  0.1430
  157HFI     O1 2362   0.794   2.903   0.143  0.1595  0.0639 -0.0982
  157HFI     C1 2363   0.675   2.980   0.134  0.3409  0.1569  0.6786
  157HFI     C2 2364   0.576   2.937   0.015 -0.5298  0.2904  0.8557
  157HFI     F1 2365   0.450   2.990   0.022 -0.0555 -0.1215  0.0786
  157HFI     F2 2366   0.561   2.804   0.018  0.1525  0.1657  0.3517
  157HFI     F3 2367   0.624   2.967  -0.105 -0.4024  0.1378 -0.0456
  157HFI     C3 2368   0.709   3.132   0.121 -0.0551 -0.0249  0.7035
  157HFI     F4 2369   0.799   3.162   0.219 -0.3147 -0.3453 -0.2319
  157HFI     F5 2370   0.590   3.201   0.140  0.4700  0.0447  0.2095
  157HFI     F6 2371   0.768   3.168  -0.000  0.0967 -0.1929 -0.4653
  157HFI     H1 2372   0.859   2.945   0.084  0.2493 -0.5652 -0.4564
  157HFI     H2 2373   0.615   2.975   0.226 -0.8117  0.8947 -0.0096
  158HFI     O1 2374   1.302   0.263   2.351  0.3866 -0.3075  0.7957
  158HFI     C1 2375   1.269   0.143   2.275 -0.5576 -0.3982  0.3981
  158HFI     C2 2376   1.128   0.093   2.311  0.2286  0.3261 -0.2709
  158HFI     F1 2377   1.114   0.038   2.436 -0.0953 -0.9000  0.1763
  158HFI     F2 2378   1.084   0.015   2.217 -0.1837 -0.1592  0.2853
  158HFI     F3 2379   1.045   0.205   2.305  0.0097  0.8284  0.1294
  158HFI     C3 2380   1.376   0.026   2.273 -0.3299 -0.1975  0.7142
  158HFI     F4 2381   1.498   0.072   2.233 -0.2164 -0.5237 -0.3344
  158HFI     F5 2382   1.342  -0.070   2.183  0.2093 -0.2236  0.1715
  158HFI     F6 2383   1.385  -0.024   2.395  0.3162 -0.0258 -0.5246
  158HFI     H1 2384   1.220   0.308   2.375  0.5693  0.9208 -0.8198
  158HFI     H2 2385   1.261   0.174   2.170 -3.3638  0.5835  0.8635
  159HFI     O1 2386   2.010   2.252   0.788  0.3555 -0.7468 -0.0468
  159HFI     C1 2387   1.946   2.177   0.898 -0.7512 -0.1846 -0.1200
  159HFI     C2 2388   1.807   2.243   0.933 -0.1613 -0.2503 -0.5696
  159HFI     F1 2389   1.831   2.378   0.962  0.5042  0.6265  0.4231
  159HFI     F2 2390   1.748   2.192   1.041 -0.0806  0.1343 -0.1631
  159HFI     F3 2391   1.724   2.237   0.836 -0.3470 -1.2022  0.1498
  159HFI     C3 2392   2.046   2.163   1.028 -0.6285 -0.3699  0.5293
  159HFI     F4 2393   2.171   2.129   0.974  0.0572  0.0472  0.4434
  159HFI     F5 2394   2.012   2.059   1.111 -0.5234 -0.0127 -0.4135
  159HFI     F6 2395   2.047   2.268   1.108 -0.6000 -0.0710  0.1180
  159HFI     H1 2396   2.080   2.310   0.823  0.8600 -1.9137  0.9115
  159HFI     H2 2397   1.918   2.075   0.871  0.1154 -0.4091 -0.1909
  160HFI     O1 2398   3.037   0.986   0.350  0.3459 -0.2971 -0.1762
  160HFI     C1 2399   3.010   0.845   0.316  0.2783  0.6120  0.4372
  160HFI     C2 2400   2.893   0.825   0.214 -1.0726 -0.0306 -0.1937
  160HFI     F1 2401   2.894   0.697   0.172  0.0467  0.3709  0.4692
  160HFI     F2 2402   2.918   0.886   0.099 -0.1693  0.2889 -0.3295
  160HFI     F3 2403   2.772   0.860   0.269 -0.8015  0.3703 -0.5267
  160HFI     C3 2404   2.992   0.760   0.445 -0.3131  0.1863 -0.1596
  160HFI     F4 2405   2.881   0.790   0.512 -1.1119  0.3460  0.0275
  160HFI     F5 2406   3.094   0.786   0.526  0.0991  0.0243 -0.6706
  160HFI     F6 2407   2.986   0.629   0.420  0.9430 -0.3469  0.2725
  160HFI     H1 2408   3.103   0.989   0.422 -0.8322 -2.9353  1.1038
  160HFI     H2 2409   3.098   0.802   0.266  0.0690  2.6284 -1.7581
  161HFI     O1 2410   1.464   3.422   2.812 -0.0239 -0.1895  0.2693
  161HFI     C1 2411   1.329   3.397   2.846  0.7691  0.5818  0.5399
  161HFI     C2 2412   1.296   3.250   2.809 -0.2657  0.4144 -0.3291
  161HFI     F1 2413   1.391   3.166   2.859 -0.5207 -0.1637  0.0946
  161HFI     F2 2414   1.287   3.226   2.674  0.5802 -0.3995 -0.2467
  161HFI     F3 2415   1.186   3.209   2.863 -0.6613  0.2183 -0.3774
  161HFI     C3 2416   1.225   3.503   2.787  0.3336  0.9004  0.0946
  161HFI     F4 2417   1.099   3.464   2.791 -0.0439  1.0519  0.0526
  161HFI     F5 2418   1.262   3.534   2.659  0.5058  0.6594  0.0566
  161HFI     F6 2419   1.231   3.618   2.845  0.4229 -0.2967 -0.0479
  161HFI     H1 2420   1.478   3.518   2.800 -0.3864 -0.1634  0.0341
  161HFI     H2 2421   1.315   3.396   2.955 -0.7768 -1.4681  0.3497
  162HFI     O1 2422   0.760   2.498   2.462  0.3572 -0.1980 -1.0781
  162HFI     C1 2423   0.642   2.514   2.382  0.3179  0.3392  0.2948
  162HFI     C2 2424   0.618   2.398   2.290 -0.7009  0.0455 -0.6754
  162HFI     F1 2425   0.594   2.285   2.361 -0.1872  0.2199  0.2819
  162HFI     F2 2426   0.732   2.377   2.213 -0.8656  0.2117 -0.6771
  162HFI     F3 2427   0.517   2.410   2.207  0.2113  0.0702 -0.2108
  162HFI     C3 2428   0.652   2.650   2.305 -0.9977  0.0331  0.6273
  162HFI     F4 2429   0.686   2.749   2.382 -0.0664 -0.6009 -0.1298
  162HFI     F5 2430   0.541   2.684   2.239  0.4113  0.1122  0.1022
  162HFI     F6 2431   0.750   2.645   2.213 -0.5631 -0.1149  0.1883
  162HFI     H1 2432   0.837   2.541   2.422 -0.3115  1.9855 -0.1249
  162HFI     H2 2433   0.549   2.521   2.441 -0.1280 -0.3286 -0.3139
  163HFI     O1 2434   1.893   3.110   3.171  0.9241 -0.1049 -0.7598
  163HFI     C1 2435   1.988   3.057   3.267 -1.1186 -0.5111 -0.4813
  163HFI     C2 2436   1.923   2.948   3.351  0.5750  0.4502  0.4709
  163HFI     F1 2437   1.910   2.830   3.279 -0.1174 -0.3376 -1.0134
  163HFI     F2 2438   1.797   2.988   3.385  0.2696 -0.4544 -0.3226
  163HFI     F3 2439   1.987   2.914   3.467  0.1472 -0.2947  0.4429
  163HFI     C3 2440   2.054   3.161   3.349  0.6377 -0.0308  0.5918
  163HFI     F4 2441   2.153   3.113   3.435 -0.5382  0.0386  0.6178
  163HFI     F5 2442   1.965   3.231   3.421  0.3223 -0.3140 -0.1265
  163HFI     F6 2443   2.115   3.256   3.270 -0.5077  0.5390 -0.2567
  163HFI     H1 2444   1.821   3.143   3.228  0.4065 -1.9473 -0.3069
  163HFI     H2 2445   2.069   3.004   3.214 -1.0689 -0.0430 -0.8773
  164HFI     O1 2446   0.459   1.204   1.338 -0.0012  0.3218  0.1260
  164HFI     C1 2447   0.541   1.110   1.407 -0.8766  0.1728  0.0421
  164HFI     C2 2448   0.469   1.048   1.527  0.4494  0.3577 -0.2395
  164HFI     F1 2449   0.539   0.958   1.603  0.0712 -0.2354 -0.6266
  164HFI     F2 2450   0.351   0.987   1.484 -0.6705 -0.0225 -0.1003
  164HFI     F3 2451   0.434   1.149   1.605 -0.0944 -0.1307 -0.3951
  164HFI     C3 2452   0.690   1.158   1.421  0.3508 -0.0552  0.6488
  164HFI     F4 2453   0.690   1.250   1.519  0.3524 -0.1559 -0.2734
  164HFI     F5 2454   0.731   1.223   1.311  0.1290  0.2265 -0.1283
  164HFI     F6 2455   0.783   1.058   1.446  0.0853  0.0939 -0.2236
  164HFI     H1 2456   0.447   1.278   1.401  1.0824  0.9937 -0.4389
  164HFI     H2 2457   0.550   1.023   1.341  0.3774 -0.8327  1.4869
  165HFI     O1 2458   0.556   0.067   2.236 -0.0614 -0.1494  0.1825
  165HFI     C1 2459   0.443   0.071   2.327 -0.2709 -0.3838  0.0793
  165HFI     C2 2460   0.484   0.035   2.471 -0.1329 -0.3931 -0.5078
  165HFI     F1 2461   0.525  -0.093   2.481 -0.1802 -0.0235 -0.2995
  165HFI     F2 2462   0.382   0.050   2.559 -0.4789 -0.8022  0.0281
  165HFI     F3 2463   0.587   0.111   2.511 -0.1659  0.1277  0.2762
  165HFI     C3 2464   0.329  -0.029   2.281  0.2087  0.3016  0.1325
  165HFI     F4 2465   0.238  -0.060   2.376 -0.4389  0.1766 -0.1218
  165HFI     F5 2466   0.385  -0.145   2.230  0.3227 -0.0693 -0.1419
  165HFI     F6 2467   0.269   0.025   2.180 -0.1379 -0.6638 -0.2033
  165HFI     H1 2468   0.566  -0.027   2.214  0.1781 -0.0688 -0.0438
  165HFI     H2 2469   0.393   0.167   2.316 -0.1130 -0.5755 -2.5224
  166HFI     O1 2470   3.161   0.410   3.024  0.1406 -0.2117 -0.2793
  166HFI     C1 2471   3.065   0.330   2.935 -0.1345  0.7934  0.5192
  166HFI     C2 2472   3.070   0.179   2.957 -0.6654  0.7618  0.8240
  166HFI     F1 2473   3.009   0.157   3.070 -0.1099 -0.8450 -1.1010
  166HFI     F2 2474   3.192   0.123   2.960 -0.1337  0.4703 -0.4839
  166HFI     F3 2475   3.001   0.106   2.868 -0.5655  0.2779  0.0473
  166HFI     C3 2476   3.090   0.365   2.782 -0.2005  0.5129 -0.3047
  166HFI     F4 2477   3.110   0.496   2.764  0.0734  0.3667 -0.2192
  166HFI     F5 2478   2.983   0.323   2.709 -0.1884 -0.0354 -0.0233
  166HFI     F6 2479   3.204   0.299   2.731 -0.4169 -0.1161 -0.1462
  166HFI     H1 2480   3.138   0.504   3.024 -1.6149 -0.6096 -0.8113
  166HFI     H2 2481   2.962   0.358   2.959 -0.1341 -0.2360  1.7672
  167HFI     O1 2482   0.951   1.852   2.967  0.0280  0.5718  0.4382
  167HFI     C1 2483   0.959   1.732   2.876 -0.4311 -0.4941  0.0810
  167HFI     C2 2484   1.094   1.699   2.813  0.4035 -0.5404 -0.4385
  167HFI     F1 2485   1.099   1.568   2.759 -0.1350 -0.1062 -0.1138
  167HFI     F2 2486   1.190   1.712   2.902 -0.3776  0.1857 -0.6570
  167HFI     F3 2487   1.120   1.776   2.717 -0.4348  0.2073 -0.7147
  167HFI     C3 2488   0.844   1.722   2.766 -0.2098 -0.9265  0.1748
  167HFI     F4 2489   0.720   1.740   2.821 -0.0752  0.3632 -0.2429
  167HFI     F5 2490   0.848   1.599   2.702 -0.0583 -0.1341 -0.4144
  167HFI     F6 2491   0.852   1.816   2.666  0.7129  0.0296  0.0388
  167HFI     H1 2492   0.866   1.898   2.965  1.1211  2.7993  2.5056
  167HFI     H2 2493   0.921   1.643   2.929 -1.7055 -0.7534 -1.2445
  168HFI     O1 2494   3.203   1.813   2.892 -0.1228 -0.2594 -0.0694
  168HFI     C1 2495   3.140   1.834   2.761  0.2152  0.0640  0.0777
  168HFI     C2 2496   3.247   1.879   2.655 -0.3242 -0.5666  0.3344
  168HFI     F1 2497   3.282   2.007   2.656  0.2402 -0.4792  0.3150
  168HFI     F2 2498   3.206   1.851   2.533 -0.4029  0.0071  0.1668
  168HFI     F3 2499   3.359   1.805   2.684  0.2655  0.1187  0.3763
  168HFI     C3 2500   3.018   1.929   2.772  0.1857  0.5959 -0.1413
  168HFI     F4 2501   2.956   1.937   2.649  0.7720 -0.1177 -0.4400
  168HFI     F5 2502   3.055   2.049   2.806 -0.2740 -0.6748 -0.3099
  168HFI     F6 2503   2.915   1.891   2.859 -0.1243  0.0130 -0.3111
  168HFI     H1 2504   3.224   1.900   2.931  2.4056 -1.2432  0.9317
  168HFI     H2 2505   3.092   1.739   2.734 -1.5287  0.6885  0.9632
  169HFI     O1 2506   2.083   1.635   2.946  0.0993  0.2905  0.3104
  169HFI     C1 2507   2.049   1.561   2.831  0.7546 -0.2570  0.5069
  169HFI     C2 2508   2.165   1.484   2.767  0.0997  0.0629  0.2717
  169HFI     F1 2509   2.237   1.408   2.864  0.1386 -0.3105  0.1422
  169HFI     F2 2510   2.255   1.565   2.716 -0.4020 -0.0639  0.3140
  169HFI     F3 2511   2.125   1.400   2.669 -0.3461 -0.1795 -0.3049
  169HFI     C3 2512   1.968   1.641   2.721  1.0281 -0.3961 -0.1159
  169HFI     F4 2513   1.857   1.693   2.793 -0.4407  0.2280  0.2295
  169HFI     F5 2514   1.918   1.557   2.627 -0.4220 -0.2754  0.1300
  169HFI     F6 2515   2.028   1.745   2.658 -0.3890  0.3466  0.0266
  169HFI     H1 2516   2.020   1.709   2.952 -1.2130 -0.6354 -1.3838
  169HFI     H2 2517   1.978   1.481   2.854 -0.8959  1.4436  1.5009
  170HFI     O1 2518   1.721   2.598   2.926  0.0466  0.7004 -0.2434
  170HFI     C1 2519   1.714   2.721   2.844 -0.4745 -0.3687 -0.4282
  170HFI     C2 2520   1.633   2.826   2.921 -0.5744  0.5433  0.1261
  170HFI     F1 2521   1.522   2.765   2.968  0.6367  0.2795 -0.2466
  170HFI     F2 2522   1.595   2.926   2.845 -0.2316  0.1226 -0.3570
  170HFI     F3 2523   1.704   2.863   3.031  0.4398 -0.0820  0.6911
  170HFI     C3 2524   1.654   2.682   2.700 -0.6090  0.6968 -0.5466
  170HFI     F4 2525   1.525   2.651   2.707 -0.0896 -0.6147 -0.4613
  170HFI     F5 2526   1.728   2.576   2.660  0.4934  0.0597 -0.2518
  170HFI     F6 2527   1.674   2.780   2.611 -0.3491  0.0486  0.5313
  170HFI     H1 2528   1.791   2.547   2.881 -0.9051 -0.2586 -0.6333
  170HFI     H2 2529   1.813   2.764   2.824 -0.8156  0.9653  0.7569
  171HFI     O1 2530   0.572   2.006   3.085 -0.3716 -0.3234 -0.6349
  171HFI     C1 2531   0.641   2.056   3.200  0.1076 -0.2658 -0.3986
  171HFI     C2 2532   0.743   2.175   3.171  0.1257 -0.0297 -0.1607
  171HFI     F1 2533   0.789   2.216   3.287  0.5430 -0.0071 -0.1727
  171HFI     F2 2534   0.671   2.270   3.117  0.4684 -0.1324  0.0003
  171HFI     F3 2535   0.836   2.142   3.090 -0.2146 -0.0927  0.1730
  171HFI     C3 2536   0.701   1.945   3.284  0.6665  0.6455 -0.3481
  171HFI     F4 2537   0.807   1.881   3.224  0.1926  0.7799  0.0812
  171HFI     F5 2538   0.602   1.852   3.297  0.0488  0.3074 -0.1825
  171HFI     F6 2539   0.731   1.982   3.411 -0.2836  0.1998 -0.4139
  171HFI     H1 2540   0.513   2.080   3.060  2.9806  2.9046  0.5990
  171HFI     H2 2541   0.567   2.098   3.269 -0.9163 -0.5558 -1.2921
  172HFI     O1 2542   0.953   3.248   3.346 -0.7421  0.6863 -0.2209
  172HFI     C1 2543   0.977   3.344   3.240  0.1552 -0.5823 -0.7513
  172HFI     C2 2544   0.925   3.275   3.107  0.2859 -0.0616  0.3239
  172HFI     F1 2545   0.934   3.349   2.992  0.2609 -0.3858  0.3792
  172HFI     F2 2546   0.799   3.236   3.119 -1.0111 -0.2459  0.1197
  172HFI     F3 2547   1.004   3.169   3.075 -0.0640 -0.2395  0.5854
  172HFI     C3 2548   1.125   3.392   3.233  0.5005 -0.0184  0.0637
  172HFI     F4 2549   1.207   3.286   3.210  0.4007 -0.2916  0.1744
  172HFI     F5 2550   1.161   3.445   3.350 -0.1139  0.4074  0.0474
  172HFI     F6 2551   1.156   3.488   3.138 -0.3160 -0.1872  0.3071
  172HFI     H1 2552   0.869   3.204   3.324  0.1841 -0.2610 -2.1037
  172HFI     H2 2553   0.918   3.436   3.246  1.7073  0.3694  0.5695
  173HFI     O1 2554   1.013   0.889   1.243  0.6340  0.1509 -0.0904
  173HFI     C1 2555   1.044   0.877   1.385  0.6875  0.2417 -0.6289
  173HFI     C2 2556   1.185   0.904   1.423  0.4365 -0.2108  0.2952
  173HFI     F1 2557   1.191   0.926   1.555 -0.0721  0.6474  0.1025
  173HFI     F2 2558   1.222   1.023   1.360  0.6066 -0.5016 -0.0840
  173HFI     F3 2559   1.273   0.805   1.388 -0.3051  0.2965 -0.5139
  173HFI     C3 2560   0.989   0.749   1.441 -0.8747 -0.4103  0.3611
  173HFI     F4 2561   0.854   0.756   1.442 -0.8759 -0.0781  0.6554
  173HFI     F5 2562   1.032   0.724   1.565 -0.6249  0.2276  0.2315
  173HFI     F6 2563   1.023   0.650   1.362  0.5083 -0.3102 -0.0887
  173HFI     H1 2564   1.097   0.875   1.197  0.1412 -0.9882 -0.6655
  173HFI     H2 2565   0.986   0.956   1.435  1.5682  1.0110 -0.8169
  174HFI     O1 2566   2.239   3.105   2.478  0.1535  0.4991  0.6877
  174HFI     C1 2567   2.337   3.184   2.398 -0.4596  0.2553  0.2923
  174HFI     C2 2568   2.282   3.293   2.308  0.1108 -0.2869  0.0222
  174HFI     F1 2569   2.377   3.364   2.243  0.1713  0.1530  0.1859
  174HFI     F2 2570   2.207   3.381   2.376 -0.3551  0.4155  0.0958
  174HFI     F3 2571   2.200   3.232   2.221  0.3350  0.1063 -0.1066
  174HFI     C3 2572   2.429   3.087   2.312 -0.8562  0.2916  0.6170
  174HFI     F4 2573   2.357   3.001   2.240  0.4069 -0.0278  0.6317
  174HFI     F5 2574   2.508   3.018   2.399  0.5306  0.2661 -0.1581
  174HFI     F6 2575   2.519   3.148   2.229 -0.7788  0.5136 -0.5466
  174HFI     H1 2576   2.181   3.061   2.414 -0.4078  1.9408  0.2011
  174HFI     H2 2577   2.409   3.237   2.462  1.5540 -0.6694 -1.1337
  175HFI     O1 2578   2.845   0.677   2.459 -0.4097  0.2049 -0.3481
  175HFI     C1 2579   2.804   0.535   2.422 -0.6273 -0.3436 -0.2629
  175HFI     C2 2580   2.750   0.534   2.274 -0.6509 -0.2996 -0.1270
  175HFI     F1 2581   2.750   0.419   2.228  0.0822  0.6319 -0.1598
  175HFI     F2 2582   2.830   0.614   2.195 -0.2128  0.2960 -0.0245
  175HFI     F3 2583   2.625   0.572   2.265  0.2305  0.2469  0.4144
  175HFI     C3 2584   2.714   0.490   2.526 -0.3234  0.1446  0.7750
  175HFI     F4 2585   2.688   0.352   2.500 -0.6064  0.1387 -0.2911
  175HFI     F5 2586   2.595   0.561   2.521  0.6772  0.4475 -0.0719
  175HFI     F6 2587   2.767   0.508   2.648  0.7663 -0.4657 -0.1190
  175HFI     H1 2588   2.771   0.732   2.428 -2.5970 -1.3386  1.9597
  175HFI     H2 2589   2.887   0.463   2.428 -2.2896 -2.2220  0.4823
  176HFI     O1 2590   1.079   1.171   2.449  0.2953 -0.1704  0.2759
  176HFI     C1 2591   0.963   1.260   2.415  0.5881 -0.3184 -0.4050
  176HFI     C2 2592   0.852   1.262   2.518  0.1521  0.3644 -0.4538
  176HFI     F1 2593   0.774   1.163   2.492  0.2656 -0.1183  0.1460
  176HFI     F2 2594   0.782   1.376   2.509  0.7436 -0.2749 -0.1523
  176HFI     F3 2595   0.900   1.246   2.643  0.0079  0.2209  0.2761
  176HFI     C3 2596   0.929   1.246   2.268  0.1860 -0.4026  0.6420
  176HFI     F4 2597   0.896   1.120   2.234  0.1732  0.0671 -0.0185
  176HFI     F5 2598   1.039   1.280   2.200  0.0128 -0.1794  0.4193
  176HFI     F6 2599   0.827   1.325   2.234 -0.9568 -0.8432 -0.0957
  176HFI     H1 2600   1.156   1.182   2.391  0.3568  0.3561  0.4523
  176HFI     H2 2601   0.985   1.367   2.425  0.0367 -0.1914 -0.5390
  177HFI     O1 2602   3.296   2.809   3.227  0.0502  0.0781 -0.2235
  177HFI     C1 2603   3.304   2.794   3.080 -0.1467 -0.0392  0.4169
  177HFI     C2 2604   3.449   2.772   3.016 -0.2356 -0.3102 -0.4288
  177HFI     F1 2605   3.444   2.704   2.897 -0.4941 -0.1589  0.2725
  177HFI     F2 2606   3.514   2.697   3.111 -0.5106  0.1781  0.3183
  177HFI     F3 2607   3.517   2.893   3.003  0.4593 -0.2287  0.2305
  177HFI     C3 2608   3.225   2.915   3.012  0.7073 -0.3750 -0.4268
  177HFI     F4 2609   3.218   2.903   2.879  0.2628  0.1124 -0.0108
  177HFI     F5 2610   3.291   3.027   3.052 -0.2222 -0.0996 -0.2912
  177HFI     F6 2611   3.106   2.919   3.060  0.1656  0.9939 -0.3305
  177HFI     H1 2612   3.380   2.790   3.272 -0.7252  0.4104  1.4063
  177HFI     H2 2613   3.244   2.706   3.054  0.6851 -0.6420  0.5200
  178HFI     O1 2614   2.932   1.267   0.836 -0.1059 -0.6041 -0.0427
  178HFI     C1 2615   2.995   1.210   0.953  0.4191 -0.4601 -0.2684
  178HFI     C2 2616   3.039   1.066   0.930  0.1205 -0.7017  0.1354
  178HFI     F1 2617   3.106   1.021   1.026  0.0966  0.3948  0.6421
  178HFI     F2 2618   3.109   1.045   0.815 -0.6218 -0.0328  0.0159
  178HFI     F3 2619   2.932   0.991   0.921 -0.7746  0.0610  0.0131
  178HFI     C3 2620   2.908   1.241   1.080  0.7508  0.3743  0.0207
  178HFI     F4 2621   2.775   1.257   1.051  0.4060 -0.5324 -0.3425
  178HFI     F5 2622   2.951   1.360   1.121  0.0319  0.2629 -0.3216
  178HFI     F6 2623   2.924   1.152   1.174  0.3892  0.4039  0.3695
  178HFI     H1 2624   2.852   1.215   0.816 -2.0358  2.1790  0.1247
  178HFI     H2 2625   3.091   1.259   0.974  0.4002  0.1626 -1.6005
  179HFI     O1 2626   1.990   1.805   3.684 -0.0128 -0.5023  0.0145
  179HFI     C1 2627   1.974   1.677   3.751 -0.0585  0.3252  0.0651
  179HFI     C2 2628   2.100   1.622   3.824 -0.2609  0.8955  0.2081
  179HFI     F1 2629   2.204   1.621   3.743  0.0589 -0.0189 -0.1024
  179HFI     F2 2630   2.082   1.503   3.885 -0.2891  0.4260 -0.6500
  179HFI     F3 2631   2.136   1.707   3.922 -0.2285  0.6838 -0.1579
  179HFI     C3 2632   1.908   1.576   3.652  0.1692 -0.2788 -0.5133
  179HFI     F4 2633   1.907   1.455   3.701  0.2825 -0.3065  0.0850
  179HFI     F5 2634   1.967   1.588   3.531 -0.0412 -0.0449  0.5369
  179HFI     F6 2635   1.779   1.605   3.630 -0.7654  0.0134  0.8545
  179HFI     H1 2636   2.048   1.799   3.606 -1.9041  1.6861 -1.6185
  179HFI     H2 2637   1.902   1.689   3.832  1.0320  0.1718  1.0730
  180HFI     O1 2638   3.136   3.230   1.308 -0.4255  0.0264 -0.3815
  180HFI     C1 2639   3.117   3.344   1.394  0.0227 -0.6639 -0.4607
  180HFI     C2 2640   3.245   3.377   1.475 -0.5622  0.5673  0.1170
  180HFI     F1 2641   3.280   3.283   1.564  0.1051  0.5996 -0.3211
  180HFI     F2 2642   3.237   3.489   1.554  0.9393 -0.7168 -0.1263
  180HFI     F3 2643   3.351   3.397   1.399  0.0191 -0.1489  0.5674
  180HFI     C3 2644   2.992   3.326   1.492 -0.5351  0.2709 -0.1067
  180HFI     F4 2645   2.890   3.305   1.411 -0.0648 -0.0624 -0.0031
  180HFI     F5 2646   2.962   3.436   1.569 -0.1507 -0.0046 -0.3534
  180HFI     F6 2647   3.012   3.217   1.575  0.1665  0.3717 -0.5649
  180HFI     H1 2648   3.180   3.164   1.364 -2.3670  0.4452  1.6932
  180HFI     H2 2649   3.103   3.445   1.353 -2.1780  0.6800  3.3886
  181HFI     O1 2650   2.604   0.012   2.915 -0.6072  0.0427 -0.1854
  181HFI     C1 2651   2.515   0.081   2.825  0.1874  0.0521 -0.3691
  181HFI     C2 2652   2.553   0.231   2.818  0.4020  0.8151  0.7254
  181HFI     F1 2653   2.683   0.246   2.801 -0.3363 -0.1697 -0.0329
  181HFI     F2 2654   2.505   0.313   2.922  0.2262 -0.5204  0.0101
  181HFI     F3 2655   2.489   0.272   2.708 -0.2367  0.1977  0.3347
  181HFI     C3 2656   2.369   0.059   2.867  0.2953  0.5123 -0.2395
  181HFI     F4 2657   2.278   0.122   2.785 -0.4409 -0.3013  0.0182
  181HFI     F5 2658   2.345   0.088   2.997  0.5903 -0.5882  0.3107
  181HFI     F6 2659   2.331  -0.070   2.851  0.1142  0.4672  0.2623
  181HFI     H1 2660   2.631   0.074   2.984 -0.0114  3.0823 -3.0390
  181HFI     H2 2661   2.523   0.035   2.726  1.5920 -1.3555  0.3715
  182HFI     O1 2662   1.836   1.410   3.158  0.3555  0.4359 -0.3489
  182HFI     C1 2663   1.889   1.274   3.187  0.4686 -0.1458  0.2065
  182HFI     C2 2664   1.942   1.261   3.327 -0.7716  0.5075 -0.5299
  182HFI     F1 2665   1.843   1.275   3.422 -0.3248  0.6731  0.1993
  182HFI     F2 2666   2.031   1.357   3.354 -0.4286  0.9723 -0.3329
  182HFI     F3 2667   2.002   1.138   3.345  0.3872  0.1060  0.3807
  182HFI     C3 2668   1.989   1.223   3.072  0.1379 -0.6921 -0.6512
  182HFI     F4 2669   1.944   1.252   2.948 -0.1577  0.7857 -0.3285
  182HFI     F5 2670   2.003   1.090   3.078  0.0756  0.0915 -0.0851
  182HFI     F6 2671   2.112   1.287   3.092  0.0086 -0.2008  0.5311
  182HFI     H1 2672   1.897   1.479   3.191  0.9719 -0.9615  1.5274
  182HFI     H2 2673   1.807   1.201   3.188  0.0758  0.2877  2.3329
  183HFI     O1 2674   3.362   0.869   1.052  0.1344  0.0456 -0.2374
  183HFI     C1 2675   3.417   0.759   0.971  0.4150 -0.1057  0.1223
  183HFI     C2 2676   3.352   0.749   0.826  0.0302 -0.3365  0.1905
  183HFI     F1 2677   3.343   0.873   0.769  0.0634  0.0455  0.1317
  183HFI     F2 2678   3.229   0.708   0.827  0.3427 -0.0153 -0.5138
  183HFI     F3 2679   3.415   0.666   0.738 -0.0392  0.2113 -0.4215
  183HFI     C3 2680   3.426   0.626   1.043  0.2337  0.4487 -0.2058
  183HFI     F4 2681   3.518   0.547   0.989  0.0901 -0.3366 -0.0193
  183HFI     F5 2682   3.306   0.551   1.033 -0.3733 -0.0630  0.1736
  183HFI     F6 2683   3.460   0.638   1.174 -0.3249  0.3275  0.1820
  183HFI     H1 2684   3.273   0.889   1.019  0.3070  1.8140  0.3096
  183HFI     H2 2685   3.526   0.777   0.967  0.0315  2.0903 -1.1737
  184HFI     O1 2686   2.129   3.089   3.725 -0.0624  0.2078  0.2391
  184HFI     C1 2687   2.255   3.060   3.787  0.2061 -0.0875 -0.1609
  184HFI     C2 2688   2.346   3.185   3.799  0.2469  0.3830  0.1265
  184HFI     F1 2689   2.471   3.160   3.838  0.4754  0.3960 -0.5383
  184HFI     F2 2690   2.279   3.263   3.890 -0.2139  0.3949 -0.0945
  184HFI     F3 2691   2.351   3.253   3.680 -0.0355  0.1135 -0.4942
  184HFI     C3 2692   2.323   2.933   3.724  0.2535 -0.0724  0.1722
  184HFI     F4 2693   2.232   2.828   3.699 -0.2464 -0.5429 -0.3151
  184HFI     F5 2694   2.414   2.880   3.815 -0.7012  0.4398 -0.6797
  184HFI     F6 2695   2.389   2.966   3.611  0.3573 -0.2373 -0.5482
  184HFI     H1 2696   2.131   3.064   3.631 -0.3228 -0.0894  0.3112
  184HFI     H2 2697   2.216   3.023   3.883 -1.9883 -0.5573 -1.1863
  185HFI     O1 2698   1.330   1.223   2.316 -0.3707  0.2406  0.7779
  185HFI     C1 2699   1.395   1.105   2.258 -0.0092 -0.3047 -0.2883
  185HFI     C2 2700   1.318   0.969   2.270  0.6739  0.0739 -0.9053
  185HFI     F1 2701   1.295   0.954   2.399 -0.5220  0.1583  0.7209
  185HFI     F2 2702   1.378   0.852   2.229  0.4066 -0.2264  0.6703
  185HFI     F3 2703   1.204   0.979   2.214  0.4519  0.4341  0.0500
  185HFI     C3 2704   1.540   1.093   2.310 -0.7001  0.1038  0.1864
  185HFI     F4 2705   1.603   1.213   2.326 -0.5944  0.4734  0.4036
  185HFI     F5 2706   1.620   1.027   2.222  0.2167 -0.1422  0.0995
  185HFI     F6 2707   1.552   1.030   2.428  0.2563 -0.0738  0.0803
  185HFI     H1 2708   1.385   1.297   2.285  0.4959 -0.8753 -0.3748
  185HFI     H2 2709   1.393   1.119   2.149  0.2828 -2.3188 -0.5547
  186HFI     O1 2710   2.542   2.716   2.524  0.9376 -0.6231 -0.0256
  186HFI     C1 2711   2.465   2.623   2.439  0.1916  0.1782  0.0571
  186HFI     C2 2712   2.519   2.614   2.290  0.3016 -0.5221 -0.3472
  186HFI     F1 2713   2.474   2.509   2.219  0.2565  0.2248 -0.5295
  186HFI     F2 2714   2.656   2.596   2.287  0.2873 -0.3756  0.0455
  186HFI     F3 2715   2.488   2.726   2.220 -0.3914 -0.6778  0.2820
  186HFI     C3 2716   2.316   2.665   2.440 -0.2852 -0.2211  0.3578
  186HFI     F4 2717   2.293   2.798   2.440  0.5734 -0.7020 -0.1029
  186HFI     F5 2718   2.258   2.607   2.547 -0.6382 -0.2004 -0.1815
  186HFI     F6 2719   2.251   2.614   2.337 -0.0327  0.2021  0.1238
  186HFI     H1 2720   2.502   2.803   2.509  2.4744  0.1251  0.0713
  186HFI     H2 2721   2.467   2.524   2.485  3.0474 -0.1940 -0.7938
  187HFI     O1 2722   2.798   3.192   2.982 -0.0126 -0.4308 -0.5892
  187HFI     C1 2723   2.812   3.096   2.878  0.0407 -0.5613  0.9176
  187HFI     C2 2724   2.938   3.134   2.794 -0.4406  0.4262  0.1443
  187HFI     F1 2725   2.983   3.039   2.708  0.0640 -0.3426 -0.3512
  187HFI     F2 2726   3.051   3.160   2.862 -0.9540  0.4304 -0.4081
  187HFI     F3 2727   2.916   3.245   2.723 -0.3668 -0.2228  0.5220
  187HFI     C3 2728   2.687   3.069   2.792  0.2641 -0.0727  0.7295
  187HFI     F4 2729   2.717   2.967   2.700  0.1853  0.4846  0.4710
  187HFI     F5 2730   2.638   3.178   2.737  0.1283  0.4367 -0.2120
  187HFI     F6 2731   2.581   3.021   2.862  0.1981 -0.2912  0.0875
  187HFI     H1 2732   2.733   3.257   2.950  0.0918 -0.6107 -1.1676
  187HFI     H2 2733   2.836   2.996   2.917  0.0381 -1.6115 -1.6025
  188HFI     O1 2734   3.365   0.534   2.532 -0.4354 -0.0225 -0.3106
  188HFI     C1 2735   3.368   0.433   2.424 -0.3653  1.4283  0.1717
  188HFI     C2 2736   3.503   0.426   2.347 -0.0603 -0.8824  0.5560
  188HFI     F1 2737   3.535   0.302   2.291 -0.0501  0.0746 -0.3829
  188HFI     F2 2738   3.615   0.459   2.426  0.0892 -0.1982  1.2001
  188HFI     F3 2739   3.504   0.516   2.250  0.5191 -0.2835 -0.2732
  188HFI     C3 2740   3.240   0.432   2.338  0.5156  0.4642 -0.5825
  188HFI     F4 2741   3.218   0.559   2.282 -0.1095  0.4770  0.2299
  188HFI     F5 2742   3.137   0.394   2.413  0.1389 -0.6258  0.3228
  188HFI     F6 2743   3.247   0.348   2.234  0.1329 -0.5794 -0.1948
  188HFI     H1 2744   3.287   0.590   2.515  0.5087  1.0925 -1.0206
  188HFI     H2 2745   3.383   0.335   2.471 -0.2214  0.5577 -1.6388
  189HFI     O1 2746   2.613   1.920   0.870  0.0999  0.1397  0.8034
  189HFI     C1 2747   2.630   2.012   0.978  0.3475  0.1543 -0.2747
  189HFI     C2 2748   2.498   2.089   1.016  0.6081  0.7494  0.0195
  189HFI     F1 2749   2.460   2.168   0.919  0.2640 -0.0664  0.4307
  189HFI     F2 2750   2.523   2.167   1.126 -0.1032  0.0411  0.5288
  189HFI     F3 2751   2.400   2.008   1.048  0.1796  0.4019 -0.3420
  189HFI     C3 2752   2.749   2.113   0.948  0.7056  0.1051 -0.1974
  189HFI     F4 2753   2.729   2.184   0.840  0.0339  0.2399 -0.0306
  189HFI     F5 2754   2.868   2.050   0.929 -0.1115 -0.7849  0.6942
  189HFI     F6 2755   2.783   2.202   1.051  0.5120  0.3141  0.5497
  189HFI     H1 2756   2.519   1.896   0.877 -0.1682 -0.0738 -2.4930
  189HFI     H2 2757   2.659   1.959   1.070 -0.3237  0.7525  0.2840
  190HFI     O1 2758   2.706   2.307   0.087  0.0337  0.4131 -0.1569
  190HFI     C1 2759   2.725   2.421  -0.001  0.1469 -0.1559  0.4252
  190HFI     C2 2760   2.769   2.377  -0.149  0.0191  0.5673  0.4125
  190HFI     F1 2761   2.665   2.315  -0.209 -0.0163 -0.1990  0.3346
  190HFI     F2 2762   2.879   2.292  -0.158  0.3284 -0.2100 -0.0891
  190HFI     F3 2763   2.791   2.485  -0.230 -0.0156 -0.1573  0.0966
  190HFI     C3 2764   2.816   2.534   0.056  0.1513 -0.2098  1.0891
  190HFI     F4 2765   2.944   2.505   0.036  0.0133  0.0337 -0.0651
  190HFI     F5 2766   2.791   2.554   0.187  0.0270  0.5252  0.0697
  190HFI     F6 2767   2.792   2.652  -0.001  0.0086  0.0283 -0.7459
  190HFI     H1 2768   2.678   2.344   0.172 -1.7704 -1.1142 -0.0617
  190HFI     H2 2769   2.629   2.473  -0.012 -0.3211 -1.0996 -0.0108
  191HFI     O1 2770   2.897   0.449   1.008  0.2261 -0.7259  0.0218
  191HFI     C1 2771   2.785   0.479   0.925 -0.5234 -0.0492 -0.7236
  191HFI     C2 2772   2.654   0.508   1.019 -0.3745 -0.2384 -0.5594
  191HFI     F1 2773   2.672   0.619   1.090  0.5078  0.2336 -0.3035
  191HFI     F2 2774   2.625   0.414   1.108 -0.3412 -0.0813  0.2079
  191HFI     F3 2775   2.542   0.530   0.944 -0.8204  0.3057 -0.6763
  191HFI     C3 2776   2.764   0.369   0.822  0.2017 -0.8828  0.2913
  191HFI     F4 2777   2.723   0.250   0.865 -0.4908  0.2282  0.4206
  191HFI     F5 2778   2.875   0.348   0.762 -0.7570  0.0685  0.2932
  191HFI     F6 2779   2.680   0.407   0.722 -0.1500  0.0053  0.4496
  191HFI     H1 2780   2.976   0.446   0.950  0.5561  3.1848  0.0898
  191HFI     H2 2781   2.804   0.568   0.865 -0.1626  0.7174  0.5071
  192HFI     O1 2782   0.881   0.243   1.271  0.1859  0.1993 -0.1721
  192HFI     C1 2783   0.959   0.300   1.381 -0.1575  0.2537 -0.6314
  192HFI     C2 2784   1.080   0.220   1.426  0.2340  1.2284  0.2600
  192HFI     F1 2785   1.190   0.239   1.346  0.5556  0.1526  0.6860
  192HFI     F2 2786   1.056   0.083   1.412  0.0517  0.1527 -0.6713
  192HFI     F3 2787   1.106   0.226   1.564 -0.3170  0.4128 -0.0321
  192HFI     C3 2788   0.867   0.367   1.487 -0.1279  0.1016  0.0669
  192HFI     F4 2789   0.786   0.453   1.424  0.4614  0.3823  0.1540
  192HFI     F5 2790   0.935   0.441   1.578 -0.1410 -0.0315 -0.4673
  192HFI     F6 2791   0.791   0.282   1.555 -0.2086 -0.0821 -0.6045
  192HFI     H1 2792   0.807   0.193   1.309  1.2028 -2.5238 -1.6109
  192HFI     H2 2793   1.004   0.391   1.337 -1.2496  0.7950 -0.6331
  193HFI     O1 2794   1.066   2.336   2.447 -0.4802 -0.4246  0.3089
  193HFI     C1 2795   0.978   2.225   2.410  0.4422 -0.5330 -0.2602
  193HFI     C2 2796   0.994   2.109   2.516  0.4602 -0.2686  0.1423
  193HFI     F1 2797   1.119   2.078   2.536 -0.1124 -0.1414 -0.2028
  193HFI     F2 2798   0.928   1.995   2.475 -0.2924 -0.0115 -0.4800
  193HFI     F3 2799   0.931   2.144   2.629  0.0503 -0.1278 -0.3986
  193HFI     C3 2800   1.015   2.170   2.271  0.1768  0.3661 -0.5110
  193HFI     F4 2801   1.132   2.108   2.265 -0.3457 -0.4106 -0.0831
  193HFI     F5 2802   1.005   2.273   2.193 -0.4081  0.3471 -0.0032
  193HFI     F6 2803   0.917   2.079   2.229  0.2915 -0.4613 -0.1831
  193HFI     H1 2804   1.161   2.314   2.446  0.4765  3.4735 -0.8130
  193HFI     H2 2805   0.872   2.252   2.411  0.1932 -1.5096  0.1709
  194HFI     O1 2806   0.190   0.375   0.166  0.6792 -0.2826  0.5490
  194HFI     C1 2807   0.161   0.257   0.081  0.4155  0.3130  0.3893
  194HFI     C2 2808   0.013   0.214   0.104  0.3261  0.5056 -0.6923
  194HFI     F1 2809  -0.023   0.184   0.227  0.0443  0.0038  0.0439
  194HFI     F2 2810  -0.019   0.102   0.035  0.0397  0.0910  0.4149
  194HFI     F3 2811  -0.064   0.314   0.060  0.2837  0.6184  0.7094
  194HFI     C3 2812   0.272   0.150   0.104 -0.3632 -0.3795 -0.3389
  194HFI     F4 2813   0.266   0.114   0.233 -0.2066  0.0041  0.2506
  194HFI     F5 2814   0.393   0.192   0.084  0.1663 -0.3835 -0.0181
  194HFI     F6 2815   0.250   0.040   0.029  0.0243 -0.1614 -0.6976
  194HFI     H1 2816   0.246   0.353   0.242  2.5162  1.1044 -0.3542
  194HFI     H2 2817   0.164   0.296  -0.022  2.0743 -2.3714 -0.6445
  195HFI     O1 2818   0.030   2.024   0.613  0.3315 -0.0370 -0.2055
  195HFI     C1 2819  -0.007   1.885   0.628 -1.2150 -0.0039  0.2471
  195HFI     C2 2820   0.105   1.817   0.707  0.1446 -0.7375 -0.2844
  195HFI     F1 2821   0.110   1.873   0.832  0.5818  0.3227 -0.4778
  195HFI     F2 2822   0.235   1.827   0.650  0.0696  0.2215 -0.0693
  195HFI     F3 2823   0.075   1.687   0.723  0.2907  0.0250 -0.3609
  195HFI     C3 2824  -0.036   1.817   0.490 -0.4984  0.2276 -0.6830
  195HFI     F4 2825  -0.045   1.677   0.491  0.1178 -0.1403  0.4024
  195HFI     F5 2826   0.063   1.849   0.398 -0.0239 -0.0996 -0.4627
  195HFI     F6 2827  -0.151   1.864   0.436  0.5324  0.4712  0.0339
  195HFI     H1 2828   0.119   2.029   0.575  0.6801  2.8246  0.8665
  195HFI     H2 2829  -0.097   1.873   0.689 -0.8844 -1.8090  0.4151
  196HFI     O1 2830   1.170   1.582   2.471 -0.3356  0.0041  0.0460
  196HFI     C1 2831   1.128   1.687   2.386 -0.2943  0.1869  0.6864
  196HFI     C2 2832   0.985   1.669   2.323 -0.2842  0.7250 -0.2164
  196HFI     F1 2833   0.985   1.572   2.232  0.0012  0.1006  0.7217
  196HFI     F2 2834   0.939   1.779   2.266 -0.0914  0.3076 -0.4526
  196HFI     F3 2835   0.906   1.628   2.417  0.3083 -0.4622 -0.0305
  196HFI     C3 2836   1.236   1.718   2.279 -0.3033 -0.2001 -0.5643
  196HFI     F4 2837   1.189   1.820   2.196  0.1258  0.6022  0.0539
  196HFI     F5 2838   1.279   1.613   2.200 -0.5866 -0.3059 -0.1658
  196HFI     F6 2839   1.345   1.764   2.345 -0.2002 -0.2144 -0.3668
  196HFI     H1 2840   1.147   1.595   2.564  3.5388 -2.2541  1.4361
  196HFI     H2 2841   1.112   1.780   2.442 -1.0137  0.2684  0.3522
  197HFI     O1 2842   2.005   0.571   2.975 -0.3259 -0.4047  0.3496
  197HFI     C1 2843   2.018   0.430   2.937 -0.4566  0.4871  0.7573
  197HFI     C2 2844   2.088   0.341   3.046 -1.0286  0.3558 -0.0328
  197HFI     F1 2845   2.013   0.325   3.151 -0.3606 -0.7466 -0.4196
  197HFI     F2 2846   2.198   0.402   3.090 -0.4487 -0.0536  0.0121
  197HFI     F3 2847   2.119   0.225   2.996 -0.0711 -0.5445 -0.1297
  197HFI     C3 2848   2.069   0.424   2.793  0.2829 -0.4180 -0.4996
  197HFI     F4 2849   2.199   0.456   2.799  0.0566 -0.3822 -0.5466
  197HFI     F5 2850   2.005   0.516   2.712 -0.3007  0.0026 -0.4533
  197HFI     F6 2851   2.045   0.300   2.745 -0.4749  0.2451 -0.3423
  197HFI     H1 2852   1.980   0.623   2.897 -0.8291 -0.3492  0.5434
  197HFI     H2 2853   1.919   0.384   2.944 -0.3509  0.6767  4.0648
  198HFI     O1 2854   1.084   1.675   0.186  0.5717  0.1474  0.2718
  198HFI     C1 2855   1.051   1.820   0.158 -0.7286  0.4356  0.3962
  198HFI     C2 2856   1.177   1.891   0.105  0.0817  1.0504 -0.5420
  198HFI     F1 2857   1.262   1.930   0.208  0.1809  0.0781 -0.2603
  198HFI     F2 2858   1.143   1.995   0.029 -0.0283 -0.2872  0.3291
  198HFI     F3 2859   1.239   1.817   0.018  0.3933 -0.0257 -0.4297
  198HFI     C3 2860   0.980   1.901   0.264  0.0917  0.2023 -0.2909
  198HFI     F4 2861   0.852   1.867   0.287  0.5111  0.1389 -0.5415
  198HFI     F5 2862   0.978   2.031   0.246  0.3412 -0.5032 -0.2305
  198HFI     F6 2863   1.041   1.877   0.386 -0.1599 -0.0654  0.6519
  198HFI     H1 2864   1.119   1.636   0.105 -2.4590  1.8730 -1.9838
  198HFI     H2 2865   0.978   1.824   0.076  0.5264  1.6370 -0.6939
  199HFI     O1 2866   0.086   0.961   1.330 -0.5881 -0.5168  0.0179
  199HFI     C1 2867  -0.009   0.985   1.444  0.6468  0.0501  0.7104
  199HFI     C2 2868  -0.088   0.849   1.468 -0.0556 -0.3631 -0.0702
  199HFI     F1 2869  -0.000   0.747   1.472  0.3342  0.8511 -0.2743
  199HFI     F2 2870  -0.174   0.818   1.373 -0.0137 -0.0846  0.2529
  199HFI     F3 2871  -0.158   0.854   1.581 -0.0769  0.1847  0.0749
  199HFI     C3 2872  -0.107   1.099   1.423  0.7358 -0.5841  0.5998
  199HFI     F4 2873  -0.045   1.216   1.423  0.1971 -0.0135 -0.3142
  199HFI     F5 2874  -0.192   1.104   1.527  0.4099  0.1957 -0.1557
  199HFI     F6 2875  -0.172   1.091   1.308  0.7442 -0.2786  0.0035
  199HFI     H1 2876   0.041   0.916   1.257 -2.3164 -0.9088  1.3053
  199HFI     H2 2877   0.041   1.015   1.537 -2.0744 -1.0870  2.5826
  200HFI     O1 2878   3.069   1.257   0.323  0.4001  0.2025 -0.2193
  200HFI     C1 2879   2.966   1.357   0.371  0.2459  0.7254 -0.4858
  200HFI     C2 2880   3.037   1.478   0.442  0.1005  0.0529 -0.6063
  200HFI     F1 2881   2.958   1.588   0.443  0.0434  0.0535 -0.1876
  200HFI     F2 2882   3.150   1.519   0.380 -0.4251 -0.5312  0.1378
  200HFI     F3 2883   3.074   1.453   0.572  0.0666 -0.4119  0.0331
  200HFI     C3 2884   2.854   1.291   0.452  0.5917 -0.4270  0.4456
  200HFI     F4 2885   2.766   1.381   0.493  0.2414  0.2538 -0.2731
  200HFI     F5 2886   2.897   1.217   0.562  0.4686 -0.0782 -0.0251
  200HFI     F6 2887   2.783   1.205   0.380  0.2744  0.0248  0.1210
  200HFI     H1 2888   3.022   1.173   0.313  1.6642 -0.6616  0.8417
  200HFI     H2 2889   2.926   1.392   0.276  0.5134 -1.2063 -1.3393
  201HFI     O1 2890   0.981   0.334   0.334  0.2672 -0.0882  0.3433
  201HFI     C1 2891   0.919   0.345   0.472  0.5112  0.4661 -0.0657
  201HFI     C2 2892   0.770   0.393   0.461 -0.4428  0.4727  0.1389
  201HFI     F1 2893   0.711   0.399   0.584 -0.1959 -0.1070  1.2863
  201HFI     F2 2894   0.697   0.307   0.385 -0.9292  0.4545 -0.3363
  201HFI     F3 2895   0.755   0.515   0.401 -0.0153  0.3041  0.1270
  201HFI     C3 2896   0.992   0.433   0.577  0.1089 -0.6672  0.1914
  201HFI     F4 2897   0.974   0.567   0.548  0.7018  0.2293  0.1058
  201HFI     F5 2898   1.127   0.409   0.590 -0.0650  0.0622 -0.6147
  201HFI     F6 2899   0.949   0.413   0.708  0.1973  0.0205  0.2951
  201HFI     H1 2900   0.906   0.343   0.273 -0.9951  0.3543  1.9092
  201HFI     H2 2901   0.913   0.248   0.523  1.9128  1.4022  1.9391
  202HFI     O1 2902   1.923   0.836   1.001 -0.1662  0.5524  0.0794
  202HFI     C1 2903   1.958   0.761   0.881 -0.3367  0.0417 -0.0922
  202HFI     C2 2904   2.092   0.814   0.816  0.2433  0.0648  0.6781
  202HFI     F1 2905   2.082   0.943   0.788 -0.2523 -0.2141 -0.1092
  202HFI     F2 2906   2.132   0.748   0.703 -0.0831 -0.1555  0.4431
  202HFI     F3 2907   2.201   0.797   0.898  0.6072 -0.7505 -0.1723
  202HFI     C3 2908   1.853   0.747   0.775 -0.5572 -0.5511 -0.4305
  202HFI     F4 2909   1.840   0.624   0.736  0.0309  0.4659 -0.2960
  202HFI     F5 2910   1.856   0.827   0.668 -0.5110 -0.4619 -0.2307
  202HFI     F6 2911   1.730   0.785   0.829 -0.4225  0.4886 -0.6952
  202HFI     H1 2912   1.840   0.799   1.037 -0.3551  0.0846 -0.8300
  202HFI     H2 2913   1.984   0.657   0.906  1.4493  0.5364  0.2338
  203HFI     O1 2914   0.221   2.033   1.095 -0.2041 -0.0034 -0.4449
  203HFI     C1 2915   0.336   1.952   1.057  0.2169  0.1762  0.8000
  203HFI     C2 2916   0.428   1.904   1.177 -0.0623 -0.0569 -0.1622
  203HFI     F1 2917   0.351   1.894   1.290  0.1895  0.2383  0.1910
  203HFI     F2 2918   0.522   2.001   1.209 -0.2414  0.0585 -0.2477
  203HFI     F3 2919   0.483   1.787   1.152  0.0717  0.9589 -0.3937
  203HFI     C3 2920   0.410   2.016   0.938  0.1321 -0.5640 -0.1937
  203HFI     F4 2921   0.511   1.946   0.893 -0.0269  0.5806 -0.3968
  203HFI     F5 2922   0.468   2.134   0.967  1.0500 -0.0777 -0.3827
  203HFI     F6 2923   0.327   2.042   0.841  0.4104 -0.5779 -0.2501
  203HFI     H1 2924   0.249   2.123   1.069 -1.0334  0.6483  0.8626
  203HFI     H2 2925   0.293   1.856   1.026 -0.4563 -0.0301  2.3404
  204HFI     O1 2926   0.380   3.133   0.376  0.4724  0.1424  0.6839
  204HFI     C1 2927   0.304   3.219   0.472  0.1984 -0.0279 -0.7703
  204HFI     C2 2928   0.386   3.341   0.515 -0.3044  0.0551  0.1143
  204HFI     F1 2929   0.496   3.313   0.589  0.5626  0.0193  0.0761
  204HFI     F2 2930   0.318   3.433   0.583 -0.3442 -0.0689  0.5326
  204HFI     F3 2931   0.433   3.399   0.403 -0.1825 -0.1634  0.0406
  204HFI     C3 2932   0.251   3.137   0.585  0.6874 -0.2665 -0.7518
  204HFI     F4 2933   0.353   3.073   0.657  0.1018 -0.1104 -0.0396
  204HFI     F5 2934   0.168   3.042   0.539 -0.1055  0.1797  0.2698
  204HFI     F6 2935   0.177   3.208   0.676  0.1605  0.0376  0.1805
  204HFI     H1 2936   0.335   3.047   0.372  0.1170  0.4361 -3.4188
  204HFI     H2 2937   0.219   3.253   0.411  0.5956  0.4436 -1.0649
  205HFI     O1 2938   0.691   3.087   2.533 -0.1183 -0.0096 -0.1001
  205HFI     C1 2939   0.815   3.089   2.454  0.4282  0.7027 -0.1505
  205HFI     C2 2940   0.907   3.201   2.512  0.4291  0.2339 -0.2672
  205HFI     F1 2941   0.875   3.329   2.479 -0.3504  0.0272  0.4522
  205HFI     F2 2942   1.035   3.184   2.475 -0.2761 -0.5323 -0.0014
  205HFI     F3 2943   0.907   3.199   2.647 -0.5113 -0.2273 -0.2685
  205HFI     C3 2944   0.803   3.100   2.298 -0.2508  0.6648  0.0194
  205HFI     F4 2945   0.692   3.175   2.263 -0.2400 -0.0893  0.0373
  205HFI     F5 2946   0.775   2.982   2.245  0.9146  0.8046  0.4431
  205HFI     F6 2947   0.918   3.139   2.235 -0.0726  0.0127 -0.7175
  205HFI     H1 2948   0.617   3.119   2.479  0.5241 -0.9144 -1.5666
  205HFI     H2 2949   0.864   2.992   2.468  0.3619  0.4932 -1.3778
  206HFI     O1 2950   2.913   1.737   3.192  0.2960  0.8324  0.4503
  206HFI     C1 2951   2.842   1.678   3.306 -1.3885  0.0694 -0.4550
  206HFI     C2 2952   2.861   1.768   3.434  0.1420  1.2664 -0.1395
  206HFI     F1 2953   2.801   1.722   3.542  0.5626 -0.0351 -0.4780
  206HFI     F2 2954   2.810   1.891   3.407  0.1655  0.4629 -0.3319
  206HFI     F3 2955   2.990   1.779   3.465  0.5331  0.1961 -0.3585
  206HFI     C3 2956   2.887   1.531   3.336 -0.3489 -0.4037  0.1634
  206HFI     F4 2957   2.867   1.460   3.227 -0.4960 -0.0369  0.0628
  206HFI     F5 2958   2.815   1.479   3.441 -0.5321  0.2971  0.1362
  206HFI     F6 2959   3.015   1.514   3.378 -0.1595  0.0392  0.1877
  206HFI     H1 2960   2.990   1.684   3.170  1.0849  2.8928 -2.0425
  206HFI     H2 2961   2.734   1.662   3.297 -1.6806 -0.5883  3.2854
  207HFI     O1 2962   2.181   2.399   2.203  0.1778  0.0943  0.1922
  207HFI     C1 2963   2.141   2.279   2.279  0.1992  0.0041  0.0189
  207HFI     C2 2964   2.005   2.306   2.360 -0.2652  0.3446 -0.1228
  207HFI     F1 2965   2.008   2.416   2.443  0.8713  0.3255  0.0732
  207HFI     F2 2966   1.977   2.205   2.442 -0.6955 -0.0792  0.3977
  207HFI     F3 2967   1.899   2.314   2.277  0.0468  0.6099  0.1905
  207HFI     C3 2968   2.257   2.222   2.365  0.3689  0.8007  0.2334
  207HFI     F4 2969   2.310   2.317   2.443 -0.0200  0.4798  0.5078
  207HFI     F5 2970   2.357   2.175   2.280  0.0038 -0.2078  0.5527
  207HFI     F6 2971   2.233   2.116   2.446  0.6818 -0.4606 -0.3889
  207HFI     H1 2972   2.259   2.441   2.243  1.1554  0.0008 -1.5628
  207HFI     H2 2973   2.117   2.191   2.219 -0.3034 -0.9561  1.5905
  208HFI     O1 2974   2.792   1.968   2.358  0.2058  0.3290  0.1367
  208HFI     C1 2975   2.867   2.056   2.265 -0.2164 -0.0606 -0.5769
  208HFI     C2 2976   3.015   2.050   2.297 -0.5584  0.4406 -0.5498
  208HFI     F1 2977   3.052   1.921   2.287  0.9271  0.3877 -0.0779
  208HFI     F2 2978   3.040   2.097   2.420 -0.0763  0.4645  0.5374
  208HFI     F3 2979   3.095   2.123   2.219 -0.1848  0.1260  0.7399
  208HFI     C3 2980   2.816   2.206   2.256 -0.1922  0.3411 -0.5795
  208HFI     F4 2981   2.693   2.214   2.194  0.0480  0.2817 -0.5305
  208HFI     F5 2982   2.900   2.297   2.204  0.1448 -0.2349 -0.0387
  208HFI     F6 2983   2.789   2.253   2.382  0.2062 -0.5451 -0.2925
  208HFI     H1 2984   2.793   1.993   2.452  1.6189 -0.0795  0.2368
  208HFI     H2 2985   2.855   2.011   2.166  2.0429  0.5700 -1.1623
  209HFI     O1 2986   1.799   1.286   0.239  0.0028  0.4920  0.0950
  209HFI     C1 2987   1.770   1.146   0.279 -0.3587  0.0122  0.0052
  209HFI     C2 2988   1.636   1.103   0.204 -0.2573  0.5044  0.0925
  209HFI     F1 2989   1.614   0.973   0.224 -0.0570 -0.5887  0.1104
  209HFI     F2 2990   1.642   1.121   0.066 -0.0668  0.1074 -0.2716
  209HFI     F3 2991   1.528   1.170   0.247 -0.0793  0.3008 -0.1852
  209HFI     C3 2992   1.754   1.132   0.435  0.7584 -0.2480  0.3820
  209HFI     F4 2993   1.863   1.197   0.489 -0.0499  0.1756  0.2462
  209HFI     F5 2994   1.763   1.006   0.484 -0.0761 -0.3213  0.6515
  209HFI     F6 2995   1.639   1.193   0.486 -0.4872  0.3044 -0.6214
  209HFI     H1 2996   1.859   1.332   0.299  1.2679 -1.7024  0.5517
  209HFI     H2 2997   1.856   1.089   0.243 -2.3734 -1.5065 -2.5858
  210HFI     O1 2998   0.549   1.032   2.813 -0.1006  0.2565  0.0002
  210HFI     C1 2999   0.571   0.912   2.893  0.2260 -0.3282 -0.0940
  210HFI     C2 3000   0.657   0.939   3.015  0.1414  0.6695 -1.0876
  210HFI     F1 3001   0.675   0.825   3.078 -0.6173  0.0662  0.8022
  210HFI     F2 3002   0.590   1.027   3.096  0.4656  0.0277  0.4597
  210HFI     F3 3003   0.780   0.989   2.987  0.2393 -0.2724  0.4976
  210HFI     C3 3004   0.631   0.797   2.796 -0.4562 -0.4578  0.3710
  210HFI     F4 3005   0.716   0.839   2.700 -0.3806  0.4509 -0.2705
  210HFI     F5 3006   0.523   0.754   2.728  0.0357 -0.5077  0.3342
  210HFI     F6 3007   0.685   0.692   2.859 -0.4901 -0.2069 -0.4575
  210HFI     H1 3008   0.536   1.004   2.721  3.7885 -2.1104  0.0573
  210HFI     H2 3009   0.476   0.873   2.933  1.0594 -0.8742  1.3773
  211HFI     O1 3010   1.698   2.827   2.274  0.0973  0.2664  0.4680
  211HFI     C1 3011   1.820   2.908   2.256  0.2507  0.7085  0.6807
  211HFI     C2 3012   1.955   2.839   2.311  0.0484  0.1375 -0.5573
  211HFI     F1 3013   2.061   2.925   2.311  0.0525  0.5753  0.1153
  211HFI     F2 3014   1.982   2.735   2.227  0.4633 -0.5120 -0.3837
  211HFI     F3 3015   1.941   2.785   2.437 -0.0459 -0.2833  0.4322
  211HFI     C3 3016   1.810   3.054   2.297  0.7488  0.5259 -0.8897
  211HFI     F4 3017   1.919   3.126   2.259  0.0703  0.0566 -0.0668
  211HFI     F5 3018   1.812   3.057   2.429  0.1205  0.0835 -0.3262
  211HFI     F6 3019   1.696   3.113   2.254 -0.2700 -0.4553 -0.1865
  211HFI     H1 3020   1.674   2.824   2.369  0.9596  0.1004  0.6818
  211HFI     H2 3021   1.824   2.918   2.146 -1.2508  0.0110  0.5538
  212HFI     O1 3022   3.387   2.273   0.806  0.2119 -1.2927 -0.2630
  212HFI     C1 3023   3.258   2.312   0.861  0.7112 -0.9512  0.4699
  212HFI     C2 3024   3.202   2.224   0.976 -0.0061 -0.3724  0.1261
  212HFI     F1 3025   3.182   2.104   0.921 -0.0318  0.4056 -0.6762
  212HFI     F2 3026   3.091   2.270   1.039  0.1783 -0.0266  0.0155
  212HFI     F3 3027   3.296   2.210   1.077 -0.3248 -0.4213 -0.1336
  212HFI     C3 3028   3.159   2.344   0.748 -0.7630  0.8678  0.2755
  212HFI     F4 3029   3.152   2.240   0.658 -0.3016 -0.0680  0.3051
  212HFI     F5 3030   3.200   2.452   0.676 -0.2634 -0.7148 -0.3662
  212HFI     F6 3031   3.037   2.380   0.795  0.6479 -0.1638  0.3759
  212HFI     H1 3032   3.369   2.233   0.719 -2.2361 -1.1780  0.1498
  212HFI     H2 3033   3.266   2.404   0.921  1.5227  0.2152 -1.4002
  213HFI     O1 3034   0.990   2.631   2.622  0.0013 -0.8231  0.5192
  213HFI     C1 3035   1.060   2.641   2.750  0.1017 -0.8978 -0.2683
  213HFI     C2 3036   1.132   2.779   2.756 -0.0509  0.2132  0.0154
  213HFI     F1 3037   1.236   2.778   2.675  0.4267 -0.3770  0.0064
  213HFI     F2 3038   1.178   2.800   2.876  0.3309 -0.0543  0.5135
  213HFI     F3 3039   1.053   2.888   2.716 -0.2236 -0.0963 -0.1385
  213HFI     C3 3040   1.155   2.521   2.780 -0.5016 -0.2276 -0.8543
  213HFI     F4 3041   1.097   2.403   2.785 -0.2475  0.7744 -0.3585
  213HFI     F5 3042   1.214   2.531   2.903 -0.0624 -0.2328 -0.4384
  213HFI     F6 3043   1.254   2.510   2.692  0.2362 -0.0857  0.5510
  213HFI     H1 3044   1.013   2.543   2.588 -0.6707 -0.9587  0.4028
  213HFI     H2 3045   0.991   2.631   2.835  1.7856 -1.7001  1.0146
  214HFI     O1 3046   1.019   3.327   0.390  0.3706 -0.1897  0.1876
  214HFI     C1 3047   1.023   3.296   0.537 -0.2109 -0.1789 -0.4276
  214HFI     C2 3048   0.881   3.323   0.601  0.0547  0.2770  0.0163
  214HFI     F1 3049   0.858   3.253   0.718  0.0136 -0.5534 -0.1778
  214HFI     F2 3050   0.782   3.290   0.513 -0.0784 -0.0045 -0.2205
  214HFI     F3 3051   0.853   3.454   0.617 -0.4207  0.2567  0.6324
  214HFI     C3 3052   1.133   3.377   0.614  0.4130  0.2839 -0.3588
  214HFI     F4 3053   1.145   3.328   0.743  0.0914 -0.5118 -0.2154
  214HFI     F5 3054   1.113   3.509   0.619 -0.1086  0.3190 -0.6295
  214HFI     F6 3055   1.253   3.354   0.552 -0.1354 -0.6366  0.2473
  214HFI     H1 3056   0.940   3.291   0.346 -0.3842 -0.5477  1.7930
  214HFI     H2 3057   1.046   3.191   0.560  2.8684  0.2161 -1.4980
  215HFI     O1 3058   3.352   3.409   3.344 -0.2806 -0.1032  0.2411
  215HFI     C1 3059   3.316   3.302   3.436 -0.4825 -0.3339  0.0583
  215HFI     C2 3060   3.290   3.162   3.369  0.2620 -0.3180  0.2841
  215HFI     F1 3061   3.179   3.165   3.290  0.0972  0.5471  0.0872
  215HFI     F2 3062   3.279   3.062   3.457  0.2674  0.6293 -0.1099
  215HFI     F3 3063   3.393   3.131   3.287  0.4187  0.1700  0.1642
  215HFI     C3 3064   3.190   3.350   3.524  0.1747  0.1391  0.3029
  215HFI     F4 3065   3.127   3.250   3.596 -0.2319  0.1540 -0.2979
  215HFI     F5 3066   3.093   3.396   3.444 -0.6669 -0.2814  0.6672
  215HFI     F6 3067   3.222   3.454   3.607 -0.0222 -0.0138 -0.4421
  215HFI     H1 3068   3.287   3.403   3.273 -1.6907 -0.3709  1.5279
  215HFI     H2 3069   3.392   3.292   3.515  0.1295 -0.3028 -0.5229
  216HFI     O1 3070   2.699   2.899   0.146 -0.7356 -0.2192  0.0938
  216HFI     C1 3071   2.795   2.990   0.207 -0.1666 -0.1755 -0.4043
  216HFI     C2 3072   2.853   3.079   0.089 -0.4086  0.4915  0.1978
  216HFI     F1 3073   2.939   3.173   0.141 -0.0161  0.1878  0.1964
  216HFI     F2 3074   2.759   3.136   0.015 -0.2795  0.1685  0.4214
  216HFI     F3 3075   2.921   3.001   0.003 -0.1292  0.3337  0.0840
  216HFI     C3 3076   2.900   2.912   0.291  0.5218  0.5612 -0.1025
  216HFI     F4 3077   2.964   2.816   0.218  0.1770  0.4063 -0.1493
  216HFI     F5 3078   2.839   2.846   0.394 -0.2534  0.2382  0.4206
  216HFI     F6 3079   2.989   2.991   0.354  0.2194 -0.0101  0.4602
  216HFI     H1 3080   2.738   2.839   0.080 -0.8853 -1.4393  1.1085
  216HFI     H2 3081   2.744   3.068   0.265  0.0214  0.6400 -1.3074
  217HFI     O1 3082   3.124   2.477   0.362 -0.1987  0.3040 -0.4019
  217HFI     C1 3083   3.198   2.411   0.259 -0.2412  0.7747 -0.1854
  217HFI     C2 3084   3.251   2.279   0.318 -0.5277  0.0203 -0.2111
  217HFI     F1 3085   3.340   2.228   0.229  0.1150 -0.4934 -0.0633
  217HFI     F2 3086   3.147   2.195   0.321 -0.2469  0.1259 -0.1397
  217HFI     F3 3087   3.319   2.286   0.436  0.0737  0.2637 -0.1866
  217HFI     C3 3088   3.307   2.502   0.205  0.7517 -0.4719  0.4713
  217HFI     F4 3089   3.367   2.460   0.092  0.0656  0.2751 -0.2571
  217HFI     F5 3090   3.401   2.506   0.296 -0.2146 -0.3235  0.8763
  217HFI     F6 3091   3.263   2.623   0.186 -0.2255 -0.2681  0.2245
  217HFI     H1 3092   3.183   2.498   0.437 -0.1483 -0.1438 -0.3144
  217HFI     H2 3093   3.136   2.382   0.173  1.4954  1.0475 -1.5654
  218HFI     O1 3094   0.653   0.187   3.604 -0.0211 -0.2866 -0.0164
  218HFI     C1 3095   0.781   0.181   3.678  0.2692 -0.1549  0.4747
  218HFI     C2 3096   0.882   0.088   3.612  0.5508 -0.9946  0.1626
  218HFI     F1 3097   0.878   0.107   3.474  0.4984 -0.2326 -0.1475
  218HFI     F2 3098   0.854  -0.048   3.636  0.0372 -0.2787 -0.3565
  218HFI     F3 3099   1.010   0.117   3.655  0.0656  0.0256 -0.5637
  218HFI     C3 3100   0.757   0.138   3.823  0.1411 -0.3295 -0.1408
  218HFI     F4 3101   0.671   0.228   3.879 -0.9342 -0.2936  0.0949
  218HFI     F5 3102   0.868   0.124   3.885 -0.3015 -0.3935  0.6376
  218HFI     F6 3103   0.690   0.021   3.836 -0.3112 -0.1518 -0.2803
  218HFI     H1 3104   0.611   0.100   3.600 -1.8341  0.5540  0.1057
  218HFI     H2 3105   0.822   0.283   3.680  1.7958 -0.7793  2.0319
  219HFI     O1 3106   0.057   0.844   0.288 -0.0143  0.1743  0.1121
  219HFI     C1 3107   0.072   0.769   0.162 -0.2501 -0.2506 -0.4772
  219HFI     C2 3108   0.115   0.852   0.045 -0.4268  0.2050 -0.2552
  219HFI     F1 3109   0.012   0.936   0.016 -0.3772 -0.0962  0.3396
  219HFI     F2 3110   0.131   0.775  -0.063  0.0385  0.5334  0.2695
  219HFI     F3 3111   0.229   0.923   0.067 -0.7102  0.3516 -0.3336
  219HFI     C3 3112  -0.053   0.670   0.135 -0.2030  0.2749 -0.1571
  219HFI     F4 3113  -0.166   0.726   0.095  0.0212 -0.0440  0.1537
  219HFI     F5 3114  -0.092   0.602   0.249 -0.5235  0.3099 -0.5222
  219HFI     F6 3115  -0.014   0.581   0.040  0.2978 -0.3578 -0.0690
  219HFI     H1 3116   0.142   0.890   0.304 -0.5144  2.0848 -2.3627
  219HFI     H2 3117   0.163   0.708   0.165  1.2082  1.7596 -1.8039
  220HFI     O1 3118   1.079   1.250   2.882 -0.1265  0.1698 -0.0293
  220HFI     C1 3119   1.204   1.241   2.964 -0.1292 -0.0560  0.4619
  220HFI     C2 3120   1.274   1.104   2.948 -0.2138  0.1800 -0.1687
  220HFI     F1 3121   1.309   1.059   2.825 -0.5209  0.0930 -0.3584
  220HFI     F2 3122   1.188   1.014   2.993 -0.9598  0.6375 -0.1433
  220HFI     F3 3123   1.382   1.099   3.028  0.4276  0.1037 -0.2734
  220HFI     C3 3124   1.183   1.279   3.119  0.7123 -0.2998 -0.2042
  220HFI     F4 3125   1.119   1.402   3.134  0.2290  0.0730 -0.3409
  220HFI     F5 3126   1.302   1.289   3.182 -0.2018  0.4093  0.2536
  220HFI     F6 3127   1.105   1.186   3.185  0.4033 -0.3862 -0.0398
  220HFI     H1 3128   1.034   1.166   2.899  0.6829 -0.6247 -1.7092
  220HFI     H2 3129   1.278   1.312   2.924 -0.3832 -0.3518 -0.5426
  221HFI     O1 3130   1.928   0.215   2.367  0.1092 -0.2091  0.2448
  221HFI     C1 3131   1.805   0.152   2.405  0.2258 -0.1184  0.3362
  221HFI     C2 3132   1.748   0.195   2.548  0.2395 -0.4715 -0.2497
  221HFI     F1 3133   1.622   0.144   2.573  0.0114  0.2780  0.0988
  221HFI     F2 3134   1.736   0.327   2.562 -0.1440  0.1380  0.2384
  221HFI     F3 3135   1.832   0.154   2.643 -0.3062 -0.0895 -0.0417
  221HFI     C3 3136   1.812   0.004   2.376 -0.1875 -0.3191 -0.1478
  221HFI     F4 3137   1.710  -0.064   2.443 -0.0312  0.2464  0.2379
  221HFI     F5 3138   1.935  -0.046   2.415 -0.2125  0.0140  1.1832
  221HFI     F6 3139   1.803  -0.024   2.247 -0.2972  0.1720 -0.4128
  221HFI     H1 3140   1.993   0.143   2.371  0.5429  0.1135 -0.9046
  221HFI     H2 3141   1.725   0.187   2.339  0.4841 -0.9584 -0.4351
  222HFI     O1 3142   3.090   2.972   2.451  0.2402 -0.2952  0.2749
  222HFI     C1 3143   3.017   2.886   2.362  0.1403 -0.4175  0.3252
  222HFI     C2 3144   3.116   2.805   2.275  0.0829 -0.1261  0.0165
  222HFI     F1 3145   3.189   2.726   2.358 -0.0764 -0.0485 -0.0242
  222HFI     F2 3146   3.200   2.880   2.210 -0.3376 -0.0010  0.4429
  222HFI     F3 3147   3.050   2.728   2.189  0.1462  0.0629  0.0459
  222HFI     C3 3148   2.923   2.975   2.277  0.8402 -0.8470 -0.2581
  222HFI     F4 3149   2.849   2.898   2.195 -0.4201 -0.1944 -0.1936
  222HFI     F5 3150   2.989   3.067   2.206  0.2830 -0.1597  0.1593
  222HFI     F6 3151   2.838   3.048   2.363 -0.0377  0.1879  0.1122
  222HFI     H1 3152   3.022   3.035   2.481 -1.1385 -0.6957 -1.8286
  222HFI     H2 3153   2.949   2.820   2.417  1.3821 -1.2413  0.8728
  223HFI     O1 3154   0.442   1.330   0.369  0.2709 -0.0822 -0.1009
  223HFI     C1 3155   0.512   1.459   0.369  0.9462  0.3245 -0.1069
  223HFI     C2 3156   0.437   1.575   0.442 -0.8937 -0.8618  0.0910
  223HFI     F1 3157   0.365   1.518   0.542 -0.5232  0.3777 -0.1742
  223HFI     F2 3158   0.352   1.642   0.364 -0.1824  0.3311  0.0908
  223HFI     F3 3159   0.524   1.665   0.493  0.0089 -0.0745 -0.4405
  223HFI     C3 3160   0.551   1.517   0.218 -0.4019  0.3931  0.7739
  223HFI     F4 3161   0.605   1.638   0.216 -0.4074  0.1815 -0.0312
  223HFI     F5 3162   0.443   1.523   0.141 -0.6966  0.4035  0.0533
  223HFI     F6 3163   0.637   1.442   0.148 -0.2978 -0.4819 -0.3354
  223HFI     H1 3164   0.354   1.349   0.407  1.2039  4.3063  0.1669
  223HFI     H2 3165   0.605   1.442   0.425 -0.1561 -0.6296  1.4471
  224HFI     O1 3166   2.273   0.869   2.881  0.0993 -0.3257 -0.7799
  224HFI     C1 3167   2.412   0.932   2.883  0.7829  0.0026 -0.1832
  224HFI     C2 3168   2.404   1.088   2.882  0.2589 -0.0372  0.2677
  224HFI     F1 3169   2.315   1.126   2.969 -0.7022 -0.1303  0.2908
  224HFI     F2 3170   2.368   1.140   2.766  0.2549  0.4130 -0.2686
  224HFI     F3 3171   2.520   1.140   2.922 -0.3801  0.1362  0.1979
  224HFI     C3 3172   2.498   0.877   2.760  0.2928  0.5936  0.3416
  224HFI     F4 3173   2.518   0.741   2.774 -0.1468  0.6689  0.2723
  224HFI     F5 3174   2.619   0.934   2.752  0.4994 -0.2597  0.1242
  224HFI     F6 3175   2.446   0.893   2.637  0.2946 -0.1822  0.0717
  224HFI     H1 3176   2.275   0.797   2.817  0.7457 -2.1159  1.1914
  224HFI     H2 3177   2.466   0.903   2.974  1.5598 -0.5923 -0.8339
  225HFI     O1 3178   2.193   0.789   3.364 -0.7353 -0.1525 -0.3116
  225HFI     C1 3179   2.106   0.676   3.342  0.0083 -0.4601  0.1568
  225HFI     C2 3180   1.955   0.721   3.338  0.1595  0.2915  0.6224
  225HFI     F1 3181   1.874   0.628   3.282 -0.7049  0.0641  0.2100
  225HFI     F2 3182   1.944   0.828   3.255 -0.0560 -0.4812  0.0010
  225HFI     F3 3183   1.904   0.758   3.457 -0.4615  0.5703  0.6207
  225HFI     C3 3184   2.146   0.563   3.438  0.9308  0.0887 -0.3395
  225HFI     F4 3185   2.163   0.612   3.559  0.0954  0.1995  0.3206
  225HFI     F5 3186   2.267   0.503   3.398  0.6686  0.5146  0.0291
  225HFI     F6 3187   2.052   0.462   3.453  0.3551 -0.2440  0.3358
  225HFI     H1 3188   2.170   0.832   3.449  0.7323  0.0205 -0.0009
  225HFI     H2 3189   2.126   0.644   3.239  1.6240  1.0234 -0.0037
  226HFI     O1 3190   0.256   3.218   3.097  0.1772 -0.0302 -0.1642
  226HFI     C1 3191   0.253   3.362   3.055 -0.2943 -0.7767  0.2022
  226HFI     C2 3192   0.129   3.394   2.955 -0.4337 -0.5842  0.0126
  226HFI     F1 3193   0.145   3.339   2.837 -0.6848 -0.3986  0.3708
  226HFI     F2 3194   0.123   3.531   2.937  0.2732  0.0897 -0.2670
  226HFI     F3 3195   0.017   3.358   3.013 -0.3042 -0.0256 -0.4622
  226HFI     C3 3196   0.386   3.422   3.015  0.0398  0.3413 -0.0355
  226HFI     F4 3197   0.450   3.353   2.922  0.1177 -0.5078  0.0311
  226HFI     F5 3198   0.458   3.425   3.130 -0.3103  0.8469  0.2480
  226HFI     F6 3199   0.381   3.548   2.969  0.3075  0.5311 -0.0596
  226HFI     H1 3200   0.296   3.167   3.024 -0.4974 -0.3848 -0.2873
  226HFI     H2 3201   0.227   3.415   3.148 -1.8798 -0.4043 -0.4265
  227HFI     O1 3202   3.371   3.058   2.407 -0.1297  0.4526 -0.7366
  227HFI     C1 3203   3.369   3.200   2.452  0.0568 -0.2247 -0.2333
  227HFI     C2 3204   3.290   3.227   2.585 -0.4314 -0.4864  0.7945
  227HFI     F1 3205   3.317   3.137   2.686  0.2346 -0.0589  0.2407
  227HFI     F2 3206   3.156   3.213   2.562 -0.4212  0.1622  0.1710
  227HFI     F3 3207   3.308   3.355   2.633  0.0587  0.0664 -0.1100
  227HFI     C3 3208   3.334   3.305   2.344 -0.0484  0.7753  0.6941
  227HFI     F4 3209   3.331   3.437   2.383  0.0996 -0.3807  0.0032
  227HFI     F5 3210   3.211   3.267   2.297  0.1254  0.5557  0.1544
  227HFI     F6 3211   3.417   3.289   2.242  0.1981 -0.0052 -0.7622
  227HFI     H1 3212   3.281   3.023   2.420  0.9509 -2.1068  0.1567
  227HFI     H2 3213   3.471   3.233   2.472  0.3210 -0.3323 -1.3783
  228HFI     O1 3214   2.702   2.090   3.129  0.1963  0.4037  0.4049
  228HFI     C1 3215   2.782   2.183   3.219 -0.7445 -0.2110  0.7950
  228HFI     C2 3216   2.721   2.328   3.234 -0.2730 -0.3809 -0.5112
  228HFI     F1 3217   2.669   2.374   3.113 -0.1225  0.0658 -0.4934
  228HFI     F2 3218   2.813   2.419   3.284 -0.2707 -1.0160 -0.4042
  228HFI     F3 3219   2.613   2.322   3.316  0.5973  0.3012 -0.0702
  228HFI     C3 3220   2.926   2.184   3.159  0.1366 -0.3184 -0.2527
  228HFI     F4 3221   2.920   2.223   3.031  0.0086 -0.3122 -0.0644
  228HFI     F5 3222   2.969   2.055   3.164  0.0426 -0.2880  0.4614
  228HFI     F6 3223   3.016   2.265   3.215  0.4481  0.5077  0.4990
  228HFI     H1 3224   2.683   2.143   3.050  0.8636 -0.0512 -0.0675
  228HFI     H2 3225   2.774   2.131   3.315  0.8029  1.0713  1.6401
   3.40320   3.43847   3.80000
