HFIP comparator n4
 3225
    1GR      C1    1   0.000   0.000   1.900  0.0000  0.0000  0.0000
    1GR      C2    2   0.142   0.000   1.900  0.0000  0.0000  0.0000
    1GR      C3    3   0.213   0.123   1.900  0.0000  0.0000  0.0000
    1GR      C4    4   0.354   0.123   1.900  0.0000  0.0000  0.0000
    1GR      C5    5   0.000   0.246   1.900  0.0000  0.0000  0.0000
    1GR      C6    6   0.142   0.246   1.900  0.0000  0.0000  0.0000
    1GR      C7    7   0.213   0.368   1.900  0.0000  0.0000  0.0000
    1GR      C8    8   0.354   0.368   1.900  0.0000  0.0000  0.0000
    1GR      C9    9   0.000   0.491   1.900  0.0000  0.0000  0.0000
    1GR     C10   10   0.142   0.491   1.900  0.0000  0.0000  0.0000
    1GR     C11   11   0.213   0.614   1.900  0.0000  0.0000  0.0000
    1GR     C12   12   0.354   0.614   1.900  0.0000  0.0000  0.0000
    1GR     C13   13   0.000   0.737   1.900  0.0000  0.0000  0.0000
    1GR     C14   14   0.142   0.737   1.900  0.0000  0.0000  0.0000
    1GR     C15   15   0.213   0.860   1.900  0.0000  0.0000  0.0000
    1GR     C16   16   0.354   0.860   1.900  0.0000  0.0000  0.0000
    1GR     C17   17   0.000   0.982   1.900  0.0000  0.0000  0.0000
    1GR     C18   18   0.142   0.982   1.900  0.0000  0.0000  0.0000
    1GR     C19   19   0.213   1.105   1.900  0.0000  0.0000  0.0000
    1GR     C20   20   0.354   1.105   1.900  0.0000  0.0000  0.0000
    1GR     C21   21   0.000   1.228   1.900  0.0000  0.0000  0.0000
    1GR     C22   22   0.142   1.228   1.900  0.0000  0.0000  0.0000
    1GR     C23   23   0.213   1.351   1.900  0.0000  0.0000  0.0000
    1GR     C24   24   0.354   1.351   1.900  0.0000  0.0000  0.0000
    1GR     C25   25   0.000   1.474   1.900  0.0000  0.0000  0.0000
    1GR     C26   26   0.142   1.474   1.900  0.0000  0.0000  0.0000
    1GR     C27   27   0.213   1.596   1.900  0.0000  0.0000  0.0000
    1GR     C28   28   0.354   1.596   1.900  0.0000  0.0000  0.0000
    1GR     C29   29   0.000   1.719   1.900  0.0000  0.0000  0.0000
    1GR     C30   30   0.142   1.719   1.900  0.0000  0.0000  0.0000
    1GR     C31   31   0.213   1.842   1.900  0.0000  0.0000  0.0000
    1GR     C32   32   0.354   1.842   1.900  0.0000  0.0000  0.0000
    1GR     C33   33   0.000   1.965   1.900  0.0000  0.0000  0.0000
    1GR     C34   34   0.142   1.965   1.900  0.0000  0.0000  0.0000
    1GR     C35   35   0.213   2.088   1.900  0.0000  0.0000  0.0000
    1GR     C36   36   0.354   2.088   1.900  0.0000  0.0000  0.0000
    1GR     C37   37   0.000   2.210   1.900  0.0000  0.0000  0.0000
    1GR     C38   38   0.142   2.210   1.900  0.0000  0.0000  0.0000
    1GR     C39   39   0.213   2.333   1.900  0.0000  0.0000  0.0000
    1GR     C40   40   0.354   2.333   1.900  0.0000  0.0000  0.0000
    1GR     C41   41   0.000   2.456   1.900  0.0000  0.0000  0.0000
    1GR     C42   42   0.142   2.456   1.900  0.0000  0.0000  0.0000
    1GR     C43   43   0.213   2.579   1.900  0.0000  0.0000  0.0000
    1GR     C44   44   0.354   2.579   1.900  0.0000  0.0000  0.0000
    1GR     C45   45   0.000   2.702   1.900  0.0000  0.0000  0.0000
    1GR     C46   46   0.142   2.702   1.900  0.0000  0.0000  0.0000
    1GR     C47   47   0.213   2.824   1.900  0.0000  0.0000  0.0000
    1GR     C48   48   0.354   2.824   1.900  0.0000  0.0000  0.0000
    1GR     C49   49   0.000   2.947   1.900  0.0000  0.0000  0.0000
    1GR     C50   50   0.142   2.947   1.900  0.0000  0.0000  0.0000
    1GR     C51   51   0.213   3.070   1.900  0.0000  0.0000  0.0000
    1GR     C52   52   0.354   3.070   1.900  0.0000  0.0000  0.0000
    1GR     C53   53   0.000   3.193   1.900  0.0000  0.0000  0.0000
    1GR     C54   54   0.142   3.193   1.900  0.0000  0.0000  0.0000
    1GR     C55   55   0.213   3.316   1.900  0.0000  0.0000  0.0000
    1GR     C56   56   0.354   3.316   1.900  0.0000  0.0000  0.0000
    1GR     C57   57   0.425   0.000   1.900  0.0000  0.0000  0.0000
    1GR     C58   58   0.567   0.000   1.900  0.0000  0.0000  0.0000
    1GR     C59   59   0.638   0.123   1.900  0.0000  0.0000  0.0000
    1GR     C60   60   0.780   0.123   1.900  0.0000  0.0000  0.0000
    1GR     C61   61   0.425   0.246   1.900  0.0000  0.0000  0.0000
    1GR     C62   62   0.567   0.246   1.900  0.0000  0.0000  0.0000
    1GR     C63   63   0.638   0.368   1.900  0.0000  0.0000  0.0000
    1GR     C64   64   0.780   0.368   1.900  0.0000  0.0000  0.0000
    1GR     C65   65   0.425   0.491   1.900  0.0000  0.0000  0.0000
    1GR     C66   66   0.567   0.491   1.900  0.0000  0.0000  0.0000
    1GR     C67   67   0.638   0.614   1.900  0.0000  0.0000  0.0000
    1GR     C68   68   0.780   0.614   1.900  0.0000  0.0000  0.0000
    1GR     C69   69   0.425   0.737   1.900  0.0000  0.0000  0.0000
    1GR     C70   70   0.567   0.737   1.900  0.0000  0.0000  0.0000
    1GR     C71   71   0.638   0.860   1.900  0.0000  0.0000  0.0000
    1GR     C72   72   0.780   0.860   1.900  0.0000  0.0000  0.0000
    1GR     C73   73   0.425   0.982   1.900  0.0000  0.0000  0.0000
    1GR     C74   74   0.567   0.982   1.900  0.0000  0.0000  0.0000
    1GR     C75   75   0.638   1.105   1.900  0.0000  0.0000  0.0000
    1GR     C76   76   0.780   1.105   1.900  0.0000  0.0000  0.0000
    1GR     C77   77   0.425   1.228   1.900  0.0000  0.0000  0.0000
    1GR     C78   78   0.567   1.228   1.900  0.0000  0.0000  0.0000
    1GR     C79   79   0.638   1.351   1.900  0.0000  0.0000  0.0000
    1GR     C80   80   0.780   1.351   1.900  0.0000  0.0000  0.0000
    1GR     C81   81   0.425   1.474   1.900  0.0000  0.0000  0.0000
    1GR     C82   82   0.567   1.474   1.900  0.0000  0.0000  0.0000
    1GR     C83   83   0.638   1.596   1.900  0.0000  0.0000  0.0000
    1GR     C84   84   0.780   1.596   1.900  0.0000  0.0000  0.0000
    1GR     C85   85   0.425   1.719   1.900  0.0000  0.0000  0.0000
    1GR     C86   86   0.567   1.719   1.900  0.0000  0.0000  0.0000
    1GR     C87   87   0.638   1.842   1.900  0.0000  0.0000  0.0000
    1GR     C88   88   0.780   1.842   1.900  0.0000  0.0000  0.0000
    1GR     C89   89   0.425   1.965   1.900  0.0000  0.0000  0.0000
    1GR     C90   90   0.567   1.965   1.900  0.0000  0.0000  0.0000
    1GR     C91   91   0.638   2.088   1.900  0.0000  0.0000  0.0000
    1GR     C92   92   0.780   2.088   1.900  0.0000  0.0000  0.0000
    1GR     C93   93   0.425   2.210   1.900  0.0000  0.0000  0.0000
    1GR     C94   94   0.567   2.210   1.900  0.0000  0.0000  0.0000
    1GR     C95   95   0.638   2.333   1.900  0.0000  0.0000  0.0000
    1GR     C96   96   0.780   2.333   1.900  0.0000  0.0000  0.0000
    1GR     C97   97   0.425   2.456   1.900  0.0000  0.0000  0.0000
    1GR     C98   98   0.567   2.456   1.900  0.0000  0.0000  0.0000
    1GR     C99   99   0.638   2.579   1.900  0.0000  0.0000  0.0000
    1GR    C100  100   0.780   2.579   1.900  0.0000  0.0000  0.0000
    1GR    C101  101   0.425   2.702   1.900  0.0000  0.0000  0.0000
    1GR    C102  102   0.567   2.702   1.900  0.0000  0.0000  0.0000
    1GR    C103  103   0.638   2.824   1.900  0.0000  0.0000  0.0000
    1GR    C104  104   0.780   2.824   1.900  0.0000  0.0000  0.0000
    1GR    C105  105   0.425   2.947   1.900  0.0000  0.0000  0.0000
    1GR    C106  106   0.567   2.947   1.900  0.0000  0.0000  0.0000
    1GR    C107  107   0.638   3.070   1.900  0.0000  0.0000  0.0000
    1GR    C108  108   0.780   3.070   1.900  0.0000  0.0000  0.0000
    1GR    C109  109   0.425   3.193   1.900  0.0000  0.0000  0.0000
    1GR    C110  110   0.567   3.193   1.900  0.0000  0.0000  0.0000
    1GR    C111  111   0.638   3.316   1.900  0.0000  0.0000  0.0000
    1GR    C112  112   0.780   3.316   1.900  0.0000  0.0000  0.0000
    1GR    C113  113   0.851   0.000   1.900  0.0000  0.0000  0.0000
    1GR    C114  114   0.993   0.000   1.900  0.0000  0.0000  0.0000
    1GR    C115  115   1.064   0.123   1.900  0.0000  0.0000  0.0000
    1GR    C116  116   1.205   0.123   1.900  0.0000  0.0000  0.0000
    1GR    C117  117   0.851   0.246   1.900  0.0000  0.0000  0.0000
    1GR    C118  118   0.993   0.246   1.900  0.0000  0.0000  0.0000
    1GR    C119  119   1.064   0.368   1.900  0.0000  0.0000  0.0000
    1GR    C120  120   1.205   0.368   1.900  0.0000  0.0000  0.0000
    1GR    C121  121   0.851   0.491   1.900  0.0000  0.0000  0.0000
    1GR    C122  122   0.993   0.491   1.900  0.0000  0.0000  0.0000
    1GR    C123  123   1.064   0.614   1.900  0.0000  0.0000  0.0000
    1GR    C124  124   1.205   0.614   1.900  0.0000  0.0000  0.0000
    1GR    C125  125   0.851   0.737   1.900  0.0000  0.0000  0.0000
    1GR    C126  126   0.993   0.737   1.900  0.0000  0.0000  0.0000
    1GR    C127  127   1.064   0.860   1.900  0.0000  0.0000  0.0000
    1GR    C128  128   1.205   0.860   1.900  0.0000  0.0000  0.0000
    1GR    C129  129   0.851   0.982   1.900  0.0000  0.0000  0.0000
    1GR    C130  130   0.993   0.982   1.900  0.0000  0.0000  0.0000
    1GR    C131  131   1.064   1.105   1.900  0.0000  0.0000  0.0000
    1GR    C132  132   1.205   1.105   1.900  0.0000  0.0000  0.0000
    1GR    C133  133   0.851   1.228   1.900  0.0000  0.0000  0.0000
    1GR    C134  134   0.993   1.228   1.900  0.0000  0.0000  0.0000
    1GR    C135  135   1.064   1.351   1.900  0.0000  0.0000  0.0000
    1GR    C136  136   1.205   1.351   1.900  0.0000  0.0000  0.0000
    1GR    C137  137   0.851   1.474   1.900  0.0000  0.0000  0.0000
    1GR    C138  138   0.993   1.474   1.900  0.0000  0.0000  0.0000
    1GR    C139  139   1.064   1.596   1.900  0.0000  0.0000  0.0000
    1GR    C140  140   1.205   1.596   1.900  0.0000  0.0000  0.0000
    1GR    C141  141   0.851   1.719   1.900  0.0000  0.0000  0.0000
    1GR    C142  142   0.993   1.719   1.900  0.0000  0.0000  0.0000
    1GR    C143  143   1.064   1.842   1.900  0.0000  0.0000  0.0000
    1GR    C144  144   1.205   1.842   1.900  0.0000  0.0000  0.0000
    1GR    C145  145   0.851   1.965   1.900  0.0000  0.0000  0.0000
    1GR    C146  146   0.993   1.965   1.900  0.0000  0.0000  0.0000
    1GR    C147  147   1.064   2.088   1.900  0.0000  0.0000  0.0000
    1GR    C148  148   1.205   2.088   1.900  0.0000  0.0000  0.0000
    1GR    C149  149   0.851   2.210   1.900  0.0000  0.0000  0.0000
    1GR    C150  150   0.993   2.210   1.900  0.0000  0.0000  0.0000
    1GR    C151  151   1.064   2.333   1.900  0.0000  0.0000  0.0000
    1GR    C152  152   1.205   2.333   1.900  0.0000  0.0000  0.0000
    1GR    C153  153   0.851   2.456   1.900  0.0000  0.0000  0.0000
    1GR    C154  154   0.993   2.456   1.900  0.0000  0.0000  0.0000
    1GR    C155  155   1.064   2.579   1.900  0.0000  0.0000  0.0000
    1GR    C156  156   1.205   2.579   1.900  0.0000  0.0000  0.0000
    1GR    C157  157   0.851   2.702   1.900  0.0000  0.0000  0.0000
    1GR    C158  158   0.993   2.702   1.900  0.0000  0.0000  0.0000
    1GR    C159  159   1.064   2.824   1.900  0.0000  0.0000  0.0000
    1GR    C160  160   1.205   2.824   1.900  0.0000  0.0000  0.0000
    1GR    C161  161   0.851   2.947   1.900  0.0000  0.0000  0.0000
    1GR    C162  162   0.993   2.947   1.900  0.0000  0.0000  0.0000
    1GR    C163  163   1.064   3.070   1.900  0.0000  0.0000  0.0000
    1GR    C164  164   1.205   3.070   1.900  0.0000  0.0000  0.0000
    1GR    C165  165   0.851   3.193   1.900  0.0000  0.0000  0.0000
    1GR    C166  166   0.993   3.193   1.900  0.0000  0.0000  0.0000
    1GR    C167  167   1.064   3.316   1.900  0.0000  0.0000  0.0000
    1GR    C168  168   1.205   3.316   1.900  0.0000  0.0000  0.0000
    1GR    C169  169   1.276   0.000   1.900  0.0000  0.0000  0.0000
    1GR    C170  170   1.418   0.000   1.900  0.0000  0.0000  0.0000
    1GR    C171  171   1.489   0.123   1.900  0.0000  0.0000  0.0000
    1GR    C172  172   1.631   0.123   1.900  0.0000  0.0000  0.0000
    1GR    C173  173   1.276   0.246   1.900  0.0000  0.0000  0.0000
    1GR    C174  174   1.418   0.246   1.900  0.0000  0.0000  0.0000
    1GR    C175  175   1.489   0.368   1.900  0.0000  0.0000  0.0000
    1GR    C176  176   1.631   0.368   1.900  0.0000  0.0000  0.0000
    1GR    C177  177   1.276   0.491   1.900  0.0000  0.0000  0.0000
    1GR    C178  178   1.418   0.491   1.900  0.0000  0.0000  0.0000
    1GR    C179  179   1.489   0.614   1.900  0.0000  0.0000  0.0000
    1GR    C180  180   1.631   0.614   1.900  0.0000  0.0000  0.0000
    1GR    C181  181   1.276   0.737   1.900  0.0000  0.0000  0.0000
    1GR    C182  182   1.418   0.737   1.900  0.0000  0.0000  0.0000
    1GR    C183  183   1.489   0.860   1.900  0.0000  0.0000  0.0000
    1GR    C184  184   1.631   0.860   1.900  0.0000  0.0000  0.0000
    1GR    C185  185   1.276   0.982   1.900  0.0000  0.0000  0.0000
    1GR    C186  186   1.418   0.982   1.900  0.0000  0.0000  0.0000
    1GR    C187  187   1.489   1.105   1.900  0.0000  0.0000  0.0000
    1GR    C188  188   1.631   1.105   1.900  0.0000  0.0000  0.0000
    1GR    C189  189   1.276   1.228   1.900  0.0000  0.0000  0.0000
    1GR    C190  190   1.418   1.228   1.900  0.0000  0.0000  0.0000
    1GR    C191  191   1.489   1.351   1.900  0.0000  0.0000  0.0000
    1GR    C192  192   1.631   1.351   1.900  0.0000  0.0000  0.0000
    1GR    C193  193   1.276   1.474   1.900  0.0000  0.0000  0.0000
    1GR    C194  194   1.418   1.474   1.900  0.0000  0.0000  0.0000
    1GR    C195  195   1.489   1.596   1.900  0.0000  0.0000  0.0000
    1GR    C196  196   1.631   1.596   1.900  0.0000  0.0000  0.0000
    1GR    C197  197   1.276   1.719   1.900  0.0000  0.0000  0.0000
    1GR    C198  198   1.418   1.719   1.900  0.0000  0.0000  0.0000
    1GR    C199  199   1.489   1.842   1.900  0.0000  0.0000  0.0000
    1GR    C200  200   1.631   1.842   1.900  0.0000  0.0000  0.0000
    1GR    C201  201   1.276   1.965   1.900  0.0000  0.0000  0.0000
    1GR    C202  202   1.418   1.965   1.900  0.0000  0.0000  0.0000
    1GR    C203  203   1.489   2.088   1.900  0.0000  0.0000  0.0000
    1GR    C204  204   1.631   2.088   1.900  0.0000  0.0000  0.0000
    1GR    C205  205   1.276   2.210   1.900  0.0000  0.0000  0.0000
    1GR    C206  206   1.418   2.210   1.900  0.0000  0.0000  0.0000
    1GR    C207  207   1.489   2.333   1.900  0.0000  0.0000  0.0000
    1GR    C208  208   1.631   2.333   1.900  0.0000  0.0000  0.0000
    1GR    C209  209   1.276   2.456   1.900  0.0000  0.0000  0.0000
    1GR    C210  210   1.418   2.456   1.900  0.0000  0.0000  0.0000
    1GR    C211  211   1.489   2.579   1.900  0.0000  0.0000  0.0000
    1GR    C212  212   1.631   2.579   1.900  0.0000  0.0000  0.0000
    1GR    C213  213   1.276   2.702   1.900  0.0000  0.0000  0.0000
    1GR    C214  214   1.418   2.702   1.900  0.0000  0.0000  0.0000
    1GR    C215  215   1.489   2.824   1.900  0.0000  0.0000  0.0000
    1GR    C216  216   1.631   2.824   1.900  0.0000  0.0000  0.0000
    1GR    C217  217   1.276   2.947   1.900  0.0000  0.0000  0.0000
    1GR    C218  218   1.418   2.947   1.900  0.0000  0.0000  0.0000
    1GR    C219  219   1.489   3.070   1.900  0.0000  0.0000  0.0000
    1GR    C220  220   1.631   3.070   1.900  0.0000  0.0000  0.0000
    1GR    C221  221   1.276   3.193   1.900  0.0000  0.0000  0.0000
    1GR    C222  222   1.418   3.193   1.900  0.0000  0.0000  0.0000
    1GR    C223  223   1.489   3.316   1.900  0.0000  0.0000  0.0000
    1GR    C224  224   1.631   3.316   1.900  0.0000  0.0000  0.0000
    1GR    C225  225   1.702   0.000   1.900  0.0000  0.0000  0.0000
    1GR    C226  226   1.843   0.000   1.900  0.0000  0.0000  0.0000
    1GR    C227  227   1.914   0.123   1.900  0.0000  0.0000  0.0000
    1GR    C228  228   2.056   0.123   1.900  0.0000  0.0000  0.0000
    1GR    C229  229   1.702   0.246   1.900  0.0000  0.0000  0.0000
    1GR    C230  230   1.843   0.246   1.900  0.0000  0.0000  0.0000
    1GR    C231  231   1.914   0.368   1.900  0.0000  0.0000  0.0000
    1GR    C232  232   2.056   0.368   1.900  0.0000  0.0000  0.0000
    1GR    C233  233   1.702   0.491   1.900  0.0000  0.0000  0.0000
    1GR    C234  234   1.843   0.491   1.900  0.0000  0.0000  0.0000
    1GR    C235  235   1.914   0.614   1.900  0.0000  0.0000  0.0000
    1GR    C236  236   2.056   0.614   1.900  0.0000  0.0000  0.0000
    1GR    C237  237   1.702   0.737   1.900  0.0000  0.0000  0.0000
    1GR    C238  238   1.843   0.737   1.900  0.0000  0.0000  0.0000
    1GR    C239  239   1.914   0.860   1.900  0.0000  0.0000  0.0000
    1GR    C240  240   2.056   0.860   1.900  0.0000  0.0000  0.0000
    1GR    C241  241   1.702   0.982   1.900  0.0000  0.0000  0.0000
    1GR    C242  242   1.843   0.982   1.900  0.0000  0.0000  0.0000
    1GR    C243  243   1.914   1.105   1.900  0.0000  0.0000  0.0000
    1GR    C244  244   2.056   1.105   1.900  0.0000  0.0000  0.0000
    1GR    C245  245   1.702   1.228   1.900  0.0000  0.0000  0.0000
    1GR    C246  246   1.843   1.228   1.900  0.0000  0.0000  0.0000
    1GR    C247  247   1.914   1.351   1.900  0.0000  0.0000  0.0000
    1GR    C248  248   2.056   1.351   1.900  0.0000  0.0000  0.0000
    1GR    C249  249   1.702   1.474   1.900  0.0000  0.0000  0.0000
    1GR    C250  250   1.843   1.474   1.900  0.0000  0.0000  0.0000
    1GR    C251  251   1.914   1.596   1.900  0.0000  0.0000  0.0000
    1GR    C252  252   2.056   1.596   1.900  0.0000  0.0000  0.0000
    1GR    C253  253   1.702   1.719   1.900  0.0000  0.0000  0.0000
    1GR    C254  254   1.843   1.719   1.900  0.0000  0.0000  0.0000
    1GR    C255  255   1.914   1.842   1.900  0.0000  0.0000  0.0000
    1GR    C256  256   2.056   1.842   1.900  0.0000  0.0000  0.0000
    1GR    C257  257   1.702   1.965   1.900  0.0000  0.0000  0.0000
    1GR    C258  258   1.843   1.965   1.900  0.0000  0.0000  0.0000
    1GR    C259  259   1.914   2.088   1.900  0.0000  0.0000  0.0000
    1GR    C260  260   2.056   2.088   1.900  0.0000  0.0000  0.0000
    1GR    C261  261   1.702   2.210   1.900  0.0000  0.0000  0.0000
    1GR    C262  262   1.843   2.210   1.900  0.0000  0.0000  0.0000
    1GR    C263  263   1.914   2.333   1.900  0.0000  0.0000  0.0000
    1GR    C264  264   2.056   2.333   1.900  0.0000  0.0000  0.0000
    1GR    C265  265   1.702   2.456   1.900  0.0000  0.0000  0.0000
    1GR    C266  266   1.843   2.456   1.900  0.0000  0.0000  0.0000
    1GR    C267  267   1.914   2.579   1.900  0.0000  0.0000  0.0000
    1GR    C268  268   2.056   2.579   1.900  0.0000  0.0000  0.0000
    1GR    C269  269   1.702   2.702   1.900  0.0000  0.0000  0.0000
    1GR    C270  270   1.843   2.702   1.900  0.0000  0.0000  0.0000
    1GR    C271  271   1.914   2.824   1.900  0.0000  0.0000  0.0000
    1GR    C272  272   2.056   2.824   1.900  0.0000  0.0000  0.0000
    1GR    C273  273   1.702   2.947   1.900  0.0000  0.0000  0.0000
    1GR    C274  274   1.843   2.947   1.900  0.0000  0.0000  0.0000
    1GR    C275  275   1.914   3.070   1.900  0.0000  0.0000  0.0000
    1GR    C276  276   2.056   3.070   1.900  0.0000  0.0000  0.0000
    1GR    C277  277   1.702   3.193   1.900  0.0000  0.0000  0.0000
    1GR    C278  278   1.843   3.193   1.900  0.0000  0.0000  0.0000
    1GR    C279  279   1.914   3.316   1.900  0.0000  0.0000  0.0000
    1GR    C280  280   2.056   3.316   1.900  0.0000  0.0000  0.0000
    1GR    C281  281   2.127   0.000   1.900  0.0000  0.0000  0.0000
    1GR    C282  282   2.269   0.000   1.900  0.0000  0.0000  0.0000
    1GR    C283  283   2.340   0.123   1.900  0.0000  0.0000  0.0000
    1GR    C284  284   2.481   0.123   1.900  0.0000  0.0000  0.0000
    1GR    C285  285   2.127   0.246   1.900  0.0000  0.0000  0.0000
    1GR    C286  286   2.269   0.246   1.900  0.0000  0.0000  0.0000
    1GR    C287  287   2.340   0.368   1.900  0.0000  0.0000  0.0000
    1GR    C288  288   2.481   0.368   1.900  0.0000  0.0000  0.0000
    1GR    C289  289   2.127   0.491   1.900  0.0000  0.0000  0.0000
    1GR    C290  290   2.269   0.491   1.900  0.0000  0.0000  0.0000
    1GR    C291  291   2.340   0.614   1.900  0.0000  0.0000  0.0000
    1GR    C292  292   2.481   0.614   1.900  0.0000  0.0000  0.0000
    1GR    C293  293   2.127   0.737   1.900  0.0000  0.0000  0.0000
    1GR    C294  294   2.269   0.737   1.900  0.0000  0.0000  0.0000
    1GR    C295  295   2.340   0.860   1.900  0.0000  0.0000  0.0000
    1GR    C296  296   2.481   0.860   1.900  0.0000  0.0000  0.0000
    1GR    C297  297   2.127   0.982   1.900  0.0000  0.0000  0.0000
    1GR    C298  298   2.269   0.982   1.900  0.0000  0.0000  0.0000
    1GR    C299  299   2.340   1.105   1.900  0.0000  0.0000  0.0000
    1GR    C300  300   2.481   1.105   1.900  0.0000  0.0000  0.0000
    1GR    C301  301   2.127   1.228   1.900  0.0000  0.0000  0.0000
    1GR    C302  302   2.269   1.228   1.900  0.0000  0.0000  0.0000
    1GR    C303  303   2.340   1.351   1.900  0.0000  0.0000  0.0000
    1GR    C304  304   2.481   1.351   1.900  0.0000  0.0000  0.0000
    1GR    C305  305   2.127   1.474   1.900  0.0000  0.0000  0.0000
    1GR    C306  306   2.269   1.474   1.900  0.0000  0.0000  0.0000
    1GR    C307  307   2.340   1.596   1.900  0.0000  0.0000  0.0000
    1GR    C308  308   2.481   1.596   1.900  0.0000  0.0000  0.0000
    1GR    C309  309   2.127   1.719   1.900  0.0000  0.0000  0.0000
    1GR    C310  310   2.269   1.719   1.900  0.0000  0.0000  0.0000
    1GR    C311  311   2.340   1.842   1.900  0.0000  0.0000  0.0000
    1GR    C312  312   2.481   1.842   1.900  0.0000  0.0000  0.0000
    1GR    C313  313   2.127   1.965   1.900  0.0000  0.0000  0.0000
    1GR    C314  314   2.269   1.965   1.900  0.0000  0.0000  0.0000
    1GR    C315  315   2.340   2.088   1.900  0.0000  0.0000  0.0000
    1GR    C316  316   2.481   2.088   1.900  0.0000  0.0000  0.0000
    1GR    C317  317   2.127   2.210   1.900  0.0000  0.0000  0.0000
    1GR    C318  318   2.269   2.210   1.900  0.0000  0.0000  0.0000
    1GR    C319  319   2.340   2.333   1.900  0.0000  0.0000  0.0000
    1GR    C320  320   2.481   2.333   1.900  0.0000  0.0000  0.0000
    1GR    C321  321   2.127   2.456   1.900  0.0000  0.0000  0.0000
    1GR    C322  322   2.269   2.456   1.900  0.0000  0.0000  0.0000
    1GR    C323  323   2.340   2.579   1.900  0.0000  0.0000  0.0000
    1GR    C324  324   2.481   2.579   1.900  0.0000  0.0000  0.0000
    1GR    C325  325   2.127   2.702   1.900  0.0000  0.0000  0.0000
    1GR    C326  326   2.269   2.702   1.900  0.0000  0.0000  0.0000
    1GR    C327  327   2.340   2.824   1.900  0.0000  0.0000  0.0000
    1GR    C328  328   2.481   2.824   1.900  0.0000  0.0000  0.0000
    1GR    C329  329   2.127   2.947   1.900  0.0000  0.0000  0.0000
    1GR    C330  330   2.269   2.947   1.900  0.0000  0.0000  0.0000
    1GR    C331  331   2.340   3.070   1.900  0.0000  0.0000  0.0000
    1GR    C332  332   2.481   3.070   1.900  0.0000  0.0000  0.0000
    1GR    C333  333   2.127   3.193   1.900  0.0000  0.0000  0.0000
    1GR    C334  334   2.269   3.193   1.900  0.0000  0.0000  0.0000
    1GR    C335  335   2.340   3.316   1.900  0.0000  0.0000  0.0000
    1GR    C336  336   2.481   3.316   1.900  0.0000  0.0000  0.0000
    1GR    C337  337   2.552   0.000   1.900  0.0000  0.0000  0.0000
    1GR    C338  338   2.694   0.000   1.900  0.0000  0.0000  0.0000
    1GR    C339  339   2.765   0.123   1.900  0.0000  0.0000  0.0000
    1GR    C340  340   2.907   0.123   1.900  0.0000  0.0000  0.0000
    1GR    C341  341   2.552   0.246   1.900  0.0000  0.0000  0.0000
    1GR    C342  342   2.694   0.246   1.900  0.0000  0.0000  0.0000
    1GR    C343  343   2.765   0.368   1.900  0.0000  0.0000  0.0000
    1GR    C344  344   2.907   0.368   1.900  0.0000  0.0000  0.0000
    1GR    C345  345   2.552   0.491   1.900  0.0000  0.0000  0.0000
    1GR    C346  346   2.694   0.491   1.900  0.0000  0.0000  0.0000
    1GR    C347  347   2.765   0.614   1.900  0.0000  0.0000  0.0000
    1GR    C348  348   2.907   0.614   1.900  0.0000  0.0000  0.0000
    1GR    C349  349   2.552   0.737   1.900  0.0000  0.0000  0.0000
    1GR    C350  350   2.694   0.737   1.900  0.0000  0.0000  0.0000
    1GR    C351  351   2.765   0.860   1.900  0.0000  0.0000  0.0000
    1GR    C352  352   2.907   0.860   1.900  0.0000  0.0000  0.0000
    1GR    C353  353   2.552   0.982   1.900  0.0000  0.0000  0.0000
    1GR    C354  354   2.694   0.982   1.900  0.0000  0.0000  0.0000
    1GR    C355  355   2.765   1.105   1.900  0.0000  0.0000  0.0000
    1GR    C356  356   2.907   1.105   1.900  0.0000  0.0000  0.0000
    1GR    C357  357   2.552   1.228   1.900  0.0000  0.0000  0.0000
    1GR    C358  358   2.694   1.228   1.900  0.0000  0.0000  0.0000
    1GR    C359  359   2.765   1.351   1.900  0.0000  0.0000  0.0000
    1GR    C360  360   2.907   1.351   1.900  0.0000  0.0000  0.0000
    1GR    C361  361   2.552   1.474   1.900  0.0000  0.0000  0.0000
    1GR    C362  362   2.694   1.474   1.900  0.0000  0.0000  0.0000
    1GR    C363  363   2.765   1.596   1.900  0.0000  0.0000  0.0000
    1GR    C364  364   2.907   1.596   1.900  0.0000  0.0000  0.0000
    1GR    C365  365   2.552   1.719   1.900  0.0000  0.0000  0.0000
    1GR    C366  366   2.694   1.719   1.900  0.0000  0.0000  0.0000
    1GR    C367  367   2.765   1.842   1.900  0.0000  0.0000  0.0000
    1GR    C368  368   2.907   1.842   1.900  0.0000  0.0000  0.0000
    1GR    C369  369   2.552   1.965   1.900  0.0000  0.0000  0.0000
    1GR    C370  370   2.694   1.965   1.900  0.0000  0.0000  0.0000
    1GR    C371  371   2.765   2.088   1.900  0.0000  0.0000  0.0000
    1GR    C372  372   2.907   2.088   1.900  0.0000  0.0000  0.0000
    1GR    C373  373   2.552   2.210   1.900  0.0000  0.0000  0.0000
    1GR    C374  374   2.694   2.210   1.900  0.0000  0.0000  0.0000
    1GR    C375  375   2.765   2.333   1.900  0.0000  0.0000  0.0000
    1GR    C376  376   2.907   2.333   1.900  0.0000  0.0000  0.0000
    1GR    C377  377   2.552   2.456   1.900  0.0000  0.0000  0.0000
    1GR    C378  378   2.694   2.456   1.900  0.0000  0.0000  0.0000
    1GR    C379  379   2.765   2.579   1.900  0.0000  0.0000  0.0000
    1GR    C380  380   2.907   2.579   1.900  0.0000  0.0000  0.0000
    1GR    C381  381   2.552   2.702   1.900  0.0000  0.0000  0.0000
    1GR    C382  382   2.694   2.702   1.900  0.0000  0.0000  0.0000
    1GR    C383  383   2.765   2.824   1.900  0.0000  0.0000  0.0000
    1GR    C384  384   2.907   2.824   1.900  0.0000  0.0000  0.0000
    1GR    C385  385   2.552   2.947   1.900  0.0000  0.0000  0.0000
    1GR    C386  386   2.694   2.947   1.900  0.0000  0.0000  0.0000
    1GR    C387  387   2.765   3.070   1.900  0.0000  0.0000  0.0000
    1GR    C388  388   2.907   3.070   1.900  0.0000  0.0000  0.0000
    1GR    C389  389   2.552   3.193   1.900  0.0000  0.0000  0.0000
    1GR    C390  390   2.694   3.193   1.900  0.0000  0.0000  0.0000
    1GR    C391  391   2.765   3.316   1.900  0.0000  0.0000  0.0000
    1GR    C392  392   2.907   3.316   1.900  0.0000  0.0000  0.0000
    1GR    C393  393   2.978   0.000   1.900  0.0000  0.0000  0.0000
    1GR    C394  394   3.120   0.000   1.900  0.0000  0.0000  0.0000
    1GR    C395  395   3.191   0.123   1.900  0.0000  0.0000  0.0000
    1GR    C396  396   3.332   0.123   1.900  0.0000  0.0000  0.0000
    1GR    C397  397   2.978   0.246   1.900  0.0000  0.0000  0.0000
    1GR    C398  398   3.120   0.246   1.900  0.0000  0.0000  0.0000
    1GR    C399  399   3.191   0.368   1.900  0.0000  0.0000  0.0000
    1GR    C400  400   3.332   0.368   1.900  0.0000  0.0000  0.0000
    1GR    C401  401   2.978   0.491   1.900  0.0000  0.0000  0.0000
    1GR    C402  402   3.120   0.491   1.900  0.0000  0.0000  0.0000
    1GR    C403  403   3.191   0.614   1.900  0.0000  0.0000  0.0000
    1GR    C404  404   3.332   0.614   1.900  0.0000  0.0000  0.0000
    1GR    C405  405   2.978   0.737   1.900  0.0000  0.0000  0.0000
    1GR    C406  406   3.120   0.737   1.900  0.0000  0.0000  0.0000
    1GR    C407  407   3.191   0.860   1.900  0.0000  0.0000  0.0000
    1GR    C408  408   3.332   0.860   1.900  0.0000  0.0000  0.0000
    1GR    C409  409   2.978   0.982   1.900  0.0000  0.0000  0.0000
    1GR    C410  410   3.120   0.982   1.900  0.0000  0.0000  0.0000
    1GR    C411  411   3.191   1.105   1.900  0.0000  0.0000  0.0000
    1GR    C412  412   3.332   1.105   1.900  0.0000  0.0000  0.0000
    1GR    C413  413   2.978   1.228   1.900  0.0000  0.0000  0.0000
    1GR    C414  414   3.120   1.228   1.900  0.0000  0.0000  0.0000
    1GR    C415  415   3.191   1.351   1.900  0.0000  0.0000  0.0000
    1GR    C416  416   3.332   1.351   1.900  0.0000  0.0000  0.0000
    1GR    C417  417   2.978   1.474   1.900  0.0000  0.0000  0.0000
    1GR    C418  418   3.120   1.474   1.900  0.0000  0.0000  0.0000
    1GR    C419  419   3.191   1.596   1.900  0.0000  0.0000  0.0000
    1GR    C420  420   3.332   1.596   1.900  0.0000  0.0000  0.0000
    1GR    C421  421   2.978   1.719   1.900  0.0000  0.0000  0.0000
    1GR    C422  422   3.120   1.719   1.900  0.0000  0.0000  0.0000
    1GR    C423  423   3.191   1.842   1.900  0.0000  0.0000  0.0000
    1GR    C424  424   3.332   1.842   1.900  0.0000  0.0000  0.0000
    1GR    C425  425   2.978   1.965   1.900  0.0000  0.0000  0.0000
    1GR    C426  426   3.120   1.965   1.900  0.0000  0.0000  0.0000
    1GR    C427  427   3.191   2.088   1.900  0.0000  0.0000  0.0000
    1GR    C428  428   3.332   2.088   1.900  0.0000  0.0000  0.0000
    1GR    C429  429   2.978   2.210   1.900  0.0000  0.0000  0.0000
    1GR    C430  430   3.120   2.210   1.900  0.0000  0.0000  0.0000
    1GR    C431  431   3.191   2.333   1.900  0.0000  0.0000  0.0000
    1GR    C432  432   3.332   2.333   1.900  0.0000  0.0000  0.0000
    1GR    C433  433   2.978   2.456   1.900  0.0000  0.0000  0.0000
    1GR    C434  434   3.120   2.456   1.900  0.0000  0.0000  0.0000
    1GR    C435  435   3.191   2.579   1.900  0.0000  0.0000  0.0000
    1GR    C436  436   3.332   2.579   1.900  0.0000  0.0000  0.0000
    1GR    C437  437   2.978   2.702   1.900  0.0000  0.0000  0.0000
    1GR    C438  438   3.120   2.702   1.900  0.0000  0.0000  0.0000
    1GR    C439  439   3.191   2.824   1.900  0.0000  0.0000  0.0000
    1GR    C440  440   3.332   2.824   1.900  0.0000  0.0000  0.0000
    1GR    C441  441   2.978   2.947   1.900  0.0000  0.0000  0.0000
    1GR    C442  442   3.120   2.947   1.900  0.0000  0.0000  0.0000
    1GR    C443  443   3.191   3.070   1.900  0.0000  0.0000  0.0000
    1GR    C444  444   3.332   3.070   1.900  0.0000  0.0000  0.0000
    1GR    C445  445   2.978   3.193   1.900  0.0000  0.0000  0.0000
    1GR    C446  446   3.120   3.193   1.900  0.0000  0.0000  0.0000
    1GR    C447  447   3.191   3.316   1.900  0.0000  0.0000  0.0000
    1GR    C448  448   3.332   3.316   1.900  0.0000  0.0000  0.0000
    2PMMA   CX1  449   2.078   2.274   2.311  0.5874  0.5078  0.2059
    2PMMA   CA2  450   2.019   2.184   2.421  0.5082  0.3166  0.5608
    2PMMA   CX3  451   1.939   2.075   2.350 -0.1538  0.3982  0.3907
    2PMMA    C4  452   2.140   2.121   2.493  0.1166 -0.2614 -0.5097
    2PMMA    O5  453   2.163   2.002   2.503 -0.0204 -0.1970  0.1504
    2PMMA   OS6  454   2.208   2.213   2.568 -0.3849 -0.7398  0.1941
    2PMMA   CE7  455   2.313   2.172   2.655 -0.0305  0.1317  0.1822
    2PMMA   CX8  456   1.925   2.279   2.506 -0.0089  0.3219  0.3831
    2PMMA   CA9  457   1.841   2.232   2.636 -0.0830 -0.7880  0.0410
    2PMMA  CX10  458   1.743   2.112   2.603 -0.5854 -0.0030  0.5022
    2PMMA   C11  459   1.745   2.349   2.671  0.0682 -0.7693 -0.0562
    2PMMA   O12  460   1.633   2.348   2.708 -0.3272  0.3906  0.1463
    2PMMA  OS13  461   1.808   2.465   2.653  0.0856  0.0325  0.3508
    2PMMA  CE14  462   1.742   2.592   2.640 -0.3841 -0.3365  0.5076
    2PMMA  CX15  463   1.942   2.193   2.747  0.0987  0.2737 -0.7818
    2PMMA  CA16  464   1.894   2.202   2.898  0.1023 -0.0630 -0.1599
    2PMMA  CX17  465   2.000   2.139   2.983 -0.6741  0.1961  0.3207
    2PMMA   C18  466   1.882   2.353   2.941 -0.6156  0.1222  0.3685
    2PMMA   O19  467   1.984   2.417   2.962 -0.3163  0.2722 -0.6569
    2PMMA  OS20  468   1.762   2.398   2.980 -0.8061 -0.0566  0.6646
    2PMMA  CE21  469   1.752   2.520   3.053  0.0030  0.1542 -0.2496
    2PMMA  CX22  470   1.764   2.116   2.920  0.3439  0.4699  0.0787
    2PMMA  CA23  471   1.717   2.058   3.061  0.2158 -0.8115  0.5393
    2PMMA  CX24  472   1.702   2.167   3.175  0.5931  0.3681  0.1747
    2PMMA   C25  473   1.809   1.942   3.104  0.4248  0.1012  0.0227
    2PMMA   O26  474   1.835   1.845   3.035 -0.5513  0.2934  0.4413
    2PMMA  OS27  475   1.858   1.958   3.231  0.0590 -0.0755  0.0528
    2PMMA  CE28  476   1.938   1.855   3.276 -0.4222  0.3380  0.4088
    2PMMA  CX29  477   1.575   1.987   3.045 -0.0506 -0.6774  0.3344
    2PMMA  HC30  478   2.000   2.311   2.244  0.5550  2.2070  1.1690
    2PMMA  HC31  479   2.136   2.359   2.347  1.3529 -0.5310  1.4956
    2PMMA  HC32  480   2.136   2.211   2.243 -1.6122  0.1330 -1.3680
    2PMMA  HC33  481   1.895   2.001   2.418  0.6693 -1.6018 -1.2332
    2PMMA  HC34  482   1.999   2.026   2.272 -1.3787 -0.1386 -0.2210
    2PMMA  HC35  483   1.854   2.122   2.299 -1.3245  0.7684  2.6017
    2PMMA  H136  484   2.304   2.065   2.668 -2.9003  0.3208 -0.0003
    2PMMA  H137  485   2.315   2.223   2.751  2.1052  2.2444 -0.9210
    2PMMA  H138  486   2.411   2.195   2.611  0.9212  0.1415  2.2340
    2PMMA  HC39  487   1.985   2.367   2.532  1.3808 -0.0344 -1.5139
    2PMMA  HC40  488   1.852   2.318   2.435 -0.2415  1.2586  1.1255
    2PMMA  HC41  489   1.646   2.108   2.654 -0.8085 -0.2450  0.0653
    2PMMA  HC42  490   1.721   2.119   2.496  0.6275  0.3103  0.2604
    2PMMA  HC43  491   1.791   2.016   2.621  1.0306  0.8462  0.8720
    2PMMA  H144  492   1.733   2.629   2.538  0.8505 -0.7026  0.2543
    2PMMA  H145  493   1.796   2.672   2.692  0.6654 -1.0783  0.5666
    2PMMA  H146  494   1.639   2.585   2.675  0.2230 -1.6745  2.0773
    2PMMA  HC47  495   1.987   2.095   2.725 -1.3361 -0.4736 -0.4460
    2PMMA  HC48  496   2.028   2.261   2.747  0.7684 -0.5407  1.7673
    2PMMA  HC49  497   2.001   2.157   3.091 -0.8650  2.3232 -0.0145
    2PMMA  HC50  498   2.097   2.173   2.945 -0.3723 -0.1184  0.8120
    2PMMA  HC51  499   1.992   2.032   2.963  1.2684  0.7873 -4.4674
    2PMMA  H152  500   1.774   2.605   2.989  0.8245 -0.6378 -1.0396
    2PMMA  H153  501   1.813   2.523   3.144 -0.8263 -2.6301  0.4554
    2PMMA  H154  502   1.648   2.533   3.086 -0.1567 -0.0337 -0.6754
    2PMMA  HC55  503   1.674   2.160   2.876  0.9620 -0.9434 -2.7431
    2PMMA  HC56  504   1.777   2.026   2.858  0.4468 -0.0394  0.8283
    2PMMA  HC57  505   1.799   2.215   3.193  1.2965  0.5444 -3.6330
    2PMMA  HC58  506   1.635   2.252   3.158 -1.9283 -1.9184 -1.8480
    2PMMA  HC59  507   1.669   2.122   3.269  0.3228 -0.4718 -0.3187
    2PMMA  H160  508   2.022   1.844   3.207  0.8781 -0.0846  2.0329
    2PMMA  H161  509   1.890   1.756   3.282  3.5993 -1.6587  1.1586
    2PMMA  H162  510   1.973   1.887   3.374 -0.2374 -0.8967  0.7591
    2PMMA  HC63  511   1.498   2.057   3.009  1.5718  0.8596 -0.1954
    2PMMA  HC64  512   1.564   1.907   2.971 -0.0538 -2.6781  2.4713
    2PMMA  HC65  513   1.537   1.945   3.139 -3.1849  0.5267 -0.3114
    3HFI     O1  514   0.966   0.964   0.754 -0.7017  0.4589  0.3021
    3HFI     C1  515   1.006   0.906   0.629  0.3519 -0.1021  0.3161
    3HFI     C2  516   1.167   0.906   0.621  1.1413 -0.3034 -0.1054
    3HFI     F1  517   1.212   0.823   0.532  0.2661 -0.0914 -0.1924
    3HFI     F2  518   1.221   0.861   0.741  0.1101 -0.1849  0.5392
    3HFI     F3  519   1.213   1.030   0.592  0.0653  0.1391 -0.2391
    3HFI     C3  520   0.942   1.008   0.528 -0.5372 -0.2289  0.2792
    3HFI     F4  521   0.989   0.970   0.403 -0.8063 -0.1213  0.0976
    3HFI     F5  522   0.975   1.136   0.557  0.4934 -0.2099  0.0094
    3HFI     F6  523   0.804   0.997   0.520  0.0456  0.9055  0.5640
    3HFI     H1  524   1.000   1.055   0.758 -1.0256  0.5754  0.4527
    3HFI     H2  525   0.957   0.811   0.605 -1.5591  0.5559  1.4773
    4HFI     O1  526   1.010   1.820   3.240  0.3894 -0.0296  0.3153
    4HFI     C1  527   1.106   1.851   3.128 -0.8425 -0.2389 -0.5357
    4HFI     C2  528   1.252   1.793   3.146 -0.2755  0.6466  0.2594
    4HFI     F1  529   1.315   1.849   3.251 -0.2062 -0.2465 -0.2272
    4HFI     F2  530   1.335   1.810   3.037  0.1463  0.3463  0.2176
    4HFI     F3  531   1.226   1.659   3.177 -0.1370  0.4785 -0.5647
    4HFI     C3  532   1.109   2.002   3.086  0.3037  0.0049 -0.6295
    4HFI     F4  533   0.977   2.040   3.067 -0.3533 -0.0702  0.3314
    4HFI     F5  534   1.170   2.030   2.969 -0.6490 -0.0725 -0.2637
    4HFI     F6  535   1.161   2.086   3.186  0.5198  0.5343 -0.2557
    4HFI     H1  536   1.051   1.860   3.319 -1.5380  0.8925  0.8756
    4HFI     H2  537   1.070   1.810   3.034  0.7736  1.6790 -2.0357
    5HFI     O1  538   0.410   1.603   2.599 -0.0634  0.0141 -0.7717
    5HFI     C1  539   0.397   1.677   2.729 -0.8029 -0.2581  1.0241
    5HFI     C2  540   0.245   1.707   2.768  0.1694  0.3214 -0.1184
    5HFI     F1  541   0.230   1.774   2.890 -0.1345  0.3430 -0.3720
    5HFI     F2  542   0.179   1.589   2.778 -0.3648  0.2902 -0.1025
    5HFI     F3  543   0.188   1.785   2.675  0.0990  0.7881 -0.2984
    5HFI     C3  544   0.483   1.800   2.718 -0.4728 -0.1006  0.1015
    5HFI     F4  545   0.613   1.773   2.739  0.4525 -0.6717 -0.1861
    5HFI     F5  546   0.445   1.894   2.805 -0.4824 -0.4252  0.4093
    5HFI     F6  547   0.461   1.852   2.594  0.7742 -0.2637  0.4250
    5HFI     H1  548   0.329   1.631   2.554 -0.6023  0.1592  0.2761
    5HFI     H2  549   0.437   1.608   2.804  0.8621 -0.8322 -0.3495
    6HFI     O1  550   3.057   3.275   1.389  0.3181  0.0197  0.2061
    6HFI     C1  551   3.151   3.231   1.495 -0.9790 -0.5806 -0.4329
    6HFI     C2  552   3.266   3.330   1.491  0.2322  0.2931  0.6642
    6HFI     F1  553   3.305   3.349   1.360 -0.0454 -0.4020 -0.1380
    6HFI     F2  554   3.373   3.292   1.563  0.5058  0.4888 -0.2843
    6HFI     F3  555   3.230   3.447   1.537 -0.0666 -0.1074 -0.1446
    6HFI     C3  556   3.180   3.080   1.488 -0.6524  0.8805  0.5869
    6HFI     F4  557   3.075   3.010   1.520  0.3341 -0.1157  0.4194
    6HFI     F5  558   3.275   3.050   1.576  0.3489 -0.4396  0.1778
    6HFI     F6  559   3.222   3.043   1.361 -0.6410  0.1553  0.4123
    6HFI     H1  560   3.115   3.308   1.319 -1.0423  1.1599 -0.4207
    6HFI     H2  561   3.104   3.254   1.592  2.2198  0.1608  0.9813
    7HFI     O1  562   0.046   2.408   2.904  0.5694 -0.7932  0.4942
    7HFI     C1  563   0.173   2.444   2.827  0.1301  0.4216 -0.3997
    7HFI     C2  564   0.165   2.590   2.777  0.0209  0.2836  1.0109
    7HFI     F1  565   0.271   2.634   2.698  0.8548  0.0611 -0.2904
    7HFI     F2  566   0.158   2.670   2.884  0.1790 -0.3407  0.3300
    7HFI     F3  567   0.048   2.606   2.706  0.5325  0.4741  0.7247
    7HFI     C3  568   0.202   2.337   2.715  0.1884 -0.0796 -0.4286
    7HFI     F4  569   0.199   2.212   2.773  0.0486  0.5612 -0.6131
    7HFI     F5  570   0.318   2.360   2.650 -0.3469 -0.1094  0.1017
    7HFI     F6  571   0.107   2.339   2.615 -0.0424  0.1668  0.1869
    7HFI     H1  572  -0.027   2.459   2.865  2.4821  0.1558 -1.9472
    7HFI     H2  573   0.258   2.449   2.897 -0.7862  0.8258  0.7044
    8HFI     O1  574   3.119   1.513   1.391  0.2772 -0.5818 -0.7591
    8HFI     C1  575   3.065   1.572   1.511 -0.3937 -0.0476 -0.0833
    8HFI     C2  576   2.916   1.570   1.498  0.5564  0.8070  0.2298
    8HFI     F1  577   2.863   1.439   1.490 -0.2721  0.2305 -0.1047
    8HFI     F2  578   2.889   1.631   1.380 -0.0935 -0.1209 -0.3426
    8HFI     F3  579   2.862   1.640   1.600 -0.2003  0.6575  0.0946
    8HFI     C3  580   3.135   1.708   1.527  0.4388 -0.5916 -0.2477
    8HFI     F4  581   3.265   1.692   1.547  0.7262  0.1074  0.4810
    8HFI     F5  582   3.088   1.792   1.622  0.1144 -0.4107  0.1164
    8HFI     F6  583   3.126   1.786   1.416 -0.3989  0.3422 -0.7203
    8HFI     H1  584   3.079   1.552   1.312  1.1398 -0.1134 -0.9740
    8HFI     H2  585   3.096   1.518   1.601  1.0119 -1.8236 -1.5930
    9HFI     O1  586   1.676   2.295   1.250  0.1408  0.4973 -0.6794
    9HFI     C1  587   1.628   2.252   1.379 -0.7139  0.2024 -0.2658
    9HFI     C2  588   1.473   2.243   1.382  0.0261  0.2671  0.5784
    9HFI     F1  589   1.412   2.358   1.380  0.1281 -0.2414  0.0400
    9HFI     F2  590   1.432   2.179   1.495  0.6208  0.3243  0.5926
    9HFI     F3  591   1.422   2.164   1.284  0.4554  0.0816  0.6755
    9HFI     C3  592   1.687   2.345   1.488 -0.4514  0.8058 -0.4403
    9HFI     F4  593   1.645   2.301   1.611 -0.3025 -0.5621  0.1432
    9HFI     F5  594   1.643   2.471   1.473  0.0301  0.5719 -0.5293
    9HFI     F6  595   1.820   2.348   1.488  0.2857 -0.2913 -0.5104
    9HFI     H1  596   1.722   2.381   1.253  0.7655  0.1254  1.0676
    9HFI     H2  597   1.660   2.149   1.400  1.4980  1.0545  0.7634
   10HFI     O1  598   2.665   0.445   0.530 -0.0408 -0.1668  0.3228
   10HFI     C1  599   2.782   0.385   0.591  0.3881 -0.6271  0.1348
   10HFI     C2  600   2.915   0.436   0.521 -0.2023 -0.4343 -0.6055
   10HFI     F1  601   2.914   0.409   0.387  0.2201 -0.2207 -0.6534
   10HFI     F2  602   3.020   0.371   0.569  0.7408 -0.1312 -0.1092
   10HFI     F3  603   2.932   0.566   0.538 -0.1780 -0.6427 -0.1300
   10HFI     C3  604   2.769   0.231   0.574 -0.1619 -0.7079  0.3895
   10HFI     F4  605   2.742   0.189   0.446 -0.0995  0.0934 -0.0133
   10HFI     F5  606   2.665   0.191   0.647  0.3467 -0.3044  0.0482
   10HFI     F6  607   2.874   0.164   0.631  0.2263  0.2040  0.7061
   10HFI     H1  608   2.580   0.402   0.552 -1.1289  1.3210 -0.8950
   10HFI     H2  609   2.795   0.411   0.697  1.5585  0.5828 -0.3060
   11HFI     O1  610   3.373   1.202   1.057  0.1382  0.4356 -0.3197
   11HFI     C1  611   3.262   1.150   0.989  0.2190 -0.4748 -0.3247
   11HFI     C2  612   3.122   1.186   1.056 -0.3984 -0.3042 -0.5704
   11HFI     F1  613   3.095   1.315   1.072 -0.0463 -0.1111 -0.0520
   11HFI     F2  614   3.111   1.129   1.178  0.3454 -0.0559  0.2120
   11HFI     F3  615   3.019   1.143   0.980  0.1689 -0.0119  0.3398
   11HFI     C3  616   3.273   1.004   0.948 -0.0069  0.6037  0.3909
   11HFI     F4  617   3.208   0.926   1.033 -0.0731  0.1302 -0.0229
   11HFI     F5  618   3.402   0.966   0.947 -0.1876 -0.3258  0.6595
   11HFI     F6  619   3.221   0.979   0.825  0.1347 -0.4060 -0.0106
   11HFI     H1  620   3.445   1.138   1.067  1.4609  1.9816  0.2591
   11HFI     H2  621   3.244   1.198   0.892  0.6813  1.9604  0.7535
   12HFI     O1  622   1.108   3.232   2.733 -0.1794  0.4078  0.1992
   12HFI     C1  623   1.059   3.345   2.811  0.5846  0.1122  0.0880
   12HFI     C2  624   0.955   3.425   2.729 -0.0457  0.2236 -0.1685
   12HFI     F1  625   1.023   3.487   2.627 -0.5260 -0.0214  0.1673
   12HFI     F2  626   0.895   3.527   2.798 -0.6121  0.1482  0.2636
   12HFI     F3  627   0.849   3.354   2.671  0.7699  0.5954 -0.0057
   12HFI     C3  628   1.175   3.429   2.866 -1.3709 -0.0208  0.0143
   12HFI     F4  629   1.263   3.469   2.769  0.2475 -0.2294  0.2432
   12HFI     F5  630   1.244   3.349   2.954 -0.3224  0.3099 -0.3756
   12HFI     F6  631   1.137   3.545   2.931  0.1811  0.0772  0.3136
   12HFI     H1  632   1.192   3.193   2.763 -0.8910 -0.4946  1.0198
   12HFI     H2  633   0.993   3.306   2.890 -1.3938 -0.3503 -1.7324
   13HFI     O1  634   1.899   2.664   1.615 -0.4893 -0.0252 -0.1135
   13HFI     C1  635   1.948   2.776   1.539  0.6432  0.3383 -0.1759
   13HFI     C2  636   1.849   2.809   1.421 -0.9006  0.6604  0.1433
   13HFI     F1  637   1.825   2.701   1.342 -0.1488  0.1835 -0.1383
   13HFI     F2  638   1.893   2.920   1.356 -0.1298  0.6719  0.1557
   13HFI     F3  639   1.730   2.853   1.465 -0.1020  0.4807 -0.0993
   13HFI     C3  640   2.099   2.770   1.491 -0.1217 -0.1718 -0.3356
   13HFI     F4  641   2.144   2.893   1.489  0.6831 -0.4239  0.0255
   13HFI     F5  642   2.117   2.723   1.363 -0.2007 -0.8197 -0.2570
   13HFI     F6  643   2.177   2.702   1.578 -0.6839  0.1285  0.0110
   13HFI     H1  644   1.895   2.594   1.548 -0.6620 -1.2586  1.1525
   13HFI     H2  645   1.942   2.858   1.613 -1.3586 -0.8105  0.9785
   14HFI     O1  646   1.010   1.265   0.878  0.0588  0.1078 -0.1932
   14HFI     C1  647   1.078   1.248   1.008 -0.8895 -0.9797 -0.2835
   14HFI     C2  648   1.101   1.389   1.066 -0.0879 -0.6587  0.0835
   14HFI     F1  649   1.162   1.467   0.977 -0.0048 -0.6590 -0.0762
   14HFI     F2  650   1.173   1.390   1.180 -0.2546 -0.0541  0.3039
   14HFI     F3  651   0.983   1.443   1.102  0.1189 -0.5309 -0.1001
   14HFI     C3  652   1.217   1.175   0.979 -0.2411  0.5492  0.0359
   14HFI     F4  653   1.279   1.149   1.095 -0.3517  0.4730  0.0663
   14HFI     F5  654   1.305   1.235   0.896 -0.0286  0.3651 -0.0189
   14HFI     F6  655   1.188   1.058   0.928  0.3068  0.3519 -0.4389
   14HFI     H1  656   0.970   1.353   0.873 -1.4696 -0.5510  0.1978
   14HFI     H2  657   1.015   1.188   1.075 -2.4878 -1.0032 -1.7717
   15HFI     O1  658   0.492   2.308   1.276 -0.0363  0.5899  0.0891
   15HFI     C1  659   0.520   2.358   1.414 -0.2197 -0.4825 -0.6077
   15HFI     C2  660   0.597   2.246   1.486 -0.0741 -0.0929 -0.3428
   15HFI     F1  661   0.724   2.228   1.433  0.0838 -0.2872  0.1570
   15HFI     F2  662   0.537   2.129   1.477  0.0883  0.2418 -0.3666
   15HFI     F3  663   0.604   2.277   1.613 -0.7444  0.3334  0.0193
   15HFI     C3  664   0.387   2.408   1.489 -0.2416  0.3455  0.5659
   15HFI     F4  665   0.338   2.495   1.406 -0.3122 -0.1009  0.5812
   15HFI     F5  666   0.395   2.476   1.603  0.0430  0.5028  0.6828
   15HFI     F6  667   0.297   2.306   1.501  0.0996  0.2398  0.3818
   15HFI     H1  668   0.397   2.323   1.261 -0.8538 -1.3059  2.9611
   15HFI     H2  669   0.583   2.447   1.405 -0.6822 -0.4770 -4.3826
   16HFI     O1  670   3.239   1.332   2.403  0.3878  0.0848  0.2919
   16HFI     C1  671   3.383   1.322   2.400 -0.9166  0.5693  0.2979
   16HFI     C2  672   3.453   1.431   2.482  0.2869 -1.1545 -1.0224
   16HFI     F1  673   3.585   1.422   2.474  0.3315 -0.4258 -0.0042
   16HFI     F2  674   3.431   1.423   2.615  0.0141  0.6888  0.0751
   16HFI     F3  675   3.412   1.559   2.447 -0.6995  0.2003 -0.0184
   16HFI     C3  676   3.432   1.305   2.257  0.0600 -0.0214 -0.3069
   16HFI     F4  677   3.567   1.278   2.248 -0.0328  0.7328  0.0101
   16HFI     F5  678   3.412   1.424   2.190 -0.5714  0.4333  0.6649
   16HFI     F6  679   3.363   1.205   2.194  0.2362  0.4462 -0.4998
   16HFI     H1  680   3.211   1.422   2.381  1.1945 -0.0440 -1.3762
   16HFI     H2  681   3.409   1.230   2.454  0.4430  0.3723 -0.6660
   17HFI     O1  682   1.736   0.589   1.324  0.1275  0.0600  0.1371
   17HFI     C1  683   1.843   0.671   1.367 -0.0090  0.6152 -0.6811
   17HFI     C2  684   1.823   0.699   1.522 -0.0355  0.3946  0.2981
   17HFI     F1  685   1.909   0.795   1.563  0.2369  0.2753  0.1432
   17HFI     F2  686   1.836   0.587   1.599  0.0027  0.1126  0.3406
   17HFI     F3  687   1.694   0.740   1.547  0.3155 -0.0261  0.2467
   17HFI     C3  688   1.861   0.792   1.270 -0.4023 -0.4974  0.0268
   17HFI     F4  689   1.885   0.758   1.137  0.0405  0.0516  0.0213
   17HFI     F5  690   1.967   0.862   1.314 -0.3170 -0.0071 -0.8558
   17HFI     F6  691   1.756   0.878   1.268  0.2209  0.5152  0.4037
   17HFI     H1  692   1.655   0.604   1.376 -0.2163 -2.6530  0.4501
   17HFI     H2  693   1.939   0.618   1.364 -0.7828 -0.8856  0.5524
   18HFI     O1  694   3.217   0.324   3.703 -1.1178  0.9658  0.1062
   18HFI     C1  695   3.197   0.400   3.829  0.0486  0.8389 -0.1456
   18HFI     C2  696   3.230   0.549   3.790 -0.6745  0.4234  0.0987
   18HFI     F1  697   3.357   0.564   3.751 -0.1937 -0.0735  0.0185
   18HFI     F2  698   3.203   0.635   3.885  0.1384  0.1382  0.4040
   18HFI     F3  699   3.153   0.599   3.696 -0.0812  0.0905  0.4861
   18HFI     C3  700   3.273   0.340   3.960 -0.0623  0.1600 -0.0098
   18HFI     F4  701   3.403   0.323   3.929 -0.2056 -0.0417 -0.3084
   18HFI     F5  702   3.223   0.222   4.002 -0.3235  0.1321  0.5605
   18HFI     F6  703   3.265   0.423   4.062  0.0313  0.0861 -0.3172
   18HFI     H1  704   3.207   0.229   3.722  0.8100  0.7393  0.0586
   18HFI     H2  705   3.093   0.405   3.861  0.2492 -1.2103  0.9611
   19HFI     O1  706   2.311   0.767   2.447 -0.0916 -0.0418  0.0700
   19HFI     C1  707   2.376   0.799   2.576  0.2882  0.1460  0.5820
   19HFI     C2  708   2.310   0.729   2.701 -0.1415  0.2241 -0.3999
   19HFI     F1  709   2.387   0.738   2.814  0.5324 -0.2746 -0.5936
   19HFI     F2  710   2.298   0.602   2.678 -0.4709  0.0976 -0.0648
   19HFI     F3  711   2.187   0.783   2.727 -0.6194 -0.1170 -0.0007
   19HFI     C3  712   2.389   0.946   2.592  0.4833 -0.7042  0.0458
   19HFI     F4  713   2.269   1.006   2.606 -0.5824 -0.2471 -0.6792
   19HFI     F5  714   2.445   1.001   2.474  0.2323 -0.9521 -0.2329
   19HFI     F6  715   2.475   0.980   2.695 -0.4348  0.3833 -0.3809
   19HFI     H1  716   2.359   0.819   2.381 -0.9855  0.0470 -0.5116
   19HFI     H2  717   2.480   0.766   2.585 -0.0715 -1.4727 -0.9768
   20HFI     O1  718   1.369   0.842   1.602  0.1393  0.2836 -0.2127
   20HFI     C1  719   1.292   0.885   1.486  0.6120 -0.0923  0.3076
   20HFI     C2  720   1.346   1.022   1.444  0.4771 -0.8103 -0.6541
   20HFI     F1  721   1.256   1.086   1.358 -0.1987 -0.0486 -0.3465
   20HFI     F2  722   1.467   1.015   1.385  0.1085  0.6467 -0.2143
   20HFI     F3  723   1.359   1.104   1.554 -1.0147 -0.1524 -0.5922
   20HFI     C3  724   1.139   0.882   1.504  0.0194  0.0144  0.0922
   20HFI     F4  725   1.108   0.764   1.563  0.6157  0.2873 -0.3992
   20HFI     F5  726   1.066   0.891   1.391  0.3141 -0.1143  0.1303
   20HFI     F6  727   1.095   0.987   1.577 -0.6498 -0.1113 -0.0049
   20HFI     H1  728   1.336   0.892   1.679 -0.7994  1.2329 -1.2108
   20HFI     H2  729   1.320   0.818   1.404  1.8790  1.6028 -0.6682
   21HFI     O1  730   0.949   3.392   3.109 -0.3520 -0.6453  0.0844
   21HFI     C1  731   1.027   3.421   3.231 -0.4359  0.7561 -0.4379
   21HFI     C2  732   0.995   3.319   3.350 -0.1390  0.0044  0.0989
   21HFI     F1  733   1.075   3.359   3.447  0.2502 -0.0877 -0.2116
   21HFI     F2  734   1.021   3.190   3.317 -0.0854 -0.1362 -0.4978
   21HFI     F3  735   0.867   3.334   3.394 -0.2846  0.2969  0.0917
   21HFI     C3  736   1.010   3.568   3.280 -0.4356 -0.9635 -0.1882
   21HFI     F4  737   0.889   3.592   3.333  0.1223  0.4396 -0.0761
   21HFI     F5  738   1.010   3.649   3.176 -0.3589 -0.2159  0.2626
   21HFI     F6  739   1.107   3.605   3.370  0.1864  0.0769  0.5651
   21HFI     H1  740   0.857   3.418   3.127 -0.1649 -0.0926  0.2577
   21HFI     H2  741   1.132   3.416   3.199  0.2911  2.7413  1.5456
   22HFI     O1  742   3.200   0.182   0.828  0.1923  0.2409 -0.0686
   22HFI     C1  743   3.154   0.175   0.968 -0.1088  0.5759 -0.2653
   22HFI     C2  744   3.218   0.051   1.038  0.2228  0.5566  0.1820
   22HFI     F1  745   3.356   0.057   1.048  0.4902  0.0120  0.6200
   22HFI     F2  746   3.193  -0.053   0.956  0.1639  0.0294  0.2199
   22HFI     F3  747   3.166   0.022   1.162  0.2943  0.0036 -0.0839
   22HFI     C3  748   2.998   0.197   0.989  0.5000  0.1837 -0.2763
   22HFI     F4  749   2.974   0.210   1.123 -0.4860 -0.1931 -0.3701
   22HFI     F5  750   2.930   0.088   0.944 -0.1461  0.3084 -0.2721
   22HFI     F6  751   2.953   0.313   0.922 -0.3813 -0.3673 -0.6379
   22HFI     H1  752   3.193   0.099   0.778  1.9042 -2.2590  3.6264
   22HFI     H2  753   3.201   0.254   1.029 -1.2862  0.4093  0.8805
   23HFI     O1  754   0.052   0.709   2.646 -0.2147  0.0583  0.7091
   23HFI     C1  755   0.060   0.588   2.727 -0.4938 -0.8121 -0.0055
   23HFI     C2  756   0.086   0.462   2.637 -0.0349 -0.1296 -0.3921
   23HFI     F1  757   0.167   0.491   2.532  0.4527  0.4561 -0.3780
   23HFI     F2  758  -0.029   0.421   2.580  0.6998  0.5960  0.2446
   23HFI     F3  759   0.139   0.358   2.696 -0.5920  0.0591 -0.4904
   23HFI     C3  760  -0.062   0.580   2.819  0.0562  0.5420 -0.0648
   23HFI     F4  761  -0.066   0.468   2.893  0.0444  0.5154  0.3511
   23HFI     F5  762  -0.170   0.583   2.742  0.0729 -0.3465  0.2405
   23HFI     F6  763  -0.066   0.680   2.907 -0.2045 -0.6158  0.5800
   23HFI     H1  764  -0.031   0.721   2.597 -0.8084 -0.0186  1.6827
   23HFI     H2  765   0.143   0.609   2.796 -1.9615  1.3016  1.1714
   24HFI     O1  766   1.902   1.699   1.315 -0.0551 -0.0616  0.6102
   24HFI     C1  767   1.852   1.808   1.402  0.3619 -0.0917 -0.3729
   24HFI     C2  768   1.920   1.943   1.364  0.6734  0.5553 -0.0715
   24HFI     F1  769   2.060   1.927   1.376  0.1673  0.0242  0.4427
   24HFI     F2  770   1.880   2.053   1.439  0.3386  0.4134 -0.0810
   24HFI     F3  771   1.896   1.975   1.241  0.2395 -0.1005 -0.6226
   24HFI     C3  772   1.855   1.765   1.549  0.8464  0.0497 -0.5855
   24HFI     F4  773   1.973   1.798   1.595 -0.2639  0.5585 -0.4203
   24HFI     F5  774   1.830   1.632   1.576 -0.5934 -0.9386  0.6911
   24HFI     F6  775   1.766   1.832   1.617 -0.1074 -0.4491  0.1759
   24HFI     H1  776   1.966   1.646   1.364  0.4713  0.6344  0.6874
   24HFI     H2  777   1.746   1.825   1.378  0.4664 -0.6313 -1.2282
   25HFI     O1  778   0.752   2.435   0.261  0.7646 -0.2515 -0.1435
   25HFI     C1  779   0.794   2.452   0.117 -0.6812 -0.4796 -0.6116
   25HFI     C2  780   0.734   2.577   0.044  0.7429 -0.3536 -0.1166
   25HFI     F1  781   0.792   2.594  -0.076  0.2120 -0.6950 -0.1460
   25HFI     F2  782   0.764   2.691   0.112  0.2293  0.7321  0.0724
   25HFI     F3  783   0.598   2.570   0.035 -0.5422  0.0760 -0.0477
   25HFI     C3  784   0.782   2.318   0.046  0.6991 -0.3662  0.1519
   25HFI     F4  785   0.657   2.273   0.028  0.1056 -0.0446 -0.2284
   25HFI     F5  786   0.858   2.234   0.120  0.3081 -0.0865 -0.8717
   25HFI     F6  787   0.836   2.317  -0.076 -0.0178  0.2796 -0.0780
   25HFI     H1  788   0.668   2.481   0.274  0.7853 -0.5645  1.1308
   25HFI     H2  789   0.903   2.466   0.118 -0.7160 -0.2504  0.6213
   26HFI     O1  790   1.096   2.960   0.757  0.6302 -0.0580  0.3523
   26HFI     C1  791   0.978   2.910   0.827 -0.5768  0.3904 -0.2454
   26HFI     C2  792   0.867   3.011   0.827  0.5579  0.1920 -0.6379
   26HFI     F1  793   0.748   2.974   0.879  0.3120 -0.2533  0.4884
   26HFI     F2  794   0.840   3.049   0.702 -0.6162 -0.2553  0.5484
   26HFI     F3  795   0.911   3.123   0.885 -0.6098 -0.4315  0.4504
   26HFI     C3  796   1.022   2.867   0.972 -0.0178 -0.0962  0.3524
   26HFI     F4  797   1.099   2.965   1.022  0.0371 -0.2003  0.0648
   26HFI     F5  798   1.094   2.752   0.974 -0.2574 -0.3729 -0.3805
   26HFI     F6  799   0.925   2.844   1.058 -0.0679  0.1086  0.3028
   26HFI     H1  800   1.078   2.977   0.663 -0.6739 -0.1215  0.5846
   26HFI     H2  801   0.953   2.814   0.779  1.0709 -0.6949  1.0185
   27HFI     O1  802   0.125   0.238   0.732  0.1332  0.3019  0.7656
   27HFI     C1  803   0.190   0.164   0.626  0.1154 -0.1462 -0.3482
   27HFI     C2  804   0.127   0.190   0.487  0.5400 -0.0859 -0.1171
   27HFI     F1  805   0.132   0.312   0.447 -0.0700  0.0463  0.2173
   27HFI     F2  806  -0.003   0.158   0.487 -0.2647  0.2272 -0.0223
   27HFI     F3  807   0.192   0.118   0.390  0.1781 -0.2252  0.4729
   27HFI     C3  808   0.199   0.010   0.672 -0.0206  0.5513  0.4412
   27HFI     F4  809   0.272  -0.069   0.584 -0.1221 -0.0084 -0.1418
   27HFI     F5  810   0.078  -0.058   0.685 -0.1267 -0.1476  0.2349
   27HFI     F6  811   0.256   0.002   0.789 -0.4041 -0.2879  0.0296
   27HFI     H1  812   0.049   0.192   0.773 -0.4193 -0.6280 -1.2384
   27HFI     H2  813   0.292   0.204   0.625  0.6140 -1.3974 -1.4656
   28HFI     O1  814   1.110   0.761   1.134  0.3754  1.0871  0.5623
   28HFI     C1  815   1.004   0.743   1.037  0.0147  0.3173  0.2401
   28HFI     C2  816   0.869   0.787   1.103  0.2102 -0.1243  0.3636
   28HFI     F1  817   0.760   0.775   1.022 -0.1215  0.4532 -0.0786
   28HFI     F2  818   0.877   0.917   1.143  0.1140  0.2970  0.1417
   28HFI     F3  819   0.842   0.715   1.214 -0.0630 -0.5149 -0.7278
   28HFI     C3  820   1.000   0.604   0.967 -0.2177  0.4107 -0.4520
   28HFI     F4  821   0.945   0.618   0.849  0.0272 -0.2486  0.1123
   28HFI     F5  822   0.921   0.510   1.032 -0.0350 -0.1485 -0.0907
   28HFI     F6  823   1.120   0.549   0.949  0.0088  0.3899 -0.0503
   28HFI     H1  824   1.180   0.707   1.095 -4.0462 -2.9314 -2.4202
   28HFI     H2  825   1.021   0.815   0.956  0.4104 -0.8672 -0.7538
   29HFI     O1  826   0.832   2.971   1.298 -0.0100 -0.0100 -0.1938
   29HFI     C1  827   0.817   2.871   1.402  0.1343 -0.2059 -0.4457
   29HFI     C2  828   0.689   2.890   1.481 -0.2253  0.3647 -0.2326
   29HFI     F1  829   0.695   2.988   1.578  0.1847  0.6473  0.0578
   29HFI     F2  830   0.653   2.770   1.537 -0.1937 -0.6942  0.3323
   29HFI     F3  831   0.593   2.925   1.400 -0.0666 -0.1511  0.0416
   29HFI     C3  832   0.937   2.845   1.479 -0.4230 -0.5270 -0.6028
   29HFI     F4  833   1.045   2.814   1.401 -0.3202  0.2989  0.1716
   29HFI     F5  834   0.924   2.744   1.568  0.3023 -0.9908 -0.3288
   29HFI     F6  835   0.970   2.949   1.546  0.2644 -0.4108 -0.1078
   29HFI     H1  836   0.843   3.053   1.349 -1.9293 -0.1537  0.5003
   29HFI     H2  837   0.800   2.775   1.352  1.1046 -0.3228 -0.5521
   30HFI     O1  838   2.565   0.596   0.170 -0.0388 -0.2765 -0.3032
   30HFI     C1  839   2.668   0.679   0.089 -0.5688  0.0069  0.5735
   30HFI     C2  840   2.762   0.582   0.002 -0.7055 -0.1027  0.0520
   30HFI     F1  841   2.825   0.654  -0.090 -0.5880 -0.1754 -0.4464
   30HFI     F2  842   2.683   0.489  -0.058 -0.1334 -0.8047  0.0818
   30HFI     F3  843   2.847   0.517   0.080  0.1623  0.0086  0.0466
   30HFI     C3  844   2.759   0.767   0.180 -0.1147 -0.4796 -0.1981
   30HFI     F4  845   2.681   0.849   0.252 -0.6284 -0.1153  0.3624
   30HFI     F5  846   2.839   0.845   0.101 -0.1842  0.0831 -0.2050
   30HFI     F6  847   2.838   0.701   0.270  0.5519 -0.1860  0.1180
   30HFI     H1  848   2.612   0.538   0.232 -0.3040  1.2631  1.3857
   30HFI     H2  849   2.608   0.744   0.024  0.3652  0.3648  0.0475
   31HFI     O1  850   0.077   2.554   1.099  0.3787  0.0180  0.2492
   31HFI     C1  851   0.007   2.433   1.043 -0.2330 -0.6024 -0.5844
   31HFI     C2  852   0.079   2.378   0.917  0.1145 -0.3763 -0.6471
   31HFI     F1  853   0.036   2.255   0.890 -0.1695  0.1045  0.4144
   31HFI     F2  854   0.209   2.362   0.947  0.1358  0.2395  0.3187
   31HFI     F3  855   0.070   2.457   0.805  0.3232  0.5768  0.3609
   31HFI     C3  856  -0.140   2.479   1.010 -0.2205 -0.0543  0.1080
   31HFI     F4  857  -0.137   2.606   0.958  0.4596  1.0108  0.6521
   31HFI     F5  858  -0.207   2.479   1.125  0.4765  0.2671  0.3686
   31HFI     F6  859  -0.202   2.392   0.924 -0.1377  0.6677  0.6962
   31HFI     H1  860   0.024   2.635   1.096  1.5182  0.8539  1.6485
   31HFI     H2  861  -0.002   2.347   1.110 -1.8203 -1.0019 -1.2751
   32HFI     O1  862   0.348   1.665   0.206  0.2351 -0.0156  0.5219
   32HFI     C1  863   0.242   1.664   0.311  0.6237  0.4799  0.5244
   32HFI     C2  864   0.272   1.732   0.444  0.1980  0.0678 -0.1382
   32HFI     F1  865   0.164   1.745   0.517 -0.6868 -0.0404  0.0535
   32HFI     F2  866   0.315   1.855   0.413  0.0829 -0.3596  0.1856
   32HFI     F3  867   0.373   1.681   0.515 -0.3949 -0.0744  0.0060
   32HFI     C3  868   0.203   1.515   0.344  0.3152  0.1175 -0.4957
   32HFI     F4  869   0.119   1.462   0.252  0.3202  0.2450 -0.2830
   32HFI     F5  870   0.134   1.499   0.458 -0.4384  0.1385 -0.1333
   32HFI     F6  871   0.311   1.440   0.357 -0.5767  0.5165  0.1088
   32HFI     H1  872   0.418   1.600   0.222  2.7150  2.0781 -1.4500
   32HFI     H2  873   0.154   1.717   0.274  1.6518  1.7290 -0.1925
   33HFI     O1  874   1.089   1.836   3.494 -0.0066  0.6432 -0.1282
   33HFI     C1  875   0.987   1.857   3.592 -0.2345  0.3942  0.3958
   33HFI     C2  876   0.858   1.942   3.535 -0.5929  0.3007  0.0452
   33HFI     F1  877   0.773   1.961   3.638  0.3808 -0.0096  0.1679
   33HFI     F2  878   0.793   1.878   3.432 -0.1013  0.1811 -0.1006
   33HFI     F3  879   0.899   2.062   3.498  0.2370  0.3594  0.6025
   33HFI     C3  880   1.035   1.914   3.726  0.8912 -0.3003  0.6162
   33HFI     F4  881   0.961   1.878   3.837  0.6513  0.4278 -0.1536
   33HFI     F5  882   1.045   2.054   3.722  0.2788 -0.5049  0.1829
   33HFI     F6  883   1.163   1.870   3.756 -0.0076 -0.3256  0.3423
   33HFI     H1  884   1.171   1.814   3.542 -1.2707 -2.6678  0.6475
   33HFI     H2  885   0.943   1.761   3.624  0.1520 -0.2643 -0.9870
   34HFI     O1  886   1.323   3.016   3.426 -0.2665 -0.4939 -0.1022
   34HFI     C1  887   1.377   3.003   3.293  0.5612 -0.0782 -0.2440
   34HFI     C2  888   1.421   3.142   3.243 -0.6353  0.1265 -0.0648
   34HFI     F1  889   1.528   3.179   3.320  0.2903  0.3983  0.0535
   34HFI     F2  890   1.317   3.238   3.255 -0.4252 -0.2242 -0.5587
   34HFI     F3  891   1.478   3.133   3.117 -0.1940  0.0606 -0.5572
   34HFI     C3  892   1.274   2.937   3.192 -0.5282 -0.1364 -0.6034
   34HFI     F4  893   1.168   3.018   3.173 -0.0420 -0.0364  0.2646
   34HFI     F5  894   1.233   2.816   3.233  0.1669  0.0786 -0.5772
   34HFI     F6  895   1.327   2.924   3.066  0.1792 -0.0360 -0.0701
   34HFI     H1  896   1.293   2.925   3.444  1.6113 -0.8775  1.2483
   34HFI     H2  897   1.468   2.942   3.288  0.6566  0.1553 -1.3352
   35HFI     O1  898   1.266   2.418   0.830 -0.2358 -0.4869 -0.7160
   35HFI     C1  899   1.347   2.518   0.903 -0.4630  0.1627  0.1098
   35HFI     C2  900   1.476   2.553   0.824 -0.4144 -0.0387 -0.1918
   35HFI     F1  901   1.551   2.650   0.881 -0.2503  0.0474 -0.1479
   35HFI     F2  902   1.442   2.586   0.697 -0.7095 -0.3524 -0.4979
   35HFI     F3  903   1.556   2.444   0.821 -0.0951 -0.1371  0.0861
   35HFI     C3  904   1.364   2.480   1.050 -0.6602 -0.2528 -0.1876
   35HFI     F4  905   1.436   2.574   1.107  0.1702 -0.6912 -0.0052
   35HFI     F5  906   1.434   2.366   1.060  0.6156  0.3869  0.1338
   35HFI     F6  907   1.247   2.465   1.116 -0.2291 -0.7085 -0.2068
   35HFI     H1  908   1.307   2.330   0.836 -2.5386 -1.5575 -0.0842
   35HFI     H2  909   1.289   2.611   0.910  0.0675  0.5984 -1.1932
   36HFI     O1  910   1.180   0.142   0.930 -1.0134 -0.1795  0.1034
   36HFI     C1  911   1.105   0.033   0.981  0.0738 -0.1402 -0.0354
   36HFI     C2  912   0.961   0.090   1.023  0.1057  0.5824  0.1971
   36HFI     F1  913   0.884  -0.016   1.069 -0.1289  0.2844 -0.7240
   36HFI     F2  914   0.898   0.155   0.929  0.0067 -0.3533  0.1237
   36HFI     F3  915   0.958   0.164   1.133  0.1277  0.0210  0.1283
   36HFI     C3  916   1.185  -0.033   1.093 -0.2818 -0.8604 -0.4389
   36HFI     F4  917   1.232   0.058   1.178 -0.1998  0.2795 -0.2684
   36HFI     F5  918   1.296  -0.096   1.048 -0.3170 -0.4374  0.1604
   36HFI     F6  919   1.102  -0.121   1.152  0.0798  0.2636 -0.6052
   36HFI     H1  920   1.196   0.207   1.000  0.2670  1.7647 -1.9221
   36HFI     H2  921   1.094  -0.052   0.912 -0.2182  0.3483 -0.5961
   37HFI     O1  922   2.562   0.969   1.448 -0.3323  0.2560  0.0769
   37HFI     C1  923   2.460   0.878   1.505 -0.0708 -0.0142  0.9422
   37HFI     C2  924   2.512   0.735   1.510 -0.5228  0.0857  0.3657
   37HFI     F1  925   2.423   0.654   1.570  0.3638 -0.0796  0.1927
   37HFI     F2  926   2.622   0.722   1.581  0.2057  0.1139  0.0861
   37HFI     F3  927   2.542   0.679   1.387  0.3354  0.1245  0.1750
   37HFI     C3  928   2.324   0.892   1.429  0.3710 -0.2655 -0.0113
   37HFI     F4  929   2.213   0.828   1.494 -0.4724  0.2209 -0.2294
   37HFI     F5  930   2.335   0.837   1.304  0.3112 -0.0002 -0.3660
   37HFI     F6  931   2.289   1.025   1.420 -0.3520  0.2591  0.2448
   37HFI     H1  932   2.571   0.942   1.355 -2.7046  0.3430 -0.2128
   37HFI     H2  933   2.435   0.913   1.606 -1.2918 -0.0673  0.6545
   38HFI     O1  934   1.161   1.673   1.540 -0.0233  0.1255 -0.1150
   38HFI     C1  935   1.270   1.653   1.438  0.3717  0.0728  0.2347
   38HFI     C2  936   1.338   1.513   1.447 -0.0480  0.2738  0.3482
   38HFI     F1  937   1.399   1.475   1.332 -0.2500  0.0277  0.2967
   38HFI     F2  938   1.243   1.423   1.473 -0.2939  0.2103 -0.1447
   38HFI     F3  939   1.428   1.502   1.546  0.4523 -0.8047 -0.8107
   38HFI     C3  940   1.381   1.773   1.453  0.2447  0.0477 -0.5012
   38HFI     F4  941   1.448   1.756   1.569 -0.3823 -0.1494  0.0684
   38HFI     F5  942   1.318   1.893   1.458 -0.1906  0.1430  0.2739
   38HFI     F6  943   1.469   1.776   1.348 -0.4220 -0.2491  0.5414
   38HFI     H1  944   1.200   1.652   1.627  0.8851 -1.1730 -0.8199
   38HFI     H2  945   1.214   1.667   1.344 -1.8749 -1.6706  1.2804
   39HFI     O1  946   1.626   1.349   3.062  0.6648 -0.1482  0.3740
   39HFI     C1  947   1.708   1.344   3.178 -0.3325 -0.2345 -0.4896
   39HFI     C2  948   1.779   1.477   3.204 -0.3643  0.2687  0.1412
   39HFI     F1  949   1.837   1.478   3.328  0.0810 -0.1853 -0.1057
   39HFI     F2  950   1.690   1.584   3.207  0.3481 -0.3623 -0.0781
   39HFI     F3  951   1.878   1.510   3.117  0.2355  0.5331  0.0235
   39HFI     C3  952   1.803   1.220   3.191  0.7121 -0.5092 -0.4183
   39HFI     F4  953   1.734   1.105   3.171  0.4922  0.3175 -0.3381
   39HFI     F5  954   1.873   1.213   3.310 -0.1083 -0.2118  0.4450
   39HFI     F6  955   1.901   1.238   3.101 -0.3287  0.4694  0.1672
   39HFI     H1  956   1.638   1.436   3.018 -0.7377 -0.2297 -0.2256
   39HFI     H2  957   1.643   1.330   3.265  0.1920 -1.5648 -0.3102
   40HFI     O1  958   2.199   1.156   3.023  0.3921 -0.0835 -0.4898
   40HFI     C1  959   2.221   1.182   2.873 -0.1741 -0.2298  0.0197
   40HFI     C2  960   2.327   1.304   2.848  0.8402 -0.1117 -0.3634
   40HFI     F1  961   2.345   1.330   2.719  1.0088 -0.3859 -0.0840
   40HFI     F2  962   2.449   1.282   2.901  0.0230 -0.5130  0.4079
   40HFI     F3  963   2.277   1.417   2.906  0.1628 -0.3390  0.1677
   40HFI     C3  964   2.087   1.201   2.789 -0.2426  0.2859 -0.1267
   40HFI     F4  965   1.995   1.109   2.820 -0.4506 -0.3622 -0.5740
   40HFI     F5  966   2.106   1.215   2.661 -0.0504 -0.7361  0.0700
   40HFI     F6  967   2.040   1.317   2.834  0.6103 -0.2331  0.4335
   40HFI     H1  968   2.150   1.234   3.055 -0.5830 -0.5539 -0.8013
   40HFI     H2  969   2.269   1.098   2.822  2.6156  1.0663  0.4339
   41HFI     O1  970   1.336   0.045   3.607  0.4166 -0.8138 -0.7086
   41HFI     C1  971   1.355   0.150   3.706  0.2280 -0.3083 -0.1382
   41HFI     C2  972   1.303   0.098   3.845  0.3890  0.1146  0.0431
   41HFI     F1  973   1.174   0.068   3.841 -0.1614  0.3140 -0.2989
   41HFI     F2  974   1.334   0.186   3.947  0.0768  0.1711 -0.0804
   41HFI     F3  975   1.364  -0.023   3.868  0.1740 -0.3388 -0.3492
   41HFI     C3  976   1.293   0.288   3.664 -0.0705 -0.1763 -1.2107
   41HFI     F4  977   1.338   0.315   3.536 -0.9386  0.2233  0.0696
   41HFI     F5  978   1.327   0.388   3.746 -0.3258 -0.2215 -0.2284
   41HFI     F6  979   1.159   0.279   3.657  0.6412 -0.0793  0.2305
   41HFI     H1  980   1.247   0.005   3.603 -0.2678  0.8013 -2.0914
   41HFI     H2  981   1.461   0.175   3.723  0.2814 -1.9718  2.2377
   42HFI     O1  982   0.308   2.807   3.416  0.6951 -0.2859 -0.3153
   42HFI     C1  983   0.433   2.811   3.339  0.0205  0.6001 -0.4199
   42HFI     C2  984   0.410   2.913   3.225 -0.0836 -0.2359 -0.2678
   42HFI     F1  985   0.525   2.933   3.157  0.0866 -0.3493  0.1358
   42HFI     F2  986   0.377   3.039   3.272  0.3962 -0.0353  0.7525
   42HFI     F3  987   0.317   2.877   3.141  0.1953  0.5994  0.2986
   42HFI     C3  988   0.482   2.669   3.294 -0.7786 -0.3985 -0.1487
   42HFI     F4  989   0.605   2.673   3.236  0.3383  0.3347  0.0121
   42HFI     F5  990   0.392   2.607   3.215 -0.6127  0.0243  0.1269
   42HFI     F6  991   0.507   2.596   3.402 -0.0221  0.2284 -0.1767
   42HFI     H1  992   0.233   2.793   3.355  0.5442  1.1807 -0.4727
   42HFI     H2  993   0.517   2.843   3.402  2.8325 -0.8032 -3.3438
   43HFI     O1  994   0.094   0.043   3.661  0.4954 -0.3745 -0.1346
   43HFI     C1  995   0.199  -0.060   3.630  0.3329  0.0890 -0.0658
   43HFI     C2  996   0.348  -0.011   3.606  0.3580  0.0707  0.5211
   43HFI     F1  997   0.337   0.076   3.501 -0.4226 -0.1303 -0.0669
   43HFI     F2  998   0.436  -0.118   3.575  0.0788 -0.0017  0.0582
   43HFI     F3  999   0.398   0.052   3.713 -0.3101 -0.4704 -0.0733
   43HFI     C3 1000   0.139  -0.145   3.511  0.0569 -0.4728 -0.3469
   43HFI     F4 1001   0.018  -0.193   3.537  0.1305 -0.2455 -0.1184
   43HFI     F5 1002   0.213  -0.245   3.480  0.0827  0.0354  0.4656
   43HFI     F6 1003   0.122  -0.059   3.407 -0.0846 -0.2449  0.0333
   43HFI     H1 1004   0.097   0.108   3.590 -0.0669 -0.5734 -0.3422
   43HFI     H2 1005   0.210  -0.131   3.712  0.7564 -0.7156 -0.8066
   44HFI     O1 1006   1.797   3.118   3.082 -0.3135  0.4067  0.0956
   44HFI     C1 1007   1.875   3.011   3.153  0.0053  0.5447  0.1583
   44HFI     C2 1008   1.814   2.872   3.120  0.0420 -0.7244 -0.1290
   44HFI     F1 1009   1.685   2.862   3.164 -0.1517  0.5784  0.4014
   44HFI     F2 1010   1.888   2.774   3.183  0.4695  0.7717  0.2323
   44HFI     F3 1011   1.820   2.849   2.987  0.2240  0.3296 -0.2546
   44HFI     C3 1012   1.906   3.040   3.296  0.4649  0.4367  0.4576
   44HFI     F4 1013   1.950   3.168   3.310 -0.2302  0.0814  0.1705
   44HFI     F5 1014   1.990   2.961   3.356 -0.7831 -0.1216  0.0911
   44HFI     F6 1015   1.786   3.033   3.358 -0.7745  0.0472 -0.0114
   44HFI     H1 1016   1.707   3.090   3.061 -0.1976 -0.0520  0.2041
   44HFI     H2 1017   1.970   3.009   3.098 -0.4089  0.5010 -0.5645
   45HFI     O1 1018   2.105   1.589   1.143  0.0247  0.6130  0.3206
   45HFI     C1 1019   2.200   1.629   1.044 -0.3428  0.2809 -0.1086
   45HFI     C2 1020   2.219   1.783   1.046 -0.1076  0.3110  0.0467
   45HFI     F1 1021   2.124   1.837   0.970  0.2434 -0.3287 -0.1607
   45HFI     F2 1022   2.340   1.812   0.994 -0.5691 -0.3318 -0.2405
   45HFI     F3 1023   2.215   1.840   1.167 -0.2370  0.0949 -0.3710
   45HFI     C3 1024   2.185   1.557   0.910  0.5031  0.4692 -0.4762
   45HFI     F4 1025   2.168   1.424   0.929 -0.3350 -0.7188 -0.3276
   45HFI     F5 1026   2.296   1.577   0.838 -0.1798 -0.1521 -0.5149
   45HFI     F6 1027   2.080   1.607   0.845  0.3862 -0.4471  0.6268
   45HFI     H1 1028   2.020   1.621   1.108  0.6392  0.8863 -0.9582
   45HFI     H2 1029   2.296   1.592   1.083  0.9030  2.4829 -0.9465
   46HFI     O1 1030   0.064   1.806   1.384 -0.2076 -0.1265  0.1758
   46HFI     C1 1031   0.097   1.898   1.486 -0.1231 -0.6817 -0.5504
   46HFI     C2 1032   0.031   2.037   1.464  0.5971  0.1262 -0.3313
   46HFI     F1 1033   0.028   2.098   1.586 -0.1648 -0.4092 -0.3560
   46HFI     F2 1034  -0.095   2.026   1.420  0.4133  0.4504  0.4468
   46HFI     F3 1035   0.100   2.118   1.382 -0.1971  0.2583  0.3443
   46HFI     C3 1036   0.250   1.916   1.517 -0.1093  0.2101 -0.1600
   46HFI     F4 1037   0.315   1.946   1.405  0.4275  0.4187 -0.1045
   46HFI     F5 1038   0.306   1.806   1.574  0.1521  0.1851 -0.2270
   46HFI     F6 1039   0.269   2.019   1.605 -0.3650  0.4882 -0.1563
   46HFI     H1 1040   0.111   1.844   1.307 -0.8214  0.7933  0.2563
   46HFI     H2 1041   0.049   1.869   1.580  1.1633  0.8525  0.6342
   47HFI     O1 1042   2.315   0.844   3.170  0.2572 -0.1089  0.1110
   47HFI     C1 1043   2.398   0.968   3.199 -0.9613 -0.1158  0.2801
   47HFI     C2 1044   2.519   0.980   3.104  0.1757  0.3876  0.5565
   47HFI     F1 1045   2.590   1.096   3.123  0.0392  0.4119  0.1885
   47HFI     F2 1046   2.475   0.979   2.981  0.6611  0.3026 -0.0494
   47HFI     F3 1047   2.606   0.875   3.121  0.1774  0.7569 -0.4176
   47HFI     C3 1048   2.440   0.980   3.347 -0.5246 -0.6096  1.1593
   47HFI     F4 1049   2.515   1.094   3.377  0.4150  0.1812  0.1157
   47HFI     F5 1050   2.518   0.870   3.382 -0.1842 -0.3493  0.4025
   47HFI     F6 1051   2.327   0.973   3.433  0.1235  0.2400 -0.4695
   47HFI     H1 1052   2.355   0.767   3.213 -0.0546  0.3145  1.1845
   47HFI     H2 1053   2.339   1.057   3.177 -1.3872 -0.3380  0.4933
   48HFI     O1 1054   0.423   2.549   1.079  0.0416  0.3581 -0.1105
   48HFI     C1 1055   0.520   2.578   0.981 -0.1561  0.6944 -0.3149
   48HFI     C2 1056   0.648   2.633   1.046 -0.4395  0.3603 -0.3838
   48HFI     F1 1057   0.693   2.561   1.155  0.5021  0.0755  0.3443
   48HFI     F2 1058   0.635   2.758   1.093  0.3363  0.4419  0.1652
   48HFI     F3 1059   0.759   2.629   0.957  0.0125 -0.1747 -0.6967
   48HFI     C3 1060   0.469   2.663   0.865  0.3519 -0.1409  0.6294
   48HFI     F4 1061   0.450   2.786   0.899  0.0683  0.0031 -0.0970
   48HFI     F5 1062   0.350   2.612   0.822 -0.0397 -0.1250  0.5285
   48HFI     F6 1063   0.556   2.652   0.758 -0.0469 -0.4868  0.1058
   48HFI     H1 1064   0.333   2.574   1.050 -0.0623  1.0020  0.7734
   48HFI     H2 1065   0.546   2.484   0.932  0.4135  0.2499  0.8383
   49HFI     O1 1066   2.264   0.175   1.348 -0.2042 -0.4684  0.2543
   49HFI     C1 1067   2.156   0.252   1.407 -0.8836  0.0502 -0.4079
   49HFI     C2 1068   2.203   0.376   1.476 -0.1663 -0.5084  0.1784
   49HFI     F1 1069   2.097   0.459   1.490 -0.7849  0.1588  0.5825
   49HFI     F2 1070   2.292   0.445   1.404  0.1818 -0.5179 -0.2180
   49HFI     F3 1071   2.257   0.349   1.597  0.1671  0.3425 -0.0585
   49HFI     C3 1072   2.060   0.166   1.488  0.2494  0.1272 -0.1362
   49HFI     F4 1073   1.974   0.109   1.395 -0.2690 -0.2123 -0.3204
   49HFI     F5 1074   1.983   0.235   1.575 -0.1270 -0.6410 -0.8196
   49HFI     F6 1075   2.126   0.068   1.556  0.2532 -0.7340 -0.2204
   49HFI     H1 1076   2.311   0.131   1.420 -1.9831 -1.9185  0.5785
   49HFI     H2 1077   2.098   0.295   1.325  0.3036 -0.7526 -1.6947
   50HFI     O1 1078   1.623   3.403   3.718  0.6667 -0.1909 -0.4153
   50HFI     C1 1079   1.693   3.287   3.770  0.1215  0.0118  0.0151
   50HFI     C2 1080   1.746   3.199   3.655  0.2913  0.2515  0.2636
   50HFI     F1 1081   1.797   3.282   3.560 -0.5192 -0.4613 -0.0843
   50HFI     F2 1082   1.643   3.132   3.589  0.2878  0.0045 -0.0374
   50HFI     F3 1083   1.851   3.116   3.690  0.7078 -0.5254 -0.0747
   50HFI     C3 1084   1.605   3.198   3.867 -0.2672 -0.1192  0.3062
   50HFI     F4 1085   1.664   3.085   3.913 -0.2888 -0.5033  0.4227
   50HFI     F5 1086   1.494   3.147   3.807 -0.0215 -0.6227  0.3827
   50HFI     F6 1087   1.559   3.267   3.964 -0.3814 -0.2345 -0.2561
   50HFI     H1 1088   1.602   3.379   3.626 -1.2946 -2.1664  0.4884
   50HFI     H2 1089   1.770   3.335   3.832 -1.2530  1.9047  0.2987
   51HFI     O1 1090   1.707   0.504   0.362 -0.1117 -0.3932  0.4041
   51HFI     C1 1091   1.711   0.612   0.461  0.1698  0.0229 -0.1105
   51HFI     C2 1092   1.596   0.709   0.461 -0.1357 -0.0261  0.1363
   51HFI     F1 1093   1.475   0.651   0.465  0.8287 -0.1418 -0.0107
   51HFI     F2 1094   1.602   0.793   0.354 -0.2144 -0.7683 -0.4357
   51HFI     F3 1095   1.605   0.781   0.567  0.0919  0.2961 -0.2832
   51HFI     C3 1096   1.846   0.690   0.466  0.3455  0.0383  0.0758
   51HFI     F4 1097   1.852   0.781   0.363 -0.4552 -0.1690 -0.3568
   51HFI     F5 1098   1.952   0.603   0.447  0.5498  0.1332  0.5185
   51HFI     F6 1099   1.878   0.756   0.572 -0.4352  0.0520  0.9546
   51HFI     H1 1100   1.746   0.541   0.281 -1.6279 -0.8917 -0.5875
   51HFI     H2 1101   1.692   0.566   0.559  0.5442  3.6010  1.7343
   52HFI     O1 1102   1.548   1.665   3.562 -0.7398  0.2662 -0.8533
   52HFI     C1 1103   1.533   1.552   3.650  0.1910 -0.5835 -0.7871
   52HFI     C2 1104   1.552   1.605   3.795 -0.2561  0.4544  0.7534
   52HFI     F1 1105   1.494   1.724   3.816 -0.4557 -0.2456  0.1916
   52HFI     F2 1106   1.684   1.627   3.821 -0.2520  0.0956 -0.9080
   52HFI     F3 1107   1.495   1.513   3.883  0.7359 -0.2262 -0.0466
   52HFI     C3 1108   1.627   1.438   3.611  0.2519 -0.8728  0.1800
   52HFI     F4 1109   1.650   1.342   3.714  0.4922 -0.0504  0.0722
   52HFI     F5 1110   1.755   1.487   3.587  0.0642 -0.1881 -0.5494
   52HFI     F6 1111   1.590   1.369   3.500 -0.1334  0.0524  0.3768
   52HFI     H1 1112   1.584   1.741   3.610 -0.7843 -0.8956  1.0752
   52HFI     H2 1113   1.433   1.508   3.648 -0.0812  0.0247 -0.5348
   53HFI     O1 1114   2.914   0.775   3.410 -0.0131  0.3051 -0.1943
   53HFI     C1 1115   2.974   0.898   3.381 -0.7691  0.0962  0.6020
   53HFI     C2 1116   3.124   0.875   3.337 -0.0665  0.0204  0.5877
   53HFI     F1 1117   3.200   0.821   3.436  0.1518 -0.2412 -0.4362
   53HFI     F2 1118   3.185   0.990   3.298  0.2651  0.5717  0.4481
   53HFI     F3 1119   3.136   0.786   3.238  0.5698  0.3196 -0.4160
   53HFI     C3 1120   2.952   1.013   3.490 -0.6567 -0.0098  0.2117
   53HFI     F4 1121   2.964   1.138   3.443 -0.6353 -0.5993  0.0248
   53HFI     F5 1122   3.050   0.987   3.591  0.1906  0.2212  0.0665
   53HFI     F6 1123   2.830   0.990   3.536  0.3978 -0.2874 -0.0112
   53HFI     H1 1124   2.948   0.743   3.496 -4.8219 -0.2590  1.6862
   53HFI     H2 1125   2.944   0.946   3.287 -0.2590 -0.3967  0.1814
   54HFI     O1 1126   1.788   0.360   0.928 -0.3916  0.3642 -0.1268
   54HFI     C1 1127   1.760   0.219   0.956 -0.1507 -0.4734 -0.1997
   54HFI     C2 1128   1.655   0.193   1.069 -0.0982  0.2985  0.1037
   54HFI     F1 1129   1.636   0.064   1.098 -0.4372  0.3829 -0.2004
   54HFI     F2 1130   1.536   0.245   1.034 -0.5278  0.4986 -0.0884
   54HFI     F3 1131   1.692   0.259   1.180  0.0920  0.4405  0.7760
   54HFI     C3 1132   1.903   0.140   0.981  0.0923 -0.4396 -0.9093
   54HFI     F4 1133   1.905   0.011   0.958 -0.2770  0.3637 -0.3552
   54HFI     F5 1134   1.953   0.161   1.100  0.4307 -0.0557 -0.1837
   54HFI     F6 1135   1.990   0.195   0.897 -0.1726  0.2106  0.1324
   54HFI     H1 1136   1.823   0.404   1.007  0.4820 -0.3852 -0.0879
   54HFI     H2 1137   1.727   0.159   0.870 -0.3083  0.6661 -0.9412
   55HFI     O1 1138   1.302   2.759   1.280  0.2911 -0.2050  0.0803
   55HFI     C1 1139   1.378   2.847   1.371 -0.8486 -0.6970  1.1332
   55HFI     C2 1140   1.392   2.794   1.516 -0.1979  0.2536 -0.0237
   55HFI     F1 1141   1.474   2.686   1.514  0.0578 -0.0552 -0.1312
   55HFI     F2 1142   1.270   2.753   1.554 -0.3491  0.5658 -0.0280
   55HFI     F3 1143   1.441   2.876   1.611  0.6131  0.1614  0.1658
   55HFI     C3 1144   1.327   2.994   1.369 -0.2741  0.6533  0.0605
   55HFI     F4 1145   1.247   3.017   1.258  0.0095 -0.3642 -0.0996
   55HFI     F5 1146   1.431   3.074   1.357 -0.0545 -1.0165  0.1667
   55HFI     F6 1147   1.254   3.033   1.475  0.1068  0.6796 -0.2039
   55HFI     H1 1148   1.217   2.745   1.324 -0.4039  2.2343 -0.4499
   55HFI     H2 1149   1.476   2.862   1.324 -0.8371  0.0742  1.3831
   56HFI     O1 1150   0.301   1.110   0.469  0.4550  0.1814  0.3002
   56HFI     C1 1151   0.166   1.048   0.447  0.5282  0.0063 -0.0014
   56HFI     C2 1152   0.117   1.036   0.297 -0.0582 -1.4073  0.0072
   56HFI     F1 1153   0.201   0.970   0.219 -0.5485  0.3106 -0.0200
   56HFI     F2 1154   0.110   1.162   0.246 -0.3382  0.0772  0.2483
   56HFI     F3 1155  -0.009   0.977   0.294 -0.7372 -0.0884  0.3194
   56HFI     C3 1156   0.058   1.117   0.546 -0.1681 -0.2688  0.0323
   56HFI     F4 1157   0.100   1.105   0.675 -0.6276 -0.0329  0.3034
   56HFI     F5 1158  -0.068   1.076   0.545 -0.5321  0.2511  0.0766
   56HFI     F6 1159   0.059   1.248   0.524  0.4244 -0.6470 -0.0173
   56HFI     H1 1160   0.303   1.201   0.436 -0.9369  1.2580  2.9732
   56HFI     H2 1161   0.172   0.944   0.482 -3.0024  0.2691  1.5986
   57HFI     O1 1162   1.808   0.287   2.625  0.1626  0.2827  0.1018
   57HFI     C1 1163   1.701   0.340   2.713 -0.1599  0.2975  0.4561
   57HFI     C2 1164   1.762   0.431   2.828  0.1835  0.0033  0.2159
   57HFI     F1 1165   1.851   0.351   2.898  0.4022  0.5384 -0.5173
   57HFI     F2 1166   1.680   0.478   2.919  0.3632 -0.0189 -0.4054
   57HFI     F3 1167   1.841   0.532   2.783 -0.1122  0.1962  0.1536
   57HFI     C3 1168   1.610   0.230   2.773 -0.1947  0.4761  0.4257
   57HFI     F4 1169   1.535   0.169   2.672 -0.8151  0.0376 -0.1698
   57HFI     F5 1170   1.527   0.285   2.862 -0.1936 -0.0091 -0.2598
   57HFI     F6 1171   1.679   0.139   2.844 -0.3030  0.0747 -0.5526
   57HFI     H1 1172   1.888   0.281   2.680 -2.1945 -1.6047  3.4583
   57HFI     H2 1173   1.642   0.399   2.641  0.5420 -0.1924 -0.5376
   58HFI     O1 1174   0.540   0.507   0.995  0.7254 -0.5246  0.0108
   58HFI     C1 1175   0.459   0.399   1.058  0.4470  0.3358 -0.1718
   58HFI     C2 1176   0.419   0.292   0.946 -0.0875  0.3764 -0.3610
   58HFI     F1 1177   0.532   0.234   0.893  0.4001  0.0979  0.1961
   58HFI     F2 1178   0.353   0.349   0.838 -0.5472 -0.1488  0.2402
   58HFI     F3 1179   0.345   0.194   0.985 -0.5209 -0.3585 -0.2756
   58HFI     C3 1180   0.328   0.461   1.122 -0.1847 -0.4073  0.4945
   58HFI     F4 1181   0.363   0.532   1.231  0.4435  0.1132 -0.0186
   58HFI     F5 1182   0.241   0.367   1.160 -0.0974 -0.0662  0.2946
   58HFI     F6 1183   0.266   0.533   1.033  0.3400  0.1475  0.0190
   58HFI     H1 1184   0.494   0.565   0.932  2.1596  1.7391  0.9749
   58HFI     H2 1185   0.521   0.347   1.132  2.2709  0.8769 -1.3041
   59HFI     O1 1186   0.363   2.795   1.233 -0.5508 -0.0391 -0.0648
   59HFI     C1 1187   0.286   2.882   1.314 -0.1785  0.0625  0.7079
   59HFI     C2 1188   0.252   2.823   1.453  0.1312 -0.7916 -0.3343
   59HFI     F1 1189   0.361   2.756   1.506  0.0662 -0.3853  0.2952
   59HFI     F2 1190   0.147   2.736   1.452 -0.3003  0.2216  0.1945
   59HFI     F3 1191   0.215   2.923   1.532  0.0265 -0.4981  0.4529
   59HFI     C3 1192   0.162   2.933   1.239  0.1476 -0.0858 -0.0201
   59HFI     F4 1193   0.087   2.830   1.195 -0.1291 -0.2677  0.0979
   59HFI     F5 1194   0.201   3.001   1.124 -0.9638 -0.0551 -0.2811
   59HFI     F6 1195   0.088   3.020   1.312  0.4379  0.1700  0.3089
   59HFI     H1 1196   0.456   2.794   1.261 -0.1713 -0.8403 -1.3097
   59HFI     H2 1197   0.340   2.975   1.333  0.1830 -0.1288  0.6245
   60HFI     O1 1198   3.163   1.848   2.669 -0.8100  0.2025  0.0146
   60HFI     C1 1199   3.230   1.830   2.798 -0.2629 -0.0629  0.8672
   60HFI     C2 1200   3.160   1.719   2.888  0.0068  0.2723 -0.8031
   60HFI     F1 1201   3.146   1.605   2.818  0.0063  1.0240  0.2869
   60HFI     F2 1202   3.044   1.763   2.933  0.1826  0.1887  0.4943
   60HFI     F3 1203   3.236   1.681   2.993  0.4908 -0.3206  0.4192
   60HFI     C3 1204   3.261   1.959   2.869 -0.7831  0.4398  0.0887
   60HFI     F4 1205   3.337   2.035   2.790  0.5160 -0.0362  0.0476
   60HFI     F5 1206   3.330   1.937   2.986 -0.1934  0.1963 -0.1263
   60HFI     F6 1207   3.151   2.028   2.898 -0.1501 -0.0084 -0.0745
   60HFI     H1 1208   3.085   1.903   2.689 -1.0187 -1.3574  3.6651
   60HFI     H2 1209   3.333   1.796   2.782 -0.2208  1.4101 -2.3606
   61HFI     O1 1210   1.978   1.621   0.308 -0.1837  0.0501  0.1128
   61HFI     C1 1211   2.118   1.651   0.348  0.1807  0.2418  0.3932
   61HFI     C2 1212   2.205   1.532   0.291 -0.8310 -0.3114  0.6993
   61HFI     F1 1213   2.138   1.414   0.314 -0.0180 -0.3070  0.1111
   61HFI     F2 1214   2.321   1.530   0.346 -0.3076  0.0612 -0.1553
   61HFI     F3 1215   2.226   1.547   0.159 -0.1217 -0.1364 -0.0113
   61HFI     C3 1216   2.133   1.692   0.501  0.4671  0.1482  0.4535
   61HFI     F4 1217   2.020   1.760   0.543  0.2810  0.0187  0.2363
   61HFI     F5 1218   2.234   1.782   0.523 -0.0936 -0.3651 -0.0256
   61HFI     F6 1219   2.150   1.582   0.581 -0.0203  0.4027  0.3767
   61HFI     H1 1220   1.926   1.569   0.371 -0.5632  0.4474  0.1308
   61HFI     H2 1221   2.151   1.738   0.290 -2.0367  0.2134 -0.9706
   62HFI     O1 1222   1.002   2.273   1.326  0.3050 -0.0989 -0.3515
   62HFI     C1 1223   1.084   2.284   1.441  0.2950  0.0824 -0.2128
   62HFI     C2 1224   1.071   2.171   1.543  0.6651 -0.2348 -0.3756
   62HFI     F1 1225   1.058   2.052   1.485  0.1020 -0.2262 -0.4131
   62HFI     F2 1226   0.953   2.183   1.617  0.0747 -0.1720 -0.1168
   62HFI     F3 1227   1.176   2.159   1.632 -0.5660  0.8007  0.8842
   62HFI     C3 1228   1.083   2.428   1.505 -0.4299  0.6061 -0.0257
   62HFI     F4 1229   1.139   2.514   1.424 -0.0608  0.5163 -0.4392
   62HFI     F5 1230   1.155   2.435   1.621  0.1832  0.0056  0.1399
   62HFI     F6 1231   0.958   2.472   1.529 -0.1418 -0.2232  0.3346
   62HFI     H1 1232   0.910   2.266   1.355  0.1425 -0.3267 -0.9075
   62HFI     H2 1233   1.190   2.268   1.414  0.5300 -0.9850  1.2777
   63HFI     O1 1234   1.474   2.129   3.747 -0.9717 -0.6121  0.3523
   63HFI     C1 1235   1.421   2.205   3.635  0.0098 -0.0280 -0.6477
   63HFI     C2 1236   1.392   2.101   3.521 -0.4763 -0.1020 -0.2568
   63HFI     F1 1237   1.301   2.016   3.567 -0.3080  0.1590  0.3880
   63HFI     F2 1238   1.503   2.024   3.486  0.7279 -0.3207 -0.2972
   63HFI     F3 1239   1.334   2.151   3.410  0.1531 -0.2253 -0.0465
   63HFI     C3 1240   1.518   2.317   3.582 -0.4621  0.6007  0.4598
   63HFI     F4 1241   1.444   2.402   3.520  0.6562  0.1962  0.0595
   63HFI     F5 1242   1.625   2.282   3.509  0.2898  0.0062  0.0391
   63HFI     F6 1243   1.578   2.376   3.688 -0.4700 -0.0642  0.5061
   63HFI     H1 1244   1.505   2.187   3.819 -0.4681 -0.0947 -0.2821
   63HFI     H2 1245   1.324   2.253   3.657 -0.3538 -0.3491 -1.5441
   64HFI     O1 1246   0.171   1.784   1.148 -0.4655  0.7413 -0.5211
   64HFI     C1 1247   0.265   1.793   1.037  0.1494  0.4470  0.2889
   64HFI     C2 1248   0.248   1.933   0.972  0.5089 -0.2015  0.2579
   64HFI     F1 1249   0.238   2.034   1.061 -0.4424 -0.2011  0.0171
   64HFI     F2 1250   0.138   1.940   0.891  0.0808  0.2797 -0.4464
   64HFI     F3 1251   0.358   1.957   0.896  0.2829 -0.0051  0.1883
   64HFI     C3 1252   0.252   1.672   0.941 -0.4601  0.0875 -0.0980
   64HFI     F4 1253   0.303   1.559   0.997  0.2662 -0.3543  0.0185
   64HFI     F5 1254   0.317   1.687   0.826 -0.3149 -0.0130  0.0435
   64HFI     F6 1255   0.123   1.651   0.912  0.6277  0.8994  0.0315
   64HFI     H1 1256   0.151   1.693   1.178 -0.2985  0.1823 -2.0589
   64HFI     H2 1257   0.370   1.787   1.069  0.0974 -0.3843  0.3050
   65HFI     O1 1258   3.183   2.742   0.087 -0.7436  0.0044  0.3284
   65HFI     C1 1259   3.088   2.818  -0.003 -0.2636 -0.0719  0.3840
   65HFI     C2 1260   2.946   2.803   0.055 -0.1896 -0.0860 -0.0290
   65HFI     F1 1261   2.854   2.848  -0.032  0.2043  0.2535  0.0313
   65HFI     F2 1262   2.931   2.867   0.174 -0.0670  0.4735  0.4792
   65HFI     F3 1263   2.921   2.667   0.083 -0.4633  0.1874  0.2910
   65HFI     C3 1264   3.098   2.776  -0.148 -0.7792  0.6120  0.0774
   65HFI     F4 1265   3.044   2.862  -0.237  0.2377  0.2752  0.8767
   65HFI     F5 1266   3.044   2.651  -0.177 -0.2931 -0.2669 -0.1477
   65HFI     F6 1267   3.220   2.767  -0.185  0.0547  0.0148 -0.6151
   65HFI     H1 1268   3.199   2.653   0.049 -0.2543  0.9693 -1.7966
   65HFI     H2 1269   3.118   2.923   0.006 -0.8811 -0.0208  1.9485
   66HFI     O1 1270   0.370   2.759   3.717  0.4875  0.5449 -0.1813
   66HFI     C1 1271   0.328   2.865   3.807 -0.5966  0.1128  0.8828
   66HFI     C2 1272   0.181   2.903   3.789 -0.4108  0.0554 -0.5310
   66HFI     F1 1273   0.137   2.995   3.879  0.0188  0.4967  0.2888
   66HFI     F2 1274   0.097   2.794   3.808 -0.6605  0.5027 -0.1294
   66HFI     F3 1275   0.159   2.960   3.671  0.4296  0.1746  0.0643
   66HFI     C3 1276   0.434   2.988   3.802 -0.0028  0.5774  0.2550
   66HFI     F4 1277   0.442   3.045   3.677  0.7061 -0.0158 -0.2477
   66HFI     F5 1278   0.563   2.942   3.830  0.0566  0.5598  0.0293
   66HFI     F6 1279   0.403   3.095   3.881 -0.1950  0.0350  0.1171
   66HFI     H1 1280   0.318   2.764   3.635 -0.5868 -1.2049  0.3645
   66HFI     H2 1281   0.350   2.826   3.907 -1.2930 -1.5575  0.4008
   67HFI     O1 1282   1.455   0.918   2.823 -0.0595 -0.4144 -0.1631
   67HFI     C1 1283   1.547   0.943   2.710  0.3563  0.2511 -0.0808
   67HFI     C2 1284   1.545   0.829   2.603  0.8933  0.1804 -0.0567
   67HFI     F1 1285   1.421   0.801   2.557  0.0368 -0.2234 -0.0430
   67HFI     F2 1286   1.592   0.714   2.656  0.4606 -0.7210 -0.4559
   67HFI     F3 1287   1.622   0.869   2.504  0.6537  0.4115  0.2066
   67HFI     C3 1288   1.694   0.976   2.764 -1.1611  0.1951 -0.6235
   67HFI     F4 1289   1.757   0.872   2.821 -0.0355 -0.1490 -0.1681
   67HFI     F5 1290   1.673   1.066   2.862  0.2976  0.2646  0.3742
   67HFI     F6 1291   1.769   1.035   2.669  0.1349  0.5592  0.1595
   67HFI     H1 1292   1.426   0.997   2.872 -2.6006 -2.0598  1.1183
   67HFI     H2 1293   1.520   1.035   2.658 -2.5638  0.2391  1.2850
   68HFI     O1 1294   3.236   0.018   3.771 -0.7061  0.2008  0.2484
   68HFI     C1 1295   3.179  -0.084   3.858 -1.4159 -0.2609 -0.6180
   68HFI     C2 1296   3.289  -0.135   3.959  0.2228 -0.3134  0.6907
   68HFI     F1 1297   3.405  -0.169   3.895  0.3582  0.0251  0.5176
   68HFI     F2 1298   3.245  -0.246   4.026  0.0732 -0.2746 -0.6356
   68HFI     F3 1299   3.320  -0.041   4.045 -0.2321 -0.1214 -0.5148
   68HFI     C3 1300   3.130  -0.206   3.773  0.4361  0.1156 -0.4351
   68HFI     F4 1301   3.049  -0.285   3.851  0.1836  0.3161 -0.3012
   68HFI     F5 1302   3.228  -0.285   3.725 -0.7597  0.0487  0.1112
   68HFI     F6 1303   3.060  -0.161   3.663  0.2374  0.1542 -0.1379
   68HFI     H1 1304   3.330  -0.002   3.757 -0.2656  1.5176  1.1818
   68HFI     H2 1305   3.100  -0.046   3.924 -2.2479 -0.3088 -1.5875
   69HFI     O1 1306   0.528   1.042   3.132  0.0649 -0.6555 -0.2319
   69HFI     C1 1307   0.603   1.102   3.241  0.5320 -0.4367 -0.8922
   69HFI     C2 1308   0.753   1.059   3.214  0.4090  0.1716 -0.6191
   69HFI     F1 1309   0.841   1.136   3.295 -0.1024  0.4731 -0.1321
   69HFI     F2 1310   0.785   1.069   3.085  0.6346  0.5402 -0.4384
   69HFI     F3 1311   0.777   0.926   3.249 -0.1616 -0.2072 -0.1013
   69HFI     C3 1312   0.553   1.095   3.389  0.0420  0.0453  0.0954
   69HFI     F4 1313   0.426   1.141   3.390  0.0975  0.2081 -0.1606
   69HFI     F5 1314   0.626   1.159   3.479 -0.4592  0.3240  0.0944
   69HFI     F6 1315   0.539   0.961   3.427  0.3031 -0.4181 -0.5393
   69HFI     H1 1316   0.501   0.956   3.169 -0.7295 -0.0186  0.6972
   69HFI     H2 1317   0.610   1.209   3.218 -0.8820 -0.2840 -0.6807
   70HFI     O1 1318   1.851   2.580   0.405  0.4763  0.0798 -0.6568
   70HFI     C1 1319   1.852   2.489   0.289  0.2309 -0.2387  0.2925
   70HFI     C2 1320   1.867   2.556   0.158  0.4701  0.4051  0.4574
   70HFI     F1 1321   1.776   2.653   0.136  0.4622  0.4051 -0.2085
   70HFI     F2 1322   1.875   2.480   0.051  0.2914 -0.8295 -0.2244
   70HFI     F3 1323   1.990   2.622   0.162  0.0449 -0.4900  0.3190
   70HFI     C3 1324   1.730   2.396   0.297 -0.2728  0.3727 -0.1536
   70HFI     F4 1325   1.628   2.453   0.245 -0.0769  0.0089  0.3590
   70HFI     F5 1326   1.696   2.367   0.424  0.7561 -0.4908  0.0909
   70HFI     F6 1327   1.744   2.283   0.224  0.2258  0.1794  0.0535
   70HFI     H1 1328   1.865   2.674   0.386  1.8182  0.1443  0.6008
   70HFI     H2 1329   1.938   2.422   0.291  0.5555  0.0654 -1.9365
   71HFI     O1 1330   2.096   0.304   0.471  0.1056  0.2800 -0.4366
   71HFI     C1 1331   2.210   0.290   0.387  1.0079  0.2878  0.0233
   71HFI     C2 1332   2.344   0.324   0.459 -0.4979 -0.0196 -0.4676
   71HFI     F1 1333   2.364   0.462   0.471  0.1925  0.3754  0.3368
   71HFI     F2 1334   2.453   0.280   0.392  0.5878  0.4273 -0.3648
   71HFI     F3 1335   2.342   0.275   0.592 -0.2249 -0.1956  0.8155
   71HFI     C3 1336   2.193   0.370   0.252  0.9043 -0.7398  0.5170
   71HFI     F4 1337   2.308   0.386   0.180 -0.5408  0.2472  0.2340
   71HFI     F5 1338   2.134   0.486   0.263  0.0195  0.4816 -0.2251
   71HFI     F6 1339   2.112   0.303   0.173  0.5196  0.4019  0.1672
   71HFI     H1 1340   2.071   0.398   0.477 -2.5711 -0.3477 -0.9138
   71HFI     H2 1341   2.218   0.183   0.362 -2.9436 -0.1236  0.1166
   72HFI     O1 1342   2.337   1.832   1.461 -0.4235  0.3536  0.1467
   72HFI     C1 1343   2.367   1.695   1.520 -0.1159  0.1052  0.1406
   72HFI     C2 1344   2.520   1.666   1.520 -0.2323 -0.0319  0.9065
   72HFI     F1 1345   2.578   1.756   1.591 -0.2094 -0.1543  0.7210
   72HFI     F2 1346   2.569   1.673   1.388 -0.4585 -0.2176 -0.1213
   72HFI     F3 1347   2.560   1.546   1.564  0.4313 -0.3209 -0.3119
   72HFI     C3 1348   2.288   1.588   1.450 -0.5735  0.0258  0.7821
   72HFI     F4 1349   2.155   1.624   1.426 -0.5074 -0.3955 -0.0097
   72HFI     F5 1350   2.291   1.470   1.518  0.3149 -0.1479 -0.5384
   72HFI     F6 1351   2.343   1.565   1.319  0.2137  0.2882 -0.2108
   72HFI     H1 1352   2.419   1.883   1.473 -1.0780  1.2349  0.9656
   72HFI     H2 1353   2.330   1.699   1.623 -0.0816 -2.9700  0.3079
   73HFI     O1 1354   2.011   0.945   3.201  0.3668  0.3220  0.2165
   73HFI     C1 1355   1.909   0.847   3.170 -0.0545  0.4378  0.4176
   73HFI     C2 1356   1.838   0.795   3.294 -0.2395 -0.0065  0.4472
   73HFI     F1 1357   1.822   0.893   3.386 -0.3979 -0.2311  0.3761
   73HFI     F2 1358   1.902   0.691   3.357 -0.5260 -0.5075  0.3068
   73HFI     F3 1359   1.714   0.748   3.257  0.2360  0.2492 -0.4212
   73HFI     C3 1360   1.956   0.736   3.072  0.0715  0.0144  0.2834
   73HFI     F4 1361   2.079   0.705   3.104  0.0001  0.3164 -0.1245
   73HFI     F5 1362   1.953   0.772   2.946 -0.1580  0.4311  0.0905
   73HFI     F6 1363   1.887   0.626   3.080 -0.2401  0.1682 -0.3673
   73HFI     H1 1364   2.076   0.930   3.131 -0.3433  0.7750 -0.5423
   73HFI     H2 1365   1.828   0.906   3.127  1.2796  3.3380  1.7622
   74HFI     O1 1366   2.877   0.476   2.855 -0.1540  0.2387 -0.0837
   74HFI     C1 1367   2.902   0.617   2.836  0.5447  0.0487  0.5128
   74HFI     C2 1368   2.966   0.684   2.959 -0.1279 -0.7201  0.2535
   74HFI     F1 1369   2.881   0.709   3.064  0.4414  0.1782 -0.5226
   74HFI     F2 1370   3.023   0.799   2.920 -0.2728 -0.2116 -0.3654
   74HFI     F3 1371   3.065   0.602   3.002  0.3337 -0.0655  0.1994
   74HFI     C3 1372   2.772   0.679   2.786 -0.8456 -0.0025  0.1297
   74HFI     F4 1373   2.678   0.680   2.878 -0.4326  0.1225 -0.0850
   74HFI     F5 1374   2.718   0.622   2.675  0.7133  0.2746 -0.0097
   74HFI     F6 1375   2.795   0.806   2.752 -0.1059  0.6478  0.3862
   74HFI     H1 1376   2.864   0.459   2.950 -0.0592  3.2797  0.5169
   74HFI     H2 1377   2.973   0.623   2.753 -0.6495  0.8206 -0.4747
   75HFI     O1 1378   0.290   0.714   1.518 -0.6348  0.3582  0.3040
   75HFI     C1 1379   0.250   0.853   1.476 -0.1972  0.6002 -0.1802
   75HFI     C2 1380   0.189   0.865   1.332  0.1697  0.1966 -0.0544
   75HFI     F1 1381   0.152   0.992   1.306  0.0527 -0.3108 -0.3193
   75HFI     F2 1382   0.083   0.790   1.315  0.0136  0.3996 -0.5009
   75HFI     F3 1383   0.280   0.837   1.237  0.0290 -0.7530  0.0299
   75HFI     C3 1384   0.366   0.948   1.498 -0.6973 -0.1461 -0.3740
   75HFI     F4 1385   0.469   0.936   1.407  0.3017 -0.0355 -0.1355
   75HFI     F5 1386   0.412   0.927   1.622 -0.4765 -0.7627  0.3793
   75HFI     F6 1387   0.322   1.077   1.497 -0.0890  0.1009 -0.2741
   75HFI     H1 1388   0.368   0.685   1.467 -1.1068  0.5355 -0.5277
   75HFI     H2 1389   0.170   0.888   1.543  0.9309  1.1563  0.9073
   76HFI     O1 1390   0.917   3.215   1.431 -0.2978 -0.6019  0.1834
   76HFI     C1 1391   0.881   3.330   1.512 -0.4827  0.3536  0.1136
   76HFI     C2 1392   0.749   3.395   1.467 -0.6363  0.4288 -0.0910
   76HFI     F1 1393   0.766   3.472   1.360 -0.2732  0.3865  0.6229
   76HFI     F2 1394   0.696   3.479   1.555 -0.8738  0.4612 -0.9042
   76HFI     F3 1395   0.663   3.301   1.443  0.3623 -0.0614 -0.3087
   76HFI     C3 1396   0.998   3.429   1.527  0.1001  0.4821  0.1107
   76HFI     F4 1397   1.047   3.463   1.414 -0.4346 -0.2054 -0.1163
   76HFI     F5 1398   1.098   3.381   1.605 -0.2613  0.0350  0.3964
   76HFI     F6 1399   0.955   3.539   1.590 -0.3834  0.0066 -0.3325
   76HFI     H1 1400   1.004   3.229   1.390 -0.4523 -1.3907 -0.4402
   76HFI     H2 1401   0.866   3.292   1.614  0.1893  0.1127  0.1220
   77HFI     O1 1402   2.507   2.026   3.350  0.0363  0.6897 -0.0607
   77HFI     C1 1403   2.444   2.076   3.233 -0.3185 -0.0657 -0.6646
   77HFI     C2 1404   2.317   1.980   3.194 -0.3076 -0.5749 -0.4381
   77HFI     F1 1405   2.357   1.851   3.171 -0.1851  0.1501 -0.2280
   77HFI     F2 1406   2.259   2.025   3.079 -0.0833 -0.5923  0.2105
   77HFI     F3 1407   2.225   1.980   3.294  0.1470 -0.0626 -0.5646
   77HFI     C3 1408   2.537   2.101   3.118 -0.4650 -0.0027  0.0502
   77HFI     F4 1409   2.570   1.989   3.048 -0.7367  0.0664  0.5194
   77HFI     F5 1410   2.647   2.164   3.161  0.1356  0.0554 -0.4211
   77HFI     F6 1411   2.476   2.192   3.042  0.3246 -0.0172  0.2834
   77HFI     H1 1412   2.577   2.086   3.380  2.3706 -2.4485  1.1396
   77HFI     H2 1413   2.403   2.173   3.263 -0.3735 -0.1796 -0.3663
   78HFI     O1 1414   2.115   3.316   1.172 -0.3193 -0.1131 -0.3486
   78HFI     C1 1415   2.077   3.171   1.164  0.4584 -0.4055  0.0122
   78HFI     C2 1416   2.209   3.079   1.147 -0.2938 -0.3924 -0.0088
   78HFI     F1 1417   2.188   2.950   1.157  0.3925  0.1268  0.0997
   78HFI     F2 1418   2.297   3.105   1.241 -0.2761 -0.0682  0.1347
   78HFI     F3 1419   2.263   3.110   1.029 -0.6355  0.3712 -0.2650
   78HFI     C3 1420   1.961   3.141   1.059 -0.2586  0.4018 -0.6832
   78HFI     F4 1421   1.924   3.009   1.058  0.4468 -0.0433 -0.3611
   78HFI     F5 1422   2.003   3.181   0.936  0.2051  0.4630  0.0664
   78HFI     F6 1423   1.848   3.222   1.088  0.0431  0.9251  0.1067
   78HFI     H1 1424   2.132   3.335   1.078 -1.7969  0.2357 -0.5650
   78HFI     H2 1425   2.041   3.146   1.265  1.3461 -1.4405  0.0739
   79HFI     O1 1426   0.080   1.578   3.198 -0.1620  0.2858  0.2442
   79HFI     C1 1427  -0.024   1.517   3.279  0.1531 -0.6053 -0.5951
   79HFI     C2 1428  -0.070   1.601   3.399  0.4702 -0.4925 -0.2360
   79HFI     F1 1429  -0.169   1.541   3.471  0.1002 -0.0452 -0.1604
   79HFI     F2 1430  -0.119   1.717   3.367  0.3345  0.0557  0.6842
   79HFI     F3 1431   0.031   1.623   3.488  0.2668  0.2040  0.0493
   79HFI     C3 1432   0.026   1.378   3.329  0.4438  0.0104  0.0690
   79HFI     F4 1433   0.061   1.303   3.226  0.3789 -0.4612 -0.2954
   79HFI     F5 1434  -0.076   1.311   3.397 -0.3968 -0.7948 -0.1627
   79HFI     F6 1435   0.136   1.387   3.407  0.0497 -0.2432 -0.1226
   79HFI     H1 1436   0.160   1.526   3.179  0.3608  1.5500 -1.2053
   79HFI     H2 1437  -0.112   1.499   3.216 -1.2392  0.9662  0.8476
   80HFI     O1 1438   2.605   2.271   1.375  0.5347  0.1596  0.2065
   80HFI     C1 1439   2.733   2.203   1.390 -0.0995  0.2835  0.6463
   80HFI     C2 1440   2.718   2.089   1.290 -0.3031 -0.0614 -0.4424
   80HFI     F1 1441   2.837   2.019   1.284  0.0311 -0.2045  0.0837
   80HFI     F2 1442   2.689   2.139   1.168 -0.2306  0.2889  0.0598
   80HFI     F3 1443   2.628   1.999   1.328  0.0667 -0.1569  0.1019
   80HFI     C3 1444   2.769   2.160   1.537  0.0417  0.7193  0.2565
   80HFI     F4 1445   2.778   2.268   1.614 -0.2800  0.4851 -0.0007
   80HFI     F5 1446   2.890   2.097   1.543 -0.1594 -0.4577  0.5658
   80HFI     F6 1447   2.673   2.082   1.588 -0.3332  0.0692  0.4500
   80HFI     H1 1448   2.536   2.213   1.411 -0.8158  1.4176 -0.3065
   80HFI     H2 1449   2.805   2.275   1.349 -1.8403  1.2441 -0.8489
   81HFI     O1 1450   3.391   2.405   0.040 -0.0091  0.1402  0.0465
   81HFI     C1 1451   3.312   2.282   0.032 -0.1585  0.2537  0.2979
   81HFI     C2 1452   3.380   2.178  -0.054  0.0270 -0.1394 -0.4320
   81HFI     F1 1453   3.307   2.073  -0.078  0.6050 -0.2478 -0.1916
   81HFI     F2 1454   3.492   2.137   0.013  0.2369  0.0541  0.0115
   81HFI     F3 1455   3.419   2.237  -0.170 -0.2863  0.4982 -0.3524
   81HFI     C3 1456   3.169   2.322  -0.029  0.4017  1.0612  0.1920
   81HFI     F4 1457   3.120   2.425   0.044 -0.2117 -0.3305 -0.1008
   81HFI     F5 1458   3.080   2.218  -0.015  0.4420  0.4024  0.2177
   81HFI     F6 1459   3.172   2.355  -0.157 -0.0717  0.2511 -0.0088
   81HFI     H1 1460   3.470   2.385   0.093  0.8523  1.6640 -0.6322
   81HFI     H2 1461   3.283   2.243   0.130 -0.0201 -0.9232 -0.1278
   82HFI     O1 1462   1.085   2.107   1.058  0.2260 -0.4368 -0.3024
   82HFI     C1 1463   1.151   1.984   1.009  0.1466 -0.2700  0.4200
   82HFI     C2 1464   1.144   1.859   1.100 -0.5283 -0.3002 -0.4948
   82HFI     F1 1465   1.008   1.815   1.096  0.2559  0.1207  0.2450
   82HFI     F2 1466   1.169   1.897   1.225 -0.3162 -0.4393  0.2354
   82HFI     F3 1467   1.227   1.753   1.072  0.2122 -0.1348 -0.1767
   82HFI     C3 1468   1.295   2.009   0.962 -0.0173 -0.3206 -0.3822
   82HFI     F4 1469   1.317   2.126   0.903 -0.2713 -0.5304 -0.2036
   82HFI     F5 1470   1.328   1.915   0.872  0.0910 -0.1026 -0.0069
   82HFI     F6 1471   1.374   2.003   1.071  0.1954  0.2830  0.4267
   82HFI     H1 1472   1.101   2.129   1.152 -1.1590 -0.0288 -0.1564
   82HFI     H2 1473   1.103   1.958   0.914 -1.8015 -0.1560  1.3428
   83HFI     O1 1474   1.934   1.310   1.272  0.5037  0.0367 -0.1479
   83HFI     C1 1475   1.898   1.227   1.389 -0.4141  0.4187 -0.3421
   83HFI     C2 1476   1.749   1.234   1.439  0.2974  0.6433 -0.1020
   83HFI     F1 1477   1.722   1.344   1.505  0.0519  0.0469  0.0079
   83HFI     F2 1478   1.730   1.136   1.519  0.9719 -0.2956 -0.6295
   83HFI     F3 1479   1.660   1.230   1.333 -0.6377  0.3130  0.0548
   83HFI     C3 1480   2.006   1.249   1.502 -0.5124  0.2980  0.0896
   83HFI     F4 1481   2.129   1.240   1.449  0.2828  0.0016  0.0168
   83HFI     F5 1482   1.980   1.162   1.602 -0.1678  0.0988 -0.5487
   83HFI     F6 1483   2.002   1.374   1.559 -0.4940 -0.1976 -0.1139
   83HFI     H1 1484   2.029   1.333   1.280  1.0296 -1.3558 -2.0177
   83HFI     H2 1485   1.914   1.126   1.351 -0.0421 -0.3856  1.8760
   84HFI     O1 1486   0.969   0.548   0.395 -0.0701  0.3997  1.2742
   84HFI     C1 1487   0.990   0.592   0.258 -0.9526 -0.6743 -0.3956
   84HFI     C2 1488   0.841   0.573   0.196  0.2921 -0.4242 -0.3098
   84HFI     F1 1489   0.836   0.572   0.069 -0.8197  0.2699  0.3873
   84HFI     F2 1490   0.743   0.662   0.247  0.0633  0.0060 -0.0418
   84HFI     F3 1491   0.788   0.450   0.232  0.6268 -0.5797 -0.0949
   84HFI     C3 1492   1.109   0.525   0.186  0.5953 -0.4872  0.3351
   84HFI     F4 1493   1.119   0.563   0.055 -0.9138  0.5371  0.1321
   84HFI     F5 1494   1.104   0.388   0.198  0.2303 -0.3371  0.2894
   84HFI     F6 1495   1.223   0.562   0.242 -0.0028  0.3455 -0.4412
   84HFI     H1 1496   0.892   0.490   0.399  0.8709 -0.9431  0.4896
   84HFI     H2 1497   1.007   0.700   0.262 -1.3298 -0.6592  1.0742
   85HFI     O1 1498   2.031   2.756   0.924 -0.7887 -0.8065 -0.0612
   85HFI     C1 1499   1.928   2.650   0.902  0.4796  0.0196  0.1038
   85HFI     C2 1500   1.969   2.519   0.973 -0.0585  0.2176 -0.5587
   85HFI     F1 1501   1.870   2.427   0.976  0.0561 -0.3047  0.3310
   85HFI     F2 1502   2.009   2.552   1.095  0.2168  0.2904 -0.3289
   85HFI     F3 1503   2.071   2.462   0.914 -0.2202 -0.0405  0.3139
   85HFI     C3 1504   1.895   2.625   0.743  0.2733  0.2335 -0.6124
   85HFI     F4 1505   2.008   2.639   0.670 -0.1369 -0.9259  0.2777
   85HFI     F5 1506   1.808   2.722   0.705 -0.2454  0.2869 -0.2259
   85HFI     F6 1507   1.842   2.500   0.716  0.1571 -0.5598 -0.3371
   85HFI     H1 1508   2.112   2.708   0.947  1.3465  1.7217 -1.9568
   85HFI     H2 1509   1.829   2.681   0.938 -0.4612 -0.3808 -2.0582
   86HFI     O1 1510   2.760   2.760   1.277  1.0660 -0.1396  0.2569
   86HFI     C1 1511   2.654   2.692   1.358 -0.3072 -0.2525 -0.5987
   86HFI     C2 1512   2.520   2.767   1.353 -0.1335 -0.8580  0.1826
   86HFI     F1 1513   2.475   2.770   1.236 -0.0319 -0.2327  0.3194
   86HFI     F2 1514   2.540   2.896   1.396 -0.8194  0.4478 -0.3073
   86HFI     F3 1515   2.426   2.717   1.430 -0.3543  0.4536 -0.2827
   86HFI     C3 1516   2.701   2.654   1.508 -0.0171  0.5551 -0.9865
   86HFI     F4 1517   2.706   2.760   1.586  0.6976 -0.3329 -0.1832
   86HFI     F5 1518   2.820   2.586   1.517 -0.2127  0.6481 -0.0051
   86HFI     F6 1519   2.607   2.570   1.569  0.1496  0.2215  0.1254
   86HFI     H1 1520   2.817   2.805   1.341  0.4158  2.4325 -0.8993
   86HFI     H2 1521   2.624   2.595   1.316 -0.1162 -1.5133  2.0889
   87HFI     O1 1522   2.244   1.354   3.462 -0.2141 -0.1123  0.1358
   87HFI     C1 1523   2.207   1.496   3.463  0.5189 -0.8492  0.4354
   87HFI     C2 1524   2.255   1.576   3.337  0.3617  0.2196 -0.7510
   87HFI     F1 1525   2.223   1.505   3.227  0.2094 -0.3211 -0.7888
   87HFI     F2 1526   2.387   1.604   3.327 -0.3064 -0.0998 -0.1409
   87HFI     F3 1527   2.183   1.691   3.339  0.3455 -0.0647 -0.4200
   87HFI     C3 1528   2.236   1.566   3.604  0.8206 -0.1234  0.2392
   87HFI     F4 1529   2.162   1.521   3.707 -0.0436  0.9227  0.5863
   87HFI     F5 1530   2.227   1.702   3.605  0.0217  0.5479 -0.3436
   87HFI     F6 1531   2.366   1.536   3.640 -0.3509 -0.4517 -0.1365
   87HFI     H1 1532   2.324   1.344   3.517 -0.3678  1.7346  0.7566
   87HFI     H2 1533   2.099   1.504   3.445  1.0137  2.5099 -1.4591
   88HFI     O1 1534   1.290   2.122   0.569 -0.2200  0.5809 -0.6840
   88HFI     C1 1535   1.249   2.016   0.488  0.1929  0.4141 -0.1337
   88HFI     C2 1536   1.292   2.034   0.337  0.3138  0.1085  0.6555
   88HFI     F1 1537   1.400   2.113   0.339 -0.4903 -0.4012  0.3460
   88HFI     F2 1538   1.194   2.091   0.260 -0.5480 -0.2462  0.6132
   88HFI     F3 1539   1.323   1.915   0.277 -0.1410  0.0510 -0.2528
   88HFI     C3 1540   1.095   1.993   0.503  0.2645 -0.1992  0.4607
   88HFI     F4 1541   1.060   1.894   0.421 -1.0494 -0.0533 -0.4590
   88HFI     F5 1542   1.020   2.100   0.489  0.5748  0.5715 -0.0466
   88HFI     F6 1543   1.077   1.943   0.625  0.2608 -0.1355 -0.2871
   88HFI     H1 1544   1.386   2.121   0.551 -0.1929  0.5856 -0.5368
   88HFI     H2 1545   1.300   1.926   0.525  0.0702 -1.0303 -3.3179
   89HFI     O1 1546   0.659   1.261   3.771  0.3497  0.2656 -0.1672
   89HFI     C1 1547   0.647   1.131   3.833 -0.5684 -0.7084  0.3289
   89HFI     C2 1548   0.767   1.044   3.814  0.1525  0.0363 -0.1262
   89HFI     F1 1549   0.785   1.029   3.685 -0.2082 -0.4230  0.3101
   89HFI     F2 1550   0.759   0.921   3.874  0.8521 -0.1826 -0.6581
   89HFI     F3 1551   0.878   1.103   3.862  0.1714 -0.3388  0.1510
   89HFI     C3 1552   0.517   1.063   3.796  0.6032 -0.1345  0.2812
   89HFI     F4 1553   0.422   1.160   3.772 -0.4853 -0.2079  0.3765
   89HFI     F5 1554   0.475   0.995   3.907 -0.1431 -0.4426 -0.5032
   89HFI     F6 1555   0.526   0.976   3.694 -0.8094  0.1601  0.0989
   89HFI     H1 1556   0.662   1.265   3.674  1.5637 -2.2312 -0.2698
   89HFI     H2 1557   0.644   1.149   3.941  1.4620 -1.4461  0.5288
   90HFI     O1 1558   3.029   2.313   0.353  0.2917 -0.5229  0.4474
   90HFI     C1 1559   2.993   2.458   0.357 -0.1324 -0.7622  0.1695
   90HFI     C2 1560   3.118   2.537   0.417  0.4034  0.2827 -0.1945
   90HFI     F1 1561   3.102   2.670   0.395 -0.3017 -0.3727 -0.5071
   90HFI     F2 1562   3.231   2.502   0.347 -0.0359 -0.0167 -0.3332
   90HFI     F3 1563   3.153   2.515   0.544  0.4607  0.3652 -0.1364
   90HFI     C3 1564   2.862   2.490   0.433 -0.3606  0.4041 -0.1238
   90HFI     F4 1565   2.842   2.620   0.444 -0.2803 -0.1700 -0.0859
   90HFI     F5 1566   2.856   2.437   0.556  0.4569 -0.7140 -0.0945
   90HFI     F6 1567   2.761   2.433   0.359  0.6211 -0.1623  0.1662
   90HFI     H1 1568   2.987   2.273   0.431 -2.7040 -0.4500 -1.0504
   90HFI     H2 1569   2.986   2.490   0.253  0.8964 -0.1260  0.2874
   91HFI     O1 1570   2.027   0.686   2.488 -0.1840  0.0711  0.3276
   91HFI     C1 1571   1.996   0.567   2.416  0.1334 -0.6846  0.1109
   91HFI     C2 1572   2.102   0.446   2.449  0.0845 -0.1060 -0.1093
   91HFI     F1 1573   2.237   0.479   2.452 -0.3697 -0.6441 -0.1353
   91HFI     F2 1574   2.087   0.352   2.357  0.0499  0.1689 -0.0414
   91HFI     F3 1575   2.080   0.391   2.574  0.1870  0.3473 -0.5292
   91HFI     C3 1576   1.986   0.593   2.265 -0.2957 -0.5006  0.4338
   91HFI     F4 1577   1.929   0.489   2.195 -0.6355  1.0261 -0.3659
   91HFI     F5 1578   2.109   0.609   2.219 -0.2271  0.6310  0.5297
   91HFI     F6 1579   1.913   0.699   2.239 -0.1194  0.1581 -0.1726
   91HFI     H1 1580   2.119   0.710   2.467 -0.3283  1.3654  1.0737
   91HFI     H2 1581   1.900   0.522   2.443 -1.1347  0.8732 -1.7124
   92HFI     O1 1582   1.477   0.590   1.416 -0.5610  0.4283  0.0079
   92HFI     C1 1583   1.428   0.462   1.367  0.4489  0.5175 -0.1221
   92HFI     C2 1584   1.314   0.475   1.258 -0.1544 -0.2972  0.1693
   92HFI     F1 1585   1.333   0.585   1.184 -0.2264 -0.5396 -0.0772
   92HFI     F2 1586   1.188   0.490   1.316 -0.0514  0.2294  0.5234
   92HFI     F3 1587   1.309   0.378   1.171 -0.0243  0.5364  0.4643
   92HFI     C3 1588   1.396   0.355   1.482 -0.2588 -0.5750  0.4913
   92HFI     F4 1589   1.342   0.243   1.420  0.0015 -0.1445  0.4581
   92HFI     F5 1590   1.316   0.397   1.579 -0.0535 -0.2693 -0.1604
   92HFI     F6 1591   1.516   0.309   1.538  0.8369  0.5831  0.0066
   92HFI     H1 1592   1.468   0.610   1.511  1.5866  1.2331  0.0587
   92HFI     H2 1593   1.511   0.413   1.314 -1.4688 -2.8628 -0.1480
   93HFI     O1 1594   2.700   2.036   0.884 -0.0832 -0.2614  0.4413
   93HFI     C1 1595   2.595   2.035   0.781  0.2555  0.5775  0.2082
   93HFI     C2 1596   2.662   2.062   0.640  0.1811  0.2221  0.4117
   93HFI     F1 1597   2.723   2.183   0.652  0.1588  0.6446  0.1164
   93HFI     F2 1598   2.566   2.074   0.540 -0.1874 -0.6409 -0.1624
   93HFI     F3 1599   2.758   1.974   0.601 -0.2363 -0.0845  0.0721
   93HFI     C3 1600   2.477   2.134   0.817 -0.1222 -0.3354  0.6307
   93HFI     F4 1601   2.488   2.261   0.768 -0.6286  0.2581  0.2399
   93HFI     F5 1602   2.454   2.134   0.946 -0.3710 -0.0474  0.1344
   93HFI     F6 1603   2.359   2.082   0.773  0.2207  0.7176  0.3790
   93HFI     H1 1604   2.770   2.098   0.860 -2.9328  2.8692 -0.2557
   93HFI     H2 1605   2.558   1.932   0.774  0.5195  0.4821  0.2073
   94HFI     O1 1606   0.612   1.542   0.292 -0.0712  0.1278  0.1760
   94HFI     C1 1607   0.739   1.474   0.281 -0.6666 -0.2155 -0.1501
   94HFI     C2 1608   0.762   1.363   0.387  0.3619  0.1539  0.1454
   94HFI     F1 1609   0.828   1.406   0.496  0.0378  0.5628 -0.2949
   94HFI     F2 1610   0.847   1.268   0.335 -0.6586 -0.1876 -0.2442
   94HFI     F3 1611   0.649   1.299   0.424  0.7042  0.2772 -0.3582
   94HFI     C3 1612   0.862   1.568   0.260 -0.5710  0.1223 -0.0100
   94HFI     F4 1613   0.967   1.497   0.289  0.3672  0.2543  0.3740
   94HFI     F5 1614   0.864   1.678   0.344 -0.2933  0.3686  0.2280
   94HFI     F6 1615   0.858   1.610   0.126  0.0152  0.2838  0.2586
   94HFI     H1 1616   0.629   1.623   0.343  0.9199 -0.0398  0.1309
   94HFI     H2 1617   0.735   1.421   0.185  1.3027  0.4884 -0.6345
   95HFI     O1 1618   2.782   0.418   3.129 -0.0134  0.5246  0.5587
   95HFI     C1 1619   2.794   0.475   3.259 -0.5846 -0.9177 -0.2365
   95HFI     C2 1620   2.894   0.387   3.347 -0.0783 -0.1200  0.0221
   95HFI     F1 1621   2.820   0.304   3.427 -0.0185 -0.3712  0.1462
   95HFI     F2 1622   2.970   0.466   3.417  0.1801  0.1419 -0.6666
   95HFI     F3 1623   2.968   0.305   3.275  0.0472  0.2379 -0.0506
   95HFI     C3 1624   2.658   0.505   3.316  0.2179 -0.5653  0.1222
   95HFI     F4 1625   2.570   0.395   3.302 -0.3240  0.2439 -0.3918
   95HFI     F5 1626   2.602   0.608   3.257  0.0128 -0.4780  0.8564
   95HFI     F6 1627   2.674   0.535   3.444 -0.2184 -0.0348  0.4299
   95HFI     H1 1628   2.792   0.322   3.136 -0.0396  0.5263  0.6178
   95HFI     H2 1629   2.833   0.577   3.248 -1.3064 -0.3629  2.0202
   96HFI     O1 1630   0.331   1.577   3.539 -0.5007  0.1111 -0.2364
   96HFI     C1 1631   0.413   1.684   3.602 -0.2024 -0.6443  0.7033
   96HFI     C2 1632   0.524   1.628   3.691 -0.0276 -0.0732 -0.1533
   96HFI     F1 1633   0.608   1.722   3.733 -0.5743  0.3284  0.3554
   96HFI     F2 1634   0.595   1.537   3.630 -0.2577 -0.1195  0.3828
   96HFI     F3 1635   0.484   1.561   3.799  0.7489 -0.3202  0.0672
   96HFI     C3 1636   0.328   1.797   3.653 -0.4272 -0.5083 -0.2846
   96HFI     F4 1637   0.407   1.899   3.698  0.2067  0.1162  0.0376
   96HFI     F5 1638   0.247   1.747   3.743  0.1159  0.1974  0.1728
   96HFI     F6 1639   0.248   1.847   3.556  0.2327  0.1191 -0.1839
   96HFI     H1 1640   0.235   1.580   3.558 -0.5769  1.8142 -0.7867
   96HFI     H2 1641   0.486   1.723   3.531 -0.2091 -0.0335  1.0289
   97HFI     O1 1642   2.365   2.147   1.330  0.1396  0.0088  0.0289
   97HFI     C1 1643   2.250   2.223   1.394  0.0172  0.3480 -0.0197
   97HFI     C2 1644   2.205   2.346   1.313 -0.6998 -0.2230  0.1023
   97HFI     F1 1645   2.162   2.305   1.190 -0.5962  0.6407 -0.6324
   97HFI     F2 1646   2.307   2.427   1.293  0.0713  0.2463 -0.4512
   97HFI     F3 1647   2.107   2.426   1.364 -0.1294  0.5728  0.3167
   97HFI     C3 1648   2.272   2.247   1.542 -0.3547  0.0056  0.0829
   97HFI     F4 1649   2.159   2.282   1.609  0.4151  0.5133 -0.5004
   97HFI     F5 1650   2.371   2.333   1.577  0.0918 -0.5603  0.3076
   97HFI     F6 1651   2.315   2.128   1.602 -0.5716  0.0922 -0.5158
   97HFI     H1 1652   2.371   2.169   1.236  1.9699 -0.5025  0.0076
   97HFI     H2 1653   2.156   2.166   1.389  0.3998 -0.2596 -0.3320
   98HFI     O1 1654   1.689   1.221   0.451 -0.4162 -0.2667  0.4726
   98HFI     C1 1655   1.729   1.283   0.584  0.2586 -0.4539 -0.8572
   98HFI     C2 1656   1.754   1.435   0.580 -0.1691  0.9577  1.0314
   98HFI     F1 1657   1.822   1.480   0.689  0.3341  0.2669  0.0745
   98HFI     F2 1658   1.634   1.504   0.574  0.1668 -0.1417 -0.3564
   98HFI     F3 1659   1.825   1.459   0.475 -0.3984 -0.2499  0.1209
   98HFI     C3 1660   1.850   1.203   0.649  0.2880 -0.5486  0.5001
   98HFI     F4 1661   1.971   1.252   0.605 -0.2787  0.1760  0.7964
   98HFI     F5 1662   1.844   1.071   0.619 -0.8103  0.1559  0.1511
   98HFI     F6 1663   1.837   1.219   0.780  0.0176 -0.7845  0.1057
   98HFI     H1 1664   1.752   1.254   0.384 -1.8347 -0.0242 -0.7598
   98HFI     H2 1665   1.649   1.270   0.657  0.8955 -1.0024 -0.2426
   99HFI     O1 1666   0.840   2.420   3.450 -0.0296 -0.0186 -0.2114
   99HFI     C1 1667   0.931   2.370   3.342  0.8108  0.1324  0.0901
   99HFI     C2 1668   1.067   2.432   3.359  0.2623  0.5969  0.1693
   99HFI     F1 1669   1.143   2.387   3.257  0.0776 -0.3425 -0.5701
   99HFI     F2 1670   1.123   2.390   3.473  0.0443 -0.4769  0.3350
   99HFI     F3 1671   1.063   2.564   3.356 -0.1911 -0.2143 -0.4721
   99HFI     C3 1672   0.868   2.386   3.201  0.8594 -0.2473 -0.0491
   99HFI     F4 1673   0.930   2.321   3.096  0.0552 -0.0190  0.0084
   99HFI     F5 1674   0.848   2.518   3.170 -0.5903 -0.2976 -0.2327
   99HFI     F6 1675   0.744   2.332   3.206 -0.0618  0.1813  0.0706
   99HFI     H1 1676   0.766   2.469   3.411  0.4556  0.1641 -0.9238
   99HFI     H2 1677   0.945   2.262   3.355 -0.6686  0.1677  2.2974
  100HFI     O1 1678   1.651   0.061   1.389 -0.5435 -0.0723  0.1446
  100HFI     C1 1679   1.609  -0.074   1.413 -0.9272  1.0302  0.3266
  100HFI     C2 1680   1.489  -0.070   1.511 -0.3001 -0.9140 -0.8367
  100HFI     F1 1681   1.481  -0.190   1.575  0.6638 -0.1836  0.4218
  100HFI     F2 1682   1.367  -0.051   1.448 -0.5248  0.4991  0.1470
  100HFI     F3 1683   1.514   0.028   1.605 -0.0953  0.5122  0.0453
  100HFI     C3 1684   1.725  -0.161   1.450  0.5801  0.5126  0.3287
  100HFI     F4 1685   1.825  -0.161   1.357 -0.2806  0.2770 -0.2370
  100HFI     F5 1686   1.687  -0.291   1.466  0.0017  0.0886  0.0480
  100HFI     F6 1687   1.778  -0.114   1.563 -0.5297 -0.2689  0.0044
  100HFI     H1 1688   1.700   0.094   1.466 -0.5106 -0.1408  0.1538
  100HFI     H2 1689   1.563  -0.113   1.321 -0.4197 -0.4373  0.6820
  101HFI     O1 1690   3.389   3.412   3.137 -0.0491  0.3724  0.2308
  101HFI     C1 1691   3.317   3.538   3.138 -0.7571  0.3414  0.0644
  101HFI     C2 1692   3.311   3.594   3.279 -0.0908  0.9028  0.0735
  101HFI     F1 1693   3.257   3.503   3.354 -0.0623  0.1692  0.3389
  101HFI     F2 1694   3.246   3.707   3.285  0.3996  0.0621 -0.0418
  101HFI     F3 1695   3.430   3.618   3.331  0.1416 -0.0868  0.3250
  101HFI     C3 1696   3.180   3.539   3.062  0.6584  0.5615 -0.0002
  101HFI     F4 1697   3.083   3.492   3.142 -0.2466  0.2714  0.4127
  101HFI     F5 1698   3.197   3.461   2.954 -0.1426  0.1355  0.3777
  101HFI     F6 1699   3.143   3.665   3.028  0.1771  0.7223  0.5105
  101HFI     H1 1700   3.459   3.401   3.203 -1.2635 -0.8259  1.3451
  101HFI     H2 1701   3.375   3.613   3.083 -0.4909  1.1200  1.3825
  102HFI     O1 1702   1.171   2.635   0.267  0.1029  0.0746 -0.1193
  102HFI     C1 1703   1.261   2.561   0.178 -0.0317 -0.1073 -0.7818
  102HFI     C2 1704   1.227   2.589   0.027 -0.2963  0.1329  0.0481
  102HFI     F1 1705   1.115   2.537  -0.022  0.2079 -0.2829 -0.2783
  102HFI     F2 1706   1.328   2.545  -0.053 -0.1312 -0.1995 -0.0816
  102HFI     F3 1707   1.226   2.725   0.009 -0.3979 -0.0009  0.0760
  102HFI     C3 1708   1.238   2.419   0.206  0.1778  0.1793 -0.1732
  102HFI     F4 1709   1.111   2.386   0.220  0.4688  0.7438 -0.2160
  102HFI     F5 1710   1.300   2.389   0.324  0.2746 -0.3160  0.3317
  102HFI     F6 1711   1.291   2.338   0.113  0.0455 -0.2776 -0.3354
  102HFI     H1 1712   1.193   2.730   0.268  0.3495  0.0302  3.3258
  102HFI     H2 1713   1.366   2.588   0.195 -1.3301  3.3899  2.2765
  103HFI     O1 1714   2.811   1.713   0.538  0.0369 -0.3853  0.1169
  103HFI     C1 1715   2.714   1.603   0.536  0.7269  0.1577 -0.3632
  103HFI     C2 1716   2.698   1.526   0.401  0.7695  0.5058  0.4677
  103HFI     F1 1717   2.633   1.600   0.310 -0.0056  0.4494 -0.0468
  103HFI     F2 1718   2.630   1.413   0.423  0.2547 -0.5451  0.0728
  103HFI     F3 1719   2.822   1.500   0.349 -0.3598 -0.2480  0.5440
  103HFI     C3 1720   2.585   1.646   0.607  0.5075 -0.0627 -0.1655
  103HFI     F4 1721   2.500   1.548   0.620 -0.1451  0.3184  0.6739
  103HFI     F5 1722   2.524   1.752   0.546 -0.3033  0.8111  0.5768
  103HFI     F6 1723   2.622   1.686   0.741 -0.1167 -0.0275  0.2880
  103HFI     H1 1724   2.766   1.799   0.541  1.0812  0.1825 -0.0924
  103HFI     H2 1725   2.759   1.537   0.611 -0.6563 -0.5598 -0.1412
  104HFI     O1 1726   0.526   0.066   0.567 -0.4727  0.0787  0.6173
  104HFI     C1 1727   0.643   0.146   0.580 -0.2215  0.2608  0.2550
  104HFI     C2 1728   0.632   0.274   0.499 -0.0479 -0.3981  0.3590
  104HFI     F1 1729   0.509   0.331   0.500  0.3532  0.3093 -0.2130
  104HFI     F2 1730   0.659   0.257   0.371  0.4150  0.0189  0.4072
  104HFI     F3 1731   0.727   0.364   0.549  0.0172 -0.0388  0.2457
  104HFI     C3 1732   0.767   0.056   0.549  0.5122 -0.0741 -0.5167
  104HFI     F4 1733   0.737  -0.024   0.440 -0.0574  0.1935 -0.9499
  104HFI     F5 1734   0.800  -0.020   0.652  0.4352  0.1269 -0.1929
  104HFI     F6 1735   0.870   0.142   0.522 -0.1177 -0.1178 -0.2767
  104HFI     H1 1736   0.484   0.073   0.480 -2.6283 -0.9390  1.5492
  104HFI     H2 1737   0.653   0.178   0.685 -1.1126  0.7249  0.2046
  105HFI     O1 1738   1.170   2.922   0.250 -0.5940  0.8491  0.1027
  105HFI     C1 1739   1.282   3.009   0.288 -0.0890 -0.6931 -0.1110
  105HFI     C2 1740   1.402   2.930   0.348 -0.9061  0.2144 -0.4052
  105HFI     F1 1741   1.370   2.859   0.451  0.3915  0.1482  0.1477
  105HFI     F2 1742   1.507   3.010   0.380  0.2596  0.1146 -0.0250
  105HFI     F3 1743   1.434   2.833   0.261  0.0126  0.2027  0.1079
  105HFI     C3 1744   1.230   3.127   0.376  0.2010 -0.4275  0.0303
  105HFI     F4 1745   1.151   3.084   0.479  0.0392 -0.0684 -0.0031
  105HFI     F5 1746   1.161   3.206   0.289  0.2334  0.0764 -0.1455
  105HFI     F6 1747   1.334   3.200   0.433  0.5480  0.6710  0.1837
  105HFI     H1 1748   1.085   2.964   0.271  0.6291  2.5529  1.8440
  105HFI     H2 1749   1.319   3.055   0.197 -2.8725 -1.9967 -2.0004
  106HFI     O1 1750   0.865   0.656   1.478 -0.0461  0.5616 -1.0478
  106HFI     C1 1751   0.770   0.540   1.517  0.5618  0.0250  0.2456
  106HFI     C2 1752   0.784   0.413   1.435 -0.1290  0.7990 -0.2016
  106HFI     F1 1753   0.912   0.377   1.439 -0.1362  0.0214 -0.1008
  106HFI     F2 1754   0.748   0.427   1.308 -0.3618 -0.1887  0.2732
  106HFI     F3 1755   0.716   0.312   1.491  0.1483 -0.0962  0.0524
  106HFI     C3 1756   0.626   0.598   1.521 -0.6461  0.1701  0.7053
  106HFI     F4 1757   0.535   0.507   1.565 -0.3021  0.2746  0.0688
  106HFI     F5 1758   0.589   0.661   1.409 -0.1396  0.2027  0.6742
  106HFI     F6 1759   0.637   0.697   1.609  0.0078 -0.1824  0.0352
  106HFI     H1 1760   0.901   0.639   1.389 -0.6459  0.0907 -1.2070
  106HFI     H2 1761   0.802   0.512   1.618 -0.0556 -3.6009 -0.5000
  107HFI     O1 1762   0.132   0.084   1.571 -0.1185 -0.2908 -0.0829
  107HFI     C1 1763   0.228   0.110   1.464  0.9357  0.8220  0.2077
  107HFI     C2 1764   0.295  -0.018   1.405  0.6858 -0.2709  0.1427
  107HFI     F1 1765   0.385   0.014   1.311  0.2319 -0.3401  0.0698
  107HFI     F2 1766   0.204  -0.106   1.359 -0.4365 -0.3046  0.6690
  107HFI     F3 1767   0.363  -0.087   1.498 -0.1134 -0.6896 -0.4097
  107HFI     C3 1768   0.337   0.213   1.499 -0.1261 -0.0885  0.6551
  107HFI     F4 1769   0.277   0.317   1.553 -0.3717  0.2334  0.4572
  107HFI     F5 1770   0.403   0.253   1.391 -0.0867 -0.2209 -0.7016
  107HFI     F6 1771   0.431   0.166   1.586  0.1966  0.6511  0.2537
  107HFI     H1 1772   0.126  -0.012   1.583 -1.7803 -0.3042 -0.9755
  107HFI     H2 1773   0.171   0.151   1.379  1.2395  1.3691  0.2677
  108HFI     O1 1774   0.037   2.723   0.602 -0.3591  0.1158  0.4033
  108HFI     C1 1775   0.042   2.865   0.638 -0.6587  0.3759 -0.6054
  108HFI     C2 1776   0.115   2.946   0.527  0.0186  0.3976  0.2037
  108HFI     F1 1777   0.124   3.075   0.556  0.1698  0.4772 -0.4958
  108HFI     F2 1778   0.035   2.950   0.423 -0.6653 -0.0594  0.2359
  108HFI     F3 1779   0.239   2.894   0.489 -0.1576  0.0861  0.1252
  108HFI     C3 1780   0.112   2.892   0.774 -0.0072 -0.0381  0.2570
  108HFI     F4 1781   0.249   2.929   0.770 -0.0429 -0.2171  0.4339
  108HFI     F5 1782   0.106   2.781   0.851  0.3208 -0.3330 -0.4249
  108HFI     F6 1783   0.049   2.988   0.845 -0.0007  0.2521 -0.1960
  108HFI     H1 1784   0.062   2.668   0.678  0.6246  0.7502  0.5584
  108HFI     H2 1785  -0.058   2.908   0.648 -1.2596 -1.2618  0.7661
  109HFI     O1 1786   1.101   2.828   3.472 -0.2826  0.4711 -0.2868
  109HFI     C1 1787   0.985   2.922   3.493 -0.4870 -0.9800 -0.3741
  109HFI     C2 1788   0.947   2.957   3.647 -0.4085 -0.9822  0.3382
  109HFI     F1 1789   0.847   2.877   3.697  0.2770  0.8808  0.6146
  109HFI     F2 1790   0.897   3.083   3.653 -0.1493 -0.1304  0.6224
  109HFI     F3 1791   1.048   2.957   3.734  0.8322  0.5766 -0.0437
  109HFI     C3 1792   0.871   2.883   3.404  0.1231 -0.1941 -0.0540
  109HFI     F4 1793   0.832   2.752   3.422  0.3290  0.0996 -0.0514
  109HFI     F5 1794   0.921   2.886   3.276  0.3646  0.0390  0.6511
  109HFI     F6 1795   0.764   2.957   3.418  0.0466  0.2766  0.7309
  109HFI     H1 1796   1.100   2.791   3.383 -0.2908 -1.3755  0.4658
  109HFI     H2 1797   1.017   3.021   3.457  3.3398 -2.4982 -1.4168
  110HFI     O1 1798   0.875   0.191   0.054 -0.3857  0.4068  0.2658
  110HFI     C1 1799   0.772   0.120  -0.022 -0.2729  0.0959 -0.0445
  110HFI     C2 1800   0.765  -0.020   0.024  0.2176 -0.3526  0.3145
  110HFI     F1 1801   0.669  -0.091  -0.040  0.5595  0.1149  0.4535
  110HFI     F2 1802   0.734  -0.013   0.150 -0.1897  0.5505 -0.0399
  110HFI     F3 1803   0.884  -0.083   0.012  0.1464  0.2136  0.2330
  110HFI     C3 1804   0.794   0.145  -0.170 -1.0815  0.4770 -0.1066
  110HFI     F4 1805   0.805   0.281  -0.199 -0.4403 -0.2097  0.1456
  110HFI     F5 1806   0.693   0.093  -0.244 -0.6925 -0.3474  0.0905
  110HFI     F6 1807   0.910   0.083  -0.204 -0.0324 -0.0616  0.3522
  110HFI     H1 1808   0.963   0.156   0.035 -0.8625 -0.1732 -0.9234
  110HFI     H2 1809   0.674   0.169  -0.014 -1.0288 -1.0681 -1.9432
  111HFI     O1 1810   2.616   3.329   1.329  0.3687 -0.5116 -0.8030
  111HFI     C1 1811   2.594   3.223   1.423  0.0801  0.6718 -0.3060
  111HFI     C2 1812   2.476   3.245   1.522  0.4001 -0.5247  0.4359
  111HFI     F1 1813   2.375   3.316   1.458  0.6475 -0.1392  0.3205
  111HFI     F2 1814   2.513   3.325   1.620 -0.0803  0.2322 -0.3183
  111HFI     F3 1815   2.433   3.133   1.576  0.2257 -0.1485  0.2122
  111HFI     C3 1816   2.730   3.183   1.485  0.1096  0.7615  0.1094
  111HFI     F4 1817   2.798   3.119   1.387  0.1249  0.6347 -0.3148
  111HFI     F5 1818   2.731   3.104   1.596  0.1115 -0.3796  0.1979
  111HFI     F6 1819   2.799   3.299   1.514  0.1526 -0.3415 -0.1814
  111HFI     H1 1820   2.642   3.409   1.378  0.2042  0.0917 -1.6716
  111HFI     H2 1821   2.566   3.134   1.364  1.1334  1.8990 -2.7465
  112HFI     O1 1822   0.825   3.057   0.344 -0.0261 -0.6975  0.4280
  112HFI     C1 1823   0.735   2.940   0.326 -0.1034  1.1191 -0.2216
  112HFI     C2 1824   0.592   2.970   0.384 -0.1495 -0.7398 -0.1595
  112HFI     F1 1825   0.495   2.886   0.325 -0.4596  0.1076 -0.5222
  112HFI     F2 1826   0.562   3.098   0.353  0.4648 -0.1632 -0.7566
  112HFI     F3 1827   0.589   2.965   0.518  0.2964 -0.3005 -0.0701
  112HFI     C3 1828   0.799   2.813   0.392 -0.6249  0.4541 -0.6091
  112HFI     F4 1829   0.914   2.781   0.321  0.3910  0.0398 -0.0982
  112HFI     F5 1830   0.715   2.703   0.380 -0.0407  0.1076 -0.2304
  112HFI     F6 1831   0.835   2.822   0.521  0.1461 -0.0651  0.0509
  112HFI     H1 1832   0.785   3.143   0.325  1.5933  0.3183  1.5872
  112HFI     H2 1833   0.721   2.917   0.219 -1.0976 -1.9149  0.5156
  113HFI     O1 1834   0.620   1.333   1.491  0.3292 -0.5387  0.2068
  113HFI     C1 1835   0.749   1.269   1.463  0.1791 -0.8185 -0.7380
  113HFI     C2 1836   0.870   1.364   1.499 -0.0609 -0.1025 -0.4143
  113HFI     F1 1837   0.985   1.295   1.532 -0.4215  0.1768  0.4201
  113HFI     F2 1838   0.836   1.439   1.606  0.3175 -0.0437 -0.1721
  113HFI     F3 1839   0.903   1.448   1.398  0.5134  1.0127 -0.1522
  113HFI     C3 1840   0.760   1.221   1.316 -0.2433 -0.8715  0.0785
  113HFI     F4 1841   0.676   1.116   1.292 -0.7376  0.4934 -0.8573
  113HFI     F5 1842   0.884   1.182   1.275  0.1667  0.0644 -0.2944
  113HFI     F6 1843   0.719   1.325   1.236 -0.7585  0.0719 -0.4698
  113HFI     H1 1844   0.550   1.285   1.442 -0.2429  0.4779  0.0126
  113HFI     H2 1845   0.748   1.177   1.523 -2.9878 -1.5721 -1.8496
  114HFI     O1 1846   3.303   2.228   2.452  0.7391  0.5932  0.1510
  114HFI     C1 1847   3.181   2.311   2.415 -0.2443 -1.1251  0.1927
  114HFI     C2 1848   3.069   2.216   2.360 -0.0479  0.4709 -0.5567
  114HFI     F1 1849   3.068   2.091   2.421  0.3337 -0.3516  0.2007
  114HFI     F2 1850   3.079   2.188   2.225 -0.0235  0.4748  0.1688
  114HFI     F3 1851   2.946   2.282   2.370  0.4667  0.3036  0.4315
  114HFI     C3 1852   3.219   2.435   2.320  0.2544  0.1770  0.5351
  114HFI     F4 1853   3.289   2.531   2.392  0.0071 -0.0172 -0.1236
  114HFI     F5 1854   3.108   2.492   2.271 -0.1908 -0.0919 -0.4442
  114HFI     F6 1855   3.300   2.399   2.213  0.0333 -0.3991  0.3917
  114HFI     H1 1856   3.384   2.279   2.438 -0.6065  3.2446  1.7428
  114HFI     H2 1857   3.123   2.354   2.497  1.7526 -0.3895  1.2384
  115HFI     O1 1858   2.699   1.937   0.174 -0.0093 -0.1846  0.4784
  115HFI     C1 1859   2.602   1.861   0.104  0.3483  0.9530  0.1243
  115HFI     C2 1860   2.611   1.886  -0.047 -0.2198 -0.1136  0.1652
  115HFI     F1 1861   2.557   2.010  -0.077  0.2936 -0.3670 -0.7737
  115HFI     F2 1862   2.543   1.800  -0.128 -0.3889 -0.0044  0.3015
  115HFI     F3 1863   2.739   1.888  -0.093 -0.1565 -0.5945 -0.0241
  115HFI     C3 1864   2.457   1.883   0.160  0.0486 -0.2069 -1.0760
  115HFI     F4 1865   2.359   1.828   0.092 -0.3800 -0.0653  0.1118
  115HFI     F5 1866   2.425   2.013   0.180  0.1244  0.4960  0.5180
  115HFI     F6 1867   2.452   1.825   0.278  0.1669 -0.3892 -0.3120
  115HFI     H1 1868   2.663   2.021   0.206  0.5900  0.6703 -1.0626
  115HFI     H2 1869   2.625   1.754   0.115 -1.2921  0.7034  1.4688
  116HFI     O1 1870   1.675   3.332   0.456  0.3396 -0.0504  0.1610
  116HFI     C1 1871   1.767   3.447   0.454  0.3499  0.9190 -0.1362
  116HFI     C2 1872   1.754   3.525   0.586 -0.2394 -0.3377 -0.3684
  116HFI     F1 1873   1.860   3.605   0.607 -0.2267 -0.3272  0.5843
  116HFI     F2 1874   1.755   3.436   0.692  0.3751  0.0988 -0.5633
  116HFI     F3 1875   1.638   3.592   0.604 -0.1970 -0.1692  0.1576
  116HFI     C3 1876   1.741   3.532   0.327  0.3483  0.0660 -0.3394
  116HFI     F4 1877   1.611   3.561   0.311  0.4126 -0.3026 -0.4449
  116HFI     F5 1878   1.774   3.454   0.221  0.9043 -0.0239 -0.0788
  116HFI     F6 1879   1.816   3.643   0.328 -0.3448  0.4861 -0.5953
  116HFI     H1 1880   1.587   3.372   0.446 -0.1971 -1.5682 -1.4108
  116HFI     H2 1881   1.871   3.413   0.451  0.2387  0.6508 -2.0818
  117HFI     O1 1882   1.839   1.272   0.153  0.1029 -0.1153  0.9329
  117HFI     C1 1883   1.939   1.168   0.117  0.5118 -0.8337  0.0650
  117HFI     C2 1884   1.959   1.158  -0.040 -0.4468  0.4395 -0.4361
  117HFI     F1 1885   1.848   1.113  -0.094  0.4809 -0.5143 -0.5643
  117HFI     F2 1886   2.051   1.064  -0.069  0.0383  0.0105  0.2218
  117HFI     F3 1887   1.990   1.270  -0.099 -0.3871 -0.2512 -0.1070
  117HFI     C3 1888   1.895   1.026   0.187 -0.4676 -0.0216  1.3122
  117HFI     F4 1889   1.767   1.000   0.156  0.6091 -0.1427  0.3074
  117HFI     F5 1890   1.910   1.032   0.319  0.3482  0.3740 -0.0069
  117HFI     F6 1891   1.962   0.919   0.143  0.4627  0.6164 -0.1332
  117HFI     H1 1892   1.776   1.285   0.080  1.3978  1.8307  0.1385
  117HFI     H2 1893   2.037   1.202   0.155  2.2267 -3.2797 -2.0010
  118HFI     O1 1894   3.207   1.194   3.134  0.5001  0.8938  0.5299
  118HFI     C1 1895   3.114   1.217   3.022 -0.4291  0.7842 -0.6577
  118HFI     C2 1896   2.966   1.177   3.042 -0.3704 -0.5965 -0.3274
  118HFI     F1 1897   2.936   1.053   2.998  0.0051 -0.5418 -0.7575
  118HFI     F2 1898   2.891   1.261   2.966 -0.3280  0.2948  0.3117
  118HFI     F3 1899   2.914   1.200   3.168  0.2784  0.0966  0.0089
  118HFI     C3 1900   3.176   1.170   2.891 -0.6913  0.7471 -0.0916
  118HFI     F4 1901   3.103   1.187   2.782  0.1886 -0.0096  0.0489
  118HFI     F5 1902   3.197   1.038   2.902 -0.1532  0.0667  0.0410
  118HFI     F6 1903   3.297   1.222   2.875  0.1486  0.4940  0.6172
  118HFI     H1 1904   3.271   1.123   3.119 -0.1882  0.4879 -0.4991
  118HFI     H2 1905   3.104   1.326   3.012 -0.2526  0.6707 -2.2048
  119HFI     O1 1906   1.332   2.872   0.870  0.1698  0.8334  0.2731
  119HFI     C1 1907   1.400   2.987   0.928 -0.2247  0.3949 -1.0497
  119HFI     C2 1908   1.422   3.106   0.831  0.5475  0.1576 -0.6643
  119HFI     F1 1909   1.470   3.085   0.707 -0.0852  0.3646 -0.2907
  119HFI     F2 1910   1.507   3.196   0.881  0.2699 -0.2882  0.0156
  119HFI     F3 1911   1.308   3.171   0.809  0.5609  0.1499  0.3875
  119HFI     C3 1912   1.530   2.957   1.017 -0.5759  0.4200  0.0653
  119HFI     F4 1913   1.558   3.060   1.101 -0.4051  0.1400 -0.2510
  119HFI     F5 1914   1.639   2.936   0.942 -0.0924 -0.1729  0.0812
  119HFI     F6 1915   1.513   2.851   1.086  0.3981  0.5799 -0.0898
  119HFI     H1 1916   1.242   2.901   0.846  0.1095  0.3289 -0.1312
  119HFI     H2 1917   1.323   3.019   1.000  2.0862  0.3656  1.4916
  120HFI     O1 1918   0.461   1.497   2.291  0.4346 -0.1165 -0.2247
  120HFI     C1 1919   0.597   1.472   2.245 -0.0097  0.5821 -0.6585
  120HFI     C2 1920   0.641   1.333   2.279 -0.1903  0.0477 -0.0216
  120HFI     F1 1921   0.533   1.245   2.265  0.1954  0.1936 -0.3575
  120HFI     F2 1922   0.678   1.323   2.409 -0.5269 -0.0342 -0.3868
  120HFI     F3 1923   0.748   1.298   2.191 -0.0728  0.0881  0.2294
  120HFI     C3 1924   0.683   1.590   2.293  0.3634  0.1201 -0.5709
  120HFI     F4 1925   0.672   1.706   2.221  0.8491 -0.5030  0.3182
  120HFI     F5 1926   0.814   1.559   2.297  0.0244  0.2993  0.5037
  120HFI     F6 1927   0.644   1.629   2.420  0.5677  0.7174  0.7944
  120HFI     H1 1928   0.469   1.538   2.379  0.8214 -0.6136 -0.0222
  120HFI     H2 1929   0.604   1.486   2.136  0.8968 -2.2371 -1.0010
  121HFI     O1 1930   1.303   1.356   2.220  0.1161  0.2388  0.2158
  121HFI     C1 1931   1.396   1.310   2.329 -0.4018  0.2293 -0.5923
  121HFI     C2 1932   1.438   1.149   2.314 -0.1003  0.3540  0.8631
  121HFI     F1 1933   1.503   1.111   2.425 -0.0575  1.0443  0.6612
  121HFI     F2 1934   1.521   1.136   2.209  0.3112 -0.0845  0.1187
  121HFI     F3 1935   1.322   1.066   2.300 -0.0291 -0.0189  0.1404
  121HFI     C3 1936   1.326   1.350   2.469 -0.1658 -0.0042  0.5572
  121HFI     F4 1937   1.373   1.269   2.567 -0.0253 -0.2265  0.2611
  121HFI     F5 1938   1.197   1.327   2.459  0.0218 -0.1828  0.4585
  121HFI     F6 1939   1.337   1.484   2.492  0.4599 -0.6090  0.1077
  121HFI     H1 1940   1.250   1.431   2.251 -0.2975 -0.3129  0.8606
  121HFI     H2 1941   1.492   1.363   2.322  0.4590 -1.4436 -2.1043
  122HFI     O1 1942   3.238   3.167   0.664 -0.0543  0.4233  0.2668
  122HFI     C1 1943   3.146   3.195   0.554  0.2188 -0.9443  0.2432
  122HFI     C2 1944   3.089   3.340   0.558 -0.4025 -0.5809  0.3189
  122HFI     F1 1945   3.176   3.430   0.596 -0.1210 -0.2290 -0.6538
  122HFI     F2 1946   2.993   3.343   0.653  0.4672 -0.2260 -0.2604
  122HFI     F3 1947   3.043   3.377   0.434  0.0882  0.3093 -0.2919
  122HFI     C3 1948   3.046   3.084   0.532 -0.3024  0.2526  0.0459
  122HFI     F4 1949   2.996   3.087   0.407 -0.6073  0.0530 -0.2719
  122HFI     F5 1950   2.940   3.097   0.613 -0.0469 -0.0330 -0.3027
  122HFI     F6 1951   3.089   2.961   0.557  0.2750  0.1222  0.1661
  122HFI     H1 1952   3.190   3.160   0.748 -0.0141  4.1037  0.6713
  122HFI     H2 1953   3.208   3.197   0.464  1.0838  2.6496  0.8235
  123HFI     O1 1954   1.526   1.647   2.298  0.0851 -0.6013 -0.3478
  123HFI     C1 1955   1.479   1.776   2.255  0.0338 -0.0911  0.4327
  123HFI     C2 1956   1.568   1.897   2.303  0.5252  0.3634 -0.4000
  123HFI     F1 1957   1.535   2.008   2.237  0.6129 -0.1079  0.7272
  123HFI     F2 1958   1.699   1.859   2.275  0.5648  0.5128  0.1115
  123HFI     F3 1959   1.544   1.925   2.431  0.1342 -0.0315  0.4048
  123HFI     C3 1960   1.332   1.791   2.286 -0.6271 -0.5733  0.3972
  123HFI     F4 1961   1.280   1.895   2.211  0.2985 -0.6064 -0.0552
  123HFI     F5 1962   1.301   1.812   2.411 -0.0500  0.1600 -0.1723
  123HFI     F6 1963   1.264   1.687   2.246  0.1371  0.1402  0.0380
  123HFI     H1 1964   1.557   1.650   2.390 -0.2878 -0.6426 -0.2181
  123HFI     H2 1965   1.483   1.773   2.145  2.3902 -0.3463  0.4883
  124HFI     O1 1966   1.577   2.147   0.606  0.6249 -0.4860 -0.4339
  124HFI     C1 1967   1.672   2.046   0.630  0.6773  0.2674 -0.1557
  124HFI     C2 1968   1.811   2.098   0.603 -0.1561 -0.5753 -0.2270
  124HFI     F1 1969   1.909   2.016   0.652 -0.2385 -0.4334 -0.1468
  124HFI     F2 1970   1.832   2.216   0.659 -0.2498 -0.5366  0.6563
  124HFI     F3 1971   1.831   2.110   0.473  0.1922  0.6124 -0.2256
  124HFI     C3 1972   1.639   1.911   0.563 -0.0926 -0.7583  0.4245
  124HFI     F4 1973   1.539   1.846   0.631  1.0038 -0.0150 -0.0472
  124HFI     F5 1974   1.736   1.821   0.557  0.3214 -0.4261  0.2398
  124HFI     F6 1975   1.589   1.933   0.440 -0.2793  0.2237 -0.2796
  124HFI     H1 1976   1.627   2.221   0.570  1.5513 -0.5491  0.6739
  124HFI     H2 1977   1.674   2.018   0.737  1.6482 -0.4405 -0.3505
  125HFI     O1 1978   1.890   3.153   0.378  0.3541  0.1582 -0.1529
  125HFI     C1 1979   2.001   3.091   0.446  0.4798  0.1011  0.1829
  125HFI     C2 1980   1.962   2.952   0.511 -0.2725  0.1139  0.5262
  125HFI     F1 1981   1.918   2.862   0.426  0.2990 -0.5139 -0.0852
  125HFI     F2 1982   1.861   2.969   0.603 -0.4067  0.0497 -0.0819
  125HFI     F3 1983   2.072   2.892   0.564  0.0899 -0.1793 -0.3148
  125HFI     C3 1984   2.070   3.202   0.538 -0.2863  0.7823  0.1364
  125HFI     F4 1985   2.106   3.306   0.467 -0.1861  0.1827  0.8216
  125HFI     F5 1986   2.166   3.152   0.613  0.4855 -0.2243  0.6951
  125HFI     F6 1987   1.974   3.247   0.628  0.0388 -0.7411  0.5186
  125HFI     H1 1988   1.820   3.170   0.443  1.1335 -1.2613  1.0635
  125HFI     H2 1989   2.080   3.069   0.373  0.1377  0.0256 -0.1695
  126HFI     O1 1990   1.983   1.807   3.784 -0.2790  0.7732  0.0835
  126HFI     C1 1991   1.942   1.945   3.786 -0.2841  0.4238  0.3015
  126HFI     C2 1992   1.992   2.024   3.908  1.3587  0.2632  0.9065
  126HFI     F1 1993   2.123   2.036   3.901  0.2303 -0.1135  0.0805
  126HFI     F2 1994   1.973   1.969   4.028 -0.1864 -0.0944 -0.4652
  126HFI     F3 1995   1.938   2.143   3.896 -0.1054 -0.5322 -0.3154
  126HFI     C3 1996   1.784   1.950   3.764  0.0607 -0.3091 -0.4870
  126HFI     F4 1997   1.745   1.870   3.667 -0.2604 -0.2707  0.4549
  126HFI     F5 1998   1.754   2.079   3.722  0.2176 -0.1029 -0.0078
  126HFI     F6 1999   1.715   1.926   3.882 -0.4114  0.0005 -0.2522
  126HFI     H1 2000   1.952   1.769   3.868  0.8657 -0.7392 -0.1611
  126HFI     H2 2001   1.992   1.996   3.703 -1.0364 -0.8700 -0.9917
  127HFI     O1 2002   2.680   2.175   2.332  0.0716  0.3067  0.4813
  127HFI     C1 2003   2.612   2.067   2.263  0.9488  0.5079 -0.1030
  127HFI     C2 2004   2.462   2.056   2.313  0.0125 -0.4853 -0.4572
  127HFI     F1 2005   2.377   1.980   2.235 -0.1989  0.2464 -0.5689
  127HFI     F2 2006   2.409   2.176   2.313 -0.7698 -0.1814  0.0994
  127HFI     F3 2007   2.453   2.009   2.438  0.0110  0.3336 -0.2143
  127HFI     C3 2008   2.678   1.926   2.272 -0.5484 -0.4191 -0.0451
  127HFI     F4 2009   2.683   1.882   2.394 -0.0742 -1.1552  0.1624
  127HFI     F5 2010   2.798   1.927   2.214  0.3421 -0.0834 -0.1217
  127HFI     F6 2011   2.592   1.836   2.213  0.0742 -0.1410 -0.3738
  127HFI     H1 2012   2.737   2.145   2.405 -0.3365 -2.0752 -0.1594
  127HFI     H2 2013   2.597   2.077   2.154 -1.8940  1.6897  0.3373
  128HFI     O1 2014   0.684   2.551   2.216  0.0116 -0.0058 -0.9251
  128HFI     C1 2015   0.631   2.498   2.337 -0.6847 -0.6557 -0.5764
  128HFI     C2 2016   0.653   2.592   2.461 -0.6625 -0.7558  0.0214
  128HFI     F1 2017   0.785   2.594   2.514 -0.1084 -0.0362 -0.1428
  128HFI     F2 2018   0.562   2.560   2.551  0.0832  0.3058  0.1515
  128HFI     F3 2019   0.624   2.720   2.441  0.2254  0.3227 -0.1037
  128HFI     C3 2020   0.673   2.348   2.362 -0.0445  0.0826  0.7548
  128HFI     F4 2021   0.597   2.292   2.463 -0.0163  0.5084 -0.4323
  128HFI     F5 2022   0.809   2.345   2.383 -0.7696  0.5651  0.2161
  128HFI     F6 2023   0.646   2.277   2.249 -0.0796 -0.2160 -0.2578
  128HFI     H1 2024   0.779   2.563   2.230  0.0511 -1.2578 -0.0539
  128HFI     H2 2025   0.523   2.480   2.323 -1.1762  1.6025  0.1680
  129HFI     O1 2026   2.664   2.421   2.491  0.7961  0.3314  0.4203
  129HFI     C1 2027   2.641   2.554   2.438  0.0753 -0.1524 -0.5631
  129HFI     C2 2028   2.677   2.593   2.291 -0.3690  0.6391  0.1465
  129HFI     F1 2029   2.667   2.724   2.264 -0.3977  0.0728 -0.1388
  129HFI     F2 2030   2.605   2.516   2.199  0.4759  0.1273 -0.7331
  129HFI     F3 2031   2.813   2.560   2.277 -0.2836  0.0082 -0.1462
  129HFI     C3 2032   2.701   2.655   2.541 -0.3250  0.5211 -0.0441
  129HFI     F4 2033   2.655   2.634   2.659 -0.4874 -0.0740  0.3382
  129HFI     F5 2034   2.679   2.789   2.515  0.3727 -0.4816  0.9896
  129HFI     F6 2035   2.838   2.640   2.547 -0.2137  0.2388  0.0294
  129HFI     H1 2036   2.639   2.358   2.421 -0.1277  2.4701 -1.2242
  129HFI     H2 2037   2.532   2.565   2.448  0.0868  0.5654 -1.1368
  130HFI     O1 2038   2.041   1.012   2.398  0.8592  0.6040 -0.0687
  130HFI     C1 2039   2.020   1.103   2.293 -0.5729  0.6561 -0.0560
  130HFI     C2 2040   2.120   1.216   2.301 -0.6078 -0.1964  0.0997
  130HFI     F1 2041   2.085   1.306   2.394 -0.5463 -1.4018  0.1173
  130HFI     F2 2042   2.128   1.273   2.181 -0.0710 -0.4343 -0.4388
  130HFI     F3 2043   2.251   1.183   2.331 -0.2182  0.0270  0.1755
  130HFI     C3 2044   1.872   1.138   2.283  0.1207  0.0224  0.2864
  130HFI     F4 2045   1.841   1.169   2.408  0.3862 -0.0567  0.1738
  130HFI     F5 2046   1.804   1.024   2.248 -0.1228  0.5191 -0.4713
  130HFI     F6 2047   1.844   1.246   2.206 -0.4694  0.0553  0.1861
  130HFI     H1 2048   1.957   0.985   2.438 -0.1248  0.1912 -2.3666
  130HFI     H2 2049   2.053   1.056   2.200 -0.8437 -1.5292  0.9247
  131HFI     O1 2050   0.226   2.166   3.288 -0.2113  0.2852  0.5799
  131HFI     C1 2051   0.368   2.151   3.270 -0.4092 -0.0012  0.3075
  131HFI     C2 2052   0.414   2.000   3.244 -0.7318  0.7533  0.5684
  131HFI     F1 2053   0.343   1.937   3.154 -0.0065  0.2686  0.5252
  131HFI     F2 2054   0.405   1.925   3.358  0.3249  0.1608 -0.2276
  131HFI     F3 2055   0.544   1.991   3.194  0.3119  0.2603  0.2567
  131HFI     C3 2056   0.443   2.208   3.400 -0.0196  0.2623 -0.0133
  131HFI     F4 2057   0.574   2.198   3.379  0.2198  0.3752 -0.2708
  131HFI     F5 2058   0.419   2.146   3.519 -0.3991 -0.7119 -0.2182
  131HFI     F6 2059   0.415   2.337   3.424  0.2552  0.1053 -0.0455
  131HFI     H1 2060   0.170   2.178   3.209  1.5260  2.0745 -0.4210
  131HFI     H2 2061   0.403   2.220   3.193  1.1645 -0.0285  0.9719
  132HFI     O1 2062   1.891   0.586   0.102  0.2361 -0.5500 -0.0563
  132HFI     C1 2063   1.826   0.544  -0.020 -0.4491  0.6495  0.7559
  132HFI     C2 2064   1.787   0.670  -0.109 -0.5858  0.9543 -0.9647
  132HFI     F1 2065   1.709   0.752  -0.034 -0.1536  0.1737  0.5828
  132HFI     F2 2066   1.713   0.639  -0.210 -0.6893 -0.4195 -0.4926
  132HFI     F3 2067   1.898   0.736  -0.154  0.2201  0.1516 -0.1191
  132HFI     C3 2068   1.713   0.441  -0.000  0.1017  0.4031 -0.4027
  132HFI     F4 2069   1.609   0.492   0.082 -0.3036  0.5288  0.5074
  132HFI     F5 2070   1.759   0.327   0.052 -0.0181  0.0211 -0.0105
  132HFI     F6 2071   1.659   0.407  -0.125 -0.7427  0.3231  0.5605
  132HFI     H1 2072   1.958   0.654   0.083 -0.9675  1.1475  1.5716
  132HFI     H2 2073   1.901   0.484  -0.074 -1.3347  0.4352 -0.2582
  133HFI     O1 2074   0.550   0.424   2.223 -0.4446  0.5592  0.2904
  133HFI     C1 2075   0.688   0.366   2.251 -0.0540 -0.2674 -0.4563
  133HFI     C2 2076   0.672   0.226   2.312 -0.4975 -0.4462  0.4317
  133HFI     F1 2077   0.634   0.137   2.210 -0.2409 -0.7424 -0.3194
  133HFI     F2 2078   0.581   0.217   2.414  0.5540 -0.3378  0.1580
  133HFI     F3 2079   0.795   0.190   2.355  0.2473  0.1515  0.1579
  133HFI     C3 2080   0.763   0.472   2.331 -0.0570  0.5573  1.1346
  133HFI     F4 2081   0.747   0.591   2.269  0.4761 -0.1144 -0.3082
  133HFI     F5 2082   0.893   0.448   2.325  0.1945  0.0397 -0.3081
  133HFI     F6 2083   0.726   0.484   2.450  0.5010  0.1528  0.2403
  133HFI     H1 2084   0.479   0.379   2.274  1.9546 -0.7962  2.5576
  133HFI     H2 2085   0.751   0.355   2.162  1.4686 -0.1568  0.5858
  134HFI     O1 2086   2.297   0.080   1.060 -0.9327  0.4592  0.0682
  134HFI     C1 2087   2.442   0.072   1.058 -0.2814  0.3647 -0.5154
  134HFI     C2 2088   2.497   0.217   1.063 -0.0320  0.8523 -0.8150
  134HFI     F1 2089   2.446   0.283   1.168  0.6360 -0.0322  0.5012
  134HFI     F2 2090   2.477   0.279   0.941  0.8333 -0.0077 -0.4215
  134HFI     F3 2091   2.628   0.211   1.077  0.1963 -0.3259 -0.4684
  134HFI     C3 2092   2.495  -0.021   0.948  0.5583  0.0199  0.0787
  134HFI     F4 2093   2.628  -0.009   0.934  0.7176 -0.2405 -0.5575
  134HFI     F5 2094   2.430   0.005   0.832  0.4626  0.0032  0.1611
  134HFI     F6 2095   2.480  -0.148   0.976 -0.8333  0.4086  0.1674
  134HFI     H1 2096   2.274   0.149   1.124  1.9116  2.4810 -0.9891
  134HFI     H2 2097   2.490   0.038   1.151  2.3032  1.0793 -1.5553
  135HFI     O1 2098   0.902   1.089   2.667 -0.4579  0.2230  0.5765
  135HFI     C1 2099   0.940   0.953   2.645  0.1797  0.3690  0.3000
  135HFI     C2 2100   1.069   0.939   2.552 -0.3586  0.3470  0.8923
  135HFI     F1 2101   1.118   0.813   2.534  0.3505  0.0869  0.0030
  135HFI     F2 2102   1.172   1.013   2.604  0.1500  0.5318  0.4304
  135HFI     F3 2103   1.036   0.989   2.431  0.2950 -0.0747 -0.3008
  135HFI     C3 2104   0.816   0.864   2.595 -0.0465 -0.7551  0.0819
  135HFI     F4 2105   0.715   0.867   2.688 -0.0039 -0.6128 -0.4272
  135HFI     F5 2106   0.850   0.735   2.585  0.5384  0.4985  0.0537
  135HFI     F6 2107   0.759   0.904   2.478  0.5207 -0.0141 -0.3758
  135HFI     H1 2108   0.903   1.135   2.581 -0.2631 -2.7108 -1.0492
  135HFI     H2 2109   0.968   0.909   2.742  1.5074  2.8954  1.0969
  136HFI     O1 2110   2.770   3.308   3.153 -0.0579 -0.1586 -0.4783
  136HFI     C1 2111   2.727   3.339   3.288 -0.2108 -0.2863 -0.0228
  136HFI     C2 2112   2.657   3.230   3.351  0.1222  0.8904  0.3043
  136HFI     F1 2113   2.645   3.251   3.480  0.1488  0.2822 -0.5603
  136HFI     F2 2114   2.724   3.118   3.340  0.0562  0.2130  0.1460
  136HFI     F3 2115   2.533   3.217   3.303 -0.2031 -0.1429 -0.0180
  136HFI     C3 2116   2.646   3.479   3.271 -0.3028  0.4127 -0.3122
  136HFI     F4 2117   2.591   3.509   3.389 -0.1764  0.3584 -0.0464
  136HFI     F5 2118   2.541   3.475   3.185  0.1167  0.2996  0.0465
  136HFI     F6 2119   2.727   3.576   3.225  0.0762  0.1769 -0.3668
  136HFI     H1 2120   2.746   3.214   3.137  0.2210 -0.3603  0.2728
  136HFI     H2 2121   2.815   3.363   3.348 -0.0420 -1.0190  0.0287
  137HFI     O1 2122   1.047   1.242   3.602  0.5507  0.2537 -0.2900
  137HFI     C1 2123   1.060   1.358   3.512 -1.1255  0.4427 -0.2926
  137HFI     C2 2124   1.190   1.435   3.540  0.0987 -0.9628  0.1046
  137HFI     F1 2125   1.179   1.510   3.651  0.4448 -0.2293  0.1218
  137HFI     F2 2126   1.227   1.517   3.441 -0.1101  0.3073  0.1494
  137HFI     F3 2127   1.288   1.353   3.554 -0.1867 -0.8385 -0.0261
  137HFI     C3 2128   0.932   1.445   3.503 -0.1552  0.2409 -0.7135
  137HFI     F4 2129   0.937   1.524   3.393  0.1343  0.4891  0.4796
  137HFI     F5 2130   0.918   1.528   3.609 -0.3428  0.1323 -0.0115
  137HFI     F6 2131   0.822   1.371   3.488 -0.0736  0.1277 -0.1854
  137HFI     H1 2132   1.125   1.184   3.606 -0.2523 -1.0739 -2.4777
  137HFI     H2 2133   1.068   1.317   3.411 -2.3309 -2.0625  0.5715
  138HFI     O1 2134   3.045   3.004   3.092 -0.4857  0.4073 -0.2376
  138HFI     C1 2135   3.106   2.993   3.223 -0.4044  0.2103 -0.1713
  138HFI     C2 2136   3.119   3.123   3.303  0.9469  0.0065 -0.2187
  138HFI     F1 2137   3.000   3.182   3.326  0.0870  0.1348 -0.3161
  138HFI     F2 2138   3.195   3.213   3.239 -0.4917 -0.4583  0.9889
  138HFI     F3 2139   3.172   3.102   3.424 -0.0414 -0.5760  0.3348
  138HFI     C3 2140   3.237   2.904   3.221 -0.5114 -0.4585 -0.4804
  138HFI     F4 2141   3.259   2.845   3.341  0.0271  0.3003 -0.1923
  138HFI     F5 2142   3.352   2.976   3.195  0.7029  0.3783  0.6138
  138HFI     F6 2143   3.233   2.796   3.133  0.6001 -0.7847 -0.2257
  138HFI     H1 2144   3.087   3.078   3.045  0.7674  0.4857  0.9709
  138HFI     H2 2145   3.033   2.941   3.286 -0.9158 -0.0549 -0.9700
  139HFI     O1 2146   0.074   0.488   1.407 -0.3447  0.4830  0.2121
  139HFI     C1 2147  -0.060   0.437   1.461 -0.5370 -0.2864  0.0248
  139HFI     C2 2148  -0.132   0.345   1.364 -0.9844  0.6022  0.3800
  139HFI     F1 2149  -0.243   0.287   1.416 -0.5876 -0.1595  0.2388
  139HFI     F2 2150  -0.049   0.247   1.318  0.0751  0.0354 -0.2842
  139HFI     F3 2151  -0.174   0.404   1.251  0.3031  0.2051  0.2188
  139HFI     C3 2152  -0.150   0.552   1.512 -0.4782  0.9669 -0.2153
  139HFI     F4 2153  -0.072   0.617   1.599  0.0063  0.0531 -0.3354
  139HFI     F5 2154  -0.255   0.512   1.585  0.0499  0.3604 -0.0250
  139HFI     F6 2155  -0.180   0.636   1.412 -0.3244 -0.0958 -0.6000
  139HFI     H1 2156   0.063   0.579   1.376 -1.0551  0.5945  0.7827
  139HFI     H2 2157  -0.033   0.366   1.540  1.8892  1.0143  0.4072
  140HFI     O1 2158   3.302   1.957   0.748 -0.8176 -0.0679 -0.1313
  140HFI     C1 2159   3.312   1.974   0.606 -0.4688  0.4169 -0.4131
  140HFI     C2 2160   3.410   2.089   0.565  0.3092  0.1147 -0.4295
  140HFI     F1 2161   3.432   2.088   0.431 -0.3396  0.2319 -0.0352
  140HFI     F2 2162   3.526   2.069   0.618  0.0146 -0.2534  0.0778
  140HFI     F3 2163   3.370   2.211   0.605 -0.7267  0.4031 -0.3038
  140HFI     C3 2164   3.175   1.993   0.529 -0.0272 -0.4931 -1.0145
  140HFI     F4 2165   3.092   1.895   0.562  0.2829 -0.4177 -0.0277
  140HFI     F5 2166   3.185   1.982   0.386  0.5854 -0.0638  0.1945
  140HFI     F6 2167   3.122   2.112   0.559 -0.2209 -0.3861 -0.5301
  140HFI     H1 2168   3.387   1.925   0.783  0.0438  0.8492 -1.3627
  140HFI     H2 2169   3.341   1.877   0.565 -1.6030 -0.2766  0.4183
  141HFI     O1 2170   2.469   3.414   0.548  0.6549 -0.0498 -0.1966
  141HFI     C1 2171   2.485   3.278   0.490 -0.2966  0.3105 -0.2124
  141HFI     C2 2172   2.622   3.223   0.533 -0.5045 -0.6528 -0.4468
  141HFI     F1 2173   2.636   3.095   0.494 -0.1918  0.1730  0.4474
  141HFI     F2 2174   2.625   3.228   0.662 -0.2886  0.1090  0.2687
  141HFI     F3 2175   2.729   3.298   0.493  0.1216  0.3724 -0.2535
  141HFI     C3 2176   2.473   3.281   0.334  0.6077  0.1681  0.1508
  141HFI     F4 2177   2.513   3.173   0.267  0.2511  0.6490 -0.8929
  141HFI     F5 2178   2.559   3.375   0.297  0.3506  0.6270 -0.7506
  141HFI     F6 2179   2.348   3.308   0.297  0.1537 -0.0827  0.4000
  141HFI     H1 2180   2.489   3.403   0.642  1.0276 -1.8912 -0.4738
  141HFI     H2 2181   2.404   3.208   0.515  0.8196 -1.3679 -1.2223
  142HFI     O1 2182   0.218   0.361   3.763 -0.3891  0.1322  0.2987
  142HFI     C1 2183   0.291   0.492   3.766 -0.2311 -0.3589 -0.1755
  142HFI     C2 2184   0.394   0.502   3.645 -0.5310 -0.4269 -0.4206
  142HFI     F1 2185   0.480   0.606   3.657 -0.4749  0.5161 -0.6022
  142HFI     F2 2186   0.316   0.513   3.533  0.2051  0.6580 -0.4591
  142HFI     F3 2187   0.464   0.390   3.641 -0.4325 -0.2909  0.0896
  142HFI     C3 2188   0.365   0.514   3.900  0.1247  0.7121 -0.8555
  142HFI     F4 2189   0.413   0.641   3.909  0.0696 -0.5050  0.3960
  142HFI     F5 2190   0.452   0.416   3.925 -0.1495  0.5283 -0.0700
  142HFI     F6 2191   0.274   0.509   3.999  0.0822 -0.3410  0.0544
  142HFI     H1 2192   0.158   0.360   3.840  2.6636 -0.1227  2.7373
  142HFI     H2 2193   0.225   0.580   3.761 -0.4021 -0.5133 -0.6810
  143HFI     O1 2194   1.964   0.606   0.907 -0.2755  0.0529  0.2663
  143HFI     C1 2195   2.088   0.534   0.923  0.2861  0.1661  0.2311
  143HFI     C2 2196   2.122   0.518   1.073 -1.2805  0.5224 -0.0702
  143HFI     F1 2197   2.166   0.631   1.129 -0.1693  0.3454  0.3775
  143HFI     F2 2198   2.215   0.417   1.087  0.1250  0.2961  0.0280
  143HFI     F3 2199   2.019   0.472   1.146  0.7942 -0.3861  0.5553
  143HFI     C3 2200   2.207   0.599   0.846 -0.1425 -0.1211 -0.1985
  143HFI     F4 2201   2.181   0.614   0.719 -0.1202 -0.0562 -0.6117
  143HFI     F5 2202   2.321   0.526   0.855  0.8158 -0.6098  0.2534
  143HFI     F6 2203   2.236   0.723   0.890 -0.1594 -0.0323 -0.6319
  143HFI     H1 2204   1.960   0.684   0.965  2.9564  1.7491 -1.6204
  143HFI     H2 2205   2.086   0.434   0.878  1.5384 -0.6543  1.9130
  144HFI     O1 2206   2.843   0.333   2.604  0.0927 -0.7747  0.5411
  144HFI     C1 2207   2.966   0.260   2.576 -0.0048 -0.5497 -0.4734
  144HFI     C2 2208   3.039   0.204   2.702  0.3345 -0.8914  0.4065
  144HFI     F1 2209   2.948   0.161   2.788  0.3045  0.7179 -0.1634
  144HFI     F2 2210   3.113   0.300   2.757  0.2921  0.3635 -0.2382
  144HFI     F3 2211   3.116   0.097   2.663  0.4937  0.2382  0.0804
  144HFI     C3 2212   3.061   0.329   2.474 -0.5082 -0.4909 -0.1783
  144HFI     F4 2213   3.106   0.447   2.527  0.1684 -0.1693 -0.0031
  144HFI     F5 2214   2.999   0.358   2.358 -0.3383  0.1895 -0.2854
  144HFI     F6 2215   3.170   0.251   2.445  0.7913 -0.2182  0.2323
  144HFI     H1 2216   2.840   0.364   2.696  0.1934  1.6946 -0.2427
  144HFI     H2 2217   2.948   0.166   2.522 -2.2253 -0.0772 -0.5971
  145HFI     O1 2218   1.831   1.424   1.022  0.4527 -0.6274  0.2880
  145HFI     C1 2219   1.712   1.497   1.054  0.6067  0.3938  0.5399
  145HFI     C2 2220   1.578   1.427   1.010 -0.2629 -0.2778  1.4414
  145HFI     F1 2221   1.474   1.509   1.016 -0.0157 -0.3499 -0.2882
  145HFI     F2 2222   1.544   1.328   1.088  0.1041  0.0774 -0.2338
  145HFI     F3 2223   1.579   1.375   0.882 -0.2707  0.0863  0.4298
  145HFI     C3 2224   1.718   1.646   0.995  0.3523  0.4411  0.4361
  145HFI     F4 2225   1.679   1.641   0.860  0.2162 -0.3287 -1.1864
  145HFI     F5 2226   1.847   1.695   1.001  0.4649 -0.2073 -0.2816
  145HFI     F6 2227   1.642   1.735   1.064  0.2293  0.1522 -0.6584
  145HFI     H1 2228   1.814   1.328   1.028  1.5561 -0.7591  1.5737
  145HFI     H2 2229   1.708   1.507   1.163 -2.6698 -0.4475  0.5705
  146HFI     O1 2230   2.664   0.237   0.148  0.2766  0.0489 -0.0242
  146HFI     C1 2231   2.654   0.171   0.011  0.4074 -0.2411  0.1851
  146HFI     C2 2232   2.523   0.089  -0.017  0.9732  0.4979 -0.0077
  146HFI     F1 2233   2.468   0.117  -0.139  0.3003  0.1009  0.5376
  146HFI     F2 2234   2.435   0.117   0.081 -0.7392 -0.0276  0.2618
  146HFI     F3 2235   2.542  -0.042  -0.016 -0.1269 -0.0822 -0.2311
  146HFI     C3 2236   2.785   0.096  -0.018 -0.6593  0.0258 -0.3769
  146HFI     F4 2237   2.897   0.169  -0.017 -0.3050  0.7244 -0.2379
  146HFI     F5 2238   2.780   0.046  -0.137 -0.0847  0.3695  0.0609
  146HFI     F6 2239   2.814  -0.004   0.075 -0.0578 -0.1600  0.3112
  146HFI     H1 2240   2.657   0.167   0.215 -2.0243 -0.4588 -0.7293
  146HFI     H2 2241   2.646   0.255  -0.058 -0.3808  0.3945  1.0324
  147HFI     O1 2242   1.552   2.273   2.428 -0.1977  0.2227 -0.4173
  147HFI     C1 2243   1.461   2.319   2.322  0.3246 -0.8423  0.3873
  147HFI     C2 2244   1.487   2.466   2.290  0.9142  0.4621 -1.3346
  147HFI     F1 2245   1.425   2.499   2.176  0.4953  0.0446  0.2035
  147HFI     F2 2246   1.623   2.489   2.274  0.2664 -0.3205  0.2938
  147HFI     F3 2247   1.451   2.552   2.389  0.2270 -0.2509  0.2816
  147HFI     C3 2248   1.316   2.285   2.343 -0.1155  0.5669 -0.1858
  147HFI     F4 2249   1.267   2.369   2.437 -0.1742  0.1307 -0.3098
  147HFI     F5 2250   1.294   2.159   2.378  0.5316  0.1921 -0.0749
  147HFI     F6 2251   1.243   2.308   2.229 -0.0912  0.2822  0.4773
  147HFI     H1 2252   1.506   2.275   2.513 -0.6055  0.0615 -0.6364
  147HFI     H2 2253   1.489   2.270   2.227  0.5662 -0.6719  0.3700
  148HFI     O1 2254   1.403   1.142   2.974  0.1977  0.8757  0.0951
  148HFI     C1 2255   1.274   1.175   3.033 -1.0071 -0.0647  0.4029
  148HFI     C2 2256   1.151   1.171   2.941 -0.0621  0.7033  1.0178
  148HFI     F1 2257   1.162   1.268   2.849 -0.2857 -0.2064  0.6702
  148HFI     F2 2258   1.037   1.203   3.006 -0.3360  0.1492  0.2624
  148HFI     F3 2259   1.139   1.046   2.883  0.6746  0.0784  0.7326
  148HFI     C3 2260   1.279   1.311   3.118 -0.5436 -0.0714  0.6862
  148HFI     F4 2261   1.396   1.314   3.183 -0.6366 -0.1929 -0.3278
  148HFI     F5 2262   1.181   1.317   3.209  0.0773 -0.2165  0.1978
  148HFI     F6 2263   1.281   1.424   3.037  0.1462 -0.1569  0.0622
  148HFI     H1 2264   1.471   1.185   3.029  1.4610 -0.1033 -0.6636
  148HFI     H2 2265   1.247   1.093   3.101 -0.8979 -0.0780  0.4309
  149HFI     O1 2266   1.471   0.395   3.287 -0.9664  0.1296 -0.3279
  149HFI     C1 2267   1.534   0.271   3.238  0.0855 -0.8735  0.3580
  149HFI     C2 2268   1.432   0.159   3.199  0.2477  0.2002  0.5664
  149HFI     F1 2269   1.383   0.090   3.308  0.5511 -0.3759  0.1495
  149HFI     F2 2270   1.486   0.073   3.113 -0.9853 -0.7795 -0.1489
  149HFI     F3 2271   1.331   0.222   3.139  0.1600  0.0529  0.0942
  149HFI     C3 2272   1.653   0.219   3.332 -0.3447 -0.0064 -0.1858
  149HFI     F4 2273   1.602   0.159   3.447 -0.2844 -0.1563  0.7980
  149HFI     F5 2274   1.738   0.311   3.372  0.9855 -0.2835  0.3218
  149HFI     F6 2275   1.728   0.124   3.269 -0.0633 -0.2298 -0.0842
  149HFI     H1 2276   1.429   0.376   3.373  1.4030 -1.9437  0.4357
  149HFI     H2 2277   1.579   0.297   3.141 -3.2943  2.0124 -0.5472
  150HFI     O1 2278   1.451   2.298   2.932  0.3842 -0.0965  0.4438
  150HFI     C1 2279   1.326   2.362   2.930 -0.0936  0.0642 -0.0303
  150HFI     C2 2280   1.264   2.365   2.785 -0.4140 -0.0070 -0.3026
  150HFI     F1 2281   1.255   2.241   2.730  0.0142 -0.2382 -0.0854
  150HFI     F2 2282   1.340   2.446   2.706  0.0180 -0.0121  0.0210
  150HFI     F3 2283   1.141   2.412   2.788  0.2065 -0.9180 -0.0317
  150HFI     C3 2284   1.334   2.500   3.001 -0.1509  0.1917  0.0308
  150HFI     F4 2285   1.391   2.481   3.124 -0.0237  0.5586 -0.1180
  150HFI     F5 2286   1.215   2.561   3.008  0.1155 -0.1563 -0.4451
  150HFI     F6 2287   1.417   2.580   2.925  0.2143  0.1007  0.0585
  150HFI     H1 2288   1.505   2.322   2.855 -0.8877  1.2816 -0.0571
  150HFI     H2 2289   1.258   2.299   2.988 -0.5235  0.1464 -0.4490
  151HFI     O1 2290   2.444   3.079   3.660  0.1356  0.2443 -0.1306
  151HFI     C1 2291   2.355   3.002   3.748  0.0866  0.1141  0.2330
  151HFI     C2 2292   2.362   2.853   3.716 -0.0196 -0.3461  0.1731
  151HFI     F1 2293   2.346   2.824   3.586  0.0338 -0.3025  0.5476
  151HFI     F2 2294   2.278   2.777   3.787 -0.0357 -0.0434  0.0985
  151HFI     F3 2295   2.487   2.808   3.740 -0.3151 -0.0770 -0.1312
  151HFI     C3 2296   2.213   3.066   3.757 -0.2460 -0.1888  0.7484
  151HFI     F4 2297   2.135   3.002   3.838 -0.6074 -0.7896 -0.6662
  151HFI     F5 2298   2.159   3.071   3.636 -0.3648 -0.2508 -0.4414
  151HFI     F6 2299   2.222   3.195   3.806 -0.0139 -0.2813  0.4984
  151HFI     H1 2300   2.389   3.098   3.581  2.3131 -0.1944 -1.8035
  151HFI     H2 2301   2.386   3.008   3.853  1.0123  0.1968 -0.0490
  152HFI     O1 2302   0.335   3.274   1.040 -0.1019 -0.3135 -0.4433
  152HFI     C1 2303   0.480   3.295   1.039 -0.2809 -0.0273  0.2668
  152HFI     C2 2304   0.541   3.299   0.898  0.1199  0.3654  0.1878
  152HFI     F1 2305   0.496   3.399   0.837  0.2756  0.4526 -0.5146
  152HFI     F2 2306   0.513   3.194   0.810 -0.7217 -0.1228 -0.6270
  152HFI     F3 2307   0.672   3.302   0.898 -0.0522  0.0603  0.2847
  152HFI     C3 2308   0.547   3.181   1.125 -0.6923 -0.7290 -0.4667
  152HFI     F4 2309   0.496   3.185   1.254  0.2078 -0.4349 -0.2002
  152HFI     F5 2310   0.686   3.197   1.135  0.0234 -0.1158 -0.0718
  152HFI     F6 2311   0.516   3.064   1.062  0.2590 -0.0561 -0.1222
  152HFI     H1 2312   0.317   3.180   1.025 -0.1558 -0.4052  0.1723
  152HFI     H2 2313   0.504   3.392   1.083 -3.4479  0.7538  0.3805
  153HFI     O1 2314   2.631   2.479   3.583 -0.2192 -0.2681 -0.0735
  153HFI     C1 2315   2.731   2.396   3.624 -0.0358 -0.0227  0.7305
  153HFI     C2 2316   2.751   2.285   3.519 -0.2353 -0.0721  0.1090
  153HFI     F1 2317   2.654   2.192   3.514 -0.5136 -0.3457  0.3766
  153HFI     F2 2318   2.869   2.222   3.539  0.2848 -0.0775 -0.2712
  153HFI     F3 2319   2.765   2.331   3.390  0.5091  0.0447 -0.3276
  153HFI     C3 2320   2.701   2.342   3.770  0.4237  0.7321  0.1204
  153HFI     F4 2321   2.570   2.308   3.775  0.1619 -0.1824 -0.0653
  153HFI     F5 2322   2.721   2.441   3.863 -0.1625  0.5395 -0.1610
  153HFI     F6 2323   2.778   2.230   3.807  0.6370  0.0887 -0.3156
  153HFI     H1 2324   2.546   2.436   3.601 -0.9694  0.7793 -1.0023
  153HFI     H2 2325   2.828   2.447   3.630  0.5097 -0.8955 -0.3685
  154HFI     O1 2326   0.646   1.615   3.331  0.4673  0.0278  0.2837
  154HFI     C1 2327   0.596   1.620   3.199  0.0356  0.0619 -0.0189
  154HFI     C2 2328   0.449   1.569   3.194 -0.2001 -0.0960  0.3411
  154HFI     F1 2329   0.374   1.659   3.253  0.6550  0.2923  0.2740
  154HFI     F2 2330   0.429   1.462   3.271  0.0432  0.3342  0.2219
  154HFI     F3 2331   0.393   1.538   3.069 -0.1245 -0.7733 -0.0553
  154HFI     C3 2332   0.691   1.551   3.090  0.2583 -0.2471  0.0756
  154HFI     F4 2333   0.663   1.420   3.082  0.2403  0.8969 -0.0329
  154HFI     F5 2334   0.822   1.568   3.116 -0.1717  0.4508 -0.2093
  154HFI     F6 2335   0.660   1.603   2.971  0.7413  0.4531 -0.3041
  154HFI     H1 2336   0.736   1.648   3.318  0.1693  0.6727 -0.1512
  154HFI     H2 2337   0.600   1.722   3.159 -0.2720  0.2070  0.3136
  155HFI     O1 2338   2.889   1.698   3.500  0.4685  0.6146  0.2921
  155HFI     C1 2339   2.816   1.697   3.372  0.0235  0.8294 -0.0065
  155HFI     C2 2340   2.851   1.567   3.291 -0.2417  0.2878 -0.1452
  155HFI     F1 2341   2.796   1.561   3.170  0.0387 -0.2273  0.5171
  155HFI     F2 2342   2.807   1.457   3.362  0.0754 -0.0061  0.2953
  155HFI     F3 2343   2.982   1.549   3.278  0.5615 -0.0629 -0.0015
  155HFI     C3 2344   2.838   1.817   3.275  0.7736 -0.9439  0.1272
  155HFI     F4 2345   2.807   1.934   3.342  0.0003 -0.3380  0.1152
  155HFI     F5 2346   2.760   1.812   3.170 -0.2181 -0.1444  0.3147
  155HFI     F6 2347   2.967   1.824   3.242 -0.1754 -0.0618 -0.4933
  155HFI     H1 2348   2.869   1.784   3.542 -2.7450  0.2068 -0.2857
  155HFI     H2 2349   2.710   1.696   3.399 -0.6233  3.0464 -2.2611
  156HFI     O1 2350   0.781   2.423   0.638  0.5120  0.3041 -0.3509
  156HFI     C1 2351   0.914   2.370   0.642  0.0345 -0.2381  0.5285
  156HFI     C2 2352   0.950   2.287   0.767  0.1652 -0.9315  0.0192
  156HFI     F1 2353   1.061   2.214   0.737  0.2909 -0.4796  0.6459
  156HFI     F2 2354   0.859   2.196   0.799 -0.1606 -0.1956 -0.1980
  156HFI     F3 2355   0.965   2.361   0.873  0.1138  0.3064  0.7196
  156HFI     C3 2356   1.014   2.480   0.599 -0.5514  1.1113 -0.2915
  156HFI     F4 2357   0.970   2.539   0.488 -0.2755  0.6054  0.5003
  156HFI     F5 2358   1.135   2.421   0.568 -0.2910  0.4903  0.4401
  156HFI     F6 2359   1.038   2.574   0.690  0.4329  0.4963  0.0347
  156HFI     H1 2360   0.782   2.517   0.613 -1.8860  0.5428  0.4075
  156HFI     H2 2361   0.931   2.302   0.558 -2.3543 -0.1648 -0.0528
  157HFI     O1 2362   2.721   3.061   3.040  0.4039 -0.3659 -0.1699
  157HFI     C1 2363   2.696   3.086   2.895 -0.2479  0.3750 -0.7895
  157HFI     C2 2364   2.834   3.106   2.815  0.4880 -0.3733  0.1927
  157HFI     F1 2365   2.893   3.223   2.847 -0.1048 -0.4159 -0.2233
  157HFI     F2 2366   2.821   3.101   2.683 -0.5250 -0.4808 -0.2553
  157HFI     F3 2367   2.921   3.010   2.854 -0.0924  0.2262  0.8391
  157HFI     C3 2368   2.590   3.206   2.880  0.0120 -0.7861 -0.6468
  157HFI     F4 2369   2.653   3.324   2.891  0.1709 -0.4845 -0.4246
  157HFI     F5 2370   2.489   3.203   2.972 -0.4691 -0.4224  0.1305
  157HFI     F6 2371   2.536   3.199   2.759  0.1735  0.2122 -0.0183
  157HFI     H1 2372   2.783   2.988   3.054 -0.9787 -1.1795  2.0961
  157HFI     H2 2373   2.646   3.002   2.845  1.2067 -0.7621 -0.3639
  158HFI     O1 2374   2.110   0.493   3.616  0.4194 -0.2636  0.3845
  158HFI     C1 2375   2.198   0.609   3.585  0.1402  0.6936 -0.6127
  158HFI     C2 2376   2.301   0.565   3.477 -0.0966  0.3504  0.5519
  158HFI     F1 2377   2.246   0.589   3.356  0.2060 -0.2376 -0.3152
  158HFI     F2 2378   2.330   0.433   3.483  0.3289 -0.2845  0.2946
  158HFI     F3 2379   2.414   0.639   3.489 -0.0250 -0.1232  0.9814
  158HFI     C3 2380   2.255   0.672   3.719  0.0116 -0.3259  0.2207
  158HFI     F4 2381   2.323   0.575   3.785  0.5207  0.2270 -0.0878
  158HFI     F5 2382   2.150   0.711   3.795  0.3600 -0.1895 -0.2212
  158HFI     F6 2383   2.346   0.772   3.694  0.3050  0.2865 -0.3227
  158HFI     H1 2384   2.147   0.403   3.618 -1.9484 -1.3601 -1.6521
  158HFI     H2 2385   2.132   0.686   3.544  1.0274  3.0137  2.0839
  159HFI     O1 2386   3.090   1.576   0.514  0.4978  0.0181  0.0343
  159HFI     C1 2387   3.162   1.477   0.589  0.6262 -0.3712  0.0023
  159HFI     C2 2388   3.072   1.346   0.599 -0.7498  0.0105 -0.0625
  159HFI     F1 2389   2.959   1.367   0.668 -0.2381  0.2479 -0.3426
  159HFI     F2 2390   3.134   1.244   0.660 -0.0676  0.2974 -0.1840
  159HFI     F3 2391   3.041   1.299   0.474  0.4592  0.6120 -0.6185
  159HFI     C3 2392   3.210   1.533   0.724 -0.5310 -0.6737 -0.0464
  159HFI     F4 2393   3.274   1.438   0.793 -0.2481  0.0872 -0.5113
  159HFI     F5 2394   3.110   1.589   0.796 -0.6875  0.0500  0.1266
  159HFI     F6 2395   3.299   1.636   0.704 -0.5642 -0.0302  0.2180
  159HFI     H1 2396   3.005   1.607   0.551  0.9060  1.9064 -0.5243
  159HFI     H2 2397   3.256   1.447   0.540 -0.7704 -2.6932 -1.3583
  160HFI     O1 2398   2.233   0.917   0.610 -0.1500  0.7920  0.8203
  160HFI     C1 2399   2.217   0.931   0.465  0.2217 -0.0529 -0.3445
  160HFI     C2 2400   2.291   0.823   0.382 -0.3970  0.8225 -0.2708
  160HFI     F1 2401   2.295   0.845   0.256  0.5878 -0.4449  0.1505
  160HFI     F2 2402   2.239   0.703   0.403  0.0237  0.0449 -0.1670
  160HFI     F3 2403   2.423   0.814   0.429  0.1565 -0.1691  0.0609
  160HFI     C3 2404   2.270   1.078   0.412  0.4296  0.2871  0.7331
  160HFI     F4 2405   2.229   1.111   0.287  0.1082 -0.5318 -0.2379
  160HFI     F5 2406   2.406   1.083   0.419  0.7465  0.7523  0.0175
  160HFI     F6 2407   2.237   1.172   0.491 -0.2730  0.0927  0.0383
  160HFI     H1 2408   2.321   0.876   0.621  0.0200  0.5156 -1.3285
  160HFI     H2 2409   2.114   0.918   0.429  0.0514  2.0363 -0.6591
  161HFI     O1 2410   2.490   3.366   2.211 -0.2928 -0.1365  0.1514
  161HFI     C1 2411   2.406   3.253   2.254  0.2646 -0.1459 -0.0037
  161HFI     C2 2412   2.271   3.297   2.321 -0.8045  0.4652 -0.3979
  161HFI     F1 2413   2.184   3.194   2.325  0.1514  0.1749 -0.3066
  161HFI     F2 2414   2.216   3.396   2.248 -0.3522 -0.0039  0.4156
  161HFI     F3 2415   2.288   3.333   2.445  0.8961  0.3436 -0.0502
  161HFI     C3 2416   2.478   3.160   2.338 -0.9308  0.3159  0.1842
  161HFI     F4 2417   2.587   3.107   2.277 -0.8620 -0.4013 -0.1801
  161HFI     F5 2418   2.409   3.058   2.380 -0.1001 -0.1505 -0.4468
  161HFI     F6 2419   2.530   3.223   2.445  0.1688  0.3119 -0.3153
  161HFI     H1 2420   2.524   3.418   2.286  1.0253  0.4761 -0.8703
  161HFI     H2 2421   2.375   3.206   2.160  0.6164  1.0986 -0.7607
  162HFI     O1 2422   2.118   2.885   2.377 -0.1240 -0.6857 -0.1347
  162HFI     C1 2423   2.138   2.768   2.298 -0.1332 -0.3706  0.4816
  162HFI     C2 2424   2.038   2.656   2.342 -0.6544 -0.1302  0.0913
  162HFI     F1 2425   2.015   2.571   2.237 -0.1512  0.2234  0.1871
  162HFI     F2 2426   1.922   2.710   2.375  0.4315  0.5365 -0.0584
  162HFI     F3 2427   2.082   2.588   2.449 -0.1510  0.6142 -0.0000
  162HFI     C3 2428   2.291   2.722   2.298  0.2819  0.4949  0.1609
  162HFI     F4 2429   2.331   2.699   2.427 -0.0029  0.4651 -0.1331
  162HFI     F5 2430   2.373   2.823   2.247  0.3662 -0.0210  0.3564
  162HFI     F6 2431   2.314   2.615   2.226  0.0866 -0.0433 -0.0813
  162HFI     H1 2432   2.200   2.928   2.406 -0.9707  0.6807  0.2961
  162HFI     H2 2433   2.112   2.792   2.194  1.0390  0.5701  0.3860
  163HFI     O1 2434   1.449   0.807   0.013  0.4394 -0.3984  0.1853
  163HFI     C1 2435   1.406   0.934   0.074  0.4701 -1.1045 -0.0403
  163HFI     C2 2436   1.250   0.921   0.108 -0.3445 -0.4960  0.4471
  163HFI     F1 2437   1.230   0.846   0.216  0.3964  0.2171 -0.1455
  163HFI     F2 2438   1.182   0.875   0.007  0.5967  0.5565  0.4301
  163HFI     F3 2439   1.194   1.049   0.129  0.0091  0.4893 -0.3526
  163HFI     C3 2440   1.434   1.054  -0.028  0.1551  0.3302 -0.8057
  163HFI     F4 2441   1.549   1.034  -0.090  0.3313  0.0310  0.2289
  163HFI     F5 2442   1.447   1.174   0.030 -0.2143 -0.4023 -0.2873
  163HFI     F6 2443   1.337   1.063  -0.128  0.2493 -0.4960 -0.0431
  163HFI     H1 2444   1.534   0.820  -0.032 -0.2517  1.1795 -0.7008
  163HFI     H2 2445   1.462   0.943   0.168  2.1954 -0.8864 -1.0625
  164HFI     O1 2446   0.663   1.675   1.552  0.2079  0.2926  0.5545
  164HFI     C1 2447   0.649   1.777   1.449 -0.0242 -0.6823  0.0860
  164HFI     C2 2448   0.601   1.720   1.319  0.0686 -0.2626 -0.0700
  164HFI     F1 2449   0.684   1.628   1.266  0.1526 -0.1259 -0.5479
  164HFI     F2 2450   0.576   1.814   1.227 -0.8214  0.2881 -0.1422
  164HFI     F3 2451   0.481   1.661   1.334  0.4617  0.1121  0.4341
  164HFI     C3 2452   0.782   1.857   1.433 -0.1584 -0.3914 -0.1778
  164HFI     F4 2453   0.884   1.782   1.377 -0.4097 -0.0103 -0.6723
  164HFI     F5 2454   0.822   1.914   1.551  0.1201 -0.3409  0.0518
  164HFI     F6 2455   0.763   1.958   1.343 -0.2012  0.3655  0.4320
  164HFI     H1 2456   0.720   1.604   1.519 -0.0461  0.3909 -0.1112
  164HFI     H2 2457   0.573   1.846   1.489  1.6265 -0.9764  3.9579
  165HFI     O1 2458   1.127   0.573   3.046  0.1773 -0.0594 -0.9510
  165HFI     C1 2459   1.216   0.515   2.944  0.2501  0.6980  0.2768
  165HFI     C2 2460   1.313   0.620   2.883  0.4132 -0.1604 -0.1853
  165HFI     F1 2461   1.247   0.709   2.806 -0.5303 -0.1852  0.0014
  165HFI     F2 2462   1.413   0.562   2.810  0.5006 -0.5206 -0.1732
  165HFI     F3 2463   1.371   0.696   2.983 -0.1536  0.0266 -0.1955
  165HFI     C3 2464   1.157   0.411   2.847  0.0412  0.5458  0.7272
  165HFI     F4 2465   1.127   0.470   2.726 -0.2825 -0.3451  0.0316
  165HFI     F5 2466   1.040   0.361   2.895  0.0191 -0.1165  0.2121
  165HFI     F6 2467   1.240   0.310   2.824 -0.6666 -0.4003 -0.4671
  165HFI     H1 2468   1.046   0.596   2.997 -0.6392 -0.3608  0.2578
  165HFI     H2 2469   1.284   0.452   3.004 -0.8646  0.3318  1.1707
  166HFI     O1 2470   0.591   3.101   2.851  0.0999 -0.2914  0.2714
  166HFI     C1 2471   0.702   3.017   2.811  0.0808  0.4125 -0.4811
  166HFI     C2 2472   0.657   2.883   2.747  0.0387  0.2055  0.5116
  166HFI     F1 2473   0.756   2.816   2.688  0.6198 -0.6046  0.2813
  166HFI     F2 2474   0.560   2.906   2.653  1.0046  0.3768 -0.0810
  166HFI     F3 2475   0.602   2.807   2.845  0.0941  0.0670 -0.2271
  166HFI     C3 2476   0.805   3.007   2.931  0.0749 -0.0143  0.3359
  166HFI     F4 2477   0.871   3.123   2.939  0.2104  0.1130  0.0414
  166HFI     F5 2478   0.897   2.905   2.924  0.2332  0.2177  0.5554
  166HFI     F6 2479   0.751   2.987   3.049  0.5170  0.3564  0.5639
  166HFI     H1 2480   0.545   3.043   2.915  0.2677 -1.0307 -0.2762
  166HFI     H2 2481   0.766   3.058   2.732 -0.9993 -0.2901 -1.7523
  167HFI     O1 2482   0.481   2.545   0.370  0.4450 -0.1658 -0.2649
  167HFI     C1 2483   0.388   2.432   0.363  0.2065 -0.1623  0.9328
  167HFI     C2 2484   0.266   2.462   0.276  0.1554  0.0105 -0.2425
  167HFI     F1 2485   0.312   2.490   0.152 -0.1688 -0.2889 -0.3612
  167HFI     F2 2486   0.190   2.569   0.322 -0.4272  0.7001  0.8141
  167HFI     F3 2487   0.183   2.357   0.264  0.7437 -0.1305 -0.5372
  167HFI     C3 2488   0.345   2.400   0.510 -0.3784  0.5610 -0.6922
  167HFI     F4 2489   0.454   2.369   0.593  0.0907 -0.2385  0.3851
  167HFI     F5 2490   0.263   2.297   0.507 -0.4751 -0.5533  0.0532
  167HFI     F6 2491   0.287   2.509   0.562  0.2161  0.3013 -0.1364
  167HFI     H1 2492   0.460   2.600   0.448 -1.8658  0.0383 -1.0010
  167HFI     H2 2493   0.439   2.345   0.319 -1.0888 -0.7535  0.5501
  168HFI     O1 2494   1.728   1.614   2.913 -0.3784 -0.3308  0.1832
  168HFI     C1 2495   1.719   1.595   2.764 -0.2024  0.4981  0.1659
  168HFI     C2 2496   1.617   1.700   2.711 -0.6816  0.2509 -0.0581
  168HFI     F1 2497   1.497   1.678   2.754 -0.2346 -0.3402  0.3593
  168HFI     F2 2498   1.608   1.687   2.582  0.1496 -0.0026 -0.5591
  168HFI     F3 2499   1.649   1.826   2.744 -0.2063 -0.2880 -0.0215
  168HFI     C3 2500   1.675   1.449   2.734  0.0518  0.2448 -0.1814
  168HFI     F4 2501   1.542   1.429   2.766  0.2463  0.0168 -0.4432
  168HFI     F5 2502   1.746   1.350   2.788 -0.2040 -0.3905  0.2719
  168HFI     F6 2503   1.689   1.434   2.599 -0.2226  0.8352  0.0350
  168HFI     H1 2504   1.773   1.698   2.928 -2.4021  0.6997  0.6225
  168HFI     H2 2505   1.818   1.607   2.718  1.4005 -3.1600  2.3685
  169HFI     O1 2506   1.058   1.596   2.519  0.1709  0.0196 -0.1125
  169HFI     C1 2507   1.049   1.540   2.655 -0.6759 -0.4766 -0.4939
  169HFI     C2 2508   0.920   1.451   2.672 -0.1839 -0.1020  0.2462
  169HFI     F1 2509   0.900   1.401   2.800  0.1631 -0.3517  0.0687
  169HFI     F2 2510   0.914   1.350   2.586 -0.0978  0.1496 -0.5181
  169HFI     F3 2511   0.810   1.521   2.643  0.0319 -0.4362 -0.0267
  169HFI     C3 2512   1.057   1.650   2.770 -0.1000  0.5491 -0.1354
  169HFI     F4 2513   1.144   1.750   2.738  0.3724 -0.6650 -0.2303
  169HFI     F5 2514   1.103   1.593   2.884  0.1251 -0.1642 -0.6209
  169HFI     F6 2515   0.933   1.704   2.788 -0.4162  0.2240  0.1012
  169HFI     H1 2516   0.988   1.664   2.518 -0.6869 -0.8445  0.0826
  169HFI     H2 2517   1.131   1.470   2.674  1.0687  1.4797 -0.5972
  170HFI     O1 2518   3.259   3.170   2.931 -0.4408  0.0593  0.0924
  170HFI     C1 2519   3.342   3.138   2.817 -0.1036  0.1281  0.7151
  170HFI     C2 2520   3.342   2.986   2.793 -0.3231 -0.3187 -0.5658
  170HFI     F1 2521   3.386   2.916   2.900 -0.3300  0.1384 -0.6023
  170HFI     F2 2522   3.406   2.950   2.683  0.1608  0.2439  0.4251
  170HFI     F3 2523   3.215   2.943   2.780  0.4406  0.0572  0.0252
  170HFI     C3 2524   3.482   3.198   2.823 -0.9123 -0.5227 -0.5044
  170HFI     F4 2525   3.464   3.327   2.851  0.0740  0.0450 -0.4796
  170HFI     F5 2526   3.542   3.189   2.698  0.1809  0.0438  0.0810
  170HFI     F6 2527   3.567   3.150   2.921  0.4368 -0.0000 -0.4599
  170HFI     H1 2528   3.301   3.246   2.975  2.1067 -1.3166  0.1458
  170HFI     H2 2529   3.297   3.183   2.728  1.4868 -1.0742 -0.7628
  171HFI     O1 2530   2.673   2.346   2.802  0.4620  0.6164  0.5625
  171HFI     C1 2531   2.792   2.266   2.825 -0.2610  0.4340  0.3821
  171HFI     C2 2532   2.923   2.351   2.823  0.4252  0.0400 -0.3011
  171HFI     F1 2533   2.923   2.446   2.916  0.0040 -0.4346 -0.4749
  171HFI     F2 2534   2.918   2.423   2.709 -0.7561  0.3794 -0.2621
  171HFI     F3 2535   3.036   2.280   2.826  0.2476 -0.3284  0.0128
  171HFI     C3 2536   2.801   2.144   2.724 -0.7004 -0.0934 -0.1207
  171HFI     F4 2537   2.847   2.183   2.602 -0.0803 -0.2656  0.1665
  171HFI     F5 2538   2.673   2.100   2.705  0.0931  0.0048 -0.0351
  171HFI     F6 2539   2.875   2.055   2.777 -0.3444  0.3954 -0.3714
  171HFI     H1 2540   2.704   2.392   2.722 -0.1691 -0.7878 -0.5062
  171HFI     H2 2541   2.783   2.231   2.929 -1.3395 -1.5223 -0.3535
  172HFI     O1 2542   2.498   0.424   2.497  0.1708  0.2572 -0.2550
  172HFI     C1 2543   2.597   0.399   2.390  0.6244  0.2150  0.4100
  172HFI     C2 2544   2.602   0.517   2.287 -0.0337 -1.4117  0.0535
  172HFI     F1 2545   2.486   0.522   2.221 -0.1069 -0.0544  0.5751
  172HFI     F2 2546   2.704   0.503   2.197 -0.0695  0.0079 -0.0280
  172HFI     F3 2547   2.615   0.630   2.345 -0.3321  0.3940 -0.1664
  172HFI     C3 2548   2.577   0.266   2.324 -0.1212  0.4830  0.3725
  172HFI     F4 2549   2.636   0.173   2.406  0.0064 -0.6831  0.4386
  172HFI     F5 2550   2.629   0.247   2.209 -0.3464 -0.0347  0.4287
  172HFI     F6 2551   2.452   0.228   2.314 -0.5477 -0.1567  0.2833
  172HFI     H1 2552   2.406   0.436   2.468  0.3177 -0.7437 -1.1656
  172HFI     H2 2553   2.698   0.386   2.432  0.2752  0.7334  1.4184
  173HFI     O1 2554   3.389   1.424   1.293 -0.2021  0.2195 -0.4129
  173HFI     C1 2555   3.473   1.352   1.384 -0.3162 -0.2011 -0.1852
  173HFI     C2 2556   3.427   1.356   1.532  0.0756 -0.0257 -1.2320
  173HFI     F1 2557   3.486   1.251   1.603  0.2844  0.0807 -0.1054
  173HFI     F2 2558   3.294   1.352   1.559  0.2321  0.2052  0.4456
  173HFI     F3 2559   3.476   1.469   1.596 -0.6530 -0.1987 -0.3138
  173HFI     C3 2560   3.625   1.398   1.371  0.1477  0.7627  0.2322
  173HFI     F4 2561   3.649   1.539   1.356 -0.3277  0.1515  0.2936
  173HFI     F5 2562   3.675   1.344   1.257 -0.1759 -0.2192  0.1451
  173HFI     F6 2563   3.707   1.352   1.469  0.4618  0.0590  0.7332
  173HFI     H1 2564   3.299   1.416   1.330  0.7669  1.2928  2.4003
  173HFI     H2 2565   3.482   1.244   1.369 -1.4238 -0.1405 -1.3591
  174HFI     O1 2566   0.016   0.312   2.298 -0.2983 -0.1396 -0.4728
  174HFI     C1 2567   0.104   0.211   2.262 -0.2574 -0.0843 -1.0538
  174HFI     C2 2568   0.040   0.070   2.289 -0.3122  0.0828  0.0863
  174HFI     F1 2569   0.017   0.049   2.420 -0.0612  0.1880 -0.5747
  174HFI     F2 2570   0.128  -0.025   2.249  0.0376 -0.1026  0.1729
  174HFI     F3 2571  -0.075   0.055   2.222  0.1096 -0.0876  0.4530
  174HFI     C3 2572   0.239   0.232   2.333 -0.3556  0.4737  0.4969
  174HFI     F4 2573   0.231   0.222   2.464 -0.4664 -0.6549  0.4285
  174HFI     F5 2574   0.284   0.354   2.310  0.3336  0.1876  0.1533
  174HFI     F6 2575   0.328   0.142   2.287  0.6354  0.4957  0.0065
  174HFI     H1 2576   0.003   0.311   2.394 -0.9752  1.6897 -0.5161
  174HFI     H2 2577   0.122   0.212   2.154  1.1535  0.2690 -0.8328
  175HFI     O1 2578   0.309   0.850   2.546 -0.8735  0.8819 -0.6912
  175HFI     C1 2579   0.359   0.880   2.412  0.2118 -0.4212  0.0697
  175HFI     C2 2580   0.259   0.960   2.326 -0.2823 -0.1485  0.4826
  175HFI     F1 2581   0.156   0.886   2.288 -0.4469 -0.2481 -0.3191
  175HFI     F2 2582   0.305   1.022   2.213 -0.2571  0.0398  0.1905
  175HFI     F3 2583   0.207   1.063   2.398 -0.0717 -0.7198  0.2603
  175HFI     C3 2584   0.407   0.756   2.335 -0.2796 -0.3099 -0.1784
  175HFI     F4 2585   0.463   0.770   2.218 -0.3168  0.3276 -0.1823
  175HFI     F5 2586   0.308   0.667   2.325 -0.0061  0.4496  0.4224
  175HFI     F6 2587   0.505   0.700   2.411  0.4188  0.3231 -0.1349
  175HFI     H1 2588   0.225   0.801   2.539  0.0671 -0.4602 -3.2512
  175HFI     H2 2589   0.446   0.947   2.412  0.1257 -0.3019 -0.7145
  176HFI     O1 2590   2.440   1.657   2.827 -0.3156  0.2580  0.2846
  176HFI     C1 2591   2.583   1.685   2.819 -0.2881 -0.0967 -0.2138
  176HFI     C2 2592   2.610   1.751   2.690 -0.2679  0.2507 -1.0259
  176HFI     F1 2593   2.537   1.864   2.676 -0.3320  0.2333 -0.3218
  176HFI     F2 2594   2.577   1.674   2.589  0.1425 -0.1576 -0.4523
  176HFI     F3 2595   2.744   1.784   2.687 -0.6524 -0.4689  0.5569
  176HFI     C3 2596   2.675   1.560   2.857 -0.2736 -0.1419  0.7427
  176HFI     F4 2597   2.796   1.593   2.898 -0.3529 -0.4625 -0.5312
  176HFI     F5 2598   2.690   1.473   2.752 -0.2135 -0.2455  0.0245
  176HFI     F6 2599   2.618   1.489   2.956 -0.3787  0.2678 -0.4523
  176HFI     H1 2600   2.430   1.562   2.808 -0.5133  0.3556 -0.1071
  176HFI     H2 2601   2.599   1.759   2.898 -2.9435  0.7459 -0.4097
  177HFI     O1 2602   0.680   3.164   2.478  0.2326 -0.1036  0.4355
  177HFI     C1 2603   0.547   3.151   2.411 -0.8404  0.3194  1.0558
  177HFI     C2 2604   0.563   3.173   2.258 -0.6419  0.2226  1.1166
  177HFI     F1 2605   0.608   3.300   2.238  0.1195  0.1692 -0.2827
  177HFI     F2 2606   0.448   3.167   2.193 -0.2242 -0.1437  0.3096
  177HFI     F3 2607   0.652   3.083   2.203  0.5517 -0.4365 -0.2329
  177HFI     C3 2608   0.444   3.247   2.480 -0.1205  0.0038 -0.7667
  177HFI     F4 2609   0.326   3.264   2.418 -0.3982  0.3037  0.6104
  177HFI     F5 2610   0.487   3.367   2.518 -0.2419  0.0204 -0.1770
  177HFI     F6 2611   0.406   3.179   2.591 -0.1530  0.0195 -0.3827
  177HFI     H1 2612   0.723   3.237   2.431 -0.6189 -0.6668 -1.2783
  177HFI     H2 2613   0.499   3.052   2.412 -0.0551 -0.0759 -0.0511
  178HFI     O1 2614   0.857   1.482   0.814 -0.1261 -0.4396 -0.1245
  178HFI     C1 2615   0.812   1.613   0.852  0.0164 -0.9069  0.2305
  178HFI     C2 2616   0.660   1.610   0.890  0.2964 -0.0271 -0.7757
  178HFI     F1 2617   0.640   1.522   0.987 -0.4859  0.3453  0.5360
  178HFI     F2 2618   0.574   1.590   0.786  0.1686 -0.2482  0.8185
  178HFI     F3 2619   0.627   1.730   0.931  0.4559  0.4669 -0.3449
  178HFI     C3 2620   0.839   1.730   0.751 -0.2241  0.5804  0.5980
  178HFI     F4 2621   0.767   1.706   0.638  0.3497  0.3032  0.1848
  178HFI     F5 2622   0.975   1.723   0.719  0.1724 -0.4071 -0.4736
  178HFI     F6 2623   0.813   1.852   0.806 -0.3209  0.1360  0.4069
  178HFI     H1 2624   0.847   1.467   0.719 -4.2567  0.1349  0.1162
  178HFI     H2 2625   0.855   1.643   0.949  0.3174 -0.8733  0.0889
  179HFI     O1 2626   2.721   0.745   0.686  0.5058 -0.2348  0.0131
  179HFI     C1 2627   2.712   0.891   0.646  0.8940  0.2281 -0.1196
  179HFI     C2 2628   2.855   0.949   0.635  0.4348 -0.1196  0.2923
  179HFI     F1 2629   2.944   0.865   0.565 -0.0740 -0.0225 -0.3422
  179HFI     F2 2630   2.913   0.971   0.758 -0.2370  0.1926 -0.0659
  179HFI     F3 2631   2.841   1.063   0.578 -0.1735 -0.2279 -0.3198
  179HFI     C3 2632   2.609   0.965   0.738 -0.2817 -0.4560  0.0743
  179HFI     F4 2633   2.604   1.099   0.705  0.3436  0.0815  0.0922
  179HFI     F5 2634   2.634   0.961   0.871  0.3083 -0.1221 -0.2155
  179HFI     F6 2635   2.482   0.910   0.724 -0.3490 -0.5198 -0.1140
  179HFI     H1 2636   2.808   0.725   0.726  0.2325 -2.7679 -0.5312
  179HFI     H2 2637   2.671   0.903   0.545  1.2170 -1.1966 -0.4221
  180HFI     O1 2638   2.758   0.173   1.349  0.0090 -0.5534 -0.2974
  180HFI     C1 2639   2.704   0.295   1.403  0.6062 -0.4002 -0.5611
  180HFI     C2 2640   2.816   0.398   1.426 -0.1959 -0.4850 -0.4533
  180HFI     F1 2641   2.885   0.362   1.523 -0.5850 -0.2664 -0.5050
  180HFI     F2 2642   2.764   0.523   1.454  0.3488 -0.0553 -0.1692
  180HFI     F3 2643   2.891   0.411   1.311  0.1953 -0.0025 -0.0567
  180HFI     C3 2644   2.619   0.260   1.527  0.0228 -0.2852  0.2563
  180HFI     F4 2645   2.565   0.367   1.590  0.0494 -0.4110  0.3323
  180HFI     F5 2646   2.689   0.187   1.620 -0.0494  0.4299 -0.1803
  180HFI     F6 2647   2.521   0.183   1.487 -0.0717 -0.6973  0.4114
  180HFI     H1 2648   2.825   0.196   1.282 -0.3972 -1.9975 -1.2116
  180HFI     H2 2649   2.639   0.350   1.334 -0.3845 -1.3947 -0.4286
  181HFI     O1 2650   0.654   0.073   3.114  0.0313  0.2055  0.2021
  181HFI     C1 2651   0.547  -0.001   3.049 -0.1082  0.3695 -0.4512
  181HFI     C2 2652   0.439   0.093   2.983  0.1145 -0.2358 -0.1371
  181HFI     F1 2653   0.377   0.159   3.080 -0.3909 -0.6006 -0.2163
  181HFI     F2 2654   0.342   0.038   2.904 -0.0389 -0.2874 -0.2598
  181HFI     F3 2655   0.497   0.183   2.907 -0.4137  0.0622 -0.2865
  181HFI     C3 2656   0.489  -0.110   3.136  0.2231 -0.1707  0.4634
  181HFI     F4 2657   0.424  -0.055   3.235 -0.8956  0.1809 -0.3160
  181HFI     F5 2658   0.583  -0.189   3.191  0.3630 -0.3358 -0.0172
  181HFI     F6 2659   0.400  -0.184   3.066 -0.7166  0.6965 -0.0646
  181HFI     H1 2660   0.605   0.132   3.174  1.7218  0.7979  1.0463
  181HFI     H2 2661   0.584  -0.057   2.962  2.5054 -0.3032  1.0425
  182HFI     O1 2662   0.204   1.156   3.595  0.2892  0.5280  0.5437
  182HFI     C1 2663   0.119   1.100   3.704  0.8659 -0.2666  0.1379
  182HFI     C2 2664   0.121   0.945   3.703  0.7702  0.0836  0.3862
  182HFI     F1 2665   0.053   0.872   3.801 -0.5297 -0.3402 -0.2428
  182HFI     F2 2666   0.244   0.898   3.720  0.0863  0.0349 -0.4826
  182HFI     F3 2667   0.082   0.895   3.579  0.4443  0.0340 -0.2427
  182HFI     C3 2668  -0.026   1.151   3.698 -0.7440  0.7940 -0.4588
  182HFI     F4 2669  -0.032   1.287   3.691  0.5835  0.6001 -0.7312
  182HFI     F5 2670  -0.083   1.119   3.813 -0.8432  0.3338 -0.4855
  182HFI     F6 2671  -0.100   1.092   3.603 -0.2777 -0.3095 -0.1775
  182HFI     H1 2672   0.166   1.144   3.506  2.1677  1.7168 -0.4504
  182HFI     H2 2673   0.165   1.134   3.798  2.2221  0.7902 -0.8848
  183HFI     O1 2674   2.645   0.828   1.165 -0.1982 -0.3720 -0.0117
  183HFI     C1 2675   2.708   0.708   1.128 -0.6325 -0.0289  0.2170
  183HFI     C2 2676   2.853   0.723   1.061 -0.4073 -0.3896  0.1843
  183HFI     F1 2677   2.918   0.608   1.079  0.6395  0.0652 -0.4066
  183HFI     F2 2678   2.911   0.820   1.128 -0.4168 -0.3565  0.4257
  183HFI     F3 2679   2.842   0.768   0.934 -0.0427  0.5098  0.8493
  183HFI     C3 2680   2.606   0.621   1.051  0.2154  0.2998 -0.4172
  183HFI     F4 2681   2.665   0.500   1.015  0.1957 -0.2161 -0.6376
  183HFI     F5 2682   2.568   0.676   0.935  0.2291  0.0053 -0.0372
  183HFI     F6 2683   2.494   0.600   1.129  0.7226 -0.6125  0.3614
  183HFI     H1 2684   2.634   0.872   1.079 -0.7702 -0.6030 -0.0574
  183HFI     H2 2685   2.741   0.658   1.220  1.6314 -0.9472 -1.0551
  184HFI     O1 2686   0.673   0.410   2.780 -0.5366  0.0661 -0.9849
  184HFI     C1 2687   0.621   0.546   2.813  0.6527 -0.0206 -0.1362
  184HFI     C2 2688   0.669   0.603   2.956  0.0147  0.0530  0.0465
  184HFI     F1 2689   0.803   0.606   2.970  0.2823 -0.0782 -0.3492
  184HFI     F2 2690   0.614   0.531   3.058 -0.5898  0.1150  0.2144
  184HFI     F3 2691   0.637   0.736   2.965  0.0133  0.3440 -0.3571
  184HFI     C3 2692   0.468   0.554   2.799  0.1932  0.3006  0.0304
  184HFI     F4 2693   0.444   0.517   2.677 -0.3397  0.0329  0.0507
  184HFI     F5 2694   0.412   0.672   2.821 -0.1263  0.1741 -0.1144
  184HFI     F6 2695   0.414   0.469   2.885 -0.3212 -0.1064  0.1504
  184HFI     H1 2696   0.635   0.343   2.839  1.0988  0.0360  0.0363
  184HFI     H2 2697   0.656   0.618   2.738 -3.3134  2.4820  0.2063
  185HFI     O1 2698   0.482   2.058   2.360  0.1847  0.2442 -0.5504
  185HFI     C1 2699   0.353   2.057   2.280  0.0045 -0.0379  0.0433
  185HFI     C2 2700   0.277   2.189   2.287 -0.1283 -0.4114 -0.2745
  185HFI     F1 2701   0.165   2.189   2.211  0.5504 -0.2308 -0.4084
  185HFI     F2 2702   0.357   2.290   2.232 -0.5183 -0.0885  0.4352
  185HFI     F3 2703   0.240   2.222   2.415 -0.5604  0.1264  0.0962
  185HFI     C3 2704   0.267   1.928   2.319  0.9482  0.0520  0.3168
  185HFI     F4 2705   0.171   1.910   2.225  0.1350 -0.0176  0.2537
  185HFI     F5 2706   0.201   1.946   2.438  0.4416 -0.1923 -0.2958
  185HFI     F6 2707   0.342   1.813   2.319  0.3739 -0.0050 -0.0241
  185HFI     H1 2708   0.488   2.151   2.388  3.8657  0.5451 -2.1272
  185HFI     H2 2709   0.380   2.036   2.175  0.4002  1.1540 -0.0995
  186HFI     O1 2710   0.871   1.834   2.486  0.2555  0.3864 -0.7381
  186HFI     C1 2711   0.953   1.960   2.457  0.6872  0.0019  0.0024
  186HFI     C2 2712   0.933   2.072   2.562  0.2646  0.6385 -0.1954
  186HFI     F1 2713   0.999   2.187   2.537 -0.0873 -0.1014  0.1104
  186HFI     F2 2714   0.981   2.033   2.683  0.0481 -0.1850  0.5510
  186HFI     F3 2715   0.802   2.093   2.568  0.2377  0.0814  0.0352
  186HFI     C3 2716   0.923   2.007   2.313  0.6206  0.1424  0.1540
  186HFI     F4 2717   0.983   2.119   2.273 -0.1024  0.1588  0.2096
  186HFI     F5 2718   0.792   2.024   2.297 -0.3851 -0.4449  0.2415
  186HFI     F6 2719   0.966   1.917   2.219  0.0218 -0.2058  0.2112
  186HFI     H1 2720   0.777   1.857   2.481 -0.2630 -1.3424  0.4667
  186HFI     H2 2721   1.062   1.950   2.464  0.3731 -2.8202  1.9025
  187HFI     O1 2722   0.539   2.454   2.847  0.0736  0.0336  0.4615
  187HFI     C1 2723   0.633   2.346   2.887  0.3057 -0.8463  0.1496
  187HFI     C2 2724   0.768   2.374   2.819  0.5311  0.2995 -0.7840
  187HFI     F1 2725   0.755   2.385   2.688  0.0049 -0.2029  0.3414
  187HFI     F2 2726   0.866   2.285   2.849  0.0278  0.1678  0.3598
  187HFI     F3 2727   0.811   2.496   2.857  0.3536  0.0973 -0.0093
  187HFI     C3 2728   0.581   2.209   2.882 -1.3022 -0.1929 -0.0277
  187HFI     F4 2729   0.549   2.169   2.759 -0.0777  0.0919  0.2225
  187HFI     F5 2730   0.467   2.210   2.958 -0.4553 -0.0999  0.5381
  187HFI     F6 2731   0.668   2.118   2.941  0.2237 -0.9488  0.0393
  187HFI     H1 2732   0.586   2.490   2.769  0.1436 -1.8096 -0.3703
  187HFI     H2 2733   0.654   2.360   2.994 -0.2452  2.1059 -0.0858
  188HFI     O1 2734   2.242   1.724   2.495 -0.4724  0.0937  0.0717
  188HFI     C1 2735   2.149   1.624   2.428 -0.0157 -0.1294  0.4487
  188HFI     C2 2736   2.131   1.655   2.272  0.0910 -0.8182 -1.0303
  188HFI     F1 2737   2.039   1.578   2.199 -0.3749  0.1746  0.4936
  188HFI     F2 2738   2.257   1.642   2.211  0.4576 -0.0724  0.5546
  188HFI     F3 2739   2.086   1.784   2.257 -0.5300 -0.0406  0.8817
  188HFI     C3 2740   2.012   1.616   2.488 -0.3515  0.1463 -0.3537
  188HFI     F4 2741   1.929   1.525   2.439  0.2001  0.8314  0.7931
  188HFI     F5 2742   1.947   1.735   2.487 -0.2196 -0.0992  0.9805
  188HFI     F6 2743   2.030   1.586   2.616 -0.4973 -0.3200  0.1151
  188HFI     H1 2744   2.205   1.812   2.517  1.4092  0.6016  1.3430
  188HFI     H2 2745   2.187   1.521   2.438 -1.0155 -0.6363 -0.7671
  189HFI     O1 2746   2.595   2.695   0.657  0.0388  0.4574 -0.4206
  189HFI     C1 2747   2.483   2.746   0.743  0.3553  0.2453 -0.2738
  189HFI     C2 2748   2.381   2.629   0.749 -0.9213  0.2758  0.0933
  189HFI     F1 2749   2.283   2.654   0.837  0.1039  0.7708 -0.1258
  189HFI     F2 2750   2.448   2.521   0.793  0.5172  0.1138 -0.0538
  189HFI     F3 2751   2.331   2.602   0.626  0.2497  0.4290  0.0359
  189HFI     C3 2752   2.427   2.890   0.708 -0.2611  0.0473 -0.3021
  189HFI     F4 2753   2.504   2.989   0.760 -0.2313  0.1896  0.2344
  189HFI     F5 2754   2.305   2.902   0.757  0.2479  0.1118  0.2524
  189HFI     F6 2755   2.425   2.903   0.574  0.3921 -0.1110  0.3400
  189HFI     H1 2756   2.607   2.757   0.583 -0.1396  0.8845 -0.0983
  189HFI     H2 2757   2.519   2.754   0.846  1.0350  0.4467 -0.5246
  190HFI     O1 2758   2.055   3.351   3.486 -0.7023 -0.2925 -0.2678
  190HFI     C1 2759   2.026   3.494   3.486  0.1834  0.2779  0.4301
  190HFI     C2 2760   2.091   3.558   3.366 -0.1009 -0.4306  0.2604
  190HFI     F1 2761   2.221   3.544   3.366 -0.1681 -0.5509  0.6014
  190HFI     F2 2762   2.061   3.689   3.346  0.5701 -0.0546 -0.0720
  190HFI     F3 2763   2.045   3.507   3.249 -0.4556  0.1480 -0.6683
  190HFI     C3 2764   2.041   3.565   3.619 -0.9506 -0.3118 -0.0718
  190HFI     F4 2765   1.979   3.489   3.716 -0.2242 -0.5752  0.2465
  190HFI     F5 2766   1.981   3.680   3.616 -0.4942 -0.6902 -0.2229
  190HFI     F6 2767   2.170   3.584   3.660 -0.0839 -0.4452 -0.1922
  190HFI     H1 2768   2.035   3.313   3.399 -2.2121 -2.6923  1.0860
  190HFI     H2 2769   1.917   3.496   3.469 -0.0811  1.8327  2.1304
  191HFI     O1 2770   2.998   2.061   0.848  0.6834 -0.0276 -0.0126
  191HFI     C1 2771   2.992   2.015   0.990 -0.3233 -0.2137 -0.2728
  191HFI     C2 2772   3.110   2.080   1.079 -0.4950  0.1262  0.1705
  191HFI     F1 2773   3.226   2.070   1.016 -0.2354  0.3716  0.6400
  191HFI     F2 2774   3.114   2.025   1.193 -0.1903 -0.4369 -0.0922
  191HFI     F3 2775   3.084   2.209   1.096 -0.0590  0.4220 -0.1055
  191HFI     C3 2776   2.989   1.860   1.002  0.3408  0.2632  0.8043
  191HFI     F4 2777   2.893   1.793   0.929 -0.2059  0.3485  0.5578
  191HFI     F5 2778   2.981   1.815   1.128  0.0296 -0.0240  0.2483
  191HFI     F6 2779   3.106   1.822   0.951 -0.1969  0.0502  0.0254
  191HFI     H1 2780   3.089   2.054   0.815 -0.4300 -1.7670 -2.8862
  191HFI     H2 2781   2.898   2.046   1.036 -0.3351 -1.1722  0.3694
  192HFI     O1 2782   2.989   0.901   1.408  0.3407 -0.8067  0.1602
  192HFI     C1 2783   3.044   0.980   1.521 -0.3627 -0.6116 -0.1876
  192HFI     C2 2784   2.955   1.109   1.534  0.1215  0.0742 -0.0001
  192HFI     F1 2785   3.011   1.204   1.619  0.0926 -0.3011  0.1893
  192HFI     F2 2786   2.828   1.084   1.589 -0.5436  0.4136 -0.6782
  192HFI     F3 2787   2.936   1.168   1.414  0.0310 -0.2857  0.3836
  192HFI     C3 2788   3.198   1.009   1.517 -0.0865 -0.2542  0.3394
  192HFI     F4 2789   3.239   1.078   1.408 -0.2485  0.2742 -0.2467
  192HFI     F5 2790   3.265   0.892   1.519 -0.1078  0.4661 -0.3821
  192HFI     F6 2791   3.237   1.079   1.627  0.1932  0.8602 -0.0705
  192HFI     H1 2792   2.985   0.955   1.327  1.3367  0.7166  1.0943
  192HFI     H2 2793   3.034   0.918   1.611  1.8585  0.7902  1.0819
  193HFI     O1 2794   3.395   2.262   3.127 -0.5481  0.7831  0.6168
  193HFI     C1 2795   3.332   2.347   3.234 -0.0664 -0.3220  0.2218
  193HFI     C2 2796   3.172   2.356   3.199 -0.2907 -0.8500  0.0318
  193HFI     F1 2797   3.101   2.242   3.210  0.1205  0.0598 -0.0470
  193HFI     F2 2798   3.161   2.400   3.064  0.1248  0.1660 -0.1940
  193HFI     F3 2799   3.109   2.446   3.267  0.7838 -0.5600  0.0432
  193HFI     C3 2800   3.405   2.481   3.261  0.5507 -0.3491 -0.0373
  193HFI     F4 2801   3.525   2.456   3.317 -0.0724  0.5987  0.0454
  193HFI     F5 2802   3.348   2.561   3.347 -0.7850 -0.2140  0.0708
  193HFI     F6 2803   3.423   2.537   3.138 -0.0593  0.2161 -0.3330
  193HFI     H1 2804   3.410   2.319   3.049  0.9546 -1.0546 -0.4749
  193HFI     H2 2805   3.339   2.293   3.330 -1.8921 -3.7697 -1.4992
  194HFI     O1 2806   0.107   0.602   0.732  0.2697  0.0690 -0.6528
  194HFI     C1 2807  -0.013   0.678   0.753  0.9452  0.0241 -0.5992
  194HFI     C2 2808  -0.097   0.623   0.872  0.1447 -0.1379  0.2719
  194HFI     F1 2809  -0.038   0.655   0.996 -0.1744  0.7755 -0.4004
  194HFI     F2 2810  -0.109   0.492   0.867 -0.3539 -0.0394  0.0651
  194HFI     F3 2811  -0.227   0.676   0.882 -0.0931 -0.1217  0.0495
  194HFI     C3 2812  -0.095   0.687   0.612 -0.7369  1.1813  0.0730
  194HFI     F4 2813  -0.011   0.732   0.515  0.0907  0.2933  0.5335
  194HFI     F5 2814  -0.190   0.782   0.626  0.1153 -0.6317  0.0267
  194HFI     F6 2815  -0.148   0.574   0.569  0.1542  0.2182 -0.3625
  194HFI     H1 2816   0.083   0.508   0.719 -0.5976  0.2282 -0.1987
  194HFI     H2 2817   0.012   0.782   0.779 -3.2250  0.7880  0.7801
  195HFI     O1 2818   2.151   1.172   0.808  0.1690 -0.1954 -0.5973
  195HFI     C1 2819   2.195   1.070   0.902 -0.3688 -0.0313  0.1962
  195HFI     C2 2820   2.077   1.019   0.992 -0.3699 -0.0569 -0.0166
  195HFI     F1 2821   2.119   0.926   1.084 -0.4321 -0.3043 -0.0050
  195HFI     F2 2822   1.995   0.954   0.907  0.3572  0.4331 -0.1470
  195HFI     F3 2823   2.008   1.114   1.059  0.0769  1.0594  0.0051
  195HFI     C3 2824   2.320   1.117   0.983 -0.2030  0.3660 -0.4769
  195HFI     F4 2825   2.277   1.198   1.082  0.1850 -0.4389  0.3641
  195HFI     F5 2826   2.401   1.194   0.908  0.3833  0.2393  0.5043
  195HFI     F6 2827   2.403   1.019   1.030  0.4641 -0.1749 -0.2694
  195HFI     H1 2828   2.152   1.256   0.856 -1.4386 -0.5700  0.1260
  195HFI     H2 2829   2.230   0.979   0.851 -0.0743  0.5825 -0.7134
  196HFI     O1 2830   3.088   1.640   2.501 -0.3308 -0.0494 -0.0590
  196HFI     C1 2831   3.040   1.697   2.380 -0.5329  1.0454 -0.2106
  196HFI     C2 2832   2.937   1.601   2.302 -0.6251  0.1026  0.8163
  196HFI     F1 2833   3.000   1.487   2.266 -0.1660 -0.6865 -0.2563
  196HFI     F2 2834   2.898   1.657   2.194 -0.1978 -0.3551  0.1599
  196HFI     F3 2835   2.831   1.573   2.394  0.5499 -0.0303  0.5916
  196HFI     C3 2836   3.159   1.754   2.295  0.4089  1.1797  0.1146
  196HFI     F4 2837   3.124   1.826   2.195 -0.3310  0.6404 -0.0069
  196HFI     F5 2838   3.236   1.652   2.239  0.1296 -0.2407 -0.2462
  196HFI     F6 2839   3.240   1.839   2.370  0.4752 -0.4136  0.0744
  196HFI     H1 2840   3.132   1.713   2.547 -0.2166 -0.4118  0.4196
  196HFI     H2 2841   2.984   1.789   2.398 -1.5177  0.1525  1.4200
  197HFI     O1 2842   3.193   0.999   2.405  0.6217 -0.2229  0.1316
  197HFI     C1 2843   3.061   0.931   2.413 -0.2850 -0.1504  0.6937
  197HFI     C2 2844   3.072   0.800   2.490  0.8833 -0.3462 -0.0913
  197HFI     F1 2845   3.178   0.728   2.449 -0.2664 -0.3571 -0.3400
  197HFI     F2 2846   2.956   0.724   2.480  0.2529  0.0321  0.2657
  197HFI     F3 2847   3.096   0.825   2.620 -0.1076  0.0171  0.3599
  197HFI     C3 2848   2.995   0.920   2.275 -0.2582 -0.0328 -0.1448
  197HFI     F4 2849   3.087   0.851   2.195 -0.4261 -0.1809  0.2572
  197HFI     F5 2850   2.986   1.039   2.224 -0.1401  0.1589  0.2528
  197HFI     F6 2851   2.874   0.864   2.279  0.6009 -0.6679 -0.5517
  197HFI     H1 2852   3.193   1.072   2.341 -0.1756  1.7016  2.2524
  197HFI     H2 2853   2.991   0.995   2.468 -1.3998 -0.6223 -0.1324
  198HFI     O1 2854   2.558   2.726   3.315  0.5358 -0.4544  0.1747
  198HFI     C1 2855   2.671   2.644   3.275 -0.3020 -0.3212  0.1321
  198HFI     C2 2856   2.788   2.740   3.237 -0.7987  0.4623  0.2128
  198HFI     F1 2857   2.813   2.837   3.324  0.0042  0.2477  0.6385
  198HFI     F2 2858   2.762   2.801   3.121  0.0024  0.4525  0.5573
  198HFI     F3 2859   2.906   2.669   3.224 -0.0797  0.5655 -0.0674
  198HFI     C3 2860   2.639   2.531   3.168 -0.6648 -0.6068  0.3383
  198HFI     F4 2861   2.531   2.461   3.201 -0.2116 -0.3682  0.4779
  198HFI     F5 2862   2.745   2.454   3.144 -0.8945  0.2171  0.2669
  198HFI     F6 2863   2.604   2.581   3.052 -0.4904 -0.1796  0.0405
  198HFI     H1 2864   2.561   2.749   3.409 -1.2674  0.5501 -0.0021
  198HFI     H2 2865   2.702   2.578   3.358 -0.1078 -0.8116 -0.3257
  199HFI     O1 2866   2.680   2.662   0.999  0.4463  0.0220 -0.0763
  199HFI     C1 2867   2.775   2.582   0.916  0.3752  0.8392  0.4776
  199HFI     C2 2868   2.809   2.442   0.980 -0.4671  0.7848 -0.0351
  199HFI     F1 2869   2.864   2.353   0.893  0.1527  0.7314 -0.0360
  199HFI     F2 2870   2.696   2.383   1.029 -0.3247 -0.3753 -0.5378
  199HFI     F3 2871   2.898   2.462   1.079 -0.0661 -0.3813  0.2651
  199HFI     C3 2872   2.900   2.667   0.872  0.1615  0.7659  1.1018
  199HFI     F4 2873   2.861   2.777   0.800 -0.1013  0.1126  0.0248
  199HFI     F5 2874   2.990   2.596   0.789  0.1606 -0.0481 -0.2632
  199HFI     F6 2875   2.965   2.706   0.984  0.6518 -0.4531  0.1142
  199HFI     H1 2876   2.727   2.708   1.070  2.7483 -2.3042  0.0068
  199HFI     H2 2877   2.724   2.560   0.822  0.4605 -1.2133  0.8788
  200HFI     O1 2878   2.295   2.548   3.382 -0.3943 -0.2532  0.5341
  200HFI     C1 2879   2.190   2.502   3.464  0.5508 -0.3132  0.1279
  200HFI     C2 2880   2.246   2.430   3.588 -0.5360 -0.2291  0.1853
  200HFI     F1 2881   2.149   2.412   3.680 -0.4602  0.3595  0.4108
  200HFI     F2 2882   2.340   2.496   3.652  0.1054 -0.0130  0.2798
  200HFI     F3 2883   2.304   2.311   3.561 -0.5909  0.2501 -0.5119
  200HFI     C3 2884   2.095   2.403   3.374  0.1156 -0.0496  0.2126
  200HFI     F4 2885   2.036   2.465   3.271  0.5107  0.5076  0.1869
  200HFI     F5 2886   1.995   2.361   3.457 -0.0843 -0.2950 -0.1202
  200HFI     F6 2887   2.166   2.298   3.326 -0.2996  0.0212  0.2226
  200HFI     H1 2888   2.256   2.591   3.304  2.5074  0.4608 -0.5580
  200HFI     H2 2889   2.114   2.574   3.495 -0.5730 -0.9427 -1.0932
  201HFI     O1 2890   3.253   1.613   0.103 -0.3272 -0.0275 -0.0819
  201HFI     C1 2891   3.112   1.652   0.116  0.0140 -0.2394 -0.1853
  201HFI     C2 2892   3.028   1.539   0.052 -0.1119 -0.3482 -0.2310
  201HFI     F1 2893   2.897   1.553   0.067  0.5736  0.4103  0.5204
  201HFI     F2 2894   3.057   1.423   0.111 -0.3418 -0.6733 -0.2079
  201HFI     F3 2895   3.053   1.516  -0.080 -0.3718  0.2735  0.1378
  201HFI     C3 2896   3.088   1.795   0.051  0.3935 -0.0211 -0.5199
  201HFI     F4 2897   3.143   1.819  -0.073 -0.0418  0.2473 -0.2034
  201HFI     F5 2898   3.131   1.890   0.135  0.5677  0.2093 -0.3002
  201HFI     F6 2899   2.955   1.822   0.034  0.1475 -0.0429 -0.6645
  201HFI     H1 2900   3.277   1.594   0.011 -0.6328 -2.1370  0.2509
  201HFI     H2 2901   3.081   1.651   0.221  0.8479 -0.9617  0.0596
  202HFI     O1 2902   1.131   0.302   0.683 -0.3968  0.4967 -0.1118
  202HFI     C1 2903   1.230   0.289   0.576  0.2550  0.0994  0.1519
  202HFI     C2 2904   1.250   0.136   0.550 -0.7564  0.1025 -0.3743
  202HFI     F1 2905   1.336   0.115   0.450  0.5940 -0.0507 -0.7178
  202HFI     F2 2906   1.138   0.081   0.504  0.0802  0.3613 -0.1248
  202HFI     F3 2907   1.287   0.074   0.667 -0.6313  0.3625 -0.1716
  202HFI     C3 2908   1.354   0.372   0.619  0.8307 -0.1620 -0.6852
  202HFI     F4 2909   1.407   0.315   0.726  0.3682  0.0066 -0.4952
  202HFI     F5 2910   1.315   0.492   0.653 -0.0325 -0.7632  0.4637
  202HFI     F6 2911   1.435   0.387   0.515  0.0557  0.4533 -0.2203
  202HFI     H1 2912   1.168   0.266   0.765 -1.8415 -3.2895 -1.0060
  202HFI     H2 2913   1.193   0.334   0.483 -0.5260  0.5691  0.6838
  203HFI     O1 2914   3.041   2.420   1.367  0.5068 -0.3742  0.2347
  203HFI     C1 2915   3.121   2.484   1.472  0.1092 -0.1167  0.2409
  203HFI     C2 2916   3.158   2.635   1.446 -0.6289  0.1352  0.8383
  203HFI     F1 2917   3.205   2.694   1.562 -0.2945 -0.3137 -0.0166
  203HFI     F2 2918   3.048   2.702   1.407  0.1383 -0.5798  0.2931
  203HFI     F3 2919   3.262   2.647   1.361  0.0655  0.2773  0.2686
  203HFI     C3 2920   3.240   2.394   1.512 -0.1434 -0.1909 -0.4137
  203HFI     F4 2921   3.311   2.352   1.407  0.3626  0.0813 -0.2917
  203HFI     F5 2922   3.202   2.283   1.586 -0.3266 -0.4486 -0.2037
  203HFI     F6 2923   3.322   2.463   1.594  0.4671  0.0814 -0.0561
  203HFI     H1 2924   3.071   2.445   1.278 -0.1740 -0.5311 -0.0393
  203HFI     H2 2925   3.057   2.482   1.562  1.2140 -2.6480  1.0208
  204HFI     O1 2926   0.648   1.129   0.971  0.8219  0.2519  0.0477
  204HFI     C1 2927   0.527   1.194   0.938  0.4121  0.3129 -0.3791
  204HFI     C2 2928   0.413   1.117   0.999  0.0131  0.0493 -0.1377
  204HFI     F1 2929   0.400   0.995   0.939 -0.3201  0.0091 -0.3379
  204HFI     F2 2930   0.295   1.175   0.985  0.8255 -0.1651 -0.4644
  204HFI     F3 2931   0.431   1.096   1.134 -0.0897 -0.1626  0.5605
  204HFI     C3 2932   0.505   1.226   0.792  0.3043 -0.0195  0.6458
  204HFI     F4 2933   0.478   1.118   0.707 -0.1406  0.0435 -0.3643
  204HFI     F5 2934   0.613   1.297   0.745  0.1125 -0.3541  0.3782
  204HFI     F6 2935   0.401   1.304   0.774 -0.2717  0.9180 -0.2239
  204HFI     H1 2936   0.640   1.035   0.951  1.3501 -0.1601  1.6909
  204HFI     H2 2937   0.538   1.292   0.985 -1.0485 -0.1499  0.9724
  205HFI     O1 2938   1.449   0.585   2.214  0.2660  0.2245  0.2676
  205HFI     C1 2939   1.392   0.511   2.330  0.7448 -0.3137  0.1050
  205HFI     C2 2940   1.493   0.451   2.432  0.3220  0.3404 -0.4442
  205HFI     F1 2941   1.535   0.333   2.394 -0.5140 -0.0244 -0.0165
  205HFI     F2 2942   1.437   0.454   2.561 -0.4174  0.2525 -0.1373
  205HFI     F3 2943   1.604   0.536   2.433  0.0312  0.3727  0.3195
  205HFI     C3 2944   1.274   0.413   2.286 -0.1678  0.0808  0.2517
  205HFI     F4 2945   1.309   0.331   2.189  0.1380  0.1041 -0.1446
  205HFI     F5 2946   1.169   0.477   2.238  0.0155 -0.3160  0.3981
  205HFI     F6 2947   1.235   0.319   2.382 -0.4478 -0.1577 -0.1960
  205HFI     H1 2948   1.399   0.549   2.139 -0.6768  0.4345  0.7918
  205HFI     H2 2949   1.334   0.574   2.398 -1.4225 -2.2047  0.0917
  206HFI     O1 2950   0.330   0.829   0.652  0.0917  0.0205  0.0221
  206HFI     C1 2951   0.441   0.783   0.574 -0.4426  0.1074 -0.3806
  206HFI     C2 2952   0.401   0.677   0.478  1.3399  0.2609  0.7971
  206HFI     F1 2953   0.500   0.646   0.396  0.4526  0.0089  0.1908
  206HFI     F2 2954   0.297   0.717   0.400 -0.1571  0.9158  0.1581
  206HFI     F3 2955   0.365   0.560   0.540  0.2427 -0.1954 -0.6355
  206HFI     C3 2956   0.568   0.743   0.661  0.7488  0.1660  0.3261
  206HFI     F4 2957   0.668   0.716   0.586  0.1156  0.1671 -0.0937
  206HFI     F5 2958   0.541   0.630   0.732  0.2684  0.3449 -0.4147
  206HFI     F6 2959   0.604   0.842   0.750  0.4322 -0.0453 -0.1526
  206HFI     H1 2960   0.281   0.750   0.680  0.7254  0.1716  1.6447
  206HFI     H2 2961   0.487   0.874   0.532  1.0463 -0.7255 -0.5890
  207HFI     O1 2962   1.317   3.020   2.753  0.3827  0.0230  0.2736
  207HFI     C1 2963   1.448   3.042   2.695  0.5486 -0.4238 -0.0421
  207HFI     C2 2964   1.549   2.950   2.770  0.4874 -0.2550 -0.0201
  207HFI     F1 2965   1.485   2.830   2.791 -0.3777  0.5911  0.5473
  207HFI     F2 2966   1.586   2.994   2.893 -0.4982 -0.0952 -0.2274
  207HFI     F3 2967   1.660   2.929   2.696  0.1047  0.2707 -0.7326
  207HFI     C3 2968   1.496   3.191   2.692 -0.2637  0.0725  0.2717
  207HFI     F4 2969   1.417   3.264   2.602  0.4913 -0.0172  0.2709
  207HFI     F5 2970   1.619   3.204   2.654 -0.1650 -0.1018  0.3625
  207HFI     F6 2971   1.476   3.237   2.815 -0.2356  0.4869  0.0516
  207HFI     H1 2972   1.292   2.933   2.716  1.1503  0.9263 -2.4997
  207HFI     H2 2973   1.459   3.019   2.588 -0.2675  2.1158 -0.7066
  208HFI     O1 2974   0.894   3.351   2.374  0.5075 -0.1197 -0.0751
  208HFI     C1 2975   1.008   3.331   2.273  0.0542 -1.1186 -0.1463
  208HFI     C2 2976   1.083   3.201   2.305  0.5085  0.2238  0.3983
  208HFI     F1 2977   1.185   3.170   2.220 -0.8734 -0.1475  0.3262
  208HFI     F2 2978   0.993   3.096   2.302  0.4308  0.6335 -0.2301
  208HFI     F3 2979   1.133   3.203   2.431  0.4450  0.3391  0.0761
  208HFI     C3 2980   1.112   3.448   2.278  0.5935  0.4726  0.4710
  208HFI     F4 2981   1.220   3.432   2.202 -0.1874 -0.3643 -0.2329
  208HFI     F5 2982   1.152   3.481   2.402 -0.6439  0.5026 -0.2824
  208HFI     F6 2983   1.050   3.553   2.225  0.0859 -0.3531 -0.4479
  208HFI     H1 2984   0.918   3.426   2.430 -2.1264  0.4582  0.2991
  208HFI     H2 2985   0.966   3.333   2.172 -1.3456  3.3680  0.4139
  209HFI     O1 2986   1.228   1.612   0.416 -0.3212 -0.1370  0.5600
  209HFI     C1 2987   1.295   1.528   0.501 -0.4182 -0.1583  0.7538
  209HFI     C2 2988   1.297   1.378   0.448  0.0978 -0.8258 -0.5844
  209HFI     F1 2989   1.377   1.369   0.342 -0.1229  0.2076  0.3245
  209HFI     F2 2990   1.171   1.335   0.407 -0.2625  0.3231 -0.4635
  209HFI     F3 2991   1.344   1.291   0.539  0.1572  0.3424  0.6279
  209HFI     C3 2992   1.226   1.533   0.638 -1.0200 -0.3702  0.5664
  209HFI     F4 2993   1.097   1.497   0.650 -0.1189 -0.2453 -0.1251
  209HFI     F5 2994   1.230   1.661   0.685  0.3784  0.0807  0.0585
  209HFI     F6 2995   1.298   1.459   0.725  0.0717  0.3767  0.3704
  209HFI     H1 2996   1.155   1.559   0.379 -1.4044  1.0619  0.9328
  209HFI     H2 2997   1.398   1.560   0.519  0.8735 -2.1381 -2.7752
  210HFI     O1 2998   2.412   0.466   2.967  0.1221  0.7373  0.3198
  210HFI     C1 2999   2.397   0.320   2.966  0.3463 -0.0218 -0.0333
  210HFI     C2 3000   2.456   0.265   2.829  0.7892  0.7214 -0.5449
  210HFI     F1 3001   2.375   0.288   2.722 -0.2826  0.1275 -0.1856
  210HFI     F2 3002   2.484   0.131   2.821  0.3643  0.3232  0.1180
  210HFI     F3 3003   2.568   0.335   2.809  0.1078  0.1350  0.3679
  210HFI     C3 3004   2.253   0.264   2.993  0.3377 -0.6451  0.2167
  210HFI     F4 3005   2.242   0.135   2.970  0.2007 -0.3472 -0.5751
  210HFI     F5 3006   2.158   0.329   2.919 -0.0415 -0.2121 -0.1726
  210HFI     F6 3007   2.236   0.279   3.124  0.2025 -0.1273 -0.1069
  210HFI     H1 3008   2.345   0.510   2.912  0.8904  0.9012 -0.4935
  210HFI     H2 3009   2.469   0.280   3.038  1.7852 -0.1146 -1.4932
  211HFI     O1 3010   3.241   3.078   2.453  0.2578  0.1697  0.4900
  211HFI     C1 3011   3.116   3.096   2.377  0.1029  0.5375  0.3373
  211HFI     C2 3012   3.069   2.972   2.298  0.4517 -0.3420 -1.1195
  211HFI     F1 3013   3.162   2.923   2.222 -0.1526 -0.0310 -0.3183
  211HFI     F2 3014   2.959   2.991   2.222 -0.3365  0.1376  0.8338
  211HFI     F3 3015   3.036   2.877   2.389 -0.0159  0.0962 -0.1962
  211HFI     C3 3016   3.106   3.230   2.292  0.3520  0.2533  0.1816
  211HFI     F4 3017   2.978   3.262   2.259 -0.0978 -0.2660 -0.5026
  211HFI     F5 3018   3.187   3.222   2.182  0.1775  0.1539  0.6501
  211HFI     F6 3019   3.148   3.333   2.364  0.3156  0.0869  0.1450
  211HFI     H1 3020   3.297   3.012   2.410  1.3200  1.5674 -0.2879
  211HFI     H2 3021   3.042   3.100   2.457 -1.6311  0.9957 -1.2371
  212HFI     O1 3022   2.923   2.979   1.190  0.2280 -0.3767  0.2781
  212HFI     C1 3023   2.946   3.032   1.056  0.2767 -0.4361 -0.3035
  212HFI     C2 3024   3.094   3.012   1.021  0.1752 -0.5136  0.7814
  212HFI     F1 3025   3.136   2.887   1.050  0.3246 -0.0902  0.2911
  212HFI     F2 3026   3.165   3.110   1.095  0.0655 -0.3046 -0.3606
  212HFI     F3 3027   3.115   3.035   0.893 -0.0516 -0.1178 -0.3457
  212HFI     C3 3028   2.894   3.180   1.026  0.4907 -0.6888  0.4733
  212HFI     F4 3029   2.939   3.235   0.915 -0.0841 -0.3251  0.0845
  212HFI     F5 3030   2.950   3.265   1.117 -0.2519 -0.4102 -0.7168
  212HFI     F6 3031   2.756   3.178   1.035 -0.3321  0.0799  0.3958
  212HFI     H1 3032   2.937   3.047   1.259  0.7459 -0.1622 -0.0384
  212HFI     H2 3033   2.884   2.977   0.984  1.4460 -0.6168 -1.2019
  213HFI     O1 3034   2.257   2.450   2.957 -0.2991  0.4859  0.3819
  213HFI     C1 3035   2.291   2.588   2.923 -0.0752 -0.2308  0.2926
  213HFI     C2 3036   2.216   2.692   3.018 -0.0099  0.6706  0.2434
  213HFI     F1 3037   2.087   2.720   2.985  0.4193  0.0129 -0.1336
  213HFI     F2 3038   2.292   2.805   3.004  0.4598  0.0508  0.0253
  213HFI     F3 3039   2.219   2.662   3.149  0.4057 -0.5671 -0.4455
  213HFI     C3 3040   2.257   2.610   2.773  0.9245 -0.3901  0.5572
  213HFI     F4 3041   2.366   2.577   2.696 -0.7045 -0.2522  0.6917
  213HFI     F5 3042   2.220   2.738   2.736 -0.1564 -0.2113 -0.3186
  213HFI     F6 3043   2.155   2.519   2.734  0.1189  0.2231 -0.4909
  213HFI     H1 3044   2.161   2.435   2.947  0.0042 -1.7564  0.5427
  213HFI     H2 3045   2.397   2.597   2.950 -0.2448 -0.1084  0.9405
  214HFI     O1 3046   0.626   2.188   0.297 -0.3415  0.0695 -0.0054
  214HFI     C1 3047   0.597   2.045   0.321 -0.0586 -0.0709  0.4933
  214HFI     C2 3048   0.592   2.007   0.470  0.5538  0.0400 -0.2663
  214HFI     F1 3049   0.581   1.881   0.487 -0.1449  0.3589  0.2457
  214HFI     F2 3050   0.489   2.074   0.533 -0.5376 -0.0232 -0.0840
  214HFI     F3 3051   0.707   2.047   0.529 -0.3298  0.3200  0.4542
  214HFI     C3 3052   0.689   1.947   0.236 -0.3753 -0.2544 -0.1759
  214HFI     F4 3053   0.820   1.960   0.265 -0.5456 -0.3023 -0.9177
  214HFI     F5 3054   0.669   1.976   0.107 -0.5185  0.2363 -0.0760
  214HFI     F6 3055   0.655   1.817   0.247  0.4564 -0.5308 -0.5687
  214HFI     H1 3056   0.722   2.197   0.308 -0.2349  1.1802 -1.6741
  214HFI     H2 3057   0.494   2.028   0.285 -0.3270  0.6701  0.9146
  215HFI     O1 3058   1.751   3.364   2.450 -0.3524  0.4622  0.0802
  215HFI     C1 3059   1.692   3.480   2.381 -0.9832 -0.1885  0.2416
  215HFI     C2 3060   1.577   3.431   2.292 -0.0051 -0.4528 -0.1985
  215HFI     F1 3061   1.533   3.523   2.204 -0.0197  0.5074 -0.0396
  215HFI     F2 3062   1.468   3.401   2.363 -0.7259 -0.0011 -0.3035
  215HFI     F3 3063   1.604   3.318   2.221  0.0578 -0.2485  0.2001
  215HFI     C3 3064   1.797   3.558   2.305  0.1592  0.0548 -0.0881
  215HFI     F4 3065   1.908   3.577   2.383 -0.2542 -0.0667  0.1538
  215HFI     F5 3066   1.749   3.677   2.268  0.0024  0.6702 -0.1284
  215HFI     F6 3067   1.835   3.494   2.194  0.0706  0.3321 -0.3255
  215HFI     H1 3068   1.846   3.379   2.464 -0.3361 -1.9477  3.2769
  215HFI     H2 3069   1.647   3.553   2.449  0.9374  0.4890  0.8135
  216HFI     O1 3070   2.849   1.464   1.140  0.3325  0.0282 -0.0692
  216HFI     C1 3071   2.710   1.415   1.163 -0.0425  0.1918  0.2434
  216HFI     C2 3072   2.690   1.257   1.135  0.2780  0.5561  0.6273
  216HFI     F1 3073   2.695   1.231   1.004 -0.6988 -0.2351 -0.3042
  216HFI     F2 3074   2.569   1.219   1.186 -0.3684  0.5534 -0.6209
  216HFI     F3 3075   2.782   1.180   1.198  0.3634 -0.1679  0.7937
  216HFI     C3 3076   2.620   1.493   1.060 -0.0238  0.3236  0.4466
  216HFI     F4 3077   2.610   1.625   1.089 -0.3737  0.3440 -0.4515
  216HFI     F5 3078   2.491   1.445   1.059  0.3160 -0.3221 -0.1433
  216HFI     F6 3079   2.668   1.489   0.934  0.1980 -0.1236 -0.1998
  216HFI     H1 3080   2.876   1.469   1.046  1.9987 -0.7807  0.3441
  216HFI     H2 3081   2.687   1.435   1.268  0.8910  5.5179 -0.4185
  217HFI     O1 3082   1.464   2.710   3.480 -0.5667 -0.3255 -0.5242
  217HFI     C1 3083   1.587   2.758   3.529 -0.0018  0.6451  0.0483
  217HFI     C2 3084   1.704   2.669   3.482  0.0002 -0.5119 -0.3091
  217HFI     F1 3085   1.826   2.721   3.513  0.1196 -0.1392 -0.7455
  217HFI     F2 3086   1.698   2.646   3.350  0.5286 -0.0619  0.6839
  217HFI     F3 3087   1.705   2.546   3.532  0.1245 -0.0050  0.1771
  217HFI     C3 3088   1.574   2.784   3.684  0.2858  0.4549 -0.1212
  217HFI     F4 3089   1.676   2.849   3.743 -1.0347  0.0253 -0.2620
  217HFI     F5 3090   1.559   2.670   3.757 -0.1803  0.2341  0.1835
  217HFI     F6 3091   1.462   2.854   3.708 -0.4378 -0.5956  0.2687
  217HFI     H1 3092   1.442   2.630   3.531 -0.4522  0.0096  0.0553
  217HFI     H2 3093   1.613   2.861   3.500  0.3164  1.2619  2.3791
  218HFI     O1 3094   0.372   0.998   2.790 -0.0639 -0.2700  0.0051
  218HFI     C1 3095   0.409   1.137   2.786 -0.4936  0.5912 -0.2096
  218HFI     C2 3096   0.296   1.241   2.829  0.0400  0.2877  0.0027
  218HFI     F1 3097   0.339   1.362   2.875 -0.4139  0.3671 -0.3563
  218HFI     F2 3098   0.225   1.180   2.938 -0.2614 -0.1080 -0.4484
  218HFI     F3 3099   0.206   1.257   2.728 -0.2130  0.3680  0.2730
  218HFI     C3 3100   0.486   1.174   2.659  0.5845 -0.1400  0.1482
  218HFI     F4 3101   0.402   1.193   2.554  0.1620 -0.6330  0.1130
  218HFI     F5 3102   0.565   1.073   2.605  0.3097 -0.4269 -0.0523
  218HFI     F6 3103   0.566   1.284   2.673  0.3409  0.1884  0.0444
  218HFI     H1 3104   0.336   0.968   2.704  0.2237 -1.2234  0.2082
  218HFI     H2 3105   0.471   1.151   2.875 -2.3991 -0.5141  1.3171
  219HFI     O1 3106   1.372   0.805   0.993  0.1318 -0.5615  0.0148
  219HFI     C1 3107   1.476   0.782   0.901  0.4860 -0.3554  0.0153
  219HFI     C2 3108   1.553   0.645   0.920 -0.6812  0.2887  0.0799
  219HFI     F1 3109   1.628   0.604   0.815 -0.1744  0.1714  0.1653
  219HFI     F2 3110   1.467   0.543   0.943  0.2743  0.1729 -0.3232
  219HFI     F3 3111   1.626   0.648   1.028 -0.1077 -0.1856  0.7536
  219HFI     C3 3112   1.577   0.899   0.891 -0.1085 -0.0618 -0.7236
  219HFI     F4 3113   1.607   0.949   1.013  0.3042  0.1575 -0.7419
  219HFI     F5 3114   1.517   0.996   0.816  0.0556  0.1299  0.2781
  219HFI     F6 3115   1.698   0.869   0.839  0.6028 -0.5224 -0.0864
  219HFI     H1 3116   1.339   0.896   0.979 -1.5513 -0.7063  2.6960
  219HFI     H2 3117   1.428   0.771   0.803  0.4133  1.7652 -0.2005
  220HFI     O1 3118   0.057   0.671   3.328  0.6395  0.2195 -0.1501
  220HFI     C1 3119   0.166   0.744   3.262  0.3446  0.7376 -0.1067
  220HFI     C2 3120   0.102   0.876   3.206 -0.3774  0.0675 -0.5120
  220HFI     F1 3121   0.045   0.957   3.304 -0.1354 -0.5742 -0.1351
  220HFI     F2 3122   0.006   0.854   3.110 -0.5034 -0.0094  0.2832
  220HFI     F3 3123   0.202   0.946   3.147  0.4664  0.2724  0.5251
  220HFI     C3 3124   0.243   0.652   3.167 -0.6850  0.5183 -0.5853
  220HFI     F4 3125   0.372   0.699   3.145 -0.3692 -0.0244  0.6900
  220HFI     F5 3126   0.190   0.642   3.042 -0.3218  0.7912 -0.5029
  220HFI     F6 3127   0.252   0.531   3.216  0.2645 -0.2012  0.5476
  220HFI     H1 3128  -0.008   0.737   3.356 -1.3018 -1.6448 -0.0708
  220HFI     H2 3129   0.231   0.764   3.348  0.9712  1.3194 -0.7105
  221HFI     O1 3130   2.491   1.268   2.491 -0.6308  0.6169 -0.1472
  221HFI     C1 3131   2.619   1.307   2.416 -0.8012 -0.1141 -0.0458
  221HFI     C2 3132   2.585   1.392   2.296 -0.0382 -0.1377 -0.6274
  221HFI     F1 3133   2.487   1.328   2.231 -0.4332 -0.1470  0.0263
  221HFI     F2 3134   2.683   1.416   2.211 -0.6488 -0.2705  0.1503
  221HFI     F3 3135   2.532   1.511   2.333 -0.0954 -0.2963  0.0312
  221HFI     C3 3136   2.710   1.190   2.385  0.0439 -0.0967 -0.4749
  221HFI     F4 3137   2.826   1.230   2.331 -0.6772 -0.0412 -0.2788
  221HFI     F5 3138   2.642   1.102   2.303 -0.6016 -0.2096  0.4201
  221HFI     F6 3139   2.739   1.118   2.494 -0.4538  0.2908 -0.3482
  221HFI     H1 3140   2.451   1.196   2.439  4.3029  0.0440 -3.5284
  221HFI     H2 3141   2.666   1.376   2.487  0.6619 -0.8055 -0.3224
  222HFI     O1 3142   0.006   2.808   2.402 -0.2250  0.2993  0.3360
  222HFI     C1 3143   0.111   2.796   2.298 -0.1689  0.0995 -0.3825
  222HFI     C2 3144   0.180   2.657   2.301 -0.1947 -0.0058 -0.5218
  222HFI     F1 3145   0.310   2.663   2.269  0.2766  0.5736 -0.2566
  222HFI     F2 3146   0.112   2.571   2.217  0.1114 -0.6107  0.2689
  222HFI     F3 3147   0.175   2.611   2.427 -0.1648  0.1056 -0.3123
  222HFI     C3 3148   0.218   2.906   2.329 -0.2372  0.6306 -0.2284
  222HFI     F4 3149   0.304   2.917   2.224  0.2365 -0.0014  0.0375
  222HFI     F5 3150   0.286   2.886   2.448 -0.4985  0.3351  0.1600
  222HFI     F6 3151   0.160   3.027   2.338  0.3571  0.1143 -0.3410
  222HFI     H1 3152  -0.041   2.723   2.399 -0.7405  0.6013 -0.1832
  222HFI     H2 3153   0.064   2.821   2.201  2.0336 -0.8780 -1.7391
  223HFI     O1 3154   2.756   1.197   0.055  0.4189  0.1808  0.3411
  223HFI     C1 3155   2.663   1.192  -0.055  0.8317 -0.2981  0.1349
  223HFI     C2 3156   2.653   1.331  -0.127 -0.1446 -0.2648 -0.0016
  223HFI     F1 3157   2.579   1.322  -0.240  0.0537  0.0998 -0.1309
  223HFI     F2 3158   2.778   1.369  -0.162  0.2837  0.5585 -0.1026
  223HFI     F3 3159   2.601   1.428  -0.053  0.4677 -0.5240 -0.4110
  223HFI     C3 3160   2.526   1.151  -0.005  0.2893  0.4937  0.1788
  223HFI     F4 3161   2.433   1.163  -0.102  0.7585 -0.0697 -0.7327
  223HFI     F5 3162   2.493   1.223   0.104 -0.6869  0.2086  0.1183
  223HFI     F6 3163   2.535   1.027   0.031 -0.2177  0.3990 -0.0328
  223HFI     H1 3164   2.835   1.243   0.023 -0.8668  1.0500 -1.7055
  223HFI     H2 3165   2.682   1.109  -0.124 -1.1792  0.3927 -1.3002
  224HFI     O1 3166   1.213   0.610   3.295 -0.1901 -0.3473 -0.9526
  224HFI     C1 3167   1.330   0.698   3.328  0.1628 -0.3306 -0.2924
  224HFI     C2 3168   1.364   0.689   3.477  0.8991 -0.2844 -0.1147
  224HFI     F1 3169   1.438   0.788   3.531 -0.0473 -0.2653  0.9013
  224HFI     F2 3170   1.436   0.577   3.491 -0.2425 -0.1034 -0.1603
  224HFI     F3 3171   1.250   0.675   3.547 -0.6637  0.0660 -0.1227
  224HFI     C3 3172   1.307   0.845   3.281  0.0839 -0.1252 -0.1890
  224HFI     F4 3173   1.425   0.909   3.260 -0.5805 -0.1904 -0.3020
  224HFI     F5 3174   1.238   0.925   3.366 -0.3475 -0.3675  0.3203
  224HFI     F6 3175   1.243   0.848   3.162 -0.0319  0.3926  0.6504
  224HFI     H1 3176   1.207   0.581   3.203 -0.0729 -0.3885 -0.9484
  224HFI     H2 3177   1.422   0.666   3.277  1.9731  0.5861  2.2764
  225HFI     O1 3178   1.011   0.522   3.523  0.0880  0.6723  0.0600
  225HFI     C1 3179   0.882   0.582   3.497 -1.2501  0.1089  0.1039
  225HFI     C2 3180   0.823   0.559   3.354  0.2053 -0.3591  0.6630
  225HFI     F1 3181   0.827   0.427   3.321  0.3210 -0.2172 -0.1368
  225HFI     F2 3182   0.896   0.616   3.255 -0.6561 -0.5284  0.5468
  225HFI     F3 3183   0.694   0.601   3.340 -0.3964  0.2190  0.0003
  225HFI     C3 3184   0.863   0.733   3.538 -0.0687  0.3471  0.1727
  225HFI     F4 3185   0.727   0.760   3.554 -0.2356  0.2392  0.4908
  225HFI     F5 3186   0.928   0.812   3.445  0.0018  0.3006  0.6940
  225HFI     F6 3187   0.922   0.755   3.659 -0.3217 -0.2322  0.1485
  225HFI     H1 3188   1.072   0.594   3.500  2.0888 -1.1437 -0.4203
  225HFI     H2 3189   0.803   0.541   3.561 -0.5687 -1.4863 -0.0518
  226HFI     O1 3190   1.557   3.060   2.354 -0.3098 -0.2782  0.3579
  226HFI     C1 3191   1.641   2.987   2.265  0.0560  0.5431 -0.0925
  226HFI     C2 3192   1.620   2.834   2.293 -0.4655 -0.1176  0.2276
  226HFI     F1 3193   1.697   2.743   2.226 -0.5489  0.5264  0.0201
  226HFI     F2 3194   1.493   2.802   2.266 -0.0575  0.0857 -0.2289
  226HFI     F3 3195   1.630   2.813   2.433 -0.2668  0.1902 -0.0778
  226HFI     C3 3196   1.792   3.025   2.283 -0.8212  0.0167  1.3306
  226HFI     F4 3197   1.874   2.947   2.211 -0.7159 -0.2420 -0.3447
  226HFI     F5 3198   1.836   3.019   2.412  0.7909 -0.3031  0.3221
  226HFI     F6 3199   1.808   3.145   2.236 -0.6084 -0.2134 -0.3658
  226HFI     H1 3200   1.561   3.154   2.328  0.0346 -0.0995  1.0445
  226HFI     H2 3201   1.616   3.021   2.163 -0.1938  1.8850  0.4105
  227HFI     O1 3202   1.327   2.828   2.486  0.8627 -0.1352 -0.3930
  227HFI     C1 3203   1.188   2.862   2.443  0.7612  0.4663  0.6782
  227HFI     C2 3204   1.081   2.794   2.537 -0.1130 -0.2837 -0.2888
  227HFI     F1 3205   1.111   2.825   2.665 -0.2834  0.2300  0.4763
  227HFI     F2 3206   1.078   2.663   2.523 -0.1213  0.5470 -0.1962
  227HFI     F3 3207   0.956   2.836   2.521 -0.2319  0.1468 -0.0791
  227HFI     C3 3208   1.158   2.820   2.288 -0.0770  0.0479 -0.2348
  227HFI     F4 3209   1.237   2.902   2.212  0.2083  0.1719 -0.0774
  227HFI     F5 3210   1.032   2.844   2.249 -0.4825  0.2069 -0.6431
  227HFI     F6 3211   1.195   2.693   2.254 -0.2913  0.2042  0.1021
  227HFI     H1 3212   1.344   2.745   2.438  1.5128  0.5071 -1.2917
  227HFI     H2 3213   1.182   2.971   2.451 -0.1719  0.4692  0.0668
  228HFI     O1 3214   2.118   3.281   2.933 -0.1024  0.0309 -0.3239
  228HFI     C1 3215   2.115   3.269   2.784  0.2887  1.4848  0.1578
  228HFI     C2 3216   2.004   3.344   2.720 -0.4697  0.0010  0.6126
  228HFI     F1 3217   2.007   3.346   2.584 -0.0131 -0.2072  0.5384
  228HFI     F2 3218   2.011   3.473   2.759 -0.0716  0.2474  0.0497
  228HFI     F3 3219   1.876   3.312   2.758 -0.2883  0.6639  0.1562
  228HFI     C3 3220   2.106   3.120   2.733  0.1352 -0.3463 -0.0169
  228HFI     F4 3221   2.196   3.045   2.786  0.2677  0.5559  0.4433
  228HFI     F5 3222   2.123   3.103   2.604  0.2130  0.7207 -0.2895
  228HFI     F6 3223   1.990   3.059   2.763  0.0546 -0.0705  0.5141
  228HFI     H1 3224   2.055   3.352   2.950 -1.3325 -0.8620 -1.0378
  228HFI     H2 3225   2.211   3.306   2.746  0.8264  0.5988  0.6609
   3.40320   3.43847   3.80000
