HFIP comparator n4
 3225
    1GR      C1    1   0.000   0.000   1.900  0.0000  0.0000  0.0000
    1GR      C2    2   0.142   0.000   1.900  0.0000  0.0000  0.0000
    1GR      C3    3   0.213   0.123   1.900  0.0000  0.0000  0.0000
    1GR      C4    4   0.354   0.123   1.900  0.0000  0.0000  0.0000
    1GR      C5    5   0.000   0.246   1.900  0.0000  0.0000  0.0000
    1GR      C6    6   0.142   0.246   1.900  0.0000  0.0000  0.0000
    1GR      C7    7   0.213   0.368   1.900  0.0000  0.0000  0.0000
    1GR      C8    8   0.354   0.368   1.900  0.0000  0.0000  0.0000
    1GR      C9    9   0.000   0.491   1.900  0.0000  0.0000  0.0000
    1GR     C10   10   0.142   0.491   1.900  0.0000  0.0000  0.0000
    1GR     C11   11   0.213   0.614   1.900  0.0000  0.0000  0.0000
    1GR     C12   12   0.354   0.614   1.900  0.0000  0.0000  0.0000
    1GR     C13   13   0.000   0.737   1.900  0.0000  0.0000  0.0000
    1GR     C14   14   0.142   0.737   1.900  0.0000  0.0000  0.0000
    1GR     C15   15   0.213   0.860   1.900  0.0000  0.0000  0.0000
    1GR     C16   16   0.354   0.860   1.900  0.0000  0.0000  0.0000
    1GR     C17   17   0.000   0.982   1.900  0.0000  0.0000  0.0000
    1GR     C18   18   0.142   0.982   1.900  0.0000  0.0000  0.0000
    1GR     C19   19   0.213   1.105   1.900  0.0000  0.0000  0.0000
    1GR     C20   20   0.354   1.105   1.900  0.0000  0.0000  0.0000
    1GR     C21   21   0.000   1.228   1.900  0.0000  0.0000  0.0000
    1GR     C22   22   0.142   1.228   1.900  0.0000  0.0000  0.0000
    1GR     C23   23   0.213   1.351   1.900  0.0000  0.0000  0.0000
    1GR     C24   24   0.354   1.351   1.900  0.0000  0.0000  0.0000
    1GR     C25   25   0.000   1.474   1.900  0.0000  0.0000  0.0000
    1GR     C26   26   0.142   1.474   1.900  0.0000  0.0000  0.0000
    1GR     C27   27   0.213   1.596   1.900  0.0000  0.0000  0.0000
    1GR     C28   28   0.354   1.596   1.900  0.0000  0.0000  0.0000
    1GR     C29   29   0.000   1.719   1.900  0.0000  0.0000  0.0000
    1GR     C30   30   0.142   1.719   1.900  0.0000  0.0000  0.0000
    1GR     C31   31   0.213   1.842   1.900  0.0000  0.0000  0.0000
    1GR     C32   32   0.354   1.842   1.900  0.0000  0.0000  0.0000
    1GR     C33   33   0.000   1.965   1.900  0.0000  0.0000  0.0000
    1GR     C34   34   0.142   1.965   1.900  0.0000  0.0000  0.0000
    1GR     C35   35   0.213   2.088   1.900  0.0000  0.0000  0.0000
    1GR     C36   36   0.354   2.088   1.900  0.0000  0.0000  0.0000
    1GR     C37   37   0.000   2.210   1.900  0.0000  0.0000  0.0000
    1GR     C38   38   0.142   2.210   1.900  0.0000  0.0000  0.0000
    1GR     C39   39   0.213   2.333   1.900  0.0000  0.0000  0.0000
    1GR     C40   40   0.354   2.333   1.900  0.0000  0.0000  0.0000
    1GR     C41   41   0.000   2.456   1.900  0.0000  0.0000  0.0000
    1GR     C42   42   0.142   2.456   1.900  0.0000  0.0000  0.0000
    1GR     C43   43   0.213   2.579   1.900  0.0000  0.0000  0.0000
    1GR     C44   44   0.354   2.579   1.900  0.0000  0.0000  0.0000
    1GR     C45   45   0.000   2.702   1.900  0.0000  0.0000  0.0000
    1GR     C46   46   0.142   2.702   1.900  0.0000  0.0000  0.0000
    1GR     C47   47   0.213   2.824   1.900  0.0000  0.0000  0.0000
    1GR     C48   48   0.354   2.824   1.900  0.0000  0.0000  0.0000
    1GR     C49   49   0.000   2.947   1.900  0.0000  0.0000  0.0000
    1GR     C50   50   0.142   2.947   1.900  0.0000  0.0000  0.0000
    1GR     C51   51   0.213   3.070   1.900  0.0000  0.0000  0.0000
    1GR     C52   52   0.354   3.070   1.900  0.0000  0.0000  0.0000
    1GR     C53   53   0.000   3.193   1.900  0.0000  0.0000  0.0000
    1GR     C54   54   0.142   3.193   1.900  0.0000  0.0000  0.0000
    1GR     C55   55   0.213   3.316   1.900  0.0000  0.0000  0.0000
    1GR     C56   56   0.354   3.316   1.900  0.0000  0.0000  0.0000
    1GR     C57   57   0.425   0.000   1.900  0.0000  0.0000  0.0000
    1GR     C58   58   0.567   0.000   1.900  0.0000  0.0000  0.0000
    1GR     C59   59   0.638   0.123   1.900  0.0000  0.0000  0.0000
    1GR     C60   60   0.780   0.123   1.900  0.0000  0.0000  0.0000
    1GR     C61   61   0.425   0.246   1.900  0.0000  0.0000  0.0000
    1GR     C62   62   0.567   0.246   1.900  0.0000  0.0000  0.0000
    1GR     C63   63   0.638   0.368   1.900  0.0000  0.0000  0.0000
    1GR     C64   64   0.780   0.368   1.900  0.0000  0.0000  0.0000
    1GR     C65   65   0.425   0.491   1.900  0.0000  0.0000  0.0000
    1GR     C66   66   0.567   0.491   1.900  0.0000  0.0000  0.0000
    1GR     C67   67   0.638   0.614   1.900  0.0000  0.0000  0.0000
    1GR     C68   68   0.780   0.614   1.900  0.0000  0.0000  0.0000
    1GR     C69   69   0.425   0.737   1.900  0.0000  0.0000  0.0000
    1GR     C70   70   0.567   0.737   1.900  0.0000  0.0000  0.0000
    1GR     C71   71   0.638   0.860   1.900  0.0000  0.0000  0.0000
    1GR     C72   72   0.780   0.860   1.900  0.0000  0.0000  0.0000
    1GR     C73   73   0.425   0.982   1.900  0.0000  0.0000  0.0000
    1GR     C74   74   0.567   0.982   1.900  0.0000  0.0000  0.0000
    1GR     C75   75   0.638   1.105   1.900  0.0000  0.0000  0.0000
    1GR     C76   76   0.780   1.105   1.900  0.0000  0.0000  0.0000
    1GR     C77   77   0.425   1.228   1.900  0.0000  0.0000  0.0000
    1GR     C78   78   0.567   1.228   1.900  0.0000  0.0000  0.0000
    1GR     C79   79   0.638   1.351   1.900  0.0000  0.0000  0.0000
    1GR     C80   80   0.780   1.351   1.900  0.0000  0.0000  0.0000
    1GR     C81   81   0.425   1.474   1.900  0.0000  0.0000  0.0000
    1GR     C82   82   0.567   1.474   1.900  0.0000  0.0000  0.0000
    1GR     C83   83   0.638   1.596   1.900  0.0000  0.0000  0.0000
    1GR     C84   84   0.780   1.596   1.900  0.0000  0.0000  0.0000
    1GR     C85   85   0.425   1.719   1.900  0.0000  0.0000  0.0000
    1GR     C86   86   0.567   1.719   1.900  0.0000  0.0000  0.0000
    1GR     C87   87   0.638   1.842   1.900  0.0000  0.0000  0.0000
    1GR     C88   88   0.780   1.842   1.900  0.0000  0.0000  0.0000
    1GR     C89   89   0.425   1.965   1.900  0.0000  0.0000  0.0000
    1GR     C90   90   0.567   1.965   1.900  0.0000  0.0000  0.0000
    1GR     C91   91   0.638   2.088   1.900  0.0000  0.0000  0.0000
    1GR     C92   92   0.780   2.088   1.900  0.0000  0.0000  0.0000
    1GR     C93   93   0.425   2.210   1.900  0.0000  0.0000  0.0000
    1GR     C94   94   0.567   2.210   1.900  0.0000  0.0000  0.0000
    1GR     C95   95   0.638   2.333   1.900  0.0000  0.0000  0.0000
    1GR     C96   96   0.780   2.333   1.900  0.0000  0.0000  0.0000
    1GR     C97   97   0.425   2.456   1.900  0.0000  0.0000  0.0000
    1GR     C98   98   0.567   2.456   1.900  0.0000  0.0000  0.0000
    1GR     C99   99   0.638   2.579   1.900  0.0000  0.0000  0.0000
    1GR    C100  100   0.780   2.579   1.900  0.0000  0.0000  0.0000
    1GR    C101  101   0.425   2.702   1.900  0.0000  0.0000  0.0000
    1GR    C102  102   0.567   2.702   1.900  0.0000  0.0000  0.0000
    1GR    C103  103   0.638   2.824   1.900  0.0000  0.0000  0.0000
    1GR    C104  104   0.780   2.824   1.900  0.0000  0.0000  0.0000
    1GR    C105  105   0.425   2.947   1.900  0.0000  0.0000  0.0000
    1GR    C106  106   0.567   2.947   1.900  0.0000  0.0000  0.0000
    1GR    C107  107   0.638   3.070   1.900  0.0000  0.0000  0.0000
    1GR    C108  108   0.780   3.070   1.900  0.0000  0.0000  0.0000
    1GR    C109  109   0.425   3.193   1.900  0.0000  0.0000  0.0000
    1GR    C110  110   0.567   3.193   1.900  0.0000  0.0000  0.0000
    1GR    C111  111   0.638   3.316   1.900  0.0000  0.0000  0.0000
    1GR    C112  112   0.780   3.316   1.900  0.0000  0.0000  0.0000
    1GR    C113  113   0.851   0.000   1.900  0.0000  0.0000  0.0000
    1GR    C114  114   0.993   0.000   1.900  0.0000  0.0000  0.0000
    1GR    C115  115   1.064   0.123   1.900  0.0000  0.0000  0.0000
    1GR    C116  116   1.205   0.123   1.900  0.0000  0.0000  0.0000
    1GR    C117  117   0.851   0.246   1.900  0.0000  0.0000  0.0000
    1GR    C118  118   0.993   0.246   1.900  0.0000  0.0000  0.0000
    1GR    C119  119   1.064   0.368   1.900  0.0000  0.0000  0.0000
    1GR    C120  120   1.205   0.368   1.900  0.0000  0.0000  0.0000
    1GR    C121  121   0.851   0.491   1.900  0.0000  0.0000  0.0000
    1GR    C122  122   0.993   0.491   1.900  0.0000  0.0000  0.0000
    1GR    C123  123   1.064   0.614   1.900  0.0000  0.0000  0.0000
    1GR    C124  124   1.205   0.614   1.900  0.0000  0.0000  0.0000
    1GR    C125  125   0.851   0.737   1.900  0.0000  0.0000  0.0000
    1GR    C126  126   0.993   0.737   1.900  0.0000  0.0000  0.0000
    1GR    C127  127   1.064   0.860   1.900  0.0000  0.0000  0.0000
    1GR    C128  128   1.205   0.860   1.900  0.0000  0.0000  0.0000
    1GR    C129  129   0.851   0.982   1.900  0.0000  0.0000  0.0000
    1GR    C130  130   0.993   0.982   1.900  0.0000  0.0000  0.0000
    1GR    C131  131   1.064   1.105   1.900  0.0000  0.0000  0.0000
    1GR    C132  132   1.205   1.105   1.900  0.0000  0.0000  0.0000
    1GR    C133  133   0.851   1.228   1.900  0.0000  0.0000  0.0000
    1GR    C134  134   0.993   1.228   1.900  0.0000  0.0000  0.0000
    1GR    C135  135   1.064   1.351   1.900  0.0000  0.0000  0.0000
    1GR    C136  136   1.205   1.351   1.900  0.0000  0.0000  0.0000
    1GR    C137  137   0.851   1.474   1.900  0.0000  0.0000  0.0000
    1GR    C138  138   0.993   1.474   1.900  0.0000  0.0000  0.0000
    1GR    C139  139   1.064   1.596   1.900  0.0000  0.0000  0.0000
    1GR    C140  140   1.205   1.596   1.900  0.0000  0.0000  0.0000
    1GR    C141  141   0.851   1.719   1.900  0.0000  0.0000  0.0000
    1GR    C142  142   0.993   1.719   1.900  0.0000  0.0000  0.0000
    1GR    C143  143   1.064   1.842   1.900  0.0000  0.0000  0.0000
    1GR    C144  144   1.205   1.842   1.900  0.0000  0.0000  0.0000
    1GR    C145  145   0.851   1.965   1.900  0.0000  0.0000  0.0000
    1GR    C146  146   0.993   1.965   1.900  0.0000  0.0000  0.0000
    1GR    C147  147   1.064   2.088   1.900  0.0000  0.0000  0.0000
    1GR    C148  148   1.205   2.088   1.900  0.0000  0.0000  0.0000
    1GR    C149  149   0.851   2.210   1.900  0.0000  0.0000  0.0000
    1GR    C150  150   0.993   2.210   1.900  0.0000  0.0000  0.0000
    1GR    C151  151   1.064   2.333   1.900  0.0000  0.0000  0.0000
    1GR    C152  152   1.205   2.333   1.900  0.0000  0.0000  0.0000
    1GR    C153  153   0.851   2.456   1.900  0.0000  0.0000  0.0000
    1GR    C154  154   0.993   2.456   1.900  0.0000  0.0000  0.0000
    1GR    C155  155   1.064   2.579   1.900  0.0000  0.0000  0.0000
    1GR    C156  156   1.205   2.579   1.900  0.0000  0.0000  0.0000
    1GR    C157  157   0.851   2.702   1.900  0.0000  0.0000  0.0000
    1GR    C158  158   0.993   2.702   1.900  0.0000  0.0000  0.0000
    1GR    C159  159   1.064   2.824   1.900  0.0000  0.0000  0.0000
    1GR    C160  160   1.205   2.824   1.900  0.0000  0.0000  0.0000
    1GR    C161  161   0.851   2.947   1.900  0.0000  0.0000  0.0000
    1GR    C162  162   0.993   2.947   1.900  0.0000  0.0000  0.0000
    1GR    C163  163   1.064   3.070   1.900  0.0000  0.0000  0.0000
    1GR    C164  164   1.205   3.070   1.900  0.0000  0.0000  0.0000
    1GR    C165  165   0.851   3.193   1.900  0.0000  0.0000  0.0000
    1GR    C166  166   0.993   3.193   1.900  0.0000  0.0000  0.0000
    1GR    C167  167   1.064   3.316   1.900  0.0000  0.0000  0.0000
    1GR    C168  168   1.205   3.316   1.900  0.0000  0.0000  0.0000
    1GR    C169  169   1.276   0.000   1.900  0.0000  0.0000  0.0000
    1GR    C170  170   1.418   0.000   1.900  0.0000  0.0000  0.0000
    1GR    C171  171   1.489   0.123   1.900  0.0000  0.0000  0.0000
    1GR    C172  172   1.631   0.123   1.900  0.0000  0.0000  0.0000
    1GR    C173  173   1.276   0.246   1.900  0.0000  0.0000  0.0000
    1GR    C174  174   1.418   0.246   1.900  0.0000  0.0000  0.0000
    1GR    C175  175   1.489   0.368   1.900  0.0000  0.0000  0.0000
    1GR    C176  176   1.631   0.368   1.900  0.0000  0.0000  0.0000
    1GR    C177  177   1.276   0.491   1.900  0.0000  0.0000  0.0000
    1GR    C178  178   1.418   0.491   1.900  0.0000  0.0000  0.0000
    1GR    C179  179   1.489   0.614   1.900  0.0000  0.0000  0.0000
    1GR    C180  180   1.631   0.614   1.900  0.0000  0.0000  0.0000
    1GR    C181  181   1.276   0.737   1.900  0.0000  0.0000  0.0000
    1GR    C182  182   1.418   0.737   1.900  0.0000  0.0000  0.0000
    1GR    C183  183   1.489   0.860   1.900  0.0000  0.0000  0.0000
    1GR    C184  184   1.631   0.860   1.900  0.0000  0.0000  0.0000
    1GR    C185  185   1.276   0.982   1.900  0.0000  0.0000  0.0000
    1GR    C186  186   1.418   0.982   1.900  0.0000  0.0000  0.0000
    1GR    C187  187   1.489   1.105   1.900  0.0000  0.0000  0.0000
    1GR    C188  188   1.631   1.105   1.900  0.0000  0.0000  0.0000
    1GR    C189  189   1.276   1.228   1.900  0.0000  0.0000  0.0000
    1GR    C190  190   1.418   1.228   1.900  0.0000  0.0000  0.0000
    1GR    C191  191   1.489   1.351   1.900  0.0000  0.0000  0.0000
    1GR    C192  192   1.631   1.351   1.900  0.0000  0.0000  0.0000
    1GR    C193  193   1.276   1.474   1.900  0.0000  0.0000  0.0000
    1GR    C194  194   1.418   1.474   1.900  0.0000  0.0000  0.0000
    1GR    C195  195   1.489   1.596   1.900  0.0000  0.0000  0.0000
    1GR    C196  196   1.631   1.596   1.900  0.0000  0.0000  0.0000
    1GR    C197  197   1.276   1.719   1.900  0.0000  0.0000  0.0000
    1GR    C198  198   1.418   1.719   1.900  0.0000  0.0000  0.0000
    1GR    C199  199   1.489   1.842   1.900  0.0000  0.0000  0.0000
    1GR    C200  200   1.631   1.842   1.900  0.0000  0.0000  0.0000
    1GR    C201  201   1.276   1.965   1.900  0.0000  0.0000  0.0000
    1GR    C202  202   1.418   1.965   1.900  0.0000  0.0000  0.0000
    1GR    C203  203   1.489   2.088   1.900  0.0000  0.0000  0.0000
    1GR    C204  204   1.631   2.088   1.900  0.0000  0.0000  0.0000
    1GR    C205  205   1.276   2.210   1.900  0.0000  0.0000  0.0000
    1GR    C206  206   1.418   2.210   1.900  0.0000  0.0000  0.0000
    1GR    C207  207   1.489   2.333   1.900  0.0000  0.0000  0.0000
    1GR    C208  208   1.631   2.333   1.900  0.0000  0.0000  0.0000
    1GR    C209  209   1.276   2.456   1.900  0.0000  0.0000  0.0000
    1GR    C210  210   1.418   2.456   1.900  0.0000  0.0000  0.0000
    1GR    C211  211   1.489   2.579   1.900  0.0000  0.0000  0.0000
    1GR    C212  212   1.631   2.579   1.900  0.0000  0.0000  0.0000
    1GR    C213  213   1.276   2.702   1.900  0.0000  0.0000  0.0000
    1GR    C214  214   1.418   2.702   1.900  0.0000  0.0000  0.0000
    1GR    C215  215   1.489   2.824   1.900  0.0000  0.0000  0.0000
    1GR    C216  216   1.631   2.824   1.900  0.0000  0.0000  0.0000
    1GR    C217  217   1.276   2.947   1.900  0.0000  0.0000  0.0000
    1GR    C218  218   1.418   2.947   1.900  0.0000  0.0000  0.0000
    1GR    C219  219   1.489   3.070   1.900  0.0000  0.0000  0.0000
    1GR    C220  220   1.631   3.070   1.900  0.0000  0.0000  0.0000
    1GR    C221  221   1.276   3.193   1.900  0.0000  0.0000  0.0000
    1GR    C222  222   1.418   3.193   1.900  0.0000  0.0000  0.0000
    1GR    C223  223   1.489   3.316   1.900  0.0000  0.0000  0.0000
    1GR    C224  224   1.631   3.316   1.900  0.0000  0.0000  0.0000
    1GR    C225  225   1.702   0.000   1.900  0.0000  0.0000  0.0000
    1GR    C226  226   1.843   0.000   1.900  0.0000  0.0000  0.0000
    1GR    C227  227   1.914   0.123   1.900  0.0000  0.0000  0.0000
    1GR    C228  228   2.056   0.123   1.900  0.0000  0.0000  0.0000
    1GR    C229  229   1.702   0.246   1.900  0.0000  0.0000  0.0000
    1GR    C230  230   1.843   0.246   1.900  0.0000  0.0000  0.0000
    1GR    C231  231   1.914   0.368   1.900  0.0000  0.0000  0.0000
    1GR    C232  232   2.056   0.368   1.900  0.0000  0.0000  0.0000
    1GR    C233  233   1.702   0.491   1.900  0.0000  0.0000  0.0000
    1GR    C234  234   1.843   0.491   1.900  0.0000  0.0000  0.0000
    1GR    C235  235   1.914   0.614   1.900  0.0000  0.0000  0.0000
    1GR    C236  236   2.056   0.614   1.900  0.0000  0.0000  0.0000
    1GR    C237  237   1.702   0.737   1.900  0.0000  0.0000  0.0000
    1GR    C238  238   1.843   0.737   1.900  0.0000  0.0000  0.0000
    1GR    C239  239   1.914   0.860   1.900  0.0000  0.0000  0.0000
    1GR    C240  240   2.056   0.860   1.900  0.0000  0.0000  0.0000
    1GR    C241  241   1.702   0.982   1.900  0.0000  0.0000  0.0000
    1GR    C242  242   1.843   0.982   1.900  0.0000  0.0000  0.0000
    1GR    C243  243   1.914   1.105   1.900  0.0000  0.0000  0.0000
    1GR    C244  244   2.056   1.105   1.900  0.0000  0.0000  0.0000
    1GR    C245  245   1.702   1.228   1.900  0.0000  0.0000  0.0000
    1GR    C246  246   1.843   1.228   1.900  0.0000  0.0000  0.0000
    1GR    C247  247   1.914   1.351   1.900  0.0000  0.0000  0.0000
    1GR    C248  248   2.056   1.351   1.900  0.0000  0.0000  0.0000
    1GR    C249  249   1.702   1.474   1.900  0.0000  0.0000  0.0000
    1GR    C250  250   1.843   1.474   1.900  0.0000  0.0000  0.0000
    1GR    C251  251   1.914   1.596   1.900  0.0000  0.0000  0.0000
    1GR    C252  252   2.056   1.596   1.900  0.0000  0.0000  0.0000
    1GR    C253  253   1.702   1.719   1.900  0.0000  0.0000  0.0000
    1GR    C254  254   1.843   1.719   1.900  0.0000  0.0000  0.0000
    1GR    C255  255   1.914   1.842   1.900  0.0000  0.0000  0.0000
    1GR    C256  256   2.056   1.842   1.900  0.0000  0.0000  0.0000
    1GR    C257  257   1.702   1.965   1.900  0.0000  0.0000  0.0000
    1GR    C258  258   1.843   1.965   1.900  0.0000  0.0000  0.0000
    1GR    C259  259   1.914   2.088   1.900  0.0000  0.0000  0.0000
    1GR    C260  260   2.056   2.088   1.900  0.0000  0.0000  0.0000
    1GR    C261  261   1.702   2.210   1.900  0.0000  0.0000  0.0000
    1GR    C262  262   1.843   2.210   1.900  0.0000  0.0000  0.0000
    1GR    C263  263   1.914   2.333   1.900  0.0000  0.0000  0.0000
    1GR    C264  264   2.056   2.333   1.900  0.0000  0.0000  0.0000
    1GR    C265  265   1.702   2.456   1.900  0.0000  0.0000  0.0000
    1GR    C266  266   1.843   2.456   1.900  0.0000  0.0000  0.0000
    1GR    C267  267   1.914   2.579   1.900  0.0000  0.0000  0.0000
    1GR    C268  268   2.056   2.579   1.900  0.0000  0.0000  0.0000
    1GR    C269  269   1.702   2.702   1.900  0.0000  0.0000  0.0000
    1GR    C270  270   1.843   2.702   1.900  0.0000  0.0000  0.0000
    1GR    C271  271   1.914   2.824   1.900  0.0000  0.0000  0.0000
    1GR    C272  272   2.056   2.824   1.900  0.0000  0.0000  0.0000
    1GR    C273  273   1.702   2.947   1.900  0.0000  0.0000  0.0000
    1GR    C274  274   1.843   2.947   1.900  0.0000  0.0000  0.0000
    1GR    C275  275   1.914   3.070   1.900  0.0000  0.0000  0.0000
    1GR    C276  276   2.056   3.070   1.900  0.0000  0.0000  0.0000
    1GR    C277  277   1.702   3.193   1.900  0.0000  0.0000  0.0000
    1GR    C278  278   1.843   3.193   1.900  0.0000  0.0000  0.0000
    1GR    C279  279   1.914   3.316   1.900  0.0000  0.0000  0.0000
    1GR    C280  280   2.056   3.316   1.900  0.0000  0.0000  0.0000
    1GR    C281  281   2.127   0.000   1.900  0.0000  0.0000  0.0000
    1GR    C282  282   2.269   0.000   1.900  0.0000  0.0000  0.0000
    1GR    C283  283   2.340   0.123   1.900  0.0000  0.0000  0.0000
    1GR    C284  284   2.481   0.123   1.900  0.0000  0.0000  0.0000
    1GR    C285  285   2.127   0.246   1.900  0.0000  0.0000  0.0000
    1GR    C286  286   2.269   0.246   1.900  0.0000  0.0000  0.0000
    1GR    C287  287   2.340   0.368   1.900  0.0000  0.0000  0.0000
    1GR    C288  288   2.481   0.368   1.900  0.0000  0.0000  0.0000
    1GR    C289  289   2.127   0.491   1.900  0.0000  0.0000  0.0000
    1GR    C290  290   2.269   0.491   1.900  0.0000  0.0000  0.0000
    1GR    C291  291   2.340   0.614   1.900  0.0000  0.0000  0.0000
    1GR    C292  292   2.481   0.614   1.900  0.0000  0.0000  0.0000
    1GR    C293  293   2.127   0.737   1.900  0.0000  0.0000  0.0000
    1GR    C294  294   2.269   0.737   1.900  0.0000  0.0000  0.0000
    1GR    C295  295   2.340   0.860   1.900  0.0000  0.0000  0.0000
    1GR    C296  296   2.481   0.860   1.900  0.0000  0.0000  0.0000
    1GR    C297  297   2.127   0.982   1.900  0.0000  0.0000  0.0000
    1GR    C298  298   2.269   0.982   1.900  0.0000  0.0000  0.0000
    1GR    C299  299   2.340   1.105   1.900  0.0000  0.0000  0.0000
    1GR    C300  300   2.481   1.105   1.900  0.0000  0.0000  0.0000
    1GR    C301  301   2.127   1.228   1.900  0.0000  0.0000  0.0000
    1GR    C302  302   2.269   1.228   1.900  0.0000  0.0000  0.0000
    1GR    C303  303   2.340   1.351   1.900  0.0000  0.0000  0.0000
    1GR    C304  304   2.481   1.351   1.900  0.0000  0.0000  0.0000
    1GR    C305  305   2.127   1.474   1.900  0.0000  0.0000  0.0000
    1GR    C306  306   2.269   1.474   1.900  0.0000  0.0000  0.0000
    1GR    C307  307   2.340   1.596   1.900  0.0000  0.0000  0.0000
    1GR    C308  308   2.481   1.596   1.900  0.0000  0.0000  0.0000
    1GR    C309  309   2.127   1.719   1.900  0.0000  0.0000  0.0000
    1GR    C310  310   2.269   1.719   1.900  0.0000  0.0000  0.0000
    1GR    C311  311   2.340   1.842   1.900  0.0000  0.0000  0.0000
    1GR    C312  312   2.481   1.842   1.900  0.0000  0.0000  0.0000
    1GR    C313  313   2.127   1.965   1.900  0.0000  0.0000  0.0000
    1GR    C314  314   2.269   1.965   1.900  0.0000  0.0000  0.0000
    1GR    C315  315   2.340   2.088   1.900  0.0000  0.0000  0.0000
    1GR    C316  316   2.481   2.088   1.900  0.0000  0.0000  0.0000
    1GR    C317  317   2.127   2.210   1.900  0.0000  0.0000  0.0000
    1GR    C318  318   2.269   2.210   1.900  0.0000  0.0000  0.0000
    1GR    C319  319   2.340   2.333   1.900  0.0000  0.0000  0.0000
    1GR    C320  320   2.481   2.333   1.900  0.0000  0.0000  0.0000
    1GR    C321  321   2.127   2.456   1.900  0.0000  0.0000  0.0000
    1GR    C322  322   2.269   2.456   1.900  0.0000  0.0000  0.0000
    1GR    C323  323   2.340   2.579   1.900  0.0000  0.0000  0.0000
    1GR    C324  324   2.481   2.579   1.900  0.0000  0.0000  0.0000
    1GR    C325  325   2.127   2.702   1.900  0.0000  0.0000  0.0000
    1GR    C326  326   2.269   2.702   1.900  0.0000  0.0000  0.0000
    1GR    C327  327   2.340   2.824   1.900  0.0000  0.0000  0.0000
    1GR    C328  328   2.481   2.824   1.900  0.0000  0.0000  0.0000
    1GR    C329  329   2.127   2.947   1.900  0.0000  0.0000  0.0000
    1GR    C330  330   2.269   2.947   1.900  0.0000  0.0000  0.0000
    1GR    C331  331   2.340   3.070   1.900  0.0000  0.0000  0.0000
    1GR    C332  332   2.481   3.070   1.900  0.0000  0.0000  0.0000
    1GR    C333  333   2.127   3.193   1.900  0.0000  0.0000  0.0000
    1GR    C334  334   2.269   3.193   1.900  0.0000  0.0000  0.0000
    1GR    C335  335   2.340   3.316   1.900  0.0000  0.0000  0.0000
    1GR    C336  336   2.481   3.316   1.900  0.0000  0.0000  0.0000
    1GR    C337  337   2.552   0.000   1.900  0.0000  0.0000  0.0000
    1GR    C338  338   2.694   0.000   1.900  0.0000  0.0000  0.0000
    1GR    C339  339   2.765   0.123   1.900  0.0000  0.0000  0.0000
    1GR    C340  340   2.907   0.123   1.900  0.0000  0.0000  0.0000
    1GR    C341  341   2.552   0.246   1.900  0.0000  0.0000  0.0000
    1GR    C342  342   2.694   0.246   1.900  0.0000  0.0000  0.0000
    1GR    C343  343   2.765   0.368   1.900  0.0000  0.0000  0.0000
    1GR    C344  344   2.907   0.368   1.900  0.0000  0.0000  0.0000
    1GR    C345  345   2.552   0.491   1.900  0.0000  0.0000  0.0000
    1GR    C346  346   2.694   0.491   1.900  0.0000  0.0000  0.0000
    1GR    C347  347   2.765   0.614   1.900  0.0000  0.0000  0.0000
    1GR    C348  348   2.907   0.614   1.900  0.0000  0.0000  0.0000
    1GR    C349  349   2.552   0.737   1.900  0.0000  0.0000  0.0000
    1GR    C350  350   2.694   0.737   1.900  0.0000  0.0000  0.0000
    1GR    C351  351   2.765   0.860   1.900  0.0000  0.0000  0.0000
    1GR    C352  352   2.907   0.860   1.900  0.0000  0.0000  0.0000
    1GR    C353  353   2.552   0.982   1.900  0.0000  0.0000  0.0000
    1GR    C354  354   2.694   0.982   1.900  0.0000  0.0000  0.0000
    1GR    C355  355   2.765   1.105   1.900  0.0000  0.0000  0.0000
    1GR    C356  356   2.907   1.105   1.900  0.0000  0.0000  0.0000
    1GR    C357  357   2.552   1.228   1.900  0.0000  0.0000  0.0000
    1GR    C358  358   2.694   1.228   1.900  0.0000  0.0000  0.0000
    1GR    C359  359   2.765   1.351   1.900  0.0000  0.0000  0.0000
    1GR    C360  360   2.907   1.351   1.900  0.0000  0.0000  0.0000
    1GR    C361  361   2.552   1.474   1.900  0.0000  0.0000  0.0000
    1GR    C362  362   2.694   1.474   1.900  0.0000  0.0000  0.0000
    1GR    C363  363   2.765   1.596   1.900  0.0000  0.0000  0.0000
    1GR    C364  364   2.907   1.596   1.900  0.0000  0.0000  0.0000
    1GR    C365  365   2.552   1.719   1.900  0.0000  0.0000  0.0000
    1GR    C366  366   2.694   1.719   1.900  0.0000  0.0000  0.0000
    1GR    C367  367   2.765   1.842   1.900  0.0000  0.0000  0.0000
    1GR    C368  368   2.907   1.842   1.900  0.0000  0.0000  0.0000
    1GR    C369  369   2.552   1.965   1.900  0.0000  0.0000  0.0000
    1GR    C370  370   2.694   1.965   1.900  0.0000  0.0000  0.0000
    1GR    C371  371   2.765   2.088   1.900  0.0000  0.0000  0.0000
    1GR    C372  372   2.907   2.088   1.900  0.0000  0.0000  0.0000
    1GR    C373  373   2.552   2.210   1.900  0.0000  0.0000  0.0000
    1GR    C374  374   2.694   2.210   1.900  0.0000  0.0000  0.0000
    1GR    C375  375   2.765   2.333   1.900  0.0000  0.0000  0.0000
    1GR    C376  376   2.907   2.333   1.900  0.0000  0.0000  0.0000
    1GR    C377  377   2.552   2.456   1.900  0.0000  0.0000  0.0000
    1GR    C378  378   2.694   2.456   1.900  0.0000  0.0000  0.0000
    1GR    C379  379   2.765   2.579   1.900  0.0000  0.0000  0.0000
    1GR    C380  380   2.907   2.579   1.900  0.0000  0.0000  0.0000
    1GR    C381  381   2.552   2.702   1.900  0.0000  0.0000  0.0000
    1GR    C382  382   2.694   2.702   1.900  0.0000  0.0000  0.0000
    1GR    C383  383   2.765   2.824   1.900  0.0000  0.0000  0.0000
    1GR    C384  384   2.907   2.824   1.900  0.0000  0.0000  0.0000
    1GR    C385  385   2.552   2.947   1.900  0.0000  0.0000  0.0000
    1GR    C386  386   2.694   2.947   1.900  0.0000  0.0000  0.0000
    1GR    C387  387   2.765   3.070   1.900  0.0000  0.0000  0.0000
    1GR    C388  388   2.907   3.070   1.900  0.0000  0.0000  0.0000
    1GR    C389  389   2.552   3.193   1.900  0.0000  0.0000  0.0000
    1GR    C390  390   2.694   3.193   1.900  0.0000  0.0000  0.0000
    1GR    C391  391   2.765   3.316   1.900  0.0000  0.0000  0.0000
    1GR    C392  392   2.907   3.316   1.900  0.0000  0.0000  0.0000
    1GR    C393  393   2.978   0.000   1.900  0.0000  0.0000  0.0000
    1GR    C394  394   3.120   0.000   1.900  0.0000  0.0000  0.0000
    1GR    C395  395   3.191   0.123   1.900  0.0000  0.0000  0.0000
    1GR    C396  396   3.332   0.123   1.900  0.0000  0.0000  0.0000
    1GR    C397  397   2.978   0.246   1.900  0.0000  0.0000  0.0000
    1GR    C398  398   3.120   0.246   1.900  0.0000  0.0000  0.0000
    1GR    C399  399   3.191   0.368   1.900  0.0000  0.0000  0.0000
    1GR    C400  400   3.332   0.368   1.900  0.0000  0.0000  0.0000
    1GR    C401  401   2.978   0.491   1.900  0.0000  0.0000  0.0000
    1GR    C402  402   3.120   0.491   1.900  0.0000  0.0000  0.0000
    1GR    C403  403   3.191   0.614   1.900  0.0000  0.0000  0.0000
    1GR    C404  404   3.332   0.614   1.900  0.0000  0.0000  0.0000
    1GR    C405  405   2.978   0.737   1.900  0.0000  0.0000  0.0000
    1GR    C406  406   3.120   0.737   1.900  0.0000  0.0000  0.0000
    1GR    C407  407   3.191   0.860   1.900  0.0000  0.0000  0.0000
    1GR    C408  408   3.332   0.860   1.900  0.0000  0.0000  0.0000
    1GR    C409  409   2.978   0.982   1.900  0.0000  0.0000  0.0000
    1GR    C410  410   3.120   0.982   1.900  0.0000  0.0000  0.0000
    1GR    C411  411   3.191   1.105   1.900  0.0000  0.0000  0.0000
    1GR    C412  412   3.332   1.105   1.900  0.0000  0.0000  0.0000
    1GR    C413  413   2.978   1.228   1.900  0.0000  0.0000  0.0000
    1GR    C414  414   3.120   1.228   1.900  0.0000  0.0000  0.0000
    1GR    C415  415   3.191   1.351   1.900  0.0000  0.0000  0.0000
    1GR    C416  416   3.332   1.351   1.900  0.0000  0.0000  0.0000
    1GR    C417  417   2.978   1.474   1.900  0.0000  0.0000  0.0000
    1GR    C418  418   3.120   1.474   1.900  0.0000  0.0000  0.0000
    1GR    C419  419   3.191   1.596   1.900  0.0000  0.0000  0.0000
    1GR    C420  420   3.332   1.596   1.900  0.0000  0.0000  0.0000
    1GR    C421  421   2.978   1.719   1.900  0.0000  0.0000  0.0000
    1GR    C422  422   3.120   1.719   1.900  0.0000  0.0000  0.0000
    1GR    C423  423   3.191   1.842   1.900  0.0000  0.0000  0.0000
    1GR    C424  424   3.332   1.842   1.900  0.0000  0.0000  0.0000
    1GR    C425  425   2.978   1.965   1.900  0.0000  0.0000  0.0000
    1GR    C426  426   3.120   1.965   1.900  0.0000  0.0000  0.0000
    1GR    C427  427   3.191   2.088   1.900  0.0000  0.0000  0.0000
    1GR    C428  428   3.332   2.088   1.900  0.0000  0.0000  0.0000
    1GR    C429  429   2.978   2.210   1.900  0.0000  0.0000  0.0000
    1GR    C430  430   3.120   2.210   1.900  0.0000  0.0000  0.0000
    1GR    C431  431   3.191   2.333   1.900  0.0000  0.0000  0.0000
    1GR    C432  432   3.332   2.333   1.900  0.0000  0.0000  0.0000
    1GR    C433  433   2.978   2.456   1.900  0.0000  0.0000  0.0000
    1GR    C434  434   3.120   2.456   1.900  0.0000  0.0000  0.0000
    1GR    C435  435   3.191   2.579   1.900  0.0000  0.0000  0.0000
    1GR    C436  436   3.332   2.579   1.900  0.0000  0.0000  0.0000
    1GR    C437  437   2.978   2.702   1.900  0.0000  0.0000  0.0000
    1GR    C438  438   3.120   2.702   1.900  0.0000  0.0000  0.0000
    1GR    C439  439   3.191   2.824   1.900  0.0000  0.0000  0.0000
    1GR    C440  440   3.332   2.824   1.900  0.0000  0.0000  0.0000
    1GR    C441  441   2.978   2.947   1.900  0.0000  0.0000  0.0000
    1GR    C442  442   3.120   2.947   1.900  0.0000  0.0000  0.0000
    1GR    C443  443   3.191   3.070   1.900  0.0000  0.0000  0.0000
    1GR    C444  444   3.332   3.070   1.900  0.0000  0.0000  0.0000
    1GR    C445  445   2.978   3.193   1.900  0.0000  0.0000  0.0000
    1GR    C446  446   3.120   3.193   1.900  0.0000  0.0000  0.0000
    1GR    C447  447   3.191   3.316   1.900  0.0000  0.0000  0.0000
    1GR    C448  448   3.332   3.316   1.900  0.0000  0.0000  0.0000
    2PMMA   CX1  449   2.863   0.033   2.860 -0.9020  0.1360 -0.3233
    2PMMA   CA2  450   2.951   0.094   2.975  0.0543 -0.3047  0.4986
    2PMMA   CX3  451   3.059   0.183   2.906 -0.1185  0.3461 -0.7431
    2PMMA    C4  452   2.848   0.155   3.071 -0.4954 -0.2534  0.5457
    2PMMA    O5  453   2.772   0.097   3.141 -0.5259 -0.0054 -0.0105
    2PMMA   OS6  454   2.845   0.290   3.064 -0.1945 -0.0589 -0.1126
    2PMMA   CE7  455   2.765   0.368   3.147 -0.0738 -0.0071  0.0980
    2PMMA   CX8  456   3.022  -0.025   3.045  0.2748 -0.6299  0.4576
    2PMMA   CA9  457   3.135  -0.005   3.147 -0.8758  0.0503 -0.1879
    2PMMA  CX10  458   3.276   0.037   3.101  0.0261  0.3767  0.0148
    2PMMA   C11  459   3.152  -0.154   3.197  0.0382 -0.5316  0.3587
    2PMMA   O12  460   3.227  -0.239   3.150  0.6883  0.0551 -0.1674
    2PMMA  OS13  461   3.050  -0.187   3.280 -0.5183 -0.0389  0.0254
    2PMMA  CE14  462   3.025  -0.323   3.325  0.3288  0.4732  0.7991
    2PMMA  CX15  463   3.089   0.098   3.257 -0.0818 -0.8349 -0.2083
    2PMMA  CA16  464   3.167   0.128   3.396 -0.3558 -0.4220 -0.4207
    2PMMA  CX17  465   3.057   0.198   3.484 -0.4019 -0.2152  0.1892
    2PMMA   C18  466   3.213  -0.007   3.454 -0.4970  0.2058 -0.1805
    2PMMA   O19  467   3.169  -0.041   3.560 -0.3974  0.6547  0.0727
    2PMMA  OS20  468   3.320  -0.066   3.399 -0.1736 -0.2407  0.4382
    2PMMA  CE21  469   3.381  -0.182   3.471 -0.6281  0.0705 -0.2822
    2PMMA  CX22  470   3.295   0.218   3.369  0.0757  0.7405 -0.1710
    2PMMA  CA23  471   3.363   0.302   3.486  0.4364 -0.6820  0.1736
    2PMMA  CX24  472   3.381   0.205   3.610 -0.3469 -0.3520  0.0665
    2PMMA   C25  473   3.287   0.426   3.515 -0.1066 -0.1508 -0.4885
    2PMMA   O26  474   3.233   0.490   3.425  0.0497 -0.0268 -0.5858
    2PMMA  OS27  475   3.256   0.448   3.648  0.4611 -0.0542 -0.1904
    2PMMA  CE28  476   3.187   0.567   3.684  0.6354 -0.1618 -0.5142
    2PMMA  CX29  477   3.506   0.350   3.441  0.2491  0.1792 -0.2645
    2PMMA  HC30  478   2.792  -0.042   2.896 -0.6957 -0.6101 -1.4405
    2PMMA  HC31  479   2.805   0.103   2.799  0.5471  1.8687  0.2424
    2PMMA  HC32  480   2.927  -0.020   2.789  2.1884  0.3833  2.1804
    2PMMA  HC33  481   3.130   0.233   2.973 -1.9143  1.7253  0.1516
    2PMMA  HC34  482   3.010   0.259   2.845 -0.9611 -0.4422 -1.0624
    2PMMA  HC35  483   3.123   0.124   2.839  0.0474 -0.3190 -0.0051
    2PMMA  H136  484   2.743   0.323   3.244  2.0100 -0.3489  0.4392
    2PMMA  H137  485   2.667   0.387   3.102 -0.6306  3.4041  2.5932
    2PMMA  H138  486   2.808   0.464   3.174 -1.5707  1.1286 -1.4568
    2PMMA  HC39  487   2.940  -0.081   3.090 -2.1200 -0.5596 -3.5844
    2PMMA  HC40  488   3.065  -0.088   2.966 -2.9773 -1.2790 -0.8565
    2PMMA  HC41  489   3.284  -0.006   3.001  2.2231  0.0686  0.3191
    2PMMA  HC42  490   3.295   0.143   3.082 -0.2899  0.6646  1.2269
    2PMMA  HC43  491   3.366   0.008   3.155  0.6608  1.3092 -0.5192
    2PMMA  H144  492   3.117  -0.376   3.349  1.9402  2.5427 -0.6033
    2PMMA  H145  493   2.976  -0.382   3.246 -0.4801  0.2785  1.4380
    2PMMA  H146  494   2.958  -0.321   3.411 -1.1230  1.8615 -0.3267
    2PMMA  HC47  495   3.073   0.188   3.196  0.1196 -0.8778 -0.3239
    2PMMA  HC48  496   2.989   0.075   3.295 -0.4266 -1.6132 -1.5564
    2PMMA  HC49  497   3.009   0.282   3.434  1.8720  1.1781  0.2862
    2PMMA  HC50  498   3.099   0.241   3.576 -1.1238  0.4816  0.1999
    2PMMA  HC51  499   2.973   0.137   3.519 -0.2438 -1.0422 -0.8754
    2PMMA  H152  500   3.439  -0.148   3.557 -1.8213 -1.2696  1.0836
    2PMMA  H153  501   3.446  -0.234   3.401 -0.0599 -0.6037  0.7357
    2PMMA  H154  502   3.297  -0.238   3.513 -0.1493  0.9657  1.9811
    2PMMA  HC55  503   3.377   0.168   3.315  0.3121  1.0891 -0.1385
    2PMMA  HC56  504   3.262   0.292   3.295  1.6061  2.1895  0.5706
    2PMMA  HC57  505   3.414   0.105   3.581 -0.4790 -0.8244  1.5379
    2PMMA  HC58  506   3.460   0.248   3.672 -2.9732  2.8387  1.3680
    2PMMA  HC59  507   3.291   0.205   3.671 -0.3079  0.0578  0.1295
    2PMMA  H160  508   3.084   0.572   3.649  0.0488 -0.4548  1.1172
    2PMMA  H161  509   3.235   0.657   3.644  0.3224  1.4652  2.5659
    2PMMA  H162  510   3.201   0.589   3.790  1.2446  0.9473 -0.8117
    2PMMA  HC63  511   3.586   0.276   3.451  1.7344  1.7162 -0.5174
    2PMMA  HC64  512   3.518   0.387   3.339  3.8366  0.7531  0.3070
    2PMMA  HC65  513   3.530   0.429   3.514  0.1441 -1.6083  1.7612
    3HFI     O1  514   2.227   2.665   3.675 -0.6023  0.4172  0.3986
    3HFI     C1  515   2.090   2.676   3.730 -0.4351 -0.1411 -0.4854
    3HFI     C2  516   2.058   2.558   3.827 -0.7479  0.1218  0.4797
    3HFI     F1  517   2.158   2.539   3.917  0.0122  0.4602 -0.5023
    3HFI     F2  518   2.048   2.443   3.764 -0.2144  0.6262 -0.1992
    3HFI     F3  519   1.947   2.575   3.891 -0.2167 -0.7776 -0.2057
    3HFI     C3  520   1.983   2.714   3.628 -0.0202  0.7310 -0.3576
    3HFI     F4  521   1.857   2.678   3.662  0.3254 -0.0070 -0.5895
    3HFI     F5  522   2.016   2.643   3.514  0.5161  0.1483 -0.5538
    3HFI     F6  523   1.981   2.843   3.598 -0.0352  0.2453 -0.4375
    3HFI     H1  524   2.224   2.655   3.578  1.5356  1.7662  0.1781
    3HFI     H2  525   2.102   2.766   3.791  0.9091  0.8005 -2.0967
    4HFI     O1  526   1.653   1.209   0.592 -0.3775  0.1665 -0.4879
    4HFI     C1  527   1.665   1.343   0.549 -0.1296 -0.5946  0.1479
    4HFI     C2  528   1.700   1.446   0.668 -0.8718  0.5501  0.3956
    4HFI     F1  529   1.752   1.555   0.604  0.1886  0.4963 -0.4254
    4HFI     F2  530   1.794   1.396   0.752  0.2439  0.1324 -0.0700
    4HFI     F3  531   1.588   1.483   0.733  0.0302  0.1192 -0.2908
    4HFI     C3  532   1.525   1.375   0.484 -0.5393 -0.2383 -0.3334
    4HFI     F4  533   1.504   1.295   0.380  0.3738 -0.0939 -0.7378
    4HFI     F5  534   1.515   1.502   0.450 -0.1909  0.1782  0.2871
    4HFI     F6  535   1.420   1.354   0.564  0.0002 -0.2003  0.2379
    4HFI     H1  536   1.691   1.150   0.524  2.6183 -0.7304  1.8561
    4HFI     H2  537   1.740   1.353   0.469 -0.7042 -0.9968 -0.4345
    5HFI     O1  538   3.351   3.421   0.184 -0.2649 -1.1552  0.2368
    5HFI     C1  539   3.316   3.512   0.300 -0.1615  0.4761  0.5776
    5HFI     C2  540   3.302   3.663   0.254 -0.5483 -0.5766 -0.0162
    5HFI     F1  541   3.225   3.734   0.345  0.0526 -0.0927  0.4986
    5HFI     F2  542   3.237   3.666   0.135 -0.4735 -0.8404 -0.3301
    5HFI     F3  543   3.421   3.724   0.236  0.1865  0.3980 -0.0756
    5HFI     C3  544   3.387   3.477   0.436  0.4238 -0.9722 -0.3144
    5HFI     F4  545   3.360   3.561   0.530 -0.1666 -0.4271  0.8855
    5HFI     F5  546   3.522   3.471   0.419  0.2242  0.2837 -0.0086
    5HFI     F6  547   3.347   3.357   0.483  0.3085  0.1541  0.6478
    5HFI     H1  548   3.290   3.451   0.115  1.0650  1.1430  0.0184
    5HFI     H2  549   3.211   3.500   0.327 -0.1454 -0.2623  0.3493
    6HFI     O1  550   1.240   0.625   3.687  0.0152  0.3223 -0.3640
    6HFI     C1  551   1.172   0.697   3.792 -0.0555 -0.1089 -0.4810
    6HFI     C2  552   1.264   0.728   3.915 -0.1121  0.3377 -0.3506
    6HFI     F1  553   1.267   0.621   4.005  0.1910 -0.0075 -0.0755
    6HFI     F2  554   1.215   0.843   3.976 -0.1662 -0.2636  0.4381
    6HFI     F3  555   1.391   0.750   3.867  0.6113  0.5111  0.4283
    6HFI     C3  556   1.034   0.634   3.828 -0.3066  1.1968 -0.6669
    6HFI     F4  557   0.978   0.701   3.927 -0.3806  0.8632 -0.2415
    6HFI     F5  558   1.055   0.500   3.870 -0.5939 -0.4446 -0.3161
    6HFI     F6  559   0.941   0.629   3.737 -0.0723  0.5436 -0.2104
    6HFI     H1  560   1.212   0.664   3.602 -0.0863  0.1647 -0.4043
    6HFI     H2  561   1.144   0.795   3.752 -1.5162 -0.2420  0.1595
    7HFI     O1  562   1.846   2.528   0.485 -0.2011 -0.6890  0.7391
    7HFI     C1  563   1.896   2.397   0.532  0.1339 -0.4436  0.0833
    7HFI     C2  564   1.895   2.384   0.688 -0.1448 -0.1963  0.9131
    7HFI     F1  565   1.996   2.457   0.737 -0.0558 -0.5878  0.3175
    7HFI     F2  566   1.917   2.257   0.722  0.1407 -0.6449 -0.2563
    7HFI     F3  567   1.784   2.423   0.747 -0.4081 -0.1877 -0.4267
    7HFI     C3  568   2.036   2.374   0.464 -0.8062  0.4310 -0.1162
    7HFI     F4  569   2.017   2.357   0.333  0.2140  0.1932  0.4247
    7HFI     F5  570   2.092   2.267   0.518  0.2023 -0.0853 -0.1846
    7HFI     F6  571   2.117   2.482   0.476  0.5389  0.3291 -0.9298
    7HFI     H1  572   1.919   2.586   0.457 -0.4983 -0.3090  0.7368
    7HFI     H2  573   1.831   2.319   0.491  0.5008 -1.5687  1.5834
    8HFI     O1  574   0.369   2.329   1.576  0.2753 -0.3585  0.1596
    8HFI     C1  575   0.433   2.324   1.445  0.0273 -0.2744  0.3407
    8HFI     C2  576   0.387   2.203   1.354 -0.4942  0.6827  0.1124
    8HFI     F1  577   0.379   2.083   1.419 -0.1563  0.3143  0.2132
    8HFI     F2  578   0.469   2.178   1.245  0.6210 -0.0899 -0.2943
    8HFI     F3  579   0.262   2.235   1.312  0.3000  0.0442 -0.4998
    8HFI     C3  580   0.588   2.341   1.445 -0.0119 -0.4679  0.0123
    8HFI     F4  581   0.622   2.446   1.519  0.2716 -0.8480  0.4227
    8HFI     F5  582   0.642   2.361   1.321 -0.0949 -0.0242  0.0629
    8HFI     F6  583   0.647   2.229   1.491 -0.0028 -0.1911  0.2664
    8HFI     H1  584   0.437   2.332   1.646  0.3881  1.7900 -0.0014
    8HFI     H2  585   0.397   2.413   1.390 -1.1889 -0.2536  1.1418
    9HFI     O1  586   2.705   0.758   1.311  0.2205  0.0796 -0.4353
    9HFI     C1  587   2.751   0.707   1.437 -1.7189 -0.3355 -0.5218
    9HFI     C2  588   2.903   0.666   1.439  0.6967 -0.3708  0.0228
    9HFI     F1  589   2.957   0.663   1.564 -0.0135 -0.5251 -0.1171
    9HFI     F2  590   2.984   0.741   1.356  0.4649  0.4549 -0.0343
    9HFI     F3  591   2.915   0.549   1.381  0.3832  0.4024  0.7536
    9HFI     C3  592   2.651   0.613   1.508 -0.1846  0.0008 -0.4450
    9HFI     F4  593   2.716   0.535   1.602  0.0767 -0.0064  0.3539
    9HFI     F5  594   2.602   0.537   1.421  0.1621 -0.1327 -0.0987
    9HFI     F6  595   2.544   0.685   1.563 -0.2914 -0.1303  0.6851
    9HFI     H1  596   2.695   0.680   1.253  1.1727 -0.5301  0.1914
    9HFI     H2  597   2.751   0.794   1.504  0.8592 -0.4177 -0.3491
   10HFI     O1  598   1.678   2.188   3.627 -0.3285 -0.5142 -0.0683
   10HFI     C1  599   1.710   2.278   3.734 -0.7217  0.6487  1.0207
   10HFI     C2  600   1.699   2.209   3.870  0.3488  0.5719 -0.5977
   10HFI     F1  601   1.752   2.287   3.967 -0.1023  0.5789  0.2263
   10HFI     F2  602   1.769   2.092   3.875  0.6974  0.0423  0.2946
   10HFI     F3  603   1.571   2.172   3.903 -0.0924 -0.1817  0.0202
   10HFI     C3  604   1.623   2.409   3.727 -0.5451 -0.2499 -0.3511
   10HFI     F4  605   1.500   2.386   3.776 -0.2259  0.5629 -0.2078
   10HFI     F5  606   1.612   2.460   3.605  0.1586 -0.7377  0.0883
   10HFI     F6  607   1.668   2.500   3.821  0.0862  0.2061 -0.0688
   10HFI     H1  608   1.583   2.170   3.619 -0.9082  1.9640  0.7628
   10HFI     H2  609   1.816   2.304   3.722 -0.1526 -1.9188  0.1369
   11HFI     O1  610   3.273   3.152   0.235 -0.3725  0.1887  0.0860
   11HFI     C1  611   3.379   3.051   0.258 -0.1617  0.3088 -0.4696
   11HFI     C2  612   3.331   2.965   0.374  0.2281 -0.4999 -0.6903
   11HFI     F1  613   3.323   3.035   0.492  0.2281  0.1849 -0.0188
   11HFI     F2  614   3.413   2.862   0.392  0.0646 -0.0131 -0.0145
   11HFI     F3  615   3.207   2.909   0.353  0.2904  0.5591  0.3168
   11HFI     C3  616   3.526   3.105   0.264 -0.0935 -0.6073  0.2097
   11HFI     F4  617   3.535   3.195   0.364  0.2054  0.5023  0.1429
   11HFI     F5  618   3.564   3.181   0.160  0.0634 -0.2820 -0.5542
   11HFI     F6  619   3.616   3.002   0.279  0.4835  0.3459  0.0985
   11HFI     H1  620   3.309   3.241   0.251  0.4413  0.2796 -2.0036
   11HFI     H2  621   3.383   2.976   0.178 -3.4584  1.6769 -2.0009
   12HFI     O1  622   2.008   2.304   1.004 -0.2959  0.2122 -0.2460
   12HFI     C1  623   1.932   2.314   1.120 -0.0081 -0.3186  0.3660
   12HFI     C2  624   1.796   2.245   1.105  0.3209  0.0796 -0.9796
   12HFI     F1  625   1.800   2.162   0.999  0.6890 -0.3827  0.4582
   12HFI     F2  626   1.686   2.320   1.095 -0.1806 -0.3463  0.0531
   12HFI     F3  627   1.775   2.165   1.215  0.1841  0.0389  0.1254
   12HFI     C3  628   1.906   2.464   1.153  0.0194 -0.0758 -0.2497
   12HFI     F4  629   1.834   2.529   1.059  0.4899 -0.1568  0.0582
   12HFI     F5  630   2.025   2.528   1.151  0.7924  0.0752 -0.1411
   12HFI     F6  631   1.844   2.487   1.275  0.8622  0.1764  0.3614
   12HFI     H1  632   2.081   2.368   1.010 -1.0612  1.0474  0.3534
   12HFI     H2  633   1.986   2.268   1.203  2.5549 -0.0874 -1.1332
   13HFI     O1  634   2.750   1.044   0.413 -0.1390  0.9056  0.1157
   13HFI     C1  635   2.649   1.023   0.515  0.4746 -0.2749  0.2975
   13HFI     C2  636   2.648   0.869   0.556 -0.2088  0.1286  0.3173
   13HFI     F1  637   2.776   0.825   0.594 -0.3709  0.0062 -0.2633
   13HFI     F2  638   2.620   0.800   0.445 -0.0088  0.6709 -0.8639
   13HFI     F3  639   2.559   0.848   0.655  0.0095  0.0762  0.2328
   13HFI     C3  640   2.512   1.083   0.471 -1.0512  0.8210  0.6178
   13HFI     F4  641   2.415   1.057   0.564 -0.2460 -0.2259  0.2391
   13HFI     F5  642   2.482   1.017   0.356  0.3725  0.2746 -0.4945
   13HFI     F6  643   2.513   1.215   0.454 -0.2148 -0.1366 -0.4595
   13HFI     H1  644   2.759   0.967   0.355  0.8403  1.1727 -0.1105
   13HFI     H2  645   2.680   1.079   0.604  0.1171  1.5341 -0.7020
   14HFI     O1  646   0.618   0.974   0.371  0.0122 -0.2119 -0.7212
   14HFI     C1  647   0.540   0.948   0.492 -0.3096  0.2400 -0.3534
   14HFI     C2  648   0.393   0.953   0.448  0.3168 -0.4809  0.3470
   14HFI     F1  649   0.353   1.082   0.405 -0.1537 -0.1549  0.8692
   14HFI     F2  650   0.309   0.923   0.558 -0.0192  0.2910  0.3289
   14HFI     F3  651   0.369   0.868   0.347 -0.2138 -0.2849  0.1206
   14HFI     C3  652   0.581   1.054   0.598  0.0892 -0.5769  0.6262
   14HFI     F4  653   0.698   1.009   0.653 -0.4172  0.2177 -0.3337
   14HFI     F5  654   0.492   1.072   0.697 -0.4430  0.7937 -0.5159
   14HFI     F6  655   0.602   1.177   0.539  0.3502  0.3787  0.1179
   14HFI     H1  656   0.580   1.050   0.324  0.4536  0.5955  0.2180
   14HFI     H2  657   0.563   0.847   0.528 -0.6531  0.5442  0.7397
   15HFI     O1  658   1.231   3.356   1.367  0.1123 -0.2035 -0.3318
   15HFI     C1  659   1.366   3.408   1.363 -0.2157 -0.5217  0.5254
   15HFI     C2  660   1.414   3.434   1.214 -0.7720 -0.6094 -0.4834
   15HFI     F1  661   1.529   3.508   1.214 -0.4528 -0.2725  0.1635
   15HFI     F2  662   1.318   3.504   1.153 -0.3206  0.3636  0.1790
   15HFI     F3  663   1.437   3.315   1.146  0.6081 -0.5488 -0.5173
   15HFI     C3  664   1.462   3.320   1.446 -0.6266 -0.0738  0.2544
   15HFI     F4  665   1.501   3.203   1.381 -0.2203  0.2244  0.0076
   15HFI     F5  666   1.412   3.295   1.573  0.0037  0.3628  0.1977
   15HFI     F6  667   1.575   3.394   1.469  0.1086  0.2052 -0.2838
   15HFI     H1  668   1.210   3.307   1.286  0.3718  0.2486 -0.6720
   15HFI     H2  669   1.361   3.505   1.415 -1.9126 -1.1463  1.6048
   16HFI     O1  670   2.623   3.224   0.525 -0.1704  0.3156 -0.5804
   16HFI     C1  671   2.558   3.152   0.420 -1.0606 -0.6000 -0.3232
   16HFI     C2  672   2.442   3.234   0.341 -0.6911 -0.1504  0.4142
   16HFI     F1  673   2.408   3.180   0.224  0.1386  0.3111 -0.4622
   16HFI     F2  674   2.470   3.362   0.323  0.7985 -0.6933 -0.5523
   16HFI     F3  675   2.327   3.238   0.415  0.4884  0.3847  0.2498
   16HFI     C3  676   2.530   3.003   0.454 -0.5692 -0.2583  0.1936
   16HFI     F4  677   2.477   2.939   0.351 -0.1419  0.3644  0.4157
   16HFI     F5  678   2.439   2.997   0.555  0.0493  0.2398 -0.0325
   16HFI     F6  679   2.635   2.938   0.501  0.2377 -0.1672 -0.4387
   16HFI     H1  680   2.564   3.288   0.568  0.0371 -0.3562  0.7411
   16HFI     H2  681   2.630   3.138   0.339  0.4047  0.3468  0.7800
   17HFI     O1  682   3.239   2.692   1.614  0.1570  0.3588 -0.3732
   17HFI     C1  683   3.321   2.584   1.558  0.1249 -0.4139  0.9755
   17HFI     C2  684   3.406   2.640   1.436  0.6094  0.0575  0.0522
   17HFI     F1  685   3.330   2.713   1.351  0.6529 -0.1293 -0.0494
   17HFI     F2  686   3.478   2.546   1.370 -0.6563 -0.1838  0.6708
   17HFI     F3  687   3.495   2.726   1.491  0.2331 -0.5065  0.5745
   17HFI     C3  688   3.232   2.456   1.522  0.3333  1.0666  0.4917
   17HFI     F4  689   3.290   2.345   1.576 -0.1199 -0.2852  0.8574
   17HFI     F5  690   3.223   2.441   1.384  0.4277 -0.2663 -0.5355
   17HFI     F6  691   3.102   2.472   1.571  0.2448  0.1935  0.0876
   17HFI     H1  692   3.167   2.641   1.655 -0.5146  0.8763 -0.9013
   17HFI     H2  693   3.389   2.540   1.632  2.2775 -0.8578 -1.1937
   18HFI     O1  694   0.399   3.346   0.054  0.2461 -0.1635  0.1362
   18HFI     C1  695   0.380   3.420   0.175  0.1414  0.0654  0.3128
   18HFI     C2  696   0.335   3.565   0.138 -0.1038 -0.4267 -0.5364
   18HFI     F1  697   0.232   3.561   0.058 -0.3366  0.0203  0.3839
   18HFI     F2  698   0.437   3.636   0.085 -0.1119 -0.3862  0.2047
   18HFI     F3  699   0.281   3.631   0.245  0.4509  0.0775 -0.9449
   18HFI     C3  700   0.501   3.419   0.274 -0.6752 -0.6452 -0.2202
   18HFI     F4  701   0.504   3.518   0.372 -0.1368 -0.6877  0.4537
   18HFI     F5  702   0.614   3.444   0.201  0.0188 -0.0815 -0.1900
   18HFI     F6  703   0.515   3.298   0.330 -0.1235  0.4687  0.2132
   18HFI     H1  704   0.494   3.340   0.035  0.1012 -0.8762 -0.3759
   18HFI     H2  705   0.294   3.382   0.232 -1.3794  1.6767 -0.8475
   19HFI     O1  706   0.274   1.897   0.734  0.3849 -0.0033  0.0571
   19HFI     C1  707   0.350   1.954   0.844 -0.2980  0.0484 -0.6164
   19HFI     C2  708   0.271   1.946   0.977  0.6191 -0.1742  0.6120
   19HFI     F1  709   0.244   1.820   1.013 -0.0563 -0.2096  0.4667
   19HFI     F2  710   0.148   2.006   0.970 -0.4112  0.1395 -0.2203
   19HFI     F3  711   0.339   1.998   1.079  0.0823  0.0037  0.1326
   19HFI     C3  712   0.385   2.104   0.818 -0.1420 -0.1901 -0.7858
   19HFI     F4  713   0.411   2.114   0.687  0.3174  0.0639 -0.3906
   19HFI     F5  714   0.496   2.146   0.878  0.4390 -0.2378 -0.0113
   19HFI     F6  715   0.289   2.206   0.848 -0.5305 -0.2006 -0.5991
   19HFI     H1  716   0.195   1.953   0.720 -1.2867 -2.2759  0.1272
   19HFI     H2  717   0.442   1.897   0.860 -0.6287 -0.7221 -1.3960
   20HFI     O1  718   2.277   0.092   1.283  0.1337 -0.2353 -1.0369
   20HFI     C1  719   2.241   0.200   1.370 -0.1535  0.3250  0.0604
   20HFI     C2  720   2.275   0.333   1.311 -0.1775  0.8322  0.1587
   20HFI     F1  721   2.192   0.359   1.212  0.0668  0.1692 -0.3553
   20HFI     F2  722   2.398   0.331   1.261  0.1621 -0.6424 -0.1688
   20HFI     F3  723   2.257   0.435   1.395  0.5454 -0.1515 -0.1127
   20HFI     C3  724   2.299   0.175   1.523 -0.3794  0.4461  0.0010
   20HFI     F4  725   2.248   0.261   1.612 -0.1879 -0.2881  0.2723
   20HFI     F5  726   2.437   0.174   1.525  0.0734 -0.0129  0.1936
   20HFI     F6  727   2.263   0.050   1.563 -0.0150 -0.0291 -0.0662
   20HFI     H1  728   2.362   0.124   1.247  0.6562  0.6910  0.9610
   20HFI     H2  729   2.134   0.199   1.394 -0.3012  1.4103 -0.5307
   21HFI     O1  730   3.152   1.924   0.110  0.0991 -0.0204  0.1786
   21HFI     C1  731   3.165   1.942   0.258  0.1790  0.9095 -0.3727
   21HFI     C2  732   3.315   1.964   0.303 -0.0169 -0.2912 -0.2250
   21HFI     F1  733   3.392   1.871   0.244 -0.1405  0.6446 -0.1478
   21HFI     F2  734   3.332   1.954   0.438 -0.4974  0.3092 -0.0105
   21HFI     F3  735   3.361   2.079   0.262  0.1762  0.1096  0.4629
   21HFI     C3  736   3.093   1.840   0.345  0.5924 -0.1055  0.7444
   21HFI     F4  737   2.974   1.806   0.290  0.7328  0.0749  0.1519
   21HFI     F5  738   3.061   1.887   0.466  0.5788  0.3292  0.4204
   21HFI     F6  739   3.156   1.726   0.352 -0.3786  0.1698 -0.3070
   21HFI     H1  740   3.191   1.841   0.076 -0.9108 -1.0224  1.3677
   21HFI     H2  741   3.120   2.039   0.286 -2.6575 -0.2233 -0.8195
   22HFI     O1  742   3.319   2.228   3.008 -0.9436  0.6598  0.4825
   22HFI     C1  743   3.199   2.160   3.073 -0.0603  0.7405  0.1039
   22HFI     C2  744   3.207   2.182   3.222 -0.6496  0.2801 -0.3038
   22HFI     F1  745   3.327   2.146   3.271 -0.0983  0.3055  0.0195
   22HFI     F2  746   3.116   2.126   3.293 -0.5281  0.0299  0.3651
   22HFI     F3  747   3.197   2.312   3.237 -0.3076  0.2082  0.0171
   22HFI     C3  748   3.182   2.010   3.029  0.0925  0.2567  0.1461
   22HFI     F4  749   3.076   1.950   3.086  0.2815 -0.2278  0.4177
   22HFI     F5  750   3.292   1.938   3.065 -0.4863  0.4876 -0.0088
   22HFI     F6  751   3.173   2.002   2.889 -0.0494 -0.3265  0.2593
   22HFI     H1  752   3.390   2.223   3.074 -0.5491 -2.9538 -0.1126
   22HFI     H2  753   3.108   2.217   3.051 -1.4560 -0.7019  2.0505
   23HFI     O1  754   1.087   0.209   0.058  0.4641 -0.4778 -0.4214
   23HFI     C1  755   1.208   0.135   0.105  0.0446 -0.9584 -0.4309
   23HFI     C2  756   1.190  -0.017   0.107  0.2792 -0.0293  0.5586
   23HFI     F1  757   1.111  -0.057  -0.001 -0.7411  0.4646 -1.0157
   23HFI     F2  758   1.133  -0.055   0.223 -0.3167  0.2069 -0.1792
   23HFI     F3  759   1.311  -0.074   0.100  0.0899  0.6140 -0.6934
   23HFI     C3  760   1.282   0.189   0.236 -0.6748  0.0410  0.1242
   23HFI     F4  761   1.203   0.175   0.342 -0.0255  0.3627 -0.1581
   23HFI     F5  762   1.307   0.316   0.216 -0.2875 -0.0587  0.2710
   23HFI     F6  763   1.399   0.124   0.254  0.3750 -0.1866 -0.3118
   23HFI     H1  764   1.079   0.293   0.107 -1.4241 -0.0329 -1.4579
   23HFI     H2  765   1.278   0.151   0.022 -0.2663 -3.9077 -1.3081
   24HFI     O1  766   1.564   1.620   1.551 -0.1852 -0.0091 -0.0261
   24HFI     C1  767   1.453   1.630   1.448 -0.0588 -0.2890 -0.0042
   24HFI     C2  768   1.421   1.773   1.411  0.3676  0.1026  0.4308
   24HFI     F1  769   1.526   1.829   1.351 -0.9209  0.2373  0.0524
   24HFI     F2  770   1.400   1.857   1.518 -0.7255  0.4989 -0.3412
   24HFI     F3  771   1.314   1.785   1.330 -0.0554 -0.0362 -0.5704
   24HFI     C3  772   1.324   1.556   1.494 -0.6908 -0.6166 -0.2987
   24HFI     F4  773   1.245   1.529   1.389  0.3897 -0.2817 -0.2393
   24HFI     F5  774   1.257   1.634   1.581 -0.3090 -0.4435 -0.4544
   24HFI     F6  775   1.360   1.439   1.545 -0.3878  0.3548  0.2095
   24HFI     H1  776   1.544   1.546   1.610  1.0685 -0.4710 -0.1698
   24HFI     H2  777   1.483   1.579   1.356  1.2798 -0.3938  0.4863
   25HFI     O1  778   0.670   0.008   1.076 -0.0773  0.0779 -0.0713
   25HFI     C1  779   0.606  -0.118   1.031 -0.5311  0.6762 -0.5519
   25HFI     C2  780   0.457  -0.128   1.074 -0.4201  0.1484  0.2194
   25HFI     F1  781   0.437  -0.091   1.201 -0.0113  0.1344  0.3713
   25HFI     F2  782   0.403  -0.248   1.050  0.0124  0.0495  0.2043
   25HFI     F3  783   0.379  -0.043   0.996 -0.4391 -0.2381  0.5099
   25HFI     C3  784   0.688  -0.240   1.078 -0.0789  0.1443 -0.1037
   25HFI     F4  785   0.639  -0.358   1.039  0.1000 -0.0097  0.3941
   25HFI     F5  786   0.684  -0.241   1.208 -0.0152 -0.3939  0.2564
   25HFI     F6  787   0.820  -0.238   1.044 -0.0374 -0.5081 -0.0844
   25HFI     H1  788   0.611   0.063   1.131 -2.1226 -0.0171 -2.0785
   25HFI     H2  789   0.600  -0.112   0.922 -0.0800 -0.7885 -0.6736
   26HFI     O1  790   1.157   2.232   3.585  0.1686 -0.6764  0.0807
   26HFI     C1  791   1.180   2.118   3.670 -0.1976 -0.5142  0.1848
   26HFI     C2  792   1.302   2.046   3.612 -0.0831 -0.9285  0.1486
   26HFI     F1  793   1.405   2.121   3.640  0.2651 -0.3837 -0.4076
   26HFI     F2  794   1.301   2.038   3.477 -0.0549  0.5715  0.1628
   26HFI     F3  795   1.335   1.923   3.659 -0.0182 -0.1251 -0.6962
   26HFI     C3  796   1.057   2.023   3.696  0.3018  0.7402  0.6224
   26HFI     F4  797   1.088   1.938   3.791 -0.3813 -0.8086 -0.1525
   26HFI     F5  798   1.026   1.951   3.589  0.0106  0.2846 -0.2283
   26HFI     F6  799   0.941   2.088   3.730  0.2532  0.0320 -0.3130
   26HFI     H1  800   1.241   2.265   3.548 -0.2704 -0.5512 -0.8244
   26HFI     H2  801   1.212   2.143   3.771 -0.9783  1.9090 -0.1293
   27HFI     O1  802   0.280   1.555   0.655 -0.5491  0.0216  0.0311
   27HFI     C1  803   0.311   1.624   0.533 -0.5024 -0.3845  0.7916
   27HFI     C2  804   0.245   1.559   0.412 -0.2140 -0.2437  0.0675
   27HFI     F1  805   0.264   1.427   0.417  0.0912  0.3490  0.0392
   27HFI     F2  806   0.285   1.599   0.290  0.1603 -0.1137 -0.1779
   27HFI     F3  807   0.111   1.581   0.405 -0.2712  0.5059 -0.1583
   27HFI     C3  808   0.466   1.631   0.527 -0.6863 -0.4525  0.4137
   27HFI     F4  809   0.506   1.710   0.425  0.5637 -0.0850 -0.2186
   27HFI     F5  810   0.530   1.510   0.509  0.7158 -0.5629 -0.9002
   27HFI     F6  811   0.514   1.688   0.644 -0.1248 -0.5485 -0.0621
   27HFI     H1  812   0.318   1.467   0.644  0.9520  0.5676  0.6325
   27HFI     H2  813   0.285   1.730   0.544  0.9947  0.0122  0.6514
   28HFI     O1  814   2.816   2.795   3.164 -0.0683  0.0436  0.5986
   28HFI     C1  815   2.799   2.657   3.105 -0.3194  0.0290  0.4397
   28HFI     C2  816   2.678   2.585   3.178 -0.3787 -0.1728 -0.4387
   28HFI     F1  817   2.682   2.601   3.314 -0.1902 -0.1549  0.3274
   28HFI     F2  818   2.675   2.455   3.144 -0.7504 -0.0911  0.1438
   28HFI     F3  819   2.566   2.654   3.146  0.1394  0.2010  0.3096
   28HFI     C3  820   2.930   2.583   3.098  0.3974 -0.5508  0.2359
   28HFI     F4  821   3.021   2.665   3.038 -0.4425  0.9433  0.4400
   28HFI     F5  822   2.931   2.472   3.030 -0.3876 -0.1987  0.4464
   28HFI     F6  823   2.972   2.555   3.220 -0.1321 -0.6187  0.1602
   28HFI     H1  824   2.835   2.787   3.259  0.3916 -1.0055  0.4152
   28HFI     H2  825   2.762   2.660   3.002  0.3021 -0.1295  0.2071
   29HFI     O1  826   3.248   1.083   1.264  0.2088  0.2876  0.8456
   29HFI     C1  827   3.308   1.086   1.396  0.3446  0.1783  0.3568
   29HFI     C2  828   3.315   0.944   1.465  0.0723  0.1997  0.8762
   29HFI     F1  829   3.199   0.889   1.478  0.0807 -0.0281 -0.0277
   29HFI     F2  830   3.368   0.958   1.577  0.5005  0.0266  0.5339
   29HFI     F3  831   3.390   0.860   1.390 -0.3548  0.0374 -0.1052
   29HFI     C3  832   3.232   1.191   1.482 -0.6049  0.2477  0.6449
   29HFI     F4  833   3.302   1.227   1.587  0.2828 -0.4364  0.1795
   29HFI     F5  834   3.106   1.160   1.513 -0.1022  0.0212 -0.1670
   29HFI     F6  835   3.223   1.304   1.404  0.2360 -0.2062 -0.7078
   29HFI     H1  836   3.154   1.055   1.269  0.2485  0.2895  1.7892
   29HFI     H2  837   3.410   1.123   1.379  0.5796 -1.1260 -1.1484
   30HFI     O1  838   0.646   1.473   3.783 -0.2914  0.0636  0.8254
   30HFI     C1  839   0.593   1.342   3.825  0.4184 -0.5539  0.2239
   30HFI     C2  840   0.467   1.365   3.914  0.2556  0.1077  0.1779
   30HFI     F1  841   0.496   1.440   4.023  1.0399 -0.1727 -0.5525
   30HFI     F2  842   0.411   1.255   3.962  0.1580  0.1799 -0.4067
   30HFI     F3  843   0.376   1.423   3.844 -0.1289 -0.2082 -0.1626
   30HFI     C3  844   0.702   1.247   3.899  0.3722  0.3017 -0.3799
   30HFI     F4  845   0.826   1.257   3.839 -0.7916  0.1237  0.6041
   30HFI     F5  846   0.667   1.120   3.900 -0.3765  0.8419 -0.4014
   30HFI     F6  847   0.721   1.295   4.023  0.3375  0.2468 -0.8344
   30HFI     H1  848   0.685   1.518   3.860  2.0385  0.3607 -0.4822
   30HFI     H2  849   0.554   1.293   3.734 -1.3294  1.5734 -0.1902
   31HFI     O1  850   1.167   1.122   0.609  0.1053 -0.5011 -0.1277
   31HFI     C1  851   1.041   1.144   0.546 -0.5655 -0.0272 -0.5693
   31HFI     C2  852   1.028   1.076   0.407  0.0286  0.2852  0.0462
   31HFI     F1  853   1.032   0.948   0.413  0.3450 -0.2013  0.2220
   31HFI     F2  854   1.129   1.117   0.329 -0.2207 -0.4781 -0.2643
   31HFI     F3  855   0.906   1.101   0.348  0.2678 -0.4035  0.3292
   31HFI     C3  856   1.001   1.295   0.552  0.4745  0.4773 -0.5777
   31HFI     F4  857   1.083   1.368   0.472  0.8188  0.1600 -0.2395
   31HFI     F5  858   1.018   1.354   0.674 -0.1682  0.2496 -0.5206
   31HFI     F6  859   0.880   1.323   0.504 -0.4163 -0.3164 -0.1773
   31HFI     H1  860   1.236   1.172   0.563  2.7862 -3.8345  0.0275
   31HFI     H2  861   0.968   1.095   0.612  1.2678 -1.5051  0.4077
   32HFI     O1  862   1.773   0.197   1.350  0.2061  0.9761 -0.4285
   32HFI     C1  863   1.746   0.329   1.416  0.5478  0.1835  0.0035
   32HFI     C2  864   1.857   0.366   1.527 -0.0001 -0.4552  0.3225
   32HFI     F1  865   1.824   0.469   1.608  0.1120 -0.4443  0.3746
   32HFI     F2  866   1.967   0.399   1.471 -0.5321 -0.1738  0.1992
   32HFI     F3  867   1.891   0.261   1.602  0.2986  0.9049  0.3606
   32HFI     C3  868   1.598   0.329   1.469 -0.7541  0.4789 -0.1235
   32HFI     F4  869   1.521   0.273   1.385  0.0500  0.1549 -0.2904
   32HFI     F5  870   1.556   0.448   1.495 -0.1655 -0.1107 -0.3424
   32HFI     F6  871   1.592   0.264   1.591 -0.0482  0.2303  0.5468
   32HFI     H1  872   1.753   0.126   1.413 -1.7260  1.8851  0.0115
   32HFI     H2  873   1.754   0.410   1.342 -0.8234  0.3483  0.0183
   33HFI     O1  874   0.003   1.658   0.718  0.0739 -0.2603 -0.8590
   33HFI     C1  875  -0.117   1.671   0.806 -0.4533  0.0495 -0.3303
   33HFI     C2  876  -0.129   1.811   0.871 -0.6222 -0.6338 -0.6684
   33HFI     F1  877  -0.259   1.836   0.906  0.3509 -0.3964 -0.6321
   33HFI     F2  878  -0.087   1.913   0.791  0.8285 -0.4106 -0.7478
   33HFI     F3  879  -0.053   1.820   0.978 -0.2947  0.3829 -0.2842
   33HFI     C3  880  -0.120   1.550   0.906 -0.0443 -0.0374 -0.0228
   33HFI     F4  881  -0.134   1.431   0.847 -0.4140 -0.5390 -0.4266
   33HFI     F5  882  -0.216   1.569   1.005  0.3422  0.0486 -0.6941
   33HFI     F6  883   0.002   1.538   0.971  0.1030 -0.1520  0.2597
   33HFI     H1  884   0.085   1.665   0.771  0.2485 -0.1860 -1.1370
   33HFI     H2  885  -0.210   1.657   0.748 -1.5501  2.7586  0.7096
   34HFI     O1  886   3.154   1.045   0.613 -0.1914  0.2354  0.1341
   34HFI     C1  887   3.178   1.186   0.592 -0.1327 -0.0742 -0.1508
   34HFI     C2  888   3.053   1.257   0.539  0.3137 -0.1898  0.0469
   34HFI     F1  889   2.958   1.234   0.631 -0.6937 -0.1529 -0.3535
   34HFI     F2  890   3.012   1.196   0.424  0.3999  0.5182  0.3167
   34HFI     F3  891   3.057   1.398   0.524  0.0530 -0.0436 -0.6185
   34HFI     C3  892   3.309   1.215   0.510 -0.9697  0.5456 -0.3782
   34HFI     F4  893   3.315   1.353   0.486  0.1959  0.1660 -0.0126
   34HFI     F5  894   3.317   1.149   0.390 -0.4792 -0.1551 -0.8289
   34HFI     F6  895   3.421   1.193   0.584  0.7989  0.0149  0.2540
   34HFI     H1  896   3.148   0.996   0.529  1.9495 -0.0787  0.1277
   34HFI     H2  897   3.182   1.233   0.691 -2.5371  2.2968 -1.1105
   35HFI     O1  898   1.560   2.531   0.379  0.1930 -0.1640  0.1994
   35HFI     C1  899   1.459   2.628   0.424 -0.1228  0.4733  0.1324
   35HFI     C2  900   1.410   2.727   0.310 -0.0124  0.4680 -0.3210
   35HFI     F1  901   1.377   2.657   0.201 -0.3567  0.2636 -0.8762
   35HFI     F2  902   1.507   2.816   0.276 -0.0635 -0.4084 -0.7583
   35HFI     F3  903   1.299   2.802   0.344 -0.8629  0.2382  0.3000
   35HFI     C3  904   1.513   2.699   0.549 -0.0890  0.0415  0.1384
   35HFI     F4  905   1.631   2.759   0.528 -0.0681 -0.3012 -0.1653
   35HFI     F5  906   1.535   2.624   0.653  0.4968 -0.1848  0.0002
   35HFI     F6  907   1.436   2.805   0.587 -0.4390  0.4324 -0.6092
   35HFI     H1  908   1.642   2.544   0.430 -1.2083  0.2973  2.4046
   35HFI     H2  909   1.368   2.576   0.457  0.8787 -1.8039 -0.6296
   36HFI     O1  910   0.439   3.018   1.343 -0.1254  0.1481 -0.1519
   36HFI     C1  911   0.417   2.881   1.366  0.4857 -0.2400 -0.1704
   36HFI     C2  912   0.457   2.857   1.515 -0.1228  0.2817 -0.3124
   36HFI     F1  913   0.357   2.901   1.595  0.1656  0.1582  0.1974
   36HFI     F2  914   0.573   2.924   1.544  0.4352  0.2877 -0.1635
   36HFI     F3  915   0.479   2.724   1.541  0.3246  0.7690 -0.2440
   36HFI     C3  916   0.498   2.793   1.274 -0.4045 -0.8906  0.0881
   36HFI     F4  917   0.447   2.668   1.281  0.3002  0.1491  0.2412
   36HFI     F5  918   0.629   2.783   1.312 -0.2978  0.4223  0.3862
   36HFI     F6  919   0.501   2.841   1.148 -0.1735 -0.1125  0.0516
   36HFI     H1  920   0.447   3.058   1.431 -0.4166 -2.0595  0.9210
   36HFI     H2  921   0.311   2.857   1.351  0.3224 -0.2153  0.9204
   37HFI     O1  922   0.938   2.456   1.340 -0.0160 -0.2117 -0.0568
   37HFI     C1  923   0.909   2.587   1.397 -0.3377  0.2558 -0.2013
   37HFI     C2  924   0.976   2.701   1.311 -0.1677  0.1030 -0.7990
   37HFI     F1  925   1.119   2.689   1.302  0.5687 -0.5145 -0.4271
   37HFI     F2  926   0.947   2.824   1.360  0.1058 -0.0304  0.1967
   37HFI     F3  927   0.928   2.697   1.187  0.2943 -0.5320 -0.1871
   37HFI     C3  928   0.943   2.592   1.545  0.0115 -0.3652  0.1298
   37HFI     F4  929   0.858   2.519   1.626  0.2165 -0.2654  0.1819
   37HFI     F5  930   0.941   2.723   1.598  0.0269 -0.1123 -0.5270
   37HFI     F6  931   1.070   2.550   1.577 -0.2207  0.4682 -0.3661
   37HFI     H1  932   1.033   2.434   1.346 -0.1024 -1.1421 -1.6564
   37HFI     H2  933   0.802   2.610   1.395 -0.2243  0.7674 -1.8589
   38HFI     O1  934   1.363   0.738   1.404  0.6237 -0.2151  0.3357
   38HFI     C1  935   1.414   0.844   1.491 -0.0548  0.4226 -0.1469
   38HFI     C2  936   1.320   0.967   1.495  0.0832 -0.0873  0.2935
   38HFI     F1  937   1.355   1.065   1.586 -0.4015  0.1365 -0.3487
   38HFI     F2  938   1.194   0.924   1.519  0.1688  0.1662  0.2698
   38HFI     F3  939   1.312   1.022   1.372  0.0844  0.3435  0.5120
   38HFI     C3  940   1.561   0.886   1.466  0.0674 -0.2756 -0.2265
   38HFI     F4  941   1.579   0.954   1.348 -0.1910 -0.3101  0.1450
   38HFI     F5  942   1.641   0.779   1.454 -0.0762  0.3990 -0.3120
   38HFI     F6  943   1.602   0.958   1.568  0.2756  0.3113  0.0368
   38HFI     H1  944   1.331   0.780   1.322  0.4010  0.0579  0.5584
   38HFI     H2  945   1.405   0.804   1.593 -2.0514 -2.4709 -1.3992
   39HFI     O1  946   1.785   3.175   1.259  0.3510 -0.1144  0.1418
   39HFI     C1  947   1.907   3.177   1.339 -0.3200  0.1527  0.0222
   39HFI     C2  948   1.897   3.104   1.471  0.6816 -0.1422  0.0188
   39HFI     F1  949   1.847   2.978   1.449 -0.1301  0.1886 -0.2308
   39HFI     F2  950   1.813   3.169   1.556 -0.2529  0.0413  0.0564
   39HFI     F3  951   2.021   3.089   1.525 -0.1330  0.2469 -0.1713
   39HFI     C3  952   1.970   3.320   1.340 -0.2918  0.2257 -0.0467
   39HFI     F4  953   2.083   3.328   1.415  0.0845 -0.7181  0.2804
   39HFI     F5  954   1.886   3.396   1.412 -0.1912  0.4450  0.2257
   39HFI     F6  955   1.990   3.378   1.225  0.1872 -0.3123 -0.6325
   39HFI     H1  956   1.711   3.149   1.317 -0.2527 -0.0858 -0.6060
   39HFI     H2  957   1.980   3.117   1.284 -0.0224  0.5912 -0.0625
   40HFI     O1  958   0.504   2.122   0.411 -0.3057  0.2342 -0.1071
   40HFI     C1  959   0.524   2.272   0.409 -0.4863 -1.2477  0.4694
   40HFI     C2  960   0.430   2.338   0.305  0.1206 -0.1851 -0.0117
   40HFI     F1  961   0.312   2.281   0.316 -0.0838  0.3164 -0.1588
   40HFI     F2  962   0.472   2.305   0.178  0.1420 -0.4643 -0.4242
   40HFI     F3  963   0.417   2.477   0.323  0.1355 -0.5039  0.1521
   40HFI     C3  964   0.674   2.309   0.380  0.3221  0.4392 -0.1948
   40HFI     F4  965   0.761   2.287   0.488  0.4040 -0.0220  0.0004
   40HFI     F5  966   0.694   2.435   0.353 -0.3298 -0.3464  0.6398
   40HFI     F6  967   0.726   2.235   0.276 -0.2747 -0.5410  0.9158
   40HFI     H1  968   0.487   2.087   0.322  2.4754 -1.8853  0.1265
   40HFI     H2  969   0.502   2.326   0.502  0.6324  1.0343 -0.5502
   41HFI     O1  970   1.305   1.692   3.476 -0.6525 -0.5345  0.0799
   41HFI     C1  971   1.341   1.652   3.343  0.4678  0.4937  0.2365
   41HFI     C2  972   1.229   1.562   3.273 -0.0007  0.7821  0.4590
   41HFI     F1  973   1.214   1.441   3.334  0.1478  0.5578  0.2306
   41HFI     F2  974   1.242   1.529   3.140  0.4112  0.3567 -0.3711
   41HFI     F3  975   1.114   1.630   3.276  0.1656  0.2077 -0.3038
   41HFI     C3  976   1.480   1.590   3.329  0.3662  0.1766  0.1044
   41HFI     F4  977   1.506   1.498   3.426 -0.1864  0.6135 -0.6294
   41HFI     F5  978   1.563   1.686   3.346  0.2151  0.5137 -0.2755
   41HFI     F6  979   1.497   1.531   3.210  0.2928 -0.5731  0.0981
   41HFI     H1  980   1.313   1.614   3.534 -2.2603 -0.3853  0.5052
   41HFI     H2  981   1.335   1.734   3.271  1.4979 -0.2066 -0.6709
   42HFI     O1  982   0.307   0.637   0.143 -0.0171  0.1932  0.3309
   42HFI     C1  983   0.414   0.568   0.084 -1.1486 -0.1900 -0.3662
   42HFI     C2  984   0.543   0.656   0.100  0.1684 -0.7981 -0.6234
   42HFI     F1  985   0.654   0.591   0.064 -0.1913  0.1820 -0.5751
   42HFI     F2  986   0.561   0.690   0.221 -0.1510 -0.1240 -0.2900
   42HFI     F3  987   0.534   0.772   0.026  0.2295 -0.3944 -0.2077
   42HFI     C3  988   0.382   0.517  -0.056  0.0238  0.0212 -0.5604
   42HFI     F4  989   0.261   0.461  -0.070  0.4583 -0.0459  0.2778
   42HFI     F5  990   0.475   0.432  -0.108  0.3574  0.7465  0.8118
   42HFI     F6  991   0.379   0.622  -0.142  0.2214 -0.0300  0.2058
   42HFI     H1  992   0.345   0.712   0.192  1.4319 -0.9488  0.9951
   42HFI     H2  993   0.434   0.474   0.136 -0.6354  0.5859  0.8558
   43HFI     O1  994   3.231   2.667   3.646  0.2732 -0.3115  0.2229
   43HFI     C1  995   3.120   2.729   3.715 -0.6366  0.4967  0.2435
   43HFI     C2  996   3.016   2.795   3.614  0.5022  0.0640  0.5713
   43HFI     F1  997   2.986   2.708   3.516  0.5697  0.0242  0.0409
   43HFI     F2  998   3.056   2.906   3.550  0.1275 -0.2117  0.4439
   43HFI     F3  999   2.906   2.836   3.675  0.3962  0.2161 -0.0855
   43HFI     C3 1000   3.176   2.828   3.823 -0.2588 -0.4911  0.6326
   43HFI     F4 1001   3.072   2.879   3.898 -0.4108 -0.8093  0.1927
   43HFI     F5 1002   3.243   2.932   3.765 -0.3534  0.1798  0.3359
   43HFI     F6 1003   3.261   2.771   3.915 -0.6246  0.0935 -0.2905
   43HFI     H1 1004   3.219   2.574   3.618  1.4957  0.0169 -1.5018
   43HFI     H2 1005   3.082   2.643   3.771  2.3457 -0.3889  0.9983
   44HFI     O1 1006   0.724   2.204   1.027 -0.3870 -0.3263  0.4566
   44HFI     C1 1007   0.801   2.325   1.049 -0.7293 -0.1555 -0.3174
   44HFI     C2 1008   0.712   2.441   0.990  0.1981  0.7005 -0.5692
   44HFI     F1 1009   0.662   2.409   0.870 -0.1896  0.0647 -0.5011
   44HFI     F2 1010   0.791   2.546   0.977  0.1032  0.6985 -0.0032
   44HFI     F3 1011   0.610   2.473   1.069  0.8228 -0.7549 -0.4368
   44HFI     C3 1012   0.954   2.311   1.010  0.4036 -0.3569 -0.1341
   44HFI     F4 1013   1.021   2.215   1.079  0.2300  0.4120  0.0213
   44HFI     F5 1014   1.018   2.431   1.032  0.3077 -0.4220  0.4311
   44HFI     F6 1015   0.963   2.288   0.878  0.8720 -0.1983  0.3999
   44HFI     H1 1016   0.676   2.217   0.944  0.3406  2.6766  0.4344
   44HFI     H2 1017   0.813   2.341   1.156 -3.0309 -0.5187  0.0306
   45HFI     O1 1018   0.056   1.893   1.325 -0.0337 -0.0751  0.2503
   45HFI     C1 1019  -0.067   1.946   1.379  0.2056  0.6623  0.2317
   45HFI     C2 1020  -0.113   2.045   1.282  1.0400 -0.3773 -0.2174
   45HFI     F1 1021  -0.146   1.996   1.163  0.2040  0.2547  0.0024
   45HFI     F2 1022  -0.012   2.132   1.257  0.5476  0.1656  0.4213
   45HFI     F3 1023  -0.214   2.120   1.342  0.0782  0.2161  0.7841
   45HFI     C3 1024  -0.047   1.981   1.533  0.0460 -0.3447  0.5586
   45HFI     F4 1025  -0.146   2.048   1.588 -0.2552  0.0777  0.1059
   45HFI     F5 1026   0.056   2.067   1.544 -0.1596  0.4314  0.2963
   45HFI     F6 1027  -0.020   1.870   1.604 -0.1728 -0.2889  0.2566
   45HFI     H1 1028   0.110   1.969   1.297 -1.1614  0.1343 -1.4351
   45HFI     H2 1029  -0.145   1.869   1.375 -0.9795  1.8799 -0.4464
   46HFI     O1 1030   1.672   2.724   1.085  0.2202 -0.1522 -0.0882
   46HFI     C1 1031   1.585   2.773   0.978  0.0407 -0.1858  0.7148
   46HFI     C2 1032   1.578   2.929   0.982 -0.2649  0.6726 -0.5768
   46HFI     F1 1033   1.497   2.965   0.884 -0.2561 -0.1956  0.3513
   46HFI     F2 1034   1.694   2.991   0.971 -0.5399  0.3385  0.3461
   46HFI     F3 1035   1.528   2.969   1.094  0.0810  0.3383 -0.4118
   46HFI     C3 1036   1.451   2.689   0.970  0.4810 -0.0247  0.1783
   46HFI     F4 1037   1.396   2.682   1.098 -0.7333  0.5975  0.3911
   46HFI     F5 1038   1.467   2.564   0.930 -0.1403  0.7928  0.2461
   46HFI     F6 1039   1.364   2.740   0.886  0.2512  0.7605 -0.0284
   46HFI     H1 1040   1.717   2.643   1.056 -0.9074 -0.8122 -0.0202
   46HFI     H2 1041   1.631   2.741   0.884 -0.8404  0.2065  0.1528
   47HFI     O1 1042   1.388   0.110   0.591  0.1407 -0.0205  0.6791
   47HFI     C1 1043   1.429   0.226   0.670 -0.2620 -0.6371 -0.2741
   47HFI     C2 1044   1.314   0.340   0.687  0.1723  0.8313  0.1518
   47HFI     F1 1045   1.277   0.383   0.561  0.0107  0.3345  0.0766
   47HFI     F2 1046   1.351   0.448   0.765 -0.2267 -0.3112  0.2213
   47HFI     F3 1047   1.202   0.288   0.742  0.2565 -0.1861  0.7188
   47HFI     C3 1048   1.552   0.281   0.601  0.4446  0.0149  0.0217
   47HFI     F4 1049   1.521   0.338   0.483 -0.1817 -0.1224  0.3192
   47HFI     F5 1050   1.638   0.174   0.577  0.1712  0.3299 -0.0394
   47HFI     F6 1051   1.616   0.378   0.672  0.3774 -0.0930 -0.2017
   47HFI     H1 1052   1.303   0.118   0.544  1.6198 -0.7000 -2.2757
   47HFI     H2 1053   1.467   0.192   0.767  2.1019 -0.1339 -1.0100
   48HFI     O1 1054   1.043   1.717   0.839 -1.2107 -0.4821 -0.0777
   48HFI     C1 1055   0.928   1.808   0.867  0.0916  0.0885  0.1764
   48HFI     C2 1056   0.895   1.921   0.762  0.2305  0.0899  0.5256
   48HFI     F1 1057   0.906   1.880   0.635  0.0668 -0.5777 -0.2061
   48HFI     F2 1058   0.973   2.023   0.777  0.0304 -0.2975 -0.5888
   48HFI     F3 1059   0.766   1.958   0.793 -0.8075 -0.1255  0.0955
   48HFI     C3 1060   0.922   1.841   1.020 -0.1446  0.7260  0.6357
   48HFI     F4 1061   0.817   1.913   1.049  0.4869  0.3093  0.4491
   48HFI     F5 1062   1.030   1.907   1.056 -0.2638  0.6264 -0.0199
   48HFI     F6 1063   0.916   1.724   1.088 -0.4919 -0.6197 -0.2259
   48HFI     H1 1064   1.059   1.716   0.743 -0.8242 -1.5538 -0.0043
   48HFI     H2 1065   0.839   1.744   0.871 -1.4209  2.2194  2.0327
   49HFI     O1 1066   0.334   0.477   1.365  0.5675  0.4269 -0.5534
   49HFI     C1 1067   0.448   0.386   1.357  0.2154  0.1529  0.4686
   49HFI     C2 1068   0.426   0.269   1.257 -0.0038 -0.5065 -0.4184
   49HFI     F1 1069   0.374   0.319   1.147  0.0955 -0.4319 -0.3231
   49HFI     F2 1070   0.353   0.171   1.303 -0.3252 -0.6536  0.0398
   49HFI     F3 1071   0.548   0.220   1.224  0.7395  0.1545  0.0486
   49HFI     C3 1072   0.505   0.346   1.497  0.0284 -0.0295  0.6618
   49HFI     F4 1073   0.606   0.255   1.481  0.2886 -0.4068  0.1082
   49HFI     F5 1074   0.415   0.297   1.580 -0.1853 -0.6502  0.0365
   49HFI     F6 1075   0.562   0.450   1.559  0.5160 -0.1210 -0.7229
   49HFI     H1 1076   0.296   0.490   1.277 -0.6427  1.0662  0.0401
   49HFI     H2 1077   0.530   0.443   1.314 -0.2472  0.4919  0.0321
   50HFI     O1 1078   1.211   0.597   1.582  0.2093 -0.1148  0.2547
   50HFI     C1 1079   1.091   0.522   1.539 -0.2845  0.0975  0.8742
   50HFI     C2 1080   1.126   0.394   1.461 -1.1399 -0.3871 -0.5144
   50HFI     F1 1081   1.231   0.325   1.518  0.5642  0.3079 -0.3305
   50HFI     F2 1082   1.182   0.414   1.340  0.5089 -0.2135 -0.0918
   50HFI     F3 1083   1.016   0.315   1.448  0.1470 -0.3803  0.2222
   50HFI     C3 1084   0.991   0.609   1.458  0.6792  0.5929  0.5807
   50HFI     F4 1085   0.870   0.555   1.443 -0.0094  0.2767  0.8537
   50HFI     F5 1086   1.038   0.632   1.332 -0.3076  0.1866  0.0674
   50HFI     F6 1087   0.977   0.732   1.507  0.4315  0.0930  0.2365
   50HFI     H1 1088   1.254   0.619   1.497  1.0997 -0.6696  0.5566
   50HFI     H2 1089   1.045   0.486   1.631 -3.0870  0.2061 -0.4500
   51HFI     O1 1090   1.455   1.128   2.244  0.6955  0.1688 -0.3051
   51HFI     C1 1091   1.557   1.228   2.246  0.2025 -0.0843  0.2384
   51HFI     C2 1092   1.698   1.179   2.304  0.5552  0.0295 -0.1674
   51HFI     F1 1093   1.796   1.268   2.307  0.2217 -0.2186  0.3927
   51HFI     F2 1094   1.734   1.075   2.220  0.4147  0.1744  0.1287
   51HFI     F3 1095   1.681   1.123   2.423 -0.0258 -0.4407  0.1246
   51HFI     C3 1096   1.510   1.360   2.309 -0.3320 -0.3807 -0.4698
   51HFI     F4 1097   1.404   1.404   2.248  0.6745 -0.2793  0.6586
   51HFI     F5 1098   1.597   1.464   2.299  0.2531  0.2519  0.2372
   51HFI     F6 1099   1.465   1.344   2.440 -0.5534  0.0725 -0.2651
   51HFI     H1 1100   1.455   1.081   2.329 -0.9363 -0.0415 -0.4174
   51HFI     H2 1101   1.586   1.253   2.143  2.5283 -2.2017  0.3308
   52HFI     O1 1102   1.304   0.797   1.132 -0.4025 -0.6886 -0.5854
   52HFI     C1 1103   1.180   0.811   1.058 -0.5277  0.1475  0.3447
   52HFI     C2 1104   1.145   0.686   0.968  0.7213  0.1397  0.4933
   52HFI     F1 1105   1.247   0.662   0.882  0.0965 -0.6699 -0.0080
   52HFI     F2 1106   1.027   0.691   0.908  0.0944  0.1153  0.2294
   52HFI     F3 1107   1.133   0.581   1.048 -0.0160  0.1259 -0.1580
   52HFI     C3 1108   1.177   0.937   0.966  0.4013  0.2694  0.1538
   52HFI     F4 1109   1.062   0.939   0.889  0.1468  0.1485  0.6067
   52HFI     F5 1110   1.286   0.937   0.888 -0.0326 -0.1477 -0.1087
   52HFI     F6 1111   1.178   1.049   1.047  0.0924 -0.4991  0.2547
   52HFI     H1 1112   1.379   0.820   1.075  0.9682 -0.7998  1.1389
   52HFI     H2 1113   1.091   0.817   1.122  0.2456  0.0703  1.4410
   53HFI     O1 1114   2.986   1.022   1.232  0.0803 -0.2585 -0.0617
   53HFI     C1 1115   2.937   0.967   1.097  0.2233 -0.2762  0.9767
   53HFI     C2 1116   3.053   0.983   0.994  0.0766 -0.6817  0.3163
   53HFI     F1 1117   3.166   0.925   1.046  0.3015  0.4345  0.3655
   53HFI     F2 1118   3.076   1.118   0.979 -0.0867  0.6409  0.3858
   53HFI     F3 1119   3.023   0.917   0.878 -0.5982  0.0161  0.2958
   53HFI     C3 1120   2.801   1.020   1.041  0.2700 -0.4712  0.2210
   53HFI     F4 1121   2.764   0.970   0.922  0.4426 -0.2763 -0.4214
   53HFI     F5 1122   2.800   1.152   1.028 -0.0743 -0.1059 -0.2568
   53HFI     F6 1123   2.697   0.986   1.123 -0.0296 -0.5526  0.1461
   53HFI     H1 1124   2.907   1.053   1.280 -0.4867  1.4983 -2.0563
   53HFI     H2 1125   2.911   0.862   1.114 -3.1031  0.3247 -0.1214
   54HFI     O1 1126   3.063   2.063   3.681 -0.0380  0.7142  0.0654
   54HFI     C1 1127   2.940   2.127   3.647  0.0918 -0.0802  0.2461
   54HFI     C2 1128   2.944   2.283   3.639  0.0656  0.9965  0.2822
   54HFI     F1 1129   2.954   2.337   3.758 -0.4588 -0.2557  0.4804
   54HFI     F2 1130   2.835   2.328   3.575  0.1168  0.5686 -0.5434
   54HFI     F3 1131   3.047   2.329   3.567 -0.1474 -0.2462  0.2173
   54HFI     C3 1132   2.822   2.072   3.736 -0.1237 -0.4369 -0.4632
   54HFI     F4 1133   2.822   1.937   3.723 -0.0780 -0.7322 -0.2488
   54HFI     F5 1134   2.701   2.116   3.707  0.0693  0.4828 -0.4511
   54HFI     F6 1135   2.851   2.099   3.865 -0.6321  0.0682 -0.1234
   54HFI     H1 1136   3.063   2.019   3.768 -2.6054 -1.0555 -0.7876
   54HFI     H2 1137   2.918   2.101   3.543  2.4531  0.3904 -0.3994
   55HFI     O1 1138   1.932   3.372   0.775 -0.1488 -0.3152  0.1489
   55HFI     C1 1139   1.896   3.433   0.902  0.6486 -0.9841 -0.1451
   55HFI     C2 1140   1.759   3.393   0.959 -0.4216  0.2718  0.5583
   55HFI     F1 1141   1.757   3.256   0.962 -0.1747 -0.0432 -0.1841
   55HFI     F2 1142   1.660   3.434   0.886  0.1477 -0.2277 -0.2853
   55HFI     F3 1143   1.741   3.439   1.077  0.5112 -0.0482 -0.1318
   55HFI     C3 1144   1.908   3.595   0.910 -0.3976 -0.2374 -0.2043
   55HFI     F4 1145   1.797   3.649   0.847  0.4368 -0.2343 -0.2080
   55HFI     F5 1146   2.016   3.641   0.849  0.0397 -0.0768 -0.3968
   55HFI     F6 1147   1.913   3.642   1.029 -0.1125 -0.8061 -0.1230
   55HFI     H1 1148   1.898   3.281   0.781 -1.7170  0.2600  0.3903
   55HFI     H2 1149   1.965   3.397   0.979 -0.6455 -2.9481  0.1395
   56HFI     O1 1150   1.299   1.432   0.820 -0.3769  0.1494  0.5317
   56HFI     C1 1151   1.274   1.356   0.936  0.1534  0.1446  0.3231
   56HFI     C2 1152   1.143   1.396   1.024  0.0311  0.2833 -0.0878
   56HFI     F1 1153   1.121   1.329   1.141  0.1511  0.5229 -0.0772
   56HFI     F2 1154   1.028   1.392   0.949  0.0845 -0.4280 -0.3524
   56HFI     F3 1155   1.171   1.524   1.060 -0.4402 -0.1224  0.2236
   56HFI     C3 1156   1.404   1.330   1.022  0.0037 -0.6419  0.2114
   56HFI     F4 1157   1.507   1.286   0.948  0.1977  0.1879  0.7533
   56HFI     F5 1158   1.389   1.242   1.128  0.7105 -0.6498 -0.9507
   56HFI     F6 1159   1.446   1.446   1.076  0.0220  0.0951 -0.3799
   56HFI     H1 1160   1.305   1.528   0.833 -1.3937 -0.0414  2.6620
   56HFI     H2 1161   1.237   1.260   0.896 -0.9607  0.6979 -0.0013
   57HFI     O1 1162   2.186   0.093   0.630  0.1647 -0.0170  0.0167
   57HFI     C1 1163   2.153   0.197   0.529 -0.0967 -0.6732 -0.6205
   57HFI     C2 1164   2.022   0.154   0.459  0.5016  0.0381 -0.0135
   57HFI     F1 1165   1.937   0.120   0.560  0.1559  0.1684 -0.0849
   57HFI     F2 1166   2.039   0.036   0.390 -0.6586  0.2223  0.4370
   57HFI     F3 1167   1.969   0.248   0.376  0.0472 -0.9679  0.2070
   57HFI     C3 1168   2.268   0.248   0.427 -0.2719  0.3634 -0.7404
   57HFI     F4 1169   2.387   0.266   0.500 -0.5905 -0.3014 -0.2111
   57HFI     F5 1170   2.244   0.361   0.362 -0.6259  0.2602 -0.2071
   57HFI     F6 1171   2.289   0.153   0.333  0.7888 -0.0338  0.4715
   57HFI     H1 1172   2.109   0.038   0.654  0.7676 -0.6417  0.5387
   57HFI     H2 1173   2.121   0.279   0.594 -1.9786 -1.6806 -0.2597
   58HFI     O1 1174   0.533   0.896   1.573  0.3931  0.0516  0.8531
   58HFI     C1 1175   0.444   0.901   1.462 -0.3834  0.5107  0.1069
   58HFI     C2 1176   0.385   1.040   1.416 -0.1379  0.1676 -0.5529
   58HFI     F1 1177   0.482   1.104   1.347  0.0607  0.6505  0.0851
   58HFI     F2 1178   0.346   1.115   1.516 -0.4633 -0.1244  0.4843
   58HFI     F3 1179   0.281   1.022   1.329 -0.6978 -0.2223  0.3464
   58HFI     C3 1180   0.322   0.798   1.485 -0.5833  0.3038  0.3120
   58HFI     F4 1181   0.224   0.840   1.566 -0.1036  0.0995  0.2141
   58HFI     F5 1182   0.378   0.688   1.540  0.0621 -0.0006 -0.2410
   58HFI     F6 1183   0.261   0.752   1.367 -0.1313  0.3333  0.1648
   58HFI     H1 1184   0.551   0.804   1.599  2.4324  0.2762  0.3389
   58HFI     H2 1185   0.503   0.874   1.373  0.7783  0.8630  0.7581
   59HFI     O1 1186   2.117   0.683   1.316 -0.6363  0.0735  0.5932
   59HFI     C1 1187   2.138   0.814   1.376  0.0185  0.3538  0.1129
   59HFI     C2 1188   2.271   0.808   1.461  0.4236  0.0493 -0.2181
   59HFI     F1 1189   2.292   0.923   1.532 -0.0749  0.2451 -0.3795
   59HFI     F2 1190   2.372   0.791   1.375 -0.5150  0.1930 -0.4240
   59HFI     F3 1191   2.264   0.697   1.540  0.8365 -0.2161  0.2195
   59HFI     C3 1192   2.015   0.853   1.458  0.2027  0.5070  0.2913
   59HFI     F4 1193   1.900   0.857   1.384  0.1066 -0.0531  0.2071
   59HFI     F5 1194   2.025   0.976   1.514 -0.5583  0.1726 -0.2327
   59HFI     F6 1195   1.996   0.771   1.561  0.4312  0.3748  0.4745
   59HFI     H1 1196   2.103   0.620   1.388  3.1477 -0.2145  1.2052
   59HFI     H2 1197   2.145   0.892   1.299 -0.5987 -0.6949 -1.0360
   60HFI     O1 1198   2.779   2.236   0.619  0.1187 -0.4303  0.0907
   60HFI     C1 1199   2.670   2.194   0.532 -0.2674 -0.3246  0.6598
   60HFI     C2 1200   2.728   2.129   0.395  0.2442 -0.3363 -0.6409
   60HFI     F1 1201   2.782   2.211   0.309  0.4310  0.8049  0.4694
   60HFI     F2 1202   2.634   2.052   0.333  0.2760 -0.7187 -0.1627
   60HFI     F3 1203   2.831   2.047   0.415 -0.5916  0.0412 -0.2247
   60HFI     C3 1204   2.569   2.311   0.502 -0.2509 -0.0530  0.5822
   60HFI     F4 1205   2.465   2.263   0.426  0.0821  0.0702 -0.1254
   60HFI     F5 1206   2.628   2.406   0.429  0.0255 -0.0485  0.0328
   60HFI     F6 1207   2.522   2.364   0.620  0.4080  0.3999 -0.1262
   60HFI     H1 1208   2.743   2.267   0.705  0.9187 -0.0142  0.2788
   60HFI     H2 1209   2.608   2.114   0.574 -0.5845  0.3198  1.4266
   61HFI     O1 1210   1.891   1.618   0.049 -0.5397 -0.1149  0.5527
   61HFI     C1 1211   1.768   1.698   0.046 -0.4702 -0.0152  0.5227
   61HFI     C2 1212   1.651   1.613   0.101  0.4657  0.9649 -0.0714
   61HFI     F1 1213   1.614   1.515   0.020 -0.1030  0.5366 -0.1505
   61HFI     F2 1214   1.544   1.694   0.130 -0.1816 -0.2924  0.1193
   61HFI     F3 1215   1.681   1.552   0.226  0.3922  0.0579  0.1356
   61HFI     C3 1216   1.746   1.741  -0.102  0.1746  0.3434  0.4471
   61HFI     F4 1217   1.740   1.631  -0.180  0.0034  0.1855  0.2548
   61HFI     F5 1218   1.846   1.819  -0.145  0.2290  0.4510 -0.6511
   61HFI     F6 1219   1.633   1.809  -0.127 -0.2225  0.4010  0.1097
   61HFI     H1 1220   1.887   1.556  -0.027  0.9310  0.3854  0.0583
   61HFI     H2 1221   1.780   1.779   0.118 -1.8961 -0.5974  1.4560
   62HFI     O1 1222   2.761   2.469   1.569  0.3770  0.2584 -0.2155
   62HFI     C1 1223   2.711   2.368   1.480 -0.2022 -0.1433 -0.4454
   62HFI     C2 1224   2.835   2.295   1.427 -0.2487 -0.1658 -0.2176
   62HFI     F1 1225   2.895   2.243   1.536 -0.5437  0.3052  0.2607
   62HFI     F2 1226   2.917   2.375   1.355  0.2886  0.0065 -0.0235
   62HFI     F3 1227   2.798   2.191   1.349  0.4146 -0.4222  0.3893
   62HFI     C3 1228   2.624   2.432   1.363  0.4662 -0.1851  0.3742
   62HFI     F4 1229   2.548   2.339   1.298  0.1185  0.2829  0.4159
   62HFI     F5 1230   2.699   2.490   1.267 -0.4715 -0.0252  0.1701
   62HFI     F6 1231   2.542   2.535   1.404 -0.6164  0.0831  0.1876
   62HFI     H1 1232   2.817   2.532   1.521  0.2074  1.2273  0.8407
   62HFI     H2 1233   2.655   2.294   1.539 -1.3651  0.5080 -0.7072
   63HFI     O1 1234   2.642   2.445   0.878  0.1514 -0.1892 -0.1553
   63HFI     C1 1235   2.555   2.561   0.861 -0.0762  0.1435 -0.5648
   63HFI     C2 1236   2.633   2.690   0.823 -0.9664 -0.4351 -0.1299
   63HFI     F1 1237   2.700   2.670   0.707  0.0315 -0.2492  0.7292
   63HFI     F2 1238   2.724   2.706   0.919  0.0268 -0.3978  0.5632
   63HFI     F3 1239   2.561   2.802   0.798 -0.0032 -0.0373  0.9247
   63HFI     C3 1240   2.451   2.568   0.969  0.2262  0.9136 -0.4249
   63HFI     F4 1241   2.376   2.456   0.971  0.4336  0.4593  0.1921
   63HFI     F5 1242   2.370   2.668   0.951 -0.7375  0.3619 -0.0234
   63HFI     F6 1243   2.507   2.588   1.094  0.3054 -0.1252 -0.4334
   63HFI     H1 1244   2.708   2.474   0.944 -1.5229  0.6804  1.1970
   63HFI     H2 1245   2.495   2.543   0.771 -2.5291  2.0532  0.6350
   64HFI     O1 1246   0.281   1.571   1.233 -0.1256 -0.1128  0.2230
   64HFI     C1 1247   0.221   1.572   1.375  0.3168  0.2644  0.1101
   64HFI     C2 1248   0.334   1.561   1.482 -0.6335  0.2705  0.9084
   64HFI     F1 1249   0.383   1.438   1.503 -0.3402 -0.2714 -0.1545
   64HFI     F2 1250   0.299   1.617   1.602  0.8275  0.4299 -0.3094
   64HFI     F3 1251   0.441   1.633   1.441 -0.3202 -0.4697 -0.6017
   64HFI     C3 1252   0.104   1.476   1.395 -0.0939  0.2845 -0.3571
   64HFI     F4 1253   0.011   1.497   1.300  0.0797 -0.1662  0.3453
   64HFI     F5 1254   0.047   1.493   1.517 -0.6569 -0.1735  0.0564
   64HFI     F6 1255   0.148   1.343   1.375  0.7056 -0.0322 -0.3993
   64HFI     H1 1256   0.211   1.593   1.169  0.0084  1.6814  0.6695
   64HFI     H2 1257   0.178   1.671   1.395  0.4419  0.3039  0.1904
   65HFI     O1 1258   1.200   2.403   1.359 -0.1769  0.3868  0.2874
   65HFI     C1 1259   1.292   2.299   1.398  0.4073  0.1767  0.5427
   65HFI     C2 1260   1.295   2.280   1.556 -0.0940  0.0437  0.9318
   65HFI     F1 1261   1.172   2.237   1.590 -0.1741  0.4614 -0.1156
   65HFI     F2 1262   1.319   2.395   1.618  0.0740 -0.5220 -0.2427
   65HFI     F3 1263   1.385   2.190   1.596 -0.2954  0.3910 -0.1371
   65HFI     C3 1264   1.425   2.307   1.335  0.3791  0.0536  0.3051
   65HFI     F4 1265   1.516   2.371   1.404  0.0900 -0.0370 -0.3984
   65HFI     F5 1266   1.433   2.358   1.206  0.5841  0.1312 -0.0889
   65HFI     F6 1267   1.475   2.183   1.325 -0.0067 -0.1816  0.1572
   65HFI     H1 1268   1.244   2.489   1.372  1.7985 -0.4873 -0.3419
   65HFI     H2 1269   1.253   2.203   1.363 -0.0262  0.7675 -0.6404
   66HFI     O1 1270   0.636   0.604   0.478 -0.5315 -0.2968 -0.2847
   66HFI     C1 1271   0.765   0.572   0.410 -0.0538  0.1794  0.0787
   66HFI     C2 1272   0.769   0.435   0.349 -1.0201  0.1518 -0.4258
   66HFI     F1 1273   0.794   0.336   0.440 -0.3132  0.6435 -0.0987
   66HFI     F2 1274   0.863   0.416   0.249  0.4802 -0.1913 -0.2932
   66HFI     F3 1275   0.647   0.402   0.298  0.1464  0.0306  0.1414
   66HFI     C3 1276   0.891   0.594   0.504  0.1137 -0.4868 -0.3531
   66HFI     F4 1277   0.879   0.517   0.613 -0.1983  0.2926 -0.3933
   66HFI     F5 1278   0.891   0.723   0.544  0.2968 -0.4464 -0.3706
   66HFI     F6 1279   1.006   0.565   0.444 -0.2735  0.2071 -0.2484
   66HFI     H1 1280   0.625   0.542   0.553  1.5540  0.9390  1.0989
   66HFI     H2 1281   0.781   0.648   0.333 -0.5544 -0.6114 -0.8287
   67HFI     O1 1282   0.695   1.834   3.262 -0.0673  0.2582  0.4479
   67HFI     C1 1283   0.621   1.753   3.361 -0.5852 -0.6769  0.2198
   67HFI     C2 1284   0.694   1.618   3.374 -0.5875  0.1135  0.3123
   67HFI     F1 1285   0.726   1.570   3.253  0.3875  0.0521  0.1850
   67HFI     F2 1286   0.619   1.530   3.435  0.1786  0.3077 -0.4348
   67HFI     F3 1287   0.815   1.633   3.434  0.4604  0.5854 -0.1095
   67HFI     C3 1288   0.472   1.727   3.307 -0.0586 -0.1683 -0.7826
   67HFI     F4 1289   0.397   1.650   3.388  0.1587  0.0870  0.0379
   67HFI     F5 1290   0.471   1.671   3.182 -0.3503  0.3564 -0.1628
   67HFI     F6 1291   0.417   1.850   3.304 -0.4095  0.2076 -0.9404
   67HFI     H1 1292   0.710   1.779   3.182 -0.2740  0.0291  0.5680
   67HFI     H2 1293   0.623   1.802   3.459  3.6777  1.6715 -0.9314
   68HFI     O1 1294   2.851   0.593   0.330 -0.4489 -0.1527 -0.2761
   68HFI     C1 1295   2.724   0.521   0.316 -0.1478  0.6088  0.1930
   68HFI     C2 1296   2.743   0.363   0.333 -0.6374  0.3750  0.1180
   68HFI     F1 1297   2.837   0.321   0.245 -0.0893 -0.2921 -0.4789
   68HFI     F2 1298   2.633   0.292   0.315  0.0631 -0.5002 -0.6767
   68HFI     F3 1299   2.793   0.344   0.455 -0.2161  0.0177  0.2241
   68HFI     C3 1300   2.667   0.550   0.173 -0.2685  0.2943 -0.3474
   68HFI     F4 1301   2.672   0.683   0.138  0.5586  0.0431 -0.1101
   68HFI     F5 1302   2.536   0.513   0.176  0.8555  0.7225  0.2461
   68HFI     F6 1303   2.727   0.478   0.075 -0.2630  0.2238 -0.0673
   68HFI     H1 1304   2.910   0.557   0.261 -1.1820  0.0825 -1.0432
   68HFI     H2 1305   2.657   0.562   0.393 -1.3636  2.5409 -1.8488
   69HFI     O1 1306   2.093   3.135   1.052 -0.8112  0.0188 -0.0702
   69HFI     C1 1307   2.009   3.010   1.031 -0.9627  0.0613 -0.2606
   69HFI     C2 1308   2.044   2.887   1.127 -0.1505 -0.2517 -0.2761
   69HFI     F1 1309   1.923   2.824   1.153  0.2561  0.1062  0.1340
   69HFI     F2 1310   2.101   2.938   1.243 -0.6744 -0.1532  0.0259
   69HFI     F3 1311   2.124   2.802   1.063  0.0248  0.2365 -0.2167
   69HFI     C3 1312   2.012   2.976   0.875 -0.7100 -0.1299  0.0931
   69HFI     F4 1313   1.941   2.870   0.838  0.0574 -0.2261 -0.4538
   69HFI     F5 1314   2.140   2.969   0.836 -1.2524  0.1552 -0.1363
   69HFI     F6 1315   1.961   3.079   0.811  0.3569  0.3515  0.2766
   69HFI     H1 1316   2.184   3.103   1.060 -1.0857 -0.5117  0.9931
   69HFI     H2 1317   1.908   3.046   1.053 -1.0820  0.3945 -1.3266
   70HFI     O1 1318   2.347   3.191   1.315  0.4573 -0.0830  0.0653
   70HFI     C1 1319   2.352   3.074   1.405 -0.6515 -0.2120  0.5796
   70HFI     C2 1320   2.382   3.103   1.546 -0.4306 -0.1185 -0.4945
   70HFI     F1 1321   2.388   2.984   1.610 -0.4182 -0.5973 -0.6514
   70HFI     F2 1322   2.284   3.182   1.598 -0.0928 -0.0311  0.2976
   70HFI     F3 1323   2.503   3.156   1.580  0.0459 -0.5596  0.7595
   70HFI     C3 1324   2.441   2.970   1.336  0.0348 -0.3408 -1.3015
   70HFI     F4 1325   2.412   2.841   1.378  0.0617  0.0626 -0.0228
   70HFI     F5 1326   2.571   2.984   1.378 -0.4218  0.6700  0.3543
   70HFI     F6 1327   2.434   2.976   1.200 -0.0075 -0.1010 -0.3929
   70HFI     H1 1328   2.379   3.270   1.361 -0.2838  0.3461 -0.1565
   70HFI     H2 1329   2.250   3.034   1.411 -0.6170 -0.1850  1.4576
   71HFI     O1 1330   2.773   1.564   1.231 -0.5182 -0.2093  0.4166
   71HFI     C1 1331   2.834   1.631   1.110  0.2448 -0.2994  0.1825
   71HFI     C2 1332   2.756   1.759   1.054 -0.0571  0.9836 -0.4602
   71HFI     F1 1333   2.757   1.854   1.146 -0.3794  0.2135  0.0661
   71HFI     F2 1334   2.631   1.738   1.022  0.3493 -0.4949  0.3304
   71HFI     F3 1335   2.821   1.810   0.953 -0.4862  0.0399  0.0861
   71HFI     C3 1336   2.860   1.528   1.003  0.1799  0.0426  0.3803
   71HFI     F4 1337   2.921   1.417   1.055 -0.2598  0.2387 -0.0934
   71HFI     F5 1338   2.935   1.568   0.896  0.3461 -0.2409  0.0306
   71HFI     F6 1339   2.745   1.490   0.955  0.2345 -0.1522  0.3926
   71HFI     H1 1340   2.685   1.534   1.200 -0.7199  1.5072 -0.7684
   71HFI     H2 1341   2.930   1.670   1.146 -0.4333 -0.3429  2.0875
   72HFI     O1 1342   1.513   0.684   0.718 -0.1782  0.1333  0.1082
   72HFI     C1 1343   1.491   0.691   0.571 -0.2910 -0.0012 -0.3436
   72HFI     C2 1344   1.619   0.721   0.497 -0.0498  0.5179  1.0730
   72HFI     F1 1345   1.712   0.628   0.538 -0.1692 -0.0369 -0.4411
   72HFI     F2 1346   1.673   0.836   0.515 -0.1026  0.4446 -0.0229
   72HFI     F3 1347   1.589   0.699   0.367 -0.2107  0.5712  0.3917
   72HFI     C3 1348   1.392   0.808   0.552 -0.2888  1.4092  0.7921
   72HFI     F4 1349   1.425   0.915   0.625 -0.5543  0.4858  0.0843
   72HFI     F5 1350   1.270   0.764   0.583  0.1167 -0.1412  0.0676
   72HFI     F6 1351   1.383   0.848   0.422  0.2495 -0.0382  0.1474
   72HFI     H1 1352   1.436   0.640   0.759  0.7412 -1.4683  0.1748
   72HFI     H2 1353   1.450   0.596   0.535  0.5825 -0.7753  0.6564
   73HFI     O1 1354   2.459   3.400   0.659  0.6022  0.3776 -0.3836
   73HFI     C1 1355   2.503   3.418   0.796  0.0965  0.2459 -0.5834
   73HFI     C2 1356   2.422   3.326   0.898 -0.4159  0.1707  0.1695
   73HFI     F1 1357   2.458   3.195   0.887 -0.1307 -0.1585  0.0605
   73HFI     F2 1358   2.290   3.322   0.856 -0.2559 -0.5547 -0.0786
   73HFI     F3 1359   2.429   3.362   1.024  0.4365 -0.2292 -0.5458
   73HFI     C3 1360   2.495   3.575   0.837  0.3067  0.4996  0.6878
   73HFI     F4 1361   2.558   3.648   0.740 -0.0886 -0.5582  0.0506
   73HFI     F5 1362   2.553   3.604   0.956  0.4032 -0.3144 -0.3465
   73HFI     F6 1363   2.371   3.616   0.831 -0.1081 -0.0584  0.2681
   73HFI     H1 1364   2.395   3.471   0.641 -1.9187 -1.8180 -0.2756
   73HFI     H2 1365   2.606   3.381   0.807  0.3076  0.9729 -0.0965
   74HFI     O1 1366   3.201   2.223   0.918  0.1549 -0.4098 -0.0153
   74HFI     C1 1367   3.098   2.263   1.010  0.1911  0.5957 -0.0941
   74HFI     C2 1368   2.978   2.162   1.011  0.1636 -1.0367  0.3706
   74HFI     F1 1369   2.964   2.129   0.876 -0.0512 -0.7941 -0.0368
   74HFI     F2 1370   2.866   2.221   1.054  0.1207  0.2801  0.5886
   74HFI     F3 1371   2.999   2.044   1.075  0.0288  0.0491  0.2158
   74HFI     C3 1372   3.046   2.407   0.987 -0.3447  0.2267 -0.0868
   74HFI     F4 1373   3.145   2.483   0.928 -0.3528 -0.2197  0.4624
   74HFI     F5 1374   3.014   2.470   1.106 -0.0513  0.0134 -0.6260
   74HFI     F6 1375   2.937   2.412   0.909  0.4536 -0.1682 -0.3756
   74HFI     H1 1376   3.163   2.201   0.832  0.7215  0.0503 -0.3861
   74HFI     H2 1377   3.142   2.268   1.110 -1.1619  0.6664  0.5107
   75HFI     O1 1378   3.242   3.138   1.339  0.2817  0.6579 -0.0174
   75HFI     C1 1379   3.350   3.207   1.405 -0.2879  0.5472 -0.9996
   75HFI     C2 1380   3.433   3.100   1.481  0.5510 -0.6705 -0.2811
   75HFI     F1 1381   3.524   3.037   1.400 -0.3605 -0.0620  0.2395
   75HFI     F2 1382   3.355   3.004   1.541 -0.2689 -0.1629  0.5646
   75HFI     F3 1383   3.506   3.160   1.573 -0.3577  0.0173 -0.7421
   75HFI     C3 1384   3.290   3.318   1.491  0.1532  0.3463  0.0551
   75HFI     F4 1385   3.210   3.267   1.587 -0.1360  0.5437  0.4240
   75HFI     F5 1386   3.205   3.398   1.413  0.3080  0.0486 -0.0832
   75HFI     F6 1387   3.379   3.392   1.550 -0.3387  0.1175 -0.0570
   75HFI     H1 1388   3.175   3.106   1.402 -0.6565 -2.2710 -2.3900
   75HFI     H2 1389   3.411   3.263   1.333  0.1678  3.5833  1.6159
   76HFI     O1 1390   0.931   0.047   0.980 -0.6173 -0.7805 -0.1159
   76HFI     C1 1391   0.977   0.187   0.993 -0.7895 -0.1937  0.5351
   76HFI     C2 1392   0.965   0.254   1.138 -0.0892  0.2828  0.1640
   76HFI     F1 1393   0.845   0.242   1.194  0.2406  0.0052  0.2791
   76HFI     F2 1394   0.997   0.385   1.143 -0.2397 -0.0704  0.2770
   76HFI     F3 1395   1.047   0.192   1.218 -0.4696 -0.1726 -0.0163
   76HFI     C3 1396   0.909   0.279   0.885  0.5412 -0.2253 -0.0874
   76HFI     F4 1397   0.783   0.300   0.926 -0.5658 -0.1744  0.1249
   76HFI     F5 1398   0.904   0.232   0.756 -0.2380  0.2980  0.1030
   76HFI     F6 1399   0.978   0.397   0.877  0.0064 -0.2009  0.0402
   76HFI     H1 1400   0.846   0.042   1.028  0.7383  0.9094  2.5879
   76HFI     H2 1401   1.082   0.208   0.970 -0.2132 -0.8174  2.4715
   77HFI     O1 1402   2.477   1.481   3.592  0.7905  0.6243 -1.0978
   77HFI     C1 1403   2.458   1.364   3.685  0.6398 -0.0915 -0.0377
   77HFI     C2 1404   2.306   1.331   3.714 -0.8947 -0.0683  0.3466
   77HFI     F1 1405   2.243   1.449   3.719 -0.1610 -0.7385  0.2933
   77HFI     F2 1406   2.282   1.258   3.835 -0.6978 -0.1038 -0.0241
   77HFI     F3 1407   2.249   1.263   3.616  0.1085 -0.0601  0.4365
   77HFI     C3 1408   2.538   1.396   3.813 -0.7952 -0.3395 -0.4795
   77HFI     F4 1409   2.555   1.283   3.878 -0.1660  0.0021  0.4871
   77HFI     F5 1410   2.477   1.482   3.886 -0.0858  0.1286  0.0150
   77HFI     F6 1411   2.662   1.454   3.793  0.2886 -0.0405 -0.0771
   77HFI     H1 1412   2.393   1.530   3.585 -1.3629 -2.9263 -1.2447
   77HFI     H2 1413   2.494   1.269   3.642  0.6722 -0.6913  1.2969
   78HFI     O1 1414   0.241   1.053   3.487 -0.3387 -0.2632  0.2146
   78HFI     C1 1415   0.134   1.058   3.585 -0.1600  0.5672 -0.4858
   78HFI     C2 1416   0.182   1.008   3.728  0.3755  0.0982  0.2890
   78HFI     F1 1417   0.302   1.051   3.757 -0.1367  0.5095 -0.6819
   78HFI     F2 1418   0.187   0.877   3.729  0.1189 -0.3950  0.1908
   78HFI     F3 1419   0.099   1.042   3.828  0.2809  0.2667  0.4185
   78HFI     C3 1420   0.007   0.976   3.538  0.0294 -0.7854 -0.4956
   78HFI     F4 1421   0.040   0.858   3.505  0.2000  0.4830  0.6101
   78HFI     F5 1422  -0.042   1.044   3.434 -0.2231 -0.1430 -0.0525
   78HFI     F6 1423  -0.086   0.977   3.631 -0.0292  0.4897 -0.7832
   78HFI     H1 1424   0.262   0.960   3.471  0.4036 -0.4278  1.9733
   78HFI     H2 1425   0.107   1.163   3.602  3.1636  1.6272 -1.4767
   79HFI     O1 1426   1.137   3.288   1.085 -0.4890 -0.0284 -0.3574
   79HFI     C1 1427   1.202   3.211   0.979 -0.3231  0.1206  0.1374
   79HFI     C2 1428   1.163   3.250   0.829 -0.3040 -0.2019  0.2567
   79HFI     F1 1429   1.230   3.169   0.744 -0.4539  0.2878 -0.2254
   79HFI     F2 1430   1.199   3.378   0.798 -0.2219  0.4425  0.8253
   79HFI     F3 1431   1.031   3.239   0.811  0.2934 -0.3094  0.0552
   79HFI     C3 1432   1.190   3.060   1.005  0.6028 -0.3053 -0.4805
   79HFI     F4 1433   1.241   3.024   1.123  0.1001 -0.6832 -0.6926
   79HFI     F5 1434   1.251   2.982   0.910  0.2028 -0.1905  0.6519
   79HFI     F6 1435   1.058   3.017   1.013  0.0012  0.2867  0.6732
   79HFI     H1 1436   1.041   3.277   1.069 -0.2268  0.8637 -2.7586
   79HFI     H2 1437   1.308   3.237   0.981 -0.1483 -0.5604 -0.3974
   80HFI     O1 1438   1.727   1.294   2.989 -0.5557 -0.5480 -0.0630
   80HFI     C1 1439   1.801   1.314   2.855  0.2428 -0.4632 -0.3264
   80HFI     C2 1440   1.704   1.362   2.745 -0.3116  0.3873  0.2752
   80HFI     F1 1441   1.592   1.287   2.747  0.4143  0.9596  0.4413
   80HFI     F2 1442   1.765   1.355   2.621 -0.0205 -0.4311  0.0187
   80HFI     F3 1443   1.671   1.493   2.763 -0.2993  0.1078  0.1945
   80HFI     C3 1444   1.886   1.195   2.813 -0.0938 -0.3301 -0.1985
   80HFI     F4 1445   1.972   1.238   2.725  0.0280  0.1867  0.3658
   80HFI     F5 1446   1.811   1.097   2.763 -0.4564 -0.1668  0.1699
   80HFI     F6 1447   1.947   1.143   2.920  0.0940  0.1780  0.2783
   80HFI     H1 1448   1.674   1.212   2.988 -0.4160 -0.6344 -1.9802
   80HFI     H2 1449   1.865   1.403   2.862 -0.6205  0.0265  1.8948
   81HFI     O1 1450   1.939   1.998   0.548 -0.0304  0.1274  0.2772
   81HFI     C1 1451   1.821   1.914   0.555 -0.0191  0.3314 -0.2725
   81HFI     C2 1452   1.800   1.838   0.426 -0.1919 -0.1045  0.3818
   81HFI     F1 1453   1.785   1.908   0.314  0.0624 -0.0698  0.3003
   81HFI     F2 1454   1.694   1.755   0.426  0.1449 -0.4567 -0.2209
   81HFI     F3 1455   1.903   1.758   0.415 -0.1879  0.0398 -0.3443
   81HFI     C3 1456   1.694   1.999   0.593 -0.7148  0.0777  0.2606
   81HFI     F4 1457   1.675   2.092   0.501 -0.5663 -0.2908  0.3174
   81HFI     F5 1458   1.697   2.065   0.708 -0.6184  0.1200 -0.3411
   81HFI     F6 1459   1.586   1.925   0.599  0.6190 -0.7421  0.1471
   81HFI     H1 1460   1.977   1.999   0.638  0.2379  2.5565  0.1702
   81HFI     H2 1461   1.829   1.836   0.631 -1.8437 -1.1228 -1.5343
   82HFI     O1 1462   2.782   3.407   1.575  0.3569 -0.1279 -0.0033
   82HFI     C1 1463   2.824   3.455   1.443 -0.3062 -0.3314  0.4397
   82HFI     C2 1464   2.830   3.614   1.452  0.4863  0.2121  0.4669
   82HFI     F1 1465   2.877   3.666   1.337 -0.1443 -0.4042 -0.0470
   82HFI     F2 1466   2.920   3.656   1.547  0.0716 -0.1423 -0.0895
   82HFI     F3 1467   2.709   3.670   1.484 -0.6012 -0.3395  0.1948
   82HFI     C3 1468   2.742   3.391   1.328 -0.5466 -0.3679  0.0727
   82HFI     F4 1469   2.784   3.443   1.212  0.0787  0.3995  0.5804
   82HFI     F5 1470   2.602   3.414   1.339 -0.1881  0.4450 -0.2307
   82HFI     F6 1471   2.764   3.255   1.311 -0.3489 -0.3764  0.3592
   82HFI     H1 1472   2.690   3.434   1.586 -0.1876 -1.1711 -1.7913
   82HFI     H2 1473   2.928   3.432   1.419 -0.1080  1.9817 -1.0809
   83HFI     O1 1474   0.503   0.759   1.092  0.1922 -0.3170  0.7621
   83HFI     C1 1475   0.639   0.763   1.034  0.4954 -0.3745 -0.4513
   83HFI     C2 1476   0.653   0.716   0.884 -0.0464 -1.4393 -0.0848
   83HFI     F1 1477   0.558   0.783   0.814 -0.3254  0.3266  0.0867
   83HFI     F2 1478   0.615   0.585   0.879  0.1340  0.0211 -0.3081
   83HFI     F3 1479   0.770   0.737   0.815 -0.4455  0.5633 -0.2683
   83HFI     C3 1480   0.733   0.693   1.134  0.3929  0.7069  0.1300
   83HFI     F4 1481   0.673   0.689   1.255 -0.1447 -0.0529 -0.2068
   83HFI     F5 1482   0.850   0.757   1.142  0.6738  0.2940  0.2925
   83HFI     F6 1483   0.759   0.562   1.106  0.3175 -0.5402 -0.2415
   83HFI     H1 1484   0.441   0.778   1.020 -0.8978 -1.0069  1.4939
   83HFI     H2 1485   0.679   0.865   1.031 -0.3433 -0.0246  0.0542
   84HFI     O1 1486   1.726   2.255   3.305 -0.4803 -0.0732 -0.6128
   84HFI     C1 1487   1.764   2.136   3.238  0.2669  0.1750  0.1445
   84HFI     C2 1488   1.648   2.033   3.244 -0.6726  0.3611 -0.5134
   84HFI     F1 1489   1.676   1.922   3.170 -0.0972 -0.0423  0.8056
   84HFI     F2 1490   1.528   2.078   3.205  0.5725 -0.3240  0.0826
   84HFI     F3 1491   1.634   1.993   3.375  0.0419 -0.4861 -0.2159
   84HFI     C3 1492   1.900   2.084   3.289  0.0863  0.2633  0.5547
   84HFI     F4 1493   1.891   2.013   3.407  0.1306  0.1915  0.1522
   84HFI     F5 1494   1.991   2.183   3.300 -0.6838 -0.7362  0.4302
   84HFI     F6 1495   1.955   2.002   3.193 -0.0290 -0.2083  0.2750
   84HFI     H1 1496   1.651   2.236   3.364 -0.3577 -0.5485 -0.6102
   84HFI     H2 1497   1.774   2.163   3.132 -2.4882 -1.0642 -0.4768
   85HFI     O1 1498   2.331   2.621   1.602 -0.4123  0.0186 -0.1191
   85HFI     C1 1499   2.204   2.559   1.580 -0.2967  0.3892 -0.2620
   85HFI     C2 1500   2.226   2.415   1.516 -0.4079  0.4157 -0.5019
   85HFI     F1 1501   2.109   2.346   1.500 -0.0708  0.9250 -0.2972
   85HFI     F2 1502   2.311   2.339   1.588  0.5761 -0.9246 -0.4486
   85HFI     F3 1503   2.272   2.431   1.393  0.1939  0.4755 -0.4027
   85HFI     C3 1504   2.111   2.659   1.512  0.0153 -0.6918  0.4593
   85HFI     F4 1505   2.072   2.759   1.592  0.1862 -0.2664  0.0669
   85HFI     F5 1506   2.003   2.596   1.478  0.9490 -0.3412 -0.5012
   85HFI     F6 1507   2.164   2.717   1.398 -0.2665  0.1386  0.9836
   85HFI     H1 1508   2.390   2.600   1.528  1.4338  2.2241  0.6803
   85HFI     H2 1509   2.150   2.534   1.672  0.0314 -3.1620 -0.9698
   86HFI     O1 1510   1.366   2.642   1.427  0.0607  0.2009  0.5332
   86HFI     C1 1511   1.403   2.738   1.532 -0.1503  0.2798 -0.1768
   86HFI     C2 1512   1.311   2.860   1.526  0.4009 -0.6348  1.2290
   86HFI     F1 1513   1.356   2.945   1.616  0.2908 -0.2511  0.3289
   86HFI     F2 1514   1.184   2.837   1.561 -0.3665 -0.2622  0.4695
   86HFI     F3 1515   1.305   2.915   1.403  0.2369  0.1602  0.4970
   86HFI     C3 1516   1.555   2.768   1.526  0.0150 -0.0635  0.0501
   86HFI     F4 1517   1.588   2.809   1.399 -0.3554  0.4229 -0.1270
   86HFI     F5 1518   1.630   2.655   1.540 -0.4363  0.3435 -0.0254
   86HFI     F6 1519   1.603   2.856   1.618  0.1876 -0.4339  0.1638
   86HFI     H1 1520   1.401   2.681   1.345  0.5675 -0.6146  0.3496
   86HFI     H2 1521   1.397   2.696   1.633 -0.3141 -0.0489 -0.3220
   87HFI     O1 1522   2.932   2.803   0.363 -0.6148  0.0598 -0.6680
   87HFI     C1 1523   2.950   2.666   0.423  0.7086 -0.1848  0.2510
   87HFI     C2 1524   3.066   2.659   0.525 -0.0813  0.0816 -0.1211
   87HFI     F1 1525   3.187   2.659   0.464 -0.4359 -0.1964 -0.3367
   87HFI     F2 1526   3.052   2.553   0.601  0.4091 -0.4695  0.0967
   87HFI     F3 1527   3.063   2.768   0.612 -0.0087 -0.5811 -0.3410
   87HFI     C3 1528   2.969   2.558   0.313  0.4127  0.3803  0.0477
   87HFI     F4 1529   2.869   2.557   0.220  0.0904  0.2528 -0.4184
   87HFI     F5 1530   2.964   2.433   0.366  0.2701  0.1714  0.1489
   87HFI     F6 1531   3.079   2.575   0.239 -0.1404 -0.7948 -0.3823
   87HFI     H1 1532   3.018   2.848   0.357 -0.0961 -0.8890 -0.4527
   87HFI     H2 1533   2.860   2.633   0.475 -0.0583 -0.2279 -1.0822
   88HFI     O1 1534   1.571   1.984   1.066  0.6441  0.2354  0.4463
   88HFI     C1 1535   1.474   1.983   0.949 -0.0843 -0.0192 -0.2877
   88HFI     C2 1536   1.376   2.101   0.965 -0.6643 -0.3513 -0.6903
   88HFI     F1 1537   1.451   2.214   0.939  0.1704 -0.2243  0.2630
   88HFI     F2 1538   1.328   2.097   1.093 -0.5059  0.1955  0.2255
   88HFI     F3 1539   1.277   2.084   0.880  0.2722 -0.5028 -0.2994
   88HFI     C3 1540   1.408   1.846   0.931  0.2807 -0.6954 -0.0010
   88HFI     F4 1541   1.492   1.745   0.964 -0.3300 -0.4014  0.2947
   88HFI     F5 1542   1.373   1.832   0.799 -0.0169 -0.4749 -0.0025
   88HFI     F6 1543   1.302   1.816   1.006 -0.1584 -0.4440  0.1660
   88HFI     H1 1544   1.518   2.017   1.141  0.2310  1.8743 -0.5506
   88HFI     H2 1545   1.525   2.004   0.854  2.5208 -0.3210  0.9873
   89HFI     O1 1546   1.826   0.955   0.834 -0.4849 -0.2339  0.4296
   89HFI     C1 1547   1.800   1.061   0.930 -0.2971  0.4698 -0.0733
   89HFI     C2 1548   1.928   1.135   0.965 -0.4804  0.0628 -0.5302
   89HFI     F1 1549   2.020   1.064   1.022 -0.5812  0.0611 -0.2053
   89HFI     F2 1550   1.910   1.243   1.037 -0.3503 -0.0650  0.0705
   89HFI     F3 1551   1.977   1.180   0.851 -0.4533 -0.3037  0.5327
   89HFI     C3 1552   1.725   1.010   1.059 -0.5360 -0.2686 -0.4196
   89HFI     F4 1553   1.802   0.932   1.141 -0.1157 -0.0715  0.7503
   89HFI     F5 1554   1.606   0.950   1.035  0.0691  0.3152  0.3105
   89HFI     F6 1555   1.687   1.122   1.125 -0.5237  0.1729  0.6912
   89HFI     H1 1556   1.874   0.997   0.761 -0.2535  2.0697  1.8389
   89HFI     H2 1557   1.733   1.138   0.889 -0.5663 -0.7246 -1.9506
   90HFI     O1 1558   1.826   1.861   1.161 -0.5368  0.9104 -0.1830
   90HFI     C1 1559   1.912   1.765   1.090  0.3081  0.1647  0.0221
   90HFI     C2 1560   2.000   1.841   0.988  0.4783  0.4141 -0.3437
   90HFI     F1 1561   2.033   1.956   1.048  0.4678 -0.5372  0.1414
   90HFI     F2 1562   1.933   1.876   0.874  0.5327 -0.1326 -0.6082
   90HFI     F3 1563   2.112   1.769   0.962  0.2775 -0.0835 -0.0372
   90HFI     C3 1564   1.838   1.642   1.028 -0.3340  0.7616 -0.2623
   90HFI     F4 1565   1.925   1.544   0.990 -0.5453 -0.2167 -0.1734
   90HFI     F5 1566   1.766   1.670   0.913 -0.2741 -0.0345 -0.0550
   90HFI     F6 1567   1.749   1.599   1.122  0.6490  0.2020 -0.1914
   90HFI     H1 1568   1.742   1.876   1.115  0.1891  2.0788 -1.1617
   90HFI     H2 1569   1.989   1.721   1.156  0.4232 -0.1585 -0.3269
   91HFI     O1 1570   2.173   1.218   0.361 -0.1497 -0.2583  0.2381
   91HFI     C1 1571   2.202   1.345   0.440  0.1993 -0.2745  0.4506
   91HFI     C2 1572   2.144   1.329   0.580 -0.8515 -0.4074 -0.2734
   91HFI     F1 1573   2.010   1.296   0.570  0.3898  0.1291  0.2276
   91HFI     F2 1574   2.155   1.442   0.662  0.0956  0.6109 -0.0006
   91HFI     F3 1575   2.196   1.221   0.648  0.4059 -0.8339 -0.4535
   91HFI     C3 1576   2.155   1.466   0.362 -0.8131 -0.4242 -0.3611
   91HFI     F4 1577   2.193   1.578   0.420  0.2526 -0.9469 -0.0920
   91HFI     F5 1578   2.020   1.469   0.343 -0.2311 -0.0938 -0.2325
   91HFI     F6 1579   2.204   1.462   0.230 -0.0309 -0.4373 -0.0579
   91HFI     H1 1580   2.179   1.236   0.266  1.5950  1.4653  0.6419
   91HFI     H2 1581   2.310   1.357   0.454  0.5212  1.3216 -2.8987
   92HFI     O1 1582   0.104   3.328   1.051  0.2267  0.2267 -0.0424
   92HFI     C1 1583   0.015   3.350   0.942  0.0369  0.4565 -0.1038
   92HFI     C2 1584   0.066   3.283   0.810 -0.0069 -0.3983  0.3150
   92HFI     F1 1585   0.137   3.373   0.741 -0.5567 -0.0799 -0.3476
   92HFI     F2 1586  -0.038   3.241   0.741 -0.3956 -0.5406  0.1647
   92HFI     F3 1587   0.143   3.178   0.833 -0.4006  0.2240 -0.2238
   92HFI     C3 1588  -0.033   3.499   0.925 -0.7808 -0.0837  0.2771
   92HFI     F4 1589  -0.105   3.528   0.813 -0.0926 -0.2217 -0.6670
   92HFI     F5 1590   0.071   3.585   0.930 -0.8544  0.0629 -0.1436
   92HFI     F6 1591  -0.112   3.527   1.038 -0.0905 -0.3125 -0.1909
   92HFI     H1 1592   0.198   3.343   1.030  1.0772 -2.4411  1.5866
   92HFI     H2 1593  -0.084   3.306   0.963  1.1069 -1.2023  1.6076
   93HFI     O1 1594   2.468   1.509   0.543 -0.4626 -0.3389 -0.2159
   93HFI     C1 1595   2.566   1.614   0.507  0.2391 -0.6014 -0.1387
   93HFI     C2 1596   2.712   1.561   0.513  0.2522  1.1904  0.6926
   93HFI     F1 1597   2.728   1.475   0.401  0.2753  0.4629 -0.0471
   93HFI     F2 1598   2.732   1.483   0.619 -0.5985 -0.0429 -0.4184
   93HFI     F3 1599   2.799   1.666   0.517 -0.7788 -0.2046  0.2689
   93HFI     C3 1600   2.542   1.731   0.588 -0.4117 -0.4659  0.5643
   93HFI     F4 1601   2.416   1.780   0.565 -0.3810 -0.0538 -0.7225
   93HFI     F5 1602   2.626   1.841   0.573 -0.4627  0.6508 -0.0966
   93HFI     F6 1603   2.546   1.693   0.715  0.1886 -0.0830 -0.7995
   93HFI     H1 1604   2.499   1.480   0.631 -0.8289  1.0039  0.3827
   93HFI     H2 1605   2.542   1.647   0.405  2.1934  1.0132 -0.0831
   94HFI     O1 1606   1.520   3.327   0.649  0.4124  0.3283  0.6082
   94HFI     C1 1607   1.513   3.199   0.572  0.2944 -0.1386 -0.9719
   94HFI     C2 1608   1.655   3.134   0.541 -0.4192  0.7999 -0.7225
   94HFI     F1 1609   1.699   3.058   0.640  0.0812  0.2765  0.1909
   94HFI     F2 1610   1.745   3.229   0.507 -0.0366 -0.0898 -0.0389
   94HFI     F3 1611   1.643   3.056   0.435 -0.3946  0.2746 -0.3657
   94HFI     C3 1612   1.426   3.218   0.440  0.5179  1.1697 -0.2559
   94HFI     F4 1613   1.361   3.110   0.388 -0.1479 -0.3879  0.5084
   94HFI     F5 1614   1.499   3.278   0.341  0.2699 -0.5336  0.3165
   94HFI     F6 1615   1.325   3.309   0.470 -0.5980 -0.8704  0.1138
   94HFI     H1 1616   1.457   3.386   0.603  0.4418 -0.8653 -1.0055
   94HFI     H2 1617   1.459   3.130   0.638  0.0601  0.0432 -0.9761
   95HFI     O1 1618   1.075   2.307   0.435 -0.3646  0.1282  0.5180
   95HFI     C1 1619   1.179   2.206   0.451 -0.1825  0.8762 -0.9881
   95HFI     C2 1620   1.278   2.255   0.573 -0.4530 -0.3561 -0.1346
   95HFI     F1 1621   1.200   2.324   0.657  0.3849 -0.3880  0.9031
   95HFI     F2 1622   1.369   2.349   0.526 -0.0638  0.0128  0.9855
   95HFI     F3 1623   1.346   2.153   0.634  0.3434  0.1067  0.3105
   95HFI     C3 1624   1.255   2.175   0.321 -0.6566 -0.3897  0.5494
   95HFI     F4 1625   1.351   2.086   0.335  0.0917 -0.1600  0.1092
   95HFI     F5 1626   1.305   2.289   0.261  0.5908 -0.2663  0.4703
   95HFI     F6 1627   1.172   2.123   0.230 -0.2007 -0.2039  0.1436
   95HFI     H1 1628   1.011   2.289   0.506 -2.2459 -4.5921 -2.1346
   95HFI     H2 1629   1.140   2.106   0.478  0.2193  1.0366  0.2031
   96HFI     O1 1630   1.768   0.668   0.166 -0.6015  0.3042  0.4408
   96HFI     C1 1631   1.795   0.547   0.085  0.0348  0.7901 -0.4904
   96HFI     C2 1632   1.747   0.561  -0.061  0.0319 -0.5688  0.2429
   96HFI     F1 1633   1.615   0.578  -0.066 -0.2275 -0.0413  0.2019
   96HFI     F2 1634   1.789   0.453  -0.140 -0.2563  0.3679  0.5769
   96HFI     F3 1635   1.794   0.676  -0.107 -0.1786 -0.6153  0.4325
   96HFI     C3 1636   1.756   0.412   0.157  0.0931 -0.5583 -0.3512
   96HFI     F4 1637   1.623   0.385   0.152  0.5057 -0.2420  0.1099
   96HFI     F5 1638   1.796   0.425   0.288  0.0079 -0.2826  0.2595
   96HFI     F6 1639   1.818   0.305   0.102  0.4761  0.0648 -0.4025
   96HFI     H1 1640   1.735   0.638   0.252 -1.1100  1.1408  0.5402
   96HFI     H2 1641   1.903   0.532   0.075 -0.0349 -1.7781  1.8017
   97HFI     O1 1642   1.067   3.360   1.579 -0.1399 -0.2104  0.2660
   97HFI     C1 1643   0.928   3.315   1.562  0.0235 -0.2336 -0.6673
   97HFI     C2 1644   0.927   3.178   1.487  0.2391  0.0078  0.2650
   97HFI     F1 1645   0.801   3.132   1.458 -0.2831  0.0792  0.4272
   97HFI     F2 1646   0.987   3.080   1.554  0.2426  0.9006 -0.1056
   97HFI     F3 1647   0.986   3.184   1.367  0.0819  0.1910 -0.2328
   97HFI     C3 1648   0.839   3.417   1.504  0.8418 -0.3023 -0.2581
   97HFI     F4 1649   0.882   3.452   1.377 -0.1411  0.1902 -0.3120
   97HFI     F5 1650   0.845   3.524   1.581  0.1774  0.2181  0.5335
   97HFI     F6 1651   0.704   3.385   1.497  0.2341 -0.5910 -0.0758
   97HFI     H1 1652   1.112   3.361   1.493 -1.4438  1.4760 -0.4273
   97HFI     H2 1653   0.880   3.285   1.655  1.8762 -1.0376  0.0452
   98HFI     O1 1654   0.703   1.644   1.306 -0.0541  0.0795  0.4201
   98HFI     C1 1655   0.799   1.725   1.380  0.4026 -0.0365  0.6250
   98HFI     C2 1656   0.864   1.639   1.493 -0.0461  0.1345 -0.3665
   98HFI     F1 1657   0.945   1.716   1.571  0.1235 -0.1412  0.2169
   98HFI     F2 1658   0.931   1.534   1.439  0.4958 -0.4174 -0.2378
   98HFI     F3 1659   0.763   1.591   1.573 -0.5602 -0.4285 -0.2556
   98HFI     C3 1660   0.741   1.866   1.420 -0.5011  0.7890 -0.0249
   98HFI     F4 1661   0.678   1.919   1.315 -0.0879  0.2854  0.1655
   98HFI     F5 1662   0.842   1.950   1.454  0.0875  0.1170  0.7521
   98HFI     F6 1663   0.656   1.844   1.520  0.5949 -0.9060  0.1268
   98HFI     H1 1664   0.654   1.599   1.377  0.4713 -2.1611 -0.5829
   98HFI     H2 1665   0.886   1.741   1.315  0.9447 -1.4097  0.9913
   99HFI     O1 1666   3.293   0.613   1.044 -0.0163  0.0355 -0.0113
   99HFI     C1 1667   3.399   0.628   0.943  0.2885  0.4583  0.4976
   99HFI     C2 1668   3.383   0.527   0.826 -1.2393 -0.0237  0.2651
   99HFI     F1 1669   3.470   0.549   0.725  0.1036 -0.0894  0.2091
   99HFI     F2 1670   3.256   0.534   0.775  0.3719 -0.3105  0.0121
   99HFI     F3 1671   3.400   0.400   0.871  0.4163 -0.5039  0.0278
   99HFI     C3 1672   3.541   0.628   0.992  0.2158  0.2537  0.1305
   99HFI     F4 1673   3.635   0.660   0.900  0.0856  0.3947 -0.1676
   99HFI     F5 1674   3.575   0.509   1.049 -0.3606  0.2716 -0.2588
   99HFI     F6 1675   3.554   0.729   1.084  0.4598 -0.2032 -0.4132
   99HFI     H1 1676   3.314   0.550   1.115 -1.1259 -1.4903 -1.0167
   99HFI     H2 1677   3.384   0.728   0.901  0.8282  0.3292  0.0026
  100HFI     O1 1678   1.723   1.904   1.610 -0.1694  0.0106 -0.3016
  100HFI     C1 1679   1.833   1.916   1.510  0.0048  0.8062 -0.0190
  100HFI     C2 1680   1.908   1.782   1.491  0.2234  0.3040 -0.1209
  100HFI     F1 1681   1.966   1.744   1.602 -0.6310  0.2061  0.7154
  100HFI     F2 1682   2.001   1.793   1.391  0.3473  0.0671  0.4149
  100HFI     F3 1683   1.820   1.688   1.449  0.1549 -0.2054  0.0862
  100HFI     C3 1684   1.935   2.036   1.521 -0.1665  0.5315 -0.4256
  100HFI     F4 1685   1.875   2.147   1.581  0.7215 -0.1812  0.0733
  100HFI     F5 1686   1.967   2.081   1.391 -0.2010  0.1704 -0.1736
  100HFI     F6 1687   2.057   2.012   1.582  0.2309  0.0295  0.2165
  100HFI     H1 1688   1.710   1.811   1.635 -0.4133  0.1241 -0.0120
  100HFI     H2 1689   1.788   1.934   1.412  1.6103 -2.3065 -1.4080
  101HFI     O1 1690   2.895   0.521   0.780 -0.2950 -0.3457  0.1699
  101HFI     C1 1691   2.953   0.447   0.885  0.0501  0.0868 -0.1639
  101HFI     C2 1692   2.965   0.293   0.840 -0.5655 -0.8908  0.0773
  101HFI     F1 1693   3.029   0.218   0.933 -0.2294 -0.5116 -0.6891
  101HFI     F2 1694   3.030   0.290   0.720 -0.0712 -0.1792 -0.0971
  101HFI     F3 1695   2.838   0.237   0.824 -0.7017 -0.0520  0.2443
  101HFI     C3 1696   2.882   0.468   1.023  0.3804  0.0524 -0.2092
  101HFI     F4 1697   2.960   0.411   1.115  0.0789 -0.1758  0.5187
  101HFI     F5 1698   2.761   0.418   1.027 -0.9663  0.6947 -0.2408
  101HFI     F6 1699   2.878   0.598   1.059  0.3275  0.2124 -0.0255
  101HFI     H1 1700   2.939   0.500   0.695  2.2105  1.4824  0.9731
  101HFI     H2 1701   3.056   0.481   0.898  0.2307 -0.3519 -0.4416
  102HFI     O1 1702   0.642   1.594   0.986 -0.3973 -0.1816 -0.4465
  102HFI     C1 1703   0.649   1.445   0.983 -0.3759 -0.5797 -0.1903
  102HFI     C2 1704   0.642   1.392   0.841  0.3277  0.8030 -0.5369
  102HFI     F1 1705   0.696   1.269   0.841 -0.0476 -0.0544  0.5398
  102HFI     F2 1706   0.715   1.464   0.752 -0.4790  0.2298 -0.2974
  102HFI     F3 1707   0.515   1.383   0.792  0.0531  0.0549  0.5355
  102HFI     C3 1708   0.554   1.375   1.085  0.6441  1.0057 -0.0288
  102HFI     F4 1709   0.581   1.239   1.079 -0.1298 -0.2135  0.4369
  102HFI     F5 1710   0.425   1.403   1.059  0.5529 -0.1789  0.0151
  102HFI     F6 1711   0.578   1.412   1.215 -0.0466  0.3586 -0.3805
  102HFI     H1 1712   0.604   1.622   1.070 -2.8363  0.3838 -1.6936
  102HFI     H2 1713   0.749   1.417   1.016  0.1969  2.3730  0.7380
  103HFI     O1 1714   2.770   1.635   1.514 -0.2304  0.4983  0.2091
  103HFI     C1 1715   2.894   1.701   1.555 -0.5163  0.0716  0.1021
  103HFI     C2 1716   2.895   1.852   1.533  0.5793  0.0258 -0.0723
  103HFI     F1 1717   3.005   1.908   1.587 -0.7576 -0.8241  0.5173
  103HFI     F2 1718   2.790   1.910   1.595  0.0546 -0.5817 -0.7826
  103HFI     F3 1719   2.886   1.880   1.408  0.4691 -0.1557 -0.1756
  103HFI     C3 1720   3.021   1.637   1.505 -0.3868 -0.3680  0.1018
  103HFI     F4 1721   3.128   1.670   1.576 -0.2412 -0.4189 -0.7635
  103HFI     F5 1722   3.037   1.657   1.374  0.5823 -0.0219 -0.4923
  103HFI     F6 1723   3.019   1.506   1.526  0.4980 -0.9588  0.3147
  103HFI     H1 1724   2.766   1.630   1.417  1.1849 -0.5836  0.1877
  103HFI     H2 1725   2.900   1.701   1.665 -1.6166  2.1439  0.1913
  104HFI     O1 1726   0.593   0.372   0.668  0.3665  0.0022  0.1402
  104HFI     C1 1727   0.488   0.282   0.650 -0.0643  0.8179  0.2861
  104HFI     C2 1728   0.344   0.348   0.662 -0.5334  0.1475  0.5232
  104HFI     F1 1729   0.314   0.454   0.577  0.2450 -0.3195  0.0834
  104HFI     F2 1730   0.324   0.392   0.785  0.3970 -0.2558  0.0633
  104HFI     F3 1731   0.243   0.260   0.644  0.6428 -0.2449  0.4682
  104HFI     C3 1732   0.506   0.151   0.733 -0.4495  0.5079  0.0591
  104HFI     F4 1733   0.508   0.164   0.870 -0.2978 -0.1876 -0.4344
  104HFI     F5 1734   0.619   0.089   0.706 -0.6334 -0.3720 -0.1896
  104HFI     F6 1735   0.415   0.056   0.706  0.2766 -0.2523  0.5076
  104HFI     H1 1736   0.650   0.331   0.735 -0.0620  0.8909  1.0677
  104HFI     H2 1737   0.478   0.249   0.546 -2.4704 -1.6255  1.1977
  105HFI     O1 1738   0.298   2.508   3.784  0.7110 -0.3372  0.2531
  105HFI     C1 1739   0.162   2.475   3.758  0.3884 -0.1917 -0.1666
  105HFI     C2 1740   0.067   2.466   3.877  0.3381 -0.3039  0.1187
  105HFI     F1 1741  -0.059   2.493   3.839  0.1124 -0.1805 -0.0669
  105HFI     F2 1742   0.103   2.565   3.969  0.1286  0.1099 -0.3610
  105HFI     F3 1743   0.068   2.353   3.930  0.2366  0.3504 -0.0776
  105HFI     C3 1744   0.166   2.353   3.660 -0.4391  0.1854 -0.5117
  105HFI     F4 1745   0.046   2.341   3.600 -0.4227  0.0505 -0.2611
  105HFI     F5 1746   0.197   2.243   3.728 -0.3231  0.0856  0.4006
  105HFI     F6 1747   0.261   2.366   3.563 -0.2875  0.4749 -0.5418
  105HFI     H1 1748   0.345   2.432   3.822 -1.4264 -1.1262  1.4088
  105HFI     H2 1749   0.121   2.564   3.709  0.3427 -0.8852 -1.4265
  106HFI     O1 1750   2.527   2.182   0.833  0.6671  0.2200  0.2571
  106HFI     C1 1751   2.419   2.090   0.877  0.6590 -0.9934  0.1659
  106HFI     C2 1752   2.277   2.118   0.798 -0.8420 -0.1432 -0.3306
  106HFI     F1 1753   2.305   2.119   0.668  0.3196 -0.1257  0.4844
  106HFI     F2 1754   2.225   2.240   0.831 -0.2346  0.3325  0.4469
  106HFI     F3 1755   2.180   2.028   0.823 -0.0424  0.0113  0.0895
  106HFI     C3 1756   2.392   2.085   1.032  0.0240  0.6184  0.3609
  106HFI     F4 1757   2.510   2.101   1.093 -0.4023 -0.2370 -0.5669
  106HFI     F5 1758   2.351   1.959   1.067 -0.3413  0.5135  0.7637
  106HFI     F6 1759   2.313   2.182   1.074 -0.0667 -0.2549  0.3688
  106HFI     H1 1760   2.515   2.265   0.881 -0.9326  0.1251  0.0791
  106HFI     H2 1761   2.447   1.989   0.844 -0.2672 -1.9033  2.0905
  107HFI     O1 1762   2.491   1.781   1.604  0.5420 -0.2332 -0.1516
  107HFI     C1 1763   2.397   1.860   1.529  0.0196  0.0723  0.4293
  107HFI     C2 1764   2.366   1.775   1.404 -0.1233  0.2365  0.1530
  107HFI     F1 1765   2.307   1.656   1.433 -0.3017 -0.4591  0.1688
  107HFI     F2 1766   2.468   1.746   1.328 -0.4231 -0.1758  0.0427
  107HFI     F3 1767   2.282   1.835   1.323  0.1010 -0.2763 -0.2288
  107HFI     C3 1768   2.451   2.004   1.493  0.0870 -0.0352  0.1837
  107HFI     F4 1769   2.543   1.994   1.398  0.1071 -0.2521  0.1239
  107HFI     F5 1770   2.518   2.058   1.603 -0.8008 -0.2129  0.3532
  107HFI     F6 1771   2.350   2.083   1.442  0.1116  0.6742 -0.1481
  107HFI     H1 1772   2.581   1.795   1.570  0.1806 -0.9425 -1.4411
  107HFI     H2 1773   2.299   1.878   1.574  0.4669  1.3267  0.9268
  108HFI     O1 1774   0.016   0.557   1.357  0.2265  0.2630 -0.1558
  108HFI     C1 1775   0.002   0.425   1.412  0.4727 -0.1993 -0.0211
  108HFI     C2 1776  -0.014   0.320   1.300 -0.3151 -0.8954 -0.8311
  108HFI     F1 1777   0.093   0.320   1.216 -0.0251 -0.1063 -0.5415
  108HFI     F2 1778  -0.116   0.340   1.221 -0.1430 -0.6188  0.0621
  108HFI     F3 1779  -0.031   0.195   1.348 -0.1994 -0.0193  0.3326
  108HFI     C3 1780  -0.117   0.417   1.513 -0.8912  0.8922 -0.0216
  108HFI     F4 1781  -0.237   0.419   1.455 -0.1051 -0.2752 -0.1758
  108HFI     F5 1782  -0.108   0.530   1.591  0.0634  0.2660  0.2422
  108HFI     F6 1783  -0.097   0.311   1.591  0.3017  0.6853  0.1186
  108HFI     H1 1784  -0.001   0.628   1.422 -1.7293 -0.8150  0.5431
  108HFI     H2 1785   0.093   0.412   1.472 -0.2393 -1.1857  0.8675
  109HFI     O1 1786   0.887   1.279   1.306  0.2180 -0.2642  0.0737
  109HFI     C1 1787   0.838   1.167   1.390  0.3716 -0.7370 -0.3917
  109HFI     C2 1788   0.905   1.174   1.522  0.0963  0.3289 -0.3806
  109HFI     F1 1789   0.868   1.279   1.595 -0.2120  0.6434  0.4404
  109HFI     F2 1790   1.038   1.177   1.501 -0.0796 -0.7328  0.3065
  109HFI     F3 1791   0.870   1.064   1.593  0.2769  0.4171 -0.0628
  109HFI     C3 1792   0.845   1.035   1.319  0.0031 -0.3914 -0.2775
  109HFI     F4 1793   0.971   0.991   1.320 -0.5707  0.2044  0.0845
  109HFI     F5 1794   0.819   1.046   1.187  0.6385  0.0862  0.3059
  109HFI     F6 1795   0.766   0.940   1.364 -0.3591  0.8472  0.1712
  109HFI     H1 1796   0.963   1.319   1.351 -0.5164  1.8047 -0.4526
  109HFI     H2 1797   0.730   1.177   1.408  0.4529  0.3327 -0.4886
  110HFI     O1 1798   2.893   3.121   0.565  0.0458 -0.7680 -0.2677
  110HFI     C1 1799   2.957   3.181   0.684  0.3845  0.6275 -0.5283
  110HFI     C2 1800   2.888   3.136   0.817  0.9920 -0.7281 -0.7056
  110HFI     F1 1801   2.759   3.166   0.807  1.0560 -0.5095  0.2856
  110HFI     F2 1802   2.932   3.191   0.933 -0.5625 -0.3770  0.3245
  110HFI     F3 1803   2.896   3.004   0.826  0.0573  0.2137 -0.1006
  110HFI     C3 1804   2.968   3.334   0.662  0.0249 -0.3730  0.5688
  110HFI     F4 1805   3.032   3.363   0.537 -0.1602 -0.4147  0.0659
  110HFI     F5 1806   3.042   3.395   0.760  0.1943  0.0291 -0.1477
  110HFI     F6 1807   2.850   3.392   0.658 -0.1001  0.5085  0.0034
  110HFI     H1 1808   2.799   3.146   0.569  0.7840  1.9787  1.3287
  110HFI     H2 1809   3.059   3.141   0.694  0.0783 -0.5618 -2.0071
  111HFI     O1 1810   1.826   1.167   1.338  0.0776  0.1651  0.0486
  111HFI     C1 1811   1.864   1.272   1.434 -0.6588 -0.1467 -0.0569
  111HFI     C2 1812   1.740   1.341   1.481  0.3216 -0.7553  0.1250
  111HFI     F1 1813   1.749   1.406   1.604  0.3345  0.2686 -0.1385
  111HFI     F2 1814   1.637   1.253   1.498 -0.2300  0.1252  0.3710
  111HFI     F3 1815   1.697   1.431   1.385 -0.9288  0.3729 -0.2628
  111HFI     C3 1816   1.981   1.363   1.388  0.7618 -0.3433 -0.1228
  111HFI     F4 1817   2.093   1.289   1.378  0.7971  0.1443  0.4702
  111HFI     F5 1818   2.006   1.471   1.474  0.0565  0.0594  0.2348
  111HFI     F6 1819   1.960   1.415   1.256  0.0545  0.1309 -0.1595
  111HFI     H1 1820   1.755   1.198   1.280  1.7647  1.5829 -1.2895
  111HFI     H2 1821   1.898   1.224   1.527 -0.3547 -2.8976 -1.5383
  112HFI     O1 1822   3.349   2.682   1.043 -0.3344 -0.4788 -0.0920
  112HFI     C1 1823   3.325   2.824   1.048  0.8752  0.0910 -0.4203
  112HFI     C2 1824   3.248   2.873   0.921  0.3970 -0.1343 -0.0122
  112HFI     F1 1825   3.222   3.005   0.913  0.1761  0.2026 -0.3082
  112HFI     F2 1826   3.127   2.812   0.929 -0.0578  0.3842 -0.3860
  112HFI     F3 1827   3.301   2.826   0.808  0.3371 -0.3199  0.0807
  112HFI     C3 1828   3.446   2.914   1.088 -0.6795  0.6833 -0.2932
  112HFI     F4 1829   3.532   2.941   0.987 -0.1499  0.2199 -0.7880
  112HFI     F5 1830   3.517   2.860   1.189 -0.1021  0.1134  0.1816
  112HFI     F6 1831   3.404   3.039   1.127  0.4563 -0.0339 -0.3611
  112HFI     H1 1832   3.339   2.650   0.952  2.9022  1.9444 -1.3985
  112HFI     H2 1833   3.259   2.850   1.131  2.0780 -1.8419  1.1868
  113HFI     O1 1834   2.537   1.060   1.429  0.0881  0.4584 -0.1481
  113HFI     C1 1835   2.584   1.166   1.519  0.1669 -0.7429  0.9237
  113HFI     C2 1836   2.485   1.294   1.521 -0.1698  0.1666  0.3783
  113HFI     F1 1837   2.387   1.271   1.608  0.0573 -0.2810 -0.1769
  113HFI     F2 1838   2.433   1.314   1.398 -0.0311 -0.2049 -0.3117
  113HFI     F3 1839   2.550   1.405   1.557 -0.3543  0.4752 -0.3562
  113HFI     C3 1840   2.730   1.189   1.473 -0.2759  0.1554 -0.9867
  113HFI     F4 1841   2.808   1.079   1.470 -0.0370 -0.0825 -0.6968
  113HFI     F5 1842   2.788   1.273   1.564  0.4340 -0.0626  0.1078
  113HFI     F6 1843   2.744   1.250   1.356 -0.0971  0.3606 -0.0854
  113HFI     H1 1844   2.578   1.071   1.342  1.0438 -0.9438  0.1134
  113HFI     H2 1845   2.594   1.129   1.622 -0.8752 -0.7734  1.0183
  114HFI     O1 1846   2.209   0.703   0.966  0.4345  0.5082  0.0652
  114HFI     C1 1847   2.351   0.709   0.921 -0.0467  0.8723 -0.6605
  114HFI     C2 1848   2.403   0.567   0.875 -0.1686  0.6341 -0.0998
  114HFI     F1 1849   2.534   0.578   0.835 -0.2553  0.2565  0.1943
  114HFI     F2 1850   2.330   0.515   0.769  0.7245  0.0306 -0.0713
  114HFI     F3 1851   2.409   0.469   0.976  0.0786 -0.6600  0.2555
  114HFI     C3 1852   2.431   0.794   1.011  0.1184 -0.0878  0.0364
  114HFI     F4 1853   2.363   0.898   1.062  0.0166 -0.1969  0.2034
  114HFI     F5 1854   2.543   0.841   0.943  0.2234  0.1225  0.0386
  114HFI     F6 1855   2.469   0.722   1.119 -0.2662 -0.2539 -0.4763
  114HFI     H1 1856   2.207   0.665   1.056  0.9943  2.6474  0.9919
  114HFI     H2 1857   2.356   0.767   0.828  1.8454  2.0013  0.1278
  115HFI     O1 1858   2.996   3.038   1.491 -0.1548  0.1754  0.5908
  115HFI     C1 1859   2.911   2.952   1.400  0.4149  0.3720 -0.3387
  115HFI     C2 1860   2.847   2.838   1.480 -0.3202  0.4008 -0.5537
  115HFI     F1 1861   2.948   2.757   1.522 -0.0862  0.4817 -0.2573
  115HFI     F2 1862   2.751   2.761   1.430 -0.0888 -0.3274 -0.2563
  115HFI     F3 1863   2.793   2.905   1.583  0.4601  0.2168 -0.1297
  115HFI     C3 1864   2.973   2.904   1.273  0.2629  0.5847 -0.6676
  115HFI     F4 1865   2.893   2.831   1.201  0.3850  0.1016 -0.0888
  115HFI     F5 1866   3.080   2.832   1.299  0.0844 -0.3574  0.1413
  115HFI     F6 1867   3.007   3.006   1.190  0.0584  0.2407 -0.2050
  115HFI     H1 1868   3.009   2.993   1.576 -0.5843 -1.9350 -0.4332
  115HFI     H2 1869   2.828   3.011   1.360  0.9303 -0.1897 -2.2933
  116HFI     O1 1870   1.845   0.600   1.210  0.0175 -0.0013 -0.7719
  116HFI     C1 1871   1.800   0.526   1.089  0.0899  0.6797  0.4754
  116HFI     C2 1872   1.889   0.540   0.962 -0.7084 -0.2431 -0.0726
  116HFI     F1 1873   1.843   0.462   0.864 -0.4234 -0.0826 -0.8157
  116HFI     F2 1874   2.022   0.502   0.981  0.6044  0.3055 -0.1925
  116HFI     F3 1875   1.895   0.674   0.937 -0.3964 -0.0196 -0.2373
  116HFI     C3 1876   1.648   0.542   1.075  0.1764  0.2400  0.3216
  116HFI     F4 1877   1.610   0.649   1.004 -0.3866  0.8526 -0.3311
  116HFI     F5 1878   1.594   0.560   1.198  0.0651  0.0612 -0.9233
  116HFI     F6 1879   1.595   0.422   1.021  0.1041 -0.2037 -0.0107
  116HFI     H1 1880   1.873   0.691   1.189 -1.9016  0.7275 -0.2650
  116HFI     H2 1881   1.816   0.420   1.107 -1.2573 -0.0119 -2.0645
  117HFI     O1 1882   2.252   1.253   1.111  0.0867 -0.3195  0.2120
  117HFI     C1 1883   2.285   1.322   0.977  0.2670  0.2150  0.3028
  117HFI     C2 1884   2.406   1.241   0.911  0.1999 -0.5194  0.1060
  117HFI     F1 1885   2.368   1.112   0.873 -0.4489 -0.0733 -0.2215
  117HFI     F2 1886   2.513   1.225   0.994  0.4715  0.1547 -0.4072
  117HFI     F3 1887   2.448   1.300   0.800  0.1516  0.6930  0.2585
  117HFI     C3 1888   2.327   1.474   0.989 -0.0261 -0.4408  0.1210
  117HFI     F4 1889   2.234   1.552   1.049  0.1534  0.3261  0.4740
  117HFI     F5 1890   2.339   1.531   0.864 -0.3243 -0.2385 -0.1580
  117HFI     F6 1891   2.436   1.500   1.056 -0.3065  0.5587  0.3413
  117HFI     H1 1892   2.218   1.318   1.175  1.0423  0.8285 -0.4156
  117HFI     H2 1893   2.206   1.323   0.902  0.4167 -1.6738  0.1019
  118HFI     O1 1894   2.260   0.147   2.491  0.4285  0.5385 -0.1820
  118HFI     C1 1895   2.134   0.148   2.408  0.1545 -0.2812 -0.6020
  118HFI     C2 1896   2.083   0.010   2.354  0.4927 -0.5271  0.2456
  118HFI     F1 1897   2.139  -0.020   2.231 -0.0794 -0.0826 -0.1956
  118HFI     F2 1898   1.947   0.019   2.348  0.0029  0.3121 -0.3642
  118HFI     F3 1899   2.116  -0.096   2.439 -0.2249  0.3026  0.3423
  118HFI     C3 1900   2.156   0.248   2.290 -0.3136 -0.6572  0.2497
  118HFI     F4 1901   2.178   0.377   2.328 -0.3596 -0.2070  0.3102
  118HFI     F5 1902   2.049   0.253   2.200 -0.7330  0.0768 -0.7418
  118HFI     F6 1903   2.266   0.213   2.224 -0.1798  0.1085 -0.0139
  118HFI     H1 1904   2.339   0.144   2.434 -0.1115  1.9178 -1.0282
  118HFI     H2 1905   2.064   0.200   2.474  1.1271  1.7962 -1.1679
  119HFI     O1 1906   1.596   2.109   2.647 -0.0981  0.2844  0.0885
  119HFI     C1 1907   1.700   2.195   2.702 -0.1618  0.0367 -0.4067
  119HFI     C2 1908   1.790   2.105   2.789  0.0135 -0.1457  0.4222
  119HFI     F1 1909   1.893   2.171   2.845  0.7602  0.2086 -0.3460
  119HFI     F2 1910   1.845   2.015   2.717 -0.6942  0.2881  0.2677
  119HFI     F3 1911   1.718   2.049   2.888  0.3182 -0.2453  0.4935
  119HFI     C3 1912   1.645   2.306   2.787  0.7564 -0.7570 -0.0027
  119HFI     F4 1913   1.744   2.399   2.814 -0.0362  0.0132  0.1559
  119HFI     F5 1914   1.600   2.264   2.900 -0.1727  0.0553  0.2355
  119HFI     F6 1915   1.547   2.370   2.724  0.3160 -0.1078  0.5327
  119HFI     H1 1916   1.547   2.061   2.715 -0.1403  1.3519  0.8174
  119HFI     H2 1917   1.768   2.241   2.629 -0.2547  1.0110  0.1188
  120HFI     O1 1918   0.251   2.275   2.457  0.1352 -0.2126 -0.6782
  120HFI     C1 1919   0.228   2.389   2.370 -0.8421  0.2654  0.0742
  120HFI     C2 1920   0.102   2.375   2.287  0.2627  0.8485  0.6004
  120HFI     F1 1921   0.005   2.330   2.359 -0.5480  0.1079  0.5829
  120HFI     F2 1922   0.108   2.289   2.184  0.2870  0.5020  0.0958
  120HFI     F3 1923   0.056   2.494   2.244  0.6453  0.0488 -0.0911
  120HFI     C3 1924   0.351   2.445   2.290  0.5502  0.2605  0.2714
  120HFI     F4 1925   0.447   2.488   2.377  0.1368 -0.6433  0.0377
  120HFI     F5 1926   0.314   2.549   2.212  0.5863 -0.3876  0.3646
  120HFI     F6 1927   0.398   2.348   2.203 -0.5471 -0.2181  0.1428
  120HFI     H1 1928   0.219   2.198   2.407 -1.5325 -0.1198  0.2067
  120HFI     H2 1929   0.197   2.470   2.437  1.7854  1.9774 -0.6980
  121HFI     O1 1930   2.400   3.115   2.327 -0.2212 -0.1095 -0.3782
  121HFI     C1 1931   2.527   3.145   2.395 -0.2982 -0.3354  0.4000
  121HFI     C2 1932   2.507   3.259   2.501 -0.1617  0.3008 -0.3282
  121HFI     F1 1933   2.405   3.221   2.579 -0.1352  0.0481  0.3646
  121HFI     F2 1934   2.472   3.370   2.443  0.0053  0.2000  0.2823
  121HFI     F3 1935   2.617   3.279   2.575 -0.3643  0.0930 -0.8846
  121HFI     C3 1936   2.646   3.179   2.304  0.0490  0.3533  0.3892
  121HFI     F4 1937   2.651   3.305   2.279  0.1688 -0.1004  0.0077
  121HFI     F5 1938   2.635   3.113   2.188 -0.4489 -0.3621 -0.8543
  121HFI     F6 1939   2.765   3.137   2.355  1.0983  0.0861  0.0258
  121HFI     H1 1940   2.419   3.038   2.271 -1.7766  1.1237 -2.6921
  121HFI     H2 1941   2.572   3.064   2.454  0.4539  0.3090  0.7124
  122HFI     O1 1942   0.808   1.587   2.319  0.5623  0.0707  0.3799
  122HFI     C1 1943   0.948   1.571   2.285  0.3823  0.1808 -0.4379
  122HFI     C2 1944   0.998   1.421   2.270  0.4480 -0.3064  0.5219
  122HFI     F1 1945   1.112   1.407   2.203  0.3598  0.1726  0.1383
  122HFI     F2 1946   0.900   1.349   2.206  0.3050 -0.7061 -0.0265
  122HFI     F3 1947   1.008   1.363   2.397  0.5552  0.4038 -0.1889
  122HFI     C3 1948   1.050   1.650   2.366 -0.5778  0.3356 -0.3279
  122HFI     F4 1949   1.016   1.784   2.369 -0.3487 -0.3185 -0.0213
  122HFI     F5 1950   1.171   1.651   2.311 -0.3488 -0.4905 -0.0202
  122HFI     F6 1951   1.052   1.611   2.494  0.0659 -0.6749 -0.3670
  122HFI     H1 1952   0.798   1.622   2.410 -1.5160 -1.4759  0.7933
  122HFI     H2 1953   0.948   1.608   2.182 -0.6648  0.2202 -0.4318
  123HFI     O1 1954   0.519   1.255   3.461  0.0399  0.2710 -0.2589
  123HFI     C1 1955   0.630   1.199   3.384  0.2021 -0.3998 -0.5337
  123HFI     C2 1956   0.591   1.170   3.238  0.4235  0.4610 -0.1163
  123HFI     F1 1957   0.566   1.286   3.165 -0.0058 -0.1528 -0.0344
  123HFI     F2 1958   0.484   1.086   3.233 -0.0205  0.0559  0.0523
  123HFI     F3 1959   0.687   1.110   3.170 -0.6428  0.2597  0.6390
  123HFI     C3 1960   0.679   1.073   3.459 -0.2533 -0.6396  0.0911
  123HFI     F4 1961   0.714   1.101   3.587 -0.2556  0.1487 -0.2597
  123HFI     F5 1962   0.784   1.008   3.401 -0.4201 -0.2414 -0.2567
  123HFI     F6 1963   0.577   0.978   3.468 -0.1665 -0.7549 -0.2896
  123HFI     H1 1964   0.500   1.349   3.448 -0.5354  0.1441 -0.3232
  123HFI     H2 1965   0.708   1.275   3.399  0.9601 -1.2371 -0.1813
  124HFI     O1 1966   2.553   0.573   3.263  0.0022  0.1448  0.2449
  124HFI     C1 1967   2.522   0.543   3.403 -0.2391 -0.7816 -0.3235
  124HFI     C2 1968   2.370   0.539   3.410 -0.2082 -0.1144  0.0203
  124HFI     F1 1969   2.316   0.522   3.534  0.3162 -0.0862 -0.5155
  124HFI     F2 1970   2.322   0.433   3.337 -0.3787  0.1045 -0.0224
  124HFI     F3 1971   2.325   0.654   3.353 -0.0003 -0.4679 -0.3270
  124HFI     C3 1972   2.598   0.627   3.498 -0.0153  0.2191 -0.2661
  124HFI     F4 1973   2.572   0.587   3.626 -0.0107  0.1879 -0.6931
  124HFI     F5 1974   2.560   0.758   3.497 -0.3618  0.1052 -0.3554
  124HFI     F6 1975   2.732   0.614   3.473  0.2726 -0.1168 -0.2270
  124HFI     H1 1976   2.576   0.667   3.258  0.0530  0.1312  0.2323
  124HFI     H2 1977   2.554   0.439   3.420 -0.2044 -0.8321 -0.6754
  125HFI     O1 1978   3.290   1.666   0.076 -0.3276 -0.1673  0.0608
  125HFI     C1 1979   3.288   1.556  -0.015  0.5039 -0.0954 -0.1491
  125HFI     C2 1980   3.215   1.433   0.055 -0.3331 -1.1366  0.1895
  125HFI     F1 1981   3.090   1.476   0.082  0.1691 -0.2293 -0.5481
  125HFI     F2 1982   3.283   1.394   0.169 -0.4691  0.0036  0.0958
  125HFI     F3 1983   3.206   1.319  -0.023  0.2980  0.2590  0.0288
  125HFI     C3 1984   3.438   1.519  -0.055  0.4183 -0.2218  0.0791
  125HFI     F4 1985   3.491   1.624  -0.120 -0.4937 -0.0626 -0.0098
  125HFI     F5 1986   3.443   1.414  -0.140  0.3312 -0.3065 -0.4129
  125HFI     F6 1987   3.517   1.490   0.048 -0.0248 -0.4808 -0.1347
  125HFI     H1 1988   3.340   1.632   0.152 -0.1327 -3.2226 -1.3736
  125HFI     H2 1989   3.235   1.585  -0.106  0.5195  1.5230  0.3340
  126HFI     O1 1990   1.005   2.708   2.229 -0.8219 -0.2414  0.0831
  126HFI     C1 1991   0.923   2.755   2.334  0.1272  0.1520 -0.7742
  126HFI     C2 1992   0.772   2.747   2.289 -0.2245  0.3561  0.5777
  126HFI     F1 1993   0.733   2.857   2.225 -0.0203 -0.4316 -0.0600
  126HFI     F2 1994   0.690   2.719   2.391 -0.0456 -0.5027  0.0948
  126HFI     F3 1995   0.760   2.643   2.197  0.1182  0.2566  0.7115
  126HFI     C3 1996   0.970   2.898   2.360 -0.6433  0.8999 -0.3248
  126HFI     F4 1997   0.909   2.954   2.468 -0.4836 -0.7038 -0.7770
  126HFI     F5 1998   0.967   2.987   2.254  0.1893 -0.0909  0.2564
  126HFI     F6 1999   1.104   2.888   2.395 -0.4765 -0.1737 -0.3198
  126HFI     H1 2000   0.994   2.612   2.219 -2.8026 -0.0042 -0.0582
  126HFI     H2 2001   0.922   2.697   2.427 -1.0536  2.4935  0.7279
  127HFI     O1 2002   1.301   1.441   3.660 -0.0972 -0.3602 -0.1783
  127HFI     C1 2003   1.200   1.464   3.766 -0.2215 -0.2644 -0.3900
  127HFI     C2 2004   1.210   1.366   3.886 -0.0052  0.4036 -0.1214
  127HFI     F1 2005   1.110   1.378   3.972  0.4648  0.0939  0.0899
  127HFI     F2 2006   1.322   1.395   3.958 -0.1267  0.3194  0.5339
  127HFI     F3 2007   1.212   1.236   3.845 -0.3923  0.1993 -0.3185
  127HFI     C3 2008   1.051   1.465   3.711 -0.9003  0.0615 -0.2440
  127HFI     F4 2009   1.036   1.555   3.610 -0.0645 -0.0818  0.4666
  127HFI     F5 2010   0.963   1.500   3.804  0.1883  0.3007 -0.4374
  127HFI     F6 2011   1.007   1.346   3.656  0.1332  0.1378  0.1358
  127HFI     H1 2012   1.293   1.349   3.631 -2.5380  0.0227 -0.8175
  127HFI     H2 2013   1.215   1.564   3.810  2.3287 -1.2609  1.1093
  128HFI     O1 2014   2.926   2.354   2.531 -0.4592 -0.2297 -0.6251
  128HFI     C1 2015   2.837   2.429   2.442  0.5044 -0.0566 -0.1498
  128HFI     C2 2016   2.897   2.441   2.299 -0.1574  0.0516 -0.0825
  128HFI     F1 2017   2.900   2.315   2.252 -0.0562 -0.6390 -0.5981
  128HFI     F2 2018   3.014   2.496   2.295 -0.4800 -0.6056  0.3194
  128HFI     F3 2019   2.812   2.513   2.225  0.1389  0.5154  0.0363
  128HFI     C3 2020   2.789   2.568   2.502 -0.7516 -0.8536  0.0262
  128HFI     F4 2021   2.753   2.552   2.632 -0.4292  0.1380  0.3813
  128HFI     F5 2022   2.683   2.623   2.447 -0.0848  0.0040 -0.4459
  128HFI     F6 2023   2.889   2.657   2.500  0.0721  0.2816  0.3684
  128HFI     H1 2024   2.997   2.315   2.477  0.1168  0.0832 -0.1169
  128HFI     H2 2025   2.739   2.381   2.431  0.7190 -0.7041  0.7167
  129HFI     O1 2026   2.660   1.608   2.998  0.1651  0.5644  0.6529
  129HFI     C1 2027   2.718   1.656   2.872 -0.2369 -0.2696 -0.5001
  129HFI     C2 2028   2.857   1.589   2.844  0.5480 -0.0071  0.4563
  129HFI     F1 2029   2.858   1.458   2.893  0.0320 -0.6240  0.3601
  129HFI     F2 2030   2.961   1.656   2.895  0.0853 -0.5186 -0.0249
  129HFI     F3 2031   2.875   1.586   2.711  0.4234 -0.1786  0.6498
  129HFI     C3 2032   2.719   1.806   2.869 -0.0554 -0.8104  0.1760
  129HFI     F4 2033   2.753   1.857   2.989  0.4178 -0.0817  0.3268
  129HFI     F5 2034   2.596   1.861   2.845 -0.2259 -0.0431 -0.1312
  129HFI     F6 2035   2.805   1.859   2.772 -0.1133 -0.4766 -0.3753
  129HFI     H1 2036   2.668   1.511   2.999  1.0490  0.6273  0.4592
  129HFI     H2 2037   2.649   1.645   2.787 -0.7474  0.8326 -0.2403
  130HFI     O1 2038   0.580   2.128   3.268 -0.1035 -0.2767  0.0162
  130HFI     C1 2039   0.657   2.227   3.338  0.2366  0.2759  0.3195
  130HFI     C2 2040   0.806   2.258   3.287  0.2652 -0.0143 -0.7008
  130HFI     F1 2041   0.849   2.374   3.331 -0.4060  0.0145  0.6775
  130HFI     F2 2042   0.795   2.256   3.148 -0.2533  0.2178  0.1593
  130HFI     F3 2043   0.892   2.154   3.331  0.2739  0.3435  0.1748
  130HFI     C3 2044   0.649   2.199   3.490  0.1637 -0.0333  0.4436
  130HFI     F4 2045   0.728   2.291   3.557  0.0777 -0.1388  0.2147
  130HFI     F5 2046   0.683   2.079   3.534  0.3906 -0.4924 -0.9271
  130HFI     F6 2047   0.514   2.221   3.528 -0.2467 -0.0293 -0.6163
  130HFI     H1 2048   0.623   2.123   3.181 -0.5122 -0.2721 -0.1879
  130HFI     H2 2049   0.611   2.324   3.315 -1.3207 -0.8102 -1.1356
  131HFI     O1 2050   0.389   3.080   0.479 -0.3510 -0.0424  0.4534
  131HFI     C1 2051   0.428   2.956   0.558 -0.1210  0.3829  0.2771
  131HFI     C2 2052   0.503   2.998   0.690 -0.1569  0.6529  0.6783
  131HFI     F1 2053   0.513   2.894   0.775 -0.2229  0.8533  0.6167
  131HFI     F2 2054   0.434   3.094   0.763 -0.0884  0.1432 -0.3142
  131HFI     F3 2055   0.622   3.043   0.664  0.0101  0.0265 -0.4537
  131HFI     C3 2056   0.508   2.859   0.467  0.2799 -1.2762  0.1179
  131HFI     F4 2057   0.523   2.740   0.518  0.2770 -0.1038 -0.3776
  131HFI     F5 2058   0.628   2.903   0.437 -0.4424  0.2770  0.1328
  131HFI     F6 2059   0.451   2.852   0.346  0.3786 -0.2869 -0.1949
  131HFI     H1 2060   0.353   3.053   0.393  0.1685 -0.4252  0.3582
  131HFI     H2 2061   0.340   2.902   0.595  0.4849 -2.0045 -1.6500
  132HFI     O1 2062   1.982   3.016   0.462 -0.1521  0.1699  0.1684
  132HFI     C1 2063   2.095   2.955   0.388  0.3219  0.0477  0.3515
  132HFI     C2 2064   2.093   2.987   0.238 -0.5836 -0.4338 -0.0974
  132HFI     F1 2065   2.057   3.112   0.212  0.2251 -0.1865  0.5878
  132HFI     F2 2066   2.004   2.906   0.181  0.1114  0.0905  0.4091
  132HFI     F3 2067   2.212   2.960   0.180  0.0247 -0.6836 -0.2194
  132HFI     C3 2068   2.105   2.805   0.420  0.1950 -0.3252 -0.4176
  132HFI     F4 2069   2.127   2.798   0.550 -0.1764 -0.4353 -1.0859
  132HFI     F5 2070   2.199   2.736   0.355  0.4130  0.5051 -0.7860
  132HFI     F6 2071   1.984   2.746   0.395 -0.1459  0.0650  0.3877
  132HFI     H1 2072   1.913   3.050   0.403 -0.4055 -0.9177 -0.1856
  132HFI     H2 2073   2.194   2.987   0.421  0.4284  1.6862 -1.4903
  133HFI     O1 2074   1.044   0.303   2.497  0.0581  0.3393  0.6894
  133HFI     C1 2075   1.149   0.381   2.427  0.4741 -0.2888 -0.5172
  133HFI     C2 2076   1.164   0.524   2.502  0.2143  0.1356  0.5711
  133HFI     F1 2077   1.218   0.506   2.624  0.5027  0.0911  0.2415
  133HFI     F2 2078   1.044   0.582   2.520  0.4916  0.2272  0.2974
  133HFI     F3 2079   1.242   0.614   2.434  0.0698 -0.6894  0.0680
  133HFI     C3 2080   1.140   0.403   2.271 -0.0117 -0.2529 -0.6762
  133HFI     F4 2081   1.070   0.510   2.240 -0.2891 -0.1469  0.0319
  133HFI     F5 2082   1.091   0.295   2.217  0.1296  0.2949  0.5939
  133HFI     F6 2083   1.253   0.429   2.216 -0.7732 -0.3413  0.4071
  133HFI     H1 2084   0.959   0.345   2.476 -0.2159  0.2097  1.5206
  133HFI     H2 2085   1.241   0.326   2.449  1.1331  0.8647 -0.3731
  134HFI     O1 2086   1.448   3.074   3.676  0.9816 -0.1197  0.2430
  134HFI     C1 2087   1.395   2.948   3.736 -0.2557 -0.7900 -0.5537
  134HFI     C2 2088   1.438   2.820   3.659  0.5480  0.2218 -0.0848
  134HFI     F1 2089   1.574   2.819   3.638 -0.0106  0.4780 -0.1848
  134HFI     F2 2090   1.372   2.803   3.549 -0.1680  0.6289 -0.4762
  134HFI     F3 2091   1.413   2.707   3.732  0.4060  0.2490  0.5488
  134HFI     C3 2092   1.241   2.951   3.764  0.2076 -0.8280 -0.1080
  134HFI     F4 2093   1.169   2.985   3.650 -0.1972  0.3031 -0.1445
  134HFI     F5 2094   1.212   3.045   3.862  0.0249  0.0410  0.4189
  134HFI     F6 2095   1.195   2.830   3.804  0.0234 -0.2665 -0.3227
  134HFI     H1 2096   1.399   3.089   3.594  0.6434  2.9945  0.9409
  134HFI     H2 2097   1.450   2.936   3.830  1.1663 -1.2694 -1.4326
  135HFI     O1 2098   2.536   1.960   2.427 -0.0813  0.4265  0.4792
  135HFI     C1 2099   2.447   1.986   2.311 -0.2202 -0.5427  0.0349
  135HFI     C2 2100   2.393   2.131   2.309  0.1784 -0.2280  0.3653
  135HFI     F1 2101   2.497   2.222   2.310  0.1806 -0.2407 -0.4358
  135HFI     F2 2102   2.317   2.155   2.418 -0.4453 -0.4196  0.6341
  135HFI     F3 2103   2.316   2.158   2.203  0.1472  0.2608 -0.0105
  135HFI     C3 2104   2.325   1.883   2.310 -0.5092  0.5586  1.1833
  135HFI     F4 2105   2.375   1.761   2.301  0.0897  0.2292 -0.1003
  135HFI     F5 2106   2.250   1.884   2.201 -0.3666  0.6437 -0.2540
  135HFI     F6 2107   2.254   1.885   2.427 -0.3688 -0.6759 -0.5748
  135HFI     H1 2108   2.510   2.028   2.491  2.5367  0.2286  1.8176
  135HFI     H2 2109   2.508   1.968   2.222 -3.0170  0.8656 -2.2661
  136HFI     O1 2110   2.660   1.714   2.516  0.5568 -0.2995 -0.6193
  136HFI     C1 2111   2.750   1.650   2.416  0.6458 -0.0383  0.0508
  136HFI     C2 2112   2.868   1.749   2.386 -0.0004  0.2348 -0.1215
  136HFI     F1 2113   2.964   1.710   2.297 -0.3086  0.3562 -0.2355
  136HFI     F2 2114   2.930   1.788   2.499 -0.1870  0.1645  0.1352
  136HFI     F3 2115   2.815   1.862   2.337 -0.0431 -0.3120  0.1117
  136HFI     C3 2116   2.682   1.594   2.293  0.5174 -0.3832 -1.1707
  136HFI     F4 2117   2.566   1.517   2.315 -0.8289  0.3125  0.6738
  136HFI     F5 2118   2.771   1.529   2.217 -0.1120 -0.0916 -0.2404
  136HFI     F6 2119   2.638   1.697   2.213  0.6613  0.1368 -0.0463
  136HFI     H1 2120   2.620   1.795   2.480  0.4967 -0.0321  0.0465
  136HFI     H2 2121   2.804   1.565   2.460  2.2475 -0.2847 -2.2727
  137HFI     O1 2122   0.879   0.782   2.729 -0.0826  0.5888  0.4336
  137HFI     C1 2123   0.768   0.763   2.820 -0.0718  0.0423 -0.1743
  137HFI     C2 2124   0.759   0.873   2.921 -0.6765 -0.5012  0.2624
  137HFI     F1 2125   0.660   0.848   3.007  0.0063 -0.5950 -0.3531
  137HFI     F2 2126   0.722   0.984   2.854 -0.5021 -0.5759  0.3168
  137HFI     F3 2127   0.867   0.905   2.996  0.1073  0.4436  0.2943
  137HFI     C3 2128   0.774   0.621   2.894  0.5497 -0.3518 -0.0657
  137HFI     F4 2129   0.851   0.620   3.005  0.3916 -0.1570 -0.0041
  137HFI     F5 2130   0.820   0.526   2.803 -0.2935 -0.0309  0.2421
  137HFI     F6 2131   0.651   0.588   2.921  0.3968 -0.1533  0.8500
  137HFI     H1 2132   0.866   0.727   2.649 -1.8073  1.9543 -0.2538
  137HFI     H2 2133   0.672   0.764   2.767 -0.5142 -0.8209  0.5777
  138HFI     O1 2134   0.817   1.121   2.465  0.2204 -0.0607  0.1562
  138HFI     C1 2135   0.880   1.024   2.372 -0.1553  0.0543 -0.2255
  138HFI     C2 2136   0.797   0.908   2.338 -0.3611  0.1737 -0.0611
  138HFI     F1 2137   0.777   0.827   2.444  0.1735 -0.0397 -0.2232
  138HFI     F2 2138   0.845   0.836   2.232  0.3173 -0.3585  0.4244
  138HFI     F3 2139   0.684   0.957   2.296 -0.1282 -0.2526  0.0817
  138HFI     C3 2140   1.020   0.979   2.424  0.0236 -0.6323 -0.6123
  138HFI     F4 2141   1.075   0.873   2.352  0.4107 -0.2145 -0.0829
  138HFI     F5 2142   1.023   0.956   2.558 -0.6767 -0.0481  0.3861
  138HFI     F6 2143   1.109   1.084   2.396 -0.4991  0.2504  0.1537
  138HFI     H1 2144   0.878   1.196   2.471  1.4603 -1.0521  0.1260
  138HFI     H2 2145   0.892   1.075   2.276  1.0617  0.1410 -0.0404
  139HFI     O1 2146   2.073   1.456   3.432  0.5962 -0.0383  0.0441
  139HFI     C1 2147   2.114   1.535   3.318  0.2479  0.7735 -0.1849
  139HFI     C2 2148   2.217   1.459   3.231  0.0251  0.2992 -0.0934
  139HFI     F1 2149   2.341   1.429   3.283 -0.9775 -0.0698 -0.0899
  139HFI     F2 2150   2.251   1.522   3.118  0.3522 -0.2246  0.8747
  139HFI     F3 2151   2.167   1.337   3.190 -0.1081 -0.2365 -0.0055
  139HFI     C3 2152   2.165   1.678   3.371  0.5041  0.0380  0.1690
  139HFI     F4 2153   2.259   1.661   3.464  0.1621  0.0953  0.3784
  139HFI     F5 2154   2.063   1.750   3.433 -0.1296 -0.4018 -0.1183
  139HFI     F6 2155   2.215   1.754   3.273 -0.3687  0.1592 -0.5589
  139HFI     H1 2156   2.012   1.384   3.409  1.3788 -0.7302  0.1028
  139HFI     H2 2157   2.025   1.552   3.256 -0.0777 -0.1627  0.0262
  140HFI     O1 2158   2.860   1.228   0.011 -0.4476 -0.2113 -0.8013
  140HFI     C1 2159   2.880   1.115  -0.074  0.1329 -0.1454 -0.0972
  140HFI     C2 2160   2.884   1.159  -0.229  0.0226 -0.3723  0.4682
  140HFI     F1 2161   2.989   1.243  -0.253 -0.3548  0.2012 -0.5267
  140HFI     F2 2162   2.768   1.227  -0.258  0.2196 -0.6192 -0.1915
  140HFI     F3 2163   2.887   1.053  -0.313  0.0499 -0.1781 -0.1609
  140HFI     C3 2164   2.766   1.003  -0.054  0.1229 -0.2400 -0.3159
  140HFI     F4 2165   2.770   0.956   0.074 -0.0894  0.0972  0.0974
  140HFI     F5 2166   2.795   0.895  -0.129 -0.3569 -0.4119 -0.0328
  140HFI     F6 2167   2.640   1.041  -0.088 -0.2461 -0.5703  0.1039
  140HFI     H1 2168   2.870   1.309  -0.042 -0.6012  2.1027  2.5429
  140HFI     H2 2169   2.976   1.072  -0.043  1.2530  2.0471 -0.3956
  141HFI     O1 2170   3.392   1.923   3.660 -0.3920 -0.2076 -0.6553
  141HFI     C1 2171   3.372   1.942   3.518 -0.0916  0.7206  0.0902
  141HFI     C2 2172   3.289   1.829   3.455  0.4258 -0.0788 -0.7648
  141HFI     F1 2173   3.262   1.850   3.331  0.0275 -0.6437 -0.2432
  141HFI     F2 2174   3.178   1.817   3.525  0.1332  0.1265  0.0280
  141HFI     F3 2175   3.349   1.710   3.457  0.0807 -0.1772 -0.0437
  141HFI     C3 2176   3.504   1.974   3.444 -0.4128  0.2001 -0.0145
  141HFI     F4 2177   3.537   2.105   3.448 -0.2266  0.0556 -0.2658
  141HFI     F5 2178   3.508   1.936   3.313  0.1652 -0.2841  0.7314
  141HFI     F6 2179   3.612   1.911   3.502  0.0022  0.2733  0.0506
  141HFI     H1 2180   3.481   1.886   3.668 -0.1940  0.2448 -0.7339
  141HFI     H2 2181   3.310   2.032   3.506 -1.1720  0.2438  1.8180
  142HFI     O1 2182   0.014   0.723   0.121 -0.1142 -0.0558  0.7873
  142HFI     C1 2183  -0.033   0.803   0.240 -0.0411 -0.4194 -0.9730
  142HFI     C2 2184  -0.002   0.735   0.371 -0.4017  0.2651 -0.1387
  142HFI     F1 2185   0.134   0.705   0.379 -0.0110 -0.1019  0.1266
  142HFI     F2 2186  -0.070   0.620   0.395 -0.2047 -0.2488 -0.1811
  142HFI     F3 2187  -0.024   0.818   0.475  0.1320  0.4807  0.2399
  142HFI     C3 2188  -0.189   0.822   0.226 -0.2453 -0.1466 -0.1051
  142HFI     F4 2189  -0.269   0.712   0.225  0.3324 -0.8155  0.0192
  142HFI     F5 2190  -0.218   0.886   0.106  0.2937  0.0722  0.1031
  142HFI     F6 2191  -0.241   0.906   0.328 -0.3129 -0.7289  0.5597
  142HFI     H1 2192   0.104   0.692   0.141  0.4295  0.3609 -0.9667
  142HFI     H2 2193   0.008   0.903   0.255 -0.5452 -0.1116 -1.6794
  143HFI     O1 2194   2.911   2.805   2.808  0.3497 -0.0523  0.0997
  143HFI     C1 2195   2.872   2.947   2.815  0.1655  0.6637  0.3028
  143HFI     C2 2196   2.842   3.003   2.673  0.0202 -0.2644  0.0851
  143HFI     F1 2197   2.821   3.138   2.674  0.3265 -0.5372  0.5123
  143HFI     F2 2198   2.737   2.946   2.626 -0.5224 -0.4263  0.6270
  143HFI     F3 2199   2.947   2.979   2.584  0.5131  0.2133  0.2314
  143HFI     C3 2200   2.962   3.032   2.908 -0.3284  1.0315 -0.0450
  143HFI     F4 2201   2.898   3.110   3.001 -0.0806 -0.5571  0.6849
  143HFI     F5 2202   3.053   3.102   2.834  0.8933  0.1425 -0.3135
  143HFI     F6 2203   3.033   2.947   2.986  0.1585  0.7799 -0.3819
  143HFI     H1 2204   2.994   2.799   2.857  0.0602  0.1558  0.6222
  143HFI     H2 2205   2.769   2.947   2.854  0.2423 -0.0080  0.5081
  144HFI     O1 2206   2.319   2.030   0.204  0.7725 -0.2933 -0.1214
  144HFI     C1 2207   2.293   1.958   0.080  0.2986  0.1237 -0.1656
  144HFI     C2 2208   2.143   1.977   0.035 -1.1521 -0.2842 -0.3774
  144HFI     F1 2209   2.049   1.952   0.130 -0.0080 -0.1902 -0.0824
  144HFI     F2 2210   2.111   1.900  -0.064  0.1588  0.6682 -0.0004
  144HFI     F3 2211   2.122   2.104  -0.011 -0.1381  0.3436 -0.3570
  144HFI     C3 2212   2.346   1.809   0.088  0.0775 -0.0572  0.3732
  144HFI     F4 2213   2.348   1.745  -0.031  0.0707  0.9673 -0.5811
  144HFI     F5 2214   2.265   1.733   0.175  0.4320  0.1329  0.2515
  144HFI     F6 2215   2.468   1.810   0.136  0.2575  0.0944  0.3885
  144HFI     H1 2216   2.284   1.985   0.283  0.2524  1.2347  0.5507
  144HFI     H2 2217   2.353   2.001  -0.002 -0.4694  1.1849 -0.1695
  145HFI     O1 2218   1.095   2.567   2.672  0.0399  0.1882 -0.1450
  145HFI     C1 2219   1.071   2.527   2.808 -0.4937 -0.0242  0.5960
  145HFI     C2 2220   1.102   2.376   2.834  0.3884  0.3104 -0.3073
  145HFI     F1 2221   1.031   2.296   2.758  0.1081 -0.4739 -0.3360
  145HFI     F2 2222   1.081   2.330   2.958 -0.3051 -0.7911 -0.5335
  145HFI     F3 2223   1.231   2.355   2.806 -0.3991  0.1898  0.2865
  145HFI     C3 2224   0.925   2.569   2.853  0.2070  0.3396 -0.0717
  145HFI     F4 2225   0.907   2.565   2.991  0.8440  0.3202 -0.8181
  145HFI     F5 2226   0.823   2.501   2.793  0.0294 -0.1390 -0.4633
  145HFI     F6 2227   0.910   2.700   2.819  0.1552 -0.5798  0.5460
  145HFI     H1 2228   1.180   2.530   2.643  0.1478 -1.1289  1.7127
  145HFI     H2 2229   1.143   2.582   2.870  0.5240 -0.2013 -0.4130
  146HFI     O1 2230   1.614   0.768   2.228  0.3379 -0.6161 -0.5188
  146HFI     C1 2231   1.531   0.692   2.317  0.2244  0.0603 -0.0581
  146HFI     C2 2232   1.536   0.760   2.465  0.1917 -0.3185 -0.1522
  146HFI     F1 2233   1.660   0.789   2.498 -0.0550  0.6494  0.1517
  146HFI     F2 2234   1.483   0.679   2.563 -0.2373 -0.5131 -0.8700
  146HFI     F3 2235   1.472   0.880   2.466  0.1029 -0.5016  0.5557
  146HFI     C3 2236   1.565   0.547   2.311  0.3331 -0.4424  0.2468
  146HFI     F4 2237   1.491   0.473   2.403  0.1449  0.2916  0.4348
  146HFI     F5 2238   1.698   0.534   2.338  0.5000 -0.5472  0.0955
  146HFI     F6 2239   1.542   0.504   2.187 -0.2940  0.0807 -0.0191
  146HFI     H1 2240   1.704   0.771   2.265 -0.1155  1.8101  0.4594
  146HFI     H2 2241   1.426   0.699   2.288  0.0131 -1.4440  0.2827
  147HFI     O1 2242   1.926   2.411   3.060 -0.0881  0.0302 -1.0256
  147HFI     C1 2243   1.948   2.552   3.054 -1.0388 -0.4574  0.2241
  147HFI     C2 2244   2.059   2.580   2.954  0.1567 -0.0658  0.0402
  147HFI     F1 2245   2.060   2.710   2.916 -0.4390  0.5084 -0.2182
  147HFI     F2 2246   2.052   2.493   2.845  0.6607  0.5043 -0.1999
  147HFI     F3 2247   2.180   2.559   3.014 -0.0346  0.3325 -0.1681
  147HFI     C3 2248   1.952   2.627   3.190  0.5325  0.4162  0.1064
  147HFI     F4 2249   2.026   2.560   3.271  0.1248 -0.5952  0.3357
  147HFI     F5 2250   1.831   2.632   3.248  0.2487  0.4192  0.3635
  147HFI     F6 2251   2.000   2.753   3.176  0.4015 -0.7534 -0.4020
  147HFI     H1 2252   1.987   2.377   3.128  0.7654  2.5840 -0.4432
  147HFI     H2 2253   1.859   2.596   3.006 -0.3193 -0.0490 -0.7616
  148HFI     O1 2254   1.790   3.100   2.501  0.2327 -0.0931  0.1497
  148HFI     C1 2255   1.885   3.008   2.442  0.5614  0.2307 -0.0340
  148HFI     C2 2256   1.881   2.995   2.286  0.6578  0.3794 -0.3775
  148HFI     F1 2257   1.762   2.954   2.242 -1.0024 -0.2245 -1.1931
  148HFI     F2 2258   1.986   2.917   2.238  0.2156  0.0473 -0.0911
  148HFI     F3 2259   1.905   3.121   2.239  0.0513 -0.3734 -0.6198
  148HFI     C3 2260   1.871   2.862   2.504  0.1846 -0.0096 -0.5960
  148HFI     F4 2261   1.985   2.793   2.485  0.4989  0.1534  0.5950
  148HFI     F5 2262   1.767   2.789   2.457 -0.2807 -0.4646 -0.1142
  148HFI     F6 2263   1.837   2.876   2.637 -0.0747  0.0546 -0.3874
  148HFI     H1 2264   1.707   3.090   2.451 -0.5718 -0.1436  1.4678
  148HFI     H2 2265   1.985   3.050   2.461  1.1853 -1.5358  0.6963
  149HFI     O1 2266   0.757   0.421   2.523 -0.2945  0.0444 -0.0889
  149HFI     C1 2267   0.642   0.429   2.430 -0.5209 -0.1514  0.0761
  149HFI     C2 2268   0.668   0.481   2.290  0.3646 -0.0791 -0.2217
  149HFI     F1 2269   0.767   0.415   2.238 -0.1369  0.6024  0.1289
  149HFI     F2 2270   0.701   0.606   2.288  0.5516  0.0494 -0.0736
  149HFI     F3 2271   0.561   0.465   2.207  0.7666 -0.4212  0.0438
  149HFI     C3 2272   0.515   0.499   2.502  0.5407  0.4293  0.2670
  149HFI     F4 2273   0.522   0.476   2.638 -0.0220  0.2102  0.2741
  149HFI     F5 2274   0.395   0.447   2.457  0.1958 -0.4398 -0.0011
  149HFI     F6 2275   0.512   0.636   2.476 -0.1745 -0.3020 -0.2661
  149HFI     H1 2276   0.719   0.389   2.606 -3.2883  1.5834 -0.7701
  149HFI     H2 2277   0.616   0.324   2.414  1.2088 -0.5912  0.1441
  150HFI     O1 2278   2.627   0.713   2.482 -0.0859 -0.0687  0.0009
  150HFI     C1 2279   2.568   0.591   2.430  0.0730 -0.1586 -0.1314
  150HFI     C2 2280   2.528   0.602   2.276 -0.1076  0.6230 -0.1784
  150HFI     F1 2281   2.453   0.500   2.244  0.6030  0.8879  0.2388
  150HFI     F2 2282   2.638   0.588   2.203 -0.0930  0.3017  0.3159
  150HFI     F3 2283   2.469   0.717   2.242 -0.1602  0.2994  0.3436
  150HFI     C3 2284   2.449   0.552   2.521 -0.2444  0.7389 -0.1762
  150HFI     F4 2285   2.350   0.645   2.512  0.1197  0.2738 -0.2219
  150HFI     F5 2286   2.491   0.540   2.648 -0.3913 -0.6025  0.4938
  150HFI     F6 2287   2.402   0.431   2.502 -0.5260 -0.2020 -0.1632
  150HFI     H1 2288   2.644   0.775   2.409 -0.7570 -0.0276 -0.1217
  150HFI     H2 2289   2.643   0.512   2.444 -0.1659 -0.4152 -0.3183
  151HFI     O1 2290   0.340   0.805   3.426 -0.0997 -0.0119 -0.1248
  151HFI     C1 2291   0.368   0.784   3.287 -0.4828 -0.1885 -0.8500
  151HFI     C2 2292   0.251   0.819   3.188  0.0813 -0.7929 -0.1937
  151HFI     F1 2293   0.297   0.857   3.067  0.1667  0.0061  0.2695
  151HFI     F2 2294   0.174   0.924   3.234 -0.2646  0.1016 -0.8042
  151HFI     F3 2295   0.170   0.716   3.171 -0.3622 -0.4972  0.1865
  151HFI     C3 2296   0.435   0.650   3.257 -0.1171  0.0623 -0.6358
  151HFI     F4 2297   0.482   0.653   3.131  0.2898  0.1913  0.0927
  151HFI     F5 2298   0.351   0.540   3.271 -0.0755 -1.0039  0.5476
  151HFI     F6 2299   0.540   0.628   3.341 -0.1913 -0.4756 -0.4971
  151HFI     H1 2300   0.358   0.723   3.476  0.5343 -0.6373 -1.3402
  151HFI     H2 2301   0.447   0.859   3.271 -0.4146  0.1073  0.8234
  152HFI     O1 2302   2.094   0.802   0.705 -0.2330 -0.9326 -0.0699
  152HFI     C1 2303   2.037   0.762   0.577 -0.2754 -0.8881  0.3431
  152HFI     C2 2304   2.075   0.622   0.531  0.0356 -0.4805  0.2830
  152HFI     F1 2305   2.210   0.611   0.507 -0.2307 -0.0602 -0.1878
  152HFI     F2 2306   2.008   0.589   0.419 -0.1680  0.2414  0.0734
  152HFI     F3 2307   2.040   0.534   0.632 -0.5818  0.1937 -0.0929
  152HFI     C3 2308   2.054   0.883   0.471  0.3353 -0.6667  0.1049
  152HFI     F4 2309   1.989   0.859   0.354 -0.4051  0.1909 -0.3218
  152HFI     F5 2310   2.181   0.918   0.444 -0.1103 -0.0816 -0.5830
  152HFI     F6 2311   1.995   1.000   0.517  0.1536 -0.1521 -0.3324
  152HFI     H1 2312   2.061   0.742   0.774  1.9010 -0.5879  1.3194
  152HFI     H2 2313   1.930   0.756   0.600  0.1614 -0.6086  2.6343
  153HFI     O1 2314   0.006   1.384   2.503  0.3755  0.2912 -0.1168
  153HFI     C1 2315  -0.113   1.370   2.424  0.6636  0.2710  0.1275
  153HFI     C2 2316  -0.121   1.462   2.298 -0.0485  0.7168  0.3757
  153HFI     F1 2317  -0.010   1.446   2.226  0.2141  0.1753  0.1827
  153HFI     F2 2318  -0.126   1.593   2.329  0.2066  0.2131 -0.2119
  153HFI     F3 2319  -0.225   1.436   2.217  0.0631  0.1733 -0.2355
  153HFI     C3 2320  -0.243   1.386   2.519  0.0742  0.2490  0.1287
  153HFI     F4 2321  -0.236   1.512   2.577 -0.3247  0.2647 -0.1049
  153HFI     F5 2322  -0.244   1.292   2.618  0.3778 -0.5842  0.0042
  153HFI     F6 2323  -0.368   1.392   2.453  0.5650  0.5158 -0.0038
  153HFI     H1 2324   0.025   1.479   2.515  0.4019  0.3618 -0.6957
  153HFI     H2 2325  -0.132   1.265   2.399 -0.4465  0.6877 -0.8031
  154HFI     O1 2326   1.020   0.074   3.578 -0.6147 -0.4540  0.1322
  154HFI     C1 2327   0.895   0.118   3.502 -0.3392 -0.4496 -0.4325
  154HFI     C2 2328   0.837   0.268   3.539 -0.4399 -0.5632  0.5935
  154HFI     F1 2329   0.939   0.354   3.556  0.1457 -0.0563 -0.0847
  154HFI     F2 2330   0.755   0.269   3.643  0.1218 -0.0703  0.4737
  154HFI     F3 2331   0.765   0.315   3.433  0.3367 -0.0995  0.0535
  154HFI     C3 2332   0.787   0.010   3.515  0.3434  0.7218  0.0791
  154HFI     F4 2333   0.745  -0.002   3.639  0.4640 -0.1160  0.2928
  154HFI     F5 2334   0.821  -0.113   3.471  0.6688  0.1830  0.1506
  154HFI     F6 2335   0.683   0.043   3.437  0.1138  0.1199 -0.4444
  154HFI     H1 2336   0.990   0.018   3.651  1.1676 -0.7318  0.6758
  154HFI     H2 2337   0.920   0.127   3.396  2.2496  1.8723  0.3236
  155HFI     O1 2338   0.305   1.990   2.399 -0.1465 -0.3835 -0.3072
  155HFI     C1 2339   0.359   1.896   2.297 -0.4377 -0.7071  0.0986
  155HFI     C2 2340   0.247   1.784   2.268  0.1808  0.4348 -0.1177
  155HFI     F1 2341   0.288   1.684   2.188 -0.6062  0.0867  0.1877
  155HFI     F2 2342   0.138   1.841   2.212  0.1795  0.1407  0.0300
  155HFI     F3 2343   0.204   1.730   2.386  0.2864  0.2186  0.3259
  155HFI     C3 2344   0.490   1.839   2.344 -0.5133 -0.1386  0.0806
  155HFI     F4 2345   0.481   1.773   2.456  0.1575  0.3741  0.0893
  155HFI     F5 2346   0.584   1.942   2.360  0.1633  0.7170 -0.1252
  155HFI     F6 2347   0.538   1.753   2.252 -0.5422 -0.3418 -0.1176
  155HFI     H1 2348   0.263   1.936   2.468 -0.1755  0.2393  0.1705
  155HFI     H2 2349   0.379   1.937   2.197  0.5567 -2.6432 -0.5417
  156HFI     O1 2350   1.567   2.548   3.338  0.1111 -0.3299  0.6830
  156HFI     C1 2351   1.436   2.532   3.286  0.6988 -0.2985 -0.3726
  156HFI     C2 2352   1.364   2.412   3.349  0.1004  0.2136  0.6829
  156HFI     F1 2353   1.332   2.441   3.477 -0.3765 -0.2235 -0.6462
  156HFI     F2 2354   1.449   2.307   3.353  0.0774  0.1169 -0.0440
  156HFI     F3 2355   1.250   2.374   3.292  0.1914  0.0801  0.5280
  156HFI     C3 2356   1.442   2.522   3.130 -0.2560  0.6628 -0.3270
  156HFI     F4 2357   1.497   2.405   3.088 -0.0603  1.2231  0.1171
  156HFI     F5 2358   1.513   2.627   3.081 -0.0490  0.3921  0.2530
  156HFI     F6 2359   1.319   2.520   3.077 -0.0311 -0.3304 -0.3410
  156HFI     H1 2360   1.631   2.488   3.296  0.8681  0.2492  0.9816
  156HFI     H2 2361   1.371   2.617   3.312  0.6230  0.2374 -2.2155
  157HFI     O1 2362   0.552   2.008   0.116  0.0202 -0.0794  0.6335
  157HFI     C1 2363   0.462   1.943   0.023  0.1123 -0.3337  0.5958
  157HFI     C2 2364   0.327   1.922   0.096 -0.4156 -0.3689  0.5109
  157HFI     F1 2365   0.235   1.852   0.024 -0.1680 -0.1246 -0.7940
  157HFI     F2 2366   0.275   2.044   0.130 -0.2918  0.1595  0.3252
  157HFI     F3 2367   0.339   1.856   0.212 -0.3568 -0.2194 -0.3016
  157HFI     C3 2368   0.519   1.808  -0.021 -1.1735  1.2378 -0.4957
  157HFI     F4 2369   0.633   1.828  -0.096 -0.2987 -0.0254 -0.8924
  157HFI     F5 2370   0.435   1.743  -0.100 -0.1070 -0.6367  0.1183
  157HFI     F6 2371   0.556   1.731   0.085  0.4021  0.0082  0.2417
  157HFI     H1 2372   0.634   1.956   0.117  0.9128  1.2181 -1.2607
  157HFI     H2 2373   0.442   2.009  -0.063 -2.2966 -1.8122 -0.0165
  158HFI     O1 2374   1.205   1.647   0.252  0.1866  0.0679  0.2951
  158HFI     C1 2375   1.152   1.757   0.325  0.6199 -0.4115 -0.0326
  158HFI     C2 2376   1.196   1.758   0.474 -0.5973 -0.1112 -0.0724
  158HFI     F1 2377   1.171   1.872   0.538 -0.1273 -0.3699 -0.1120
  158HFI     F2 2378   1.334   1.756   0.457  0.1847  0.2491  0.3848
  158HFI     F3 2379   1.162   1.653   0.552  0.5149  0.6371  0.5541
  158HFI     C3 2380   0.998   1.755   0.307 -1.0444 -0.8380 -0.3298
  158HFI     F4 2381   0.970   1.737   0.181 -0.3304  0.6327 -0.0558
  158HFI     F5 2382   0.936   1.872   0.338  0.3427  0.1914  0.3104
  158HFI     F6 2383   0.950   1.665   0.388  0.0099 -0.4385 -0.1120
  158HFI     H1 2384   1.283   1.610   0.296  1.1211 -1.7369 -2.6679
  158HFI     H2 2385   1.193   1.848   0.280  2.6174 -0.3149  1.9463
  159HFI     O1 2386   1.279   0.123   3.535 -0.4948 -0.3677  0.2734
  159HFI     C1 2387   1.309   0.263   3.501  0.3880 -0.5266  0.5399
  159HFI     C2 2388   1.286   0.297   3.350  0.6119 -0.2046  0.0835
  159HFI     F1 2389   1.271   0.431   3.322 -0.5520  0.0126  0.1813
  159HFI     F2 2390   1.171   0.244   3.294 -0.2513  0.1601  0.1164
  159HFI     F3 2391   1.381   0.253   3.267 -0.5225 -0.6143  0.3957
  159HFI     C3 2392   1.441   0.318   3.557 -0.0238 -0.3356 -0.3640
  159HFI     F4 2393   1.450   0.310   3.691  0.1393  0.1968 -0.0615
  159HFI     F5 2394   1.449   0.450   3.537  0.4949 -0.6580 -0.2377
  159HFI     F6 2395   1.551   0.262   3.510  0.1488  0.0273  0.4533
  159HFI     H1 2396   1.186   0.095   3.537 -0.9123  0.4942 -3.3602
  159HFI     H2 2397   1.239   0.326   3.557 -0.5658 -0.9720 -0.1216
  160HFI     O1 2398   3.392   2.791   3.075  0.4492 -0.4160 -0.2276
  160HFI     C1 2399   3.448   2.777   3.208 -0.3306  1.2136  0.3120
  160HFI     C2 2400   3.393   2.651   3.281 -0.5593 -0.0484 -0.1459
  160HFI     F1 2401   3.419   2.537   3.210  0.0286  0.3307  0.5443
  160HFI     F2 2402   3.262   2.647   3.294 -0.4581 -0.2471 -0.2457
  160HFI     F3 2403   3.451   2.639   3.405 -0.3136  0.0056  0.1314
  160HFI     C3 2404   3.437   2.902   3.293 -0.0205 -0.1215  0.4577
  160HFI     F4 2405   3.542   2.919   3.373 -0.2053 -0.4802  0.5180
  160HFI     F5 2406   3.318   2.907   3.361  0.4339 -0.1665 -0.9000
  160HFI     F6 2407   3.437   3.006   3.207  0.1007 -0.0066  0.4216
  160HFI     H1 2408   3.400   2.887   3.057 -0.2065 -0.3666 -0.2603
  160HFI     H2 2409   3.555   2.757   3.195 -0.5070  0.0489  0.6184
  161HFI     O1 2410   2.546   3.091   2.951  0.3452 -0.6586 -0.5073
  161HFI     C1 2411   2.418   3.040   2.931 -0.0370  0.4385 -0.1412
  161HFI     C2 2412   2.328   3.043   3.062 -1.2830  0.2117  0.1915
  161HFI     F1 2413   2.203   3.004   3.039 -0.3549  0.4748 -0.3184
  161HFI     F2 2414   2.317   3.173   3.109 -0.2967  0.2960 -0.0954
  161HFI     F3 2415   2.380   2.966   3.152 -0.4480  0.1504 -0.0058
  161HFI     C3 2416   2.430   2.894   2.863 -0.4136 -0.2477  0.2611
  161HFI     F4 2417   2.317   2.824   2.882 -0.0961  0.1457 -0.1146
  161HFI     F5 2418   2.536   2.820   2.913  0.0004  0.6977  0.2629
  161HFI     F6 2419   2.450   2.908   2.730  0.0905 -0.2276 -0.1146
  161HFI     H1 2420   2.545   3.170   3.008 -0.6759  0.7919 -2.4826
  161HFI     H2 2421   2.366   3.098   2.854 -0.1324 -0.2222 -0.5782
  162HFI     O1 2422   2.443   2.808   2.416  0.0495 -0.0999  0.0033
  162HFI     C1 2423   2.331   2.709   2.405  0.4044  0.0323  0.6961
  162HFI     C2 2424   2.355   2.580   2.497  0.7008 -0.6434 -0.2643
  162HFI     F1 2425   2.234   2.536   2.534 -0.2065  0.8414 -0.0301
  162HFI     F2 2426   2.427   2.603   2.608  0.9398 -0.0349  0.4078
  162HFI     F3 2427   2.411   2.478   2.425 -0.0084 -0.1835 -0.4328
  162HFI     C3 2428   2.291   2.676   2.256 -0.3557 -0.5515  0.1300
  162HFI     F4 2429   2.209   2.570   2.239 -0.3914  0.1553 -0.0158
  162HFI     F5 2430   2.400   2.655   2.187 -0.0751  0.3325  0.7583
  162HFI     F6 2431   2.232   2.789   2.201  0.0916  0.6371 -0.0153
  162HFI     H1 2432   2.505   2.767   2.478  1.2661 -0.0798 -1.1914
  162HFI     H2 2433   2.246   2.761   2.450  0.4037 -2.2388  3.4808
  163HFI     O1 2434   0.116   0.787   2.455  0.5220 -0.4457  0.3537
  163HFI     C1 2435   0.125   0.870   2.331  0.4997  0.0488 -0.3827
  163HFI     C2 2436   0.281   0.889   2.292  0.1811  0.7219 -0.2750
  163HFI     F1 2437   0.326   0.772   2.255 -0.2967  0.1794  0.0475
  163HFI     F2 2438   0.357   0.940   2.396  0.0371 -0.3577  0.0439
  163HFI     F3 2439   0.278   0.973   2.188 -1.2205 -0.0119 -0.2743
  163HFI     C3 2440   0.034   0.999   2.342 -0.2909  0.7487  0.0936
  163HFI     F4 2441  -0.097   0.966   2.364 -0.3833  0.0137  0.6696
  163HFI     F5 2442   0.047   1.080   2.238 -0.2817  0.2940  0.2894
  163HFI     F6 2443   0.068   1.074   2.452  0.1903  0.2429 -0.3455
  163HFI     H1 2444   0.206   0.764   2.485  0.1847  0.8302  2.4124
  163HFI     H2 2445   0.080   0.816   2.247  3.1503 -1.4061 -0.9092
  164HFI     O1 2446   0.026   1.620   2.645  0.0160  0.5090 -0.1342
  164HFI     C1 2447   0.101   1.629   2.771  0.2199  0.2065  0.3671
  164HFI     C2 2448   0.030   1.730   2.860 -0.0978 -0.1005  0.3549
  164HFI     F1 2449   0.047   1.856   2.812  0.8790 -0.1627  0.1431
  164HFI     F2 2450   0.074   1.727   2.984 -0.0033 -0.1924 -0.0471
  164HFI     F3 2451  -0.105   1.705   2.867  0.0659  0.0289 -0.0212
  164HFI     C3 2452   0.255   1.668   2.740 -0.7281  0.3914 -0.0474
  164HFI     F4 2453   0.334   1.565   2.689  0.3497  0.0249 -0.6826
  164HFI     F5 2454   0.309   1.698   2.864 -0.4233 -0.2829 -0.2585
  164HFI     F6 2455   0.268   1.779   2.658 -0.4554 -0.4172  0.1921
  164HFI     H1 2456  -0.065   1.626   2.679  0.4656 -0.0048  1.2208
  164HFI     H2 2457   0.086   1.532   2.819 -1.3558  0.6804  0.8670
  165HFI     O1 2458   3.273   0.578   2.491  0.0416 -0.0404 -0.0209
  165HFI     C1 2459   3.224   0.493   2.380  0.0499  0.7123 -0.2936
  165HFI     C2 2460   3.337   0.429   2.305 -0.8038  0.6533 -0.1416
  165HFI     F1 2461   3.289   0.333   2.230 -0.7408  0.1047 -0.2843
  165HFI     F2 2462   3.428   0.384   2.387  0.1572 -0.0064 -0.1012
  165HFI     F3 2463   3.397   0.524   2.221 -0.2900 -0.1109 -0.0477
  165HFI     C3 2464   3.118   0.566   2.298 -0.8770  0.5227  0.5275
  165HFI     F4 2465   3.175   0.663   2.232 -0.2010 -0.0006  0.4879
  165HFI     F5 2466   3.018   0.606   2.372 -0.4161  0.7457  0.1632
  165HFI     F6 2467   3.072   0.468   2.216  0.1361 -0.3561 -0.0152
  165HFI     H1 2468   3.227   0.664   2.493 -1.8333 -1.0407  1.3018
  165HFI     H2 2469   3.167   0.403   2.407  2.1341 -1.0748 -1.6954
  166HFI     O1 2470   0.217   1.462   3.091  0.0284 -0.3662  0.1182
  166HFI     C1 2471   0.093   1.452   3.175  0.1785 -0.0470 -0.6428
  166HFI     C2 2472   0.137   1.397   3.313 -0.9436 -0.3001 -0.0814
  166HFI     F1 2473   0.038   1.338   3.386 -0.3780  0.7298 -0.2648
  166HFI     F2 2474   0.175   1.506   3.384  0.4915  0.0290 -0.4903
  166HFI     F3 2475   0.237   1.311   3.309 -0.1386  0.0460  0.1805
  166HFI     C3 2476  -0.012   1.352   3.111 -0.2412 -0.3342  1.3982
  166HFI     F4 2477   0.026   1.226   3.092  0.1893 -0.1275 -0.4741
  166HFI     F5 2478  -0.056   1.399   2.994  0.6022 -0.0908 -0.4522
  166HFI     F6 2479  -0.123   1.348   3.190 -0.2679 -0.3135  0.3508
  166HFI     H1 2480   0.264   1.377   3.092 -0.2340 -0.5027  0.8291
  166HFI     H2 2481   0.050   1.553   3.180  2.0114  0.6579  2.1161
  167HFI     O1 2482   0.658   1.853   2.970  0.0391 -0.0670 -0.1830
  167HFI     C1 2483   0.743   1.764   2.890 -1.0284  0.4684 -0.2610
  167HFI     C2 2484   0.899   1.771   2.919 -0.5425  0.7692 -0.1275
  167HFI     F1 2485   0.986   1.702   2.837 -0.0516 -0.1988 -0.3200
  167HFI     F2 2486   0.919   1.749   3.047  0.0469  0.4171  0.5006
  167HFI     F3 2487   0.936   1.901   2.898 -0.0391  0.2060  0.2044
  167HFI     C3 2488   0.723   1.780   2.737 -0.3228 -0.0230  0.7225
  167HFI     F4 2489   0.776   1.667   2.670  0.0067  0.0747  0.1529
  167HFI     F5 2490   0.772   1.896   2.677  0.6037  0.7190 -0.0736
  167HFI     F6 2491   0.597   1.767   2.703  0.1286 -0.8168  0.5211
  167HFI     H1 2492   0.578   1.879   2.920 -0.3839  2.3547  1.6448
  167HFI     H2 2493   0.716   1.659   2.906 -0.9939  0.3280 -1.0927
  168HFI     O1 2494   3.008   2.870   2.332  0.3867  0.0123  0.1342
  168HFI     C1 2495   3.127   2.908   2.262  0.7954 -0.9485 -0.2533
  168HFI     C2 2496   3.241   2.813   2.282 -0.2467 -0.6786 -0.6470
  168HFI     F1 2497   3.279   2.796   2.404  0.2359 -0.0463  0.0742
  168HFI     F2 2498   3.355   2.856   2.218 -0.6385 -0.0963 -0.0635
  168HFI     F3 2499   3.211   2.692   2.230 -0.2000 -0.1980 -0.4127
  168HFI     C3 2500   3.160   3.065   2.285 -0.7349 -0.3417 -0.0464
  168HFI     F4 2501   3.154   3.105   2.414  0.0987  0.2394  0.8042
  168HFI     F5 2502   3.065   3.147   2.226  0.4636  0.0317 -0.1242
  168HFI     F6 2503   3.281   3.106   2.236  0.2960  0.2395 -0.5660
  168HFI     H1 2504   3.018   2.890   2.426 -2.8450 -0.3810  0.5863
  168HFI     H2 2505   3.112   2.914   2.153 -0.0280  1.9251 -0.0260
  169HFI     O1 2506   3.126   2.228   2.403 -0.2453 -0.0874  0.5230
  169HFI     C1 2507   3.157   2.085   2.419 -0.0288  0.2883 -0.4568
  169HFI     C2 2508   3.269   2.056   2.514 -0.1421 -0.1268  0.3362
  169HFI     F1 2509   3.266   2.142   2.618 -0.4480  0.1350  0.3312
  169HFI     F2 2510   3.396   2.058   2.457 -0.6970 -0.1274  1.3366
  169HFI     F3 2511   3.261   1.930   2.568 -0.0242 -0.0358  0.2426
  169HFI     C3 2512   3.165   2.013   2.284  0.3731 -0.4923 -0.7663
  169HFI     F4 2513   3.048   2.007   2.219  0.2870  0.1455 -0.1947
  169HFI     F5 2514   3.207   1.880   2.304  0.2993 -0.0580  0.1535
  169HFI     F6 2515   3.256   2.076   2.202 -0.7367 -0.0433 -0.3545
  169HFI     H1 2516   3.203   2.268   2.359 -1.2410  1.3794  0.0821
  169HFI     H2 2517   3.070   2.046   2.475  0.8260  0.0135  0.7093
  170HFI     O1 2518   2.579   3.382   3.184  0.3165 -0.0935  0.4272
  170HFI     C1 2519   2.521   3.402   3.314 -0.4836 -0.0092 -0.3556
  170HFI     C2 2520   2.415   3.520   3.323 -0.0966 -0.3986 -0.2020
  170HFI     F1 2521   2.305   3.483   3.261 -0.2447  0.4324  0.6894
  170HFI     F2 2522   2.467   3.629   3.267  0.1986 -0.0814  0.0453
  170HFI     F3 2523   2.385   3.555   3.451 -0.2760  0.3764  0.5858
  170HFI     C3 2524   2.627   3.410   3.424  0.1386  0.0948 -0.3971
  170HFI     F4 2525   2.741   3.343   3.395 -0.1024  0.5832  0.2359
  170HFI     F5 2526   2.580   3.356   3.543  0.2620  0.1698 -0.7685
  170HFI     F6 2527   2.665   3.538   3.451 -0.3168 -0.6704  0.5160
  170HFI     H1 2528   2.644   3.453   3.173  0.3871 -0.5942 -3.1182
  170HFI     H2 2529   2.458   3.314   3.334 -1.1755  0.8993  1.5613
  171HFI     O1 2530   0.712   0.250   2.755 -0.4645 -0.0316  0.2813
  171HFI     C1 2531   0.615   0.216   2.853  0.0835 -0.1640  0.6966
  171HFI     C2 2532   0.682   0.173   2.995 -0.0320  0.9706  0.3179
  171HFI     F1 2533   0.708   0.036   2.992 -0.3182 -0.7064  0.0229
  171HFI     F2 2534   0.588   0.200   3.093 -0.1454  0.0946  0.2547
  171HFI     F3 2535   0.794   0.241   3.010  0.0708 -0.1567 -0.1080
  171HFI     C3 2536   0.507   0.129   2.793 -0.5581  1.0483  0.0499
  171HFI     F4 2537   0.548   0.003   2.778  0.1811  0.0663  0.2020
  171HFI     F5 2538   0.466   0.162   2.669 -0.0994 -0.0008 -0.4629
  171HFI     F6 2539   0.394   0.127   2.872  0.5953 -0.1950  0.1851
  171HFI     H1 2540   0.795   0.200   2.764 -0.1733  0.0886 -1.4994
  171HFI     H2 2541   0.550   0.304   2.866 -0.0609 -0.2451  0.5124
  172HFI     O1 2542   1.980   1.035   3.193  1.0208  0.2902 -0.2207
  172HFI     C1 2543   1.951   1.006   3.332 -0.7644  0.0240 -0.4865
  172HFI     C2 2544   1.921   0.849   3.358 -0.3276 -0.1946 -0.3774
  172HFI     F1 2545   2.011   0.770   3.292  0.1398  0.2364  0.7460
  172HFI     F2 2546   1.797   0.811   3.321 -0.5790  0.3942 -0.0847
  172HFI     F3 2547   1.935   0.822   3.494  0.0897 -0.3523  0.6014
  172HFI     C3 2548   1.839   1.091   3.396  0.2520  0.0099  0.1850
  172HFI     F4 2549   1.776   1.039   3.501  0.1262 -0.1662 -0.3160
  172HFI     F5 2550   1.744   1.117   3.301  0.6699 -0.1087  0.1481
  172HFI     F6 2551   1.893   1.207   3.440 -0.0853  0.4568 -0.2260
  172HFI     H1 2552   2.072   1.006   3.181  0.8793 -0.3991  0.2845
  172HFI     H2 2553   2.043   1.027   3.388 -0.1761  1.6219 -2.0017
  173HFI     O1 2554   2.443   2.061   2.682 -0.2145  0.3446  0.6622
  173HFI     C1 2555   2.394   2.191   2.741 -0.5738  0.9678  0.4815
  173HFI     C2 2556   2.506   2.266   2.829  0.5506 -0.1472 -0.0591
  173HFI     F1 2557   2.518   2.217   2.959 -0.2244 -0.2916 -0.3779
  173HFI     F2 2558   2.483   2.397   2.849 -0.2214  0.4246  0.4819
  173HFI     F3 2559   2.626   2.253   2.771 -0.1738 -0.7146  0.5278
  173HFI     C3 2560   2.262   2.164   2.820  0.1914 -0.6447  0.4859
  173HFI     F4 2561   2.237   2.266   2.909  0.0254 -0.3954 -0.1019
  173HFI     F5 2562   2.281   2.045   2.884  0.0992 -0.4206 -0.1413
  173HFI     F6 2563   2.155   2.142   2.744 -0.1141 -0.0273  0.4887
  173HFI     H1 2564   2.493   2.009   2.747  1.4949 -0.2360 -1.0382
  173HFI     H2 2565   2.373   2.249   2.650  0.7489  1.3759  0.4316
  174HFI     O1 2566   1.893   0.938   0.092  0.0449 -0.0732 -0.0018
  174HFI     C1 2567   1.795   1.040   0.058 -0.3985  0.0949 -0.4627
  174HFI     C2 2568   1.866   1.181   0.045  0.1261  0.2880 -0.1292
  174HFI     F1 2569   1.954   1.174  -0.063 -0.0955 -0.1092 -0.1174
  174HFI     F2 2570   1.928   1.223   0.154  0.0378  0.0887  0.2365
  174HFI     F3 2571   1.778   1.285   0.009  0.0778 -0.6107  0.6962
  174HFI     C3 2572   1.678   1.040   0.170 -0.4001  0.1902  0.5057
  174HFI     F4 2573   1.579   1.131   0.148 -0.0508 -0.5683  0.1667
  174HFI     F5 2574   1.735   1.065   0.295 -0.3682 -0.2619  0.2903
  174HFI     F6 2575   1.615   0.918   0.187 -0.0420  0.6161 -0.2178
  174HFI     H1 2576   1.842   0.860   0.120  3.1449 -2.6999 -1.4079
  174HFI     H2 2577   1.750   1.015  -0.038  0.3316 -1.7962 -0.3314
  175HFI     O1 2578   2.218   0.072   2.800 -0.4307  0.0848  0.1665
  175HFI     C1 2579   2.311   0.151   2.887  0.2815 -0.8710 -0.5903
  175HFI     C2 2580   2.267   0.306   2.879  0.6019  0.7018 -0.0515
  175HFI     F1 2581   2.141   0.331   2.923  0.1405  0.1557 -0.0280
  175HFI     F2 2582   2.272   0.347   2.752 -0.3616  0.4233  0.2647
  175HFI     F3 2583   2.343   0.394   2.944  0.0307 -0.1903 -0.3684
  175HFI     C3 2584   2.463   0.132   2.855  0.2346 -0.5339  0.0087
  175HFI     F4 2585   2.493   0.170   2.727  0.2805  0.5069  0.5950
  175HFI     F5 2586   2.507   0.010   2.868 -0.1820  0.7877 -0.6091
  175HFI     F6 2587   2.529   0.215   2.944  1.1000  0.2506 -0.0106
  175HFI     H1 2588   2.250   0.081   2.709 -0.5802  0.5414  0.1582
  175HFI     H2 2589   2.296   0.119   2.991  2.3170  0.2512  0.0736
  176HFI     O1 2590   2.085   1.433   2.508 -0.4543 -0.2890  0.0790
  176HFI     C1 2591   2.147   1.491   2.392 -0.0807  0.5625 -1.0622
  176HFI     C2 2592   2.052   1.601   2.322 -0.2474  0.7225  0.1489
  176HFI     F1 2593   1.934   1.545   2.293  0.4370 -0.1785  0.4672
  176HFI     F2 2594   2.111   1.644   2.207 -0.4725  0.1911 -0.0677
  176HFI     F3 2595   2.020   1.704   2.402 -0.2518  0.5113  0.1465
  176HFI     C3 2596   2.190   1.380   2.293 -1.3094  0.5712  0.0256
  176HFI     F4 2597   2.088   1.315   2.236  0.2685 -0.4556 -0.0213
  176HFI     F5 2598   2.267   1.289   2.356  0.0346  0.0642 -0.2006
  176HFI     F6 2599   2.277   1.430   2.196  0.2954  0.4507  0.0470
  176HFI     H1 2600   2.062   1.341   2.487  0.1509  0.1205 -2.5881
  176HFI     H2 2601   2.240   1.540   2.425  0.3402 -1.3356  0.7049
  177HFI     O1 2602   0.109   2.582   0.462 -0.2241  0.0754 -0.0712
  177HFI     C1 2603   0.062   2.510   0.580  0.6123  0.0448 -0.2430
  177HFI     C2 2604   0.160   2.538   0.700 -0.2867 -0.1588 -0.3489
  177HFI     F1 2605   0.203   2.662   0.705  0.0600  0.0431  0.0500
  177HFI     F2 2606   0.273   2.468   0.700 -0.3259 -0.1049  0.0186
  177HFI     F3 2607   0.102   2.519   0.823 -0.2095 -0.0652 -0.0182
  177HFI     C3 2608   0.006   2.368   0.560  0.3493  0.6455 -0.6637
  177HFI     F4 2609  -0.087   2.375   0.461  0.0435  0.1162 -0.1648
  177HFI     F5 2610  -0.063   2.332   0.668  0.2871  0.3767  0.0758
  177HFI     F6 2611   0.105   2.280   0.530  0.0351  0.1798  0.7622
  177HFI     H1 2612   0.047   2.575   0.387 -0.1847  1.5921 -0.2685
  177HFI     H2 2613  -0.028   2.562   0.614  1.9358  2.5545 -0.4549
  178HFI     O1 2614   2.730   1.521   3.424  0.2145  0.0948 -0.5007
  178HFI     C1 2615   2.792   1.619   3.336  0.3915 -0.4614 -0.0410
  178HFI     C2 2616   2.938   1.577   3.309 -0.0961  0.2591  0.5569
  178HFI     F1 2617   2.935   1.463   3.237 -0.1022  0.5931  0.2561
  178HFI     F2 2618   3.000   1.537   3.425 -0.3578  0.2553  0.6605
  178HFI     F3 2619   3.007   1.670   3.249  0.3445 -0.7417 -0.3502
  178HFI     C3 2620   2.783   1.759   3.388 -0.0810  0.5331  0.1800
  178HFI     F4 2621   2.809   1.848   3.294 -0.3107  0.1089 -0.2935
  178HFI     F5 2622   2.875   1.768   3.483  0.5025  0.0148  0.0664
  178HFI     F6 2623   2.661   1.790   3.432  0.3865 -0.0424  0.3295
  178HFI     H1 2624   2.705   1.568   3.505  2.2390  1.5707 -0.7085
  178HFI     H2 2625   2.741   1.617   3.239  1.3497 -1.0643 -0.5382
  179HFI     O1 2626   0.100   0.119   2.471 -0.3514 -0.4754 -0.5219
  179HFI     C1 2627   0.162   0.026   2.377 -0.2788  0.1990  0.4059
  179HFI     C2 2628   0.267   0.095   2.295  0.6864 -0.2790  0.0669
  179HFI     F1 2629   0.216   0.185   2.205 -0.7425  0.5813 -0.3461
  179HFI     F2 2630   0.348   0.005   2.231 -0.3545 -0.4837  0.1354
  179HFI     F3 2631   0.353   0.161   2.370 -0.3697  0.1902 -0.4199
  179HFI     C3 2632   0.048  -0.035   2.298  0.7669  0.0621  0.0518
  179HFI     F4 2633  -0.039  -0.099   2.388 -0.6837  0.2960  0.2433
  179HFI     F5 2634   0.095  -0.124   2.209 -0.1726 -0.3310 -0.4858
  179HFI     F6 2635  -0.032   0.056   2.230  0.1908  0.0800  0.1681
  179HFI     H1 2636   0.076   0.196   2.417  0.0226  0.7519  1.0359
  179HFI     H2 2637   0.219  -0.050   2.432  0.3728 -1.9078 -3.0116
  180HFI     O1 2638   1.365   3.155   2.877  0.3088  0.2958 -0.1367
  180HFI     C1 2639   1.294   3.022   2.878 -0.4305 -0.8857 -0.3713
  180HFI     C2 2640   1.392   2.915   2.934 -0.4668 -0.4531 -0.7097
  180HFI     F1 2641   1.328   2.799   2.965  0.1634 -0.7007 -0.1040
  180HFI     F2 2642   1.459   2.972   3.040  0.5058  0.1731 -0.2898
  180HFI     F3 2643   1.485   2.879   2.842 -0.0177  0.0390  0.0464
  180HFI     C3 2644   1.231   2.988   2.734  0.0373  0.3685  0.3473
  180HFI     F4 2645   1.330   2.997   2.638  0.1355  0.0589 -0.3057
  180HFI     F5 2646   1.141   3.081   2.710 -0.0035 -0.2653  0.0399
  180HFI     F6 2647   1.175   2.869   2.724 -0.1129  0.1916  0.7535
  180HFI     H1 2648   1.460   3.137   2.872 -0.0829 -1.8054 -0.6176
  180HFI     H2 2649   1.203   3.021   2.939  0.2215  1.3888  0.6817
  181HFI     O1 2650   2.086   3.011   3.368  0.7200 -0.0002  0.1037
  181HFI     C1 2651   1.955   3.088   3.380  0.1539  0.7370 -0.1171
  181HFI     C2 2652   1.825   3.020   3.325 -0.0174  0.4373  0.3613
  181HFI     F1 2653   1.716   3.076   3.371 -0.3257  0.2723  0.4373
  181HFI     F2 2654   1.818   2.893   3.363 -0.0396  0.3529  0.2846
  181HFI     F3 2655   1.828   3.023   3.191  1.0377  0.7268  0.1899
  181HFI     C3 2656   1.976   3.232   3.317 -0.3442 -0.0736  0.5237
  181HFI     F4 2657   2.042   3.223   3.202  0.1959  0.1044 -0.2908
  181HFI     F5 2658   2.057   3.299   3.396 -0.1508 -0.4371 -0.0876
  181HFI     F6 2659   1.869   3.307   3.301 -0.1103 -0.2711 -0.1518
  181HFI     H1 2660   2.090   2.973   3.279 -1.3173 -1.4709  0.6354
  181HFI     H2 2661   1.931   3.097   3.486 -1.1915 -1.1814 -0.2360
  182HFI     O1 2662   3.108   0.725   3.348 -1.0619  0.5902  0.1663
  182HFI     C1 2663   3.183   0.772   3.237 -0.1294  0.5709  0.4816
  182HFI     C2 2664   3.130   0.902   3.182 -0.3311  0.3779 -0.2538
  182HFI     F1 2665   3.209   0.954   3.095  0.4675 -0.0152 -0.0544
  182HFI     F2 2666   3.092   0.991   3.274 -0.3765  0.0937 -0.4968
  182HFI     F3 2667   3.019   0.875   3.113  0.1747 -0.0691 -0.3485
  182HFI     C3 2668   3.215   0.664   3.135  0.3733 -0.0534  0.1816
  182HFI     F4 2669   3.290   0.568   3.194  0.2523  0.4317 -0.2589
  182HFI     F5 2670   3.286   0.716   3.033  0.7370  0.2059 -0.3913
  182HFI     F6 2671   3.106   0.594   3.091 -0.2777 -0.0676  0.7951
  182HFI     H1 2672   3.150   0.642   3.374  1.5983  1.6591 -0.6098
  182HFI     H2 2673   3.287   0.780   3.270  0.4812 -1.0186 -0.9918
  183HFI     O1 2674   2.418   2.678   0.082  0.1387 -0.9055 -0.3365
  183HFI     C1 2675   2.537   2.596   0.071  0.1883  0.3016 -0.1063
  183HFI     C2 2676   2.634   2.655  -0.030 -0.5030 -0.0593  0.4349
  183HFI     F1 2677   2.749   2.584  -0.034 -0.0693 -0.2993  0.5332
  183HFI     F2 2678   2.665   2.778   0.019  0.1454  0.1978 -0.3500
  183HFI     F3 2679   2.581   2.673  -0.156 -0.0138  0.2479 -0.0023
  183HFI     C3 2680   2.494   2.447   0.055  0.2330  0.7946  0.1225
  183HFI     F4 2681   2.447   2.428  -0.071 -0.0226 -0.8107 -0.4861
  183HFI     F5 2682   2.395   2.410   0.140 -0.1800 -0.0096  0.3395
  183HFI     F6 2683   2.601   2.360   0.073  0.1577 -0.4856 -0.0600
  183HFI     H1 2684   2.353   2.644   0.018 -0.8678  0.4399 -0.0528
  183HFI     H2 2685   2.582   2.610   0.170 -1.7296  1.5337  0.6187
  184HFI     O1 2686   1.564   2.114   2.347 -0.3409  0.1617  0.6707
  184HFI     C1 2687   1.506   1.996   2.277  0.0950 -0.3108 -0.0736
  184HFI     C2 2688   1.359   2.000   2.253 -0.4373 -0.0188 -0.8948
  184HFI     F1 2689   1.326   2.100   2.178  0.1466  0.6806 -0.1661
  184HFI     F2 2690   1.299   2.025   2.372 -0.1136 -0.3247  0.3111
  184HFI     F3 2691   1.315   1.883   2.202 -0.1178  0.1757  0.6744
  184HFI     C3 2692   1.551   1.862   2.350  0.4229  0.0458 -0.2209
  184HFI     F4 2693   1.577   1.769   2.256  0.2845 -0.1712  0.0660
  184HFI     F5 2694   1.467   1.819   2.441  0.1606 -0.3441  0.1414
  184HFI     F6 2695   1.673   1.878   2.407 -0.2789  0.1431  0.1808
  184HFI     H1 2696   1.561   2.097   2.443  0.0503 -6.9049 -0.3017
  184HFI     H2 2697   1.563   1.989   2.183  1.0857  0.5692  0.4520
  185HFI     O1 2698   2.721   1.019   2.445  0.1129  0.0818  0.6850
  185HFI     C1 2699   2.831   1.082   2.372 -0.2391  0.3932 -0.5719
  185HFI     C2 2700   2.784   1.220   2.321  0.7730  0.2384  0.3968
  185HFI     F1 2701   2.880   1.282   2.254  0.4742  0.3444  0.2778
  185HFI     F2 2702   2.747   1.306   2.422  0.0211  0.8489  0.0458
  185HFI     F3 2703   2.676   1.207   2.234 -0.9740 -0.0069 -0.0619
  185HFI     C3 2704   2.892   0.991   2.268  0.0341 -0.2521 -0.2738
  185HFI     F4 2705   3.004   1.048   2.228 -0.3924  0.4885  0.0550
  185HFI     F5 2706   2.811   0.961   2.168  0.3054  0.1534  0.2988
  185HFI     F6 2707   2.923   0.876   2.330 -0.2090  0.4529 -0.1805
  185HFI     H1 2708   2.646   1.080   2.445  0.4739  0.5959 -1.4804
  185HFI     H2 2709   2.907   1.111   2.446 -1.9270  0.5213  1.1659
  186HFI     O1 2710   0.905   2.096   2.301 -0.2864  0.0411 -0.2544
  186HFI     C1 2711   0.860   2.237   2.296 -0.4316 -0.3544 -0.1519
  186HFI     C2 2712   0.972   2.328   2.343  0.5272 -0.0736 -0.4829
  186HFI     F1 2713   1.097   2.292   2.297 -0.3778  0.4411 -1.3973
  186HFI     F2 2714   0.974   2.330   2.478 -0.0588  0.3238 -0.1805
  186HFI     F3 2715   0.936   2.449   2.300  0.2596 -0.0537  0.4536
  186HFI     C3 2716   0.724   2.259   2.377 -0.9726 -0.0392 -0.6990
  186HFI     F4 2717   0.697   2.390   2.400 -0.0807  0.3634  0.2981
  186HFI     F5 2718   0.725   2.197   2.494 -0.7583 -0.1875  0.5109
  186HFI     F6 2719   0.622   2.210   2.303  0.3831  0.2888  0.1736
  186HFI     H1 2720   0.955   2.080   2.383  2.3969  2.1175 -1.3669
  186HFI     H2 2721   0.843   2.266   2.192  0.8490 -0.4876 -0.4082
  187HFI     O1 2722   0.215   0.364   2.680  0.9109  0.6180  0.2501
  187HFI     C1 2723   0.131   0.437   2.783 -0.6463 -0.3336  0.2573
  187HFI     C2 2724   0.188   0.584   2.815 -0.0596  0.1538 -0.2719
  187HFI     F1 2725   0.306   0.565   2.879 -0.4400 -0.1391 -0.6772
  187HFI     F2 2726   0.112   0.645   2.891  0.1371 -0.6931  0.3663
  187HFI     F3 2727   0.222   0.653   2.704 -0.2464  0.9294  0.2297
  187HFI     C3 2728   0.097   0.355   2.913 -0.1379  0.3117  0.1698
  187HFI     F4 2729   0.078   0.225   2.872  0.1935  0.3428  0.3431
  187HFI     F5 2730  -0.011   0.405   2.978 -0.2622 -0.5599 -0.2642
  187HFI     F6 2731   0.195   0.344   3.004 -0.3433  0.2195  0.6415
  187HFI     H1 2732   0.227   0.271   2.705  1.1072  1.0165  1.7016
  187HFI     H2 2733   0.033   0.464   2.742 -0.7917  0.0012  0.8280
  188HFI     O1 2734   2.024   0.859   2.528 -0.2450  0.4425 -0.2274
  188HFI     C1 2735   2.105   0.826   2.408 -0.1497  0.0587  0.3522
  188HFI     C2 2736   2.117   0.938   2.299  0.2138 -1.1528 -0.3668
  188HFI     F1 2737   2.225   0.922   2.219  0.3522 -0.4280  0.2440
  188HFI     F2 2738   2.149   1.056   2.364  0.1014  0.5891  0.4294
  188HFI     F3 2739   2.006   0.967   2.222 -0.2954  1.0743 -0.1594
  188HFI     C3 2740   2.052   0.692   2.349  0.8308 -0.9836  1.0467
  188HFI     F4 2741   2.142   0.650   2.256  0.3983  0.2003 -0.1071
  188HFI     F5 2742   1.931   0.698   2.295 -0.1362 -0.0688 -0.2516
  188HFI     F6 2743   2.059   0.596   2.445 -0.5518 -0.7188  0.5877
  188HFI     H1 2744   2.022   0.789   2.596 -2.9262  0.3955 -0.3053
  188HFI     H2 2745   2.209   0.815   2.442  0.2127 -0.7912 -1.0189
  189HFI     O1 2746   1.969   1.587   2.711 -0.8071 -0.5907 -0.6126
  189HFI     C1 2747   2.043   1.696   2.772 -0.8091  0.4492 -0.3976
  189HFI     C2 2748   2.199   1.666   2.797 -0.5689 -0.4650  0.4619
  189HFI     F1 2749   2.272   1.698   2.686  0.0151 -0.2037  0.6042
  189HFI     F2 2750   2.217   1.536   2.832  0.3705 -0.0697  0.7485
  189HFI     F3 2751   2.260   1.742   2.891  0.4643 -0.3085  0.2432
  189HFI     C3 2752   1.968   1.735   2.905 -0.8397 -0.5099  0.4093
  189HFI     F4 2753   1.836   1.744   2.885  0.2187  0.3101 -0.1019
  189HFI     F5 2754   2.001   1.859   2.948  0.4331 -0.2903  0.2168
  189HFI     F6 2755   1.994   1.656   3.011  0.4152 -0.0193 -0.3223
  189HFI     H1 2756   2.022   1.563   2.632  1.2459 -0.9539  0.8287
  189HFI     H2 2757   2.036   1.790   2.715  1.9494  1.0483  0.1963
  190HFI     O1 2758   1.451   3.330   3.484 -0.5507  0.4430  0.3589
  190HFI     C1 2759   1.431   3.269   3.352  0.2436  0.0673  0.9527
  190HFI     C2 2760   1.486   3.353   3.233 -0.2260  0.5108  0.1220
  190HFI     F1 2761   1.510   3.265   3.132 -0.0329 -0.0111  0.6596
  190HFI     F2 2762   1.602   3.416   3.254 -0.3369  0.2743 -1.2464
  190HFI     F3 2763   1.391   3.442   3.183  0.1629 -0.1170 -0.2476
  190HFI     C3 2764   1.278   3.230   3.328 -0.5561  0.1516 -0.2377
  190HFI     F4 2765   1.243   3.137   3.418  0.2682 -0.1365 -0.5057
  190HFI     F5 2766   1.258   3.176   3.208  0.3289 -0.7580 -0.4524
  190HFI     F6 2767   1.201   3.337   3.354 -0.0274 -0.1477  0.4405
  190HFI     H1 2768   1.404   3.415   3.485 -1.4667 -0.0650  1.6404
  190HFI     H2 2769   1.493   3.179   3.347  0.8265  0.4728  0.9511
  191HFI     O1 2770   2.208   0.952   0.155 -0.4732 -0.2210 -0.2502
  191HFI     C1 2771   2.268   0.854   0.075  0.2233  0.0321  1.4836
  191HFI     C2 2772   2.257   0.892  -0.076  0.9228 -0.4836  0.3334
  191HFI     F1 2773   2.334   0.998  -0.098 -0.6206  0.0094 -0.1753
  191HFI     F2 2774   2.134   0.926  -0.110  0.3256 -0.1250  0.3372
  191HFI     F3 2775   2.307   0.801  -0.160  0.5754 -0.4584 -1.0082
  191HFI     C3 2776   2.212   0.709   0.106 -0.8746  0.0219 -0.1668
  191HFI     F4 2777   2.292   0.613   0.057  0.2531  0.4316  0.4672
  191HFI     F5 2778   2.084   0.689   0.072 -0.0049 -0.0722 -0.5237
  191HFI     F6 2779   2.219   0.692   0.237  0.2122  0.0609 -0.2446
  191HFI     H1 2780   2.116   0.958   0.127 -1.2705 -0.0287  2.3361
  191HFI     H2 2781   2.376   0.851   0.096  0.4803  0.9008  0.3110
  192HFI     O1 2782   1.695   3.204   3.660  0.9178 -0.0803 -0.5730
  192HFI     C1 2783   1.749   3.254   3.785 -0.3864 -0.2789 -0.2151
  192HFI     C2 2784   1.734   3.154   3.898 -0.4471  0.6107 -0.4962
  192HFI     F1 2785   1.785   3.038   3.857 -0.2692 -0.6897 -0.5722
  192HFI     F2 2786   1.600   3.119   3.923 -0.3215  0.1872  0.1375
  192HFI     F3 2787   1.802   3.180   4.010 -0.2073  0.2302 -0.2840
  192HFI     C3 2788   1.698   3.398   3.815  0.4627 -0.7319  0.6830
  192HFI     F4 2789   1.739   3.437   3.937 -0.3281 -0.4102 -0.4355
  192HFI     F5 2790   1.560   3.391   3.816 -0.2145 -0.0166 -0.0599
  192HFI     F6 2791   1.724   3.491   3.725  0.4045 -0.0400 -0.2208
  192HFI     H1 2792   1.616   3.152   3.681  1.2910 -1.2220 -1.9147
  192HFI     H2 2793   1.852   3.286   3.766 -0.4693  0.8374  1.1271
  193HFI     O1 2794   0.378   2.357   2.707  0.2466 -0.5166  0.2781
  193HFI     C1 2795   0.407   2.218   2.740 -0.3169 -0.4387 -1.0519
  193HFI     C2 2796   0.281   2.142   2.786 -0.0527 -0.0113  0.9261
  193HFI     F1 2797   0.182   2.216   2.843 -0.0078  0.3103  0.0054
  193HFI     F2 2798   0.304   2.035   2.859  0.0681 -0.2030 -0.2314
  193HFI     F3 2799   0.224   2.096   2.673 -0.8352  0.7904 -0.1297
  193HFI     C3 2800   0.527   2.196   2.836  0.4948  0.2225 -0.1520
  193HFI     F4 2801   0.609   2.297   2.818  0.0946 -0.3187  0.0848
  193HFI     F5 2802   0.594   2.080   2.799  0.0997 -0.4578  0.0170
  193HFI     F6 2803   0.490   2.198   2.966  0.2050 -0.1873  0.1364
  193HFI     H1 2804   0.308   2.346   2.642 -0.3528  1.2565  0.6037
  193HFI     H2 2805   0.441   2.167   2.649  0.9600  0.5631 -1.1533
  194HFI     O1 2806   1.719   2.324   2.205 -0.0413 -0.6164  0.0985
  194HFI     C1 2807   1.861   2.325   2.250  0.5585  0.3932  0.3752
  194HFI     C2 2808   1.908   2.179   2.287 -0.0745 -0.5187 -0.1125
  194HFI     F1 2809   1.866   2.149   2.414  0.0682 -0.2091  0.0476
  194HFI     F2 2810   2.043   2.170   2.276 -0.1483 -0.8679  0.2866
  194HFI     F3 2811   1.851   2.084   2.207  0.3573 -0.1082  0.8979
  194HFI     C3 2812   1.871   2.429   2.362 -0.3002 -0.0590  0.3604
  194HFI     F4 2813   1.977   2.414   2.434  0.0654  0.3121 -0.1770
  194HFI     F5 2814   1.768   2.415   2.451 -0.0760 -0.5410 -0.1603
  194HFI     F6 2815   1.876   2.559   2.315  0.1107 -0.4027  0.5795
  194HFI     H1 2816   1.670   2.255   2.253  1.5044 -1.5331  0.3776
  194HFI     H2 2817   1.909   2.365   2.161 -0.7411  1.2902  0.0708
  195HFI     O1 2818   2.492   1.160   2.517 -0.3984  0.2811 -0.5233
  195HFI     C1 2819   2.497   1.174   2.669 -0.0571 -0.5880 -0.1340
  195HFI     C2 2820   2.357   1.191   2.726 -0.1397  0.4010 -0.0079
  195HFI     F1 2821   2.308   1.316   2.689  0.6028 -0.0891 -0.6492
  195HFI     F2 2822   2.352   1.184   2.860  0.3872 -0.4438  0.2184
  195HFI     F3 2823   2.275   1.097   2.676  0.3122  0.0613 -0.9033
  195HFI     C3 2824   2.596   1.289   2.711  0.2382 -0.3596 -0.7458
  195HFI     F4 2825   2.594   1.386   2.623 -0.3169  0.8882 -0.1476
  195HFI     F5 2826   2.722   1.228   2.712  0.5124 -0.3686  0.1440
  195HFI     F6 2827   2.580   1.345   2.825  0.4239 -0.3270  0.4566
  195HFI     H1 2828   2.435   1.233   2.488 -1.9811 -0.0948  1.5668
  195HFI     H2 2829   2.536   1.080   2.711  3.8627  1.4009  0.9305
  196HFI     O1 2830   2.810   0.311   2.224  0.4304  0.5642  0.4581
  196HFI     C1 2831   2.814   0.181   2.300 -0.8146  0.0969  0.3127
  196HFI     C2 2832   2.742   0.205   2.441  0.4603 -0.1443 -0.0684
  196HFI     F1 2833   2.614   0.242   2.414 -0.4716  0.1494 -0.2097
  196HFI     F2 2834   2.806   0.303   2.509 -0.2806  0.4526  0.1506
  196HFI     F3 2835   2.741   0.101   2.531 -0.1823  0.8931 -0.1069
  196HFI     C3 2836   2.966   0.134   2.323  0.0394 -0.7193 -0.6635
  196HFI     F4 2837   3.033   0.195   2.429  0.9477 -0.4139  0.1675
  196HFI     F5 2838   3.041   0.144   2.211  0.1537 -0.4175 -0.2589
  196HFI     F6 2839   2.959   0.006   2.345 -0.0289 -0.0733 -0.5367
  196HFI     H1 2840   2.880   0.313   2.157 -1.2595  1.5937 -1.3358
  196HFI     H2 2841   2.768   0.099   2.243 -1.8323 -1.1596  2.8466
  197HFI     O1 2842   1.965   3.432   2.762 -0.1637  0.2165  0.2334
  197HFI     C1 2843   1.931   3.290   2.763  0.3940 -0.0768  0.2125
  197HFI     C2 2844   1.808   3.259   2.855 -0.0412 -0.0246 -0.3653
  197HFI     F1 2845   1.759   3.140   2.818 -0.4082 -0.0918  0.1189
  197HFI     F2 2846   1.710   3.353   2.846  0.0774  0.0661 -0.2065
  197HFI     F3 2847   1.834   3.252   2.990 -0.0295  0.3539  0.3815
  197HFI     C3 2848   2.053   3.194   2.789  0.4830 -0.1970  0.0330
  197HFI     F4 2849   2.029   3.064   2.795 -0.0462  0.2141  0.1336
  197HFI     F5 2850   2.107   3.225   2.903 -0.3538 -0.3568 -0.3548
  197HFI     F6 2851   2.142   3.218   2.694 -0.2385  0.0937 -0.4210
  197HFI     H1 2852   2.048   3.445   2.810 -2.5999  2.0697  4.1627
  197HFI     H2 2853   1.904   3.266   2.660  1.3948  1.3048 -0.3990
  198HFI     O1 2854   2.840   0.674   2.949 -0.5919  0.2102 -0.4551
  198HFI     C1 2855   2.863   0.682   2.801  0.7195 -1.0542  0.3340
  198HFI     C2 2856   2.917   0.554   2.747  0.0501  0.0123 -0.4999
  198HFI     F1 2857   2.836   0.452   2.776  0.4255  0.2755  0.7816
  198HFI     F2 2858   3.039   0.529   2.798  0.0483  0.3415  0.3496
  198HFI     F3 2859   2.929   0.554   2.620 -0.2854  0.0454  0.5225
  198HFI     C3 2860   2.948   0.800   2.759  0.0643  0.4670  0.4524
  198HFI     F4 2861   3.063   0.804   2.831 -0.2887  0.1990  0.2775
  198HFI     F5 2862   2.885   0.917   2.785  0.2119 -0.1529  0.0848
  198HFI     F6 2863   2.982   0.811   2.629  0.2832 -0.1830  0.4432
  198HFI     H1 2864   2.925   0.662   2.995 -0.2594 -0.1103 -1.1413
  198HFI     H2 2865   2.770   0.713   2.752  0.8535 -0.3494  0.5065
  199HFI     O1 2866   0.383   3.064   3.702 -0.3500  0.3669  1.1059
  199HFI     C1 2867   0.336   2.945   3.630 -0.4988  0.2238  0.3538
  199HFI     C2 2868   0.187   2.914   3.665 -0.2297  0.1364 -0.2052
  199HFI     F1 2869   0.166   2.911   3.804 -0.4536  0.0475  0.0135
  199HFI     F2 2870   0.145   2.797   3.621  0.4402  0.3675  0.0267
  199HFI     F3 2871   0.109   3.015   3.627 -0.2106 -0.8114 -0.3167
  199HFI     C3 2872   0.429   2.825   3.664 -0.5224  0.8274 -1.0621
  199HFI     F4 2873   0.390   2.720   3.596 -0.2985 -0.1700 -0.0680
  199HFI     F5 2874   0.420   2.795   3.795  0.1161  0.8277  0.1569
  199HFI     F6 2875   0.563   2.850   3.634  0.2951 -0.1381  0.0880
  199HFI     H1 2876   0.403   3.052   3.796  0.0737 -0.9370  0.8621
  199HFI     H2 2877   0.341   2.964   3.522  1.9299  0.3964  0.4581
  200HFI     O1 2878   3.131   3.389   0.007 -0.1639 -0.8229 -0.1892
  200HFI     C1 2879   3.012   3.308   0.051 -1.0512  0.1695  1.1437
  200HFI     C2 2880   2.938   3.240  -0.064 -0.2577  0.1491  0.0774
  200HFI     F1 2881   2.874   3.328  -0.149  0.0438  0.5728  0.4435
  200HFI     F2 2882   2.839   3.161  -0.017 -0.1867 -1.2538 -0.1548
  200HFI     F3 2883   3.026   3.165  -0.132  0.1144  0.0019 -0.7319
  200HFI     C3 2884   2.914   3.397   0.145 -0.7059 -0.0395  0.4751
  200HFI     F4 2885   2.844   3.486   0.076 -0.3900  0.0636 -0.4430
  200HFI     F5 2886   2.990   3.465   0.235 -0.2871 -0.2513  0.3787
  200HFI     F6 2887   2.833   3.312   0.224 -0.5128  0.0836 -0.5649
  200HFI     H1 2888   3.128   3.406  -0.088  0.5843  1.4732  0.1479
  200HFI     H2 2889   3.050   3.232   0.120  0.7176  1.8957  2.1122
  201HFI     O1 2890   0.366   2.473   2.947  0.7958 -0.1260  1.0481
  201HFI     C1 2891   0.470   2.574   2.951 -0.2725 -0.0114 -0.4089
  201HFI     C2 2892   0.511   2.612   3.095 -0.7250 -0.7915 -0.1464
  201HFI     F1 2893   0.519   2.509   3.179 -0.4625 -0.1758 -0.1025
  201HFI     F2 2894   0.431   2.691   3.161 -0.6701 -0.1996 -0.3339
  201HFI     F3 2895   0.638   2.676   3.094  0.5205  0.1171  0.3645
  201HFI     C3 2896   0.440   2.699   2.857 -0.6800  0.6712  0.3785
  201HFI     F4 2897   0.332   2.765   2.904 -0.2950 -0.2677  0.3581
  201HFI     F5 2898   0.411   2.647   2.738 -0.0731 -0.5816 -0.0318
  201HFI     F6 2899   0.555   2.778   2.844 -0.1978  0.5504 -0.2124
  201HFI     H1 2900   0.353   2.441   2.856 -1.3337 -0.9717  1.6131
  201HFI     H2 2901   0.553   2.526   2.898 -0.4351  0.9968 -1.6004
  202HFI     O1 2902   3.396   2.461   2.898 -0.2210  0.4555  0.9825
  202HFI     C1 2903   3.305   2.555   2.830 -0.4793 -0.5078  0.6143
  202HFI     C2 2904   3.179   2.488   2.767 -0.1267  0.6807  0.0507
  202HFI     F1 2905   3.202   2.418   2.662 -0.0741 -0.8507  0.1226
  202HFI     F2 2906   3.086   2.578   2.732 -0.2895 -0.0674 -0.1394
  202HFI     F3 2907   3.121   2.403   2.855  0.2260  0.2646  0.5369
  202HFI     C3 2908   3.383   2.657   2.740  0.3335 -0.7372 -0.1849
  202HFI     F4 2909   3.477   2.727   2.800  0.4967  0.4233  0.5879
  202HFI     F5 2910   3.298   2.746   2.683 -0.8451  0.0442 -0.1857
  202HFI     F6 2911   3.432   2.586   2.637 -0.0108 -0.1268 -0.1680
  202HFI     H1 2912   3.361   2.370   2.895  1.5978 -0.3475  2.8122
  202HFI     H2 2913   3.268   2.624   2.907 -1.2082 -1.0389  0.7415
  203HFI     O1 2914   0.294   3.294   3.484 -0.1695 -0.1729  0.4706
  203HFI     C1 2915   0.373   3.321   3.367  0.2856 -0.2620 -0.2711
  203HFI     C2 2916   0.289   3.373   3.247 -0.2842 -0.1673  0.1549
  203HFI     F1 2917   0.226   3.482   3.278  0.5004  0.1244  0.1135
  203HFI     F2 2918   0.204   3.279   3.204  0.0566  0.0528  0.5085
  203HFI     F3 2919   0.359   3.419   3.136  0.2406 -0.2722 -0.1983
  203HFI     C3 2920   0.473   3.212   3.338  0.5873  0.2652 -0.0663
  203HFI     F4 2921   0.527   3.157   3.452 -0.4194  0.2066 -0.3526
  203HFI     F5 2922   0.569   3.258   3.264 -0.1935  0.3983  0.2863
  203HFI     F6 2923   0.412   3.107   3.276 -0.2577 -0.1813 -0.0179
  203HFI     H1 2924   0.349   3.246   3.548  0.8144 -1.2555 -1.1518
  203HFI     H2 2925   0.431   3.409   3.396 -0.9442  1.2326 -2.1546
  204HFI     O1 2926   1.067   2.638   3.440  0.0051 -0.0455  0.2402
  204HFI     C1 2927   1.026   2.782   3.405  0.0837  0.3105  0.2734
  204HFI     C2 2928   0.866   2.805   3.417 -0.4613  0.8527  0.5111
  204HFI     F1 2929   0.807   2.715   3.337  0.5840  0.0158 -0.3430
  204HFI     F2 2930   0.820   2.933   3.379 -1.0564  0.5429  0.1894
  204HFI     F3 2931   0.831   2.779   3.545  0.1225 -0.0016 -0.4069
  204HFI     C3 2932   1.084   2.806   3.259  0.1648 -0.0817 -0.5279
  204HFI     F4 2933   1.039   2.730   3.161  0.1482 -0.0532 -0.0912
  204HFI     F5 2934   1.218   2.786   3.261  0.7174 -0.2150  0.1980
  204HFI     F6 2935   1.071   2.936   3.229 -0.1805 -0.1987 -0.3059
  204HFI     H1 2936   0.987   2.597   3.477 -1.8999  1.7218 -1.7399
  204HFI     H2 2937   1.082   2.855   3.465  1.5699 -1.9357  1.6921
  205HFI     O1 2938   0.940   0.128   2.785 -0.4689 -0.7453  0.0827
  205HFI     C1 2939   1.087   0.159   2.788 -0.2707  0.0080 -0.5426
  205HFI     C2 2940   1.172   0.065   2.713  0.0835  0.1027  0.4505
  205HFI     F1 2941   1.120   0.031   2.599  0.0536  0.8791  0.3881
  205HFI     F2 2942   1.197  -0.055   2.775 -0.0455 -0.1770 -0.0194
  205HFI     F3 2943   1.285   0.120   2.680 -0.1372 -0.2979  0.3057
  205HFI     C3 2944   1.138   0.171   2.933  0.0146  0.1015  0.3535
  205HFI     F4 2945   1.108   0.060   3.000  0.1949 -0.0154 -0.2874
  205HFI     F5 2946   1.072   0.266   2.996 -0.1878  0.1468 -0.5059
  205HFI     F6 2947   1.268   0.197   2.946  0.3389  0.2317 -0.0372
  205HFI     H1 2948   0.939   0.066   2.860 -2.7048  0.8013  1.4098
  205HFI     H2 2949   1.094   0.256   2.735 -1.4051  0.7458  0.6238
  206HFI     O1 2950   2.301   2.904   3.497  0.1663 -0.1442 -0.5109
  206HFI     C1 2951   2.401   2.966   3.575  1.2745 -0.3531  0.2564
  206HFI     C2 2952   2.356   3.102   3.631 -0.0654 -0.2201  0.3668
  206HFI     F1 2953   2.331   3.184   3.530  0.3243  0.2027  0.3949
  206HFI     F2 2954   2.448   3.168   3.711 -0.2683 -0.0520 -0.0144
  206HFI     F3 2955   2.247   3.091   3.700 -0.0954 -0.3950 -0.5858
  206HFI     C3 2956   2.531   2.982   3.495 -0.4586 -0.1229  0.2436
  206HFI     F4 2957   2.514   3.073   3.393  0.2731  0.0670  0.0785
  206HFI     F5 2958   2.559   2.865   3.426  0.1251  0.0163 -0.2891
  206HFI     F6 2959   2.640   3.022   3.566 -0.1282 -0.2243 -0.3148
  206HFI     H1 2960   2.236   2.972   3.473 -0.9970 -0.0068  2.8351
  206HFI     H2 2961   2.424   2.908   3.665 -2.8082 -0.2386  1.4966
  207HFI     O1 2962   0.668   2.979   3.040  0.1182  0.0678  0.5612
  207HFI     C1 2963   0.708   3.102   2.971  0.4253 -0.4442 -0.0426
  207HFI     C2 2964   0.677   3.090   2.817  0.4381  0.2793 -0.1540
  207HFI     F1 2965   0.767   2.996   2.766 -0.3596 -0.1923  0.4748
  207HFI     F2 2966   0.701   3.202   2.755  0.3328  0.0923 -0.5197
  207HFI     F3 2967   0.563   3.045   2.779  0.0738  0.3130 -0.5005
  207HFI     C3 2968   0.863   3.134   2.999  0.0074  0.0780 -0.0272
  207HFI     F4 2969   0.944   3.038   2.965  0.1593 -0.0963  0.0156
  207HFI     F5 2970   0.881   3.160   3.130 -0.3402 -0.2088 -1.0046
  207HFI     F6 2971   0.905   3.244   2.927  1.0967 -0.2460  0.5140
  207HFI     H1 2972   0.709   2.905   2.993  1.2225  0.2711  1.1765
  207HFI     H2 2973   0.653   3.179   3.027 -0.8489 -1.3691  0.0123
  208HFI     O1 2974   2.594   1.351   3.144 -0.3173 -0.3218  0.6110
  208HFI     C1 2975   2.662   1.235   3.202  0.0460 -0.4433 -0.1228
  208HFI     C2 2976   2.718   1.148   3.081 -0.3235 -0.5279  0.2069
  208HFI     F1 2977   2.777   1.041   3.123  0.2081 -0.7580 -0.1580
  208HFI     F2 2978   2.805   1.218   3.006 -0.5181  0.5598 -0.0380
  208HFI     F3 2979   2.622   1.110   2.997 -0.1270 -0.9704 -0.0760
  208HFI     C3 2980   2.569   1.148   3.294  0.3944  1.1855  0.7335
  208HFI     F4 2981   2.637   1.049   3.359 -0.5867  0.1334 -0.0183
  208HFI     F5 2982   2.472   1.088   3.233  0.1510 -0.3325  0.1892
  208HFI     F6 2983   2.523   1.224   3.394 -0.0376 -0.3032 -0.0413
  208HFI     H1 2984   2.532   1.389   3.209 -0.9710  0.5865 -0.5367
  208HFI     H2 2985   2.751   1.269   3.256 -0.1769  1.1109 -0.7120
  209HFI     O1 2986   1.336   2.749   2.486  0.3357 -0.4560  0.1253
  209HFI     C1 2987   1.419   2.684   2.386  0.0852  0.3991 -0.1407
  209HFI     C2 2988   1.443   2.770   2.264  0.6758 -0.6929  0.7057
  209HFI     F1 2989   1.321   2.800   2.192 -0.0021 -0.1586 -0.5849
  209HFI     F2 2990   1.523   2.709   2.177  0.1031 -0.0903 -0.4884
  209HFI     F3 2991   1.504   2.890   2.293  0.2419  0.4985  0.1540
  209HFI     C3 2992   1.352   2.540   2.359 -0.3801 -0.2647  0.2409
  209HFI     F4 2993   1.335   2.486   2.476  0.1652 -0.3402 -0.1687
  209HFI     F5 2994   1.430   2.450   2.284  0.3565 -0.1246 -0.5815
  209HFI     F6 2995   1.232   2.560   2.302 -0.1155  0.2974  0.0442
  209HFI     H1 2996   1.292   2.829   2.451  0.7595 -0.0613  0.5118
  209HFI     H2 2997   1.523   2.690   2.419  0.3681 -0.7812 -0.7787
  210HFI     O1 2998   0.231   2.860   2.253 -0.0281 -0.3583 -0.2651
  210HFI     C1 2999   0.332   2.898   2.349  0.3047  0.6505 -0.2260
  210HFI     C2 3000   0.304   2.845   2.500  0.4940  0.1923  0.2154
  210HFI     F1 3001   0.193   2.908   2.546  0.0028 -0.4697  0.5696
  210HFI     F2 3002   0.397   2.869   2.588  0.2164 -0.0173 -0.2811
  210HFI     F3 3003   0.283   2.711   2.505 -0.1392  0.1077 -0.8111
  210HFI     C3 3004   0.373   3.044   2.333 -1.0992  0.0582  0.4251
  210HFI     F4 3005   0.466   3.075   2.427 -0.0155  0.5491 -0.0747
  210HFI     F5 3006   0.273   3.129   2.348 -0.0785  0.5055 -0.1065
  210HFI     F6 3007   0.428   3.074   2.215  0.2905 -0.3504 -0.1187
  210HFI     H1 3008   0.152   2.915   2.263 -0.0419 -0.1771 -1.3645
  210HFI     H2 3009   0.422   2.841   2.325  0.5499  0.2421  1.5762
  211HFI     O1 3010   1.080   1.074   2.833  0.3232 -0.2141  0.1788
  211HFI     C1 3011   1.121   1.211   2.801  0.1295 -0.1347 -0.1473
  211HFI     C2 3012   1.274   1.222   2.763  0.2590  0.5819  0.1902
  211HFI     F1 3013   1.285   1.329   2.684  0.1486 -0.2947 -0.0097
  211HFI     F2 3014   1.322   1.112   2.701 -0.4329  0.0090 -0.2353
  211HFI     F3 3015   1.351   1.245   2.871 -0.0209 -0.0196  0.5841
  211HFI     C3 3016   1.069   1.316   2.904 -0.0471 -0.2538 -0.3935
  211HFI     F4 3017   1.101   1.441   2.859 -0.2054 -0.4777  0.0029
  211HFI     F5 3018   1.118   1.300   3.032 -0.1763 -0.0020  0.0237
  211HFI     F6 3019   0.936   1.307   2.902 -0.1264  0.2974  0.3859
  211HFI     H1 3020   1.034   1.067   2.919  1.4222 -1.5638  0.6703
  211HFI     H2 3021   1.065   1.236   2.710 -1.1654  0.5559  0.8245
  212HFI     O1 3022   1.140   2.615   0.626 -0.4215 -0.3131 -0.0345
  212HFI     C1 3023   1.027   2.699   0.598 -0.0801  0.7511  0.0455
  212HFI     C2 3024   1.027   2.834   0.679 -0.1796  0.0061 -0.3920
  212HFI     F1 3025   1.144   2.908   0.650  0.9378  0.3155 -0.0853
  212HFI     F2 3026   1.029   2.807   0.813  0.4860 -0.1876  0.0298
  212HFI     F3 3027   0.920   2.915   0.657 -0.3746  0.4591  0.4681
  212HFI     C3 3028   0.892   2.619   0.616 -0.0337 -0.7825  0.2402
  212HFI     F4 3029   0.923   2.488   0.644  0.6669 -0.6860 -0.2231
  212HFI     F5 3030   0.805   2.625   0.512 -0.6976  0.9143  0.0672
  212HFI     F6 3031   0.819   2.665   0.716 -0.2470  0.0805  0.5577
  212HFI     H1 3032   1.125   2.560   0.705 -1.6252 -0.6700 -0.4999
  212HFI     H2 3033   1.022   2.726   0.492 -0.1081 -0.9783 -0.3989
  213HFI     O1 3034   1.525   1.020   2.875  0.4466 -0.0226  0.2477
  213HFI     C1 3035   1.516   0.878   2.912  0.8066  0.2918 -0.2794
  213HFI     C2 3036   1.371   0.836   2.938  0.5508 -0.7769  0.0814
  213HFI     F1 3037   1.314   0.941   3.000  0.5796  0.0966  0.3073
  213HFI     F2 3038   1.347   0.723   3.009 -0.1529  0.1256 -0.0837
  213HFI     F3 3039   1.299   0.823   2.824  0.0285  0.0664 -0.3222
  213HFI     C3 3040   1.608   0.842   3.032  0.3255  0.4387  0.0500
  213HFI     F4 3041   1.743   0.873   3.009 -0.0661 -0.0908 -0.1575
  213HFI     F5 3042   1.606   0.710   3.054  0.0083 -0.5837  0.1695
  213HFI     F6 3043   1.568   0.906   3.137  0.0448 -0.1613  0.0422
  213HFI     H1 3044   1.461   1.028   2.802  0.3160 -2.9601 -0.0226
  213HFI     H2 3045   1.563   0.826   2.827  1.9609  0.0663  0.4876
  214HFI     O1 3046   0.929   2.476   3.632 -0.3674 -0.4172  0.1159
  214HFI     C1 3047   0.901   2.539   3.762 -0.0106 -0.2451  0.1830
  214HFI     C2 3048   0.998   2.489   3.872 -1.0466 -0.5513  0.4207
  214HFI     F1 3049   0.976   2.357   3.901  0.3788  0.3129  0.2673
  214HFI     F2 3050   0.979   2.559   3.989  0.2585  0.3393  0.6271
  214HFI     F3 3051   1.128   2.508   3.837 -0.7245 -0.5136  0.1645
  214HFI     C3 3052   0.748   2.529   3.798 -0.3810  0.9237 -0.4610
  214HFI     F4 3053   0.714   2.404   3.841  0.1330 -0.1230  0.2269
  214HFI     F5 3054   0.662   2.554   3.690  0.2734  0.0335 -0.9318
  214HFI     F6 3055   0.713   2.606   3.904  0.1083  0.4641 -0.0123
  214HFI     H1 3056   0.917   2.380   3.638  1.9924 -0.7354  0.1700
  214HFI     H2 3057   0.914   2.648   3.753  0.5680 -0.1555  1.9011
  215HFI     O1 3058   1.406   1.818   3.045 -0.0469 -0.2119 -0.3207
  215HFI     C1 3059   1.335   1.808   2.923  0.4650 -1.1712 -0.4402
  215HFI     C2 3060   1.403   1.721   2.821  0.7246 -0.0547  0.2402
  215HFI     F1 3061   1.483   1.629   2.877 -0.2388  0.0779 -0.0207
  215HFI     F2 3062   1.473   1.793   2.736  0.4201 -0.5654 -0.2731
  215HFI     F3 3063   1.309   1.659   2.750 -0.6629 -0.3030 -0.0506
  215HFI     C3 3064   1.304   1.955   2.863 -0.2155 -0.2298 -0.1048
  215HFI     F4 3065   1.242   1.961   2.742 -0.1957 -0.1463  0.1745
  215HFI     F5 3066   1.421   2.030   2.851 -0.1403 -0.5248  0.1831
  215HFI     F6 3067   1.224   2.014   2.952  0.4701  0.3197  0.6867
  215HFI     H1 3068   1.488   1.865   3.022 -0.2833  1.0491  1.3407
  215HFI     H2 3069   1.241   1.760   2.952 -0.2751  1.3022  1.3364
  216HFI     O1 3070   2.349   2.133   3.249  0.0943  0.2017  0.1635
  216HFI     C1 3071   2.315   2.169   3.383  0.4960 -0.2312 -0.2076
  216HFI     C2 3072   2.291   2.327   3.400 -0.0386  0.4693 -0.1727
  216HFI     F1 3073   2.205   2.378   3.305  0.0843  0.4135  0.1408
  216HFI     F2 3074   2.405   2.396   3.383  0.3552 -0.1924  0.4329
  216HFI     F3 3075   2.246   2.362   3.522 -0.0191 -0.7153 -0.1872
  216HFI     C3 3076   2.410   2.098   3.484  0.1521 -0.3708 -0.3419
  216HFI     F4 3077   2.531   2.082   3.426  0.2159  0.2808  0.2130
  216HFI     F5 3078   2.356   1.973   3.506  0.4907  0.4010 -0.1232
  216HFI     F6 3079   2.419   2.154   3.605  0.5715  0.1068  0.6107
  216HFI     H1 3080   2.445   2.121   3.250  0.0113 -0.8194  3.3524
  216HFI     H2 3081   2.215   2.127   3.402  0.7676 -0.9807 -0.4151
  217HFI     O1 3082   0.018   3.051   2.926  0.1633  0.2298  0.1424
  217HFI     C1 3083   0.096   3.091   2.817 -0.3426 -0.2505  0.0995
  217HFI     C2 3084   0.216   3.191   2.864  0.8495  0.3649  0.0236
  217HFI     F1 3085   0.290   3.122   2.945 -0.3147  0.1788 -0.5741
  217HFI     F2 3086   0.170   3.307   2.914 -0.1408 -0.1053 -0.9399
  217HFI     F3 3087   0.301   3.224   2.768 -0.2291 -0.2273 -0.3416
  217HFI     C3 3088   0.008   3.152   2.708  0.1742 -0.8022 -0.2209
  217HFI     F4 3089  -0.064   3.050   2.653 -0.0293  0.4914 -0.0434
  217HFI     F5 3090   0.080   3.213   2.610 -0.2088  0.6269 -0.3258
  217HFI     F6 3091  -0.081   3.243   2.756  0.0754  0.0119  0.1998
  217HFI     H1 3092  -0.014   3.131   2.970  1.7434  0.8968  0.1116
  217HFI     H2 3093   0.153   3.009   2.772 -2.5861 -0.7891 -1.8597
  218HFI     O1 3094   0.656   2.935   0.144 -0.2160 -0.9932  0.3380
  218HFI     C1 3095   0.760   3.022   0.171 -0.0655 -0.1739 -0.1718
  218HFI     C2 3096   0.780   3.128   0.056  0.7421  0.3701 -0.5154
  218HFI     F1 3097   0.658   3.195   0.035  0.0123 -0.2513 -0.2552
  218HFI     F2 3098   0.819   3.081  -0.070 -0.3553  0.4742  0.3460
  218HFI     F3 3099   0.870   3.220   0.099 -0.3547  0.1146 -0.1390
  218HFI     C3 3100   0.890   2.945   0.205 -0.2451  0.0572  0.1261
  218HFI     F4 3101   0.991   3.033   0.209  0.3551 -0.4062 -0.1466
  218HFI     F5 3102   0.930   2.848   0.115 -0.1971  0.0888  0.3141
  218HFI     F6 3103   0.883   2.885   0.322 -0.3940  0.2164  0.1252
  218HFI     H1 3104   0.679   2.847   0.179  1.7629 -1.2940 -1.6000
  218HFI     H2 3105   0.745   3.075   0.266 -1.0725  1.5956 -1.2886
  219HFI     O1 3106   0.315   0.918   2.780  0.1181  0.2697  0.3797
  219HFI     C1 3107   0.210   1.021   2.751  0.2563 -0.3213 -0.2554
  219HFI     C2 3108   0.260   1.161   2.796 -0.2084 -0.2304 -0.6206
  219HFI     F1 3109   0.261   1.169   2.927  0.3406 -0.0396  0.0685
  219HFI     F2 3110   0.190   1.265   2.746 -0.2926 -0.0109 -0.0677
  219HFI     F3 3111   0.389   1.166   2.752  0.2623 -0.0630  0.3177
  219HFI     C3 3112   0.066   0.989   2.802  0.2578 -0.0709 -0.1070
  219HFI     F4 3113   0.018   0.885   2.733  0.1522  0.7445 -0.5113
  219HFI     F5 3114  -0.022   1.089   2.805 -0.6634 -0.1673 -0.2659
  219HFI     F6 3115   0.075   0.944   2.928 -0.0641  0.3875 -0.1223
  219HFI     H1 3116   0.324   0.905   2.876  2.8564 -0.7475  0.0151
  219HFI     H2 3117   0.201   1.035   2.642 -2.3584 -1.7072 -0.2480
  220HFI     O1 3118   0.842   3.356   2.596  0.1855 -0.2205  0.0505
  220HFI     C1 3119   0.796   3.326   2.456  0.3735  0.2399 -0.1380
  220HFI     C2 3120   0.902   3.355   2.344 -0.1399 -0.4849 -0.1471
  220HFI     F1 3121   1.022   3.294   2.372 -0.6647  0.4008  0.1783
  220HFI     F2 3122   0.920   3.490   2.318 -0.0562 -0.1001 -0.3383
  220HFI     F3 3123   0.864   3.300   2.234 -0.9050 -0.3776 -0.5450
  220HFI     C3 3124   0.654   3.382   2.423 -0.7638 -0.5116  0.4933
  220HFI     F4 3125   0.662   3.518   2.413 -0.1087  0.0847  0.4269
  220HFI     F5 3126   0.570   3.347   2.517  0.2030  0.3897 -0.6952
  220HFI     F6 3127   0.599   3.333   2.309 -0.0563  0.4460 -0.1505
  220HFI     H1 3128   0.915   3.295   2.616 -1.0421 -1.6636  0.2738
  220HFI     H2 3129   0.764   3.221   2.449 -2.0649  1.0148 -1.1690
  221HFI     O1 3130   1.784   0.500   3.333  0.2237  0.8273  0.0302
  221HFI     C1 3131   1.845   0.365   3.311  0.1095  0.0662 -0.0927
  221HFI     C2 3132   1.998   0.367   3.325  0.4259  0.0656  0.1877
  221HFI     F1 3133   2.036   0.250   3.390  0.1711 -0.4277 -0.0130
  221HFI     F2 3134   2.027   0.462   3.423 -0.0693  0.2364 -0.1306
  221HFI     F3 3135   2.073   0.401   3.212  0.0825 -0.2509  0.1606
  221HFI     C3 3136   1.803   0.296   3.177  0.0331 -0.3310  0.3241
  221HFI     F4 3137   1.838   0.366   3.072  0.0407 -0.8812 -0.0519
  221HFI     F5 3138   1.671   0.273   3.178  0.2645  0.5415 -1.0420
  221HFI     F6 3139   1.856   0.176   3.164 -0.4621  0.1475 -0.2348
  221HFI     H1 3140   1.804   0.536   3.420 -0.8138 -0.0615  0.6510
  221HFI     H2 3141   1.815   0.294   3.388  0.2301  0.6203  0.4686
  222HFI     O1 3142   1.762   0.549   2.782  0.4187 -0.1785 -0.6172
  222HFI     C1 3143   1.669   0.453   2.716 -0.8844 -0.2533  0.1253
  222HFI     C2 3144   1.539   0.435   2.798 -0.1984 -0.5195 -0.4315
  222HFI     F1 3145   1.488   0.557   2.815  0.6997  0.1027 -0.2535
  222HFI     F2 3146   1.553   0.390   2.928 -0.0723 -0.6595  0.3877
  222HFI     F3 3147   1.444   0.365   2.746 -0.1596  0.3884 -0.1664
  222HFI     C3 3148   1.733   0.314   2.681 -0.2896  0.1976 -0.2895
  222HFI     F4 3149   1.816   0.278   2.777  0.6440  0.1830  0.0148
  222HFI     F5 3150   1.804   0.330   2.563  0.2175 -0.2689 -0.1689
  222HFI     F6 3151   1.648   0.207   2.665 -0.6314 -0.0213  0.6461
  222HFI     H1 3152   1.788   0.512   2.868 -1.1693  0.4844  0.1744
  222HFI     H2 3153   1.642   0.504   2.623 -2.9815  0.4657  1.1042
  223HFI     O1 3154   0.049   1.001   1.054  0.7753  0.3959  0.6904
  223HFI     C1 3155   0.083   1.089   0.940  0.0966  0.0674  0.2678
  223HFI     C2 3156   0.168   1.015   0.833  0.0669 -0.0153  0.3391
  223HFI     F1 3157   0.097   0.913   0.771 -0.1961 -0.2019  0.2290
  223HFI     F2 3158   0.276   0.958   0.893 -0.3346 -0.3263  0.3868
  223HFI     F3 3159   0.215   1.106   0.738  0.0606 -0.2779 -0.1289
  223HFI     C3 3160   0.143   1.213   1.004 -0.9434  0.4478 -0.4138
  223HFI     F4 3161   0.044   1.270   1.076  0.2378  0.0050 -0.2288
  223HFI     F5 3162   0.185   1.307   0.915  0.0956 -0.0804 -0.4475
  223HFI     F6 3163   0.233   1.183   1.089 -0.2693 -0.5138 -0.3334
  223HFI     H1 3164   0.042   1.052   1.137  0.4630  2.3877 -0.5056
  223HFI     H2 3165  -0.007   1.115   0.884  0.4685 -1.0355 -0.8687
  224HFI     O1 3166   1.327   0.811   3.430  0.4970  0.1820  0.2576
  224HFI     C1 3167   1.322   0.965   3.420  0.0803 -0.2873  0.4725
  224HFI     C2 3168   1.347   1.045   3.550  0.5855  0.2991  1.0602
  224HFI     F1 3169   1.279   0.990   3.655  0.0106 -0.2186  0.2489
  224HFI     F2 3170   1.312   1.177   3.547  0.3875 -0.1214  0.5252
  224HFI     F3 3171   1.479   1.046   3.580 -0.2309  0.0150 -0.1334
  224HFI     C3 3172   1.193   1.029   3.350 -0.1697  1.2410  0.3055
  224HFI     F4 3173   1.154   0.937   3.252  0.2568  0.2773 -0.3809
  224HFI     F5 3174   1.213   1.155   3.291 -0.0526 -0.0888  0.0777
  224HFI     F6 3175   1.086   1.046   3.432  0.2269  0.1460  0.6448
  224HFI     H1 3176   1.357   0.766   3.349  0.4994  0.3607  0.1597
  224HFI     H2 3177   1.408   0.999   3.362 -0.5009 -1.3018 -1.0163
  225HFI     O1 3178   2.231   3.435   0.028 -0.3307  0.1820  0.1946
  225HFI     C1 3179   2.244   3.554  -0.059 -0.1014 -0.1490 -0.2952
  225HFI     C2 3180   2.371   3.642  -0.029  0.2478 -0.2558  0.1112
  225HFI     F1 3181   2.379   3.709   0.088  0.1193  0.6562  0.4123
  225HFI     F2 3182   2.403   3.731  -0.130 -0.0314 -0.0775 -1.0510
  225HFI     F3 3183   2.482   3.558  -0.030  0.9312  0.0579 -0.1314
  225HFI     C3 3184   2.109   3.639  -0.067 -0.1808  0.0595  0.2967
  225HFI     F4 3185   2.120   3.763  -0.125 -0.0624 -0.0874 -0.6395
  225HFI     F5 3186   2.055   3.648   0.054 -0.1065 -0.1558 -0.2983
  225HFI     F6 3187   2.021   3.578  -0.143 -0.0595  0.4102 -0.2740
  225HFI     H1 3188   2.210   3.481   0.111 -1.0422  0.5618 -0.2038
  225HFI     H2 3189   2.249   3.516  -0.162  0.8668  0.4942 -0.4875
  226HFI     O1 3190   0.618   1.333   2.275  0.0939  0.1178  0.0255
  226HFI     C1 3191   0.546   1.297   2.397 -0.5042 -1.0142  0.1821
  226HFI     C2 3192   0.388   1.300   2.391 -0.1205  0.1929 -0.5164
  226HFI     F1 3193   0.334   1.424   2.408  0.3044 -0.0005 -0.0966
  226HFI     F2 3194   0.340   1.204   2.478  0.7572  0.0354  0.4155
  226HFI     F3 3195   0.356   1.271   2.263  0.5541 -0.1202 -0.1604
  226HFI     C3 3196   0.601   1.388   2.511 -0.1670 -0.1026 -0.5896
  226HFI     F4 3197   0.541   1.368   2.633 -0.0379 -0.6447 -0.2608
  226HFI     F5 3198   0.577   1.518   2.489  0.2683  0.3455  0.0244
  226HFI     F6 3199   0.731   1.375   2.525  0.7222  0.1931  0.2991
  226HFI     H1 3200   0.607   1.429   2.258  1.7948  0.4209  0.5237
  226HFI     H2 3201   0.569   1.192   2.420 -1.6274 -1.5656 -1.1787
  227HFI     O1 3202   1.258   0.049   2.287  0.0482 -0.4133 -0.0218
  227HFI     C1 3203   1.372  -0.043   2.268  0.2780 -1.2429  0.1314
  227HFI     C2 3204   1.350  -0.188   2.311 -0.0426 -0.1673  0.6053
  227HFI     F1 3205   1.460  -0.262   2.305  0.0553 -0.3506  0.5388
  227HFI     F2 3206   1.260  -0.242   2.230  0.2897  0.5587 -0.1546
  227HFI     F3 3207   1.302  -0.205   2.438 -0.1414  0.7163 -0.0528
  227HFI     C3 3208   1.507   0.028   2.323  0.6048 -0.6377  0.1957
  227HFI     F4 3209   1.619  -0.047   2.294  0.3752  0.3361  0.1266
  227HFI     F5 3210   1.511   0.052   2.456 -0.2322  0.0547  0.0607
  227HFI     F6 3211   1.516   0.150   2.268 -0.7059 -0.9745  0.2082
  227HFI     H1 3212   1.214   0.022   2.369 -1.5204 -0.2255 -0.7934
  227HFI     H2 3213   1.386  -0.044   2.160  1.4073 -1.7152  0.2780
  228HFI     O1 3214   2.200   0.893   3.086 -0.2110 -0.3760  0.0871
  228HFI     C1 3215   2.251   0.784   3.003  0.3310  0.0331 -0.0916
  228HFI     C2 3216   2.410   0.805   2.980  0.6726  0.2363  0.0387
  228HFI     F1 3217   2.475   0.697   2.934  0.1507  0.3976 -0.2634
  228HFI     F2 3218   2.476   0.833   3.096 -0.4983 -0.2269  0.5040
  228HFI     F3 3219   2.443   0.906   2.897  0.0961  0.3935 -0.3724
  228HFI     C3 3220   2.167   0.771   2.870 -0.4559  0.5393 -0.1341
  228HFI     F4 3221   2.036   0.733   2.894  0.1063 -0.2303 -0.3294
  228HFI     F5 3222   2.222   0.686   2.779 -0.1971  0.3809 -0.2467
  228HFI     F6 3223   2.155   0.892   2.806 -0.1560  0.1746  0.0171
  228HFI     H1 3224   2.193   0.970   3.027  4.2267 -0.3196 -0.5222
  228HFI     H2 3225   2.262   0.688   3.054 -2.7774 -1.9964 -3.0201
   3.40320   3.43847   3.80000
