HFIP comparator n4
 3225
    1GR      C1    1   0.000   0.000   1.900  0.0000  0.0000  0.0000
    1GR      C2    2   0.142   0.000   1.900  0.0000  0.0000  0.0000
    1GR      C3    3   0.213   0.123   1.900  0.0000  0.0000  0.0000
    1GR      C4    4   0.354   0.123   1.900  0.0000  0.0000  0.0000
    1GR      C5    5   0.000   0.246   1.900  0.0000  0.0000  0.0000
    1GR      C6    6   0.142   0.246   1.900  0.0000  0.0000  0.0000
    1GR      C7    7   0.213   0.368   1.900  0.0000  0.0000  0.0000
    1GR      C8    8   0.354   0.368   1.900  0.0000  0.0000  0.0000
    1GR      C9    9   0.000   0.491   1.900  0.0000  0.0000  0.0000
    1GR     C10   10   0.142   0.491   1.900  0.0000  0.0000  0.0000
    1GR     C11   11   0.213   0.614   1.900  0.0000  0.0000  0.0000
    1GR     C12   12   0.354   0.614   1.900  0.0000  0.0000  0.0000
    1GR     C13   13   0.000   0.737   1.900  0.0000  0.0000  0.0000
    1GR     C14   14   0.142   0.737   1.900  0.0000  0.0000  0.0000
    1GR     C15   15   0.213   0.860   1.900  0.0000  0.0000  0.0000
    1GR     C16   16   0.354   0.860   1.900  0.0000  0.0000  0.0000
    1GR     C17   17   0.000   0.982   1.900  0.0000  0.0000  0.0000
    1GR     C18   18   0.142   0.982   1.900  0.0000  0.0000  0.0000
    1GR     C19   19   0.213   1.105   1.900  0.0000  0.0000  0.0000
    1GR     C20   20   0.354   1.105   1.900  0.0000  0.0000  0.0000
    1GR     C21   21   0.000   1.228   1.900  0.0000  0.0000  0.0000
    1GR     C22   22   0.142   1.228   1.900  0.0000  0.0000  0.0000
    1GR     C23   23   0.213   1.351   1.900  0.0000  0.0000  0.0000
    1GR     C24   24   0.354   1.351   1.900  0.0000  0.0000  0.0000
    1GR     C25   25   0.000   1.474   1.900  0.0000  0.0000  0.0000
    1GR     C26   26   0.142   1.474   1.900  0.0000  0.0000  0.0000
    1GR     C27   27   0.213   1.596   1.900  0.0000  0.0000  0.0000
    1GR     C28   28   0.354   1.596   1.900  0.0000  0.0000  0.0000
    1GR     C29   29   0.000   1.719   1.900  0.0000  0.0000  0.0000
    1GR     C30   30   0.142   1.719   1.900  0.0000  0.0000  0.0000
    1GR     C31   31   0.213   1.842   1.900  0.0000  0.0000  0.0000
    1GR     C32   32   0.354   1.842   1.900  0.0000  0.0000  0.0000
    1GR     C33   33   0.000   1.965   1.900  0.0000  0.0000  0.0000
    1GR     C34   34   0.142   1.965   1.900  0.0000  0.0000  0.0000
    1GR     C35   35   0.213   2.088   1.900  0.0000  0.0000  0.0000
    1GR     C36   36   0.354   2.088   1.900  0.0000  0.0000  0.0000
    1GR     C37   37   0.000   2.210   1.900  0.0000  0.0000  0.0000
    1GR     C38   38   0.142   2.210   1.900  0.0000  0.0000  0.0000
    1GR     C39   39   0.213   2.333   1.900  0.0000  0.0000  0.0000
    1GR     C40   40   0.354   2.333   1.900  0.0000  0.0000  0.0000
    1GR     C41   41   0.000   2.456   1.900  0.0000  0.0000  0.0000
    1GR     C42   42   0.142   2.456   1.900  0.0000  0.0000  0.0000
    1GR     C43   43   0.213   2.579   1.900  0.0000  0.0000  0.0000
    1GR     C44   44   0.354   2.579   1.900  0.0000  0.0000  0.0000
    1GR     C45   45   0.000   2.702   1.900  0.0000  0.0000  0.0000
    1GR     C46   46   0.142   2.702   1.900  0.0000  0.0000  0.0000
    1GR     C47   47   0.213   2.824   1.900  0.0000  0.0000  0.0000
    1GR     C48   48   0.354   2.824   1.900  0.0000  0.0000  0.0000
    1GR     C49   49   0.000   2.947   1.900  0.0000  0.0000  0.0000
    1GR     C50   50   0.142   2.947   1.900  0.0000  0.0000  0.0000
    1GR     C51   51   0.213   3.070   1.900  0.0000  0.0000  0.0000
    1GR     C52   52   0.354   3.070   1.900  0.0000  0.0000  0.0000
    1GR     C53   53   0.000   3.193   1.900  0.0000  0.0000  0.0000
    1GR     C54   54   0.142   3.193   1.900  0.0000  0.0000  0.0000
    1GR     C55   55   0.213   3.316   1.900  0.0000  0.0000  0.0000
    1GR     C56   56   0.354   3.316   1.900  0.0000  0.0000  0.0000
    1GR     C57   57   0.425   0.000   1.900  0.0000  0.0000  0.0000
    1GR     C58   58   0.567   0.000   1.900  0.0000  0.0000  0.0000
    1GR     C59   59   0.638   0.123   1.900  0.0000  0.0000  0.0000
    1GR     C60   60   0.780   0.123   1.900  0.0000  0.0000  0.0000
    1GR     C61   61   0.425   0.246   1.900  0.0000  0.0000  0.0000
    1GR     C62   62   0.567   0.246   1.900  0.0000  0.0000  0.0000
    1GR     C63   63   0.638   0.368   1.900  0.0000  0.0000  0.0000
    1GR     C64   64   0.780   0.368   1.900  0.0000  0.0000  0.0000
    1GR     C65   65   0.425   0.491   1.900  0.0000  0.0000  0.0000
    1GR     C66   66   0.567   0.491   1.900  0.0000  0.0000  0.0000
    1GR     C67   67   0.638   0.614   1.900  0.0000  0.0000  0.0000
    1GR     C68   68   0.780   0.614   1.900  0.0000  0.0000  0.0000
    1GR     C69   69   0.425   0.737   1.900  0.0000  0.0000  0.0000
    1GR     C70   70   0.567   0.737   1.900  0.0000  0.0000  0.0000
    1GR     C71   71   0.638   0.860   1.900  0.0000  0.0000  0.0000
    1GR     C72   72   0.780   0.860   1.900  0.0000  0.0000  0.0000
    1GR     C73   73   0.425   0.982   1.900  0.0000  0.0000  0.0000
    1GR     C74   74   0.567   0.982   1.900  0.0000  0.0000  0.0000
    1GR     C75   75   0.638   1.105   1.900  0.0000  0.0000  0.0000
    1GR     C76   76   0.780   1.105   1.900  0.0000  0.0000  0.0000
    1GR     C77   77   0.425   1.228   1.900  0.0000  0.0000  0.0000
    1GR     C78   78   0.567   1.228   1.900  0.0000  0.0000  0.0000
    1GR     C79   79   0.638   1.351   1.900  0.0000  0.0000  0.0000
    1GR     C80   80   0.780   1.351   1.900  0.0000  0.0000  0.0000
    1GR     C81   81   0.425   1.474   1.900  0.0000  0.0000  0.0000
    1GR     C82   82   0.567   1.474   1.900  0.0000  0.0000  0.0000
    1GR     C83   83   0.638   1.596   1.900  0.0000  0.0000  0.0000
    1GR     C84   84   0.780   1.596   1.900  0.0000  0.0000  0.0000
    1GR     C85   85   0.425   1.719   1.900  0.0000  0.0000  0.0000
    1GR     C86   86   0.567   1.719   1.900  0.0000  0.0000  0.0000
    1GR     C87   87   0.638   1.842   1.900  0.0000  0.0000  0.0000
    1GR     C88   88   0.780   1.842   1.900  0.0000  0.0000  0.0000
    1GR     C89   89   0.425   1.965   1.900  0.0000  0.0000  0.0000
    1GR     C90   90   0.567   1.965   1.900  0.0000  0.0000  0.0000
    1GR     C91   91   0.638   2.088   1.900  0.0000  0.0000  0.0000
    1GR     C92   92   0.780   2.088   1.900  0.0000  0.0000  0.0000
    1GR     C93   93   0.425   2.210   1.900  0.0000  0.0000  0.0000
    1GR     C94   94   0.567   2.210   1.900  0.0000  0.0000  0.0000
    1GR     C95   95   0.638   2.333   1.900  0.0000  0.0000  0.0000
    1GR     C96   96   0.780   2.333   1.900  0.0000  0.0000  0.0000
    1GR     C97   97   0.425   2.456   1.900  0.0000  0.0000  0.0000
    1GR     C98   98   0.567   2.456   1.900  0.0000  0.0000  0.0000
    1GR     C99   99   0.638   2.579   1.900  0.0000  0.0000  0.0000
    1GR    C100  100   0.780   2.579   1.900  0.0000  0.0000  0.0000
    1GR    C101  101   0.425   2.702   1.900  0.0000  0.0000  0.0000
    1GR    C102  102   0.567   2.702   1.900  0.0000  0.0000  0.0000
    1GR    C103  103   0.638   2.824   1.900  0.0000  0.0000  0.0000
    1GR    C104  104   0.780   2.824   1.900  0.0000  0.0000  0.0000
    1GR    C105  105   0.425   2.947   1.900  0.0000  0.0000  0.0000
    1GR    C106  106   0.567   2.947   1.900  0.0000  0.0000  0.0000
    1GR    C107  107   0.638   3.070   1.900  0.0000  0.0000  0.0000
    1GR    C108  108   0.780   3.070   1.900  0.0000  0.0000  0.0000
    1GR    C109  109   0.425   3.193   1.900  0.0000  0.0000  0.0000
    1GR    C110  110   0.567   3.193   1.900  0.0000  0.0000  0.0000
    1GR    C111  111   0.638   3.316   1.900  0.0000  0.0000  0.0000
    1GR    C112  112   0.780   3.316   1.900  0.0000  0.0000  0.0000
    1GR    C113  113   0.851   0.000   1.900  0.0000  0.0000  0.0000
    1GR    C114  114   0.993   0.000   1.900  0.0000  0.0000  0.0000
    1GR    C115  115   1.064   0.123   1.900  0.0000  0.0000  0.0000
    1GR    C116  116   1.205   0.123   1.900  0.0000  0.0000  0.0000
    1GR    C117  117   0.851   0.246   1.900  0.0000  0.0000  0.0000
    1GR    C118  118   0.993   0.246   1.900  0.0000  0.0000  0.0000
    1GR    C119  119   1.064   0.368   1.900  0.0000  0.0000  0.0000
    1GR    C120  120   1.205   0.368   1.900  0.0000  0.0000  0.0000
    1GR    C121  121   0.851   0.491   1.900  0.0000  0.0000  0.0000
    1GR    C122  122   0.993   0.491   1.900  0.0000  0.0000  0.0000
    1GR    C123  123   1.064   0.614   1.900  0.0000  0.0000  0.0000
    1GR    C124  124   1.205   0.614   1.900  0.0000  0.0000  0.0000
    1GR    C125  125   0.851   0.737   1.900  0.0000  0.0000  0.0000
    1GR    C126  126   0.993   0.737   1.900  0.0000  0.0000  0.0000
    1GR    C127  127   1.064   0.860   1.900  0.0000  0.0000  0.0000
    1GR    C128  128   1.205   0.860   1.900  0.0000  0.0000  0.0000
    1GR    C129  129   0.851   0.982   1.900  0.0000  0.0000  0.0000
    1GR    C130  130   0.993   0.982   1.900  0.0000  0.0000  0.0000
    1GR    C131  131   1.064   1.105   1.900  0.0000  0.0000  0.0000
    1GR    C132  132   1.205   1.105   1.900  0.0000  0.0000  0.0000
    1GR    C133  133   0.851   1.228   1.900  0.0000  0.0000  0.0000
    1GR    C134  134   0.993   1.228   1.900  0.0000  0.0000  0.0000
    1GR    C135  135   1.064   1.351   1.900  0.0000  0.0000  0.0000
    1GR    C136  136   1.205   1.351   1.900  0.0000  0.0000  0.0000
    1GR    C137  137   0.851   1.474   1.900  0.0000  0.0000  0.0000
    1GR    C138  138   0.993   1.474   1.900  0.0000  0.0000  0.0000
    1GR    C139  139   1.064   1.596   1.900  0.0000  0.0000  0.0000
    1GR    C140  140   1.205   1.596   1.900  0.0000  0.0000  0.0000
    1GR    C141  141   0.851   1.719   1.900  0.0000  0.0000  0.0000
    1GR    C142  142   0.993   1.719   1.900  0.0000  0.0000  0.0000
    1GR    C143  143   1.064   1.842   1.900  0.0000  0.0000  0.0000
    1GR    C144  144   1.205   1.842   1.900  0.0000  0.0000  0.0000
    1GR    C145  145   0.851   1.965   1.900  0.0000  0.0000  0.0000
    1GR    C146  146   0.993   1.965   1.900  0.0000  0.0000  0.0000
    1GR    C147  147   1.064   2.088   1.900  0.0000  0.0000  0.0000
    1GR    C148  148   1.205   2.088   1.900  0.0000  0.0000  0.0000
    1GR    C149  149   0.851   2.210   1.900  0.0000  0.0000  0.0000
    1GR    C150  150   0.993   2.210   1.900  0.0000  0.0000  0.0000
    1GR    C151  151   1.064   2.333   1.900  0.0000  0.0000  0.0000
    1GR    C152  152   1.205   2.333   1.900  0.0000  0.0000  0.0000
    1GR    C153  153   0.851   2.456   1.900  0.0000  0.0000  0.0000
    1GR    C154  154   0.993   2.456   1.900  0.0000  0.0000  0.0000
    1GR    C155  155   1.064   2.579   1.900  0.0000  0.0000  0.0000
    1GR    C156  156   1.205   2.579   1.900  0.0000  0.0000  0.0000
    1GR    C157  157   0.851   2.702   1.900  0.0000  0.0000  0.0000
    1GR    C158  158   0.993   2.702   1.900  0.0000  0.0000  0.0000
    1GR    C159  159   1.064   2.824   1.900  0.0000  0.0000  0.0000
    1GR    C160  160   1.205   2.824   1.900  0.0000  0.0000  0.0000
    1GR    C161  161   0.851   2.947   1.900  0.0000  0.0000  0.0000
    1GR    C162  162   0.993   2.947   1.900  0.0000  0.0000  0.0000
    1GR    C163  163   1.064   3.070   1.900  0.0000  0.0000  0.0000
    1GR    C164  164   1.205   3.070   1.900  0.0000  0.0000  0.0000
    1GR    C165  165   0.851   3.193   1.900  0.0000  0.0000  0.0000
    1GR    C166  166   0.993   3.193   1.900  0.0000  0.0000  0.0000
    1GR    C167  167   1.064   3.316   1.900  0.0000  0.0000  0.0000
    1GR    C168  168   1.205   3.316   1.900  0.0000  0.0000  0.0000
    1GR    C169  169   1.276   0.000   1.900  0.0000  0.0000  0.0000
    1GR    C170  170   1.418   0.000   1.900  0.0000  0.0000  0.0000
    1GR    C171  171   1.489   0.123   1.900  0.0000  0.0000  0.0000
    1GR    C172  172   1.631   0.123   1.900  0.0000  0.0000  0.0000
    1GR    C173  173   1.276   0.246   1.900  0.0000  0.0000  0.0000
    1GR    C174  174   1.418   0.246   1.900  0.0000  0.0000  0.0000
    1GR    C175  175   1.489   0.368   1.900  0.0000  0.0000  0.0000
    1GR    C176  176   1.631   0.368   1.900  0.0000  0.0000  0.0000
    1GR    C177  177   1.276   0.491   1.900  0.0000  0.0000  0.0000
    1GR    C178  178   1.418   0.491   1.900  0.0000  0.0000  0.0000
    1GR    C179  179   1.489   0.614   1.900  0.0000  0.0000  0.0000
    1GR    C180  180   1.631   0.614   1.900  0.0000  0.0000  0.0000
    1GR    C181  181   1.276   0.737   1.900  0.0000  0.0000  0.0000
    1GR    C182  182   1.418   0.737   1.900  0.0000  0.0000  0.0000
    1GR    C183  183   1.489   0.860   1.900  0.0000  0.0000  0.0000
    1GR    C184  184   1.631   0.860   1.900  0.0000  0.0000  0.0000
    1GR    C185  185   1.276   0.982   1.900  0.0000  0.0000  0.0000
    1GR    C186  186   1.418   0.982   1.900  0.0000  0.0000  0.0000
    1GR    C187  187   1.489   1.105   1.900  0.0000  0.0000  0.0000
    1GR    C188  188   1.631   1.105   1.900  0.0000  0.0000  0.0000
    1GR    C189  189   1.276   1.228   1.900  0.0000  0.0000  0.0000
    1GR    C190  190   1.418   1.228   1.900  0.0000  0.0000  0.0000
    1GR    C191  191   1.489   1.351   1.900  0.0000  0.0000  0.0000
    1GR    C192  192   1.631   1.351   1.900  0.0000  0.0000  0.0000
    1GR    C193  193   1.276   1.474   1.900  0.0000  0.0000  0.0000
    1GR    C194  194   1.418   1.474   1.900  0.0000  0.0000  0.0000
    1GR    C195  195   1.489   1.596   1.900  0.0000  0.0000  0.0000
    1GR    C196  196   1.631   1.596   1.900  0.0000  0.0000  0.0000
    1GR    C197  197   1.276   1.719   1.900  0.0000  0.0000  0.0000
    1GR    C198  198   1.418   1.719   1.900  0.0000  0.0000  0.0000
    1GR    C199  199   1.489   1.842   1.900  0.0000  0.0000  0.0000
    1GR    C200  200   1.631   1.842   1.900  0.0000  0.0000  0.0000
    1GR    C201  201   1.276   1.965   1.900  0.0000  0.0000  0.0000
    1GR    C202  202   1.418   1.965   1.900  0.0000  0.0000  0.0000
    1GR    C203  203   1.489   2.088   1.900  0.0000  0.0000  0.0000
    1GR    C204  204   1.631   2.088   1.900  0.0000  0.0000  0.0000
    1GR    C205  205   1.276   2.210   1.900  0.0000  0.0000  0.0000
    1GR    C206  206   1.418   2.210   1.900  0.0000  0.0000  0.0000
    1GR    C207  207   1.489   2.333   1.900  0.0000  0.0000  0.0000
    1GR    C208  208   1.631   2.333   1.900  0.0000  0.0000  0.0000
    1GR    C209  209   1.276   2.456   1.900  0.0000  0.0000  0.0000
    1GR    C210  210   1.418   2.456   1.900  0.0000  0.0000  0.0000
    1GR    C211  211   1.489   2.579   1.900  0.0000  0.0000  0.0000
    1GR    C212  212   1.631   2.579   1.900  0.0000  0.0000  0.0000
    1GR    C213  213   1.276   2.702   1.900  0.0000  0.0000  0.0000
    1GR    C214  214   1.418   2.702   1.900  0.0000  0.0000  0.0000
    1GR    C215  215   1.489   2.824   1.900  0.0000  0.0000  0.0000
    1GR    C216  216   1.631   2.824   1.900  0.0000  0.0000  0.0000
    1GR    C217  217   1.276   2.947   1.900  0.0000  0.0000  0.0000
    1GR    C218  218   1.418   2.947   1.900  0.0000  0.0000  0.0000
    1GR    C219  219   1.489   3.070   1.900  0.0000  0.0000  0.0000
    1GR    C220  220   1.631   3.070   1.900  0.0000  0.0000  0.0000
    1GR    C221  221   1.276   3.193   1.900  0.0000  0.0000  0.0000
    1GR    C222  222   1.418   3.193   1.900  0.0000  0.0000  0.0000
    1GR    C223  223   1.489   3.316   1.900  0.0000  0.0000  0.0000
    1GR    C224  224   1.631   3.316   1.900  0.0000  0.0000  0.0000
    1GR    C225  225   1.702   0.000   1.900  0.0000  0.0000  0.0000
    1GR    C226  226   1.843   0.000   1.900  0.0000  0.0000  0.0000
    1GR    C227  227   1.914   0.123   1.900  0.0000  0.0000  0.0000
    1GR    C228  228   2.056   0.123   1.900  0.0000  0.0000  0.0000
    1GR    C229  229   1.702   0.246   1.900  0.0000  0.0000  0.0000
    1GR    C230  230   1.843   0.246   1.900  0.0000  0.0000  0.0000
    1GR    C231  231   1.914   0.368   1.900  0.0000  0.0000  0.0000
    1GR    C232  232   2.056   0.368   1.900  0.0000  0.0000  0.0000
    1GR    C233  233   1.702   0.491   1.900  0.0000  0.0000  0.0000
    1GR    C234  234   1.843   0.491   1.900  0.0000  0.0000  0.0000
    1GR    C235  235   1.914   0.614   1.900  0.0000  0.0000  0.0000
    1GR    C236  236   2.056   0.614   1.900  0.0000  0.0000  0.0000
    1GR    C237  237   1.702   0.737   1.900  0.0000  0.0000  0.0000
    1GR    C238  238   1.843   0.737   1.900  0.0000  0.0000  0.0000
    1GR    C239  239   1.914   0.860   1.900  0.0000  0.0000  0.0000
    1GR    C240  240   2.056   0.860   1.900  0.0000  0.0000  0.0000
    1GR    C241  241   1.702   0.982   1.900  0.0000  0.0000  0.0000
    1GR    C242  242   1.843   0.982   1.900  0.0000  0.0000  0.0000
    1GR    C243  243   1.914   1.105   1.900  0.0000  0.0000  0.0000
    1GR    C244  244   2.056   1.105   1.900  0.0000  0.0000  0.0000
    1GR    C245  245   1.702   1.228   1.900  0.0000  0.0000  0.0000
    1GR    C246  246   1.843   1.228   1.900  0.0000  0.0000  0.0000
    1GR    C247  247   1.914   1.351   1.900  0.0000  0.0000  0.0000
    1GR    C248  248   2.056   1.351   1.900  0.0000  0.0000  0.0000
    1GR    C249  249   1.702   1.474   1.900  0.0000  0.0000  0.0000
    1GR    C250  250   1.843   1.474   1.900  0.0000  0.0000  0.0000
    1GR    C251  251   1.914   1.596   1.900  0.0000  0.0000  0.0000
    1GR    C252  252   2.056   1.596   1.900  0.0000  0.0000  0.0000
    1GR    C253  253   1.702   1.719   1.900  0.0000  0.0000  0.0000
    1GR    C254  254   1.843   1.719   1.900  0.0000  0.0000  0.0000
    1GR    C255  255   1.914   1.842   1.900  0.0000  0.0000  0.0000
    1GR    C256  256   2.056   1.842   1.900  0.0000  0.0000  0.0000
    1GR    C257  257   1.702   1.965   1.900  0.0000  0.0000  0.0000
    1GR    C258  258   1.843   1.965   1.900  0.0000  0.0000  0.0000
    1GR    C259  259   1.914   2.088   1.900  0.0000  0.0000  0.0000
    1GR    C260  260   2.056   2.088   1.900  0.0000  0.0000  0.0000
    1GR    C261  261   1.702   2.210   1.900  0.0000  0.0000  0.0000
    1GR    C262  262   1.843   2.210   1.900  0.0000  0.0000  0.0000
    1GR    C263  263   1.914   2.333   1.900  0.0000  0.0000  0.0000
    1GR    C264  264   2.056   2.333   1.900  0.0000  0.0000  0.0000
    1GR    C265  265   1.702   2.456   1.900  0.0000  0.0000  0.0000
    1GR    C266  266   1.843   2.456   1.900  0.0000  0.0000  0.0000
    1GR    C267  267   1.914   2.579   1.900  0.0000  0.0000  0.0000
    1GR    C268  268   2.056   2.579   1.900  0.0000  0.0000  0.0000
    1GR    C269  269   1.702   2.702   1.900  0.0000  0.0000  0.0000
    1GR    C270  270   1.843   2.702   1.900  0.0000  0.0000  0.0000
    1GR    C271  271   1.914   2.824   1.900  0.0000  0.0000  0.0000
    1GR    C272  272   2.056   2.824   1.900  0.0000  0.0000  0.0000
    1GR    C273  273   1.702   2.947   1.900  0.0000  0.0000  0.0000
    1GR    C274  274   1.843   2.947   1.900  0.0000  0.0000  0.0000
    1GR    C275  275   1.914   3.070   1.900  0.0000  0.0000  0.0000
    1GR    C276  276   2.056   3.070   1.900  0.0000  0.0000  0.0000
    1GR    C277  277   1.702   3.193   1.900  0.0000  0.0000  0.0000
    1GR    C278  278   1.843   3.193   1.900  0.0000  0.0000  0.0000
    1GR    C279  279   1.914   3.316   1.900  0.0000  0.0000  0.0000
    1GR    C280  280   2.056   3.316   1.900  0.0000  0.0000  0.0000
    1GR    C281  281   2.127   0.000   1.900  0.0000  0.0000  0.0000
    1GR    C282  282   2.269   0.000   1.900  0.0000  0.0000  0.0000
    1GR    C283  283   2.340   0.123   1.900  0.0000  0.0000  0.0000
    1GR    C284  284   2.481   0.123   1.900  0.0000  0.0000  0.0000
    1GR    C285  285   2.127   0.246   1.900  0.0000  0.0000  0.0000
    1GR    C286  286   2.269   0.246   1.900  0.0000  0.0000  0.0000
    1GR    C287  287   2.340   0.368   1.900  0.0000  0.0000  0.0000
    1GR    C288  288   2.481   0.368   1.900  0.0000  0.0000  0.0000
    1GR    C289  289   2.127   0.491   1.900  0.0000  0.0000  0.0000
    1GR    C290  290   2.269   0.491   1.900  0.0000  0.0000  0.0000
    1GR    C291  291   2.340   0.614   1.900  0.0000  0.0000  0.0000
    1GR    C292  292   2.481   0.614   1.900  0.0000  0.0000  0.0000
    1GR    C293  293   2.127   0.737   1.900  0.0000  0.0000  0.0000
    1GR    C294  294   2.269   0.737   1.900  0.0000  0.0000  0.0000
    1GR    C295  295   2.340   0.860   1.900  0.0000  0.0000  0.0000
    1GR    C296  296   2.481   0.860   1.900  0.0000  0.0000  0.0000
    1GR    C297  297   2.127   0.982   1.900  0.0000  0.0000  0.0000
    1GR    C298  298   2.269   0.982   1.900  0.0000  0.0000  0.0000
    1GR    C299  299   2.340   1.105   1.900  0.0000  0.0000  0.0000
    1GR    C300  300   2.481   1.105   1.900  0.0000  0.0000  0.0000
    1GR    C301  301   2.127   1.228   1.900  0.0000  0.0000  0.0000
    1GR    C302  302   2.269   1.228   1.900  0.0000  0.0000  0.0000
    1GR    C303  303   2.340   1.351   1.900  0.0000  0.0000  0.0000
    1GR    C304  304   2.481   1.351   1.900  0.0000  0.0000  0.0000
    1GR    C305  305   2.127   1.474   1.900  0.0000  0.0000  0.0000
    1GR    C306  306   2.269   1.474   1.900  0.0000  0.0000  0.0000
    1GR    C307  307   2.340   1.596   1.900  0.0000  0.0000  0.0000
    1GR    C308  308   2.481   1.596   1.900  0.0000  0.0000  0.0000
    1GR    C309  309   2.127   1.719   1.900  0.0000  0.0000  0.0000
    1GR    C310  310   2.269   1.719   1.900  0.0000  0.0000  0.0000
    1GR    C311  311   2.340   1.842   1.900  0.0000  0.0000  0.0000
    1GR    C312  312   2.481   1.842   1.900  0.0000  0.0000  0.0000
    1GR    C313  313   2.127   1.965   1.900  0.0000  0.0000  0.0000
    1GR    C314  314   2.269   1.965   1.900  0.0000  0.0000  0.0000
    1GR    C315  315   2.340   2.088   1.900  0.0000  0.0000  0.0000
    1GR    C316  316   2.481   2.088   1.900  0.0000  0.0000  0.0000
    1GR    C317  317   2.127   2.210   1.900  0.0000  0.0000  0.0000
    1GR    C318  318   2.269   2.210   1.900  0.0000  0.0000  0.0000
    1GR    C319  319   2.340   2.333   1.900  0.0000  0.0000  0.0000
    1GR    C320  320   2.481   2.333   1.900  0.0000  0.0000  0.0000
    1GR    C321  321   2.127   2.456   1.900  0.0000  0.0000  0.0000
    1GR    C322  322   2.269   2.456   1.900  0.0000  0.0000  0.0000
    1GR    C323  323   2.340   2.579   1.900  0.0000  0.0000  0.0000
    1GR    C324  324   2.481   2.579   1.900  0.0000  0.0000  0.0000
    1GR    C325  325   2.127   2.702   1.900  0.0000  0.0000  0.0000
    1GR    C326  326   2.269   2.702   1.900  0.0000  0.0000  0.0000
    1GR    C327  327   2.340   2.824   1.900  0.0000  0.0000  0.0000
    1GR    C328  328   2.481   2.824   1.900  0.0000  0.0000  0.0000
    1GR    C329  329   2.127   2.947   1.900  0.0000  0.0000  0.0000
    1GR    C330  330   2.269   2.947   1.900  0.0000  0.0000  0.0000
    1GR    C331  331   2.340   3.070   1.900  0.0000  0.0000  0.0000
    1GR    C332  332   2.481   3.070   1.900  0.0000  0.0000  0.0000
    1GR    C333  333   2.127   3.193   1.900  0.0000  0.0000  0.0000
    1GR    C334  334   2.269   3.193   1.900  0.0000  0.0000  0.0000
    1GR    C335  335   2.340   3.316   1.900  0.0000  0.0000  0.0000
    1GR    C336  336   2.481   3.316   1.900  0.0000  0.0000  0.0000
    1GR    C337  337   2.552   0.000   1.900  0.0000  0.0000  0.0000
    1GR    C338  338   2.694   0.000   1.900  0.0000  0.0000  0.0000
    1GR    C339  339   2.765   0.123   1.900  0.0000  0.0000  0.0000
    1GR    C340  340   2.907   0.123   1.900  0.0000  0.0000  0.0000
    1GR    C341  341   2.552   0.246   1.900  0.0000  0.0000  0.0000
    1GR    C342  342   2.694   0.246   1.900  0.0000  0.0000  0.0000
    1GR    C343  343   2.765   0.368   1.900  0.0000  0.0000  0.0000
    1GR    C344  344   2.907   0.368   1.900  0.0000  0.0000  0.0000
    1GR    C345  345   2.552   0.491   1.900  0.0000  0.0000  0.0000
    1GR    C346  346   2.694   0.491   1.900  0.0000  0.0000  0.0000
    1GR    C347  347   2.765   0.614   1.900  0.0000  0.0000  0.0000
    1GR    C348  348   2.907   0.614   1.900  0.0000  0.0000  0.0000
    1GR    C349  349   2.552   0.737   1.900  0.0000  0.0000  0.0000
    1GR    C350  350   2.694   0.737   1.900  0.0000  0.0000  0.0000
    1GR    C351  351   2.765   0.860   1.900  0.0000  0.0000  0.0000
    1GR    C352  352   2.907   0.860   1.900  0.0000  0.0000  0.0000
    1GR    C353  353   2.552   0.982   1.900  0.0000  0.0000  0.0000
    1GR    C354  354   2.694   0.982   1.900  0.0000  0.0000  0.0000
    1GR    C355  355   2.765   1.105   1.900  0.0000  0.0000  0.0000
    1GR    C356  356   2.907   1.105   1.900  0.0000  0.0000  0.0000
    1GR    C357  357   2.552   1.228   1.900  0.0000  0.0000  0.0000
    1GR    C358  358   2.694   1.228   1.900  0.0000  0.0000  0.0000
    1GR    C359  359   2.765   1.351   1.900  0.0000  0.0000  0.0000
    1GR    C360  360   2.907   1.351   1.900  0.0000  0.0000  0.0000
    1GR    C361  361   2.552   1.474   1.900  0.0000  0.0000  0.0000
    1GR    C362  362   2.694   1.474   1.900  0.0000  0.0000  0.0000
    1GR    C363  363   2.765   1.596   1.900  0.0000  0.0000  0.0000
    1GR    C364  364   2.907   1.596   1.900  0.0000  0.0000  0.0000
    1GR    C365  365   2.552   1.719   1.900  0.0000  0.0000  0.0000
    1GR    C366  366   2.694   1.719   1.900  0.0000  0.0000  0.0000
    1GR    C367  367   2.765   1.842   1.900  0.0000  0.0000  0.0000
    1GR    C368  368   2.907   1.842   1.900  0.0000  0.0000  0.0000
    1GR    C369  369   2.552   1.965   1.900  0.0000  0.0000  0.0000
    1GR    C370  370   2.694   1.965   1.900  0.0000  0.0000  0.0000
    1GR    C371  371   2.765   2.088   1.900  0.0000  0.0000  0.0000
    1GR    C372  372   2.907   2.088   1.900  0.0000  0.0000  0.0000
    1GR    C373  373   2.552   2.210   1.900  0.0000  0.0000  0.0000
    1GR    C374  374   2.694   2.210   1.900  0.0000  0.0000  0.0000
    1GR    C375  375   2.765   2.333   1.900  0.0000  0.0000  0.0000
    1GR    C376  376   2.907   2.333   1.900  0.0000  0.0000  0.0000
    1GR    C377  377   2.552   2.456   1.900  0.0000  0.0000  0.0000
    1GR    C378  378   2.694   2.456   1.900  0.0000  0.0000  0.0000
    1GR    C379  379   2.765   2.579   1.900  0.0000  0.0000  0.0000
    1GR    C380  380   2.907   2.579   1.900  0.0000  0.0000  0.0000
    1GR    C381  381   2.552   2.702   1.900  0.0000  0.0000  0.0000
    1GR    C382  382   2.694   2.702   1.900  0.0000  0.0000  0.0000
    1GR    C383  383   2.765   2.824   1.900  0.0000  0.0000  0.0000
    1GR    C384  384   2.907   2.824   1.900  0.0000  0.0000  0.0000
    1GR    C385  385   2.552   2.947   1.900  0.0000  0.0000  0.0000
    1GR    C386  386   2.694   2.947   1.900  0.0000  0.0000  0.0000
    1GR    C387  387   2.765   3.070   1.900  0.0000  0.0000  0.0000
    1GR    C388  388   2.907   3.070   1.900  0.0000  0.0000  0.0000
    1GR    C389  389   2.552   3.193   1.900  0.0000  0.0000  0.0000
    1GR    C390  390   2.694   3.193   1.900  0.0000  0.0000  0.0000
    1GR    C391  391   2.765   3.316   1.900  0.0000  0.0000  0.0000
    1GR    C392  392   2.907   3.316   1.900  0.0000  0.0000  0.0000
    1GR    C393  393   2.978   0.000   1.900  0.0000  0.0000  0.0000
    1GR    C394  394   3.120   0.000   1.900  0.0000  0.0000  0.0000
    1GR    C395  395   3.191   0.123   1.900  0.0000  0.0000  0.0000
    1GR    C396  396   3.332   0.123   1.900  0.0000  0.0000  0.0000
    1GR    C397  397   2.978   0.246   1.900  0.0000  0.0000  0.0000
    1GR    C398  398   3.120   0.246   1.900  0.0000  0.0000  0.0000
    1GR    C399  399   3.191   0.368   1.900  0.0000  0.0000  0.0000
    1GR    C400  400   3.332   0.368   1.900  0.0000  0.0000  0.0000
    1GR    C401  401   2.978   0.491   1.900  0.0000  0.0000  0.0000
    1GR    C402  402   3.120   0.491   1.900  0.0000  0.0000  0.0000
    1GR    C403  403   3.191   0.614   1.900  0.0000  0.0000  0.0000
    1GR    C404  404   3.332   0.614   1.900  0.0000  0.0000  0.0000
    1GR    C405  405   2.978   0.737   1.900  0.0000  0.0000  0.0000
    1GR    C406  406   3.120   0.737   1.900  0.0000  0.0000  0.0000
    1GR    C407  407   3.191   0.860   1.900  0.0000  0.0000  0.0000
    1GR    C408  408   3.332   0.860   1.900  0.0000  0.0000  0.0000
    1GR    C409  409   2.978   0.982   1.900  0.0000  0.0000  0.0000
    1GR    C410  410   3.120   0.982   1.900  0.0000  0.0000  0.0000
    1GR    C411  411   3.191   1.105   1.900  0.0000  0.0000  0.0000
    1GR    C412  412   3.332   1.105   1.900  0.0000  0.0000  0.0000
    1GR    C413  413   2.978   1.228   1.900  0.0000  0.0000  0.0000
    1GR    C414  414   3.120   1.228   1.900  0.0000  0.0000  0.0000
    1GR    C415  415   3.191   1.351   1.900  0.0000  0.0000  0.0000
    1GR    C416  416   3.332   1.351   1.900  0.0000  0.0000  0.0000
    1GR    C417  417   2.978   1.474   1.900  0.0000  0.0000  0.0000
    1GR    C418  418   3.120   1.474   1.900  0.0000  0.0000  0.0000
    1GR    C419  419   3.191   1.596   1.900  0.0000  0.0000  0.0000
    1GR    C420  420   3.332   1.596   1.900  0.0000  0.0000  0.0000
    1GR    C421  421   2.978   1.719   1.900  0.0000  0.0000  0.0000
    1GR    C422  422   3.120   1.719   1.900  0.0000  0.0000  0.0000
    1GR    C423  423   3.191   1.842   1.900  0.0000  0.0000  0.0000
    1GR    C424  424   3.332   1.842   1.900  0.0000  0.0000  0.0000
    1GR    C425  425   2.978   1.965   1.900  0.0000  0.0000  0.0000
    1GR    C426  426   3.120   1.965   1.900  0.0000  0.0000  0.0000
    1GR    C427  427   3.191   2.088   1.900  0.0000  0.0000  0.0000
    1GR    C428  428   3.332   2.088   1.900  0.0000  0.0000  0.0000
    1GR    C429  429   2.978   2.210   1.900  0.0000  0.0000  0.0000
    1GR    C430  430   3.120   2.210   1.900  0.0000  0.0000  0.0000
    1GR    C431  431   3.191   2.333   1.900  0.0000  0.0000  0.0000
    1GR    C432  432   3.332   2.333   1.900  0.0000  0.0000  0.0000
    1GR    C433  433   2.978   2.456   1.900  0.0000  0.0000  0.0000
    1GR    C434  434   3.120   2.456   1.900  0.0000  0.0000  0.0000
    1GR    C435  435   3.191   2.579   1.900  0.0000  0.0000  0.0000
    1GR    C436  436   3.332   2.579   1.900  0.0000  0.0000  0.0000
    1GR    C437  437   2.978   2.702   1.900  0.0000  0.0000  0.0000
    1GR    C438  438   3.120   2.702   1.900  0.0000  0.0000  0.0000
    1GR    C439  439   3.191   2.824   1.900  0.0000  0.0000  0.0000
    1GR    C440  440   3.332   2.824   1.900  0.0000  0.0000  0.0000
    1GR    C441  441   2.978   2.947   1.900  0.0000  0.0000  0.0000
    1GR    C442  442   3.120   2.947   1.900  0.0000  0.0000  0.0000
    1GR    C443  443   3.191   3.070   1.900  0.0000  0.0000  0.0000
    1GR    C444  444   3.332   3.070   1.900  0.0000  0.0000  0.0000
    1GR    C445  445   2.978   3.193   1.900  0.0000  0.0000  0.0000
    1GR    C446  446   3.120   3.193   1.900  0.0000  0.0000  0.0000
    1GR    C447  447   3.191   3.316   1.900  0.0000  0.0000  0.0000
    1GR    C448  448   3.332   3.316   1.900  0.0000  0.0000  0.0000
    2PMMA   CX1  449   0.247   1.401   2.382  0.4172  0.6425  0.0767
    2PMMA   CA2  450   0.195   1.543   2.377  0.7249  0.1158  0.4989
    2PMMA   CX3  451   0.236   1.602   2.243 -0.5643  0.1535 -0.9959
    2PMMA    C4  452   0.037   1.538   2.386 -0.0992 -0.2298  0.3896
    2PMMA    O5  453  -0.031   1.526   2.486 -0.3931 -0.2611 -0.3457
    2PMMA   OS6  454  -0.027   1.566   2.268 -0.0016  0.2845  0.1123
    2PMMA   CE7  455  -0.177   1.546   2.264 -0.5980 -0.0160  0.0635
    2PMMA   CX8  456   0.248   1.622   2.501 -0.1769  0.4994 -0.0967
    2PMMA   CA9  457   0.251   1.772   2.513  0.2590 -0.0584  0.5815
    2PMMA  CX10  458   0.353   1.826   2.395  0.0081 -0.9695 -0.3422
    2PMMA   C11  459   0.303   1.799   2.655 -0.4057 -0.1460 -0.2492
    2PMMA   O12  460   0.413   1.835   2.685  0.0527 -0.0309 -0.1079
    2PMMA  OS13  461   0.207   1.792   2.744  0.0788  0.0334  0.5978
    2PMMA  CE14  462   0.232   1.806   2.885  0.0665  0.0645 -0.6028
    2PMMA  CX15  463   0.113   1.834   2.486 -0.3136  0.2423  0.5103
    2PMMA  CA16  464   0.087   1.993   2.502 -0.1309  0.1045 -0.5927
    2PMMA  CX17  465  -0.063   1.994   2.538  0.0037 -0.3515 -0.5784
    2PMMA   C18  466   0.165   2.048   2.626  0.0715 -0.3511  0.0070
    2PMMA   O19  467   0.116   2.096   2.728  0.4364 -0.3376  0.0500
    2PMMA  OS20  468   0.291   2.088   2.590  0.2235 -0.0555 -0.0801
    2PMMA  CE21  469   0.387   2.153   2.678 -0.3140  0.5315  0.0488
    2PMMA  CX22  470   0.108   2.071   2.370  0.0521  0.8855 -0.0135
    2PMMA  CA23  471   0.084   2.229   2.361  0.5058 -0.4170  0.1417
    2PMMA  CX24  472   0.107   2.311   2.489 -0.5172 -0.0268 -0.9122
    2PMMA   C25  473  -0.063   2.256   2.316  0.3095  0.5550 -0.4511
    2PMMA   O26  474  -0.156   2.175   2.297  0.4675 -0.0258 -0.1087
    2PMMA  OS27  475  -0.088   2.391   2.301  0.0576  0.1282  0.4756
    2PMMA  CE28  476  -0.211   2.433   2.247 -0.4161  0.0680 -0.1455
    2PMMA  CX29  477   0.168   2.275   2.238  0.0732  0.2011 -0.1237
    2PMMA  HC30  478   0.356   1.407   2.383  0.5657 -1.1763 -1.8121
    2PMMA  HC31  479   0.221   1.356   2.479  2.5559  0.8694  0.7761
    2PMMA  HC32  480   0.208   1.338   2.302 -1.4528  0.7058  0.9030
    2PMMA  HC33  481   0.187   1.692   2.203  0.6963  1.4248  0.2998
    2PMMA  HC34  482   0.228   1.530   2.161 -0.7701 -0.6371 -0.2880
    2PMMA  HC35  483   0.343   1.622   2.242 -0.8319  2.4157  3.6438
    2PMMA  H136  484  -0.216   1.598   2.176  1.7385  1.9715  0.1443
    2PMMA  H137  485  -0.219   1.591   2.355  0.1282 -0.4081  0.5989
    2PMMA  H138  486  -0.201   1.440   2.261 -0.2644 -0.1761  2.1586
    2PMMA  HC39  487   0.188   1.589   2.586  0.8532 -1.9910 -0.2968
    2PMMA  HC40  488   0.348   1.591   2.534 -0.9056 -1.2859  0.4884
    2PMMA  HC41  489   0.440   1.760   2.386  1.6638  0.7122  2.5068
    2PMMA  HC42  490   0.306   1.841   2.297 -0.3541 -1.1128 -0.1908
    2PMMA  HC43  491   0.389   1.926   2.424 -2.5963  0.0097 -0.4033
    2PMMA  H144  492   0.324   1.757   2.916 -0.9374 -2.3361 -1.3287
    2PMMA  H145  493   0.145   1.771   2.941 -0.3006  2.4076  0.3895
    2PMMA  H146  494   0.247   1.914   2.896  0.6358 -0.3238  3.2159
    2PMMA  HC47  495   0.062   1.798   2.396 -2.5318  0.5765  1.6020
    2PMMA  HC48  496   0.045   1.784   2.557  0.5337  2.8759  3.3037
    2PMMA  HC49  497  -0.124   1.961   2.453 -2.6545  3.6989 -0.3894
    2PMMA  HC50  498  -0.097   2.094   2.567  2.3956  0.4001 -0.2240
    2PMMA  HC51  499  -0.088   1.933   2.625  0.7658  0.0053 -0.1016
    2PMMA  H152  500   0.326   2.182   2.764 -0.6153 -2.6548  0.9966
    2PMMA  H153  501   0.432   2.231   2.617 -1.5421 -0.8163 -2.6920
    2PMMA  H154  502   0.465   2.088   2.718 -2.2044 -0.3327  2.4533
    2PMMA  HC55  503   0.215   2.056   2.354 -0.0789 -0.7148  0.4835
    2PMMA  HC56  504   0.069   2.019   2.282  0.8729  0.6114 -0.2149
    2PMMA  HC57  505   0.046   2.283   2.576  0.6835 -2.6560 -0.8714
    2PMMA  HC58  506   0.212   2.317   2.521 -1.0923  0.5483  0.9117
    2PMMA  HC59  507   0.067   2.411   2.474  0.7949  0.7085  0.3003
    2PMMA  H160  508  -0.294   2.404   2.312 -0.6714  2.1389  0.5011
    2PMMA  H161  509  -0.228   2.393   2.147  0.5830 -1.2115  0.1887
    2PMMA  H162  510  -0.201   2.542   2.252  3.2512 -0.2981  2.4324
    2PMMA  HC63  511   0.271   2.273   2.275  0.0953  0.1122 -0.1895
    2PMMA  HC64  512   0.159   2.201   2.158  0.8854  0.5169 -0.5124
    2PMMA  HC65  513   0.152   2.380   2.210  2.1762  0.4051 -0.6569
    3HFI     O1  514   2.934   0.483   0.822 -0.1040  0.2538 -0.2528
    3HFI     C1  515   2.826   0.529   0.905  0.6025  0.2528 -0.2582
    3HFI     C2  516   2.691   0.494   0.840 -0.0133  0.1788 -0.1222
    3HFI     F1  517   2.672   0.536   0.708 -0.1486 -0.1517 -0.0948
    3HFI     F2  518   2.590   0.547   0.905  0.4088 -0.2139  0.6218
    3HFI     F3  519   2.670   0.360   0.840  0.2659 -0.0081 -0.0398
    3HFI     C3  520   2.831   0.675   0.965 -0.6855  0.3892  0.3013
    3HFI     F4  521   2.737   0.692   1.062  0.4976  0.0729 -0.6961
    3HFI     F5  522   2.806   0.771   0.871 -0.4164 -0.5457  0.2993
    3HFI     F6  523   2.951   0.705   1.028  0.3106 -0.4134  0.1013
    3HFI     H1  524   2.973   0.564   0.786 -3.2884  1.5934 -0.8180
    3HFI     H2  525   2.834   0.472   0.998 -0.9225  1.1079  0.4271
    4HFI     O1  526   3.106   3.409   3.711  0.1044 -0.3243  0.6316
    4HFI     C1  527   2.968   3.430   3.754  0.4856 -0.2579  0.3792
    4HFI     C2  528   2.964   3.475   3.905 -0.5423  0.8764  0.5903
    4HFI     F1  529   2.843   3.504   3.951 -0.2794  0.5903 -0.2269
    4HFI     F2  530   3.044   3.581   3.916 -0.1788 -0.3024 -0.4124
    4HFI     F3  531   3.022   3.380   3.982 -0.5675 -0.4007 -0.2595
    4HFI     C3  532   2.868   3.322   3.720 -0.5910  0.1522  0.2243
    4HFI     F4  533   2.891   3.276   3.595 -0.1282 -0.2686  0.3193
    4HFI     F5  534   2.743   3.367   3.722 -0.2996  0.3324  0.3110
    4HFI     F6  535   2.888   3.221   3.810 -0.3381  0.5865 -0.0606
    4HFI     H1  536   3.156   3.349   3.769  0.3299 -0.1442  0.6265
    4HFI     H2  537   2.934   3.522   3.705 -4.4168 -0.5895  2.8551
    5HFI     O1  538   1.250   1.059   0.866  0.7333  0.8265 -0.0521
    5HFI     C1  539   1.349   1.105   0.963 -0.4879  0.2421  0.4802
    5HFI     C2  540   1.442   1.217   0.902  0.2743  0.5328 -0.1671
    5HFI     F1  541   1.549   1.174   0.827  0.1548  0.2187  0.5325
    5HFI     F2  542   1.492   1.296   0.999  0.3720 -0.2585  0.1295
    5HFI     F3  543   1.369   1.297   0.820  0.4798  0.3203  0.2432
    5HFI     C3  544   1.424   0.987   1.033 -0.1856  0.2744  0.1711
    5HFI     F4  545   1.468   1.038   1.151 -0.0191  0.0172  0.2917
    5HFI     F5  546   1.522   0.940   0.963 -0.2247 -0.0396 -0.3892
    5HFI     F6  547   1.353   0.881   1.064  0.0702  0.3187 -0.6496
    5HFI     H1  548   1.211   1.137   0.823 -3.1684 -0.0773  1.6578
    5HFI     H2  549   1.295   1.141   1.051  0.8020 -0.3548  1.5222
    6HFI     O1  550   3.281   2.712   0.736 -0.1617  1.0663  0.1236
    6HFI     C1  551   3.167   2.642   0.803  0.6469  0.1593 -0.2005
    6HFI     C2  552   3.034   2.696   0.747  0.2593 -0.1169  0.3661
    6HFI     F1  553   2.920   2.645   0.802 -0.2904  0.6540  0.7032
    6HFI     F2  554   3.019   2.670   0.612 -0.5952 -0.0438  0.0802
    6HFI     F3  555   3.021   2.829   0.766 -0.3494  0.2872 -0.3827
    6HFI     C3  556   3.184   2.626   0.956  0.2946  0.4096  0.0870
    6HFI     F4  557   3.160   2.748   1.015 -0.3468  0.3714  0.4277
    6HFI     F5  558   3.317   2.589   0.979  0.4537  0.0288  0.0151
    6HFI     F6  559   3.104   2.535   1.012  0.0425 -0.1066 -0.0680
    6HFI     H1  560   3.259   2.806   0.730  2.1381  1.5094 -1.9884
    6HFI     H2  561   3.169   2.538   0.768  1.0728  0.1334 -0.1084
    7HFI     O1  562   2.350   0.908   0.422 -0.1243  0.0678 -0.4793
    7HFI     C1  563   2.453   0.836   0.495 -0.2642 -0.7885 -0.0817
    7HFI     C2  564   2.497   0.718   0.403 -0.6455  0.1578  0.4045
    7HFI     F1  565   2.590   0.637   0.462  0.3500  0.4733  0.0788
    7HFI     F2  566   2.557   0.768   0.294  0.0373 -0.2939 -0.3486
    7HFI     F3  567   2.395   0.646   0.361 -0.0666 -0.1951  0.6571
    7HFI     C3  568   2.414   0.795   0.633  0.3332 -0.6176  0.0556
    7HFI     F4  569   2.516   0.769   0.715 -0.0477 -0.2302 -0.8649
    7HFI     F5  570   2.335   0.687   0.630 -0.5783  0.0355  0.1945
    7HFI     F6  571   2.336   0.899   0.694 -0.2340 -0.0829 -0.0389
    7HFI     H1  572   2.380   0.993   0.386 -0.2972 -0.4322 -1.8518
    7HFI     H2  573   2.539   0.905   0.503 -0.1303 -1.1240  1.4991
    8HFI     O1  574   3.316   1.272   0.896 -0.7878 -0.8096 -0.0064
    8HFI     C1  575   3.260   1.149   0.957 -0.0649 -0.4602  0.6083
    8HFI     C2  576   3.288   1.031   0.873 -0.3314  0.1307  0.4453
    8HFI     F1  577   3.206   1.013   0.770 -0.0857 -0.6924 -0.2554
    8HFI     F2  578   3.287   0.918   0.940  0.7898  0.2836  0.0254
    8HFI     F3  579   3.413   1.040   0.815 -0.6421  0.2744 -0.2747
    8HFI     C3  580   3.111   1.158   1.011 -0.2123 -0.2752  0.0088
    8HFI     F4  581   3.103   1.268   1.085  0.2324 -0.7495 -0.1686
    8HFI     F5  582   3.084   1.052   1.092  0.2528  0.1630 -0.4048
    8HFI     F6  583   3.017   1.167   0.921  0.0120 -0.4004 -0.0210
    8HFI     H1  584   3.275   1.278   0.808 -1.0814  0.2097  0.1960
    8HFI     H2  585   3.317   1.138   1.051 -0.1167 -0.8598  0.5920
    9HFI     O1  586   1.359   2.188   1.297  0.1702 -0.2581  0.1854
    9HFI     C1  587   1.248   2.222   1.385  0.3869 -0.0913  0.7922
    9HFI     C2  588   1.294   2.313   1.506  0.2339 -0.9406 -0.0970
    9HFI     F1  589   1.380   2.407   1.463 -0.2011  0.0555 -0.3404
    9HFI     F2  590   1.352   2.242   1.605  0.3891  0.1094 -0.3047
    9HFI     F3  591   1.189   2.376   1.566  0.3109 -0.1081  0.4866
    9HFI     C3  592   1.158   2.098   1.421 -0.1530  0.1907  0.2888
    9HFI     F4  593   1.086   2.113   1.533  0.1020  0.3899 -0.4360
    9HFI     F5  594   1.218   1.980   1.418  0.3162  0.1347  0.2671
    9HFI     F6  595   1.067   2.084   1.321  0.4980 -0.2475  0.3232
    9HFI     H1  596   1.410   2.116   1.338  0.7143  0.2395  0.3897
    9HFI     H2  597   1.181   2.294   1.336 -0.7043 -0.3500  1.8737
   10HFI     O1  598   1.889   0.882   3.709 -0.2413  0.3926 -0.4559
   10HFI     C1  599   1.781   0.950   3.774 -0.5484 -0.4690 -0.6788
   10HFI     C2  600   1.646   0.886   3.731  0.1915 -0.0952  0.0509
   10HFI     F1  601   1.628   0.757   3.761  0.1932 -0.1825  0.2575
   10HFI     F2  602   1.617   0.899   3.593 -0.7835  0.3641 -0.2104
   10HFI     F3  603   1.551   0.957   3.803 -0.3051 -0.1582  0.0864
   10HFI     C3  604   1.791   1.105   3.750 -0.1180  0.1198  0.5910
   10HFI     F4  605   1.912   1.152   3.778 -0.1038 -0.4309 -0.1368
   10HFI     F5  606   1.700   1.168   3.819  1.0918 -0.3139  0.6142
   10HFI     F6  607   1.755   1.126   3.624 -0.4237 -0.7672  0.1219
   10HFI     H1  608   1.976   0.903   3.746  0.0493 -1.4523 -0.0423
   10HFI     H2  609   1.795   0.934   3.882  0.5667  0.2109 -0.7210
   11HFI     O1  610   1.375   2.042   3.001  0.8504  0.7234 -0.1976
   11HFI     C1  611   1.281   2.082   2.897  0.2534  0.5165  0.2369
   11HFI     C2  612   1.317   2.004   2.760  0.4242 -0.1999 -0.3514
   11HFI     F1  613   1.443   2.028   2.710  0.0326 -0.3481  0.2232
   11HFI     F2  614   1.228   2.042   2.661 -0.3634 -0.3961 -0.0749
   11HFI     F3  615   1.308   1.874   2.791  0.4794  0.3194  0.8132
   11HFI     C3  616   1.290   2.234   2.877  0.4713 -0.5017  0.4483
   11HFI     F4  617   1.412   2.285   2.874 -0.6584  0.1787 -0.1310
   11HFI     F5  618   1.220   2.303   2.978 -0.1374 -0.1352  0.1002
   11HFI     F6  619   1.229   2.271   2.757  0.4665 -0.2219  0.0718
   11HFI     H1  620   1.353   2.094   3.080  0.0572 -1.7431  1.2814
   11HFI     H2  621   1.182   2.041   2.920  1.0289 -2.4815 -1.4802
   12HFI     O1  622   0.296   1.371   1.061 -0.6105 -0.1356 -0.3457
   12HFI     C1  623   0.376   1.247   1.081  0.5867  0.3285  0.3286
   12HFI     C2  624   0.514   1.261   1.025 -0.5006  0.2811 -0.0773
   12HFI     F1  625   0.576   1.362   1.084  0.0992  0.2950 -0.0214
   12HFI     F2  626   0.512   1.299   0.895 -0.0887 -0.0834 -0.3932
   12HFI     F3  627   0.592   1.156   1.041 -0.2454  0.0443 -0.2048
   12HFI     C3  628   0.311   1.120   1.019 -0.0104 -0.1874 -0.2383
   12HFI     F4  629   0.323   1.111   0.882  0.3038 -0.8667 -0.1224
   12HFI     F5  630   0.183   1.103   1.049 -0.5009 -0.3482 -1.0070
   12HFI     F6  631   0.370   1.009   1.066 -0.0387 -0.2970 -0.5085
   12HFI     H1  632   0.252   1.360   0.975  0.3619  1.0481 -1.0015
   12HFI     H2  633   0.387   1.225   1.188  0.4960 -2.4835 -0.2047
   13HFI     O1  634   1.533   2.709   1.487  0.3210  0.1692 -0.5746
   13HFI     C1  635   1.468   2.824   1.556 -0.5006 -0.6651  0.1679
   13HFI     C2  636   1.314   2.831   1.523 -0.1059  0.0700 -0.0985
   13HFI     F1  637   1.256   2.732   1.587 -0.3104 -0.4734  0.0169
   13HFI     F2  638   1.287   2.813   1.393 -0.0343  0.0475 -0.1595
   13HFI     F3  639   1.252   2.942   1.570  0.3362  0.0828  0.2695
   13HFI     C3  640   1.527   2.960   1.518 -0.6789 -0.5097 -0.1183
   13HFI     F4  641   1.483   3.059   1.604  0.5453 -0.1423  0.2444
   13HFI     F5  642   1.489   2.990   1.396  0.1603  0.3124  0.4293
   13HFI     F6  643   1.664   2.948   1.520  0.1644 -0.0441  0.4339
   13HFI     H1  644   1.480   2.694   1.407  1.4448  1.2638 -1.5449
   13HFI     H2  645   1.472   2.812   1.665  0.6159 -0.0229  0.2052
   14HFI     O1  646   1.035   2.132   0.160  0.0528  0.2722 -0.3566
   14HFI     C1  647   1.034   2.281   0.182 -0.2194  0.0178 -0.4588
   14HFI     C2  648   0.947   2.349   0.073  0.9702  0.4164  0.1658
   14HFI     F1  649   0.815   2.310   0.085  0.1021  0.3941 -0.3014
   14HFI     F2  650   0.991   2.318  -0.053  0.1148 -0.4678 -0.0364
   14HFI     F3  651   0.951   2.483   0.082 -0.0201  0.4800  0.3021
   14HFI     C3  652   1.175   2.341   0.204 -0.7728  0.0560 -0.9579
   14HFI     F4  653   1.257   2.310   0.099 -0.2379 -0.2337  0.4146
   14HFI     F5  654   1.231   2.285   0.314 -0.7735 -0.0583  0.5286
   14HFI     F6  655   1.172   2.476   0.223  0.0107 -0.2567 -0.2106
   14HFI     H1  656   0.945   2.101   0.141 -0.8421  0.8369  2.7464
   14HFI     H2  657   0.977   2.297   0.274 -1.0786 -1.4688 -0.7173
   15HFI     O1  658   2.914   0.464   1.318  0.2124  0.4691  0.3109
   15HFI     C1  659   2.802   0.378   1.376  0.5644 -0.3387 -0.1463
   15HFI     C2  660   2.679   0.382   1.296 -0.1496 -0.2306  0.3389
   15HFI     F1  661   2.696   0.352   1.165 -0.5488 -0.2896 -0.2790
   15HFI     F2  662   2.627   0.507   1.307  0.2269  0.1936 -0.1895
   15HFI     F3  663   2.587   0.296   1.337 -0.4607  0.3097  0.5942
   15HFI     C3  664   2.794   0.396   1.536 -0.0138  0.0001  0.7354
   15HFI     F4  665   2.920   0.390   1.584  0.1919  0.1298  0.3422
   15HFI     F5  666   2.725   0.300   1.600  0.0151  0.6384  0.4077
   15HFI     F6  667   2.739   0.519   1.571 -0.5967  0.6622  0.1585
   15HFI     H1  668   2.910   0.553   1.358  0.7182  0.1493  1.0904
   15HFI     H2  669   2.830   0.272   1.371  1.9818  0.0232 -0.2390
   16HFI     O1  670   1.341   0.815   0.716 -0.3090 -0.2682 -0.0412
   16HFI     C1  671   1.388   0.802   0.573  0.1454  0.1881  0.8760
   16HFI     C2  672   1.444   0.928   0.513 -0.4472 -0.3917 -0.1054
   16HFI     F1  673   1.541   0.984   0.595  0.0383  0.0271 -0.6782
   16HFI     F2  674   1.343   1.017   0.505  0.4416  0.1732  0.3396
   16HFI     F3  675   1.494   0.904   0.394 -0.2473  0.0844  0.0216
   16HFI     C3  676   1.276   0.738   0.484 -0.8511 -0.0999  0.9846
   16HFI     F4  677   1.166   0.815   0.485 -0.2310 -0.3066 -0.2323
   16HFI     F5  678   1.255   0.607   0.529 -0.4521 -0.1386 -0.2434
   16HFI     F6  679   1.321   0.726   0.356  0.2954  0.0066 -0.5229
   16HFI     H1  680   1.303   0.902   0.736 -2.6876 -2.1417  4.2384
   16HFI     H2  681   1.474   0.736   0.556  1.4786  2.2826 -0.7118
   17HFI     O1  682   2.635   2.000   1.315 -0.2960 -1.0110  0.1584
   17HFI     C1  683   2.510   1.993   1.399  0.1858 -0.1473 -0.3885
   17HFI     C2  684   2.503   2.118   1.490 -0.5923 -0.1024  0.1970
   17HFI     F1  685   2.384   2.131   1.553  0.6818 -0.1778  0.0419
   17HFI     F2  686   2.522   2.232   1.418 -0.4402  0.1969  0.8493
   17HFI     F3  687   2.601   2.110   1.585 -0.0866 -0.5754 -0.2648
   17HFI     C3  688   2.489   1.862   1.480 -0.0795  0.1250 -0.4032
   17HFI     F4  689   2.590   1.845   1.568  0.2454 -0.3848  0.3213
   17HFI     F5  690   2.491   1.754   1.399 -0.1018  0.1129  0.9126
   17HFI     F6  691   2.369   1.854   1.538 -0.4686 -0.3241 -0.2579
   17HFI     H1  692   2.711   1.955   1.356  1.3393  1.3579 -0.1793
   17HFI     H2  693   2.430   2.004   1.326 -0.1765 -0.1207  0.0097
   18HFI     O1  694   0.485   2.310   3.379 -0.0316 -0.0475  0.7926
   18HFI     C1  695   0.543   2.324   3.515 -0.4304  0.4332 -0.1577
   18HFI     C2  696   0.444   2.288   3.626  0.2529 -0.2058  0.3451
   18HFI     F1  697   0.494   2.307   3.747  0.0882  0.0483  0.1625
   18HFI     F2  698   0.400   2.162   3.629  0.3253 -0.4741 -0.2985
   18HFI     F3  699   0.339   2.367   3.617  0.1320  0.2008  0.4668
   18HFI     C3  700   0.615   2.464   3.548 -0.8564 -0.2953  0.3108
   18HFI     F4  701   0.689   2.509   3.446 -0.0706  0.6930  0.1941
   18HFI     F5  702   0.700   2.433   3.653 -0.1255 -0.2463  0.2001
   18HFI     F6  703   0.532   2.566   3.581 -0.1022  0.2369 -0.3642
   18HFI     H1  704   0.463   2.393   3.333  0.1029 -1.0039 -1.0547
   18HFI     H2  705   0.622   2.250   3.531 -1.8748 -0.9453  0.7380
   19HFI     O1  706   1.689   3.384   0.814  0.7153 -0.1656 -0.3035
   19HFI     C1  707   1.740   3.513   0.857  0.0041 -0.9194  0.0302
   19HFI     C2  708   1.707   3.623   0.752  0.0828 -0.3483  0.0593
   19HFI     F1  709   1.576   3.653   0.742 -0.4929  0.1617 -0.0246
   19HFI     F2  710   1.748   3.592   0.627 -0.1402  0.5834  0.0991
   19HFI     F3  711   1.763   3.742   0.790  0.5901 -0.0834  0.1811
   19HFI     C3  712   1.894   3.505   0.889 -0.3286  0.0762 -0.1407
   19HFI     F4  713   1.907   3.426   0.992 -0.7451  0.2702 -0.3573
   19HFI     F5  714   1.958   3.619   0.921  0.1394  0.4737  0.1031
   19HFI     F6  715   1.950   3.444   0.779  0.1845  0.1170 -0.7402
   19HFI     H1  716   1.753   3.354   0.747  0.9997 -1.0872  0.3641
   19HFI     H2  717   1.705   3.542   0.957  1.1100 -1.0360  0.4638
   20HFI     O1  718   1.114   0.120   1.370  0.1553 -0.6576 -0.2167
   20HFI     C1  719   1.105   0.023   1.476 -0.4308  0.1197 -0.2295
   20HFI     C2  720   1.228  -0.070   1.464  1.1483 -0.0037 -0.9836
   20HFI     F1  721   1.317  -0.045   1.567 -0.5151  0.0947 -0.2278
   20HFI     F2  722   1.305  -0.045   1.361 -0.3980  0.3162 -0.1963
   20HFI     F3  723   1.209  -0.200   1.471 -0.4879 -0.4597  0.1898
   20HFI     C3  724   0.975  -0.048   1.483  0.5649 -0.2716 -0.4267
   20HFI     F4  725   0.875   0.043   1.493 -0.0280 -0.6817 -0.4424
   20HFI     F5  726   0.965  -0.133   1.587 -0.2103 -0.2486 -0.4388
   20HFI     F6  727   0.946  -0.121   1.371  0.0316 -0.0455 -0.5793
   20HFI     H1  728   1.116   0.073   1.285  2.7447 -0.9433 -0.0249
   20HFI     H2  729   1.121   0.073   1.572  1.9278 -0.1115 -0.4734
   21HFI     O1  730   0.606   0.106   3.605  0.5652  0.4204  0.1705
   21HFI     C1  731   0.716   0.016   3.632 -0.6518 -0.5515 -0.0954
   21HFI     C2  732   0.685  -0.140   3.599 -0.4492 -0.1008  0.0417
   21HFI     F1  733   0.691  -0.157   3.464 -0.5160  0.2482  0.2350
   21HFI     F2  734   0.561  -0.187   3.641 -0.0227  0.3089 -0.3868
   21HFI     F3  735   0.779  -0.227   3.652  0.3085 -0.1569 -0.0831
   21HFI     C3  736   0.769   0.042   3.777  0.2123 -0.2420  0.3199
   21HFI     F4  737   0.717   0.146   3.832 -0.4499  0.0429 -0.0701
   21HFI     F5  738   0.905   0.058   3.768 -0.3973 -0.4950 -0.0327
   21HFI     F6  739   0.740  -0.066   3.855 -0.1731 -0.1044 -0.1813
   21HFI     H1  740   0.524   0.059   3.627  0.8069 -0.1281 -0.0786
   21HFI     H2  741   0.797   0.041   3.562  0.4062 -0.4018  1.1770
   22HFI     O1  742   2.024   0.224   0.253 -0.5959  0.0083 -0.7267
   22HFI     C1  743   2.083   0.253   0.129 -0.2611 -0.5879  0.4110
   22HFI     C2  744   2.012   0.367   0.052 -0.2770  0.4059 -0.0230
   22HFI     F1  745   2.072   0.391  -0.068  0.4599  0.1211  0.8082
   22HFI     F2  746   2.020   0.478   0.125  0.3203  0.0393 -0.1124
   22HFI     F3  747   1.884   0.338   0.027 -0.3901 -0.9554 -0.0520
   22HFI     C3  748   2.093   0.126   0.042  0.2419  0.0791 -0.0068
   22HFI     F4  749   2.167   0.156  -0.069 -0.0596 -0.6072  0.1173
   22HFI     F5  750   1.959   0.081   0.010 -0.1594  0.0708 -0.1443
   22HFI     F6  751   2.151   0.024   0.109 -0.1478 -0.1825  0.4544
   22HFI     H1  752   1.940   0.272   0.265  0.5193  2.5790 -2.7110
   22HFI     H2  753   2.187   0.286   0.141 -0.7520  0.8979  0.7441
   23HFI     O1  754   2.058   2.872   0.588 -0.0007 -0.1656 -0.7244
   23HFI     C1  755   2.186   2.907   0.658 -0.1964  0.5210  0.3793
   23HFI     C2  756   2.252   2.780   0.722 -0.7735 -0.4776 -0.7680
   23HFI     F1  757   2.273   2.685   0.631  0.5021 -0.6578 -0.1456
   23HFI     F2  758   2.161   2.737   0.811  0.1258 -0.0613  0.5052
   23HFI     F3  759   2.368   2.805   0.782  0.5775  0.4713 -0.4788
   23HFI     C3  760   2.167   3.022   0.755  0.6639 -0.9102 -0.7487
   23HFI     F4  761   2.083   3.115   0.692  0.0578 -0.7261  0.2783
   23HFI     F5  762   2.280   3.079   0.795  0.4205  0.0666  0.2445
   23HFI     F6  763   2.100   2.991   0.871 -0.4081  0.4176 -0.0230
   23HFI     H1  764   2.078   2.844   0.497 -0.4448 -3.1437  0.0230
   23HFI     H2  765   2.265   2.952   0.596  0.0505  3.1109  2.4310
   24HFI     O1  766   0.544   0.608   1.413  0.0285 -0.2283  0.1964
   24HFI     C1  767   0.628   0.726   1.381  0.2223 -0.6342 -0.1958
   24HFI     C2  768   0.659   0.813   1.496  1.0180 -0.4950 -0.6948
   24HFI     F1  769   0.587   0.931   1.507  0.2535  0.2111  0.5958
   24HFI     F2  770   0.792   0.846   1.484 -0.0714  0.7618  0.1513
   24HFI     F3  771   0.641   0.743   1.609  0.2411 -0.5089 -0.0819
   24HFI     C3  772   0.561   0.824   1.266  0.3349  0.3489  0.6660
   24HFI     F4  773   0.439   0.860   1.304 -0.4519  0.3953  0.2175
   24HFI     F5  774   0.548   0.759   1.144 -0.3951  0.4219 -0.0156
   24HFI     F6  775   0.645   0.939   1.242 -0.2588  0.1864  0.3289
   24HFI     H1  776   0.591   0.555   1.480 -1.1558 -0.0366  1.1924
   24HFI     H2  777   0.720   0.698   1.328  0.8203 -0.0107  0.5019
   25HFI     O1  778   1.574   1.565   0.455 -0.5346  0.5378 -0.2183
   25HFI     C1  779   1.583   1.431   0.404  0.9039  0.5887 -0.0478
   25HFI     C2  780   1.476   1.382   0.309 -0.4259  0.6114 -0.7505
   25HFI     F1  781   1.357   1.365   0.377  0.2478  0.3034  0.2101
   25HFI     F2  782   1.514   1.265   0.247 -0.7020 -0.1156 -0.1164
   25HFI     F3  783   1.448   1.474   0.216 -0.5008  0.3985  0.4459
   25HFI     C3  784   1.618   1.332   0.521  0.0906  0.8135 -0.0104
   25HFI     F4  785   1.697   1.235   0.469  0.0509  0.2067  0.3269
   25HFI     F5  786   1.514   1.272   0.568  0.2930 -0.4650 -0.0201
   25HFI     F6  787   1.690   1.381   0.626 -0.1854  0.2514 -0.5504
   25HFI     H1  788   1.488   1.609   0.442 -0.3755  1.2807  1.1284
   25HFI     H2  789   1.676   1.428   0.346  0.8418  0.6808 -0.1520
   26HFI     O1  790   0.927   2.951   3.561 -0.8410  0.2313  0.1465
   26HFI     C1  791   0.906   2.855   3.459 -0.0721 -0.2837  0.0184
   26HFI     C2  792   1.025   2.854   3.366  0.1900  0.6110 -0.1242
   26HFI     F1  793   1.035   2.730   3.309  0.3425  0.3570 -0.5026
   26HFI     F2  794   1.141   2.875   3.434  0.4578  0.0849  0.0178
   26HFI     F3  795   1.026   2.948   3.267  0.2414 -0.0308  0.2734
   26HFI     C3  796   0.767   2.861   3.388  0.0744 -0.1134 -0.7136
   26HFI     F4  797   0.666   2.861   3.476  0.0978 -0.2552  0.1239
   26HFI     F5  798   0.756   2.752   3.305 -0.1781  0.2772  0.1991
   26HFI     F6  799   0.750   2.970   3.310 -0.2785  0.2050  0.9244
   26HFI     H1  800   0.930   3.036   3.514 -1.4452  0.4454  0.4923
   26HFI     H2  801   0.906   2.752   3.498 -1.3859 -0.7508 -1.1640
   27HFI     O1  802   1.845   3.238   0.600  0.2913 -0.1509  0.2226
   27HFI     C1  803   1.814   3.290   0.469  0.4309 -0.1585 -0.3288
   27HFI     C2  804   1.663   3.281   0.441 -0.0081 -0.6475 -0.6936
   27HFI     F1  805   1.619   3.156   0.460 -0.3641 -0.3794  0.4280
   27HFI     F2  806   1.638   3.334   0.318 -0.2023  0.1345 -0.3866
   27HFI     F3  807   1.598   3.362   0.528  0.5340 -0.4354 -0.0574
   27HFI     C3  808   1.888   3.216   0.361 -0.1215  0.3253 -0.1808
   27HFI     F4  809   1.910   3.289   0.251 -0.0059 -0.5109 -0.5271
   27HFI     F5  810   1.829   3.103   0.322  0.5556 -0.0884 -0.0342
   27HFI     F6  811   2.005   3.169   0.399  0.1292 -0.2314 -0.4046
   27HFI     H1  812   1.907   3.164   0.584 -0.5169 -1.1845  1.7590
   27HFI     H2  813   1.839   3.397   0.462 -1.7648  0.3524 -0.5296
   28HFI     O1  814   1.123   0.909   0.098 -0.5051  0.5841 -0.1101
   28HFI     C1  815   1.215   0.905  -0.022  0.4182 -0.6187  0.1583
   28HFI     C2  816   1.219   1.048  -0.084  0.3760 -0.0429 -0.7667
   28HFI     F1  817   1.270   1.051  -0.206  0.0060 -0.2984  0.0904
   28HFI     F2  818   1.287   1.135   0.001  0.4731  0.0125  0.1798
   28HFI     F3  819   1.093   1.095  -0.094 -0.2818 -0.6844  0.1059
   28HFI     C3  820   1.171   0.797  -0.121  0.5405 -0.5765 -0.7667
   28HFI     F4  821   1.077   0.841  -0.202  0.3616  0.3779  0.2466
   28HFI     F5  822   1.122   0.697  -0.051 -0.2982  0.5787 -0.3223
   28HFI     F6  823   1.270   0.760  -0.195  0.4170  0.2923  0.0856
   28HFI     H1  824   1.037   0.946   0.069 -0.5728  0.4312 -0.1032
   28HFI     H2  825   1.317   0.886   0.014  0.1809  3.2745  3.2223
   29HFI     O1  826   2.325   0.360   1.503 -0.3790  0.3744 -0.1041
   29HFI     C1  827   2.278   0.263   1.404  0.6463  0.4340 -0.2754
   29HFI     C2  828   2.247   0.324   1.264  0.4805 -0.2901 -0.3455
   29HFI     F1  829   2.231   0.230   1.165 -0.1369  0.1188 -0.3254
   29HFI     F2  830   2.356   0.398   1.232  0.0722 -0.0693  0.0261
   29HFI     F3  831   2.135   0.403   1.258  0.1771 -0.3987 -0.1324
   29HFI     C3  832   2.160   0.180   1.468  0.7001  0.4775 -0.5158
   29HFI     F4  833   2.135   0.069   1.395 -0.4746  0.1524 -0.5373
   29HFI     F5  834   2.046   0.251   1.469  0.1479 -0.0654 -0.1895
   29HFI     F6  835   2.179   0.153   1.597 -0.2333  0.0321 -0.2286
   29HFI     H1  836   2.336   0.447   1.461  0.8695 -0.7511 -2.1995
   29HFI     H2  837   2.353   0.187   1.381  0.5631  0.1902  0.2604
   30HFI     O1  838   2.070   1.758   0.583  0.2585  0.1840 -0.3652
   30HFI     C1  839   1.980   1.808   0.477 -0.6438 -0.2638  0.1612
   30HFI     C2  840   1.854   1.879   0.537 -0.1776  0.3880 -0.4305
   30HFI     F1  841   1.877   1.948   0.653  0.5005 -0.0487 -0.1649
   30HFI     F2  842   1.749   1.796   0.552  0.4182 -0.3286 -0.0972
   30HFI     F3  843   1.811   1.969   0.451  0.4262 -0.4487  0.3373
   30HFI     C3  844   1.951   1.697   0.372 -0.1835  0.2332  0.3181
   30HFI     F4  845   1.899   1.589   0.435 -0.5251 -0.5851  0.5343
   30HFI     F5  846   2.067   1.665   0.314  0.6735 -0.6495  0.2329
   30HFI     F6  847   1.864   1.733   0.269 -0.3409  0.0192 -0.4457
   30HFI     H1  848   2.042   1.668   0.606 -1.2395  0.5975 -0.5043
   30HFI     H2  849   2.024   1.881   0.409 -1.4017 -0.4603 -0.5474
   31HFI     O1  850   0.920   0.378   1.028  0.1497 -0.2603 -0.0521
   31HFI     C1  851   0.826   0.270   0.997  0.2905  0.0393 -0.3752
   31HFI     C2  852   0.814   0.164   1.113  0.2861  0.5577  0.1813
   31HFI     F1  853   0.713   0.077   1.090  0.4321 -0.4451 -0.2655
   31HFI     F2  854   0.778   0.221   1.239  1.1709 -0.6184  0.7419
   31HFI     F3  855   0.931   0.096   1.134 -0.2108 -0.4550  0.6026
   31HFI     C3  856   0.844   0.204   0.863 -0.3986  0.8159  0.7914
   31HFI     F4  857   0.737   0.125   0.827  0.1468  0.4499 -0.6729
   31HFI     F5  858   0.965   0.141   0.861 -0.4160  0.5370  0.3695
   31HFI     F6  859   0.853   0.297   0.766 -0.0622  0.2098  0.0994
   31HFI     H1  860   0.999   0.357   0.975 -0.7109 -1.6629 -0.8183
   31HFI     H2  861   0.726   0.313   0.986  0.6235  0.9413  0.0250
   32HFI     O1  862   1.158   2.975   1.034 -0.2644 -0.2056 -0.7704
   32HFI     C1  863   1.018   2.949   1.029 -0.2981  0.0537 -0.5559
   32HFI     C2  864   0.947   3.015   1.153 -0.1180  0.3706  0.5925
   32HFI     F1  865   0.987   3.139   1.165  0.8060 -0.1786  0.5155
   32HFI     F2  866   0.977   2.949   1.271 -0.3447 -0.1580 -0.0677
   32HFI     F3  867   0.809   3.018   1.143  0.0098 -0.0891 -0.2751
   32HFI     C3  868   0.982   2.802   1.027 -0.1988 -0.6302 -0.7289
   32HFI     F4  869   1.055   2.737   1.119  0.3582  0.3314 -0.7207
   32HFI     F5  870   1.023   2.755   0.901 -0.3425  0.6491 -0.1803
   32HFI     F6  871   0.851   2.776   1.049  0.0366  0.4351  0.3627
   32HFI     H1  872   1.198   2.935   1.113  1.9814 -1.6458 -2.6033
   32HFI     H2  873   0.978   3.003   0.942  0.1446  1.7883  0.2958
   33HFI     O1  874   2.364   0.934   0.979  0.4019 -0.4015 -0.9614
   33HFI     C1  875   2.411   1.052   1.043 -0.0733 -0.4755  0.1424
   33HFI     C2  876   2.315   1.171   1.001 -0.5492 -0.5467 -0.6296
   33HFI     F1  877   2.186   1.141   1.022 -0.7045 -0.0337 -0.4827
   33HFI     F2  878   2.331   1.199   0.872 -0.4788 -0.7785  0.2097
   33HFI     F3  879   2.343   1.284   1.072 -0.3165 -0.2899  0.4646
   33HFI     C3  880   2.563   1.068   1.002  0.2482 -0.0163 -0.6316
   33HFI     F4  881   2.636   1.006   1.098  0.5744 -0.6123 -0.0188
   33HFI     F5  882   2.595   1.200   1.002  0.2225 -0.8563  0.0079
   33HFI     F6  883   2.589   1.015   0.876 -0.0741  0.1188 -0.1584
   33HFI     H1  884   2.390   0.926   0.885 -0.0839 -2.4821 -0.9374
   33HFI     H2  885   2.392   1.049   1.151  2.3008  0.1124  0.6031
   34HFI     O1  886   0.081   2.903   0.579 -0.2189 -0.3841  0.1780
   34HFI     C1  887   0.130   3.009   0.492  0.0276  0.0766 -0.5290
   34HFI     C2  888   0.031   3.052   0.383 -0.2854 -0.0266 -0.1066
   34HFI     F1  889  -0.091   3.092   0.436  0.3369 -0.1701 -0.0030
   34HFI     F2  890   0.006   2.954   0.291  0.0451  0.4584 -0.6238
   34HFI     F3  891   0.071   3.158   0.309  0.2404  0.1321  0.0820
   34HFI     C3  892   0.272   2.994   0.439  0.2831  0.2184  0.2031
   34HFI     F4  893   0.283   2.934   0.318 -0.4192  0.1153  0.3426
   34HFI     F5  894   0.350   2.926   0.525 -0.2308 -0.2672  0.4979
   34HFI     F6  895   0.325   3.116   0.428 -0.3215 -0.5943 -0.1395
   34HFI     H1  896   0.061   2.824   0.527  1.6646 -0.5169 -0.4013
   34HFI     H2  897   0.137   3.102   0.549  0.1598 -0.7697  0.8720
   35HFI     O1  898   0.180   1.600   1.230  0.5372 -0.2938  0.3829
   35HFI     C1  899   0.180   1.615   1.375  0.5199 -0.5951 -0.2154
   35HFI     C2  900   0.092   1.740   1.414 -0.7944 -0.3478  0.5981
   35HFI     F1  901   0.146   1.849   1.358 -0.9498  0.2370 -0.2001
   35HFI     F2  902   0.090   1.757   1.548  0.6819 -0.0186 -0.6551
   35HFI     F3  903  -0.030   1.718   1.367  0.4290  0.3032 -0.6335
   35HFI     C3  904   0.324   1.605   1.438 -0.1986  0.8197 -0.4861
   35HFI     F4  905   0.312   1.594   1.573 -0.0482 -0.0496  0.0366
   35HFI     F5  906   0.404   1.711   1.410  0.1753  0.1528  0.1707
   35HFI     F6  907   0.393   1.495   1.398  0.0183  0.5847  0.2123
   35HFI     H1  908   0.240   1.528   1.201 -3.2970 -2.8843 -1.5941
   35HFI     H2  909   0.122   1.537   1.426  0.2304 -1.7469 -2.2661
   36HFI     O1  910   3.316   2.768   1.273  0.0519  0.2405 -0.0203
   36HFI     C1  911   3.285   2.909   1.299 -0.2116 -0.3013  0.1228
   36HFI     C2  912   3.382   3.009   1.230 -0.3584  0.3609  0.1685
   36HFI     F1  913   3.331   3.131   1.225  0.1790 -0.5184 -0.3510
   36HFI     F2  914   3.407   2.973   1.100  0.0495 -0.4610 -0.1334
   36HFI     F3  915   3.501   3.014   1.291 -0.5215 -0.8354  0.0328
   36HFI     C3  916   3.274   2.941   1.455  0.3579 -0.4011 -0.1524
   36HFI     F4  917   3.175   2.858   1.511  0.2895 -0.1641 -0.4062
   36HFI     F5  918   3.224   3.066   1.483  0.0010  0.0297  0.5404
   36HFI     F6  919   3.386   2.910   1.524 -0.0279  0.4099 -0.4028
   36HFI     H1  920   3.396   2.752   1.327  0.1661 -0.8142 -0.4926
   36HFI     H2  921   3.186   2.932   1.257 -0.3572  2.4569  1.8975
   37HFI     O1  922   0.167   2.309   1.299 -0.3380 -0.0154 -0.2018
   37HFI     C1  923   0.259   2.333   1.407  0.0405  0.2844  0.7526
   37HFI     C2  924   0.290   2.206   1.491 -0.1167 -0.0840  0.9066
   37HFI     F1  925   0.196   2.168   1.579 -0.0955  0.1831  0.0132
   37HFI     F2  926   0.397   2.231   1.557 -0.2360 -0.2218 -0.4726
   37HFI     F3  927   0.321   2.103   1.414  0.2480 -0.4781  0.3277
   37HFI     C3  928   0.214   2.457   1.487 -0.0494 -0.3588 -0.9096
   37HFI     F4  929   0.166   2.556   1.408  0.2261 -0.3724 -0.0467
   37HFI     F5  930   0.316   2.505   1.561  0.1233 -0.2405 -0.2018
   37HFI     F6  931   0.111   2.437   1.577 -0.8045 -0.1213 -0.3379
   37HFI     H1  932   0.148   2.214   1.295  2.0887 -0.7499  3.4440
   37HFI     H2  933   0.356   2.368   1.369 -0.7907  1.0285 -0.7006
   38HFI     O1  934   0.268   0.548   1.409 -0.4670  0.3756 -0.3966
   38HFI     C1  935   0.170   0.591   1.507 -0.0281  0.0614  0.1738
   38HFI     C2  936   0.025   0.547   1.464  0.4812  0.0898  0.3178
   38HFI     F1  937  -0.077   0.573   1.546 -0.1094  0.3752  0.0024
   38HFI     F2  938   0.030   0.410   1.452  0.1151  0.3263 -0.2861
   38HFI     F3  939  -0.008   0.593   1.341 -0.2559  0.3735  0.0998
   38HFI     C3  940   0.180   0.747   1.531  0.2141  0.1298  0.2030
   38HFI     F4  941   0.085   0.794   1.613  0.5222 -0.3624  0.5430
   38HFI     F5  942   0.171   0.820   1.417 -0.4404 -0.4770 -0.2408
   38HFI     F6  943   0.295   0.776   1.595  0.1626  0.3750  0.7635
   38HFI     H1  944   0.357   0.583   1.426  0.5304 -1.8552 -0.8451
   38HFI     H2  945   0.185   0.550   1.607  0.9796 -2.4505 -0.9660
   39HFI     O1  946   0.679   1.777   1.316  0.1028 -0.8715 -0.0599
   39HFI     C1  947   0.785   1.834   1.405  0.4422  1.1617  0.5617
   39HFI     C2  948   0.825   1.730   1.511  0.0508  0.4317 -0.6163
   39HFI     F1  949   0.863   1.618   1.443  0.4848  0.0982 -0.0745
   39HFI     F2  950   0.728   1.693   1.591 -0.1290 -0.0738  0.0709
   39HFI     F3  951   0.936   1.773   1.571  0.0778 -0.1674  0.2259
   39HFI     C3  952   0.739   1.969   1.468  0.1047 -0.6265 -0.3050
   39HFI     F4  953   0.614   1.960   1.528 -0.2827 -0.3267  0.2975
   39HFI     F5  954   0.729   2.065   1.369  0.5318 -0.3073  0.2675
   39HFI     F6  955   0.825   2.021   1.564  0.3228  0.2280  0.9232
   39HFI     H1  956   0.592   1.789   1.357 -0.3375 -1.5577 -0.7665
   39HFI     H2  957   0.874   1.851   1.343  1.5660 -1.9109  1.2130
   40HFI     O1  958   2.086   0.805   0.529 -0.2234 -0.3115 -0.1515
   40HFI     C1  959   1.977   0.831   0.437 -0.4477 -0.4554 -0.4157
   40HFI     C2  960   1.979   0.728   0.318  0.2817 -0.6508  0.2636
   40HFI     F1  961   1.979   0.597   0.360 -0.2468 -0.0569 -0.4529
   40HFI     F2  962   2.087   0.743   0.239  0.4605  0.5233 -0.0969
   40HFI     F3  963   1.872   0.746   0.235  0.3919  0.2818  0.5123
   40HFI     C3  964   1.981   0.977   0.402  0.4399 -0.0959  0.6538
   40HFI     F4  965   1.981   1.049   0.519  0.2858  0.2613 -0.1351
   40HFI     F5  966   1.878   1.007   0.322  0.1293 -0.4139  0.2392
   40HFI     F6  967   2.090   1.008   0.342 -0.4129 -0.4457 -0.0019
   40HFI     H1  968   2.152   0.860   0.484 -0.2744  1.1416  1.4812
   40HFI     H2  969   1.882   0.814   0.490  1.2731 -1.8949  2.2894
   41HFI     O1  970   2.869   3.166   0.607 -0.2704 -0.5345  0.0960
   41HFI     C1  971   2.793   3.070   0.535 -0.4893  0.9173 -0.8773
   41HFI     C2  972   2.875   3.008   0.414  0.0667  0.0808 -0.3715
   41HFI     F1  973   2.944   3.104   0.349  0.0877 -0.2042  0.0652
   41HFI     F2  974   2.790   2.964   0.321  0.0277 -0.0906 -0.4767
   41HFI     F3  975   2.966   2.906   0.451  0.5866 -0.3807  0.2690
   41HFI     C3  976   2.658   3.121   0.498  0.0773 -0.4224 -0.2708
   41HFI     F4  977   2.600   3.191   0.600  0.1179  0.0011 -0.3131
   41HFI     F5  978   2.563   3.020   0.463  0.0269 -0.5129  0.3870
   41HFI     F6  979   2.664   3.204   0.397 -0.2032 -0.4014 -0.1042
   41HFI     H1  980   2.890   3.245   0.554  1.6446  0.2663  1.9737
   41HFI     H2  981   2.783   2.979   0.597  2.5312  1.7203  0.9216
   42HFI     O1  982   3.226   2.567   3.630  0.6032  0.1304  0.3872
   42HFI     C1  983   3.364   2.518   3.613  0.3348  0.1022 -0.3222
   42HFI     C2  984   3.469   2.632   3.603  1.0617  0.1872  0.4873
   42HFI     F1  985   3.419   2.738   3.525 -0.5556  0.3564 -0.1573
   42HFI     F2  986   3.590   2.590   3.562 -0.3009 -0.2196 -0.5911
   42HFI     F3  987   3.488   2.682   3.727  0.0550  0.5168  0.0877
   42HFI     C3  988   3.374   2.434   3.486  0.3088  0.6595 -0.1416
   42HFI     F4  989   3.272   2.343   3.475 -0.1258  0.1060 -0.2073
   42HFI     F5  990   3.492   2.362   3.483 -0.2323  0.1411 -0.9416
   42HFI     F6  991   3.371   2.504   3.370  0.5748 -0.0397 -0.3900
   42HFI     H1  992   3.201   2.599   3.542  3.7436  0.9645 -0.2581
   42HFI     H2  993   3.391   2.455   3.699 -0.9463  0.3937  0.3034
   43HFI     O1  994   2.034   0.217   0.549 -0.3874 -0.2239 -0.0052
   43HFI     C1  995   2.161   0.173   0.615 -0.0240 -0.5529 -0.0672
   43HFI     C2  996   2.238   0.302   0.646  0.6940 -0.6481  0.7251
   43HFI     F1  997   2.150   0.394   0.695  0.4906  0.2740  0.3692
   43HFI     F2  998   2.292   0.362   0.539 -0.0986  0.1266  0.0877
   43HFI     F3  999   2.332   0.280   0.737 -0.6029  0.3477 -0.0775
   43HFI     C3 1000   2.234   0.069   0.531 -0.0036 -0.0459  0.5449
   43HFI     F4 1001   2.267   0.128   0.415  0.3247  0.2447 -0.5803
   43HFI     F5 1002   2.156  -0.038   0.512  0.2109  0.1145 -0.1061
   43HFI     F6 1003   2.346   0.024   0.591 -0.3053 -0.2742  0.2216
   43HFI     H1 1004   2.042   0.250   0.458 -3.6576 -0.0452 -0.2922
   43HFI     H2 1005   2.152   0.118   0.709  0.5143 -1.8858 -0.7935
   44HFI     O1 1006   1.908   1.589   0.801 -0.7090 -0.0485 -0.5490
   44HFI     C1 1007   1.925   1.638   0.943 -0.4788 -0.0619 -0.1249
   44HFI     C2 1008   2.078   1.622   0.985 -0.2138 -0.2510  0.3436
   44HFI     F1 1009   2.090   1.667   1.110  0.0825  0.0867 -0.3646
   44HFI     F2 1010   2.155   1.703   0.904  0.3770  0.5509  0.1349
   44HFI     F3 1011   2.124   1.496   0.973  0.4407  0.0330 -0.0598
   44HFI     C3 1012   1.840   1.554   1.054 -0.1176 -0.2285  0.4181
   44HFI     F4 1013   1.904   1.445   1.108  0.5345  0.4693 -0.6908
   44HFI     F5 1014   1.727   1.519   1.000 -0.5016  0.0196 -0.1527
   44HFI     F6 1015   1.817   1.640   1.152  0.3007 -0.4965 -0.0357
   44HFI     H1 1016   1.832   1.530   0.792 -0.5592 -0.3969  0.4147
   44HFI     H2 1017   1.901   1.745   0.950 -0.8121 -0.2324  1.4663
   45HFI     O1 1018   2.917   1.026   1.533 -0.1301 -0.1732  0.2814
   45HFI     C1 1019   2.887   0.924   1.436 -0.3912  0.3347  0.4945
   45HFI     C2 1020   2.736   0.887   1.439 -0.8978 -0.4617 -0.1843
   45HFI     F1 1021   2.717   0.781   1.358 -0.1812  0.2124 -0.5355
   45HFI     F2 1022   2.665   0.991   1.387  0.1554 -0.0182  0.2120
   45HFI     F3 1023   2.688   0.862   1.565 -0.2529 -0.1416  0.5834
   45HFI     C3 1024   2.988   0.799   1.448 -0.0827 -0.3911  0.3947
   45HFI     F4 1025   2.980   0.721   1.339  0.5044 -0.3872 -0.2006
   45HFI     F5 1026   2.959   0.723   1.558  0.1559  0.5169 -0.5667
   45HFI     F6 1027   3.116   0.845   1.459  0.9088 -0.1239 -0.3271
   45HFI     H1 1028   2.868   1.005   1.614  0.3217 -1.2010  0.3004
   45HFI     H2 1029   2.908   0.956   1.333  0.7880 -0.9752  0.3048
   46HFI     O1 1030   2.693   2.672   1.292  0.0465  0.2287  0.0910
   46HFI     C1 1031   2.561   2.625   1.346  0.5054 -0.3928 -0.0549
   46HFI     C2 1032   2.461   2.645   1.228 -0.2998 -0.0966  0.0461
   46HFI     F1 1033   2.455   2.777   1.186  0.6455 -0.0185  0.1266
   46HFI     F2 1034   2.333   2.616   1.257 -0.0940 -0.2722 -0.0597
   46HFI     F3 1035   2.506   2.563   1.128 -0.1316 -0.0602  0.3744
   46HFI     C3 1036   2.525   2.691   1.480 -0.6492 -0.0775  0.5130
   46HFI     F4 1037   2.468   2.819   1.455 -0.1404 -0.2209 -0.1997
   46HFI     F5 1038   2.640   2.703   1.552 -0.0804 -0.0180 -0.3653
   46HFI     F6 1039   2.440   2.618   1.552  0.0798  0.0568  0.9306
   46HFI     H1 1040   2.760   2.676   1.362 -1.0673 -0.0475  1.1855
   46HFI     H2 1041   2.568   2.517   1.364 -0.6854 -0.3654  0.6959
   47HFI     O1 1042   3.225   0.266   0.543 -0.4238 -0.0242 -0.4670
   47HFI     C1 1043   3.242   0.203   0.417 -0.3659  1.3459 -0.7003
   47HFI     C2 1044   3.340   0.080   0.438  0.0052 -0.0913 -0.5843
   47HFI     F1 1045   3.441   0.121   0.522  0.2489 -0.0700  0.1225
   47HFI     F2 1046   3.391   0.036   0.328  0.4298 -0.4561  0.1031
   47HFI     F3 1047   3.272  -0.013   0.502 -0.1933 -0.2244  0.3243
   47HFI     C3 1048   3.299   0.295   0.308  0.5490 -0.3645  0.0711
   47HFI     F4 1049   3.313   0.235   0.189 -0.3450 -1.1808  0.2005
   47HFI     F5 1050   3.408   0.354   0.350  0.2483  0.1023 -0.0536
   47HFI     F6 1051   3.208   0.397   0.290 -0.3591  0.0735 -0.2525
   47HFI     H1 1052   3.303   0.323   0.558 -0.4089  0.5437 -2.5711
   47HFI     H2 1053   3.157   0.141   0.384  1.5161 -2.3966  1.0845
   48HFI     O1 1054   2.713   2.357   1.086  0.1163  0.5713 -0.3254
   48HFI     C1 1055   2.741   2.233   1.016 -0.3256  0.1291  0.8264
   48HFI     C2 1056   2.890   2.180   1.032 -0.1319 -0.4099  0.0885
   48HFI     F1 1057   2.982   2.262   0.980  0.0356  0.0370  0.4464
   48HFI     F2 1058   2.904   2.058   0.968 -0.1266  0.4602  0.0402
   48HFI     F3 1059   2.923   2.165   1.163 -0.0467  0.6670  0.2481
   48HFI     C3 1060   2.693   2.249   0.875 -0.4082 -0.6426 -0.1586
   48HFI     F4 1061   2.748   2.354   0.816 -0.7604  0.0848 -0.3402
   48HFI     F5 1062   2.560   2.271   0.882  0.2162 -0.1300  0.9181
   48HFI     F6 1063   2.714   2.143   0.801  0.7522 -0.4238 -0.2374
   48HFI     H1 1064   2.647   2.415   1.045  0.9230  1.9415  0.2711
   48HFI     H2 1065   2.693   2.144   1.059 -1.4040 -0.1165 -0.8132
   49HFI     O1 1066   1.968   3.071   1.383  0.6283  0.0283  0.4223
   49HFI     C1 1067   2.105   3.113   1.359 -0.1056 -0.3308  0.1651
   49HFI     C2 1068   2.182   2.997   1.295 -0.0044 -0.4008 -0.7574
   49HFI     F1 1069   2.312   3.029   1.288  0.1695 -0.3914  0.2203
   49HFI     F2 1070   2.141   2.968   1.169 -0.6587 -0.0688 -0.3148
   49HFI     F3 1071   2.174   2.881   1.363  0.2011  0.0732 -0.5422
   49HFI     C3 1072   2.171   3.174   1.478 -0.4180 -0.7070  0.4427
   49HFI     F4 1073   2.294   3.229   1.439 -0.0687 -0.0560  0.1650
   49HFI     F5 1074   2.193   3.077   1.569  0.1839 -0.2678 -0.1876
   49HFI     F6 1075   2.101   3.275   1.535  0.1965 -0.3082  0.2535
   49HFI     H1 1076   1.939   3.130   1.454 -2.1286  1.2418 -1.6083
   49HFI     H2 1077   2.094   3.193   1.284 -2.5284 -1.3833 -0.6722
   50HFI     O1 1078   2.252   0.047   0.912  0.2542 -0.3566  0.2302
   50HFI     C1 1079   2.347  -0.058   0.936 -0.8941 -0.1625  0.2822
   50HFI     C2 1080   2.307  -0.146   1.054  0.1372  0.0405 -0.6061
   50HFI     F1 1081   2.313  -0.079   1.173  0.2875 -0.0682 -0.5904
   50HFI     F2 1082   2.387  -0.251   1.068 -0.5510 -0.1530  0.5763
   50HFI     F3 1083   2.184  -0.194   1.045  0.1808  0.3436  0.1491
   50HFI     C3 1084   2.497  -0.001   0.953  0.4989 -0.1378  0.4337
   50HFI     F4 1085   2.508   0.107   1.034 -0.2138  0.1067 -0.1641
   50HFI     F5 1086   2.542   0.040   0.828  0.1655 -0.2752  0.4114
   50HFI     F6 1087   2.583  -0.086   1.002  1.0643 -0.0189 -0.0238
   50HFI     H1 1088   2.275   0.124   0.967  0.7162 -1.4085  1.5410
   50HFI     H2 1089   2.343  -0.122   0.847  2.9711  0.5897 -0.5612
   51HFI     O1 1090   2.153   1.870   2.677  0.4540  0.0398 -0.5550
   51HFI     C1 1091   2.179   2.017   2.667 -0.7225 -0.0352 -0.3823
   51HFI     C2 1092   2.307   2.057   2.749 -0.0381 -0.0204  0.2067
   51HFI     F1 1093   2.297   2.025   2.882 -0.2963  0.7902  0.7009
   51HFI     F2 1094   2.339   2.189   2.736 -0.8188 -0.1774 -0.2119
   51HFI     F3 1095   2.412   1.987   2.699 -0.0141  0.4037  0.4326
   51HFI     C3 1096   2.059   2.104   2.708  0.3513 -0.4061 -0.1685
   51HFI     F4 1097   1.949   2.060   2.638 -0.1956 -0.1081  0.1743
   51HFI     F5 1098   2.074   2.229   2.685 -0.0566 -0.3637 -0.1754
   51HFI     F6 1099   2.027   2.082   2.838  0.0538  0.2358 -0.0598
   51HFI     H1 1100   2.076   1.846   2.623 -1.5833  0.0423  2.2086
   51HFI     H2 1101   2.199   2.038   2.561  2.3613  1.0518  0.3750
   52HFI     O1 1102   0.037   2.685   0.399 -0.2975 -0.5245  0.1288
   52HFI     C1 1103   0.106   2.556   0.417  0.0815  0.0936 -0.2187
   52HFI     C2 1104   0.231   2.526   0.323  0.1106  0.3608 -0.1631
   52HFI     F1 1105   0.296   2.416   0.363  0.0015  0.1849 -0.3609
   52HFI     F2 1106   0.319   2.622   0.316 -0.3171 -0.8585 -0.0536
   52HFI     F3 1107   0.190   2.506   0.195 -0.1162  0.1609 -0.0840
   52HFI     C3 1108  -0.007   2.443   0.423  0.3462 -0.0383  0.2654
   52HFI     F4 1109   0.057   2.326   0.456 -0.0009  0.0873  0.8187
   52HFI     F5 1110  -0.074   2.427   0.309 -0.1122 -0.0675 -0.1471
   52HFI     F6 1111  -0.107   2.469   0.509 -0.5498 -0.1449  0.0252
   52HFI     H1 1112  -0.036   2.660   0.340  0.4478 -1.9661 -0.1904
   52HFI     H2 1113   0.143   2.555   0.521 -1.0692 -0.7137  0.1977
   53HFI     O1 1114   1.135   0.996   1.598  0.2231 -0.3592 -0.2010
   53HFI     C1 1115   1.231   0.915   1.530 -0.1077 -0.1183 -0.3305
   53HFI     C2 1116   1.366   0.985   1.517  0.3970  0.5033 -0.0376
   53HFI     F1 1117   1.446   0.947   1.416 -0.5356 -0.0274 -0.1450
   53HFI     F2 1118   1.439   0.981   1.632  0.1065 -0.0351 -0.8383
   53HFI     F3 1119   1.344   1.109   1.490  0.3723  0.0652 -0.0417
   53HFI     C3 1120   1.184   0.867   1.387 -0.4503 -0.1387 -0.0889
   53HFI     F4 1121   1.159   0.958   1.297  0.1742 -0.1238  0.0597
   53HFI     F5 1122   1.070   0.796   1.400  0.0451  0.0344  0.0516
   53HFI     F6 1123   1.280   0.781   1.342  0.5806 -0.2761  0.2535
   53HFI     H1 1124   1.103   1.070   1.544 -0.2139 -0.1955  0.2739
   53HFI     H2 1125   1.252   0.824   1.587 -0.1555 -0.0062 -0.1319
   54HFI     O1 1126   3.351   1.241   3.332 -0.0745  0.1657  0.1545
   54HFI     C1 1127   3.384   1.175   3.208 -0.0461  0.3683 -0.7708
   54HFI     C2 1128   3.438   1.028   3.237 -0.3970 -0.6193 -0.5376
   54HFI     F1 1129   3.437   0.954   3.121  0.2204 -0.2680 -0.1779
   54HFI     F2 1130   3.363   0.973   3.337  0.3213 -0.3443 -0.1707
   54HFI     F3 1131   3.560   1.030   3.289 -0.2262  0.2223 -0.0245
   54HFI     C3 1132   3.487   1.263   3.122  0.3901  0.0694  0.1348
   54HFI     F4 1133   3.529   1.183   3.021  0.3724 -0.0492  0.6183
   54HFI     F5 1134   3.592   1.303   3.195 -0.0378 -0.5118  0.0032
   54HFI     F6 1135   3.435   1.371   3.070 -0.1622 -0.7256 -0.0834
   54HFI     H1 1136   3.428   1.258   3.389 -2.1989  0.9415  2.9088
   54HFI     H2 1137   3.294   1.156   3.149  0.0736 -2.6595 -0.0858
   55HFI     O1 1138   0.800   2.692   1.587  0.4194  0.1254 -0.2723
   55HFI     C1 1139   0.825   2.556   1.538  0.4536  0.0112  0.5012
   55HFI     C2 1140   0.912   2.555   1.403  0.3603 -0.5431  0.3418
   55HFI     F1 1141   0.936   2.427   1.361 -0.2879  0.4516 -0.1943
   55HFI     F2 1142   1.033   2.613   1.425  0.3718 -0.1141  0.3367
   55HFI     F3 1143   0.856   2.620   1.300 -0.7373 -0.2183  0.2126
   55HFI     C3 1144   0.696   2.473   1.513 -0.5106  0.0574 -0.3725
   55HFI     F4 1145   0.726   2.340   1.505  0.6870  0.0019 -0.1234
   55HFI     F5 1146   0.620   2.505   1.412 -0.4877 -0.0660  0.4894
   55HFI     F6 1147   0.615   2.486   1.618 -0.2204 -0.0104  0.0774
   55HFI     H1 1148   0.738   2.734   1.524 -3.3388 -0.7816  2.6576
   55HFI     H2 1149   0.885   2.491   1.603  0.7835 -1.3074 -1.0650
   56HFI     O1 1150   3.218   0.478   3.495  0.1320 -0.0016 -0.4556
   56HFI     C1 1151   3.192   0.573   3.608  0.0951 -0.2722  1.0739
   56HFI     C2 1152   3.304   0.678   3.625 -0.0148 -0.4656  0.2675
   56HFI     F1 1153   3.427   0.629   3.641 -0.0318  0.3596 -0.5081
   56HFI     F2 1154   3.273   0.755   3.733  0.1105 -0.1477  0.0471
   56HFI     F3 1155   3.322   0.759   3.519 -0.5861 -0.4576  0.3085
   56HFI     C3 1156   3.165   0.499   3.744 -0.1225  0.7783  0.7776
   56HFI     F4 1157   3.117   0.371   3.724  0.2041  0.1721 -0.0561
   56HFI     F5 1158   3.070   0.564   3.813  0.5189 -0.5410  0.3659
   56HFI     F6 1159   3.275   0.483   3.823 -0.4835 -0.5192  0.0107
   56HFI     H1 1160   3.289   0.415   3.516 -0.1683  0.3069  1.5644
   56HFI     H2 1161   3.108   0.636   3.577 -1.7952 -2.4674  1.5549
   57HFI     O1 1162   1.275   3.103   0.825 -0.8153 -0.3127  0.2209
   57HFI     C1 1163   1.356   3.218   0.853  0.8087 -1.3130 -0.2473
   57HFI     C2 1164   1.350   3.252   1.011 -0.2045  0.5730 -0.2097
   57HFI     F1 1165   1.234   3.297   1.052  0.1889  0.2124  0.1136
   57HFI     F2 1166   1.435   3.347   1.043 -0.0259 -0.3514 -0.0068
   57HFI     F3 1167   1.382   3.137   1.084  0.2787  0.3218  0.1585
   57HFI     C3 1168   1.322   3.335   0.756  0.1833  0.2137 -0.5141
   57HFI     F4 1169   1.393   3.448   0.772  0.2774  0.5072  0.2858
   57HFI     F5 1170   1.194   3.375   0.780 -0.3907  0.2775 -0.3660
   57HFI     F6 1171   1.326   3.299   0.625  0.2787 -0.6001  0.0794
   57HFI     H1 1172   1.257   3.053   0.907 -2.2497  0.4950  0.4174
   57HFI     H2 1173   1.462   3.195   0.838  0.7520 -1.2541 -0.7319
   58HFI     O1 1174   2.695   3.123   1.550  0.1330  0.5468 -0.2563
   58HFI     C1 1175   2.736   3.226   1.455  0.2358 -0.0228 -1.3638
   58HFI     C2 1176   2.886   3.233   1.443 -0.7224  0.3494 -0.9615
   58HFI     F1 1177   2.933   3.134   1.362 -0.2202  0.1289  0.2782
   58HFI     F2 1178   2.961   3.231   1.552 -0.4239  0.1587  0.5157
   58HFI     F3 1179   2.917   3.346   1.377 -0.0985 -0.1274  0.2274
   58HFI     C3 1180   2.674   3.370   1.484  0.0288  0.3985 -0.7547
   58HFI     F4 1181   2.732   3.439   1.583  0.0967 -0.5452 -0.3095
   58HFI     F5 1182   2.536   3.360   1.519  0.0978  0.5358 -0.1324
   58HFI     F6 1183   2.684   3.447   1.373  0.3897  0.7604  0.5405
   58HFI     H1 1184   2.620   3.167   1.596 -0.7426 -1.5466  0.3593
   58HFI     H2 1185   2.701   3.195   1.356  0.2726 -1.7436 -0.8518
   59HFI     O1 1186   0.890   3.377   0.665  0.0835 -0.1684  0.5942
   59HFI     C1 1187   0.891   3.247   0.603 -0.9711  0.9934  0.3442
   59HFI     C2 1188   0.883   3.260   0.447 -0.0667 -0.2277  0.3406
   59HFI     F1 1189   0.970   3.356   0.404  0.6526  0.3296  0.0455
   59HFI     F2 1190   0.757   3.304   0.417  0.1355 -0.0342 -0.3030
   59HFI     F3 1191   0.907   3.142   0.385 -0.4315  0.1809 -0.0616
   59HFI     C3 1192   0.780   3.160   0.670 -0.0953 -0.0501 -0.3457
   59HFI     F4 1193   0.783   3.036   0.617  0.3961  0.3876  0.5990
   59HFI     F5 1194   0.658   3.208   0.642 -0.0863 -0.1496 -0.2210
   59HFI     F6 1195   0.790   3.152   0.806 -0.4376  0.4530  0.1533
   59HFI     H1 1196   0.920   3.364   0.757 -1.2754 -1.7465  0.8246
   59HFI     H2 1197   0.986   3.195   0.623 -0.3717  2.9293  2.7159
   60HFI     O1 1198   1.719   2.998   3.597  0.4893 -0.3116 -0.5503
   60HFI     C1 1199   1.744   3.129   3.536  0.6975 -0.1125 -0.2601
   60HFI     C2 1200   1.859   3.123   3.436  0.0853 -0.4633  0.2721
   60HFI     F1 1201   1.850   3.018   3.353  0.2188  0.3148  0.0440
   60HFI     F2 1202   1.986   3.114   3.489  0.2641  0.2329  0.1600
   60HFI     F3 1203   1.852   3.232   3.358 -0.4312 -0.1153 -0.1081
   60HFI     C3 1204   1.774   3.235   3.645  0.4916  0.4881 -0.4689
   60HFI     F4 1205   1.788   3.364   3.594  0.0520  0.4494  0.0896
   60HFI     F5 1206   1.885   3.216   3.726  0.4030 -0.6212 -0.5032
   60HFI     F6 1207   1.661   3.233   3.725  0.2571  0.0481 -0.2194
   60HFI     H1 1208   1.674   3.010   3.683 -2.3690 -0.2364 -1.9955
   60HFI     H2 1209   1.662   3.170   3.476  0.0953  1.6236  1.7179
   61HFI     O1 1210   3.029   2.696   3.779 -0.3294  0.4902  0.1742
   61HFI     C1 1211   3.064   2.779   3.893  0.3491 -0.4339 -0.0705
   61HFI     C2 1212   3.115   2.923   3.842 -0.0007  0.1843 -0.7132
   61HFI     F1 1213   3.083   3.015   3.938 -0.4124  0.5007  0.4398
   61HFI     F2 1214   3.048   2.965   3.726 -0.1207  0.1389 -0.1114
   61HFI     F3 1215   3.244   2.919   3.814  0.0384  0.4145  0.0532
   61HFI     C3 1216   3.157   2.698   3.994 -0.2205 -0.5690 -1.0537
   61HFI     F4 1217   3.098   2.578   4.021 -0.0414  0.3382 -0.3833
   61HFI     F5 1218   3.183   2.768   4.102  0.7706 -0.2535  0.2908
   61HFI     F6 1219   3.280   2.673   3.941 -0.0074  0.1548  0.1807
   61HFI     H1 1220   3.105   2.644   3.748 -0.6275  0.2232 -0.1167
   61HFI     H2 1221   2.969   2.798   3.943  0.2231 -1.1532 -0.0297
   62HFI     O1 1222   1.050   0.633   0.939 -0.4227  0.5275  0.0810
   62HFI     C1 1223   0.947   0.727   0.918  0.6603 -0.1326  0.4460
   62HFI     C2 1224   0.942   0.778   0.767 -0.7489  0.3968  0.3283
   62HFI     F1 1225   0.813   0.808   0.734 -0.4998 -0.0069  0.2604
   62HFI     F2 1226   0.987   0.684   0.678 -0.1718 -0.1272  0.1114
   62HFI     F3 1227   1.020   0.892   0.751  0.0506 -0.1492 -0.4622
   62HFI     C3 1228   0.934   0.845   1.017  0.0241  0.3356 -0.3597
   62HFI     F4 1229   1.047   0.921   1.022  1.2772 -0.0135  0.1028
   62HFI     F5 1230   0.912   0.798   1.146  0.8051 -0.8808  0.3275
   62HFI     F6 1231   0.833   0.922   0.989  0.2324  0.0233  0.5810
   62HFI     H1 1232   1.127   0.684   0.969 -1.0826  1.4225  0.2738
   62HFI     H2 1233   0.847   0.683   0.932  0.3806  0.5874  0.7196
   63HFI     O1 1234   0.725   1.255   0.509  0.0559  0.0642  0.5249
   63HFI     C1 1235   0.848   1.333   0.539 -0.6672  0.2319 -0.6654
   63HFI     C2 1236   0.958   1.236   0.608 -0.0056 -0.7064 -0.2703
   63HFI     F1 1237   0.976   1.125   0.546 -0.2526 -0.4625  0.5405
   63HFI     F2 1238   0.909   1.211   0.732 -0.4459 -0.3229  0.2085
   63HFI     F3 1239   1.073   1.304   0.627 -0.2046  0.0808  0.4454
   63HFI     C3 1240   0.810   1.461   0.628 -0.2454  0.5319 -0.3480
   63HFI     F4 1241   0.706   1.522   0.577 -0.0138  0.0358  0.3744
   63HFI     F5 1242   0.911   1.548   0.635 -0.2572 -0.0925  0.3039
   63HFI     F6 1243   0.778   1.424   0.756  0.4447 -0.1848  0.1499
   63HFI     H1 1244   0.696   1.200   0.584  1.7824 -3.0295 -0.9882
   63HFI     H2 1245   0.887   1.372   0.445 -1.0082  1.0758 -0.4677
   64HFI     O1 1246   1.826   2.885   1.187  0.2461  0.0350  0.1184
   64HFI     C1 1247   1.789   2.931   1.059 -0.3064 -0.5740 -0.3674
   64HFI     C2 1248   1.794   3.084   1.053 -0.5154  0.0263 -0.0486
   64HFI     F1 1249   1.768   3.124   0.924  0.0496 -0.6368  0.1126
   64HFI     F2 1250   1.909   3.128   1.088 -0.4695 -0.0978  0.1089
   64HFI     F3 1251   1.695   3.142   1.131 -0.4371 -0.1726  0.3301
   64HFI     C3 1252   1.640   2.874   1.029 -0.5806 -0.4335  0.4302
   64HFI     F4 1253   1.649   2.746   0.992 -0.0026  0.6705  0.0774
   64HFI     F5 1254   1.568   2.940   0.934 -0.1854 -0.2834 -0.1702
   64HFI     F6 1255   1.563   2.882   1.141 -0.3876  0.3555  0.0330
   64HFI     H1 1256   1.917   2.916   1.202 -0.6020  1.6138  2.3215
   64HFI     H2 1257   1.855   2.894   0.980  0.0384  2.5538 -1.5879
   65HFI     O1 1258   3.357   1.018   1.413 -0.7094  0.3444 -0.0369
   65HFI     C1 1259   3.402   1.127   1.487  0.0671  0.5136 -0.0728
   65HFI     C2 1260   3.340   1.266   1.435  0.4142  0.0426 -0.1493
   65HFI     F1 1261   3.211   1.251   1.410  0.6313 -0.0192 -0.5495
   65HFI     F2 1262   3.403   1.301   1.319 -0.0867  0.4896  0.6601
   65HFI     F3 1263   3.350   1.368   1.523  0.8134 -0.7288 -0.7395
   65HFI     C3 1264   3.562   1.153   1.493 -0.5280  0.2858 -0.6205
   65HFI     F4 1265   3.612   1.133   1.373 -0.5406  0.3301  0.0410
   65HFI     F5 1266   3.625   1.068   1.579  0.0722  0.1514 -0.3790
   65HFI     F6 1267   3.593   1.276   1.542  0.0524 -0.1302  0.3535
   65HFI     H1 1268   3.421   0.994   1.344 -2.1902  0.8305 -1.6121
   65HFI     H2 1269   3.363   1.116   1.588 -1.1607  1.1912 -0.4562
   66HFI     O1 1270   0.640   1.624   0.195  0.3404 -0.0766  0.0159
   66HFI     C1 1271   0.665   1.749   0.126 -0.0609  0.0724 -0.0618
   66HFI     C2 1272   0.546   1.801   0.042 -0.5414 -0.4746 -0.3501
   66HFI     F1 1273   0.566   1.922  -0.014 -1.0579  0.0818 -0.0909
   66HFI     F2 1274   0.436   1.824   0.121 -0.3943 -0.2287 -0.4539
   66HFI     F3 1275   0.494   1.721  -0.060  0.0399  0.1973 -0.1903
   66HFI     C3 1276   0.795   1.755   0.053  0.3744  0.1350  0.4286
   66HFI     F4 1277   0.838   1.882   0.040  0.4318 -0.3866  0.0974
   66HFI     F5 1278   0.797   1.693  -0.065 -0.0405  0.2230  0.1316
   66HFI     F6 1279   0.881   1.696   0.125  0.4090  0.5474 -0.1701
   66HFI     H1 1280   0.710   1.556   0.192  0.1966 -0.3389  1.7357
   66HFI     H2 1281   0.663   1.828   0.202 -0.0372  0.0620 -0.0501
   67HFI     O1 1282   0.995   0.537   2.895 -0.0399  0.4434 -0.0751
   67HFI     C1 1283   1.125   0.476   2.901 -0.3471  0.3176  0.3943
   67HFI     C2 1284   1.159   0.432   2.756 -0.2556  0.0320  0.2746
   67HFI     F1 1285   1.288   0.397   2.752  0.1680 -0.4627 -0.0708
   67HFI     F2 1286   1.150   0.539   2.676  0.3213  0.0381 -0.0982
   67HFI     F3 1287   1.081   0.332   2.709 -0.5088 -0.3551  0.3151
   67HFI     C3 1288   1.136   0.361   3.005 -0.4704  0.5872 -0.5406
   67HFI     F4 1289   1.126   0.419   3.128  0.1021 -0.4772  0.1124
   67HFI     F5 1290   1.252   0.292   3.009 -0.3159 -0.0957  0.3401
   67HFI     F6 1291   1.028   0.276   2.984 -0.2930 -0.1799 -0.3690
   67HFI     H1 1292   0.936   0.461   2.903 -0.1009  0.4759 -0.2160
   67HFI     H2 1293   1.202   0.548   2.931  0.9551 -1.0872  0.4179
   68HFI     O1 1294   0.034   1.948   3.651 -0.5038  0.4601  0.4544
   68HFI     C1 1295   0.067   1.974   3.792 -0.2674  0.1616 -0.5275
   68HFI     C2 1296   0.011   1.880   3.892  0.6793  0.1225  0.4158
   68HFI     F1 1297   0.061   1.757   3.874 -0.2240 -0.5079 -0.2954
   68HFI     F2 1298  -0.119   1.862   3.884 -0.3333 -0.3236 -0.0725
   68HFI     F3 1299   0.038   1.912   4.025 -0.3710 -0.1624 -0.3025
   68HFI     C3 1300   0.064   2.128   3.837  0.4237 -0.1253  0.3810
   68HFI     F4 1301   0.073   2.214   3.736 -0.3704 -0.4808 -0.2858
   68HFI     F5 1302   0.164   2.141   3.927 -0.2582  0.0422 -0.1605
   68HFI     F6 1303  -0.054   2.169   3.898 -0.2868  0.0371  0.1518
   68HFI     H1 1304  -0.042   2.004   3.630  0.1807  1.3222  0.2356
   68HFI     H2 1305   0.175   1.955   3.790 -0.0964  1.1241 -0.8232
   69HFI     O1 1306   0.529   0.815   3.700 -0.1138  0.8336 -0.3920
   69HFI     C1 1307   0.385   0.812   3.729 -0.5444 -0.2990  0.1606
   69HFI     C2 1308   0.332   0.955   3.772 -0.5088  0.2773  0.0642
   69HFI     F1 1309   0.366   0.985   3.901 -0.0051 -0.1810  0.3165
   69HFI     F2 1310   0.202   0.955   3.760  0.1431  0.4078  0.3045
   69HFI     F3 1311   0.388   1.050   3.695 -0.3284  0.1493  0.2448
   69HFI     C3 1312   0.341   0.696   3.831  0.6559  0.2253 -1.1341
   69HFI     F4 1313   0.210   0.684   3.857  0.3273  0.1796  0.1731
   69HFI     F5 1314   0.404   0.713   3.949 -0.2986 -0.2546  0.1840
   69HFI     F6 1315   0.373   0.574   3.776  0.0336  0.1082 -0.3205
   69HFI     H1 1316   0.556   0.725   3.673  0.3004  0.6943  0.4724
   69HFI     H2 1317   0.331   0.795   3.635  0.0654  0.0376 -0.2540
   70HFI     O1 1318   1.398   1.426   1.333 -0.1911  0.1427  0.3633
   70HFI     C1 1319   1.401   1.557   1.392  0.9130  0.6533  0.2590
   70HFI     C2 1320   1.522   1.636   1.341 -0.5415  0.1375  0.4197
   70HFI     F1 1321   1.644   1.614   1.400 -0.1438 -0.2735  0.3532
   70HFI     F2 1322   1.504   1.766   1.359 -0.3494  0.2570 -0.1509
   70HFI     F3 1323   1.545   1.626   1.205 -0.1712  0.1491 -0.0739
   70HFI     C3 1324   1.374   1.567   1.546  0.7364  0.0911  0.0138
   70HFI     F4 1325   1.254   1.501   1.583  0.0021 -0.1565 -0.1691
   70HFI     F5 1326   1.356   1.690   1.578  0.1377 -0.0955 -0.0216
   70HFI     F6 1327   1.479   1.523   1.609  0.1979 -0.3677  0.3344
   70HFI     H1 1328   1.488   1.391   1.332  0.8914  2.7783 -1.1917
   70HFI     H2 1329   1.315   1.615   1.354 -0.2206 -0.7148  0.6887
   71HFI     O1 1330   0.338   0.072   3.617 -0.4043  0.6897  0.1027
   71HFI     C1 1331   0.247   0.142   3.705  1.0017 -0.1799  0.1839
   71HFI     C2 1332   0.182   0.259   3.632 -0.3940 -0.1123  0.3628
   71HFI     F1 1333   0.126   0.212   3.525 -0.5773 -0.2031 -0.4172
   71HFI     F2 1334   0.265   0.356   3.594  0.0115  0.7166  0.0785
   71HFI     F3 1335   0.086   0.315   3.712  0.3040  0.1145 -0.1912
   71HFI     C3 1336   0.311   0.177   3.846  0.4909  0.8704 -0.4731
   71HFI     F4 1337   0.379   0.292   3.836  0.5265 -0.2366  0.0269
   71HFI     F5 1338   0.397   0.080   3.875 -0.1799 -0.6422 -0.0279
   71HFI     F6 1339   0.218   0.181   3.948  0.0566 -0.2667  0.3372
   71HFI     H1 1340   0.296   0.066   3.530 -0.7095 -1.0505  0.3490
   71HFI     H2 1341   0.159   0.080   3.729  0.2009  0.5942 -0.6982
   72HFI     O1 1342   0.068   1.022   0.464  0.0472  0.3625 -0.0576
   72HFI     C1 1343   0.028   1.150   0.401  0.4653  0.5946 -0.7497
   72HFI     C2 1344  -0.013   1.249   0.512  0.3341 -1.0840  0.2366
   72HFI     F1 1345  -0.128   1.216   0.576 -0.6474 -0.2997 -0.2648
   72HFI     F2 1346  -0.030   1.374   0.462  0.0429  0.4187  0.2137
   72HFI     F3 1347   0.093   1.255   0.602  0.4336 -0.2822  0.1918
   72HFI     C3 1348  -0.082   1.141   0.288 -0.5776 -0.2583 -0.3764
   72HFI     F4 1349  -0.193   1.095   0.332  0.4217  0.7091 -0.0270
   72HFI     F5 1350  -0.035   1.055   0.201 -0.0935 -0.2361  0.1533
   72HFI     F6 1351  -0.100   1.263   0.227  0.2194  0.2557  0.2494
   72HFI     H1 1352   0.003   1.001   0.533 -1.3411  1.1077 -1.1018
   72HFI     H2 1353   0.108   1.193   0.340  0.2035  0.2935 -1.3088
   73HFI     O1 1354   0.429   1.787   1.097 -0.0806 -0.2715 -0.3444
   73HFI     C1 1355   0.524   1.751   0.993  0.0704 -0.2672 -0.3501
   73HFI     C2 1356   0.633   1.859   0.964  0.1316 -0.1328  0.7581
   73HFI     F1 1357   0.614   1.924   0.845  0.1870 -0.3686 -0.4161
   73HFI     F2 1358   0.753   1.804   0.954 -0.0903 -0.5094  0.3368
   73HFI     F3 1359   0.635   1.959   1.059  0.3157  0.1658  0.3700
   73HFI     C3 1360   0.456   1.695   0.857 -0.4474  0.1282  0.4528
   73HFI     F4 1361   0.366   1.784   0.808  0.4458 -0.1952  0.4040
   73HFI     F5 1362   0.400   1.579   0.875  0.3601 -0.3926  0.2058
   73HFI     F6 1363   0.543   1.673   0.760  0.1265  0.4912 -0.0227
   73HFI     H1 1364   0.411   1.882   1.085  1.5286 -0.1125 -1.6204
   73HFI     H2 1365   0.568   1.656   1.026  1.7584  0.2342 -1.1447
   74HFI     O1 1366   1.252   2.699   0.438  0.6730  0.5389 -0.1408
   74HFI     C1 1367   1.224   2.769   0.561  0.0787  0.3189  0.4835
   74HFI     C2 1368   1.166   2.903   0.529  0.2854 -0.3249 -0.1450
   74HFI     F1 1369   1.098   2.898   0.406  0.4247  0.3109 -0.3043
   74HFI     F2 1370   1.262   2.995   0.515  0.0451 -0.1350  0.1523
   74HFI     F3 1371   1.083   2.943   0.628 -0.1100  0.4557  0.2792
   74HFI     C3 1372   1.338   2.768   0.671 -0.3412  0.2763  0.4373
   74HFI     F4 1373   1.294   2.820   0.791  0.4550  0.2853  0.8959
   74HFI     F5 1374   1.448   2.842   0.641  0.2645 -0.2609  0.1206
   74HFI     F6 1375   1.387   2.643   0.703  0.1983 -0.0175 -0.1460
   74HFI     H1 1376   1.265   2.769   0.371 -0.4139  0.7768 -0.1164
   74HFI     H2 1377   1.143   2.717   0.614  2.0087 -3.8594 -0.4820
   75HFI     O1 1378   1.913   2.781   1.444  0.7565 -0.4497 -0.2853
   75HFI     C1 1379   1.980   2.658   1.399  0.2532  0.2953  0.5315
   75HFI     C2 1380   1.876   2.547   1.343 -0.5765  0.4190  0.0157
   75HFI     F1 1381   1.804   2.602   1.242 -0.2087 -0.2431 -0.0841
   75HFI     F2 1382   1.789   2.502   1.434 -0.0814 -0.3583 -0.5457
   75HFI     F3 1383   1.940   2.441   1.294  0.6319 -0.1476 -0.0092
   75HFI     C3 1384   2.068   2.588   1.510  0.1807  0.3051  0.6518
   75HFI     F4 1385   2.145   2.676   1.566  0.0068  0.2689 -0.6261
   75HFI     F5 1386   2.149   2.494   1.454 -0.4015  0.5995  0.4543
   75HFI     F6 1387   2.001   2.524   1.608  0.3824 -0.2776  0.0372
   75HFI     H1 1388   1.829   2.792   1.396  1.9424 -2.5498 -3.0100
   75HFI     H2 1389   2.054   2.683   1.322 -0.2806  0.1661 -0.0273
   76HFI     O1 1390   3.048   0.165   1.371  0.3117 -0.7158  0.3725
   76HFI     C1 1391   3.179   0.104   1.367  0.2200  0.0339 -0.2661
   76HFI     C2 1392   3.250   0.091   1.502  0.7535  0.1923  0.4813
   76HFI     F1 1393   3.278   0.214   1.551  0.2059 -0.2216 -0.1370
   76HFI     F2 1394   3.363   0.022   1.490 -0.3433  0.2903  0.3500
   76HFI     F3 1395   3.175   0.025   1.591  0.1346 -0.1271  0.4354
   76HFI     C3 1396   3.261   0.180   1.257  0.1553  0.6219 -0.1785
   76HFI     F4 1397   3.392   0.150   1.262 -0.3082 -0.3603  0.0964
   76HFI     F5 1398   3.242   0.317   1.262  0.2082  0.2163  0.7117
   76HFI     F6 1399   3.214   0.146   1.130  0.0613 -0.3139 -0.0092
   76HFI     H1 1400   3.065   0.260   1.380  0.3155 -0.6658 -0.1335
   76HFI     H2 1401   3.172   0.001   1.331 -2.1415 -0.3285  1.0760
   77HFI     O1 1402   0.733   0.241   2.827  0.0087 -0.1744 -0.0950
   77HFI     C1 1403   0.625   0.148   2.844  0.1067 -0.7865  0.2563
   77HFI     C2 1404   0.656   0.011   2.772 -0.0185  0.5731  0.5652
   77HFI     F1 1405   0.786  -0.016   2.765  0.4017 -0.4243 -0.2350
   77HFI     F2 1406   0.597   0.006   2.656  0.2043  0.1110 -0.0915
   77HFI     F3 1407   0.610  -0.093   2.847 -0.4773  0.3952  0.1350
   77HFI     C3 1408   0.486   0.200   2.815  0.6756 -0.7024 -0.1368
   77HFI     F4 1409   0.382   0.110   2.823  0.3786 -0.7660  0.7088
   77HFI     F5 1410   0.478   0.253   2.684  0.2143  0.0459  0.4459
   77HFI     F6 1411   0.464   0.302   2.898  0.4107 -0.2050  0.4873
   77HFI     H1 1412   0.743   0.266   2.733 -2.3773  3.1576  0.4576
   77HFI     H2 1413   0.620   0.122   2.950 -1.9083 -1.0244  0.1137
   78HFI     O1 1414   2.457   1.925   0.700 -0.4359 -0.5895 -0.0108
   78HFI     C1 1415   2.470   2.011   0.583  0.2683 -0.1318  0.4919
   78HFI     C2 1416   2.337   2.006   0.505 -0.5701  0.2234  0.5978
   78HFI     F1 1417   2.335   2.083   0.386  0.1338  0.3229 -0.5982
   78HFI     F2 1418   2.240   2.048   0.581 -0.4972  0.2014 -0.1484
   78HFI     F3 1419   2.303   1.886   0.480 -0.3029  0.3052 -0.7425
   78HFI     C3 1420   2.588   1.975   0.493 -0.2799  0.4822  0.5791
   78HFI     F4 1421   2.705   1.979   0.565  0.2718  0.4132 -0.1115
   78HFI     F5 1422   2.604   2.073   0.399 -0.0497 -0.0626 -0.3151
   78HFI     F6 1423   2.584   1.856   0.425  0.2282 -0.1885  0.0096
   78HFI     H1 1424   2.362   1.916   0.720 -0.6644  0.8853 -0.3968
   78HFI     H2 1425   2.482   2.117   0.610 -1.6679 -0.0532  1.1228
   79HFI     O1 1426   0.051   1.782   1.035  0.3490 -0.0606  0.0405
   79HFI     C1 1427  -0.069   1.749   0.958  0.5505 -0.1359  0.1749
   79HFI     C2 1428  -0.188   1.672   1.034 -0.1497 -0.4943 -0.2944
   79HFI     F1 1429  -0.249   1.760   1.122 -0.0265  0.3217 -0.2628
   79HFI     F2 1430  -0.144   1.567   1.100 -0.2724 -0.0413 -0.0988
   79HFI     F3 1431  -0.280   1.637   0.942  0.4269  0.4421 -0.0143
   79HFI     C3 1432  -0.022   1.688   0.823 -0.2605 -0.0170  0.0471
   79HFI     F4 1433  -0.119   1.639   0.739  0.0423  0.0426 -0.3732
   79HFI     F5 1434   0.061   1.577   0.847  0.0327  0.3259  0.2035
   79HFI     F6 1435   0.060   1.774   0.753 -0.2960 -0.3620 -0.0177
   79HFI     H1 1436   0.096   1.707   1.078  1.2780 -1.0927 -2.6790
   79HFI     H2 1437  -0.130   1.834   0.926 -2.0566 -1.6438  0.9658
   80HFI     O1 1438   0.081   3.316   3.088 -0.3795  0.2457 -0.6686
   80HFI     C1 1439   0.183   3.290   3.192 -0.5619 -0.1223 -0.4459
   80HFI     C2 1440   0.179   3.409   3.292 -0.0640  0.4736 -0.1186
   80HFI     F1 1441   0.233   3.374   3.406  0.0814  0.2342 -0.2356
   80HFI     F2 1442   0.050   3.438   3.309 -0.2977  0.0517  0.1507
   80HFI     F3 1443   0.235   3.525   3.255 -0.1562 -0.0922  0.6778
   80HFI     C3 1444   0.328   3.259   3.135 -0.8367  0.5700 -0.6650
   80HFI     F4 1445   0.378   3.366   3.070  0.5380 -0.0773  0.1542
   80HFI     F5 1446   0.333   3.154   3.047  0.3605 -0.1290  0.2053
   80HFI     F6 1447   0.407   3.224   3.239 -0.4548 -0.2318  0.6490
   80HFI     H1 1448   0.080   3.408   3.059  1.3523 -0.0232 -1.6679
   80HFI     H2 1449   0.156   3.200   3.249 -0.5309  0.7378  0.9434
   81HFI     O1 1450   0.217   3.249   0.065  0.2756 -0.2681  0.4506
   81HFI     C1 1451   0.112   3.172  -0.000 -0.2311  0.6877 -1.0083
   81HFI     C2 1452   0.173   3.063  -0.093  0.5595 -0.7230  0.0666
   81HFI     F1 1453   0.247   2.976  -0.030 -0.0917 -0.4303  0.1310
   81HFI     F2 1454   0.259   3.127  -0.176  0.2418  0.4006  0.5936
   81HFI     F3 1455   0.080   3.004  -0.170 -0.6085  0.1546  0.4814
   81HFI     C3 1456   0.013   3.260  -0.076  0.3350 -0.5408  0.4897
   81HFI     F4 1457  -0.112   3.196  -0.096 -0.1610  0.0450  0.4914
   81HFI     F5 1458   0.057   3.302  -0.196 -0.1950  0.3318  0.4150
   81HFI     F6 1459  -0.022   3.369  -0.003  0.3745  0.3888  0.5439
   81HFI     H1 1460   0.298   3.196   0.076  1.9839  1.6335 -2.4099
   81HFI     H2 1461   0.055   3.125   0.080  1.1465 -0.1612 -0.5124
   82HFI     O1 1462   1.749   2.248   1.536 -0.1368 -0.3647 -0.0613
   82HFI     C1 1463   1.809   2.122   1.560  0.0969  0.3201  0.2110
   82HFI     C2 1464   1.961   2.124   1.526 -0.2492  0.2306 -0.9509
   82HFI     F1 1465   2.028   2.016   1.569 -0.6956  0.3979  0.2900
   82HFI     F2 1466   2.027   2.227   1.586  0.1195 -0.2830 -0.1731
   82HFI     F3 1467   1.984   2.138   1.396  0.1245 -0.5423 -0.1627
   82HFI     C3 1468   1.741   2.004   1.494  0.3010 -0.1530  0.0535
   82HFI     F4 1469   1.606   2.011   1.534 -0.6620 -0.0831  0.6645
   82HFI     F5 1470   1.791   1.887   1.533 -0.2439  0.4444  0.0888
   82HFI     F6 1471   1.749   2.009   1.362  0.0042 -0.4375  0.2374
   82HFI     H1 1472   1.816   2.318   1.541  1.1997 -1.3425 -2.8699
   82HFI     H2 1473   1.803   2.100   1.667 -1.3664 -0.9095 -0.0966
   83HFI     O1 1474   2.868   0.265   0.627 -0.2382  0.0624  0.2205
   83HFI     C1 1475   2.764   0.269   0.523  0.6063 -0.3086 -0.3027
   83HFI     C2 1476   2.729   0.123   0.477  0.6457  0.0644 -0.4603
   83HFI     F1 1477   2.631   0.123   0.381 -0.3624 -0.1001 -0.2448
   83HFI     F2 1478   2.671   0.058   0.578 -0.3464 -0.4206  0.1481
   83HFI     F3 1479   2.833   0.046   0.441  0.4451 -0.1659 -0.1134
   83HFI     C3 1480   2.817   0.360   0.403  0.2266 -0.0805  0.3544
   83HFI     F4 1481   2.917   0.296   0.334  0.6686  0.4187 -0.1222
   83HFI     F5 1482   2.863   0.482   0.446 -0.5690 -0.5845 -0.3534
   83HFI     F6 1483   2.715   0.385   0.312  0.2349 -0.0067 -0.3938
   83HFI     H1 1484   2.821   0.288   0.709 -0.0657 -0.1411  0.3747
   83HFI     H2 1485   2.674   0.315   0.565  0.4764 -1.6266  0.9053
   84HFI     O1 1486   2.923   1.124   0.636  0.2762  0.1070  0.2238
   84HFI     C1 1487   2.853   1.225   0.549  0.1587  0.0261  0.0277
   84HFI     C2 1488   2.849   1.367   0.621  1.1346  0.1871  0.5789
   84HFI     F1 1489   2.774   1.351   0.729  0.0205  0.1716 -0.1639
   84HFI     F2 1490   2.791   1.464   0.548 -0.1693 -0.0898  0.3992
   84HFI     F3 1491   2.976   1.397   0.659  0.3147  0.1399  0.1462
   84HFI     C3 1492   2.720   1.170   0.497  0.2698 -0.5637 -0.1441
   84HFI     F4 1493   2.663   1.246   0.405  0.0826 -0.2518 -0.1705
   84HFI     F5 1494   2.631   1.166   0.602 -0.3527  0.1663  0.1807
   84HFI     F6 1495   2.732   1.046   0.443  0.3529 -0.6876  0.1360
   84HFI     H1 1496   2.902   1.140   0.730  0.0643 -1.8682  0.5407
   84HFI     H2 1497   2.923   1.241   0.465 -1.5879  1.0673 -1.2747
   85HFI     O1 1498   0.663   1.250   1.351  0.0267 -0.4690 -0.0774
   85HFI     C1 1499   0.805   1.281   1.377 -0.3379 -0.2407 -0.2352
   85HFI     C2 1500   0.904   1.190   1.290  0.0251  0.3296  0.8513
   85HFI     F1 1501   1.033   1.241   1.295  0.2493  0.1033 -0.2103
   85HFI     F2 1502   0.859   1.197   1.163  0.1528  0.0422 -0.0989
   85HFI     F3 1503   0.898   1.053   1.330  0.2519 -0.4193 -0.1140
   85HFI     C3 1504   0.841   1.276   1.529  0.6428  0.8991  0.0150
   85HFI     F4 1505   0.758   1.361   1.588 -0.4396 -0.0363 -0.4851
   85HFI     F5 1506   0.961   1.308   1.555  1.0213 -0.3717 -0.0821
   85HFI     F6 1507   0.814   1.149   1.576  0.1572  0.6552  0.5497
   85HFI     H1 1508   0.638   1.189   1.422 -0.7572  0.4603  0.4597
   85HFI     H2 1509   0.826   1.384   1.344  0.8146 -0.2149  0.5463
   86HFI     O1 1510   3.189   1.990   1.277  0.2941  0.0698  0.0431
   86HFI     C1 1511   3.102   2.014   1.396  0.1214 -0.0290  0.6680
   86HFI     C2 1512   3.174   2.025   1.528 -0.6895 -0.7121 -0.2909
   86HFI     F1 1513   3.274   2.113   1.524  0.3868  0.5341 -0.2309
   86HFI     F2 1514   3.229   1.912   1.573  0.3738 -0.4092 -0.1955
   86HFI     F3 1515   3.085   2.071   1.621 -0.1679  0.3416 -0.8023
   86HFI     C3 1516   2.993   1.904   1.409  0.0091  0.1115 -0.0595
   86HFI     F4 1517   3.044   1.784   1.438  0.4515  0.7553 -0.6381
   86HFI     F5 1518   2.936   1.881   1.297  0.3211  0.5635 -0.0798
   86HFI     F6 1519   2.892   1.931   1.492  0.0427  0.4149  0.3975
   86HFI     H1 1520   3.234   1.907   1.298  0.3849 -0.6366 -2.7710
   86HFI     H2 1521   3.041   2.104   1.380 -0.9499 -0.7448  0.6692
   87HFI     O1 1522   0.481   1.690   0.477  0.0894  0.2380 -0.6212
   87HFI     C1 1523   0.379   1.623   0.406  0.1921 -0.0641  0.3947
   87HFI     C2 1524   0.257   1.719   0.379  0.0588 -0.0669  0.0257
   87HFI     F1 1525   0.308   1.838   0.352  0.2694  0.2664  0.2819
   87HFI     F2 1526   0.176   1.722   0.488  0.3871 -0.0921  0.7961
   87HFI     F3 1527   0.176   1.673   0.280  0.1745  0.3222 -0.1444
   87HFI     C3 1528   0.348   1.485   0.470  0.0248  0.1274 -0.1046
   87HFI     F4 1529   0.465   1.400   0.465 -0.0097 -0.1714 -0.3518
   87HFI     F5 1530   0.244   1.422   0.410  0.1950 -0.3418  0.0514
   87HFI     F6 1531   0.314   1.492   0.602 -0.3582 -0.8075 -0.0470
   87HFI     H1 1532   0.524   1.631   0.542  2.4248  1.1402 -1.2764
   87HFI     H2 1533   0.413   1.588   0.307 -0.3543 -0.6118  0.3979
   88HFI     O1 1534   2.693   0.288   3.781  0.2135  0.1033 -0.0273
   88HFI     C1 1535   2.604   0.399   3.729  0.4349 -0.9844  0.0015
   88HFI     C2 1536   2.669   0.541   3.740 -0.8563  0.1445 -0.0008
   88HFI     F1 1537   2.585   0.640   3.712 -0.2839 -0.2747  0.2974
   88HFI     F2 1538   2.767   0.547   3.643 -0.1968  0.0776 -0.0010
   88HFI     F3 1539   2.734   0.563   3.858 -0.2664 -0.2074  0.3784
   88HFI     C3 1540   2.471   0.399   3.802  0.0961 -0.3980  0.9633
   88HFI     F4 1541   2.374   0.466   3.730  0.1572  0.3618 -0.4909
   88HFI     F5 1542   2.487   0.448   3.934 -0.3508  0.2707  0.2358
   88HFI     F6 1543   2.432   0.268   3.811 -0.3687 -0.3228 -0.0485
   88HFI     H1 1544   2.732   0.305   3.868 -0.7961 -0.3277  0.5104
   88HFI     H2 1545   2.569   0.388   3.626 -1.3954  0.9049  0.3909
   89HFI     O1 1546   0.822   2.785   0.425  0.4258 -0.2516  0.0414
   89HFI     C1 1547   0.768   2.652   0.468  0.3682  0.2529 -0.2448
   89HFI     C2 1548   0.673   2.667   0.584  0.3561  0.0027 -0.0327
   89HFI     F1 1549   0.732   2.715   0.697  0.0990  0.0027 -0.1081
   89HFI     F2 1550   0.614   2.548   0.612  0.2808  0.0323  0.5617
   89HFI     F3 1551   0.569   2.753   0.562  0.0495 -0.0562 -0.2943
   89HFI     C3 1552   0.884   2.550   0.484 -0.1673  1.1851  0.0612
   89HFI     F4 1553   0.965   2.557   0.374  0.0429 -0.2716 -0.4767
   89HFI     F5 1554   0.836   2.422   0.497 -0.2398 -0.0534 -0.2209
   89HFI     F6 1555   0.957   2.578   0.595  0.6126  0.5752  0.2949
   89HFI     H1 1556   0.778   2.860   0.469  0.2647 -0.0663 -0.4265
   89HFI     H2 1557   0.699   2.611   0.393  0.7562 -1.1511  0.1411
   90HFI     O1 1558   0.565   0.426   0.312 -0.1604  0.5063 -0.1822
   90HFI     C1 1559   0.521   0.456   0.446 -0.4644  0.0592 -0.4295
   90HFI     C2 1560   0.616   0.398   0.560 -0.0707  0.8048 -0.2555
   90HFI     F1 1561   0.636   0.262   0.546 -0.6371 -0.0927 -0.0343
   90HFI     F2 1562   0.560   0.408   0.685 -0.4862  0.1445  0.2431
   90HFI     F3 1563   0.732   0.456   0.563 -0.0306 -0.6635  0.9018
   90HFI     C3 1564   0.371   0.412   0.469  0.1858 -0.4796 -0.7992
   90HFI     F4 1565   0.363   0.276   0.473  0.2035 -0.1158 -0.1963
   90HFI     F5 1566   0.294   0.455   0.368  0.2301  0.1322 -0.4878
   90HFI     F6 1567   0.307   0.469   0.578  0.5922  0.0295 -0.2057
   90HFI     H1 1568   0.490   0.385   0.268 -0.4336 -0.0733  0.8026
   90HFI     H2 1569   0.529   0.563   0.469 -1.0148 -0.1711  0.9306
   91HFI     O1 1570   1.707   0.341   3.235 -0.3296 -0.3564 -0.0971
   91HFI     C1 1571   1.739   0.201   3.198  0.5393 -0.7955 -0.4269
   91HFI     C2 1572   1.638   0.098   3.248 -0.8639  0.1623 -0.2163
   91HFI     F1 1573   1.644   0.071   3.383 -0.4459  0.0657 -0.0807
   91HFI     F2 1574   1.632  -0.019   3.187  0.1284  0.5215  0.0011
   91HFI     F3 1575   1.518   0.153   3.220  0.0794 -0.2250  0.3173
   91HFI     C3 1576   1.880   0.161   3.235 -0.0942  0.6063  0.7207
   91HFI     F4 1577   1.908   0.023   3.215 -0.0698 -0.4423 -0.2542
   91HFI     F5 1578   1.901   0.192   3.362  0.5392 -0.5891 -0.1513
   91HFI     F6 1579   1.972   0.231   3.165 -0.5459 -0.0289  0.2155
   91HFI     H1 1580   1.654   0.346   3.316  0.8601 -0.0878  0.6675
   91HFI     H2 1581   1.735   0.191   3.089 -1.0246 -0.5370 -0.3995
   92HFI     O1 1582   1.500   2.371   1.100 -0.0504  0.1052  0.0921
   92HFI     C1 1583   1.422   2.471   1.035 -0.8540 -0.4338  0.3228
   92HFI     C2 1584   1.384   2.571   1.152  0.1690 -0.2521  0.2544
   92HFI     F1 1585   1.296   2.512   1.236  0.1727 -0.6792  0.0875
   92HFI     F2 1586   1.329   2.686   1.106  0.2753  0.2399  0.0020
   92HFI     F3 1587   1.495   2.602   1.223  0.6903 -0.0790  0.2673
   92HFI     C3 1588   1.293   2.416   0.968  0.5052  0.9768  0.4091
   92HFI     F4 1589   1.329   2.344   0.864 -0.1779  0.1048 -0.1780
   92HFI     F5 1590   1.207   2.518   0.918  0.2997  0.3613 -0.1192
   92HFI     F6 1591   1.219   2.332   1.047 -0.8312 -0.2551  0.3543
   92HFI     H1 1592   1.462   2.334   1.181 -2.2122  2.3200  0.1408
   92HFI     H2 1593   1.485   2.533   0.971 -1.9546 -1.5914 -1.9187
   93HFI     O1 1594   3.077   3.222   3.379 -0.5405 -0.1183 -0.2605
   93HFI     C1 1595   3.091   3.091   3.319 -0.4801 -0.4617  0.1167
   93HFI     C2 1596   2.956   3.010   3.335 -0.0243 -0.4508  0.0083
   93HFI     F1 1597   2.932   2.958   3.459 -0.9022 -0.0754 -0.5297
   93HFI     F2 1598   2.960   2.910   3.250 -0.4649  0.1567 -0.1976
   93HFI     F3 1599   2.854   3.088   3.301 -0.8178  0.0760 -0.0430
   93HFI     C3 1600   3.212   3.014   3.374  0.4747 -0.3699 -0.6627
   93HFI     F4 1601   3.321   3.087   3.340 -0.4233 -0.2361 -0.3833
   93HFI     F5 1602   3.227   2.893   3.318  0.6089 -0.0361  0.6971
   93HFI     F6 1603   3.206   3.001   3.509  0.4079 -0.3935  0.1429
   93HFI     H1 1604   3.012   3.222   3.452  0.8231 -2.2311  1.0173
   93HFI     H2 1605   3.109   3.109   3.213  2.6605  0.8046  0.8140
   94HFI     O1 1606   0.175   2.064   1.038  0.2685  0.2917  0.5495
   94HFI     C1 1607   0.145   2.177   0.950  0.2210  0.2080 -0.3808
   94HFI     C2 1608  -0.006   2.150   0.896 -1.5626 -0.0980 -0.2816
   94HFI     F1 1609  -0.034   2.235   0.796  0.1343  0.7693 -1.0453
   94HFI     F2 1610  -0.096   2.165   1.000  0.0753  0.4742  0.3130
   94HFI     F3 1611  -0.021   2.025   0.854 -0.3678  0.0140  0.0854
   94HFI     C3 1612   0.250   2.186   0.838  0.4302 -0.0930 -0.4681
   94HFI     F4 1613   0.364   2.156   0.894 -0.5262  0.6852 -0.1863
   94HFI     F5 1614   0.254   2.314   0.785 -0.0412  0.0846 -0.4049
   94HFI     F6 1615   0.228   2.088   0.740 -0.5526 -0.8764 -0.3657
   94HFI     H1 1616   0.099   2.003   1.037  0.8178 -0.3907 -0.2186
   94HFI     H2 1617   0.148   2.280   0.990  0.8935 -0.1123  0.4110
   95HFI     O1 1618   0.155   0.406   1.178 -0.8360  0.3819 -0.0798
   95HFI     C1 1619   0.156   0.421   1.034  0.0438  0.7548 -0.8794
   95HFI     C2 1620   0.273   0.515   0.995  0.0339 -0.7803  0.7292
   95HFI     F1 1621   0.387   0.449   1.013 -0.2912  0.7238  0.0600
   95HFI     F2 1622   0.280   0.627   1.073  0.1569  0.3543 -0.0766
   95HFI     F3 1623   0.272   0.559   0.866  0.1582 -0.6173 -0.0545
   95HFI     C3 1624   0.022   0.468   0.978 -0.2331 -0.7079  1.0692
   95HFI     F4 1625   0.005   0.433   0.850 -0.5652 -0.3289  0.0407
   95HFI     F5 1626   0.020   0.604   0.977 -0.0794 -0.8333  0.2965
   95HFI     F6 1627  -0.087   0.445   1.051  0.7861  0.1151  0.2770
   95HFI     H1 1628   0.151   0.492   1.225 -0.0966 -0.8157  2.2595
   95HFI     H2 1629   0.181   0.324   0.990  1.1715  0.1121  1.1068
   96HFI     O1 1630   2.577   2.359   0.437 -0.4171 -0.4868  0.1381
   96HFI     C1 1631   2.664   2.474   0.437  0.4926  0.5115  0.6796
   96HFI     C2 1632   2.597   2.604   0.478  0.3626  0.5915  0.4761
   96HFI     F1 1633   2.686   2.693   0.508 -0.2176 -0.5842 -0.4342
   96HFI     F2 1634   2.531   2.586   0.593 -0.2814  0.3588  0.3730
   96HFI     F3 1635   2.519   2.662   0.383  0.0082  0.2159 -0.5452
   96HFI     C3 1636   2.754   2.481   0.309 -0.8934 -0.1626 -0.1652
   96HFI     F4 1637   2.818   2.362   0.296 -0.3150 -0.1040 -0.0393
   96HFI     F5 1638   2.843   2.583   0.325  0.1643 -0.4807 -0.0431
   96HFI     F6 1639   2.685   2.502   0.196 -0.1161  0.1690 -0.3244
   96HFI     H1 1640   2.532   2.362   0.351  2.2969  2.2244 -1.2836
   96HFI     H2 1641   2.731   2.445   0.518 -1.3182 -1.2561  1.5807
   97HFI     O1 1642   2.923   2.621   1.425 -0.0250 -0.1702  0.5474
   97HFI     C1 1643   2.955   2.502   1.504 -0.7566 -0.6153 -0.3052
   97HFI     C2 1644   3.104   2.445   1.483  0.0162 -0.1901  0.3617
   97HFI     F1 1645   3.107   2.366   1.377  0.0459  0.1226  0.2122
   97HFI     F2 1646   3.150   2.381   1.590 -0.4716 -0.2475  0.0654
   97HFI     F3 1647   3.189   2.548   1.457  0.1450  0.2540 -0.0941
   97HFI     C3 1648   2.852   2.386   1.502  0.2951 -0.3837 -0.2268
   97HFI     F4 1649   2.740   2.429   1.563  0.2854  0.0748 -0.2628
   97HFI     F5 1650   2.902   2.286   1.574  0.5517  0.1488  0.1507
   97HFI     F6 1651   2.817   2.332   1.379  0.3761  0.2647 -0.2436
   97HFI     H1 1652   3.000   2.643   1.369 -1.6694 -1.9420 -2.5487
   97HFI     H2 1653   2.958   2.525   1.611 -0.5904 -2.4109  0.1006
   98HFI     O1 1654   1.908   0.625   0.717 -0.1746  0.6295  0.2959
   98HFI     C1 1655   1.897   0.652   0.860 -0.2846 -0.0062  0.1303
   98HFI     C2 1656   1.787   0.759   0.888 -0.2987  0.0265  0.5739
   98HFI     F1 1657   1.668   0.738   0.826  0.0322 -0.4825 -0.5621
   98HFI     F2 1658   1.824   0.887   0.858 -0.4699 -0.2804  0.4096
   98HFI     F3 1659   1.761   0.757   1.020  0.4370  0.5458 -0.2776
   98HFI     C3 1660   2.036   0.687   0.929  0.1852 -0.8715 -0.4993
   98HFI     F4 1661   2.111   0.757   0.841  0.0327 -0.2183 -0.1434
   98HFI     F5 1662   2.100   0.577   0.966 -0.1451  0.6360 -0.1155
   98HFI     F6 1663   2.017   0.756   1.037  0.0409 -0.2262 -0.0796
   98HFI     H1 1664   2.001   0.621   0.691 -0.1180  1.4628  0.3537
   98HFI     H2 1665   1.861   0.562   0.910 -0.7730  0.7346  1.1206
   99HFI     O1 1666   1.104   1.511   0.901  0.2451  0.1029 -0.0654
   99HFI     C1 1667   1.074   1.641   0.948  0.1877 -0.2333  0.2323
   99HFI     C2 1668   1.206   1.731   0.958 -0.1445  0.2144 -0.2902
   99HFI     F1 1669   1.295   1.680   1.053  0.6775 -0.4451 -0.9232
   99HFI     F2 1670   1.179   1.857   1.002 -0.5366  0.2714 -0.4783
   99HFI     F3 1671   1.266   1.753   0.841  0.0578  0.8458 -0.4550
   99HFI     C3 1672   0.987   1.630   1.083  0.2989 -0.8166  0.0760
   99HFI     F4 1673   0.864   1.582   1.053 -0.0927 -0.7981  0.2429
   99HFI     F5 1674   0.972   1.752   1.147  0.4515 -0.1344 -0.1150
   99HFI     F6 1675   1.047   1.550   1.168  0.1351 -0.5041  0.4142
   99HFI     H1 1676   1.135   1.515   0.809  0.7508  0.7030  0.1343
   99HFI     H2 1677   1.017   1.696   0.872 -0.9687 -2.4606 -0.5581
  100HFI     O1 1678   0.484   0.276   1.321  0.6048  0.1254 -0.7320
  100HFI     C1 1679   0.377   0.217   1.398  0.5167  0.1700 -0.2112
  100HFI     C2 1680   0.410   0.237   1.550  1.3180  0.1191  0.2883
  100HFI     F1 1681   0.485   0.143   1.609  0.6804 -0.1341 -0.0801
  100HFI     F2 1682   0.294   0.251   1.614 -0.2786 -0.4937  0.1204
  100HFI     F3 1683   0.464   0.360   1.565 -0.0251 -0.1636  0.6481
  100HFI     C3 1684   0.358   0.063   1.368  0.3735 -0.3493  0.3017
  100HFI     F4 1685   0.470  -0.004   1.394  0.2692 -0.5127 -0.1066
  100HFI     F5 1686   0.325   0.034   1.238 -0.5691 -0.4665  0.2651
  100HFI     F6 1687   0.253   0.008   1.436 -0.0419  0.1631  0.8449
  100HFI     H1 1688   0.571   0.235   1.337  1.0617  2.0535  1.9713
  100HFI     H2 1689   0.288   0.277   1.375  0.9156 -0.4634 -3.8240
  101HFI     O1 1690   1.463   2.478   0.326 -0.0832  0.2947  0.9085
  101HFI     C1 1691   1.582   2.414   0.365  0.6845  0.1447 -0.4265
  101HFI     C2 1692   1.653   2.364   0.241 -0.2506 -0.0301 -0.1000
  101HFI     F1 1693   1.592   2.266   0.179 -0.4061 -0.0630  0.2992
  101HFI     F2 1694   1.776   2.321   0.268 -0.3986 -0.2376  0.6131
  101HFI     F3 1695   1.671   2.465   0.149 -0.1403  0.2128  0.6177
  101HFI     C3 1696   1.565   2.302   0.476 -0.1423 -0.8373 -0.4909
  101HFI     F4 1697   1.504   2.358   0.588  0.3800  0.3790  0.3721
  101HFI     F5 1698   1.673   2.238   0.518 -0.2404 -0.4970 -0.0767
  101HFI     F6 1699   1.485   2.202   0.437 -0.3356 -0.1913  0.1679
  101HFI     H1 1700   1.404   2.478   0.403 -1.0711  0.6815  0.1603
  101HFI     H2 1701   1.654   2.483   0.413  4.4951 -2.2717 -2.4131
  102HFI     O1 1702   0.165   3.302   1.110 -0.4167 -0.1920  0.4077
  102HFI     C1 1703   0.151   3.275   0.970  0.7566 -0.4795 -0.4658
  102HFI     C2 1704   0.258   3.174   0.923  0.0873  0.0467  0.0798
  102HFI     F1 1705   0.204   3.091   0.835 -0.7393 -0.5919  0.1587
  102HFI     F2 1706   0.314   3.103   1.020 -0.0129  0.0059  0.4629
  102HFI     F3 1707   0.363   3.243   0.860  0.3822  0.3029 -0.1145
  102HFI     C3 1708   0.136   3.402   0.883 -0.2297  0.3430 -0.1391
  102HFI     F4 1709   0.227   3.495   0.920 -0.3051 -0.4084  0.0867
  102HFI     F5 1710   0.017   3.458   0.905  0.1731 -0.3153 -0.1991
  102HFI     F6 1711   0.147   3.375   0.754  0.7109  0.4359 -0.3958
  102HFI     H1 1712   0.248   3.350   1.129 -0.8845  0.6083  0.4671
  102HFI     H2 1713   0.049   3.239   0.950 -0.0376  1.4114  0.0275
  103HFI     O1 1714   0.938   0.545   1.298  0.3649 -0.1972  0.4917
  103HFI     C1 1715   0.959   0.453   1.405 -0.2891 -0.8904  0.3285
  103HFI     C2 1716   0.838   0.434   1.502  0.2884  0.3633 -0.7037
  103HFI     F1 1717   0.732   0.381   1.438 -0.1860  0.3439 -0.1209
  103HFI     F2 1718   0.789   0.551   1.555 -0.4816 -0.1375  0.3048
  103HFI     F3 1719   0.867   0.351   1.603  0.4200 -0.0188  0.2585
  103HFI     C3 1720   1.085   0.492   1.487  0.4003  0.1492 -0.1104
  103HFI     F4 1721   1.180   0.541   1.405 -0.0728 -0.3349  0.3269
  103HFI     F5 1722   1.138   0.382   1.550 -0.4875  0.1670  0.3316
  103HFI     F6 1723   1.070   0.579   1.591  0.0219  0.0498  0.2744
  103HFI     H1 1724   1.013   0.547   1.235  0.5437  0.0656  0.7116
  103HFI     H2 1725   0.985   0.352   1.370 -0.0035 -1.1271  1.1968
  104HFI     O1 1726   1.691   2.707   3.572 -0.0188  0.0386  0.7602
  104HFI     C1 1727   1.815   2.634   3.569 -0.4214  0.2087 -0.1234
  104HFI     C2 1728   1.922   2.711   3.650 -0.0257 -0.0363 -0.4039
  104HFI     F1 1729   1.861   2.759   3.765 -0.2087  0.2432 -0.7839
  104HFI     F2 1730   1.967   2.819   3.572 -0.1370 -0.1491 -0.4300
  104HFI     F3 1731   2.028   2.644   3.688 -0.3436 -0.1767 -0.3074
  104HFI     C3 1732   1.856   2.593   3.428  0.6267  0.1297  0.1658
  104HFI     F4 1733   1.756   2.526   3.374 -0.1844 -0.2947 -0.9785
  104HFI     F5 1734   1.961   2.510   3.433 -0.7880  0.6230  0.4549
  104HFI     F6 1735   1.884   2.702   3.345  0.0841 -0.1487  0.2213
  104HFI     H1 1736   1.715   2.796   3.543  0.9747 -0.8414 -1.2595
  104HFI     H2 1737   1.795   2.548   3.635  0.0845 -1.3445 -1.9383
  105HFI     O1 1738   1.395   1.551   3.731  0.8453  0.5529  0.1899
  105HFI     C1 1739   1.281   1.492   3.673  0.3474 -0.0500 -0.6911
  105HFI     C2 1740   1.315   1.427   3.534  0.1351  0.3885  0.3342
  105HFI     F1 1741   1.332   1.516   3.436 -0.5763  0.0691 -0.1294
  105HFI     F2 1742   1.222   1.335   3.491  0.6865 -0.1888  0.3841
  105HFI     F3 1743   1.436   1.369   3.546  0.0584 -0.4487 -0.0052
  105HFI     C3 1744   1.167   1.600   3.653  0.1232  0.2773 -0.5553
  105HFI     F4 1745   1.067   1.554   3.572 -0.3653 -0.0652  0.2150
  105HFI     F5 1746   1.211   1.721   3.612 -0.2389 -0.0015 -0.2280
  105HFI     F6 1747   1.109   1.627   3.771  0.1633  0.0965 -0.1832
  105HFI     H1 1748   1.475   1.506   3.701  1.9366  1.8901  1.0452
  105HFI     H2 1749   1.237   1.410   3.732  0.0416  0.6081  0.0003
  106HFI     O1 1750   1.632   1.232   1.312  0.1371  0.2133 -0.2849
  106HFI     C1 1751   1.763   1.218   1.368 -0.2893 -0.7833 -0.7240
  106HFI     C2 1752   1.824   1.090   1.320  0.0900  0.5360  0.2381
  106HFI     F1 1753   1.803   1.084   1.188 -0.1889 -0.0806  0.4441
  106HFI     F2 1754   1.758   0.976   1.370 -0.1120 -0.1419 -0.0347
  106HFI     F3 1755   1.952   1.081   1.347 -0.2030  0.2060  0.0608
  106HFI     C3 1756   1.782   1.235   1.525 -0.1836 -0.4033 -0.0614
  106HFI     F4 1757   1.719   1.351   1.567  0.1481  0.1537  0.5407
  106HFI     F5 1758   1.916   1.246   1.551  0.0576  0.0717 -0.0947
  106HFI     F6 1759   1.727   1.129   1.592  0.1047  0.3911 -0.7463
  106HFI     H1 1760   1.619   1.164   1.243 -0.8099 -0.2059  0.3035
  106HFI     H2 1761   1.828   1.301   1.334 -0.0640 -0.5036  0.3710
  107HFI     O1 1762   2.287   1.559   1.575  0.2359  0.0671 -0.6790
  107HFI     C1 1763   2.176   1.505   1.502  0.2275  0.2064 -0.9436
  107HFI     C2 1764   2.213   1.426   1.366  0.7330  0.5478  0.4051
  107HFI     F1 1765   2.272   1.500   1.272 -0.3102  0.3324  0.6739
  107HFI     F2 1766   2.104   1.360   1.320 -0.4556  0.5142 -0.0838
  107HFI     F3 1767   2.303   1.328   1.399 -0.3065 -0.8364  0.3073
  107HFI     C3 1768   2.063   1.608   1.482  0.2700  0.0896 -0.0137
  107HFI     F4 1769   2.026   1.673   1.594 -0.5353  0.4787 -0.2967
  107HFI     F5 1770   1.954   1.558   1.416 -0.0190  0.1052 -0.1438
  107HFI     F6 1771   2.113   1.713   1.406 -0.1698 -0.0221  0.0545
  107HFI     H1 1772   2.335   1.624   1.521 -1.1014  0.7702 -1.0318
  107HFI     H2 1773   2.134   1.429   1.569 -1.9509 -0.9781 -3.5910
  108HFI     O1 1774   1.904   2.342   0.766  0.2272  0.4577 -0.3447
  108HFI     C1 1775   1.915   2.478   0.809 -0.3151 -0.1052 -0.1372
  108HFI     C2 1776   1.924   2.501   0.962 -0.5655 -0.1494  0.3864
  108HFI     F1 1777   2.032   2.436   1.017  0.4996  0.4228  0.2520
  108HFI     F2 1778   1.813   2.463   1.022  0.5353 -0.2291 -0.3122
  108HFI     F3 1779   1.935   2.635   0.983  0.6348 -1.2747 -0.6872
  108HFI     C3 1780   1.802   2.571   0.749  0.3456 -0.5499 -0.7441
  108HFI     F4 1781   1.836   2.704   0.750 -0.5240 -0.0121 -0.3566
  108HFI     F5 1782   1.680   2.545   0.810 -0.2868 -0.5740 -0.3281
  108HFI     F6 1783   1.780   2.537   0.623 -0.0944 -0.1620  0.4501
  108HFI     H1 1784   1.815   2.307   0.781  0.2092 -0.1185 -1.7136
  108HFI     H2 1785   2.014   2.512   0.776 -0.6918  0.7759 -0.3801
  109HFI     O1 1786   2.593   1.313   1.283 -0.5038  0.5127 -0.5419
  109HFI     C1 1787   2.717   1.338   1.352 -0.0298 -0.4820 -0.6769
  109HFI     C2 1788   2.693   1.370   1.506  0.8542 -0.1511  0.1804
  109HFI     F1 1789   2.633   1.267   1.565  0.2062 -0.3170 -0.0095
  109HFI     F2 1790   2.603   1.471   1.530  0.5489 -0.2448  0.4135
  109HFI     F3 1791   2.807   1.397   1.572  0.2934  0.0060 -0.6308
  109HFI     C3 1792   2.798   1.447   1.277  0.8507  0.2437 -0.4548
  109HFI     F4 1793   2.731   1.566   1.273 -0.5811  0.8387 -0.4478
  109HFI     F5 1794   2.814   1.409   1.149 -0.1204  0.4361  0.1099
  109HFI     F6 1795   2.925   1.463   1.324  0.2875 -0.5300 -0.1309
  109HFI     H1 1796   2.543   1.396   1.276 -1.3375  0.2927  2.0497
  109HFI     H2 1797   2.781   1.249   1.346  2.2815  1.0945  0.0821
  110HFI     O1 1798   0.671   1.325   0.030  0.1142  0.2591 -0.3215
  110HFI     C1 1799   0.739   1.239   0.117 -0.4724  0.1101 -0.0270
  110HFI     C2 1800   0.872   1.297   0.149 -0.6435  0.1839  0.4569
  110HFI     F1 1801   0.946   1.230   0.237  0.2377  0.1933 -0.7173
  110HFI     F2 1802   0.850   1.419   0.202  0.5822 -0.3069  0.4609
  110HFI     F3 1803   0.946   1.317   0.040 -0.1755 -0.7776  0.3564
  110HFI     C3 1804   0.743   1.091   0.068  0.3442 -0.3439 -0.0942
  110HFI     F4 1805   0.797   1.008   0.158  0.1461 -0.0509  0.2744
  110HFI     F5 1806   0.818   1.087  -0.048  0.1373 -0.8009  0.0780
  110HFI     F6 1807   0.616   1.051   0.040  0.3819  0.1069 -0.1544
  110HFI     H1 1808   0.644   1.282  -0.054 -1.7432  1.0020 -0.1230
  110HFI     H2 1809   0.682   1.240   0.211 -0.5770  1.3767 -0.0936
  111HFI     O1 1810   0.651   2.866   1.414 -0.0564 -0.4925 -0.1229
  111HFI     C1 1811   0.615   2.964   1.512 -0.2082 -0.1577 -0.0743
  111HFI     C2 1812   0.469   3.015   1.486 -0.0492  0.0146 -0.1147
  111HFI     F1 1813   0.384   2.916   1.478 -0.3086 -0.3795 -0.1253
  111HFI     F2 1814   0.476   3.077   1.365  0.0941 -0.0745  0.0190
  111HFI     F3 1815   0.423   3.108   1.575 -0.1118  0.1312  0.3018
  111HFI     C3 1816   0.718   3.086   1.524 -0.5936  0.1113 -0.5357
  111HFI     F4 1817   0.841   3.029   1.541 -0.0511 -0.0849  0.0841
  111HFI     F5 1818   0.704   3.159   1.638 -0.2486  0.5730 -0.2212
  111HFI     F6 1819   0.731   3.164   1.414  0.1712  0.0621  0.1109
  111HFI     H1 1820   0.617   2.896   1.328 -1.3260 -1.2163  0.1088
  111HFI     H2 1821   0.608   2.920   1.612 -2.0586  1.7820  0.7002
  112HFI     O1 1822   1.633   2.204   0.895  0.3938 -0.2158  0.1038
  112HFI     C1 1823   1.657   2.058   0.904  0.2830 -0.2767  0.5558
  112HFI     C2 1824   1.553   1.974   0.832 -0.4116  0.3809  0.1797
  112HFI     F1 1825   1.432   2.008   0.884 -0.1729  0.2657 -0.3887
  112HFI     F2 1826   1.583   1.843   0.851 -0.0995 -0.0485  0.1919
  112HFI     F3 1827   1.545   1.999   0.705  0.3979 -0.5447 -0.2617
  112HFI     C3 1828   1.694   2.020   1.052 -0.5399 -0.5761 -0.6415
  112HFI     F4 1829   1.586   2.028   1.135 -0.0100  0.7088  0.1961
  112HFI     F5 1830   1.785   2.110   1.099 -0.3184 -0.1886  0.0325
  112HFI     F6 1831   1.752   1.903   1.057  0.1609 -0.0271 -0.4103
  112HFI     H1 1832   1.568   2.229   0.964 -1.3052 -1.0278 -1.1527
  112HFI     H2 1833   1.751   2.023   0.859  0.9780  0.4390  1.4244
  113HFI     O1 1834   1.701   0.711   1.580 -0.2899  0.2485  0.3413
  113HFI     C1 1835   1.707   0.602   1.479 -0.0248  0.2933 -0.2296
  113HFI     C2 1836   1.844   0.597   1.402 -0.7484 -1.0436 -0.6320
  113HFI     F1 1837   1.867   0.491   1.318  0.0342  0.3453  0.0570
  113HFI     F2 1838   1.943   0.593   1.493  0.4329  0.1142  0.1834
  113HFI     F3 1839   1.865   0.702   1.324 -0.0102 -0.6475 -0.7292
  113HFI     C3 1840   1.583   0.608   1.394  0.0082 -0.5529 -0.0687
  113HFI     F4 1841   1.568   0.489   1.319  0.4424 -0.0548 -0.0697
  113HFI     F5 1842   1.575   0.715   1.302  0.6045 -0.3813 -0.1602
  113HFI     F6 1843   1.466   0.619   1.459 -0.0245  0.2564  0.0170
  113HFI     H1 1844   1.728   0.788   1.528  0.1868  1.0881  1.7918
  113HFI     H2 1845   1.707   0.507   1.534 -0.2388  0.7340  0.5441
  114HFI     O1 1846   0.911   2.197   2.925  0.0922  0.2219 -0.2480
  114HFI     C1 1847   0.881   2.338   2.962  0.3693  0.0360  0.7465
  114HFI     C2 1848   0.784   2.339   3.076  0.6986  0.0937  0.2129
  114HFI     F1 1849   0.770   2.466   3.123  0.1571 -0.1191  0.0209
  114HFI     F2 1850   0.835   2.260   3.172 -0.4126 -0.1029  0.2448
  114HFI     F3 1851   0.672   2.283   3.034  0.2960  0.0702  0.0063
  114HFI     C3 1852   0.830   2.411   2.836 -0.4211  0.0358  0.8186
  114HFI     F4 1853   0.781   2.534   2.855  0.4690  0.2269 -0.1393
  114HFI     F5 1854   0.745   2.335   2.758  0.2160  0.3636  0.1440
  114HFI     F6 1855   0.934   2.431   2.760  0.5854 -0.5517  0.6545
  114HFI     H1 1856   0.851   2.171   2.853 -0.6580 -0.0664  0.4652
  114HFI     H2 1857   0.969   2.394   2.998 -0.3533  1.3438  0.5119
  115HFI     O1 1858   2.110   0.815   1.400  0.3659  0.5306  0.1666
  115HFI     C1 1859   2.215   0.826   1.496 -0.3420  0.7246 -0.3092
  115HFI     C2 1860   2.266   0.976   1.521 -0.4922 -0.2335  0.1859
  115HFI     F1 1861   2.279   1.054   1.406 -0.1089 -0.2155  0.6280
  115HFI     F2 1862   2.389   0.976   1.585 -0.0697 -0.2308  0.4172
  115HFI     F3 1863   2.173   1.048   1.592  0.2079 -0.5634 -0.0785
  115HFI     C3 1864   2.331   0.736   1.448  0.2187  0.0803 -0.2367
  115HFI     F4 1865   2.292   0.614   1.418 -0.1077  0.1082  0.3039
  115HFI     F5 1866   2.426   0.721   1.538 -0.3809 -0.4955  0.0763
  115HFI     F6 1867   2.385   0.776   1.336  0.1885 -0.0313 -0.0560
  115HFI     H1 1868   2.142   0.829   1.310  0.1760  0.4877  0.0931
  115HFI     H2 1869   2.191   0.794   1.598  0.8116 -1.2626 -0.6474
  116HFI     O1 1870   0.310   2.671   0.859 -0.2094  0.0777  0.0369
  116HFI     C1 1871   0.335   2.745   0.976  0.1447 -0.3479  0.6241
  116HFI     C2 1872   0.472   2.811   0.975  0.0768  0.1448  0.4626
  116HFI     F1 1873   0.565   2.713   0.947 -0.1281 -0.4445  0.2676
  116HFI     F2 1874   0.497   2.864   1.096  0.2435  0.1357 -0.0829
  116HFI     F3 1875   0.489   2.912   0.884  0.7816 -0.1716  0.5641
  116HFI     C3 1876   0.310   2.648   1.095  0.0175 -0.1786 -0.6037
  116HFI     F4 1877   0.284   2.720   1.206 -0.6227 -0.0995  0.8764
  116HFI     F5 1878   0.424   2.568   1.120 -0.6565  0.1736  0.3165
  116HFI     F6 1879   0.205   2.570   1.084 -0.4801 -0.1429 -0.2055
  116HFI     H1 1880   0.393   2.620   0.851 -0.6960 -0.6485 -0.3565
  116HFI     H2 1881   0.254   2.819   0.987  1.8922  1.8114 -0.6423
  117HFI     O1 1882   1.567   3.307   1.435 -0.9916 -0.1178  0.7271
  117HFI     C1 1883   1.649   3.416   1.481 -0.2017 -0.2951  0.3724
  117HFI     C2 1884   1.616   3.550   1.424  0.5181 -0.3611 -0.3679
  117HFI     F1 1885   1.612   3.538   1.285 -0.0052 -0.3279  0.3135
  117HFI     F2 1886   1.702   3.652   1.455  0.3596 -0.0630  0.0227
  117HFI     F3 1887   1.501   3.583   1.464 -0.1410  0.0119  0.2130
  117HFI     C3 1888   1.802   3.368   1.469 -0.1340  0.2279  0.1834
  117HFI     F4 1889   1.839   3.342   1.339 -0.2791 -0.2337  0.0654
  117HFI     F5 1890   1.813   3.251   1.536  0.0442  0.2253  0.1215
  117HFI     F6 1891   1.892   3.459   1.525 -0.4593 -0.3465 -0.1010
  117HFI     H1 1892   1.519   3.336   1.355  1.3000  0.0116 -0.6571
  117HFI     H2 1893   1.635   3.416   1.590 -1.6224 -0.0828  0.1984
  118HFI     O1 1894   2.472   0.259   2.496 -0.6690 -0.2082  0.4249
  118HFI     C1 1895   2.396   0.384   2.489 -0.0238 -0.5704 -0.1474
  118HFI     C2 1896   2.474   0.501   2.428  0.0691  0.1146  0.0705
  118HFI     F1 1897   2.400   0.608   2.411  0.1022  0.3072  0.3187
  118HFI     F2 1898   2.530   0.465   2.310 -0.2622 -0.4289 -0.2481
  118HFI     F3 1899   2.578   0.533   2.518  0.1581 -0.0075 -0.2541
  118HFI     C3 1900   2.332   0.415   2.628 -0.0885  0.2321 -0.0404
  118HFI     F4 1901   2.428   0.414   2.721 -0.2137  0.5336 -0.0410
  118HFI     F5 1902   2.234   0.330   2.659 -1.0082 -0.2090  0.0313
  118HFI     F6 1903   2.273   0.539   2.632  0.1812 -0.2231 -0.4366
  118HFI     H1 1904   2.563   0.275   2.464  0.1877 -3.6980  0.9959
  118HFI     H2 1905   2.312   0.365   2.421  0.2680 -0.0444 -0.6528
  119HFI     O1 1906   0.884   0.955   3.152 -0.3009 -0.0173  0.1527
  119HFI     C1 1907   0.917   0.875   3.269  0.2650 -0.1248 -0.0984
  119HFI     C2 1908   1.003   0.757   3.222  0.9182 -0.5077  0.2472
  119HFI     F1 1909   1.106   0.792   3.140  0.1496 -0.3478 -0.6148
  119HFI     F2 1910   0.928   0.668   3.153 -0.0311 -0.1024 -0.0379
  119HFI     F3 1911   1.062   0.698   3.330  0.0099  0.2946  0.0392
  119HFI     C3 1912   0.779   0.846   3.339 -0.3693  0.3494  0.1974
  119HFI     F4 1913   0.718   0.965   3.381 -0.1285  0.3141 -0.1278
  119HFI     F5 1914   0.812   0.779   3.456 -0.2168  0.2351  0.2312
  119HFI     F6 1915   0.691   0.769   3.272  0.1487 -0.0610 -0.4894
  119HFI     H1 1916   0.968   0.967   3.104 -0.8600  0.1568 -0.7867
  119HFI     H2 1917   0.971   0.927   3.348 -0.9673 -1.5682  1.7308
  120HFI     O1 1918   0.794   0.320   2.553  0.0821  0.2993 -0.1719
  120HFI     C1 1919   0.762   0.430   2.461  0.0973  0.2408 -0.5361
  120HFI     C2 1920   0.716   0.373   2.329 -0.0107  0.2184  1.0825
  120HFI     F1 1921   0.643   0.256   2.342  0.2668 -0.1105  0.2333
  120HFI     F2 1922   0.820   0.341   2.256 -0.0473  0.0004  0.2469
  120HFI     F3 1923   0.649   0.460   2.257  0.4708  0.6595  0.4155
  120HFI     C3 1924   0.895   0.516   2.456 -0.0637  0.5990 -0.0882
  120HFI     F4 1925   1.004   0.437   2.448  0.4177 -0.2953  0.4992
  120HFI     F5 1926   0.904   0.598   2.560 -0.2321  0.0058  0.9987
  120HFI     F6 1927   0.894   0.600   2.348 -0.4346 -0.2713  0.0120
  120HFI     H1 1928   0.881   0.282   2.530  0.8445  1.9186 -0.0477
  120HFI     H2 1929   0.682   0.500   2.489 -0.4037 -0.5154 -0.0634
  121HFI     O1 1930   0.436   0.799   3.010  0.2689 -0.3037  0.1677
  121HFI     C1 1931   0.467   0.688   2.920 -0.0390  0.4220  0.6880
  121HFI     C2 1932   0.608   0.638   2.960 -0.2399 -0.0069 -0.0646
  121HFI     F1 1933   0.656   0.538   2.878  0.0786  0.3995 -0.5225
  121HFI     F2 1934   0.610   0.584   3.088 -0.4612  0.0179  0.3124
  121HFI     F3 1935   0.699   0.742   2.957 -0.3643  0.2407  0.0778
  121HFI     C3 1936   0.449   0.730   2.768  0.1054 -0.5350  0.0294
  121HFI     F4 1937   0.533   0.825   2.720 -0.2362 -0.0093 -0.3860
  121HFI     F5 1938   0.325   0.773   2.739 -0.6694  0.0689 -0.3527
  121HFI     F6 1939   0.474   0.633   2.684 -0.1930  0.5006 -0.0583
  121HFI     H1 1940   0.491   0.878   2.994 -2.0867  1.4659  0.5734
  121HFI     H2 1941   0.394   0.607   2.937 -0.8331  0.8806 -0.4598
  122HFI     O1 1942   2.930   2.797   2.510 -0.6519 -0.1239  0.2575
  122HFI     C1 1943   2.843   2.781   2.397  0.1379 -0.0620  0.7185
  122HFI     C2 1944   2.912   2.689   2.296 -0.4255  0.3041  0.6381
  122HFI     F1 1945   2.835   2.672   2.190  0.0167 -0.1789 -0.3092
  122HFI     F2 1946   2.936   2.563   2.359 -0.3103 -0.0778 -0.2660
  122HFI     F3 1947   3.029   2.746   2.257  0.0619 -0.3000  0.0316
  122HFI     C3 1948   2.800   2.917   2.336  0.5403 -0.2910  0.2953
  122HFI     F4 1949   2.884   2.966   2.245  0.3420  0.0434  0.4278
  122HFI     F5 1950   2.791   3.012   2.437 -0.2811  0.4255  0.0605
  122HFI     F6 1951   2.682   2.913   2.271  0.2184  0.2182 -0.6968
  122HFI     H1 1952   2.955   2.891   2.508 -0.6431 -0.1109  0.8739
  122HFI     H2 1953   2.756   2.725   2.432  0.2216 -0.3702  0.4333
  123HFI     O1 1954   1.309   3.348   0.049 -0.4689  0.1308  0.1236
  123HFI     C1 1955   1.205   3.264   0.105  0.1205  0.2756  0.6540
  123HFI     C2 1956   1.270   3.196   0.234  0.5809 -0.0140 -0.9979
  123HFI     F1 1957   1.343   3.092   0.202 -0.3077 -0.1321  0.1031
  123HFI     F2 1958   1.179   3.166   0.332  0.0378 -0.3444  0.3788
  123HFI     F3 1959   1.358   3.278   0.293  0.5577  0.0633 -0.1048
  123HFI     C3 1960   1.126   3.160   0.019 -0.5527  0.0223  0.2505
  123HFI     F4 1961   1.045   3.228  -0.061 -0.1331  0.3800  0.9991
  123HFI     F5 1962   1.052   3.083   0.104 -0.4651 -0.5218  0.1228
  123HFI     F6 1963   1.201   3.081  -0.067 -0.0628 -0.4010 -0.0519
  123HFI     H1 1964   1.355   3.402   0.115  2.8433  0.6022 -2.4607
  123HFI     H2 1965   1.130   3.333   0.146  1.1806  1.7070  0.2015
  124HFI     O1 1966   2.686   2.651   3.542 -0.2958  0.5316  0.5966
  124HFI     C1 1967   2.578   2.708   3.618  0.8676 -0.0976 -0.3458
  124HFI     C2 1968   2.627   2.790   3.736  0.1971 -0.0675 -0.1040
  124HFI     F1 1969   2.690   2.713   3.827 -0.5009  0.2446 -0.0454
  124HFI     F2 1970   2.531   2.866   3.795 -0.0320 -0.4492 -0.0288
  124HFI     F3 1971   2.733   2.879   3.697  0.4202  0.0197 -0.1769
  124HFI     C3 1972   2.473   2.596   3.662 -0.5531 -0.3528 -0.6668
  124HFI     F4 1973   2.516   2.508   3.749 -0.7866 -0.5400  0.3246
  124HFI     F5 1974   2.432   2.528   3.557 -0.3254 -0.2933 -0.3073
  124HFI     F6 1975   2.358   2.651   3.715 -0.5499  0.2779 -0.3076
  124HFI     H1 1976   2.773   2.694   3.549  0.8812 -0.9248 -3.6575
  124HFI     H2 1977   2.515   2.781   3.566 -0.9516 -1.3233  0.1064
  125HFI     O1 1978   1.518   2.552   3.725 -0.4174 -0.6077  0.0891
  125HFI     C1 1979   1.408   2.625   3.793  0.7096 -0.2795 -0.4444
  125HFI     C2 1980   1.292   2.650   3.702 -0.3161 -0.4147 -0.1060
  125HFI     F1 1981   1.307   2.749   3.618  0.1251 -0.7081  0.0821
  125HFI     F2 1982   1.183   2.673   3.775  0.2530  0.5679  0.0047
  125HFI     F3 1983   1.263   2.531   3.632  0.0458  0.0280  0.1000
  125HFI     C3 1984   1.450   2.757   3.866  0.1018 -0.2734 -0.1571
  125HFI     F4 1985   1.536   2.736   3.969  0.4023  0.1317 -0.9210
  125HFI     F5 1986   1.349   2.819   3.917  0.0072 -0.1536 -0.1936
  125HFI     F6 1987   1.511   2.848   3.786 -0.7128  0.0723 -1.0312
  125HFI     H1 1988   1.567   2.614   3.668  0.5939 -1.4101  0.0538
  125HFI     H2 1989   1.369   2.564   3.875 -0.8906  2.5139  0.9371
  126HFI     O1 1990   1.119   0.802   2.256 -0.5746  0.4968  0.8055
  126HFI     C1 1991   1.216   0.748   2.358 -0.3569  0.7808 -0.2520
  126HFI     C2 1992   1.317   0.855   2.399 -0.3092 -0.2181 -0.1603
  126HFI     F1 1993   1.390   0.804   2.500  1.0078 -0.1195  0.2967
  126HFI     F2 1994   1.252   0.970   2.448 -0.4001  0.1739 -0.5963
  126HFI     F3 1995   1.400   0.894   2.292  0.1403  0.3618 -0.6376
  126HFI     C3 1996   1.288   0.626   2.303 -0.2589 -0.4426  0.4966
  126HFI     F4 1997   1.365   0.561   2.396  0.2775  0.2095  0.3820
  126HFI     F5 1998   1.366   0.649   2.193  0.1693 -0.6344  0.6237
  126HFI     F6 1999   1.193   0.536   2.260  0.4485 -0.1719  0.9011
  126HFI     H1 2000   1.058   0.731   2.229  1.3187 -0.2863 -1.6196
  126HFI     H2 2001   1.157   0.718   2.446 -0.7236 -0.9981 -1.0671
  127HFI     O1 2002   1.315   2.866   2.794 -0.3919 -0.3239  0.2074
  127HFI     C1 2003   1.210   2.797   2.865  0.5068  0.3633  0.2145
  127HFI     C2 2004   1.264   2.664   2.928 -0.3107 -0.2833  0.3513
  127HFI     F1 2005   1.300   2.570   2.840 -0.2800  0.0762 -0.1032
  127HFI     F2 2006   1.172   2.602   3.006  0.3484  0.1615  0.3132
  127HFI     F3 2007   1.366   2.689   3.008 -0.0959  0.1923  0.1231
  127HFI     C3 2008   1.083   2.775   2.776 -0.0931  0.3809  0.4882
  127HFI     F4 2009   1.047   2.886   2.713 -0.5097  0.6648 -0.2780
  127HFI     F5 2010   0.979   2.751   2.858  0.6067  0.2496  0.0570
  127HFI     F6 2011   1.105   2.677   2.689 -0.0873 -0.2284  0.0108
  127HFI     H1 2012   1.328   2.820   2.709 -0.5545  0.1243 -0.0588
  127HFI     H2 2013   1.180   2.875   2.936  0.6918  1.5657 -0.9911
  128HFI     O1 2014   3.139   0.525   2.997  0.1066  0.0677 -0.2005
  128HFI     C1 2015   3.123   0.666   2.995 -0.2166  0.0236  0.4699
  128HFI     C2 2016   3.214   0.722   2.877  0.1059  0.0342 -0.3340
  128HFI     F1 2017   3.198   0.852   2.852 -0.5320  0.4630  0.1394
  128HFI     F2 2018   3.166   0.648   2.772 -0.6540 -0.5825 -0.1200
  128HFI     F3 2019   3.344   0.704   2.885 -0.4640 -0.1538  0.4024
  128HFI     C3 2020   3.142   0.730   3.141  0.1957 -0.7508 -0.5595
  128HFI     F4 2021   3.263   0.714   3.188 -0.1903  0.0676 -0.4188
  128HFI     F5 2022   3.066   0.671   3.233 -0.1979  0.3310  0.7331
  128HFI     F6 2023   3.112   0.865   3.132  0.1818  0.3166  0.5976
  128HFI     H1 2024   3.208   0.496   3.059  0.1158  0.3538 -0.0777
  128HFI     H2 2025   3.023   0.695   2.959  0.0487  0.9410  0.4593
  129HFI     O1 2026   3.186   2.349   2.747  0.0812 -0.4694  0.6724
  129HFI     C1 2027   3.122   2.475   2.751 -0.3662 -0.6465 -0.5166
  129HFI     C2 2028   3.221   2.595   2.714 -0.2826 -0.3727 -0.1293
  129HFI     F1 2029   3.318   2.611   2.801 -1.1766 -0.3364  0.0096
  129HFI     F2 2030   3.157   2.707   2.687  0.1397 -0.3494  0.0664
  129HFI     F3 2031   3.271   2.559   2.604  0.0787 -0.1878  0.1398
  129HFI     C3 2032   3.075   2.502   2.895  0.3248 -0.6120  0.5528
  129HFI     F4 2033   3.169   2.490   2.989  0.1327 -0.3398 -0.5741
  129HFI     F5 2034   2.986   2.405   2.921  0.3268 -0.0001  0.2717
  129HFI     F6 2035   3.016   2.626   2.905  0.2922 -0.0326  0.1826
  129HFI     H1 2036   3.248   2.332   2.821  0.0394  0.3169  0.8912
  129HFI     H2 2037   3.036   2.484   2.684  1.0680 -0.6672 -2.4177
  130HFI     O1 2038   1.478   0.360   3.414  0.3500 -0.5065  0.6012
  130HFI     C1 2039   1.498   0.429   3.546  0.0017  0.1292  0.5628
  130HFI     C2 2040   1.639   0.386   3.603 -0.2944 -0.0321  0.4011
  130HFI     F1 2041   1.736   0.392   3.516 -0.7284 -0.2178 -0.0650
  130HFI     F2 2042   1.639   0.256   3.651 -0.1106  0.1067 -0.5488
  130HFI     F3 2043   1.680   0.470   3.700  0.0145  0.0546 -0.1841
  130HFI     C3 2044   1.390   0.401   3.653  0.1897  0.6744 -0.2847
  130HFI     F4 2045   1.373   0.273   3.686 -0.0192 -0.0997  0.9434
  130HFI     F5 2046   1.277   0.452   3.613 -0.1550 -0.0432 -0.1392
  130HFI     F6 2047   1.407   0.470   3.764 -0.1363 -0.0471 -0.1761
  130HFI     H1 2048   1.393   0.313   3.419  1.2897 -2.7442 -2.7930
  130HFI     H2 2049   1.502   0.537   3.533  0.1131  0.0988  0.3496
  131HFI     O1 2050   2.143   1.490   0.610  0.3697 -0.4411  0.4108
  131HFI     C1 2051   2.253   1.462   0.527 -1.0023  0.3330  0.5518
  131HFI     C2 2052   2.252   1.314   0.479  0.6658 -0.9424 -0.1702
  131HFI     F1 2053   2.366   1.279   0.428  0.0761 -0.0045  0.7044
  131HFI     F2 2054   2.153   1.292   0.390  0.4587 -0.1495 -0.2608
  131HFI     F3 2055   2.240   1.236   0.588  0.1627 -0.6987 -0.0057
  131HFI     C3 2056   2.388   1.498   0.587  1.0425  0.1773 -0.2936
  131HFI     F4 2057   2.380   1.630   0.629 -0.4654 -0.1974  0.6503
  131HFI     F5 2058   2.487   1.485   0.495  0.2068  0.4652  0.3576
  131HFI     F6 2059   2.420   1.425   0.698 -0.1848 -0.1587  0.1494
  131HFI     H1 2060   2.165   1.455   0.698 -0.0860  0.7557  1.0124
  131HFI     H2 2061   2.249   1.514   0.430 -2.2753  0.8926  0.8877
  132HFI     O1 2062   2.774   3.156   1.114  0.5767 -0.1469 -0.1256
  132HFI     C1 2063   2.749   3.012   1.083 -0.2910 -0.2994  0.2482
  132HFI     C2 2064   2.865   2.914   1.121  0.2873  0.3431 -0.2341
  132HFI     F1 2065   2.842   2.787   1.087 -0.1638  0.4985  0.3873
  132HFI     F2 2066   2.880   2.918   1.257  0.7150 -0.2588  0.3093
  132HFI     F3 2067   2.986   2.955   1.067  0.0408 -0.0580 -0.1405
  132HFI     C3 2068   2.707   2.987   0.938  0.3684  0.0522  0.6897
  132HFI     F4 2069   2.663   2.864   0.924 -0.0892 -0.3944  0.2840
  132HFI     F5 2070   2.811   3.008   0.855 -0.4247 -0.3209 -0.1474
  132HFI     F6 2071   2.604   3.073   0.893 -0.0623  0.1445  0.0174
  132HFI     H1 2072   2.831   3.191   1.044 -1.8124  0.2302 -1.9469
  132HFI     H2 2073   2.664   2.980   1.143  0.3358  0.2835  1.4573
  133HFI     O1 2074   1.952   1.751   2.503  0.6071 -0.9905 -0.1684
  133HFI     C1 2075   1.867   1.778   2.386  0.1421 -0.4489 -0.4162
  133HFI     C2 2076   1.841   1.650   2.309  0.6347  0.7012 -0.0071
  133HFI     F1 2077   1.761   1.662   2.196 -0.2823  0.3484 -0.0067
  133HFI     F2 2078   1.780   1.551   2.384 -0.5986  0.5026  0.3309
  133HFI     F3 2079   1.960   1.607   2.260 -0.4045  0.0132 -0.4314
  133HFI     C3 2080   1.925   1.894   2.303  0.5573 -0.1321 -0.9097
  133HFI     F4 2081   1.921   2.001   2.382 -0.0457  0.0121  0.3699
  133HFI     F5 2082   1.857   1.918   2.184  0.3892 -0.0058  0.2465
  133HFI     F6 2083   2.052   1.879   2.264  0.0546 -0.3014 -1.0386
  133HFI     H1 2084   1.994   1.664   2.489  0.9193 -0.8030 -0.4013
  133HFI     H2 2085   1.770   1.823   2.412 -0.3777 -1.2644 -0.9160
  134HFI     O1 2086   2.166   2.060   1.219  0.0506  0.0864  0.0659
  134HFI     C1 2087   2.170   2.149   1.103  0.0984 -0.1477 -0.2078
  134HFI     C2 2088   2.165   2.071   0.964 -0.3553 -0.6666  0.0830
  134HFI     F1 2089   2.138   2.158   0.859 -0.1915  0.3333  0.2267
  134HFI     F2 2090   2.075   1.976   0.962  0.5692  0.0923  0.3356
  134HFI     F3 2091   2.288   2.012   0.936 -0.2644  0.1350  0.7414
  134HFI     C3 2092   2.280   2.260   1.122  0.1429  0.1812  0.4119
  134HFI     F4 2093   2.292   2.336   1.009  0.4222  0.0247 -0.2289
  134HFI     F5 2094   2.399   2.192   1.138 -0.2324  0.5617 -0.3344
  134HFI     F6 2095   2.261   2.343   1.227 -0.3539  0.3319  0.1758
  134HFI     H1 2096   2.096   2.093   1.277  1.1282  0.0096  1.4580
  134HFI     H2 2097   2.076   2.203   1.090 -0.4997 -1.2991 -0.7367
  135HFI     O1 2098   1.768   0.460   2.219 -0.1441 -0.2200  0.4838
  135HFI     C1 2099   1.878   0.374   2.264  0.3580 -0.5635  0.6429
  135HFI     C2 2100   1.827   0.253   2.337 -0.4845  0.1971  0.7762
  135HFI     F1 2101   1.717   0.289   2.404 -0.0620 -0.1011  0.1206
  135HFI     F2 2102   1.914   0.211   2.432 -0.1787 -0.0685  0.0997
  135HFI     F3 2103   1.799   0.141   2.260 -0.3095  0.3260  0.0530
  135HFI     C3 2104   1.998   0.451   2.326  0.0948 -0.0012 -0.1744
  135HFI     F4 2105   2.112   0.378   2.331 -0.0984 -0.4286 -0.1272
  135HFI     F5 2106   1.967   0.489   2.456 -0.3710  0.4911  0.0155
  135HFI     F6 2107   2.036   0.566   2.255 -0.1432 -0.2764 -0.0680
  135HFI     H1 2108   1.752   0.520   2.294  0.8235 -1.1482  1.4460
  135HFI     H2 2109   1.927   0.337   2.173 -0.3297 -0.7246  0.3330
  136HFI     O1 2110   1.175   3.374   2.316  0.0643  0.2187  0.2321
  136HFI     C1 2111   1.263   3.454   2.400  0.8990  0.0064  0.6335
  136HFI     C2 2112   1.212   3.592   2.420  0.1472  0.4115 -0.0782
  136HFI     F1 2113   1.215   3.666   2.309  0.0416 -0.3843 -0.2552
  136HFI     F2 2114   1.272   3.653   2.515  0.1859  0.2521  0.2893
  136HFI     F3 2115   1.077   3.591   2.453 -0.5079  0.6893  0.4495
  136HFI     C3 2116   1.407   3.447   2.346  0.9883 -0.1821 -0.6557
  136HFI     F4 2117   1.409   3.502   2.221 -0.1889 -0.0069 -0.1437
  136HFI     F5 2118   1.454   3.319   2.334  0.1325  0.0662  0.2139
  136HFI     F6 2119   1.487   3.506   2.424 -0.4187  0.2386 -0.2805
  136HFI     H1 2120   1.164   3.415   2.228  1.6444  0.9876  0.3884
  136HFI     H2 2121   1.269   3.405   2.499  0.3484 -0.0163  0.6586
  137HFI     O1 2122   1.471   3.285   2.678  0.6768 -0.2981  0.1935
  137HFI     C1 2123   1.380   3.275   2.791 -0.6088  0.1968 -0.6061
  137HFI     C2 2124   1.235   3.233   2.752  0.0605 -0.8194 -0.1901
  137HFI     F1 2125   1.173   3.191   2.861  0.3632 -0.1182 -1.0287
  137HFI     F2 2126   1.232   3.139   2.649  0.3487  1.3345 -0.0022
  137HFI     F3 2127   1.160   3.342   2.717 -0.2368 -0.0235 -0.5366
  137HFI     C3 2128   1.389   3.400   2.887  0.7488  0.0313 -0.4908
  137HFI     F4 2129   1.298   3.390   2.989 -0.5332  0.5475  0.0155
  137HFI     F5 2130   1.366   3.510   2.817  0.0242  0.0193  0.2218
  137HFI     F6 2131   1.514   3.399   2.932 -0.1081  0.2276 -0.7642
  137HFI     H1 2132   1.556   3.324   2.702  0.4621  0.5345 -0.3827
  137HFI     H2 2133   1.410   3.187   2.849  1.3191 -0.0364 -1.9289
  138HFI     O1 2134   1.731   2.539   2.221  0.1251 -0.6811 -0.2951
  138HFI     C1 2135   1.817   2.519   2.341 -0.3498  0.3158 -0.1728
  138HFI     C2 2136   1.961   2.508   2.289  0.5281  0.8279 -0.0663
  138HFI     F1 2137   1.986   2.413   2.197  0.3144 -0.0779  0.2282
  138HFI     F2 2138   2.048   2.470   2.388  0.4505 -0.2947 -0.0627
  138HFI     F3 2139   2.007   2.626   2.238 -0.0611  0.0370 -0.0635
  138HFI     C3 2140   1.766   2.403   2.423 -0.1691  0.1002 -0.1135
  138HFI     F4 2141   1.823   2.395   2.547  0.2889 -0.0609  0.2963
  138HFI     F5 2142   1.798   2.291   2.361  0.6787  0.1832 -0.3139
  138HFI     F6 2143   1.631   2.405   2.446  0.0311  0.0216  0.0302
  138HFI     H1 2144   1.641   2.550   2.256  0.0200 -2.4792  0.0282
  138HFI     H2 2145   1.824   2.609   2.404  1.3031 -0.1815  0.3830
  139HFI     O1 2146   2.715   0.232   3.201  0.1825  0.3245  0.0265
  139HFI     C1 2147   2.822   0.155   3.265 -0.6588  0.7188  0.5267
  139HFI     C2 2148   2.843   0.213   3.407 -0.8480  0.6581  0.1940
  139HFI     F1 2149   2.935   0.316   3.410 -0.6642  0.4756  0.5794
  139HFI     F2 2150   2.889   0.114   3.491 -0.0440 -0.1800 -0.7282
  139HFI     F3 2151   2.722   0.260   3.452  0.0043  0.2627  0.3711
  139HFI     C3 2152   2.945   0.127   3.178  0.4832  0.0047 -0.8988
  139HFI     F4 2153   2.991   0.236   3.112  0.5505  0.6500 -0.0724
  139HFI     F5 2154   2.902   0.039   3.086 -0.4087  0.1170  0.1690
  139HFI     F6 2155   3.045   0.067   3.241 -0.2672  0.1108 -0.3370
  139HFI     H1 2156   2.739   0.320   3.168 -0.4894  0.2685 -0.6277
  139HFI     H2 2157   2.782   0.054   3.273 -2.0661  1.2952  0.8019
  140HFI     O1 2158   1.192   0.323   0.902  0.3415  0.3327 -0.3721
  140HFI     C1 2159   1.333   0.332   0.956 -0.4429 -0.2983  0.5860
  140HFI     C2 2160   1.339   0.289   1.100 -0.1133 -0.0294 -0.8197
  140HFI     F1 2161   1.284   0.167   1.108 -0.2296 -0.1148  0.4442
  140HFI     F2 2162   1.273   0.369   1.189  0.2303 -0.1284 -0.0088
  140HFI     F3 2163   1.464   0.273   1.143  0.1555  0.3643 -0.7304
  140HFI     C3 2164   1.405   0.466   0.921  0.3280  0.2603  0.4391
  140HFI     F4 2165   1.359   0.564   0.996 -0.0497  0.1702 -0.3422
  140HFI     F5 2166   1.387   0.500   0.790  0.2146 -0.6002  0.0956
  140HFI     F6 2167   1.531   0.461   0.947  0.4985 -0.1276 -0.1812
  140HFI     H1 2168   1.200   0.296   0.809 -0.8106  1.6623 -0.8656
  140HFI     H2 2169   1.395   0.254   0.910 -0.8797 -0.0044 -0.5225
  141HFI     O1 2170   2.074   1.495   2.605  0.2357  0.2211  0.2173
  141HFI     C1 2171   2.044   1.511   2.750 -0.6785  0.1320  0.0021
  141HFI     C2 2172   2.171   1.482   2.829 -0.8922 -0.2791 -0.2319
  141HFI     F1 2173   2.272   1.567   2.781 -0.1336 -0.1085 -0.4635
  141HFI     F2 2174   2.220   1.360   2.803  0.4709  0.0460 -0.2113
  141HFI     F3 2175   2.171   1.506   2.964  0.1140  0.3500  0.2452
  141HFI     C3 2176   1.927   1.414   2.798  0.1378 -0.5299  0.1136
  141HFI     F4 2177   1.812   1.447   2.736 -0.1671  0.3085  0.0839
  141HFI     F5 2178   1.905   1.421   2.931 -0.2575 -0.1618 -0.1195
  141HFI     F6 2179   1.935   1.288   2.779  0.0526  0.3141  0.3871
  141HFI     H1 2180   2.057   1.404   2.579 -0.6777 -0.7939  4.0175
  141HFI     H2 2181   2.013   1.610   2.786  0.1272 -0.4247  2.2751
  142HFI     O1 2182   0.552   2.934   3.706 -0.3025  0.0413  0.2193
  142HFI     C1 2183   0.565   2.890   3.837  0.3459 -0.1463 -0.2571
  142HFI     C2 2184   0.583   3.001   3.939 -0.3193 -0.0212  0.1615
  142HFI     F1 2185   0.686   3.081   3.922 -0.1702  0.3154 -0.2453
  142HFI     F2 2186   0.583   2.952   4.060 -0.5163 -0.0848 -0.1593
  142HFI     F3 2187   0.474   3.081   3.936 -0.1924  0.2312 -0.4676
  142HFI     C3 2188   0.690   2.791   3.832 -0.4984 -0.4611  0.1583
  142HFI     F4 2189   0.697   2.711   3.939  0.0244  0.1868  0.3494
  142HFI     F5 2190   0.807   2.859   3.823  0.2987  0.0786  0.2928
  142HFI     F6 2191   0.690   2.713   3.728  0.1603  0.3025 -0.1158
  142HFI     H1 2192   0.526   2.860   3.649  1.0080  0.1461 -0.5336
  142HFI     H2 2193   0.477   2.830   3.863  1.5804 -1.0227  2.0067
  143HFI     O1 2194   0.612   1.672   2.821 -0.7596  0.1604  0.2099
  143HFI     C1 2195   0.752   1.718   2.811  0.5482 -0.5787  0.1835
  143HFI     C2 2196   0.860   1.609   2.843 -0.1577 -0.9456  1.1957
  143HFI     F1 2197   0.872   1.582   2.979 -0.1602  0.0104  0.3983
  143HFI     F2 2198   0.988   1.643   2.802 -0.9821  0.0697  0.5243
  143HFI     F3 2199   0.827   1.493   2.791  0.2185 -0.0643  0.0802
  143HFI     C3 2200   0.787   1.851   2.893 -0.6181  0.1756 -0.2739
  143HFI     F4 2201   0.725   1.956   2.837 -0.7863 -0.2757 -0.1872
  143HFI     F5 2202   0.923   1.890   2.899 -0.3993 -0.0782  0.1000
  143HFI     F6 2203   0.740   1.843   3.024 -0.1139 -0.1970  0.4060
  143HFI     H1 2204   0.552   1.743   2.793 -0.3104  0.8172  0.9140
  143HFI     H2 2205   0.776   1.758   2.712  0.4651 -1.8110 -0.3490
  144HFI     O1 2206   2.212   0.953   3.591  0.2434 -0.2532  0.1716
  144HFI     C1 2207   2.313   0.940   3.696 -0.0876 -0.4754 -0.7384
  144HFI     C2 2208   2.250   0.973   3.844  0.3493 -0.1352 -0.5337
  144HFI     F1 2209   2.116   0.945   3.855  0.0421  0.1569  0.0657
  144HFI     F2 2210   2.260   1.107   3.869 -0.4395  0.4520  0.2778
  144HFI     F3 2211   2.314   0.906   3.937  0.3976 -0.3412 -0.2308
  144HFI     C3 2212   2.454   1.022   3.665  0.7852  0.5474 -0.5425
  144HFI     F4 2213   2.523   0.965   3.564  0.3117 -0.1760 -0.4168
  144HFI     F5 2214   2.544   1.023   3.765  0.2991 -0.4299 -0.1283
  144HFI     F6 2215   2.431   1.147   3.627 -0.1888 -0.5356  0.0274
  144HFI     H1 2216   2.258   0.972   3.507  2.6654  0.3974  1.6043
  144HFI     H2 2217   2.346   0.836   3.704  1.7584  0.2409  1.6079
  145HFI     O1 2218   1.466   0.487   0.283  0.3056  0.2523 -0.5466
  145HFI     C1 2219   1.591   0.417   0.298 -0.4715  0.7089 -0.2708
  145HFI     C2 2220   1.601   0.267   0.246  0.3173 -0.3673 -0.4273
  145HFI     F1 2221   1.722   0.215   0.281 -0.0621  0.0661  0.6071
  145HFI     F2 2222   1.580   0.258   0.114  0.3138 -0.0111  0.2508
  145HFI     F3 2223   1.502   0.201   0.312  0.1750  0.2068  0.2122
  145HFI     C3 2224   1.662   0.448   0.434  0.3561  0.6559  0.0204
  145HFI     F4 2225   1.785   0.394   0.446 -0.1747 -0.3550 -0.4198
  145HFI     F5 2226   1.589   0.404   0.540  0.1035  0.2650 -0.2328
  145HFI     F6 2227   1.680   0.581   0.452  0.1106  0.2092 -0.7260
  145HFI     H1 2228   1.403   0.470   0.356 -0.8497 -1.4569 -1.9063
  145HFI     H2 2229   1.654   0.469   0.225  1.5948  1.5255  2.0154
  146HFI     O1 2230   2.512   2.749   2.468 -0.1509 -0.0337 -0.2530
  146HFI     C1 2231   2.419   2.857   2.450  0.2353  0.4782 -0.3684
  146HFI     C2 2232   2.362   2.892   2.584  0.5332  0.3396  0.7353
  146HFI     F1 2233   2.303   3.012   2.597 -0.2160  0.8869  0.5705
  146HFI     F2 2234   2.465   2.904   2.671 -0.0763  0.2164  0.3122
  146HFI     F3 2235   2.271   2.796   2.625  0.5904  0.1320  0.3300
  146HFI     C3 2236   2.315   2.835   2.335  0.0373 -0.0444 -0.5602
  146HFI     F4 2237   2.371   2.787   2.226 -0.1817  0.1391  0.0647
  146HFI     F5 2238   2.267   2.956   2.303  0.5912  0.1001 -0.0913
  146HFI     F6 2239   2.205   2.763   2.370 -0.4556 -0.9300  0.7287
  146HFI     H1 2240   2.461   2.667   2.474  1.3721 -0.9542  0.4903
  146HFI     H2 2241   2.474   2.949   2.427  0.5055  0.5376  0.5192
  147HFI     O1 2242   3.033   1.178   3.139 -0.1612  0.0678  0.5350
  147HFI     C1 2243   2.956   1.203   3.263  0.4898 -0.1902 -0.0331
  147HFI     C2 2244   2.863   1.081   3.311  0.3841 -0.0254  0.0074
  147HFI     F1 2245   2.829   1.086   3.437  0.3938 -0.6626 -0.4391
  147HFI     F2 2246   2.928   0.963   3.290 -0.6822 -0.0499  0.3152
  147HFI     F3 2247   2.747   1.073   3.236  0.1341 -0.3300 -0.4554
  147HFI     C3 2248   2.866   1.330   3.256 -0.6419 -0.4514 -0.1713
  147HFI     F4 2249   2.946   1.437   3.262  0.2837  0.3347 -0.5597
  147HFI     F5 2250   2.785   1.336   3.359  0.1749  0.0037 -0.1123
  147HFI     F6 2251   2.804   1.330   3.134 -0.1225 -0.7865  0.2908
  147HFI     H1 2252   2.972   1.196   3.065  1.3603  1.5111 -0.4161
  147HFI     H2 2253   3.021   1.220   3.350 -1.1316 -1.1006  1.3752
  148HFI     O1 2254   2.585   0.957   2.912  0.2423 -0.5898  0.4866
  148HFI     C1 2255   2.680   0.945   2.799  0.0240 -0.3733 -0.1435
  148HFI     C2 2256   2.651   0.837   2.693 -0.2629  0.3664  0.4925
  148HFI     F1 2257   2.750   0.804   2.610  0.1226  0.4594  0.2553
  148HFI     F2 2258   2.542   0.858   2.618 -0.6214 -0.2293  0.0071
  148HFI     F3 2259   2.629   0.719   2.752 -0.4752  0.0334  0.3721
  148HFI     C3 2260   2.819   0.937   2.855 -0.3598 -0.0121 -0.0582
  148HFI     F4 2261   2.835   0.819   2.925  0.0341 -0.0934  0.0078
  148HFI     F5 2262   2.828   1.032   2.945 -0.5799 -0.1665 -0.1206
  148HFI     F6 2263   2.920   0.945   2.759  0.3771 -0.0107 -0.1374
  148HFI     H1 2264   2.580   1.052   2.932  1.3284 -0.5992  0.8318
  148HFI     H2 2265   2.685   1.029   2.729  2.5477 -0.8560 -0.5861
  149HFI     O1 2266   2.321   3.093   3.179  0.0360  0.3052 -0.2408
  149HFI     C1 2267   2.397   2.972   3.220 -0.1645  0.0386 -0.6861
  149HFI     C2 2268   2.315   2.905   3.328  0.1560  0.2116 -0.3216
  149HFI     F1 2269   2.311   2.978   3.441  0.6653 -0.1933 -0.1188
  149HFI     F2 2270   2.360   2.783   3.361 -0.4319 -0.6407 -0.4598
  149HFI     F3 2271   2.193   2.892   3.274 -0.0121  0.2697 -0.0263
  149HFI     C3 2272   2.540   3.005   3.262 -0.1201  0.3124 -0.7498
  149HFI     F4 2273   2.544   3.070   3.379  0.1742  0.4355 -0.4037
  149HFI     F5 2274   2.601   3.088   3.177 -0.3185 -0.2053 -0.5306
  149HFI     F6 2275   2.622   2.903   3.275 -0.0589 -0.2917  0.5464
  149HFI     H1 2276   2.281   3.136   3.256 -0.4798 -0.3569 -0.1380
  149HFI     H2 2277   2.392   2.904   3.135 -0.2190  1.0462 -1.5020
  150HFI     O1 2278   0.089   2.797   2.559 -0.4614 -0.2098  0.2278
  150HFI     C1 2279   0.069   2.743   2.420  0.4533 -0.3527  0.1863
  150HFI     C2 2280   0.204   2.720   2.355 -0.4334  0.2194 -0.2517
  150HFI     F1 2281   0.278   2.837   2.341  0.5085 -0.2673 -0.0873
  150HFI     F2 2282   0.189   2.670   2.231  0.3302 -0.0351  0.3262
  150HFI     F3 2283   0.277   2.625   2.426 -0.2205 -0.2224  0.4248
  150HFI     C3 2284  -0.033   2.819   2.337  0.1408 -0.6680 -0.1800
  150HFI     F4 2285  -0.144   2.841   2.412 -0.0249 -0.2373 -0.7344
  150HFI     F5 2286  -0.072   2.754   2.235 -0.3062  0.5827  0.2055
  150HFI     F6 2287   0.023   2.942   2.298  0.3243 -0.1649 -0.0078
  150HFI     H1 2288   0.081   2.894   2.566 -0.1393 -0.1580 -0.1238
  150HFI     H2 2289   0.021   2.646   2.436  0.2412 -0.4517 -1.0232
  151HFI     O1 2290   1.943   2.584   2.733  0.6070 -0.0598  0.0324
  151HFI     C1 2291   1.832   2.635   2.822 -0.4809  0.0925 -0.5360
  151HFI     C2 2292   1.731   2.518   2.853  0.3516  0.6188  0.2270
  151HFI     F1 2293   1.802   2.399   2.840 -0.0700 -0.3104 -0.1785
  151HFI     F2 2294   1.629   2.517   2.761  0.6407 -0.1669  0.1772
  151HFI     F3 2295   1.679   2.532   2.974  0.3609 -0.1114 -0.5042
  151HFI     C3 2296   1.779   2.759   2.755 -0.4344 -0.0287 -0.1244
  151HFI     F4 2297   1.878   2.852   2.734  0.0070 -0.1606  0.1932
  151HFI     F5 2298   1.680   2.821   2.821 -0.3147  0.6314  0.1672
  151HFI     F6 2299   1.735   2.734   2.634 -0.2794 -0.4245  0.0178
  151HFI     H1 2300   1.958   2.489   2.747  4.5153  0.3207 -1.0706
  151HFI     H2 2301   1.874   2.668   2.917 -0.2909  0.4145 -0.7337
  152HFI     O1 2302   2.027   2.098   3.267 -0.2546 -0.5305  0.3680
  152HFI     C1 2303   1.939   2.185   3.193  1.1877  0.3937  0.2793
  152HFI     C2 2304   2.010   2.318   3.166 -0.0415  0.4360  0.4424
  152HFI     F1 2305   2.102   2.343   3.258  0.3383 -0.8210 -0.2033
  152HFI     F2 2306   1.933   2.428   3.166  0.2281 -0.2984 -0.1212
  152HFI     F3 2307   2.077   2.305   3.043 -0.1807 -0.3588 -0.1661
  152HFI     C3 2308   1.803   2.200   3.262  0.0637 -0.0627  0.0761
  152HFI     F4 2309   1.720   2.281   3.193  0.1887 -0.1043 -0.3398
  152HFI     F5 2310   1.820   2.242   3.390 -0.7846 -0.2240 -0.5095
  152HFI     F6 2311   1.737   2.083   3.274 -0.1614  0.2021  0.1904
  152HFI     H1 2312   2.087   2.152   3.322 -0.2973 -2.5908  2.5303
  152HFI     H2 2313   1.922   2.145   3.092 -0.3894  1.1104  0.2400
  153HFI     O1 2314   1.655   3.060   2.452  0.4409 -0.2910  0.7421
  153HFI     C1 2315   1.795   3.099   2.428  0.8447 -0.1042 -0.2188
  153HFI     C2 2316   1.814   3.248   2.384 -0.4706 -0.1405 -0.0597
  153HFI     F1 2317   1.782   3.275   2.254 -0.1430 -0.0690  0.0636
  153HFI     F2 2318   1.936   3.289   2.398 -0.3709 -0.7479  0.1012
  153HFI     F3 2319   1.731   3.319   2.471 -0.2320  0.0053  0.2991
  153HFI     C3 2320   1.861   3.000   2.324 -0.5249 -0.4999 -0.2418
  153HFI     F4 2321   1.978   3.045   2.272 -0.0503  0.2183 -0.3562
  153HFI     F5 2322   1.775   2.963   2.224 -0.0567  0.2297  0.1187
  153HFI     F6 2323   1.893   2.879   2.385  0.4937 -0.0931  0.2634
  153HFI     H1 2324   1.599   3.100   2.383  0.3779 -1.3788  0.1512
  153HFI     H2 2325   1.841   3.082   2.526 -0.3192 -0.3757  0.2841
  154HFI     O1 2326   2.599   1.864   0.978 -0.0777 -0.4887 -0.1742
  154HFI     C1 2327   2.648   1.721   0.986 -0.1114 -0.5504 -0.7827
  154HFI     C2 2328   2.734   1.674   0.864 -1.4788  0.2724 -0.3726
  154HFI     F1 2329   2.782   1.556   0.903 -0.0644  0.1495  0.0043
  154HFI     F2 2330   2.833   1.759   0.848 -0.4015  0.0221 -0.3662
  154HFI     F3 2331   2.667   1.662   0.747  0.3851  0.1460  0.0922
  154HFI     C3 2332   2.525   1.631   1.006  0.2013 -0.5815  0.1890
  154HFI     F4 2333   2.545   1.494   0.979 -0.2894  0.5153  0.5903
  154HFI     F5 2334   2.428   1.665   0.916 -0.4820 -0.5055 -0.0875
  154HFI     F6 2335   2.474   1.638   1.128 -0.0809 -0.3933 -1.0108
  154HFI     H1 2336   2.568   1.891   0.890  1.0159  1.5901  0.0545
  154HFI     H2 2337   2.712   1.711   1.074  0.3639 -1.9525 -1.2670
  155HFI     O1 2338   1.115   1.154   2.707  0.0230 -0.3494  0.1632
  155HFI     C1 2339   0.990   1.070   2.680 -0.2189 -0.0211  0.3801
  155HFI     C2 2340   0.861   1.153   2.701  0.1346 -0.3138 -0.0315
  155HFI     F1 2341   0.844   1.190   2.830  0.1611 -0.2119  0.1696
  155HFI     F2 2342   0.747   1.080   2.666 -0.3358  0.3258 -0.3444
  155HFI     F3 2343   0.871   1.265   2.622  0.5559 -0.3831  0.0950
  155HFI     C3 2344   0.990   0.934   2.760  0.0574 -0.2925  0.0467
  155HFI     F4 2345   1.104   0.869   2.734 -0.3237  0.4124  0.2676
  155HFI     F5 2346   0.890   0.858   2.725 -0.5562  0.2679  0.0010
  155HFI     F6 2347   0.979   0.958   2.895  0.0806  0.2207 -0.3504
  155HFI     H1 2348   1.137   1.131   2.799 -0.7264  1.8792  0.9322
  155HFI     H2 2349   0.984   1.045   2.574  1.5664 -0.8707  0.4590
  156HFI     O1 2350   3.007   1.228   3.745 -0.1421  0.3859  0.5257
  156HFI     C1 2351   2.918   1.115   3.788  0.3236  0.3093  0.1196
  156HFI     C2 2352   2.865   1.137   3.931 -0.4136  0.1287  0.2229
  156HFI     F1 2353   2.969   1.151   4.016 -0.2142  0.7101 -0.0420
  156HFI     F2 2354   2.794   1.031   3.981 -0.1173  0.2803  0.5557
  156HFI     F3 2355   2.780   1.246   3.934  0.6826 -0.1379 -0.1585
  156HFI     C3 2356   2.998   0.979   3.778 -0.1379 -0.4330  0.1890
  156HFI     F4 2357   3.109   0.976   3.852 -0.0266 -0.4553 -0.1200
  156HFI     F5 2358   3.049   0.974   3.654 -0.2070  0.2247  0.0944
  156HFI     F6 2359   2.922   0.869   3.805 -0.0171 -0.1252  0.3627
  156HFI     H1 2360   3.081   1.226   3.808 -2.4195 -1.3070  3.2435
  156HFI     H2 2361   2.827   1.106   3.727  0.0803 -0.3591  0.5751
  157HFI     O1 2362   1.344   1.456   3.054 -0.5423  0.1355 -0.2554
  157HFI     C1 2363   1.326   1.336   3.135  0.3429 -0.0877 -0.3964
  157HFI     C2 2364   1.461   1.254   3.142  0.7461 -0.1380  0.3058
  157HFI     F1 2365   1.563   1.325   3.209 -0.3266 -0.4202 -0.3768
  157HFI     F2 2366   1.508   1.250   3.017 -0.3558  0.6910 -0.1481
  157HFI     F3 2367   1.449   1.130   3.193  0.6911  0.2100 -0.0110
  157HFI     C3 2368   1.203   1.249   3.095 -0.1077  0.7815  0.4965
  157HFI     F4 2369   1.175   1.156   3.190  0.8377  0.3117  0.3842
  157HFI     F5 2370   1.231   1.178   2.983  0.4011  0.0134  0.3096
  157HFI     F6 2371   1.092   1.318   3.071 -0.3033 -0.8471 -0.3276
  157HFI     H1 2372   1.329   1.437   2.960  0.6524 -0.3572 -0.3510
  157HFI     H2 2373   1.311   1.365   3.240  0.0063  0.8749 -0.6997
  158HFI     O1 2374   2.382   1.710   0.005  0.1889 -0.0245  0.6256
  158HFI     C1 2375   2.489   1.611   0.018 -0.0803  1.4959 -0.6540
  158HFI     C2 2376   2.512   1.537  -0.110  0.1610 -0.3577  0.4040
  158HFI     F1 2377   2.562   1.413  -0.093  0.0497  0.8701  0.2080
  158HFI     F2 2378   2.595   1.613  -0.193  0.4604 -0.0831  0.2744
  158HFI     F3 2379   2.388   1.519  -0.172 -0.7624 -0.4316 -0.1688
  158HFI     C3 2380   2.463   1.508   0.133 -0.1035 -0.5026 -0.3274
  158HFI     F4 2381   2.366   1.421   0.119  0.8094  0.0736  0.0027
  158HFI     F5 2382   2.422   1.588   0.236  0.3358  0.8431 -0.5111
  158HFI     F6 2383   2.578   1.444   0.170  0.4448 -0.0751 -0.0835
  158HFI     H1 2384   2.322   1.682   0.076  0.7793  0.8032  1.4539
  158HFI     H2 2385   2.587   1.655   0.039  1.2258 -1.2511 -0.8665
  159HFI     O1 2386   2.317   2.386   0.269 -0.2748  0.1839 -0.3159
  159HFI     C1 2387   2.226   2.466   0.347 -0.3567 -0.0614 -0.6482
  159HFI     C2 2388   2.160   2.378   0.456  0.0926 -0.4379 -0.4855
  159HFI     F1 2389   2.081   2.278   0.407 -0.4582 -0.3738 -0.0991
  159HFI     F2 2390   2.078   2.462   0.522  0.1029  0.4824  0.0309
  159HFI     F3 2391   2.245   2.332   0.550 -0.0048  0.4415  0.3391
  159HFI     C3 2392   2.123   2.538   0.255 -1.0595 -0.3628  0.3377
  159HFI     F4 2393   2.053   2.633   0.321 -0.0723  0.4403  0.1367
  159HFI     F5 2394   2.033   2.448   0.214 -0.1673  0.2050 -0.1512
  159HFI     F6 2395   2.178   2.594   0.143 -0.1690  0.2029  0.0652
  159HFI     H1 2396   2.262   2.333   0.209  2.2909 -2.0239 -0.8566
  159HFI     H2 2397   2.281   2.553   0.385  2.0859 -0.1526 -3.8006
  160HFI     O1 2398   0.647   2.983   2.669  0.4507  0.0288 -0.4395
  160HFI     C1 2399   0.507   2.947   2.635  0.3041 -0.7769  0.4781
  160HFI     C2 2400   0.423   3.073   2.616 -0.7326  0.8815 -0.1555
  160HFI     F1 2401   0.301   3.036   2.566 -0.1163  0.6599  0.1172
  160HFI     F2 2402   0.480   3.166   2.543  0.6532  0.2057  0.2583
  160HFI     F3 2403   0.392   3.122   2.742  0.2956  0.2201  0.1208
  160HFI     C3 2404   0.446   2.847   2.745 -0.7231  0.3187  1.2055
  160HFI     F4 2405   0.509   2.724   2.718  0.7576 -0.2759 -0.2884
  160HFI     F5 2406   0.313   2.828   2.743  0.0905  0.1065  0.2377
  160HFI     F6 2407   0.486   2.887   2.867  0.3834  0.1589 -0.0310
  160HFI     H1 2408   0.658   2.960   2.763 -1.0401  0.7061 -0.0912
  160HFI     H2 2409   0.502   2.890   2.542 -0.2135  2.2927 -1.4313
  161HFI     O1 2410   0.068   1.469   0.088  0.1140 -0.3484 -0.1668
  161HFI     C1 2411   0.147   1.471  -0.030 -0.9611  0.4745  0.2820
  161HFI     C2 2412   0.071   1.376  -0.131 -0.1949  0.1952  0.3613
  161HFI     F1 2413  -0.059   1.411  -0.150 -0.0706 -0.1486 -0.3934
  161HFI     F2 2414   0.076   1.246  -0.097  0.3060  0.3302  0.7134
  161HFI     F3 2415   0.130   1.386  -0.251  0.1583 -0.2576  0.6233
  161HFI     C3 2416   0.301   1.432  -0.011 -0.3605  0.1617 -0.1817
  161HFI     F4 2417   0.377   1.435  -0.129 -0.1374 -0.1744  0.0613
  161HFI     F5 2418   0.321   1.313   0.042 -0.3729  0.5245 -0.1596
  161HFI     F6 2419   0.354   1.517   0.072  0.4219  0.4569 -0.1728
  161HFI     H1 2420   0.079   1.550   0.141  0.3830 -1.8869  2.1910
  161HFI     H2 2421   0.153   1.569  -0.079  0.6281  0.2140 -0.0555
  162HFI     O1 2422   0.428   1.472   2.949 -0.1546 -0.4180 -0.2359
  162HFI     C1 2423   0.414   1.324   2.916 -0.3600 -0.4732  0.6852
  162HFI     C2 2424   0.526   1.234   2.990 -0.3268  0.9736 -0.2859
  162HFI     F1 2425   0.636   1.309   3.017 -0.4026  0.2698 -0.3692
  162HFI     F2 2426   0.562   1.119   2.923  0.1628  0.1383  0.4142
  162HFI     F3 2427   0.480   1.193   3.107  0.1438 -0.0142 -0.3802
  162HFI     C3 2428   0.399   1.292   2.765 -0.0607 -0.2133 -0.6591
  162HFI     F4 2429   0.295   1.358   2.706  0.1412  0.1423  0.0626
  162HFI     F5 2430   0.362   1.161   2.743  0.4956  0.5123 -0.2286
  162HFI     F6 2431   0.505   1.322   2.696  0.4297  0.2347  0.3948
  162HFI     H1 2432   0.516   1.492   2.913 -0.0657 -0.6410 -0.1445
  162HFI     H2 2433   0.318   1.284   2.949 -0.7062 -0.0247  0.2284
  163HFI     O1 2434   0.882   2.249   2.410 -0.6142  0.0759  0.0609
  163HFI     C1 2435   0.798   2.129   2.404 -0.2918  0.7796  0.0494
  163HFI     C2 2436   0.841   2.025   2.514 -0.3105 -0.2465  0.1546
  163HFI     F1 2437   0.938   1.941   2.472  0.2073  0.6508 -0.4179
  163HFI     F2 2438   0.741   1.946   2.544  0.2306 -0.4874  0.0152
  163HFI     F3 2439   0.882   2.088   2.621 -0.4063  0.3645  0.0058
  163HFI     C3 2440   0.796   2.077   2.261  0.6329 -0.2798  0.3413
  163HFI     F4 2441   0.705   1.971   2.244 -0.0055  0.1113 -0.1894
  163HFI     F5 2442   0.925   2.045   2.224 -0.1401 -0.2874 -0.0521
  163HFI     F6 2443   0.758   2.180   2.186 -0.2570  0.0057 -0.3584
  163HFI     H1 2444   0.969   2.223   2.375 -2.7696 -2.8614 -3.6230
  163HFI     H2 2445   0.692   2.152   2.424 -0.9726 -2.1890  0.0365
  164HFI     O1 2446   3.292   0.211   2.652 -0.4568 -0.5236 -0.2690
  164HFI     C1 2447   3.332   0.267   2.777  0.0470 -0.8110  0.2736
  164HFI     C2 2448   3.474   0.337   2.769 -0.2157 -0.3537  0.7266
  164HFI     F1 2449   3.471   0.434   2.675  0.0441  0.0795  0.5071
  164HFI     F2 2450   3.570   0.246   2.727  0.0166 -0.2858 -0.3865
  164HFI     F3 2451   3.511   0.391   2.884  0.2219 -0.0665  0.1514
  164HFI     C3 2452   3.312   0.161   2.893  0.1950  0.0425 -0.3534
  164HFI     F4 2453   3.318   0.218   3.017 -0.0461  0.4631 -0.0512
  164HFI     F5 2454   3.407   0.067   2.890  0.5177 -0.1443  0.5093
  164HFI     F6 2455   3.192   0.101   2.872  0.5903 -0.5254 -0.0320
  164HFI     H1 2456   3.372   0.199   2.598 -0.4179 -0.4826 -0.2203
  164HFI     H2 2457   3.259   0.345   2.800  0.1775 -0.0840 -1.7457
  165HFI     O1 2458   0.800   1.102   2.379  0.0249 -0.2457 -0.0085
  165HFI     C1 2459   0.681   1.055   2.309 -0.0474  0.3411  0.1317
  165HFI     C2 2460   0.548   1.103   2.382 -1.1661  0.3399 -0.3073
  165HFI     F1 2461   0.573   1.223   2.438 -0.1865 -0.1000  0.3929
  165HFI     F2 2462   0.493   1.010   2.469  0.1092 -0.0909  0.4511
  165HFI     F3 2463   0.452   1.123   2.292 -0.0280  0.0335  0.1306
  165HFI     C3 2464   0.670   0.901   2.291 -0.3989  0.1353 -0.1011
  165HFI     F4 2465   0.681   0.838   2.412  0.2703  0.5098 -0.7551
  165HFI     F5 2466   0.782   0.862   2.226  0.4228  0.3169  0.3031
  165HFI     F6 2467   0.559   0.857   2.221  0.0937 -0.0660  0.4678
  165HFI     H1 2468   0.791   1.198   2.384 -0.9548 -0.2138 -1.9252
  165HFI     H2 2469   0.686   1.076   2.201 -2.0591 -1.3950 -0.3305
  166HFI     O1 2470   1.045   3.233   3.133 -0.5206  0.2628 -0.0836
  166HFI     C1 2471   0.906   3.219   3.145 -0.2252 -0.3481 -0.1358
  166HFI     C2 2472   0.853   3.124   3.036 -0.2517  0.1384  0.2610
  166HFI     F1 2473   0.926   3.007   3.011 -0.3419 -0.4265 -0.0828
  166HFI     F2 2474   0.859   3.193   2.925 -0.2084 -0.1357 -0.4167
  166HFI     F3 2475   0.726   3.093   3.058 -0.3970 -0.1377 -0.5033
  166HFI     C3 2476   0.836   3.362   3.138  0.7821 -0.4391  0.1406
  166HFI     F4 2477   0.870   3.427   3.261 -0.0599  0.3648  0.2350
  166HFI     F5 2478   0.700   3.348   3.126  0.2389 -0.6356 -0.1802
  166HFI     F6 2479   0.877   3.444   3.041  0.3709 -0.1687 -0.0480
  166HFI     H1 2480   1.064   3.239   3.038  1.7834 -0.1242  0.3009
  166HFI     H2 2481   0.881   3.186   3.247  1.7072 -1.5737 -0.0517
  167HFI     O1 2482   2.410   0.243   3.509  0.4367  0.4914 -0.1876
  167HFI     C1 2483   2.341   0.123   3.468  0.2359  0.0703  0.4679
  167HFI     C2 2484   2.433  -0.005   3.453  0.2056 -0.5635  0.2673
  167HFI     F1 2485   2.492  -0.036   3.559  0.4104  0.7473  0.5239
  167HFI     F2 2486   2.524   0.010   3.352  0.2084  0.7488 -0.6908
  167HFI     F3 2487   2.355  -0.118   3.421 -0.6842  0.6870 -0.4208
  167HFI     C3 2488   2.258   0.162   3.342 -0.8628 -0.5139  0.9466
  167HFI     F4 2489   2.184   0.067   3.297  0.3007  0.8064  0.1954
  167HFI     F5 2490   2.347   0.214   3.245 -0.5410 -0.1251 -0.3548
  167HFI     F6 2491   2.176   0.261   3.365 -0.1443  0.4448 -0.3867
  167HFI     H1 2492   2.471   0.269   3.438  2.2258  1.9923  1.8252
  167HFI     H2 2493   2.261   0.093   3.536  0.4310  1.1684  1.1946
  168HFI     O1 2494   3.198   1.201   2.514 -0.2234  0.2048 -0.6351
  168HFI     C1 2495   3.280   1.083   2.474 -0.8861  0.8787  0.3489
  168HFI     C2 2496   3.406   1.071   2.561 -0.2514 -0.1967 -0.0877
  168HFI     F1 2497   3.376   1.060   2.691 -0.0308 -0.2033  0.0319
  168HFI     F2 2498   3.485   1.181   2.547 -0.1236 -0.7089 -0.0446
  168HFI     F3 2499   3.485   0.969   2.528  0.4830 -0.2558 -0.5868
  168HFI     C3 2500   3.315   1.094   2.320  0.6506 -0.6115  0.1959
  168HFI     F4 2501   3.380   1.212   2.294  0.3398  0.0901 -0.1140
  168HFI     F5 2502   3.196   1.085   2.253  0.3036 -0.1431 -0.0264
  168HFI     F6 2503   3.385   0.991   2.277 -0.1366 -0.1497 -0.2069
  168HFI     H1 2504   3.261   1.262   2.555  1.4057 -1.5256 -0.4855
  168HFI     H2 2505   3.220   0.992   2.477 -1.8538  1.4616 -0.9527
  169HFI     O1 2506   0.343   0.132   2.462  0.6017 -0.7904 -0.1460
  169HFI     C1 2507   0.291   0.002   2.424 -0.3082  0.6907  0.4115
  169HFI     C2 2508   0.257  -0.001   2.272  0.0259  0.1819 -0.0305
  169HFI     F1 2509   0.352   0.046   2.192 -0.1853 -0.2911  0.0396
  169HFI     F2 2510   0.152   0.071   2.243 -0.6123  0.3639 -0.2296
  169HFI     F3 2511   0.232  -0.122   2.228 -0.0654 -0.6768 -0.7576
  169HFI     C3 2512   0.177  -0.050   2.521  0.1607 -0.2901  0.4264
  169HFI     F4 2513   0.229  -0.058   2.646  0.0808  0.5911  0.6037
  169HFI     F5 2514   0.131  -0.165   2.492 -0.0232  0.1900  0.0531
  169HFI     F6 2515   0.072   0.034   2.522 -0.7031  0.0159  0.0011
  169HFI     H1 2516   0.438   0.135   2.443  0.4698 -0.1341 -0.7405
  169HFI     H2 2517   0.371  -0.072   2.434 -0.5889  0.5213  1.3987
  170HFI     O1 2518   0.903   1.733   3.377 -0.0719  0.3484 -0.4700
  170HFI     C1 2519   0.941   1.860   3.316 -0.5731  0.0924  0.1515
  170HFI     C2 2520   1.069   1.847   3.222 -0.0867 -0.6733 -0.1134
  170HFI     F1 2521   1.171   1.807   3.301  0.2061 -0.1433  0.3543
  170HFI     F2 2522   1.099   1.967   3.165 -0.2065 -0.5126 -0.0016
  170HFI     F3 2523   1.053   1.763   3.116  0.3314  0.2900  0.0138
  170HFI     C3 2524   0.958   1.973   3.425 -0.1291 -0.5110 -0.3999
  170HFI     F4 2525   0.840   2.025   3.449 -0.1169  0.0706  0.0895
  170HFI     F5 2526   1.030   2.080   3.386  0.3769 -0.1942 -0.3769
  170HFI     F6 2527   1.013   1.926   3.541 -0.3280  0.2456  0.4914
  170HFI     H1 2528   0.960   1.716   3.454 -1.2346  1.4725  0.7002
  170HFI     H2 2529   0.854   1.893   3.256  1.7791 -1.7534 -4.4935
  171HFI     O1 2530   2.498   2.738   2.972  0.5056  0.2066 -0.1972
  171HFI     C1 2531   2.458   2.627   2.885  0.2615  0.3595 -0.0351
  171HFI     C2 2532   2.311   2.579   2.911  0.1404 -0.1472  0.1353
  171HFI     F1 2533   2.229   2.686   2.932 -0.4289  0.1133  0.0067
  171HFI     F2 2534   2.306   2.494   3.019  0.1288  0.2270  0.1250
  171HFI     F3 2535   2.268   2.501   2.802  0.0088  0.2684 -0.8437
  171HFI     C3 2536   2.572   2.527   2.853 -0.6172 -0.3175 -0.0049
  171HFI     F4 2537   2.597   2.449   2.960 -0.0122  0.1618 -0.2165
  171HFI     F5 2538   2.682   2.599   2.828 -0.0136  0.1221  0.3723
  171HFI     F6 2539   2.553   2.452   2.741  0.7523 -0.0757 -0.2555
  171HFI     H1 2540   2.590   2.722   2.999  0.4397 -0.8662 -0.5630
  171HFI     H2 2541   2.443   2.674   2.786 -0.0534 -0.5016 -0.4033
  172HFI     O1 2542   1.246   1.998   0.396 -0.0479 -0.3957 -0.6654
  172HFI     C1 2543   1.155   1.902   0.458 -0.0575  0.4120 -0.2365
  172HFI     C2 2544   1.192   1.758   0.404  0.4239  0.3461  0.2366
  172HFI     F1 2545   1.101   1.670   0.449  0.0725  0.2177  0.2394
  172HFI     F2 2546   1.310   1.727   0.448 -0.0694 -0.4261  0.0709
  172HFI     F3 2547   1.194   1.751   0.267 -0.1839 -0.1193 -0.1995
  172HFI     C3 2548   1.005   1.944   0.444  0.0234  0.3990 -0.3046
  172HFI     F4 2549   0.922   1.871   0.523  0.5655  0.3580 -0.3020
  172HFI     F5 2550   0.967   1.905   0.318 -0.0508 -0.2747  0.2996
  172HFI     F6 2551   0.973   2.073   0.467 -0.0994 -0.0133 -0.0919
  172HFI     H1 2552   1.259   1.980   0.302  1.7326  0.5656 -0.6369
  172HFI     H2 2553   1.160   1.902   0.567  0.1026  1.2045 -0.2423
  173HFI     O1 2554   2.763   0.284   2.564 -0.7559 -0.0244 -0.0961
  173HFI     C1 2555   2.754   0.327   2.708  0.4610 -0.2012  0.3667
  173HFI     C2 2556   2.864   0.424   2.764 -0.3058 -0.3300  0.3360
  173HFI     F1 2557   2.863   0.540   2.707 -0.2219 -0.0736 -0.0573
  173HFI     F2 2558   2.991   0.368   2.754 -0.0090 -0.2291  0.3283
  173HFI     F3 2559   2.836   0.454   2.891  0.7359 -0.2939 -0.0854
  173HFI     C3 2560   2.721   0.204   2.798  0.0078 -0.7273  0.3027
  173HFI     F4 2561   2.654   0.109   2.731 -0.4031  0.4336 -0.1644
  173HFI     F5 2562   2.649   0.229   2.903 -0.3501 -0.6978 -0.6748
  173HFI     F6 2563   2.833   0.141   2.835 -0.0034 -0.2941  0.2365
  173HFI     H1 2564   2.844   0.231   2.558  1.2904  2.7321  1.7812
  173HFI     H2 2565   2.662   0.384   2.718  1.0500  1.2227 -1.8921
  174HFI     O1 2566   1.736   2.880   3.090 -0.2152 -0.4121  0.4818
  174HFI     C1 2567   1.592   2.896   3.101 -0.7768  0.7254  0.0990
  174HFI     C2 2568   1.544   3.036   3.056 -0.8491 -0.4425  0.7493
  174HFI     F1 2569   1.604   3.066   2.935  0.4246 -0.0074 -0.0538
  174HFI     F2 2570   1.590   3.131   3.141  0.2979  0.0482  0.4302
  174HFI     F3 2571   1.407   3.043   3.041 -0.0419  0.1679  0.1333
  174HFI     C3 2572   1.541   2.848   3.248  0.0367 -0.4547 -0.4990
  174HFI     F4 2573   1.593   2.730   3.279  0.2083 -0.0545  0.2255
  174HFI     F5 2574   1.409   2.835   3.246  0.0401  0.5635 -0.6610
  174HFI     F6 2575   1.566   2.946   3.336 -0.1776  0.1356 -0.3598
  174HFI     H1 2576   1.780   2.939   3.154  0.0483 -0.2812  0.1801
  174HFI     H2 2577   1.555   2.832   3.020 -2.0650  0.7099  0.6982
  175HFI     O1 2578   3.367   1.491   2.769  0.5809  0.1890 -0.2544
  175HFI     C1 2579   3.242   1.504   2.836  0.1469  0.1183  0.4340
  175HFI     C2 2580   3.160   1.375   2.843  0.5250 -0.1365 -0.2130
  175HFI     F1 2581   3.092   1.343   2.730  0.0017  0.1162  0.3788
  175HFI     F2 2582   3.065   1.391   2.944  0.2562 -0.0228  0.0371
  175HFI     F3 2583   3.236   1.276   2.878  0.5540  0.5270  0.2633
  175HFI     C3 2584   3.156   1.626   2.786  0.6560  0.7072  0.1926
  175HFI     F4 2585   3.042   1.628   2.848 -0.0800  0.6466 -0.5668
  175HFI     F5 2586   3.131   1.615   2.653  0.2842  0.2314  0.3065
  175HFI     F6 2587   3.223   1.749   2.804 -0.1290 -0.6478 -0.1354
  175HFI     H1 2588   3.361   1.525   2.678  0.0446 -1.2005 -0.7540
  175HFI     H2 2589   3.256   1.529   2.941 -0.4452 -1.1400  0.8211
  176HFI     O1 2590   3.073   0.138   2.501  0.1077 -0.1826 -0.0139
  176HFI     C1 2591   3.080   0.017   2.423 -0.0168  0.8126  0.0381
  176HFI     C2 2592   3.142   0.038   2.284 -0.0945 -0.1630 -0.0150
  176HFI     F1 2593   3.266   0.106   2.296  0.1905  0.1472 -0.1597
  176HFI     F2 2594   3.063   0.106   2.199 -0.3760  0.0918 -0.1341
  176HFI     F3 2595   3.173  -0.082   2.223  0.8703  0.3225  0.2782
  176HFI     C3 2596   2.944  -0.061   2.422 -0.3571  0.1231 -0.2908
  176HFI     F4 2597   2.845   0.021   2.395  0.0093 -0.1343  0.2619
  176HFI     F5 2598   2.923  -0.129   2.540  0.2017 -0.0779 -0.3491
  176HFI     F6 2599   2.943  -0.161   2.325  0.6852  0.3978 -0.2786
  176HFI     H1 2600   3.152   0.154   2.556  1.0002 -2.7561 -0.4569
  176HFI     H2 2601   3.150  -0.051   2.473  1.7393  0.2680 -2.9980
  177HFI     O1 2602   0.161   0.666   3.095  0.5471  0.2062  0.4249
  177HFI     C1 2603   0.151   0.606   3.226  0.6053 -0.1246 -0.1121
  177HFI     C2 2604   0.290   0.637   3.304  0.5101  0.2331 -0.0244
  177HFI     F1 2605   0.385   0.563   3.236  0.3762  0.2189  0.0105
  177HFI     F2 2606   0.293   0.612   3.435 -0.3072 -0.0081  0.4368
  177HFI     F3 2607   0.335   0.766   3.290  0.5247 -0.3279 -0.1721
  177HFI     C3 2608   0.104   0.461   3.228  0.3718  0.6215 -0.7840
  177HFI     F4 2609   0.110   0.412   3.351  0.0630  0.0617 -0.0748
  177HFI     F5 2610   0.192   0.389   3.149 -0.1954 -0.6809  0.0056
  177HFI     F6 2611  -0.019   0.443   3.174 -0.1797  0.1272 -0.0252
  177HFI     H1 2612   0.219   0.743   3.105 -0.7561  1.0290  1.8774
  177HFI     H2 2613   0.078   0.659   3.288  0.9112 -0.8025  0.8465
  178HFI     O1 2614   3.265   1.920   3.418  0.6178 -0.0431  0.0915
  178HFI     C1 2615   3.153   1.819   3.414  0.5300 -0.0576 -1.0256
  178HFI     C2 2616   3.201   1.672   3.461  0.1448 -0.1000 -0.5794
  178HFI     F1 2617   3.097   1.586   3.483 -0.3824 -0.7634 -0.0930
  178HFI     F2 2618   3.267   1.684   3.586  0.0390  0.1405 -0.0006
  178HFI     F3 2619   3.289   1.615   3.380 -0.5991 -0.8176 -0.3770
  178HFI     C3 2620   3.072   1.810   3.284  0.2697 -0.2083 -0.4405
  178HFI     F4 2621   3.142   1.738   3.189 -0.1727 -0.3796  0.1165
  178HFI     F5 2622   3.043   1.933   3.233 -0.1022 -0.0275  0.3657
  178HFI     F6 2623   2.948   1.749   3.304  0.2195 -0.3048 -0.6664
  178HFI     H1 2624   3.301   1.927   3.328 -1.0450 -1.1569 -0.6988
  178HFI     H2 2625   3.080   1.844   3.493  1.4751  0.0214 -0.1684
  179HFI     O1 2626   1.252   2.028   2.232  0.5285 -0.1141  0.0704
  179HFI     C1 2627   1.341   2.061   2.342 -0.5961  0.4729 -0.1286
  179HFI     C2 2628   1.330   2.209   2.389  0.2493  0.0514 -0.2716
  179HFI     F1 2629   1.198   2.224   2.424 -0.3749 -0.5050 -0.1240
  179HFI     F2 2630   1.360   2.299   2.291 -0.3634 -0.3049 -0.2036
  179HFI     F3 2631   1.408   2.241   2.502 -0.4902  0.5918  0.1536
  179HFI     C3 2632   1.482   2.026   2.304  0.7031  0.0245  0.4796
  179HFI     F4 2633   1.524   2.108   2.204 -0.0301 -0.4001 -0.2706
  179HFI     F5 2634   1.491   1.901   2.260 -0.5157 -0.3893 -0.5654
  179HFI     F6 2635   1.573   2.043   2.400  0.0438 -0.4240 -0.0741
  179HFI     H1 2636   1.296   2.050   2.148  1.6605 -0.2125  0.6281
  179HFI     H2 2637   1.306   1.999   2.425 -1.2388 -0.5163 -1.1120
  180HFI     O1 2638   1.899   0.662   3.309  0.0580  0.1161 -1.0126
  180HFI     C1 2639   2.019   0.584   3.307  0.3188 -0.2113  0.0647
  180HFI     C2 2640   2.141   0.657   3.381  0.1625 -0.0171  0.0593
  180HFI     F1 2641   2.163   0.770   3.317  0.7542  0.6104  0.1869
  180HFI     F2 2642   2.256   0.585   3.384  0.1890  0.2801  0.4103
  180HFI     F3 2643   2.104   0.673   3.508  0.1410  0.3190 -0.0678
  180HFI     C3 2644   2.046   0.556   3.153  0.1117 -0.0081 -0.5496
  180HFI     F4 2645   2.130   0.460   3.136 -0.2351  0.3599  0.4747
  180HFI     F5 2646   2.100   0.664   3.088  0.2609 -0.3855  0.8230
  180HFI     F6 2647   1.934   0.521   3.092 -0.4567  0.3344  0.5376
  180HFI     H1 2648   1.839   0.644   3.235  0.0331 -2.6960 -0.3650
  180HFI     H2 2649   2.012   0.490   3.364  2.2257 -0.3640  0.0927
  181HFI     O1 2650   1.675   0.686   3.090  0.1479  0.0750 -0.1907
  181HFI     C1 2651   1.562   0.774   3.119 -0.1033  0.3485 -1.2890
  181HFI     C2 2652   1.479   0.728   3.245 -0.0781  0.9250  0.4723
  181HFI     F1 2653   1.410   0.611   3.227 -0.5987 -0.2680  0.2638
  181HFI     F2 2654   1.394   0.822   3.287 -0.0179 -0.7110 -0.3064
  181HFI     F3 2655   1.562   0.704   3.353  0.3048  0.2340  0.6102
  181HFI     C3 2656   1.468   0.785   2.993  0.8134  0.0904  0.1694
  181HFI     F4 2657   1.350   0.851   3.014  0.4745  0.3546  0.2816
  181HFI     F5 2658   1.436   0.664   2.942  0.1073  0.8032 -0.3741
  181HFI     F6 2659   1.534   0.853   2.893 -0.1754 -0.5278  0.0873
  181HFI     H1 2660   1.708   0.695   2.999 -0.4027  1.8653 -0.2231
  181HFI     H2 2661   1.604   0.871   3.146  1.7137 -0.5816 -0.7063
  182HFI     O1 2662   3.085   1.985   2.246  0.0054 -0.2167 -0.1017
  182HFI     C1 2663   2.979   1.981   2.343 -0.1735  0.1839  0.4760
  182HFI     C2 2664   2.932   1.833   2.358  0.0003  0.5664 -0.4119
  182HFI     F1 2665   2.814   1.832   2.417 -0.3090  0.0890 -0.7536
  182HFI     F2 2666   3.015   1.762   2.440  0.3590 -0.3045  0.0055
  182HFI     F3 2667   2.909   1.773   2.243  0.0270 -0.0714 -0.1769
  182HFI     C3 2668   2.863   2.082   2.306 -0.2300 -0.6710 -0.4026
  182HFI     F4 2669   2.773   2.022   2.226  0.1491 -0.1617 -0.2596
  182HFI     F5 2670   2.916   2.191   2.237  0.3317  0.4021 -0.0943
  182HFI     F6 2671   2.803   2.141   2.417  0.3690  0.1708 -0.6051
  182HFI     H1 2672   3.132   2.070   2.248 -0.8740  0.3459 -2.0912
  182HFI     H2 2673   3.014   2.001   2.445 -0.1739 -0.8101  0.6786
  183HFI     O1 2674   3.006   1.717   0.474 -0.0582  0.2220  0.0850
  183HFI     C1 2675   3.037   1.700   0.332  0.6516  0.0591  0.4163
  183HFI     C2 2676   2.904   1.688   0.245 -0.0013  0.4287 -0.0458
  183HFI     F1 2677   2.927   1.709   0.114 -0.2750 -0.3734 -0.1498
  183HFI     F2 2678   2.823   1.792   0.280 -0.7522 -0.0245  0.4348
  183HFI     F3 2679   2.833   1.571   0.260 -0.4235 -0.4062 -0.7072
  183HFI     C3 2680   3.135   1.585   0.313  0.0552  0.7509  0.6290
  183HFI     F4 2681   3.254   1.627   0.356  0.0435  0.1463  0.3392
  183HFI     F5 2682   3.154   1.562   0.182  0.0952 -0.4248  0.2516
  183HFI     F6 2683   3.102   1.473   0.374 -0.1037  0.5370 -0.0100
  183HFI     H1 2684   2.917   1.683   0.493  0.1484  0.3722  1.3899
  183HFI     H2 2685   3.086   1.790   0.292  3.5293 -2.5502 -2.2356
  184HFI     O1 2686   2.892   3.217   2.824 -0.0900 -0.2882  0.2098
  184HFI     C1 2687   2.796   3.138   2.900 -0.3933  0.1359 -0.2403
  184HFI     C2 2688   2.838   2.987   2.891 -0.0175 -0.1923 -0.2017
  184HFI     F1 2689   2.754   2.913   2.961  0.0673  0.3799  0.5757
  184HFI     F2 2690   2.958   2.953   2.932  0.6695 -0.0690  0.1667
  184HFI     F3 2691   2.833   2.945   2.768 -0.7201 -0.2501  0.2614
  184HFI     C3 2692   2.652   3.180   2.855 -0.5600  0.2032 -0.2574
  184HFI     F4 2693   2.647   3.180   2.716 -0.1264  0.4562  0.0776
  184HFI     F5 2694   2.623   3.303   2.906 -0.0780  0.1812  0.2972
  184HFI     F6 2695   2.547   3.099   2.892 -0.2618  0.2450 -0.3252
  184HFI     H1 2696   2.870   3.311   2.831 -0.3703 -0.4354  1.5616
  184HFI     H2 2697   2.810   3.158   3.007 -0.0699  1.8507 -0.5815
  185HFI     O1 2698   0.784   3.212   2.538  0.1982  0.6580 -0.0629
  185HFI     C1 2699   0.818   3.221   2.389  0.3802 -0.4217 -1.1269
  185HFI     C2 2700   0.766   3.344   2.327 -0.2422  0.3656 -0.9752
  185HFI     F1 2701   0.636   3.344   2.300  0.2942  0.1470 -0.2908
  185HFI     F2 2702   0.829   3.364   2.214  0.1200  0.0423  0.9556
  185HFI     F3 2703   0.783   3.450   2.409  0.6507 -0.2451 -0.2943
  185HFI     C3 2704   0.778   3.089   2.320 -1.1366 -0.5603 -0.5193
  185HFI     F4 2705   0.812   2.988   2.401  0.5127  0.4037  0.1443
  185HFI     F5 2706   0.844   3.079   2.199 -0.1955  0.0326  0.0879
  185HFI     F6 2707   0.649   3.075   2.293  0.4345 -0.5863 -0.2598
  185HFI     H1 2708   0.807   3.124   2.571  1.9303  1.5231  1.0666
  185HFI     H2 2709   0.928   3.229   2.394  0.3951 -1.0562 -0.1016
  186HFI     O1 2710   1.363   2.850   2.525  0.0813 -0.2889 -0.1199
  186HFI     C1 2711   1.286   2.814   2.410 -0.5041  0.4094  0.3745
  186HFI     C2 2712   1.348   2.690   2.339 -0.2676 -0.2423  0.7373
  186HFI     F1 2713   1.460   2.722   2.262  0.0419 -0.1796  0.1509
  186HFI     F2 2714   1.254   2.634   2.261 -0.0547  0.3051 -0.3535
  186HFI     F3 2715   1.387   2.593   2.424  0.6988 -0.0922  0.6677
  186HFI     C3 2716   1.264   2.940   2.310  0.6058  0.2376  0.4191
  186HFI     F4 2717   1.179   3.032   2.357  0.2537  0.2217  0.4667
  186HFI     F5 2718   1.212   2.894   2.199  0.4586 -0.6882 -0.2299
  186HFI     F6 2719   1.380   2.995   2.277 -0.1770 -0.0672 -0.4366
  186HFI     H1 2720   1.439   2.901   2.493 -0.4592  1.2286  0.9708
  186HFI     H2 2721   1.188   2.778   2.442 -0.5404  0.7294  0.6188
  187HFI     O1 2722   1.121   3.228   3.405 -0.1989 -0.0882  0.0841
  187HFI     C1 2723   1.221   3.320   3.452 -0.2987  0.0836 -0.3290
  187HFI     C2 2724   1.192   3.463   3.407 -0.1482  0.0415 -1.3771
  187HFI     F1 2725   1.288   3.547   3.454 -0.5732  0.5051  0.2329
  187HFI     F2 2726   1.079   3.520   3.461  0.2897 -0.1798 -0.7346
  187HFI     F3 2727   1.183   3.479   3.270  0.1443  0.0144  0.0780
  187HFI     C3 2728   1.366   3.272   3.417  0.0205  0.2850  0.2336
  187HFI     F4 2729   1.408   3.296   3.287  0.0029  0.6281  0.0077
  187HFI     F5 2730   1.378   3.140   3.438  0.1153  0.3039  0.2918
  187HFI     F6 2731   1.447   3.321   3.505 -0.5131  0.1649  0.4396
  187HFI     H1 2732   1.107   3.248   3.310  0.4352 -1.5049 -0.3188
  187HFI     H2 2733   1.214   3.325   3.561 -1.1478 -0.8209 -0.3377
  188HFI     O1 2734   0.179   0.381   2.339 -0.3065 -0.2880 -0.3590
  188HFI     C1 2735   0.188   0.514   2.395  0.1169 -0.1674 -0.2723
  188HFI     C2 2736   0.060   0.588   2.360 -0.0316 -0.2428 -0.2383
  188HFI     F1 2737  -0.047   0.521   2.400 -0.3011 -0.0273 -0.3097
  188HFI     F2 2738   0.059   0.604   2.223  0.4070  0.4560  0.4460
  188HFI     F3 2739   0.052   0.715   2.416  0.0241  0.3500 -0.0780
  188HFI     C3 2740   0.316   0.579   2.347  0.3887 -0.8242  0.3297
  188HFI     F4 2741   0.318   0.713   2.366 -0.3410  0.0002 -0.1573
  188HFI     F5 2742   0.346   0.557   2.212  0.0141  0.2790  0.2276
  188HFI     F6 2743   0.423   0.537   2.421  0.1181  0.1648  0.3478
  188HFI     H1 2744   0.199   0.382   2.244  3.0161 -0.5721  0.3052
  188HFI     H2 2745   0.196   0.502   2.504  2.0708  0.0943 -0.3755
  189HFI     O1 2746   2.756   0.570   3.197 -0.4300 -0.1296 -0.0148
  189HFI     C1 2747   2.632   0.643   3.164  0.0378  0.8118  0.2370
  189HFI     C2 2748   2.592   0.718   3.290  0.5867  0.6454  0.1964
  189HFI     F1 2749   2.541   0.632   3.380 -0.4735 -0.2625 -0.4861
  189HFI     F2 2750   2.500   0.813   3.270  0.4058  0.0607 -0.6926
  189HFI     F3 2751   2.696   0.779   3.360 -0.1439  0.5092  0.0490
  189HFI     C3 2752   2.514   0.552   3.102 -0.2907  0.4759 -0.7644
  189HFI     F4 2753   2.518   0.435   3.165  0.4901 -0.3099 -0.3338
  189HFI     F5 2754   2.539   0.522   2.973 -0.0906 -0.7455  0.0239
  189HFI     F6 2755   2.392   0.607   3.118 -0.2677 -0.4442  0.0541
  189HFI     H1 2756   2.810   0.635   3.245 -1.2136  0.4325  0.1096
  189HFI     H2 2757   2.652   0.721   3.090 -1.1795  1.4181  0.5432
  190HFI     O1 2758   3.072   2.045   0.622  0.7023  0.1535 -0.0514
  190HFI     C1 2759   3.089   2.148   0.525  0.5739 -0.1663 -0.5518
  190HFI     C2 2760   2.995   2.272   0.556  0.0585  0.7071 -0.5573
  190HFI     F1 2761   3.018   2.316   0.680 -0.3352 -0.2763  0.4957
  190HFI     F2 2762   2.860   2.237   0.554 -0.0841 -0.1893  0.3914
  190HFI     F3 2763   3.007   2.380   0.470  0.2645  0.1502 -0.6253
  190HFI     C3 2764   3.077   2.101   0.377 -0.8221 -0.3134  0.1395
  190HFI     F4 2765   2.956   2.079   0.332  0.2799 -0.5855  0.0157
  190HFI     F5 2766   3.143   1.989   0.362  0.5157  0.0747  0.0872
  190HFI     F6 2767   3.121   2.198   0.294  0.0538 -0.0656 -0.1149
  190HFI     H1 2768   3.021   1.968   0.591  0.2387 -0.2618  1.6842
  190HFI     H2 2769   3.195   2.178   0.528  0.8079 -0.9276 -1.2216
  191HFI     O1 2770   2.208   1.862   3.202  0.4165  0.4307 -0.0408
  191HFI     C1 2771   2.355   1.873   3.219 -0.0057  0.1465  0.0996
  191HFI     C2 2772   2.429   1.728   3.230  0.3582  0.0945 -0.2374
  191HFI     F1 2773   2.379   1.637   3.316 -0.9389 -0.2265  0.3897
  191HFI     F2 2774   2.560   1.730   3.258  0.2725 -0.5731  0.0442
  191HFI     F3 2775   2.408   1.673   3.112 -0.8902  0.5171 -0.6650
  191HFI     C3 2776   2.382   1.961   3.348 -0.0622  1.1587 -0.2629
  191HFI     F4 2777   2.308   1.906   3.443  0.4020 -0.0287 -0.7804
  191HFI     F5 2778   2.338   2.079   3.325  0.1019 -0.2943  0.4907
  191HFI     F6 2779   2.513   1.967   3.382 -0.0013 -0.2849  0.0613
  191HFI     H1 2780   2.180   1.815   3.282  4.3259 -1.9636  0.0591
  191HFI     H2 2781   2.389   1.939   3.138  0.2602  0.9120  0.8382
  192HFI     O1 2782   0.619   1.006   0.641  0.3914 -0.4312 -1.2987
  192HFI     C1 2783   0.491   0.938   0.589  0.0354 -0.0942  0.8949
  192HFI     C2 2784   0.436   0.819   0.680 -0.5273 -0.8142  0.0709
  192HFI     F1 2785   0.327   0.764   0.626 -0.3889 -0.1598  0.2256
  192HFI     F2 2786   0.411   0.863   0.804  0.2918 -0.1759  0.0187
  192HFI     F3 2787   0.531   0.721   0.687  0.2547 -0.6029  0.1541
  192HFI     C3 2788   0.499   0.902   0.443  0.5629  0.5532 -0.6691
  192HFI     F4 2789   0.381   0.862   0.392 -0.5667 -1.1274 -0.0892
  192HFI     F5 2790   0.585   0.797   0.433  0.1373 -0.4443  0.3509
  192HFI     F6 2791   0.555   0.998   0.371 -0.1803 -0.1010  0.2804
  192HFI     H1 2792   0.684   0.948   0.684  0.0504  0.7343  0.8541
  192HFI     H2 2793   0.415   1.017   0.589  0.3644  0.2733 -1.5485
  193HFI     O1 2794   2.555   1.459   2.610  0.4078 -0.0887 -0.1992
  193HFI     C1 2795   2.584   1.493   2.747  0.7981  0.4463 -0.3726
  193HFI     C2 2796   2.680   1.618   2.750  0.0611  0.3053 -0.1869
  193HFI     F1 2797   2.778   1.610   2.649  0.4689 -0.1724  0.0475
  193HFI     F2 2798   2.739   1.641   2.868  0.2518  0.8353 -0.0555
  193HFI     F3 2799   2.599   1.729   2.728 -0.5487  0.3624  0.5043
  193HFI     C3 2800   2.648   1.368   2.817  0.5209 -0.1545 -0.2826
  193HFI     F4 2801   2.591   1.252   2.779  0.2711  0.2030  0.4625
  193HFI     F5 2802   2.624   1.375   2.952  0.4832  0.4016  0.1603
  193HFI     F6 2803   2.777   1.350   2.788 -0.1034  0.3466 -0.0626
  193HFI     H1 2804   2.554   1.537   2.553 -0.6186  1.6136  2.0744
  193HFI     H2 2805   2.492   1.530   2.794 -0.2428 -2.0532 -0.4108
  194HFI     O1 2806   2.839   0.639   2.223  0.2629 -0.0422  0.3977
  194HFI     C1 2807   2.919   0.622   2.341  0.1356 -0.3100 -0.5724
  194HFI     C2 2808   3.023   0.745   2.373 -0.5960  0.3159  0.5200
  194HFI     F1 2809   3.108   0.716   2.466  0.3136  0.1309  0.1793
  194HFI     F2 2810   2.955   0.855   2.410 -0.5112  0.0642 -0.3741
  194HFI     F3 2811   3.094   0.774   2.258  0.5964  0.0387  0.1179
  194HFI     C3 2812   3.000   0.485   2.343  0.1878  0.1154  0.0643
  194HFI     F4 2813   3.099   0.479   2.252  0.4682  0.4499 -0.0705
  194HFI     F5 2814   2.909   0.380   2.321  0.8465 -0.5813 -0.2707
  194HFI     F6 2815   3.059   0.458   2.457  0.1525 -0.2952  0.4517
  194HFI     H1 2816   2.900   0.653   2.149  0.4407 -0.5756  0.4413
  194HFI     H2 2817   2.848   0.610   2.424  1.8989  1.6940  1.2719
  195HFI     O1 2818   2.670   2.564   3.268 -0.0340  0.0583 -0.1846
  195HFI     C1 2819   2.772   2.460   3.239 -0.2124  0.5061  0.4214
  195HFI     C2 2820   2.742   2.318   3.313 -0.0068 -1.0160 -0.0773
  195HFI     F1 2821   2.708   2.333   3.438  0.1534 -0.1713 -0.1196
  195HFI     F2 2822   2.845   2.233   3.311  0.2005 -0.5814  0.3814
  195HFI     F3 2823   2.637   2.253   3.261  0.4656 -0.4033  0.2099
  195HFI     C3 2824   2.917   2.505   3.270  0.2743 -0.1462  0.6911
  195HFI     F4 2825   2.938   2.628   3.210  0.3620 -0.3356 -0.2605
  195HFI     F5 2826   3.006   2.422   3.221 -0.1452  0.4718 -0.3968
  195HFI     F6 2827   2.940   2.523   3.401  0.4726  0.4249 -0.4414
  195HFI     H1 2828   2.678   2.601   3.358 -0.2901 -0.5071  0.0744
  195HFI     H2 2829   2.784   2.446   3.130  1.3760  2.2845  0.3380
  196HFI     O1 2830   0.854   1.386   2.305  0.0548  0.4927  0.3107
  196HFI     C1 2831   0.816   1.518   2.251  0.4267  0.0580  0.2480
  196HFI     C2 2832   0.920   1.621   2.312  0.7114  0.3430  0.7129
  196HFI     F1 2833   0.902   1.734   2.249 -0.1048  0.1863 -0.4764
  196HFI     F2 2834   1.048   1.584   2.286  0.3681  0.0117 -1.0239
  196HFI     F3 2835   0.895   1.643   2.449 -0.4779 -0.2712  0.3056
  196HFI     C3 2836   0.669   1.554   2.276 -0.5726  0.2672  0.0719
  196HFI     F4 2837   0.641   1.676   2.226  0.7310 -0.2365  0.1948
  196HFI     F5 2838   0.637   1.548   2.412 -0.3673  0.4561 -0.1251
  196HFI     F6 2839   0.592   1.460   2.218 -0.2886  0.3109 -0.2005
  196HFI     H1 2840   0.939   1.389   2.352  0.7797 -1.6074 -0.7693
  196HFI     H2 2841   0.810   1.510   2.142 -1.9869  0.2606  0.3379
  197HFI     O1 2842   2.981   1.995   2.938  0.5382  0.5059  0.0268
  197HFI     C1 2843   2.851   1.990   2.881 -0.2423  0.0191 -0.1740
  197HFI     C2 2844   2.843   2.047   2.740 -0.2804  0.4748 -0.4844
  197HFI     F1 2845   2.927   1.990   2.645 -0.0671 -0.8695 -0.2920
  197HFI     F2 2846   2.873   2.176   2.737 -0.3137  0.4946  0.3934
  197HFI     F3 2847   2.715   2.031   2.690  0.2309  0.3495 -0.2810
  197HFI     C3 2848   2.748   2.060   2.976  0.0390 -0.2030 -0.2258
  197HFI     F4 2849   2.752   2.192   2.985 -0.1793 -0.8093  0.2869
  197HFI     F5 2850   2.762   2.014   3.105 -0.1238  0.4141 -0.1214
  197HFI     F6 2851   2.624   2.028   2.937  0.4750  0.3143  0.3314
  197HFI     H1 2852   2.991   1.907   2.978 -1.8226 -0.1105 -0.6606
  197HFI     H2 2853   2.826   1.884   2.864 -0.2096  0.1937 -1.2978
  198HFI     O1 2854   1.347   2.033   0.116 -0.6029 -0.3332 -0.1891
  198HFI     C1 2855   1.408   1.926   0.032  0.1171  0.2919  0.5308
  198HFI     C2 2856   1.530   1.849   0.110  0.7440 -0.5476  0.2918
  198HFI     F1 2857   1.623   1.941   0.139 -0.4980  0.2382 -0.1714
  198HFI     F2 2858   1.579   1.754   0.026 -0.1022  0.1016 -0.4742
  198HFI     F3 2859   1.501   1.780   0.219  0.1596  0.4171 -0.2231
  198HFI     C3 2860   1.446   1.971  -0.109 -0.6610 -0.5398 -0.4133
  198HFI     F4 2861   1.492   1.880  -0.195  0.0905  0.1480 -0.3111
  198HFI     F5 2862   1.530   2.072  -0.113 -0.4225 -0.2717  0.4093
  198HFI     F6 2863   1.327   2.010  -0.167  0.0513 -0.1236  0.5697
  198HFI     H1 2864   1.372   2.121   0.083  2.7548 -0.4847  1.7605
  198HFI     H2 2865   1.332   1.848   0.012  0.6904 -0.2155  0.3052
  199HFI     O1 2866   2.893   3.300   0.887 -0.8218 -0.7118  0.2223
  199HFI     C1 2867   2.981   3.417   0.925  0.0021  0.1825  0.1481
  199HFI     C2 2868   2.900   3.549   0.960  0.1798 -0.6847  0.3105
  199HFI     F1 2869   2.843   3.523   1.083  0.0093  0.5526  0.4738
  199HFI     F2 2870   2.801   3.575   0.870 -0.0169 -0.1539 -0.2092
  199HFI     F3 2871   2.969   3.662   0.978  0.0086 -0.5205 -0.5292
  199HFI     C3 2872   3.090   3.439   0.821  0.4110  0.5594 -0.1054
  199HFI     F4 2873   3.028   3.432   0.699 -0.6501  0.2747 -0.3857
  199HFI     F5 2874   3.181   3.342   0.822 -0.1344 -0.2103  0.0569
  199HFI     F6 2875   3.162   3.553   0.828 -0.3277 -0.2586 -0.4958
  199HFI     H1 2876   2.896   3.291   0.790  2.6144 -1.0573  0.2962
  199HFI     H2 2877   3.049   3.389   1.007 -0.3992  0.2838  0.5136
  200HFI     O1 2878   0.012   2.296   2.905  0.2544  0.2600 -0.0281
  200HFI     C1 2879   0.042   2.260   3.043  0.3714  0.6472 -0.1696
  200HFI     C2 2880   0.189   2.232   3.063  0.3793  0.9710  0.5767
  200HFI     F1 2881   0.255   2.339   3.016 -0.3834 -0.4694 -0.3361
  200HFI     F2 2882   0.236   2.127   2.987  0.3882 -0.3524 -0.0675
  200HFI     F3 2883   0.220   2.205   3.196  0.0427  0.6017  0.1345
  200HFI     C3 2884  -0.050   2.144   3.093 -0.3685 -0.3940  0.5580
  200HFI     F4 2885  -0.003   2.025   3.066 -0.1232 -0.0788  0.4016
  200HFI     F5 2886  -0.174   2.156   3.040 -0.2613  0.6208  0.2195
  200HFI     F6 2887  -0.063   2.155   3.216 -0.0046 -0.0574  0.1377
  200HFI     H1 2888   0.051   2.229   2.846  0.8744  1.3060 -0.8355
  200HFI     H2 2889   0.025   2.334   3.122  0.4790 -0.3170  0.7610
  201HFI     O1 2890   0.995   0.493   0.144  0.8542  0.6927 -0.1128
  201HFI     C1 2891   0.854   0.522   0.139 -0.2547  0.6456  0.0222
  201HFI     C2 2892   0.795   0.506  -0.006 -0.3614  0.3619 -0.1153
  201HFI     F1 2893   0.847   0.394  -0.054  0.0399 -0.0999 -0.2216
  201HFI     F2 2894   0.837   0.613  -0.077  0.7191  0.1903 -0.0514
  201HFI     F3 2895   0.663   0.494  -0.015 -0.5877 -0.1331  0.4412
  201HFI     C3 2896   0.813   0.665   0.202 -0.4210  0.5616 -0.0324
  201HFI     F4 2897   0.824   0.657   0.337  0.3435  0.5343  0.2019
  201HFI     F5 2898   0.687   0.703   0.181 -0.1464  0.0689  0.4658
  201HFI     F6 2899   0.884   0.763   0.141  0.5716  0.5471 -0.2496
  201HFI     H1 2900   1.037   0.530   0.064  0.2026  0.8416 -0.3934
  201HFI     H2 2901   0.803   0.447   0.200 -1.3107  0.4794 -1.0332
  202HFI     O1 2902   0.620   1.925   0.432  0.4315  0.2416 -0.6116
  202HFI     C1 2903   0.609   2.072   0.440 -0.0789  0.1506  0.7628
  202HFI     C2 2904   0.478   2.128   0.510  0.0639  0.3483  0.2414
  202HFI     F1 2905   0.369   2.135   0.426 -0.6109 -0.1790  0.1835
  202HFI     F2 2906   0.503   2.247   0.559 -0.0585 -0.3528  0.4550
  202HFI     F3 2907   0.448   2.049   0.607 -0.2215 -0.1083 -0.2301
  202HFI     C3 2908   0.632   2.134   0.297  0.5664  0.7689 -0.4853
  202HFI     F4 2909   0.754   2.100   0.243 -0.3691  0.3004 -0.1785
  202HFI     F5 2910   0.617   2.271   0.308 -0.3223  0.3187 -0.4324
  202HFI     F6 2911   0.541   2.080   0.212 -0.7333  0.2788  0.7570
  202HFI     H1 2912   0.529   1.891   0.444  0.5813  0.2265  0.5810
  202HFI     H2 2913   0.700   2.095   0.497  0.6557 -2.8420  0.9131
  203HFI     O1 2914   2.022   1.583   3.670 -0.2412 -0.6098 -0.0232
  203HFI     C1 2915   1.935   1.623   3.562 -0.4459 -0.1952 -0.5668
  203HFI     C2 2916   1.894   1.775   3.574  0.3257 -0.7097 -0.3773
  203HFI     F1 2917   1.999   1.852   3.552 -0.2170  0.0875 -0.6339
  203HFI     F2 2918   1.846   1.801   3.696  0.0550 -0.2090 -0.1292
  203HFI     F3 2919   1.802   1.809   3.480 -0.1400  0.2132 -0.1602
  203HFI     C3 2920   1.816   1.524   3.545  0.4462 -0.0905 -0.5898
  203HFI     F4 2921   1.855   1.400   3.562  0.5181  0.2417 -0.0784
  203HFI     F5 2922   1.762   1.542   3.422  0.1436 -0.3281  0.4315
  203HFI     F6 2923   1.721   1.546   3.638 -0.0891  0.4992 -0.1064
  203HFI     H1 2924   2.021   1.487   3.660 -1.1109 -0.5273 -0.7562
  203HFI     H2 2925   1.987   1.613   3.466  0.1629  1.2875 -0.4091
  204HFI     O1 2926   1.937   2.016   0.153 -0.5405  0.1924  0.2651
  204HFI     C1 2927   2.026   2.034   0.039 -0.6495  0.3164  0.2537
  204HFI     C2 2928   2.175   2.068   0.072  0.3122 -0.3569  0.1425
  204HFI     F1 2929   2.173   2.181   0.145  0.1700  0.3227 -0.2690
  204HFI     F2 2930   2.249   2.093  -0.036  0.2786 -0.2560  0.0984
  204HFI     F3 2931   2.233   1.963   0.138  0.0335 -0.5565 -0.3589
  204HFI     C3 2932   1.964   2.142  -0.052 -0.3525 -0.8803 -0.1589
  204HFI     F4 2933   2.019   2.158  -0.169 -0.1970  0.1545 -0.3392
  204HFI     F5 2934   1.965   2.259   0.016  0.1171 -0.8052 -0.2138
  204HFI     F6 2935   1.838   2.115  -0.078  0.4356 -0.7172 -0.0110
  204HFI     H1 2936   1.849   2.050   0.129 -0.4041  0.1526 -0.3043
  204HFI     H2 2937   2.035   1.943  -0.022  1.3949  0.4400  0.3375
  205HFI     O1 2938   2.127   0.961   3.069 -0.0673 -0.0798 -0.3347
  205HFI     C1 2939   2.009   1.027   3.025 -0.4376  0.1582  0.0752
  205HFI     C2 2940   1.922   1.041   3.148  0.0200  0.3691  0.2474
  205HFI     F1 2941   1.833   1.146   3.130  0.2333  0.1920  1.1183
  205HFI     F2 2942   1.987   1.048   3.267  0.1079  0.1651  0.4951
  205HFI     F3 2943   1.851   0.930   3.158 -0.0373 -0.3098  0.0146
  205HFI     C3 2944   1.940   0.963   2.901 -0.1731 -0.3876 -0.0086
  205HFI     F4 2945   2.022   0.988   2.799  0.1536 -0.1527  0.4165
  205HFI     F5 2946   1.811   1.012   2.879 -0.1311 -0.2938  0.9491
  205HFI     F6 2947   1.933   0.827   2.912  0.0053  0.6413  0.1790
  205HFI     H1 2948   2.115   0.865   3.064 -1.9920  0.2128 -1.9492
  205HFI     H2 2949   2.029   1.130   2.991 -2.0230  0.7496  0.8488
  206HFI     O1 2950   0.815   1.447   3.260 -0.8613  0.1305 -0.0650
  206HFI     C1 2951   0.720   1.360   3.330 -0.1000 -0.4615 -0.6360
  206HFI     C2 2952   0.581   1.432   3.352 -0.4582 -0.1505 -0.0236
  206HFI     F1 2953   0.585   1.520   3.455  0.3947  0.4031  0.4250
  206HFI     F2 2954   0.484   1.344   3.387  0.5034 -0.3509 -0.0135
  206HFI     F3 2955   0.539   1.494   3.239 -0.1713 -0.5706  0.2244
  206HFI     C3 2956   0.785   1.310   3.461  0.1108 -0.3695 -0.0006
  206HFI     F4 2957   0.711   1.234   3.535 -0.1366  0.3400  0.3448
  206HFI     F5 2958   0.829   1.411   3.532 -0.9254 -0.5619  0.0958
  206HFI     F6 2959   0.890   1.230   3.423 -0.4885  0.1463  0.1601
  206HFI     H1 2960   0.820   1.533   3.306 -0.7301  0.7567 -1.2240
  206HFI     H2 2961   0.702   1.272   3.268 -0.3471 -1.4662  0.8424
  207HFI     O1 2962   2.580   1.681   2.429 -0.3774  0.7799 -0.4773
  207HFI     C1 2963   2.498   1.682   2.316  0.2691  0.3424  0.4182
  207HFI     C2 2964   2.407   1.810   2.313  0.1581 -0.4258 -0.0243
  207HFI     F1 2965   2.350   1.841   2.202  0.2646 -0.2558  0.7185
  207HFI     F2 2966   2.483   1.921   2.349  0.3025 -0.5373 -0.4283
  207HFI     F3 2967   2.313   1.809   2.415 -0.2040 -0.0115 -0.3642
  207HFI     C3 2968   2.418   1.544   2.300 -0.7305  0.1242  0.2618
  207HFI     F4 2969   2.347   1.505   2.412  0.3994 -0.2665  0.4456
  207HFI     F5 2970   2.517   1.455   2.277  0.5002  0.1612 -0.0715
  207HFI     F6 2971   2.333   1.546   2.193 -0.1254  0.3212 -0.1613
  207HFI     H1 2972   2.609   1.773   2.436 -1.5824  1.0528  1.4159
  207HFI     H2 2973   2.565   1.688   2.229  0.9480  0.8513  0.9715
  208HFI     O1 2974   0.251   2.870   3.123  0.5553  0.0638  0.0943
  208HFI     C1 2975   0.261   2.802   3.256  0.8985 -0.0567 -0.3242
  208HFI     C2 2976   0.316   2.897   3.359 -0.8534 -0.1454 -0.2184
  208HFI     F1 2977   0.229   3.006   3.361 -0.2139  0.2069  0.2225
  208HFI     F2 2978   0.437   2.944   3.323  0.0048 -0.5919  0.7157
  208HFI     F3 2979   0.341   2.842   3.486  0.7011 -0.5815  0.0858
  208HFI     C3 2980   0.344   2.672   3.238  0.5351  0.4715  0.1335
  208HFI     F4 2981   0.451   2.691   3.165  0.4280 -0.4377  0.1785
  208HFI     F5 2982   0.272   2.583   3.173  0.4279  0.1449  0.7497
  208HFI     F6 2983   0.380   2.625   3.352 -0.1522 -0.0007 -0.2152
  208HFI     H1 2984   0.306   2.950   3.116 -0.0476  0.4803  0.0813
  208HFI     H2 2985   0.164   2.767   3.293  0.1915 -0.3643 -2.3975
  209HFI     O1 2986   2.340   3.426   2.504 -0.3370 -0.3944  0.4136
  209HFI     C1 2987   2.316   3.353   2.382  0.1245 -0.1810 -0.1565
  209HFI     C2 2988   2.446   3.289   2.329  0.4686 -0.6833  0.1810
  209HFI     F1 2989   2.496   3.199   2.418  0.5266  0.6644  0.3947
  209HFI     F2 2990   2.531   3.390   2.305 -0.0202 -0.0948  0.1053
  209HFI     F3 2991   2.418   3.227   2.217  0.4060  0.1932  0.5075
  209HFI     C3 2992   2.251   3.435   2.276 -0.6081 -0.1841 -0.2563
  209HFI     F4 2993   2.199   3.359   2.178 -0.3038 -0.5657  0.2735
  209HFI     F5 2994   2.329   3.540   2.233 -0.2640  0.2195 -0.0966
  209HFI     F6 2995   2.142   3.496   2.328  0.2077  0.0030  0.7502
  209HFI     H1 2996   2.431   3.459   2.492  0.2628 -2.1565  0.0157
  209HFI     H2 2997   2.253   3.265   2.404 -1.3639  0.2773 -2.4410
  210HFI     O1 2998   1.357   1.296   2.596 -0.3789 -0.0905  0.3931
  210HFI     C1 2999   1.389   1.402   2.493 -0.1375 -0.4940  0.3370
  210HFI     C2 3000   1.322   1.542   2.523  0.1797  0.1947  0.4945
  210HFI     F1 3001   1.373   1.596   2.638 -0.6217 -0.4239 -0.2771
  210HFI     F2 3002   1.184   1.531   2.527  0.5654 -0.0875 -0.0639
  210HFI     F3 3003   1.353   1.636   2.435  0.0582  0.5110  0.3316
  210HFI     C3 3004   1.358   1.350   2.351  0.0868  0.4298 -0.1127
  210HFI     F4 3005   1.222   1.322   2.346  0.3207  0.1421  0.2084
  210HFI     F5 3006   1.420   1.234   2.329 -0.1616  0.0357  0.7562
  210HFI     F6 3007   1.386   1.439   2.250  0.5393 -0.4923  0.7304
  210HFI     H1 3008   1.279   1.247   2.568 -0.9422  1.5482 -0.9635
  210HFI     H2 3009   1.498   1.414   2.494 -0.1201 -0.6737  0.8329
  211HFI     O1 3010   1.393   2.304   3.192 -0.1641 -0.2804 -0.0523
  211HFI     C1 3011   1.318   2.304   3.320 -0.3259 -0.1199  0.5235
  211HFI     C2 3012   1.213   2.419   3.330  0.0228 -0.1802 -0.3722
  211HFI     F1 3013   1.128   2.393   3.432 -0.0310  0.4200 -0.0184
  211HFI     F2 3014   1.140   2.419   3.217 -0.0358 -0.1692  0.1380
  211HFI     F3 3015   1.268   2.540   3.338  0.4915  0.5505 -0.2291
  211HFI     C3 3016   1.412   2.289   3.438  0.1465  0.6675  0.0484
  211HFI     F4 3017   1.356   2.302   3.558 -0.0178  0.1579  0.0745
  211HFI     F5 3018   1.509   2.376   3.422 -0.0558  0.0751 -0.3253
  211HFI     F6 3019   1.466   2.166   3.429 -0.5292 -0.0390 -0.1193
  211HFI     H1 3020   1.452   2.380   3.179 -0.2590 -0.1196  0.4324
  211HFI     H2 3021   1.255   2.215   3.325 -2.1385  0.9382 -2.1097
  212HFI     O1 3022   2.689   2.138   0.046 -0.6985  0.6962  0.1117
  212HFI     C1 3023   2.792   2.131  -0.055  0.8968 -0.0400  0.2463
  212HFI     C2 3024   2.859   1.995  -0.054 -0.0823  0.0320 -0.1551
  212HFI     F1 3025   2.938   1.983   0.056 -0.4744  0.0586 -0.2581
  212HFI     F2 3026   2.937   1.980  -0.165  0.0889  0.7285  0.6733
  212HFI     F3 3027   2.775   1.889  -0.060 -0.1328  0.1201 -0.3836
  212HFI     C3 3028   2.888   2.255  -0.057  0.1819 -0.0649  0.1415
  212HFI     F4 3029   2.968   2.253  -0.166 -0.7240 -0.8983  0.3425
  212HFI     F5 3030   2.964   2.266   0.053  0.1586 -0.1174  0.7869
  212HFI     F6 3031   2.821   2.368  -0.068  0.3471 -1.1116  0.0473
  212HFI     H1 3032   2.687   2.231   0.075 -2.4728  0.1419  1.9426
  212HFI     H2 3033   2.746   2.145  -0.154  1.0761  2.5901  0.4868
  213HFI     O1 3034   2.334   2.485   2.435 -0.4438 -0.2905 -0.4272
  213HFI     C1 3035   2.399   2.391   2.337  0.0239 -0.5176  0.0899
  213HFI     C2 3036   2.368   2.245   2.361 -1.0417 -0.3988  0.4031
  213HFI     F1 3037   2.465   2.176   2.430 -0.6325 -0.6578  0.0131
  213HFI     F2 3038   2.359   2.182   2.244  0.4452 -0.1127  0.0754
  213HFI     F3 3039   2.244   2.234   2.430  0.1674 -0.8116  0.0617
  213HFI     C3 3040   2.548   2.421   2.308 -0.1462  0.0284 -0.5516
  213HFI     F4 3041   2.565   2.541   2.243 -0.5607  0.0542 -0.1809
  213HFI     F5 3042   2.603   2.330   2.226  0.2509  0.0143  0.4744
  213HFI     F6 3043   2.621   2.436   2.426  0.4406 -0.1888 -0.3869
  213HFI     H1 3044   2.245   2.451   2.451 -1.0260  0.7397 -1.4039
  213HFI     H2 3045   2.337   2.409   2.248 -0.5950 -1.8184  0.2484
  214HFI     O1 3046   3.273   0.700   0.351 -0.1437  0.4273 -0.1310
  214HFI     C1 3047   3.159   0.684   0.449  0.4977 -0.0301 -0.3432
  214HFI     C2 3048   3.063   0.811   0.461  0.2440  0.0140  0.3180
  214HFI     F1 3049   2.944   0.779   0.514  0.0464 -0.3588 -0.1939
  214HFI     F2 3050   3.041   0.865   0.341 -0.1717 -0.3531 -0.0613
  214HFI     F3 3051   3.124   0.900   0.530 -0.2319 -0.1924  0.6804
  214HFI     C3 3052   3.217   0.646   0.596 -0.3024  0.7235  0.0388
  214HFI     F4 3053   3.267   0.521   0.591  0.0688  0.1269 -0.3082
  214HFI     F5 3054   3.115   0.647   0.680  0.1482  0.3075 -0.3240
  214HFI     F6 3055   3.318   0.734   0.633  0.7247  0.4909 -0.0510
  214HFI     H1 3056   3.245   0.753   0.274 -0.9774  1.4822  0.8757
  214HFI     H2 3057   3.107   0.591   0.426  3.3581 -1.1628 -2.5575
  215HFI     O1 3058   1.848   0.528   2.740 -0.4127 -0.4838 -0.1487
  215HFI     C1 3059   1.751   0.429   2.697 -0.9383  0.0482  0.5523
  215HFI     C2 3060   1.633   0.494   2.626 -0.0376  0.5785  0.5019
  215HFI     F1 3061   1.665   0.534   2.503  0.2644 -0.1053  0.2078
  215HFI     F2 3062   1.590   0.601   2.692 -0.6474 -0.1209 -0.0646
  215HFI     F3 3063   1.534   0.406   2.609 -0.5771  0.0785  0.0119
  215HFI     C3 3064   1.718   0.328   2.811  0.0529  0.1595 -0.1345
  215HFI     F4 3065   1.831   0.296   2.867  0.1537  0.0302  0.2876
  215HFI     F5 3066   1.666   0.211   2.766 -0.5010  0.7048 -0.1093
  215HFI     F6 3067   1.640   0.383   2.906 -0.5024 -0.5633  0.3562
  215HFI     H1 3068   1.921   0.478   2.781 -1.4345 -1.8302  0.0479
  215HFI     H2 3069   1.800   0.369   2.619  0.5808  0.9613  0.7788
  216HFI     O1 3070   2.389   3.155   0.165 -0.2577 -0.0630 -0.1937
  216HFI     C1 3071   2.247   3.115   0.138  0.1057  0.3116  0.2019
  216HFI     C2 3072   2.210   2.985   0.217 -0.3220 -0.8207 -0.3057
  216HFI     F1 3073   2.238   2.994   0.348  0.3346  0.1721 -0.3789
  216HFI     F2 3074   2.280   2.883   0.171 -0.1904  0.2829  0.0387
  216HFI     F3 3075   2.081   2.952   0.207  0.4799 -0.2763  0.4500
  216HFI     C3 3076   2.220   3.113  -0.014 -0.1208  0.5347 -0.0175
  216HFI     F4 3077   2.118   3.041  -0.050 -0.0258 -0.6053 -0.7168
  216HFI     F5 3078   2.319   3.053  -0.081  0.4803  0.3366  0.0031
  216HFI     F6 3079   2.209   3.236  -0.075  0.1499 -0.1963 -0.0384
  216HFI     H1 3080   2.446   3.136   0.089  0.9495  2.9031 -0.0760
  216HFI     H2 3081   2.176   3.191   0.174 -0.1065  0.0604  0.3127
  217HFI     O1 3082   2.084   1.221   2.512 -0.1435 -0.5481  0.4467
  217HFI     C1 3083   2.217   1.194   2.457  0.7237 -0.2801 -0.2112
  217HFI     C2 3084   2.208   1.187   2.298  0.7783 -0.4607 -0.1875
  217HFI     F1 3085   2.166   1.063   2.259 -0.1149  0.1490 -0.5516
  217HFI     F2 3086   2.328   1.206   2.235 -0.3672  0.5804 -0.3180
  217HFI     F3 3087   2.132   1.279   2.250  0.1950  0.0103 -0.0216
  217HFI     C3 3088   2.285   1.076   2.525  0.1462 -0.1846 -0.0444
  217HFI     F4 3089   2.284   1.087   2.657 -0.0686  0.0212  0.0584
  217HFI     F5 3090   2.413   1.070   2.492  0.0429  0.2625  0.6672
  217HFI     F6 3091   2.236   0.954   2.506  0.0211 -0.1035 -0.1533
  217HFI     H1 3092   2.022   1.153   2.482  0.0434 -0.0174 -1.2374
  217HFI     H2 3093   2.285   1.278   2.475  2.2382 -1.0868 -2.0055
  218HFI     O1 3094   1.644   1.942   3.021 -0.5484 -0.3098  0.0116
  218HFI     C1 3095   1.647   1.821   3.092  0.3028 -0.1868  0.0393
  218HFI     C2 3096   1.675   1.697   3.004 -0.4365  0.1544  0.1398
  218HFI     F1 3097   1.565   1.663   2.931  0.0695  0.3018 -0.0246
  218HFI     F2 3098   1.701   1.584   3.073 -0.3840 -0.2280 -0.4066
  218HFI     F3 3099   1.783   1.717   2.920  0.0401  0.5708 -0.1863
  218HFI     C3 3100   1.539   1.799   3.197  0.0833  0.2792 -0.6281
  218HFI     F4 3101   1.427   1.736   3.148  0.1684 -0.2606 -0.0117
  218HFI     F5 3102   1.497   1.917   3.256  0.1105  0.2056  0.0080
  218HFI     F6 3103   1.595   1.729   3.300 -0.0758 -0.2982 -0.2233
  218HFI     H1 3104   1.552   1.958   2.996  0.4945  0.8886 -3.3140
  218HFI     H2 3105   1.742   1.823   3.146  0.5658  3.2239 -0.4534
  219HFI     O1 3106   0.589   0.394   3.506  0.4167 -0.4405  1.1118
  219HFI     C1 3107   0.632   0.378   3.365  0.3577 -0.7059 -0.6944
  219HFI     C2 3108   0.540   0.273   3.302 -0.5776 -0.5213  0.3011
  219HFI     F1 3109   0.569   0.149   3.336  0.2316  0.3355 -0.0529
  219HFI     F2 3110   0.554   0.279   3.169  0.0744  0.2915  0.0433
  219HFI     F3 3111   0.414   0.290   3.334  0.0356 -0.1286 -0.1259
  219HFI     C3 3112   0.791   0.360   3.357  0.2720  0.3271  0.3988
  219HFI     F4 3113   0.854   0.447   3.437  0.2778  0.2649 -0.3886
  219HFI     F5 3114   0.836   0.386   3.230  0.3095 -0.1122  0.9155
  219HFI     F6 3115   0.822   0.237   3.401  0.0382 -0.3009  0.0437
  219HFI     H1 3116   0.587   0.311   3.556 -0.1362  0.8114  3.2798
  219HFI     H2 3117   0.606   0.468   3.308 -1.3521  0.6515  2.0783
  220HFI     O1 3118   1.934   0.996   2.432 -0.5088 -0.3918 -0.1268
  220HFI     C1 3119   1.835   0.977   2.329 -0.6155 -0.4166  0.1565
  220HFI     C2 3120   1.755   1.110   2.306  0.7543 -0.1212 -0.6336
  220HFI     F1 3121   1.837   1.211   2.271  0.3630  0.6416  0.0701
  220HFI     F2 3122   1.683   1.156   2.415  0.0995 -0.3213  0.5338
  220HFI     F3 3123   1.659   1.097   2.212 -0.2060 -0.4086 -0.0905
  220HFI     C3 3124   1.743   0.850   2.359 -0.7511  1.1186  0.1816
  220HFI     F4 3125   1.814   0.738   2.390  0.3768 -0.2876 -0.2160
  220HFI     F5 3126   1.680   0.821   2.245  0.1383 -0.4622  0.6700
  220HFI     F6 3127   1.656   0.871   2.459  0.0033 -0.5694 -0.0377
  220HFI     H1 3128   1.962   0.910   2.468  1.4077  0.3745  0.3116
  220HFI     H2 3129   1.878   0.965   2.230 -0.5450  0.5730  0.0582
  221HFI     O1 3130   0.185   1.704   3.512  0.7256  0.1357 -0.0341
  221HFI     C1 3131   0.281   1.737   3.401  0.2439  0.6293 -0.1727
  221HFI     C2 3132   0.308   1.892   3.410 -0.1863 -0.4853 -0.2271
  221HFI     F1 3133   0.371   1.904   3.534 -0.2687  0.4040  0.4652
  221HFI     F2 3134   0.196   1.971   3.416 -0.2655 -0.3419  0.1352
  221HFI     F3 3135   0.391   1.941   3.320  1.0912  0.1656 -0.5389
  221HFI     C3 3136   0.234   1.701   3.257  0.1930  0.3564  0.4873
  221HFI     F4 3137   0.328   1.682   3.164 -0.2493 -0.8639  0.5603
  221HFI     F5 3138   0.144   1.796   3.219  0.5368 -0.0513  0.1863
  221HFI     F6 3139   0.160   1.587   3.263 -0.6973 -0.6149 -0.1168
  221HFI     H1 3140   0.118   1.774   3.522  3.0898  2.4532  0.4221
  221HFI     H2 3141   0.380   1.692   3.412  0.5243  1.5971  1.2911
  222HFI     O1 3142   3.237   3.214   2.985 -0.3514 -0.2066  0.2345
  222HFI     C1 3143   3.263   3.113   2.881  0.2337 -0.6415 -0.4140
  222HFI     C2 3144   3.331   2.997   2.953 -1.0454  0.7619  0.4704
  222HFI     F1 3145   3.371   2.900   2.867 -0.0325  0.1577 -0.0418
  222HFI     F2 3146   3.248   2.933   3.044 -0.1832 -0.1432 -0.2138
  222HFI     F3 3147   3.438   3.046   3.023  0.1204  0.3580 -0.2893
  222HFI     C3 3148   3.336   3.160   2.756  0.3842 -0.7571 -0.1949
  222HFI     F4 3149   3.337   3.072   2.656  0.1688  0.1421  0.0009
  222HFI     F5 3150   3.471   3.181   2.792 -0.2887 -0.7107 -0.1439
  222HFI     F6 3151   3.294   3.280   2.705 -0.0055  0.4750 -0.0872
  222HFI     H1 3152   3.316   3.270   2.996  2.4020 -3.9016  0.1891
  222HFI     H2 3153   3.162   3.080   2.855 -0.9073  1.4325  1.2702
  223HFI     O1 3154   0.901   0.210   0.431 -0.0549  0.2916  0.1776
  223HFI     C1 3155   1.035   0.255   0.399 -0.0374 -0.3868 -0.3717
  223HFI     C2 3156   1.109   0.182   0.284 -0.6111 -0.1187 -0.3255
  223HFI     F1 3157   1.194   0.262   0.219 -0.1754  0.1612  0.4924
  223HFI     F2 3158   1.021   0.132   0.191  0.0521  0.1762 -0.0769
  223HFI     F3 3159   1.183   0.079   0.332 -0.1282  0.2482 -0.1071
  223HFI     C3 3160   1.128   0.263   0.522 -0.0241 -0.0579  0.5996
  223HFI     F4 3161   1.144   0.148   0.592  0.3084  0.0940 -0.4133
  223HFI     F5 3162   1.087   0.355   0.614 -0.0917  0.1357 -0.1933
  223HFI     F6 3163   1.251   0.306   0.487  0.2340 -0.3228  0.0609
  223HFI     H1 3164   0.907   0.124   0.477  2.6138  0.1629 -0.3620
  223HFI     H2 3165   1.039   0.358   0.362  1.6688  0.2291  1.3963
  224HFI     O1 3166   2.259   1.061   3.324 -0.2348  0.5158  0.4918
  224HFI     C1 3167   2.299   1.201   3.335  0.1500 -0.3907  0.4198
  224HFI     C2 3168   2.181   1.294   3.388 -0.2990  0.2243 -0.4351
  224HFI     F1 3169   2.227   1.414   3.416  0.7108  0.3200  0.7040
  224HFI     F2 3170   2.118   1.248   3.500 -0.3765  0.1261  0.4049
  224HFI     F3 3171   2.085   1.312   3.291 -0.6236  0.1775  0.2293
  224HFI     C3 3172   2.364   1.254   3.206 -0.0896  0.2933 -0.1331
  224HFI     F4 3173   2.426   1.372   3.220  0.2204 -0.2522  0.6592
  224HFI     F5 3174   2.268   1.270   3.119 -0.7397 -0.2357 -0.5165
  224HFI     F6 3175   2.454   1.165   3.162 -0.0432 -0.1036  0.1568
  224HFI     H1 3176   2.215   1.048   3.238  2.5751  0.8689 -1.0875
  224HFI     H2 3177   2.370   1.202   3.420 -0.3699 -1.0376  0.8616
  225HFI     O1 3178   0.968   2.174   0.994 -0.2229 -0.5858  0.5395
  225HFI     C1 3179   0.836   2.201   0.927  1.3819 -0.9022  0.4953
  225HFI     C2 3180   0.859   2.180   0.774  0.4957 -0.1685  0.0478
  225HFI     F1 3181   0.757   2.229   0.702 -0.0223  0.0776 -0.2936
  225HFI     F2 3182   0.862   2.047   0.744  0.1867  0.2411  0.5665
  225HFI     F3 3183   0.971   2.232   0.722 -0.4627  0.7850 -0.3766
  225HFI     C3 3184   0.774   2.348   0.964  0.4308  0.6945 -0.2680
  225HFI     F4 3185   0.839   2.448   0.907  0.6977 -0.2761 -0.4795
  225HFI     F5 3186   0.774   2.354   1.099 -0.6987 -0.8714  0.1451
  225HFI     F6 3187   0.644   2.353   0.922  0.0463  0.2194  0.4726
  225HFI     H1 3188   1.026   2.250   0.976  0.8293 -2.0028 -2.4495
  225HFI     H2 3189   0.753   2.137   0.959  0.3034 -0.9188 -2.2253
  226HFI     O1 3190   0.729   2.441   2.314 -0.1073  0.1704  0.2663
  226HFI     C1 3191   0.761   2.581   2.272 -0.6228  0.5618  0.0619
  226HFI     C2 3192   0.899   2.631   2.330  0.3304  0.3210 -0.1846
  226HFI     F1 3193   0.890   2.672   2.457  0.2043  0.3781 -0.1555
  226HFI     F2 3194   0.946   2.735   2.261  0.2668  0.1108 -0.4006
  226HFI     F3 3195   0.988   2.528   2.328 -0.0882  0.3888 -0.3464
  226HFI     C3 3196   0.647   2.692   2.293 -0.4968  0.4814  0.4296
  226HFI     F4 3197   0.637   2.744   2.418 -0.5607 -0.6006 -0.4080
  226HFI     F5 3198   0.527   2.629   2.255 -0.1988  0.6161 -0.2764
  226HFI     F6 3199   0.679   2.796   2.211 -0.0596 -0.4398  0.0464
  226HFI     H1 3200   0.812   2.397   2.338 -1.4876 -1.6070  1.9026
  226HFI     H2 3201   0.766   2.579   2.162  0.9051 -2.9788  0.1343
  227HFI     O1 3202   2.893   1.187   2.529 -0.5109 -0.2736 -0.3140
  227HFI     C1 3203   2.826   1.252   2.414  0.0317  0.1861  0.4475
  227HFI     C2 3204   2.768   1.149   2.312  0.2109 -0.2656 -0.0335
  227HFI     F1 3205   2.711   1.049   2.376  0.2019  0.3478  0.5892
  227HFI     F2 3206   2.868   1.090   2.238 -0.0413 -0.0073  0.2832
  227HFI     F3 3207   2.679   1.200   2.222 -0.2158  0.6073  0.1382
  227HFI     C3 3208   2.902   1.362   2.352  0.1190 -0.3395  0.0319
  227HFI     F4 3209   2.986   1.316   2.260  0.1374  0.5025 -0.5923
  227HFI     F5 3210   2.975   1.438   2.432 -0.5647 -0.0366  0.3135
  227HFI     F6 3211   2.815   1.443   2.281  0.0156  0.0718 -0.5530
  227HFI     H1 3212   2.988   1.202   2.517 -0.7840  0.7757 -1.2107
  227HFI     H2 3213   2.739   1.305   2.455 -1.2530  0.0309 -1.9686
  228HFI     O1 3214   2.121   3.279   2.662 -0.8796 -0.5401  0.0714
  228HFI     C1 3215   2.091   3.327   2.793 -0.3127  0.3082 -0.8166
  228HFI     C2 3216   1.963   3.409   2.793  0.0956 -0.0456  0.4523
  228HFI     F1 3217   1.862   3.323   2.808  0.3048  0.2240  0.1603
  228HFI     F2 3218   1.945   3.477   2.678 -0.4327  0.0846 -0.2398
  228HFI     F3 3219   1.956   3.494   2.899  0.3733 -0.1150  0.3522
  228HFI     C3 3220   2.215   3.404   2.864 -0.4612  0.3712  0.5877
  228HFI     F4 3221   2.206   3.395   2.999 -0.4838 -0.2300 -0.0742
  228HFI     F5 3222   2.226   3.533   2.820  0.0487 -0.4600  0.2267
  228HFI     F6 3223   2.327   3.334   2.840 -0.2024 -0.2520  0.2669
  228HFI     H1 3224   2.145   3.356   2.607 -2.1905  0.4078  0.7884
  228HFI     H2 3225   2.078   3.237   2.855  0.8103  0.8096  0.1690
   3.40320   3.43847   3.80000
