;
;   File molecule.top  was generated
;   By user: mattiaapicella (501)
;   On host:Mattias-MacBook-Pro.local 
;   At date:Tue. October  2 04:22:15 2026 
;
;   This is a standalone topology file
;
;   Created by:
;   ParmEd:       -c, VERSION4.3.1 
;   Executable:   -c
;   Library dir:  /usr/local/gromacs/share/gromacs/top
;   Command line:
;     -c
;

[ defaults ]
; nbfunc        comb-rule       gen-pairs       fudgeLJ fudgeQQ
1               2               yes             0.5          0.83333333  

[ atomtypes ]
; name    at.num    mass    charge ptype  sigma      epsilon
c3             6  12.010000  0.00000000  A     0.33977095      0.4510352
n              7  14.010000  0.00000000  A     0.31808648      0.6845024
c              6  12.010000  0.00000000  A     0.33152123      0.4133792
o              8  16.000000  0.00000000  A     0.30481209      0.6121192
h1             1   1.008000  0.00000000  A     0.24219973      0.0870272
h5             1   1.008000  0.00000000  A     0.24472988      0.0673624


[ moleculetype ]
; Name            nrexcl
DMF          3

[ atoms ]
;   nr       type  resnr residue  atom   cgnr    charge       mass  typeB    chargeB      massB
; residue    1 DMF rtp DMF q -0.0
    1         c3      1    DMF     C1      1 0.07938333  12.010000   ; qtot 0.079383
    2          n      1    DMF     N1      2 -0.49471667  14.010000   ; qtot -0.415333
    3         c3      1    DMF     C2      3 0.07938333  12.010000   ; qtot -0.335950
    4          c      1    DMF     C3      4 0.66098333  12.010000   ; qtot 0.325033
    5          o      1    DMF     O1      5 -0.60401667  16.000000   ; qtot -0.278983
    6         h1      1    DMF     H1      6 0.04178333   1.008000   ; qtot -0.237200
    7         h1      1    DMF     H2      7 0.04178333   1.008000   ; qtot -0.195417
    8         h1      1    DMF     H3      8 0.04178333   1.008000   ; qtot -0.153633
    9         h1      1    DMF     H4      9 0.04178333   1.008000   ; qtot -0.111850
   10         h1      1    DMF     H5     10 0.04178333   1.008000   ; qtot -0.070067
   11         h1      1    DMF     H6     11 0.04178333   1.008000   ; qtot -0.028283
   12         h5      1    DMF     H7     12 0.02828333   1.008000   ; qtot -0.000000

[ bonds ]
;    ai     aj funct         c0         c1         c2         c3
      1      2     1   0.14643 212932.128000
      2      3     1   0.14643 212932.128000
      2      4     1   0.13967 265650.528000
      4      5     1   0.12190 494214.080000
      1      6     1   0.10969 288043.296000
      1      7     1   0.10969 288043.296000
      1      8     1   0.10969 288043.296000
      3      9     1   0.10969 288043.296000
      3     10     1   0.10969 288043.296000
      3     11     1   0.10969 288043.296000
      4     12     1   0.11053 277934.752000

[ pairs ]
;    ai     aj funct         c0         c1         c2         c3
      1      5     1
      3      5     1
      1      9     1
      1     10     1
      1     11     1
      1     12     1
      6      3     1
      7      3     1
      8      3     1
      3     12     1
      6      4     1
      7      4     1
      8      4     1
      4      9     1
      4     10     1
      4     11     1

[ angles ]
;    ai     aj     ak funct         c0         c1         c2         c3
      1      2      3     1   116.7500503 637.725280
      1      2      4     1   118.8300510 646.344320
      2      4      5     1   122.5700525 725.338240
      3      2      4     1   118.8300510 646.344320
      2      1      6     1   108.7600467 402.417120
      2      1      7     1   108.7600467 402.417120
      2      1      8     1   108.7600467 402.417120
      2      3      9     1   108.7600467 402.417120
      2      3     10     1   108.7600467 402.417120
      2      3     11     1   108.7600467 402.417120
      2      4     12     1   112.1400479 411.370880
      5      4     12     1   123.7800528 496.640800
      6      1      7     1   108.5500468 298.235520
      6      1      8     1   108.5500468 298.235520
      7      1      8     1   108.5500468 298.235520
      9      3     10     1   108.5500468 298.235520
      9      3     11     1   108.5500468 298.235520
     10      3     11     1   108.5500468 298.235520

[ dihedrals ]
;    ai     aj     ak     al funct         c0         c1         c2         c3         c4         c5
      1      2      4      5     1  180.0000771  10.4600000  2
      3      2      4      5     1  180.0000771  10.4600000  2
      4      1      2      3     4  180.0000771  4.6024000  2
      1      2      3      9     1  0.0000000  0.0000000  2
      1      2      3     10     1  0.0000000  0.0000000  2
      1      2      3     11     1  0.0000000  0.0000000  2
      1      2      4     12     1  180.0000771  10.4600000  2
      6      1      2      3     1  0.0000000  0.0000000  2
      7      1      2      3     1  0.0000000  0.0000000  2
      8      1      2      3     1  0.0000000  0.0000000  2
      3      2      4     12     1  180.0000771  10.4600000  2
      6      1      2      4     1  180.0000771  0.0000000  2
      7      1      2      4     1  180.0000771  0.0000000  2
      8      1      2      4     1  180.0000771  0.0000000  2
      4      2      3      9     1  180.0000771  0.0000000  2
      4      2      3     10     1  180.0000771  0.0000000  2
      4      2      3     11     1  180.0000771  0.0000000  2
     12      2      4      5     4  180.0000771  43.9320000  2

[ system ]
; Name
Generic title

[ molecules ]
; Compound       #mols
DMF                  1
