DMF
    12
   1.3510000   0.0200000   0.0510000  -0.0820000  -0.1500000   0.0270000
  -0.8640000   1.0250000  -0.2420000  -0.6210000  -1.3600000   0.2490000
  -0.0010000  -2.3720000   0.4770000   1.7080000   0.3840000  -0.9150000
   1.7990000  -0.9480000   0.2640000   1.6370000   0.7340000   0.8270000
  -0.6750000   1.7900000   0.5180000  -1.9240000   0.7770000  -0.2350000
  -0.6040000   1.4400000  -1.2200000  -1.7260000  -1.3390000   0.1990000
