GROningen MAchine for Chemical Simulation
   12
    1DMF     C1    1   0.135   0.002   0.005
    1DMF     N1    2  -0.008  -0.015   0.003
    1DMF     C2    3  -0.086   0.102  -0.024
    1DMF     C3    4  -0.062  -0.136   0.025
    1DMF     O1    5  -0.000  -0.237   0.048
    1DMF     H1    6   0.171   0.038  -0.091
    1DMF     H2    7   0.180  -0.095   0.026
    1DMF     H3    8   0.164   0.073   0.083
    1DMF     H4    9  -0.068   0.179   0.052
    1DMF     H5   10  -0.192   0.078  -0.024
    1DMF     H6   11  -0.060   0.144  -0.122
    1DMF     H7   12  -0.173  -0.134   0.020
   0.87230   0.91620   0.70470
