HFIP comparator n4
 3225
    1GR      C1    1   0.000   0.000   1.900  0.0000  0.0000  0.0000
    1GR      C2    2   0.142   0.000   1.900  0.0000  0.0000  0.0000
    1GR      C3    3   0.213   0.123   1.900  0.0000  0.0000  0.0000
    1GR      C4    4   0.354   0.123   1.900  0.0000  0.0000  0.0000
    1GR      C5    5   0.000   0.246   1.900  0.0000  0.0000  0.0000
    1GR      C6    6   0.142   0.246   1.900  0.0000  0.0000  0.0000
    1GR      C7    7   0.213   0.368   1.900  0.0000  0.0000  0.0000
    1GR      C8    8   0.354   0.368   1.900  0.0000  0.0000  0.0000
    1GR      C9    9   0.000   0.491   1.900  0.0000  0.0000  0.0000
    1GR     C10   10   0.142   0.491   1.900  0.0000  0.0000  0.0000
    1GR     C11   11   0.213   0.614   1.900  0.0000  0.0000  0.0000
    1GR     C12   12   0.354   0.614   1.900  0.0000  0.0000  0.0000
    1GR     C13   13   0.000   0.737   1.900  0.0000  0.0000  0.0000
    1GR     C14   14   0.142   0.737   1.900  0.0000  0.0000  0.0000
    1GR     C15   15   0.213   0.860   1.900  0.0000  0.0000  0.0000
    1GR     C16   16   0.354   0.860   1.900  0.0000  0.0000  0.0000
    1GR     C17   17   0.000   0.982   1.900  0.0000  0.0000  0.0000
    1GR     C18   18   0.142   0.982   1.900  0.0000  0.0000  0.0000
    1GR     C19   19   0.213   1.105   1.900  0.0000  0.0000  0.0000
    1GR     C20   20   0.354   1.105   1.900  0.0000  0.0000  0.0000
    1GR     C21   21   0.000   1.228   1.900  0.0000  0.0000  0.0000
    1GR     C22   22   0.142   1.228   1.900  0.0000  0.0000  0.0000
    1GR     C23   23   0.213   1.351   1.900  0.0000  0.0000  0.0000
    1GR     C24   24   0.354   1.351   1.900  0.0000  0.0000  0.0000
    1GR     C25   25   0.000   1.474   1.900  0.0000  0.0000  0.0000
    1GR     C26   26   0.142   1.474   1.900  0.0000  0.0000  0.0000
    1GR     C27   27   0.213   1.596   1.900  0.0000  0.0000  0.0000
    1GR     C28   28   0.354   1.596   1.900  0.0000  0.0000  0.0000
    1GR     C29   29   0.000   1.719   1.900  0.0000  0.0000  0.0000
    1GR     C30   30   0.142   1.719   1.900  0.0000  0.0000  0.0000
    1GR     C31   31   0.213   1.842   1.900  0.0000  0.0000  0.0000
    1GR     C32   32   0.354   1.842   1.900  0.0000  0.0000  0.0000
    1GR     C33   33   0.000   1.965   1.900  0.0000  0.0000  0.0000
    1GR     C34   34   0.142   1.965   1.900  0.0000  0.0000  0.0000
    1GR     C35   35   0.213   2.088   1.900  0.0000  0.0000  0.0000
    1GR     C36   36   0.354   2.088   1.900  0.0000  0.0000  0.0000
    1GR     C37   37   0.000   2.210   1.900  0.0000  0.0000  0.0000
    1GR     C38   38   0.142   2.210   1.900  0.0000  0.0000  0.0000
    1GR     C39   39   0.213   2.333   1.900  0.0000  0.0000  0.0000
    1GR     C40   40   0.354   2.333   1.900  0.0000  0.0000  0.0000
    1GR     C41   41   0.000   2.456   1.900  0.0000  0.0000  0.0000
    1GR     C42   42   0.142   2.456   1.900  0.0000  0.0000  0.0000
    1GR     C43   43   0.213   2.579   1.900  0.0000  0.0000  0.0000
    1GR     C44   44   0.354   2.579   1.900  0.0000  0.0000  0.0000
    1GR     C45   45   0.000   2.702   1.900  0.0000  0.0000  0.0000
    1GR     C46   46   0.142   2.702   1.900  0.0000  0.0000  0.0000
    1GR     C47   47   0.213   2.824   1.900  0.0000  0.0000  0.0000
    1GR     C48   48   0.354   2.824   1.900  0.0000  0.0000  0.0000
    1GR     C49   49   0.000   2.947   1.900  0.0000  0.0000  0.0000
    1GR     C50   50   0.142   2.947   1.900  0.0000  0.0000  0.0000
    1GR     C51   51   0.213   3.070   1.900  0.0000  0.0000  0.0000
    1GR     C52   52   0.354   3.070   1.900  0.0000  0.0000  0.0000
    1GR     C53   53   0.000   3.193   1.900  0.0000  0.0000  0.0000
    1GR     C54   54   0.142   3.193   1.900  0.0000  0.0000  0.0000
    1GR     C55   55   0.213   3.316   1.900  0.0000  0.0000  0.0000
    1GR     C56   56   0.354   3.316   1.900  0.0000  0.0000  0.0000
    1GR     C57   57   0.425   0.000   1.900  0.0000  0.0000  0.0000
    1GR     C58   58   0.567   0.000   1.900  0.0000  0.0000  0.0000
    1GR     C59   59   0.638   0.123   1.900  0.0000  0.0000  0.0000
    1GR     C60   60   0.780   0.123   1.900  0.0000  0.0000  0.0000
    1GR     C61   61   0.425   0.246   1.900  0.0000  0.0000  0.0000
    1GR     C62   62   0.567   0.246   1.900  0.0000  0.0000  0.0000
    1GR     C63   63   0.638   0.368   1.900  0.0000  0.0000  0.0000
    1GR     C64   64   0.780   0.368   1.900  0.0000  0.0000  0.0000
    1GR     C65   65   0.425   0.491   1.900  0.0000  0.0000  0.0000
    1GR     C66   66   0.567   0.491   1.900  0.0000  0.0000  0.0000
    1GR     C67   67   0.638   0.614   1.900  0.0000  0.0000  0.0000
    1GR     C68   68   0.780   0.614   1.900  0.0000  0.0000  0.0000
    1GR     C69   69   0.425   0.737   1.900  0.0000  0.0000  0.0000
    1GR     C70   70   0.567   0.737   1.900  0.0000  0.0000  0.0000
    1GR     C71   71   0.638   0.860   1.900  0.0000  0.0000  0.0000
    1GR     C72   72   0.780   0.860   1.900  0.0000  0.0000  0.0000
    1GR     C73   73   0.425   0.982   1.900  0.0000  0.0000  0.0000
    1GR     C74   74   0.567   0.982   1.900  0.0000  0.0000  0.0000
    1GR     C75   75   0.638   1.105   1.900  0.0000  0.0000  0.0000
    1GR     C76   76   0.780   1.105   1.900  0.0000  0.0000  0.0000
    1GR     C77   77   0.425   1.228   1.900  0.0000  0.0000  0.0000
    1GR     C78   78   0.567   1.228   1.900  0.0000  0.0000  0.0000
    1GR     C79   79   0.638   1.351   1.900  0.0000  0.0000  0.0000
    1GR     C80   80   0.780   1.351   1.900  0.0000  0.0000  0.0000
    1GR     C81   81   0.425   1.474   1.900  0.0000  0.0000  0.0000
    1GR     C82   82   0.567   1.474   1.900  0.0000  0.0000  0.0000
    1GR     C83   83   0.638   1.596   1.900  0.0000  0.0000  0.0000
    1GR     C84   84   0.780   1.596   1.900  0.0000  0.0000  0.0000
    1GR     C85   85   0.425   1.719   1.900  0.0000  0.0000  0.0000
    1GR     C86   86   0.567   1.719   1.900  0.0000  0.0000  0.0000
    1GR     C87   87   0.638   1.842   1.900  0.0000  0.0000  0.0000
    1GR     C88   88   0.780   1.842   1.900  0.0000  0.0000  0.0000
    1GR     C89   89   0.425   1.965   1.900  0.0000  0.0000  0.0000
    1GR     C90   90   0.567   1.965   1.900  0.0000  0.0000  0.0000
    1GR     C91   91   0.638   2.088   1.900  0.0000  0.0000  0.0000
    1GR     C92   92   0.780   2.088   1.900  0.0000  0.0000  0.0000
    1GR     C93   93   0.425   2.210   1.900  0.0000  0.0000  0.0000
    1GR     C94   94   0.567   2.210   1.900  0.0000  0.0000  0.0000
    1GR     C95   95   0.638   2.333   1.900  0.0000  0.0000  0.0000
    1GR     C96   96   0.780   2.333   1.900  0.0000  0.0000  0.0000
    1GR     C97   97   0.425   2.456   1.900  0.0000  0.0000  0.0000
    1GR     C98   98   0.567   2.456   1.900  0.0000  0.0000  0.0000
    1GR     C99   99   0.638   2.579   1.900  0.0000  0.0000  0.0000
    1GR    C100  100   0.780   2.579   1.900  0.0000  0.0000  0.0000
    1GR    C101  101   0.425   2.702   1.900  0.0000  0.0000  0.0000
    1GR    C102  102   0.567   2.702   1.900  0.0000  0.0000  0.0000
    1GR    C103  103   0.638   2.824   1.900  0.0000  0.0000  0.0000
    1GR    C104  104   0.780   2.824   1.900  0.0000  0.0000  0.0000
    1GR    C105  105   0.425   2.947   1.900  0.0000  0.0000  0.0000
    1GR    C106  106   0.567   2.947   1.900  0.0000  0.0000  0.0000
    1GR    C107  107   0.638   3.070   1.900  0.0000  0.0000  0.0000
    1GR    C108  108   0.780   3.070   1.900  0.0000  0.0000  0.0000
    1GR    C109  109   0.425   3.193   1.900  0.0000  0.0000  0.0000
    1GR    C110  110   0.567   3.193   1.900  0.0000  0.0000  0.0000
    1GR    C111  111   0.638   3.316   1.900  0.0000  0.0000  0.0000
    1GR    C112  112   0.780   3.316   1.900  0.0000  0.0000  0.0000
    1GR    C113  113   0.851   0.000   1.900  0.0000  0.0000  0.0000
    1GR    C114  114   0.993   0.000   1.900  0.0000  0.0000  0.0000
    1GR    C115  115   1.064   0.123   1.900  0.0000  0.0000  0.0000
    1GR    C116  116   1.205   0.123   1.900  0.0000  0.0000  0.0000
    1GR    C117  117   0.851   0.246   1.900  0.0000  0.0000  0.0000
    1GR    C118  118   0.993   0.246   1.900  0.0000  0.0000  0.0000
    1GR    C119  119   1.064   0.368   1.900  0.0000  0.0000  0.0000
    1GR    C120  120   1.205   0.368   1.900  0.0000  0.0000  0.0000
    1GR    C121  121   0.851   0.491   1.900  0.0000  0.0000  0.0000
    1GR    C122  122   0.993   0.491   1.900  0.0000  0.0000  0.0000
    1GR    C123  123   1.064   0.614   1.900  0.0000  0.0000  0.0000
    1GR    C124  124   1.205   0.614   1.900  0.0000  0.0000  0.0000
    1GR    C125  125   0.851   0.737   1.900  0.0000  0.0000  0.0000
    1GR    C126  126   0.993   0.737   1.900  0.0000  0.0000  0.0000
    1GR    C127  127   1.064   0.860   1.900  0.0000  0.0000  0.0000
    1GR    C128  128   1.205   0.860   1.900  0.0000  0.0000  0.0000
    1GR    C129  129   0.851   0.982   1.900  0.0000  0.0000  0.0000
    1GR    C130  130   0.993   0.982   1.900  0.0000  0.0000  0.0000
    1GR    C131  131   1.064   1.105   1.900  0.0000  0.0000  0.0000
    1GR    C132  132   1.205   1.105   1.900  0.0000  0.0000  0.0000
    1GR    C133  133   0.851   1.228   1.900  0.0000  0.0000  0.0000
    1GR    C134  134   0.993   1.228   1.900  0.0000  0.0000  0.0000
    1GR    C135  135   1.064   1.351   1.900  0.0000  0.0000  0.0000
    1GR    C136  136   1.205   1.351   1.900  0.0000  0.0000  0.0000
    1GR    C137  137   0.851   1.474   1.900  0.0000  0.0000  0.0000
    1GR    C138  138   0.993   1.474   1.900  0.0000  0.0000  0.0000
    1GR    C139  139   1.064   1.596   1.900  0.0000  0.0000  0.0000
    1GR    C140  140   1.205   1.596   1.900  0.0000  0.0000  0.0000
    1GR    C141  141   0.851   1.719   1.900  0.0000  0.0000  0.0000
    1GR    C142  142   0.993   1.719   1.900  0.0000  0.0000  0.0000
    1GR    C143  143   1.064   1.842   1.900  0.0000  0.0000  0.0000
    1GR    C144  144   1.205   1.842   1.900  0.0000  0.0000  0.0000
    1GR    C145  145   0.851   1.965   1.900  0.0000  0.0000  0.0000
    1GR    C146  146   0.993   1.965   1.900  0.0000  0.0000  0.0000
    1GR    C147  147   1.064   2.088   1.900  0.0000  0.0000  0.0000
    1GR    C148  148   1.205   2.088   1.900  0.0000  0.0000  0.0000
    1GR    C149  149   0.851   2.210   1.900  0.0000  0.0000  0.0000
    1GR    C150  150   0.993   2.210   1.900  0.0000  0.0000  0.0000
    1GR    C151  151   1.064   2.333   1.900  0.0000  0.0000  0.0000
    1GR    C152  152   1.205   2.333   1.900  0.0000  0.0000  0.0000
    1GR    C153  153   0.851   2.456   1.900  0.0000  0.0000  0.0000
    1GR    C154  154   0.993   2.456   1.900  0.0000  0.0000  0.0000
    1GR    C155  155   1.064   2.579   1.900  0.0000  0.0000  0.0000
    1GR    C156  156   1.205   2.579   1.900  0.0000  0.0000  0.0000
    1GR    C157  157   0.851   2.702   1.900  0.0000  0.0000  0.0000
    1GR    C158  158   0.993   2.702   1.900  0.0000  0.0000  0.0000
    1GR    C159  159   1.064   2.824   1.900  0.0000  0.0000  0.0000
    1GR    C160  160   1.205   2.824   1.900  0.0000  0.0000  0.0000
    1GR    C161  161   0.851   2.947   1.900  0.0000  0.0000  0.0000
    1GR    C162  162   0.993   2.947   1.900  0.0000  0.0000  0.0000
    1GR    C163  163   1.064   3.070   1.900  0.0000  0.0000  0.0000
    1GR    C164  164   1.205   3.070   1.900  0.0000  0.0000  0.0000
    1GR    C165  165   0.851   3.193   1.900  0.0000  0.0000  0.0000
    1GR    C166  166   0.993   3.193   1.900  0.0000  0.0000  0.0000
    1GR    C167  167   1.064   3.316   1.900  0.0000  0.0000  0.0000
    1GR    C168  168   1.205   3.316   1.900  0.0000  0.0000  0.0000
    1GR    C169  169   1.276   0.000   1.900  0.0000  0.0000  0.0000
    1GR    C170  170   1.418   0.000   1.900  0.0000  0.0000  0.0000
    1GR    C171  171   1.489   0.123   1.900  0.0000  0.0000  0.0000
    1GR    C172  172   1.631   0.123   1.900  0.0000  0.0000  0.0000
    1GR    C173  173   1.276   0.246   1.900  0.0000  0.0000  0.0000
    1GR    C174  174   1.418   0.246   1.900  0.0000  0.0000  0.0000
    1GR    C175  175   1.489   0.368   1.900  0.0000  0.0000  0.0000
    1GR    C176  176   1.631   0.368   1.900  0.0000  0.0000  0.0000
    1GR    C177  177   1.276   0.491   1.900  0.0000  0.0000  0.0000
    1GR    C178  178   1.418   0.491   1.900  0.0000  0.0000  0.0000
    1GR    C179  179   1.489   0.614   1.900  0.0000  0.0000  0.0000
    1GR    C180  180   1.631   0.614   1.900  0.0000  0.0000  0.0000
    1GR    C181  181   1.276   0.737   1.900  0.0000  0.0000  0.0000
    1GR    C182  182   1.418   0.737   1.900  0.0000  0.0000  0.0000
    1GR    C183  183   1.489   0.860   1.900  0.0000  0.0000  0.0000
    1GR    C184  184   1.631   0.860   1.900  0.0000  0.0000  0.0000
    1GR    C185  185   1.276   0.982   1.900  0.0000  0.0000  0.0000
    1GR    C186  186   1.418   0.982   1.900  0.0000  0.0000  0.0000
    1GR    C187  187   1.489   1.105   1.900  0.0000  0.0000  0.0000
    1GR    C188  188   1.631   1.105   1.900  0.0000  0.0000  0.0000
    1GR    C189  189   1.276   1.228   1.900  0.0000  0.0000  0.0000
    1GR    C190  190   1.418   1.228   1.900  0.0000  0.0000  0.0000
    1GR    C191  191   1.489   1.351   1.900  0.0000  0.0000  0.0000
    1GR    C192  192   1.631   1.351   1.900  0.0000  0.0000  0.0000
    1GR    C193  193   1.276   1.474   1.900  0.0000  0.0000  0.0000
    1GR    C194  194   1.418   1.474   1.900  0.0000  0.0000  0.0000
    1GR    C195  195   1.489   1.596   1.900  0.0000  0.0000  0.0000
    1GR    C196  196   1.631   1.596   1.900  0.0000  0.0000  0.0000
    1GR    C197  197   1.276   1.719   1.900  0.0000  0.0000  0.0000
    1GR    C198  198   1.418   1.719   1.900  0.0000  0.0000  0.0000
    1GR    C199  199   1.489   1.842   1.900  0.0000  0.0000  0.0000
    1GR    C200  200   1.631   1.842   1.900  0.0000  0.0000  0.0000
    1GR    C201  201   1.276   1.965   1.900  0.0000  0.0000  0.0000
    1GR    C202  202   1.418   1.965   1.900  0.0000  0.0000  0.0000
    1GR    C203  203   1.489   2.088   1.900  0.0000  0.0000  0.0000
    1GR    C204  204   1.631   2.088   1.900  0.0000  0.0000  0.0000
    1GR    C205  205   1.276   2.210   1.900  0.0000  0.0000  0.0000
    1GR    C206  206   1.418   2.210   1.900  0.0000  0.0000  0.0000
    1GR    C207  207   1.489   2.333   1.900  0.0000  0.0000  0.0000
    1GR    C208  208   1.631   2.333   1.900  0.0000  0.0000  0.0000
    1GR    C209  209   1.276   2.456   1.900  0.0000  0.0000  0.0000
    1GR    C210  210   1.418   2.456   1.900  0.0000  0.0000  0.0000
    1GR    C211  211   1.489   2.579   1.900  0.0000  0.0000  0.0000
    1GR    C212  212   1.631   2.579   1.900  0.0000  0.0000  0.0000
    1GR    C213  213   1.276   2.702   1.900  0.0000  0.0000  0.0000
    1GR    C214  214   1.418   2.702   1.900  0.0000  0.0000  0.0000
    1GR    C215  215   1.489   2.824   1.900  0.0000  0.0000  0.0000
    1GR    C216  216   1.631   2.824   1.900  0.0000  0.0000  0.0000
    1GR    C217  217   1.276   2.947   1.900  0.0000  0.0000  0.0000
    1GR    C218  218   1.418   2.947   1.900  0.0000  0.0000  0.0000
    1GR    C219  219   1.489   3.070   1.900  0.0000  0.0000  0.0000
    1GR    C220  220   1.631   3.070   1.900  0.0000  0.0000  0.0000
    1GR    C221  221   1.276   3.193   1.900  0.0000  0.0000  0.0000
    1GR    C222  222   1.418   3.193   1.900  0.0000  0.0000  0.0000
    1GR    C223  223   1.489   3.316   1.900  0.0000  0.0000  0.0000
    1GR    C224  224   1.631   3.316   1.900  0.0000  0.0000  0.0000
    1GR    C225  225   1.702   0.000   1.900  0.0000  0.0000  0.0000
    1GR    C226  226   1.843   0.000   1.900  0.0000  0.0000  0.0000
    1GR    C227  227   1.914   0.123   1.900  0.0000  0.0000  0.0000
    1GR    C228  228   2.056   0.123   1.900  0.0000  0.0000  0.0000
    1GR    C229  229   1.702   0.246   1.900  0.0000  0.0000  0.0000
    1GR    C230  230   1.843   0.246   1.900  0.0000  0.0000  0.0000
    1GR    C231  231   1.914   0.368   1.900  0.0000  0.0000  0.0000
    1GR    C232  232   2.056   0.368   1.900  0.0000  0.0000  0.0000
    1GR    C233  233   1.702   0.491   1.900  0.0000  0.0000  0.0000
    1GR    C234  234   1.843   0.491   1.900  0.0000  0.0000  0.0000
    1GR    C235  235   1.914   0.614   1.900  0.0000  0.0000  0.0000
    1GR    C236  236   2.056   0.614   1.900  0.0000  0.0000  0.0000
    1GR    C237  237   1.702   0.737   1.900  0.0000  0.0000  0.0000
    1GR    C238  238   1.843   0.737   1.900  0.0000  0.0000  0.0000
    1GR    C239  239   1.914   0.860   1.900  0.0000  0.0000  0.0000
    1GR    C240  240   2.056   0.860   1.900  0.0000  0.0000  0.0000
    1GR    C241  241   1.702   0.982   1.900  0.0000  0.0000  0.0000
    1GR    C242  242   1.843   0.982   1.900  0.0000  0.0000  0.0000
    1GR    C243  243   1.914   1.105   1.900  0.0000  0.0000  0.0000
    1GR    C244  244   2.056   1.105   1.900  0.0000  0.0000  0.0000
    1GR    C245  245   1.702   1.228   1.900  0.0000  0.0000  0.0000
    1GR    C246  246   1.843   1.228   1.900  0.0000  0.0000  0.0000
    1GR    C247  247   1.914   1.351   1.900  0.0000  0.0000  0.0000
    1GR    C248  248   2.056   1.351   1.900  0.0000  0.0000  0.0000
    1GR    C249  249   1.702   1.474   1.900  0.0000  0.0000  0.0000
    1GR    C250  250   1.843   1.474   1.900  0.0000  0.0000  0.0000
    1GR    C251  251   1.914   1.596   1.900  0.0000  0.0000  0.0000
    1GR    C252  252   2.056   1.596   1.900  0.0000  0.0000  0.0000
    1GR    C253  253   1.702   1.719   1.900  0.0000  0.0000  0.0000
    1GR    C254  254   1.843   1.719   1.900  0.0000  0.0000  0.0000
    1GR    C255  255   1.914   1.842   1.900  0.0000  0.0000  0.0000
    1GR    C256  256   2.056   1.842   1.900  0.0000  0.0000  0.0000
    1GR    C257  257   1.702   1.965   1.900  0.0000  0.0000  0.0000
    1GR    C258  258   1.843   1.965   1.900  0.0000  0.0000  0.0000
    1GR    C259  259   1.914   2.088   1.900  0.0000  0.0000  0.0000
    1GR    C260  260   2.056   2.088   1.900  0.0000  0.0000  0.0000
    1GR    C261  261   1.702   2.210   1.900  0.0000  0.0000  0.0000
    1GR    C262  262   1.843   2.210   1.900  0.0000  0.0000  0.0000
    1GR    C263  263   1.914   2.333   1.900  0.0000  0.0000  0.0000
    1GR    C264  264   2.056   2.333   1.900  0.0000  0.0000  0.0000
    1GR    C265  265   1.702   2.456   1.900  0.0000  0.0000  0.0000
    1GR    C266  266   1.843   2.456   1.900  0.0000  0.0000  0.0000
    1GR    C267  267   1.914   2.579   1.900  0.0000  0.0000  0.0000
    1GR    C268  268   2.056   2.579   1.900  0.0000  0.0000  0.0000
    1GR    C269  269   1.702   2.702   1.900  0.0000  0.0000  0.0000
    1GR    C270  270   1.843   2.702   1.900  0.0000  0.0000  0.0000
    1GR    C271  271   1.914   2.824   1.900  0.0000  0.0000  0.0000
    1GR    C272  272   2.056   2.824   1.900  0.0000  0.0000  0.0000
    1GR    C273  273   1.702   2.947   1.900  0.0000  0.0000  0.0000
    1GR    C274  274   1.843   2.947   1.900  0.0000  0.0000  0.0000
    1GR    C275  275   1.914   3.070   1.900  0.0000  0.0000  0.0000
    1GR    C276  276   2.056   3.070   1.900  0.0000  0.0000  0.0000
    1GR    C277  277   1.702   3.193   1.900  0.0000  0.0000  0.0000
    1GR    C278  278   1.843   3.193   1.900  0.0000  0.0000  0.0000
    1GR    C279  279   1.914   3.316   1.900  0.0000  0.0000  0.0000
    1GR    C280  280   2.056   3.316   1.900  0.0000  0.0000  0.0000
    1GR    C281  281   2.127   0.000   1.900  0.0000  0.0000  0.0000
    1GR    C282  282   2.269   0.000   1.900  0.0000  0.0000  0.0000
    1GR    C283  283   2.340   0.123   1.900  0.0000  0.0000  0.0000
    1GR    C284  284   2.481   0.123   1.900  0.0000  0.0000  0.0000
    1GR    C285  285   2.127   0.246   1.900  0.0000  0.0000  0.0000
    1GR    C286  286   2.269   0.246   1.900  0.0000  0.0000  0.0000
    1GR    C287  287   2.340   0.368   1.900  0.0000  0.0000  0.0000
    1GR    C288  288   2.481   0.368   1.900  0.0000  0.0000  0.0000
    1GR    C289  289   2.127   0.491   1.900  0.0000  0.0000  0.0000
    1GR    C290  290   2.269   0.491   1.900  0.0000  0.0000  0.0000
    1GR    C291  291   2.340   0.614   1.900  0.0000  0.0000  0.0000
    1GR    C292  292   2.481   0.614   1.900  0.0000  0.0000  0.0000
    1GR    C293  293   2.127   0.737   1.900  0.0000  0.0000  0.0000
    1GR    C294  294   2.269   0.737   1.900  0.0000  0.0000  0.0000
    1GR    C295  295   2.340   0.860   1.900  0.0000  0.0000  0.0000
    1GR    C296  296   2.481   0.860   1.900  0.0000  0.0000  0.0000
    1GR    C297  297   2.127   0.982   1.900  0.0000  0.0000  0.0000
    1GR    C298  298   2.269   0.982   1.900  0.0000  0.0000  0.0000
    1GR    C299  299   2.340   1.105   1.900  0.0000  0.0000  0.0000
    1GR    C300  300   2.481   1.105   1.900  0.0000  0.0000  0.0000
    1GR    C301  301   2.127   1.228   1.900  0.0000  0.0000  0.0000
    1GR    C302  302   2.269   1.228   1.900  0.0000  0.0000  0.0000
    1GR    C303  303   2.340   1.351   1.900  0.0000  0.0000  0.0000
    1GR    C304  304   2.481   1.351   1.900  0.0000  0.0000  0.0000
    1GR    C305  305   2.127   1.474   1.900  0.0000  0.0000  0.0000
    1GR    C306  306   2.269   1.474   1.900  0.0000  0.0000  0.0000
    1GR    C307  307   2.340   1.596   1.900  0.0000  0.0000  0.0000
    1GR    C308  308   2.481   1.596   1.900  0.0000  0.0000  0.0000
    1GR    C309  309   2.127   1.719   1.900  0.0000  0.0000  0.0000
    1GR    C310  310   2.269   1.719   1.900  0.0000  0.0000  0.0000
    1GR    C311  311   2.340   1.842   1.900  0.0000  0.0000  0.0000
    1GR    C312  312   2.481   1.842   1.900  0.0000  0.0000  0.0000
    1GR    C313  313   2.127   1.965   1.900  0.0000  0.0000  0.0000
    1GR    C314  314   2.269   1.965   1.900  0.0000  0.0000  0.0000
    1GR    C315  315   2.340   2.088   1.900  0.0000  0.0000  0.0000
    1GR    C316  316   2.481   2.088   1.900  0.0000  0.0000  0.0000
    1GR    C317  317   2.127   2.210   1.900  0.0000  0.0000  0.0000
    1GR    C318  318   2.269   2.210   1.900  0.0000  0.0000  0.0000
    1GR    C319  319   2.340   2.333   1.900  0.0000  0.0000  0.0000
    1GR    C320  320   2.481   2.333   1.900  0.0000  0.0000  0.0000
    1GR    C321  321   2.127   2.456   1.900  0.0000  0.0000  0.0000
    1GR    C322  322   2.269   2.456   1.900  0.0000  0.0000  0.0000
    1GR    C323  323   2.340   2.579   1.900  0.0000  0.0000  0.0000
    1GR    C324  324   2.481   2.579   1.900  0.0000  0.0000  0.0000
    1GR    C325  325   2.127   2.702   1.900  0.0000  0.0000  0.0000
    1GR    C326  326   2.269   2.702   1.900  0.0000  0.0000  0.0000
    1GR    C327  327   2.340   2.824   1.900  0.0000  0.0000  0.0000
    1GR    C328  328   2.481   2.824   1.900  0.0000  0.0000  0.0000
    1GR    C329  329   2.127   2.947   1.900  0.0000  0.0000  0.0000
    1GR    C330  330   2.269   2.947   1.900  0.0000  0.0000  0.0000
    1GR    C331  331   2.340   3.070   1.900  0.0000  0.0000  0.0000
    1GR    C332  332   2.481   3.070   1.900  0.0000  0.0000  0.0000
    1GR    C333  333   2.127   3.193   1.900  0.0000  0.0000  0.0000
    1GR    C334  334   2.269   3.193   1.900  0.0000  0.0000  0.0000
    1GR    C335  335   2.340   3.316   1.900  0.0000  0.0000  0.0000
    1GR    C336  336   2.481   3.316   1.900  0.0000  0.0000  0.0000
    1GR    C337  337   2.552   0.000   1.900  0.0000  0.0000  0.0000
    1GR    C338  338   2.694   0.000   1.900  0.0000  0.0000  0.0000
    1GR    C339  339   2.765   0.123   1.900  0.0000  0.0000  0.0000
    1GR    C340  340   2.907   0.123   1.900  0.0000  0.0000  0.0000
    1GR    C341  341   2.552   0.246   1.900  0.0000  0.0000  0.0000
    1GR    C342  342   2.694   0.246   1.900  0.0000  0.0000  0.0000
    1GR    C343  343   2.765   0.368   1.900  0.0000  0.0000  0.0000
    1GR    C344  344   2.907   0.368   1.900  0.0000  0.0000  0.0000
    1GR    C345  345   2.552   0.491   1.900  0.0000  0.0000  0.0000
    1GR    C346  346   2.694   0.491   1.900  0.0000  0.0000  0.0000
    1GR    C347  347   2.765   0.614   1.900  0.0000  0.0000  0.0000
    1GR    C348  348   2.907   0.614   1.900  0.0000  0.0000  0.0000
    1GR    C349  349   2.552   0.737   1.900  0.0000  0.0000  0.0000
    1GR    C350  350   2.694   0.737   1.900  0.0000  0.0000  0.0000
    1GR    C351  351   2.765   0.860   1.900  0.0000  0.0000  0.0000
    1GR    C352  352   2.907   0.860   1.900  0.0000  0.0000  0.0000
    1GR    C353  353   2.552   0.982   1.900  0.0000  0.0000  0.0000
    1GR    C354  354   2.694   0.982   1.900  0.0000  0.0000  0.0000
    1GR    C355  355   2.765   1.105   1.900  0.0000  0.0000  0.0000
    1GR    C356  356   2.907   1.105   1.900  0.0000  0.0000  0.0000
    1GR    C357  357   2.552   1.228   1.900  0.0000  0.0000  0.0000
    1GR    C358  358   2.694   1.228   1.900  0.0000  0.0000  0.0000
    1GR    C359  359   2.765   1.351   1.900  0.0000  0.0000  0.0000
    1GR    C360  360   2.907   1.351   1.900  0.0000  0.0000  0.0000
    1GR    C361  361   2.552   1.474   1.900  0.0000  0.0000  0.0000
    1GR    C362  362   2.694   1.474   1.900  0.0000  0.0000  0.0000
    1GR    C363  363   2.765   1.596   1.900  0.0000  0.0000  0.0000
    1GR    C364  364   2.907   1.596   1.900  0.0000  0.0000  0.0000
    1GR    C365  365   2.552   1.719   1.900  0.0000  0.0000  0.0000
    1GR    C366  366   2.694   1.719   1.900  0.0000  0.0000  0.0000
    1GR    C367  367   2.765   1.842   1.900  0.0000  0.0000  0.0000
    1GR    C368  368   2.907   1.842   1.900  0.0000  0.0000  0.0000
    1GR    C369  369   2.552   1.965   1.900  0.0000  0.0000  0.0000
    1GR    C370  370   2.694   1.965   1.900  0.0000  0.0000  0.0000
    1GR    C371  371   2.765   2.088   1.900  0.0000  0.0000  0.0000
    1GR    C372  372   2.907   2.088   1.900  0.0000  0.0000  0.0000
    1GR    C373  373   2.552   2.210   1.900  0.0000  0.0000  0.0000
    1GR    C374  374   2.694   2.210   1.900  0.0000  0.0000  0.0000
    1GR    C375  375   2.765   2.333   1.900  0.0000  0.0000  0.0000
    1GR    C376  376   2.907   2.333   1.900  0.0000  0.0000  0.0000
    1GR    C377  377   2.552   2.456   1.900  0.0000  0.0000  0.0000
    1GR    C378  378   2.694   2.456   1.900  0.0000  0.0000  0.0000
    1GR    C379  379   2.765   2.579   1.900  0.0000  0.0000  0.0000
    1GR    C380  380   2.907   2.579   1.900  0.0000  0.0000  0.0000
    1GR    C381  381   2.552   2.702   1.900  0.0000  0.0000  0.0000
    1GR    C382  382   2.694   2.702   1.900  0.0000  0.0000  0.0000
    1GR    C383  383   2.765   2.824   1.900  0.0000  0.0000  0.0000
    1GR    C384  384   2.907   2.824   1.900  0.0000  0.0000  0.0000
    1GR    C385  385   2.552   2.947   1.900  0.0000  0.0000  0.0000
    1GR    C386  386   2.694   2.947   1.900  0.0000  0.0000  0.0000
    1GR    C387  387   2.765   3.070   1.900  0.0000  0.0000  0.0000
    1GR    C388  388   2.907   3.070   1.900  0.0000  0.0000  0.0000
    1GR    C389  389   2.552   3.193   1.900  0.0000  0.0000  0.0000
    1GR    C390  390   2.694   3.193   1.900  0.0000  0.0000  0.0000
    1GR    C391  391   2.765   3.316   1.900  0.0000  0.0000  0.0000
    1GR    C392  392   2.907   3.316   1.900  0.0000  0.0000  0.0000
    1GR    C393  393   2.978   0.000   1.900  0.0000  0.0000  0.0000
    1GR    C394  394   3.120   0.000   1.900  0.0000  0.0000  0.0000
    1GR    C395  395   3.191   0.123   1.900  0.0000  0.0000  0.0000
    1GR    C396  396   3.332   0.123   1.900  0.0000  0.0000  0.0000
    1GR    C397  397   2.978   0.246   1.900  0.0000  0.0000  0.0000
    1GR    C398  398   3.120   0.246   1.900  0.0000  0.0000  0.0000
    1GR    C399  399   3.191   0.368   1.900  0.0000  0.0000  0.0000
    1GR    C400  400   3.332   0.368   1.900  0.0000  0.0000  0.0000
    1GR    C401  401   2.978   0.491   1.900  0.0000  0.0000  0.0000
    1GR    C402  402   3.120   0.491   1.900  0.0000  0.0000  0.0000
    1GR    C403  403   3.191   0.614   1.900  0.0000  0.0000  0.0000
    1GR    C404  404   3.332   0.614   1.900  0.0000  0.0000  0.0000
    1GR    C405  405   2.978   0.737   1.900  0.0000  0.0000  0.0000
    1GR    C406  406   3.120   0.737   1.900  0.0000  0.0000  0.0000
    1GR    C407  407   3.191   0.860   1.900  0.0000  0.0000  0.0000
    1GR    C408  408   3.332   0.860   1.900  0.0000  0.0000  0.0000
    1GR    C409  409   2.978   0.982   1.900  0.0000  0.0000  0.0000
    1GR    C410  410   3.120   0.982   1.900  0.0000  0.0000  0.0000
    1GR    C411  411   3.191   1.105   1.900  0.0000  0.0000  0.0000
    1GR    C412  412   3.332   1.105   1.900  0.0000  0.0000  0.0000
    1GR    C413  413   2.978   1.228   1.900  0.0000  0.0000  0.0000
    1GR    C414  414   3.120   1.228   1.900  0.0000  0.0000  0.0000
    1GR    C415  415   3.191   1.351   1.900  0.0000  0.0000  0.0000
    1GR    C416  416   3.332   1.351   1.900  0.0000  0.0000  0.0000
    1GR    C417  417   2.978   1.474   1.900  0.0000  0.0000  0.0000
    1GR    C418  418   3.120   1.474   1.900  0.0000  0.0000  0.0000
    1GR    C419  419   3.191   1.596   1.900  0.0000  0.0000  0.0000
    1GR    C420  420   3.332   1.596   1.900  0.0000  0.0000  0.0000
    1GR    C421  421   2.978   1.719   1.900  0.0000  0.0000  0.0000
    1GR    C422  422   3.120   1.719   1.900  0.0000  0.0000  0.0000
    1GR    C423  423   3.191   1.842   1.900  0.0000  0.0000  0.0000
    1GR    C424  424   3.332   1.842   1.900  0.0000  0.0000  0.0000
    1GR    C425  425   2.978   1.965   1.900  0.0000  0.0000  0.0000
    1GR    C426  426   3.120   1.965   1.900  0.0000  0.0000  0.0000
    1GR    C427  427   3.191   2.088   1.900  0.0000  0.0000  0.0000
    1GR    C428  428   3.332   2.088   1.900  0.0000  0.0000  0.0000
    1GR    C429  429   2.978   2.210   1.900  0.0000  0.0000  0.0000
    1GR    C430  430   3.120   2.210   1.900  0.0000  0.0000  0.0000
    1GR    C431  431   3.191   2.333   1.900  0.0000  0.0000  0.0000
    1GR    C432  432   3.332   2.333   1.900  0.0000  0.0000  0.0000
    1GR    C433  433   2.978   2.456   1.900  0.0000  0.0000  0.0000
    1GR    C434  434   3.120   2.456   1.900  0.0000  0.0000  0.0000
    1GR    C435  435   3.191   2.579   1.900  0.0000  0.0000  0.0000
    1GR    C436  436   3.332   2.579   1.900  0.0000  0.0000  0.0000
    1GR    C437  437   2.978   2.702   1.900  0.0000  0.0000  0.0000
    1GR    C438  438   3.120   2.702   1.900  0.0000  0.0000  0.0000
    1GR    C439  439   3.191   2.824   1.900  0.0000  0.0000  0.0000
    1GR    C440  440   3.332   2.824   1.900  0.0000  0.0000  0.0000
    1GR    C441  441   2.978   2.947   1.900  0.0000  0.0000  0.0000
    1GR    C442  442   3.120   2.947   1.900  0.0000  0.0000  0.0000
    1GR    C443  443   3.191   3.070   1.900  0.0000  0.0000  0.0000
    1GR    C444  444   3.332   3.070   1.900  0.0000  0.0000  0.0000
    1GR    C445  445   2.978   3.193   1.900  0.0000  0.0000  0.0000
    1GR    C446  446   3.120   3.193   1.900  0.0000  0.0000  0.0000
    1GR    C447  447   3.191   3.316   1.900  0.0000  0.0000  0.0000
    1GR    C448  448   3.332   3.316   1.900  0.0000  0.0000  0.0000
    2PMMA   CX1  449   1.308   1.624   3.012 -1.0159 -0.2732  0.3416
    2PMMA   CA2  450   1.451   1.562   3.017  0.6097  0.2615  0.0258
    2PMMA   CX3  451   1.546   1.680   3.045  0.2685 -0.5966  0.9957
    2PMMA    C4  452   1.445   1.458   3.133 -0.2621 -0.3159 -0.0104
    2PMMA    O5  453   1.361   1.371   3.145  0.4407  0.1483  0.4463
    2PMMA   OS6  454   1.544   1.478   3.223 -0.1091  0.5849 -0.0401
    2PMMA   CE7  455   1.559   1.391   3.333  0.1670 -0.3380  0.0587
    2PMMA   CX8  456   1.463   1.482   2.880 -0.4482 -0.2196  0.0281
    2PMMA   CA9  457   1.599   1.415   2.836  0.4524 -0.3351 -1.5734
    2PMMA  CX10  458   1.689   1.536   2.783  0.2668 -0.2314  0.2341
    2PMMA   C11  459   1.551   1.322   2.716  0.1431  0.7976 -0.4369
    2PMMA   O12  460   1.587   1.332   2.601 -0.1051  0.2028 -0.7854
    2PMMA  OS13  461   1.487   1.206   2.760  0.2976  0.2638  0.3644
    2PMMA  CE14  462   1.445   1.114   2.671  0.3768 -0.0835 -0.6155
    2PMMA  CX15  463   1.675   1.349   2.952 -0.5523  0.8844  0.5347
    2PMMA  CA16  464   1.794   1.246   2.933 -0.3212  0.2285  0.6831
    2PMMA  CX17  465   1.852   1.250   3.074  0.8140 -0.3438  0.1596
    2PMMA   C18  466   1.732   1.106   2.912  0.3335  0.2350  0.7691
    2PMMA   O19  467   1.693   1.032   3.002  0.5637  0.7626  0.0361
    2PMMA  OS20  468   1.728   1.072   2.780 -0.5392  0.2551  0.0791
    2PMMA  CE21  469   1.713   0.936   2.747  0.2233  0.3985  0.6880
    2PMMA  CX22  470   1.904   1.282   2.824  0.2161 -0.2170  0.3364
    2PMMA  CA23  471   2.045   1.225   2.823 -0.9192  0.6172  0.4383
    2PMMA  CX24  472   2.046   1.069   2.804 -0.4562  0.0653 -0.0889
    2PMMA   C25  473   2.131   1.285   2.936 -0.5106  0.0773  0.1098
    2PMMA   O26  474   2.127   1.401   2.965  0.7367 -0.1761  0.1778
    2PMMA  OS27  475   2.229   1.197   2.981  1.0972  0.1355  0.4687
    2PMMA  CE28  476   2.324   1.238   3.078  0.2075  0.1597  0.4981
    2PMMA  CX29  477   2.128   1.266   2.698 -0.9799  0.1604  0.2286
    2PMMA  HC30  478   1.221   1.557   3.013 -1.9607  0.9131 -0.8770
    2PMMA  HC31  479   1.297   1.680   3.105  1.2450 -0.0889  0.5212
    2PMMA  HC32  480   1.289   1.695   2.931  1.6395 -1.4098 -1.3536
    2PMMA  HC33  481   1.649   1.654   3.074  0.1041 -1.1460  1.0954
    2PMMA  HC34  482   1.509   1.728   3.137  0.7417 -0.1639  0.9660
    2PMMA  HC35  483   1.561   1.753   2.965 -2.7796 -1.2283 -0.2267
    2PMMA  H136  484   1.576   1.288   3.302  0.6739 -1.4854  3.9484
    2PMMA  H137  485   1.469   1.389   3.394 -0.2356  0.5205 -0.4992
    2PMMA  H138  486   1.652   1.422   3.383  0.4168  0.1733 -0.7108
    2PMMA  HC39  487   1.407   1.389   2.895  2.2910 -2.0862 -1.0668
    2PMMA  HC40  488   1.408   1.530   2.798  2.2814  1.2398 -1.0102
    2PMMA  HC41  489   1.625   1.606   2.728  1.9566  0.4087 -0.9907
    2PMMA  HC42  490   1.751   1.590   2.856  0.6827 -1.7260  0.9966
    2PMMA  HC43  491   1.762   1.504   2.708 -1.5055 -0.8374 -1.2615
    2PMMA  H144  492   1.406   1.026   2.723  0.3503 -0.8391 -1.8771
    2PMMA  H145  493   1.514   1.075   2.596 -0.8448 -3.3080 -0.1782
    2PMMA  H146  494   1.358   1.159   2.621  0.0592 -0.1077 -0.0866
    2PMMA  HC47  495   1.705   1.429   3.021 -0.2414  0.2019  1.1951
    2PMMA  HC48  496   1.606   1.296   3.018  2.5151  0.5713  3.6200
    2PMMA  HC49  497   1.887   1.349   3.105  2.9535 -1.0734  0.1648
    2PMMA  HC50  498   1.929   1.173   3.086 -0.0757 -1.5388 -1.5908
    2PMMA  HC51  499   1.784   1.217   3.153  0.5817  0.1912  0.1844
    2PMMA  H152  500   1.614   0.899   2.773 -0.4685 -0.2973 -2.6890
    2PMMA  H153  501   1.788   0.876   2.798 -0.9114 -1.2641  0.4385
    2PMMA  H154  502   1.723   0.925   2.638 -0.2161  3.5561  0.2550
    2PMMA  HC55  503   1.861   1.251   2.728 -4.0720  2.0661  1.3846
    2PMMA  HC56  504   1.912   1.391   2.825 -0.1387 -0.1869  0.1389
    2PMMA  HC57  505   1.991   1.045   2.713  0.0342 -1.5117  0.0328
    2PMMA  HC58  506   2.146   1.027   2.794  0.6443  2.3511  0.7314
    2PMMA  HC59  507   1.995   1.026   2.891  0.7077 -1.8040 -0.3066
    2PMMA  H160  508   2.275   1.259   3.174 -0.8020  3.5065 -0.6637
    2PMMA  H161  509   2.367   1.334   3.049  1.9744 -0.3228  1.4416
    2PMMA  H162  510   2.400   1.160   3.075 -0.2660 -0.2654 -0.5003
    2PMMA  HC63  511   2.227   1.220   2.710 -0.4002  1.4702  0.5126
    2PMMA  HC64  512   2.081   1.243   2.602 -1.4358  0.9190  0.2701
    2PMMA  HC65  513   2.146   1.373   2.689  1.7336 -0.1897  1.0384
    3HFI     O1  514   2.899   1.701   0.439 -0.3413  0.3972  0.0044
    3HFI     C1  515   2.995   1.704   0.552 -0.2324 -0.1665 -1.0698
    3HFI     C2  516   2.916   1.693   0.686 -0.2008 -0.2689 -0.1174
    3HFI     F1  517   2.994   1.633   0.780 -0.0205 -0.0993  0.2747
    3HFI     F2  518   2.812   1.614   0.674  0.2367  0.3428  0.6064
    3HFI     F3  519   2.894   1.822   0.735  0.1198 -0.1013  0.2061
    3HFI     C3  520   3.107   1.814   0.542 -0.0173  0.1047 -0.2877
    3HFI     F4  521   3.063   1.937   0.545  0.3152 -0.5262  0.7546
    3HFI     F5  522   3.164   1.797   0.421 -0.3965  0.5578 -0.3332
    3HFI     F6  523   3.206   1.794   0.633 -0.1939 -0.3517  0.3793
    3HFI     H1  524   2.894   1.798   0.427  1.0780  0.6875  1.5732
    3HFI     H2  525   3.051   1.610   0.554 -0.3589 -0.2272  1.7730
    4HFI     O1  526   3.195   1.538   1.007 -0.1342  0.1950  0.3326
    4HFI     C1  527   3.271   1.427   0.948 -0.2687 -0.0958 -0.4898
    4HFI     C2  528   3.258   1.437   0.797 -0.5848  0.2563 -0.0030
    4HFI     F1  529   3.346   1.360   0.732  0.1214 -0.3021 -0.0945
    4HFI     F2  530   3.285   1.559   0.756  0.0513  0.6019 -0.4172
    4HFI     F3  531   3.139   1.415   0.746 -0.2966 -0.3715  0.2055
    4HFI     C3  532   3.219   1.289   0.995  0.1706 -0.0915  0.1004
    4HFI     F4  533   3.085   1.289   1.006  0.1277  0.2024 -0.1162
    4HFI     F5  534   3.263   1.266   1.116  0.3019 -0.8349 -0.7750
    4HFI     F6  535   3.255   1.179   0.926  0.4794  0.0792 -0.0590
    4HFI     H1  536   3.199   1.624   0.963  0.4497  0.0953  0.1930
    4HFI     H2  537   3.380   1.437   0.960 -0.4732 -0.9979  2.6785
    5HFI     O1  538   1.131   1.130   0.336  0.6487  0.2628 -0.1285
    5HFI     C1  539   1.009   1.118   0.250 -0.2574  0.1779 -0.3415
    5HFI     C2  540   0.881   1.090   0.321  0.3359  0.0875 -0.1940
    5HFI     F1  541   0.775   1.125   0.239 -0.0678  0.2631 -0.1199
    5HFI     F2  542   0.878   1.171   0.424  0.2331  0.0088  0.0986
    5HFI     F3  543   0.874   0.961   0.358  0.1503  0.4859  0.2660
    5HFI     C3  544   1.025   1.013   0.134 -0.0807 -0.0928  0.1591
    5HFI     F4  545   1.127   1.046   0.049 -0.5172  0.4209 -0.1769
    5HFI     F5  546   0.910   1.006   0.050 -0.3883  0.1700  0.3323
    5HFI     F6  547   1.059   0.894   0.183  0.0042  0.0181  0.1068
    5HFI     H1  548   1.158   1.039   0.357  0.7928  0.2776 -0.2572
    5HFI     H2  549   0.990   1.211   0.197  1.8393  0.9067  0.1123
    6HFI     O1  550   2.626   1.081   0.135 -0.2670 -0.6088  0.2908
    6HFI     C1  551   2.764   1.044   0.155 -0.0200 -0.5595  0.2618
    6HFI     C2  552   2.840   1.021   0.017  0.1561 -0.3013 -0.2056
    6HFI     F1  553   2.808   1.129  -0.066 -0.2156  0.4581  0.2813
    6HFI     F2  554   2.794   0.910  -0.047 -0.0880 -0.3928  0.1282
    6HFI     F3  555   2.969   1.015   0.031  0.1817  0.4174 -0.2975
    6HFI     C3  556   2.781   0.925   0.243  0.0973  0.0894  0.1422
    6HFI     F4  557   2.777   0.961   0.364  0.0153 -0.1513  0.1234
    6HFI     F5  558   2.901   0.868   0.233 -0.2217 -0.1711  0.7597
    6HFI     F6  559   2.683   0.840   0.215  0.2281 -0.4806  0.1977
    6HFI     H1  560   2.593   1.132   0.211 -0.5932  1.3184 -1.0963
    6HFI     H2  561   2.824   1.121   0.206  1.2586 -2.2539  1.3656
    7HFI     O1  562   0.090   2.709   0.343 -0.0961  0.1814  0.2781
    7HFI     C1  563   0.235   2.763   0.347 -0.0169 -0.6702  0.5088
    7HFI     C2  564   0.349   2.654   0.295  0.0549 -0.0270  0.7961
    7HFI     F1  565   0.272   2.553   0.253 -0.5764 -0.3974 -0.1056
    7HFI     F2  566   0.430   2.616   0.388 -0.3291 -0.1487 -0.4535
    7HFI     F3  567   0.420   2.689   0.188 -0.0533  0.7087 -0.1049
    7HFI     C3  568   0.276   2.835   0.478 -0.6721 -0.3926 -0.2958
    7HFI     F4  569   0.261   2.740   0.575 -0.5701  0.3043 -0.0828
    7HFI     F5  570   0.202   2.947   0.494  0.3476 -0.0359 -0.7536
    7HFI     F6  571   0.402   2.875   0.490 -0.4610 -0.3370 -0.1906
    7HFI     H1  572   0.102   2.614   0.359  1.1376  0.1295 -0.9137
    7HFI     H2  573   0.231   2.846   0.276  0.8409  0.4346  1.7531
    8HFI     O1  574   2.074   2.001   1.240 -0.2930 -0.4356 -0.0475
    8HFI     C1  575   2.107   1.974   1.379 -0.0190 -0.4191 -0.3374
    8HFI     C2  576   2.224   1.866   1.392 -0.4413  0.3474  0.1788
    8HFI     F1  577   2.343   1.916   1.345 -0.2456 -0.4447 -0.5008
    8HFI     F2  578   2.202   1.752   1.330  0.1272 -0.1313 -0.7356
    8HFI     F3  579   2.250   1.846   1.521  0.0713 -0.2594 -0.0675
    8HFI     C3  580   1.982   1.950   1.464  0.2346 -0.2093  0.1973
    8HFI     F4  581   1.902   2.057   1.444  0.4621 -0.0973 -0.1007
    8HFI     F5  582   2.006   1.938   1.600 -0.2394 -0.1722  0.1923
    8HFI     F6  583   1.912   1.835   1.425  0.1040  0.4322  0.0815
    8HFI     H1  584   2.016   1.929   1.211 -1.4523 -0.5645  2.4529
    8HFI     H2  585   2.152   2.067   1.415 -0.3418  0.6832 -2.7074
    9HFI     O1  586   1.639   0.183   1.569  0.1005  0.1643 -0.6098
    9HFI     C1  587   1.545   0.085   1.512 -0.2991  0.9682 -0.0500
    9HFI     C2  588   1.601  -0.010   1.401  0.0360 -0.3240 -0.6067
    9HFI     F1  589   1.615   0.041   1.276  0.1611  0.5732  0.2435
    9HFI     F2  590   1.516  -0.112   1.396  0.4625 -0.0632  0.0596
    9HFI     F3  591   1.717  -0.060   1.437  0.1927 -0.2967 -0.2500
    9HFI     C3  592   1.405   0.158   1.473  0.1515  0.3367 -0.0096
    9HFI     F4  593   1.316   0.061   1.440 -0.0632 -0.4080 -0.4890
    9HFI     F5  594   1.422   0.245   1.363  0.0960  0.1618 -0.9340
    9HFI     F6  595   1.356   0.222   1.580  0.3084 -0.2561  0.3364
    9HFI     H1  596   1.628   0.267   1.521 -0.5193 -0.2566 -1.2240
    9HFI     H2  597   1.515   0.018   1.594 -0.1877 -1.6226 -2.0531
   10HFI     O1  598   3.391   2.090   3.710 -0.1328  0.7113  0.2455
   10HFI     C1  599   3.511   2.119   3.794  0.1116  0.6314 -0.1250
   10HFI     C2  600   3.635   2.164   3.711 -0.5308  0.7040 -0.5470
   10HFI     F1  601   3.735   2.193   3.799  0.0173  0.1113  0.0616
   10HFI     F2  602   3.606   2.278   3.642  0.4451  0.1248  0.2357
   10HFI     F3  603   3.672   2.073   3.618  0.2673  0.4047 -0.3374
   10HFI     C3  604   3.543   1.998   3.893 -0.4049 -0.2376  0.4065
   10HFI     F4  605   3.615   1.905   3.825  0.0352  0.2923  0.4653
   10HFI     F5  606   3.426   1.945   3.940  0.2807 -0.3757 -0.2742
   10HFI     F6  607   3.616   2.043   3.999  0.0172 -0.3263 -0.0841
   10HFI     H1  608   3.361   2.176   3.675 -1.4766  0.2817  0.2937
   10HFI     H2  609   3.488   2.194   3.870 -0.2774 -0.4902  0.8930
   11HFI     O1  610   2.290   0.941   0.873 -0.0505 -0.1991  0.2346
   11HFI     C1  611   2.229   0.892   0.995  0.2827  0.4412 -0.1970
   11HFI     C2  612   2.314   0.950   1.113 -0.0899 -0.1401  0.0601
   11HFI     F1  613   2.350   1.082   1.089 -0.1507  0.0859 -0.1812
   11HFI     F2  614   2.430   0.885   1.134 -0.1042  0.1262 -0.2769
   11HFI     F3  615   2.254   0.943   1.225  0.7008 -0.4422 -0.1062
   11HFI     C3  616   2.222   0.738   0.985 -0.3183 -0.0216  0.1299
   11HFI     F4  617   2.179   0.683   1.095 -0.2729 -0.1860  0.6843
   11HFI     F5  618   2.349   0.690   0.963 -0.0748 -0.0023  0.2541
   11HFI     F6  619   2.151   0.696   0.879 -0.1120  0.7497 -0.0385
   11HFI     H1  620   2.367   0.882   0.860  0.4291  0.7608 -1.4413
   11HFI     H2  621   2.125   0.922   1.013  0.2905 -0.7426  1.9930
   12HFI     O1  622   0.020   1.959   1.109  0.1739  0.3869 -0.8571
   12HFI     C1  623  -0.047   2.018   0.989 -0.1207 -0.1616  0.3454
   12HFI     C2  624  -0.045   2.179   0.990 -0.2051  0.5184 -0.6872
   12HFI     F1  625  -0.126   2.234   1.082 -0.4737  0.3972 -0.4648
   12HFI     F2  626  -0.076   2.236   0.866 -0.4316  0.1260  0.2079
   12HFI     F3  627   0.083   2.225   1.018 -0.4969  0.6857  0.2663
   12HFI     C3  628  -0.193   1.954   0.977  0.7169 -0.6311  0.3658
   12HFI     F4  629  -0.270   2.001   0.873 -0.1026  0.3790  0.1830
   12HFI     F5  630  -0.266   1.979   1.091 -0.0792 -0.1109  0.1658
   12HFI     F6  631  -0.178   1.826   0.963 -0.5314 -0.5688 -0.1715
   12HFI     H1  632   0.088   2.015   1.151  1.0693 -1.0688 -0.3222
   12HFI     H2  633  -0.001   1.989   0.894 -1.7315  0.6157 -0.6941
   13HFI     O1  634   1.507   0.203   1.030 -0.2253  0.8695  0.1301
   13HFI     C1  635   1.365   0.192   0.997  0.3603 -0.0355 -0.1390
   13HFI     C2  636   1.302   0.053   1.031 -0.0966 -0.2045  0.2500
   13HFI     F1  637   1.174   0.057   1.005  0.1592  0.9985 -0.0463
   13HFI     F2  638   1.301   0.029   1.159  0.0925 -0.5349  0.0740
   13HFI     F3  639   1.369  -0.049   0.969  0.2719  0.3391 -0.5933
   13HFI     C3  640   1.327   0.243   0.864 -0.0436  0.0090 -0.0687
   13HFI     F4  641   1.198   0.272   0.860  0.3049 -0.2759 -0.2597
   13HFI     F5  642   1.347   0.155   0.771 -0.6187  0.8897  0.1092
   13HFI     F6  643   1.394   0.347   0.824  0.2123 -0.2635 -0.2336
   13HFI     H1  644   1.548   0.141   0.968 -2.7469 -0.3223 -0.4140
   13HFI     H2  645   1.321   0.252   1.077  1.3905  0.0638  0.3665
   14HFI     O1  646   1.302   1.816   0.390 -0.8012 -0.0892  0.0633
   14HFI     C1  647   1.367   1.865   0.510  0.3128 -0.0335 -0.2569
   14HFI     C2  648   1.336   2.014   0.535  0.3723  0.3253 -0.1626
   14HFI     F1  649   1.367   2.043   0.663 -0.3089 -0.1651  0.6253
   14HFI     F2  650   1.211   2.047   0.511 -0.2619 -0.3056  0.0751
   14HFI     F3  651   1.418   2.095   0.456 -0.1121  0.2071 -0.1630
   14HFI     C3  652   1.524   1.825   0.516 -0.1742  0.1624  1.0683
   14HFI     F4  653   1.536   1.689   0.537  0.1396  0.3992  0.1530
   14HFI     F5  654   1.575   1.876   0.628 -0.0426  0.2058 -0.1890
   14HFI     F6  655   1.597   1.857   0.404  0.2426  0.0993  0.0581
   14HFI     H1  656   1.356   1.848   0.316 -0.9191 -0.4703 -0.1846
   14HFI     H2  657   1.324   1.818   0.600  1.3414 -0.7227 -0.1179
   15HFI     O1  658   2.537   2.366   1.301 -0.7158 -0.1961 -0.2072
   15HFI     C1  659   2.536   2.242   1.383  0.0799  0.2935 -0.0713
   15HFI     C2  660   2.420   2.245   1.491 -0.5591  0.6345 -0.0637
   15HFI     F1  661   2.413   2.146   1.574 -0.0407 -0.1214 -0.0645
   15HFI     F2  662   2.295   2.247   1.430 -0.1750 -0.1157 -0.0737
   15HFI     F3  663   2.426   2.354   1.566 -0.0466  0.5579  0.0131
   15HFI     C3  664   2.677   2.210   1.443  0.0298  0.1971 -0.3497
   15HFI     F4  665   2.717   2.304   1.525 -0.5683 -0.1681 -0.4309
   15HFI     F5  666   2.767   2.210   1.347 -0.1611 -0.4267 -0.5335
   15HFI     F6  667   2.682   2.094   1.510 -0.2825 -0.1810 -0.3759
   15HFI     H1  668   2.547   2.450   1.348 -0.4474 -0.0888 -0.4581
   15HFI     H2  669   2.526   2.153   1.320  1.0419  0.7692 -0.9169
   16HFI     O1  670   0.518   2.338   0.699 -0.4325  0.0342 -0.1317
   16HFI     C1  671   0.409   2.393   0.773  0.3240  0.4956  0.3047
   16HFI     C2  672   0.279   2.357   0.690 -0.5957 -0.1432  0.5819
   16HFI     F1  673   0.291   2.407   0.562 -0.3400 -0.0706  0.5803
   16HFI     F2  674   0.171   2.418   0.748 -0.2221 -0.2693 -0.1048
   16HFI     F3  675   0.262   2.223   0.677 -0.2183 -0.3581  0.2386
   16HFI     C3  676   0.438   2.540   0.802 -0.4886  0.6075 -0.9707
   16HFI     F4  677   0.327   2.604   0.833  0.4960  0.1917 -0.1947
   16HFI     F5  678   0.486   2.589   0.690  0.1116 -0.3278 -0.1439
   16HFI     F6  679   0.524   2.562   0.905 -0.0931 -0.2625  0.0763
   16HFI     H1  680   0.513   2.367   0.606  1.4099 -0.3987 -0.3914
   16HFI     H2  681   0.392   2.344   0.870  1.3052  0.9533  0.7041
   17HFI     O1  682   1.761   2.902   1.348  0.3011  0.7342  0.2260
   17HFI     C1  683   1.755   3.026   1.427  0.4614  0.0249  0.1302
   17HFI     C2  684   1.886   3.052   1.514 -0.2069  0.8322 -0.6796
   17HFI     F1  685   1.994   3.054   1.438  0.1286  0.8165 -0.0060
   17HFI     F2  686   1.904   2.965   1.614 -0.2612  0.6494 -0.3723
   17HFI     F3  687   1.882   3.172   1.564  0.7424  0.3788  0.5280
   17HFI     C3  688   1.623   3.027   1.511 -0.1172 -0.6030 -0.1668
   17HFI     F4  689   1.625   2.925   1.595  0.0783 -0.7349 -0.5288
   17HFI     F5  690   1.513   3.029   1.430 -0.1577  0.2968  0.5882
   17HFI     F6  691   1.613   3.133   1.586  0.1161 -0.2239 -0.2353
   17HFI     H1  692   1.683   2.847   1.366  1.8304 -1.0707  1.4689
   17HFI     H2  693   1.744   3.112   1.359 -0.4965 -1.3430 -1.4803
   18HFI     O1  694   2.334   0.484   3.657 -0.7195  0.0964 -0.4013
   18HFI     C1  695   2.431   0.585   3.689 -0.0047  0.1843 -0.1759
   18HFI     C2  696   2.364   0.697   3.768 -0.0262 -0.6982 -0.1262
   18HFI     F1  697   2.257   0.746   3.699 -0.0493 -0.0377  0.1418
   18HFI     F2  698   2.447   0.802   3.805  0.3198 -0.3911  0.2368
   18HFI     F3  699   2.317   0.642   3.883  0.4444  0.0531 -0.2299
   18HFI     C3  700   2.503   0.646   3.569  0.1580 -0.0351 -0.4488
   18HFI     F4  701   2.419   0.713   3.491 -0.4367 -0.3146  0.0301
   18HFI     F5  702   2.550   0.551   3.484  0.0865 -0.3371  0.1850
   18HFI     F6  703   2.611   0.721   3.605 -0.3597  0.3832  0.4795
   18HFI     H1  704   2.243   0.520   3.655 -1.0927 -0.4879  3.3546
   18HFI     H2  705   2.507   0.543   3.756  0.6073  2.6410  0.6853
   19HFI     O1  706   2.263   1.815   0.595 -0.3493 -0.1135  0.5068
   19HFI     C1  707   2.147   1.774   0.676 -0.3973 -0.1086  0.3289
   19HFI     C2  708   2.009   1.786   0.610 -0.7021 -0.0157 -0.3749
   19HFI     F1  709   1.903   1.739   0.680 -0.1714 -0.1529 -0.5942
   19HFI     F2  710   2.012   1.722   0.499  0.5709  0.5288 -0.4810
   19HFI     F3  711   1.990   1.912   0.580  0.8141  0.6335 -0.0535
   19HFI     C3  712   2.152   1.853   0.812  0.2373 -0.0342  0.0051
   19HFI     F4  713   2.132   1.985   0.793 -0.3148 -0.2285  0.1140
   19HFI     F5  714   2.270   1.834   0.879  0.2792 -0.4447  0.1779
   19HFI     F6  715   2.064   1.798   0.895 -0.0579  0.2477 -0.5886
   19HFI     H1  716   2.264   1.758   0.517 -1.1724  0.9401 -0.2860
   19HFI     H2  717   2.156   1.666   0.697  0.7325 -0.3246 -1.2060
   20HFI     O1  718   0.570   0.235   1.441 -0.0419 -0.1975  0.3615
   20HFI     C1  719   0.539   0.108   1.381  0.6263  1.2365  0.6972
   20HFI     C2  720   0.396   0.114   1.333 -0.6887  0.2007  0.2029
   20HFI     F1  721   0.367   0.245   1.295 -0.0260 -0.5250  0.9208
   20HFI     F2  722   0.310   0.071   1.426  0.2046 -0.3036  0.0302
   20HFI     F3  723   0.387   0.029   1.218 -0.3005  0.7011 -0.4924
   20HFI     C3  724   0.575  -0.009   1.479  0.0649  0.7260 -0.6998
   20HFI     F4  725   0.545   0.026   1.606 -0.2844  0.5154  0.0496
   20HFI     F5  726   0.712  -0.020   1.477  0.4740  0.1139  0.2700
   20HFI     F6  727   0.517  -0.134   1.451 -0.1225 -0.0295 -0.3579
   20HFI     H1  728   0.573   0.234   1.538  2.9472  1.0709  0.3400
   20HFI     H2  729   0.591   0.093   1.286 -3.4477  0.1932 -1.4704
   21HFI     O1  730   1.417   1.363   0.639 -0.3145 -0.6175 -0.0152
   21HFI     C1  731   1.284   1.305   0.653 -0.6761  0.0525  0.3168
   21HFI     C2  732   1.212   1.358   0.779  0.8788 -0.1401 -0.3275
   21HFI     F1  733   1.192   1.491   0.775 -0.1354  0.0892  0.1107
   21HFI     F2  734   1.272   1.330   0.901 -0.0113  0.1717 -0.4374
   21HFI     F3  735   1.084   1.302   0.784  0.3515 -0.0836 -0.2475
   21HFI     C3  736   1.290   1.153   0.665  0.0215 -0.1438 -0.2692
   21HFI     F4  737   1.367   1.111   0.770  0.3398  0.0724 -0.0811
   21HFI     F5  738   1.351   1.103   0.553 -0.3342 -0.1813 -0.3881
   21HFI     F6  739   1.164   1.098   0.672 -0.0821  0.5032  0.3615
   21HFI     H1  740   1.468   1.318   0.569  0.9696  2.1103 -0.8923
   21HFI     H2  741   1.222   1.323   0.564  0.8549 -1.2246 -1.0420
   22HFI     O1  742   1.190   2.458   2.733 -0.5659  0.3447  0.2298
   22HFI     C1  743   1.160   2.313   2.742  0.1785 -0.7099  0.1503
   22HFI     C2  744   1.213   2.232   2.625  0.9525 -0.0497  0.4912
   22HFI     F1  745   1.202   2.100   2.643  0.3303 -0.8489 -0.0678
   22HFI     F2  746   1.341   2.253   2.603 -0.0700 -0.1375 -0.2832
   22HFI     F3  747   1.153   2.275   2.512 -0.0062  0.0604  0.3261
   22HFI     C3  748   1.011   2.303   2.768  0.2853  0.8467 -0.4251
   22HFI     F4  749   0.934   2.358   2.675 -0.1788  0.5541 -0.5088
   22HFI     F5  750   0.983   2.366   2.884 -0.2734 -0.0612  0.3058
   22HFI     F6  751   0.979   2.173   2.796 -0.0738 -0.1927 -0.3554
   22HFI     H1  752   1.148   2.494   2.653 -1.1397 -1.7142 -0.4156
   22HFI     H2  753   1.204   2.263   2.829 -1.7191 -0.9964  0.9533
   23HFI     O1  754   2.135   1.232   0.426  0.6702  0.3537 -0.7486
   23HFI     C1  755   2.017   1.229   0.521 -0.0371 -0.1320 -0.6289
   23HFI     C2  756   1.881   1.241   0.444  0.4193 -1.0662  0.5351
   23HFI     F1  757   1.856   1.374   0.439 -0.0521 -0.4329 -0.3764
   23HFI     F2  758   1.789   1.172   0.506  0.2123 -0.0735 -0.0571
   23HFI     F3  759   1.898   1.184   0.327 -0.1153  0.0976  1.1229
   23HFI     C3  760   2.033   1.327   0.630 -0.5604  0.1614  0.1348
   23HFI     F4  761   1.920   1.349   0.705 -0.0213 -0.7345 -0.0924
   23HFI     F5  762   2.067   1.454   0.580 -0.1738 -0.3377  0.4889
   23HFI     F6  763   2.130   1.291   0.721 -0.2487  0.3599  0.7880
   23HFI     H1  764   2.113   1.189   0.342  0.8613 -2.2796  0.5084
   23HFI     H2  765   2.016   1.135   0.578  0.9782 -1.4107 -2.6682
   24HFI     O1  766   0.401   0.728   1.008  0.3301  0.5306 -0.4176
   24HFI     C1  767   0.535   0.709   1.062 -0.7816  0.1155  0.2636
   24HFI     C2  768   0.620   0.840   1.064  0.6545  0.1390  0.5261
   24HFI     F1  769   0.657   0.882   0.941  0.5919  0.6585  0.1591
   24HFI     F2  770   0.742   0.819   1.131 -0.3587  0.5363  0.0554
   24HFI     F3  771   0.559   0.946   1.137  0.1723 -0.0054 -0.0168
   24HFI     C3  772   0.614   0.594   0.988  0.7638 -0.1570  0.5208
   24HFI     F4  773   0.625   0.630   0.856 -0.0490  0.0229  0.3548
   24HFI     F5  774   0.539   0.481   0.993 -0.3806 -0.0125 -0.0338
   24HFI     F6  775   0.738   0.577   1.048 -0.1769  0.4552  0.0133
   24HFI     H1  776   0.373   0.643   0.968 -1.4193  2.0573 -2.5451
   24HFI     H2  777   0.538   0.678   1.168  0.3977 -2.0396 -0.3701
   25HFI     O1  778   2.505   2.415   1.018 -0.0416  0.4359 -0.1427
   25HFI     C1  779   2.374   2.389   0.948 -0.4809 -0.6391 -0.4127
   25HFI     C2  780   2.273   2.513   0.962  0.4356  0.3917 -0.0415
   25HFI     F1  781   2.341   2.629   0.930  0.6722  0.4915  0.1059
   25HFI     F2  782   2.233   2.521   1.091 -0.1160  0.0770 -0.1422
   25HFI     F3  783   2.168   2.509   0.884 -0.0531  0.2754 -0.3750
   25HFI     C3  784   2.325   2.250   0.979  0.0231  0.3560  0.6365
   25HFI     F4  785   2.317   2.229   1.111  0.2265  0.9453 -0.1794
   25HFI     F5  786   2.412   2.158   0.927  0.0726  0.0164 -0.0141
   25HFI     F6  787   2.202   2.233   0.929 -0.0211  0.2136 -0.3332
   25HFI     H1  788   2.494   2.383   1.109  0.1928 -1.8311 -0.8788
   25HFI     H2  789   2.398   2.399   0.842  1.1032 -0.3396 -0.0410
   26HFI     O1  790   3.375   2.185   2.722 -0.0875  0.2029  0.5979
   26HFI     C1  791   3.313   2.311   2.787  0.2503 -0.0161  0.6586
   26HFI     C2  792   3.174   2.350   2.727  1.1079 -0.4775 -0.2866
   26HFI     F1  793   3.182   2.378   2.588  0.0472  0.2399 -0.2375
   26HFI     F2  794   3.116   2.461   2.796  0.1959  0.1440  0.0649
   26HFI     F3  795   3.093   2.244   2.737 -0.5449  0.1425 -0.2697
   26HFI     C3  796   3.421   2.424   2.782 -0.0097  0.8928 -0.1141
   26HFI     F4  797   3.441   2.474   2.662 -0.0386 -0.3472 -0.2041
   26HFI     F5  798   3.543   2.379   2.815  0.4313  0.8274 -0.2462
   26HFI     F6  799   3.400   2.521   2.873  0.4774 -0.1908  0.1036
   26HFI     H1  800   3.359   2.194   2.626 -2.0666 -1.1464  0.7801
   26HFI     H2  801   3.302   2.308   2.897 -1.5766  1.0518  0.5171
   27HFI     O1  802   2.762   2.291   1.079  0.1921 -0.2286 -0.4929
   27HFI     C1  803   2.813   2.209   0.965 -0.0389 -0.5749  0.4451
   27HFI     C2  804   2.778   2.264   0.819  0.6909 -0.3325  0.4577
   27HFI     F1  805   2.640   2.266   0.802  0.5294 -0.3499 -0.3457
   27HFI     F2  806   2.829   2.189   0.719 -0.1051  0.3365 -0.1244
   27HFI     F3  807   2.826   2.388   0.801  0.2107  0.7033 -0.2362
   27HFI     C3  808   2.761   2.054   0.984  0.4968  0.1242 -0.2734
   27HFI     F4  809   2.863   1.973   1.014 -0.0245  0.3219 -0.3146
   27HFI     F5  810   2.702   1.994   0.878  0.0109 -0.4534 -0.3436
   27HFI     F6  811   2.664   2.046   1.082 -0.3082  0.1433 -0.5489
   27HFI     H1  812   2.791   2.251   1.163 -0.6998  0.2732  0.0681
   27HFI     H2  813   2.922   2.204   0.965  0.0463  0.8008 -1.3353
   28HFI     O1  814   1.564   0.072   3.182  0.1045 -0.8004  0.0956
   28HFI     C1  815   1.595   0.187   3.096  0.2797  0.1754  0.2133
   28HFI     C2  816   1.496   0.195   2.979  0.1522  0.1257  0.8119
   28HFI     F1  817   1.516   0.098   2.897 -0.2183  0.9404 -1.0219
   28HFI     F2  818   1.511   0.299   2.904 -0.8235 -0.0788  0.1675
   28HFI     F3  819   1.366   0.181   3.014  0.1775 -0.5318  0.6283
   28HFI     C3  820   1.744   0.193   3.049 -0.2788 -0.7063 -0.0836
   28HFI     F4  821   1.768   0.314   2.985  0.4101 -0.1025  0.0931
   28HFI     F5  822   1.779   0.092   2.967  0.4493  0.1330 -0.3374
   28HFI     F6  823   1.824   0.188   3.162  0.3081  0.3796  0.0328
   28HFI     H1  824   1.562  -0.007   3.125 -2.2471 -2.4484  2.3542
   28HFI     H2  825   1.586   0.278   3.157 -0.9072 -0.8582  1.6013
   29HFI     O1  826   2.374   1.408   1.190  0.4298  0.0730  0.2278
   29HFI     C1  827   2.377   1.463   1.053 -0.6178  0.0279 -0.3493
   29HFI     C2  828   2.465   1.590   1.042 -0.8672  0.2883 -0.6571
   29HFI     F1  829   2.588   1.562   1.088 -0.0638  0.2679  1.0266
   29HFI     F2  830   2.415   1.694   1.105 -0.4870 -0.5413  0.1594
   29HFI     F3  831   2.475   1.627   0.907 -0.6438  0.0537  0.3661
   29HFI     C3  832   2.234   1.476   0.995 -0.2095  0.0267 -0.2312
   29HFI     F4  833   2.169   1.559   1.073 -0.2521  0.1617  0.0587
   29HFI     F5  834   2.174   1.349   0.992 -0.1154 -0.1386  0.6062
   29HFI     F6  835   2.224   1.525   0.871  0.1889  0.6758 -0.0358
   29HFI     H1  836   2.355   1.484   1.249 -0.3154  0.0789 -0.0142
   29HFI     H2  837   2.418   1.388   0.984  2.2012  1.5887 -0.4219
   30HFI     O1  838   1.092   1.718   0.042  0.5248  0.2568  0.6782
   30HFI     C1  839   1.036   1.827  -0.035  1.1258  0.6419  0.6877
   30HFI     C2  840   1.092   1.963   0.014  0.7203  0.2692  0.1010
   30HFI     F1  841   1.044   2.071  -0.058  0.3211 -0.4301 -0.5652
   30HFI     F2  842   1.227   1.969   0.000  0.1399 -0.0198  0.2096
   30HFI     F3  843   1.064   1.984   0.141 -0.0440 -0.3623 -0.7654
   30HFI     C3  844   0.878   1.820  -0.048  1.4988  0.0316  0.1459
   30HFI     F4  845   0.816   1.831   0.075 -0.0071  0.4348  0.0349
   30HFI     F5  846   0.832   1.704  -0.096 -0.1551  0.0349  0.0077
   30HFI     F6  847   0.828   1.919  -0.129  0.4208  0.2314  0.1256
   30HFI     H1  848   1.058   1.710   0.133  1.8731 -0.3284  1.1611
   30HFI     H2  849   1.089   1.819  -0.130  1.6435  3.0092  0.7537
   31HFI     O1  850   3.115   0.342   0.423  0.3110  0.4872  0.0616
   31HFI     C1  851   3.195   0.448   0.355  0.1318 -0.0793 -0.2504
   31HFI     C2  852   3.346   0.404   0.361  0.1551 -0.3842  0.5663
   31HFI     F1  853   3.381   0.385   0.492  0.2172  0.1468 -0.5935
   31HFI     F2  854   3.424   0.497   0.297  0.2845  0.0617 -0.1548
   31HFI     F3  855   3.378   0.277   0.312  0.3340  0.3221  0.3180
   31HFI     C3  856   3.162   0.586   0.412  0.0143 -0.3861 -0.0524
   31HFI     F4  857   3.196   0.675   0.322  0.1557 -0.0921 -0.0094
   31HFI     F5  858   3.229   0.615   0.526 -0.4570 -0.6052  0.1636
   31HFI     F6  859   3.027   0.601   0.438  0.7731  0.2600  0.4522
   31HFI     H1  860   3.133   0.327   0.517 -0.0632 -1.6388 -0.1853
   31HFI     H2  861   3.155   0.458   0.253 -1.8346  0.8993  0.5982
   32HFI     O1  862   0.277   3.096   1.420  0.4433 -0.7842 -0.6116
   32HFI     C1  863   0.200   2.973   1.442  0.6736 -0.7446  0.7734
   32HFI     C2  864   0.178   2.882   1.322  0.3625 -0.2671  0.0239
   32HFI     F1  865   0.096   2.781   1.345 -0.2995  0.1760  0.6218
   32HFI     F2  866   0.290   2.827   1.270  0.7480 -0.4945 -0.2222
   32HFI     F3  867   0.118   2.952   1.220 -0.1442 -0.3212 -0.1392
   32HFI     C3  868   0.065   3.005   1.512 -0.2732  0.1317 -0.7349
   32HFI     F4  869   0.083   3.088   1.615 -0.3592 -0.7857 -0.0124
   32HFI     F5  870   0.012   2.900   1.570 -0.0207 -0.2013  0.4656
   32HFI     F6  871  -0.031   3.055   1.430  0.2916 -0.1074  0.4666
   32HFI     H1  872   0.212   3.166   1.405  1.5195  0.3067 -0.3239
   32HFI     H2  873   0.263   2.912   1.508  1.1499 -0.1895  0.8301
   33HFI     O1  874   2.308   0.509   1.582  0.2293  0.0200  0.6489
   33HFI     C1  875   2.394   0.500   1.462 -0.9481  0.8612 -0.2731
   33HFI     C2  876   2.539   0.464   1.506  0.2901  1.3532  0.4051
   33HFI     F1  877   2.602   0.574   1.554  0.2635  0.4367  0.2504
   33HFI     F2  878   2.605   0.414   1.403 -0.2254 -0.0736  0.2343
   33HFI     F3  879   2.539   0.369   1.598 -0.2194  0.3934 -0.2414
   33HFI     C3  880   2.390   0.635   1.376  0.1858  0.1115 -0.6217
   33HFI     F4  881   2.266   0.664   1.337 -0.5706  0.0291  0.4523
   33HFI     F5  882   2.463   0.617   1.269 -0.1922 -0.3104  0.4197
   33HFI     F6  883   2.444   0.745   1.437 -0.2640 -0.1316  0.0316
   33HFI     H1  884   2.306   0.420   1.622 -1.7758  0.0460  0.6303
   33HFI     H2  885   2.354   0.422   1.396  2.3334  0.3341 -1.7361
   34HFI     O1  886   1.001   1.948   1.138 -0.0072  0.0220  0.0208
   34HFI     C1  887   1.049   1.810   1.107  0.1916  0.9554 -0.0917
   34HFI     C2  888   1.176   1.818   1.029 -0.7101 -0.0191 -0.3582
   34HFI     F1  889   1.288   1.859   1.100 -0.4057 -0.1550 -0.0767
   34HFI     F2  890   1.171   1.900   0.918  0.2963  0.2085  0.1644
   34HFI     F3  891   1.213   1.698   0.989 -0.1402  0.4961 -0.2529
   34HFI     C3  892   0.942   1.711   1.038  0.1259 -0.7567  0.2158
   34HFI     F4  893   0.977   1.583   1.049  0.2476 -0.2793 -0.0044
   34HFI     F5  894   0.917   1.749   0.910  0.0467  0.1344 -0.3366
   34HFI     F6  895   0.826   1.726   1.106  0.2311  0.2696  0.3010
   34HFI     H1  896   0.941   1.977   1.067  0.7880 -1.2847 -1.1951
   34HFI     H2  897   1.077   1.766   1.204  0.9542  1.1824 -0.2026
   35HFI     O1  898   0.297   0.141   2.750 -0.3468  0.0742  0.6016
   35HFI     C1  899   0.421   0.186   2.808  0.5978 -0.4870 -0.0872
   35HFI     C2  900   0.522   0.068   2.830 -0.1416 -0.3490  0.4378
   35HFI     F1  901   0.567   0.020   2.712  0.2583  0.1176 -0.0499
   35HFI     F2  902   0.466  -0.036   2.897  0.8134  0.0533 -0.1144
   35HFI     F3  903   0.634   0.088   2.906 -0.0584 -0.3587  0.1623
   35HFI     C3  904   0.393   0.273   2.937 -0.7490  0.3721 -0.1577
   35HFI     F4  905   0.348   0.198   3.035 -0.5997 -0.0339 -0.1265
   35HFI     F5  906   0.305   0.372   2.912 -0.3525  0.2817 -0.1197
   35HFI     F6  907   0.508   0.340   2.973 -0.1315 -0.3670 -0.7588
   35HFI     H1  908   0.261   0.077   2.814  1.8014 -0.9692  0.7817
   35HFI     H2  909   0.465   0.259   2.739  1.1946 -0.8968 -0.1482
   36HFI     O1  910   2.279   2.582   1.419 -0.0928 -0.3537  0.1380
   36HFI     C1  911   2.341   2.685   1.506  0.3023  0.1248  0.5580
   36HFI     C2  912   2.242   2.807   1.511 -0.3064  0.0424 -0.1096
   36HFI     F1  913   2.225   2.857   1.384 -0.5131 -0.0860 -0.2168
   36HFI     F2  914   2.279   2.911   1.590 -0.3488  0.4213 -0.4067
   36HFI     F3  915   2.121   2.752   1.552 -0.6332 -0.1440 -0.2293
   36HFI     C3  916   2.482   2.721   1.461 -0.0116  0.5119  0.5760
   36HFI     F4  917   2.553   2.773   1.566 -0.4597  0.0735  0.4531
   36HFI     F5  918   2.493   2.805   1.357  0.1032 -0.3877  0.0565
   36HFI     F6  919   2.547   2.604   1.434  0.6600 -0.5273  0.2097
   36HFI     H1  920   2.183   2.593   1.430  0.1206  0.3328  1.4106
   36HFI     H2  921   2.368   2.664   1.610 -1.1206 -1.6073  0.5961
   37HFI     O1  922   3.314   2.333   1.574 -0.1369 -1.2475  0.0679
   37HFI     C1  923   3.239   2.391   1.470  0.3108 -0.3341  0.3625
   37HFI     C2  924   3.185   2.531   1.498 -0.2395  0.7209  0.6229
   37HFI     F1  925   3.288   2.619   1.537 -0.1566 -0.1887  0.0406
   37HFI     F2  926   3.103   2.521   1.605  0.1098  0.1325 -0.7371
   37HFI     F3  927   3.127   2.587   1.385  0.4535 -0.3074 -0.5756
   37HFI     C3  928   3.121   2.293   1.430  0.1852 -0.0611  0.8268
   37HFI     F4  929   3.008   2.353   1.386 -0.3995 -0.1021  0.3961
   37HFI     F5  930   3.085   2.214   1.536 -0.3272 -0.2550 -0.7307
   37HFI     F6  931   3.156   2.201   1.332  0.0195  0.5623  0.4844
   37HFI     H1  932   3.366   2.402   1.617  0.4783  0.1468 -2.7775
   37HFI     H2  933   3.307   2.400   1.384  1.5763 -1.8738  1.1714
   38HFI     O1  934   2.844   0.211   1.390  0.1957  0.2530 -0.2562
   38HFI     C1  935   2.792   0.072   1.374 -0.0568 -0.0106 -0.1674
   38HFI     C2  936   2.674   0.060   1.283  0.0495  0.3940  0.4718
   38HFI     F1  937   2.629  -0.066   1.262 -0.4768  0.1353  0.1431
   38HFI     F2  938   2.698   0.114   1.165  0.4931  1.4036 -0.4533
   38HFI     F3  939   2.561   0.126   1.324 -0.6014  0.1182  0.0894
   38HFI     C3  940   2.764   0.018   1.518  0.0641  0.9419 -0.0551
   38HFI     F4  941   2.880   0.027   1.590  0.0685  0.3022  0.5505
   38HFI     F5  942   2.718  -0.106   1.518  0.0091 -0.4606 -0.2114
   38HFI     F6  943   2.674   0.088   1.581 -0.0982 -0.4306 -0.2022
   38HFI     H1  944   2.770   0.272   1.409 -0.4618 -0.7349  0.3890
   38HFI     H2  945   2.867  -0.001   1.343 -0.8137 -1.2652  0.9046
   39HFI     O1  946   0.266   3.058   0.797  0.0755  0.1205  0.4980
   39HFI     C1  947   0.392   3.109   0.856  0.7708  0.1185  0.4796
   39HFI     C2  948   0.485   2.998   0.890 -0.7331  0.2255 -0.1713
   39HFI     F1  949   0.452   2.938   1.005 -0.4619  0.1333  0.3337
   39HFI     F2  950   0.618   3.025   0.901  0.1453 -0.0418  0.5230
   39HFI     F3  951   0.483   2.912   0.789  0.4647  0.1241 -0.1922
   39HFI     C3  952   0.368   3.212   0.971 -0.4962  0.3949 -0.4633
   39HFI     F4  953   0.315   3.319   0.909  0.1448  0.1267 -0.1860
   39HFI     F5  954   0.481   3.242   1.045  0.3849  0.6901  0.2044
   39HFI     F6  955   0.279   3.160   1.062  0.0613 -0.1755  0.3643
   39HFI     H1  956   0.285   2.970   0.758  0.3280 -0.0445  0.9877
   39HFI     H2  957   0.442   3.170   0.780 -1.2844 -1.1426 -1.9603
   40HFI     O1  958   0.328   1.356   0.403  0.2933 -0.1810 -0.2936
   40HFI     C1  959   0.335   1.257   0.513  0.0333 -0.2491  0.1266
   40HFI     C2  960   0.456   1.158   0.502  0.4588 -0.4709  0.2453
   40HFI     F1  961   0.446   1.051   0.585  0.6698  0.0730 -0.6186
   40HFI     F2  962   0.569   1.228   0.520  0.1143  0.3242  0.0960
   40HFI     F3  963   0.464   1.111   0.371  0.3469 -0.1493 -0.1545
   40HFI     C3  964   0.200   1.186   0.535 -0.2459  0.2060  0.1830
   40HFI     F4  965   0.190   1.090   0.454  0.6142 -0.5088  0.5705
   40HFI     F5  966   0.101   1.270   0.513 -0.3907  0.3738  0.0049
   40HFI     F6  967   0.183   1.140   0.664 -0.2251  0.4564  0.0534
   40HFI     H1  968   0.353   1.304   0.324  0.4154  3.3357 -2.6960
   40HFI     H2  969   0.359   1.307   0.607  2.8393 -2.7095  0.7959
   41HFI     O1  970   2.456   3.192   0.043  0.6979  0.1491  0.0032
   41HFI     C1  971   2.594   3.174   0.099 -0.3673 -0.7398  0.0469
   41HFI     C2  972   2.600   3.044   0.174  0.2468 -0.1784  0.0983
   41HFI     F1  973   2.530   3.055   0.293 -0.3989  0.4402 -0.1792
   41HFI     F2  974   2.726   3.008   0.201 -0.0209 -0.1668  0.7263
   41HFI     F3  975   2.544   2.945   0.101  0.0854 -0.0749  0.6820
   41HFI     C3  976   2.651   3.294   0.176 -0.0469  0.4869  0.2099
   41HFI     F4  977   2.663   3.402   0.100 -0.2146 -0.2113 -0.0552
   41HFI     F5  978   2.774   3.272   0.230 -0.4242 -0.2315  0.2725
   41HFI     F6  979   2.581   3.337   0.282 -0.5661 -0.5644 -0.1146
   41HFI     H1  980   2.408   3.108   0.048 -2.1196  1.6273 -1.2155
   41HFI     H2  981   2.666   3.158   0.018  0.2600  1.7729  0.0597
   42HFI     O1  982   2.763   1.468   2.974 -0.0357  0.2546 -0.1192
   42HFI     C1  983   2.832   1.522   3.086  0.8419 -0.0332  0.7395
   42HFI     C2  984   2.980   1.475   3.079 -0.0196 -0.9494 -0.1802
   42HFI     F1  985   3.057   1.524   3.178 -0.0009  0.0526  0.4042
   42HFI     F2  986   3.046   1.508   2.965 -0.1848 -0.2180 -0.1953
   42HFI     F3  987   2.988   1.340   3.072  0.3422 -0.0312 -0.2318
   42HFI     C3  988   2.760   1.479   3.214 -0.5780 -0.0814  0.5905
   42HFI     F4  989   2.625   1.496   3.202  0.5452 -0.2688 -0.1849
   42HFI     F5  990   2.803   1.555   3.318  0.4009 -0.5734 -0.1851
   42HFI     F6  991   2.778   1.357   3.251  0.1940  0.3385  0.0034
   42HFI     H1  992   2.678   1.442   3.013 -0.2554  1.0423 -0.0695
   42HFI     H2  993   2.828   1.632   3.082  1.0233 -0.0733 -1.4173
   43HFI     O1  994   1.513   2.299   3.117  0.5946  0.4125  0.0625
   43HFI     C1  995   1.467   2.437   3.148  0.1993 -0.1161 -0.8145
   43HFI     C2  996   1.363   2.489   3.048 -0.9204  0.1989  0.1226
   43HFI     F1  997   1.417   2.485   2.921 -0.0133 -0.2928  0.1894
   43HFI     F2  998   1.304   2.608   3.078 -0.2782 -0.4656  0.4244
   43HFI     F3  999   1.264   2.400   3.039 -0.0082  0.2950  0.1696
   43HFI     C3 1000   1.591   2.539   3.161  0.1845 -0.1014  0.0803
   43HFI     F4 1001   1.543   2.663   3.188  0.0583  0.0330  0.4307
   43HFI     F5 1002   1.662   2.551   3.049  0.0436  0.5230  0.3594
   43HFI     F6 1003   1.677   2.501   3.260 -0.0754  0.1602  0.5545
   43HFI     H1 1004   1.540   2.259   3.202 -0.9655  0.3470  0.5439
   43HFI     H2 1005   1.405   2.440   3.238  0.0276 -0.5908 -0.9157
   44HFI     O1 1006   1.097   2.987   0.943  0.1702  0.0737  0.4412
   44HFI     C1 1007   1.199   2.941   1.044  0.1339 -0.1500  0.4172
   44HFI     C2 1008   1.313   3.041   1.059  0.6314  0.7679 -0.0319
   44HFI     F1 1009   1.270   3.161   1.090 -0.2665  0.1815  0.0270
   44HFI     F2 1010   1.376   3.057   0.936  0.4813  0.7267 -0.5525
   44HFI     F3 1011   1.403   2.999   1.152 -0.8680 -0.5253  0.3727
   44HFI     C3 1012   1.250   2.799   1.021  0.1548  0.2953 -0.8940
   44HFI     F4 1013   1.280   2.783   0.890 -0.3942  0.0645  0.4652
   44HFI     F5 1014   1.149   2.708   1.047  0.3106  0.2203 -0.0845
   44HFI     F6 1015   1.360   2.756   1.088 -0.4566  0.1317  0.0497
   44HFI     H1 1016   1.070   3.078   0.963  0.2085  0.1188  0.2823
   44HFI     H2 1017   1.155   2.941   1.144 -0.7398  1.9273  0.0395
   45HFI     O1 1018   1.919   2.730   0.894 -0.2179  0.1049 -0.1793
   45HFI     C1 1019   1.773   2.719   0.912  0.6136 -0.2672 -0.5862
   45HFI     C2 1020   1.702   2.862   0.901  0.3697 -0.0196 -0.0189
   45HFI     F1 1021   1.758   2.952   0.810 -0.0794 -0.1288 -0.3688
   45HFI     F2 1022   1.693   2.923   1.021  0.2520  0.4554 -0.4843
   45HFI     F3 1023   1.579   2.840   0.859 -0.5517  0.0712  0.3494
   45HFI     C3 1024   1.737   2.633   1.038 -0.5187  0.3313 -0.2661
   45HFI     F4 1025   1.608   2.649   1.094  0.1481 -0.0430 -0.0196
   45HFI     F5 1026   1.829   2.664   1.141 -0.1094 -0.1537 -0.3253
   45HFI     F6 1027   1.761   2.504   1.005  0.5903 -0.0863 -0.1593
   45HFI     H1 1028   1.953   2.802   0.950  0.9205  0.5164 -1.3628
   45HFI     H2 1029   1.719   2.657   0.839  1.0792 -0.3820 -0.8377
   46HFI     O1 1030   0.073   2.836   0.829 -0.3560 -0.3124 -0.4280
   46HFI     C1 1031   0.025   2.703   0.816  0.3298  0.3776 -0.0047
   46HFI     C2 1032  -0.108   2.700   0.734 -0.3896 -0.8172  0.5265
   46HFI     F1 1033  -0.091   2.752   0.612 -0.1910 -0.2192 -0.0838
   46HFI     F2 1034  -0.205   2.780   0.797  0.0310 -0.1541 -0.0998
   46HFI     F3 1035  -0.157   2.578   0.712  0.1689  0.0847  0.3076
   46HFI     C3 1036   0.007   2.640   0.959 -0.6054  0.4078 -0.0599
   46HFI     F4 1037  -0.047   2.517   0.952 -0.5996 -0.4523  0.1900
   46HFI     F5 1038  -0.084   2.703   1.046  0.1997  0.0359 -0.5880
   46HFI     F6 1039   0.125   2.628   1.025 -0.2072  0.1479  0.3804
   46HFI     H1 1040  -0.003   2.892   0.848 -0.3727 -0.7413  0.8431
   46HFI     H2 1041   0.098   2.646   0.758  0.2993  1.0239 -0.6730
   47HFI     O1 1042   0.303   3.350   0.180  1.0226 -0.4014  0.2068
   47HFI     C1 1043   0.176   3.289   0.212  0.1767  0.7322 -0.1708
   47HFI     C2 1044   0.121   3.337   0.354  0.2201  0.0057  0.4302
   47HFI     F1 1045   0.113   3.469   0.348  0.5720 -0.2554 -0.7663
   47HFI     F2 1046   0.203   3.309   0.458 -0.0347 -0.5219  0.2831
   47HFI     F3 1047  -0.003   3.290   0.386  0.5298 -0.2114 -0.0163
   47HFI     C3 1048   0.198   3.143   0.195 -0.4997  0.2920  0.7552
   47HFI     F4 1049   0.311   3.099   0.252  0.3126 -0.2041  0.2563
   47HFI     F5 1050   0.218   3.113   0.062  0.1971 -0.2285  0.1413
   47HFI     F6 1051   0.091   3.070   0.236  0.0840 -0.0687 -0.0520
   47HFI     H1 1052   0.368   3.279   0.197  2.1206  1.0729  2.5504
   47HFI     H2 1053   0.099   3.309   0.137  2.7645 -0.9456 -3.4336
   48HFI     O1 1054   2.757   1.480   1.378 -0.0917  0.2524 -0.0810
   48HFI     C1 1055   2.746   1.601   1.462 -0.2047  0.1333  0.0590
   48HFI     C2 1056   2.593   1.646   1.461 -0.1648  0.0971 -0.0912
   48HFI     F1 1057   2.562   1.714   1.353  0.0245  0.3729 -0.6981
   48HFI     F2 1058   2.583   1.727   1.566  0.5059 -0.2349  0.1455
   48HFI     F3 1059   2.502   1.544   1.482 -0.1792  0.0446 -0.1127
   48HFI     C3 1060   2.849   1.707   1.419 -0.5424  0.6251  0.1736
   48HFI     F4 1061   2.833   1.739   1.288 -0.4706  0.5301  0.5195
   48HFI     F5 1062   2.976   1.649   1.434 -0.1705  0.2767 -0.1057
   48HFI     F6 1063   2.846   1.815   1.495  0.3089  0.3217 -0.0598
   48HFI     H1 1064   2.835   1.486   1.320 -0.3453 -0.4320 -0.5064
   48HFI     H2 1065   2.769   1.580   1.567  0.7042 -0.0379 -0.1664
   49HFI     O1 1066   1.645   0.740   1.565  0.1940 -0.5790 -0.4632
   49HFI     C1 1067   1.499   0.737   1.563 -0.1783  0.2150  0.2219
   49HFI     C2 1068   1.452   0.606   1.494  0.4045  0.0071  0.6481
   49HFI     F1 1069   1.512   0.498   1.547  0.5544 -0.1569  0.1320
   49HFI     F2 1070   1.485   0.617   1.359 -0.2248  0.1760  0.3987
   49HFI     F3 1071   1.319   0.592   1.500 -1.1632  0.0009 -0.2238
   49HFI     C3 1072   1.435   0.869   1.504  0.1637 -0.0786 -0.5214
   49HFI     F4 1073   1.300   0.872   1.510  0.5306  0.1387  0.5498
   49HFI     F5 1074   1.478   0.901   1.378  0.3934  0.1143 -0.0136
   49HFI     F6 1075   1.469   0.982   1.572  0.2913 -0.0242  0.4006
   49HFI     H1 1076   1.682   0.690   1.491 -1.9680 -0.1021 -1.9199
   49HFI     H2 1077   1.462   0.722   1.665  2.0152  1.4626  1.2552
   50HFI     O1 1078   0.532   2.481   1.280  0.2082  0.1485 -0.2453
   50HFI     C1 1079   0.450   2.374   1.323  0.5502 -0.0316 -0.7550
   50HFI     C2 1080   0.326   2.347   1.234 -0.5278 -0.6903  0.3962
   50HFI     F1 1081   0.366   2.342   1.106  0.1654  0.2461  0.5409
   50HFI     F2 1082   0.236   2.450   1.248 -0.3466 -0.2265 -0.2444
   50HFI     F3 1083   0.270   2.224   1.261  0.0173  0.3610  0.1799
   50HFI     C3 1084   0.417   2.390   1.479  0.8559  0.0563 -0.1837
   50HFI     F4 1085   0.345   2.278   1.522 -0.0766 -0.4010  0.3975
   50HFI     F5 1086   0.338   2.496   1.505 -0.7919  0.2462  0.0198
   50HFI     F6 1087   0.523   2.404   1.565  0.0572  0.0546 -0.2047
   50HFI     H1 1088   0.477   2.561   1.278 -0.5997 -0.4203 -4.0729
   50HFI     H2 1089   0.514   2.285   1.318  0.6454 -0.0147  0.1094
   51HFI     O1 1090   0.087   1.593   2.584  0.1744 -0.0419  0.2171
   51HFI     C1 1091   0.052   1.664   2.708  0.0735  0.5988  0.3535
   51HFI     C2 1092  -0.038   1.573   2.797  0.1545 -0.3327  0.9078
   51HFI     F1 1093  -0.165   1.587   2.762  0.3729 -0.6041  0.3761
   51HFI     F2 1094  -0.022   1.609   2.923 -0.1443  0.0502  0.5235
   51HFI     F3 1095  -0.004   1.446   2.778 -0.0143  0.1970 -0.2586
   51HFI     C3 1096   0.010   1.818   2.705  0.1806  0.2873 -0.3912
   51HFI     F4 1097  -0.102   1.832   2.626  0.3745 -0.0450  0.2566
   51HFI     F5 1098   0.106   1.893   2.648 -0.1716  0.8327 -0.3942
   51HFI     F6 1099  -0.013   1.866   2.835  0.4449  0.3846 -0.1668
   51HFI     H1 1100   0.060   1.500   2.579  1.4882 -0.4478  0.5529
   51HFI     H2 1101   0.146   1.668   2.764 -1.1456 -0.6812  2.5725
   52HFI     O1 1102   3.351   3.084   0.927 -0.3411  0.4925 -0.0005
   52HFI     C1 1103   3.266   3.195   0.965  0.6274  0.3390 -0.4150
   52HFI     C2 1104   3.354   3.316   0.979 -0.2386 -0.6105  0.6571
   52HFI     F1 1105   3.425   3.338   0.861  0.0147  0.0039 -0.0127
   52HFI     F2 1106   3.453   3.292   1.072 -0.2916  0.2967 -0.0492
   52HFI     F3 1107   3.285   3.438   1.012 -0.0400  0.0859 -0.7299
   52HFI     C3 1108   3.178   3.165   1.100  0.0615 -0.3086  0.5152
   52HFI     F4 1109   3.240   3.195   1.217 -0.0958  0.1729  0.3502
   52HFI     F5 1110   3.138   3.036   1.103  0.0363  0.2359  0.3595
   52HFI     F6 1111   3.067   3.247   1.094  0.3273  0.1828  0.3251
   52HFI     H1 1112   3.430   3.094   0.982 -1.7984  1.8360  1.9280
   52HFI     H2 1113   3.188   3.210   0.889 -0.4320 -1.2423  0.3319
   53HFI     O1 1114   1.670   0.388   0.749 -0.0661  0.4219 -0.5086
   53HFI     C1 1115   1.775   0.389   0.642  0.0325 -0.8600  0.0759
   53HFI     C2 1116   1.814   0.252   0.593  0.2422 -0.3823 -0.0166
   53HFI     F1 1117   1.894   0.190   0.677 -0.2073 -0.4439  0.1024
   53HFI     F2 1118   1.881   0.261   0.468  0.6996 -0.3547  0.3793
   53HFI     F3 1119   1.705   0.176   0.569 -0.2929  0.2727  0.0275
   53HFI     C3 1120   1.901   0.471   0.681  0.0797  0.4633 -0.0487
   53HFI     F4 1121   1.862   0.599   0.709 -0.1180  0.2162 -0.0433
   53HFI     F5 1122   1.989   0.477   0.581 -0.1433  0.2447  0.6893
   53HFI     F6 1123   1.963   0.430   0.795  0.0536  0.5260 -0.1028
   53HFI     H1 1124   1.594   0.337   0.716  0.1480  0.0227 -0.3841
   53HFI     H2 1125   1.736   0.450   0.560  0.6372 -0.0103  0.4081
   54HFI     O1 1126   0.222   2.532   3.494  0.8053  0.5302  0.0926
   54HFI     C1 1127   0.203   2.516   3.346 -0.6695 -0.5242  0.5423
   54HFI     C2 1128   0.141   2.640   3.288  0.2994  0.2193  0.6074
   54HFI     F1 1129   0.025   2.667   3.355  0.2849  0.2381  0.8502
   54HFI     F2 1130   0.120   2.629   3.155 -0.4935  0.4509 -0.5219
   54HFI     F3 1131   0.218   2.740   3.312 -0.1851 -0.7145  0.5489
   54HFI     C3 1132   0.107   2.399   3.312 -0.1663 -0.0157  0.0494
   54HFI     F4 1133   0.099   2.380   3.176  0.4852 -0.0514  0.1123
   54HFI     F5 1134  -0.020   2.419   3.358  0.0606  0.4612 -0.3957
   54HFI     F6 1135   0.151   2.292   3.368  0.2745  0.3552  0.4004
   54HFI     H1 1136   0.241   2.448   3.539 -1.2880  1.6719  3.3144
   54HFI     H2 1137   0.298   2.500   3.293 -0.3277  0.1403  0.9473
   55HFI     O1 1138   0.635   0.151   0.557 -0.1055 -0.9282  0.1607
   55HFI     C1 1139   0.604   0.080   0.435 -0.0613 -0.4947 -0.1183
   55HFI     C2 1140   0.575  -0.072   0.471 -0.5143  0.0168 -0.7474
   55HFI     F1 1141   0.469  -0.086   0.552 -0.3372  0.4917 -0.1632
   55HFI     F2 1142   0.683  -0.134   0.530 -0.1274  0.2240 -0.0042
   55HFI     F3 1143   0.554  -0.138   0.352 -0.1136  0.1100 -0.0947
   55HFI     C3 1144   0.710   0.103   0.324  0.0917  0.6139 -0.0929
   55HFI     F4 1145   0.817   0.027   0.344  0.0113 -0.0425  0.4014
   55HFI     F5 1146   0.755   0.230   0.314  0.1063 -0.4622  0.0600
   55HFI     F6 1147   0.668   0.069   0.202  0.4299 -0.4068 -0.6152
   55HFI     H1 1148   0.712   0.118   0.606 -0.7234 -0.9683  1.1239
   55HFI     H2 1149   0.508   0.113   0.392 -0.0647 -2.0938 -1.4043
   56HFI     O1 1150   0.063   0.161   0.737  0.3785  0.1667  0.1904
   56HFI     C1 1151   0.149   0.274   0.790 -0.2580 -0.6315 -0.4561
   56HFI     C2 1152   0.275   0.282   0.702 -0.3642 -0.0151  0.4991
   56HFI     F1 1153   0.350   0.175   0.725 -0.0966 -0.3275 -0.5284
   56HFI     F2 1154   0.347   0.393   0.726  0.0141 -0.3012  0.3888
   56HFI     F3 1155   0.239   0.282   0.570  0.1521 -0.0830  0.1231
   56HFI     C3 1156   0.183   0.263   0.939 -0.4849 -0.4191 -0.2235
   56HFI     F4 1157   0.066   0.263   1.014 -0.6339 -0.0758 -0.4457
   56HFI     F5 1158   0.270   0.362   0.982  0.0915  0.2878 -0.6051
   56HFI     F6 1159   0.241   0.144   0.970 -0.1136 -0.2995 -0.2086
   56HFI     H1 1160   0.085   0.134   0.646 -0.2533  2.9001 -0.8269
   56HFI     H2 1161   0.095   0.369   0.781 -2.7017 -1.6714  2.5444
   57HFI     O1 1162   1.159   0.658   0.969  0.3203  0.3060  0.5231
   57HFI     C1 1163   1.087   0.765   1.041 -0.0851 -0.3332 -0.0300
   57HFI     C2 1164   1.025   0.868   0.947  0.0339  0.1406  0.1481
   57HFI     F1 1165   0.941   0.811   0.857 -0.0470 -0.5005  0.2089
   57HFI     F2 1166   1.123   0.922   0.873 -0.2948 -0.3506  0.0913
   57HFI     F3 1167   0.959   0.968   1.009  0.2778 -0.4892  0.3886
   57HFI     C3 1168   1.178   0.833   1.151  0.9507 -0.2752 -0.2611
   57HFI     F4 1169   1.287   0.891   1.085 -0.3762  0.2582 -0.2938
   57HFI     F5 1170   1.229   0.735   1.223  0.5196 -0.5674 -0.1626
   57HFI     F6 1171   1.118   0.915   1.232  0.1460  0.2685 -0.0052
   57HFI     H1 1172   1.255   0.668   0.979  0.5592 -0.9092 -0.5249
   57HFI     H2 1173   1.002   0.726   1.099  0.4669 -0.8569  0.4321
   58HFI     O1 1174   3.143   0.609   1.338 -0.1828 -0.6106  0.0720
   58HFI     C1 1175   3.062   0.717   1.395  0.5613 -0.2407  0.1755
   58HFI     C2 1176   3.082   0.720   1.552  0.2574  0.8409 -0.7149
   58HFI     F1 1177   3.215   0.716   1.582  0.5077  0.5174 -0.5643
   58HFI     F2 1178   3.021   0.626   1.620  0.1711  0.0828  0.1051
   58HFI     F3 1179   3.030   0.842   1.606 -0.3656  0.1516  0.2705
   58HFI     C3 1180   2.912   0.697   1.349 -0.4362 -0.8009 -0.3016
   58HFI     F4 1181   2.867   0.570   1.376 -0.2252  0.3304  0.6517
   58HFI     F5 1182   2.912   0.707   1.212 -0.1323  0.1820  0.0571
   58HFI     F6 1183   2.831   0.794   1.409  0.0940  0.0321 -0.0565
   58HFI     H1 1184   3.129   0.523   1.380 -1.6817 -0.7534 -0.6931
   58HFI     H2 1185   3.088   0.817   1.358 -0.0483  0.4188  1.4811
   59HFI     O1 1186   3.110   0.296   1.403  0.3741 -0.3627 -0.0587
   59HFI     C1 1187   3.217   0.215   1.463  0.3794  0.1844  0.6745
   59HFI     C2 1188   3.348   0.284   1.487  0.6810 -0.3922 -0.4657
   59HFI     F1 1189   3.376   0.355   1.377  0.2348 -0.1294 -0.0189
   59HFI     F2 1190   3.453   0.213   1.517  0.3547  0.5787 -0.2658
   59HFI     F3 1191   3.338   0.376   1.584 -0.4747 -0.2471  0.4156
   59HFI     C3 1192   3.242   0.083   1.395  0.0591  0.0285 -0.8375
   59HFI     F4 1193   3.313  -0.001   1.474 -0.0795 -0.3803 -0.4350
   59HFI     F5 1194   3.298   0.100   1.276  0.1125  0.2453 -0.6682
   59HFI     F6 1195   3.125   0.018   1.370 -0.4403 -0.0877 -0.3644
   59HFI     H1 1196   3.034   0.239   1.382  0.1742 -0.5102  1.0419
   59HFI     H2 1197   3.181   0.191   1.564  1.0963  1.5896  1.2898
   60HFI     O1 1198   0.842   2.548   3.125 -0.0268 -0.0088  0.1700
   60HFI     C1 1199   0.969   2.624   3.148  0.2288 -0.7861 -0.6704
   60HFI     C2 1200   1.028   2.608   3.286  0.5177 -0.4284  0.8846
   60HFI     F1 1201   1.060   2.479   3.315  0.0814  0.1639  0.3037
   60HFI     F2 1202   0.945   2.653   3.380 -0.0519 -0.2379 -0.0932
   60HFI     F3 1203   1.143   2.671   3.306 -0.2501 -0.1536 -0.1674
   60HFI     C3 1204   0.951   2.769   3.098  0.9899 -0.1714  0.1308
   60HFI     F4 1205   1.063   2.837   3.075  0.0083  0.4954  0.4525
   60HFI     F5 1206   0.885   2.844   3.191 -0.3628  0.6359  0.5212
   60HFI     F6 1207   0.880   2.772   2.979  0.5879  0.0899  0.1244
   60HFI     H1 1208   0.836   2.530   3.030  1.0433  3.9832 -0.7423
   60HFI     H2 1209   1.039   2.583   3.073 -0.6957  1.8886 -3.0748
   61HFI     O1 1210   0.100   0.770   0.418 -0.0365  0.0537 -0.4952
   61HFI     C1 1211   0.228   0.769   0.493  0.8590 -0.4461  0.1760
   61HFI     C2 1212   0.341   0.690   0.417 -0.4851 -0.6777  0.1505
   61HFI     F1 1213   0.338   0.558   0.443 -0.3195  0.1127 -0.1592
   61HFI     F2 1214   0.458   0.744   0.455  0.4078 -0.0676  0.4583
   61HFI     F3 1215   0.339   0.700   0.281  0.8586  0.2007  0.1843
   61HFI     C3 1216   0.195   0.720   0.637  0.7647  0.4831 -0.3009
   61HFI     F4 1217   0.301   0.719   0.723  0.2861  0.2738 -0.1179
   61HFI     F5 1218   0.157   0.591   0.642 -0.0877  0.0411 -0.1220
   61HFI     F6 1219   0.098   0.795   0.695  0.2763  0.4968  0.0664
   61HFI     H1 1220   0.118   0.767   0.323 -0.4216  3.3851 -0.7510
   61HFI     H2 1221   0.258   0.873   0.508 -2.2770  0.1605  3.0268
   62HFI     O1 1222   0.527   3.039   1.317 -0.0113  0.4238 -0.5925
   62HFI     C1 1223   0.650   3.007   1.381 -0.1900  0.0329  0.1130
   62HFI     C2 1224   0.746   2.941   1.276 -0.1230 -0.0147 -0.5351
   62HFI     F1 1225   0.864   2.920   1.329  0.4128  0.2611 -0.1722
   62HFI     F2 1226   0.764   3.015   1.167 -0.3502 -1.0780  0.0552
   62HFI     F3 1227   0.707   2.817   1.233 -0.0364 -0.2805 -0.5137
   62HFI     C3 1228   0.634   2.920   1.508  0.1660 -0.1234 -0.5917
   62HFI     F4 1229   0.735   2.949   1.593  0.3018 -0.2844  0.2655
   62HFI     F5 1230   0.631   2.787   1.484 -0.3342 -0.3658 -0.2730
   62HFI     F6 1231   0.519   2.961   1.572  0.4866  0.0551  0.2163
   62HFI     H1 1232   0.462   3.070   1.383  0.3692  0.7579 -0.3725
   62HFI     H2 1233   0.699   3.104   1.400 -0.0754  0.7996 -3.7182
   63HFI     O1 1234   1.983   2.311   0.098 -0.1588 -0.3731 -0.4783
   63HFI     C1 1235   2.072   2.327  -0.020 -0.0813  0.2359  0.0631
   63HFI     C2 1236   2.046   2.203  -0.112  0.0588  0.1850  0.4720
   63HFI     F1 1237   1.927   2.231  -0.173  0.0362 -0.2843 -0.2362
   63HFI     F2 1238   2.039   2.088  -0.046  0.3945  0.1981 -0.1450
   63HFI     F3 1239   2.142   2.201  -0.208  0.1844  0.2449 -0.3837
   63HFI     C3 1240   2.217   2.338   0.024  0.7376  0.0648 -0.1848
   63HFI     F4 1241   2.260   2.228   0.086 -0.0768 -0.0860 -0.1993
   63HFI     F5 1242   2.230   2.444   0.100 -0.9406 -0.1682 -0.0355
   63HFI     F6 1243   2.295   2.356  -0.081  0.1381 -0.0082 -0.2598
   63HFI     H1 1244   2.022   2.238   0.149  1.9105  0.1796 -1.2120
   63HFI     H2 1245   2.049   2.417  -0.078  1.6790  0.5246 -0.2251
   64HFI     O1 1246   2.576   1.240   1.327 -0.2276 -0.6913  0.0946
   64HFI     C1 1247   2.544   1.140   1.424  0.0881 -0.2771  0.9005
   64HFI     C2 1248   2.405   1.159   1.484 -0.1411 -0.0103  0.4504
   64HFI     F1 1249   2.314   1.157   1.393  0.1576  0.8298  0.3745
   64HFI     F2 1250   2.390   1.277   1.553  0.2685  0.1892 -0.1280
   64HFI     F3 1251   2.374   1.050   1.566 -0.3084  0.5570 -0.2992
   64HFI     C3 1252   2.659   1.139   1.529  0.3971 -0.2244 -0.6658
   64HFI     F4 1253   2.668   1.253   1.598  0.0996  0.7337 -0.0626
   64HFI     F5 1254   2.779   1.120   1.471  0.1500  0.1710 -0.4935
   64HFI     F6 1255   2.648   1.037   1.618  0.6137 -0.2109  0.1912
   64HFI     H1 1256   2.610   1.319   1.373  0.2742  0.3864 -2.0744
   64HFI     H2 1257   2.545   1.045   1.370 -3.1309  0.4292 -0.4781
   65HFI     O1 1258   0.113   1.711   1.410  0.1679 -0.5383 -0.3106
   65HFI     C1 1259   0.092   1.835   1.494  0.3493 -0.5343  0.8004
   65HFI     C2 1260  -0.056   1.864   1.501 -0.3748  0.4354  0.1827
   65HFI     F1 1261  -0.105   1.868   1.373  0.0352  0.0653 -0.0868
   65HFI     F2 1262  -0.090   1.979   1.570 -0.3268 -0.5454 -0.1540
   65HFI     F3 1263  -0.122   1.762   1.562  0.3696 -0.1153  0.1956
   65HFI     C3 1264   0.181   1.961   1.464  0.5698  0.1025  0.3130
   65HFI     F4 1265   0.164   1.998   1.329 -0.1876 -0.6370 -0.0846
   65HFI     F5 1266   0.315   1.933   1.480 -0.2344 -0.0119  0.0961
   65HFI     F6 1267   0.153   2.062   1.544  0.4885  0.6785 -0.3117
   65HFI     H1 1268   0.059   1.712   1.330  0.2679 -3.1462 -0.4466
   65HFI     H2 1269   0.129   1.814   1.595  0.2012  1.0556  1.1841
   66HFI     O1 1270   2.622   0.176   0.306 -0.3452 -0.2764  0.2860
   66HFI     C1 1271   2.523   0.253   0.388 -0.3598 -0.2454 -1.1864
   66HFI     C2 1272   2.467   0.173   0.510 -1.0188  1.2635 -0.5583
   66HFI     F1 1273   2.572   0.118   0.580  0.0417  0.2255 -0.3323
   66HFI     F2 1274   2.389   0.070   0.469  0.0768 -0.1422  0.1808
   66HFI     F3 1275   2.393   0.247   0.594 -0.1834  0.1355  0.5328
   66HFI     C3 1276   2.414   0.322   0.310  0.5642 -0.4672  0.2567
   66HFI     F4 1277   2.313   0.235   0.271 -0.0337 -0.0318  0.1318
   66HFI     F5 1278   2.463   0.384   0.204 -0.2022  0.1187  0.0638
   66HFI     F6 1279   2.357   0.427   0.378 -0.1234  0.1358  0.1018
   66HFI     H1 1280   2.592   0.084   0.296  1.5824 -0.6645 -2.6685
   66HFI     H2 1281   2.572   0.345   0.422 -3.4651  0.2119  2.2838
   67HFI     O1 1282   1.753   1.726   3.788  0.1295 -0.1357 -0.7631
   67HFI     C1 1283   1.692   1.827   3.873  0.6226  0.2418 -0.0105
   67HFI     C2 1284   1.545   1.844   3.839 -0.4445  0.3623 -0.1248
   67HFI     F1 1285   1.496   1.718   3.817  0.0813  0.2550 -0.2909
   67HFI     F2 1286   1.532   1.924   3.732 -0.3809 -0.7383  0.1455
   67HFI     F3 1287   1.472   1.894   3.932  0.0571  0.2544  0.0508
   67HFI     C3 1288   1.767   1.959   3.876  0.2249 -0.3528 -0.0807
   67HFI     F4 1289   1.890   1.944   3.931  0.5751  0.0231 -0.0230
   67HFI     F5 1290   1.702   2.052   3.956 -0.4816  0.6670 -0.2411
   67HFI     F6 1291   1.781   2.012   3.756  0.2428  0.1233 -0.2914
   67HFI     H1 1292   1.685   1.688   3.731  1.1466 -2.3269 -0.5734
   67HFI     H2 1293   1.690   1.802   3.980  0.2923  1.1168  0.1913
   68HFI     O1 1294   1.864   0.811   0.923 -0.2057  0.0698 -0.3729
   68HFI     C1 1295   1.752   0.890   0.886  0.7619  0.0009 -0.5046
   68HFI     C2 1296   1.618   0.822   0.923  1.3502 -1.1477 -0.0778
   68HFI     F1 1297   1.597   0.706   0.860  0.5922  0.3266  0.0429
   68HFI     F2 1298   1.512   0.909   0.908  0.9299  0.3353 -0.3808
   68HFI     F3 1299   1.624   0.780   1.052 -0.2076 -0.8549 -0.8418
   68HFI     C3 1300   1.745   0.938   0.739  0.1628  0.6734  0.1427
   68HFI     F4 1301   1.653   1.035   0.707  0.2470 -0.4252 -0.2244
   68HFI     F5 1302   1.736   0.842   0.642 -0.1389  0.3291  0.2097
   68HFI     F6 1303   1.869   1.001   0.717  0.1215 -0.0008  0.0019
   68HFI     H1 1304   1.875   0.736   0.862  1.3449  0.2136 -0.2919
   68HFI     H2 1305   1.746   0.980   0.948  2.0684  0.0729 -0.4497
   69HFI     O1 1306   1.048   3.186   3.535 -0.3027 -0.3684 -0.2416
   69HFI     C1 1307   1.135   3.073   3.561  0.0296  0.8149 -0.0749
   69HFI     C2 1308   1.248   3.120   3.657  0.0435 -0.4616 -0.4672
   69HFI     F1 1309   1.321   3.018   3.696  0.7400 -0.5338  0.4653
   69HFI     F2 1310   1.201   3.177   3.771  0.1961  0.2828  0.6156
   69HFI     F3 1311   1.330   3.211   3.603 -0.2599 -0.6101  0.6881
   69HFI     C3 1312   1.198   3.013   3.429  0.0580  1.1790 -0.2731
   69HFI     F4 1313   1.303   2.920   3.444  0.7452 -0.1908 -0.3805
   69HFI     F5 1314   1.241   3.118   3.347 -0.4584  0.9561 -0.1242
   69HFI     F6 1315   1.102   2.950   3.362  0.3527  0.1124 -0.2039
   69HFI     H1 1316   1.078   3.227   3.452 -0.1230 -0.4569 -0.2195
   69HFI     H2 1317   1.076   2.994   3.609  0.6191  1.5464  1.9014
   70HFI     O1 1318   0.986   2.099   1.385 -0.3631 -0.6268  0.3987
   70HFI     C1 1319   0.889   2.031   1.472 -0.2351 -0.6509  0.0753
   70HFI     C2 1320   0.915   1.875   1.486  0.0749 -0.2264  0.1944
   70HFI     F1 1321   0.884   1.810   1.375  0.1509  0.2108  0.1983
   70HFI     F2 1322   0.850   1.819   1.593 -0.0440  0.2920 -0.0701
   70HFI     F3 1323   1.045   1.850   1.499 -0.1874  0.1598 -0.0979
   70HFI     C3 1324   0.732   2.059   1.443 -0.5141 -0.4649  0.2330
   70HFI     F4 1325   0.694   2.010   1.324  0.0452 -0.0794  0.3441
   70HFI     F5 1326   0.714   2.192   1.429 -0.3709  0.6206  0.2985
   70HFI     F6 1327   0.657   2.006   1.545  0.0137 -0.1404 -0.0425
   70HFI     H1 1328   0.990   2.044   1.305  1.2771 -1.1545  0.8151
   70HFI     H2 1329   0.893   2.071   1.574  2.5976 -0.2863 -0.1415
   71HFI     O1 1330   2.052   1.690   3.756 -0.2892 -0.0754 -0.3444
   71HFI     C1 1331   2.124   1.644   3.875  1.1343 -0.3370 -0.7340
   71HFI     C2 1332   2.038   1.548   3.966 -0.3251  0.0202 -0.0796
   71HFI     F1 1333   1.930   1.624   4.008  0.3481  0.4235 -0.1311
   71HFI     F2 1334   2.108   1.509   4.078  0.2598 -0.1625 -0.2231
   71HFI     F3 1335   1.994   1.435   3.910 -0.6288 -0.0892  0.6358
   71HFI     C3 1336   2.202   1.754   3.947  0.0572 -1.0250  0.2553
   71HFI     F4 1337   2.123   1.827   4.030  0.3778  0.0029 -0.2560
   71HFI     F5 1338   2.273   1.840   3.868  0.1787 -0.8542 -0.0028
   71HFI     F6 1339   2.297   1.705   4.024  0.3107 -0.1306 -0.4687
   71HFI     H1 1340   1.967   1.724   3.789 -0.8207 -2.2677  0.6564
   71HFI     H2 1341   2.208   1.584   3.837  1.7777  0.2853 -0.2963
   72HFI     O1 1342   2.435   1.178   3.646 -0.3904 -0.1392 -0.4929
   72HFI     C1 1343   2.296   1.199   3.614  0.1252 -0.3750  0.5581
   72HFI     C2 1344   2.270   1.322   3.514 -0.3133  0.3855 -0.4125
   72HFI     F1 1345   2.144   1.301   3.475  0.1820 -0.1890 -0.3187
   72HFI     F2 1346   2.346   1.331   3.411 -0.1297 -0.2036  0.2530
   72HFI     F3 1347   2.275   1.437   3.583  0.2015  0.0779 -0.7038
   72HFI     C3 1348   2.203   1.195   3.735 -0.3965 -0.1662 -0.0345
   72HFI     F4 1349   2.206   1.080   3.807 -1.0475  0.5167  0.0187
   72HFI     F5 1350   2.077   1.215   3.709  0.0583 -0.1628 -0.6369
   72HFI     F6 1351   2.249   1.284   3.820 -0.0786  0.6466  0.0847
   72HFI     H1 1352   2.445   1.108   3.712  3.7845 -2.0587 -2.9718
   72HFI     H2 1353   2.268   1.115   3.549 -0.8718 -1.0214  1.7942
   73HFI     O1 1354   1.398   0.259   3.354  0.0691 -0.4841  0.1327
   73HFI     C1 1355   1.299   0.208   3.449 -0.2217  0.6400 -0.2017
   73HFI     C2 1356   1.259   0.069   3.421 -0.0932 -0.2274 -0.1136
   73HFI     F1 1357   1.160   0.035   3.501  0.2109 -0.3000  0.0473
   73HFI     F2 1358   1.356  -0.023   3.445 -0.9236 -0.5532  0.0387
   73HFI     F3 1359   1.224   0.034   3.295 -0.0730 -0.6061  0.1020
   73HFI     C3 1360   1.187   0.311   3.446 -0.4536  0.3727 -0.0890
   73HFI     F4 1361   1.096   0.277   3.537 -0.0187  0.4823  0.5059
   73HFI     F5 1362   1.127   0.324   3.326 -0.2372  0.2247  0.0894
   73HFI     F6 1363   1.231   0.436   3.485 -0.0128 -0.1555 -0.2636
   73HFI     H1 1364   1.452   0.182   3.329  0.1503 -0.6364  0.7937
   73HFI     H2 1365   1.355   0.217   3.544 -1.1589  0.7483  0.3483
   74HFI     O1 1366   1.919   2.621   1.400 -0.1293 -0.0882 -0.3877
   74HFI     C1 1367   1.837   2.528   1.489  0.4147 -0.8406  0.4150
   74HFI     C2 1368   1.910   2.403   1.514 -0.4355  0.8935  0.2159
   74HFI     F1 1369   1.925   2.335   1.392  0.2408 -0.4069 -0.0283
   74HFI     F2 1370   1.854   2.321   1.613 -0.5579  0.0363  0.1317
   74HFI     F3 1371   2.035   2.428   1.563  0.2188 -0.5266  0.6612
   74HFI     C3 1372   1.690   2.522   1.454 -0.0234 -0.3345  0.2336
   74HFI     F4 1373   1.670   2.492   1.323  0.5149 -0.3119  0.0659
   74HFI     F5 1374   1.632   2.644   1.479 -0.1079 -0.1019  0.3495
   74HFI     F6 1375   1.622   2.441   1.538 -0.3538 -0.2273 -0.2468
   74HFI     H1 1376   1.890   2.603   1.309 -1.2261  0.7933 -0.2180
   74HFI     H2 1377   1.841   2.570   1.591 -0.6902  0.4887 -0.0766
   75HFI     O1 1378   0.728   3.380   1.149 -0.3740 -0.0507 -0.3995
   75HFI     C1 1379   0.802   3.455   1.055 -0.4937 -0.0750  0.3612
   75HFI     C2 1380   0.730   3.576   0.989  0.1558 -0.1574 -0.0419
   75HFI     F1 1381   0.651   3.644   1.081  0.0929 -0.0943  0.6041
   75HFI     F2 1382   0.641   3.546   0.885  0.6377  0.2749 -0.3865
   75HFI     F3 1383   0.825   3.664   0.948 -0.0742 -0.0614 -0.3362
   75HFI     C3 1384   0.867   3.365   0.954  0.3129  0.0233 -0.3808
   75HFI     F4 1385   0.919   3.432   0.845  0.3239 -0.8059 -0.1929
   75HFI     F5 1386   0.766   3.284   0.908 -0.1839  0.2044 -0.2334
   75HFI     F6 1387   0.964   3.285   1.003  0.3834  0.6121 -0.6288
   75HFI     H1 1388   0.685   3.304   1.106 -0.8465  0.3751 -0.6930
   75HFI     H2 1389   0.882   3.495   1.118  1.0285 -0.3665 -1.3437
   76HFI     O1 1390   3.121   0.423   0.832 -0.3966  0.2646 -0.0580
   76HFI     C1 1391   3.106   0.300   0.916  0.7665 -0.3665  0.5851
   76HFI     C2 1392   3.048   0.193   0.817 -0.2105 -0.8054  0.5499
   76HFI     F1 1393   2.920   0.224   0.776  0.3913 -0.2195  0.1965
   76HFI     F2 1394   3.044   0.069   0.870 -0.8697 -0.3427 -0.3321
   76HFI     F3 1395   3.132   0.182   0.707 -0.0973  0.0243 -0.8555
   76HFI     C3 1396   3.028   0.323   1.042  0.6140 -0.3800 -0.0155
   76HFI     F4 1397   3.006   0.207   1.107 -0.3741  0.0069 -0.0231
   76HFI     F5 1398   2.906   0.377   1.016  0.1046  0.2157  0.0256
   76HFI     F6 1399   3.086   0.407   1.126  0.0452 -0.2499 -0.1498
   76HFI     H1 1400   3.065   0.502   0.841  0.1414  0.5221  1.1636
   76HFI     H2 1401   3.204   0.260   0.943  1.0825 -0.6142 -0.9038
   77HFI     O1 1402   1.047   1.686   0.310 -0.2596  0.4011  0.3223
   77HFI     C1 1403   0.932   1.676   0.402  0.7641 -0.3278  0.1445
   77HFI     C2 1404   0.942   1.785   0.506  0.1635  0.0628  0.1602
   77HFI     F1 1405   1.050   1.770   0.589  0.3380 -0.1610 -0.2941
   77HFI     F2 1406   0.830   1.786   0.579  0.6763 -0.1207 -0.0350
   77HFI     F3 1407   0.948   1.906   0.438  0.0868  0.1575 -0.4502
   77HFI     C3 1408   0.924   1.526   0.464  0.2673  0.0904  0.4780
   77HFI     F4 1409   0.876   1.440   0.367  0.3137  0.0685  0.1361
   77HFI     F5 1410   0.837   1.525   0.568 -0.7288 -0.1771 -0.3910
   77HFI     F6 1411   1.040   1.472   0.506 -0.4262  0.5440 -0.1011
   77HFI     H1 1412   1.122   1.710   0.367 -0.0307  1.8571 -0.5860
   77HFI     H2 1413   0.838   1.698   0.350  0.3099 -0.1922  1.0164
   78HFI     O1 1414   1.869   2.107   0.711  0.5243  0.0842  0.5205
   78HFI     C1 1415   1.840   2.231   0.649 -0.4767  0.3437  0.1637
   78HFI     C2 1416   1.837   2.222   0.492  0.6683 -0.0777  0.4036
   78HFI     F1 1417   1.763   2.314   0.435  0.1808  0.2244 -0.0745
   78HFI     F2 1418   1.782   2.097   0.459  0.0525 -0.2305  0.3525
   78HFI     F3 1419   1.956   2.225   0.429 -0.0627  0.1711 -0.8525
   78HFI     C3 1420   1.935   2.345   0.695  0.2559 -0.0185  0.3922
   78HFI     F4 1421   1.873   2.461   0.663  0.3799  0.2432  0.1969
   78HFI     F5 1422   2.065   2.339   0.646  0.0346  0.3538 -0.0884
   78HFI     F6 1423   1.948   2.344   0.831  0.6308 -0.2554  0.4005
   78HFI     H1 1424   1.965   2.096   0.722  0.5561  0.8403  1.0648
   78HFI     H2 1425   1.740   2.269   0.672  0.3248  1.5996  1.6225
   79HFI     O1 1426   3.136   3.209   0.326 -0.0450 -0.2723 -0.4341
   79HFI     C1 1427   3.133   3.086   0.413  0.5618  0.0812 -0.0553
   79HFI     C2 1428   3.018   2.985   0.386  0.0004 -0.4775  0.0159
   79HFI     F1 1429   3.033   2.933   0.264 -0.9163 -0.1499  0.1103
   79HFI     F2 1430   2.902   3.040   0.407  0.0964  0.5428 -0.1260
   79HFI     F3 1431   3.027   2.880   0.468  0.2784  0.2749  0.5153
   79HFI     C3 1432   3.145   3.117   0.570  0.5594 -0.3788 -0.1835
   79HFI     F4 1433   3.025   3.105   0.627  0.0191 -0.2296 -0.5634
   79HFI     F5 1434   3.188   3.243   0.601 -0.0994  0.4121 -0.9948
   79HFI     F6 1435   3.225   3.038   0.638 -0.1218  0.3255 -0.1973
   79HFI     H1 1436   3.044   3.232   0.304 -0.1799  0.0302  0.4536
   79HFI     H2 1437   3.228   3.032   0.400  0.8578  0.5677  0.0595
   80HFI     O1 1438   3.316   1.179   3.005 -0.3124  0.5976  0.4137
   80HFI     C1 1439   3.377   1.046   3.010 -0.2111 -0.3713 -0.4315
   80HFI     C2 1440   3.433   1.004   2.878 -0.1955  0.4789  0.6760
   80HFI     F1 1441   3.332   0.993   2.791  0.1584 -0.0697 -0.1055
   80HFI     F2 1442   3.491   0.883   2.886  0.4694 -0.1785 -0.5834
   80HFI     F3 1443   3.519   1.100   2.828  0.8246 -0.0649 -0.0139
   80HFI     C3 1444   3.268   0.959   3.065 -0.2278  0.5286 -0.4214
   80HFI     F4 1445   3.152   0.964   3.000 -0.2083  0.5462  0.3079
   80HFI     F5 1446   3.239   0.990   3.194  0.2965  0.1749 -0.0926
   80HFI     F6 1447   3.309   0.829   3.062  0.3442 -0.0012  0.6823
   80HFI     H1 1448   3.221   1.165   2.987  0.1355  0.8296 -2.4057
   80HFI     H2 1449   3.457   1.046   3.085 -1.7828  3.7492  1.4448
   81HFI     O1 1450   0.258   0.884   1.323  0.1260  0.3693  0.4832
   81HFI     C1 1451   0.243   1.025   1.366 -0.3221  0.7903 -0.1596
   81HFI     C2 1452   0.214   1.022   1.518  0.0267 -0.0028  0.2142
   81HFI     F1 1453   0.327   1.003   1.589  0.3150  0.5766 -0.1337
   81HFI     F2 1454   0.134   0.920   1.558 -0.1149 -0.0894  0.4631
   81HFI     F3 1455   0.161   1.144   1.562 -0.3616 -0.2709 -0.1209
   81HFI     C3 1456   0.118   1.083   1.287  0.7573 -0.2851  0.3237
   81HFI     F4 1457   0.078   1.208   1.308 -0.8550  0.0636  0.2407
   81HFI     F5 1458   0.007   1.010   1.307  0.2840  0.4559 -0.1569
   81HFI     F6 1459   0.134   1.071   1.150  0.1211  0.5584 -0.1139
   81HFI     H1 1460   0.176   0.836   1.346  0.8519  0.1161  2.7084
   81HFI     H2 1461   0.335   1.081   1.343  2.5904 -3.4603  0.5736
   82HFI     O1 1462   1.032   0.565   1.351  0.8787  0.5490 -0.3021
   82HFI     C1 1463   0.946   0.449   1.365  1.3042  0.2145  0.1567
   82HFI     C2 1464   0.926   0.412   1.516 -0.4278 -0.1060  0.3702
   82HFI     F1 1465   0.813   0.338   1.539  0.3247 -0.4897 -0.0454
   82HFI     F2 1466   0.913   0.524   1.586  0.0975 -0.4137  0.9411
   82HFI     F3 1467   1.025   0.343   1.571 -0.0334 -0.0843  0.5303
   82HFI     C3 1468   0.995   0.326   1.284  0.7582 -0.2633  0.5663
   82HFI     F4 1469   1.123   0.303   1.312  0.1019  0.0236 -1.0016
   82HFI     F5 1470   0.998   0.364   1.151 -0.0281  0.4789 -0.0500
   82HFI     F6 1471   0.920   0.210   1.297  0.3228  0.1935 -0.2804
   82HFI     H1 1472   1.009   0.612   1.433 -1.1911 -0.1495 -0.4598
   82HFI     H2 1473   0.848   0.479   1.324  0.4661 -2.3706  0.2157
   83HFI     O1 1474   2.353   0.071   1.092 -0.3362  0.1283  0.9349
   83HFI     C1 1475   2.347   0.190   1.003 -0.1209 -0.0923 -0.8455
   83HFI     C2 1476   2.399   0.316   1.085  0.7414 -0.2561  0.0399
   83HFI     F1 1477   2.340   0.435   1.049  0.2141 -0.0318 -0.4676
   83HFI     F2 1478   2.528   0.335   1.066 -0.3807  0.9200 -0.1923
   83HFI     F3 1479   2.376   0.297   1.215  0.3576 -0.5951  0.2725
   83HFI     C3 1480   2.213   0.203   0.939 -0.0322 -0.4256  0.3855
   83HFI     F4 1481   2.194   0.319   0.863 -0.2244 -0.3587 -0.3333
   83HFI     F5 1482   2.116   0.199   1.035  0.5352  0.1286 -0.2899
   83HFI     F6 1483   2.189   0.088   0.860  0.1883  0.1110 -0.5246
   83HFI     H1 1484   2.370  -0.007   1.036  0.1979 -0.0497  1.3413
   83HFI     H2 1485   2.411   0.193   0.914  1.1395 -0.8268  0.0266
   84HFI     O1 1486   1.932   2.623   2.878  0.7230  0.6979  0.4189
   84HFI     C1 1487   2.030   2.728   2.898  0.0435 -0.8333 -0.2509
   84HFI     C2 1488   1.991   2.824   3.017 -0.1932 -0.6800  0.3214
   84HFI     F1 1489   1.863   2.864   3.004  0.4536  0.1166  0.3411
   84HFI     F2 1490   2.063   2.933   3.022 -0.0961  0.3701 -0.2303
   84HFI     F3 1491   2.007   2.760   3.130  0.1050 -0.0864 -0.1752
   84HFI     C3 1492   2.075   2.796   2.765  0.1170 -0.0023  0.3120
   84HFI     F4 1493   2.092   2.699   2.664  0.1638 -0.2166 -0.0213
   84HFI     F5 1494   2.193   2.861   2.778  0.3267 -0.4382  0.0168
   84HFI     F6 1495   1.985   2.883   2.722  0.1803  0.6112 -0.1945
   84HFI     H1 1496   1.858   2.663   2.829  0.5751 -2.4765 -2.0607
   84HFI     H2 1497   2.120   2.679   2.938 -0.7690 -0.5626  2.0020
   85HFI     O1 1498   1.195   2.319   1.578  0.9881 -0.3619  0.7775
   85HFI     C1 1499   1.127   2.448   1.550  0.1875 -0.4267 -0.4639
   85HFI     C2 1500   0.979   2.421   1.522  0.2365  0.2146 -0.6072
   85HFI     F1 1501   0.918   2.331   1.615  0.0876 -0.0745 -0.0999
   85HFI     F2 1502   0.961   2.365   1.401 -0.3359  0.5917  0.2164
   85HFI     F3 1503   0.911   2.544   1.529  0.2858  0.1866  0.4965
   85HFI     C3 1504   1.201   2.514   1.428 -0.0885 -0.8648  0.4634
   85HFI     F4 1505   1.138   2.631   1.384 -0.1649  0.5091 -0.8769
   85HFI     F5 1506   1.208   2.436   1.318 -0.0513  0.0006  0.5886
   85HFI     F6 1507   1.328   2.544   1.466  0.0538  0.1649  0.6861
   85HFI     H1 1508   1.233   2.285   1.495 -1.2516  1.1627 -0.9284
   85HFI     H2 1509   1.124   2.519   1.634  0.0033 -2.3079  1.1308
   86HFI     O1 1510   2.656   3.046   1.493 -0.2175  0.0010  0.0179
   86HFI     C1 1511   2.764   2.988   1.425  0.4677 -0.3353 -0.5137
   86HFI     C2 1512   2.876   2.941   1.523 -0.3441 -0.5402  0.6044
   86HFI     F1 1513   2.921   3.042   1.595 -0.5813  0.4223 -0.0516
   86HFI     F2 1514   2.979   2.897   1.444 -0.0216  0.3913 -0.3743
   86HFI     F3 1515   2.832   2.848   1.607 -0.2974  0.0148 -0.4512
   86HFI     C3 1516   2.812   3.072   1.307  0.9936 -0.8844  0.1475
   86HFI     F4 1517   2.885   3.179   1.348 -0.0509 -0.4563 -0.1351
   86HFI     F5 1518   2.706   3.120   1.240  0.2478  0.4502 -0.1607
   86HFI     F6 1519   2.887   3.011   1.214 -0.1465  0.3648  0.0990
   86HFI     H1 1520   2.672   3.137   1.521  3.1515  0.5470 -3.2855
   86HFI     H2 1521   2.733   2.894   1.379  0.0849 -0.2887 -0.3494
   87HFI     O1 1522   2.298   2.903   0.457  0.0648 -0.2876 -0.3097
   87HFI     C1 1523   2.188   2.802   0.475  0.0930 -1.1145  0.2722
   87HFI     C2 1524   2.094   2.842   0.599  0.9585 -0.2669 -0.5976
   87HFI     F1 1525   2.156   2.838   0.726 -0.1801 -0.3414 -0.2732
   87HFI     F2 1526   1.986   2.763   0.606  0.2079  0.1535 -0.7293
   87HFI     F3 1527   2.051   2.970   0.573 -0.1955  0.0233  0.0464
   87HFI     C3 1528   2.242   2.657   0.477  0.8926 -0.2816  0.1215
   87HFI     F4 1529   2.314   2.630   0.367  0.6826 -0.7995  0.0614
   87HFI     F5 1530   2.145   2.566   0.481 -0.2235  0.0954  0.2818
   87HFI     F6 1531   2.325   2.639   0.584 -0.2607 -1.1661 -0.1167
   87HFI     H1 1532   2.370   2.884   0.520 -1.6448 -0.1845  1.7313
   87HFI     H2 1533   2.125   2.805   0.386  3.1145  0.3852 -1.9265
   88HFI     O1 1534   2.364   0.105   3.429  0.2617 -0.0488 -0.2615
   88HFI     C1 1535   2.337   0.113   3.572 -0.1130  0.1578 -0.2876
   88HFI     C2 1536   2.465   0.146   3.657 -0.1353 -0.8531  0.5863
   88HFI     F1 1537   2.443   0.194   3.788  0.1583 -0.3006  0.3782
   88HFI     F2 1538   2.531   0.243   3.599 -0.0792 -0.4509 -0.2855
   88HFI     F3 1539   2.553   0.047   3.662  0.3234 -0.0247 -0.1275
   88HFI     C3 1540   2.276  -0.022   3.632 -0.0394 -0.3099 -0.2079
   88HFI     F4 1541   2.339  -0.128   3.608  0.5536  0.4086 -0.5218
   88HFI     F5 1542   2.153  -0.030   3.572  0.1059  0.1753 -0.4005
   88HFI     F6 1543   2.244  -0.004   3.765 -0.2755  0.3614 -0.2866
   88HFI     H1 1544   2.378   0.011   3.412  1.2199 -0.2717  1.5392
   88HFI     H2 1545   2.267   0.192   3.600 -3.6394 -1.5218 -3.9516
   89HFI     O1 1546   3.062   1.357   1.316  0.4234 -0.5288 -0.0590
   89HFI     C1 1547   3.174   1.310   1.398 -0.2547 -0.0744 -0.2819
   89HFI     C2 1548   3.119   1.190   1.486 -0.7082 -0.4075 -0.3236
   89HFI     F1 1549   3.078   1.095   1.395 -0.7403  0.0219 -0.0463
   89HFI     F2 1550   3.016   1.226   1.561 -0.8434 -0.1449  0.5332
   89HFI     F3 1551   3.219   1.134   1.563 -0.0178 -0.4178 -0.1727
   89HFI     C3 1552   3.246   1.426   1.475 -0.1664 -0.5202  0.3392
   89HFI     F4 1553   3.158   1.499   1.556  0.3428  0.5660  0.4442
   89HFI     F5 1554   3.311   1.513   1.390  0.2697  0.1257  0.2004
   89HFI     F6 1555   3.340   1.380   1.555  0.0436  0.4727 -0.0518
   89HFI     H1 1556   3.079   1.328   1.225  3.2232 -0.5603  0.4118
   89HFI     H2 1557   3.255   1.265   1.339  0.0758  0.6395 -0.3724
   90HFI     O1 1558   0.731   1.255   0.778  0.7068  0.0340  0.0550
   90HFI     C1 1559   0.713   1.336   0.898 -0.4388 -0.5875 -0.0378
   90HFI     C2 1560   0.786   1.288   1.021 -0.0208 -0.1393 -0.1513
   90HFI     F1 1561   0.789   1.392   1.112 -0.2153  0.0768 -0.2160
   90HFI     F2 1562   0.912   1.259   0.996 -0.2101 -0.0140  0.4509
   90HFI     F3 1563   0.726   1.180   1.089 -0.1204 -0.1297  0.4482
   90HFI     C3 1564   0.563   1.355   0.925  0.5973 -0.8580 -0.2830
   90HFI     F4 1565   0.495   1.238   0.928 -0.4689 -0.1264  0.0591
   90HFI     F5 1566   0.511   1.420   0.820  0.0549 -0.1636 -0.1862
   90HFI     F6 1567   0.528   1.425   1.037  0.7552 -0.4614 -0.1746
   90HFI     H1 1568   0.823   1.271   0.749  0.6326 -1.5951 -1.1101
   90HFI     H2 1569   0.747   1.441   0.894  0.4873 -0.7329  2.6415
   91HFI     O1 1570   1.024   2.277   0.892  0.1385 -0.0374 -0.3680
   91HFI     C1 1571   0.877   2.271   0.882 -0.4579  0.0462  0.2169
   91HFI     C2 1572   0.805   2.324   1.015 -0.5023  0.7345 -0.3765
   91HFI     F1 1573   0.672   2.321   1.006  0.1247 -0.2309  0.2114
   91HFI     F2 1574   0.842   2.451   1.044  0.5362  0.3363  0.1101
   91HFI     F3 1575   0.841   2.246   1.122  0.3213 -0.0535 -0.5163
   91HFI     C3 1576   0.832   2.122   0.836  0.3222 -0.2516 -0.1502
   91HFI     F4 1577   0.918   2.082   0.732 -0.2656 -0.4668 -0.4928
   91HFI     F5 1578   0.703   2.125   0.781 -0.1503  0.3675 -0.4169
   91HFI     F6 1579   0.839   2.027   0.931 -0.0390 -0.3445  0.1020
   91HFI     H1 1580   1.048   2.371   0.882  1.0217  0.1909  3.3310
   91HFI     H2 1581   0.841   2.333   0.799  1.2777  0.4914 -0.2471
   92HFI     O1 1582   2.568   3.232   0.893  0.2657  0.4704 -0.1744
   92HFI     C1 1583   2.588   3.277   0.754  0.2525  0.2159 -0.4153
   92HFI     C2 1584   2.488   3.183   0.669  0.3842  0.8401  0.3489
   92HFI     F1 1585   2.367   3.189   0.712  0.4021  0.0881 -0.4316
   92HFI     F2 1586   2.528   3.053   0.668 -0.2388  0.6911  0.4967
   92HFI     F3 1587   2.478   3.218   0.540  0.5905  0.3948  0.6019
   92HFI     C3 1588   2.737   3.264   0.713 -0.2852  0.0885  0.5961
   92HFI     F4 1589   2.816   3.335   0.798  0.0279 -0.0011 -0.4631
   92HFI     F5 1590   2.770   3.307   0.588  0.5915 -0.0619 -0.2860
   92HFI     F6 1591   2.782   3.137   0.717 -0.2886 -0.0397  0.5970
   92HFI     H1 1592   2.647   3.180   0.914 -0.0590 -0.7369 -1.8793
   92HFI     H2 1593   2.571   3.385   0.746  0.0246  0.0342 -2.8599
   93HFI     O1 1594   0.500   1.707   1.024 -0.3714  0.1023  0.2381
   93HFI     C1 1595   0.395   1.748   0.936  0.4299  0.5007  0.3442
   93HFI     C2 1596   0.396   1.911   0.942 -0.3248 -0.0690  0.4968
   93HFI     F1 1597   0.409   1.954   1.069 -0.0045  0.0114  0.4762
   93HFI     F2 1598   0.284   1.968   0.891 -0.0301  0.0156 -0.2304
   93HFI     F3 1599   0.493   1.970   0.866 -0.1031  0.2769  0.3029
   93HFI     C3 1600   0.259   1.682   0.968 -0.1550 -0.7534 -1.0099
   93HFI     F4 1601   0.158   1.712   0.886 -0.2027 -0.6017  0.6110
   93HFI     F5 1602   0.220   1.705   1.100 -0.1871 -0.1927  0.1837
   93HFI     F6 1603   0.279   1.548   0.951 -0.7744 -0.2702 -0.5982
   93HFI     H1 1604   0.502   1.768   1.100  3.0110 -2.1072  2.0360
   93HFI     H2 1605   0.407   1.709   0.834 -1.0228 -0.1960  0.4322
   94HFI     O1 1606   0.135   0.814   0.139 -0.4454  1.0246 -0.0118
   94HFI     C1 1607   0.151   0.921   0.032  1.4038  0.2552 -0.3240
   94HFI     C2 1608   0.243   1.032   0.076  0.7284 -0.4346 -0.3369
   94HFI     F1 1609   0.354   0.976   0.119 -0.4088  0.2867 -0.0630
   94HFI     F2 1610   0.190   1.108   0.171  0.2096 -0.7228 -0.1036
   94HFI     F3 1611   0.279   1.119  -0.017 -0.2707 -0.5632 -0.1606
   94HFI     C3 1612   0.012   0.970  -0.029 -0.0915  0.1338  0.1266
   94HFI     F4 1613   0.027   1.037  -0.140 -0.0250  0.2619 -0.4392
   94HFI     F5 1614  -0.059   1.047   0.055  0.1945  0.2231  0.5108
   94HFI     F6 1615  -0.062   0.857  -0.065  0.3432 -0.4984  0.4120
   94HFI     H1 1616   0.110   0.731   0.095  0.7704 -0.4837  2.0665
   94HFI     H2 1617   0.208   0.876  -0.051  0.2559 -0.2877 -0.8296
   95HFI     O1 1618   2.883   2.623   0.542  0.7222  0.0097  0.1903
   95HFI     C1 1619   2.773   2.635   0.443  0.5765  0.5943 -0.2432
   95HFI     C2 1620   2.668   2.732   0.502  0.4470 -0.2723 -0.0454
   95HFI     F1 1621   2.720   2.856   0.521  0.4692  0.3730 -0.5636
   95HFI     F2 1622   2.625   2.696   0.620 -0.0824 -0.1982  0.2485
   95HFI     F3 1623   2.561   2.752   0.421 -0.2078 -0.2177  0.7530
   95HFI     C3 1624   2.722   2.491   0.410 -0.2538 -0.0272 -0.4201
   95HFI     F4 1625   2.686   2.422   0.520 -0.1118 -0.2484  0.2387
   95HFI     F5 1626   2.823   2.425   0.346  0.0147  0.2062 -0.4560
   95HFI     F6 1627   2.615   2.505   0.328 -0.2642  0.3312 -0.6574
   95HFI     H1 1628   2.861   2.677   0.620  1.5197 -0.7912  0.9785
   95HFI     H2 1629   2.811   2.675   0.348 -0.9462  1.3863 -0.5466
   96HFI     O1 1630   1.109   0.368   3.042  0.3914 -0.3726  0.1146
   96HFI     C1 1631   1.097   0.512   3.014 -0.0552  0.1925 -0.6196
   96HFI     C2 1632   1.215   0.557   2.922  0.1654  0.0125  0.3686
   96HFI     F1 1633   1.200   0.499   2.798 -0.0831  1.0211  0.1397
   96HFI     F2 1634   1.336   0.522   2.974  0.4851  1.0180 -0.2047
   96HFI     F3 1635   1.215   0.692   2.908 -0.0424  0.3422 -0.3569
   96HFI     C3 1636   1.085   0.591   3.146  0.0010  0.6100  0.2855
   96HFI     F4 1637   0.984   0.533   3.226  0.0382 -0.2808 -0.0060
   96HFI     F5 1638   1.044   0.721   3.127  0.0721  0.4579  0.2219
   96HFI     F6 1639   1.198   0.600   3.221 -0.0818  0.0575  0.1553
   96HFI     H1 1640   1.125   0.346   3.135 -0.9742 -2.7787 -0.1905
   96HFI     H2 1641   1.010   0.530   2.950  0.3743  1.6199 -0.8103
   97HFI     O1 1642   1.802   0.647   1.314  0.2180 -0.4136 -0.0949
   97HFI     C1 1643   1.934   0.582   1.336 -0.1663 -0.6151  0.1982
   97HFI     C2 1644   1.955   0.480   1.228  0.0242  0.3198 -0.4961
   97HFI     F1 1645   1.888   0.366   1.251 -0.2459 -0.2724 -0.1519
   97HFI     F2 1646   2.084   0.448   1.223 -0.2238  0.1872 -0.7120
   97HFI     F3 1647   1.908   0.524   1.105  0.0349 -0.0356 -0.1718
   97HFI     C3 1648   1.960   0.542   1.482  0.4146  0.8999 -0.2965
   97HFI     F4 1649   1.987   0.654   1.558  0.2756  0.0648 -0.3310
   97HFI     F5 1650   2.065   0.452   1.494  0.2292  0.3025 -0.0363
   97HFI     F6 1651   1.847   0.493   1.536 -0.2318 -0.3178 -0.1632
   97HFI     H1 1652   1.811   0.691   1.228 -0.6937  2.4782  1.2501
   97HFI     H2 1653   2.004   0.664   1.313 -0.9503  0.3211  1.0793
   98HFI     O1 1654   0.397   1.682   1.318 -0.2084 -0.5707 -0.4147
   98HFI     C1 1655   0.450   1.560   1.383 -0.3029 -0.2385 -0.2352
   98HFI     C2 1656   0.345   1.448   1.377 -0.0998  0.0188 -1.1137
   98HFI     F1 1657   0.270   1.430   1.482 -0.1111  0.1876  0.6944
   98HFI     F2 1658   0.411   1.326   1.359 -0.0915 -0.1264  0.7931
   98HFI     F3 1659   0.263   1.450   1.268 -0.6497  0.1132  0.8689
   98HFI     C3 1660   0.505   1.591   1.519  0.1718  0.1502  0.0740
   98HFI     F4 1661   0.398   1.662   1.577 -0.4143 -0.0477 -0.3244
   98HFI     F5 1662   0.621   1.671   1.521 -0.4073 -0.1071  0.1899
   98HFI     F6 1663   0.534   1.483   1.590  0.2078  0.0439  0.5960
   98HFI     H1 1664   0.301   1.671   1.327  0.0181 -1.2189  1.4188
   98HFI     H2 1665   0.528   1.515   1.320 -1.6246 -1.7331 -0.8585
   99HFI     O1 1666   2.139   3.226   0.486  0.4286  0.1101 -0.9971
   99HFI     C1 1667   2.054   3.269   0.364  0.7416 -0.0777 -0.7953
   99HFI     C2 1668   2.051   3.166   0.245 -0.2846 -0.0060  0.1173
   99HFI     F1 1669   2.033   3.039   0.288  0.4591  0.0367  0.8477
   99HFI     F2 1670   2.170   3.168   0.180 -0.4229 -0.0271 -0.1559
   99HFI     F3 1671   1.950   3.191   0.148 -0.0357  0.0787 -0.1486
   99HFI     C3 1672   2.090   3.406   0.319  0.7025  0.1532  0.5175
   99HFI     F4 1673   2.011   3.438   0.218  0.0352 -0.2149  0.5126
   99HFI     F5 1674   2.219   3.414   0.276  0.6565  0.0388 -0.2392
   99HFI     F6 1675   2.068   3.492   0.418  0.3420 -0.2716  0.2593
   99HFI     H1 1676   2.101   3.149   0.533  1.4529  0.4819  0.4663
   99HFI     H2 1677   1.955   3.280   0.411  2.3058  1.5607  2.3078
  100HFI     O1 1678   1.545   2.013   0.940 -0.5453  1.0946 -0.0156
  100HFI     C1 1679   1.574   2.072   1.070 -0.1809  0.2459  0.0567
  100HFI     C2 1680   1.560   2.225   1.060  0.3457 -0.1650 -0.6715
  100HFI     F1 1681   1.427   2.264   1.042 -0.3109 -0.1541  0.4730
  100HFI     F2 1682   1.627   2.261   0.949  0.2085  0.3228 -0.1629
  100HFI     F3 1683   1.613   2.301   1.161  0.2057 -0.3433  0.2111
  100HFI     C3 1684   1.721   2.027   1.125  0.2717  0.1848  0.3049
  100HFI     F4 1685   1.818   2.032   1.032 -0.3530 -0.4716 -0.0022
  100HFI     F5 1686   1.715   1.896   1.165 -0.0931 -0.6869 -0.1834
  100HFI     F6 1687   1.757   2.088   1.230  0.2166  0.0999 -0.2868
  100HFI     H1 1688   1.600   2.052   0.869 -1.2335  0.6628 -0.7984
  100HFI     H2 1689   1.505   2.042   1.150 -0.9793  3.8497  0.7814
  101HFI     O1 1690   1.256   0.327   0.227 -0.1494  0.4614  0.5850
  101HFI     C1 1691   1.294   0.184   0.198  0.0274  1.1180 -0.3309
  101HFI     C2 1692   1.425   0.136   0.278 -0.3598 -0.1925  0.3723
  101HFI     F1 1693   1.415   0.154   0.411  0.2380 -0.6666  0.1945
  101HFI     F2 1694   1.531   0.207   0.240  0.5738 -0.2356  0.2232
  101HFI     F3 1695   1.448   0.004   0.254  0.0706  0.7344 -0.3186
  101HFI     C3 1696   1.291   0.167   0.045  0.4802  0.0091 -0.3553
  101HFI     F4 1697   1.385   0.240  -0.012 -0.1494 -0.6054  0.4847
  101HFI     F5 1698   1.177   0.203  -0.020 -0.3037 -0.1280 -0.4134
  101HFI     F6 1699   1.327   0.041   0.009 -0.2672  0.4051  0.3926
  101HFI     H1 1700   1.162   0.341   0.209 -0.1211  0.8025  0.7071
  101HFI     H2 1701   1.214   0.119   0.237  1.1322  0.0448  0.1689
  102HFI     O1 1702   3.138   2.210   0.542 -0.1086  0.0415 -0.0845
  102HFI     C1 1703   3.275   2.247   0.518 -0.6062 -0.3630  0.1035
  102HFI     C2 1704   3.299   2.330   0.383  0.1177  0.0854  0.6985
  102HFI     F1 1705   3.413   2.406   0.383  0.4290  0.3583  0.0147
  102HFI     F2 1706   3.191   2.414   0.366 -0.3447 -0.1567  0.1796
  102HFI     F3 1707   3.311   2.252   0.270 -0.2400 -0.1577 -0.4541
  102HFI     C3 1708   3.366   2.122   0.514 -0.2696  0.5842  0.3730
  102HFI     F4 1709   3.308   2.031   0.430  0.0233  0.0908  0.0397
  102HFI     F5 1710   3.364   2.068   0.637 -0.3265  0.2600  0.6979
  102HFI     F6 1711   3.489   2.148   0.474  0.7195  0.3439 -0.0905
  102HFI     H1 1712   3.130   2.113   0.545  0.8877 -0.0521 -0.2825
  102HFI     H2 1713   3.309   2.329   0.583 -4.7112  1.6782 -0.0891
  103HFI     O1 1714   2.037   1.197   1.226 -0.4262 -0.1801 -0.1933
  103HFI     C1 1715   1.993   1.151   1.353 -0.5455 -0.2037 -0.4395
  103HFI     C2 1716   1.890   1.037   1.339 -0.3745 -0.5260 -0.5312
  103HFI     F1 1717   1.829   1.009   1.457  0.0920 -0.7085  0.0670
  103HFI     F2 1718   1.952   0.928   1.292  0.0670  0.1221 -0.1434
  103HFI     F3 1719   1.788   1.071   1.252 -0.0682 -0.4301  0.2174
  103HFI     C3 1720   1.946   1.269   1.445 -0.0906 -0.5469 -0.0720
  103HFI     F4 1721   1.821   1.313   1.402 -0.0617  0.0484 -0.6819
  103HFI     F5 1722   2.033   1.372   1.439 -0.0577  0.5917  0.3002
  103HFI     F6 1723   1.942   1.226   1.571  0.4705 -0.0051 -0.7328
  103HFI     H1 1724   2.104   1.265   1.245 -0.3741  0.0761 -1.2710
  103HFI     H2 1725   2.074   1.105   1.411 -1.4342 -0.0124  0.9895
  104HFI     O1 1726   2.761   0.461   3.705 -0.8143 -0.0965 -0.5704
  104HFI     C1 1727   2.803   0.391   3.824 -0.0407 -0.0284  0.4151
  104HFI     C2 1728   2.821   0.484   3.953 -0.3736 -0.0196  0.4930
  104HFI     F1 1729   2.736   0.584   3.939  0.1551 -0.2295  0.2207
  104HFI     F2 1730   2.954   0.530   3.968 -0.3887  0.2651 -0.1003
  104HFI     F3 1731   2.791   0.417   4.067  0.0119  0.2116  0.0648
  104HFI     C3 1732   2.916   0.284   3.797 -0.6703 -0.3124  0.1768
  104HFI     F4 1733   2.954   0.207   3.901  0.4328 -0.2957  0.0525
  104HFI     F5 1734   3.023   0.354   3.747  0.2101  0.3606  0.5584
  104HFI     F6 1735   2.879   0.198   3.707  0.2551 -0.1588  0.4447
  104HFI     H1 1736   2.831   0.456   3.638 -0.8857 -1.3329 -0.5513
  104HFI     H2 1737   2.714   0.341   3.865 -0.3190 -0.2846 -0.5095
  105HFI     O1 1738   1.837   2.919   3.376  0.5839  0.2626 -0.5219
  105HFI     C1 1739   1.732   2.997   3.437  0.4133  0.5894 -0.6599
  105HFI     C2 1740   1.664   2.932   3.555 -0.6484 -0.3137 -0.0538
  105HFI     F1 1741   1.758   2.899   3.646  0.6160  0.2090  0.3361
  105HFI     F2 1742   1.596   2.830   3.509 -0.5320 -0.2951 -0.1907
  105HFI     F3 1743   1.579   3.023   3.622  0.0572  0.3657  0.6032
  105HFI     C3 1744   1.627   3.058   3.335 -0.9130 -0.7943  0.1581
  105HFI     F4 1745   1.703   3.121   3.235 -0.3246 -0.2139  0.1139
  105HFI     F5 1746   1.555   3.158   3.399 -0.4398 -0.2543  0.0098
  105HFI     F6 1747   1.544   2.976   3.283  0.2397 -0.3173 -0.1096
  105HFI     H1 1748   1.801   2.880   3.295  0.8490 -1.2617  0.0676
  105HFI     H2 1749   1.773   3.086   3.487  1.3815 -1.5515  2.5510
  106HFI     O1 1750   1.214   3.167   0.362 -0.2605  0.9997  0.4074
  106HFI     C1 1751   1.232   3.240   0.483  0.3859 -0.4430  0.6278
  106HFI     C2 1752   1.254   3.150   0.608 -0.6853  0.4807  0.0781
  106HFI     F1 1753   1.361   3.079   0.586 -0.1339  0.5631  0.3913
  106HFI     F2 1754   1.149   3.071   0.639  0.0968 -0.4782  0.1714
  106HFI     F3 1755   1.284   3.221   0.717  0.1904 -0.1682 -0.1893
  106HFI     C3 1756   1.120   3.353   0.497  0.3830 -0.7829  0.2434
  106HFI     F4 1757   1.175   3.463   0.550 -0.3004  0.3930 -0.2032
  106HFI     F5 1758   1.012   3.316   0.571 -0.4268  0.7406  0.5561
  106HFI     F6 1759   1.076   3.381   0.378 -0.0563  0.2699 -0.0466
  106HFI     H1 1760   1.141   3.103   0.368  1.0987 -0.6467 -0.3116
  106HFI     H2 1761   1.327   3.293   0.467  0.0237 -0.0397 -0.2658
  107HFI     O1 1762   1.566   1.435   1.038  0.5143 -0.3733 -0.1456
  107HFI     C1 1763   1.640   1.521   0.941  0.8317 -0.2485 -0.1755
  107HFI     C2 1764   1.787   1.534   0.991 -0.3183 -0.4729  0.2894
  107HFI     F1 1765   1.866   1.583   0.897  0.5956 -0.0928 -0.0700
  107HFI     F2 1766   1.840   1.417   1.017 -0.4994  0.2492 -0.7522
  107HFI     F3 1767   1.784   1.595   1.109  0.0998 -0.2842  0.0497
  107HFI     C3 1768   1.570   1.651   0.923  0.0072 -0.0881  0.0281
  107HFI     F4 1769   1.532   1.704   1.046  0.2822 -0.3488  0.1036
  107HFI     F5 1770   1.463   1.629   0.846  0.5475 -0.2208  0.2176
  107HFI     F6 1771   1.649   1.736   0.857 -0.2292  0.4741  0.5983
  107HFI     H1 1772   1.559   1.477   1.125 -1.8855  1.5438 -1.1874
  107HFI     H2 1773   1.628   1.482   0.839  0.5784  0.4687 -0.4233
  108HFI     O1 1774   2.102   3.367   1.338 -0.6351  0.5306 -0.2395
  108HFI     C1 1775   2.230   3.409   1.405 -0.7294  0.3649  0.2364
  108HFI     C2 1776   2.290   3.284   1.492  0.4304  0.3568 -0.0604
  108HFI     F1 1777   2.343   3.193   1.410  0.1401 -0.4016  0.4698
  108HFI     F2 1778   2.203   3.230   1.582  0.5278 -0.5315  0.2247
  108HFI     F3 1779   2.387   3.336   1.567 -0.4444  0.4035 -0.3077
  108HFI     C3 1780   2.206   3.533   1.494 -0.6965  0.2883  0.3833
  108HFI     F4 1781   2.153   3.634   1.416 -0.4916 -0.0116  0.7147
  108HFI     F5 1782   2.322   3.585   1.550 -0.0803  0.2095  0.0477
  108HFI     F6 1783   2.120   3.516   1.594  0.5887  0.8091  0.2489
  108HFI     H1 1784   2.026   3.363   1.398 -0.0203 -1.3802  0.4781
  108HFI     H2 1785   2.308   3.431   1.331 -1.0326 -0.9008 -0.4661
  109HFI     O1 1786   2.671   1.046   0.889  0.0305 -0.0934 -0.0732
  109HFI     C1 1787   2.717   1.138   0.990  0.3542  0.2631  0.2261
  109HFI     C2 1788   2.753   1.276   0.931  0.4600 -0.8249 -0.0423
  109HFI     F1 1789   2.806   1.359   1.028 -0.0792  0.4520 -0.2130
  109HFI     F2 1790   2.645   1.343   0.882  0.3947 -0.2188  0.0941
  109HFI     F3 1791   2.838   1.257   0.830  1.0026  0.0984  0.8033
  109HFI     C3 1792   2.835   1.069   1.072  0.3861 -0.6617 -0.7550
  109HFI     F4 1793   2.794   0.944   1.123  0.0648 -0.2456  0.2944
  109HFI     F5 1794   2.882   1.149   1.169 -0.2468  0.3264  0.0199
  109HFI     F6 1795   2.935   1.045   0.988  0.0819 -0.1977 -0.2385
  109HFI     H1 1796   2.752   1.003   0.858  1.5904  1.8558  1.1384
  109HFI     H2 1797   2.633   1.157   1.059  0.4283 -0.6664  0.5837
  110HFI     O1 1798   2.040   0.498   3.678 -0.0162  0.0782 -0.1455
  110HFI     C1 1799   1.931   0.469   3.767  0.2881  0.0436 -0.5416
  110HFI     C2 1800   1.789   0.471   3.699 -0.6900 -0.1532  0.4448
  110HFI     F1 1801   1.700   0.398   3.767 -0.0431 -0.2105 -0.1000
  110HFI     F2 1802   1.798   0.434   3.569  0.2464 -0.1810  0.5800
  110HFI     F3 1803   1.752   0.603   3.699 -0.1595  0.0130 -0.0863
  110HFI     C3 1804   1.938   0.546   3.897  0.0104  0.7084 -0.9170
  110HFI     F4 1805   2.050   0.526   3.968 -0.1357  0.0544 -0.2679
  110HFI     F5 1806   1.839   0.516   3.983  0.0764 -0.5114 -0.4656
  110HFI     F6 1807   1.924   0.682   3.882 -0.1098 -0.2568  0.2972
  110HFI     H1 1808   2.018   0.586   3.642  1.9490 -0.6728 -3.4855
  110HFI     H2 1809   1.923   0.364   3.800  1.2207  0.1645  0.0873
  111HFI     O1 1810   1.202   1.504   1.267 -0.3321  0.2241  0.6269
  111HFI     C1 1811   1.175   1.414   1.382  0.0922 -0.9784  0.2961
  111HFI     C2 1812   1.259   1.283   1.357 -0.3762 -0.4133 -0.0901
  111HFI     F1 1813   1.226   1.186   1.449  0.1491  0.3203  0.0868
  111HFI     F2 1814   1.389   1.309   1.354 -0.2373 -0.3117 -0.1342
  111HFI     F3 1815   1.230   1.240   1.228 -0.6495 -0.4101 -0.3280
  111HFI     C3 1816   1.029   1.377   1.396 -0.3422 -0.3847 -0.1834
  111HFI     F4 1817   0.951   1.486   1.385 -0.5453  0.7273  0.6595
  111HFI     F5 1818   0.999   1.327   1.516 -0.0310  0.2527 -0.2973
  111HFI     F6 1819   0.985   1.290   1.300  0.4312  0.4549  0.2102
  111HFI     H1 1820   1.177   1.454   1.187  1.8307  0.2567 -0.0807
  111HFI     H2 1821   1.205   1.466   1.474 -0.6878 -1.5491  0.8676
  112HFI     O1 1822   1.953   3.342   0.737  0.3456  0.4996  0.7212
  112HFI     C1 1823   1.827   3.279   0.767 -0.1571 -0.2166  0.0559
  112HFI     C2 1824   1.752   3.242   0.643  0.3356  0.1851 -0.1246
  112HFI     F1 1825   1.832   3.151   0.579 -0.5811  0.1781  0.4754
  112HFI     F2 1826   1.717   3.348   0.559  0.0202  0.1240  0.3350
  112HFI     F3 1827   1.643   3.166   0.664  0.2161 -0.0636  0.2698
  112HFI     C3 1828   1.735   3.360   0.865 -0.3474 -0.5598 -0.9913
  112HFI     F4 1829   1.803   3.415   0.968 -0.2480 -0.4297  0.6572
  112HFI     F5 1830   1.655   3.268   0.925  0.1382 -0.0948  0.5697
  112HFI     F6 1831   1.655   3.453   0.807 -0.1438  0.1724 -0.2127
  112HFI     H1 1832   1.943   3.438   0.737 -2.6879  0.2567  0.3383
  112HFI     H2 1833   1.851   3.183   0.813  0.9081 -0.4209 -0.9000
  113HFI     O1 1834   0.581   0.950   1.392 -0.0150  0.2688 -0.7218
  113HFI     C1 1835   0.685   0.999   1.479 -0.4696  0.0614 -1.2864
  113HFI     C2 1836   0.661   1.151   1.508 -0.5861  0.3015 -0.9526
  113HFI     F1 1837   0.667   1.218   1.399  0.0695  0.3906  0.5142
  113HFI     F2 1838   0.751   1.197   1.594 -0.1218 -0.5233 -0.2818
  113HFI     F3 1839   0.541   1.176   1.566  0.2895  0.3875 -0.5872
  113HFI     C3 1840   0.822   0.952   1.439  0.0205 -0.3661 -0.1909
  113HFI     F4 1841   0.908   0.985   1.542  0.4043 -0.4501 -0.8933
  113HFI     F5 1842   0.869   1.016   1.328 -0.3433  0.0489 -0.1267
  113HFI     F6 1843   0.828   0.819   1.428  0.1631  0.5792  0.2317
  113HFI     H1 1844   0.605   0.966   1.299 -1.7747  0.3723 -1.1706
  113HFI     H2 1845   0.674   0.958   1.580 -0.5439  0.6894 -1.0353
  114HFI     O1 1846   1.071   0.644   3.555 -0.1917 -0.0209 -0.0820
  114HFI     C1 1847   1.128   0.695   3.683  0.2111  0.5020  1.2348
  114HFI     C2 1848   1.241   0.798   3.655 -0.1184  0.2886 -1.0287
  114HFI     F1 1849   1.327   0.747   3.569 -0.0264  0.3096 -0.2792
  114HFI     F2 1850   1.295   0.844   3.768  0.4847  0.7058  0.0466
  114HFI     F3 1851   1.188   0.903   3.593  0.2869 -0.0149 -0.1884
  114HFI     C3 1852   1.162   0.586   3.784  0.2042  0.0297 -0.0987
  114HFI     F4 1853   1.060   0.493   3.780 -0.1685 -0.2194 -0.6904
  114HFI     F5 1854   1.174   0.630   3.911  0.3760  0.3131  0.7912
  114HFI     F6 1855   1.281   0.523   3.754  0.5000 -0.1702  0.0610
  114HFI     H1 1856   1.138   0.584   3.518 -2.1838 -2.5840  0.3355
  114HFI     H2 1857   1.049   0.752   3.734  0.2756  2.3136 -0.6307
  115HFI     O1 1858   1.286   3.236   1.569 -0.3897  0.1760  0.0327
  115HFI     C1 1859   1.147   3.172   1.569  0.0623 -0.4793 -0.8330
  115HFI     C2 1860   1.152   3.031   1.512 -0.3488  0.3247 -0.0052
  115HFI     F1 1861   1.154   3.038   1.377 -0.2520 -0.1591  0.3527
  115HFI     F2 1862   1.051   2.952   1.547 -0.1905 -0.7425 -0.6990
  115HFI     F3 1863   1.261   2.966   1.552 -0.6749  0.2410 -0.0493
  115HFI     C3 1864   1.035   3.262   1.507  0.3791  0.5860  0.2872
  115HFI     F4 1865   1.082   3.311   1.390  0.5328  0.2876  0.2064
  115HFI     F5 1866   1.013   3.368   1.588  0.0394 -0.2281  0.3583
  115HFI     F6 1867   0.920   3.186   1.490  0.2624 -0.2095  0.3275
  115HFI     H1 1868   1.326   3.228   1.481 -2.2331  1.3859 -0.9428
  115HFI     H2 1869   1.118   3.164   1.674  0.2252 -0.8700 -0.8157
  116HFI     O1 1870   3.230   0.961   0.408 -0.5856 -0.4655 -0.4208
  116HFI     C1 1871   3.177   1.068   0.493  0.5368 -0.6757  0.2428
  116HFI     C2 1872   3.085   1.002   0.600 -0.2976  0.3855 -0.4715
  116HFI     F1 1873   3.153   0.900   0.667  0.5841  0.1251 -0.3143
  116HFI     F2 1874   2.983   0.946   0.536 -0.2267 -0.6200 -0.1654
  116HFI     F3 1875   3.034   1.101   0.686  0.5378  0.5719  0.1526
  116HFI     C3 1876   3.111   1.177   0.403 -0.0026 -0.8538  0.5109
  116HFI     F4 1877   3.044   1.277   0.468 -0.5397  0.0124 -0.2644
  116HFI     F5 1878   3.017   1.124   0.320 -0.1421  0.1109  0.1879
  116HFI     F6 1879   3.215   1.236   0.330  0.4830 -0.3527  0.1414
  116HFI     H1 1880   3.245   0.882   0.462 -1.7718  0.2338  0.9730
  116HFI     H2 1881   3.260   1.109   0.553  0.9754 -1.5754  0.2694
  117HFI     O1 1882   0.434   0.500   1.308  0.7369 -0.3732 -0.4439
  117HFI     C1 1883   0.419   0.591   1.416 -0.1908 -0.8147  0.3715
  117HFI     C2 1884   0.550   0.601   1.504 -0.0563  0.2112  0.2360
  117HFI     F1 1885   0.656   0.588   1.425  0.0303  0.5530 -0.4581
  117HFI     F2 1886   0.553   0.498   1.593  0.5229  0.5173 -0.2360
  117HFI     F3 1887   0.564   0.723   1.566  0.0986  0.5907 -0.5759
  117HFI     C3 1888   0.290   0.559   1.500 -0.4576 -1.1492 -0.3874
  117HFI     F4 1889   0.177   0.589   1.427  0.2552 -0.4786 -0.1914
  117HFI     F5 1890   0.284   0.642   1.606  0.1527 -0.1635  0.0250
  117HFI     F6 1891   0.291   0.427   1.546  0.6839  0.0345  0.5598
  117HFI     H1 1892   0.383   0.423   1.338  0.5477  0.9207  2.7261
  117HFI     H2 1893   0.408   0.693   1.377 -0.1051 -1.3404 -1.0677
  118HFI     O1 1894   2.991   0.227   2.444 -0.1418  0.2598  0.0140
  118HFI     C1 1895   3.134   0.183   2.437 -0.0786  0.4703  0.3714
  118HFI     C2 1896   3.172   0.129   2.296  0.5981  0.5118  0.3592
  118HFI     F1 1897   3.101   0.021   2.253 -0.1519 -0.2804  0.1484
  118HFI     F2 1898   3.303   0.087   2.290 -0.1583  0.4741 -0.6484
  118HFI     F3 1899   3.151   0.227   2.198  0.3117 -0.0988 -0.4386
  118HFI     C3 1900   3.186   0.096   2.558  0.2479  0.1412 -0.3485
  118HFI     F4 1901   3.312   0.053   2.535  0.1791 -0.0429 -0.0528
  118HFI     F5 1902   3.108  -0.010   2.582 -0.1866  0.3299  0.0825
  118HFI     F6 1903   3.184   0.176   2.662  0.5011 -0.6114 -0.2682
  118HFI     H1 1904   2.941   0.155   2.403 -0.0348 -1.1345  2.2396
  118HFI     H2 1905   3.199   0.271   2.441 -0.9779  1.1957 -0.8098
  119HFI     O1 1906   0.044   0.027   3.780 -0.3099  0.2327  0.2242
  119HFI     C1 1907   0.061   0.167   3.815 -0.1107 -0.4288 -0.5796
  119HFI     C2 1908  -0.054   0.245   3.758 -0.3352 -0.1439 -0.2511
  119HFI     F1 1909  -0.160   0.166   3.783  0.1460 -0.0303 -0.0103
  119HFI     F2 1910  -0.049   0.261   3.627 -0.0175 -0.2198 -0.5183
  119HFI     F3 1911  -0.073   0.366   3.813  0.8550  0.0474  0.4203
  119HFI     C3 1912   0.198   0.235   3.769 -0.3966 -0.1841  0.7113
  119HFI     F4 1913   0.294   0.190   3.854  0.2668  0.3595 -0.1477
  119HFI     F5 1914   0.196   0.371   3.781  0.2300 -0.0210  0.2653
  119HFI     F6 1915   0.235   0.206   3.636  0.1882  0.2065 -0.3381
  119HFI     H1 1916  -0.013   0.021   3.702  0.7259 -0.5613 -0.4797
  119HFI     H2 1917   0.059   0.190   3.923 -1.9098  0.5602 -0.8097
  120HFI     O1 1918   2.554   1.676   2.428  0.1670 -0.0833  0.3554
  120HFI     C1 1919   2.557   1.533   2.400  0.3242  0.9805  0.6096
  120HFI     C2 1920   2.540   1.514   2.255 -0.2518 -0.2789 -0.3938
  120HFI     F1 1921   2.418   1.545   2.221 -0.3607 -0.5993  0.1658
  120HFI     F2 1922   2.563   1.388   2.206 -0.0990 -0.3423 -0.1082
  120HFI     F3 1923   2.621   1.594   2.185  0.2385  0.0608 -0.7098
  120HFI     C3 1924   2.458   1.448   2.493 -0.1385  0.2981 -0.5950
  120HFI     F4 1925   2.337   1.501   2.495  0.7441  0.2118 -0.4679
  120HFI     F5 1926   2.515   1.437   2.612  0.0522 -0.0118 -0.1371
  120HFI     F6 1927   2.451   1.319   2.440  0.3491  0.1585 -0.6557
  120HFI     H1 1928   2.459   1.697   2.415  0.0184 -0.1767  1.2824
  120HFI     H2 1929   2.657   1.496   2.427  1.0284  2.4529  0.0556
  121HFI     O1 1930   1.406   2.191   2.311  0.3139  0.6213  0.2972
  121HFI     C1 1931   1.424   2.045   2.288  0.6102  0.7717  0.2617
  121HFI     C2 1932   1.287   1.960   2.291  0.1612 -0.0955  1.1339
  121HFI     F1 1933   1.296   1.841   2.229 -0.1715 -0.2630 -0.1955
  121HFI     F2 1934   1.191   2.036   2.228  0.2731 -0.0666  0.3494
  121HFI     F3 1935   1.245   1.932   2.412  0.6910  0.0857 -0.1492
  121HFI     C3 1936   1.542   1.970   2.364 -0.1095 -0.6333 -0.3794
  121HFI     F4 1937   1.513   1.921   2.484 -0.2791 -0.0075 -0.5280
  121HFI     F5 1938   1.643   2.061   2.384  0.5541  0.2113  0.3587
  121HFI     F6 1939   1.591   1.863   2.302  0.1407 -0.0534 -0.0147
  121HFI     H1 1940   1.405   2.218   2.404 -1.7504  0.2133  0.4159
  121HFI     H2 1941   1.451   2.035   2.182 -2.0067  0.9589 -0.4664
  122HFI     O1 1942   3.375   2.204   2.454 -0.6070  0.0570  0.3019
  122HFI     C1 1943   3.503   2.210   2.377  0.2722  0.5173 -0.1096
  122HFI     C2 1944   3.517   2.353   2.313 -0.2810 -0.0744  0.3963
  122HFI     F1 1945   3.646   2.369   2.266 -0.4324  0.0672 -0.2600
  122HFI     F2 1946   3.480   2.458   2.392 -0.2850  0.1678 -0.5773
  122HFI     F3 1947   3.438   2.356   2.200  0.3401  0.2270 -0.1771
  122HFI     C3 1948   3.533   2.081   2.296 -0.2455 -0.1320 -0.4678
  122HFI     F4 1949   3.422   2.034   2.237 -0.0494  0.3971  0.1556
  122HFI     F5 1950   3.581   1.984   2.377  0.4252 -0.4824 -0.4165
  122HFI     F6 1951   3.631   2.098   2.202 -0.5326 -0.2582  0.2275
  122HFI     H1 1952   3.308   2.172   2.391 -1.2867  1.1126  0.4819
  122HFI     H2 1953   3.582   2.218   2.452 -0.3564 -3.3141  1.0520
  123HFI     O1 1954   2.307   0.719   0.615  0.4933  0.4822  0.2678
  123HFI     C1 1955   2.258   0.845   0.556 -0.3731  0.4890 -0.2981
  123HFI     C2 1956   2.109   0.835   0.499  0.3435  0.1167  0.5336
  123HFI     F1 1957   2.107   0.737   0.403  0.1987 -0.0869 -0.3602
  123HFI     F2 1958   2.076   0.948   0.435  0.0805 -0.0463  0.2424
  123HFI     F3 1959   2.026   0.806   0.601 -0.5792 -0.6326 -0.0722
  123HFI     C3 1960   2.360   0.892   0.441 -0.0412 -0.0097 -0.6299
  123HFI     F4 1961   2.371   0.791   0.356 -0.1444  0.2021  0.2681
  123HFI     F5 1962   2.479   0.916   0.496 -0.4840 -0.0884  0.1326
  123HFI     F6 1963   2.321   0.997   0.369 -0.1529 -0.1542  0.1516
  123HFI     H1 1964   2.268   0.642   0.571  0.2084 -0.1573  1.5971
  123HFI     H2 1965   2.244   0.931   0.623 -1.0843  1.9335 -2.2231
  124HFI     O1 1966   1.462   1.370   3.797  0.1866  0.2576 -0.1211
  124HFI     C1 1967   1.452   1.346   3.937 -0.3698  0.2917  0.1298
  124HFI     C2 1968   1.326   1.420   3.998 -0.0053 -0.2625 -0.3353
  124HFI     F1 1969   1.317   1.555   3.977 -0.0540 -0.5559 -0.2702
  124HFI     F2 1970   1.304   1.394   4.128 -0.0229 -0.2687  0.0884
  124HFI     F3 1971   1.219   1.371   3.932 -0.0379 -0.1062 -0.1879
  124HFI     C3 1972   1.586   1.380   4.006  1.0424  0.2122  0.1069
  124HFI     F4 1973   1.579   1.359   4.138  0.3376  0.3749 -0.3331
  124HFI     F5 1974   1.612   1.515   3.990  0.0538 -0.2387  0.0482
  124HFI     F6 1975   1.689   1.305   3.959 -0.4890 -0.0265  0.1678
  124HFI     H1 1976   1.381   1.340   3.752  0.5212  0.6803 -1.0368
  124HFI     H2 1977   1.428   1.241   3.960  0.4579 -0.0659 -0.6334
  125HFI     O1 1978   1.106   3.411   2.535  0.2459 -0.0501  0.1794
  125HFI     C1 1979   1.095   3.411   2.683  0.0958 -0.0837 -0.6221
  125HFI     C2 1980   1.122   3.273   2.744 -0.2098 -0.2080 -0.1599
  125HFI     F1 1981   1.033   3.180   2.682  0.0613 -0.2399  0.1703
  125HFI     F2 1982   1.101   3.270   2.873  0.1403  0.0212  0.7987
  125HFI     F3 1983   1.248   3.234   2.718  1.0598 -0.3356  0.2264
  125HFI     C3 1984   0.960   3.473   2.732 -0.5269  0.0310  0.1032
  125HFI     F4 1985   0.965   3.502   2.862  0.1267 -0.5873 -0.2566
  125HFI     F5 1986   0.847   3.401   2.714 -0.1273  0.2754  0.3086
  125HFI     F6 1987   0.951   3.593   2.675  0.4611  0.1820 -0.8416
  125HFI     H1 1988   1.077   3.322   2.508 -0.7164  0.0882  0.7154
  125HFI     H2 1989   1.178   3.473   2.720  0.4388 -0.7259 -0.3106
  126HFI     O1 1990   2.446   2.028   3.226 -0.1768  0.3101  0.1375
  126HFI     C1 1991   2.516   1.999   3.350 -0.0696  0.3604 -0.5635
  126HFI     C2 1992   2.565   1.853   3.360  0.3273  0.7727 -0.7051
  126HFI     F1 1993   2.458   1.770   3.369 -0.4899 -0.4737  0.3854
  126HFI     F2 1994   2.627   1.845   3.475  0.1661 -0.6407  0.3320
  126HFI     F3 1995   2.648   1.818   3.260  0.0464  0.2219  0.6972
  126HFI     C3 1996   2.434   2.047   3.470 -0.1897  0.1481 -0.3148
  126HFI     F4 1997   2.487   2.024   3.593 -0.4582  0.0746 -0.1874
  126HFI     F5 1998   2.313   1.993   3.469 -0.1960  0.1092  0.8033
  126HFI     F6 1999   2.419   2.182   3.467 -0.5026 -0.0253  0.0562
  126HFI     H1 2000   2.462   1.961   3.158  0.5573 -0.7158  1.3134
  126HFI     H2 2001   2.606   2.062   3.352  0.2260 -0.1017  1.0242
  127HFI     O1 2002   2.583   0.770   0.759  0.2175 -0.7343  0.0122
  127HFI     C1 2003   2.659   0.650   0.803 -0.1465  0.6522  0.6205
  127HFI     C2 2004   2.818   0.675   0.788  0.1380 -0.8459  0.1857
  127HFI     F1 2005   2.891   0.573   0.829  0.6082  0.1264 -0.8638
  127HFI     F2 2006   2.852   0.776   0.862 -0.1056 -0.1291 -0.2707
  127HFI     F3 2007   2.858   0.708   0.667  0.2731 -0.3570 -0.6809
  127HFI     C3 2008   2.593   0.523   0.732  0.1383  0.3956 -0.3171
  127HFI     F4 2009   2.668   0.413   0.755 -0.2353 -0.2705 -0.1140
  127HFI     F5 2010   2.571   0.548   0.604  0.0942  0.6706  0.3848
  127HFI     F6 2011   2.471   0.497   0.791 -0.0658 -0.4817  0.7741
  127HFI     H1 2012   2.576   0.769   0.662  2.3013  0.4807 -0.1913
  127HFI     H2 2013   2.640   0.641   0.911  2.2556 -1.8183  0.8938
  128HFI     O1 2014   0.344   3.259   2.242 -0.6015  0.3069  0.3342
  128HFI     C1 2015   0.233   3.321   2.299 -0.1254 -0.6612 -0.5967
  128HFI     C2 2016   0.279   3.415   2.413  0.4149 -0.6444  0.4579
  128HFI     F1 2017   0.392   3.478   2.379  0.2777 -0.6653 -0.6196
  128HFI     F2 2018   0.308   3.353   2.532  0.3364  0.2486 -0.6759
  128HFI     F3 2019   0.193   3.517   2.437  0.7212 -0.0057  0.1025
  128HFI     C3 2020   0.126   3.220   2.344 -0.0289  0.8336  0.5135
  128HFI     F4 2021   0.039   3.189   2.247 -0.2954  0.3063  0.0513
  128HFI     F5 2022   0.059   3.256   2.455 -0.2019  0.5422  0.2167
  128HFI     F6 2023   0.182   3.100   2.369  0.3686  0.4370  0.3273
  128HFI     H1 2024   0.424   3.294   2.283 -1.5407  0.3806  2.1796
  128HFI     H2 2025   0.185   3.379   2.219  2.5265  0.4625 -1.4299
  129HFI     O1 2026   1.002   1.732   2.972 -0.6201 -0.1986  0.3414
  129HFI     C1 2027   0.953   1.874   2.989 -0.1652 -0.2040  0.2207
  129HFI     C2 2028   0.998   1.939   3.116 -0.2219  0.1441  0.1019
  129HFI     F1 2029   0.964   2.067   3.111 -0.1138 -0.1735 -0.2021
  129HFI     F2 2030   1.130   1.930   3.140  0.3130 -0.2771  0.2975
  129HFI     F3 2031   0.933   1.883   3.229 -0.1043 -0.0758 -0.1964
  129HFI     C3 2032   0.804   1.869   2.969 -0.7901 -0.0664 -0.1815
  129HFI     F4 2033   0.778   1.827   2.841  0.2182 -0.1703  0.0593
  129HFI     F5 2034   0.741   1.986   2.981  0.3552  0.3568  0.1377
  129HFI     F6 2035   0.751   1.782   3.059  0.2036  0.4796 -0.3103
  129HFI     H1 2036   0.959   1.687   2.897 -0.8410 -2.3412  1.7367
  129HFI     H2 2037   0.987   1.939   2.908 -0.4037 -1.5026 -0.9285
  130HFI     O1 2038   0.070   2.867   2.992 -0.6530  0.2521  0.5377
  130HFI     C1 2039   0.057   2.972   2.895  0.7448 -0.0911  0.4445
  130HFI     C2 2040   0.026   2.921   2.745 -0.7289  0.1747 -0.6452
  130HFI     F1 2041  -0.044   3.021   2.679 -0.4613 -0.1730  0.3131
  130HFI     F2 2042  -0.055   2.811   2.751 -0.8214 -0.3988 -0.4079
  130HFI     F3 2043   0.132   2.892   2.672 -0.1632  0.2894 -0.4749
  130HFI     C3 2044   0.186   3.052   2.895 -0.3220  0.0690  0.7617
  130HFI     F4 2045   0.188   3.168   2.822  0.1655 -0.2154 -0.5364
  130HFI     F5 2046   0.290   2.980   2.859 -0.2029 -0.4985  0.1576
  130HFI     F6 2047   0.217   3.088   3.018 -0.1320 -0.1121  0.0891
  130HFI     H1 2048   0.046   2.782   2.951  0.5581  0.1864 -0.0639
  130HFI     H2 2049  -0.021   3.039   2.931  2.6241  2.2096  0.3047
  131HFI     O1 2050   2.652   2.631   0.893  0.3369 -0.0090  0.3016
  131HFI     C1 2051   2.776   2.675   0.952  0.4391 -0.6265 -0.3862
  131HFI     C2 2052   2.764   2.682   1.105 -0.0732 -0.1650  0.1687
  131HFI     F1 2053   2.695   2.796   1.140 -0.1070 -0.1437  0.4723
  131HFI     F2 2054   2.883   2.682   1.162  0.5072 -0.4641 -0.7801
  131HFI     F3 2055   2.699   2.577   1.154  0.0415  0.8718 -0.5958
  131HFI     C3 2056   2.828   2.800   0.890  0.0792  0.0482  0.0304
  131HFI     F4 2057   2.735   2.895   0.897  0.2856 -0.0180 -0.5515
  131HFI     F5 2058   2.861   2.781   0.761  0.1737 -0.0864  0.4859
  131HFI     F6 2059   2.945   2.835   0.946 -0.3369 -0.5607  0.1834
  131HFI     H1 2060   2.615   2.562   0.951 -2.4798 -0.0194 -1.4089
  131HFI     H2 2061   2.854   2.601   0.928  0.5187 -0.6350 -0.1133
  132HFI     O1 2062   0.517   0.204   3.460  0.5121 -0.0469  0.0098
  132HFI     C1 2063   0.597   0.280   3.364 -0.9525 -0.4101 -0.1564
  132HFI     C2 2064   0.695   0.193   3.279 -0.0969  0.1236 -0.1169
  132HFI     F1 2065   0.618   0.097   3.217  0.4686 -0.0840  0.4788
  132HFI     F2 2066   0.785   0.118   3.350 -0.7377  0.2347  0.1319
  132HFI     F3 2067   0.771   0.258   3.190  0.5900 -0.5023 -0.3474
  132HFI     C3 2068   0.674   0.390   3.425  0.0051 -0.2977  0.6449
  132HFI     F4 2069   0.734   0.464   3.327 -0.6256  0.4983 -0.3879
  132HFI     F5 2070   0.773   0.353   3.505 -0.5685  1.0704 -0.3670
  132HFI     F6 2071   0.597   0.474   3.497  0.0846 -0.1828  0.4388
  132HFI     H1 2072   0.579   0.147   3.509 -0.7649 -0.7385  0.8460
  132HFI     H2 2073   0.533   0.327   3.288  0.2806  0.9299 -0.4085
  133HFI     O1 2074   1.276   0.785   2.515 -0.7061 -0.3221  0.1401
  133HFI     C1 2075   1.146   0.801   2.467 -0.4434  0.2391  0.1313
  133HFI     C2 2076   1.155   0.839   2.322 -0.4477 -0.0945 -0.3115
  133HFI     F1 2077   1.238   0.942   2.307  0.0108 -0.6346 -0.5021
  133HFI     F2 2078   1.032   0.884   2.281  0.4562  0.0005  0.0277
  133HFI     F3 2079   1.192   0.744   2.234  0.2230 -0.6352  0.0578
  133HFI     C3 2080   1.059   0.904   2.546 -0.3475  0.7083 -0.2991
  133HFI     F4 2081   1.081   0.894   2.680  0.2900  0.5309 -0.2817
  133HFI     F5 2082   0.931   0.876   2.532  0.0144 -0.3126  0.2386
  133HFI     F6 2083   1.082   1.034   2.514  0.0779 -0.1510  0.2341
  133HFI     H1 2084   1.269   0.805   2.610 -2.4391 -0.0517 -0.0183
  133HFI     H2 2085   1.094   0.704   2.467  0.7796 -0.4439 -0.5662
  134HFI     O1 2086   3.243   1.109   3.466  0.4671  0.3580  0.4392
  134HFI     C1 2087   3.203   1.252   3.462  0.1734  0.6940 -0.1331
  134HFI     C2 2088   3.329   1.345   3.482  0.3386  0.3337  0.3789
  134HFI     F1 2089   3.415   1.333   3.383 -0.0224  0.3138  0.5043
  134HFI     F2 2090   3.394   1.325   3.596  0.3374  0.1334 -0.7857
  134HFI     F3 2091   3.293   1.471   3.480  0.0608  0.1505 -0.0710
  134HFI     C3 2092   3.081   1.279   3.548  0.2959 -0.4624  0.3930
  134HFI     F4 2093   2.981   1.193   3.521  0.6788 -0.4066 -0.1357
  134HFI     F5 2094   3.026   1.398   3.523  0.5753  1.0788  0.0259
  134HFI     F6 2095   3.111   1.266   3.684 -0.0436 -0.0793  0.6332
  134HFI     H1 2096   3.257   1.086   3.560 -2.3080 -2.8676  0.1449
  134HFI     H2 2097   3.157   1.273   3.364  0.6916 -1.2308 -0.8345
  135HFI     O1 2098   0.756   2.192   2.535 -0.6657 -1.0075 -0.1210
  135HFI     C1 2099   0.694   2.269   2.424  0.4958 -0.0881 -0.0337
  135HFI     C2 2100   0.565   2.207   2.375 -0.7900  0.6542 -0.0351
  135HFI     F1 2101   0.475   2.202   2.480 -0.4449 -0.0113 -0.2700
  135HFI     F2 2102   0.595   2.086   2.314  0.2488 -0.3255  0.4960
  135HFI     F3 2103   0.511   2.283   2.279  0.1165 -0.0180  0.2178
  135HFI     C3 2104   0.800   2.295   2.309 -0.5164 -0.3533  0.7617
  135HFI     F4 2105   0.755   2.384   2.214  0.3863  0.2784  0.3098
  135HFI     F5 2106   0.835   2.179   2.244 -0.4123  0.1843 -0.2086
  135HFI     F6 2107   0.917   2.343   2.358 -0.2757 -0.4441 -0.7279
  135HFI     H1 2108   0.769   2.097   2.521  1.6849 -1.1660  2.5654
  135HFI     H2 2109   0.654   2.363   2.463  0.7886  0.0618 -0.0873
  136HFI     O1 2110   0.346   1.583   2.503 -0.5647  0.2565 -0.1238
  136HFI     C1 2111   0.366   1.721   2.469  0.4055  0.0857 -0.0297
  136HFI     C2 2112   0.428   1.733   2.326  0.0078 -0.2254  1.0239
  136HFI     F1 2113   0.352   1.665   2.237 -0.0046  0.2032 -0.1143
  136HFI     F2 2114   0.555   1.693   2.321  0.2957 -0.5396  0.2629
  136HFI     F3 2115   0.431   1.865   2.291  0.1077 -0.2274  0.0333
  136HFI     C3 2116   0.453   1.794   2.576  0.6021  0.2777 -0.9498
  136HFI     F4 2117   0.451   1.928   2.551 -0.0434 -0.1793 -0.3883
  136HFI     F5 2118   0.584   1.753   2.581 -0.1390 -0.6295  0.4457
  136HFI     F6 2119   0.401   1.777   2.695 -0.6800  0.4562 -0.9220
  136HFI     H1 2120   0.252   1.580   2.527 -0.7699  3.3293 -0.2806
  136HFI     H2 2121   0.271   1.776   2.474  0.4190 -0.0568  2.0836
  137HFI     O1 2122   1.973   3.105   2.220 -0.1825  0.3366  0.3073
  137HFI     C1 2123   2.081   3.011   2.244 -0.2840 -0.2287 -0.3693
  137HFI     C2 2124   2.019   2.877   2.291  0.0515 -1.0382 -0.0062
  137HFI     F1 2125   2.113   2.783   2.312 -0.1333  0.3677  0.1168
  137HFI     F2 2126   1.947   2.826   2.187  0.2826 -1.0066 -0.8109
  137HFI     F3 2127   1.934   2.899   2.404 -0.1203  0.2190  0.1346
  137HFI     C3 2128   2.172   3.065   2.361  0.9287 -0.7361  0.3759
  137HFI     F4 2129   2.102   3.103   2.476 -0.3435 -0.1583  0.4973
  137HFI     F5 2130   2.236   3.171   2.308  0.4167 -0.2822 -0.0218
  137HFI     F6 2131   2.266   2.976   2.398 -0.0552  0.2847  0.3241
  137HFI     H1 2132   1.964   3.164   2.296  1.0930  0.7250  0.1669
  137HFI     H2 2133   2.143   2.994   2.155  2.8780  1.1716  1.4947
  138HFI     O1 2134   2.828   0.805   2.327  0.8840 -0.9356  0.2884
  138HFI     C1 2135   2.925   0.721   2.268  0.4463  0.7977 -0.1524
  138HFI     C2 2136   2.901   0.569   2.308  0.0629 -0.4828  1.0698
  138HFI     F1 2137   2.960   0.476   2.223 -0.6692 -0.3697 -0.1451
  138HFI     F2 2138   2.771   0.541   2.295 -0.3929 -0.6219  0.2591
  138HFI     F3 2139   2.946   0.539   2.429 -0.5221  0.3810 -0.5808
  138HFI     C3 2140   3.066   0.775   2.295 -0.3027 -0.1984  0.2182
  138HFI     F4 2141   3.093   0.790   2.423  0.6936 -0.1829 -0.0840
  138HFI     F5 2142   3.084   0.899   2.227  0.1210  0.3965 -0.2934
  138HFI     F6 2143   3.158   0.695   2.236 -0.3191  0.2857 -0.2278
  138HFI     H1 2144   2.832   0.898   2.298 -0.6867 -1.0953 -0.4876
  138HFI     H2 2145   2.918   0.729   2.159 -1.1200 -0.6173 -0.1900
  139HFI     O1 2146   2.670   0.847   2.607 -0.1658 -0.2198 -0.6985
  139HFI     C1 2147   2.604   0.943   2.697 -0.0795 -0.5379  0.2925
  139HFI     C2 2148   2.666   1.088   2.696  0.4772  0.2242  0.5409
  139HFI     F1 2149   2.580   1.183   2.740  0.2200  0.5226  0.1793
  139HFI     F2 2150   2.694   1.117   2.570 -0.3690  0.5831  0.0996
  139HFI     F3 2151   2.775   1.096   2.777  0.5010 -0.1919  0.3964
  139HFI     C3 2152   2.581   0.895   2.841  0.4503 -0.0655  0.6484
  139HFI     F4 2153   2.697   0.838   2.893 -0.2315 -0.5422 -0.6407
  139HFI     F5 2154   2.476   0.807   2.840  0.5523  0.3488  0.2023
  139HFI     F6 2155   2.552   0.993   2.925 -0.4350  0.1562 -0.5320
  139HFI     H1 2156   2.746   0.809   2.654 -1.3056 -1.2973  0.3098
  139HFI     H2 2157   2.503   0.961   2.660  0.2379  0.4632 -0.1255
  140HFI     O1 2158   0.858   0.405   0.725  0.5511  0.1320  0.8040
  140HFI     C1 2159   0.863   0.422   0.583 -0.2908 -0.7777 -0.1075
  140HFI     C2 2160   0.999   0.363   0.523 -0.4683 -0.0686  0.2624
  140HFI     F1 2161   1.039   0.412   0.402  0.5640  0.3885 -0.1655
  140HFI     F2 2162   0.980   0.227   0.502 -0.0605 -0.1246 -0.1481
  140HFI     F3 2163   1.100   0.393   0.609 -0.1236  0.1550 -0.2614
  140HFI     C3 2164   0.845   0.569   0.548  0.2854  0.0231  0.4184
  140HFI     F4 2165   0.945   0.647   0.596  0.1968 -0.5436  0.0629
  140HFI     F5 2166   0.727   0.604   0.601  0.5976 -0.1511  0.2240
  140HFI     F6 2167   0.847   0.593   0.423  0.1832  0.1434  0.4600
  140HFI     H1 2168   0.904   0.483   0.761  0.2547  0.7153 -0.0525
  140HFI     H2 2169   0.790   0.361   0.528 -0.6753 -1.4787  1.1567
  141HFI     O1 2170   0.428   2.727   2.683  0.7110 -0.4977  0.0510
  141HFI     C1 2171   0.459   2.622   2.771 -0.3060 -0.6810 -0.1095
  141HFI     C2 2172   0.384   2.664   2.898 -0.2477  0.2828 -0.6283
  141HFI     F1 2173   0.249   2.676   2.873 -0.2879 -0.2825  0.1076
  141HFI     F2 2174   0.434   2.784   2.943 -0.0977 -0.1944  0.3790
  141HFI     F3 2175   0.405   2.570   2.993  0.3754 -0.3321  0.3487
  141HFI     C3 2176   0.611   2.593   2.775 -0.2245 -0.4645 -0.5231
  141HFI     F4 2177   0.686   2.706   2.762 -0.3998  0.5927  0.3900
  141HFI     F5 2178   0.645   2.511   2.679 -0.3302 -0.0463  0.6604
  141HFI     F6 2179   0.659   2.536   2.884  0.0542  0.0667  0.1392
  141HFI     H1 2180   0.439   2.807   2.738 -0.0643 -0.3733  0.0197
  141HFI     H2 2181   0.406   2.534   2.731 -2.0130  0.0576  0.4943
  142HFI     O1 2182   0.857   2.285   3.580  0.6263  0.3537  0.3016
  142HFI     C1 2183   0.721   2.345   3.559 -0.3639  0.1559  0.8097
  142HFI     C2 2184   0.624   2.312   3.678  0.0865  0.4723  0.3401
  142HFI     F1 2185   0.588   2.177   3.694 -0.2884 -0.3961  0.1067
  142HFI     F2 2186   0.511   2.374   3.648  0.3356 -0.2305 -0.0729
  142HFI     F3 2187   0.674   2.353   3.800 -0.1848 -0.1047 -0.3095
  142HFI     C3 2188   0.666   2.308   3.411  0.2435 -0.4384  0.0327
  142HFI     F4 2189   0.567   2.396   3.367 -0.0074  0.1124  0.3016
  142HFI     F5 2190   0.615   2.184   3.397 -0.1358 -0.2736 -0.3118
  142HFI     F6 2191   0.767   2.311   3.317  0.4348  0.1298  0.0759
  142HFI     H1 2192   0.918   2.321   3.514  0.6223  1.5300  0.9313
  142HFI     H2 2193   0.727   2.454   3.557 -0.4254  0.1583 -4.1876
  143HFI     O1 2194   1.984   3.336   2.628 -0.1648  0.0516  0.6586
  143HFI     C1 2195   1.874   3.313   2.715 -0.4712 -0.4001 -0.4275
  143HFI     C2 2196   1.876   3.163   2.773  0.3108 -1.3889 -0.4006
  143HFI     F1 2197   2.001   3.129   2.789  0.2226  0.1299 -0.5922
  143HFI     F2 2198   1.815   3.083   2.684 -0.0764  0.0963 -0.4167
  143HFI     F3 2199   1.811   3.152   2.891  1.0818  0.1929  0.4239
  143HFI     C3 2200   1.738   3.360   2.663  0.5829  0.0373 -0.0909
  143HFI     F4 2201   1.733   3.491   2.644 -0.2100 -0.2823  0.3139
  143HFI     F5 2202   1.651   3.334   2.760 -0.6100 -0.0541 -0.1986
  143HFI     F6 2203   1.706   3.299   2.550  0.3321 -0.2214 -0.2031
  143HFI     H1 2204   1.971   3.417   2.576  0.0059 -1.3183 -1.5797
  143HFI     H2 2205   1.890   3.370   2.807 -1.3901  0.2789 -0.6894
  144HFI     O1 2206   1.544   0.537   0.401  0.7181 -0.8374  0.1767
  144HFI     C1 2207   1.505   0.669   0.433 -0.0712  0.5487 -0.2545
  144HFI     C2 2208   1.358   0.676   0.475  0.1893 -0.4855 -0.4190
  144HFI     F1 2209   1.275   0.617   0.386  0.0649  0.4831 -0.3099
  144HFI     F2 2210   1.316   0.802   0.493 -0.0365 -0.6840  0.6797
  144HFI     F3 2211   1.332   0.615   0.587 -0.2516 -0.2308  0.6195
  144HFI     C3 2212   1.541   0.769   0.312  0.1860  0.1414  0.3895
  144HFI     F4 2213   1.665   0.753   0.296 -0.2684 -0.1444  0.2202
  144HFI     F5 2214   1.512   0.901   0.348 -0.3993 -0.3000 -0.0400
  144HFI     F6 2215   1.474   0.734   0.196 -0.4910 -0.2950  0.2735
  144HFI     H1 2216   1.463   0.498   0.365  0.1054 -0.3316  0.9985
  144HFI     H2 2217   1.563   0.711   0.516 -0.4284 -0.8200  0.7073
  145HFI     O1 2218   0.848   2.194   0.205 -0.1974 -0.0109 -0.6623
  145HFI     C1 2219   0.807   2.194   0.341 -0.1981  0.4923  0.1802
  145HFI     C2 2220   0.675   2.122   0.370  0.1266  0.0357  1.0581
  145HFI     F1 2221   0.641   2.107   0.499 -0.2998 -0.0821 -0.1167
  145HFI     F2 2222   0.688   1.994   0.327  0.0357  0.0303 -0.2889
  145HFI     F3 2223   0.579   2.181   0.308  0.0928  0.0917  0.1477
  145HFI     C3 2224   0.810   2.334   0.401 -0.4231 -0.1494  0.5995
  145HFI     F4 2225   0.803   2.333   0.538 -0.6311  0.5055 -0.0157
  145HFI     F5 2226   0.707   2.422   0.363 -0.0685 -1.0320  0.0197
  145HFI     F6 2227   0.923   2.397   0.368 -0.3350 -0.3703 -0.3648
  145HFI     H1 2228   0.770   2.221   0.154 -0.1113 -0.9630 -1.3015
  145HFI     H2 2229   0.879   2.144   0.407 -0.7367  0.5501  0.8150
  146HFI     O1 2230   1.396   2.952   2.356  1.1372  0.2088  0.2552
  146HFI     C1 2231   1.390   3.073   2.268  0.0773  0.0146  0.8936
  146HFI     C2 2232   1.509   3.177   2.282  0.1670  0.1477 -0.2235
  146HFI     F1 2233   1.523   3.254   2.172  0.0897 -0.1135  0.1382
  146HFI     F2 2234   1.631   3.124   2.314  0.4275 -0.4818 -0.0455
  146HFI     F3 2235   1.487   3.258   2.385  0.3109 -0.1973  0.6519
  146HFI     C3 2236   1.250   3.147   2.289 -0.0617  0.5378 -0.5857
  146HFI     F4 2237   1.154   3.069   2.230  0.2948 -0.6127  0.2799
  146HFI     F5 2238   1.250   3.264   2.217 -0.1521  0.7474 -0.0414
  146HFI     F6 2239   1.213   3.167   2.416 -0.7893  0.0650 -0.2906
  146HFI     H1 2240   1.413   2.984   2.447 -1.0336  0.8570  0.4703
  146HFI     H2 2241   1.400   3.047   2.162  1.4488  1.9785  0.5157
  147HFI     O1 2242   3.203   1.878   3.734 -0.3350  0.3958 -0.2072
  147HFI     C1 2243   3.070   1.944   3.737  0.0953 -0.2870 -0.0889
  147HFI     C2 2244   3.055   2.075   3.654 -0.3377  0.1297 -0.6006
  147HFI     F1 2245   3.124   2.071   3.536 -0.2309  0.2464 -0.0614
  147HFI     F2 2246   3.112   2.181   3.720  0.3371  0.2040 -0.2202
  147HFI     F3 2247   2.930   2.099   3.616 -0.7202  0.2482 -0.3443
  147HFI     C3 2248   3.010   1.946   3.884  0.0964 -0.3898  0.5111
  147HFI     F4 2249   3.066   2.042   3.961  0.5933 -0.4186  0.2561
  147HFI     F5 2250   3.043   1.829   3.948 -0.0583  0.3846 -0.3824
  147HFI     F6 2251   2.873   1.959   3.882 -0.1242  0.9181  0.1854
  147HFI     H1 2252   3.265   1.949   3.757 -0.8706  1.3892 -1.7317
  147HFI     H2 2253   3.009   1.868   3.688  0.2944  0.4558 -1.5460
  148HFI     O1 2254   3.246   2.685   2.333  0.3563 -0.1016 -0.3043
  148HFI     C1 2255   3.182   2.802   2.264 -0.0706  0.9236 -0.3474
  148HFI     C2 2256   3.265   2.925   2.288  0.4390  0.1313 -0.4380
  148HFI     F1 2257   3.272   2.971   2.410 -0.0079 -0.1614 -0.6014
  148HFI     F2 2258   3.214   3.026   2.208  0.1176 -0.0678  0.5469
  148HFI     F3 2259   3.389   2.903   2.250  0.0011 -0.4822  0.4655
  148HFI     C3 2260   3.027   2.804   2.296 -0.1190 -0.7028 -0.2825
  148HFI     F4 2261   2.963   2.696   2.225 -0.3514 -0.1017 -0.2777
  148HFI     F5 2262   2.978   2.925   2.252  0.0599  0.0737 -0.3019
  148HFI     F6 2263   2.998   2.790   2.430 -0.0788 -0.4202 -0.2760
  148HFI     H1 2264   3.202   2.601   2.313  0.2631 -0.1871  0.2745
  148HFI     H2 2265   3.194   2.787   2.156  1.6468  3.0776 -0.4761
  149HFI     O1 2266   2.089   0.503   2.560 -0.5852 -0.2251  0.2794
  149HFI     C1 2267   2.094   0.509   2.700  0.0918 -0.1104 -0.3642
  149HFI     C2 2268   1.989   0.408   2.758 -0.4288  0.4665  0.3665
  149HFI     F1 2269   1.861   0.443   2.734 -0.9543 -0.3529  0.1768
  149HFI     F2 2270   2.017   0.375   2.886 -0.4740  0.5482  0.2150
  149HFI     F3 2271   2.005   0.291   2.702 -0.0221  0.0815  0.0360
  149HFI     C3 2272   2.074   0.646   2.751 -0.1310 -0.8433  0.4912
  149HFI     F4 2273   1.975   0.708   2.685  0.0869  0.4015 -0.2245
  149HFI     F5 2274   2.190   0.712   2.731 -0.6752  0.7782  0.7917
  149HFI     F6 2275   2.033   0.648   2.880 -0.0616  0.1526  0.3944
  149HFI     H1 2276   2.110   0.419   2.518 -2.9929 -1.2775  1.1073
  149HFI     H2 2277   2.191   0.469   2.732 -0.8171 -0.4834  2.0565
  150HFI     O1 2278   3.393   0.234   2.990 -0.6561  0.2643 -0.7964
  150HFI     C1 2279   3.400   0.115   3.074  0.3594 -0.0065  0.0189
  150HFI     C2 2280   3.441  -0.007   2.983 -0.7984 -0.1108  0.0272
  150HFI     F1 2281   3.361  -0.035   2.880 -0.1702 -0.2819 -0.8458
  150HFI     F2 2282   3.461  -0.115   3.059  0.0395 -0.3927  0.5262
  150HFI     F3 2283   3.563   0.008   2.933 -0.0117 -0.3636 -0.0016
  150HFI     C3 2284   3.276   0.108   3.161  0.8318  0.5788  0.0854
  150HFI     F4 2285   3.280   0.006   3.257 -0.1720  0.3072  0.4044
  150HFI     F5 2286   3.169   0.082   3.088  0.2425 -0.6501  0.2312
  150HFI     F6 2287   3.253   0.221   3.231  0.1728  0.1524 -0.0119
  150HFI     H1 2288   3.302   0.267   2.977 -0.4579  0.6000 -1.3253
  150HFI     H2 2289   3.487   0.126   3.140  1.5624 -1.2740 -1.2926
  151HFI     O1 2290   2.606   1.586   0.405 -0.1193  0.2000 -0.1804
  151HFI     C1 2291   2.582   1.476   0.494  0.1324  0.6497 -0.3245
  151HFI     C2 2292   2.675   1.360   0.448 -0.2661  0.1292  0.1761
  151HFI     F1 2293   2.657   1.305   0.328  0.7321 -0.1606  0.4287
  151HFI     F2 2294   2.671   1.258   0.538 -0.1599  0.1216 -0.1065
  151HFI     F3 2295   2.801   1.409   0.444  0.6738 -0.0040 -0.1486
  151HFI     C3 2296   2.429   1.440   0.496 -0.5748 -0.6411 -0.4407
  151HFI     F4 2297   2.396   1.373   0.606 -0.1083  0.0902 -0.1152
  151HFI     F5 2298   2.393   1.364   0.389  0.7054 -0.4103 -0.0438
  151HFI     F6 2299   2.362   1.554   0.493  0.2281  0.1636  0.2339
  151HFI     H1 2300   2.700   1.609   0.416 -0.0427  0.9632 -2.1841
  151HFI     H2 2301   2.605   1.502   0.599 -0.8736 -1.1998  0.3724
  152HFI     O1 2302   0.267   1.622   0.576 -0.0718  0.6812 -0.2372
  152HFI     C1 2303   0.352   1.689   0.470  0.6888  0.3273  0.2940
  152HFI     C2 2304   0.498   1.665   0.499  0.4747 -0.1915  0.1186
  152HFI     F1 2305   0.542   1.542   0.472  0.8387  0.7197 -0.0714
  152HFI     F2 2306   0.537   1.692   0.627 -0.4047 -0.1390 -0.2126
  152HFI     F3 2307   0.567   1.744   0.415 -0.5829  0.2322  0.0954
  152HFI     C3 2308   0.307   1.839   0.487 -0.3967 -0.1779  0.3622
  152HFI     F4 2309   0.368   1.911   0.388  0.9854  0.1623  0.8677
  152HFI     F5 2310   0.352   1.888   0.608  0.5947 -0.3397 -0.0095
  152HFI     F6 2311   0.173   1.865   0.490  0.4541  0.1736 -0.4215
  152HFI     H1 2312   0.172   1.636   0.559  0.3520  1.7846 -1.8929
  152HFI     H2 2313   0.325   1.656   0.370  1.1864 -1.8922  0.8588
  153HFI     O1 2314   1.846   1.358   2.209  0.0456  0.1189 -0.1271
  153HFI     C1 2315   1.934   1.251   2.273 -0.1017  0.1047  0.0967
  153HFI     C2 2316   1.855   1.175   2.381 -0.6590 -0.3234 -0.2704
  153HFI     F1 2317   1.826   1.262   2.479  0.2645  0.0599  0.1069
  153HFI     F2 2318   1.921   1.073   2.426  0.2007  0.3448  0.4302
  153HFI     F3 2319   1.739   1.139   2.328  0.1810 -0.1028 -0.0022
  153HFI     C3 2320   2.077   1.302   2.308 -0.6563  1.3686 -0.0865
  153HFI     F4 2321   2.153   1.204   2.362  0.6184 -0.3625 -0.1687
  153HFI     F5 2322   2.072   1.403   2.399 -0.3152 -0.0202  0.2312
  153HFI     F6 2323   2.147   1.347   2.204  0.1150  0.2341 -0.8110
  153HFI     H1 2324   1.755   1.337   2.236  0.6996 -1.2305  1.1263
  153HFI     H2 2325   1.962   1.185   2.190  1.6053  0.7257  0.1595
  154HFI     O1 2326   2.056   2.772   3.501  0.2545 -0.1904 -0.1243
  154HFI     C1 2327   2.175   2.827   3.556 -0.1469  0.3001 -0.3166
  154HFI     C2 2328   2.165   2.854   3.710  0.2451 -0.0619  0.1214
  154HFI     F1 2329   2.154   2.729   3.779 -0.4656  0.3439 -0.2707
  154HFI     F2 2330   2.055   2.926   3.746  0.1683 -0.6700 -0.3029
  154HFI     F3 2331   2.276   2.914   3.747  0.7119 -0.5142 -0.0414
  154HFI     C3 2332   2.213   2.950   3.474 -0.4489 -0.6499 -0.1166
  154HFI     F4 2333   2.155   3.065   3.523  0.1652 -0.1506 -0.6741
  154HFI     F5 2334   2.184   2.944   3.342 -0.5978  0.3539 -0.2111
  154HFI     F6 2335   2.342   2.966   3.491  0.1629  0.1949 -0.0196
  154HFI     H1 2336   2.011   2.847   3.459  1.1662  0.3752 -0.1015
  154HFI     H2 2337   2.257   2.755   3.547  0.7105  1.0811  1.1553
  155HFI     O1 2338   1.785   1.606   2.437 -0.1805 -0.0304 -0.3365
  155HFI     C1 2339   1.859   1.729   2.428  0.6218 -0.2677  0.2237
  155HFI     C2 2340   1.918   1.753   2.284  0.3412  0.9259 -0.0242
  155HFI     F1 2341   1.966   1.877   2.272  0.4357  0.4017  0.0792
  155HFI     F2 2342   1.817   1.744   2.197  0.2647 -0.0459 -0.4872
  155HFI     F3 2343   2.013   1.658   2.240  0.0921 -0.2956  0.4377
  155HFI     C3 2344   1.962   1.733   2.546 -0.2310  0.4058 -1.1065
  155HFI     F4 2345   2.025   1.849   2.550  0.0813  0.3483 -0.0443
  155HFI     F5 2346   2.055   1.632   2.535  0.2512  0.3849 -0.2024
  155HFI     F6 2347   1.892   1.716   2.665 -0.4156  0.5214  0.0540
  155HFI     H1 2348   1.833   1.538   2.386  0.9776  0.7881 -0.3442
  155HFI     H2 2349   1.791   1.812   2.450 -0.1148 -1.5607  3.0719
  156HFI     O1 2350   2.386   2.793   2.990  0.7218 -0.2280  0.1830
  156HFI     C1 2351   2.534   2.775   2.993  0.1721  0.3752 -0.3112
  156HFI     C2 2352   2.594   2.837   3.122  0.6045 -0.2958  0.2182
  156HFI     F1 2353   2.730   2.853   3.124  0.5870 -0.5162 -0.3229
  156HFI     F2 2354   2.554   2.764   3.231  0.1284  0.3148  0.2817
  156HFI     F3 2355   2.548   2.967   3.142  0.2057  0.6502  0.4257
  156HFI     C3 2356   2.601   2.833   2.860  0.0152 -0.1235  0.8650
  156HFI     F4 2357   2.720   2.790   2.836 -0.1480  0.2276  0.2693
  156HFI     F5 2358   2.598   2.966   2.872 -0.4584 -0.0968  0.0789
  156HFI     F6 2359   2.526   2.809   2.747  0.1543  0.2892 -0.0693
  156HFI     H1 2360   2.366   2.887   2.973 -1.9769 -0.6707  0.6558
  156HFI     H2 2361   2.557   2.668   2.990  1.3759  0.5759  1.0928
  157HFI     O1 2362   1.199   2.509   0.813 -0.1745 -0.3501 -0.3011
  157HFI     C1 2363   1.276   2.447   0.702 -0.0220 -0.1944  0.4633
  157HFI     C2 2364   1.421   2.494   0.700 -0.3678 -0.2002 -0.2300
  157HFI     F1 2365   1.491   2.442   0.596  0.1275 -0.0715  0.7545
  157HFI     F2 2366   1.477   2.458   0.820  0.5983 -0.1964 -0.2286
  157HFI     F3 2367   1.426   2.632   0.690 -0.1037  0.1766  0.0450
  157HFI     C3 2368   1.193   2.456   0.571 -1.0539 -0.7472  0.4934
  157HFI     F4 2369   1.258   2.378   0.476 -0.1232  0.2204 -0.6299
  157HFI     F5 2370   1.181   2.581   0.515 -0.5656 -0.4941  0.5825
  157HFI     F6 2371   1.072   2.401   0.584  0.0507 -0.1492  0.1721
  157HFI     H1 2372   1.221   2.603   0.806  0.1920 -0.4576 -0.6749
  157HFI     H2 2373   1.280   2.338   0.714 -1.6882 -0.5194 -1.5039
  158HFI     O1 2374   1.423   2.904   0.339 -0.0945  0.3488 -0.0498
  158HFI     C1 2375   1.535   2.902   0.247 -0.0792  0.3127 -0.5567
  158HFI     C2 2376   1.630   2.788   0.291  0.6178 -0.0463  0.0089
  158HFI     F1 2377   1.656   2.798   0.429  0.2704 -0.1898 -0.0049
  158HFI     F2 2378   1.745   2.782   0.221 -0.2652  0.0765  0.2396
  158HFI     F3 2379   1.570   2.668   0.276  0.5874  0.2013 -0.4606
  158HFI     C3 2380   1.608   3.035   0.224  0.2978  0.2646  0.2077
  158HFI     F4 2381   1.682   3.055   0.336 -0.7954 -0.5263  0.1326
  158HFI     F5 2382   1.522   3.136   0.220  0.3317  0.2539 -0.0738
  158HFI     F6 2383   1.698   3.028   0.122  0.7100 -0.3055  0.5687
  158HFI     H1 2384   1.448   2.932   0.429  0.0101 -0.4466  0.1750
  158HFI     H2 2385   1.500   2.882   0.145  0.7601 -1.3737 -0.5469
  159HFI     O1 2386   3.194   1.534   0.281  0.0724  0.7891 -0.2140
  159HFI     C1 2387   3.307   1.594   0.207 -0.0025 -0.5263 -0.1203
  159HFI     C2 2388   3.296   1.555   0.055  0.3903  0.3887 -0.0587
  159HFI     F1 2389   3.287   1.423   0.043  0.0519 -0.0372 -0.0850
  159HFI     F2 2390   3.395   1.604  -0.025  0.1762  0.0477 -0.2296
  159HFI     F3 2391   3.181   1.607   0.006  0.0484 -0.3445  0.6704
  159HFI     C3 2392   3.438   1.565   0.275 -0.8755 -0.0235  0.3509
  159HFI     F4 2393   3.436   1.596   0.404 -0.5547 -0.0770 -0.2259
  159HFI     F5 2394   3.544   1.629   0.222 -0.5463  0.5790 -0.4195
  159HFI     F6 2395   3.462   1.432   0.258 -0.1164 -0.0378 -0.5651
  159HFI     H1 2396   3.209   1.438   0.269  3.1956  1.0802  0.9451
  159HFI     H2 2397   3.307   1.704   0.211  0.3556 -0.4709 -1.4319
  160HFI     O1 2398   0.973   1.280   3.391 -0.2559  1.1241  0.1954
  160HFI     C1 2399   0.999   1.410   3.455  0.7646 -0.1642  0.1181
  160HFI     C2 2400   1.027   1.529   3.360  0.3949 -0.1919 -0.4084
  160HFI     F1 2401   0.944   1.523   3.253  0.1063  0.3159 -0.2521
  160HFI     F2 2402   1.156   1.527   3.324 -0.2698  0.1995  0.1832
  160HFI     F3 2403   0.995   1.638   3.424 -0.3728  0.2126 -0.1632
  160HFI     C3 2404   1.104   1.399   3.573 -0.4254  0.9532  0.0068
  160HFI     F4 2405   1.219   1.343   3.528  0.3744  0.1213 -0.1981
  160HFI     F5 2406   1.059   1.325   3.673  0.9713  0.1814 -0.1200
  160HFI     F6 2407   1.134   1.518   3.622  1.0081 -0.0559  0.2306
  160HFI     H1 2408   1.050   1.262   3.335 -1.0205  0.1866 -0.5730
  160HFI     H2 2409   0.913   1.430   3.520  0.7881 -1.6333  0.6206
  161HFI     O1 2410   0.938   3.341   3.739 -0.4387 -1.0021 -0.2964
  161HFI     C1 2411   0.811   3.291   3.803  0.0293  0.5475  0.3521
  161HFI     C2 2412   0.827   3.145   3.874  0.0728 -0.4323 -0.3214
  161HFI     F1 2413   0.857   3.048   3.786  0.1724  0.0330  0.6261
  161HFI     F2 2414   0.709   3.113   3.933 -0.3355  0.3502 -0.1950
  161HFI     F3 2415   0.927   3.148   3.965  0.1977  0.3412  0.0984
  161HFI     C3 2416   0.690   3.304   3.705 -0.9511 -0.3312 -0.2718
  161HFI     F4 2417   0.577   3.278   3.759 -0.2339  0.4908 -0.4127
  161HFI     F5 2418   0.707   3.224   3.600  0.8668  0.5015  0.4151
  161HFI     F6 2419   0.680   3.434   3.653  0.2581  0.2867 -0.1607
  161HFI     H1 2420   0.971   3.275   3.675  0.5020 -1.2549  0.4343
  161HFI     H2 2421   0.789   3.358   3.887 -1.0645 -0.8784  1.2420
  162HFI     O1 2422   0.794   1.905   2.459 -0.3724 -0.1307 -0.2609
  162HFI     C1 2423   0.916   1.833   2.418 -0.1707 -0.4435 -0.1068
  162HFI     C2 2424   0.918   1.808   2.269  0.4922  0.5275  0.2429
  162HFI     F1 2425   0.823   1.723   2.227 -0.2364  0.2749  0.3704
  162HFI     F2 2426   1.036   1.753   2.232 -0.0914 -0.2802  0.2250
  162HFI     F3 2427   0.902   1.916   2.198  0.2570  0.0920 -0.5559
  162HFI     C3 2428   0.942   1.708   2.507  0.8116 -0.2728  0.0511
  162HFI     F4 2429   0.837   1.615   2.507  0.4337 -0.0983 -0.2200
  162HFI     F5 2430   0.949   1.761   2.632 -0.0414  0.5200  0.8077
  162HFI     F6 2431   1.055   1.643   2.480 -0.3335  0.4276  0.1015
  162HFI     H1 2432   0.723   1.838   2.453 -1.2347  0.4791  2.2974
  162HFI     H2 2433   1.001   1.901   2.423 -1.1245  1.1883 -3.6409
  163HFI     O1 2434   2.309   0.774   2.477 -0.0019  0.3107 -0.8385
  163HFI     C1 2435   2.267   0.877   2.380 -0.0013  0.0549  0.6463
  163HFI     C2 2436   2.161   0.822   2.285 -0.3510 -0.0151 -0.2984
  163HFI     F1 2437   2.126   0.915   2.191 -0.3268  0.5124  0.3104
  163HFI     F2 2438   2.048   0.794   2.357  0.5364 -0.0971  0.9686
  163HFI     F3 2439   2.201   0.707   2.226  0.0158 -0.1801  0.1481
  163HFI     C3 2440   2.389   0.945   2.303  0.1018  0.5905 -0.1874
  163HFI     F4 2441   2.477   1.008   2.388  0.3480  0.2497 -0.1002
  163HFI     F5 2442   2.347   1.040   2.219 -0.3702  0.1008  0.3865
  163HFI     F6 2443   2.462   0.848   2.244  0.3035  0.2300 -0.0464
  163HFI     H1 2444   2.364   0.708   2.431  0.1210 -0.9595  1.0808
  163HFI     H2 2445   2.222   0.962   2.433  0.5579  0.6258  0.2161
  164HFI     O1 2446   2.190   2.170   2.508  0.0587 -0.1200  0.1524
  164HFI     C1 2447   2.214   2.059   2.421 -0.8098  0.4414 -0.1851
  164HFI     C2 2448   2.324   1.961   2.470 -0.2469 -0.2248  0.3498
  164HFI     F1 2449   2.443   2.021   2.454 -0.2390  0.3583  0.1731
  164HFI     F2 2450   2.318   1.838   2.397 -0.6709 -0.4781  0.9705
  164HFI     F3 2451   2.305   1.931   2.596  0.2399  0.1569  0.0630
  164HFI     C3 2452   2.233   2.107   2.270 -0.6043 -0.3370  0.0074
  164HFI     F4 2453   2.115   2.154   2.216 -0.7878  0.1413  0.1017
  164HFI     F5 2454   2.270   2.001   2.193 -0.1653 -0.2337 -0.1610
  164HFI     F6 2455   2.325   2.204   2.258  0.1881  0.6291  0.2906
  164HFI     H1 2456   2.268   2.228   2.506 -0.8968  1.2095  0.8153
  164HFI     H2 2457   2.123   1.997   2.417 -0.3390 -0.2930  0.2942
  165HFI     O1 2458   0.816   1.333   2.486  0.3613  0.4042 -0.0508
  165HFI     C1 2459   0.703   1.288   2.406  0.3670  0.0086 -0.5148
  165HFI     C2 2460   0.585   1.242   2.488  0.3712  0.0272 -0.4402
  165HFI     F1 2461   0.550   1.325   2.589  0.1817 -0.3119  0.0073
  165HFI     F2 2462   0.604   1.122   2.551  0.3340 -0.1176 -0.0041
  165HFI     F3 2463   0.476   1.227   2.412  0.2006 -0.7669 -0.0996
  165HFI     C3 2464   0.744   1.178   2.302  0.0458 -0.0190 -0.3293
  165HFI     F4 2465   0.773   1.060   2.364 -0.1181  0.2712  0.5270
  165HFI     F5 2466   0.849   1.216   2.226 -0.0266 -0.5230  0.1955
  165HFI     F6 2467   0.648   1.147   2.220 -0.3275  0.0005 -0.2513
  165HFI     H1 2468   0.897   1.312   2.437 -0.2977  1.0514 -1.4670
  165HFI     H2 2469   0.671   1.374   2.345  2.8278  1.9001  0.7193
  166HFI     O1 2470   2.487   1.992   0.652 -0.3010  0.0238 -1.0244
  166HFI     C1 2471   2.518   2.085   0.544  0.6417  0.0281  0.7335
  166HFI     C2 2472   2.388   2.134   0.477  0.8350 -0.5472 -0.5219
  166HFI     F1 2473   2.301   2.148   0.572 -0.1542 -0.3709 -0.2361
  166HFI     F2 2474   2.337   2.039   0.395 -0.4560  0.4964 -0.4531
  166HFI     F3 2475   2.398   2.257   0.404  0.3854  0.3486 -0.6974
  166HFI     C3 2476   2.627   2.017   0.459  0.1489  0.3471 -0.6461
  166HFI     F4 2477   2.741   1.998   0.531  0.2526 -0.0361  0.7832
  166HFI     F5 2478   2.654   2.096   0.353 -0.1602  0.1289 -0.5733
  166HFI     F6 2479   2.591   1.892   0.418  0.6289  0.1370 -0.3226
  166HFI     H1 2480   2.413   1.935   0.624 -0.8312 -0.3417  0.9878
  166HFI     H2 2481   2.565   2.174   0.588  1.3942  0.0796 -0.1656
  167HFI     O1 2482   2.792   0.898   3.452  0.5391  0.2514 -0.2134
  167HFI     C1 2483   2.764   1.000   3.359 -0.3387  0.4890  0.0332
  167HFI     C2 2484   2.611   0.993   3.325 -0.1922 -0.1000 -0.7826
  167HFI     F1 2485   2.585   0.886   3.242  0.7027 -0.0790  0.7839
  167HFI     F2 2486   2.565   1.100   3.263  0.0412  0.4274  0.5143
  167HFI     F3 2487   2.542   0.978   3.446  0.5615  0.5368 -0.4199
  167HFI     C3 2488   2.853   1.009   3.235  0.4686 -0.4330  0.7273
  167HFI     F4 2489   2.811   1.106   3.150  0.0521  0.1485  0.0925
  167HFI     F5 2490   2.855   0.893   3.162  0.9998  0.2531  0.4195
  167HFI     F6 2491   2.987   1.028   3.267 -0.4241 -0.2402  0.1716
  167HFI     H1 2492   2.727   0.894   3.523 -1.0985  0.3855 -1.6581
  167HFI     H2 2493   2.777   1.096   3.410 -0.2624  1.1119 -1.1578
  168HFI     O1 2494   1.563   1.374   2.328  0.4066  0.3776 -0.3780
  168HFI     C1 2495   1.418   1.398   2.284 -0.0253  0.0588 -0.1870
  168HFI     C2 2496   1.390   1.549   2.270 -0.8473  1.4408 -0.7368
  168HFI     F1 2497   1.284   1.567   2.188  1.0492  0.1442 -0.1501
  168HFI     F2 2498   1.506   1.598   2.213  0.0573  0.2046 -0.3257
  168HFI     F3 2499   1.373   1.595   2.390 -0.1782 -0.1893 -0.4934
  168HFI     C3 2500   1.315   1.322   2.365 -0.4980 -0.3187 -0.3318
  168HFI     F4 2501   1.191   1.341   2.310  0.0093 -0.2371 -0.0803
  168HFI     F5 2502   1.319   1.355   2.496 -0.1784  0.2575  0.5874
  168HFI     F6 2503   1.352   1.187   2.350 -0.5562 -0.0261  0.0824
  168HFI     H1 2504   1.573   1.382   2.425  1.5803 -2.1117 -0.2367
  168HFI     H2 2505   1.401   1.359   2.183 -2.7089  1.1623 -0.2151
  169HFI     O1 2506   0.106   0.366   2.545 -0.3080 -0.2245 -0.0609
  169HFI     C1 2507   0.133   0.442   2.413 -0.5668  0.1095 -0.2833
  169HFI     C2 2508   0.007   0.482   2.338  0.1953  0.1251  0.0547
  169HFI     F1 2509   0.026   0.569   2.239  0.0102  0.0964  0.1087
  169HFI     F2 2510  -0.085   0.532   2.423 -0.4737  0.5492 -0.3595
  169HFI     F3 2511  -0.051   0.375   2.284  0.2152  0.3097 -0.0836
  169HFI     C3 2512   0.249   0.384   2.328  0.9194  0.4271  0.4701
  169HFI     F4 2513   0.354   0.350   2.407  0.2526 -0.1789 -0.4219
  169HFI     F5 2514   0.290   0.469   2.234  0.4513  0.1361  0.0081
  169HFI     F6 2515   0.214   0.275   2.259  0.0357 -0.1555 -0.4091
  169HFI     H1 2516   0.147   0.281   2.524 -2.8215 -1.8271  1.3208
  169HFI     H2 2517   0.177   0.537   2.445  1.3512 -0.5900 -0.7646
  170HFI     O1 2518   1.155   1.204   3.139  0.3011  0.2623 -0.7888
  170HFI     C1 2519   1.194   1.066   3.145 -0.1901 -0.2900 -0.2116
  170HFI     C2 2520   1.239   1.024   3.280 -0.0368 -0.8333 -0.1737
  170HFI     F1 2521   1.157   1.074   3.373  0.4653  0.0684 -0.0760
  170HFI     F2 2522   1.365   1.064   3.316 -0.0034  0.3218 -0.1310
  170HFI     F3 2523   1.241   0.893   3.298 -0.6216 -0.0044  0.4532
  170HFI     C3 2524   1.299   1.035   3.029 -0.1547  0.0071 -0.5283
  170HFI     F4 2525   1.254   1.052   2.907 -0.0676  0.8136 -0.1034
  170HFI     F5 2526   1.349   0.913   3.031 -0.1141 -0.2287  0.2579
  170HFI     F6 2527   1.405   1.115   3.042  0.1689  0.1025  0.4159
  170HFI     H1 2528   1.230   1.254   3.104  0.6410 -0.3426 -0.9441
  170HFI     H2 2529   1.101   1.010   3.131  0.4840 -1.8522  1.2089
  171HFI     O1 2530   1.199   0.250   2.538 -0.0524  0.5261  0.3570
  171HFI     C1 2531   1.309   0.274   2.440 -0.4900  0.2703  0.2509
  171HFI     C2 2532   1.254   0.257   2.297 -0.2036  0.0951 -0.2828
  171HFI     F1 2533   1.346   0.293   2.208  0.5566 -0.5199 -0.0330
  171HFI     F2 2534   1.150   0.341   2.284  0.1230  0.1006 -0.0970
  171HFI     F3 2535   1.217   0.125   2.267 -0.3879  0.0631 -0.1132
  171HFI     C3 2536   1.433   0.185   2.469 -0.1711 -0.4745 -0.2796
  171HFI     F4 2537   1.402   0.080   2.555  0.4690 -0.0047  0.4201
  171HFI     F5 2538   1.523   0.257   2.539  0.3262  0.0303 -0.0583
  171HFI     F6 2539   1.500   0.135   2.366  0.6582 -0.5605  0.3465
  171HFI     H1 2540   1.156   0.166   2.515 -0.4918  0.5329  1.1290
  171HFI     H2 2541   1.350   0.375   2.454 -0.4745  0.0825  1.6797
  172HFI     O1 2542   0.294   0.491   3.253 -0.0831 -0.4065  0.1154
  172HFI     C1 2543   0.176   0.523   3.326  0.6274  0.3502  0.2679
  172HFI     C2 2544   0.075   0.598   3.235  0.0424 -0.2253  0.5102
  172HFI     F1 2545   0.034   0.523   3.131 -0.5739  0.2460  0.1897
  172HFI     F2 2546   0.142   0.705   3.187 -0.6012 -0.6826 -0.3373
  172HFI     F3 2547  -0.037   0.642   3.290  0.0482  0.2248  0.4661
  172HFI     C3 2548   0.201   0.581   3.460  0.2801  0.5774 -0.9273
  172HFI     F4 2549   0.087   0.595   3.527 -0.0991  0.1809 -0.2037
  172HFI     F5 2550   0.249   0.702   3.457  0.6863  0.8706 -1.2197
  172HFI     F6 2551   0.285   0.504   3.533 -0.0709 -0.3573 -0.1194
  172HFI     H1 2552   0.312   0.576   3.209  1.1348  1.5725  4.2319
  172HFI     H2 2553   0.132   0.424   3.342 -1.5586  1.2755  0.1137
  173HFI     O1 2554   0.729   3.103   3.267  0.3439  0.1634 -0.3808
  173HFI     C1 2555   0.741   3.205   3.166  0.0386 -0.4912  0.7541
  173HFI     C2 2556   0.694   3.153   3.026  0.1592  0.0924 -0.6034
  173HFI     F1 2557   0.678   3.256   2.945  0.0079  0.4699  0.0331
  173HFI     F2 2558   0.576   3.085   3.039  0.1208  0.7715 -0.5782
  173HFI     F3 2559   0.770   3.065   2.964  0.4630  0.1742  0.2429
  173HFI     C3 2560   0.892   3.257   3.164 -0.2580  0.0528 -0.4818
  173HFI     F4 2561   0.917   3.339   3.062  0.2100 -0.0220 -0.0115
  173HFI     F5 2562   0.980   3.159   3.144  0.0341  0.3627  0.0383
  173HFI     F6 2563   0.922   3.314   3.284 -0.1089  0.2939 -0.4174
  173HFI     H1 2564   0.695   3.020   3.230 -0.8751  0.2594  0.4935
  173HFI     H2 2565   0.687   3.298   3.189  0.9375  0.1689  0.2334
  174HFI     O1 2566   0.460   3.044   3.527 -0.5713  0.2647  0.1413
  174HFI     C1 2567   0.441   2.900   3.516  0.5656 -0.2592 -0.2749
  174HFI     C2 2568   0.440   2.823   3.656  1.0018 -0.6947 -0.5027
  174HFI     F1 2569   0.317   2.840   3.707  0.1261  0.0987 -0.0916
  174HFI     F2 2570   0.538   2.865   3.741 -0.4233 -0.2495 -0.2219
  174HFI     F3 2571   0.461   2.691   3.633 -0.2495  0.4127 -0.1340
  174HFI     C3 2572   0.536   2.834   3.413 -0.1091  0.2811  0.6146
  174HFI     F4 2573   0.494   2.714   3.368 -0.7995  0.0320 -0.0613
  174HFI     F5 2574   0.662   2.821   3.461 -0.0876 -0.1364 -0.1824
  174HFI     F6 2575   0.543   2.912   3.304  0.3039  0.0441 -0.2282
  174HFI     H1 2576   0.474   3.082   3.438  2.0581 -2.5828 -0.7760
  174HFI     H2 2577   0.345   2.880   3.467  0.5486  0.5038 -0.5672
  175HFI     O1 2578   2.403   2.450   2.937 -0.2321  0.1834 -0.0781
  175HFI     C1 2579   2.376   2.349   2.831  0.1233 -0.8547 -0.8797
  175HFI     C2 2580   2.459   2.220   2.861  0.3934  0.4950  0.3740
  175HFI     F1 2581   2.453   2.126   2.764  0.2823 -0.1411 -0.0054
  175HFI     F2 2582   2.401   2.165   2.969  0.3705  0.0440  0.2327
  175HFI     F3 2583   2.592   2.232   2.887 -0.0677  0.2180  0.4585
  175HFI     C3 2584   2.427   2.425   2.698  0.1910  0.0265  0.2790
  175HFI     F4 2585   2.424   2.349   2.591 -0.2001 -0.1858 -0.1576
  175HFI     F5 2586   2.555   2.476   2.705 -0.4799 -0.3475  0.2162
  175HFI     F6 2587   2.351   2.534   2.670  0.1357 -0.1958  0.0153
  175HFI     H1 2588   2.349   2.428   3.015  0.7773 -3.9021 -0.4000
  175HFI     H2 2589   2.268   2.332   2.823  0.1128 -1.7872  1.0679
  176HFI     O1 2590   0.266   1.157   2.262  0.0308 -0.1057  0.4590
  176HFI     C1 2591   0.130   1.141   2.254  0.3174 -0.0600 -0.4107
  176HFI     C2 2592   0.047   1.272   2.288 -0.3650 -0.0342  0.5850
  176HFI     F1 2593  -0.079   1.265   2.245  0.4413 -0.0826 -0.3861
  176HFI     F2 2594   0.100   1.373   2.212 -0.1691 -0.1715 -1.0749
  176HFI     F3 2595   0.055   1.315   2.416  0.2658 -0.6214  0.5989
  176HFI     C3 2596   0.088   1.016   2.345 -0.7933  0.1104  0.1021
  176HFI     F4 2597   0.165   0.903   2.312  0.6698  0.0487 -0.1016
  176HFI     F5 2598  -0.041   0.983   2.328  0.1403  0.4473  0.4732
  176HFI     F6 2599   0.110   1.040   2.470  0.1479  0.7307  0.5427
  176HFI     H1 2600   0.289   1.128   2.352  1.6688 -2.8690 -0.7829
  176HFI     H2 2601   0.093   1.105   2.157 -0.5804  0.5929 -0.3232
  177HFI     O1 2602   1.596   1.941   1.440 -0.4671 -0.0214  0.7113
  177HFI     C1 2603   1.481   1.925   1.525  0.0426 -0.1563 -0.1714
  177HFI     C2 2604   1.422   1.780   1.519 -0.4845 -0.4338  0.2951
  177HFI     F1 2605   1.521   1.692   1.551 -0.5161  0.1756  0.0172
  177HFI     F2 2606   1.378   1.747   1.397 -0.2406 -0.1962  0.3203
  177HFI     F3 2607   1.331   1.761   1.616  0.4040 -0.3694 -0.7460
  177HFI     C3 2608   1.372   2.031   1.499  0.2361  0.5691 -0.1719
  177HFI     F4 2609   1.268   2.019   1.590  0.3163 -0.2138  0.5192
  177HFI     F5 2610   1.329   2.030   1.364  0.6850 -0.1950  0.3931
  177HFI     F6 2611   1.430   2.151   1.530 -0.3468  1.1266 -0.2222
  177HFI     H1 2612   1.678   1.905   1.476 -0.2287 -2.9786 -2.5778
  177HFI     H2 2613   1.511   1.935   1.630 -4.0797 -0.1627  1.0959
  178HFI     O1 2614   0.314   1.304   3.213 -0.5165 -0.2282 -0.2473
  178HFI     C1 2615   0.431   1.362   3.140  0.3726  1.0472  0.2551
  178HFI     C2 2616   0.415   1.347   2.985  0.2753  0.6112  0.5804
  178HFI     F1 2617   0.308   1.413   2.937  0.5367 -0.0314 -0.0262
  178HFI     F2 2618   0.385   1.220   2.963 -0.6265  0.2591  0.4175
  178HFI     F3 2619   0.526   1.375   2.911  0.0040 -0.0045  0.7059
  178HFI     C3 2620   0.573   1.314   3.186  0.6618  0.3557 -0.7149
  178HFI     F4 2621   0.610   1.186   3.161 -0.1346  0.4065 -0.1408
  178HFI     F5 2622   0.586   1.327   3.320 -0.2002  0.2965  0.0223
  178HFI     F6 2623   0.671   1.393   3.135  0.0364 -0.3070  0.3092
  178HFI     H1 2624   0.237   1.363   3.215  0.4103  1.0062 -0.7994
  178HFI     H2 2625   0.439   1.471   3.151 -0.5324  1.3016 -1.3056
  179HFI     O1 2626   1.775   0.031   2.319 -0.3100 -0.0240  0.0741
  179HFI     C1 2627   1.880   0.126   2.271 -0.0071 -0.3767 -0.6681
  179HFI     C2 2628   2.019   0.101   2.336  0.9393  0.2605  0.5128
  179HFI     F1 2629   2.040  -0.034   2.333  0.6938 -0.4602 -0.5309
  179HFI     F2 2630   2.031   0.146   2.462 -0.2681 -0.3465 -0.6646
  179HFI     F3 2631   2.118   0.153   2.261  0.5005  0.0216  0.3162
  179HFI     C3 2632   1.829   0.269   2.279 -0.9117 -0.0778 -0.1142
  179HFI     F4 2633   1.714   0.296   2.218 -0.3979 -0.0807  0.0467
  179HFI     F5 2634   1.914   0.362   2.228  0.1970 -0.4436  0.3183
  179HFI     F6 2635   1.799   0.299   2.413  0.0782  0.1855  0.0080
  179HFI     H1 2636   1.685   0.059   2.295 -0.5180 -0.7328  0.0340
  179HFI     H2 2637   1.907   0.116   2.165  1.7919  0.3850 -0.3098
  180HFI     O1 2638   0.262   0.068   3.347 -0.2252  0.0659 -0.0743
  180HFI     C1 2639   0.260  -0.073   3.351  0.2580  0.1028 -0.0078
  180HFI     C2 2640   0.216  -0.126   3.480 -0.2109  0.0063  0.6623
  180HFI     F1 2641   0.190  -0.257   3.476 -0.0661 -0.0355 -0.0871
  180HFI     F2 2642   0.104  -0.065   3.518  0.0806 -0.5924  0.0445
  180HFI     F3 2643   0.307  -0.101   3.579  0.3834 -0.1008  0.5743
  180HFI     C3 2644   0.391  -0.134   3.295  0.7489 -0.7152 -0.3749
  180HFI     F4 2645   0.414  -0.078   3.177 -0.6198 -0.1305 -0.3162
  180HFI     F5 2646   0.386  -0.271   3.268  0.0558  0.1757 -0.0344
  180HFI     F6 2647   0.497  -0.104   3.377  0.4160  0.1169 -0.2448
  180HFI     H1 2648   0.318   0.105   3.418 -2.2289  1.9867  0.5745
  180HFI     H2 2649   0.181  -0.104   3.281  0.2510  0.4580 -0.1612
  181HFI     O1 2650   3.113   2.420   0.087  0.3621 -0.1869 -0.8864
  181HFI     C1 2651   3.163   2.539   0.026  0.6466 -0.3808 -0.4471
  181HFI     C2 2652   3.307   2.511  -0.020  0.2971  0.1626  0.1819
  181HFI     F1 2653   3.305   2.402  -0.098 -0.0933  0.1014  0.0970
  181HFI     F2 2654   3.393   2.483   0.082 -0.2890 -0.4420 -0.3669
  181HFI     F3 2655   3.352   2.614  -0.095 -0.0537 -0.4690 -0.4395
  181HFI     C3 2656   3.138   2.665   0.110  0.1756  0.2566  0.0886
  181HFI     F4 2657   3.126   2.777   0.034  0.3000 -0.2052  0.3180
  181HFI     F5 2658   3.226   2.688   0.207  0.2848 -0.0628  0.4704
  181HFI     F6 2659   3.010   2.650   0.168 -0.4913  0.8566 -0.5840
  181HFI     H1 2660   3.095   2.438   0.181  0.9357  2.4548 -1.2579
  181HFI     H2 2661   3.115   2.556  -0.072  0.2487 -0.6943 -0.3085
  182HFI     O1 2662   2.062   1.801   3.327 -0.3794  0.1840  0.1406
  182HFI     C1 2663   1.959   1.778   3.430 -0.3255 -0.6114 -0.1737
  182HFI     C2 2664   1.908   1.630   3.433  0.6081  0.2996 -0.1676
  182HFI     F1 2665   2.020   1.554   3.426  0.3475 -0.2683  0.1578
  182HFI     F2 2666   1.833   1.598   3.320  0.2752  0.0209  0.0448
  182HFI     F3 2667   1.838   1.598   3.548  0.0555  0.7095 -0.1517
  182HFI     C3 2668   1.833   1.879   3.433 -0.3224 -0.4405 -0.4654
  182HFI     F4 2669   1.734   1.839   3.518 -0.0142 -0.1966 -0.0046
  182HFI     F5 2670   1.780   1.891   3.304 -0.3734 -0.3980  0.3394
  182HFI     F6 2671   1.884   1.996   3.466 -0.0187 -0.0299 -0.2815
  182HFI     H1 2672   2.116   1.721   3.315  0.7682  1.2819 -2.2206
  182HFI     H2 2673   2.008   1.800   3.526  2.3450 -0.5761 -1.5023
  183HFI     O1 2674   1.006   2.805   0.715 -0.7394  0.0462  0.1888
  183HFI     C1 2675   0.861   2.834   0.686  0.0274  0.3282 -0.5916
  183HFI     C2 2676   0.802   2.716   0.609  0.3616 -0.3270  0.7158
  183HFI     F1 2677   0.673   2.735   0.570  0.1461 -0.3331 -0.6846
  183HFI     F2 2678   0.816   2.605   0.689 -0.4013 -0.3293  0.2777
  183HFI     F3 2679   0.871   2.691   0.495  0.5732  0.3327 -0.4773
  183HFI     C3 2680   0.839   2.973   0.615 -0.1138  0.0799 -0.3962
  183HFI     F4 2681   0.903   2.989   0.497 -0.3598 -0.3481 -0.4771
  183HFI     F5 2682   0.888   3.081   0.692  0.3614  0.2936  0.1743
  183HFI     F6 2683   0.705   2.994   0.607 -0.2537 -0.0565 -0.0810
  183HFI     H1 2684   1.060   2.879   0.683  0.0407  0.6985  2.8598
  183HFI     H2 2685   0.799   2.842   0.776 -2.9086 -3.2410 -2.1716
  184HFI     O1 2686   0.770   0.093   2.470 -0.2787 -0.1620 -0.5348
  184HFI     C1 2687   0.811   0.230   2.433  0.3616  0.4016 -0.3859
  184HFI     C2 2688   0.754   0.348   2.509 -0.1479  0.6482 -0.4278
  184HFI     F1 2689   0.632   0.382   2.461  0.3876 -0.0962  0.4796
  184HFI     F2 2690   0.837   0.460   2.507  0.3324 -0.2086  0.3414
  184HFI     F3 2691   0.731   0.309   2.635  0.6149 -0.1891 -0.1138
  184HFI     C3 2692   0.799   0.253   2.278 -0.0039  0.8947  0.2675
  184HFI     F4 2693   0.878   0.164   2.221  0.1818 -0.3302  0.6339
  184HFI     F5 2694   0.836   0.378   2.239  0.3994 -0.2615 -0.0706
  184HFI     F6 2695   0.676   0.227   2.241  0.7490  0.4722  0.1008
  184HFI     H1 2696   0.675   0.082   2.487  0.2769 -1.4223  1.9472
  184HFI     H2 2697   0.914   0.243   2.469  0.3685 -0.3019 -0.1603
  185HFI     O1 2698   0.416   0.837   2.237 -0.1902  0.1240  0.4092
  185HFI     C1 2699   0.519   0.835   2.333 -0.9861  0.2140 -0.1914
  185HFI     C2 2700   0.622   0.717   2.305 -0.3086 -0.5480 -0.1494
  185HFI     F1 2701   0.701   0.691   2.415  0.0873  0.1218 -0.2248
  185HFI     F2 2702   0.700   0.744   2.202  0.2729 -0.8940  0.0023
  185HFI     F3 2703   0.553   0.601   2.271  0.5423  0.6221  0.0880
  185HFI     C3 2704   0.461   0.817   2.473  0.2185  0.8292  0.0696
  185HFI     F4 2705   0.385   0.708   2.490  0.5025 -0.2460 -0.4147
  185HFI     F5 2706   0.374   0.918   2.490 -0.4971 -0.0183 -0.0793
  185HFI     F6 2707   0.548   0.822   2.581  0.4985 -0.0830 -0.5090
  185HFI     H1 2708   0.390   0.747   2.208  1.3277 -0.8425  1.9492
  185HFI     H2 2709   0.575   0.930   2.333 -0.8683  0.1510 -1.3569
  186HFI     O1 2710   2.864   2.493   2.447 -0.5885 -0.2057 -0.3771
  186HFI     C1 2711   2.860   2.395   2.333  0.5903  0.0806  0.6210
  186HFI     C2 2712   2.754   2.288   2.355  0.2603 -0.4341 -0.6930
  186HFI     F1 2713   2.763   2.242   2.475  0.3395 -0.4430 -0.0791
  186HFI     F2 2714   2.776   2.183   2.269  0.1088 -0.5339  0.1322
  186HFI     F3 2715   2.633   2.344   2.324 -0.1771  0.4114  0.4582
  186HFI     C3 2716   3.003   2.336   2.314  0.0720  0.6538 -0.4160
  186HFI     F4 2717   3.019   2.277   2.191  0.3493 -0.4301  0.5867
  186HFI     F5 2718   3.029   2.232   2.408 -0.4982 -0.4405  0.4622
  186HFI     F6 2719   3.105   2.427   2.330 -0.4556 -0.3210  0.3961
  186HFI     H1 2720   2.855   2.444   2.531 -0.5744  0.5957  0.1038
  186HFI     H2 2721   2.843   2.450   2.240  0.7043 -1.8173 -0.5387
  187HFI     O1 2722   2.225   1.593   2.815  0.0209 -0.3035  0.4618
  187HFI     C1 2723   2.270   1.708   2.885 -0.3244 -0.0854 -0.2568
  187HFI     C2 2724   2.375   1.674   3.003  0.8582  0.4107 -0.0540
  187HFI     F1 2725   2.462   1.571   2.973 -0.2429 -0.6247  0.3231
  187HFI     F2 2726   2.320   1.636   3.114  0.6420  0.0649 -0.6853
  187HFI     F3 2727   2.451   1.785   3.031 -0.0417 -0.5772  0.1392
  187HFI     C3 2728   2.157   1.803   2.926 -0.6964  0.6452  0.3422
  187HFI     F4 2729   2.094   1.741   3.028  0.5945 -0.2128 -0.6365
  187HFI     F5 2730   2.070   1.830   2.823  0.3957  0.0442 -0.1284
  187HFI     F6 2731   2.212   1.920   2.963 -0.0161 -0.2649 -0.1374
  187HFI     H1 2732   2.181   1.532   2.877 -0.6854  0.8690  1.1276
  187HFI     H2 2733   2.318   1.772   2.810 -1.5056  0.4586 -0.5563
  188HFI     O1 2734   2.487   0.151   2.401  0.2711 -0.1080  0.3545
  188HFI     C1 2735   2.524   0.281   2.451  0.0010 -0.0969  0.2206
  188HFI     C2 2736   2.451   0.292   2.594 -0.2481 -0.2814 -0.0194
  188HFI     F1 2737   2.476   0.179   2.663 -0.0959  0.2228 -0.1085
  188HFI     F2 2738   2.319   0.290   2.579  0.9537 -0.8306 -0.3747
  188HFI     F3 2739   2.478   0.404   2.667  0.3054  0.4140  0.4455
  188HFI     C3 2740   2.464   0.387   2.350  0.0774  0.0345  0.5496
  188HFI     F4 2741   2.484   0.514   2.390  0.4616 -0.0091  0.2884
  188HFI     F5 2742   2.334   0.372   2.334  0.0315  0.4977  0.4682
  188HFI     F6 2743   2.531   0.377   2.231 -0.2648 -0.2103 -0.3137
  188HFI     H1 2744   2.500   0.140   2.305 -0.7824 -0.5203  0.2602
  188HFI     H2 2745   2.631   0.301   2.441 -0.6469  1.5644 -4.8519
  189HFI     O1 2746   2.719   1.889   2.515  0.0635 -0.0663  0.3161
  189HFI     C1 2747   2.733   1.895   2.660 -0.4779  0.0356 -0.2219
  189HFI     C2 2748   2.864   1.959   2.705  0.0849  0.5271 -0.2370
  189HFI     F1 2749   2.967   1.871   2.727  0.2247  0.0446 -0.3582
  189HFI     F2 2750   2.854   2.026   2.824 -0.0300 -0.0879 -0.0393
  189HFI     F3 2751   2.907   2.039   2.612 -0.2811 -0.3008  0.1177
  189HFI     C3 2752   2.687   1.764   2.734 -0.5257 -0.7043  0.3547
  189HFI     F4 2753   2.748   1.657   2.685  0.7655 -0.2007  0.4992
  189HFI     F5 2754   2.557   1.756   2.705  0.1176  0.7541 -0.1830
  189HFI     F6 2755   2.695   1.766   2.874  0.3599 -0.3664 -0.6054
  189HFI     H1 2756   2.667   1.810   2.495 -0.5360  0.2168  0.7259
  189HFI     H2 2757   2.662   1.977   2.675  1.2283  1.8258 -1.6785
  190HFI     O1 2758   1.695   1.082   3.556  0.4898  0.0068  0.4418
  190HFI     C1 2759   1.779   1.039   3.673  0.7301  0.3016 -0.0357
  190HFI     C2 2760   1.891   0.945   3.622 -0.5331 -0.0583  0.5148
  190HFI     F1 2761   1.862   0.818   3.587 -0.3154  0.1831  0.1284
  190HFI     F2 2762   1.981   0.918   3.718 -0.0304 -0.3997  0.0752
  190HFI     F3 2763   1.957   1.001   3.520  0.2045  0.2862  0.0871
  190HFI     C3 2764   1.691   0.983   3.785 -0.9381  0.0671 -0.1783
  190HFI     F4 2765   1.762   0.973   3.903  0.6833 -0.0754  0.4293
  190HFI     F5 2766   1.641   0.864   3.755  0.5685 -0.2535 -0.1910
  190HFI     F6 2767   1.584   1.069   3.805 -0.2267 -0.1728  0.5161
  190HFI     H1 2768   1.650   1.004   3.518  1.0555 -0.3212  0.4361
  190HFI     H2 2769   1.832   1.129   3.706  0.8861  0.3258 -0.3528
  191HFI     O1 2770   0.537   1.306   0.155  0.6476  0.4426 -0.3494
  191HFI     C1 2771   0.558   1.402   0.047 -0.3776 -0.2488  0.1380
  191HFI     C2 2772   0.688   1.361  -0.035 -0.1815 -0.3606 -0.0217
  191HFI     F1 2773   0.798   1.377   0.034  0.1014  0.1547 -0.1302
  191HFI     F2 2774   0.708   1.436  -0.152  0.0643  0.2595 -0.4014
  191HFI     F3 2775   0.687   1.232  -0.078 -0.0400  0.8349 -0.0069
  191HFI     C3 2776   0.563   1.540   0.106  0.3037 -0.5439 -0.1118
  191HFI     F4 2777   0.457   1.567   0.182 -0.2530  0.0484  0.0520
  191HFI     F5 2778   0.569   1.635   0.020 -0.0792 -0.2971  0.0187
  191HFI     F6 2779   0.661   1.555   0.191  0.1314 -0.5645 -0.4879
  191HFI     H1 2780   0.573   1.218   0.135 -0.3778 -0.2169  0.6525
  191HFI     H2 2781   0.480   1.399  -0.031 -0.1927 -0.8888 -0.0241
  192HFI     O1 2782   2.472   2.661   0.029 -0.3502 -0.5679  0.5405
  192HFI     C1 2783   2.581   2.625  -0.069  0.2264  0.1434  0.1125
  192HFI     C2 2784   2.693   2.543   0.006  0.2580 -0.2690  0.1378
  192HFI     F1 2785   2.738   2.608   0.118  0.4761  0.0628 -0.2055
  192HFI     F2 2786   2.795   2.512  -0.072 -0.8756 -0.7103 -0.3502
  192HFI     F3 2787   2.636   2.422   0.046  0.0988  0.1610 -0.0822
  192HFI     C3 2788   2.645   2.750  -0.139 -0.9051 -0.2881  0.0488
  192HFI     F4 2789   2.549   2.833  -0.192 -0.1073  0.1558 -0.4773
  192HFI     F5 2790   2.721   2.711  -0.241 -0.0760  0.1231  0.1467
  192HFI     F6 2791   2.722   2.820  -0.053  0.0540 -0.0029 -0.0519
  192HFI     H1 2792   2.447   2.588   0.088  0.1938  0.6537  2.3340
  192HFI     H2 2793   2.540   2.559  -0.147 -0.9239 -0.6464  1.3791
  193HFI     O1 2794   1.795   2.312   2.779  0.6640 -0.7098 -0.0173
  193HFI     C1 2795   1.799   2.177   2.836  0.7188  0.8489 -0.5060
  193HFI     C2 2796   1.921   2.145   2.927  0.0839 -0.3590  0.6168
  193HFI     F1 2797   2.037   2.115   2.862  0.7417 -0.3115 -0.0775
  193HFI     F2 2798   1.899   2.042   3.017 -0.0179  0.0095  0.5575
  193HFI     F3 2799   1.944   2.248   3.007 -0.3479 -0.2091 -0.0538
  193HFI     C3 2800   1.778   2.076   2.719  0.2094  0.3227 -0.2916
  193HFI     F4 2801   1.879   2.076   2.627 -0.2923 -0.0596  0.0010
  193HFI     F5 2802   1.664   2.105   2.655  0.0746  0.1022 -0.0876
  193HFI     F6 2803   1.774   1.953   2.761 -0.0311  0.4749 -0.3911
  193HFI     H1 2804   1.807   2.371   2.856  0.1633 -1.3723  0.5824
  193HFI     H2 2805   1.710   2.153   2.896 -0.3688  1.0087 -2.0053
  194HFI     O1 2806   1.100   2.547   2.490 -0.2893 -0.3092  0.0145
  194HFI     C1 2807   1.133   2.647   2.379  0.5180  0.3958 -0.1656
  194HFI     C2 2808   1.001   2.682   2.296  0.4217  0.0703 -0.8024
  194HFI     F1 2809   0.896   2.716   2.377  0.1039  0.5147  0.1491
  194HFI     F2 2810   0.961   2.585   2.212  0.1106  0.5477  0.2097
  194HFI     F3 2811   1.036   2.787   2.217  0.1713  0.0271 -0.3741
  194HFI     C3 2812   1.256   2.600   2.293 -0.0065  0.5487 -0.2703
  194HFI     F4 2813   1.240   2.472   2.243 -0.5379 -0.2390  0.1615
  194HFI     F5 2814   1.368   2.601   2.366 -0.2293  0.0763 -0.9402
  194HFI     F6 2815   1.278   2.678   2.188 -0.5056 -0.3506  0.3176
  194HFI     H1 2816   1.044   2.478   2.451  0.2361 -0.6244 -0.1955
  194HFI     H2 2817   1.152   2.744   2.426 -0.6877  1.2189 -1.3413
  195HFI     O1 2818   0.436   0.657   0.038 -0.0235 -0.8304  0.2151
  195HFI     C1 2819   0.572   0.615   0.020 -0.2754  0.5702  0.0738
  195HFI     C2 2820   0.590   0.468   0.056  0.0667 -0.8741  0.1071
  195HFI     F1 2821   0.719   0.422   0.039  1.1602 -0.2268 -0.2724
  195HFI     F2 2822   0.518   0.387  -0.027 -0.2735  0.6747 -0.2672
  195HFI     F3 2823   0.563   0.446   0.186 -0.0035 -0.1024 -0.0361
  195HFI     C3 2824   0.668   0.712   0.091  0.5293 -1.4633  0.3117
  195HFI     F4 2825   0.662   0.842   0.039 -0.2621 -0.2301 -0.4253
  195HFI     F5 2826   0.793   0.680   0.102  0.3202  0.8771 -0.2581
  195HFI     F6 2827   0.608   0.723   0.216  0.3737  0.3617 -0.1740
  195HFI     H1 2828   0.447   0.702   0.124 -1.3310 -0.9813  0.4812
  195HFI     H2 2829   0.603   0.622  -0.085 -0.5552 -2.4186 -0.2405
  196HFI     O1 2830   0.731   0.788   3.034  0.3936 -0.4950  0.0606
  196HFI     C1 2831   0.638   0.742   2.923 -0.2207 -0.2950 -0.0422
  196HFI     C2 2832   0.489   0.727   2.977 -0.6805 -0.5544 -0.1647
  196HFI     F1 2833   0.457   0.854   3.027  0.2261 -0.2024 -0.2305
  196HFI     F2 2834   0.484   0.644   3.082 -0.2541  0.1002 -0.0537
  196HFI     F3 2835   0.403   0.696   2.883  0.0463  0.2963  0.2344
  196HFI     C3 2836   0.688   0.614   2.862  0.2058 -0.4299 -1.0903
  196HFI     F4 2837   0.601   0.551   2.791  0.3460 -0.1806  0.3814
  196HFI     F5 2838   0.721   0.527   2.966 -0.0265  0.3746 -0.1693
  196HFI     F6 2839   0.803   0.638   2.779  0.2685 -0.1029 -0.0613
  196HFI     H1 2840   0.692   0.769   3.120 -0.0253 -0.2955 -0.0836
  196HFI     H2 2841   0.635   0.821   2.847 -0.4128  0.4432  0.7261
  197HFI     O1 2842   0.642   0.769   3.311 -0.2707  0.1458  0.0125
  197HFI     C1 2843   0.671   0.894   3.379  0.3107 -0.2660 -0.9027
  197HFI     C2 2844   0.808   0.875   3.463  0.5373  0.4572 -0.2677
  197HFI     F1 2845   0.913   0.867   3.377 -0.1030  0.1103  0.4887
  197HFI     F2 2846   0.796   0.769   3.538  0.2768  0.3559  0.6008
  197HFI     F3 2847   0.835   0.979   3.545 -0.1892  0.1632 -0.3513
  197HFI     C3 2848   0.552   0.942   3.460 -0.3366 -0.1630  1.0234
  197HFI     F4 2849   0.527   0.855   3.563  0.3553 -0.0748 -0.0230
  197HFI     F5 2850   0.441   0.965   3.390 -0.0076  0.3401  0.6600
  197HFI     F6 2851   0.585   1.059   3.519  0.3032  0.1070  0.0948
  197HFI     H1 2852   0.672   0.695   3.368 -1.4056  0.4306  0.9948
  197HFI     H2 2853   0.687   0.970   3.301  0.3352  1.7181  0.9960
  198HFI     O1 2854   1.183   1.928   3.451  0.5734 -0.1053 -0.4008
  198HFI     C1 2855   1.291   2.028   3.461  0.9635 -0.7683 -0.1248
  198HFI     C2 2856   1.247   2.173   3.414 -0.4277  0.5104 -0.3741
  198HFI     F1 2857   1.157   2.233   3.503  0.1587 -0.2970  0.5699
  198HFI     F2 2858   1.188   2.173   3.286  0.2747  0.4332 -0.2431
  198HFI     F3 2859   1.358   2.261   3.419 -0.0927 -0.3052  0.1507
  198HFI     C3 2860   1.410   1.979   3.378  0.6814 -0.2712 -0.5898
  198HFI     F4 2861   1.511   2.073   3.369 -0.0317  0.1597  0.3380
  198HFI     F5 2862   1.378   1.952   3.255  0.4006 -0.1858 -0.2688
  198HFI     F6 2863   1.461   1.863   3.429 -0.5378  0.0521  0.1913
  198HFI     H1 2864   1.161   1.908   3.359 -1.5051  1.8774 -0.3787
  198HFI     H2 2865   1.317   2.036   3.567  0.7765 -1.0992 -0.0529
  199HFI     O1 2866   2.668   1.800   3.775  0.4093  0.2268  0.1442
  199HFI     C1 2867   2.649   1.670   3.833 -0.1395  0.5445 -0.1544
  199HFI     C2 2868   2.782   1.609   3.874  0.7909 -0.4204 -0.8266
  199HFI     F1 2869   2.881   1.613   3.784 -0.6693  0.6526 -0.2963
  199HFI     F2 2870   2.766   1.483   3.911 -0.1136  0.1208  0.2870
  199HFI     F3 2871   2.826   1.669   3.987 -0.1233  0.0536 -0.2172
  199HFI     C3 2872   2.563   1.575   3.758 -0.0378  0.6137  0.4698
  199HFI     F4 2873   2.516   1.473   3.830 -0.2439  0.4227 -0.2741
  199HFI     F5 2874   2.627   1.522   3.650  0.0961  0.1406 -0.0723
  199HFI     F6 2875   2.448   1.638   3.709  0.2249 -0.1362 -0.3543
  199HFI     H1 2876   2.582   1.843   3.761 -0.3495 -0.9523  1.1322
  199HFI     H2 2877   2.595   1.689   3.927 -0.2997 -1.6306  0.2323
  200HFI     O1 2878   1.707   0.897   3.223 -0.0508  0.1643 -0.4124
  200HFI     C1 2879   1.681   0.762   3.176 -0.1114  0.5100 -0.0786
  200HFI     C2 2880   1.621   0.681   3.291 -0.1672 -0.0725  0.6676
  200HFI     F1 2881   1.710   0.670   3.391  0.3354  0.4264 -0.3827
  200HFI     F2 2882   1.579   0.556   3.253  0.0148  0.5473  0.3000
  200HFI     F3 2883   1.518   0.747   3.338 -0.3214  0.2380  0.1539
  200HFI     C3 2884   1.816   0.704   3.117  1.1946 -0.5565 -0.3296
  200HFI     F4 2885   1.791   0.587   3.053 -0.8851 -0.1272 -0.3128
  200HFI     F5 2886   1.911   0.687   3.208 -0.0774 -0.0843 -0.3643
  200HFI     F6 2887   1.869   0.793   3.030  0.8188 -0.0334  0.5323
  200HFI     H1 2888   1.700   0.956   3.146  1.5199 -1.6892 -2.0222
  200HFI     H2 2889   1.605   0.757   3.097 -0.8370 -0.4450  0.6692
  201HFI     O1 2890   1.507   3.025   2.607  0.0831 -0.4084  0.4944
  201HFI     C1 2891   1.475   2.895   2.672 -0.3204  0.3838  0.3856
  201HFI     C2 2892   1.318   2.888   2.712  0.2219 -0.7748 -0.2638
  201HFI     F1 2893   1.246   2.926   2.603  0.0058 -0.1288 -0.0429
  201HFI     F2 2894   1.286   2.980   2.806  0.2423 -0.2923 -0.2134
  201HFI     F3 2895   1.272   2.764   2.759 -0.7513  0.0578  0.1017
  201HFI     C3 2896   1.573   2.872   2.795 -1.0875  0.4972 -0.3110
  201HFI     F4 2897   1.536   2.777   2.880 -0.0891 -0.2798  0.1045
  201HFI     F5 2898   1.583   2.992   2.864 -0.5038  0.1861 -0.7244
  201HFI     F6 2899   1.694   2.832   2.753 -0.7632 -0.0824 -0.1826
  201HFI     H1 2900   1.527   3.093   2.674 -1.1914 -0.5443  1.0261
  201HFI     H2 2901   1.505   2.809   2.611 -1.7417  1.0597 -1.3324
  202HFI     O1 2902   2.724   0.086   3.372  0.1660  0.6084 -0.1762
  202HFI     C1 2903   2.775  -0.043   3.340  0.3431  0.6226  0.0264
  202HFI     C2 2904   2.916  -0.024   3.284 -0.1816 -0.2161 -0.9670
  202HFI     F1 2905   2.974  -0.139   3.256 -0.3156  0.7030 -0.1931
  202HFI     F2 2906   2.995   0.046   3.360  0.6027 -0.0590  0.6193
  202HFI     F3 2907   2.900   0.046   3.166  0.6724  0.0464 -0.6123
  202HFI     C3 2908   2.680  -0.120   3.250  0.0267 -0.6097  0.1494
  202HFI     F4 2909   2.658  -0.046   3.135  0.2900 -0.0802 -0.5081
  202HFI     F5 2910   2.562  -0.145   3.306 -0.3622 -0.0188  0.1064
  202HFI     F6 2911   2.721  -0.245   3.224  0.4192 -0.2299  0.2527
  202HFI     H1 2912   2.737   0.150   3.300  0.0447 -0.4747 -1.1582
  202HFI     H2 2913   2.784  -0.100   3.433 -1.5159  1.5778  0.8378
  203HFI     O1 2914   2.314   3.096   2.914 -0.9088 -0.4682  0.3396
  203HFI     C1 2915   2.352   3.213   2.996  0.5074 -0.1123  0.3198
  203HFI     C2 2916   2.241   3.234   3.110 -0.7695  0.0769  0.3325
  203HFI     F1 2917   2.252   3.354   3.169 -0.3668  0.2429 -0.2364
  203HFI     F2 2918   2.260   3.153   3.213 -0.1729  0.0840 -0.5322
  203HFI     F3 2919   2.114   3.228   3.068 -0.1569 -0.2100  0.1231
  203HFI     C3 2920   2.354   3.343   2.904  0.2525  0.2043  0.0136
  203HFI     F4 2921   2.231   3.374   2.850 -0.5844  0.0917 -0.2294
  203HFI     F5 2922   2.444   3.328   2.803  1.0140 -0.6415 -0.3371
  203HFI     F6 2923   2.393   3.450   2.977 -0.5734  0.1681  0.0921
  203HFI     H1 2924   2.218   3.098   2.900 -1.3346 -2.2319  2.6732
  203HFI     H2 2925   2.447   3.196   3.049 -0.0456 -0.5024  1.1886
  204HFI     O1 2926   3.163   2.661   3.238 -0.1031  0.2668  0.3380
  204HFI     C1 2927   3.089   2.780   3.286  0.2027  0.3401 -0.2802
  204HFI     C2 2928   3.154   2.925   3.255  0.0128  0.2300  0.0617
  204HFI     F1 2929   3.261   2.934   3.331  0.2011  0.2464  0.0455
  204HFI     F2 2930   3.070   3.026   3.282  0.0704 -0.2580 -0.1322
  204HFI     F3 2931   3.201   2.926   3.128 -0.0537 -0.2848 -0.3668
  204HFI     C3 2932   3.040   2.774   3.433  0.0439  0.7586 -0.3722
  204HFI     F4 2933   3.136   2.800   3.518  0.5380 -0.2736 -0.3819
  204HFI     F5 2934   3.007   2.650   3.474  0.6105 -0.6031  0.2449
  204HFI     F6 2935   2.938   2.858   3.453  0.3295 -0.9363  0.8710
  204HFI     H1 2936   3.254   2.675   3.270 -0.3587 -1.7920  2.0820
  204HFI     H2 2937   2.998   2.785   3.226 -0.3470 -1.1387  0.4119
  205HFI     O1 2938   2.988   3.105   2.682  0.7464  0.1181 -0.6125
  205HFI     C1 2939   2.964   3.061   2.823  0.0006  0.9473 -0.2623
  205HFI     C2 2940   3.014   3.167   2.917 -0.3682 -0.4961  0.1656
  205HFI     F1 2941   3.140   3.190   2.894  0.1157  0.5589  0.0784
  205HFI     F2 2942   3.005   3.135   3.047  0.3598  0.1517  0.0543
  205HFI     F3 2943   2.939   3.287   2.895  0.0872  0.3850 -0.1580
  205HFI     C3 2944   3.023   2.919   2.852 -0.2063  0.6244  0.1577
  205HFI     F4 2945   2.981   2.867   2.973 -0.1516 -0.1973 -0.5792
  205HFI     F5 2946   3.154   2.917   2.847 -0.0418  0.2293  0.1249
  205HFI     F6 2947   2.987   2.829   2.756  0.2774  0.1814 -0.3812
  205HFI     H1 2948   3.083   3.123   2.671  0.9961 -0.4957  0.4790
  205HFI     H2 2949   2.859   3.040   2.844  0.5539  0.2528  1.9628
  206HFI     O1 2950   1.689   3.292   3.621  0.6104 -0.4836  0.3747
  206HFI     C1 2951   1.789   3.403   3.605  0.5386 -0.8090 -0.6043
  206HFI     C2 2952   1.794   3.501   3.727 -0.0717 -0.4201  0.9198
  206HFI     F1 2953   1.900   3.583   3.719  0.0938 -0.0870  0.2226
  206HFI     F2 2954   1.798   3.429   3.840 -0.2194  0.1160 -0.8057
  206HFI     F3 2955   1.673   3.575   3.728  0.1261  0.0059  0.0510
  206HFI     C3 2956   1.762   3.478   3.472  0.7561 -0.6213 -0.4122
  206HFI     F4 2957   1.787   3.400   3.369 -0.7521  0.1158  0.3672
  206HFI     F5 2958   1.847   3.582   3.455 -0.0803  0.5951  0.1353
  206HFI     F6 2959   1.637   3.520   3.463  0.0303  0.0841  0.2886
  206HFI     H1 2960   1.617   3.303   3.556  0.3680 -0.2957  0.6775
  206HFI     H2 2961   1.891   3.364   3.597  0.3795 -2.2854  3.6155
  207HFI     O1 2962   3.265   3.216   0.075 -0.3628 -0.2402  0.2559
  207HFI     C1 2963   3.179   3.147  -0.018  1.0771 -0.5224  0.6168
  207HFI     C2 2964   3.261   3.106  -0.139 -0.5334 -0.1651 -0.1512
  207HFI     F1 2965   3.185   3.046  -0.235  0.3851  0.3861 -0.3651
  207HFI     F2 2966   3.356   3.020  -0.097  0.8261 -0.0212  0.5162
  207HFI     F3 2967   3.326   3.218  -0.194  0.0690 -0.1776  0.2691
  207HFI     C3 2968   3.052   3.226  -0.066  0.3283  0.1430 -0.4151
  207HFI     F4 2969   3.090   3.312  -0.165 -0.1938 -0.2490  0.3173
  207HFI     F5 2970   2.994   3.298   0.033 -0.0706  0.0685  0.5288
  207HFI     F6 2971   2.957   3.143  -0.111  0.1510 -0.3070  0.4529
  207HFI     H1 2972   3.216   3.228   0.158 -1.4252  0.2260 -0.4278
  207HFI     H2 2973   3.147   3.055   0.030  0.3673 -0.5053  0.1803
  208HFI     O1 2974   0.410   1.795   3.542 -0.9093  0.2936 -0.2391
  208HFI     C1 2975   0.364   1.816   3.405 -0.1687  0.0378 -0.2824
  208HFI     C2 2976   0.223   1.757   3.362  0.6285  0.3950  0.2742
  208HFI     F1 2977   0.199   1.760   3.230 -0.4060 -0.0856 -0.1217
  208HFI     F2 2978   0.122   1.818   3.420 -0.0997  0.2914 -0.3289
  208HFI     F3 2979   0.209   1.624   3.399 -0.7162  0.0047  0.7715
  208HFI     C3 2980   0.485   1.786   3.312  0.3100  0.0169  0.4785
  208HFI     F4 2981   0.557   1.683   3.370 -0.4199  0.6727 -0.2048
  208HFI     F5 2982   0.575   1.891   3.306  0.5155 -0.3998 -0.3750
  208HFI     F6 2983   0.457   1.742   3.186  0.0290  0.4342  0.0061
  208HFI     H1 2984   0.499   1.833   3.548 -1.5828  1.6091  2.3483
  208HFI     H2 2985   0.355   1.925   3.397 -2.5259 -0.0142  1.4028
  209HFI     O1 2986   1.633   2.333   2.457  0.3760 -0.0710 -0.7005
  209HFI     C1 2987   1.681   2.460   2.397 -0.0255 -0.4215 -0.4042
  209HFI     C2 2988   1.793   2.430   2.296  0.4162  0.3438 -0.9134
  209HFI     F1 2989   1.746   2.353   2.201 -0.1119  0.5386 -0.0363
  209HFI     F2 2990   1.903   2.373   2.351 -0.2079  0.4235  0.1977
  209HFI     F3 2991   1.832   2.551   2.241  0.2525 -0.1912 -0.1303
  209HFI     C3 2992   1.713   2.567   2.508 -0.2348 -0.6221 -0.0636
  209HFI     F4 2993   1.739   2.695   2.467  0.1491 -0.0098  0.0510
  209HFI     F5 2994   1.821   2.529   2.590  0.3609  0.1981  0.4588
  209HFI     F6 2995   1.607   2.567   2.586  0.0793  0.0173 -0.3977
  209HFI     H1 2996   1.689   2.295   2.527  1.3613  2.3528 -0.1270
  209HFI     H2 2997   1.601   2.500   2.332 -0.0025  1.3118  0.6095
  210HFI     O1 2998   0.637   3.276   2.344  0.0376 -0.3759  0.1972
  210HFI     C1 2999   0.681   3.136   2.351 -0.6813 -0.2154  0.4163
  210HFI     C2 3000   0.633   3.069   2.481  0.1435  0.0553  0.2776
  210HFI     F1 3001   0.501   3.074   2.497 -0.0545 -0.1289 -0.6501
  210HFI     F2 3002   0.681   3.146   2.583  0.0897  0.6705  0.1971
  210HFI     F3 3003   0.671   2.942   2.493  0.0479 -0.2025  0.1139
  210HFI     C3 3004   0.835   3.123   2.340  0.1645 -0.2510 -0.3162
  210HFI     F4 3005   0.874   3.149   2.209 -0.0442  0.2103 -0.6624
  210HFI     F5 3006   0.891   3.003   2.376  0.0876 -0.5667  0.3845
  210HFI     F6 3007   0.904   3.215   2.414  0.1354 -0.2743  0.1196
  210HFI     H1 3008   0.710   3.335   2.368 -1.1408  1.7017 -1.1298
  210HFI     H2 3009   0.638   3.079   2.268  1.3246 -1.5007  0.2020
  211HFI     O1 3010   2.919   1.096   2.380 -0.1227 -0.1960 -0.0170
  211HFI     C1 3011   3.024   1.193   2.371  0.0195  0.2412  0.3311
  211HFI     C2 3012   3.118   1.206   2.500  0.1419  0.0318  0.2028
  211HFI     F1 3013   3.192   1.320   2.502  0.3523 -0.6847 -0.0791
  211HFI     F2 3014   3.198   1.102   2.500 -0.5147 -0.2574 -0.2686
  211HFI     F3 3015   3.056   1.191   2.621 -0.1077  0.3028  0.0035
  211HFI     C3 3016   2.971   1.329   2.328  0.1397  0.0539 -0.3455
  211HFI     F4 3017   3.057   1.411   2.267 -0.2401 -0.3011 -0.6575
  211HFI     F5 3018   2.913   1.394   2.427  0.2933  0.3332  0.3009
  211HFI     F6 3019   2.865   1.310   2.241  0.2476 -0.4707 -0.1723
  211HFI     H1 3020   2.867   1.118   2.460 -0.6945  1.4231 -0.8235
  211HFI     H2 3021   3.092   1.159   2.292  0.5662 -0.4730  1.1017
  212HFI     O1 3022   1.660   2.363   0.116  0.3073  0.2443  0.5709
  212HFI     C1 3023   1.572   2.416   0.013  0.3845  1.1686  0.8253
  212HFI     C2 3024   1.491   2.294  -0.056  0.0591 -0.1276 -0.1914
  212HFI     F1 3025   1.445   2.210   0.041 -0.1661  0.3259 -0.0708
  212HFI     F2 3026   1.562   2.222  -0.146  0.2075  0.4415 -0.8308
  212HFI     F3 3027   1.383   2.346  -0.122  0.2466  0.6369 -0.1137
  212HFI     C3 3028   1.648   2.518  -0.075  0.7916  0.1147 -0.6489
  212HFI     F4 3029   1.594   2.641  -0.067  0.3342 -0.3112 -0.0733
  212HFI     F5 3030   1.653   2.485  -0.202 -0.3344  0.0865  0.2006
  212HFI     F6 3031   1.782   2.527  -0.036 -0.1256  0.0101  0.0093
  212HFI     H1 3032   1.740   2.418   0.124 -0.1616  0.8826  0.9053
  212HFI     H2 3033   1.485   2.469   0.052  1.3474  1.2360  2.9400
  213HFI     O1 3034   2.907   0.433   3.441  0.2631  0.0782  0.3871
  213HFI     C1 3035   2.965   0.554   3.384  0.4746  0.5865  0.1169
  213HFI     C2 3036   3.003   0.534   3.229 -0.4073 -0.3520 -0.5827
  213HFI     F1 3037   3.057   0.645   3.168 -0.1828  0.4742 -0.0355
  213HFI     F2 3038   2.898   0.493   3.157  0.2455  0.4129 -0.0028
  213HFI     F3 3039   3.096   0.434   3.215  0.2022 -0.7509  0.2334
  213HFI     C3 3040   3.088   0.606   3.471  0.2107  0.4369 -0.0529
  213HFI     F4 3041   3.116   0.731   3.430 -0.4787  0.9111 -0.0314
  213HFI     F5 3042   3.199   0.521   3.471 -0.3267 -0.0500 -0.2913
  213HFI     F6 3043   3.048   0.622   3.599 -0.5814  0.3084 -0.0198
  213HFI     H1 3044   2.939   0.356   3.391 -1.1115  0.3961 -1.0204
  213HFI     H2 3045   2.892   0.635   3.394  0.2933  0.2436  1.6062
  214HFI     O1 3046   2.485   0.341   3.199 -0.0033 -0.0345 -0.0065
  214HFI     C1 3047   2.381   0.437   3.154  0.5398  0.1524 -0.3243
  214HFI     C2 3048   2.247   0.400   3.224  0.3229 -0.1033  0.6420
  214HFI     F1 3049   2.141   0.462   3.170 -0.0110 -0.0370  0.3252
  214HFI     F2 3050   2.254   0.435   3.352 -0.9059  0.1189  0.0295
  214HFI     F3 3051   2.222   0.267   3.217  0.3267  0.5257 -0.0731
  214HFI     C3 3052   2.380   0.457   3.004  0.5606 -0.7303  0.3853
  214HFI     F4 3053   2.509   0.508   2.966 -0.3671  0.4426 -0.3523
  214HFI     F5 3054   2.289   0.542   2.950 -0.8251  1.0885  0.2188
  214HFI     F6 3055   2.372   0.333   2.945 -0.0349  0.3380 -0.3006
  214HFI     H1 3056   2.444   0.282   3.264  0.1410  1.2959  1.3232
  214HFI     H2 3057   2.414   0.533   3.194 -1.1116  1.7787 -2.7281
  215HFI     O1 3058   3.060   2.399   3.065  0.9602 -0.1660 -0.1615
  215HFI     C1 3059   2.925   2.366   3.094  0.2096  0.4780 -0.2241
  215HFI     C2 3060   2.823   2.444   3.001 -0.5506  0.2458  0.4935
  215HFI     F1 3061   2.698   2.452   3.056  0.1150  0.1887  0.5523
  215HFI     F2 3062   2.807   2.386   2.881 -0.5754 -0.3833  0.0538
  215HFI     F3 3063   2.869   2.571   2.982 -0.3482  0.1137  0.4004
  215HFI     C3 3064   2.898   2.395   3.244 -0.6205  0.1248 -0.4802
  215HFI     F4 3065   2.883   2.529   3.262  0.4069  0.1157  0.1878
  215HFI     F5 3066   3.005   2.353   3.322  0.1677 -0.2815 -0.2738
  215HFI     F6 3067   2.784   2.333   3.294 -0.0706  0.6640  0.6511
  215HFI     H1 3068   3.079   2.485   3.107  0.4498 -0.2382  0.2257
  215HFI     H2 3069   2.908   2.258   3.080 -0.6015  0.5478  0.1756
  216HFI     O1 3070   0.278   1.923   2.937  0.1442 -0.2865 -0.1198
  216HFI     C1 3071   0.304   2.071   2.956  0.1693  0.7522 -0.1738
  216HFI     C2 3072   0.385   2.129   2.839 -0.7500  0.0539 -0.1383
  216HFI     F1 3073   0.509   2.067   2.825 -0.3995  0.2412  0.4706
  216HFI     F2 3074   0.412   2.263   2.867  0.5825  0.4941 -0.8168
  216HFI     F3 3075   0.325   2.121   2.720  0.3728  0.2121 -0.2644
  216HFI     C3 3076   0.355   2.099   3.107 -0.5758 -0.2296  1.2603
  216HFI     F4 3077   0.353   2.231   3.144 -0.4429 -0.6833 -0.2389
  216HFI     F5 3078   0.483   2.055   3.116  0.1770 -1.0182 -0.0443
  216HFI     F6 3079   0.278   2.038   3.200 -0.2500 -0.2994  0.2309
  216HFI     H1 3080   0.365   1.890   2.909  1.5803  2.1259  1.3006
  216HFI     H2 3081   0.203   2.114   2.948 -1.1095 -2.0361  0.2299
  217HFI     O1 3082   1.777   0.592   2.367 -0.4133  0.8760  0.0065
  217HFI     C1 3083   1.684   0.653   2.268 -0.9067  0.2930  0.3221
  217HFI     C2 3084   1.693   0.808   2.270  0.5638 -0.7768 -0.0323
  217HFI     F1 3085   1.812   0.849   2.215  0.5633  0.0575 -0.5150
  217HFI     F2 3086   1.684   0.851   2.396 -0.0958 -0.0606  0.3092
  217HFI     F3 3087   1.596   0.870   2.191  0.0653 -0.0542 -0.0774
  217HFI     C3 3088   1.543   0.607   2.291  0.5540 -0.0264 -0.3443
  217HFI     F4 3089   1.459   0.635   2.191  0.1440  0.0382 -0.2243
  217HFI     F5 3090   1.489   0.649   2.404 -0.3404 -0.1343  0.4278
  217HFI     F6 3091   1.544   0.477   2.314 -0.2589  0.2499 -0.3403
  217HFI     H1 3092   1.837   0.654   2.413  0.6446 -0.3972  0.3447
  217HFI     H2 3093   1.704   0.616   2.167 -1.3664  2.0330 -0.4366
  218HFI     O1 3094   2.279   3.227   1.037 -0.5546 -0.1228 -0.5723
  218HFI     C1 3095   2.199   3.114   1.093  0.7627 -0.1598  0.1978
  218HFI     C2 3096   2.272   2.977   1.051  0.2536  0.1703 -0.1033
  218HFI     F1 3097   2.204   2.872   1.100 -0.0440  0.4573  0.3173
  218HFI     F2 3098   2.401   2.960   1.092  0.2649 -0.2935  0.1288
  218HFI     F3 3099   2.264   2.974   0.919  0.4715 -0.6542  0.3370
  218HFI     C3 3100   2.052   3.107   1.054  0.0655 -0.7999 -0.5120
  218HFI     F4 3101   1.986   3.004   1.114 -0.2667  0.6020  0.3245
  218HFI     F5 3102   2.031   3.091   0.924 -0.2673 -0.1844  0.0714
  218HFI     F6 3103   1.982   3.215   1.097  0.2030 -0.0589 -0.2194
  218HFI     H1 3104   2.319   3.193   0.956  1.6096  0.1515  0.3584
  218HFI     H2 3105   2.203   3.128   1.202  3.5588  2.9642 -0.2319
  219HFI     O1 3106   2.138   2.512   3.505 -0.2985 -0.1634 -0.4998
  219HFI     C1 3107   2.195   2.455   3.376 -0.1120 -0.1440 -0.5066
  219HFI     C2 3108   2.303   2.543   3.306  0.0209  0.1307  0.1856
  219HFI     F1 3109   2.371   2.605   3.408 -0.3730  0.1905  0.5098
  219HFI     F2 3110   2.256   2.632   3.215 -0.2461 -0.0053  0.4053
  219HFI     F3 3111   2.391   2.460   3.234  0.2870  0.8252  0.0286
  219HFI     C3 3112   2.087   2.398   3.278  0.2667  0.2142 -0.2728
  219HFI     F4 3113   1.974   2.480   3.272 -0.2884  0.4656  0.0175
  219HFI     F5 3114   2.039   2.283   3.326  0.0790  0.3748  0.0407
  219HFI     F6 3115   2.149   2.376   3.162  0.3796 -0.1022  0.0932
  219HFI     H1 3116   2.065   2.573   3.484  1.1741  1.8122 -0.0417
  219HFI     H2 3117   2.251   2.366   3.406  2.4009  2.0105  1.5330
  220HFI     O1 3118   2.914   3.245   2.447  0.1404  0.1825 -0.2963
  220HFI     C1 3119   2.785   3.193   2.395 -0.3962  0.6601 -0.1389
  220HFI     C2 3120   2.746   3.282   2.278  0.5780  1.0668 -0.1338
  220HFI     F1 3121   2.702   3.409   2.321  0.3880  0.5097  0.9055
  220HFI     F2 3122   2.633   3.239   2.211 -0.1003 -0.3293  0.4549
  220HFI     F3 3123   2.839   3.301   2.184 -0.2150 -0.3388  0.0467
  220HFI     C3 3124   2.677   3.173   2.506 -0.3947  0.1610  0.0656
  220HFI     F4 3125   2.643   3.286   2.573  0.1906  0.3646  0.4378
  220HFI     F5 3126   2.717   3.088   2.599 -0.8237 -0.0841  0.1573
  220HFI     F6 3127   2.568   3.122   2.447 -0.1051  0.0153  0.5139
  220HFI     H1 3128   2.929   3.204   2.534  1.1204  1.4971  0.1757
  220HFI     H2 3129   2.808   3.095   2.352  2.5684  1.5763 -0.7776
  221HFI     O1 3130   0.839   1.452   2.766  0.5175 -0.1796 -0.6074
  221HFI     C1 3131   0.935   1.355   2.828  0.0896  0.0358  0.4274
  221HFI     C2 3132   1.072   1.372   2.757  0.4624 -0.2323 -0.2000
  221HFI     F1 3133   1.101   1.507   2.728 -0.1712 -0.1815 -0.0980
  221HFI     F2 3134   1.073   1.302   2.642 -0.5533 -0.3937  0.3071
  221HFI     F3 3135   1.168   1.322   2.842  0.2205  0.1588  0.0035
  221HFI     C3 3136   0.886   1.207   2.841  0.3863 -0.6748 -0.5137
  221HFI     F4 3137   0.969   1.140   2.927 -0.5470  0.0411 -0.4177
  221HFI     F5 3138   0.885   1.136   2.726  0.4111  0.3257  0.5900
  221HFI     F6 3139   0.759   1.201   2.891 -0.1531  0.1070 -0.5868
  221HFI     H1 3140   0.821   1.422   2.676  2.0710 -0.4734 -0.8455
  221HFI     H2 3141   0.946   1.393   2.930 -0.0575 -0.1469  0.5135
  222HFI     O1 3142   0.416   2.887   2.273 -0.7041  0.0325  0.4832
  222HFI     C1 3143   0.443   2.766   2.339  0.3395  0.5583 -0.5828
  222HFI     C2 3144   0.557   2.680   2.279  0.0670 -0.3550 -0.5449
  222HFI     F1 3145   0.657   2.755   2.218  0.1390 -0.5275 -0.2822
  222HFI     F2 3146   0.513   2.596   2.187  0.0301 -0.2235  0.2351
  222HFI     F3 3147   0.619   2.603   2.373  0.2176  0.4501 -0.2212
  222HFI     C3 3148   0.313   2.677   2.357 -0.0234 -0.5860 -0.2822
  222HFI     F4 3149   0.222   2.742   2.425  0.3904  0.5909  0.2331
  222HFI     F5 3150   0.344   2.571   2.425  0.0241  0.1000 -0.8121
  222HFI     F6 3151   0.247   2.646   2.242 -0.1202 -0.3293  0.2188
  222HFI     H1 3152   0.322   2.911   2.283 -1.0420 -0.8003 -0.5251
  222HFI     H2 3153   0.478   2.780   2.442  0.2485 -3.9822  0.1862
  223HFI     O1 3154   3.384   0.725   1.221 -0.4577 -0.4195 -0.9633
  223HFI     C1 3155   3.371   0.739   1.072  0.2681  0.2393 -0.7611
  223HFI     C2 3156   3.229   0.795   1.020 -0.4287  0.2237 -0.0008
  223HFI     F1 3157   3.253   0.853   0.899 -0.6120 -0.0764  0.4530
  223HFI     F2 3158   3.171   0.875   1.106  0.4335  0.3874  0.2316
  223HFI     F3 3159   3.138   0.682   1.009  0.1482 -0.3117  0.1998
  223HFI     C3 3160   3.410   0.609   1.006 -0.1908  0.3988 -0.4912
  223HFI     F4 3161   3.354   0.500   1.064  0.1740  0.0356 -0.1935
  223HFI     F5 3162   3.544   0.598   1.032 -0.0078 -0.0753 -0.0597
  223HFI     F6 3163   3.386   0.602   0.876  0.2986 -0.4977 -0.3639
  223HFI     H1 3164   3.318   0.670   1.265 -0.1064  0.0788  0.1990
  223HFI     H2 3165   3.444   0.809   1.030  2.6555 -2.7932 -1.8854
  224HFI     O1 3166   3.230   1.850   3.281 -0.2589  0.2029  0.3476
  224HFI     C1 3167   3.236   1.940   3.167 -0.5409  0.7110 -0.5064
  224HFI     C2 3168   3.303   2.073   3.209  0.7174  0.0377  0.1883
  224HFI     F1 3169   3.388   2.062   3.315  0.2068 -0.2452 -0.0007
  224HFI     F2 3170   3.203   2.154   3.255  0.5729 -0.4186  0.0188
  224HFI     F3 3171   3.371   2.136   3.109  0.1272 -0.1889  0.1012
  224HFI     C3 3172   3.101   1.957   3.094 -0.2349 -0.1735 -0.1213
  224HFI     F4 3173   2.998   2.008   3.171 -0.8322  0.2645 -0.2817
  224HFI     F5 3174   3.057   1.846   3.036  0.5264  0.1426  0.3091
  224HFI     F6 3175   3.120   2.040   2.990 -0.2085  0.3436  0.4705
  224HFI     H1 3176   3.273   1.889   3.359  2.6894 -1.3144 -0.4374
  224HFI     H2 3177   3.292   1.890   3.086 -0.5021 -0.4361  0.2116
  225HFI     O1 3178   1.251   2.604   0.156  0.3120 -0.0069 -0.7092
  225HFI     C1 3179   1.111   2.601   0.107 -0.2759 -0.1448  0.1462
  225HFI     C2 3180   1.105   2.553  -0.043 -0.4947 -0.4800  0.2530
  225HFI     F1 3181   0.983   2.591  -0.102 -0.3564 -0.3195  0.0735
  225HFI     F2 3182   1.112   2.417  -0.054 -0.1436  0.2584 -0.3541
  225HFI     F3 3183   1.202   2.607  -0.118  0.1952 -0.4959  0.2712
  225HFI     C3 3184   1.029   2.740   0.116  0.2797 -0.7560 -0.3119
  225HFI     F4 3185   1.056   2.803   0.235  0.2148 -0.0607 -0.3911
  225HFI     F5 3186   0.896   2.716   0.118 -0.2353  0.0411 -0.7440
  225HFI     F6 3187   1.063   2.829   0.018  0.5181 -0.1558 -0.1457
  225HFI     H1 3188   1.243   2.602   0.253  0.0323 -0.4645 -0.7375
  225HFI     H2 3189   1.063   2.523   0.167 -0.8151 -1.4902 -1.9860
  226HFI     O1 3190   3.195   1.954   2.362 -0.0650  0.1405  0.2879
  226HFI     C1 3191   3.163   1.834   2.287  0.9495  0.2694 -0.5008
  226HFI     C2 3192   3.016   1.803   2.297 -0.4003 -0.7627 -0.3277
  226HFI     F1 3193   2.976   1.703   2.217 -0.0918  0.1911  0.2071
  226HFI     F2 3194   2.942   1.912   2.251  0.0682 -0.0936  0.6098
  226HFI     F3 3195   2.979   1.763   2.425  0.7194  0.1452  0.0944
  226HFI     C3 3196   3.257   1.713   2.305 -0.3994  0.6702  0.9953
  226HFI     F4 3197   3.265   1.646   2.188  0.7112  0.0359  0.4216
  226HFI     F5 3198   3.219   1.632   2.398  0.6964 -0.5359 -0.2504
  226HFI     F6 3199   3.380   1.754   2.338 -0.6005  0.2404  0.1409
  226HFI     H1 3200   3.168   1.939   2.454 -0.3277  2.2731  0.5853
  226HFI     H2 3201   3.168   1.868   2.183 -3.7985 -2.7416 -1.8972
  227HFI     O1 3202   2.595   2.641   2.460  0.1240 -0.1178  0.0731
  227HFI     C1 3203   2.516   2.723   2.366  0.9595 -0.5434  0.5021
  227HFI     C2 3204   2.424   2.640   2.275  0.3860 -0.1967 -0.4636
  227HFI     F1 3205   2.357   2.723   2.195  0.5783 -0.0577 -0.3422
  227HFI     F2 3206   2.331   2.563   2.337  0.2346  0.3007 -0.3142
  227HFI     F3 3207   2.501   2.553   2.197  0.2906  0.1930  0.2358
  227HFI     C3 3208   2.606   2.821   2.293 -0.5420 -0.2320  0.0186
  227HFI     F4 3209   2.543   2.928   2.231 -0.2097  0.0316 -0.5650
  227HFI     F5 3210   2.679   2.757   2.203 -0.4446  0.7122  0.1279
  227HFI     F6 3211   2.691   2.877   2.383  0.2703  0.5029  0.1127
  227HFI     H1 3212   2.674   2.689   2.489  0.7385 -0.2980 -1.2399
  227HFI     H2 3213   2.446   2.785   2.422  1.2723  0.5308 -0.2831
  228HFI     O1 3214   2.904   0.682   2.674 -0.3482 -0.2190  0.4480
  228HFI     C1 3215   2.915   0.579   2.779  0.2065  0.3116  0.4909
  228HFI     C2 3216   3.054   0.516   2.805  0.0849 -0.0383  0.2216
  228HFI     F1 3217   3.047   0.404   2.879 -0.5530 -0.7080  0.1538
  228HFI     F2 3218   3.149   0.606   2.855 -0.1340  0.0750  0.0427
  228HFI     F3 3219   3.114   0.470   2.691 -0.3445  0.4707  0.3802
  228HFI     C3 3220   2.807   0.468   2.768 -0.0900 -0.4276  0.1071
  228HFI     F4 3221   2.693   0.516   2.728  0.1431  0.1611  0.5060
  228HFI     F5 3222   2.783   0.403   2.882 -0.0199  0.1434  0.1562
  228HFI     F6 3223   2.834   0.373   2.672  0.4840  0.6793 -0.8110
  228HFI     H1 3224   2.942   0.646   2.591  0.2016  0.7788  0.2601
  228HFI     H2 3225   2.890   0.628   2.874 -1.9219  0.5398 -0.1727
   3.40320   3.43847   3.80000
