; Source10.3390/polym13050830 SI TableS2; excluded 1-2/1-3, unscaled 1-4 assumption
[ moleculetype ]
PMMA 2
[ atoms ]
1 PCX 1 PMMA CX1    1 0.002550000 12.011000
2 PCA 1 PMMA CA2    2 0.018900000 12.011000
3 PCX 1 PMMA CX3    3 0.005100000 12.011000
4 PC 1 PMMA C4     4 0.746400000 12.011000
5 PO 1 PMMA O5     5 -0.593900000 15.999400
6 POS 1 PMMA OS6    6 -0.461700000 15.999400
7 PCE 1 PMMA CE7    7 0.280100000 12.011000
8 PCX 1 PMMA CX8    8 0.005100000 12.011000
9 PCA 1 PMMA CA9    9 0.018900000 12.011000
10 PCX 1 PMMA CX10   10 0.005100000 12.011000
11 PC 1 PMMA C11    11 0.746400000 12.011000
12 PO 1 PMMA O12    12 -0.593900000 15.999400
13 POS 1 PMMA OS13   13 -0.461700000 15.999400
14 PCE 1 PMMA CE14   14 0.280100000 12.011000
15 PCX 1 PMMA CX15   15 0.005100000 12.011000
16 PCA 1 PMMA CA16   16 0.018900000 12.011000
17 PCX 1 PMMA CX17   17 0.005100000 12.011000
18 PC 1 PMMA C18    18 0.746400000 12.011000
19 PO 1 PMMA O19    19 -0.593900000 15.999400
20 POS 1 PMMA OS20   20 -0.461700000 15.999400
21 PCE 1 PMMA CE21   21 0.280100000 12.011000
22 PCX 1 PMMA CX22   22 0.005100000 12.011000
23 PCA 1 PMMA CA23   23 0.018900000 12.011000
24 PCX 1 PMMA CX24   24 0.005100000 12.011000
25 PC 1 PMMA C25    25 0.746400000 12.011000
26 PO 1 PMMA O26    26 -0.593900000 15.999400
27 POS 1 PMMA OS27   27 -0.461700000 15.999400
28 PCE 1 PMMA CE28   28 0.280100000 12.011000
29 PCX 1 PMMA CX29   29 0.002550000 12.011000
30 PHC 1 PMMA HC30   30 0.000000000 1.008000
31 PHC 1 PMMA HC31   31 0.000000000 1.008000
32 PHC 1 PMMA HC32   32 0.000000000 1.008000
33 PHC 1 PMMA HC33   33 0.000000000 1.008000
34 PHC 1 PMMA HC34   34 0.000000000 1.008000
35 PHC 1 PMMA HC35   35 0.000000000 1.008000
36 PH1 1 PMMA H136   36 0.000000000 1.008000
37 PH1 1 PMMA H137   37 0.000000000 1.008000
38 PH1 1 PMMA H138   38 0.000000000 1.008000
39 PHC 1 PMMA HC39   39 0.000000000 1.008000
40 PHC 1 PMMA HC40   40 0.000000000 1.008000
41 PHC 1 PMMA HC41   41 0.000000000 1.008000
42 PHC 1 PMMA HC42   42 0.000000000 1.008000
43 PHC 1 PMMA HC43   43 0.000000000 1.008000
44 PH1 1 PMMA H144   44 0.000000000 1.008000
45 PH1 1 PMMA H145   45 0.000000000 1.008000
46 PH1 1 PMMA H146   46 0.000000000 1.008000
47 PHC 1 PMMA HC47   47 0.000000000 1.008000
48 PHC 1 PMMA HC48   48 0.000000000 1.008000
49 PHC 1 PMMA HC49   49 0.000000000 1.008000
50 PHC 1 PMMA HC50   50 0.000000000 1.008000
51 PHC 1 PMMA HC51   51 0.000000000 1.008000
52 PH1 1 PMMA H152   52 0.000000000 1.008000
53 PH1 1 PMMA H153   53 0.000000000 1.008000
54 PH1 1 PMMA H154   54 0.000000000 1.008000
55 PHC 1 PMMA HC55   55 0.000000000 1.008000
56 PHC 1 PMMA HC56   56 0.000000000 1.008000
57 PHC 1 PMMA HC57   57 0.000000000 1.008000
58 PHC 1 PMMA HC58   58 0.000000000 1.008000
59 PHC 1 PMMA HC59   59 0.000000000 1.008000
60 PH1 1 PMMA H160   60 0.000000000 1.008000
61 PH1 1 PMMA H161   61 0.000000000 1.008000
62 PH1 1 PMMA H162   62 0.000000000 1.008000
63 PHC 1 PMMA HC63   63 0.000000000 1.008000
64 PHC 1 PMMA HC64   64 0.000000000 1.008000
65 PHC 1 PMMA HC65   65 0.000000000 1.008000
[ bonds ]
1 2 1 0.152000000 259408.000000000
2 3 1 0.152000000 259408.000000000
2 4 1 0.150000000 276144.000000000
4 5 1 0.120400000 835963.200000000
4 6 1 0.134300000 344175.900000000
6 7 1 0.141000000 267776.000000000
2 8 1 0.152000000 259408.000000000
8 9 1 0.152000000 259408.000000000
9 10 1 0.152000000 259408.000000000
9 11 1 0.150000000 276144.000000000
11 12 1 0.120400000 835963.200000000
11 13 1 0.134300000 344175.900000000
13 14 1 0.141000000 267776.000000000
9 15 1 0.152000000 259408.000000000
15 16 1 0.152000000 259408.000000000
16 17 1 0.152000000 259408.000000000
16 18 1 0.150000000 276144.000000000
18 19 1 0.120400000 835963.200000000
18 20 1 0.134300000 344175.900000000
20 21 1 0.141000000 267776.000000000
16 22 1 0.152000000 259408.000000000
22 23 1 0.152000000 259408.000000000
23 24 1 0.152000000 259408.000000000
23 25 1 0.150000000 276144.000000000
25 26 1 0.120400000 835963.200000000
25 27 1 0.134300000 344175.900000000
27 28 1 0.141000000 267776.000000000
23 29 1 0.152000000 259408.000000000
1 30 1 0.109500000 301248.000000000
1 31 1 0.109500000 301248.000000000
1 32 1 0.109500000 301248.000000000
3 33 1 0.109500000 301248.000000000
3 34 1 0.109500000 301248.000000000
3 35 1 0.109500000 301248.000000000
7 36 1 0.109200000 343088.000000000
7 37 1 0.109200000 343088.000000000
7 38 1 0.109200000 343088.000000000
8 39 1 0.109500000 301248.000000000
8 40 1 0.109500000 301248.000000000
10 41 1 0.109500000 301248.000000000
10 42 1 0.109500000 301248.000000000
10 43 1 0.109500000 301248.000000000
14 44 1 0.109200000 343088.000000000
14 45 1 0.109200000 343088.000000000
14 46 1 0.109200000 343088.000000000
15 47 1 0.109500000 301248.000000000
15 48 1 0.109500000 301248.000000000
17 49 1 0.109500000 301248.000000000
17 50 1 0.109500000 301248.000000000
17 51 1 0.109500000 301248.000000000
21 52 1 0.109200000 343088.000000000
21 53 1 0.109200000 343088.000000000
21 54 1 0.109200000 343088.000000000
22 55 1 0.109500000 301248.000000000
22 56 1 0.109500000 301248.000000000
24 57 1 0.109500000 301248.000000000
24 58 1 0.109500000 301248.000000000
24 59 1 0.109500000 301248.000000000
28 60 1 0.109200000 343088.000000000
28 61 1 0.109200000 343088.000000000
28 62 1 0.109200000 343088.000000000
29 63 1 0.109500000 301248.000000000
29 64 1 0.109500000 301248.000000000
29 65 1 0.109500000 301248.000000000
[ angles ]
2 1 30 1 112.600000000 376.600000000
2 1 31 1 112.600000000 376.600000000
2 1 32 1 112.600000000 376.600000000
30 1 31 1 109.500000000 334.700000000
30 1 32 1 109.500000000 334.700000000
31 1 32 1 109.500000000 334.700000000
1 2 3 1 113.500000000 376.600000000
1 2 4 1 111.500000000 334.700000000
1 2 8 1 113.500000000 376.600000000
3 2 4 1 111.500000000 334.700000000
3 2 8 1 113.500000000 376.600000000
4 2 8 1 111.500000000 334.700000000
2 3 33 1 112.600000000 376.600000000
2 3 34 1 112.600000000 376.600000000
2 3 35 1 112.600000000 376.600000000
33 3 34 1 109.500000000 334.700000000
33 3 35 1 109.500000000 334.700000000
34 3 35 1 109.500000000 334.700000000
2 4 5 1 125.400000000 493.700000000
2 4 6 1 111.000000000 418.400000000
5 4 6 1 122.500000000 861.900000000
4 6 7 1 114.000000000 423.400000000
6 7 36 1 110.000000000 502.100000000
6 7 37 1 110.000000000 502.100000000
6 7 38 1 110.000000000 502.100000000
36 7 37 1 109.500000000 376.600000000
36 7 38 1 109.500000000 376.600000000
37 7 38 1 109.500000000 376.600000000
2 8 9 1 113.500000000 376.600000000
2 8 39 1 112.600000000 376.600000000
2 8 40 1 112.600000000 376.600000000
9 8 39 1 112.600000000 376.600000000
9 8 40 1 112.600000000 376.600000000
39 8 40 1 109.500000000 334.700000000
8 9 10 1 113.500000000 376.600000000
8 9 11 1 111.500000000 334.700000000
8 9 15 1 113.500000000 376.600000000
10 9 11 1 111.500000000 334.700000000
10 9 15 1 113.500000000 376.600000000
11 9 15 1 111.500000000 334.700000000
9 10 41 1 112.600000000 376.600000000
9 10 42 1 112.600000000 376.600000000
9 10 43 1 112.600000000 376.600000000
41 10 42 1 109.500000000 334.700000000
41 10 43 1 109.500000000 334.700000000
42 10 43 1 109.500000000 334.700000000
9 11 12 1 125.400000000 493.700000000
9 11 13 1 111.000000000 418.400000000
12 11 13 1 122.500000000 861.900000000
11 13 14 1 114.000000000 423.400000000
13 14 44 1 110.000000000 502.100000000
13 14 45 1 110.000000000 502.100000000
13 14 46 1 110.000000000 502.100000000
44 14 45 1 109.500000000 376.600000000
44 14 46 1 109.500000000 376.600000000
45 14 46 1 109.500000000 376.600000000
9 15 16 1 113.500000000 376.600000000
9 15 47 1 112.600000000 376.600000000
9 15 48 1 112.600000000 376.600000000
16 15 47 1 112.600000000 376.600000000
16 15 48 1 112.600000000 376.600000000
47 15 48 1 109.500000000 334.700000000
15 16 17 1 113.500000000 376.600000000
15 16 18 1 111.500000000 334.700000000
15 16 22 1 113.500000000 376.600000000
17 16 18 1 111.500000000 334.700000000
17 16 22 1 113.500000000 376.600000000
18 16 22 1 111.500000000 334.700000000
16 17 49 1 112.600000000 376.600000000
16 17 50 1 112.600000000 376.600000000
16 17 51 1 112.600000000 376.600000000
49 17 50 1 109.500000000 334.700000000
49 17 51 1 109.500000000 334.700000000
50 17 51 1 109.500000000 334.700000000
16 18 19 1 125.400000000 493.700000000
16 18 20 1 111.000000000 418.400000000
19 18 20 1 122.500000000 861.900000000
18 20 21 1 114.000000000 423.400000000
20 21 52 1 110.000000000 502.100000000
20 21 53 1 110.000000000 502.100000000
20 21 54 1 110.000000000 502.100000000
52 21 53 1 109.500000000 376.600000000
52 21 54 1 109.500000000 376.600000000
53 21 54 1 109.500000000 376.600000000
16 22 23 1 113.500000000 376.600000000
16 22 55 1 112.600000000 376.600000000
16 22 56 1 112.600000000 376.600000000
23 22 55 1 112.600000000 376.600000000
23 22 56 1 112.600000000 376.600000000
55 22 56 1 109.500000000 334.700000000
22 23 24 1 113.500000000 376.600000000
22 23 25 1 111.500000000 334.700000000
22 23 29 1 113.500000000 376.600000000
24 23 25 1 111.500000000 334.700000000
24 23 29 1 113.500000000 376.600000000
25 23 29 1 111.500000000 334.700000000
23 24 57 1 112.600000000 376.600000000
23 24 58 1 112.600000000 376.600000000
23 24 59 1 112.600000000 376.600000000
57 24 58 1 109.500000000 334.700000000
57 24 59 1 109.500000000 334.700000000
58 24 59 1 109.500000000 334.700000000
23 25 26 1 125.400000000 493.700000000
23 25 27 1 111.000000000 418.400000000
26 25 27 1 122.500000000 861.900000000
25 27 28 1 114.000000000 423.400000000
27 28 60 1 110.000000000 502.100000000
27 28 61 1 110.000000000 502.100000000
27 28 62 1 110.000000000 502.100000000
60 28 61 1 109.500000000 376.600000000
60 28 62 1 109.500000000 376.600000000
61 28 62 1 109.500000000 376.600000000
23 29 63 1 112.600000000 376.600000000
23 29 64 1 112.600000000 376.600000000
23 29 65 1 112.600000000 376.600000000
63 29 64 1 109.500000000 334.700000000
63 29 65 1 109.500000000 334.700000000
64 29 65 1 109.500000000 334.700000000
[ dihedrals ]
30 1 2 3 9 0.0 0.418400000 3
30 1 2 4 9 0.0 -0.125520000 3
30 1 2 8 9 0.0 0.418400000 3
31 1 2 3 9 0.0 0.418400000 3
31 1 2 4 9 0.0 -0.125520000 3
31 1 2 8 9 0.0 0.418400000 3
32 1 2 3 9 0.0 0.418400000 3
32 1 2 4 9 0.0 -0.125520000 3
32 1 2 8 9 0.0 0.418400000 3
1 2 3 33 9 0.0 0.418400000 3
1 2 3 34 9 0.0 0.418400000 3
1 2 3 35 9 0.0 0.418400000 3
4 2 3 33 9 0.0 -0.125520000 3
4 2 3 34 9 0.0 -0.125520000 3
4 2 3 35 9 0.0 -0.125520000 3
8 2 3 33 9 0.0 0.418400000 3
8 2 3 34 9 0.0 0.418400000 3
8 2 3 35 9 0.0 0.418400000 3
1 2 4 5 9 0.0 -1.715400000 2
1 2 4 5 9 0.0 -1.213400000 3
1 2 4 6 9 0.0 -1.882800000 2
1 2 4 6 9 0.0 -1.380700000 3
3 2 4 5 9 0.0 -1.715400000 2
3 2 4 5 9 0.0 -1.213400000 3
3 2 4 6 9 0.0 -1.882800000 2
3 2 4 6 9 0.0 -1.380700000 3
8 2 4 5 9 0.0 -1.715400000 2
8 2 4 5 9 0.0 -1.213400000 3
8 2 4 6 9 0.0 -1.882800000 2
8 2 4 6 9 0.0 -1.380700000 3
2 4 6 7 9 0.0 -2.719600000 1
2 4 6 7 9 0.0 -11.506000000 2
5 4 6 7 9 0.0 -17.614640000 2
5 4 6 7 9 0.0 -3.054320000 3
4 6 7 36 9 0.0 0.627600000 3
4 6 7 37 9 0.0 0.627600000 3
4 6 7 38 9 0.0 0.627600000 3
1 2 8 9 9 0.0 1.882800000 1
1 2 8 39 9 0.0 0.418400000 3
1 2 8 40 9 0.0 0.418400000 3
3 2 8 9 9 0.0 1.882800000 1
3 2 8 39 9 0.0 0.418400000 3
3 2 8 40 9 0.0 0.418400000 3
4 2 8 39 9 0.0 -0.125520000 3
4 2 8 40 9 0.0 -0.125520000 3
2 8 9 10 9 0.0 1.882800000 1
2 8 9 15 9 0.0 1.882800000 1
39 8 9 10 9 0.0 0.418400000 3
39 8 9 11 9 0.0 -0.125520000 3
39 8 9 15 9 0.0 0.418400000 3
40 8 9 10 9 0.0 0.418400000 3
40 8 9 11 9 0.0 -0.125520000 3
40 8 9 15 9 0.0 0.418400000 3
8 9 10 41 9 0.0 0.418400000 3
8 9 10 42 9 0.0 0.418400000 3
8 9 10 43 9 0.0 0.418400000 3
11 9 10 41 9 0.0 -0.125520000 3
11 9 10 42 9 0.0 -0.125520000 3
11 9 10 43 9 0.0 -0.125520000 3
15 9 10 41 9 0.0 0.418400000 3
15 9 10 42 9 0.0 0.418400000 3
15 9 10 43 9 0.0 0.418400000 3
8 9 11 12 9 0.0 -1.715400000 2
8 9 11 12 9 0.0 -1.213400000 3
8 9 11 13 9 0.0 -1.882800000 2
8 9 11 13 9 0.0 -1.380700000 3
10 9 11 12 9 0.0 -1.715400000 2
10 9 11 12 9 0.0 -1.213400000 3
10 9 11 13 9 0.0 -1.882800000 2
10 9 11 13 9 0.0 -1.380700000 3
15 9 11 12 9 0.0 -1.715400000 2
15 9 11 12 9 0.0 -1.213400000 3
15 9 11 13 9 0.0 -1.882800000 2
15 9 11 13 9 0.0 -1.380700000 3
9 11 13 14 9 0.0 -2.719600000 1
9 11 13 14 9 0.0 -11.506000000 2
12 11 13 14 9 0.0 -17.614640000 2
12 11 13 14 9 0.0 -3.054320000 3
11 13 14 44 9 0.0 0.627600000 3
11 13 14 45 9 0.0 0.627600000 3
11 13 14 46 9 0.0 0.627600000 3
8 9 15 16 9 0.0 1.882800000 1
8 9 15 47 9 0.0 0.418400000 3
8 9 15 48 9 0.0 0.418400000 3
10 9 15 16 9 0.0 1.882800000 1
10 9 15 47 9 0.0 0.418400000 3
10 9 15 48 9 0.0 0.418400000 3
11 9 15 47 9 0.0 -0.125520000 3
11 9 15 48 9 0.0 -0.125520000 3
9 15 16 17 9 0.0 1.882800000 1
9 15 16 22 9 0.0 1.882800000 1
47 15 16 17 9 0.0 0.418400000 3
47 15 16 18 9 0.0 -0.125520000 3
47 15 16 22 9 0.0 0.418400000 3
48 15 16 17 9 0.0 0.418400000 3
48 15 16 18 9 0.0 -0.125520000 3
48 15 16 22 9 0.0 0.418400000 3
15 16 17 49 9 0.0 0.418400000 3
15 16 17 50 9 0.0 0.418400000 3
15 16 17 51 9 0.0 0.418400000 3
18 16 17 49 9 0.0 -0.125520000 3
18 16 17 50 9 0.0 -0.125520000 3
18 16 17 51 9 0.0 -0.125520000 3
22 16 17 49 9 0.0 0.418400000 3
22 16 17 50 9 0.0 0.418400000 3
22 16 17 51 9 0.0 0.418400000 3
15 16 18 19 9 0.0 -1.715400000 2
15 16 18 19 9 0.0 -1.213400000 3
15 16 18 20 9 0.0 -1.882800000 2
15 16 18 20 9 0.0 -1.380700000 3
17 16 18 19 9 0.0 -1.715400000 2
17 16 18 19 9 0.0 -1.213400000 3
17 16 18 20 9 0.0 -1.882800000 2
17 16 18 20 9 0.0 -1.380700000 3
22 16 18 19 9 0.0 -1.715400000 2
22 16 18 19 9 0.0 -1.213400000 3
22 16 18 20 9 0.0 -1.882800000 2
22 16 18 20 9 0.0 -1.380700000 3
16 18 20 21 9 0.0 -2.719600000 1
16 18 20 21 9 0.0 -11.506000000 2
19 18 20 21 9 0.0 -17.614640000 2
19 18 20 21 9 0.0 -3.054320000 3
18 20 21 52 9 0.0 0.627600000 3
18 20 21 53 9 0.0 0.627600000 3
18 20 21 54 9 0.0 0.627600000 3
15 16 22 23 9 0.0 1.882800000 1
15 16 22 55 9 0.0 0.418400000 3
15 16 22 56 9 0.0 0.418400000 3
17 16 22 23 9 0.0 1.882800000 1
17 16 22 55 9 0.0 0.418400000 3
17 16 22 56 9 0.0 0.418400000 3
18 16 22 55 9 0.0 -0.125520000 3
18 16 22 56 9 0.0 -0.125520000 3
16 22 23 24 9 0.0 1.882800000 1
16 22 23 29 9 0.0 1.882800000 1
55 22 23 24 9 0.0 0.418400000 3
55 22 23 25 9 0.0 -0.125520000 3
55 22 23 29 9 0.0 0.418400000 3
56 22 23 24 9 0.0 0.418400000 3
56 22 23 25 9 0.0 -0.125520000 3
56 22 23 29 9 0.0 0.418400000 3
22 23 24 57 9 0.0 0.418400000 3
22 23 24 58 9 0.0 0.418400000 3
22 23 24 59 9 0.0 0.418400000 3
25 23 24 57 9 0.0 -0.125520000 3
25 23 24 58 9 0.0 -0.125520000 3
25 23 24 59 9 0.0 -0.125520000 3
29 23 24 57 9 0.0 0.418400000 3
29 23 24 58 9 0.0 0.418400000 3
29 23 24 59 9 0.0 0.418400000 3
22 23 25 26 9 0.0 -1.715400000 2
22 23 25 26 9 0.0 -1.213400000 3
22 23 25 27 9 0.0 -1.882800000 2
22 23 25 27 9 0.0 -1.380700000 3
24 23 25 26 9 0.0 -1.715400000 2
24 23 25 26 9 0.0 -1.213400000 3
24 23 25 27 9 0.0 -1.882800000 2
24 23 25 27 9 0.0 -1.380700000 3
29 23 25 26 9 0.0 -1.715400000 2
29 23 25 26 9 0.0 -1.213400000 3
29 23 25 27 9 0.0 -1.882800000 2
29 23 25 27 9 0.0 -1.380700000 3
23 25 27 28 9 0.0 -2.719600000 1
23 25 27 28 9 0.0 -11.506000000 2
26 25 27 28 9 0.0 -17.614640000 2
26 25 27 28 9 0.0 -3.054320000 3
25 27 28 60 9 0.0 0.627600000 3
25 27 28 61 9 0.0 0.627600000 3
25 27 28 62 9 0.0 0.627600000 3
22 23 29 63 9 0.0 0.418400000 3
22 23 29 64 9 0.0 0.418400000 3
22 23 29 65 9 0.0 0.418400000 3
24 23 29 63 9 0.0 0.418400000 3
24 23 29 64 9 0.0 0.418400000 3
24 23 29 65 9 0.0 0.418400000 3
25 23 29 63 9 0.0 -0.125520000 3
25 23 29 64 9 0.0 -0.125520000 3
25 23 29 65 9 0.0 -0.125520000 3
