DMF comparator n4
 4173
    1GR      C1    1   0.000   0.000   1.900  0.0000  0.0000  0.0000
    1GR      C2    2   0.142   0.000   1.900  0.0000  0.0000  0.0000
    1GR      C3    3   0.213   0.123   1.900  0.0000  0.0000  0.0000
    1GR      C4    4   0.354   0.123   1.900  0.0000  0.0000  0.0000
    1GR      C5    5   0.000   0.246   1.900  0.0000  0.0000  0.0000
    1GR      C6    6   0.142   0.246   1.900  0.0000  0.0000  0.0000
    1GR      C7    7   0.213   0.368   1.900  0.0000  0.0000  0.0000
    1GR      C8    8   0.354   0.368   1.900  0.0000  0.0000  0.0000
    1GR      C9    9   3.403   0.491   1.900  0.0000  0.0000  0.0000
    1GR     C10   10   0.142   0.491   1.900  0.0000  0.0000  0.0000
    1GR     C11   11   0.213   0.614   1.900  0.0000  0.0000  0.0000
    1GR     C12   12   0.354   0.614   1.900  0.0000  0.0000  0.0000
    1GR     C13   13   3.403   0.737   1.900  0.0000  0.0000  0.0000
    1GR     C14   14   0.142   0.737   1.900  0.0000  0.0000  0.0000
    1GR     C15   15   0.213   0.860   1.900  0.0000  0.0000  0.0000
    1GR     C16   16   0.354   0.860   1.900  0.0000  0.0000  0.0000
    1GR     C17   17   0.000   0.982   1.900  0.0000  0.0000  0.0000
    1GR     C18   18   0.142   0.982   1.900  0.0000  0.0000  0.0000
    1GR     C19   19   0.213   1.105   1.900  0.0000  0.0000  0.0000
    1GR     C20   20   0.354   1.105   1.900  0.0000  0.0000  0.0000
    1GR     C21   21   0.000   1.228   1.900  0.0000  0.0000  0.0000
    1GR     C22   22   0.142   1.228   1.900  0.0000  0.0000  0.0000
    1GR     C23   23   0.213   1.351   1.900  0.0000  0.0000  0.0000
    1GR     C24   24   0.354   1.351   1.900  0.0000  0.0000  0.0000
    1GR     C25   25   0.000   1.474   1.900  0.0000  0.0000  0.0000
    1GR     C26   26   0.142   1.474   1.900  0.0000  0.0000  0.0000
    1GR     C27   27   0.213   1.596   1.900  0.0000  0.0000  0.0000
    1GR     C28   28   0.354   1.596   1.900  0.0000  0.0000  0.0000
    1GR     C29   29   0.000   1.719   1.900  0.0000  0.0000  0.0000
    1GR     C30   30   0.142   1.719   1.900  0.0000  0.0000  0.0000
    1GR     C31   31   0.213   1.842   1.900  0.0000  0.0000  0.0000
    1GR     C32   32   0.354   1.842   1.900  0.0000  0.0000  0.0000
    1GR     C33   33   0.000   1.965   1.900  0.0000  0.0000  0.0000
    1GR     C34   34   0.142   1.965   1.900  0.0000  0.0000  0.0000
    1GR     C35   35   0.213   2.088   1.900  0.0000  0.0000  0.0000
    1GR     C36   36   0.354   2.088   1.900  0.0000  0.0000  0.0000
    1GR     C37   37   0.000   2.210   1.900  0.0000  0.0000  0.0000
    1GR     C38   38   0.142   2.210   1.900  0.0000  0.0000  0.0000
    1GR     C39   39   0.213   2.333   1.900  0.0000  0.0000  0.0000
    1GR     C40   40   0.354   2.333   1.900  0.0000  0.0000  0.0000
    1GR     C41   41   0.000   2.456   1.900  0.0000  0.0000  0.0000
    1GR     C42   42   0.142   2.456   1.900  0.0000  0.0000  0.0000
    1GR     C43   43   0.213   2.579   1.900  0.0000  0.0000  0.0000
    1GR     C44   44   0.354   2.579   1.900  0.0000  0.0000  0.0000
    1GR     C45   45   0.000   2.702   1.900  0.0000  0.0000  0.0000
    1GR     C46   46   0.142   2.702   1.900  0.0000  0.0000  0.0000
    1GR     C47   47   0.213   2.824   1.900  0.0000  0.0000  0.0000
    1GR     C48   48   0.354   2.824   1.900  0.0000  0.0000  0.0000
    1GR     C49   49   0.000   2.947   1.900  0.0000  0.0000  0.0000
    1GR     C50   50   0.142   2.947   1.900  0.0000  0.0000  0.0000
    1GR     C51   51   0.213   3.070   1.900  0.0000  0.0000  0.0000
    1GR     C52   52   0.354   3.070   1.900  0.0000  0.0000  0.0000
    1GR     C53   53   0.000   3.193   1.900  0.0000  0.0000  0.0000
    1GR     C54   54   0.142   3.193   1.900  0.0000  0.0000  0.0000
    1GR     C55   55   0.213   3.316   1.900  0.0000  0.0000  0.0000
    1GR     C56   56   0.354   3.316   1.900  0.0000  0.0000  0.0000
    1GR     C57   57   0.425   0.000   1.900  0.0000  0.0000  0.0000
    1GR     C58   58   0.567   0.000   1.900  0.0000  0.0000  0.0000
    1GR     C59   59   0.638   0.123   1.900  0.0000  0.0000  0.0000
    1GR     C60   60   0.780   0.123   1.900  0.0000  0.0000  0.0000
    1GR     C61   61   0.425   0.246   1.900  0.0000  0.0000  0.0000
    1GR     C62   62   0.567   0.246   1.900  0.0000  0.0000  0.0000
    1GR     C63   63   0.638   0.368   1.900  0.0000  0.0000  0.0000
    1GR     C64   64   0.780   0.368   1.900  0.0000  0.0000  0.0000
    1GR     C65   65   0.425   0.491   1.900  0.0000  0.0000  0.0000
    1GR     C66   66   0.567   0.491   1.900  0.0000  0.0000  0.0000
    1GR     C67   67   0.638   0.614   1.900  0.0000  0.0000  0.0000
    1GR     C68   68   0.780   0.614   1.900  0.0000  0.0000  0.0000
    1GR     C69   69   0.425   0.737   1.900  0.0000  0.0000  0.0000
    1GR     C70   70   0.567   0.737   1.900  0.0000  0.0000  0.0000
    1GR     C71   71   0.638   0.860   1.900  0.0000  0.0000  0.0000
    1GR     C72   72   0.780   0.860   1.900  0.0000  0.0000  0.0000
    1GR     C73   73   0.425   0.982   1.900  0.0000  0.0000  0.0000
    1GR     C74   74   0.567   0.982   1.900  0.0000  0.0000  0.0000
    1GR     C75   75   0.638   1.105   1.900  0.0000  0.0000  0.0000
    1GR     C76   76   0.780   1.105   1.900  0.0000  0.0000  0.0000
    1GR     C77   77   0.425   1.228   1.900  0.0000  0.0000  0.0000
    1GR     C78   78   0.567   1.228   1.900  0.0000  0.0000  0.0000
    1GR     C79   79   0.638   1.351   1.900  0.0000  0.0000  0.0000
    1GR     C80   80   0.780   1.351   1.900  0.0000  0.0000  0.0000
    1GR     C81   81   0.425   1.474   1.900  0.0000  0.0000  0.0000
    1GR     C82   82   0.567   1.474   1.900  0.0000  0.0000  0.0000
    1GR     C83   83   0.638   1.596   1.900  0.0000  0.0000  0.0000
    1GR     C84   84   0.780   1.596   1.900  0.0000  0.0000  0.0000
    1GR     C85   85   0.425   1.719   1.900  0.0000  0.0000  0.0000
    1GR     C86   86   0.567   1.719   1.900  0.0000  0.0000  0.0000
    1GR     C87   87   0.638   1.842   1.900  0.0000  0.0000  0.0000
    1GR     C88   88   0.780   1.842   1.900  0.0000  0.0000  0.0000
    1GR     C89   89   0.425   1.965   1.900  0.0000  0.0000  0.0000
    1GR     C90   90   0.567   1.965   1.900  0.0000  0.0000  0.0000
    1GR     C91   91   0.638   2.088   1.900  0.0000  0.0000  0.0000
    1GR     C92   92   0.780   2.088   1.900  0.0000  0.0000  0.0000
    1GR     C93   93   0.425   2.210   1.900  0.0000  0.0000  0.0000
    1GR     C94   94   0.567   2.210   1.900  0.0000  0.0000  0.0000
    1GR     C95   95   0.638   2.333   1.900  0.0000  0.0000  0.0000
    1GR     C96   96   0.780   2.333   1.900  0.0000  0.0000  0.0000
    1GR     C97   97   0.425   2.456   1.900  0.0000  0.0000  0.0000
    1GR     C98   98   0.567   2.456   1.900  0.0000  0.0000  0.0000
    1GR     C99   99   0.638   2.579   1.900  0.0000  0.0000  0.0000
    1GR    C100  100   0.780   2.579   1.900  0.0000  0.0000  0.0000
    1GR    C101  101   0.425   2.702   1.900  0.0000  0.0000  0.0000
    1GR    C102  102   0.567   2.702   1.900  0.0000  0.0000  0.0000
    1GR    C103  103   0.638   2.824   1.900  0.0000  0.0000  0.0000
    1GR    C104  104   0.780   2.824   1.900  0.0000  0.0000  0.0000
    1GR    C105  105   0.425   2.947   1.900  0.0000  0.0000  0.0000
    1GR    C106  106   0.567   2.947   1.900  0.0000  0.0000  0.0000
    1GR    C107  107   0.638   3.070   1.900  0.0000  0.0000  0.0000
    1GR    C108  108   0.780   3.070   1.900  0.0000  0.0000  0.0000
    1GR    C109  109   0.425   3.193   1.900  0.0000  0.0000  0.0000
    1GR    C110  110   0.567   3.193   1.900  0.0000  0.0000  0.0000
    1GR    C111  111   0.638   3.316   1.900  0.0000  0.0000  0.0000
    1GR    C112  112   0.780   3.316   1.900  0.0000  0.0000  0.0000
    1GR    C113  113   0.851   0.000   1.900  0.0000  0.0000  0.0000
    1GR    C114  114   0.993   0.000   1.900  0.0000  0.0000  0.0000
    1GR    C115  115   1.064   0.123   1.900  0.0000  0.0000  0.0000
    1GR    C116  116   1.205   0.123   1.900  0.0000  0.0000  0.0000
    1GR    C117  117   0.851   0.246   1.900  0.0000  0.0000  0.0000
    1GR    C118  118   0.993   0.246   1.900  0.0000  0.0000  0.0000
    1GR    C119  119   1.064   0.368   1.900  0.0000  0.0000  0.0000
    1GR    C120  120   1.205   0.368   1.900  0.0000  0.0000  0.0000
    1GR    C121  121   0.851   0.491   1.900  0.0000  0.0000  0.0000
    1GR    C122  122   0.993   0.491   1.900  0.0000  0.0000  0.0000
    1GR    C123  123   1.064   0.614   1.900  0.0000  0.0000  0.0000
    1GR    C124  124   1.205   0.614   1.900  0.0000  0.0000  0.0000
    1GR    C125  125   0.851   0.737   1.900  0.0000  0.0000  0.0000
    1GR    C126  126   0.993   0.737   1.900  0.0000  0.0000  0.0000
    1GR    C127  127   1.064   0.860   1.900  0.0000  0.0000  0.0000
    1GR    C128  128   1.205   0.860   1.900  0.0000  0.0000  0.0000
    1GR    C129  129   0.851   0.982   1.900  0.0000  0.0000  0.0000
    1GR    C130  130   0.993   0.982   1.900  0.0000  0.0000  0.0000
    1GR    C131  131   1.064   1.105   1.900  0.0000  0.0000  0.0000
    1GR    C132  132   1.205   1.105   1.900  0.0000  0.0000  0.0000
    1GR    C133  133   0.851   1.228   1.900  0.0000  0.0000  0.0000
    1GR    C134  134   0.993   1.228   1.900  0.0000  0.0000  0.0000
    1GR    C135  135   1.064   1.351   1.900  0.0000  0.0000  0.0000
    1GR    C136  136   1.205   1.351   1.900  0.0000  0.0000  0.0000
    1GR    C137  137   0.851   1.474   1.900  0.0000  0.0000  0.0000
    1GR    C138  138   0.993   1.474   1.900  0.0000  0.0000  0.0000
    1GR    C139  139   1.064   1.596   1.900  0.0000  0.0000  0.0000
    1GR    C140  140   1.205   1.596   1.900  0.0000  0.0000  0.0000
    1GR    C141  141   0.851   1.719   1.900  0.0000  0.0000  0.0000
    1GR    C142  142   0.993   1.719   1.900  0.0000  0.0000  0.0000
    1GR    C143  143   1.064   1.842   1.900  0.0000  0.0000  0.0000
    1GR    C144  144   1.205   1.842   1.900  0.0000  0.0000  0.0000
    1GR    C145  145   0.851   1.965   1.900  0.0000  0.0000  0.0000
    1GR    C146  146   0.993   1.965   1.900  0.0000  0.0000  0.0000
    1GR    C147  147   1.064   2.088   1.900  0.0000  0.0000  0.0000
    1GR    C148  148   1.205   2.088   1.900  0.0000  0.0000  0.0000
    1GR    C149  149   0.851   2.210   1.900  0.0000  0.0000  0.0000
    1GR    C150  150   0.993   2.210   1.900  0.0000  0.0000  0.0000
    1GR    C151  151   1.064   2.333   1.900  0.0000  0.0000  0.0000
    1GR    C152  152   1.205   2.333   1.900  0.0000  0.0000  0.0000
    1GR    C153  153   0.851   2.456   1.900  0.0000  0.0000  0.0000
    1GR    C154  154   0.993   2.456   1.900  0.0000  0.0000  0.0000
    1GR    C155  155   1.064   2.579   1.900  0.0000  0.0000  0.0000
    1GR    C156  156   1.205   2.579   1.900  0.0000  0.0000  0.0000
    1GR    C157  157   0.851   2.702   1.900  0.0000  0.0000  0.0000
    1GR    C158  158   0.993   2.702   1.900  0.0000  0.0000  0.0000
    1GR    C159  159   1.064   2.824   1.900  0.0000  0.0000  0.0000
    1GR    C160  160   1.205   2.824   1.900  0.0000  0.0000  0.0000
    1GR    C161  161   0.851   2.947   1.900  0.0000  0.0000  0.0000
    1GR    C162  162   0.993   2.947   1.900  0.0000  0.0000  0.0000
    1GR    C163  163   1.064   3.070   1.900  0.0000  0.0000  0.0000
    1GR    C164  164   1.205   3.070   1.900  0.0000  0.0000  0.0000
    1GR    C165  165   0.851   3.193   1.900  0.0000  0.0000  0.0000
    1GR    C166  166   0.993   3.193   1.900  0.0000  0.0000  0.0000
    1GR    C167  167   1.064   3.316   1.900  0.0000  0.0000  0.0000
    1GR    C168  168   1.205   3.316   1.900  0.0000  0.0000  0.0000
    1GR    C169  169   1.276   0.000   1.900  0.0000  0.0000  0.0000
    1GR    C170  170   1.418   0.000   1.900  0.0000  0.0000  0.0000
    1GR    C171  171   1.489   0.123   1.900  0.0000  0.0000  0.0000
    1GR    C172  172   1.631   0.123   1.900  0.0000  0.0000  0.0000
    1GR    C173  173   1.276   0.246   1.900  0.0000  0.0000  0.0000
    1GR    C174  174   1.418   0.246   1.900  0.0000  0.0000  0.0000
    1GR    C175  175   1.489   0.368   1.900  0.0000  0.0000  0.0000
    1GR    C176  176   1.631   0.368   1.900  0.0000  0.0000  0.0000
    1GR    C177  177   1.276   0.491   1.900  0.0000  0.0000  0.0000
    1GR    C178  178   1.418   0.491   1.900  0.0000  0.0000  0.0000
    1GR    C179  179   1.489   0.614   1.900  0.0000  0.0000  0.0000
    1GR    C180  180   1.631   0.614   1.900  0.0000  0.0000  0.0000
    1GR    C181  181   1.276   0.737   1.900  0.0000  0.0000  0.0000
    1GR    C182  182   1.418   0.737   1.900  0.0000  0.0000  0.0000
    1GR    C183  183   1.489   0.860   1.900  0.0000  0.0000  0.0000
    1GR    C184  184   1.631   0.860   1.900  0.0000  0.0000  0.0000
    1GR    C185  185   1.276   0.982   1.900  0.0000  0.0000  0.0000
    1GR    C186  186   1.418   0.982   1.900  0.0000  0.0000  0.0000
    1GR    C187  187   1.489   1.105   1.900  0.0000  0.0000  0.0000
    1GR    C188  188   1.631   1.105   1.900  0.0000  0.0000  0.0000
    1GR    C189  189   1.276   1.228   1.900  0.0000  0.0000  0.0000
    1GR    C190  190   1.418   1.228   1.900  0.0000  0.0000  0.0000
    1GR    C191  191   1.489   1.351   1.900  0.0000  0.0000  0.0000
    1GR    C192  192   1.631   1.351   1.900  0.0000  0.0000  0.0000
    1GR    C193  193   1.276   1.474   1.900  0.0000  0.0000  0.0000
    1GR    C194  194   1.418   1.474   1.900  0.0000  0.0000  0.0000
    1GR    C195  195   1.489   1.596   1.900  0.0000  0.0000  0.0000
    1GR    C196  196   1.631   1.596   1.900  0.0000  0.0000  0.0000
    1GR    C197  197   1.276   1.719   1.900  0.0000  0.0000  0.0000
    1GR    C198  198   1.418   1.719   1.900  0.0000  0.0000  0.0000
    1GR    C199  199   1.489   1.842   1.900  0.0000  0.0000  0.0000
    1GR    C200  200   1.631   1.842   1.900  0.0000  0.0000  0.0000
    1GR    C201  201   1.276   1.965   1.900  0.0000  0.0000  0.0000
    1GR    C202  202   1.418   1.965   1.900  0.0000  0.0000  0.0000
    1GR    C203  203   1.489   2.088   1.900  0.0000  0.0000  0.0000
    1GR    C204  204   1.631   2.088   1.900  0.0000  0.0000  0.0000
    1GR    C205  205   1.276   2.210   1.900  0.0000  0.0000  0.0000
    1GR    C206  206   1.418   2.210   1.900  0.0000  0.0000  0.0000
    1GR    C207  207   1.489   2.333   1.900  0.0000  0.0000  0.0000
    1GR    C208  208   1.631   2.333   1.900  0.0000  0.0000  0.0000
    1GR    C209  209   1.276   2.456   1.900  0.0000  0.0000  0.0000
    1GR    C210  210   1.418   2.456   1.900  0.0000  0.0000  0.0000
    1GR    C211  211   1.489   2.579   1.900  0.0000  0.0000  0.0000
    1GR    C212  212   1.631   2.579   1.900  0.0000  0.0000  0.0000
    1GR    C213  213   1.276   2.702   1.900  0.0000  0.0000  0.0000
    1GR    C214  214   1.418   2.702   1.900  0.0000  0.0000  0.0000
    1GR    C215  215   1.489   2.824   1.900  0.0000  0.0000  0.0000
    1GR    C216  216   1.631   2.824   1.900  0.0000  0.0000  0.0000
    1GR    C217  217   1.276   2.947   1.900  0.0000  0.0000  0.0000
    1GR    C218  218   1.418   2.947   1.900  0.0000  0.0000  0.0000
    1GR    C219  219   1.489   3.070   1.900  0.0000  0.0000  0.0000
    1GR    C220  220   1.631   3.070   1.900  0.0000  0.0000  0.0000
    1GR    C221  221   1.276   3.193   1.900  0.0000  0.0000  0.0000
    1GR    C222  222   1.418   3.193   1.900  0.0000  0.0000  0.0000
    1GR    C223  223   1.489   3.316   1.900  0.0000  0.0000  0.0000
    1GR    C224  224   1.631   3.316   1.900  0.0000  0.0000  0.0000
    1GR    C225  225   1.702   3.438   1.900  0.0000  0.0000  0.0000
    1GR    C226  226   1.843   0.000   1.900  0.0000  0.0000  0.0000
    1GR    C227  227   1.914   0.123   1.900  0.0000  0.0000  0.0000
    1GR    C228  228   2.056   0.123   1.900  0.0000  0.0000  0.0000
    1GR    C229  229   1.702   0.246   1.900  0.0000  0.0000  0.0000
    1GR    C230  230   1.843   0.246   1.900  0.0000  0.0000  0.0000
    1GR    C231  231   1.914   0.368   1.900  0.0000  0.0000  0.0000
    1GR    C232  232   2.056   0.368   1.900  0.0000  0.0000  0.0000
    1GR    C233  233   1.702   0.491   1.900  0.0000  0.0000  0.0000
    1GR    C234  234   1.843   0.491   1.900  0.0000  0.0000  0.0000
    1GR    C235  235   1.914   0.614   1.900  0.0000  0.0000  0.0000
    1GR    C236  236   2.056   0.614   1.900  0.0000  0.0000  0.0000
    1GR    C237  237   1.702   0.737   1.900  0.0000  0.0000  0.0000
    1GR    C238  238   1.843   0.737   1.900  0.0000  0.0000  0.0000
    1GR    C239  239   1.914   0.860   1.900  0.0000  0.0000  0.0000
    1GR    C240  240   2.056   0.860   1.900  0.0000  0.0000  0.0000
    1GR    C241  241   1.702   0.982   1.900  0.0000  0.0000  0.0000
    1GR    C242  242   1.843   0.982   1.900  0.0000  0.0000  0.0000
    1GR    C243  243   1.914   1.105   1.900  0.0000  0.0000  0.0000
    1GR    C244  244   2.056   1.105   1.900  0.0000  0.0000  0.0000
    1GR    C245  245   1.702   1.228   1.900  0.0000  0.0000  0.0000
    1GR    C246  246   1.843   1.228   1.900  0.0000  0.0000  0.0000
    1GR    C247  247   1.914   1.351   1.900  0.0000  0.0000  0.0000
    1GR    C248  248   2.056   1.351   1.900  0.0000  0.0000  0.0000
    1GR    C249  249   1.702   1.474   1.900  0.0000  0.0000  0.0000
    1GR    C250  250   1.843   1.474   1.900  0.0000  0.0000  0.0000
    1GR    C251  251   1.914   1.596   1.900  0.0000  0.0000  0.0000
    1GR    C252  252   2.056   1.596   1.900  0.0000  0.0000  0.0000
    1GR    C253  253   1.702   1.719   1.900  0.0000  0.0000  0.0000
    1GR    C254  254   1.843   1.719   1.900  0.0000  0.0000  0.0000
    1GR    C255  255   1.914   1.842   1.900  0.0000  0.0000  0.0000
    1GR    C256  256   2.056   1.842   1.900  0.0000  0.0000  0.0000
    1GR    C257  257   1.702   1.965   1.900  0.0000  0.0000  0.0000
    1GR    C258  258   1.843   1.965   1.900  0.0000  0.0000  0.0000
    1GR    C259  259   1.914   2.088   1.900  0.0000  0.0000  0.0000
    1GR    C260  260   2.056   2.088   1.900  0.0000  0.0000  0.0000
    1GR    C261  261   1.702   2.210   1.900  0.0000  0.0000  0.0000
    1GR    C262  262   1.843   2.210   1.900  0.0000  0.0000  0.0000
    1GR    C263  263   1.914   2.333   1.900  0.0000  0.0000  0.0000
    1GR    C264  264   2.056   2.333   1.900  0.0000  0.0000  0.0000
    1GR    C265  265   1.702   2.456   1.900  0.0000  0.0000  0.0000
    1GR    C266  266   1.843   2.456   1.900  0.0000  0.0000  0.0000
    1GR    C267  267   1.914   2.579   1.900  0.0000  0.0000  0.0000
    1GR    C268  268   2.056   2.579   1.900  0.0000  0.0000  0.0000
    1GR    C269  269   1.702   2.702   1.900  0.0000  0.0000  0.0000
    1GR    C270  270   1.843   2.702   1.900  0.0000  0.0000  0.0000
    1GR    C271  271   1.914   2.824   1.900  0.0000  0.0000  0.0000
    1GR    C272  272   2.056   2.824   1.900  0.0000  0.0000  0.0000
    1GR    C273  273   1.702   2.947   1.900  0.0000  0.0000  0.0000
    1GR    C274  274   1.843   2.947   1.900  0.0000  0.0000  0.0000
    1GR    C275  275   1.914   3.070   1.900  0.0000  0.0000  0.0000
    1GR    C276  276   2.056   3.070   1.900  0.0000  0.0000  0.0000
    1GR    C277  277   1.702   3.193   1.900  0.0000  0.0000  0.0000
    1GR    C278  278   1.843   3.193   1.900  0.0000  0.0000  0.0000
    1GR    C279  279   1.914   3.316   1.900  0.0000  0.0000  0.0000
    1GR    C280  280   2.056   3.316   1.900  0.0000  0.0000  0.0000
    1GR    C281  281   2.127   0.000   1.900  0.0000  0.0000  0.0000
    1GR    C282  282   2.269   0.000   1.900  0.0000  0.0000  0.0000
    1GR    C283  283   2.340   0.123   1.900  0.0000  0.0000  0.0000
    1GR    C284  284   2.481   0.123   1.900  0.0000  0.0000  0.0000
    1GR    C285  285   2.127   0.246   1.900  0.0000  0.0000  0.0000
    1GR    C286  286   2.269   0.246   1.900  0.0000  0.0000  0.0000
    1GR    C287  287   2.340   0.368   1.900  0.0000  0.0000  0.0000
    1GR    C288  288   2.481   0.368   1.900  0.0000  0.0000  0.0000
    1GR    C289  289   2.127   0.491   1.900  0.0000  0.0000  0.0000
    1GR    C290  290   2.269   0.491   1.900  0.0000  0.0000  0.0000
    1GR    C291  291   2.340   0.614   1.900  0.0000  0.0000  0.0000
    1GR    C292  292   2.481   0.614   1.900  0.0000  0.0000  0.0000
    1GR    C293  293   2.127   0.737   1.900  0.0000  0.0000  0.0000
    1GR    C294  294   2.269   0.737   1.900  0.0000  0.0000  0.0000
    1GR    C295  295   2.340   0.860   1.900  0.0000  0.0000  0.0000
    1GR    C296  296   2.481   0.860   1.900  0.0000  0.0000  0.0000
    1GR    C297  297   2.127   0.982   1.900  0.0000  0.0000  0.0000
    1GR    C298  298   2.269   0.982   1.900  0.0000  0.0000  0.0000
    1GR    C299  299   2.340   1.105   1.900  0.0000  0.0000  0.0000
    1GR    C300  300   2.481   1.105   1.900  0.0000  0.0000  0.0000
    1GR    C301  301   2.127   1.228   1.900  0.0000  0.0000  0.0000
    1GR    C302  302   2.269   1.228   1.900  0.0000  0.0000  0.0000
    1GR    C303  303   2.340   1.351   1.900  0.0000  0.0000  0.0000
    1GR    C304  304   2.481   1.351   1.900  0.0000  0.0000  0.0000
    1GR    C305  305   2.127   1.474   1.900  0.0000  0.0000  0.0000
    1GR    C306  306   2.269   1.474   1.900  0.0000  0.0000  0.0000
    1GR    C307  307   2.340   1.596   1.900  0.0000  0.0000  0.0000
    1GR    C308  308   2.481   1.596   1.900  0.0000  0.0000  0.0000
    1GR    C309  309   2.127   1.719   1.900  0.0000  0.0000  0.0000
    1GR    C310  310   2.269   1.719   1.900  0.0000  0.0000  0.0000
    1GR    C311  311   2.340   1.842   1.900  0.0000  0.0000  0.0000
    1GR    C312  312   2.481   1.842   1.900  0.0000  0.0000  0.0000
    1GR    C313  313   2.127   1.965   1.900  0.0000  0.0000  0.0000
    1GR    C314  314   2.269   1.965   1.900  0.0000  0.0000  0.0000
    1GR    C315  315   2.340   2.088   1.900  0.0000  0.0000  0.0000
    1GR    C316  316   2.481   2.088   1.900  0.0000  0.0000  0.0000
    1GR    C317  317   2.127   2.210   1.900  0.0000  0.0000  0.0000
    1GR    C318  318   2.269   2.210   1.900  0.0000  0.0000  0.0000
    1GR    C319  319   2.340   2.333   1.900  0.0000  0.0000  0.0000
    1GR    C320  320   2.481   2.333   1.900  0.0000  0.0000  0.0000
    1GR    C321  321   2.127   2.456   1.900  0.0000  0.0000  0.0000
    1GR    C322  322   2.269   2.456   1.900  0.0000  0.0000  0.0000
    1GR    C323  323   2.340   2.579   1.900  0.0000  0.0000  0.0000
    1GR    C324  324   2.481   2.579   1.900  0.0000  0.0000  0.0000
    1GR    C325  325   2.127   2.702   1.900  0.0000  0.0000  0.0000
    1GR    C326  326   2.269   2.702   1.900  0.0000  0.0000  0.0000
    1GR    C327  327   2.340   2.824   1.900  0.0000  0.0000  0.0000
    1GR    C328  328   2.481   2.824   1.900  0.0000  0.0000  0.0000
    1GR    C329  329   2.127   2.947   1.900  0.0000  0.0000  0.0000
    1GR    C330  330   2.269   2.947   1.900  0.0000  0.0000  0.0000
    1GR    C331  331   2.340   3.070   1.900  0.0000  0.0000  0.0000
    1GR    C332  332   2.481   3.070   1.900  0.0000  0.0000  0.0000
    1GR    C333  333   2.127   3.193   1.900  0.0000  0.0000  0.0000
    1GR    C334  334   2.269   3.193   1.900  0.0000  0.0000  0.0000
    1GR    C335  335   2.340   3.316   1.900  0.0000  0.0000  0.0000
    1GR    C336  336   2.481   3.316   1.900  0.0000  0.0000  0.0000
    1GR    C337  337   2.552   0.000   1.900  0.0000  0.0000  0.0000
    1GR    C338  338   2.694   0.000   1.900  0.0000  0.0000  0.0000
    1GR    C339  339   2.765   0.123   1.900  0.0000  0.0000  0.0000
    1GR    C340  340   2.907   0.123   1.900  0.0000  0.0000  0.0000
    1GR    C341  341   2.552   0.246   1.900  0.0000  0.0000  0.0000
    1GR    C342  342   2.694   0.246   1.900  0.0000  0.0000  0.0000
    1GR    C343  343   2.765   0.368   1.900  0.0000  0.0000  0.0000
    1GR    C344  344   2.907   0.368   1.900  0.0000  0.0000  0.0000
    1GR    C345  345   2.552   0.491   1.900  0.0000  0.0000  0.0000
    1GR    C346  346   2.694   0.491   1.900  0.0000  0.0000  0.0000
    1GR    C347  347   2.765   0.614   1.900  0.0000  0.0000  0.0000
    1GR    C348  348   2.907   0.614   1.900  0.0000  0.0000  0.0000
    1GR    C349  349   2.552   0.737   1.900  0.0000  0.0000  0.0000
    1GR    C350  350   2.694   0.737   1.900  0.0000  0.0000  0.0000
    1GR    C351  351   2.765   0.860   1.900  0.0000  0.0000  0.0000
    1GR    C352  352   2.907   0.860   1.900  0.0000  0.0000  0.0000
    1GR    C353  353   2.552   0.982   1.900  0.0000  0.0000  0.0000
    1GR    C354  354   2.694   0.982   1.900  0.0000  0.0000  0.0000
    1GR    C355  355   2.765   1.105   1.900  0.0000  0.0000  0.0000
    1GR    C356  356   2.907   1.105   1.900  0.0000  0.0000  0.0000
    1GR    C357  357   2.552   1.228   1.900  0.0000  0.0000  0.0000
    1GR    C358  358   2.694   1.228   1.900  0.0000  0.0000  0.0000
    1GR    C359  359   2.765   1.351   1.900  0.0000  0.0000  0.0000
    1GR    C360  360   2.907   1.351   1.900  0.0000  0.0000  0.0000
    1GR    C361  361   2.552   1.474   1.900  0.0000  0.0000  0.0000
    1GR    C362  362   2.694   1.474   1.900  0.0000  0.0000  0.0000
    1GR    C363  363   2.765   1.596   1.900  0.0000  0.0000  0.0000
    1GR    C364  364   2.907   1.596   1.900  0.0000  0.0000  0.0000
    1GR    C365  365   2.552   1.719   1.900  0.0000  0.0000  0.0000
    1GR    C366  366   2.694   1.719   1.900  0.0000  0.0000  0.0000
    1GR    C367  367   2.765   1.842   1.900  0.0000  0.0000  0.0000
    1GR    C368  368   2.907   1.842   1.900  0.0000  0.0000  0.0000
    1GR    C369  369   2.552   1.965   1.900  0.0000  0.0000  0.0000
    1GR    C370  370   2.694   1.965   1.900  0.0000  0.0000  0.0000
    1GR    C371  371   2.765   2.088   1.900  0.0000  0.0000  0.0000
    1GR    C372  372   2.907   2.088   1.900  0.0000  0.0000  0.0000
    1GR    C373  373   2.552   2.210   1.900  0.0000  0.0000  0.0000
    1GR    C374  374   2.694   2.210   1.900  0.0000  0.0000  0.0000
    1GR    C375  375   2.765   2.333   1.900  0.0000  0.0000  0.0000
    1GR    C376  376   2.907   2.333   1.900  0.0000  0.0000  0.0000
    1GR    C377  377   2.552   2.456   1.900  0.0000  0.0000  0.0000
    1GR    C378  378   2.694   2.456   1.900  0.0000  0.0000  0.0000
    1GR    C379  379   2.765   2.579   1.900  0.0000  0.0000  0.0000
    1GR    C380  380   2.907   2.579   1.900  0.0000  0.0000  0.0000
    1GR    C381  381   2.552   2.702   1.900  0.0000  0.0000  0.0000
    1GR    C382  382   2.694   2.702   1.900  0.0000  0.0000  0.0000
    1GR    C383  383   2.765   2.824   1.900  0.0000  0.0000  0.0000
    1GR    C384  384   2.907   2.824   1.900  0.0000  0.0000  0.0000
    1GR    C385  385   2.552   2.947   1.900  0.0000  0.0000  0.0000
    1GR    C386  386   2.694   2.947   1.900  0.0000  0.0000  0.0000
    1GR    C387  387   2.765   3.070   1.900  0.0000  0.0000  0.0000
    1GR    C388  388   2.907   3.070   1.900  0.0000  0.0000  0.0000
    1GR    C389  389   2.552   3.193   1.900  0.0000  0.0000  0.0000
    1GR    C390  390   2.694   3.193   1.900  0.0000  0.0000  0.0000
    1GR    C391  391   2.765   3.316   1.900  0.0000  0.0000  0.0000
    1GR    C392  392   2.907   3.316   1.900  0.0000  0.0000  0.0000
    1GR    C393  393   2.978   0.000   1.900  0.0000  0.0000  0.0000
    1GR    C394  394   3.120   0.000   1.900  0.0000  0.0000  0.0000
    1GR    C395  395   3.191   0.123   1.900  0.0000  0.0000  0.0000
    1GR    C396  396   3.332   0.123   1.900  0.0000  0.0000  0.0000
    1GR    C397  397   2.978   0.246   1.900  0.0000  0.0000  0.0000
    1GR    C398  398   3.120   0.246   1.900  0.0000  0.0000  0.0000
    1GR    C399  399   3.191   0.368   1.900  0.0000  0.0000  0.0000
    1GR    C400  400   3.332   0.368   1.900  0.0000  0.0000  0.0000
    1GR    C401  401   2.978   0.491   1.900  0.0000  0.0000  0.0000
    1GR    C402  402   3.120   0.491   1.900  0.0000  0.0000  0.0000
    1GR    C403  403   3.191   0.614   1.900  0.0000  0.0000  0.0000
    1GR    C404  404   3.332   0.614   1.900  0.0000  0.0000  0.0000
    1GR    C405  405   2.978   0.737   1.900  0.0000  0.0000  0.0000
    1GR    C406  406   3.120   0.737   1.900  0.0000  0.0000  0.0000
    1GR    C407  407   3.191   0.860   1.900  0.0000  0.0000  0.0000
    1GR    C408  408   3.332   0.860   1.900  0.0000  0.0000  0.0000
    1GR    C409  409   2.978   0.982   1.900  0.0000  0.0000  0.0000
    1GR    C410  410   3.120   0.982   1.900  0.0000  0.0000  0.0000
    1GR    C411  411   3.191   1.105   1.900  0.0000  0.0000  0.0000
    1GR    C412  412   3.332   1.105   1.900  0.0000  0.0000  0.0000
    1GR    C413  413   2.978   1.228   1.900  0.0000  0.0000  0.0000
    1GR    C414  414   3.120   1.228   1.900  0.0000  0.0000  0.0000
    1GR    C415  415   3.191   1.351   1.900  0.0000  0.0000  0.0000
    1GR    C416  416   3.332   1.351   1.900  0.0000  0.0000  0.0000
    1GR    C417  417   2.978   1.474   1.900  0.0000  0.0000  0.0000
    1GR    C418  418   3.120   1.474   1.900  0.0000  0.0000  0.0000
    1GR    C419  419   3.191   1.596   1.900  0.0000  0.0000  0.0000
    1GR    C420  420   3.332   1.596   1.900  0.0000  0.0000  0.0000
    1GR    C421  421   2.978   1.719   1.900  0.0000  0.0000  0.0000
    1GR    C422  422   3.120   1.719   1.900  0.0000  0.0000  0.0000
    1GR    C423  423   3.191   1.842   1.900  0.0000  0.0000  0.0000
    1GR    C424  424   3.332   1.842   1.900  0.0000  0.0000  0.0000
    1GR    C425  425   2.978   1.965   1.900  0.0000  0.0000  0.0000
    1GR    C426  426   3.120   1.965   1.900  0.0000  0.0000  0.0000
    1GR    C427  427   3.191   2.088   1.900  0.0000  0.0000  0.0000
    1GR    C428  428   3.332   2.088   1.900  0.0000  0.0000  0.0000
    1GR    C429  429   2.978   2.210   1.900  0.0000  0.0000  0.0000
    1GR    C430  430   3.120   2.210   1.900  0.0000  0.0000  0.0000
    1GR    C431  431   3.191   2.333   1.900  0.0000  0.0000  0.0000
    1GR    C432  432   3.332   2.333   1.900  0.0000  0.0000  0.0000
    1GR    C433  433   2.978   2.456   1.900  0.0000  0.0000  0.0000
    1GR    C434  434   3.120   2.456   1.900  0.0000  0.0000  0.0000
    1GR    C435  435   3.191   2.579   1.900  0.0000  0.0000  0.0000
    1GR    C436  436   3.332   2.579   1.900  0.0000  0.0000  0.0000
    1GR    C437  437   2.978   2.702   1.900  0.0000  0.0000  0.0000
    1GR    C438  438   3.120   2.702   1.900  0.0000  0.0000  0.0000
    1GR    C439  439   3.191   2.824   1.900  0.0000  0.0000  0.0000
    1GR    C440  440   3.332   2.824   1.900  0.0000  0.0000  0.0000
    1GR    C441  441   2.978   2.947   1.900  0.0000  0.0000  0.0000
    1GR    C442  442   3.120   2.947   1.900  0.0000  0.0000  0.0000
    1GR    C443  443   3.191   3.070   1.900  0.0000  0.0000  0.0000
    1GR    C444  444   3.332   3.070   1.900  0.0000  0.0000  0.0000
    1GR    C445  445   2.978   3.193   1.900  0.0000  0.0000  0.0000
    1GR    C446  446   3.120   3.193   1.900  0.0000  0.0000  0.0000
    1GR    C447  447   3.191   3.316   1.900  0.0000  0.0000  0.0000
    1GR    C448  448   3.332   3.316   1.900  0.0000  0.0000  0.0000
    2PMMA   CX1  449   2.421   0.325   2.802  0.0298  0.3221 -0.4478
    2PMMA   CA2  450   2.572   0.324   2.769  0.1444 -0.1831 -0.0227
    2PMMA   CX3  451   2.598   0.233   2.646  0.0518  0.0227  0.8708
    2PMMA    C4  452   2.601   0.477   2.745 -0.0027  0.1548 -0.4597
    2PMMA    O5  453   2.616   0.555   2.835  0.0563  0.2576 -0.0584
    2PMMA   OS6  454   2.598   0.509   2.615 -0.5204  0.1027  0.3223
    2PMMA   CE7  455   2.623   0.645   2.581  0.2360 -0.3052  1.0232
    2PMMA   CX8  456   2.650   0.270   2.897  0.2637 -0.1732  0.4341
    2PMMA   CA9  457   2.794   0.227   2.886 -0.7387 -0.4684 -0.5666
    2PMMA  CX10  458   2.870   0.355   2.840  0.5360  0.0496 -0.2693
    2PMMA   C11  459   2.826   0.101   2.795  0.4461  0.4126 -0.0125
    2PMMA   O12  460   2.888   0.111   2.691 -0.4347  0.3867  0.4949
    2PMMA  OS13  461   2.778  -0.012   2.846  0.5874  0.3846  0.1329
    2PMMA  CE14  462   2.783  -0.141   2.777 -0.0698 -0.1981 -0.3360
    2PMMA  CX15  463   2.841   0.189   3.027 -0.2498  0.3070  0.4681
    2PMMA  CA16  464   2.992   0.183   3.083  0.1950 -0.0259  0.6800
    2PMMA  CX17  465   3.070   0.084   2.993 -0.5130 -1.1259 -0.4254
    2PMMA   C18  466   3.050   0.323   3.089 -0.0802  0.4277  0.4476
    2PMMA   O19  467   3.146   0.363   3.027 -0.2120 -0.1655 -0.4011
    2PMMA  OS20  468   3.005   0.400   3.191  0.0007  0.2128  0.0994
    2PMMA  CE21  469   3.062   0.534   3.211  0.1505 -0.5732 -0.4465
    2PMMA  CX22  470   2.982   0.112   3.227  0.1849 -0.2342 -0.3507
    2PMMA  CA23  471   3.106   0.097   3.329 -0.0878  0.0505  0.0380
    2PMMA  CX24  472   3.220   0.017   3.259  0.3548 -0.2409  0.3995
    2PMMA   C25  473   3.064  -0.002   3.441 -0.1738 -0.7192 -0.3063
    2PMMA   O26  474   3.055  -0.123   3.424 -0.0484 -0.3021 -0.8241
    2PMMA  OS27  475   3.012   0.053   3.551 -0.4886 -0.2803 -0.6739
    2PMMA  CE28  476   2.946  -0.027   3.653 -0.5338 -0.1754  0.1144
    2PMMA  CX29  477   3.166   0.227   3.384 -0.0360  0.4301 -0.0766
    2PMMA  HC30  478   2.380   0.226   2.828 -0.0849  0.2998 -0.7078
    2PMMA  HC31  479   2.386   0.382   2.889 -0.8374 -1.3288  0.3168
    2PMMA  HC32  480   2.355   0.358   2.721 -0.3795  1.1195  0.2053
    2PMMA  HC33  481   2.522   0.251   2.569  0.1175  0.7050  0.9614
    2PMMA  HC34  482   2.593   0.124   2.656 -2.0230 -0.5190 -4.4256
    2PMMA  HC35  483   2.697   0.250   2.603  0.1851 -1.1239  0.7066
    2PMMA  H136  484   2.704   0.688   2.640  1.0538 -0.1346 -0.2151
    2PMMA  H137  485   2.529   0.701   2.587  0.5851  0.9809 -3.5379
    2PMMA  H138  486   2.642   0.648   2.474 -1.1979 -0.3783  0.7452
    2PMMA  HC39  487   2.642   0.348   2.974 -0.2549  0.7469 -0.5429
    2PMMA  HC40  488   2.598   0.184   2.941  0.3490 -0.3942  0.1030
    2PMMA  HC41  489   2.847   0.383   2.736 -0.5249  1.2604  0.2652
    2PMMA  HC42  490   2.837   0.440   2.902 -0.4323 -0.8414  0.4674
    2PMMA  HC43  491   2.978   0.344   2.839  0.6971  1.5420  0.0445
    2PMMA  H144  492   2.734  -0.216   2.839 -1.7785  0.7124 -0.5732
    2PMMA  H145  493   2.882  -0.188   2.782 -0.6225 -1.2303  1.2742
    2PMMA  H146  494   2.748  -0.138   2.674  1.1184 -1.1573 -0.7866
    2PMMA  HC47  495   2.795   0.256   3.100  2.1147 -0.4666  2.7491
    2PMMA  HC48  496   2.795   0.094   3.054  0.6241 -0.9238 -2.2247
    2PMMA  HC49  497   3.029  -0.018   2.992 -3.2084 -0.1844  2.8147
    2PMMA  HC50  498   3.177   0.085   3.017 -0.2186  1.6847 -1.6474
    2PMMA  HC51  499   3.073   0.135   2.896 -1.4921  1.6550  0.9508
    2PMMA  H152  500   3.070   0.587   3.116  0.5542  0.0447 -0.0712
    2PMMA  H153  501   3.162   0.532   3.254  0.4932  0.8190 -1.1525
    2PMMA  H154  502   2.992   0.585   3.278  0.9448  0.8240 -0.6636
    2PMMA  HC55  503   2.905   0.165   3.284  0.7091 -1.5600  1.6477
    2PMMA  HC56  504   2.940   0.011   3.215 -0.5102 -0.3108  2.4412
    2PMMA  HC57  505   3.273   0.080   3.186 -2.0692  0.3148 -0.9381
    2PMMA  HC58  506   3.300  -0.011   3.328  3.0943  1.7760 -1.8095
    2PMMA  HC59  507   3.181  -0.073   3.211  1.9074 -1.5157  1.4597
    2PMMA  H160  508   3.019  -0.104   3.679  0.8611  1.8339  2.3867
    2PMMA  H161  509   2.859  -0.072   3.607  1.4675 -1.9845 -2.0414
    2PMMA  H162  510   2.919   0.038   3.736  1.4714  0.2710  0.4413
    2PMMA  HC63  511   3.211   0.288   3.306 -0.4757 -0.0239 -0.6899
    2PMMA  HC64  512   3.088   0.290   3.428  0.3012  0.6370  0.2242
    2PMMA  HC65  513   3.233   0.215   3.470  0.4903  2.7691 -0.1220
    3DMF     C1  514   0.047   1.900   0.724  0.4972  0.3094  0.0999
    3DMF     N1  515   0.176   1.966   0.754  0.3562 -0.5369  0.3960
    3DMF     C2  516   0.247   1.909   0.866 -0.6226  0.3172  0.5224
    3DMF     C3  517   0.220   2.071   0.681  0.4795  0.0655 -0.5952
    3DMF     O1  518   0.154   2.113   0.585  0.0631  0.3440 -0.0930
    3DMF     H1  519  -0.036   1.972   0.719  0.2835 -0.0786 -2.4658
    3DMF     H2  520   0.025   1.827   0.803 -1.1249  1.6791  0.9439
    3DMF     H3  521   0.059   1.856   0.624  1.6412  0.6946  0.0562
    3DMF     H4  522   0.191   1.917   0.961  0.5288 -1.8057  1.4219
    3DMF     H5  523   0.345   1.957   0.882  0.8847 -2.1322 -1.1254
    3DMF     H6  524   0.255   1.801   0.849 -0.5487  0.4753 -0.4531
    3DMF     H7  525   0.312   2.114   0.724  0.7825 -1.7732  0.6616
    4DMF     C1  526   0.839   2.162   2.231  0.0584 -0.4641 -0.1289
    4DMF     N1  527   0.837   2.171   2.374 -0.6090  0.8303  0.4337
    4DMF     C2  528   0.707   2.195   2.440  0.0023 -0.2124 -0.1341
    4DMF     C3  529   0.956   2.188   2.451 -0.4730 -0.3288  0.1639
    4DMF     O1  530   1.066   2.203   2.400 -0.2921 -0.3748  0.1146
    4DMF     H1  531   0.740   2.153   2.184  0.0865  1.2552 -0.5441
    4DMF     H2  532   0.891   2.071   2.196 -0.2263  0.0531 -1.9638
    4DMF     H3  533   0.888   2.251   2.189  1.0089 -0.5229  0.8230
    4DMF     H4  534   0.640   2.240   2.365 -1.2245 -1.1944  0.3495
    4DMF     H5  535   0.716   2.257   2.530 -1.2563 -0.4448  0.1705
    4DMF     H6  536   0.656   2.102   2.469 -2.9101  1.6872  1.1061
    4DMF     H7  537   0.945   2.176   2.560 -0.9982 -0.0347  0.1432
    5DMF     C1  538   2.061   1.690   3.584  0.3731  0.0124  0.1013
    5DMF     N1  539   2.020   1.680   3.442 -0.2517 -0.2442  0.0629
    5DMF     C2  540   2.088   1.766   3.343  0.2585  0.5416 -0.6441
    5DMF     C3  541   1.941   1.567   3.403 -0.4207  0.3795 -0.6022
    5DMF     O1  542   1.892   1.484   3.480  0.1591  0.7932  0.7800
    5DMF     H1  543   2.009   1.770   3.640 -1.0443 -1.9028  1.5873
    5DMF     H2  544   2.169   1.707   3.590  0.1060  2.3694 -1.1303
    5DMF     H3  545   2.042   1.596   3.637 -0.2608  0.4723  0.7077
    5DMF     H4  546   2.055   1.870   3.357 -3.5749 -0.9734  2.6659
    5DMF     H5  547   2.043   1.734   3.248 -0.0145  1.0802 -0.6995
    5DMF     H6  548   2.197   1.758   3.346  0.3416  1.3636 -1.2419
    5DMF     H7  549   1.920   1.571   3.295  0.7728 -0.6272 -0.8848
    6DMF     C1  550   1.928   0.210   2.278  0.2887  0.3725 -0.3262
    6DMF     N1  551   1.795   0.266   2.249 -0.2278  0.7282  0.2788
    6DMF     C2  552   1.777   0.409   2.248 -0.1655  0.3750 -1.2406
    6DMF     C3  553   1.693   0.181   2.204 -0.4733 -0.8562 -0.1438
    6DMF     O1  554   1.696   0.058   2.187 -0.2520  0.2962  0.3829
    6DMF     H1  555   1.985   0.260   2.357 -0.9739  0.7034  0.3944
    6DMF     H2  556   1.992   0.211   2.189 -2.1881 -2.3506 -2.2323
    6DMF     H3  557   1.903   0.107   2.306 -0.5577  0.4710 -0.7095
    6DMF     H4  558   1.841   0.452   2.170  1.2339 -1.2640 -1.0212
    6DMF     H5  559   1.789   0.458   2.345 -0.4017 -1.9971  0.0118
    6DMF     H6  560   1.681   0.437   2.202  0.8524  1.5939 -2.6852
    6DMF     H7  561   1.612   0.243   2.161  0.4327 -1.3643 -2.6989
    7DMF     C1  562   1.637   3.067   3.489  0.1157  0.3897  0.1580
    7DMF     N1  563   1.499   3.022   3.469 -0.0021  0.2192  0.8885
    7DMF     C2  564   1.455   2.939   3.354  0.5370 -0.3525  0.4492
    7DMF     C3  565   1.412   3.058   3.571 -0.0839  0.5136  0.3825
    7DMF     O1  566   1.445   3.106   3.672  0.0745  0.0539 -0.2824
    7DMF     H1  567   1.711   3.000   3.443 -1.2789 -0.1089 -1.4341
    7DMF     H2  568   1.661   3.056   3.595  0.8527  3.2506  0.3397
    7DMF     H3  569   1.639   3.171   3.454 -1.1703  0.0015 -1.1351
    7DMF     H4  570   1.402   2.855   3.401  0.6372 -0.2495  0.7480
    7DMF     H5  571   1.541   2.900   3.299  1.0026  0.6382  0.4773
    7DMF     H6  572   1.384   2.987   3.286 -0.7227 -0.2321  1.7970
    7DMF     H7  573   1.307   3.039   3.543  0.2180  0.3116 -0.6341
    8DMF     C1  574   0.471   1.248   2.826 -0.1615 -0.5900  0.0359
    8DMF     N1  575   0.616   1.212   2.858  0.5340 -0.0196  0.1814
    8DMF     C2  576   0.717   1.318   2.828 -1.0023  0.5090  0.2621
    8DMF     C3  577   0.665   1.085   2.874  0.1613  0.0661  0.6174
    8DMF     O1  578   0.596   0.983   2.878 -0.2165  0.7918  0.3760
    8DMF     H1  579   0.400   1.172   2.859 -1.1284  0.4464  0.3662
    8DMF     H2  580   0.460   1.257   2.718  2.1652 -0.4624 -0.2323
    8DMF     H3  581   0.435   1.341   2.871  0.7554 -0.9705  1.6196
    8DMF     H4  582   0.821   1.285   2.842 -1.0229  1.2433  2.3309
    8DMF     H5  583   0.703   1.417   2.874 -2.0158  0.3116  0.3746
    8DMF     H6  584   0.713   1.349   2.723  1.3905  0.7093  0.1829
    8DMF     H7  585   0.775   1.087   2.883 -0.0392  2.8717  2.9504
    9DMF     C1  586   1.402   2.552   2.269 -0.4775  0.3110 -0.6051
    9DMF     N1  587   1.290   2.460   2.241 -0.4842 -0.0325 -0.3967
    9DMF     C2  588   1.317   2.314   2.232 -0.2223 -0.3050  0.1564
    9DMF     C3  589   1.159   2.498   2.285  0.7049 -0.0317 -0.4678
    9DMF     O1  590   1.122   2.614   2.269 -0.4093 -0.1654 -0.2542
    9DMF     H1  591   1.402   2.595   2.370  0.9714 -3.5563  1.1819
    9DMF     H2  592   1.400   2.623   2.186 -0.2362  1.1947  0.1330
    9DMF     H3  593   1.495   2.493   2.264 -0.4437  0.4196 -1.2913
    9DMF     H4  594   1.239   2.260   2.175  0.1467 -0.1988 -0.4495
    9DMF     H5  595   1.333   2.280   2.335 -0.9925 -0.9021  0.0920
    9DMF     H6  596   1.411   2.296   2.178 -1.3592 -2.9760 -1.0567
    9DMF     H7  597   1.097   2.421   2.335 -1.7720  1.4319 -1.2038
   10DMF     C1  598   3.371   2.209   3.760  0.8036 -0.0868 -0.3737
   10DMF     N1  599   3.237   2.257   3.765  0.2076  0.0997 -0.0637
   10DMF     C2  600   3.175   2.272   3.900 -0.1861 -0.2353  0.2900
   10DMF     C3  601   3.150   2.260   3.653 -0.3088  0.3730 -0.1644
   10DMF     O1  602   3.188   2.248   3.536  0.1920 -0.0406  0.6136
   10DMF     H1  603   3.441   2.274   3.706  1.1571  1.0376  1.3720
   10DMF     H2  604   3.378   2.111   3.713 -1.7378  0.4708 -2.0059
   10DMF     H3  605   3.412   2.207   3.862  1.2026  0.6459 -0.5133
   10DMF     H4  606   3.117   2.365   3.904 -0.5690 -0.5430  2.0508
   10DMF     H5  607   3.256   2.273   3.973 -0.8506 -1.2124  1.0532
   10DMF     H6  608   3.118   2.178   3.904  1.5179 -1.2507  1.3209
   10DMF     H7  609   3.044   2.278   3.679  0.1922  1.1222  1.4211
   11DMF     C1  610   0.639   1.842   1.559  0.0946 -0.4994 -0.3842
   11DMF     N1  611   0.726   1.873   1.442  0.2713  0.3623 -0.1881
   11DMF     C2  612   0.658   1.887   1.304 -0.2445  0.4894 -0.0740
   11DMF     C3  613   0.869   1.887   1.447 -0.1397 -0.7296 -0.9513
   11DMF     O1  614   0.927   1.896   1.557 -0.1796  0.3106  0.1132
   11DMF     H1  615   0.616   1.938   1.607 -0.8065  0.1364 -2.0569
   11DMF     H2  616   0.678   1.767   1.628  1.3705  0.1686 -0.3604
   11DMF     H3  617   0.546   1.799   1.519  0.6837  0.0033 -2.3374
   11DMF     H4  618   0.626   1.992   1.297  1.0189  0.8704 -0.3771
   11DMF     H5  619   0.567   1.826   1.300 -0.3881  0.7639 -1.1670
   11DMF     H6  620   0.737   1.857   1.234 -0.2466  0.5627 -0.1080
   11DMF     H7  621   0.919   1.909   1.351  1.0965 -0.7267 -0.3095
   12DMF     C1  622   0.075   3.302   0.573 -0.0359  0.1613 -0.7309
   12DMF     N1  623  -0.003   3.182   0.624 -0.3151 -0.4997  0.0718
   12DMF     C2  624   0.053   3.048   0.619 -0.5657  0.0268  0.7358
   12DMF     C3  625  -0.119   3.198   0.714  0.6032  0.2909  0.2772
   12DMF     O1  626  -0.171   3.303   0.747  0.2431 -0.2501  0.2806
   12DMF     H1  627   0.040   3.338   0.476  1.4841  1.3386 -0.8613
   12DMF     H2  628   0.182   3.279   0.581 -0.2566 -0.9493 -0.8748
   12DMF     H3  629   0.049   3.377   0.648  0.7845 -1.4845  1.2658
   12DMF     H4  630  -0.025   2.971   0.624  0.7145 -1.1977  2.2677
   12DMF     H5  631   0.109   3.037   0.712  3.2594  2.7869 -1.1251
   12DMF     H6  632   0.107   3.047   0.524 -0.3898 -0.4967  0.8414
   12DMF     H7  633  -0.145   3.098   0.755  1.5064 -0.3860 -0.7932
   13DMF     C1  634   2.498   3.098   2.226 -0.3649 -0.2224 -0.3529
   13DMF     N1  635   2.500   3.053   2.373  0.4618 -0.0121  0.0851
   13DMF     C2  636   2.532   3.156   2.482  0.2421  1.1007  0.3843
   13DMF     C3  637   2.464   2.919   2.409  0.0403 -0.3064  0.5078
   13DMF     O1  638   2.439   2.831   2.325  0.0459 -0.5926  0.0190
   13DMF     H1  639   2.405   3.095   2.167 -0.5979  0.8468 -0.0453
   13DMF     H2  640   2.556   3.024   2.169  3.1367 -0.5184  3.4069
   13DMF     H3  641   2.548   3.196   2.220 -2.6695  1.3761  4.3886
   13DMF     H4  642   2.636   3.146   2.514  1.1299  0.0973 -2.5756
   13DMF     H5  643   2.460   3.141   2.563 -1.6419  1.6566 -1.1210
   13DMF     H6  644   2.519   3.258   2.444 -3.6513  0.0613 -1.3448
   13DMF     H7  645   2.450   2.906   2.518  3.0091 -0.9148  0.8782
   14DMF     C1  646   0.460   0.446   3.069 -0.0207  0.1455  0.4464
   14DMF     N1  647   0.485   0.579   3.121 -0.2385 -0.1042 -0.2198
   14DMF     C2  648   0.373   0.649   3.178 -0.3230 -0.1652 -0.2480
   14DMF     C3  649   0.618   0.634   3.117 -0.4578  0.1871  0.1691
   14DMF     O1  650   0.712   0.579   3.070 -0.2506  0.0375  0.6406
   14DMF     H1  651   0.355   0.415   3.073 -0.6823  1.5893 -3.4681
   14DMF     H2  652   0.516   0.374   3.130 -0.3097  1.5622  2.4508
   14DMF     H3  653   0.496   0.441   2.966  0.1916 -2.6965  0.6134
   14DMF     H4  654   0.307   0.690   3.100 -0.3913 -1.8539 -1.0979
   14DMF     H5  655   0.408   0.727   3.247  1.0730 -3.3097  2.7669
   14DMF     H6  656   0.317   0.581   3.242  1.2856 -0.0243  1.3491
   14DMF     H7  657   0.630   0.734   3.165 -0.1330 -0.2999  1.1194
   15DMF     C1  658   3.084   0.525   2.675  0.0992  0.5404  0.2485
   15DMF     N1  659   3.127   0.632   2.587  0.2586  0.9052 -0.3222
   15DMF     C2  660   3.256   0.697   2.615 -0.0885  0.1302 -0.5046
   15DMF     C3  661   3.038   0.704   2.512  0.4194 -0.4006  0.2073
   15DMF     O1  662   2.921   0.677   2.509  0.2511 -0.2604  0.1782
   15DMF     H1  663   2.993   0.558   2.726  1.1306  0.4524  2.2250
   15DMF     H2  664   3.167   0.497   2.741  2.0297  0.6286 -2.0996
   15DMF     H3  665   3.061   0.440   2.610 -1.0021  1.1622 -0.1824
   15DMF     H4  666   3.331   0.626   2.579 -1.0126 -0.0374 -2.1607
   15DMF     H5  667   3.263   0.710   2.724  0.8843 -1.5299 -0.3558
   15DMF     H6  668   3.269   0.792   2.561  0.1218  1.2968  1.5474
   15DMF     H7  669   3.087   0.786   2.456  0.5140  0.3934  1.4424
   16DMF     C1  670   2.847   2.791   3.633  0.0440  0.3782  0.2477
   16DMF     N1  671   2.851   2.694   3.739 -0.1896  0.0321  0.4929
   16DMF     C2  672   2.979   2.676   3.814  0.3385 -0.5075 -0.7169
   16DMF     C3  673   2.730   2.633   3.788  0.2536 -0.6179 -0.1820
   16DMF     O1  674   2.617   2.648   3.741 -0.1409 -0.1106 -0.4719
   16DMF     H1  675   2.932   2.772   3.566 -0.5149  2.2589 -1.0202
   16DMF     H2  676   2.848   2.893   3.671 -1.5002  0.6891 -0.5080
   16DMF     H3  677   2.763   2.787   3.563  0.3557 -1.8882 -0.0507
   16DMF     H4  678   3.057   2.683   3.737  0.2334  0.8674 -0.7118
   16DMF     H5  679   2.989   2.579   3.864  0.3124  0.5799  1.4535
   16DMF     H6  680   2.998   2.756   3.886  1.0024  0.9909 -2.5159
   16DMF     H7  681   2.746   2.576   3.881 -0.3096 -0.6663 -0.1104
   17DMF     C1  682   1.772   0.505   0.074 -0.2435  0.4480 -0.6599
   17DMF     N1  683   1.903   0.467   0.024  0.9132 -0.0894  0.3100
   17DMF     C2  684   2.030   0.523   0.072  0.4807 -0.5553 -0.4301
   17DMF     C3  685   1.905   0.382  -0.089 -1.2236 -0.8185  0.8233
   17DMF     O1  686   1.802   0.359  -0.147  0.0054  0.1962  0.5773
   17DMF     H1  687   1.771   0.536   0.180  0.0817 -1.1540 -0.1735
   17DMF     H2  688   1.706   0.418   0.075  0.9635 -0.4765 -0.3268
   17DMF     H3  689   1.727   0.587   0.017  1.4972  2.4909  0.7871
   17DMF     H4  690   2.095   0.543  -0.014  0.1364 -0.5069 -0.6798
   17DMF     H5  691   2.077   0.437   0.121  0.5723 -1.1016 -1.4761
   17DMF     H6  692   2.015   0.600   0.149 -1.3058 -1.8271  0.5088
   17DMF     H7  693   2.003   0.341  -0.120 -1.6711 -0.0795 -1.6409
   18DMF     C1  694   0.235   0.166   1.136 -0.1378  0.3881  0.3063
   18DMF     N1  695   0.238   0.306   1.152  0.6092 -0.1533 -0.2428
   18DMF     C2  696   0.229   0.390   1.035 -0.4619  0.2692 -0.2445
   18DMF     C3  697   0.218   0.359   1.281  0.5588 -0.4206  0.2757
   18DMF     O1  698   0.239   0.285   1.381 -0.7224 -0.0681  0.4000
   18DMF     H1  699   0.337   0.126   1.137 -1.2075 -2.4128 -0.1393
   18DMF     H2  700   0.197   0.139   1.037 -0.2632  3.1583 -0.4583
   18DMF     H3  701   0.189   0.111   1.219  0.7720  1.1264  1.3144
   18DMF     H4  702   0.263   0.331   0.949 -1.0528  0.9970 -0.9828
   18DMF     H5  703   0.286   0.482   1.053 -0.2762  0.2575 -0.7670
   18DMF     H6  704   0.127   0.426   1.017 -0.3565 -0.7261 -3.0779
   18DMF     H7  705   0.210   0.469   1.280  0.8875 -0.3791  1.4761
   19DMF     C1  706   0.889   1.017   1.519  0.0397  0.1167  0.0455
   19DMF     N1  707   1.013   0.940   1.548  0.0008 -0.6326  0.1936
   19DMF     C2  708   1.147   1.014   1.550  0.2428 -0.8793  0.1445
   19DMF     C3  709   1.013   0.806   1.559  0.2958 -0.6458 -0.6518
   19DMF     O1  710   0.915   0.737   1.555  0.7747  0.1463 -0.0644
   19DMF     H1  711   0.855   0.996   1.416  3.3739  1.6874 -1.4637
   19DMF     H2  712   0.915   1.122   1.539 -1.3326  0.2004  1.3827
   19DMF     H3  713   0.810   0.997   1.591 -0.6078  2.6567  0.0815
   19DMF     H4  714   1.180   1.022   1.445 -2.0749 -0.4890 -0.5900
   19DMF     H5  715   1.216   0.947   1.603 -1.1463 -2.0977  0.4397
   19DMF     H6  716   1.143   1.115   1.592 -2.4877 -1.5740  1.6846
   19DMF     H7  717   1.112   0.768   1.588  1.6349  2.7187 -0.6182
   20DMF     C1  718   2.922   2.736   0.745 -0.5492 -0.8027 -0.4708
   20DMF     N1  719   2.804   2.795   0.803 -0.4410 -0.3761  0.1509
   20DMF     C2  720   2.768   2.757   0.943  0.3892  0.5804 -0.4951
   20DMF     C3  721   2.721   2.884   0.739 -0.2326  0.0040 -0.5198
   20DMF     O1  722   2.751   2.938   0.632 -0.1394 -0.1041 -0.4099
   20DMF     H1  723   2.947   2.636   0.783  2.1914 -0.5783 -1.5531
   20DMF     H2  724   3.009   2.799   0.768 -0.1220 -1.2743 -0.7879
   20DMF     H3  725   2.917   2.729   0.636  0.9552  1.0038 -0.6802
   20DMF     H4  726   2.752   2.649   0.934 -0.4257  0.7032 -0.5265
   20DMF     H5  727   2.679   2.811   0.978  1.2287  0.6915  1.5240
   20DMF     H6  728   2.854   2.776   1.009  0.5341 -0.9004 -0.2444
   20DMF     H7  729   2.634   2.917   0.798  0.2894 -1.4898  1.1275
   21DMF     C1  730   1.553   1.263   3.383 -0.4695  0.6525  0.5048
   21DMF     N1  731   1.648   1.229   3.501  0.3180  0.0851 -0.0841
   21DMF     C2  732   1.620   1.287   3.637  0.1252  0.1837  0.1204
   21DMF     C3  733   1.755   1.138   3.495  0.2611  0.2185 -0.3327
   21DMF     O1  734   1.790   1.067   3.399  0.3384  0.7242 -0.1824
   21DMF     H1  735   1.588   1.218   3.289 -3.6739 -2.5140  0.6922
   21DMF     H2  736   1.543   1.371   3.368  2.7680  0.7006 -1.7723
   21DMF     H3  737   1.457   1.209   3.393 -0.7539  1.1232  0.3419
   21DMF     H4  738   1.686   1.373   3.652  0.9231 -0.8724  2.9883
   21DMF     H5  739   1.623   1.223   3.726 -2.5242  0.0467  0.1422
   21DMF     H6  740   1.517   1.323   3.635 -0.3050 -0.4709  4.9436
   21DMF     H7  741   1.803   1.137   3.594 -1.0835  1.1800  0.3556
   22DMF     C1  742   2.797   3.187   1.473  0.4636  0.4418  0.3774
   22DMF     N1  743   2.774   3.307   1.544  0.0439  0.1163  0.6223
   22DMF     C2  744   2.636   3.344   1.578 -0.1629  0.1981  0.0148
   22DMF     C3  745   2.886   3.397   1.572 -0.3693  0.0989  0.4572
   22DMF     O1  746   2.997   3.373   1.529  0.2605 -0.0978 -0.4249
   22DMF     H1  747   2.818   3.212   1.368 -0.4332 -2.8778 -0.6329
   22DMF     H2  748   2.709   3.122   1.475  0.3965  0.5442  0.6832
   22DMF     H3  749   2.885   3.137   1.514  1.4330  1.0975 -0.8559
   22DMF     H4  750   2.624   3.453   1.582  1.2047  0.4215 -1.5292
   22DMF     H5  751   2.602   3.294   1.670 -0.9533  0.1574 -0.3020
   22DMF     H6  752   2.565   3.303   1.506  2.8862 -1.0529 -2.3805
   22DMF     H7  753   2.857   3.482   1.637 -0.2327 -1.3629  2.4871
   23DMF     C1  754   0.958   3.252   0.749  0.1808  0.0791 -0.6293
   23DMF     N1  755   0.965   3.387   0.679  0.1280 -0.0772  0.5810
   23DMF     C2  756   0.865   3.414   0.566  0.1188 -0.1216  0.0675
   23DMF     C3  757   1.041   3.492   0.721  0.0191  0.3209  0.2465
   23DMF     O1  758   1.129   3.487   0.806  0.0487  0.7492 -0.0586
   23DMF     H1  759   0.934   3.172   0.678 -1.9759  0.6745 -0.6142
   23DMF     H2  760   0.900   3.243   0.842  0.9734 -0.3147 -0.1645
   23DMF     H3  761   1.059   3.232   0.786  1.0868  2.9215 -1.4588
   23DMF     H4  762   0.870   3.321   0.509  0.1716  0.3064 -0.6274
   23DMF     H5  763   0.895   3.505   0.512  0.8179  0.8808  2.0863
   23DMF     H6  764   0.764   3.427   0.607 -0.5595 -1.8317 -1.0376
   23DMF     H7  765   1.020   3.580   0.658  1.0239  0.2862 -0.1490
   24DMF     C1  766   0.488   1.787   2.516 -0.8957  0.0523 -0.3560
   24DMF     N1  767   0.422   1.663   2.567  0.2433  0.2359  0.7904
   24DMF     C2  768   0.506   1.574   2.641  0.4076  0.2455  0.3274
   24DMF     C3  769   0.275   1.647   2.561 -0.0126 -0.8617  0.2834
   24DMF     O1  770   0.194   1.726   2.509  0.0009  0.4642  0.6430
   24DMF     H1  771   0.545   1.839   2.594  0.8121 -0.0482 -1.4891
   24DMF     H2  772   0.408   1.848   2.473 -0.7581  0.0562 -0.6079
   24DMF     H3  773   0.559   1.764   2.435 -0.1412 -0.6154  0.4842
   24DMF     H4  774   0.448   1.495   2.690 -0.2994  1.3069  1.2455
   24DMF     H5  775   0.586   1.623   2.699  2.0482 -2.3088  0.3191
   24DMF     H6  776   0.556   1.518   2.561 -0.9278  0.5586 -0.7385
   24DMF     H7  777   0.240   1.557   2.614  1.4810 -0.6841  1.5832
   25DMF     C1  778   1.611   2.543   0.303  0.7344  0.0480 -0.1010
   25DMF     N1  779   1.661   2.424   0.226 -0.5347 -0.2999 -0.2260
   25DMF     C2  780   1.665   2.434   0.079  0.0200 -0.0139  0.1801
   25DMF     C3  781   1.705   2.306   0.281  0.2678 -0.6155 -0.8359
   25DMF     O1  782   1.679   2.291   0.399  0.4352  0.1535  0.1597
   25DMF     H1  783   1.505   2.528   0.326  0.9940 -0.4322  0.8033
   25DMF     H2  784   1.608   2.635   0.244  0.4175 -1.1509 -1.9872
   25DMF     H3  785   1.679   2.558   0.388  1.4022  1.5729 -0.8751
   25DMF     H4  786   1.679   2.541   0.057  0.3804  0.0611  0.7537
   25DMF     H5  787   1.571   2.406   0.030 -2.1228  2.6902  2.4925
   25DMF     H6  788   1.740   2.372   0.029 -0.3531 -0.1260 -0.2429
   25DMF     H7  789   1.751   2.230   0.215  3.5240 -0.1936  0.8512
   26DMF     C1  790   1.752   0.568   1.338  0.0173 -0.4119  0.3602
   26DMF     N1  791   1.706   0.523   1.470 -0.1756 -0.4638  0.0611
   26DMF     C2  792   1.634   0.614   1.553 -0.1906  0.1415 -0.1601
   26DMF     C3  793   1.745   0.397   1.517 -0.8039  0.3019 -0.0594
   26DMF     O1  794   1.787   0.309   1.441  0.1976  0.7857 -0.1573
   26DMF     H1  795   1.846   0.514   1.319  0.6053 -0.2054  2.5452
   26DMF     H2  796   1.765   0.677   1.345  0.7885 -0.4900  0.2757
   26DMF     H3  797   1.678   0.541   1.262  1.9433 -1.2202 -1.2871
   26DMF     H4  798   1.581   0.689   1.493 -0.9406 -0.5984 -0.4222
   26DMF     H5  799   1.701   0.662   1.625  0.3091  0.5370 -0.8845
   26DMF     H6  800   1.558   0.558   1.609 -0.5599 -0.1661 -0.9547
   26DMF     H7  801   1.721   0.380   1.624  0.2218 -0.2272  0.0977
   27DMF     C1  802   2.335   0.092   0.549 -0.7810 -0.5364 -0.0712
   27DMF     N1  803   2.247   0.206   0.589  0.2866 -1.0317 -0.6687
   27DMF     C2  804   2.184   0.213   0.724 -0.0502  0.7410  0.2297
   27DMF     C3  805   2.229   0.309   0.499  0.3234 -0.0275  0.6663
   27DMF     O1  806   2.268   0.306   0.382  0.0992  0.9841 -0.5770
   27DMF     H1  807   2.278   0.024   0.484  1.4495 -0.9159 -1.6934
   27DMF     H2  808   2.367   0.031   0.634 -0.9467 -0.4154  0.0785
   27DMF     H3  809   2.424   0.136   0.503 -1.2915  0.9827  0.3726
   27DMF     H4  810   2.188   0.117   0.776 -0.0096  0.5880 -0.0577
   27DMF     H5  811   2.080   0.244   0.709  0.3495  0.9592 -2.4182
   27DMF     H6  812   2.230   0.292   0.785 -0.3547  0.3345  0.9855
   27DMF     H7  813   2.166   0.395   0.527  1.2783  0.9883 -0.2419
   28DMF     C1  814   1.024   0.978   0.037  0.0518  0.4519 -0.3466
   28DMF     N1  815   1.040   0.858   0.128 -0.0687 -0.5767 -0.3547
   28DMF     C2  816   0.919   0.795   0.183 -0.4022 -0.2246  0.2470
   28DMF     C3  817   1.166   0.822   0.170  0.2280 -0.4786  0.6879
   28DMF     O1  818   1.264   0.873   0.121 -0.0735  0.5598 -0.7237
   28DMF     H1  819   1.072   0.958  -0.059  2.4039 -1.9608  1.2653
   28DMF     H2  820   1.062   1.065   0.093 -0.8605 -0.1432  1.2330
   28DMF     H3  821   0.917   0.986   0.015 -0.4286 -0.0697  1.6928
   28DMF     H4  822   0.940   0.762   0.285 -0.2060 -0.0268  0.2716
   28DMF     H5  823   0.899   0.718   0.108 -0.7405  0.7495 -0.6816
   28DMF     H6  824   0.825   0.851   0.177 -1.0035 -1.1936  0.4913
   28DMF     H7  825   1.165   0.736   0.238 -2.2359 -1.0992 -0.0603
   29DMF     C1  826   2.013   0.486   1.019  0.2232  0.3085  0.2650
   29DMF     N1  827   1.950   0.392   1.106  0.4996  0.2802 -0.3149
   29DMF     C2  828   1.824   0.329   1.069 -0.3634  0.3921 -0.0207
   29DMF     C3  829   2.021   0.338   1.214  0.5454  0.5111 -0.3263
   29DMF     O1  830   2.133   0.374   1.249  0.1525  0.2207  0.0881
   29DMF     H1  831   1.933   0.522   0.952 -2.0637 -2.8168  1.2096
   29DMF     H2  832   2.082   0.433   0.953 -2.1498  0.1957 -2.2464
   29DMF     H3  833   2.047   0.571   1.079  1.3373 -0.3305  0.5384
   29DMF     H4  834   1.791   0.361   0.970 -0.9729  1.9480  0.6603
   29DMF     H5  835   1.749   0.346   1.148  0.8418  1.7674  0.8515
   29DMF     H6  836   1.842   0.222   1.055  2.2495  1.0758 -2.4003
   29DMF     H7  837   1.974   0.260   1.277  2.1100 -0.4392 -0.3105
   30DMF     C1  838   3.106   0.318   0.075 -0.6598 -0.0347  0.5680
   30DMF     N1  839   2.974   0.387   0.060 -0.6905 -0.5809  0.1729
   30DMF     C2  840   2.896   0.356  -0.061  0.3563  0.2747 -0.2959
   30DMF     C3  841   2.921   0.471   0.164 -0.2314 -0.7024 -1.3506
   30DMF     O1  842   2.986   0.491   0.264 -0.3544 -0.3721 -0.0666
   30DMF     H1  843   3.173   0.384   0.132 -0.4927  0.5939 -0.3404
   30DMF     H2  844   3.145   0.307  -0.027 -0.7634 -1.5221  0.6761
   30DMF     H3  845   3.089   0.216   0.112  0.6437 -0.3137  0.4003
   30DMF     H4  846   2.836   0.446  -0.080  0.7550  0.5217 -0.3940
   30DMF     H5  847   2.833   0.268  -0.044 -0.1217  1.0529  2.1238
   30DMF     H6  848   2.967   0.353  -0.145 -0.0031  3.6937 -0.7751
   30DMF     H7  849   2.823   0.519   0.146 -1.1791 -1.6836  1.0980
   31DMF     C1  850   1.366   2.058   0.367  1.0058 -0.2107  0.0009
   31DMF     N1  851   1.298   2.170   0.301  0.2794  0.1248  0.0190
   31DMF     C2  852   1.377   2.269   0.225 -0.0320  0.2660 -0.6299
   31DMF     C3  853   1.161   2.190   0.330 -0.0619 -0.5472  0.0597
   31DMF     O1  854   1.093   2.124   0.407  0.4275 -0.5141 -0.1235
   31DMF     H1  855   1.435   2.086   0.447  0.6089 -0.5638  0.4668
   31DMF     H2  856   1.422   2.010   0.286  2.6682  0.3024  0.8400
   31DMF     H3  857   1.298   1.986   0.413  0.7086 -0.0502 -0.1837
   31DMF     H4  858   1.318   2.280   0.133 -1.4486 -1.6327 -0.0080
   31DMF     H5  859   1.479   2.230   0.214 -0.0061  0.3182 -0.5688
   31DMF     H6  860   1.374   2.360   0.285  0.3932 -0.2412  0.1732
   31DMF     H7  861   1.123   2.284   0.286  1.0062  0.3229  0.9615
   32DMF     C1  862   2.364   1.462   3.346 -0.1409 -0.2685 -0.1225
   32DMF     N1  863   2.404   1.597   3.291  0.1340 -0.6375  0.4092
   32DMF     C2  864   2.361   1.637   3.151  0.6470  0.0058  0.0145
   32DMF     C3  865   2.512   1.673   3.352  0.5068 -0.1531  0.5545
   32DMF     O1  866   2.556   1.650   3.464  0.2778 -0.0111 -0.3789
   32DMF     H1  867   2.314   1.412   3.263 -1.8695  0.3981  0.4931
   32DMF     H2  868   2.314   1.464   3.443 -1.1461 -1.4246 -0.6145
   32DMF     H3  869   2.462   1.413   3.355 -0.2160 -0.1044  1.8621
   32DMF     H4  870   2.308   1.733   3.144  0.8884  0.0931 -0.6085
   32DMF     H5  871   2.298   1.559   3.108 -0.0157 -0.3931  1.6664
   32DMF     H6  872   2.451   1.641   3.088 -0.0057 -0.2159 -0.9414
   32DMF     H7  873   2.552   1.752   3.287  0.2681 -0.9981 -0.6382
   33DMF     C1  874   0.938   0.310   3.647  0.1517 -0.5818 -0.0129
   33DMF     N1  875   0.829   0.226   3.709 -0.2653  0.0187 -0.3411
   33DMF     C2  876   0.824   0.080   3.684  0.0096  0.1405 -0.2043
   33DMF     C3  877   0.712   0.286   3.752  0.2264  0.0520 -0.6036
   33DMF     O1  878   0.694   0.403   3.779 -0.2655  0.2722  0.0505
   33DMF     H1  879   0.987   0.366   3.728 -1.6634  1.6127 -0.3784
   33DMF     H2  880   0.888   0.379   3.577 -0.3806 -1.9161 -0.9549
   33DMF     H3  881   1.006   0.242   3.596 -1.5697 -1.1285 -1.6280
   33DMF     H4  882   0.875   0.027   3.766  1.4685 -0.4088 -1.4466
   33DMF     H5  883   0.888   0.069   3.596 -0.1137  4.4626 -0.9421
   33DMF     H6  884   0.722   0.046   3.663  0.0778  1.3712 -2.5969
   33DMF     H7  885   0.632   0.211   3.755 -0.3933  0.7446  0.1875
   34DMF     C1  886   1.425   1.416   1.427  0.0775  0.1559 -0.7335
   34DMF     N1  887   1.410   1.406   1.274  0.6087 -0.3114  0.6271
   34DMF     C2  888   1.435   1.527   1.193 -0.4289  0.3922 -0.0861
   34DMF     C3  889   1.369   1.292   1.207  0.2910  0.0831  0.2658
   34DMF     O1  890   1.355   1.178   1.258 -0.0002  0.2546 -0.1889
   34DMF     H1  891   1.515   1.362   1.459 -0.6842 -0.6849  0.0215
   34DMF     H2  892   1.342   1.358   1.471  0.0476 -1.0781 -2.3369
   34DMF     H3  893   1.437   1.519   1.460 -0.3834 -0.4177  1.2805
   34DMF     H4  894   1.544   1.531   1.191 -0.4560  1.1523  0.0076
   34DMF     H5  895   1.407   1.621   1.243  0.0553  0.1779  0.5992
   34DMF     H6  896   1.401   1.525   1.089 -1.1713  2.8793  0.0605
   34DMF     H7  897   1.367   1.304   1.097 -0.8981 -0.2342  0.2542
   35DMF     C1  898   1.614   2.598   0.947 -0.5395 -0.5328 -0.0036
   35DMF     N1  899   1.691   2.472   0.974  0.5766 -0.9757 -0.2356
   35DMF     C2  900   1.615   2.375   1.057  0.2510  0.3151 -0.0581
   35DMF     C3  901   1.799   2.431   0.891  0.3491  0.9253 -0.2792
   35DMF     O1  902   1.820   2.480   0.781  0.3171 -0.3304 -0.1615
   35DMF     H1  903   1.589   2.616   0.841  2.2076  0.5989 -0.4902
   35DMF     H2  904   1.660   2.688   0.991 -3.3212  1.0580 -0.1709
   35DMF     H3  905   1.516   2.593   0.996 -0.1834  0.2301  0.8086
   35DMF     H4  906   1.668   2.282   1.082 -0.0751 -0.1869 -1.2343
   35DMF     H5  907   1.516   2.360   1.014 -0.1028 -1.6968  1.3839
   35DMF     H6  908   1.592   2.420   1.155  1.8520  3.1614 -0.9317
   35DMF     H7  909   1.845   2.338   0.929  1.0816  1.0437 -0.8636
   36DMF     C1  910   2.972   0.790   0.612 -0.3271  0.1730  0.2452
   36DMF     N1  911   2.854   0.835   0.542  0.4107 -0.4410  0.2669
   36DMF     C2  912   2.780   0.732   0.465  0.0978  0.0979  0.2670
   36DMF     C3  913   2.828   0.972   0.528 -0.0316 -0.0833  0.0283
   36DMF     O1  914   2.885   1.061   0.590 -0.2957 -0.1854 -0.0428
   36DMF     H1  915   3.054   0.859   0.585 -0.4667  0.2136 -0.0745
   36DMF     H2  916   3.007   0.693   0.575 -0.8066  0.2945 -0.5324
   36DMF     H3  917   2.945   0.810   0.717  1.8982 -1.0223  1.0781
   36DMF     H4  918   2.830   0.716   0.369  0.3904  2.3646  0.0087
   36DMF     H5  919   2.682   0.768   0.431  1.2301  1.4055 -1.7099
   36DMF     H6  920   2.770   0.640   0.525 -1.9373  1.0325  1.4145
   36DMF     H7  921   2.753   0.993   0.449 -1.3373 -0.0464  1.2656
   37DMF     C1  922   0.503   0.086   3.026  0.2882 -0.3879 -0.3829
   37DMF     N1  923   0.581   0.153   2.920 -0.1439 -0.3016  0.3103
   37DMF     C2  924   0.504   0.189   2.793 -0.5103 -0.0363  0.7139
   37DMF     C3  925   0.695   0.230   2.949 -0.6033  0.6350  0.6250
   37DMF     O1  926   0.755   0.215   3.052 -0.2788  0.7677 -0.1269
   37DMF     H1  927   0.490   0.162   3.104 -2.6535 -1.2041  0.0015
   37DMF     H2  928   0.565   0.004   3.064 -0.4137 -0.5141  0.5117
   37DMF     H3  929   0.405   0.042   3.002  0.8499 -1.1243 -1.3648
   37DMF     H4  930   0.567   0.252   2.729  0.4963 -1.3811  0.3638
   37DMF     H5  931   0.407   0.238   2.814 -0.9555 -1.1380  1.2691
   37DMF     H6  932   0.479   0.096   2.741  0.8333  0.9380 -1.7549
   37DMF     H7  933   0.721   0.296   2.863 -1.4713  1.8391  1.2711
   38DMF     C1  934   2.040   3.273   1.502  0.1831 -0.2606 -0.9359
   38DMF     N1  935   2.067   3.411   1.525 -0.4743  0.2589 -0.0153
   38DMF     C2  936   1.948   3.495   1.535  0.1480 -0.6345 -0.2228
   38DMF     C3  937   2.191   3.454   1.575  0.2447 -0.1895  0.9209
   38DMF     O1  938   2.295   3.385   1.585 -0.6972  0.3157  0.0400
   38DMF     H1  939   1.955   3.235   1.560  0.5741 -0.9818 -0.8263
   38DMF     H2  940   2.130   3.210   1.510 -0.5862 -1.3805 -1.0678
   38DMF     H3  941   2.011   3.275   1.396 -1.8444  0.6210 -0.3944
   38DMF     H4  942   1.886   3.484   1.445  1.3433  0.5949 -1.2192
   38DMF     H5  943   1.989   3.597   1.543 -0.8846 -0.3784  2.3209
   38DMF     H6  944   1.898   3.465   1.628 -0.0191  0.0910 -0.0775
   38DMF     H7  945   2.186   3.561   1.602 -1.2170 -0.1563  0.5520
   39DMF     C1  946   2.583   0.153   3.455  0.2494 -0.4759  0.2410
   39DMF     N1  947   2.579   0.287   3.390 -0.4038  0.1107  0.0315
   39DMF     C2  948   2.479   0.303   3.287 -0.0864  0.3948  0.0976
   39DMF     C3  949   2.683   0.379   3.398  0.4190  0.0009 -1.2127
   39DMF     O1  950   2.772   0.359   3.475  0.3224 -0.1409  0.7324
   39DMF     H1  951   2.686   0.124   3.479  0.1213 -1.4654 -0.3867
   39DMF     H2  952   2.538   0.068   3.402  1.9006 -1.6269  0.6670
   39DMF     H3  953   2.540   0.162   3.555  0.4530  1.6904  0.1711
   39DMF     H4  954   2.433   0.204   3.283 -0.4141  0.5425  0.2306
   39DMF     H5  955   2.524   0.313   3.187 -0.5879  1.1514 -0.0581
   39DMF     H6  956   2.404   0.380   3.309 -1.9604 -0.9857 -1.3187
   39DMF     H7  957   2.677   0.456   3.319  1.7298  1.4165  0.0271
   40DMF     C1  958   2.952   1.343   3.492  0.0077  0.0102 -0.5347
   40DMF     N1  959   2.816   1.275   3.497 -0.6089  0.2558  0.8746
   40DMF     C2  960   2.696   1.364   3.494 -0.4707  0.1167 -0.0420
   40DMF     C3  961   2.795   1.142   3.454 -0.6768  0.7091 -0.0990
   40DMF     O1  962   2.883   1.071   3.416 -0.0114 -0.6604 -0.0536
   40DMF     H1  963   3.031   1.303   3.557 -1.5355 -0.2548  1.2351
   40DMF     H2  964   2.934   1.444   3.530 -0.8031  0.2249 -1.4785
   40DMF     H3  965   2.990   1.344   3.390  1.1657  1.2125 -0.1020
   40DMF     H4  966   2.700   1.396   3.389 -2.5577  1.9641  0.4148
   40DMF     H5  967   2.713   1.455   3.552  2.8966 -1.1819  1.1325
   40DMF     H6  968   2.600   1.318   3.520  0.2915 -1.0119  0.8455
   40DMF     H7  969   2.690   1.107   3.455 -0.4122 -0.0849  0.9761
   41DMF     C1  970   0.167   0.147   3.209 -0.6433  0.2491  0.4664
   41DMF     N1  971   0.117   0.264   3.128  0.1757  0.3025 -0.0006
   41DMF     C2  972   0.090   0.389   3.203 -0.0937  0.0600  0.1697
   41DMF     C3  973   0.092   0.253   2.988  1.0464  0.0053  0.0412
   41DMF     O1  974   0.110   0.151   2.931 -0.5589  0.3243  0.0089
   41DMF     H1  975   0.172   0.052   3.155 -1.0993 -0.2288  1.2546
   41DMF     H2  976   0.099   0.142   3.295 -1.8088 -2.0370 -0.5563
   41DMF     H3  977   0.266   0.165   3.252 -1.2278 -1.6741  2.7029
   41DMF     H4  978   0.037   0.452   3.131  2.0652  0.7438 -0.8520
   41DMF     H5  979   0.182   0.443   3.226  0.6102  0.4705 -3.2976
   41DMF     H6  980   0.025   0.384   3.291  1.0427  0.9886  1.0629
   41DMF     H7  981   0.071   0.349   2.937  1.0956  0.2887  0.5460
   42DMF     C1  982   3.264   2.171   2.951 -0.2615  0.1910  0.3917
   42DMF     N1  983   3.253   2.052   3.030 -0.3257  0.4962 -0.7875
   42DMF     C2  984   3.206   2.063   3.173 -0.5311  0.0532  0.2377
   42DMF     C3  985   3.290   1.923   2.982  0.1475  0.3019  0.3031
   42DMF     O1  986   3.328   1.899   2.871 -0.2472  0.5816  0.4947
   42DMF     H1  987   3.327   2.248   2.998  0.6514  0.6481 -1.5103
   42DMF     H2  988   3.165   2.218   2.946  0.0152  0.8526  0.9612
   42DMF     H3  989   3.308   2.149   2.853  0.1168 -0.5888  0.7358
   42DMF     H4  990   3.182   1.965   3.214 -1.4719  0.6027  1.0420
   42DMF     H5  991   3.113   2.122   3.173 -1.2385 -1.0580 -0.0503
   42DMF     H6  992   3.268   2.116   3.246 -0.6133  1.5307 -0.7306
   42DMF     H7  993   3.290   1.847   3.063  0.0962 -1.1767 -1.0526
   43DMF     C1  994   2.736   2.396   3.528 -0.1930  0.0556  0.1342
   43DMF     N1  995   2.851   2.367   3.436 -0.0295  0.2354 -0.3875
   43DMF     C2  996   2.923   2.485   3.380  0.0012 -0.0364  0.3799
   43DMF     C3  997   2.915   2.240   3.426 -0.1783 -0.5664  0.4942
   43DMF     O1  998   2.879   2.138   3.481 -0.1168 -0.3569 -0.4009
   43DMF     H1  999   2.712   2.500   3.506  1.4516  0.5273  0.5016
   43DMF     H2 1000   2.763   2.396   3.634  1.7338  1.6631 -0.3319
   43DMF     H3 1001   2.655   2.325   3.507  0.6665 -1.1487  0.8499
   43DMF     H4 1002   2.944   2.468   3.274  0.0317 -1.6274  0.6283
   43DMF     H5 1003   3.018   2.499   3.432 -0.0125  0.3436  0.3035
   43DMF     H6 1004   2.872   2.583   3.384 -1.3287 -0.7008  0.0913
   43DMF     H7 1005   3.006   2.243   3.363  1.6357  1.9169  3.1122
   44DMF     C1 1006   0.878   0.933   3.375 -0.3918  0.5811 -0.0123
   44DMF     N1 1007   0.951   0.839   3.458 -0.2381 -0.2576 -0.2038
   44DMF     C2 1008   0.879   0.752   3.550  0.3652  0.1737 -0.2290
   44DMF     C3 1009   1.087   0.808   3.426  0.1655  0.2826 -0.4180
   44DMF     O1 1010   1.146   0.873   3.346 -0.1098 -0.0011 -0.5854
   44DMF     H1 1011   0.775   0.901   3.354 -1.1241  2.1006  1.1682
   44DMF     H2 1012   0.925   0.945   3.277  2.2459 -4.3035  0.4810
   44DMF     H3 1013   0.889   1.031   3.424  2.7817  0.0482  0.4587
   44DMF     H4 1014   0.944   0.745   3.638 -0.3290  0.0168  0.2732
   44DMF     H5 1015   0.871   0.657   3.496 -0.8472  0.2568 -0.2069
   44DMF     H6 1016   0.774   0.777   3.568  0.9578  1.3903  1.6197
   44DMF     H7 1017   1.127   0.734   3.498  0.1368 -1.8210 -2.5140
   45DMF     C1 1018   1.864   0.680   3.092  0.4169  0.5663  0.1984
   45DMF     N1 1019   1.891   0.703   3.234  0.7061 -0.7662  0.2338
   45DMF     C2 1020   1.813   0.802   3.313 -0.2174  0.0204 -0.2533
   45DMF     C3 1021   2.004   0.637   3.292 -0.3899  0.0632  0.2032
   45DMF     O1 1022   2.079   0.560   3.234  0.2850  0.2412  0.2154
   45DMF     H1 1023   1.920   0.749   3.027 -0.0109 -0.5435 -1.3846
   45DMF     H2 1024   1.760   0.715   3.086 -0.3777 -1.3751  2.2409
   45DMF     H3 1025   1.880   0.577   3.058  0.8044  1.3854 -2.2361
   45DMF     H4 1026   1.875   0.831   3.399 -0.5483  3.3408 -1.0914
   45DMF     H5 1027   1.736   0.738   3.357 -0.8870  0.2227 -1.1118
   45DMF     H6 1028   1.764   0.879   3.253 -1.2338  0.5756  1.2578
   45DMF     H7 1029   2.030   0.668   3.395  1.0800 -1.9390  0.4726
   46DMF     C1 1030   0.255   1.271   0.398 -0.2499  0.5747  0.7108
   46DMF     N1 1031   0.222   1.221   0.265  0.5930  0.7037  0.0312
   46DMF     C2 1032   0.203   1.326   0.162  0.4856  0.8163 -0.0942
   46DMF     C3 1033   0.202   1.084   0.237 -0.6285  0.0600  0.4059
   46DMF     O1 1034   0.213   0.999   0.327 -0.2164 -0.3905  0.3495
   46DMF     H1 1035   0.251   1.381   0.400 -1.5353  0.5508  0.1106
   46DMF     H2 1036   0.352   1.237   0.437 -0.7714  0.4386  1.9207
   46DMF     H3 1037   0.176   1.252   0.473  0.3460  0.6100  1.3549
   46DMF     H4 1038   0.230   1.287   0.063  1.0548  1.3278 -0.1448
   46DMF     H5 1039   0.259   1.419   0.179 -1.2096  1.8067  0.1631
   46DMF     H6 1040   0.099   1.358   0.173  0.2877 -0.0036  0.4250
   46DMF     H7 1041   0.170   1.067   0.133 -1.6466 -2.4047  1.0844
   47DMF     C1 1042   0.722   3.291   0.256 -0.0343 -0.3053  0.2521
   47DMF     N1 1043   0.779   3.152   0.264  0.3837  0.3014 -0.4346
   47DMF     C2 1044   0.793   3.083   0.394 -0.2765 -0.6830 -0.7355
   47DMF     C3 1045   0.824   3.090   0.137 -0.4609  0.0025 -0.5197
   47DMF     O1 1046   0.818   3.154   0.032  0.1595 -0.4683  0.2952
   47DMF     H1 1047   0.710   3.322   0.152  0.5602 -1.3027 -0.1192
   47DMF     H2 1048   0.790   3.365   0.301 -1.3699  0.0645  1.7361
   47DMF     H3 1049   0.627   3.293   0.310  0.2382  0.9813  0.7104
   47DMF     H4 1050   0.750   2.982   0.397  1.9977 -1.7341 -2.4434
   47DMF     H5 1051   0.745   3.143   0.472  0.3139  1.4377 -1.9695
   47DMF     H6 1052   0.898   3.060   0.417 -1.0775 -2.7249  1.0672
   47DMF     H7 1053   0.877   2.993   0.149 -1.3487 -0.1968  2.1435
   48DMF     C1 1054   0.862   2.560   1.020 -0.5673  0.1786 -0.5408
   48DMF     N1 1055   0.808   2.636   0.909  0.2482  0.4714 -0.6228
   48DMF     C2 1056   0.760   2.555   0.797 -0.3757  0.2341 -0.3244
   48DMF     C3 1057   0.806   2.782   0.910 -1.3138  0.8476  0.2973
   48DMF     O1 1058   0.862   2.851   0.995 -0.2307 -0.1158 -0.2866
   48DMF     H1 1059   0.930   2.623   1.079  0.6982 -0.5721 -1.1711
   48DMF     H2 1060   0.911   2.477   0.968 -1.4218  0.3822 -1.7034
   48DMF     H3 1061   0.779   2.520   1.079  0.6733  0.3207  1.3378
   48DMF     H4 1062   0.833   2.547   0.715 -0.5903 -0.4487 -0.4470
   48DMF     H5 1063   0.665   2.594   0.758 -0.0752  0.5107 -0.7831
   48DMF     H6 1064   0.749   2.451   0.829  2.1503  0.2139  0.6423
   48DMF     H7 1065   0.765   2.826   0.817  1.0778  1.5064 -0.4816
   49DMF     C1 1066   2.212   3.406   2.655 -0.5618  0.5917  0.3957
   49DMF     N1 1067   2.268   3.359   2.783  0.0148  0.2059 -0.4099
   49DMF     C2 1068   2.182   3.355   2.902  0.9717 -0.0888 -0.6155
   49DMF     C3 1069   2.394   3.316   2.799 -0.2427 -0.0850  0.6098
   49DMF     O1 1070   2.477   3.325   2.711  0.1804 -0.1264  0.1870
   49DMF     H1 1071   2.175   3.508   2.671 -0.8185  0.6664 -0.6708
   49DMF     H2 1072   2.122   3.348   2.632  0.5090  0.0205 -2.4860
   49DMF     H3 1073   2.285   3.403   2.573  0.4923  1.9455  1.2679
   49DMF     H4 1074   2.173   3.454   2.948 -2.1179 -0.4422 -0.3008
   49DMF     H5 1075   2.208   3.280   2.978 -1.8650  1.0773  1.6462
   49DMF     H6 1076   2.083   3.315   2.875  0.2576 -1.0022  3.0056
   49DMF     H7 1077   2.419   3.276   2.899  0.9072 -1.2246 -0.1101
   50DMF     C1 1078   0.612   2.448   0.485  0.6472 -0.5024  0.2963
   50DMF     N1 1079   0.676   2.318   0.525 -0.0500  0.6141 -0.4214
   50DMF     C2 1080   0.801   2.272   0.462 -0.1200  0.5949  0.4464
   50DMF     C3 1081   0.594   2.223   0.592  0.1385  0.2278 -0.3810
   50DMF     O1 1082   0.484   2.245   0.631 -0.3442 -0.4003  0.5502
   50DMF     H1 1083   0.606   2.465   0.377  1.6231  2.0349  0.6198
   50DMF     H2 1084   0.681   2.523   0.525 -1.8676  1.6558  0.6971
   50DMF     H3 1085   0.523   2.461   0.548 -0.8350  0.2370 -1.8920
   50DMF     H4 1086   0.877   2.347   0.484  0.1719  0.2081  0.7570
   50DMF     H5 1087   0.786   2.259   0.354 -2.1602 -1.1856  0.8977
   50DMF     H6 1088   0.828   2.172   0.499 -1.9758  0.0537  0.3974
   50DMF     H7 1089   0.640   2.123   0.596 -1.4074 -0.4225  1.9839
   51DMF     C1 1090   0.335   2.118   0.281 -0.2497  0.0518 -0.3601
   51DMF     N1 1091   0.402   2.023   0.204  0.2127 -0.3433 -0.4559
   51DMF     C2 1092   0.354   1.990   0.072 -0.1777 -0.2078  0.2601
   51DMF     C3 1093   0.513   1.948   0.260  1.3145  0.2924 -0.0439
   51DMF     O1 1094   0.574   1.974   0.365  0.3148  0.1547  0.2966
   51DMF     H1 1095   0.228   2.099   0.263 -0.1571 -2.7184  1.7623
   51DMF     H2 1096   0.359   2.220   0.247 -0.5654 -0.1797 -1.3061
   51DMF     H3 1097   0.348   2.108   0.389  1.5610 -1.2611 -0.6762
   51DMF     H4 1098   0.326   1.885   0.058 -3.2346  0.2829  2.2478
   51DMF     H5 1099   0.422   2.022  -0.008  0.4814 -2.4423 -0.1148
   51DMF     H6 1100   0.258   2.043   0.074 -0.0606 -0.0271  2.7627
   51DMF     H7 1101   0.548   1.874   0.186  0.1600 -0.1451 -0.1613
   52DMF     C1 1102   0.263   1.335   2.262 -0.6854 -0.1148 -0.3018
   52DMF     N1 1103   0.265   1.484   2.267  0.0634  0.3303  0.5543
   52DMF     C2 1104   0.135   1.549   2.243 -0.1046 -0.2700 -0.7143
   52DMF     C3 1105   0.383   1.565   2.275  0.0475  0.3539  0.1212
   52DMF     O1 1106   0.497   1.515   2.279 -0.1056  0.3182  0.3204
   52DMF     H1 1107   0.171   1.296   2.306  0.1558 -2.1361 -0.2844
   52DMF     H2 1108   0.352   1.301   2.316  0.6693 -0.9414 -2.9887
   52DMF     H3 1109   0.279   1.303   2.158  0.7380  0.4149 -0.2527
   52DMF     H4 1110   0.075   1.521   2.330  0.3825 -0.9259 -0.5905
   52DMF     H5 1111   0.083   1.507   2.157 -1.5012 -2.4740  1.1548
   52DMF     H6 1112   0.137   1.659   2.240 -1.4465 -0.2133  0.1004
   52DMF     H7 1113   0.353   1.672   2.278  1.9770  0.8885  1.0614
   53DMF     C1 1114   0.648   1.210   3.448  0.3952 -0.2679 -0.0853
   53DMF     N1 1115   0.643   1.275   3.312 -0.7334 -0.4513 -0.2624
   53DMF     C2 1116   0.590   1.414   3.312 -0.0386  0.0865  0.3701
   53DMF     C3 1117   0.672   1.214   3.195 -0.7218  0.0939  0.2230
   53DMF     O1 1118   0.717   1.103   3.194 -0.1674 -0.0969 -0.8039
   53DMF     H1 1119   0.736   1.228   3.511 -0.6708  0.5102  1.2161
   53DMF     H2 1120   0.625   1.103   3.437 -1.2280  0.0033  0.4544
   53DMF     H3 1121   0.564   1.248   3.509  0.1054 -1.4066  0.2370
   53DMF     H4 1122   0.504   1.420   3.244 -0.0170 -0.4043  0.2984
   53DMF     H5 1123   0.665   1.487   3.278 -0.1011  1.1441  2.4013
   53DMF     H6 1124   0.556   1.443   3.412  2.4107  0.7743  1.0533
   53DMF     H7 1125   0.631   1.276   3.113 -0.4589 -0.4324 -0.3109
   54DMF     C1 1126   0.029   2.659   0.298  0.2197  0.1974  0.8699
   54DMF     N1 1127   0.152   2.712   0.244  0.1574  0.5927  0.5908
   54DMF     C2 1128   0.267   2.632   0.249 -0.4491 -0.2209 -0.2249
   54DMF     C3 1129   0.147   2.846   0.183 -0.0560 -0.0658 -0.1577
   54DMF     O1 1130   0.051   2.918   0.186 -0.6414 -0.2339  0.0062
   54DMF     H1 1131   0.032   2.550   0.304  2.6070  0.2371  1.0996
   54DMF     H2 1132  -0.064   2.688   0.249  0.5427 -0.7860 -0.3651
   54DMF     H3 1133   0.014   2.701   0.399 -1.0855  0.9646  0.3686
   54DMF     H4 1134   0.284   2.565   0.163  2.2795  0.5986 -0.3880
   54DMF     H5 1135   0.262   2.578   0.344  0.7889 -0.6917 -0.4156
   54DMF     H6 1136   0.358   2.694   0.241 -1.3613  0.8922 -2.6781
   54DMF     H7 1137   0.250   2.868   0.148  0.2749 -0.4878  0.5346
   55DMF     C1 1138   1.233   1.204   0.805  0.3331 -0.9993  0.7666
   55DMF     N1 1139   1.298   1.335   0.788  0.5896 -0.3049  0.6717
   55DMF     C2 1140   1.220   1.444   0.743 -0.5051 -1.3798  0.2029
   55DMF     C3 1141   1.433   1.360   0.820  0.5659 -0.1678 -0.0143
   55DMF     O1 1142   1.504   1.274   0.862  0.3603  0.2114  0.3158
   55DMF     H1 1143   1.241   1.164   0.703  1.1799  1.0257  0.0330
   55DMF     H2 1144   1.125   1.219   0.823 -0.3049 -1.1098 -2.7382
   55DMF     H3 1145   1.288   1.131   0.866 -0.2356  0.4676  3.1060
   55DMF     H4 1146   1.157   1.487   0.822  0.5206  3.1538 -1.3114
   55DMF     H5 1147   1.171   1.414   0.650 -0.3297 -0.4369 -0.2012
   55DMF     H6 1148   1.284   1.526   0.706 -0.6329 -0.4462  2.0283
   55DMF     H7 1149   1.459   1.467   0.815 -1.2690  0.2430 -1.2540
   56DMF     C1 1150   3.149   2.853   2.783 -0.2672 -0.3875  0.2657
   56DMF     N1 1151   3.168   2.948   2.673  0.1705 -0.7708 -0.0432
   56DMF     C2 1152   3.302   2.989   2.634  0.3502  0.3728 -0.7549
   56DMF     C3 1153   3.062   3.017   2.621  1.1369 -0.5674  0.1545
   56DMF     O1 1154   2.950   2.996   2.651  0.0399 -0.4282 -0.3002
   56DMF     H1 1155   3.045   2.836   2.812 -0.3624 -0.0162  0.1329
   56DMF     H2 1156   3.210   2.876   2.872 -0.3022 -1.5408  0.5974
   56DMF     H3 1157   3.189   2.759   2.743  1.6293 -0.0061  1.1729
   56DMF     H4 1158   3.285   3.023   2.531 -0.2412 -0.1970 -0.8507
   56DMF     H5 1159   3.376   2.908   2.636 -1.2296 -1.0902  0.6086
   56DMF     H6 1160   3.340   3.068   2.700 -3.4941  0.1594  1.9307
   56DMF     H7 1161   3.089   3.092   2.544  0.6986 -1.9559 -1.3786
   57DMF     C1 1162   1.214   2.638   1.002 -0.5097 -0.4897 -0.6527
   57DMF     N1 1163   1.246   2.721   1.116 -0.4315 -0.3417  0.0177
   57DMF     C2 1164   1.203   2.863   1.114 -0.3308 -0.4260  0.0697
   57DMF     C3 1165   1.305   2.676   1.238 -0.2111 -0.5030 -0.0998
   57DMF     O1 1166   1.339   2.559   1.250 -0.2839 -0.4414  0.4871
   57DMF     H1 1167   1.199   2.534   1.033  1.5943 -0.3772  0.9084
   57DMF     H2 1168   1.304   2.639   0.940 -0.7431 -0.8643 -0.9982
   57DMF     H3 1169   1.121   2.677   0.961 -0.5215 -1.1160 -1.2331
   57DMF     H4 1170   1.104   2.878   1.159 -0.6803 -1.2642 -0.4048
   57DMF     H5 1171   1.202   2.898   1.010  3.5812  0.2509  0.1912
   57DMF     H6 1172   1.263   2.927   1.180 -1.4500  3.5986 -2.5853
   57DMF     H7 1173   1.330   2.755   1.312  0.0057 -1.7364  1.1664
   58DMF     C1 1174   2.261   2.509   0.358  0.3956  0.7111  0.4488
   58DMF     N1 1175   2.136   2.512   0.435  0.0396 -0.5108  0.4471
   58DMF     C2 1176   2.146   2.557   0.577  0.5607 -0.4397  0.8937
   58DMF     C3 1177   2.011   2.469   0.380 -0.8094  0.0169 -0.4154
   58DMF     O1 1178   1.992   2.433   0.263 -0.5706 -0.7547  0.2495
   58DMF     H1 1179   2.308   2.608   0.346  0.7324  0.6024  0.8537
   58DMF     H2 1180   2.244   2.472   0.256  1.8278 -0.6927  0.7088
   58DMF     H3 1181   2.335   2.448   0.411  2.5056  1.8981 -1.0233
   58DMF     H4 1182   2.119   2.663   0.584  0.6656 -0.3049 -0.5213
   58DMF     H5 1183   2.243   2.531   0.621  0.3904 -3.2433 -0.2896
   58DMF     H6 1184   2.084   2.494   0.641 -0.5851 -0.1990  0.0223
   58DMF     H7 1185   1.936   2.471   0.461 -0.8923 -1.1415 -0.4463
   59DMF     C1 1186   1.837   1.232   2.331  0.1120 -0.3397 -0.4004
   59DMF     N1 1187   1.788   1.367   2.292 -0.1679 -0.3133  0.0172
   59DMF     C2 1188   1.887   1.489   2.284  0.0541  0.1060  0.0672
   59DMF     C3 1189   1.651   1.392   2.265  0.6058 -0.1118 -0.0518
   59DMF     O1 1190   1.568   1.307   2.280  0.6178 -0.3392 -1.0828
   59DMF     H1 1191   1.836   1.169   2.242  1.5117 -2.3921  1.0056
   59DMF     H2 1192   1.764   1.187   2.399  0.6624  0.9903  1.1041
   59DMF     H3 1193   1.932   1.245   2.383 -0.0098 -0.0464 -0.2483
   59DMF     H4 1194   1.834   1.585   2.295  2.5803  1.6845 -0.9737
   59DMF     H5 1195   1.935   1.479   2.185 -0.0374 -0.0885  0.0423
   59DMF     H6 1196   1.965   1.486   2.361  1.1205  1.4246 -0.9220
   59DMF     H7 1197   1.623   1.491   2.223  0.0999 -1.0119 -1.8715
   60DMF     C1 1198   2.498   0.439   3.709 -0.2261  0.6404  0.3957
   60DMF     N1 1199   2.400   0.538   3.663  0.9606  0.3830 -0.2592
   60DMF     C2 1200   2.312   0.491   3.551  0.1352  0.3585 -0.4870
   60DMF     C3 1201   2.400   0.672   3.707  0.2916  0.1013 -0.2781
   60DMF     O1 1202   2.473   0.710   3.800 -0.2278  0.7162  0.2225
   60DMF     H1 1203   2.503   0.350   3.646  0.6284  0.3419  0.8837
   60DMF     H2 1204   2.467   0.394   3.804  3.2727  0.6873  1.6249
   60DMF     H3 1205   2.596   0.487   3.718 -1.2763  2.6772  1.4087
   60DMF     H4 1206   2.357   0.513   3.454  1.3477  0.6650  0.1257
   60DMF     H5 1207   2.214   0.538   3.568 -0.7034 -1.4328 -0.3080
   60DMF     H6 1208   2.306   0.383   3.569  2.8317  0.3953  0.8264
   60DMF     H7 1209   2.322   0.737   3.664 -0.0974  0.2067  0.5701
   61DMF     C1 1210   0.959   1.341   3.344 -0.1672  0.5775 -0.4951
   61DMF     N1 1211   1.028   1.435   3.254  0.0994 -0.8009 -0.0374
   61DMF     C2 1212   1.155   1.491   3.301  0.3024 -0.1965  0.2875
   61DMF     C3 1213   0.974   1.468   3.122  0.4974  0.5116  0.2166
   61DMF     O1 1214   0.871   1.413   3.088  0.3742  0.3558 -0.0218
   61DMF     H1 1215   0.942   1.249   3.286 -1.7348  0.8914 -0.5401
   61DMF     H2 1216   0.864   1.389   3.369 -0.5508 -0.4410  0.0412
   61DMF     H3 1217   1.017   1.316   3.434 -0.4006  0.0163 -0.4949
   61DMF     H4 1218   1.226   1.415   3.335 -0.7602 -0.6663  1.5498
   61DMF     H5 1219   1.140   1.555   3.389  1.7405  1.7645 -0.8608
   61DMF     H6 1220   1.209   1.542   3.222  3.0976  1.7933  3.3514
   61DMF     H7 1221   1.038   1.538   3.065 -2.2703  1.0618 -2.3409
   62DMF     C1 1222   1.120   2.517   0.560 -0.0021 -0.0656  0.0916
   62DMF     N1 1223   1.089   2.595   0.436  0.6791  0.1431  0.3252
   62DMF     C2 1224   1.197   2.622   0.340 -0.0480 -0.1013  0.0298
   62DMF     C3 1225   0.967   2.660   0.424 -0.4410 -0.4490 -0.4587
   62DMF     O1 1226   0.870   2.639   0.497 -0.3641  0.2277  0.0359
   62DMF     H1 1227   1.185   2.580   0.622 -0.6216 -0.9347  1.6670
   62DMF     H2 1228   1.182   2.429   0.537  0.6496 -0.1778  2.1071
   62DMF     H3 1229   1.034   2.481   0.618  0.2890 -0.1081  0.5029
   62DMF     H4 1230   1.284   2.562   0.368 -1.7490 -2.5841  0.0955
   62DMF     H5 1231   1.229   2.727   0.348 -3.0005  0.7731  1.1044
   62DMF     H6 1232   1.165   2.605   0.237 -0.6264 -1.1839  0.3830
   62DMF     H7 1233   0.972   2.716   0.329  2.1392 -2.0495 -1.3362
   63DMF     C1 1234   1.282   1.582   0.054  0.6551  0.1305 -0.2060
   63DMF     N1 1235   1.237   1.708   0.123 -0.2004  0.4639 -0.5493
   63DMF     C2 1236   1.261   1.729   0.267 -0.0211  0.4752 -0.3080
   63DMF     C3 1237   1.217   1.825   0.044  0.1019  0.4490  0.6161
   63DMF     O1 1238   1.244   1.823  -0.076  0.0654 -0.7812 -0.4149
   63DMF     H1 1239   1.233   1.498   0.104  0.8706  0.5035  0.6508
   63DMF     H2 1240   1.392   1.575   0.058  0.5727 -1.6845 -0.8354
   63DMF     H3 1241   1.249   1.582  -0.050  1.3740  0.4803 -0.4422
   63DMF     H4 1242   1.181   1.776   0.325  0.4822  2.1079 -0.9322
   63DMF     H5 1243   1.347   1.797   0.270 -0.1114  0.7830 -3.4657
   63DMF     H6 1244   1.281   1.631   0.314 -0.4270  0.3188 -0.4625
   63DMF     H7 1245   1.179   1.913   0.099  1.7215  0.9927  0.8663
   64DMF     C1 1246   1.363   0.048   2.259 -0.4082  0.3800  0.5051
   64DMF     N1 1247   1.259   0.158   2.265  0.2483  0.5679  0.1775
   64DMF     C2 1248   1.283   0.301   2.303 -0.2060  0.2972  0.6310
   64DMF     C3 1249   1.122   0.128   2.242 -0.6873 -0.0529 -0.1239
   64DMF     O1 1250   1.075   0.023   2.207 -0.0067 -0.3664  0.3491
   64DMF     H1 1251   1.452   0.079   2.203 -0.5543  1.7755  1.0215
   64DMF     H2 1252   1.325  -0.049   2.225 -1.8622  0.1698  2.6141
   64DMF     H3 1253   1.396   0.032   2.362 -0.3721  1.6604  0.7019
   64DMF     H4 1254   1.229   0.340   2.390 -1.6266  1.9316 -0.9443
   64DMF     H5 1255   1.259   0.361   2.215 -1.1674  1.5897  1.7367
   64DMF     H6 1256   1.391   0.305   2.325 -0.2735 -0.0869  1.0555
   64DMF     H7 1257   1.057   0.218   2.246  0.0348  0.5066 -0.7676
   65DMF     C1 1258   1.193   1.711   2.212  0.3481  0.0290  0.0545
   65DMF     N1 1259   1.284   1.828   2.222  0.6681  0.0120 -0.5596
   65DMF     C2 1260   1.229   1.969   2.238 -0.5175  0.1132  0.3320
   65DMF     C3 1261   1.421   1.814   2.237  0.2950  0.5169  0.6572
   65DMF     O1 1262   1.473   1.705   2.238 -0.3379  0.0439 -0.3125
   65DMF     H1 1263   1.179   1.668   2.312 -1.1479 -1.8928 -0.9452
   65DMF     H2 1264   1.246   1.631   2.159 -0.8334 -0.1325 -0.8988
   65DMF     H3 1265   1.101   1.743   2.163 -0.9397 -1.6388  1.2846
   65DMF     H4 1266   1.199   2.017   2.144 -2.2438  0.3385  0.9780
   65DMF     H5 1267   1.305   2.022   2.297 -1.1387  3.2054 -1.5194
   65DMF     H6 1268   1.140   1.960   2.302 -0.5717  1.4371  0.4690
   65DMF     H7 1269   1.477   1.910   2.230 -1.3041  1.2573 -3.2751
   66DMF     C1 1270   1.628   3.252   3.123  0.2347 -0.6765 -1.1159
   66DMF     N1 1271   1.612   3.314   2.987  0.6359  0.3783 -0.9941
   66DMF     C2 1272   1.484   3.376   2.952  0.2062  0.1087  1.0377
   66DMF     C3 1273   1.721   3.297   2.892 -0.5456 -0.2236  0.0629
   66DMF     O1 1274   1.830   3.249   2.917  0.4822  0.3100 -0.7313
   66DMF     H1 1275   1.634   3.329   3.200  3.3470 -2.3264  0.4106
   66DMF     H2 1276   1.717   3.187   3.118 -0.4962 -1.9849  1.8090
   66DMF     H3 1277   1.533   3.198   3.132 -0.8849  1.5121  0.4513
   66DMF     H4 1278   1.410   3.340   3.025  0.3022 -1.5012  0.3651
   66DMF     H5 1279   1.441   3.346   2.856 -0.6583 -1.6645  1.9384
   66DMF     H6 1280   1.512   3.482   2.954  0.4374  0.0882 -0.4951
   66DMF     H7 1281   1.691   3.344   2.797 -3.1081 -2.1389 -0.1241
   67DMF     C1 1282   3.177   0.378   1.189 -0.2488  0.4026  0.3348
   67DMF     N1 1283   3.215   0.507   1.139  0.8823  0.1317 -0.4585
   67DMF     C2 1284   3.135   0.571   1.033  0.9210 -0.7455  0.3383
   67DMF     C3 1285   3.313   0.583   1.199  0.5977  0.4146 -0.4837
   67DMF     O1 1286   3.399   0.532   1.267 -0.6555 -0.1789  0.1108
   67DMF     H1 1287   3.072   0.353   1.168  0.5354 -3.4935  0.6365
   67DMF     H2 1288   3.180   0.388   1.298 -1.8665  1.5630  0.2999
   67DMF     H3 1289   3.248   0.303   1.152  0.0403  1.0396 -0.4004
   67DMF     H4 1290   3.110   0.486   0.969 -0.0410 -1.1942  1.2978
   67DMF     H5 1291   3.175   0.659   0.982 -0.7846 -0.0089  0.2187
   67DMF     H6 1292   3.047   0.610   1.087  2.7587  0.9774  2.2029
   67DMF     H7 1293   3.304   0.689   1.170  1.5382  0.3612 -1.0041
   68DMF     C1 1294   1.853   1.373   1.539  0.1025  0.6160  0.0981
   68DMF     N1 1295   1.891   1.515   1.547  0.5729  0.0791 -0.5315
   68DMF     C2 1296   2.032   1.565   1.550 -0.1416  0.0821  0.2839
   68DMF     C3 1297   1.784   1.610   1.545  0.0451 -0.0757  0.3011
   68DMF     O1 1298   1.671   1.572   1.534 -0.1278 -0.2737  0.2438
   68DMF     H1 1299   1.823   1.355   1.435  0.3256 -2.3823  0.5024
   68DMF     H2 1300   1.771   1.355   1.610 -1.2118 -1.0556 -1.8002
   68DMF     H3 1301   1.940   1.309   1.559 -0.0499  0.8750  1.6609
   68DMF     H4 1302   2.103   1.505   1.608 -0.9721  1.7298  3.1409
   68DMF     H5 1303   2.031   1.671   1.580 -2.0894  0.3439 -0.6319
   68DMF     H6 1304   2.068   1.559   1.447  1.8130 -0.8973  0.9996
   68DMF     H7 1305   1.824   1.712   1.531 -1.2566  0.6798  1.9589
   69DMF     C1 1306   0.475   3.301   3.495  0.1636 -0.6720 -0.0563
   69DMF     N1 1307   0.595   3.216   3.514 -0.5774 -0.3631  0.0802
   69DMF     C2 1308   0.727   3.268   3.457  0.5138  0.2626 -0.2841
   69DMF     C3 1309   0.593   3.095   3.584 -0.0812 -0.1808  0.1060
   69DMF     O1 1310   0.485   3.048   3.631 -0.2717  0.4573  0.2046
   69DMF     H1 1311   0.474   3.333   3.390  2.4227 -0.6810 -0.1157
   69DMF     H2 1312   0.480   3.390   3.559 -2.7731 -0.0715 -0.6223
   69DMF     H3 1313   0.381   3.248   3.510  0.5172 -1.5886 -1.0405
   69DMF     H4 1314   0.812   3.225   3.512 -0.3653 -2.4437 -0.9494
   69DMF     H5 1315   0.712   3.376   3.468 -0.5385 -0.0512  1.5558
   69DMF     H6 1316   0.749   3.242   3.353  2.2826  1.7718 -0.3030
   69DMF     H7 1317   0.695   3.053   3.584 -0.0555 -0.1234 -0.3445
   70DMF     C1 1318   0.027   0.968   1.091 -0.2006  0.0992 -0.0900
   70DMF     N1 1319   0.051   1.106   1.127 -0.6529 -0.1545  0.6247
   70DMF     C2 1320  -0.023   1.166   1.234 -0.4259 -0.3969  0.2762
   70DMF     C3 1321   0.159   1.176   1.075  0.7540 -0.3262  0.3572
   70DMF     O1 1322   0.230   1.131   0.990  0.7283  0.1883  0.2143
   70DMF     H1 1323   0.111   0.911   1.133  0.2924  2.1841  1.8855
   70DMF     H2 1324   0.035   0.946   0.984  0.3540  0.1568 -0.0578
   70DMF     H3 1325  -0.062   0.925   1.139  0.6438  0.3375  1.7409
   70DMF     H4 1326  -0.103   1.229   1.193 -0.1823 -0.5372 -0.4316
   70DMF     H5 1327   0.048   1.232   1.286  0.3458  0.9261 -2.3591
   70DMF     H6 1328  -0.064   1.093   1.305 -2.9533  0.5852 -0.1293
   70DMF     H7 1329   0.174   1.280   1.110  1.2175  0.5173 -2.2345
   71DMF     C1 1330   2.620   1.748   1.552  0.3059 -0.7308 -0.2333
   71DMF     N1 1331   2.593   1.679   1.424  0.2558 -0.5046 -0.4761
   71DMF     C2 1332   2.686   1.688   1.312 -1.3058  1.0093 -0.4564
   71DMF     C3 1333   2.483   1.588   1.417 -0.2468  0.4180  0.0351
   71DMF     O1 1334   2.384   1.590   1.492 -0.4172 -0.1417 -0.2058
   71DMF     H1 1335   2.592   1.689   1.640  0.1401  0.1840  0.3352
   71DMF     H2 1336   2.561   1.840   1.557  0.4416 -0.5200 -2.1331
   71DMF     H3 1337   2.724   1.783   1.560  1.0246 -1.9445 -3.4210
   71DMF     H4 1338   2.633   1.693   1.216 -2.7334 -0.4915  0.2395
   71DMF     H5 1339   2.755   1.603   1.312 -0.0113  2.0300  0.1156
   71DMF     H6 1340   2.731   1.786   1.333  2.0820 -0.6720  0.6077
   71DMF     H7 1341   2.494   1.516   1.334 -0.0298 -0.2140  0.6075
   72DMF     C1 1342   0.561   1.706   0.611  0.9876 -0.6732  0.3112
   72DMF     N1 1343   0.450   1.713   0.509  0.4080  0.0892 -0.1486
   72DMF     C2 1344   0.337   1.803   0.517 -0.1288  0.6093  0.0076
   72DMF     C3 1345   0.430   1.605   0.428 -0.1935  0.4703 -0.3507
   72DMF     O1 1346   0.499   1.507   0.428 -0.6623 -0.0350  0.0676
   72DMF     H1 1347   0.570   1.601   0.644  0.8690 -0.8207 -0.1302
   72DMF     H2 1348   0.547   1.773   0.697  1.6171  0.3277 -0.3521
   72DMF     H3 1349   0.657   1.739   0.569 -1.4975  2.2580 -3.3882
   72DMF     H4 1350   0.378   1.898   0.553  0.8610 -0.1306  0.8967
   72DMF     H5 1351   0.256   1.762   0.578  0.4840 -1.3933 -0.4699
   72DMF     H6 1352   0.292   1.830   0.421  0.4506 -0.8268 -0.6921
   72DMF     H7 1353   0.343   1.619   0.360 -0.3263  0.4028 -0.1947
   73DMF     C1 1354   2.134   3.264   1.125  0.9600  0.5755  0.6025
   73DMF     N1 1355   2.271   3.286   1.189 -0.4266  0.0421 -0.3792
   73DMF     C2 1356   2.318   3.188   1.287  0.5863 -0.0308 -0.4225
   73DMF     C3 1357   2.353   3.391   1.132 -0.9150  0.2675  0.4896
   73DMF     O1 1358   2.326   3.457   1.027 -0.1763  0.6083  0.3503
   73DMF     H1 1359   2.119   3.318   1.031 -3.1116 -0.2484  0.6872
   73DMF     H2 1360   2.053   3.283   1.196 -1.3171  0.9588 -2.0439
   73DMF     H3 1361   2.130   3.157   1.098 -1.7325  1.2489 -1.8423
   73DMF     H4 1362   2.230   3.164   1.348 -0.0687  1.7601 -0.6518
   73DMF     H5 1363   2.392   3.228   1.357  0.0169 -0.8797  0.6742
   73DMF     H6 1364   2.351   3.098   1.232  2.2031  1.0907 -1.3189
   73DMF     H7 1365   2.443   3.402   1.195 -0.1865  1.4623 -0.7163
   74DMF     C1 1366   0.844   1.787   2.446  0.1448 -0.6786 -0.0187
   74DMF     N1 1367   0.801   1.702   2.334 -0.0080 -0.1911  0.9655
   74DMF     C2 1368   0.829   1.553   2.343  0.3143 -0.6011 -0.3938
   74DMF     C3 1369   0.740   1.762   2.227 -0.2851 -0.1445 -0.2908
   74DMF     O1 1370   0.709   1.879   2.215 -0.0102  0.2010  0.7326
   74DMF     H1 1371   0.774   1.869   2.466  2.3052  1.7903 -2.4008
   74DMF     H2 1372   0.943   1.834   2.446 -0.2189  0.1161  1.5761
   74DMF     H3 1373   0.856   1.724   2.535  1.8281  0.5536  0.6325
   74DMF     H4 1374   0.753   1.513   2.411  2.0163 -1.8786  0.8139
   74DMF     H5 1375   0.925   1.532   2.393 -0.0413 -0.3579  0.4070
   74DMF     H6 1376   0.823   1.510   2.243  1.9969  1.2688 -1.3435
   74DMF     H7 1377   0.728   1.693   2.142  1.1165  0.6604 -1.1625
   75DMF     C1 1378   3.046   2.220   2.304 -0.4648 -0.2684  0.1136
   75DMF     N1 1379   3.169   2.153   2.259  0.1943  0.1803  0.1885
   75DMF     C2 1380   3.291   2.240   2.263  0.1509  0.0041  0.3817
   75DMF     C3 1381   3.166   2.010   2.222  0.7466 -0.5189  0.6417
   75DMF     O1 1382   3.061   1.946   2.234 -0.4968 -0.2365 -0.3218
   75DMF     H1 1383   2.990   2.156   2.373  0.6957 -1.5633 -0.1138
   75DMF     H2 1384   2.984   2.260   2.223 -2.3469 -0.3445  1.4762
   75DMF     H3 1385   3.082   2.312   2.351 -3.4814  1.4102 -0.7423
   75DMF     H4 1386   3.272   2.334   2.210  0.2988 -0.9423 -1.3905
   75DMF     H5 1387   3.376   2.186   2.219  1.0468  1.8926 -0.2578
   75DMF     H6 1388   3.320   2.255   2.367  1.2360 -1.2806  0.2874
   75DMF     H7 1389   3.263   1.977   2.180  0.1822 -0.3759 -0.8013
   76DMF     C1 1390   0.944   3.435   1.517 -0.0132 -0.2978  1.1808
   76DMF     N1 1391   1.023   3.321   1.463  0.6336  0.3530 -0.0993
   76DMF     C2 1392   1.088   3.237   1.570  0.1080 -0.5908  0.2465
   76DMF     C3 1393   1.021   3.290   1.327  0.0656 -0.1875 -0.3887
   76DMF     O1 1394   0.973   3.365   1.238 -0.5494 -0.1012 -0.1798
   76DMF     H1 1395   0.961   3.526   1.458 -1.5949 -0.5230  0.3462
   76DMF     H2 1396   0.973   3.456   1.621  1.1075 -2.3880  1.3205
   76DMF     H3 1397   0.837   3.412   1.513 -0.6538  2.7916 -1.3350
   76DMF     H4 1398   1.138   3.148   1.531  0.4163 -0.3509  0.0913
   76DMF     H5 1399   1.016   3.218   1.650 -0.8139 -1.2050 -0.7246
   76DMF     H6 1400   1.174   3.290   1.612  1.8018 -1.3942 -2.1417
   76DMF     H7 1401   1.061   3.192   1.297 -1.6931 -1.1121  0.2274
   77DMF     C1 1402   2.320   0.547   1.525 -0.3430 -0.2950 -0.2766
   77DMF     N1 1403   2.178   0.588   1.515  0.3452  0.6945 -0.1119
   77DMF     C2 1404   2.148   0.716   1.448 -0.5315  0.5978 -0.1367
   77DMF     C3 1405   2.075   0.499   1.547  0.2244 -0.0683 -0.0366
   77DMF     O1 1406   2.082   0.382   1.589  0.5289  0.3931 -0.4479
   77DMF     H1 1407   2.369   0.558   1.427 -0.6736  0.9410 -0.3179
   77DMF     H2 1408   2.334   0.444   1.559  0.7263 -0.6176 -1.6372
   77DMF     H3 1409   2.376   0.614   1.592 -0.0707  0.2459 -1.0289
   77DMF     H4 1410   2.083   0.777   1.511 -2.0062 -1.7700  0.6771
   77DMF     H5 1411   2.094   0.710   1.353 -0.6508  0.0238 -0.0357
   77DMF     H6 1412   2.241   0.771   1.425 -1.1566  1.4614 -0.6092
   77DMF     H7 1413   1.980   0.553   1.529  0.7733  1.1389  0.6333
   78DMF     C1 1414   1.415   0.315   2.693  0.2731  0.1298  0.1447
   78DMF     N1 1415   1.434   0.459   2.669  0.2122  0.4707  0.0326
   78DMF     C2 1416   1.396   0.557   2.773 -0.4089  0.2726 -0.9287
   78DMF     C3 1417   1.511   0.498   2.563 -0.3638 -0.0316  0.7243
   78DMF     O1 1418   1.537   0.430   2.465 -0.0159  0.1315  0.2298
   78DMF     H1 1419   1.311   0.298   2.725 -0.0797  0.3219 -0.8859
   78DMF     H2 1420   1.480   0.288   2.777 -0.5596  0.6520  0.9704
   78DMF     H3 1421   1.436   0.258   2.602 -0.1150 -1.3731  0.9645
   78DMF     H4 1422   1.296   0.597   2.752 -0.0234  0.6387 -2.0982
   78DMF     H5 1423   1.460   0.646   2.777  0.2655 -0.2162 -0.8644
   78DMF     H6 1424   1.391   0.503   2.868 -1.0595  1.3521 -0.3329
   78DMF     H7 1425   1.545   0.603   2.570 -1.6673  0.5682 -1.4555
   79DMF     C1 1426   2.645   1.722   0.673 -0.0643  0.3173 -0.5446
   79DMF     N1 1427   2.689   1.719   0.535  0.3863 -0.0839 -0.0621
   79DMF     C2 1428   2.667   1.834   0.453  0.3954 -0.1777  0.1559
   79DMF     C3 1429   2.752   1.607   0.473 -0.3081 -0.7551  0.2893
   79DMF     O1 1430   2.785   1.511   0.533  0.0077  0.0231  0.6568
   79DMF     H1 1431   2.587   1.815   0.682 -1.4777 -0.3801 -2.0502
   79DMF     H2 1432   2.726   1.735   0.745 -1.0610  2.4845  0.2252
   79DMF     H3 1433   2.575   1.641   0.694  1.5678 -1.2066 -0.8758
   79DMF     H4 1434   2.719   1.922   0.491  0.4863 -0.8776  1.6786
   79DMF     H5 1435   2.559   1.856   0.445  0.1027 -1.9974 -1.3788
   79DMF     H6 1436   2.710   1.823   0.353  1.2576 -3.6110  0.8438
   79DMF     H7 1437   2.766   1.618   0.364 -0.1290  1.1422  0.4900
   80DMF     C1 1438   1.950   2.211   0.539 -0.2097 -0.2995 -0.0068
   80DMF     N1 1439   2.002   2.096   0.609  0.3517  0.6125 -0.4079
   80DMF     C2 1440   1.984   1.963   0.563  0.2456 -0.3584  0.0762
   80DMF     C3 1441   2.055   2.115   0.743  0.5092  0.0003 -0.3627
   80DMF     O1 1442   2.061   2.226   0.796  0.1596 -0.1410  0.3004
   80DMF     H1 1443   1.887   2.187   0.452  0.9568  0.0945 -0.9753
   80DMF     H2 1444   2.028   2.287   0.532  0.3872 -0.6959  2.0190
   80DMF     H3 1445   1.879   2.264   0.603 -2.4396 -1.3993 -1.5169
   80DMF     H4 1446   2.052   1.957   0.476  1.7898  0.8072  1.1605
   80DMF     H5 1447   1.886   1.934   0.523  1.7971 -2.8479 -2.0933
   80DMF     H6 1448   2.007   1.889   0.640  2.3243 -0.4535 -0.5920
   80DMF     H7 1449   2.079   2.025   0.801 -0.7055  0.4370  0.8298
   81DMF     C1 1450   2.264   1.671   2.492 -0.1590 -0.0460  0.2242
   81DMF     N1 1451   2.194   1.774   2.403 -0.5153 -0.2133  0.6892
   81DMF     C2 1452   2.166   1.907   2.460 -0.0477  0.6703  0.2065
   81DMF     C3 1453   2.184   1.749   2.265 -0.2147 -0.1339  0.5146
   81DMF     O1 1454   2.229   1.650   2.217  0.0710 -0.0946 -0.6173
   81DMF     H1 1455   2.216   1.682   2.589 -1.1243  0.9613 -0.3594
   81DMF     H2 1456   2.374   1.682   2.491 -0.1489 -0.1320 -0.4088
   81DMF     H3 1457   2.239   1.571   2.454 -0.9414  0.9746 -2.0460
   81DMF     H4 1458   2.085   1.951   2.400  0.8497 -1.8167 -2.9710
   81DMF     H5 1459   2.258   1.967   2.448  0.0019  0.8527  1.3984
   81DMF     H6 1460   2.140   1.904   2.566  0.0300  2.8554  0.3115
   81DMF     H7 1461   2.130   1.826   2.207 -0.1805 -0.7741 -0.3757
   82DMF     C1 1462   1.665   2.138   1.558  0.8487  0.3290 -0.2126
   82DMF     N1 1463   1.623   2.240   1.458  0.3136  0.0145  0.8482
   82DMF     C2 1464   1.576   2.363   1.517 -0.4034  0.0210  0.0018
   82DMF     C3 1465   1.548   2.199   1.346 -0.1887 -0.6668  0.1919
   82DMF     O1 1466   1.562   2.086   1.298  0.4662 -0.2669  0.0091
   82DMF     H1 1467   1.582   2.109   1.622  0.0599  2.1329 -0.3879
   82DMF     H2 1468   1.731   2.185   1.632  0.5644  2.8853 -1.5200
   82DMF     H3 1469   1.692   2.046   1.504  1.8075  0.5839 -0.1686
   82DMF     H4 1470   1.528   2.347   1.614 -0.6257 -0.3133 -0.1656
   82DMF     H5 1471   1.512   2.420   1.449 -0.0932 -0.1889 -0.4655
   82DMF     H6 1472   1.669   2.421   1.525 -0.0672 -0.5459  0.1541
   82DMF     H7 1473   1.479   2.274   1.305  0.8597  0.0978 -0.2007
   83DMF     C1 1474   2.965   0.847   1.556 -0.2816 -0.7375  0.2989
   83DMF     N1 1475   2.903   0.742   1.479  0.5771  1.1128 -0.2310
   83DMF     C2 1476   2.784   0.681   1.546 -0.0907  0.1399  0.4543
   83DMF     C3 1477   2.949   0.711   1.349 -0.2648 -0.5780  0.6012
   83DMF     O1 1478   3.041   0.757   1.283 -0.6543 -0.3907  0.2966
   83DMF     H1 1479   2.896   0.889   1.630 -1.1355 -0.5665 -0.5779
   83DMF     H2 1480   2.997   0.928   1.490 -1.0772 -0.3476  0.3887
   83DMF     H3 1481   3.064   0.813   1.587  0.0729  1.0299  1.1498
   83DMF     H4 1482   2.812   0.591   1.603 -0.1722 -0.4827 -0.4826
   83DMF     H5 1483   2.701   0.663   1.477  0.6033  0.2316 -0.4114
   83DMF     H6 1484   2.739   0.748   1.620 -0.7896  2.0537 -1.6684
   83DMF     H7 1485   2.891   0.625   1.310 -0.0056 -0.0044 -1.0965
   84DMF     C1 1486   1.149   2.349   3.100  0.5623 -0.4868 -0.0665
   84DMF     N1 1487   1.087   2.396   3.220 -0.1130 -0.0871  0.1527
   84DMF     C2 1488   1.083   2.541   3.246 -0.1147  0.1964 -0.0603
   84DMF     C3 1489   1.027   2.316   3.313 -0.0604  0.0101  0.0837
   84DMF     O1 1490   1.009   2.195   3.290 -0.3237  0.1783  0.2590
   84DMF     H1 1491   1.161   2.240   3.110  1.4877 -0.5425 -1.6176
   84DMF     H2 1492   1.246   2.396   3.083  0.2777  0.2627  0.3407
   84DMF     H3 1493   1.082   2.363   3.014 -0.2612 -3.5474  0.0143
   84DMF     H4 1494   1.180   2.569   3.289  0.5803 -0.0115 -1.4957
   84DMF     H5 1495   0.991   2.561   3.303  0.7602 -0.1733  1.5030
   84DMF     H6 1496   1.070   2.591   3.149 -0.8594 -1.6308 -0.9225
   84DMF     H7 1497   1.007   2.361   3.411  1.3802 -0.7005  0.7284
   85DMF     C1 1498   2.045   2.521   1.542 -0.7070 -0.0683 -0.2974
   85DMF     N1 1499   2.028   2.424   1.422 -0.7766  0.3880  0.1903
   85DMF     C2 1500   1.924   2.461   1.322 -0.0093  0.0091  0.0095
   85DMF     C3 1501   2.086   2.293   1.424  0.5172  0.3806  0.2447
   85DMF     O1 1502   2.160   2.252   1.516  0.2402  0.2693  0.2432
   85DMF     H1 1503   2.008   2.621   1.519 -0.5161 -0.1776 -1.0978
   85DMF     H2 1504   2.154   2.514   1.557 -0.5304 -0.2329 -1.6315
   85DMF     H3 1505   2.001   2.487   1.637  1.0136 -1.2610  0.1164
   85DMF     H4 1506   1.921   2.571   1.320 -0.2827  0.0152  0.6008
   85DMF     H5 1507   1.831   2.413   1.355 -0.1479 -0.4046 -0.9779
   85DMF     H6 1508   1.946   2.429   1.220  0.5499 -0.8024  0.3761
   85DMF     H7 1509   2.059   2.227   1.340 -2.3208  0.4642  1.0213
   86DMF     C1 1510   3.342   0.824   1.478 -0.2734 -0.3518 -0.4942
   86DMF     N1 1511   3.474   0.845   1.535  0.1983 -0.3876  0.2173
   86DMF     C2 1512   3.568   0.725   1.541  0.5494  0.2374  0.1309
   86DMF     C3 1513   3.520   0.975   1.563 -0.5775 -0.1531  0.0797
   86DMF     O1 1514   3.446   1.075   1.552 -0.3764  0.4716 -0.5086
   86DMF     H1 1515   3.339   0.721   1.441 -2.8061 -0.4497 -0.1056
   86DMF     H2 1516   3.310   0.899   1.404  0.9897  1.1648  0.4626
   86DMF     H3 1517   3.273   0.831   1.564  1.0408  0.0559  0.5388
   86DMF     H4 1518   3.649   0.746   1.612 -0.5182  1.8292  0.8991
   86DMF     H5 1519   3.624   0.707   1.448 -2.7812  0.2158 -1.9370
   86DMF     H6 1520   3.518   0.631   1.568  0.3564 -0.3155 -2.0678
   86DMF     H7 1521   3.628   0.975   1.588 -0.9202 -0.3870  1.5727
   87DMF     C1 1522   1.458   1.793   1.556 -0.4877  0.0809  0.4700
   87DMF     N1 1523   1.312   1.827   1.550 -0.5355  0.2634  0.3823
   87DMF     C2 1524   1.209   1.717   1.536  0.1282 -0.2923 -0.4844
   87DMF     C3 1525   1.267   1.965   1.572 -0.2793  0.1877  0.1054
   87DMF     O1 1526   1.344   2.057   1.595 -0.3702  0.2426 -0.2330
   87DMF     H1 1527   1.486   1.714   1.627 -2.2942 -0.5371  0.5265
   87DMF     H2 1528   1.523   1.881   1.560  1.9223 -1.6997  1.6551
   87DMF     H3 1529   1.472   1.757   1.454  1.3891 -0.3112  0.8524
   87DMF     H4 1530   1.109   1.750   1.506 -0.0346  0.9470  1.3446
   87DMF     H5 1531   1.198   1.687   1.641 -2.2135  0.6269 -0.4489
   87DMF     H6 1532   1.244   1.631   1.476 -1.1944 -1.6612  0.6518
   87DMF     H7 1533   1.158   1.971   1.554 -0.3449  1.6328  0.8143
   88DMF     C1 1534   0.077   2.479   0.601 -0.2243  0.2808  0.4393
   88DMF     N1 1535  -0.011   2.464   0.721 -0.1650  0.1845 -0.2837
   88DMF     C2 1536   0.008   2.344   0.808  0.0456 -0.0965  0.0043
   88DMF     C3 1537  -0.090   2.574   0.763 -0.5321  0.8925  0.2994
   88DMF     O1 1538  -0.106   2.674   0.698  0.0667 -0.4812 -0.6648
   88DMF     H1 1539   0.026   2.429   0.517  0.4747 -1.8581  1.2606
   88DMF     H2 1540   0.164   2.415   0.616  0.9287  1.4618 -1.0840
   88DMF     H3 1541   0.099   2.584   0.576  0.5931 -0.2549 -1.1885
   88DMF     H4 1542  -0.085   2.314   0.859  0.1367  0.4765  0.5161
   88DMF     H5 1543   0.080   2.364   0.888  0.3544  1.3216 -0.6133
   88DMF     H6 1544   0.032   2.251   0.754 -0.2014  0.1204 -0.4867
   88DMF     H7 1545  -0.152   2.549   0.851 -3.3315  0.3665 -1.7577
   89DMF     C1 1546   2.101   1.424   2.831 -0.0579  0.8236 -0.3426
   89DMF     N1 1547   2.215   1.342   2.779 -0.4749  0.7750 -0.0100
   89DMF     C2 1548   2.340   1.360   2.851 -0.1056  0.1421 -1.0303
   89DMF     C3 1549   2.210   1.250   2.679  0.2986  0.0584  0.2876
   89DMF     O1 1550   2.102   1.234   2.618 -0.8685  0.3108 -0.2734
   89DMF     H1 1551   2.094   1.425   2.941  1.8605 -1.3603 -0.1727
   89DMF     H2 1552   2.010   1.374   2.795 -0.1389 -0.9549  2.1840
   89DMF     H3 1553   2.103   1.524   2.786 -1.9019  0.9390 -0.1895
   89DMF     H4 1554   2.400   1.443   2.811  0.1041 -0.3223 -1.6744
   89DMF     H5 1555   2.410   1.276   2.839  1.3454  0.9586  1.3676
   89DMF     H6 1556   2.317   1.376   2.957  1.1262 -0.3654 -0.6723
   89DMF     H7 1557   2.300   1.188   2.664  1.9923  2.0342  2.0016
   90DMF     C1 1558   0.430   2.820   1.430  0.9410 -0.1550  0.3743
   90DMF     N1 1559   0.384   2.691   1.484  0.3806 -0.1331 -0.5558
   90DMF     C2 1560   0.488   2.607   1.528 -0.5317  0.1719 -0.4474
   90DMF     C3 1561   0.256   2.683   1.531 -0.0763 -0.2534 -1.0508
   90DMF     O1 1562   0.174   2.775   1.518  0.1432 -0.1286 -0.1251
   90DMF     H1 1563   0.453   2.884   1.516  1.9090  0.8340 -0.5962
   90DMF     H2 1564   0.355   2.871   1.368  0.8891 -0.2963  0.3197
   90DMF     H3 1565   0.520   2.802   1.370  0.4268  2.0129 -1.1141
   90DMF     H4 1566   0.569   2.595   1.455 -1.6296 -1.4092 -1.4465
   90DMF     H5 1567   0.457   2.502   1.538 -2.8528  0.9200  0.5708
   90DMF     H6 1568   0.522   2.642   1.626 -2.9029  0.3969  0.3204
   90DMF     H7 1569   0.241   2.589   1.588 -1.2364  0.0374 -0.8832
   91DMF     C1 1570   0.707   2.681   3.695  0.5214 -0.3871  0.4228
   91DMF     N1 1571   0.677   2.630   3.835  0.1506  0.3885 -0.2183
   91DMF     C2 1572   0.561   2.550   3.846  0.2360  0.5962 -0.2958
   91DMF     C3 1573   0.749   2.671   3.947  0.0436 -0.1284 -0.0937
   91DMF     O1 1574   0.855   2.727   3.932 -0.3917  0.1904  0.2190
   91DMF     H1 1575   0.618   2.679   3.631  0.0291 -1.3517  1.1160
   91DMF     H2 1576   0.792   2.619   3.661  0.8050  0.1668  0.1259
   91DMF     H3 1577   0.747   2.783   3.698 -0.2462 -0.0901  0.8379
   91DMF     H4 1578   0.484   2.601   3.904 -0.2367 -0.4482  0.0067
   91DMF     H5 1579   0.589   2.461   3.904  1.8611  0.5828 -1.0590
   91DMF     H6 1580   0.514   2.529   3.749  0.4415 -0.4499 -0.1761
   91DMF     H7 1581   0.698   2.652   4.043 -3.3704  2.3347 -1.3329
   92DMF     C1 1582   3.097   3.304   1.243 -0.0009 -1.4347  1.3317
   92DMF     N1 1583   3.172   3.343   1.122 -0.4235 -0.4569  0.3664
   92DMF     C2 1584   3.306   3.397   1.135 -0.5982  0.0717  0.0714
   92DMF     C3 1585   3.100   3.351   1.003 -0.6280 -0.5435  0.2463
   92DMF     O1 1586   2.988   3.304   0.990 -0.6630 -0.1257  0.5999
   92DMF     H1 1587   3.135   3.207   1.276  1.3230 -1.6799 -0.8016
   92DMF     H2 1588   2.988   3.306   1.235  0.1956 -0.7483 -2.0888
   92DMF     H3 1589   3.129   3.378   1.317 -2.8485  0.5706  0.6460
   92DMF     H4 1590   3.362   3.372   1.044 -1.2486 -0.8211 -0.0968
   92DMF     H5 1591   3.354   3.354   1.224  2.9013  1.6963 -0.9691
   92DMF     H6 1592   3.307   3.506   1.132 -0.3536  0.0751  0.2945
   92DMF     H7 1593   3.146   3.415   0.925 -1.6403  1.0858  0.9647
   93DMF     C1 1594   0.845   1.509   1.514  0.1950 -0.1566  0.3570
   93DMF     N1 1595   0.971   1.477   1.448  0.3356  0.1201  0.0382
   93DMF     C2 1596   1.055   1.372   1.503  0.2468 -0.5443  0.2500
   93DMF     C3 1597   1.006   1.549   1.332 -0.0642 -0.5973 -0.3061
   93DMF     O1 1598   0.946   1.647   1.296  0.0357  0.5601  0.1297
   93DMF     H1 1599   0.832   1.445   1.601  3.0114 -0.9656  0.2233
   93DMF     H2 1600   0.764   1.477   1.447  0.3849 -4.1978  1.9746
   93DMF     H3 1601   0.850   1.616   1.538 -2.1000 -0.1299  0.8695
   93DMF     H4 1602   1.158   1.410   1.509 -0.2767  0.8287  0.8386
   93DMF     H5 1603   1.068   1.290   1.432  0.8525 -0.4924  0.2905
   93DMF     H6 1604   1.023   1.327   1.598  0.9245  0.0990  0.7897
   93DMF     H7 1605   1.101   1.519   1.285  0.1920  0.4723 -0.5021
   94DMF     C1 1606   2.983   3.074   0.476 -0.3545  0.3190  0.8729
   94DMF     N1 1607   3.074   3.020   0.363  0.1496 -0.1819  0.4494
   94DMF     C2 1608   3.173   2.913   0.400 -0.2121 -0.0830 -0.4545
   94DMF     C3 1609   3.073   3.067   0.232 -0.3793  0.5681  0.1132
   94DMF     O1 1610   3.001   3.155   0.195  0.3266 -0.1489  0.3159
   94DMF     H1 1611   2.989   3.182   0.458 -2.2364  0.0517 -1.6389
   94DMF     H2 1612   3.022   3.044   0.574  2.1466  0.0625 -0.1461
   94DMF     H3 1613   2.882   3.039   0.452  0.4775  0.4003 -2.9930
   94DMF     H4 1614   3.145   2.848   0.484  0.8907 -0.8280 -0.6446
   94DMF     H5 1615   3.264   2.964   0.433  0.7955 -0.3636 -2.6721
   94DMF     H6 1616   3.188   2.850   0.311 -2.0041  0.0646 -0.8729
   94DMF     H7 1617   3.152   3.023   0.168  0.2875 -0.4166  1.5814
   95DMF     C1 1618   0.113   2.775   2.861 -0.4693  0.7285 -0.2657
   95DMF     N1 1619   0.244   2.752   2.787 -0.1753 -0.4682  0.1576
   95DMF     C2 1620   0.305   2.860   2.710 -0.5225 -0.3959 -0.5145
   95DMF     C3 1621   0.319   2.635   2.807  0.2196 -0.5508 -0.3044
   95DMF     O1 1622   0.270   2.536   2.865 -0.6732  0.1850  0.0716
   95DMF     H1 1623   0.119   2.877   2.901  3.5596  1.3264 -2.0790
   95DMF     H2 1624   0.099   2.693   2.932 -1.5445 -0.1715 -1.5067
   95DMF     H3 1625   0.042   2.754   2.781  0.6557 -1.0070 -0.8443
   95DMF     H4 1626   0.234   2.941   2.689  1.0823  1.3077  0.4256
   95DMF     H5 1627   0.347   2.819   2.617 -0.1986 -0.1560 -0.4750
   95DMF     H6 1628   0.387   2.906   2.768 -2.1550  1.4411  0.3939
   95DMF     H7 1629   0.422   2.637   2.767  1.1711  1.7664  2.1494
   96DMF     C1 1630   1.150   3.416   2.654 -0.0678 -0.9300  0.3292
   96DMF     N1 1631   1.051   3.471   2.759  0.3050 -0.5545  0.3402
   96DMF     C2 1632   0.904   3.461   2.724  0.1577 -0.0489 -0.5312
   96DMF     C3 1633   1.099   3.558   2.856 -0.2033 -0.2498 -0.3044
   96DMF     O1 1634   1.216   3.577   2.877  0.3267 -0.1698 -0.0137
   96DMF     H1 1635   1.235   3.368   2.703  2.0595  1.3860 -0.9430
   96DMF     H2 1636   1.197   3.504   2.608 -0.4081 -1.1005 -0.3522
   96DMF     H3 1637   1.097   3.348   2.586 -1.4645  0.2906  0.1816
   96DMF     H4 1638   0.894   3.441   2.617 -1.6141 -0.8844 -0.2301
   96DMF     H5 1639   0.846   3.553   2.742 -0.4420 -0.6875  0.9072
   96DMF     H6 1640   0.857   3.373   2.769  3.5112 -3.0422 -2.5894
   96DMF     H7 1641   1.020   3.604   2.918  1.4953 -0.3177  1.9914
   97DMF     C1 1642   1.217   1.549   2.851  0.2180  0.3627  0.4705
   97DMF     N1 1643   1.176   1.521   2.713  0.4752  0.9065 -0.0047
   97DMF     C2 1644   1.279   1.481   2.614 -0.5616 -0.1759  0.4819
   97DMF     C3 1645   1.044   1.546   2.680  0.6728  0.3362 -0.1487
   97DMF     O1 1646   0.961   1.606   2.754  0.0276 -0.0577 -0.2906
   97DMF     H1 1647   1.213   1.458   2.912 -0.5557  0.9513  1.2930
   97DMF     H2 1648   1.154   1.629   2.890 -0.5266  1.0862 -2.0856
   97DMF     H3 1649   1.322   1.583   2.846  0.8685 -1.8309 -2.3841
   97DMF     H4 1650   1.290   1.560   2.539 -0.4556 -0.7641 -0.1322
   97DMF     H5 1651   1.258   1.383   2.569  0.5690  0.3809 -1.3422
   97DMF     H6 1652   1.371   1.486   2.673  0.3310  1.6822 -0.9995
   97DMF     H7 1653   1.014   1.529   2.575 -2.2129  0.9538  0.5427
   98DMF     C1 1654   3.028   1.852   1.395 -0.0667  0.3052  0.1070
   98DMF     N1 1655   3.093   1.968   1.464  0.3588 -0.4639  0.2942
   98DMF     C2 1656   2.996   2.061   1.539 -0.9345 -0.7087 -0.0034
   98DMF     C3 1657   3.232   1.985   1.485 -0.5591  0.1399  0.3011
   98DMF     O1 1658   3.313   1.905   1.437 -0.1814 -0.0503 -0.1112
   98DMF     H1 1659   3.104   1.783   1.355  0.7411  1.1803  0.1066
   98DMF     H2 1660   2.968   1.896   1.314  0.8510 -0.7583 -1.1801
   98DMF     H3 1661   2.964   1.794   1.462  0.0433 -1.0325 -0.9156
   98DMF     H4 1662   3.066   2.124   1.596  0.4273 -2.0080 -0.2023
   98DMF     H5 1663   2.927   2.004   1.603 -1.7695 -0.4333 -0.6544
   98DMF     H6 1664   2.934   2.115   1.467  2.6846  1.3408 -1.7249
   98DMF     H7 1665   3.266   2.062   1.556  2.0284 -2.2061  1.6991
   99DMF     C1 1666   0.297   0.484   0.097 -0.1057 -0.3799 -0.5194
   99DMF     N1 1667   0.335   0.553   0.222 -0.3739  0.3030 -0.5163
   99DMF     C2 1668   0.478   0.558   0.258  0.2280 -0.0616  0.1956
   99DMF     C3 1669   0.241   0.611   0.300  0.2202  0.8277  0.7880
   99DMF     O1 1670   0.123   0.624   0.282  0.0698  0.4492  0.3198
   99DMF     H1 1671   0.252   0.386   0.117 -2.2107  0.2548 -1.9804
   99DMF     H2 1672   0.384   0.468   0.032  0.0673  0.5700 -0.5336
   99DMF     H3 1673   0.224   0.542   0.039  0.1259  1.4385  0.9550
   99DMF     H4 1674   0.536   0.601   0.175 -0.0011 -0.0473  0.0411
   99DMF     H5 1675   0.505   0.453   0.276  0.8655  0.0930  0.1416
   99DMF     H6 1676   0.492   0.618   0.349  1.5217 -0.5328  0.3205
   99DMF     H7 1677   0.287   0.634   0.398  2.7787 -1.5119  0.1985
  100DMF     C1 1678   0.877   2.926   3.209 -0.0620  0.3110  0.0684
  100DMF     N1 1679   0.769   2.826   3.208 -0.4134 -0.2841 -0.1753
  100DMF     C2 1680   0.721   2.780   3.080  0.0522 -0.9374  1.0261
  100DMF     C3 1681   0.703   2.792   3.326  0.8584  0.0105  0.5198
  100DMF     O1 1682   0.719   2.853   3.427  0.4569  0.0267  1.0958
  100DMF     H1 1683   0.962   2.896   3.146 -0.3502  1.1018 -0.7073
  100DMF     H2 1684   0.918   2.944   3.310 -0.3590  0.2378  0.2028
  100DMF     H3 1685   0.829   3.020   3.179  2.3542  1.1847 -1.2645
  100DMF     H4 1686   0.660   2.689   3.084  0.3236 -1.0853  1.9437
  100DMF     H5 1687   0.798   2.758   3.005  0.1946 -0.3709  1.0062
  100DMF     H6 1688   0.659   2.858   3.035  0.2421 -2.4631 -1.9836
  100DMF     H7 1689   0.616   2.726   3.312 -0.5792  1.0596  3.8671
  101DMF     C1 1690   0.007   0.148   2.350  0.1386 -0.4302  0.6532
  101DMF     N1 1691   0.064   0.016   2.349 -0.0249 -0.2234  0.8891
  101DMF     C2 1692   0.006  -0.085   2.261 -0.0097  1.0582 -0.1335
  101DMF     C3 1693   0.179  -0.015   2.423 -0.5319  0.7749 -0.1419
  101DMF     O1 1694   0.243   0.077   2.478 -0.5038  0.3655 -0.7373
  101DMF     H1 1695  -0.064   0.157   2.433 -2.0516  0.3294 -1.2390
  101DMF     H2 1696  -0.031   0.183   2.253 -1.0537  0.4954  1.4439
  101DMF     H3 1697   0.086   0.222   2.370  0.3306 -0.0204 -1.5012
  101DMF     H4 1698  -0.043  -0.162   2.322 -0.8112  0.1638 -1.8535
  101DMF     H5 1699   0.083  -0.139   2.204 -1.2108 -0.7455 -0.0915
  101DMF     H6 1700  -0.052  -0.030   2.186  1.0454  2.2073 -0.1232
  101DMF     H7 1701   0.208  -0.121   2.420 -0.1141  0.8239  1.5068
  102DMF     C1 1702   0.368   2.927   3.037  0.2529  0.2512 -0.3697
  102DMF     N1 1703   0.372   2.932   3.182  0.1131  0.5781  0.0315
  102DMF     C2 1704   0.322   2.817   3.262  0.2613 -0.3363  0.4811
  102DMF     C3 1705   0.430   3.048   3.243  0.2765  0.0154  0.0959
  102DMF     O1 1706   0.451   3.147   3.174 -0.6299 -0.2298  0.5391
  102DMF     H1 1707   0.335   2.824   3.016 -0.9793 -0.2157  3.3370
  102DMF     H2 1708   0.467   2.949   2.996  0.4433  0.2937  0.1099
  102DMF     H3 1709   0.299   3.003   2.999  1.7581  0.8912 -1.8786
  102DMF     H4 1710   0.353   2.830   3.366 -0.2155 -0.7939  0.6845
  102DMF     H5 1711   0.370   2.727   3.222  1.3078  0.6611 -0.5546
  102DMF     H6 1712   0.212   2.815   3.260  0.2239  0.9944  0.7653
  102DMF     H7 1713   0.452   3.035   3.351 -1.1419  0.3872  0.4404
  103DMF     C1 1714   0.498   1.680   1.016  0.2571 -0.0981 -0.3630
  103DMF     N1 1715   0.618   1.618   1.065  0.2393 -0.2142  0.2243
  103DMF     C2 1716   0.605   1.542   1.188  0.2632  0.2073 -0.6863
  103DMF     C3 1717   0.741   1.637   0.993 -0.7783  0.0569 -0.3638
  103DMF     O1 1718   0.749   1.693   0.880  0.1349 -0.0348  0.1721
  103DMF     H1 1719   0.419   1.612   0.983  0.4068  0.4170 -1.8062
  103DMF     H2 1720   0.526   1.741   0.930 -0.2935  2.6060  1.3185
  103DMF     H3 1721   0.463   1.749   1.094 -0.3998  0.6281 -1.3028
  103DMF     H4 1722   0.503   1.555   1.227  1.2537 -0.2492  2.1744
  103DMF     H5 1723   0.667   1.577   1.271  2.3063 -3.2615 -0.6685
  103DMF     H6 1724   0.620   1.433   1.179 -1.9849 -0.2184  0.5772
  103DMF     H7 1725   0.817   1.577   1.047 -2.1007 -0.7726  0.6098
  104DMF     C1 1726   3.271   1.388   0.482 -0.8265  0.2913  0.8332
  104DMF     N1 1727   3.256   1.507   0.562  0.0273 -0.7982  0.3820
  104DMF     C2 1728   3.123   1.532   0.627  0.2249  0.5370 -0.2543
  104DMF     C3 1729   3.369   1.570   0.607 -0.4452  0.7452 -0.1325
  104DMF     O1 1730   3.483   1.541   0.564  0.5252 -0.1047 -0.2208
  104DMF     H1 1731   3.277   1.415   0.375 -1.4829 -1.6902  0.2635
  104DMF     H2 1732   3.184   1.326   0.507  0.5616 -1.4601  1.4233
  104DMF     H3 1733   3.360   1.330   0.508 -0.8843  0.8145  2.1981
  104DMF     H4 1734   3.109   1.531   0.735  3.2835 -0.0732  0.1822
  104DMF     H5 1735   3.056   1.449   0.601  1.0527 -0.4209  0.6259
  104DMF     H6 1736   3.077   1.625   0.592  0.7967  0.8875 -0.0838
  104DMF     H7 1737   3.351   1.641   0.690  2.0000  1.7057 -0.3690
  105DMF     C1 1738   3.218   1.012   0.153 -0.1555 -0.2012 -0.5956
  105DMF     N1 1739   3.273   0.877   0.167  0.9244  0.5924  0.2685
  105DMF     C2 1740   3.239   0.801   0.293  0.2124 -0.1155  0.5320
  105DMF     C3 1741   3.372   0.827   0.077 -0.0019 -0.5039 -0.1260
  105DMF     O1 1742   3.392   0.868  -0.034  0.3269  0.3278 -0.3871
  105DMF     H1 1743   3.284   1.094   0.186  0.8497 -0.5130 -1.8158
  105DMF     H2 1744   3.126   1.035   0.208  1.0620 -2.1138  2.3782
  105DMF     H3 1745   3.212   1.034   0.046  0.3813 -1.0473 -0.8046
  105DMF     H4 1746   3.130   0.813   0.302  0.6715  4.5761  0.7905
  105DMF     H5 1747   3.289   0.835   0.384  2.3450 -2.0883  0.1721
  105DMF     H6 1748   3.265   0.694   0.285  0.8143  0.0888 -0.3263
  105DMF     H7 1749   3.422   0.737   0.117  0.3075  0.6652  2.1962
  106DMF     C1 1750   2.376   2.079   2.653 -0.5472 -0.2399 -0.3128
  106DMF     N1 1751   2.434   2.124   2.781 -0.1549  0.5428 -0.3195
  106DMF     C2 1752   2.479   2.260   2.792 -0.1965 -0.4025 -0.2918
  106DMF     C3 1753   2.436   2.038   2.889 -0.1941 -0.1213 -0.2954
  106DMF     O1 1754   2.395   1.922   2.880  0.2575  0.4575  0.3828
  106DMF     H1 1755   2.289   2.015   2.671 -2.0035  1.8137  0.0709
  106DMF     H2 1756   2.456   2.029   2.597 -1.5004  0.7103 -2.5635
  106DMF     H3 1757   2.340   2.161   2.589 -0.5480  0.6768  0.8439
  106DMF     H4 1758   2.506   2.295   2.892 -1.9747  2.0213 -0.5979
  106DMF     H5 1759   2.418   2.334   2.739  0.9046  0.8799  0.1937
  106DMF     H6 1760   2.569   2.272   2.730 -0.2184  0.5320 -0.1508
  106DMF     H7 1761   2.460   2.084   2.986  1.2349 -2.1503  0.3343
  107DMF     C1 1762   1.992   0.674   0.403 -0.3481  0.6926 -0.0503
  107DMF     N1 1763   1.942   0.577   0.497  0.1206 -0.2432 -0.2201
  107DMF     C2 1764   1.809   0.516   0.463  0.0637  0.7175 -0.1671
  107DMF     C3 1765   1.992   0.553   0.629  0.0508  0.0069  0.1474
  107DMF     O1 1766   2.104   0.595   0.664  0.0814 -0.6242 -1.0446
  107DMF     H1 1767   1.914   0.718   0.339 -1.5845 -1.1982  0.1399
  107DMF     H2 1768   2.069   0.630   0.340 -1.9826 -0.7696 -1.0788
  107DMF     H3 1769   2.023   0.766   0.455 -1.6122  1.2864 -0.3122
  107DMF     H4 1770   1.769   0.472   0.555 -1.0076 -0.1559 -1.0299
  107DMF     H5 1771   1.815   0.430   0.395 -2.0851  0.8084 -0.5125
  107DMF     H6 1772   1.737   0.589   0.425  0.1088  0.5741 -0.5347
  107DMF     H7 1773   1.923   0.506   0.701  0.3936  1.1310  1.2279
  108DMF     C1 1774   2.034   3.423   0.233 -0.4528  0.2989  0.4955
  108DMF     N1 1775   1.927   3.523   0.204 -0.1937  0.1125 -0.3836
  108DMF     C2 1776   1.873   3.606   0.307 -0.5709 -0.4387 -0.2438
  108DMF     C3 1777   1.859   3.515   0.085  0.1184  0.4853  0.3834
  108DMF     O1 1778   1.879   3.425   0.006  0.0529  0.5834 -0.1467
  108DMF     H1 1779   2.021   3.376   0.332  0.4125  0.5673  0.7394
  108DMF     H2 1780   2.135   3.465   0.228  0.3218 -1.4552  0.8376
  108DMF     H3 1781   2.034   3.333   0.170  1.0199 -2.4849  4.2427
  108DMF     H4 1782   1.808   3.543   0.368  2.4563 -1.1215  2.4350
  108DMF     H5 1783   1.817   3.687   0.259  0.3960 -0.8997 -2.2204
  108DMF     H6 1784   1.959   3.640   0.366  1.9165 -0.4749 -3.6677
  108DMF     H7 1785   1.769   3.580   0.085  0.0009  0.4029 -3.0748
  109DMF     C1 1786   1.864   3.390   0.663 -0.3913  0.7049  0.0601
  109DMF     N1 1787   1.831   3.484   0.775 -0.3058  0.9318 -0.8113
  109DMF     C2 1788   1.776   3.424   0.897 -0.4456 -0.7971 -0.3095
  109DMF     C3 1789   1.787   3.614   0.743 -0.1202 -0.4515  0.0136
  109DMF     O1 1790   1.826   3.672   0.643 -0.0590 -0.2729  0.2068
  109DMF     H1 1791   1.775   3.343   0.619 -0.0274 -0.5066  0.6161
  109DMF     H2 1792   1.939   3.318   0.697 -1.1043 -0.0806 -0.0193
  109DMF     H3 1793   1.908   3.445   0.579 -2.1140  1.0824 -0.6267
  109DMF     H4 1794   1.672   3.397   0.872 -0.9932  0.7081  0.2689
  109DMF     H5 1795   1.774   3.481   0.990  0.5313  0.1171 -0.8395
  109DMF     H6 1796   1.831   3.332   0.919  0.8110  0.2292  0.8352
  109DMF     H7 1797   1.714   3.654   0.816  0.5920  2.8460 -1.0090
  110DMF     C1 1798   2.563   0.996   0.153 -0.1603  0.0743 -0.0961
  110DMF     N1 1799   2.678   1.052   0.085  0.5252 -0.3841 -0.6798
  110DMF     C2 1800   2.808   0.984   0.104 -0.6397 -0.3855 -0.5234
  110DMF     C3 1801   2.662   1.173   0.003 -1.1898 -0.0855 -0.5589
  110DMF     O1 1802   2.551   1.224  -0.012 -0.0663 -0.6396 -0.0925
  110DMF     H1 1803   2.487   1.071   0.182  1.8875  1.8356  0.8855
  110DMF     H2 1804   2.590   0.935   0.240 -3.4784 -2.8984 -1.0481
  110DMF     H3 1805   2.515   0.930   0.081 -0.3978  1.7496 -1.5082
  110DMF     H4 1806   2.842   1.008   0.206  0.5614 -0.3647 -0.9197
  110DMF     H5 1807   2.889   1.032   0.048  0.6876  1.6974  2.9994
  110DMF     H6 1808   2.818   0.876   0.091  1.8607  0.2714 -5.1580
  110DMF     H7 1809   2.755   1.216  -0.037 -0.3017 -0.1492  1.3493
  111DMF     C1 1810   1.265   1.862   2.579 -0.2032  0.4301 -0.3912
  111DMF     N1 1811   1.354   1.917   2.691 -0.2826  0.2284  0.4649
  111DMF     C2 1812   1.294   1.946   2.823  0.3338 -0.3204  0.1886
  111DMF     C3 1813   1.489   1.929   2.669 -0.0227  0.6624  0.8806
  111DMF     O1 1814   1.545   1.912   2.565 -0.3804  0.0599 -0.1205
  111DMF     H1 1815   1.168   1.838   2.625  0.1596  0.4857  0.4220
  111DMF     H2 1816   1.308   1.774   2.529  1.7762  0.2628  1.4704
  111DMF     H3 1817   1.243   1.942   2.507  2.5640  0.7046 -0.9982
  111DMF     H4 1818   1.368   2.005   2.879 -1.5116  0.9360  1.3298
  111DMF     H5 1819   1.277   1.853   2.878  0.1899 -0.0892  0.5338
  111DMF     H6 1820   1.201   2.002   2.807  0.2088 -0.5444  0.1263
  111DMF     H7 1821   1.539   1.971   2.759  0.3172 -0.7822  1.3838
  112DMF     C1 1822   1.206   0.507   1.489 -0.3011 -0.6296 -0.2615
  112DMF     N1 1823   1.176   0.379   1.558  0.3079  0.5234  0.2344
  112DMF     C2 1824   1.034   0.345   1.581 -0.5852  0.2319 -0.4377
  112DMF     C3 1825   1.275   0.288   1.601  0.6989  0.2063  0.4808
  112DMF     O1 1826   1.396   0.311   1.597  1.2609 -0.6631 -0.1744
  112DMF     H1 1827   1.276   0.499   1.405  0.5181 -3.5766  0.6358
  112DMF     H2 1828   1.251   0.582   1.555 -0.3050  0.0094 -0.9770
  112DMF     H3 1829   1.113   0.546   1.444  0.2626  1.7592  0.5504
  112DMF     H4 1830   0.992   0.415   1.654  1.7180  2.5130 -1.1889
  112DMF     H5 1831   1.025   0.243   1.620 -1.3032  0.0912 -0.9716
  112DMF     H6 1832   0.976   0.355   1.489 -0.8355  4.6701  0.0525
  112DMF     H7 1833   1.235   0.193   1.641  0.3461 -0.0477 -0.4650
  113DMF     C1 1834   0.574   1.104   2.263 -0.0243  0.9288  0.6358
  113DMF     N1 1835   0.541   1.133   2.403 -0.2180  0.2337  0.4066
  113DMF     C2 1836   0.571   1.269   2.445 -0.5122  0.2641 -0.6795
  113DMF     C3 1837   0.535   1.028   2.498  0.5910 -0.3526  0.1804
  113DMF     O1 1838   0.531   0.907   2.476  0.8205 -0.1970 -0.0417
  113DMF     H1 1839   0.579   1.201   2.214  0.8916  0.6252  0.1060
  113DMF     H2 1840   0.495   1.038   2.224  0.7249 -0.5235  1.4917
  113DMF     H3 1841   0.669   1.049   2.257 -0.5345 -0.2164  2.5879
  113DMF     H4 1842   0.479   1.321   2.475  0.6942  2.2402 -0.3587
  113DMF     H5 1843   0.628   1.326   2.371  0.8803 -2.1744 -1.5480
  113DMF     H6 1844   0.632   1.271   2.536  2.3024 -0.4498 -2.4988
  113DMF     H7 1845   0.541   1.066   2.602 -1.0796 -1.1059  0.5575
  114DMF     C1 1846   0.556   0.333   1.147  0.1184 -0.4015 -0.2062
  114DMF     N1 1847   0.657   0.227   1.142 -0.2890  0.2518 -0.3463
  114DMF     C2 1848   0.691   0.150   1.266  0.5968 -0.5079  0.3321
  114DMF     C3 1849   0.716   0.194   1.018 -0.0367  0.3543  0.3971
  114DMF     O1 1850   0.697   0.252   0.915  0.0355 -0.3610  0.5864
  114DMF     H1 1851   0.614   0.424   1.162 -1.9010  1.0113 -0.8017
  114DMF     H2 1852   0.489   0.313   1.232 -0.7451  1.0910 -0.5327
  114DMF     H3 1853   0.503   0.331   1.051  0.5854 -1.2234 -0.4509
  114DMF     H4 1854   0.660   0.211   1.352 -1.6220 -0.3907 -0.5253
  114DMF     H5 1855   0.795   0.116   1.269  0.8689  0.3207  0.3128
  114DMF     H6 1856   0.624   0.063   1.273 -1.7436  1.2471  0.2554
  114DMF     H7 1857   0.786   0.109   1.022  1.2485  1.3428 -0.5114
  115DMF     C1 1858   2.396   2.475   1.227  0.2163  0.0337 -0.8870
  115DMF     N1 1859   2.338   2.494   1.087  0.3856 -0.7476 -0.2198
  115DMF     C2 1860   2.229   2.401   1.054 -0.6926 -0.1022  0.6302
  115DMF     C3 1861   2.369   2.606   1.008  0.6766 -0.3434 -0.6182
  115DMF     O1 1862   2.458   2.684   1.041 -0.3173  0.3338  0.1169
  115DMF     H1 1863   2.452   2.382   1.242  0.2564  0.1825 -0.1279
  115DMF     H2 1864   2.325   2.493   1.308  1.2770  1.3554 -0.2288
  115DMF     H3 1865   2.468   2.555   1.246 -2.4448  1.9891  1.1811
  115DMF     H4 1866   2.220   2.316   1.123  0.4110  0.0155  0.9194
  115DMF     H5 1867   2.226   2.364   0.951 -0.2182 -1.5986  1.1528
  115DMF     H6 1868   2.141   2.463   1.077 -0.8209 -0.6869  1.7489
  115DMF     H7 1869   2.296   2.618   0.925  0.4465  0.5812 -0.2879
  116DMF     C1 1870   1.856   0.202   2.805 -0.0288  0.7569 -0.5052
  116DMF     N1 1871   1.802   0.259   2.685  0.1636 -0.1369 -0.3047
  116DMF     C2 1872   1.872   0.369   2.625 -0.4632  0.0217 -0.6464
  116DMF     C3 1873   1.703   0.195   2.613 -0.1188 -0.2276 -0.9396
  116DMF     O1 1874   1.640   0.097   2.648 -0.4854 -0.0227  0.7520
  116DMF     H1 1875   1.911   0.270   2.870 -0.6287  0.1417  0.6564
  116DMF     H2 1876   1.922   0.121   2.773  0.4035 -0.0164  2.2709
  116DMF     H3 1877   1.775   0.154   2.861  0.6053 -0.2567 -0.4476
  116DMF     H4 1878   1.813   0.460   2.606 -0.7097  0.4003  1.6765
  116DMF     H5 1879   1.917   0.321   2.538  1.9560 -0.4959  0.8327
  116DMF     H6 1880   1.957   0.401   2.687 -1.2398  0.8176  0.0307
  116DMF     H7 1881   1.690   0.254   2.521 -1.7910 -0.9099 -1.1526
  117DMF     C1 1882   1.754   1.032   1.524  0.0971  0.4906 -0.3981
  117DMF     N1 1883   1.624   1.025   1.444 -0.1174 -0.2737 -0.4805
  117DMF     C2 1884   1.499   1.043   1.516  0.3518  0.5895  0.3593
  117DMF     C3 1885   1.631   1.014   1.306  0.4555 -0.6324  0.5716
  117DMF     O1 1886   1.733   0.970   1.250 -0.0910 -0.2057  0.2367
  117DMF     H1 1887   1.781   0.930   1.555 -2.2206  0.2971  1.1752
  117DMF     H2 1888   1.737   1.103   1.607  1.4104  2.2429 -1.5935
  117DMF     H3 1889   1.838   1.067   1.463 -0.0259 -2.2945 -2.2320
  117DMF     H4 1890   1.443   1.131   1.482  1.0144  1.0855  0.5460
  117DMF     H5 1891   1.514   1.063   1.623  1.6700  0.8249  0.1322
  117DMF     H6 1892   1.443   0.951   1.493  1.5857 -0.4721  1.5690
  117DMF     H7 1893   1.532   1.035   1.260  0.9588  1.1223  0.2173
  118DMF     C1 1894   3.097   0.427   2.284 -0.5321 -0.4108  0.1054
  118DMF     N1 1895   3.004   0.531   2.254  0.4460 -0.3058 -0.4110
  118DMF     C2 1896   2.856   0.508   2.238 -1.0434  0.5803 -0.6262
  118DMF     C3 1897   3.060   0.651   2.212 -0.1469  0.0885  0.7411
  118DMF     O1 1898   3.175   0.675   2.234 -0.3834 -0.2197  0.0968
  118DMF     H1 1899   3.160   0.469   2.364  0.9315  0.9485 -1.7333
  118DMF     H2 1900   3.161   0.399   2.200 -1.1925  2.2051 -1.3110
  118DMF     H3 1901   3.044   0.334   2.311  0.1649 -0.5092  1.1488
  118DMF     H4 1902   2.795   0.509   2.329  1.1184 -1.8285  0.9019
  118DMF     H5 1903   2.838   0.416   2.181  0.3824 -1.5562  2.2702
  118DMF     H6 1904   2.819   0.589   2.173 -0.5187  1.1031 -0.2724
  118DMF     H7 1905   2.992   0.723   2.161 -2.0962 -1.0652  1.6531
  119DMF     C1 1906   1.546   1.500   3.089  0.4462  0.4310  0.5604
  119DMF     N1 1907   1.573   1.510   2.944  0.3946 -0.0075  0.1762
  119DMF     C2 1908   1.579   1.380   2.870  0.2064  1.2200 -0.6330
  119DMF     C3 1909   1.569   1.633   2.876  0.8567  0.4487  0.3521
  119DMF     O1 1910   1.531   1.735   2.924 -0.6665  0.0067 -0.0173
  119DMF     H1 1911   1.452   1.445   3.100  2.4027 -3.3834 -0.7206
  119DMF     H2 1912   1.533   1.603   3.126 -1.9792  0.5404 -0.4998
  119DMF     H3 1913   1.629   1.454   3.143  0.4565  0.2820  0.4193
  119DMF     H4 1914   1.478   1.342   2.849  0.8943 -0.0942 -1.7212
  119DMF     H5 1915   1.635   1.306   2.928 -0.8812  1.5843  0.9163
  119DMF     H6 1916   1.625   1.385   2.770 -1.6080  1.3452 -1.4979
  119DMF     H7 1917   1.608   1.620   2.773 -0.8003 -3.8583  0.1950
  120DMF     C1 1918   2.898   3.188   3.119  0.3409  0.3055 -0.0639
  120DMF     N1 1919   2.814   3.156   3.239  0.9965  0.0212  0.6669
  120DMF     C2 1920   2.867   3.068   3.341  0.0704  0.0086  0.5074
  120DMF     C3 1921   2.676   3.203   3.240  0.2518 -0.4422 -0.5174
  120DMF     O1 1922   2.621   3.266   3.159 -0.0796 -0.4282  0.6650
  120DMF     H1 1923   3.004   3.200   3.142  0.7702 -0.2339 -1.7350
  120DMF     H2 1924   2.855   3.271   3.062 -0.1387  0.1257  0.0325
  120DMF     H3 1925   2.892   3.107   3.045  0.3545  0.3026 -0.0611
  120DMF     H4 1926   2.901   2.974   3.295  1.1094  0.2299  0.8137
  120DMF     H5 1927   2.789   3.055   3.417 -1.7609 -1.2379 -1.5192
  120DMF     H6 1928   2.961   3.104   3.384  1.0639 -0.7805 -0.9567
  120DMF     H7 1929   2.628   3.160   3.329 -0.8453  1.6376 -0.0751
  121DMF     C1 1930   1.936   3.249   2.388  0.0358  0.0797 -0.0647
  121DMF     N1 1931   2.079   3.226   2.355 -0.1632 -0.4128 -0.5007
  121DMF     C2 1932   2.144   3.333   2.282  0.1821  0.0512  0.9867
  121DMF     C3 1933   2.142   3.104   2.364  0.5206  0.3623 -0.0954
  121DMF     O1 1934   2.082   3.003   2.407 -0.0932  0.0343  0.3797
  121DMF     H1 1935   1.889   3.320   2.319  0.5277  2.8329  2.3415
  121DMF     H2 1936   1.933   3.300   2.485  0.2193 -1.0011  0.5199
  121DMF     H3 1937   1.880   3.155   2.381 -1.1365  0.7506  0.2266
  121DMF     H4 1938   2.232   3.301   2.224 -0.4517  0.1407 -0.0323
  121DMF     H5 1939   2.173   3.419   2.344  0.3991 -0.1786  1.2049
  121DMF     H6 1940   2.076   3.375   2.207 -1.0757 -0.9563  1.5459
  121DMF     H7 1941   2.247   3.096   2.330  0.4432 -0.4686 -0.1525
  122DMF     C1 1942   0.452   0.496   1.521  0.1049  0.5503  0.2191
  122DMF     N1 1943   0.585   0.557   1.542  0.7252 -0.4965 -0.3799
  122DMF     C2 1944   0.696   0.470   1.570 -0.2424  0.3559 -0.1593
  122DMF     C3 1945   0.588   0.694   1.577  0.3445 -0.0276  0.2574
  122DMF     O1 1946   0.490   0.765   1.560  0.1969  0.2077 -0.3329
  122DMF     H1 1947   0.385   0.522   1.604  1.0753  1.2889  0.7931
  122DMF     H2 1948   0.451   0.386   1.523 -1.1924  0.4931 -1.6952
  122DMF     H3 1949   0.421   0.540   1.425 -1.0549 -0.7224 -0.0033
  122DMF     H4 1950   0.727   0.444   1.467 -0.9910 -0.0040 -0.3038
  122DMF     H5 1951   0.660   0.379   1.619  0.5396  0.2226  0.1671
  122DMF     H6 1952   0.768   0.519   1.636  1.8668 -1.5789 -0.9152
  122DMF     H7 1953   0.688   0.730   1.610 -0.0150  0.7317  0.5114
  123DMF     C1 1954   2.534   1.993   3.478 -0.0163  0.1423  0.3440
  123DMF     N1 1955   2.395   2.016   3.503 -0.1840  0.6108  0.4210
  123DMF     C2 1956   2.311   2.037   3.384  0.2301 -0.0369 -0.3387
  123DMF     C3 1957   2.357   2.049   3.629  0.0051  0.4221 -0.2071
  123DMF     O1 1958   2.424   2.030   3.733  0.4105 -0.5659 -0.4375
  123DMF     H1 1959   2.583   2.089   3.460  1.4165 -0.2736  1.8836
  123DMF     H2 1960   2.546   1.939   3.384  0.0271  0.9097 -0.0918
  123DMF     H3 1961   2.577   1.937   3.563 -0.5066 -1.5963 -0.5375
  123DMF     H4 1962   2.310   1.946   3.323  1.8979  0.9903 -1.9265
  123DMF     H5 1963   2.339   2.120   3.319 -1.8328 -0.0072 -1.2435
  123DMF     H6 1964   2.207   2.066   3.407  0.4140 -0.0726  0.5305
  123DMF     H7 1965   2.254   2.088   3.620  0.7054  2.4058  0.1080
  124DMF     C1 1966   0.539   0.961   0.288  0.4158 -0.3862 -0.4684
  124DMF     N1 1967   0.636   1.042   0.362 -0.2652 -0.4329 -0.1945
  124DMF     C2 1968   0.666   1.177   0.308  0.3311 -0.6894  0.5316
  124DMF     C3 1969   0.738   0.979   0.439 -0.2389 -0.3971 -0.1076
  124DMF     O1 1970   0.742   0.856   0.451  0.0784 -0.2064  0.0820
  124DMF     H1 1971   0.580   0.884   0.222  2.0806  1.3631 -1.5203
  124DMF     H2 1972   0.476   1.022   0.222  0.1739  1.8269  1.7198
  124DMF     H3 1973   0.470   0.910   0.357  1.5222 -2.0351 -0.5667
  124DMF     H4 1974   0.569   1.220   0.280  0.8388 -0.1962 -0.5040
  124DMF     H5 1975   0.732   1.159   0.222 -0.7586  0.1442 -0.5025
  124DMF     H6 1976   0.724   1.240   0.377  2.5060 -2.0686  0.0044
  124DMF     H7 1977   0.813   1.047   0.483  1.1259 -1.3020 -1.0151
  125DMF     C1 1978   2.068   2.972   3.259  0.7060  0.3062  0.6014
  125DMF     N1 1979   1.979   2.852   3.265  0.5596 -0.3309 -0.0972
  125DMF     C2 1980   1.884   2.839   3.159 -0.6792  0.0611 -0.0654
  125DMF     C3 1981   2.006   2.736   3.346  0.0443  0.7068  0.5590
  125DMF     O1 1982   2.094   2.733   3.430 -0.2366  0.0003 -0.1031
  125DMF     H1 1983   2.171   2.940   3.280  0.2231 -0.4654  1.8849
  125DMF     H2 1984   2.052   3.048   3.336  0.6880  1.3881 -0.4556
  125DMF     H3 1985   2.070   3.016   3.159 -0.6525 -0.8380  0.0655
  125DMF     H4 1986   1.938   2.789   3.078  1.2230  0.6869  0.7777
  125DMF     H5 1987   1.861   2.941   3.127  0.1239  0.6079  1.0497
  125DMF     H6 1988   1.795   2.777   3.178 -0.1599 -1.1474 -1.4496
  125DMF     H7 1989   1.932   2.656   3.328 -0.8371  1.7279 -0.5072
  126DMF     C1 1990   2.144   3.020   0.824  0.6027  0.3790  0.3539
  126DMF     N1 1991   2.175   2.990   0.687 -0.5152 -0.0176  0.1007
  126DMF     C2 1992   2.152   3.101   0.588  0.3059 -0.6750  0.9315
  126DMF     C3 1993   2.257   2.877   0.654 -0.0649 -0.0398  0.3281
  126DMF     O1 1994   2.295   2.797   0.730  0.0092  0.0791 -0.3285
  126DMF     H1 1995   2.230   3.045   0.887  0.9703  0.9203 -0.3543
  126DMF     H2 1996   2.095   2.933   0.869  0.0312 -0.3608 -1.6581
  126DMF     H3 1997   2.083   3.112   0.828  2.1745  1.5487 -1.6629
  126DMF     H4 1998   2.058   3.156   0.599  1.2359  1.2196 -0.3170
  126DMF     H5 1999   2.157   3.073   0.482  3.3781 -0.5231  0.9996
  126DMF     H6 2000   2.231   3.174   0.606 -1.1763  0.8717  1.3056
  126DMF     H7 2001   2.278   2.873   0.546 -1.3499  2.5510 -0.0581
  127DMF     C1 2002   2.566   0.171   2.255  0.3811 -0.9072  0.5984
  127DMF     N1 2003   2.467   0.278   2.296  0.7669  0.2150 -0.4011
  127DMF     C2 2004   2.527   0.409   2.329  0.0842 -0.3773 -0.0460
  127DMF     C3 2005   2.332   0.266   2.272 -0.4436 -0.9487 -0.1072
  127DMF     O1 2006   2.284   0.165   2.230  0.0773 -0.2982 -0.3123
  127DMF     H1 2007   2.648   0.159   2.327  1.8525  0.2463 -0.8379
  127DMF     H2 2008   2.624   0.206   2.168  0.4085 -0.4305  0.8087
  127DMF     H3 2009   2.524   0.071   2.238  1.2333 -1.2367  0.3688
  127DMF     H4 2010   2.454   0.461   2.392  0.2785 -0.5463  0.3152
  127DMF     H5 2011   2.538   0.470   2.239  0.9842  1.3840  1.2361
  127DMF     H6 2012   2.626   0.396   2.374 -1.0272 -0.6215  2.4130
  127DMF     H7 2013   2.275   0.352   2.311  1.1894 -0.3135  0.9590
  128DMF     C1 2014   0.943   2.089   0.097  0.0384  0.8482  0.0887
  128DMF     N1 2015   0.832   2.186   0.072  0.3885  1.0056 -0.6251
  128DMF     C2 2016   0.851   2.333   0.086  0.0507  0.5542 -0.0033
  128DMF     C3 2017   0.714   2.127   0.025 -0.7091  0.0899 -0.1742
  128DMF     O1 2018   0.693   2.008   0.006 -0.0606  0.0867  0.4365
  128DMF     H1 2019   0.934   2.043   0.197 -0.1406  1.1108  0.1939
  128DMF     H2 2020   1.045   2.129   0.084 -0.6202  2.6004  0.1460
  128DMF     H3 2021   0.928   2.010   0.023  0.8918  0.6431  0.1329
  128DMF     H4 2022   0.947   2.366   0.126  0.2930 -0.0887 -0.0468
  128DMF     H5 2023   0.773   2.365   0.156 -0.6983 -2.1130  0.4352
  128DMF     H6 2024   0.846   2.381  -0.012  2.5052  0.2011 -0.3121
  128DMF     H7 2025   0.635   2.201   0.002 -0.7773  0.4302  1.1108
  129DMF     C1 2026   0.550   1.111   1.215  0.3023  0.3325  0.1135
  129DMF     N1 2027   0.494   1.028   1.319 -0.2263  0.2803  0.1381
  129DMF     C2 2028   0.413   0.900   1.286 -0.1295  0.0070  0.0808
  129DMF     C3 2029   0.522   1.058   1.451 -0.0674  0.0711 -0.2792
  129DMF     O1 2030   0.599   1.149   1.483 -0.1548  0.3188  0.1816
  129DMF     H1 2031   0.497   1.095   1.121 -1.6641 -0.4955  1.3330
  129DMF     H2 2032   0.645   1.066   1.185 -0.1645  0.9843 -2.4524
  129DMF     H3 2033   0.552   1.216   1.248  2.1289 -0.2735  2.0507
  129DMF     H4 2034   0.451   0.809   1.334  2.2605  0.7616 -0.2894
  129DMF     H5 2035   0.419   0.887   1.178  2.7385  2.5211 -0.1325
  129DMF     H6 2036   0.309   0.909   1.319 -0.7304 -2.5880 -1.0116
  129DMF     H7 2037   0.484   0.987   1.527  2.1432  1.3371  2.0884
  130DMF     C1 2038   0.560   2.298   3.062 -0.5575  0.1563  0.9213
  130DMF     N1 2039   0.705   2.322   3.036  0.2501  0.1587 -0.1855
  130DMF     C2 2040   0.755   2.288   2.897  0.1899 -0.4712 -0.0630
  130DMF     C3 2041   0.782   2.409   3.120  0.8513 -0.0210  0.0062
  130DMF     O1 2042   0.744   2.441   3.233 -0.1918 -0.9042 -0.5965
  130DMF     H1 2043   0.540   2.190   3.072  0.6978 -0.1081  0.6659
  130DMF     H2 2044   0.505   2.334   2.975  0.5586 -1.8690 -0.6785
  130DMF     H3 2045   0.534   2.358   3.150 -0.7803  0.8842  0.3611
  130DMF     H4 2046   0.672   2.266   2.829 -1.0491 -0.1838  1.3236
  130DMF     H5 2047   0.830   2.209   2.909 -1.8671 -2.0527  3.2375
  130DMF     H6 2048   0.800   2.373   2.845  1.4931 -0.7336  0.6216
  130DMF     H7 2049   0.883   2.428   3.079 -0.0265 -0.7248 -2.5249
  131DMF     C1 2050   0.307   2.946   2.278  0.8509  0.3976 -1.0140
  131DMF     N1 2051   0.431   3.007   2.253  0.7143 -0.6033  0.0176
  131DMF     C2 2052   0.554   2.920   2.268 -0.2252  0.8767  0.2702
  131DMF     C3 2053   0.447   3.144   2.237 -0.4472  0.3262 -0.0786
  131DMF     O1 2054   0.354   3.223   2.239 -0.0139  0.1266 -0.8813
  131DMF     H1 2055   0.236   2.975   2.200 -0.2145  2.3456  0.6387
  131DMF     H2 2056   0.273   2.976   2.378  0.2129 -0.2808 -1.0232
  131DMF     H3 2057   0.315   2.836   2.276  0.2031  0.3556 -1.2962
  131DMF     H4 2058   0.638   2.982   2.301 -0.6233  1.0579  0.9434
  131DMF     H5 2059   0.571   2.871   2.171 -0.0631  2.2782 -0.4240
  131DMF     H6 2060   0.527   2.845   2.343  0.4674  0.4150  0.0680
  131DMF     H7 2061   0.554   3.168   2.222  0.2660 -2.2546  0.6654
  132DMF     C1 2062   1.449   1.297   0.328 -0.3426  0.7527 -0.3257
  132DMF     N1 2063   1.575   1.231   0.374  0.7220  0.4422 -0.0768
  132DMF     C2 2064   1.600   1.252   0.516  1.0282 -0.0795 -0.3812
  132DMF     C3 2065   1.663   1.168   0.284  0.3147 -0.1823 -0.5587
  132DMF     O1 2066   1.626   1.147   0.170 -0.4595 -0.3439  0.6423
  132DMF     H1 2067   1.395   1.352   0.407 -1.5054  0.9713 -1.2540
  132DMF     H2 2068   1.378   1.214   0.314  0.9322 -0.5750  0.9222
  132DMF     H3 2069   1.471   1.369   0.249  0.4960  0.9508  0.0852
  132DMF     H4 2070   1.510   1.217   0.568 -0.1686  1.0382 -1.6450
  132DMF     H5 2071   1.620   1.359   0.533  2.1152  0.1145 -2.6224
  132DMF     H6 2072   1.691   1.199   0.545 -0.6068 -2.7437  0.0540
  132DMF     H7 2073   1.745   1.116   0.338  0.5288 -0.6974 -1.3812
  133DMF     C1 2074   1.382   0.532   0.045  0.0891 -0.4365 -0.1434
  133DMF     N1 2075   1.389   0.472  -0.085  0.1841 -0.1648 -0.6736
  133DMF     C2 2076   1.433   0.561  -0.206 -0.1306 -0.5549  0.4658
  133DMF     C3 2077   1.339   0.343  -0.105 -0.7706 -0.4448  0.4372
  133DMF     O1 2078   1.312   0.268  -0.009  0.1775  0.1254 -0.2884
  133DMF     H1 2079   1.405   0.639   0.041 -1.0381 -0.1742  0.0736
  133DMF     H2 2080   1.455   0.483   0.110 -1.3873  1.0410  2.7499
  133DMF     H3 2081   1.281   0.521   0.087 -0.2562  0.8533 -0.6125
  133DMF     H4 2082   1.383   0.535  -0.300  0.6825 -2.3735  0.5077
  133DMF     H5 2083   1.542   0.563  -0.213 -0.1861  0.8810  0.0176
  133DMF     H6 2084   1.396   0.662  -0.187  0.9209 -0.0944  0.0728
  133DMF     H7 2085   1.342   0.312  -0.211  1.2189  1.1381  0.0079
  134DMF     C1 2086   0.618   0.233   3.414 -0.3678  0.0592  0.2441
  134DMF     N1 2087   0.560   0.358   3.463  0.6362 -0.2866  0.2588
  134DMF     C2 2088   0.627   0.482   3.431  0.4146  0.3277 -0.0943
  134DMF     C3 2089   0.454   0.366   3.555  0.0313 -0.1825 -0.0472
  134DMF     O1 2090   0.411   0.269   3.617  0.1320 -0.6009 -0.1930
  134DMF     H1 2091   0.726   0.235   3.427 -0.2288  0.4620 -0.9278
  134DMF     H2 2092   0.599   0.221   3.307  0.4543  1.1212 -0.0276
  134DMF     H3 2093   0.594   0.140   3.467  0.8236 -0.2032  0.3314
  134DMF     H4 2094   0.718   0.452   3.379 -0.0600 -0.4591 -0.4767
  134DMF     H5 2095   0.650   0.525   3.530 -1.1354 -2.2398  1.4328
  134DMF     H6 2096   0.556   0.547   3.378  0.3688  0.0093 -0.4217
  134DMF     H7 2097   0.413   0.467   3.572  0.3901 -0.1856  0.8549
  135DMF     C1 2098   0.961   0.438   3.230  0.3762  0.0851  0.1337
  135DMF     N1 2099   1.106   0.422   3.228 -0.3836  0.2776  0.2269
  135DMF     C2 2100   1.180   0.388   3.103  0.6436 -0.6182 -0.3760
  135DMF     C3 2101   1.170   0.430   3.353  0.2099 -0.8610 -0.3581
  135DMF     O1 2102   1.105   0.464   3.448  0.2245 -0.7970 -0.1593
  135DMF     H1 2103   0.931   0.529   3.283 -2.3131 -0.9111  0.4010
  135DMF     H2 2104   0.916   0.347   3.270 -0.5034  1.1494  1.5991
  135DMF     H3 2105   0.919   0.448   3.129  0.2829  1.0811  0.2571
  135DMF     H4 2106   1.114   0.383   3.016  0.5970  3.1034 -0.6406
  135DMF     H5 2107   1.219   0.286   3.105  0.7538 -0.6398 -2.8260
  135DMF     H6 2108   1.245   0.473   3.079 -1.5123  0.5820 -2.2048
  135DMF     H7 2109   1.276   0.398   3.350  0.0939 -1.2453 -0.4240
  136DMF     C1 2110   2.812   2.821   1.562 -0.2158 -0.1225  0.4109
  136DMF     N1 2111   2.802   2.825   1.416  0.3375 -0.3461  0.0538
  136DMF     C2 2112   2.893   2.906   1.338 -0.3304 -1.0085 -0.5305
  136DMF     C3 2113   2.704   2.746   1.357  0.2496 -0.9800  0.5336
  136DMF     O1 2114   2.634   2.678   1.427 -0.1478 -0.2060  0.8196
  136DMF     H1 2115   2.915   2.834   1.598 -1.7289  4.2953  3.4732
  136DMF     H2 2116   2.772   2.722   1.590  2.1824 -1.6572 -1.3814
  136DMF     H3 2117   2.754   2.910   1.588 -2.3660 -0.5447 -2.6397
  136DMF     H4 2118   2.848   2.996   1.293  1.2691  1.2378  2.1879
  136DMF     H5 2119   2.938   2.835   1.269  1.3572 -2.8003  2.3311
  136DMF     H6 2120   2.967   2.951   1.405 -2.4164  0.2899  0.9597
  136DMF     H7 2121   2.702   2.745   1.247  0.9518  1.0697  0.4689
  137DMF     C1 2122   2.815   2.884   2.370  0.1200 -0.8391 -0.3907
  137DMF     N1 2123   2.928   2.843   2.284 -0.1770 -0.2245  0.1823
  137DMF     C2 2124   2.925   2.708   2.228 -0.0880 -0.0716 -0.3897
  137DMF     C3 2125   3.028   2.929   2.252 -0.6479 -0.6958  0.1399
  137DMF     O1 2126   3.038   3.038   2.312  1.1462  0.7308  0.0122
  137DMF     H1 2127   2.802   2.796   2.434 -1.0628 -0.5488 -0.2274
  137DMF     H2 2128   2.726   2.903   2.308 -0.3181 -0.3046  0.4001
  137DMF     H3 2129   2.831   2.965   2.442 -3.0848 -0.2735 -0.2308
  137DMF     H4 2130   2.840   2.689   2.161  1.5258 -0.8600 -2.2607
  137DMF     H5 2131   2.935   2.644   2.317 -1.2266  0.1934 -0.0564
  137DMF     H6 2132   3.009   2.690   2.160 -0.1323 -0.4456 -0.3489
  137DMF     H7 2133   3.108   2.900   2.181 -0.1707 -0.1327  0.4441
  138DMF     C1 2134   1.208   2.256   1.135  0.0394 -0.2182  0.8933
  138DMF     N1 2135   1.081   2.222   1.065  0.7235  0.3641 -0.2423
  138DMF     C2 2136   1.068   2.270   0.924  0.7155 -0.0074 -0.1573
  138DMF     C3 2137   0.975   2.150   1.140 -0.1511  0.5393 -0.1459
  138DMF     O1 2138   0.981   2.138   1.259  0.0669  0.0362  0.2254
  138DMF     H1 2139   1.226   2.186   1.217 -0.6972  0.9667  2.0943
  138DMF     H2 2140   1.205   2.353   1.188 -0.1062  0.4032 -0.2354
  138DMF     H3 2141   1.296   2.266   1.070 -1.5502  0.6838 -1.1590
  138DMF     H4 2142   1.101   2.186   0.862  2.8132  1.1633 -0.6617
  138DMF     H5 2143   1.125   2.361   0.899  0.0955  0.4286 -0.0004
  138DMF     H6 2144   0.963   2.290   0.901  1.6046  1.1883 -3.5178
  138DMF     H7 2145   0.890   2.120   1.076 -0.1691 -1.8897  0.9727
  139DMF     C1 2146   3.273   3.231   1.580 -0.3821  0.5464  0.3369
  139DMF     N1 2147   3.349   3.106   1.567  0.3896 -0.7002  0.3136
  139DMF     C2 2148   3.484   3.117   1.526 -0.3215 -0.2101  0.7397
  139DMF     C3 2149   3.290   2.985   1.581 -0.2750  0.3785  0.0776
  139DMF     O1 2150   3.169   2.964   1.577  0.0957 -0.0897 -0.0876
  139DMF     H1 2151   3.181   3.206   1.634 -0.9530  1.6162 -0.1132
  139DMF     H2 2152   3.253   3.275   1.482  0.7621 -0.1770 -0.2353
  139DMF     H3 2153   3.332   3.302   1.639 -0.6452 -0.7172  2.1611
  139DMF     H4 2154   3.536   3.023   1.505 -0.8287 -0.0069 -1.5472
  139DMF     H5 2155   3.557   3.156   1.598  1.7330 -3.2024  0.3740
  139DMF     H6 2156   3.496   3.175   1.434 -0.8376 -0.4895  0.4950
  139DMF     H7 2157   3.354   2.894   1.577 -1.4466 -0.7109  3.7610
  140DMF     C1 2158   1.199   1.154   3.546 -0.8107  0.0876 -0.0335
  140DMF     N1 2159   1.319   1.120   3.623  0.4037  0.3651  0.0623
  140DMF     C2 2160   1.368   0.981   3.594  0.2067 -0.3185  0.1729
  140DMF     C3 2161   1.347   1.182   3.749 -0.1361 -0.0196  0.6029
  140DMF     O1 2162   1.267   1.264   3.792 -0.8863 -0.1992 -0.3319
  140DMF     H1 2163   1.165   1.255   3.573  0.6718 -0.0602  2.5732
  140DMF     H2 2164   1.121   1.077   3.556  1.1868 -2.4242 -2.8318
  140DMF     H3 2165   1.235   1.158   3.443  0.6826  1.1823  0.5085
  140DMF     H4 2166   1.310   0.953   3.505  0.2085  1.6292 -0.4788
  140DMF     H5 2167   1.340   0.921   3.681 -1.2885  2.1381  1.4404
  140DMF     H6 2168   1.475   0.979   3.570 -0.0027 -0.7997 -0.7158
  140DMF     H7 2169   1.430   1.143   3.810 -0.0336  1.2992  1.3188
  141DMF     C1 2170   1.509   0.760   1.164 -0.3566  0.1458 -0.1495
  141DMF     N1 2171   1.395   0.845   1.150  0.4110  0.3481  0.0569
  141DMF     C2 2172   1.393   0.933   1.024 -0.9328  1.0194 -0.1893
  141DMF     C3 2173   1.293   0.846   1.241  0.0920  0.4015 -0.4818
  141DMF     O1 2174   1.298   0.778   1.341  1.1813  0.4028 -0.5080
  141DMF     H1 2175   1.486   0.656   1.138  0.5304 -0.1628  0.3081
  141DMF     H2 2176   1.560   0.765   1.261 -0.0036 -0.8877 -0.2754
  141DMF     H3 2177   1.587   0.796   1.096 -0.0120 -0.2760  0.0186
  141DMF     H4 2178   1.465   1.015   1.032  1.0152 -0.6734 -0.0149
  141DMF     H5 2179   1.292   0.971   1.003 -1.1941  0.8455  0.7334
  141DMF     H6 2180   1.413   0.874   0.934 -0.3247 -0.2529  0.7680
  141DMF     H7 2181   1.207   0.907   1.209 -1.1633 -1.5059 -0.8042
  142DMF     C1 2182   3.142   2.102   1.026  0.0295 -0.2439 -0.7720
  142DMF     N1 2183   3.247   2.173   1.092  0.0788 -0.1744 -0.7985
  142DMF     C2 2184   3.355   2.103   1.155  0.2382 -0.9185  0.8251
  142DMF     C3 2185   3.245   2.311   1.116 -0.3992 -0.2096 -0.2086
  142DMF     O1 2186   3.159   2.388   1.085  0.2061  0.4396 -0.7552
  142DMF     H1 2187   3.051   2.115   1.086 -0.3884  0.0180 -1.4666
  142DMF     H2 2188   3.168   1.995   1.030  0.1970 -0.1495  1.7310
  142DMF     H3 2189   3.133   2.132   0.921 -2.5865 -1.3925 -0.9206
  142DMF     H4 2190   3.376   2.145   1.254 -0.1175  2.6328 -0.5539
  142DMF     H5 2191   3.450   2.094   1.099  0.2299 -1.8698  0.9490
  142DMF     H6 2192   3.332   1.996   1.156  0.0616 -0.9139 -0.5915
  142DMF     H7 2193   3.334   2.347   1.171 -0.5580  1.2918 -0.9242
  143DMF     C1 2194   2.922   1.332   0.238 -0.0164  0.3410 -0.3432
  143DMF     N1 2195   2.993   1.423   0.156 -0.5325 -0.1961  1.0139
  143DMF     C2 2196   2.976   1.565   0.183 -0.8624 -0.2602  0.3768
  143DMF     C3 2197   3.049   1.375   0.030 -0.2721 -0.0198  0.5147
  143DMF     O1 2198   3.052   1.259  -0.005  0.1213 -0.8391  0.4627
  143DMF     H1 2199   2.891   1.385   0.330  3.1767  0.5906  0.6332
  143DMF     H2 2200   2.993   1.262   0.283  0.2162  0.9985  0.3384
  143DMF     H3 2201   2.839   1.287   0.183  0.0070 -0.1907  0.0544
  143DMF     H4 2202   3.074   1.612   0.170 -1.8756  2.1219  0.9935
  143DMF     H5 2203   2.957   1.574   0.291  2.5389 -3.4858  1.3144
  143DMF     H6 2204   2.902   1.594   0.106 -1.2176  2.5806  1.7114
  143DMF     H7 2205   3.086   1.459  -0.031  2.2162 -2.0118 -0.8099
  144DMF     C1 2206   3.218   1.068   0.721  0.0366 -0.2450 -0.0979
  144DMF     N1 2207   3.351   1.103   0.672  1.0147 -0.1580 -0.1191
  144DMF     C2 2208   3.411   1.042   0.546  0.3172 -0.0354  0.2364
  144DMF     C3 2209   3.426   1.212   0.730  0.5791 -0.1361  0.6388
  144DMF     O1 2210   3.377   1.291   0.811  0.8474  0.5127  0.3033
  144DMF     H1 2211   3.205   1.093   0.827  1.0553 -0.2451  0.0280
  144DMF     H2 2212   3.208   0.958   0.717 -1.6972 -0.1065 -0.0325
  144DMF     H3 2213   3.146   1.116   0.654  1.0672  2.8329  0.9203
  144DMF     H4 2214   3.336   0.970   0.511 -0.5203  1.0568 -0.2598
  144DMF     H5 2215   3.510   0.996   0.554  0.4703  0.0487 -0.9824
  144DMF     H6 2216   3.424   1.119   0.469  1.6153  1.5675  2.0084
  144DMF     H7 2217   3.532   1.224   0.704  0.1301  2.5985  0.0180
  145DMF     C1 2218   2.837   2.098   2.635  0.2399 -0.6465  0.2879
  145DMF     N1 2219   2.964   2.030   2.617 -0.0528 -0.3091  0.0105
  145DMF     C2 2220   2.965   1.890   2.562  0.4420  0.4471  0.0579
  145DMF     C3 2221   3.083   2.104   2.631  0.4118 -0.9269 -0.3403
  145DMF     O1 2222   3.083   2.222   2.663  0.9420 -0.0940 -0.5331
  145DMF     H1 2223   2.753   2.030   2.616  0.0860 -1.0048  2.1345
  145DMF     H2 2224   2.834   2.192   2.579  0.1348 -1.0753 -0.4327
  145DMF     H3 2225   2.820   2.122   2.741 -0.5768 -0.8692  0.2077
  145DMF     H4 2226   2.952   1.893   2.453 -0.5314 -0.1140  0.1455
  145DMF     H5 2227   2.885   1.839   2.618 -1.0012  2.0391 -0.5114
  145DMF     H6 2228   3.062   1.840   2.575  0.0237 -0.1322  1.0771
  145DMF     H7 2229   3.176   2.045   2.621  1.0191 -0.0714  0.2429
  146DMF     C1 2230   2.580   1.020   2.559  0.2136 -0.4296 -0.0017
  146DMF     N1 2231   2.705   0.993   2.486  0.6504 -0.2465 -0.6483
  146DMF     C2 2232   2.694   0.919   2.357 -0.3389  0.3337  0.4065
  146DMF     C3 2233   2.830   1.012   2.548  0.5570  0.0149  0.4473
  146DMF     O1 2234   2.842   1.078   2.644 -0.6345  0.2388  0.1627
  146DMF     H1 2235   2.548   0.924   2.603 -1.8699  0.1530 -0.1853
  146DMF     H2 2236   2.496   1.054   2.497 -1.0019 -1.4221  1.0522
  146DMF     H3 2237   2.594   1.083   2.648 -0.3442  0.8186 -0.7825
  146DMF     H4 2238   2.593   0.879   2.341 -0.7124  1.6752 -0.6079
  146DMF     H5 2239   2.767   0.838   2.345  0.3036  0.6729  1.9358
  146DMF     H6 2240   2.724   0.980   2.271 -1.2139 -0.7993 -0.7329
  146DMF     H7 2241   2.915   0.976   2.487  1.7936  1.2524  1.4275
  147DMF     C1 2242   3.313   3.370   3.715  0.0631 -0.2004 -0.0939
  147DMF     N1 2243   3.433   3.458   3.737 -0.7390  0.0916 -0.5490
  147DMF     C2 2244   3.551   3.428   3.645 -0.1788 -0.2842 -0.0855
  147DMF     C3 2245   3.441   3.543   3.852  0.4366  0.0408  0.2383
  147DMF     O1 2246   3.364   3.553   3.945  0.4922 -0.2030 -0.0663
  147DMF     H1 2247   3.227   3.415   3.766  0.6864  1.3914 -0.4039
  147DMF     H2 2248   3.319   3.270   3.758  0.9327 -0.2641 -0.3584
  147DMF     H3 2249   3.301   3.375   3.606  0.8098 -4.2419 -0.4174
  147DMF     H4 2250   3.527   3.479   3.552 -1.6779  0.7043  0.8249
  147DMF     H5 2251   3.553   3.319   3.629 -0.7214 -0.1163 -1.3390
  147DMF     H6 2252   3.647   3.464   3.683  0.4010  0.3882 -2.1365
  147DMF     H7 2253   3.534   3.601   3.862 -0.0431  0.7612  0.6182
  148DMF     C1 2254   3.257   2.873   0.984  0.4422  0.6515  0.3371
  148DMF     N1 2255   3.294   2.777   1.093 -0.3754  0.3886  0.0860
  148DMF     C2 2256   3.187   2.719   1.182 -0.4666  0.2905  0.3016
  148DMF     C3 2257   3.428   2.719   1.105 -0.0556  0.0282  0.1833
  148DMF     O1 2258   3.527   2.746   1.037 -0.0710 -0.4569 -0.1699
  148DMF     H1 2259   3.154   2.911   0.992 -0.9971 -2.8226 -0.4070
  148DMF     H2 2260   3.265   2.826   0.885 -1.9150  0.3041  0.2735
  148DMF     H3 2261   3.313   2.966   0.997  1.6062  0.0960 -0.5878
  148DMF     H4 2262   3.208   2.613   1.203  2.0042  0.8406  0.6728
  148DMF     H5 2263   3.089   2.728   1.134 -0.0497 -1.1286 -0.8447
  148DMF     H6 2264   3.188   2.771   1.279 -2.9310 -2.3061  1.8292
  148DMF     H7 2265   3.428   2.654   1.194  0.8035 -1.0513 -0.5890
  149DMF     C1 2266   1.409   0.650   0.420  0.5054  0.3751 -0.2035
  149DMF     N1 2267   1.437   0.790   0.374  0.3475  0.7097  0.8661
  149DMF     C2 2268   1.364   0.899   0.438  0.1942 -0.0150  0.4445
  149DMF     C3 2269   1.530   0.814   0.265  0.2361 -0.2282 -0.9881
  149DMF     O1 2270   1.594   0.718   0.221  0.1604  0.3392  0.6357
  149DMF     H1 2271   1.500   0.591   0.439 -0.1642 -0.4525  0.4639
  149DMF     H2 2272   1.364   0.590   0.341 -1.3202  1.3527  0.0756
  149DMF     H3 2273   1.363   0.653   0.520  0.9120 -1.3750  0.0462
  149DMF     H4 2274   1.295   0.865   0.516 -1.4649  0.8033 -0.6263
  149DMF     H5 2275   1.297   0.943   0.363  0.2088 -0.5331  0.1315
  149DMF     H6 2276   1.435   0.966   0.488 -0.4106 -0.0607  1.3728
  149DMF     H7 2277   1.545   0.921   0.243 -2.0378  0.4496  0.5386
  150DMF     C1 2278   2.738   2.486   1.142 -0.2888 -1.2604 -0.2206
  150DMF     N1 2279   2.757   2.334   1.123 -0.5558  0.3102 -0.0615
  150DMF     C2 2280   2.810   2.257   1.238 -0.8719 -0.3705  0.2527
  150DMF     C3 2281   2.729   2.274   0.996  0.4415 -0.5240  0.9509
  150DMF     O1 2282   2.706   2.340   0.899 -0.1213  0.0218 -0.2057
  150DMF     H1 2283   2.739   2.502   1.250 -0.9614 -0.6038 -0.3038
  150DMF     H2 2284   2.650   2.528   1.091  1.2671  2.7674  0.2030
  150DMF     H3 2285   2.830   2.537   1.110 -0.0991 -1.1744  0.4560
  150DMF     H4 2286   2.745   2.273   1.325  1.7024  0.9219  2.0225
  150DMF     H5 2287   2.911   2.297   1.251 -0.9451 -0.4732  1.1475
  150DMF     H6 2288   2.800   2.151   1.213 -2.1320 -0.0576 -0.5899
  150DMF     H7 2289   2.735   2.164   0.991 -2.5249 -0.7079  0.6726
  151DMF     C1 2290   1.347   2.185   3.585 -0.0301  0.6286 -0.1335
  151DMF     N1 2291   1.312   2.330   3.591 -0.3004  0.0666  0.0587
  151DMF     C2 2292   1.413   2.437   3.551 -0.4595 -0.2644  0.0218
  151DMF     C3 2293   1.183   2.369   3.636  0.0857  0.0964 -0.1882
  151DMF     O1 2294   1.096   2.294   3.673  0.1327 -0.0195  0.5369
  151DMF     H1 2295   1.447   2.170   3.542  0.2258  0.5075  0.5083
  151DMF     H2 2296   1.269   2.134   3.527  0.0339  1.2550 -0.7810
  151DMF     H3 2297   1.358   2.150   3.688 -0.3567  0.6044 -0.1058
  151DMF     H4 2298   1.383   2.473   3.452 -3.3393  0.1580  1.0259
  151DMF     H5 2299   1.516   2.399   3.549  0.8001  2.9608  0.9044
  151DMF     H6 2300   1.405   2.512   3.631  0.1756 -1.3356  1.1137
  151DMF     H7 2301   1.175   2.479   3.631 -1.1945  0.0884  1.2987
  152DMF     C1 2302   2.577   2.518   3.087 -0.5742 -0.5984  0.2929
  152DMF     N1 2303   2.485   2.477   3.185 -0.0270  0.2121 -1.2081
  152DMF     C2 2304   2.419   2.574   3.274  0.4320  0.2967 -0.3392
  152DMF     C3 2305   2.473   2.340   3.216 -0.8265 -0.4660 -0.1151
  152DMF     O1 2306   2.532   2.255   3.141 -1.1565 -0.2601  0.3516
  152DMF     H1 2307   2.538   2.492   2.988  0.1279  0.7817 -0.3475
  152DMF     H2 2308   2.676   2.477   3.110 -1.3663 -1.8347  1.6078
  152DMF     H3 2309   2.588   2.627   3.087 -0.3982 -0.5806  2.4446
  152DMF     H4 2310   2.355   2.522   3.347  0.6619  1.3936  0.6526
  152DMF     H5 2311   2.355   2.642   3.215  0.6694  0.3789 -0.5018
  152DMF     H6 2312   2.502   2.619   3.329  2.4568 -2.5594 -0.9481
  152DMF     H7 2313   2.405   2.328   3.302 -0.5101 -0.1268  0.1771
  153DMF     C1 2314   0.943   1.236   2.268  0.4994  0.2129 -0.0689
  153DMF     N1 2315   1.085   1.233   2.248 -0.1733 -0.6585 -0.0136
  153DMF     C2 2316   1.149   1.366   2.241  0.1076  0.6228  0.2399
  153DMF     C3 2317   1.161   1.115   2.252  0.3989  0.5076  0.4458
  153DMF     O1 2318   1.110   1.001   2.262 -0.4386 -0.3217 -0.2127
  153DMF     H1 2319   0.897   1.147   2.223 -1.7405  1.8989 -1.2141
  153DMF     H2 2320   0.887   1.313   2.214 -3.5321 -0.2725  3.2287
  153DMF     H3 2321   0.900   1.235   2.368 -0.2741 -0.4556 -0.4015
  153DMF     H4 2322   1.251   1.361   2.280  0.2782 -0.0172 -0.2784
  153DMF     H5 2323   1.083   1.442   2.286 -0.8880  0.0908 -0.3132
  153DMF     H6 2324   1.153   1.400   2.137  3.5611 -0.4462 -0.0536
  153DMF     H7 2325   1.265   1.138   2.223 -0.1255  0.8619 -1.2668
  154DMF     C1 2326   0.270   1.831   3.032  0.4036 -0.3217 -0.0212
  154DMF     N1 2327   0.274   1.688   3.054  0.4321  0.2692  0.4748
  154DMF     C2 2328   0.183   1.603   2.978  0.2977 -0.5783 -0.2969
  154DMF     C3 2329   0.380   1.629   3.130  0.8124 -0.7620 -0.5946
  154DMF     O1 2330   0.475   1.693   3.177  0.0835  0.1004 -0.1982
  154DMF     H1 2331   0.275   1.887   3.126 -0.4273  0.8841 -0.6812
  154DMF     H2 2332   0.175   1.864   2.988 -0.3424 -1.1841  0.9328
  154DMF     H3 2333   0.353   1.865   2.969  0.6837  0.4213  0.7414
  154DMF     H4 2334   0.168   1.631   2.873 -1.0832 -1.6587 -0.4033
  154DMF     H5 2335   0.086   1.609   3.029  1.0275  0.6058  0.9760
  154DMF     H6 2336   0.212   1.498   2.980 -1.8578 -1.1825  2.1426
  154DMF     H7 2337   0.359   1.521   3.140 -0.7263 -0.5278 -1.0713
  155DMF     C1 2338   2.451   3.210   0.246  0.2852 -0.0184  0.4163
  155DMF     N1 2339   2.558   3.127   0.308  0.5506  0.0688 -0.5138
  155DMF     C2 2340   2.688   3.115   0.237  0.2526  0.4801  0.9413
  155DMF     C3 2341   2.519   3.032   0.410  0.0526  0.1186  0.4757
  155DMF     O1 2342   2.406   3.032   0.454  0.2346 -0.2372 -0.2718
  155DMF     H1 2343   2.382   3.142   0.194 -2.2000  3.5329 -1.1313
  155DMF     H2 2344   2.488   3.282   0.171  1.7344 -0.0133  1.1084
  155DMF     H3 2345   2.401   3.272   0.321  0.7457  2.2620 -1.0852
  155DMF     H4 2346   2.768   3.128   0.311  0.8071 -1.8381  0.7944
  155DMF     H5 2347   2.692   3.178   0.148  0.2711 -2.7671 -1.4647
  155DMF     H6 2348   2.702   3.015   0.194  1.0843 -0.5767  3.5553
  155DMF     H7 2349   2.593   2.952   0.429 -0.2909 -0.6840 -1.3737
  156DMF     C1 2350   0.128   2.280   3.363  0.5104 -0.1066 -0.4561
  156DMF     N1 2351   0.198   2.287   3.235 -0.1990  1.0031 -0.1086
  156DMF     C2 2352   0.209   2.164   3.164 -1.2080 -0.1007  0.7436
  156DMF     C3 2353   0.232   2.405   3.159 -0.0790 -0.1212  0.5263
  156DMF     O1 2354   0.226   2.517   3.202  0.1369 -0.1140  0.3171
  156DMF     H1 2355   0.020   2.264   3.350  0.6723 -1.5402 -0.0346
  156DMF     H2 2356   0.152   2.363   3.431  1.0424 -0.9974  0.4491
  156DMF     H3 2357   0.163   2.195   3.422  1.3846  1.2587  1.0373
  156DMF     H4 2358   0.286   2.168   3.087 -1.4307  2.5114  0.6126
  156DMF     H5 2359   0.116   2.125   3.121 -0.5996  0.2832 -0.9630
  156DMF     H6 2360   0.249   2.093   3.237  0.4648 -1.4045 -1.4046
  156DMF     H7 2361   0.263   2.380   3.056 -0.1243 -0.1989  0.5318
  157DMF     C1 2362   0.893   1.703   3.450 -0.1795 -1.1750 -1.3803
  157DMF     N1 2363   0.974   1.827   3.440 -0.5093 -0.6010  0.2972
  157DMF     C2 2364   0.975   1.921   3.552  0.3850 -0.4045  0.2981
  157DMF     C3 2365   1.052   1.860   3.323 -0.6326  0.2569  0.4334
  157DMF     O1 2366   1.039   1.784   3.228  0.1969  0.4110 -0.2781
  157DMF     H1 2367   0.811   1.717   3.521  0.1390  1.3487 -1.4492
  157DMF     H2 2368   0.947   1.610   3.471 -2.0373 -2.0431 -0.3925
  157DMF     H3 2369   0.847   1.683   3.352  0.4698 -2.2072 -1.4858
  157DMF     H4 2370   0.939   1.864   3.639 -2.7212  1.1042  0.0899
  157DMF     H5 2371   0.901   2.000   3.533  0.6365 -0.0494  0.7757
  157DMF     H6 2372   1.071   1.974   3.552  1.0178 -1.5181 -1.2827
  157DMF     H7 2373   1.122   1.945   3.324 -0.7004  0.3133  1.4967
  158DMF     C1 2374   2.096   1.840   1.369  1.0467  0.3804  0.2757
  158DMF     N1 2375   2.135   1.915   1.490  0.6641  0.2122 -0.1271
  158DMF     C2 2376   2.268   1.891   1.550 -0.3825 -0.3466  0.7937
  158DMF     C3 2377   2.038   1.978   1.571  0.0038  0.7588  0.1330
  158DMF     O1 2378   1.924   1.984   1.541  0.4074 -0.1491 -0.7870
  158DMF     H1 2379   1.990   1.812   1.372  0.9493  0.6847 -0.2104
  158DMF     H2 2380   2.155   1.747   1.371 -0.0940 -0.3423  1.3438
  158DMF     H3 2381   2.098   1.904   1.280 -2.9453 -1.2275 -1.1274
  158DMF     H4 2382   2.329   1.841   1.474 -1.2212 -0.6392  0.3086
  158DMF     H5 2383   2.246   1.838   1.644  0.3017  1.4060  1.9753
  158DMF     H6 2384   2.308   1.988   1.583 -1.0114 -0.3523  1.5932
  158DMF     H7 2385   2.079   2.032   1.658 -1.2647 -0.6802  1.6584
  159DMF     C1 2386   0.617   1.994   2.840 -0.1357  0.6447 -0.3315
  159DMF     N1 2387   0.726   1.900   2.863 -0.7457  0.0064  0.5870
  159DMF     C2 2388   0.717   1.815   2.972 -0.2575 -0.1265  0.0526
  159DMF     C3 2389   0.838   1.911   2.776 -0.0716 -0.8345 -0.0902
  159DMF     O1 2390   0.865   2.007   2.710  0.4193  0.7005  0.0816
  159DMF     H1 2391   0.629   2.044   2.743 -1.6987 -1.1120 -1.4919
  159DMF     H2 2392   0.607   2.067   2.921  0.1392  1.7360 -1.2713
  159DMF     H3 2393   0.519   1.944   2.839  0.9767 -1.6258 -1.2058
  159DMF     H4 2394   0.632   1.746   2.960 -0.1037 -0.2873 -0.1119
  159DMF     H5 2395   0.708   1.866   3.069 -0.0549 -0.7607  0.4032
  159DMF     H6 2396   0.795   1.738   2.965 -0.9083 -0.8544  0.7484
  159DMF     H7 2397   0.916   1.840   2.812  1.6051  1.8274  1.7380
  160DMF     C1 2398   1.009   0.426   0.196  0.3546 -0.5120 -0.1938
  160DMF     N1 2399   0.942   0.436   0.326 -0.2107 -0.5829 -0.4089
  160DMF     C2 2400   0.809   0.386   0.343  0.3223  0.4108 -0.0088
  160DMF     C3 2401   0.999   0.514   0.425  0.3461 -0.2599  0.6155
  160DMF     O1 2402   1.109   0.566   0.417 -0.0276  0.1274  0.2874
  160DMF     H1 2403   1.066   0.332   0.196 -0.9067 -1.2843 -1.3540
  160DMF     H2 2404   1.069   0.515   0.175 -0.0785 -0.6179 -1.9135
  160DMF     H3 2405   0.937   0.420   0.114  0.0469  1.1010 -0.0611
  160DMF     H4 2406   0.769   0.439   0.430  0.2905  0.6913 -0.1957
  160DMF     H5 2407   0.808   0.276   0.348 -1.1379  0.4259  0.1228
  160DMF     H6 2408   0.751   0.411   0.254  0.3631 -0.4812 -0.2940
  160DMF     H7 2409   0.940   0.526   0.518  2.0250 -0.7660  1.7766
  161DMF     C1 2410   3.295   2.538   1.551  0.2060 -0.2410 -0.2998
  161DMF     N1 2411   3.156   2.513   1.500 -0.3456 -0.2999 -0.8095
  161DMF     C2 2412   3.044   2.610   1.533 -0.6338  0.6305 -0.2650
  161DMF     C3 2413   3.123   2.387   1.449 -0.3589  0.6494 -0.2847
  161DMF     O1 2414   3.204   2.295   1.436 -0.3748 -0.3799  0.4355
  161DMF     H1 2415   3.306   2.638   1.594 -0.3695 -0.4706  0.3820
  161DMF     H2 2416   3.366   2.522   1.469  0.9931  1.0129  0.1304
  161DMF     H3 2417   3.316   2.455   1.619 -0.5652 -1.2350 -1.2459
  161DMF     H4 2418   2.979   2.625   1.447 -0.1719 -1.4557 -1.0178
  161DMF     H5 2419   3.097   2.702   1.560  0.4345 -0.0066 -0.1727
  161DMF     H6 2420   2.985   2.585   1.622 -0.2508  1.6231  0.2757
  161DMF     H7 2421   3.019   2.376   1.414 -0.0698 -3.1190 -0.1600
  162DMF     C1 2422   2.140   2.443   2.516  0.5637 -0.0956  0.5045
  162DMF     N1 2423   2.126   2.585   2.553 -0.3999 -0.2769  0.1461
  162DMF     C2 2424   2.228   2.687   2.515 -0.8816 -0.3103 -0.7811
  162DMF     C3 2425   1.997   2.628   2.594  0.1270  0.4281  0.8590
  162DMF     O1 2426   1.902   2.555   2.622 -0.1389 -0.2207 -0.1023
  162DMF     H1 2427   2.093   2.437   2.417  1.3861 -1.1181  0.1696
  162DMF     H2 2428   2.090   2.376   2.587 -2.8602  1.2454 -0.5644
  162DMF     H3 2429   2.246   2.415   2.523  0.6872  0.3047  0.2652
  162DMF     H4 2430   2.324   2.635   2.524 -1.2837 -0.6125  2.2629
  162DMF     H5 2431   2.224   2.758   2.598  1.0115 -0.7433 -0.2955
  162DMF     H6 2432   2.202   2.737   2.420 -1.6078 -0.3147 -0.5914
  162DMF     H7 2433   1.987   2.735   2.567  5.3975  0.8418 -0.0847
  163DMF     C1 2434   0.358   2.481   0.948  0.3512 -0.2906  0.5942
  163DMF     N1 2435   0.354   2.531   1.085 -0.1485  0.2706 -0.1658
  163DMF     C2 2436   0.472   2.609   1.131 -0.0788 -0.1632  0.2582
  163DMF     C3 2437   0.261   2.480   1.177  0.5513  1.1803  0.5774
  163DMF     O1 2438   0.169   2.406   1.141 -0.5866  0.8061  0.2734
  163DMF     H1 2439   0.263   2.522   0.911  0.9768  0.1038 -0.6130
  163DMF     H2 2440   0.340   2.373   0.950 -0.0183 -0.2782 -1.0180
  163DMF     H3 2441   0.447   2.522   0.899 -0.5760  1.2817  0.2087
  163DMF     H4 2442   0.565   2.578   1.082 -0.3420 -1.9482  0.8612
  163DMF     H5 2443   0.476   2.596   1.239  0.7091  0.2857  0.2856
  163DMF     H6 2444   0.446   2.714   1.111  0.1724 -0.2558 -0.5975
  163DMF     H7 2445   0.279   2.508   1.282 -2.6766  0.0329  1.4810
  164DMF     C1 2446   2.496   1.232   2.267  0.4658  0.5250  0.8167
  164DMF     N1 2447   2.347   1.229   2.244  0.4583  0.1156  0.8216
  164DMF     C2 2448   2.266   1.354   2.236 -0.1147  0.2038  0.3322
  164DMF     C3 2449   2.283   1.105   2.243  0.7587 -0.6645 -0.5353
  164DMF     O1 2450   2.339   0.994   2.246 -0.1143 -0.1283  0.2634
  164DMF     H1 2451   2.552   1.319   2.229  0.0445 -0.2022 -1.5851
  164DMF     H2 2452   2.542   1.136   2.241 -0.7914  0.4053 -1.1006
  164DMF     H3 2453   2.506   1.240   2.376 -2.5950 -3.7398  1.5325
  164DMF     H4 2454   2.208   1.360   2.143  2.0839 -0.6323 -1.1421
  164DMF     H5 2455   2.337   1.437   2.231 -0.8052  0.9362  2.4260
  164DMF     H6 2456   2.213   1.368   2.331 -1.8303 -0.6402 -0.4821
  164DMF     H7 2457   2.177   1.110   2.210  0.5679 -2.8670 -0.3431
  165DMF     C1 2458   3.146   2.195   0.526 -0.0723 -0.2221  0.2023
  165DMF     N1 2459   3.013   2.244   0.586  0.7513 -0.7949 -0.2998
  165DMF     C2 2460   3.019   2.365   0.678  0.1323 -0.1664 -0.4727
  165DMF     C3 2461   2.891   2.184   0.553 -0.4972 -0.2280 -0.0645
  165DMF     O1 2462   2.882   2.107   0.458 -0.3024 -0.0639  0.2236
  165DMF     H1 2463   3.218   2.276   0.542  0.5934 -1.1049  1.7908
  165DMF     H2 2464   3.140   2.164   0.421 -2.1176 -0.1455  0.2882
  165DMF     H3 2465   3.186   2.113   0.587 -0.1948 -0.9902 -0.7319
  165DMF     H4 2466   2.919   2.408   0.690  0.2643  0.0800 -0.2553
  165DMF     H5 2467   3.085   2.443   0.636 -0.1621 -0.6440 -1.8490
  165DMF     H6 2468   3.059   2.337   0.776  1.2185 -1.3003 -1.2298
  165DMF     H7 2469   2.801   2.212   0.610 -0.3595  0.4348 -0.1695
  166DMF     C1 2470   1.404   0.335   0.701  1.1240  0.3897  0.4201
  166DMF     N1 2471   1.351   0.454   0.770  0.5067  0.3774  0.3098
  166DMF     C2 2472   1.212   0.467   0.792 -0.0216 -0.1226  0.6015
  166DMF     C3 2473   1.439   0.564   0.810 -0.6764 -0.0892 -0.4135
  166DMF     O1 2474   1.557   0.570   0.785 -0.0199  0.5530 -0.4290
  166DMF     H1 2475   1.412   0.349   0.592  2.7022 -0.3715  0.4281
  166DMF     H2 2476   1.335   0.253   0.724  2.0903 -0.1391  1.4934
  166DMF     H3 2477   1.498   0.303   0.747  0.5716  0.6984  1.7900
  166DMF     H4 2478   1.200   0.572   0.761 -0.4888 -0.0091  1.1476
  166DMF     H5 2479   1.192   0.439   0.896  0.6391 -0.0986  0.7365
  166DMF     H6 2480   1.163   0.402   0.718  0.5311  0.7816 -0.5770
  166DMF     H7 2481   1.385   0.641   0.869  0.7910 -1.4192  2.8175
  167DMF     C1 2482   1.917   1.409   0.059  0.4433  0.1625 -0.2313
  167DMF     N1 2483   2.043   1.409   0.145 -0.0490  0.4682  0.5507
  167DMF     C2 2484   2.115   1.286   0.154 -0.0833  0.8255  0.0025
  167DMF     C3 2485   2.076   1.515   0.222 -0.0403  0.8356  0.1221
  167DMF     O1 2486   2.019   1.622   0.233  0.0884 -0.4243  0.3943
  167DMF     H1 2487   1.910   1.306   0.021 -0.9673 -0.1622  0.8594
  167DMF     H2 2488   1.921   1.483  -0.022  0.7524  2.8415  2.1548
  167DMF     H3 2489   1.833   1.424   0.129  1.7243  0.9916  1.1621
  167DMF     H4 2490   2.072   1.225   0.234 -0.2046  1.4216  0.4000
  167DMF     H5 2491   2.220   1.309   0.179 -0.1325 -0.7095  1.7445
  167DMF     H6 2492   2.104   1.223   0.065 -0.2028  0.0186  0.5876
  167DMF     H7 2493   2.156   1.484   0.292 -0.9036 -0.8073  0.3874
  168DMF     C1 2494   3.279   0.860   3.232  0.5109  0.2655  0.3538
  168DMF     N1 2495   3.237   0.913   3.357 -0.4114 -0.5327  0.1507
  168DMF     C2 2496   3.272   1.055   3.374 -0.3207  0.0758 -0.1560
  168DMF     C3 2497   3.144   0.847   3.439 -0.4047  0.5266 -0.8036
  168DMF     O1 2498   3.130   0.729   3.432  0.0123  0.3105 -0.6535
  168DMF     H1 2499   3.371   0.915   3.206  0.6615  0.4081  1.1912
  168DMF     H2 2500   3.196   0.881   3.164 -0.6436 -0.9023  1.3882
  168DMF     H3 2501   3.302   0.752   3.233  0.6613  0.2348 -2.4495
  168DMF     H4 2502   3.280   1.093   3.271  2.1447 -0.9955 -0.4029
  168DMF     H5 2503   3.372   1.059   3.420 -0.1631  0.2650 -0.5076
  168DMF     H6 2504   3.196   1.108   3.432 -0.4166 -0.2774  0.0417
  168DMF     H7 2505   3.093   0.914   3.511  4.0208  3.8654 -0.5295
  169DMF     C1 2506   2.487   2.214   2.326  0.4405  0.0774  0.1707
  169DMF     N1 2507   2.370   2.303   2.301 -0.1030 -0.2451  0.6501
  169DMF     C2 2508   2.399   2.449   2.285 -0.0694  0.2423 -0.3779
  169DMF     C3 2509   2.249   2.259   2.254 -0.6608  0.0646 -0.7655
  169DMF     O1 2510   2.213   2.141   2.249  0.1066 -0.2474 -0.5397
  169DMF     H1 2511   2.584   2.262   2.304  1.4692 -2.0259  0.0146
  169DMF     H2 2512   2.481   2.133   2.253 -0.1521  1.2438 -1.1037
  169DMF     H3 2513   2.485   2.185   2.432 -2.3742  0.2631  0.2065
  169DMF     H4 2514   2.457   2.456   2.192  1.0220 -0.8100  0.2094
  169DMF     H5 2515   2.458   2.484   2.371 -0.7925 -1.6562  0.9040
  169DMF     H6 2516   2.312   2.508   2.254 -0.4660 -0.5308 -0.7489
  169DMF     H7 2517   2.179   2.339   2.226 -0.9547  0.2887  0.5725
  170DMF     C1 2518   2.581   1.078   1.178  0.7536  0.2204  0.6085
  170DMF     N1 2519   2.718   1.113   1.215  0.0153  0.6780  0.1545
  170DMF     C2 2520   2.804   1.001   1.242 -0.1918  0.4467  0.3028
  170DMF     C3 2521   2.760   1.246   1.250 -0.4835  0.4129 -0.4473
  170DMF     O1 2522   2.674   1.335   1.246 -0.1067 -1.0346  0.6977
  170DMF     H1 2523   2.507   1.131   1.240  1.7129 -1.8490  3.6901
  170DMF     H2 2524   2.551   0.975   1.202 -1.9143  0.7301 -0.3813
  170DMF     H3 2525   2.554   1.093   1.073  1.6126  0.6806  0.4512
  170DMF     H4 2526   2.851   0.972   1.147 -3.7443 -0.8350 -1.1453
  170DMF     H5 2527   2.755   0.917   1.293  2.7301 -1.2325  0.4895
  170DMF     H6 2528   2.884   1.049   1.301  0.5554  1.3876 -1.4423
  170DMF     H7 2529   2.869   1.256   1.270  0.0340 -2.5361 -1.6599
  171DMF     C1 2530   1.537   3.085   0.973  1.0961  0.1723 -0.1636
  171DMF     N1 2531   1.437   3.168   0.906 -0.5015 -0.1263  0.3650
  171DMF     C2 2532   1.480   3.216   0.770  0.0804 -0.1917  0.6791
  171DMF     C3 2533   1.314   3.204   0.964  0.8122 -0.6786  0.7178
  171DMF     O1 2534   1.285   3.172   1.078  0.8610  0.1597 -0.1464
  171DMF     H1 2535   1.620   3.149   1.005 -0.3234  0.6347  2.7478
  171DMF     H2 2536   1.560   3.009   0.898  1.2212  0.5696 -0.5333
  171DMF     H3 2537   1.490   3.016   1.043  0.0346  0.9117 -0.1428
  171DMF     H4 2538   1.436   3.145   0.699 -1.2264  2.1231 -0.8653
  171DMF     H5 2539   1.587   3.202   0.750 -0.1250 -2.2190  0.8632
  171DMF     H6 2540   1.433   3.314   0.755  2.0356  0.4489 -1.5531
  171DMF     H7 2541   1.246   3.255   0.894  0.0623  0.2519  2.1050
  172DMF     C1 2542   2.892   0.977   3.090  0.4549 -0.1079  1.0504
  172DMF     N1 2543   2.920   0.891   2.973 -0.1514 -0.3382  0.0353
  172DMF     C2 2544   2.849   0.762   2.959 -0.0153 -0.1545  0.0621
  172DMF     C3 2545   3.036   0.918   2.898  0.0350 -0.0736 -0.7110
  172DMF     O1 2546   3.117   1.011   2.919  0.3869 -0.0456  0.1586
  172DMF     H1 2547   2.917   1.080   3.059 -0.2886 -0.3801 -0.4989
  172DMF     H2 2548   2.965   0.941   3.163  0.3428 -2.5101  0.0071
  172DMF     H3 2549   2.793   0.970   3.137 -0.2288  1.6459 -0.0801
  172DMF     H4 2550   2.916   0.688   3.003 -0.5178  0.1011  1.2631
  172DMF     H5 2551   2.836   0.739   2.852  0.5117 -1.3710  0.2528
  172DMF     H6 2552   2.751   0.759   3.009 -1.8118 -1.0085 -3.3418
  172DMF     H7 2553   3.062   0.836   2.829  0.2575  0.3852 -1.1715
  173DMF     C1 2554   2.729   1.407   3.062  0.2360  0.0452 -0.3408
  173DMF     N1 2555   2.667   1.280   3.018 -0.1669 -0.3964 -0.4628
  173DMF     C2 2556   2.684   1.252   2.873  0.0597 -0.5282 -0.1507
  173DMF     C3 2557   2.620   1.181   3.108  0.2910  0.2105 -0.1673
  173DMF     O1 2558   2.586   1.200   3.225  0.4644 -0.3457 -0.1367
  173DMF     H1 2559   2.648   1.471   3.098 -0.8023 -1.9391  0.8960
  173DMF     H2 2560   2.777   1.460   2.979 -0.5103  1.0957 -0.1102
  173DMF     H3 2561   2.803   1.398   3.142 -1.0665 -0.0851  0.8611
  173DMF     H4 2562   2.685   1.340   2.807  0.4522 -0.1710  0.3259
  173DMF     H5 2563   2.601   1.186   2.846 -0.5231 -0.4758  1.4220
  173DMF     H6 2564   2.783   1.209   2.854  0.2346 -0.3946  0.4470
  173DMF     H7 2565   2.625   1.080   3.063 -1.6213  0.4765 -1.0273
  174DMF     C1 2566   2.354   1.666   1.083  0.5222 -0.3904  0.6658
  174DMF     N1 2567   2.415   1.533   1.090 -0.5036  0.1407 -0.0487
  174DMF     C2 2568   2.335   1.424   1.147  0.1464 -0.2307 -0.1005
  174DMF     C3 2569   2.523   1.493   1.015 -0.5563 -0.1081 -0.4202
  174DMF     O1 2570   2.593   1.572   0.956  0.2583  0.3661 -0.4446
  174DMF     H1 2571   2.416   1.741   1.033 -0.4534 -0.0741 -0.1006
  174DMF     H2 2572   2.331   1.691   1.187 -0.1732 -0.7798  0.6153
  174DMF     H3 2573   2.259   1.656   1.028  0.3445 -0.6258  1.0114
  174DMF     H4 2574   2.279   1.451   1.237  1.8143 -0.5444  1.0444
  174DMF     H5 2575   2.393   1.339   1.185 -0.1033 -0.5908 -0.5092
  174DMF     H6 2576   2.262   1.392   1.071  0.9154  2.2583 -1.9747
  174DMF     H7 2577   2.537   1.383   1.018 -0.4792 -0.0702  0.8759
  175DMF     C1 2578   1.614   0.972   2.656  0.1652 -0.1531  0.2061
  175DMF     N1 2579   1.641   1.115   2.631 -0.0660 -0.2181 -0.2893
  175DMF     C2 2580   1.769   1.174   2.678  0.1538  0.1739 -0.3425
  175DMF     C3 2581   1.548   1.195   2.559  0.2498 -0.0820 -0.0305
  175DMF     O1 2582   1.436   1.160   2.536 -0.0885  0.4727 -0.3701
  175DMF     H1 2583   1.644   0.912   2.569 -1.4243 -3.6822  1.9828
  175DMF     H2 2584   1.506   0.956   2.667  0.3141 -0.2638  1.6512
  175DMF     H3 2585   1.672   0.942   2.744  0.3526 -1.4437 -0.3347
  175DMF     H4 2586   1.776   1.179   2.787 -1.6151 -1.6973 -0.1151
  175DMF     H5 2587   1.785   1.281   2.656  0.6489  0.4608  1.3669
  175DMF     H6 2588   1.843   1.112   2.627 -0.0223 -0.2763 -0.0491
  175DMF     H7 2589   1.584   1.297   2.538 -3.1999  1.1167 -0.3520
  176DMF     C1 2590   1.509   3.168   0.448 -0.1605 -0.1212  0.4552
  176DMF     N1 2591   1.507   3.172   0.300 -0.2930 -0.0731 -0.1787
  176DMF     C2 2592   1.483   3.304   0.236 -0.9368  0.1132 -0.8386
  176DMF     C3 2593   1.503   3.053   0.223  0.3648 -0.0495  0.1902
  176DMF     O1 2594   1.530   2.943   0.274 -0.2382 -0.1422  0.5149
  176DMF     H1 2595   1.569   3.251   0.487  1.7534 -1.7321  1.0506
  176DMF     H2 2596   1.547   3.071   0.484 -0.5270  0.3307  2.1265
  176DMF     H3 2597   1.410   3.171   0.496 -0.5677  4.2240 -0.4452
  176DMF     H4 2598   1.581   3.345   0.268  0.4095 -1.9644 -2.2026
  176DMF     H5 2599   1.402   3.356   0.288 -0.6485 -0.8683  0.6325
  176DMF     H6 2600   1.486   3.298   0.127 -2.0170  0.1319 -0.8692
  176DMF     H7 2601   1.477   3.074   0.118 -0.3491 -0.2370  0.3246
  177DMF     C1 2602   2.370   1.129   3.519  0.0863  0.4947  0.0244
  177DMF     N1 2603   2.222   1.104   3.506  0.6477  0.4003  0.4909
  177DMF     C2 2604   2.124   1.208   3.527 -0.5821 -0.1163  0.7948
  177DMF     C3 2605   2.171   0.981   3.464 -0.1931 -0.0659 -0.4086
  177DMF     O1 2606   2.237   0.886   3.434 -0.8922  0.1423 -0.1354
  177DMF     H1 2607   2.410   1.049   3.582  0.9313  0.3292 -0.7208
  177DMF     H2 2608   2.392   1.229   3.559  0.1650  0.3356  0.3856
  177DMF     H3 2609   2.418   1.126   3.420  1.0897 -0.3031  0.5306
  177DMF     H4 2610   2.162   1.303   3.565  0.1981 -0.1417  0.1105
  177DMF     H5 2611   2.035   1.169   3.578 -2.0869  0.8090 -1.0479
  177DMF     H6 2612   2.103   1.235   3.422 -2.0665 -1.6632  0.6715
  177DMF     H7 2613   2.061   0.980   3.454 -0.0914 -0.3556 -1.5875
  178DMF     C1 2614   1.477   1.850   3.249  0.3872 -0.8920  0.0535
  178DMF     N1 2615   1.504   1.789   3.390 -0.7033  0.5240  0.6914
  178DMF     C2 2616   1.393   1.764   3.482 -0.0265 -0.2153 -0.5388
  178DMF     C3 2617   1.628   1.726   3.420  0.0216 -0.7872  0.0167
  178DMF     O1 2618   1.720   1.742   3.345  0.2936 -0.5765 -0.4407
  178DMF     H1 2619   1.552   1.823   3.174 -1.7603 -2.2064 -1.6880
  178DMF     H2 2620   1.466   1.959   3.251  1.4238 -0.7404  4.9528
  178DMF     H3 2621   1.381   1.813   3.210  0.5545 -1.1706 -0.0960
  178DMF     H4 2622   1.318   1.843   3.466 -0.2837  0.1681  2.3039
  178DMF     H5 2623   1.437   1.764   3.582 -0.0130  2.2948 -0.5179
  178DMF     H6 2624   1.336   1.675   3.453 -0.2363  0.2708 -1.6370
  178DMF     H7 2625   1.631   1.670   3.515  1.6317 -2.9536 -1.2585
  179DMF     C1 2626   2.969   1.226   2.300  0.3526  0.7757  0.9528
  179DMF     N1 2627   3.098   1.166   2.259  0.6017  0.1115  0.3904
  179DMF     C2 2628   3.218   1.260   2.249  0.2912 -1.0775  0.2306
  179DMF     C3 2629   3.111   1.030   2.221 -0.4730 -0.1700  1.1359
  179DMF     O1 2630   3.019   0.956   2.241 -0.7472  0.0378  0.0034
  179DMF     H1 2631   2.956   1.228   2.409  1.8899 -0.6744  1.1803
  179DMF     H2 2632   2.885   1.167   2.262  0.3345 -0.0633  2.2754
  179DMF     H3 2633   2.963   1.324   2.252  1.4432  0.3148 -0.1497
  179DMF     H4 2634   3.237   1.287   2.353 -1.5961 -0.1142  0.3623
  179DMF     H5 2635   3.200   1.362   2.213  1.7698 -0.1625  2.0275
  179DMF     H6 2636   3.306   1.215   2.202 -0.4522 -2.5643  0.1965
  179DMF     H7 2637   3.211   0.995   2.189  0.5989  2.2421  1.7679
  180DMF     C1 2638   1.629   0.385   3.042  0.7433 -0.3770  0.4949
  180DMF     N1 2639   1.684   0.349   3.170 -0.1678  0.7673  0.2829
  180DMF     C2 2640   1.809   0.258   3.170  1.1155  0.3404  0.5583
  180DMF     C3 2641   1.613   0.381   3.291 -0.4115  0.1221  0.6411
  180DMF     O1 2642   1.505   0.434   3.293  0.1189  0.5070  0.2687
  180DMF     H1 2643   1.576   0.480   3.052  1.3537  0.1178 -0.8356
  180DMF     H2 2644   1.557   0.303   3.026  1.7423 -0.9309 -1.3058
  180DMF     H3 2645   1.700   0.407   2.962 -0.7154  2.9895  0.0641
  180DMF     H4 2646   1.811   0.208   3.268 -0.5919  1.5493  1.2257
  180DMF     H5 2647   1.902   0.316   3.166 -1.0882  3.8358 -2.7824
  180DMF     H6 2648   1.804   0.186   3.088  0.4102  0.5752  0.3963
  180DMF     H7 2649   1.673   0.352   3.379  0.8422  2.3614  0.5547
  181DMF     C1 2650   1.613   1.700   0.632  0.2930  0.1500 -0.0113
  181DMF     N1 2651   1.720   1.632   0.546  0.1844 -0.3383  0.1738
  181DMF     C2 2652   1.845   1.581   0.612  0.9125 -0.1419 -0.1801
  181DMF     C3 2653   1.686   1.600   0.418 -0.2937 -0.3603  0.6395
  181DMF     O1 2654   1.573   1.621   0.372  0.1536  0.3258 -0.4382
  181DMF     H1 2655   1.639   1.686   0.738 -0.5222 -0.2910  0.1341
  181DMF     H2 2656   1.515   1.655   0.613  0.0959  0.3346  0.5604
  181DMF     H3 2657   1.607   1.807   0.613 -1.7997 -0.0289 -0.5201
  181DMF     H4 2658   1.907   1.655   0.664 -1.3483  0.3647  1.8769
  181DMF     H5 2659   1.900   1.535   0.529 -0.1741  0.3605 -1.1911
  181DMF     H6 2660   1.822   1.497   0.679 -2.9673  0.7353 -0.3081
  181DMF     H7 2661   1.772   1.556   0.364 -0.2796  0.3706  0.0620
  182DMF     C1 2662   3.027   1.230   0.998 -0.4011 -0.5441 -0.2161
  182DMF     N1 2663   2.937   1.333   0.951  0.0001  0.0111  0.2711
  182DMF     C2 2664   2.858   1.309   0.830 -0.2552 -0.2885  0.8815
  182DMF     C3 2665   2.922   1.458   1.015 -0.0568  0.7199  0.8550
  182DMF     O1 2666   2.968   1.477   1.128  0.5414  0.0059  0.1824
  182DMF     H1 2667   3.008   1.211   1.105 -0.4808  0.9899  0.0488
  182DMF     H2 2668   3.128   1.273   0.995 -1.1777  1.2699 -1.0532
  182DMF     H3 2669   3.019   1.144   0.930  2.0253 -0.5312 -0.5630
  182DMF     H4 2670   2.764   1.364   0.837 -0.0588 -0.1550  2.8411
  182DMF     H5 2671   2.826   1.205   0.814 -1.4207  0.2593 -0.3324
  182DMF     H6 2672   2.906   1.348   0.739 -1.4380 -0.1748  0.3101
  182DMF     H7 2673   2.876   1.543   0.960  1.2935  0.5285 -0.6170
  183DMF     C1 2674   1.064   1.146   0.370  1.1766 -0.1281  0.4265
  183DMF     N1 2675   0.982   1.256   0.416 -0.4041  0.0931 -0.2801
  183DMF     C2 2676   0.961   1.376   0.324 -0.0759  0.3636  0.7364
  183DMF     C3 2677   0.960   1.263   0.550  0.1519  0.4220 -0.0574
  183DMF     O1 2678   0.987   1.169   0.625 -0.2281 -0.1576  0.3742
  183DMF     H1 2679   1.133   1.114   0.449  0.3411 -0.7879  0.8990
  183DMF     H2 2680   1.118   1.174   0.279  1.5184  1.1688  1.0241
  183DMF     H3 2681   0.993   1.067   0.344 -0.6319  1.0520  1.6877
  183DMF     H4 2682   1.030   1.460   0.342 -0.1917  0.5218  0.4474
  183DMF     H5 2683   0.857   1.407   0.340 -0.3087 -0.0246 -0.0261
  183DMF     H6 2684   0.984   1.364   0.217 -0.6099  2.0223  0.4132
  183DMF     H7 2685   0.911   1.355   0.585 -0.9703  0.9558 -2.8754
  184DMF     C1 2686   1.287   2.904   1.531  0.5326 -0.0075 -0.7528
  184DMF     N1 2687   1.294   2.762   1.558 -0.1222 -0.4331  0.0107
  184DMF     C2 2688   1.430   2.699   1.577 -0.6573  0.4819  0.5156
  184DMF     C3 2689   1.187   2.684   1.550 -0.2584  0.2644 -0.5434
  184DMF     O1 2690   1.074   2.726   1.526 -0.2137  0.0717  0.3758
  184DMF     H1 2691   1.383   2.957   1.529  0.2352  0.7793  2.7200
  184DMF     H2 2692   1.240   2.955   1.616 -0.7790 -1.8314 -0.3610
  184DMF     H3 2693   1.242   2.924   1.434 -0.2745  1.4685 -0.0860
  184DMF     H4 2694   1.415   2.609   1.636  0.1496  1.0087  1.5312
  184DMF     H5 2695   1.491   2.761   1.644 -0.1906 -1.9751  2.4237
  184DMF     H6 2696   1.482   2.675   1.483 -1.4841 -0.6896  0.3591
  184DMF     H7 2697   1.209   2.579   1.574 -1.7435  0.2755  0.9979
  185DMF     C1 2698   3.354   2.572   2.566  0.3161  0.8048 -0.2218
  185DMF     N1 2699   3.435   2.572   2.438  0.6104 -0.6404 -0.0959
  185DMF     C2 2700   3.586   2.561   2.452 -0.0724  0.2641 -0.0169
  185DMF     C3 2701   3.374   2.597   2.314  0.5330  0.0164  0.2101
  185DMF     O1 2702   3.254   2.599   2.299  0.3954 -0.5594 -0.2146
  185DMF     H1 2703   3.285   2.486   2.567  0.1576  0.9061  2.3238
  185DMF     H2 2704   3.287   2.659   2.571 -0.4069  0.2199  0.6988
  185DMF     H3 2705   3.421   2.571   2.653 -0.0193  0.1966  0.0339
  185DMF     H4 2706   3.624   2.662   2.432  1.4733 -0.5469 -1.2939
  185DMF     H5 2707   3.614   2.487   2.376  2.1199  0.0881  0.9193
  185DMF     H6 2708   3.612   2.534   2.555  0.4492  0.0272 -0.2093
  185DMF     H7 2709   3.445   2.598   2.229 -1.3305  0.9015 -1.3847
  186DMF     C1 2710   1.385   2.289   0.768 -0.0442  0.2530 -0.8065
  186DMF     N1 2711   1.523   2.315   0.722 -0.6155 -0.3205  0.0532
  186DMF     C2 2712   1.611   2.197   0.724  0.2910  0.5657  0.3956
  186DMF     C3 2713   1.549   2.432   0.647  0.1019 -0.3355 -0.2529
  186DMF     O1 2714   1.469   2.517   0.625  0.1739  0.0747 -0.0808
  186DMF     H1 2715   1.377   2.195   0.824 -0.1247  0.4580 -0.4713
  186DMF     H2 2716   1.315   2.282   0.683 -0.0738  0.3138 -0.7873
  186DMF     H3 2717   1.364   2.377   0.831  1.0977  1.0324 -1.5009
  186DMF     H4 2718   1.675   2.199   0.814  1.1986 -0.4747 -0.2083
  186DMF     H5 2719   1.678   2.205   0.637  0.6575  1.6194  0.7623
  186DMF     H6 2720   1.551   2.106   0.723  2.0712 -0.6294  0.4047
  186DMF     H7 2721   1.648   2.431   0.599  0.5854 -0.4284  0.7178
  187DMF     C1 2722   0.520   2.574   2.252 -0.0142  0.2235  0.1639
  187DMF     N1 2723   0.617   2.529   2.350  0.0141  0.0074  0.0843
  187DMF     C2 2724   0.759   2.496   2.303 -0.0818 -0.2374 -0.2643
  187DMF     C3 2725   0.573   2.502   2.486 -0.4812 -0.4699  0.2111
  187DMF     O1 2726   0.458   2.530   2.517 -0.6153  0.0445 -0.0869
  187DMF     H1 2727   0.483   2.484   2.202  1.1663  0.4647 -1.1462
  187DMF     H2 2728   0.576   2.644   2.188 -2.9340 -0.1719 -2.9883
  187DMF     H3 2729   0.431   2.626   2.290 -0.2715  1.3581 -1.8744
  187DMF     H4 2730   0.767   2.390   2.276 -0.7889 -0.3506 -0.0383
  187DMF     H5 2731   0.827   2.517   2.386 -0.4083 -0.8354  0.1596
  187DMF     H6 2732   0.797   2.561   2.223 -0.1698 -1.1428 -1.0495
  187DMF     H7 2733   0.651   2.457   2.549 -1.4614 -0.8728  1.1476
  188DMF     C1 2734   2.390   2.095   1.237  0.3726  0.4755  0.0068
  188DMF     N1 2735   2.417   2.025   1.116 -0.0286  1.2794  0.5293
  188DMF     C2 2736   2.304   2.016   1.020  0.6116 -0.1912  0.2259
  188DMF     C3 2737   2.542   1.963   1.086 -0.1716 -0.2599 -0.0099
  188DMF     O1 2738   2.632   1.960   1.164 -0.6430  0.2276 -0.2005
  188DMF     H1 2739   2.414   2.026   1.319  2.2715 -0.8290 -1.6108
  188DMF     H2 2740   2.282   2.108   1.248  0.4980  2.3386 -0.8731
  188DMF     H3 2741   2.446   2.189   1.235 -1.4785  1.5802 -1.7075
  188DMF     H4 2742   2.251   1.923   1.040 -0.8181  0.2659 -1.3433
  188DMF     H5 2743   2.339   2.031   0.917 -0.4882  0.8194 -0.0185
  188DMF     H6 2744   2.245   2.108   1.032 -2.1317 -1.8700 -0.1556
  188DMF     H7 2745   2.545   1.919   0.985 -0.9365  1.4729 -0.7992
  189DMF     C1 2746   1.044   0.439   2.690  0.1918 -0.1512 -0.1358
  189DMF     N1 2747   0.947   0.539   2.756 -0.6640  0.2363  0.7903
  189DMF     C2 2748   0.994   0.643   2.854 -0.4532  0.1997  0.7174
  189DMF     C3 2749   0.804   0.525   2.726  0.2792 -0.0645 -0.0247
  189DMF     O1 2750   0.768   0.442   2.644 -0.7297 -0.3328  0.6072
  189DMF     H1 2751   1.073   0.479   2.592 -1.5627 -0.0467 -0.6200
  189DMF     H2 2752   0.996   0.341   2.682 -0.3133  0.0903 -0.0807
  189DMF     H3 2753   1.144   0.430   2.734 -0.4761 -2.4635  0.9674
  189DMF     H4 2754   0.923   0.726   2.864 -1.9665 -0.9261 -0.4426
  189DMF     H5 2755   1.092   0.676   2.818 -1.5220  2.9353  0.1586
  189DMF     H6 2756   1.007   0.607   2.957  0.6500 -0.8057  0.2411
  189DMF     H7 2757   0.735   0.595   2.776 -0.0396  0.2521 -0.9033
  190DMF     C1 2758   0.271   0.852   2.841 -0.5109 -0.0182 -0.0182
  190DMF     N1 2759   0.315   0.718   2.806  0.0906  0.5104 -0.5082
  190DMF     C2 2760   0.454   0.700   2.739  0.4149  0.0128  0.5226
  190DMF     C3 2761   0.234   0.608   2.827  0.1393  0.0800 -0.1365
  190DMF     O1 2762   0.134   0.604   2.899  0.6963 -0.0869 -0.5892
  190DMF     H1 2763   0.165   0.848   2.812 -0.6728 -0.1452  0.5792
  190DMF     H2 2764   0.336   0.924   2.790  0.1623 -0.0340  0.8102
  190DMF     H3 2765   0.285   0.865   2.949  1.5526  0.8482 -0.3736
  190DMF     H4 2766   0.473   0.592   2.738 -0.3512 -0.1406 -1.5196
  190DMF     H5 2767   0.538   0.757   2.778  0.8093 -1.1028  1.3472
  190DMF     H6 2768   0.443   0.733   2.635 -1.3335 -0.6199  0.4788
  190DMF     H7 2769   0.270   0.520   2.772  1.3643  0.2117  0.4176
  191DMF     C1 2770   3.198   3.331   2.626 -0.2320 -0.3924  0.5493
  191DMF     N1 2771   3.301   3.430   2.670  0.3525 -0.1339  0.4742
  191DMF     C2 2772   3.260   3.564   2.698 -0.6530  0.0615  0.5416
  191DMF     C3 2773   3.429   3.391   2.700 -0.7670  0.7195  0.3538
  191DMF     O1 2774   3.467   3.278   2.683  0.0378  0.5458 -0.2491
  191DMF     H1 2775   3.110   3.376   2.579  0.2077  1.4797  1.5083
  191DMF     H2 2776   3.170   3.278   2.718 -0.4870  0.6448  1.0712
  191DMF     H3 2777   3.234   3.272   2.540  1.4025  2.5819 -0.8678
  191DMF     H4 2778   3.158   3.574   2.660 -0.7742 -0.0088  0.8532
  191DMF     H5 2779   3.331   3.637   2.655  0.8122 -1.1999  0.7684
  191DMF     H6 2780   3.260   3.565   2.808  2.5301 -0.7186  0.6035
  191DMF     H7 2781   3.494   3.476   2.727 -1.5769  1.1949  0.8498
  192DMF     C1 2782   3.245   1.679   2.310  0.2805 -0.3168 -0.3127
  192DMF     N1 2783   3.283   1.688   2.457  0.3776  0.2962 -0.0134
  192DMF     C2 2784   3.262   1.582   2.552  0.4284  0.2085  0.3450
  192DMF     C3 2785   3.336   1.808   2.496  0.0269  0.1980  0.2765
  192DMF     O1 2786   3.343   1.902   2.412  0.0665  0.3175  0.2024
  192DMF     H1 2787   3.306   1.741   2.243 -0.6862  2.5008  1.3098
  192DMF     H2 2788   3.139   1.708   2.305  1.0113  2.3902 -1.3522
  192DMF     H3 2789   3.246   1.573   2.284  2.7344 -0.8479  1.7088
  192DMF     H4 2790   3.251   1.482   2.508  0.4624  0.2737  0.1871
  192DMF     H5 2791   3.167   1.612   2.597  0.1064 -1.3461  0.7475
  192DMF     H6 2792   3.340   1.583   2.629 -0.5942  1.0433  1.3897
  192DMF     H7 2793   3.369   1.812   2.601  2.0350 -0.2074 -0.3162
  193DMF     C1 2794   1.797   1.455   1.010 -0.1261 -0.0589  0.0752
  193DMF     N1 2795   1.874   1.363   1.103 -0.3599 -0.3290  0.1608
  193DMF     C2 2796   1.872   1.216   1.083 -0.1507  0.0684 -0.3497
  193DMF     C3 2797   1.960   1.423   1.194  0.2577  0.0489  0.7392
  193DMF     O1 2798   1.968   1.543   1.202 -0.6497 -0.9388 -0.3811
  193DMF     H1 2799   1.755   1.398   0.926 -0.0380 -0.6684  0.4487
  193DMF     H2 2800   1.875   1.526   0.979  1.0884 -1.0659  0.8031
  193DMF     H3 2801   1.723   1.511   1.069 -0.2418 -0.3980  0.2530
  193DMF     H4 2802   1.948   1.180   1.012 -0.5161  0.0342 -0.7237
  193DMF     H5 2803   1.772   1.173   1.070 -0.1659  0.0143 -0.0488
  193DMF     H6 2804   1.917   1.162   1.167 -1.0631  0.0227  0.1157
  193DMF     H7 2805   2.025   1.356   1.254 -1.7669  0.4046  3.4411
  194DMF     C1 2806   2.155   3.014   0.122 -0.4464  0.6553 -0.4082
  194DMF     N1 2807   2.062   3.083   0.026  0.2270  0.0728  0.1619
  194DMF     C2 2808   2.102   3.118  -0.114  0.0130  0.4817 -0.9070
  194DMF     C3 2809   1.930   3.117   0.071 -0.5542  0.5820 -0.0277
  194DMF     O1 2810   1.890   3.103   0.184  0.0442 -0.3669 -0.1491
  194DMF     H1 2811   2.164   3.065   0.219 -1.1977  0.4994 -0.2557
  194DMF     H2 2812   2.256   3.017   0.078 -2.2337  0.8233 -4.7093
  194DMF     H3 2813   2.117   2.912   0.134  0.6344 -0.1057 -3.0306
  194DMF     H4 2814   2.077   3.222  -0.137  0.3725  0.9182  0.6318
  194DMF     H5 2815   2.045   3.046  -0.174 -0.3058  0.2295 -0.3084
  194DMF     H6 2816   2.211   3.105  -0.125 -0.0627 -1.6430  0.6164
  194DMF     H7 2817   1.875   3.177  -0.004  0.4659  0.0156 -1.2418
  195DMF     C1 2818   1.252   1.170   2.880 -0.0396  0.4712 -0.8100
  195DMF     N1 2819   1.162   1.148   2.997 -0.3100 -0.7602  0.3293
  195DMF     C2 2820   1.042   1.083   2.978 -0.1799 -0.0095  0.0881
  195DMF     C3 2821   1.207   1.174   3.131  0.1452  0.1661  0.3837
  195DMF     O1 2822   1.319   1.225   3.147 -1.2948 -0.6185 -0.1170
  195DMF     H1 2823   1.218   1.137   2.781 -0.3917 -2.9519  0.3712
  195DMF     H2 2824   1.352   1.128   2.898 -0.3482 -0.6935 -1.7224
  195DMF     H3 2825   1.266   1.278   2.876 -1.4686  0.8703  2.8477
  195DMF     H4 2826   1.051   0.990   2.920 -2.6640 -0.1513 -0.1330
  195DMF     H5 2827   0.982   1.146   2.912 -0.0299  1.5524  1.4213
  195DMF     H6 2828   0.996   1.061   3.075  0.9064  1.2119  0.8799
  195DMF     H7 2829   1.131   1.148   3.206 -1.3119 -2.4839 -1.9020
  196DMF     C1 2830   2.482   3.079   0.940  0.5712  0.0395 -0.0748
  196DMF     N1 2831   2.612   3.141   0.944 -0.4391  0.7263  0.5765
  196DMF     C2 2832   2.653   3.217   0.822 -0.3908 -0.4890 -0.7505
  196DMF     C3 2833   2.680   3.167   1.065 -0.3343  0.8053  0.0970
  196DMF     O1 2834   2.646   3.126   1.177  0.3482  0.6976  0.1935
  196DMF     H1 2835   2.443   3.085   0.838 -0.5941  1.4673  0.4331
  196DMF     H2 2836   2.407   3.134   0.999  0.3343 -1.1930  0.8048
  196DMF     H3 2837   2.497   2.972   0.963 -0.3821  0.5099  3.0223
  196DMF     H4 2838   2.621   3.158   0.736  4.7165 -2.3342 -1.5231
  196DMF     H5 2839   2.759   3.243   0.811 -0.4945  0.0615 -0.4970
  196DMF     H6 2840   2.613   3.319   0.830  1.0925  0.1239 -1.0199
  196DMF     H7 2841   2.771   3.227   1.046  0.3649 -0.6533 -1.3057
  197DMF     C1 2842   0.508   2.802   0.568 -0.3097  0.8011  0.8395
  197DMF     N1 2843   0.394   2.787   0.655 -0.0407 -0.2022  0.4788
  197DMF     C2 2844   0.263   2.774   0.589  0.4743  0.2422 -0.9565
  197DMF     C3 2845   0.400   2.776   0.791  0.5776  0.1844  0.4389
  197DMF     O1 2846   0.507   2.791   0.852 -0.3009 -0.2044 -0.7386
  197DMF     H1 2847   0.477   2.861   0.481  0.3985 -1.0048 -0.6584
  197DMF     H2 2848   0.547   2.705   0.536  1.3591  1.5577  0.4652
  197DMF     H3 2849   0.582   2.859   0.626 -1.5157  2.3571  0.8872
  197DMF     H4 2850   0.249   2.854   0.514 -1.6657  1.8205  1.0625
  197DMF     H5 2851   0.187   2.776   0.667  1.9858 -0.3344  0.5547
  197DMF     H6 2852   0.266   2.677   0.538  4.2690 -0.3423  0.1957
  197DMF     H7 2853   0.304   2.753   0.841  1.7389 -0.9133  2.2162
  198DMF     C1 2854   3.237   3.155   2.977 -0.1742 -0.3201  0.3240
  198DMF     N1 2855   3.359   3.137   3.056  0.0063  0.2633 -0.3731
  198DMF     C2 2856   3.456   3.252   3.067 -0.2283 -0.5215  0.0147
  198DMF     C3 2857   3.394   3.012   3.109  0.1772 -0.0022 -0.1131
  198DMF     O1 2858   3.332   2.908   3.079 -0.4477 -0.2618 -0.1107
  198DMF     H1 2859   3.241   3.101   2.882 -0.6628  0.9075 -0.4132
  198DMF     H2 2860   3.227   3.263   2.959 -0.7802 -0.4878 -0.3839
  198DMF     H3 2861   3.153   3.128   3.042 -0.4993 -2.5096 -0.9681
  198DMF     H4 2862   3.554   3.210   3.092 -0.0784  0.5755  1.3406
  198DMF     H5 2863   3.423   3.326   3.141  2.8272 -1.7440  2.6978
  198DMF     H6 2864   3.460   3.313   2.975 -2.5219  0.2511  0.4043
  198DMF     H7 2865   3.484   3.019   3.174  0.7497  0.6056 -0.9530
  199DMF     C1 2866   0.146   3.127   0.990  0.4518 -0.0436  0.3070
  199DMF     N1 2867   0.235   3.100   1.104 -0.2155  0.3796  0.3974
  199DMF     C2 2868   0.324   2.984   1.106 -0.3545 -0.5487  0.2146
  199DMF     C3 2869   0.252   3.195   1.196 -0.0794 -0.6831 -0.4229
  199DMF     O1 2870   0.196   3.303   1.186  0.0013  0.2055 -0.6647
  199DMF     H1 2871   0.189   3.196   0.916  0.9018 -1.9387 -1.2391
  199DMF     H2 2872   0.052   3.175   1.018  0.7946  0.5999  0.3748
  199DMF     H3 2873   0.123   3.034   0.936  1.4053 -1.6421  2.5314
  199DMF     H4 2874   0.416   3.011   1.158 -0.4776  0.1262  0.0875
  199DMF     H5 2875   0.349   2.949   1.005  1.1667  1.2405 -0.0609
  199DMF     H6 2876   0.267   2.907   1.159 -0.6345 -0.5672 -0.1099
  199DMF     H7 2877   0.321   3.166   1.277  1.0336 -1.7923 -1.7544
  200DMF     C1 2878   1.520   0.867   3.021 -0.5608 -0.0518 -0.6090
  200DMF     N1 2879   1.406   0.806   3.104  0.2998  0.0897  0.1006
  200DMF     C2 2880   1.446   0.772   3.237  1.1164  0.9650  0.0572
  200DMF     C3 2881   1.275   0.777   3.058  0.3520 -0.2127 -0.2631
  200DMF     O1 2882   1.236   0.808   2.944 -0.1724  0.1240 -1.0737
  200DMF     H1 2883   1.562   0.956   3.069  1.8052 -1.2105 -0.4876
  200DMF     H2 2884   1.477   0.903   2.927  0.5052  1.3543 -0.5679
  200DMF     H3 2885   1.596   0.796   2.987  0.3906  0.6029  0.1477
  200DMF     H4 2886   1.359   0.769   3.304  0.4077  2.3660 -0.7875
  200DMF     H5 2887   1.510   0.845   3.290 -0.1283  1.2236  1.2308
  200DMF     H6 2888   1.500   0.677   3.226  0.2953  0.3924  0.8757
  200DMF     H7 2889   1.213   0.736   3.140  1.7638  2.8352  2.4423
  201DMF     C1 2890   1.800   2.739   0.632 -0.5531  0.2398  0.0044
  201DMF     N1 2891   1.832   2.866   0.570  0.0376  0.0259  0.8168
  201DMF     C2 2892   1.851   2.859   0.428  0.4639  0.6003  0.0670
  201DMF     C3 2893   1.802   2.985   0.637  0.5331 -0.5415  0.2752
  201DMF     O1 2894   1.763   2.981   0.754 -0.5086 -0.1267 -0.0045
  201DMF     H1 2895   1.853   2.661   0.576  0.6087  0.8543  0.2479
  201DMF     H2 2896   1.692   2.721   0.623 -0.3029 -0.5170 -1.6099
  201DMF     H3 2897   1.829   2.748   0.737 -1.8864 -0.9865  0.5009
  201DMF     H4 2898   1.946   2.912   0.418  1.6704 -1.6349 -0.8631
  201DMF     H5 2899   1.783   2.920   0.368  2.1323 -0.4039 -3.0131
  201DMF     H6 2900   1.858   2.758   0.386 -2.2440  0.9916 -1.4179
  201DMF     H7 2901   1.826   3.076   0.579 -0.2618 -1.1088 -0.9542
  202DMF     C1 2902   2.526   2.141   0.505  0.3374 -0.5049 -0.0353
  202DMF     N1 2903   2.468   2.197   0.634  0.3151  0.1267  0.2399
  202DMF     C2 2904   2.366   2.304   0.620 -0.2207  0.2066 -0.4206
  202DMF     C3 2905   2.524   2.158   0.755 -0.0832 -0.2736 -0.4395
  202DMF     O1 2906   2.599   2.065   0.775 -0.3937  0.3853 -0.1672
  202DMF     H1 2907   2.454   2.072   0.460  1.4183 -1.4692 -0.3230
  202DMF     H2 2908   2.627   2.103   0.527 -0.3694 -2.6252 -0.3143
  202DMF     H3 2909   2.549   2.218   0.431  2.3554 -1.6292 -0.6048
  202DMF     H4 2910   2.275   2.268   0.570 -0.7013  0.6302  0.1433
  202DMF     H5 2911   2.405   2.402   0.590  0.9759 -0.2640 -0.4458
  202DMF     H6 2912   2.318   2.301   0.719 -2.0726 -0.4486 -1.3116
  202DMF     H7 2913   2.486   2.224   0.836 -2.8354 -3.1373  0.7364
  203DMF     C1 2914   0.115   1.250   3.101 -0.8290 -0.0703  0.5427
  203DMF     N1 2915   0.230   1.223   3.187 -0.5212  0.2031  0.0719
  203DMF     C2 2916   0.291   1.085   3.190  0.8941 -0.7125 -0.7762
  203DMF     C3 2917   0.260   1.308   3.295  0.1632 -0.1548 -0.0410
  203DMF     O1 2918   0.207   1.414   3.317  0.7101  0.3010 -0.8910
  203DMF     H1 2919   0.130   1.198   3.005 -1.1040 -1.6074  1.3181
  203DMF     H2 2920   0.112   1.358   3.081  0.9648 -0.3456 -1.4038
  203DMF     H3 2921   0.016   1.222   3.139 -2.1017  2.8004 -0.4388
  203DMF     H4 2922   0.303   1.037   3.092 -0.8876 -2.2935 -0.2723
  203DMF     H5 2923   0.228   1.020   3.251  0.4538  1.1217  0.7566
  203DMF     H6 2924   0.388   1.097   3.239 -0.7182 -0.1922  2.3884
  203DMF     H7 2925   0.337   1.262   3.360 -0.2280 -0.6750  0.0527
  204DMF     C1 2926   1.604   2.940   1.361  0.6337  0.1796  0.6815
  204DMF     N1 2927   1.715   2.932   1.463  0.3120  0.4497  0.4161
  204DMF     C2 2928   1.732   3.046   1.537  0.6563  0.0376  0.2319
  204DMF     C3 2929   1.758   2.805   1.507 -0.0375 -0.7247  0.0071
  204DMF     O1 2930   1.739   2.708   1.443  0.1128  0.3716 -0.0229
  204DMF     H1 2931   1.527   2.863   1.373  2.1052 -1.1655  1.6189
  204DMF     H2 2932   1.643   2.916   1.261  0.1955 -0.3494  0.6368
  204DMF     H3 2933   1.558   3.040   1.366  0.1434 -0.1264  2.7305
  204DMF     H4 2934   1.813   3.017   1.606  1.8479  2.3959 -0.1198
  204DMF     H5 2935   1.645   3.084   1.593  0.3185  0.9354 -0.8782
  204DMF     H6 2936   1.773   3.131   1.481 -0.8866 -1.2397 -2.9359
  204DMF     H7 2937   1.825   2.806   1.596 -0.3590 -1.2956  0.2555
  205DMF     C1 2938   1.749   2.655   2.248 -0.6186  0.1820 -0.4688
  205DMF     N1 2939   1.865   2.749   2.253 -0.1031 -0.4288 -0.2245
  205DMF     C2 2940   1.834   2.896   2.232 -0.0654  0.0584  0.6220
  205DMF     C3 2941   2.002   2.702   2.238 -0.8943  0.1383  0.4195
  205DMF     O1 2942   2.032   2.584   2.245 -0.3961  0.4164  0.0381
  205DMF     H1 2943   1.674   2.710   2.192 -1.7092 -0.4541  0.3490
  205DMF     H2 2944   1.717   2.628   2.349  0.4521  0.6606  0.0088
  205DMF     H3 2945   1.777   2.566   2.189  1.4887 -0.2987  1.1827
  205DMF     H4 2946   1.759   2.905   2.152 -0.0851  1.7288  0.8219
  205DMF     H5 2947   1.934   2.925   2.200 -0.1240 -2.1734 -1.8096
  205DMF     H6 2948   1.806   2.935   2.331  0.2816  0.5113  0.5388
  205DMF     H7 2949   2.083   2.772   2.211 -0.1622 -0.6955  0.4283
  206DMF     C1 2950   2.581   0.864   3.416 -0.0965 -0.4508 -0.1678
  206DMF     N1 2951   2.684   0.783   3.478 -0.3335 -0.0564  0.4203
  206DMF     C2 2952   2.717   0.816   3.613  0.4666 -0.6091 -0.2171
  206DMF     C3 2953   2.762   0.692   3.392 -0.2765 -0.2474  0.3239
  206DMF     O1 2954   2.746   0.685   3.271 -0.0078 -0.2984  0.0187
  206DMF     H1 2955   2.601   0.902   3.315 -3.2893  1.5452 -0.1241
  206DMF     H2 2956   2.555   0.945   3.484 -1.6395  0.3874 -1.6991
  206DMF     H3 2957   2.489   0.804   3.408 -0.6515  0.3890 -0.1132
  206DMF     H4 2958   2.821   0.851   3.619  0.5942 -1.0796  0.4535
  206DMF     H5 2959   2.695   0.739   3.688  0.8288 -0.6129 -0.1138
  206DMF     H6 2960   2.658   0.904   3.644  1.1245 -0.4430  0.6194
  206DMF     H7 2961   2.829   0.629   3.454  0.3834  1.3849  1.3301
  207DMF     C1 2962   3.194   1.500   2.987  0.2639 -0.1865 -0.0156
  207DMF     N1 2963   3.111   1.385   2.975  0.3564  0.1533  0.0302
  207DMF     C2 2964   3.068   1.314   3.097  0.3155 -0.1003  0.9043
  207DMF     C3 2965   3.081   1.337   2.850 -0.9248 -0.3089  0.5946
  207DMF     O1 2966   3.137   1.376   2.749 -0.1767 -0.2439  0.2317
  207DMF     H1 2967   3.186   1.566   2.899 -0.8602  0.6652  0.7073
  207DMF     H2 2968   3.299   1.474   3.004 -0.3528 -1.0840  2.6937
  207DMF     H3 2969   3.160   1.563   3.070  0.5429 -1.6882  1.2666
  207DMF     H4 2970   3.074   1.384   3.181  0.7342 -0.5120  1.2176
  207DMF     H5 2971   3.131   1.226   3.115 -1.1218 -0.8396  2.4554
  207DMF     H6 2972   2.966   1.274   3.091  0.0010  0.3234  3.0579
  207DMF     H7 2973   3.004   1.258   2.855 -1.3839  0.1223  0.2937
  208DMF     C1 2974   3.131   0.505   1.564  0.5694 -0.8459  0.6133
  208DMF     N1 2975   3.184   0.366   1.555  0.1989 -0.0672  0.2874
  208DMF     C2 2976   3.331   0.349   1.546  0.1351 -0.4422 -0.1187
  208DMF     C3 2977   3.101   0.261   1.523  0.5202  0.2535  0.3749
  208DMF     O1 2978   2.980   0.277   1.497 -0.1963  0.4038 -0.2887
  208DMF     H1 2979   3.206   0.579   1.595  0.6699 -0.4106 -0.6140
  208DMF     H2 2980   3.050   0.513   1.638 -1.0438 -0.5286 -1.1499
  208DMF     H3 2981   3.096   0.535   1.464  0.9020 -0.2980  0.6588
  208DMF     H4 2982   3.370   0.273   1.614  1.2463  1.9056  1.9116
  208DMF     H5 2983   3.390   0.438   1.566  0.3946 -0.7157  0.3354
  208DMF     H6 2984   3.362   0.317   1.445  2.9214  0.5241  0.3975
  208DMF     H7 2985   3.154   0.164   1.521 -1.9182 -1.0902 -0.7222
  209DMF     C1 2986   2.370   1.157   0.549  0.8377  0.2833  0.1364
  209DMF     N1 2987   2.473   1.254   0.578 -0.0362  0.7147  0.4422
  209DMF     C2 2988   2.587   1.269   0.480 -0.7266 -0.6842 -0.1820
  209DMF     C3 2989   2.497   1.297   0.711  0.2122  0.5940 -1.1809
  209DMF     O1 2990   2.421   1.280   0.803 -0.0495  0.2170 -0.1428
  209DMF     H1 2991   2.391   1.110   0.452  0.6068  0.2314  0.1119
  209DMF     H2 2992   2.279   1.216   0.531  2.3852  1.9198 -2.7997
  209DMF     H3 2993   2.368   1.087   0.633  4.0085  0.1766  0.1869
  209DMF     H4 2994   2.613   1.179   0.423  0.2014 -0.2850 -0.3980
  209DMF     H5 2995   2.679   1.299   0.532  0.4986 -0.9640 -2.0997
  209DMF     H6 2996   2.553   1.345   0.408 -2.2914 -1.9183 -0.7821
  209DMF     H7 2997   2.591   1.352   0.729  0.7653 -0.8898  0.5637
  210DMF     C1 2998   2.172   1.177   3.101  0.0879 -0.5361  0.0657
  210DMF     N1 2999   2.027   1.178   3.124 -0.7169 -0.2683  0.4415
  210DMF     C2 3000   1.963   1.302   3.173  0.2122  0.2897 -0.2834
  210DMF     C3 3001   1.946   1.083   3.070  0.1575 -0.2909  0.2013
  210DMF     O1 3002   1.984   0.995   2.989 -0.1546  0.1130  0.2963
  210DMF     H1 3003   2.208   1.278   3.123  1.3853 -0.4319 -2.3193
  210DMF     H2 3004   2.201   1.161   2.996  0.1659 -2.1960  0.3184
  210DMF     H3 3005   2.222   1.106   3.168 -1.0819  0.6789  2.2693
  210DMF     H4 3006   1.969   1.306   3.282  0.1749 -1.0809 -0.2213
  210DMF     H5 3007   1.856   1.301   3.147  0.5130 -2.1625 -1.5295
  210DMF     H6 3008   2.005   1.393   3.128  1.0743 -0.3187 -0.7266
  210DMF     H7 3009   1.847   1.082   3.119 -0.0664  1.0110 -0.1977
  211DMF     C1 3010   0.968   1.117   1.195  0.3712 -0.0282  0.1118
  211DMF     N1 3011   0.931   1.166   1.059 -0.2558 -0.9409  0.0488
  211DMF     C2 3012   0.873   1.073   0.967  0.1704 -0.0894 -0.0767
  211DMF     C3 3013   0.977   1.288   1.004  0.3064  0.4308  0.8236
  211DMF     O1 3014   1.037   1.367   1.069  0.3418 -0.2186  0.3560
  211DMF     H1 3015   0.921   1.175   1.275  0.3286  1.0375 -0.6683
  211DMF     H2 3016   1.078   1.125   1.203  0.2976 -0.6383  1.9627
  211DMF     H3 3017   0.952   1.009   1.208  1.1434  0.0918  2.3098
  211DMF     H4 3018   0.844   1.118   0.871  1.0693  2.1354  0.6918
  211DMF     H5 3019   0.785   1.027   1.014 -0.2304 -1.1852 -1.8268
  211DMF     H6 3020   0.949   0.997   0.942  0.7007  0.3980  0.0605
  211DMF     H7 3021   0.954   1.302   0.897 -0.5762 -0.6832  0.8610
  212DMF     C1 3022   0.360   0.767   0.654 -0.0619 -0.0438  0.6394
  212DMF     N1 3023   0.379   0.873   0.755  0.1522 -0.1358 -0.2781
  212DMF     C2 3024   0.449   0.997   0.717  0.0994  0.1772 -0.0173
  212DMF     C3 3025   0.342   0.846   0.885 -0.6731  0.1626 -0.2621
  212DMF     O1 3026   0.288   0.736   0.920 -0.4989  0.2176  0.3212
  212DMF     H1 3027   0.256   0.736   0.660 -0.1263 -0.0061 -0.1689
  212DMF     H2 3028   0.430   0.683   0.655  0.4473  0.3265 -0.8784
  212DMF     H3 3029   0.376   0.815   0.556 -1.8544  1.8852  1.2500
  212DMF     H4 3030   0.471   1.063   0.802  0.3959 -0.4123  0.3692
  212DMF     H5 3031   0.390   1.047   0.639 -1.0000  1.4448  1.5809
  212DMF     H6 3032   0.547   0.968   0.678 -0.0479 -0.5774  0.1700
  212DMF     H7 3033   0.359   0.926   0.959  1.0096 -0.6685  0.2703
  213DMF     C1 3034   2.099   3.320   3.332  0.7710 -0.3837 -0.3210
  213DMF     N1 3035   2.034   3.414   3.422 -0.1824 -0.6311 -0.6881
  213DMF     C2 3036   2.122   3.516   3.504 -0.3451  0.0185  0.1249
  213DMF     C3 3037   1.892   3.436   3.423 -0.3375  0.0122  0.4093
  213DMF     O1 3038   1.813   3.355   3.375 -0.0063  0.3919 -0.1837
  213DMF     H1 3039   2.154   3.251   3.397  1.5125  2.1547  1.8692
  213DMF     H2 3040   2.144   3.382   3.253 -1.0763  2.2090  0.5726
  213DMF     H3 3041   2.027   3.257   3.280 -0.1985  2.5117 -2.6343
  213DMF     H4 3042   2.064   3.608   3.518 -0.5652 -0.3251  1.5667
  213DMF     H5 3043   2.217   3.538   3.455 -1.5637 -0.8886 -2.7376
  213DMF     H6 3044   2.141   3.470   3.602 -1.9534 -0.0582  0.4139
  213DMF     H7 3045   1.861   3.524   3.482  0.3755 -1.1106  2.5188
  214DMF     C1 3046   2.453   0.209   1.373  0.4680 -0.0262  0.6745
  214DMF     N1 3047   2.605   0.232   1.389  0.8944 -0.6381  0.0197
  214DMF     C2 3048   2.659   0.325   1.487  0.8371  0.2021 -0.6449
  214DMF     C3 3049   2.695   0.181   1.293 -0.1971 -1.5207  0.3232
  214DMF     O1 3050   2.657   0.118   1.196  0.0457 -0.2127  0.3563
  214DMF     H1 3051   2.391   0.266   1.442 -0.7934 -0.6760  0.0827
  214DMF     H2 3052   2.442   0.100   1.387  3.5301 -0.4405  0.3732
  214DMF     H3 3053   2.423   0.234   1.271  2.1244  1.7021  0.5751
  214DMF     H4 3054   2.664   0.428   1.448 -1.9147  1.5740  2.3491
  214DMF     H5 3055   2.754   0.292   1.529 -0.5808  1.8675  4.3413
  214DMF     H6 3056   2.601   0.324   1.581  1.4894  0.8020 -0.2346
  214DMF     H7 3057   2.799   0.217   1.304 -0.3951 -1.8331  3.5633
  215DMF     C1 3058   1.047   3.251   3.050 -0.7909 -0.2733  0.8944
  215DMF     N1 3059   1.108   3.306   3.176 -0.2647  0.9565 -0.1643
  215DMF     C2 3060   1.111   3.447   3.185 -0.1216  0.1836 -0.3169
  215DMF     C3 3061   1.148   3.228   3.291 -0.3989  1.3995  0.4402
  215DMF     O1 3062   1.133   3.103   3.290  0.2751  0.0058 -0.3470
  215DMF     H1 3063   1.008   3.150   3.063  0.0435 -0.0210  6.3167
  215DMF     H2 3064   1.123   3.257   2.971 -0.3105  0.9656  1.4329
  215DMF     H3 3065   0.966   3.319   3.019 -1.4372 -0.8807  1.2345
  215DMF     H4 3066   1.154   3.488   3.277  1.5281  0.7978 -1.3355
  215DMF     H5 3067   1.015   3.500   3.180 -0.5161 -0.5392 -0.4785
  215DMF     H6 3068   1.167   3.500   3.107  1.0922  2.4111  1.9761
  215DMF     H7 3069   1.195   3.276   3.379  1.4781  1.3776 -0.5480
  216DMF     C1 3070   0.974   1.726   0.680  0.5961  0.5064 -0.1043
  216DMF     N1 3071   0.955   1.851   0.614  0.6055 -0.0101 -0.2975
  216DMF     C2 3072   0.980   1.975   0.690  0.0383  0.1188 -0.4131
  216DMF     C3 3073   0.935   1.856   0.470  0.0645  0.3216 -0.7802
  216DMF     O1 3074   0.940   1.756   0.402  0.1249 -0.6108  0.3432
  216DMF     H1 3075   1.002   1.743   0.785  1.7495  1.0197 -0.4861
  216DMF     H2 3076   1.054   1.672   0.627  0.8610  1.8691 -1.0996
  216DMF     H3 3077   0.875   1.679   0.680 -1.0763  3.8942  0.6064
  216DMF     H4 3078   1.087   1.987   0.709  0.1419 -1.5829  0.1281
  216DMF     H5 3079   0.928   1.962   0.785  0.4044  0.5510 -0.1540
  216DMF     H6 3080   0.935   2.055   0.630 -0.5394 -0.3917 -0.6735
  216DMF     H7 3081   0.925   1.960   0.436 -3.6782  0.5638  0.7196
  217DMF     C1 3082   2.558   2.297   0.171 -0.0030  0.6590 -0.4789
  217DMF     N1 3083   2.680   2.205   0.180 -0.3248 -0.3569 -0.4837
  217DMF     C2 3084   2.663   2.068   0.138 -0.3373  0.5064  0.0868
  217DMF     C3 3085   2.810   2.255   0.205 -0.0410 -0.3235 -0.3832
  217DMF     O1 3086   2.824   2.376   0.235 -0.1988 -0.0269  0.1088
  217DMF     H1 3087   2.572   2.377   0.097  0.2159 -0.1434 -1.3201
  217DMF     H2 3088   2.541   2.350   0.265  1.2468 -0.9028  0.6561
  217DMF     H3 3089   2.467   2.242   0.145 -1.1819  1.3260  2.1473
  217DMF     H4 3090   2.668   2.059   0.029  1.1441  0.6610  0.1334
  217DMF     H5 3091   2.568   2.026   0.173  0.6546 -1.3016  0.6541
  217DMF     H6 3092   2.739   2.003   0.183 -0.7962 -0.6709 -0.7963
  217DMF     H7 3093   2.891   2.180   0.198  0.7432  0.2744  1.8838
  218DMF     C1 3094   0.190   1.134   2.589  0.2894  0.0561  0.2279
  218DMF     N1 3095   0.067   1.191   2.647 -0.2687  0.0141 -0.9526
  218DMF     C2 3096  -0.047   1.103   2.649  0.4870 -0.0647  0.1156
  218DMF     C3 3097   0.077   1.303   2.732  0.3574 -0.2756  0.5933
  218DMF     O1 3098   0.186   1.359   2.750  0.7922  0.1866  0.7090
  218DMF     H1 3099   0.258   1.215   2.561 -2.0143  1.5504 -1.0991
  218DMF     H2 3100   0.165   1.079   2.498  1.1577 -0.6414  0.3941
  218DMF     H3 3101   0.238   1.058   2.652  0.3378  0.1653  0.3236
  218DMF     H4 3102  -0.050   1.048   2.744 -1.0321  0.9975  0.6954
  218DMF     H5 3103  -0.029   1.042   2.560 -1.9386  3.2207 -2.7780
  218DMF     H6 3104  -0.138   1.161   2.630  0.5856  0.0608  0.0298
  218DMF     H7 3105  -0.013   1.342   2.782  0.2614  0.9078 -0.4705
  219DMF     C1 3106   3.284   2.544   3.432  0.4460  0.2438  0.2024
  219DMF     N1 3107   3.244   2.601   3.306 -0.4578 -0.1815 -0.2126
  219DMF     C2 3108   3.255   2.519   3.188  0.0649 -0.2309 -0.4176
  219DMF     C3 3109   3.182   2.724   3.288  0.1729 -1.0911 -0.0685
  219DMF     O1 3110   3.168   2.801   3.383 -0.4105 -0.5925 -0.4180
  219DMF     H1 3111   3.229   2.453   3.459  1.2916 -0.4795 -0.4597
  219DMF     H2 3112   3.281   2.622   3.510 -4.0015  0.2223  0.1845
  219DMF     H3 3113   3.391   2.533   3.415  0.4315 -0.7246  0.7566
  219DMF     H4 3114   3.201   2.429   3.221 -1.0637  0.8980  0.8298
  219DMF     H5 3115   3.361   2.507   3.162  1.1498  0.6892  3.3210
  219DMF     H6 3116   3.194   2.565   3.109 -0.7805  2.7563  1.9141
  219DMF     H7 3117   3.153   2.745   3.183  1.7640  1.2451 -0.0881
  220DMF     C1 3118   0.896   0.933   2.635  0.3183 -0.7655 -0.2828
  220DMF     N1 3119   1.031   0.986   2.618 -0.1061  0.3806  0.3904
  220DMF     C2 3120   1.132   0.880   2.588 -0.1956 -0.8554 -0.3358
  220DMF     C3 3121   1.060   1.121   2.593  0.2512  0.0271 -0.1335
  220DMF     O1 3122   0.993   1.215   2.641  0.1485 -0.4933  0.1859
  220DMF     H1 3123   0.872   0.920   2.742  1.4844 -1.6670 -0.1241
  220DMF     H2 3124   0.892   0.838   2.581 -1.7574 -2.6889  3.0285
  220DMF     H3 3125   0.816   0.991   2.586  0.3759 -2.5466 -2.5151
  220DMF     H4 3126   1.178   0.915   2.496 -0.9631  4.3466  1.1242
  220DMF     H5 3127   1.086   0.780   2.592 -1.0788 -0.4412  0.1128
  220DMF     H6 3128   1.209   0.869   2.666  2.1733  1.0689 -2.3380
  220DMF     H7 3129   1.159   1.140   2.548 -0.3743  1.7460 -0.8466
  221DMF     C1 3130   2.846   0.072   0.309 -0.0061  0.2401  0.5060
  221DMF     N1 3131   2.781   0.127   0.429 -0.5641 -0.6970 -0.4842
  221DMF     C2 3132   2.774   0.045   0.553 -0.1613  0.2711 -0.5435
  221DMF     C3 3133   2.708   0.252   0.422  0.2331  0.1811  0.8244
  221DMF     O1 3134   2.716   0.321   0.324  0.2026  0.0894  0.8586
  221DMF     H1 3135   2.950   0.103   0.329 -0.4591  1.5419  0.8886
  221DMF     H2 3136   2.800   0.112   0.218 -1.9198  0.6798  1.6487
  221DMF     H3 3137   2.841  -0.037   0.306 -1.5387  0.3315 -1.5998
  221DMF     H4 3138   2.746  -0.059   0.528 -1.4465  0.9082 -1.8279
  221DMF     H5 3139   2.708   0.090   0.628  0.2981 -1.5465  1.0179
  221DMF     H6 3140   2.871   0.052   0.604  0.3767  1.6232 -1.7101
  221DMF     H7 3141   2.644   0.272   0.510  0.7447 -1.0305  1.4877
  222DMF     C1 3142   2.796   0.321   0.784  0.4471 -0.1095 -0.6092
  222DMF     N1 3143   2.703   0.227   0.839 -0.2698 -0.2031  0.0642
  222DMF     C2 3144   2.758   0.103   0.913  0.3850  0.5779 -0.1468
  222DMF     C3 3145   2.581   0.269   0.859  0.4057 -0.2963  0.1346
  222DMF     O1 3146   2.540   0.378   0.817 -0.3785 -0.4163 -0.1340
  222DMF     H1 3147   2.899   0.287   0.798 -0.1531 -2.0678 -0.6441
  222DMF     H2 3148   2.788   0.418   0.833 -0.3681 -0.2502 -0.4507
  222DMF     H3 3149   2.774   0.340   0.678  0.6367  1.5913 -0.3543
  222DMF     H4 3150   2.838   0.143   0.977  1.6130 -0.5904 -0.9228
  222DMF     H5 3151   2.804   0.033   0.842 -2.8609  0.0419 -1.8445
  222DMF     H6 3152   2.681   0.056   0.976  0.4436  1.6932  0.7656
  222DMF     H7 3153   2.516   0.200   0.916 -0.2195 -0.4348 -0.7356
  223DMF     C1 3154   2.539   2.981   2.886 -0.6053  0.2915  0.4012
  223DMF     N1 3155   2.424   2.911   2.946  0.3158  0.3685 -0.4205
  223DMF     C2 3156   2.384   2.952   3.076  0.3201 -0.2270  0.4828
  223DMF     C3 3157   2.382   2.790   2.897 -0.0184  0.4061  0.2457
  223DMF     O1 3158   2.420   2.747   2.784  0.2706 -0.2108  0.2446
  223DMF     H1 3159   2.618   2.974   2.962 -0.9645 -3.6766  0.5088
  223DMF     H2 3160   2.514   3.082   2.851 -3.2081  0.1519  1.7483
  223DMF     H3 3161   2.574   2.928   2.797  0.6810  0.0005  1.0774
  223DMF     H4 3162   2.445   3.040   3.097  0.5158 -0.5632  1.3370
  223DMF     H5 3163   2.414   2.882   3.156 -2.5046 -1.0254  0.9043
  223DMF     H6 3164   2.276   2.973   3.087 -0.2822 -1.3525 -2.7690
  223DMF     H7 3165   2.307   2.735   2.956 -0.6032 -2.1902 -2.7609
  224DMF     C1 3166   2.506   0.713   1.184 -0.7742 -0.1873 -0.8792
  224DMF     N1 3167   2.494   0.572   1.137  0.1614  0.1304  0.8194
  224DMF     C2 3168   2.366   0.533   1.082  0.4993  0.2859 -0.1644
  224DMF     C3 3169   2.594   0.477   1.148  0.7456  0.7416  0.3520
  224DMF     O1 3170   2.705   0.510   1.192 -0.1549 -0.3753  0.2315
  224DMF     H1 3171   2.517   0.785   1.102  0.4984 -0.3361 -0.8379
  224DMF     H2 3172   2.590   0.731   1.252 -2.8427 -0.1997  1.7548
  224DMF     H3 3173   2.421   0.744   1.246 -0.5670 -0.2128 -0.5810
  224DMF     H4 3174   2.366   0.425   1.067  0.3095  0.4823 -1.6830
  224DMF     H5 3175   2.364   0.576   0.981 -2.1091 -3.0048 -1.6280
  224DMF     H6 3176   2.279   0.573   1.136 -0.5819 -1.6887 -0.3853
  224DMF     H7 3177   2.568   0.372   1.123  1.9205  0.1983  1.3445
  225DMF     C1 3178   1.593   1.820   0.127  0.3378  0.1132  0.3295
  225DMF     N1 3179   1.677   1.870   0.022 -0.1434 -0.6945 -0.3806
  225DMF     C2 3180   1.787   1.790  -0.017 -0.3554  0.5138  0.0276
  225DMF     C3 3181   1.663   1.995  -0.037  0.1086 -0.1416 -0.3106
  225DMF     O1 3182   1.591   2.082   0.010 -0.0089 -0.1594  0.4757
  225DMF     H1 3183   1.536   1.730   0.100 -0.7974  0.8330  0.3128
  225DMF     H2 3184   1.514   1.892   0.149 -0.1079  0.3032 -1.7424
  225DMF     H3 3185   1.649   1.805   0.220  4.3713 -0.1548 -2.0254
  225DMF     H4 3186   1.763   1.683  -0.014  3.4232 -0.3983  1.1019
  225DMF     H5 3187   1.870   1.790   0.055 -1.4433 -0.8826  1.3045
  225DMF     H6 3188   1.826   1.810  -0.118 -0.4068  3.9097  0.6404
  225DMF     H7 3189   1.719   2.010  -0.131  0.2763  0.2587 -0.1475
  226DMF     C1 3190   0.443   0.508   2.294  0.8105  1.1421  0.4159
  226DMF     N1 3191   0.429   0.373   2.341 -0.3457 -0.1601  0.1861
  226DMF     C2 3192   0.400   0.259   2.243  0.8386 -0.3830 -0.2371
  226DMF     C3 3193   0.429   0.341   2.476 -0.1413  0.3841  0.6237
  226DMF     O1 3194   0.429   0.431   2.561 -0.2291 -0.5532 -0.1618
  226DMF     H1 3195   0.348   0.534   2.246 -0.4788 -1.7907  1.2776
  226DMF     H2 3196   0.524   0.518   2.221  2.7204 -0.1732  2.3032
  226DMF     H3 3197   0.452   0.577   2.379  0.8780  0.2560  1.1362
  226DMF     H4 3198   0.467   0.173   2.256  1.5273  0.3300  1.0141
  226DMF     H5 3199   0.421   0.299   2.143  0.1437  2.9389  0.8894
  226DMF     H6 3200   0.298   0.221   2.253  0.5862 -0.2038 -1.9233
  226DMF     H7 3201   0.424   0.233   2.498 -0.5739  0.1682 -0.5045
  227DMF     C1 3202   2.508   3.154   3.608  0.0909  0.4169 -0.0486
  227DMF     N1 3203   2.492   3.004   3.607 -0.3102  0.6319  0.6734
  227DMF     C2 3204   2.512   2.929   3.733 -0.3248 -0.0793  0.2034
  227DMF     C3 3205   2.462   2.927   3.497 -0.6690 -0.7361  0.1572
  227DMF     O1 3206   2.450   2.984   3.392  0.0978  0.4193  0.6321
  227DMF     H1 3207   2.506   3.203   3.706  2.3124 -1.8909  1.2055
  227DMF     H2 3208   2.425   3.188   3.545  1.6494 -0.6073 -2.7274
  227DMF     H3 3209   2.609   3.163   3.568  0.3306 -2.1639 -0.1205
  227DMF     H4 3210   2.605   2.870   3.728  0.2088  0.8326 -0.9556
  227DMF     H5 3211   2.425   2.865   3.754  0.4767 -1.3484 -0.2270
  227DMF     H6 3212   2.506   3.003   3.812  3.7455  0.5286  0.0220
  227DMF     H7 3213   2.464   2.819   3.522  3.3086 -0.6277  0.6130
  228DMF     C1 3214   0.514   3.277   1.525  0.1364 -0.4240 -0.3905
  228DMF     N1 3215   0.432   3.397   1.555 -0.0068 -0.2824  0.0268
  228DMF     C2 3216   0.299   3.409   1.492 -0.1894  0.0682 -0.0414
  228DMF     C3 3217   0.491   3.519   1.597  0.8747 -0.8461 -0.1264
  228DMF     O1 3218   0.610   3.533   1.613 -0.4169  0.7351 -0.5478
  228DMF     H1 3219   0.545   3.243   1.624 -1.0355  1.4842  0.6721
  228DMF     H2 3220   0.592   3.303   1.453  0.0104 -1.2544 -0.8348
  228DMF     H3 3221   0.460   3.200   1.469  1.8082 -1.0365 -1.1719
  228DMF     H4 3222   0.212   3.427   1.556  0.6321  4.4148 -0.0005
  228DMF     H5 3223   0.265   3.315   1.447 -0.2273  1.0696 -2.1887
  228DMF     H6 3224   0.306   3.481   1.409 -0.1107  2.0033  1.5958
  228DMF     H7 3225   0.413   3.594   1.620 -0.0357 -1.8529  0.0880
  229DMF     C1 3226   3.128   1.194   1.503 -0.1003  0.0151 -0.2894
  229DMF     N1 3227   3.027   1.300   1.527 -0.3412  0.0346  0.2267
  229DMF     C2 3228   3.069   1.439   1.509 -0.6300 -0.2069  0.4056
  229DMF     C3 3229   2.899   1.261   1.575  0.0939 -0.0176 -0.1900
  229DMF     O1 3230   2.852   1.145   1.559 -0.1694 -0.3140  0.1851
  229DMF     H1 3231   3.111   1.149   1.405 -1.7848 -1.0546  0.4667
  229DMF     H2 3232   3.118   1.112   1.575  0.0652 -1.5477 -2.0133
  229DMF     H3 3233   3.230   1.232   1.519  0.4369 -1.5514  0.0257
  229DMF     H4 3234   2.999   1.507   1.558  0.5047  2.1214 -1.1494
  229DMF     H5 3235   3.083   1.465   1.404  0.6239  2.2353  1.1426
  229DMF     H6 3236   3.167   1.442   1.559 -0.4559  0.5302  0.0211
  229DMF     H7 3237   2.846   1.348   1.616  0.2898  0.6204 -1.2730
  230DMF     C1 3238   3.220   0.284   0.732  0.4530 -0.5034  0.3492
  230DMF     N1 3239   3.139   0.265   0.612  0.3142 -0.2251 -0.6444
  230DMF     C2 3240   3.164   0.146   0.533  0.1978 -0.1674  0.5166
  230DMF     C3 3241   3.038   0.361   0.566 -0.0221 -0.2585  0.0179
  230DMF     O1 3242   3.006   0.462   0.623  0.9588 -0.5090 -0.7532
  230DMF     H1 3243   3.240   0.392   0.744  4.1184 -0.9373 -1.3117
  230DMF     H2 3244   3.317   0.236   0.724  1.2731  1.1187  0.3136
  230DMF     H3 3245   3.177   0.231   0.818 -1.1843 -0.6239 -0.5284
  230DMF     H4 3246   3.140   0.156   0.427 -0.4517  0.1927  0.6942
  230DMF     H5 3247   3.098   0.068   0.573 -1.4500  1.3300  0.7890
  230DMF     H6 3248   3.269   0.121   0.553 -0.2706 -1.4764  1.4501
  230DMF     H7 3249   2.992   0.328   0.471  0.9537 -0.5609 -0.3568
  231DMF     C1 3250   1.792   2.320   3.577 -0.1340  0.0578 -0.9134
  231DMF     N1 3251   1.846   2.268   3.455 -0.0972 -0.5833 -0.1871
  231DMF     C2 3252   1.820   2.333   3.325 -0.7977 -0.0013  0.2499
  231DMF     C3 3253   1.913   2.146   3.460  0.9518 -0.3104 -0.1641
  231DMF     O1 3254   1.925   2.082   3.561  0.3343 -0.6958  0.4086
  231DMF     H1 3255   1.789   2.429   3.584  4.4177  0.1676  1.1143
  231DMF     H2 3256   1.842   2.287   3.669 -0.9738  1.7012  0.1430
  231DMF     H3 3257   1.692   2.278   3.591  0.1818 -0.3545  0.1749
  231DMF     H4 3258   1.715   2.365   3.319  0.0657  3.2366  1.4014
  231DMF     H5 3259   1.826   2.260   3.243  0.7980 -1.4143  1.5872
  231DMF     H6 3260   1.885   2.419   3.309  1.1205 -1.7327 -1.6025
  231DMF     H7 3261   1.955   2.108   3.365  2.0554  1.0010 -0.2279
  232DMF     C1 3262   1.873   0.768   2.493  0.2769  0.1282  0.2124
  232DMF     N1 3263   1.934   0.815   2.624  0.1898 -0.3887 -0.1675
  232DMF     C2 3264   2.053   0.902   2.622 -0.1904  0.3604  0.4892
  232DMF     C3 3265   1.878   0.787   2.747 -0.1969 -0.7516  1.4463
  232DMF     O1 3266   1.785   0.715   2.760  0.4854  0.2349 -0.2743
  232DMF     H1 3267   1.775   0.722   2.505  1.1888 -2.2755 -1.1868
  232DMF     H2 3268   1.944   0.700   2.444  1.6380  2.1397 -0.7041
  232DMF     H3 3269   1.863   0.859   2.431 -0.2441  0.5566  0.9236
  232DMF     H4 3270   2.063   0.945   2.521  1.2818  0.2340  0.5691
  232DMF     H5 3271   2.138   0.838   2.645 -0.5869 -0.6371 -0.7557
  232DMF     H6 3272   2.047   0.975   2.704  1.5254  0.7098  0.3232
  232DMF     H7 3273   1.925   0.850   2.825 -1.1186  1.5245  0.1934
  233DMF     C1 3274   2.339   1.057   1.460  0.3502  0.3660 -0.5488
  233DMF     N1 3275   2.471   1.084   1.502 -0.0898  0.5383 -0.1272
  233DMF     C2 3276   2.505   1.224   1.542  0.3079  0.9769  0.3993
  233DMF     C3 3277   2.561   0.977   1.542  0.5165  0.1419  0.2980
  233DMF     O1 3278   2.523   0.863   1.535 -0.2780 -0.3099  0.1618
  233DMF     H1 3279   2.280   1.036   1.550 -0.3740  0.9753 -0.8748
  233DMF     H2 3280   2.340   0.971   1.393 -2.2895 -0.2703  0.1826
  233DMF     H3 3281   2.295   1.138   1.400 -0.3059  0.6223  0.2759
  233DMF     H4 3282   2.612   1.231   1.567  0.0120  1.6358  1.5127
  233DMF     H5 3283   2.433   1.253   1.620 -0.1684  1.8526 -0.3582
  233DMF     H6 3284   2.482   1.286   1.455 -1.2657 -0.9056 -0.5790
  233DMF     H7 3285   2.658   1.001   1.590  2.1538 -3.8015 -0.8564
  234DMF     C1 3286   1.828   2.195   2.235 -0.2419 -0.7208 -0.0065
  234DMF     N1 3287   1.776   2.183   2.369  0.2028  0.2641  0.3981
  234DMF     C2 3288   1.863   2.210   2.485 -0.4648 -0.2843 -0.0096
  234DMF     C3 3289   1.638   2.162   2.395 -0.8354  0.4725 -0.1308
  234DMF     O1 3290   1.558   2.141   2.305 -0.4649  0.0547 -0.1234
  234DMF     H1 3291   1.777   2.133   2.161 -1.5738 -0.7706  0.9247
  234DMF     H2 3292   1.934   2.164   2.239  0.5635  1.8580 -0.4855
  234DMF     H3 3293   1.838   2.298   2.201  0.0076 -1.3441 -1.8791
  234DMF     H4 3294   1.888   2.316   2.473  0.6380 -0.3162  1.8177
  234DMF     H5 3295   1.959   2.156   2.490 -0.1822  0.2101 -0.0148
  234DMF     H6 3296   1.825   2.197   2.587  0.7502  0.3024  0.5372
  234DMF     H7 3297   1.614   2.162   2.503  0.6506 -0.3040  0.2262
  235DMF     C1 3298   1.349   0.346   1.135  0.0487  0.3097 -0.2628
  235DMF     N1 3299   1.297   0.220   1.088  0.3361 -0.1163 -0.1794
  235DMF     C2 3300   1.154   0.180   1.112  0.7431  0.1227  0.5166
  235DMF     C3 3301   1.382   0.133   1.017 -0.2954  0.2769  0.3365
  235DMF     O1 3302   1.501   0.164   1.003  0.0924  0.7137  0.0224
  235DMF     H1 3303   1.413   0.334   1.223  0.0714  1.1086 -0.1673
  235DMF     H2 3304   1.260   0.404   1.162  0.7052  1.4110 -0.4054
  235DMF     H3 3305   1.392   0.404   1.052  1.6771  0.3476  0.5860
  235DMF     H4 3306   1.161   0.075   1.143 -2.5682  0.7155  3.6626
  235DMF     H5 3307   1.103   0.174   1.015  0.3498 -1.1312  0.7830
  235DMF     H6 3308   1.104   0.242   1.188  1.0975  1.4404 -0.3238
  235DMF     H7 3309   1.340   0.042   0.972 -1.7625  1.8962 -1.6363
  236DMF     C1 3310   1.497   0.048   3.425  0.7324 -0.2613  0.2527
  236DMF     N1 3311   1.484   0.039   3.575 -0.0740 -0.3675 -0.0743
  236DMF     C2 3312   1.605   0.073   3.660  0.4690 -0.1820 -0.2124
  236DMF     C3 3313   1.362   0.007   3.633  0.4386 -0.8435  0.7576
  236DMF     O1 3314   1.263   0.000   3.560  0.0140  0.4822 -0.2121
  236DMF     H1 3315   1.600   0.072   3.396  0.8859 -1.8377 -0.5480
  236DMF     H2 3316   1.448   0.142   3.398 -0.3839 -0.8688  0.1373
  236DMF     H3 3317   1.460  -0.039   3.370  3.9642 -1.4070 -0.2176
  236DMF     H4 3318   1.675   0.130   3.598 -0.7154  1.2751 -0.2231
  236DMF     H5 3319   1.661  -0.018   3.686  1.9813  0.8283  0.1257
  236DMF     H6 3320   1.572   0.128   3.749  0.2098 -1.0464  0.2325
  236DMF     H7 3321   1.368   0.003   3.744  0.0058 -0.7622  0.7850
  237DMF     C1 3322   1.873   1.550   2.609 -0.4105 -0.0476 -0.9423
  237DMF     N1 3323   1.804   1.662   2.546 -0.0981  0.1640 -0.7450
  237DMF     C2 3324   1.880   1.782   2.506 -0.4316 -1.0414 -0.4471
  237DMF     C3 3325   1.671   1.643   2.504  0.8977  0.6085  0.2122
  237DMF     O1 3326   1.608   1.545   2.538  0.0754  0.2804  0.3173
  237DMF     H1 3327   1.868   1.457   2.550 -3.0204 -0.2194 -0.5166
  237DMF     H2 3328   1.833   1.531   2.710 -1.9193  0.8777 -1.3574
  237DMF     H3 3329   1.977   1.581   2.622 -0.3187 -1.0389  0.8712
  237DMF     H4 3330   1.930   1.818   2.597 -1.2612 -0.0667 -0.3633
  237DMF     H5 3331   1.812   1.862   2.473  1.4251  0.6274 -0.3263
  237DMF     H6 3332   1.940   1.758   2.418 -1.0079 -2.7677 -0.3744
  237DMF     H7 3333   1.628   1.731   2.453  0.3969  1.2884  1.7935
  238DMF     C1 3334   0.070   0.387   3.585 -0.2123 -0.0388 -0.1445
  238DMF     N1 3335   0.019   0.527   3.574 -0.0114  0.1977 -0.2677
  238DMF     C2 3336  -0.118   0.557   3.637 -0.0856  0.4371  0.1526
  238DMF     C3 3337   0.094   0.620   3.500  0.4642 -1.0029 -0.0863
  238DMF     O1 3338   0.204   0.589   3.456 -0.1049 -0.2524 -0.1584
  238DMF     H1 3339   0.108   0.349   3.489  1.5336 -0.4483  0.6927
  238DMF     H2 3340  -0.014   0.325   3.617  0.3946 -0.4785  0.6078
  238DMF     H3 3341   0.142   0.391   3.667  0.0216  1.3533 -0.4140
  238DMF     H4 3342  -0.183   0.518   3.557 -1.0588  0.4486  0.9353
  238DMF     H5 3343  -0.144   0.663   3.638  2.2441  1.0436 -0.6060
  238DMF     H6 3344  -0.129   0.509   3.735 -1.6512 -0.2606 -0.3502
  238DMF     H7 3345   0.029   0.709   3.486 -3.1891 -3.6534 -0.6450
  239DMF     C1 3346   0.509   2.082   3.500 -0.2253  0.4679  0.2455
  239DMF     N1 3347   0.627   2.140   3.434 -0.2043 -0.1307  0.8163
  239DMF     C2 3348   0.691   2.071   3.324 -0.1997 -0.4118 -0.0652
  239DMF     C3 3349   0.691   2.254   3.477  0.1009  0.3031  0.0640
  239DMF     O1 3350   0.654   2.321   3.573  0.2975 -0.2282  0.5408
  239DMF     H1 3351   0.495   1.974   3.485  0.5604  0.5796 -1.4257
  239DMF     H2 3352   0.420   2.141   3.477 -0.5140 -0.7889 -1.9245
  239DMF     H3 3353   0.527   2.095   3.608  0.8304  1.3292 -0.0264
  239DMF     H4 3354   0.663   1.967   3.305 -0.1413 -0.5688  0.6996
  239DMF     H5 3355   0.798   2.073   3.351 -0.0583  1.1874 -0.6862
  239DMF     H6 3356   0.666   2.126   3.233 -0.4655 -0.2817  0.0865
  239DMF     H7 3357   0.778   2.284   3.417  1.0998 -1.2876  0.6898
  240DMF     C1 3358   0.064   1.599   1.053  0.1549  0.0446  0.4978
  240DMF     N1 3359   0.056   1.637   1.196  0.5381  0.3439  0.1139
  240DMF     C2 3360  -0.057   1.577   1.273  0.0729 -0.5848  0.5070
  240DMF     C3 3361   0.134   1.739   1.249  0.7465 -0.0296  0.3756
  240DMF     O1 3362   0.222   1.795   1.179  0.3078 -0.0449 -0.0588
  240DMF     H1 3363  -0.002   1.655   0.984 -1.0760  0.3570  1.8997
  240DMF     H2 3364   0.033   1.494   1.042  0.3051 -0.0351  0.8462
  240DMF     H3 3365   0.166   1.598   1.013 -0.5063  0.4659 -1.2740
  240DMF     H4 3366  -0.021   1.566   1.376 -0.4366  0.2003  0.7750
  240DMF     H5 3367  -0.107   1.492   1.224 -0.8521  0.7570 -0.9677
  240DMF     H6 3368  -0.130   1.659   1.279 -0.0261 -0.7085  0.9553
  240DMF     H7 3369   0.102   1.767   1.351 -1.1610  0.5846 -0.3679
  241DMF     C1 3370   1.121   0.019   0.132 -0.0736  0.0946 -0.3945
  241DMF     N1 3371   1.130  -0.116   0.192 -0.2213  0.8264 -0.3513
  241DMF     C2 3372   1.165  -0.231   0.107 -0.0453  0.3256 -0.9134
  241DMF     C3 3373   1.133  -0.129   0.336  0.3318  0.8832  0.0747
  241DMF     O1 3374   1.119  -0.033   0.414  0.2262  0.6097 -0.2361
  241DMF     H1 3375   1.024   0.069   0.148  0.1492  0.9059 -1.5541
  241DMF     H2 3376   1.152   0.013   0.027 -4.3494 -1.2475 -1.7100
  241DMF     H3 3377   1.198   0.082   0.177 -0.8398  0.4626  0.4414
  241DMF     H4 3378   1.183  -0.320   0.169 -0.5997  2.5140  2.5404
  241DMF     H5 3379   1.257  -0.217   0.049  3.1145  1.4928  4.0740
  241DMF     H6 3380   1.087  -0.250   0.033  0.6801 -1.3016 -1.2963
  241DMF     H7 3381   1.147  -0.234   0.367  1.7466  0.3643 -2.2337
  242DMF     C1 3382   0.834   1.386   3.753 -0.4946 -0.3613 -0.1086
  242DMF     N1 3383   0.723   1.435   3.840  0.3613 -0.1603  0.0251
  242DMF     C2 3384   0.726   1.567   3.906 -0.2753  0.0711  0.3578
  242DMF     C3 3385   0.601   1.364   3.851  0.0839  0.2813 -0.2300
  242DMF     O1 3386   0.588   1.248   3.813 -0.1320  0.2272 -0.1152
  242DMF     H1 3387   0.913   1.461   3.744 -2.4742  2.1560  2.4568
  242DMF     H2 3388   0.789   1.362   3.656  0.6787 -3.9505  0.1504
  242DMF     H3 3389   0.876   1.296   3.800  1.4152 -0.2797 -1.6352
  242DMF     H4 3390   0.651   1.635   3.861 -1.4214 -0.9210  0.7563
  242DMF     H5 3391   0.823   1.617   3.896  0.1635 -0.6508  1.0263
  242DMF     H6 3392   0.704   1.559   4.013  2.0210  2.9563  1.1389
  242DMF     H7 3393   0.532   1.415   3.920 -1.5676  0.7178 -2.1549
  243DMF     C1 3394   1.554   0.691   2.266  0.0273 -0.1131  0.1227
  243DMF     N1 3395   1.527   0.838   2.282  0.3857 -0.6831 -0.1525
  243DMF     C2 3396   1.391   0.880   2.301 -0.0971  0.7793  0.6124
  243DMF     C3 3397   1.627   0.933   2.243  0.3505  0.4023  0.5289
  243DMF     O1 3398   1.742   0.900   2.215 -0.4114 -0.7647  0.2041
  243DMF     H1 3399   1.462   0.633   2.255 -0.2711  0.7344 -1.9770
  243DMF     H2 3400   1.622   0.653   2.344 -0.4272 -0.6272  0.2682
  243DMF     H3 3401   1.604   0.674   2.169 -0.3036 -0.3067 -0.0166
  243DMF     H4 3402   1.341   0.811   2.370 -1.9702  0.9892 -0.5262
  243DMF     H5 3403   1.338   0.864   2.206 -0.1839 -1.2813  0.9765
  243DMF     H6 3404   1.379   0.983   2.335 -4.4007 -0.0417  1.8158
  243DMF     H7 3405   1.591   1.038   2.240  0.9794  0.6319  0.8910
  244DMF     C1 3406   1.798   2.730   3.675 -0.2150  0.0217  0.3398
  244DMF     N1 3407   1.659   2.734   3.623 -0.2603 -0.1183  0.2967
  244DMF     C2 3408   1.554   2.788   3.708 -0.6666  0.4936  0.1247
  244DMF     C3 3409   1.623   2.702   3.492 -0.7400  0.1202  0.8220
  244DMF     O1 3410   1.703   2.648   3.419 -0.7663  0.0780  0.5630
  244DMF     H1 3411   1.847   2.823   3.646  1.6900 -0.6106  1.3733
  244DMF     H2 3412   1.863   2.649   3.639 -0.8523  0.4934 -1.9573
  244DMF     H3 3413   1.793   2.727   3.785 -0.2369  3.4283  0.4823
  244DMF     H4 3414   1.575   2.896   3.699  1.1640 -0.0589 -2.7503
  244DMF     H5 3415   1.563   2.735   3.803  1.4814 -0.7561 -0.7391
  244DMF     H6 3416   1.455   2.758   3.671 -0.7698 -0.2232  0.9753
  244DMF     H7 3417   1.517   2.726   3.475 -0.6585 -0.0123  0.0887
  245DMF     C1 3418   1.155   2.841   3.752 -0.5169 -0.2943  0.3710
  245DMF     N1 3419   1.103   2.882   3.616 -0.2082 -0.1684  0.7427
  245DMF     C2 3420   1.014   2.995   3.603 -0.0788  0.0630  0.4145
  245DMF     C3 3421   1.135   2.813   3.500  0.4635  0.5495  0.1650
  245DMF     O1 3422   1.205   2.707   3.505  0.4711 -0.3565 -0.0803
  245DMF     H1 3423   1.181   2.735   3.758 -0.3625 -0.2029  1.5274
  245DMF     H2 3424   1.076   2.863   3.825 -0.9907 -0.7308 -0.0031
  245DMF     H3 3425   1.238   2.909   3.775 -1.4591  0.0361  2.9674
  245DMF     H4 3426   0.984   3.021   3.501 -1.0394 -3.2048 -0.1890
  245DMF     H5 3427   1.060   3.086   3.644  1.8895 -0.3555 -0.8242
  245DMF     H6 3428   0.917   2.969   3.648  0.4437 -1.2552  0.8052
  245DMF     H7 3429   1.097   2.861   3.408  1.0573 -0.7021 -0.7511
  246DMF     C1 3430   2.223   0.764   2.948 -0.0983  0.4388 -0.0683
  246DMF     N1 3431   2.359   0.769   3.007  0.4395 -0.1697  0.2929
  246DMF     C2 3432   2.396   0.661   3.103 -0.1919 -0.1578  0.2974
  246DMF     C3 3433   2.449   0.870   2.972  0.2290 -0.0297 -0.3536
  246DMF     O1 3434   2.420   0.958   2.892  0.4561  0.4862  0.0498
  246DMF     H1 3435   2.150   0.717   3.016  0.0826 -1.1592 -0.9698
  246DMF     H2 3436   2.236   0.703   2.858  1.4876  1.0242 -0.2369
  246DMF     H3 3437   2.191   0.867   2.931 -0.3327  0.6322  1.4620
  246DMF     H4 3438   2.458   0.699   3.184  0.0814 -0.6245  0.3112
  246DMF     H5 3439   2.446   0.579   3.048 -0.4595 -1.8131  2.4502
  246DMF     H6 3440   2.310   0.604   3.139 -1.3468  0.1071 -1.9297
  246DMF     H7 3441   2.550   0.857   3.016  1.0012  0.1392 -2.0130
  247DMF     C1 3442   1.811   1.881   0.998  0.0991  0.0172  0.3349
  247DMF     N1 3443   1.812   1.916   1.139  0.4392 -0.3056  0.5820
  247DMF     C2 3444   1.735   1.829   1.234 -0.6499 -0.2905 -0.3906
  247DMF     C3 3445   1.834   2.047   1.172 -0.0371 -0.4916  0.4873
  247DMF     O1 3446   1.889   2.123   1.095  0.7403 -0.0164 -0.3368
  247DMF     H1 3447   1.894   1.929   0.946  0.3713  0.6308  1.3216
  247DMF     H2 3448   1.711   1.910   0.963 -0.4714  0.1270  2.0236
  247DMF     H3 3449   1.822   1.773   0.979  0.6499  0.2474 -0.6983
  247DMF     H4 3450   1.745   1.866   1.337 -1.0529  0.4490 -0.6122
  247DMF     H5 3451   1.754   1.722   1.238  0.6724 -0.0406  0.3352
  247DMF     H6 3452   1.628   1.849   1.220 -0.5024 -0.7190 -2.1862
  247DMF     H7 3453   1.796   2.075   1.272 -0.0583  0.2277  0.2843
  248DMF     C1 3454   2.579   2.176   1.554  0.3303 -0.0447 -0.0638
  248DMF     N1 3455   2.584   2.330   1.564  0.1654 -0.6451  0.6033
  248DMF     C2 3456   2.454   2.405   1.574 -0.0472  0.1780  0.1581
  248DMF     C3 3457   2.707   2.403   1.566 -0.1141  0.2527 -0.6326
  248DMF     O1 3458   2.815   2.348   1.571  0.2214  0.7103 -0.2220
  248DMF     H1 3459   2.474   2.146   1.542  0.3226  1.0130 -2.8811
  248DMF     H2 3460   2.608   2.122   1.645  0.8543  0.8530  0.3115
  248DMF     H3 3461   2.641   2.150   1.468  1.9407 -1.1751  1.4208
  248DMF     H4 3462   2.393   2.405   1.483  0.9898 -1.6314 -0.5517
  248DMF     H5 3463   2.472   2.510   1.602  0.1127 -0.2215  1.5912
  248DMF     H6 3464   2.390   2.366   1.654 -1.1043 -0.3646 -0.9341
  248DMF     H7 3465   2.695   2.510   1.589 -0.0378  0.0176  0.4937
  249DMF     C1 3466   2.743   2.697   2.768 -0.2574  0.3883 -0.1218
  249DMF     N1 3467   2.810   2.574   2.715 -0.1537 -0.2291 -0.4016
  249DMF     C2 3468   2.764   2.520   2.591  0.6983  0.8791 -0.5848
  249DMF     C3 3469   2.870   2.493   2.803  0.5497  0.2738 -0.5105
  249DMF     O1 3470   2.898   2.523   2.916 -0.0799 -0.4904  0.4483
  249DMF     H1 3471   2.666   2.716   2.693 -0.9250  4.0991  1.4227
  249DMF     H2 3472   2.808   2.781   2.794  0.0397  0.2006 -0.2408
  249DMF     H3 3473   2.691   2.682   2.863  1.7293  1.5575  1.1781
  249DMF     H4 3474   2.791   2.414   2.579 -1.2797  0.5308 -2.3107
  249DMF     H5 3475   2.802   2.578   2.506 -2.7214  0.7205 -2.3200
  249DMF     H6 3476   2.654   2.517   2.586  0.7164 -0.7330 -0.3046
  249DMF     H7 3477   2.884   2.391   2.763  2.3607  0.0307  0.6505
  250DMF     C1 3478   0.209   2.023   2.241  0.2775 -0.5502 -0.3355
  250DMF     N1 3479   0.316   2.128   2.246 -0.5330 -0.8631  0.4265
  250DMF     C2 3480   0.450   2.074   2.236  0.2943 -0.1567  0.2428
  250DMF     C3 3481   0.293   2.267   2.248  0.0057 -0.4457  0.3415
  250DMF     O1 3482   0.181   2.315   2.219 -0.4118 -0.3465  0.3135
  250DMF     H1 3483   0.254   1.929   2.206 -1.7009 -1.1929 -1.2216
  250DMF     H2 3484   0.128   2.064   2.180 -0.5280  0.8643  1.6527
  250DMF     H3 3485   0.173   2.007   2.344 -1.7436 -1.0174 -1.1003
  250DMF     H4 3486   0.450   1.973   2.194  1.5475 -0.4652  0.9687
  250DMF     H5 3487   0.474   2.073   2.343 -0.0199 -0.8791  0.3100
  250DMF     H6 3488   0.511   2.149   2.183  0.2795 -0.4004 -0.1180
  250DMF     H7 3489   0.377   2.324   2.293 -0.9907  2.9221 -1.8557
  251DMF     C1 3490   0.233   2.588   3.567  0.1869 -0.5179  0.9204
  251DMF     N1 3491   0.334   2.483   3.554  0.1188 -0.5123 -0.3496
  251DMF     C2 3492   0.421   2.488   3.430 -0.3152  0.2144  0.0720
  251DMF     C3 3493   0.343   2.388   3.649 -0.4873 -0.3073 -0.0594
  251DMF     O1 3494   0.290   2.392   3.755 -0.2427  0.3679 -0.4652
  251DMF     H1 3495   0.240   2.659   3.483 -1.4315  0.2796  1.4333
  251DMF     H2 3496   0.240   2.653   3.655 -0.1355  1.2522 -0.3198
  251DMF     H3 3497   0.140   2.531   3.562  0.0907 -0.3986  1.4002
  251DMF     H4 3498   0.404   2.578   3.370 -1.2216  1.1284  1.6527
  251DMF     H5 3499   0.433   2.389   3.386  0.5572  0.0648  0.6308
  251DMF     H6 3500   0.518   2.511   3.476 -1.2707  2.1507  1.2200
  251DMF     H7 3501   0.420   2.311   3.632 -1.3959 -1.6152  1.6426
  252DMF     C1 3502   0.640   3.112   2.687  0.0792  0.1242 -1.0347
  252DMF     N1 3503   0.576   3.174   2.803 -0.9682 -0.6225  0.3362
  252DMF     C2 3504   0.442   3.222   2.787 -0.2506 -0.8285 -0.0575
  252DMF     C3 3505   0.661   3.194   2.916 -0.3907 -0.5537  0.3973
  252DMF     O1 3506   0.783   3.168   2.904  0.3375  0.8313  0.2116
  252DMF     H1 3507   0.560   3.070   2.625  0.2877 -0.6142 -0.8081
  252DMF     H2 3508   0.702   3.027   2.718 -0.9796 -1.0917 -2.2361
  252DMF     H3 3509   0.708   3.182   2.637  0.7804 -1.1925 -1.9688
  252DMF     H4 3510   0.375   3.173   2.859 -1.2257 -1.4430 -1.3680
  252DMF     H5 3511   0.401   3.194   2.690  0.7052  0.9181 -0.9959
  252DMF     H6 3512   0.440   3.331   2.804  0.4539 -0.8024 -0.1070
  252DMF     H7 3513   0.611   3.232   3.007 -0.0950 -0.0064  0.3320
  253DMF     C1 3514   2.880   0.133   2.374  0.7183 -0.1864 -0.1241
  253DMF     N1 3515   2.920   0.009   2.301  0.0268 -0.0016 -0.5565
  253DMF     C2 3516   2.826  -0.104   2.306 -0.5484 -0.2160 -0.1338
  253DMF     C3 3517   3.038  -0.010   2.239  0.1309  0.3987 -0.4533
  253DMF     O1 3518   3.123   0.078   2.238  0.0829  0.0355 -0.3705
  253DMF     H1 3519   2.963   0.166   2.438 -0.2940 -0.6684  1.4759
  253DMF     H2 3520   2.795   0.116   2.442 -0.0377 -0.3514 -1.1060
  253DMF     H3 3521   2.860   0.202   2.291 -1.4274 -0.6208 -0.0037
  253DMF     H4 3522   2.837  -0.179   2.227 -3.1049 -0.1148 -0.6308
  253DMF     H5 3523   2.730  -0.052   2.294  0.7943  1.8578 -2.2945
  253DMF     H6 3524   2.834  -0.145   2.408 -0.3318  0.4717  0.1269
  253DMF     H7 3525   3.053  -0.112   2.199 -1.1696 -0.1733  0.4877
  254DMF     C1 3526   0.304   1.595   1.549  0.5388  0.0730  0.9095
  254DMF     N1 3527   0.301   1.452   1.560  0.2265 -0.0270  0.2623
  254DMF     C2 3528   0.436   1.385   1.564  0.4006  0.7900 -0.2176
  254DMF     C3 3529   0.181   1.391   1.587  0.4709 -0.0628 -0.1999
  254DMF     O1 3530   0.075   1.453   1.583  0.0157  0.3182 -1.0145
  254DMF     H1 3531   0.310   1.627   1.444 -2.7864  0.4565  0.7635
  254DMF     H2 3532   0.390   1.634   1.605 -0.3008  1.7676  1.0565
  254DMF     H3 3533   0.213   1.642   1.590  0.5042 -0.6576  1.6822
  254DMF     H4 3534   0.517   1.451   1.598 -0.5296  0.9863  1.6983
  254DMF     H5 3535   0.452   1.351   1.461 -0.9290 -0.7238  0.0583
  254DMF     H6 3536   0.428   1.291   1.621 -3.3810  0.4993 -1.0693
  254DMF     H7 3537   0.196   1.284   1.610  0.3977  0.4388  2.2250
  255DMF     C1 3538   2.309   2.379   3.702  0.0326 -0.2067  0.7081
  255DMF     N1 3539   2.186   2.453   3.664  0.5853  0.4748  0.5776
  255DMF     C2 3540   2.146   2.572   3.746 -0.5933  0.2594  0.7085
  255DMF     C3 3541   2.124   2.424   3.546 -0.0635 -0.2965 -0.3204
  255DMF     O1 3542   2.169   2.348   3.465 -0.4730  0.0653 -0.0400
  255DMF     H1 3543   2.354   2.347   3.607  0.1719  2.3846 -0.1565
  255DMF     H2 3544   2.282   2.297   3.769  0.3905 -0.5042  0.4884
  255DMF     H3 3545   2.382   2.449   3.746 -1.0086  0.5659  1.2238
  255DMF     H4 3546   2.195   2.560   3.843  0.9798 -1.4648 -0.2764
  255DMF     H5 3547   2.037   2.579   3.760 -1.0377  0.5720 -2.5051
  255DMF     H6 3548   2.178   2.667   3.701  2.5201 -0.9331  0.3014
  255DMF     H7 3549   2.028   2.478   3.536 -1.2688 -2.6546 -1.7678
  256DMF     C1 3550   0.030   0.408   0.493 -0.1429  0.4109 -0.6385
  256DMF     N1 3551   0.057   0.506   0.590 -0.3149 -0.1805 -0.0009
  256DMF     C2 3552  -0.029   0.629   0.593 -0.3571 -0.5916 -0.2257
  256DMF     C3 3553   0.143   0.479   0.693  0.5087 -0.0727 -0.0187
  256DMF     O1 3554   0.205   0.371   0.702  0.2577  0.3366  0.0630
  256DMF     H1 3555  -0.032   0.447   0.412  1.2748  0.8652 -1.5316
  256DMF     H2 3556  -0.041   0.335   0.533 -0.1458  1.1299  0.6977
  256DMF     H3 3557   0.125   0.361   0.464  0.0206  0.4401 -0.1663
  256DMF     H4 3558  -0.014   0.685   0.499  0.0619  2.2266  1.4717
  256DMF     H5 3559  -0.014   0.696   0.678 -0.6251  0.3653 -0.9193
  256DMF     H6 3560  -0.134   0.599   0.591 -1.2880  2.4216  0.9345
  256DMF     H7 3561   0.154   0.567   0.760  0.4278 -0.0617 -0.0193
  257DMF     C1 3562   0.414   2.164   1.461 -0.7664 -0.8044  0.2548
  257DMF     N1 3563   0.273   2.132   1.488  0.3202 -0.0606 -0.6454
  257DMF     C2 3564   0.236   1.994   1.505 -0.1816  0.3046  0.0225
  257DMF     C3 3565   0.181   2.246   1.519  0.1546  0.3467 -0.4259
  257DMF     O1 3566   0.216   2.368   1.517  0.2741  0.5026 -0.1839
  257DMF     H1 3567   0.478   2.120   1.539  3.5858  0.6737 -2.3030
  257DMF     H2 3568   0.434   2.271   1.453  0.4722 -1.0871 -0.6227
  257DMF     H3 3569   0.448   2.125   1.364 -2.9030  0.7312 -1.1573
  257DMF     H4 3570   0.216   1.960   1.402  0.6552  2.2357 -0.8034
  257DMF     H5 3571   0.145   1.987   1.566  0.6106  2.6717  1.5076
  257DMF     H6 3572   0.315   1.935   1.552 -0.0016 -0.0503 -0.7161
  257DMF     H7 3573   0.081   2.215   1.552  0.8473 -0.5194  0.8787
  258DMF     C1 3574   2.097   0.883   0.079  0.3631 -0.0938  0.5644
  258DMF     N1 3575   1.960   0.887   0.022  0.4455 -0.4243 -0.7282
  258DMF     C2 3576   1.848   0.949   0.093 -0.2594  0.2720 -0.6348
  258DMF     C3 3577   1.937   0.837  -0.104  0.4817 -0.8185 -0.1702
  258DMF     O1 3578   2.015   0.789  -0.181 -0.0431  0.1561  1.4256
  258DMF     H1 3579   2.123   0.989   0.085 -1.1574  0.3797 -1.0385
  258DMF     H2 3580   2.183   0.843   0.023  1.1670  1.1066  0.9129
  258DMF     H3 3581   2.100   0.844   0.182  0.0610  1.4522  1.1618
  258DMF     H4 3582   1.823   1.045   0.046 -2.5132 -0.0194 -0.0544
  258DMF     H5 3583   1.869   0.977   0.198  1.0088 -0.3401 -0.7180
  258DMF     H6 3584   1.756   0.892   0.081 -0.2519  0.6064 -2.4210
  258DMF     H7 3585   1.834   0.855  -0.139  0.6744  0.3809 -0.1401
  259DMF     C1 3586   1.604   3.272   2.465 -0.1981 -0.1230  0.1595
  259DMF     N1 3587   1.567   3.152   2.389 -0.1943  0.7411 -0.4058
  259DMF     C2 3588   1.578   3.165   2.237  0.5146  0.1687  0.8754
  259DMF     C3 3589   1.529   3.026   2.447  0.0665 -0.0334 -0.5622
  259DMF     O1 3590   1.517   3.013   2.568  0.2400 -0.4159  0.1723
  259DMF     H1 3591   1.618   3.359   2.400  1.1317 -1.1553 -0.9551
  259DMF     H2 3592   1.699   3.256   2.517  0.2240  2.1978  0.1170
  259DMF     H3 3593   1.526   3.299   2.538 -0.0069  0.8392  0.0122
  259DMF     H4 3594   1.593   3.067   2.190  0.3642  1.2099 -1.3687
  259DMF     H5 3595   1.647   3.241   2.198  0.1804 -1.0823 -2.2598
  259DMF     H6 3596   1.483   3.201   2.197  1.2367  1.6497  0.4243
  259DMF     H7 3597   1.526   2.945   2.372 -1.4889  1.6376 -2.3769
  260DMF     C1 3598   1.157   1.779   0.990  0.8283  0.2470 -0.2960
  260DMF     N1 3599   1.265   1.832   1.070  0.1988 -0.1816 -0.1969
  260DMF     C2 3600   1.226   1.888   1.205 -0.0674  0.0939 -0.0127
  260DMF     C3 3601   1.393   1.821   1.028  0.8820  0.0835 -0.2396
  260DMF     O1 3602   1.415   1.768   0.921 -0.0183  0.2895 -0.8916
  260DMF     H1 3603   1.066   1.786   1.052  1.4017  0.6356  0.5090
  260DMF     H2 3604   1.168   1.673   0.966 -2.9682 -0.1482 -0.5736
  260DMF     H3 3605   1.145   1.840   0.900  1.6380 -0.4816 -0.9027
  260DMF     H4 3606   1.132   1.943   1.197 -1.2768 -2.1503 -1.9080
  260DMF     H5 3607   1.304   1.954   1.244  2.3416 -1.7574 -1.5406
  260DMF     H6 3608   1.205   1.805   1.274 -0.8136  1.6098  1.6095
  260DMF     H7 3609   1.463   1.867   1.100  1.9772  1.1495 -1.9538
  261DMF     C1 3610   0.913   0.452   1.007 -0.3085 -0.2584  0.5940
  261DMF     N1 3611   0.947   0.536   1.121 -0.3172 -0.4187  0.0991
  261DMF     C2 3612   0.874   0.517   1.250 -0.0811 -0.7865 -0.4901
  261DMF     C3 3613   1.021   0.655   1.112  0.1634  0.1538 -0.2300
  261DMF     O1 3614   1.078   0.692   1.010 -0.8488 -0.1494  0.5427
  261DMF     H1 3615   0.949   0.349   1.022  1.9189  0.3833 -0.2203
  261DMF     H2 3616   0.962   0.487   0.916 -2.3772 -0.8662 -0.7835
  261DMF     H3 3617   0.805   0.444   0.988 -0.0306  0.0547 -1.1377
  261DMF     H4 3618   0.948   0.545   1.325 -1.4618  0.4249  0.4514
  261DMF     H5 3619   0.835   0.416   1.270  0.0646 -0.3227  2.2364
  261DMF     H6 3620   0.787   0.583   1.260 -0.2673 -1.1830  0.5966
  261DMF     H7 3621   1.018   0.720   1.201 -0.6856  1.5745 -1.2548
  262DMF     C1 3622   2.372   0.029   3.752 -0.4456 -0.2288  0.1078
  262DMF     N1 3623   2.380   0.134   3.860  0.9394  0.6401  0.9530
  262DMF     C2 3624   2.494   0.141   3.949  0.4175 -0.2879 -0.1938
  262DMF     C3 3625   2.286   0.231   3.858  1.0370 -0.1501 -0.0602
  262DMF     O1 3626   2.183   0.228   3.788  0.1037  0.0215  0.5497
  262DMF     H1 3627   2.279  -0.029   3.763 -0.5515  0.2195  1.6409
  262DMF     H2 3628   2.459  -0.037   3.753  0.7146  1.2517 -0.8849
  262DMF     H3 3629   2.369   0.087   3.658  1.6378 -0.8141 -0.3360
  262DMF     H4 3630   2.509   0.247   3.974 -1.0223 -0.3831  1.1119
  262DMF     H5 3631   2.585   0.094   3.910 -0.0528 -0.4958 -1.0342
  262DMF     H6 3632   2.461   0.099   4.045  0.0865  0.5741  0.0696
  262DMF     H7 3633   2.300   0.309   3.934  1.7301  0.3117 -0.6607
  263DMF     C1 3634   1.029   0.640   2.277 -0.5877 -0.3475  0.8162
  263DMF     N1 3635   0.884   0.625   2.297  0.2612  0.4353  0.4663
  263DMF     C2 3636   0.794   0.739   2.308  0.8465 -0.5875 -0.4247
  263DMF     C3 3637   0.831   0.492   2.328  1.0415  0.3986 -0.3217
  263DMF     O1 3638   0.897   0.387   2.322 -0.3709  0.5458  0.0777
  263DMF     H1 3639   1.055   0.742   2.308  3.1690 -0.1046 -2.6360
  263DMF     H2 3640   1.058   0.640   2.171  1.3623  3.7419  1.2590
  263DMF     H3 3641   1.092   0.568   2.331  1.9740  0.9388 -0.3813
  263DMF     H4 3642   0.837   0.837   2.334  1.4447 -1.5939  2.5571
  263DMF     H5 3643   0.722   0.714   2.387  0.7372  3.4956  0.8759
  263DMF     H6 3644   0.742   0.751   2.212 -0.9007 -1.7943  0.3360
  263DMF     H7 3645   0.721   0.494   2.336  1.0891 -0.8087  0.8220
  264DMF     C1 3646   0.227   2.029   2.702  0.5247 -0.0741 -0.6068
  264DMF     N1 3647   0.216   2.157   2.628 -0.3068 -0.3714  0.7072
  264DMF     C2 3648   0.085   2.223   2.616  0.3185 -0.3540 -0.2096
  264DMF     C3 3649   0.335   2.232   2.581 -0.1546 -0.1365 -0.0247
  264DMF     O1 3650   0.449   2.184   2.594 -0.3659  0.2145  0.4880
  264DMF     H1 3651   0.306   1.975   2.648  2.9436  2.5675  0.1607
  264DMF     H2 3652   0.130   1.979   2.704  1.0580 -1.1701 -1.6748
  264DMF     H3 3653   0.264   2.046   2.804  4.5371  1.6635 -2.2361
  264DMF     H4 3654   0.011   2.142   2.615  1.3898 -1.3391 -1.6759
  264DMF     H5 3655   0.076   2.267   2.516  1.2112 -0.1164 -0.1879
  264DMF     H6 3656   0.064   2.297   2.694  1.7450 -1.1055  0.9135
  264DMF     H7 3657   0.310   2.325   2.526 -0.5264 -1.6164 -2.4462
  265DMF     C1 3658   1.983   2.979   1.269  0.0409  0.0146  0.1282
  265DMF     N1 3659   1.922   2.956   1.140  0.3073 -0.0065  0.0841
  265DMF     C2 3660   1.915   2.821   1.082  0.1103 -0.2400 -0.3283
  265DMF     C3 3661   1.865   3.062   1.068  0.2219  0.0009 -0.0717
  265DMF     O1 3662   1.842   3.168   1.113  0.3389 -0.2941 -0.4345
  265DMF     H1 3663   1.940   3.059   1.331  0.9874  0.4775  0.1902
  265DMF     H2 3664   2.091   2.994   1.260 -0.0160 -0.0067 -0.5848
  265DMF     H3 3665   1.975   2.889   1.331 -1.2671 -0.4175 -0.6444
  265DMF     H4 3666   1.818   2.801   1.036  0.4344 -2.7471 -0.0267
  265DMF     H5 3667   1.919   2.745   1.161  1.0807  0.7352  0.5815
  265DMF     H6 3668   1.988   2.802   1.003  0.6461  2.3554 -0.4831
  265DMF     H7 3669   1.833   3.033   0.966  1.0370 -0.7133 -0.1295
  266DMF     C1 3670   0.525   1.336   0.931  0.4871  0.8297  0.3425
  266DMF     N1 3671   0.494   1.358   0.787  0.6028  0.1625 -0.7803
  266DMF     C2 3672   0.358   1.402   0.750  0.3816 -0.0644  0.0770
  266DMF     C3 3673   0.584   1.319   0.682 -0.0704  0.2508 -0.4958
  266DMF     O1 3674   0.697   1.290   0.704  0.2158 -0.0020  0.3983
  266DMF     H1 3675   0.625   1.372   0.958  0.7242 -0.7748  1.6645
  266DMF     H2 3676   0.537   1.227   0.922 -0.2188  0.9041 -1.9269
  266DMF     H3 3677   0.447   1.375   0.998  1.6942  1.6135  1.3113
  266DMF     H4 3678   0.341   1.499   0.799  0.4683 -1.2905  2.5708
  266DMF     H5 3679   0.298   1.323   0.797 -1.6063  2.3940  1.8091
  266DMF     H6 3680   0.334   1.411   0.643  0.2224 -2.3750 -0.1104
  266DMF     H7 3681   0.540   1.327   0.581  0.7289 -2.3990 -1.0704
  267DMF     C1 3682   2.457   1.729   0.026 -0.6302  0.5064  0.0985
  267DMF     N1 3683   2.438   1.587   0.046 -0.0383  0.0363 -0.1174
  267DMF     C2 3684   2.344   1.532  -0.049 -0.0321 -0.0597  0.1902
  267DMF     C3 3685   2.496   1.507   0.145  0.2405 -0.3750 -0.4766
  267DMF     O1 3686   2.561   1.556   0.236 -0.0068  0.6867 -0.1072
  267DMF     H1 3687   2.523   1.741  -0.061 -1.0500  0.6100 -0.2076
  267DMF     H2 3688   2.507   1.772   0.113 -1.9248  1.3920  0.4176
  267DMF     H3 3689   2.362   1.781   0.007 -1.5442  0.0833  3.3179
  267DMF     H4 3690   2.315   1.606  -0.124 -0.1747  0.3906  0.6854
  267DMF     H5 3691   2.251   1.497  -0.002 -1.0746  0.4462 -1.4939
  267DMF     H6 3692   2.401   1.459  -0.108 -0.5018 -1.7211  1.7131
  267DMF     H7 3693   2.490   1.397   0.131  0.7931 -0.5971  0.8864
  268DMF     C1 3694   2.057   1.206   0.733  0.3923 -0.5196 -0.8188
  268DMF     N1 3695   2.017   1.102   0.641  0.3374  0.0346 -0.6371
  268DMF     C2 3696   2.069   0.969   0.684 -0.3411  0.4540  0.2898
  268DMF     C3 3697   1.973   1.129   0.516  0.4140  0.0121  0.6189
  268DMF     O1 3698   1.986   1.243   0.468 -0.3714  0.1327 -0.3459
  268DMF     H1 3699   2.153   1.182   0.779  1.2574  1.2109 -1.6812
  268DMF     H2 3700   1.986   1.217   0.816  0.6636 -1.6350 -0.4381
  268DMF     H3 3701   2.072   1.308   0.696  0.4286  0.0466  0.7156
  268DMF     H4 3702   2.052   0.886   0.614  0.8250  0.5642 -0.1371
  268DMF     H5 3703   2.021   0.947   0.780  2.6390 -1.0202  1.5099
  268DMF     H6 3704   2.178   0.978   0.695 -0.4099  1.8647 -0.0071
  268DMF     H7 3705   1.948   1.037   0.460 -0.4082 -1.1566  2.8696
  269DMF     C1 3706   2.485   0.623   0.305  0.3417  0.3843 -0.2014
  269DMF     N1 3707   2.429   0.629   0.446 -0.3036 -0.2963  0.6033
  269DMF     C2 3708   2.490   0.540   0.544  0.4517 -0.1324  0.1638
  269DMF     C3 3709   2.352   0.738   0.492 -0.3036 -0.4929 -0.7940
  269DMF     O1 3710   2.319   0.833   0.419 -0.2380  0.3260  0.7274
  269DMF     H1 3711   2.482   0.717   0.250 -0.5815  0.0427 -0.7472
  269DMF     H2 3712   2.417   0.553   0.255  1.3662 -0.5799 -0.2628
  269DMF     H3 3713   2.589   0.589   0.305  0.0167 -0.7960  2.3915
  269DMF     H4 3714   2.444   0.559   0.642 -1.7375  0.2172 -0.9254
  269DMF     H5 3715   2.592   0.577   0.563  1.3921 -2.8238  0.5996
  269DMF     H6 3716   2.499   0.435   0.512  3.0256 -0.0023  0.3032
  269DMF     H7 3717   2.328   0.726   0.600 -0.0465  1.6360 -0.4888
  270DMF     C1 3718   0.111   1.918   3.562 -0.2032  0.3523 -0.1295
  270DMF     N1 3719   0.161   1.791   3.497 -0.5545 -0.0611 -0.5088
  270DMF     C2 3720   0.245   1.702   3.574  0.1823 -0.1610  0.3305
  270DMF     C3 3721   0.112   1.750   3.370 -0.3082 -0.1423  0.4169
  270DMF     O1 3722   0.042   1.825   3.300  0.0026  0.1109  0.3366
  270DMF     H1 3723   0.171   2.004   3.532 -2.7644  2.3598  0.3858
  270DMF     H2 3724   0.111   1.909   3.672  0.9672 -2.6898 -0.3202
  270DMF     H3 3725   0.012   1.946   3.526 -0.2745 -0.1087 -0.2991
  270DMF     H4 3726   0.268   1.612   3.515  1.4731 -1.6531  3.0208
  270DMF     H5 3727   0.201   1.658   3.664  0.8567  0.5434  1.0117
  270DMF     H6 3728   0.339   1.757   3.588  0.8950 -0.4750 -2.8442
  270DMF     H7 3729   0.144   1.650   3.334 -0.1622  0.6534 -1.7778
  271DMF     C1 3730   2.670   1.656   2.714  0.6230  0.5802  0.3410
  271DMF     N1 3731   2.724   1.540   2.632  0.1231 -0.7660 -0.0385
  271DMF     C2 3732   2.869   1.521   2.604  0.6423 -0.1288 -0.0262
  271DMF     C3 3733   2.640   1.450   2.572 -0.2843  0.1049  0.6355
  271DMF     O1 3734   2.517   1.453   2.563  0.5501 -0.0535  0.0357
  271DMF     H1 3735   2.571   1.624   2.750  0.4102 -0.4621 -1.1158
  271DMF     H2 3736   2.652   1.740   2.646 -1.0860  0.1933  0.2874
  271DMF     H3 3737   2.747   1.677   2.789  1.2349 -0.2667 -0.0463
  271DMF     H4 3738   2.901   1.424   2.645  0.3151 -0.9398 -1.6566
  271DMF     H5 3739   2.914   1.604   2.659 -0.8053  0.9269 -0.4034
  271DMF     H6 3740   2.892   1.522   2.497  1.5982 -1.4576  0.1523
  271DMF     H7 3741   2.694   1.365   2.524  0.8170  0.3071  1.5035
  272DMF     C1 3742   2.905   1.978   3.002 -0.8376 -0.3793  0.1949
  272DMF     N1 3743   2.847   2.069   3.091  0.0822 -0.1003  0.3840
  272DMF     C2 3744   2.875   2.215   3.063 -0.1123 -0.2682  0.6074
  272DMF     C3 3745   2.748   2.029   3.183  0.3722  0.3041  0.7253
  272DMF     O1 3746   2.709   1.912   3.195  0.0246 -0.3260  0.1899
  272DMF     H1 3747   2.984   2.024   2.941 -0.3378 -1.6812 -0.1464
  272DMF     H2 3748   2.823   1.936   2.943 -0.7602 -0.4661  0.1489
  272DMF     H3 3749   2.954   1.902   3.063  1.1617 -0.7795 -1.8193
  272DMF     H4 3750   2.982   2.239   3.063 -0.2122  0.1886 -0.0153
  272DMF     H5 3751   2.832   2.286   3.135 -0.8978  1.0125 -1.1065
  272DMF     H6 3752   2.835   2.254   2.969  2.1553  1.1402  0.1848
  272DMF     H7 3753   2.714   2.108   3.253 -1.7077  1.3922 -1.4486
  273DMF     C1 3754   1.336   2.391   2.597 -0.4406  0.0287 -0.0240
  273DMF     N1 3755   1.414   2.508   2.637  0.3118 -0.4713  0.0491
  273DMF     C2 3756   1.551   2.519   2.586  0.0182 -0.5211 -0.2806
  273DMF     C3 3757   1.390   2.564   2.765 -0.2752  0.3245  0.5988
  273DMF     O1 3758   1.291   2.539   2.830  0.1176  0.4497 -0.2425
  273DMF     H1 3759   1.253   2.439   2.543 -2.1706 -0.4691  2.1081
  273DMF     H2 3760   1.302   2.327   2.679  3.9634 -0.3200  1.6713
  273DMF     H3 3761   1.399   2.335   2.527 -1.6807 -1.3383 -0.0606
  273DMF     H4 3762   1.617   2.470   2.658 -0.1019  0.0775  0.2440
  273DMF     H5 3763   1.589   2.622   2.580 -1.7617  0.1257 -0.9592
  273DMF     H6 3764   1.560   2.478   2.485  0.1109 -0.5602 -0.2561
  273DMF     H7 3765   1.462   2.643   2.791  0.6905  0.4166 -2.2064
  274DMF     C1 3766   0.617   2.258   1.095 -0.0231  0.5403 -0.3658
  274DMF     N1 3767   0.568   2.146   1.011 -0.3346  0.1789 -0.7935
  274DMF     C2 3768   0.455   2.073   1.060 -0.0611 -0.1259 -0.6560
  274DMF     C3 3769   0.650   2.099   0.900  0.0727  0.2999  0.1042
  274DMF     O1 3770   0.758   2.150   0.875 -0.3173 -0.3666 -0.3227
  274DMF     H1 3771   0.725   2.251   1.109  0.0725 -0.1557 -1.3858
  274DMF     H2 3772   0.558   2.251   1.187 -0.1525 -1.6352 -0.6022
  274DMF     H3 3773   0.582   2.343   1.034 -1.0912 -0.1799 -0.7626
  274DMF     H4 3774   0.454   1.966   1.036  0.4417 -0.1154 -0.7366
  274DMF     H5 3775   0.366   2.107   1.006  0.9874 -1.6947 -3.4822
  274DMF     H6 3776   0.438   2.076   1.168  2.8150 -3.1168 -0.0159
  274DMF     H7 3777   0.601   2.020   0.841 -1.6295  1.8141 -0.5666
  275DMF     C1 3778   2.131   1.930   0.141 -0.0496  0.2311  0.4287
  275DMF     N1 3779   2.120   2.079   0.135  0.5301  0.1245 -0.5268
  275DMF     C2 3780   2.043   2.134   0.017 -0.3514  0.6256 -0.5099
  275DMF     C3 3781   2.193   2.160   0.223  0.2211 -0.4479 -0.0958
  275DMF     O1 3782   2.257   2.102   0.318  0.1504 -0.2469  0.3204
  275DMF     H1 3783   2.101   1.891   0.043 -1.5789 -0.6526  1.2262
  275DMF     H2 3784   2.072   1.882   0.220 -0.6686 -1.0110 -0.7748
  275DMF     H3 3785   2.237   1.917   0.164  0.2795  2.6146  0.4674
  275DMF     H4 3786   2.039   2.242   0.033  0.0526  0.4838  0.6261
  275DMF     H5 3787   1.938   2.106   0.031  0.5768 -1.2693  3.4325
  275DMF     H6 3788   2.088   2.110  -0.080 -0.7708 -0.4060 -0.4607
  275DMF     H7 3789   2.187   2.269   0.209  2.3616 -0.6508 -3.2985
  276DMF     C1 3790   0.732   2.981   1.503  0.3505 -0.2481  0.0530
  276DMF     N1 3791   0.748   2.936   1.365  0.0786  0.4565 -0.3497
  276DMF     C2 3792   0.818   2.806   1.344  0.1525  0.2636 -0.1829
  276DMF     C3 3793   0.707   3.006   1.257 -0.3359  0.8374  0.1038
  276DMF     O1 3794   0.625   3.093   1.270 -0.3151  0.0084  0.0886
  276DMF     H1 3795   0.707   3.087   1.511  0.2475 -0.2117 -0.6834
  276DMF     H2 3796   0.820   2.958   1.565  0.8406  0.5094 -0.3493
  276DMF     H3 3797   0.648   2.925   1.546  1.8062 -0.9088  2.1064
  276DMF     H4 3798   0.763   2.745   1.271  1.6367 -1.2354 -0.0530
  276DMF     H5 3799   0.808   2.747   1.435 -1.6682 -0.0616 -0.5765
  276DMF     H6 3800   0.922   2.831   1.320  0.3057 -0.6236 -0.4451
  276DMF     H7 3801   0.756   2.968   1.166 -2.7840 -1.6060 -0.2391
  277DMF     C1 3802   2.281   1.620   0.657 -0.3242  0.0612  0.7945
  277DMF     N1 3803   2.313   1.746   0.575  0.2340 -0.3048 -0.0857
  277DMF     C2 3804   2.319   1.734   0.432  0.0720  0.2531  0.5174
  277DMF     C3 3805   2.306   1.870   0.634  0.6278  0.1191  0.2755
  277DMF     O1 3806   2.281   1.876   0.744 -0.0986  0.4262 -0.3743
  277DMF     H1 3807   2.314   1.641   0.759 -1.9461  0.9613  1.1534
  277DMF     H2 3808   2.342   1.539   0.615  0.9425  1.2796  0.2504
  277DMF     H3 3809   2.180   1.578   0.640 -0.8609  0.8271  2.0527
  277DMF     H4 3810   2.350   1.634   0.396 -2.8038  0.4104 -2.6862
  277DMF     H5 3811   2.388   1.805   0.383  0.1287 -0.8449 -1.0602
  277DMF     H6 3812   2.224   1.752   0.381 -0.5864  3.3081  2.7068
  277DMF     H7 3813   2.328   1.958   0.571  0.8004 -0.1981 -0.1085
  278DMF     C1 3814   3.318   1.513   3.668 -0.0016  0.0151  0.3381
  278DMF     N1 3815   3.356   1.436   3.554 -0.4126 -0.4740 -0.3707
  278DMF     C2 3816   3.452   1.328   3.570  0.3051  0.2267 -0.1596
  278DMF     C3 3817   3.316   1.471   3.421 -0.2698  0.0453 -0.2514
  278DMF     O1 3818   3.216   1.531   3.402 -0.1461 -0.5155  0.2088
  278DMF     H1 3819   3.240   1.587   3.647  0.5636  0.3259 -0.7193
  278DMF     H2 3820   3.408   1.567   3.699 -0.2927  0.6224  0.1271
  278DMF     H3 3821   3.293   1.446   3.751  0.3447  1.1475  1.3539
  278DMF     H4 3822   3.440   1.255   3.489  2.8180 -0.1491 -0.2528
  278DMF     H5 3823   3.423   1.264   3.654  2.0704  0.9344  1.0184
  278DMF     H6 3824   3.556   1.362   3.580  0.3237  0.2140 -0.3037
  278DMF     H7 3825   3.378   1.436   3.336 -0.8374  2.9162 -1.9088
  279DMF     C1 3826   0.293   3.116   0.281 -0.1091 -0.1445 -0.8579
  279DMF     N1 3827   0.385   3.120   0.164 -0.1178 -0.3151 -0.7431
  279DMF     C2 3828   0.369   3.236   0.066  0.2069 -0.2006 -0.0866
  279DMF     C3 3829   0.501   3.033   0.161  0.3903 -0.3561 -0.3742
  279DMF     O1 3830   0.524   2.951   0.243  0.4022  0.2060  0.0831
  279DMF     H1 3831   0.301   3.015   0.325  0.0727 -0.3901 -1.4494
  279DMF     H2 3832   0.189   3.144   0.262 -0.6960 -1.1842  0.7374
  279DMF     H3 3833   0.316   3.190   0.358 -1.4580 -0.1001 -0.4800
  279DMF     H4 3834   0.433   3.218  -0.021 -0.2452 -1.4580 -0.1774
  279DMF     H5 3835   0.388   3.330   0.119 -2.6127 -0.5252  1.5536
  279DMF     H6 3836   0.261   3.236   0.047  0.1392 -0.2052  0.2903
  279DMF     H7 3837   0.560   3.049   0.069  1.6061  0.7029  0.5740
  280DMF     C1 3838   2.115   0.880   1.076  0.6929  0.2586 -0.0646
  280DMF     N1 3839   2.221   0.969   1.032  0.1297 -0.2631  0.8685
  280DMF     C2 3840   2.309   0.919   0.922 -0.1880 -0.0750  0.0594
  280DMF     C3 3841   2.238   1.091   1.089  0.1138 -0.2576  0.2929
  280DMF     O1 3842   2.171   1.129   1.179  1.4550 -0.0616 -0.1149
  280DMF     H1 3843   2.106   0.799   1.003  1.6532  0.1902 -0.1078
  280DMF     H2 3844   2.023   0.941   1.076 -0.1781 -1.0184 -0.8787
  280DMF     H3 3845   2.142   0.839   1.174  0.0067 -0.4931 -0.1840
  280DMF     H4 3846   2.404   0.896   0.971 -0.2645  1.1216  0.7900
  280DMF     H5 3847   2.323   0.997   0.847 -0.6391 -2.4592 -2.5594
  280DMF     H6 3848   2.269   0.832   0.867 -0.8811  0.8884 -0.9825
  280DMF     H7 3849   2.323   1.143   1.042 -1.6371  0.3068 -2.3882
  281DMF     C1 3850   2.812   1.766   2.248  0.0886 -0.8609  0.0963
  281DMF     N1 3851   2.671   1.719   2.259  0.6900  0.2682  0.1353
  281DMF     C2 3852   2.554   1.812   2.268  0.0141  0.4430  0.3715
  281DMF     C3 3853   2.651   1.585   2.277  0.3759 -0.0505 -0.4411
  281DMF     O1 3854   2.742   1.507   2.271  0.3550 -0.0738  0.4963
  281DMF     H1 3855   2.871   1.727   2.332 -2.2455 -2.1751  1.1527
  281DMF     H2 3856   2.814   1.876   2.250  3.0794 -0.8694 -0.0788
  281DMF     H3 3857   2.851   1.728   2.153  0.9597  1.1055 -0.3577
  281DMF     H4 3858   2.493   1.795   2.357  1.0914 -0.4177  0.9647
  281DMF     H5 3859   2.484   1.776   2.192 -1.3686  0.1124  1.7755
  281DMF     H6 3860   2.582   1.917   2.255 -1.9694  0.5759 -3.3806
  281DMF     H7 3861   2.547   1.554   2.297  0.6763  1.2621  3.5981
  282DMF     C1 3862   2.935   1.889   0.809  0.2281  0.3379 -0.3087
  282DMF     N1 3863   2.977   1.818   0.938 -0.3168 -0.3802  0.1831
  282DMF     C2 3864   2.880   1.811   1.048  0.1398  0.0790  0.2111
  282DMF     C3 3865   3.109   1.767   0.959 -0.1714 -0.1388 -0.6694
  282DMF     O1 3866   3.190   1.759   0.869 -0.1856 -0.3544  0.3193
  282DMF     H1 3867   3.001   1.977   0.805  0.6153 -0.0427 -3.2926
  282DMF     H2 3868   2.830   1.917   0.823  1.2965  4.2573  0.3624
  282DMF     H3 3869   2.954   1.817   0.729 -0.1617 -0.6741  0.5004
  282DMF     H4 3870   2.906   1.729   1.117  4.2005  0.3618 -0.8794
  282DMF     H5 3871   2.777   1.803   1.011  0.9383 -1.0827 -1.8134
  282DMF     H6 3872   2.890   1.901   1.110 -0.9146  0.6917 -0.4878
  282DMF     H7 3873   3.115   1.735   1.064 -0.4940  0.6407 -0.4069
  283DMF     C1 3874   1.580   3.387   1.561  0.1036 -0.0656  0.1943
  283DMF     N1 3875   1.542   3.382   1.415 -0.1378 -0.0574 -0.9263
  283DMF     C2 3876   1.613   3.471   1.322 -0.0706  0.1813 -0.2371
  283DMF     C3 3877   1.442   3.295   1.372  0.1882  0.4300  0.3312
  283DMF     O1 3878   1.397   3.210   1.444  0.7361  0.0871 -0.5597
  283DMF     H1 3879   1.642   3.472   1.591 -1.0050 -0.5704  4.3471
  283DMF     H2 3880   1.624   3.293   1.597  0.2677 -0.3545 -0.7529
  283DMF     H3 3881   1.494   3.402   1.627  0.9891  0.1209  1.3216
  283DMF     H4 3882   1.590   3.456   1.216 -0.0075  0.9860 -0.3714
  283DMF     H5 3883   1.719   3.447   1.337 -0.1079  0.9166  1.2554
  283DMF     H6 3884   1.593   3.575   1.349 -0.9471 -0.2959  0.9764
  283DMF     H7 3885   1.399   3.317   1.272  1.5835 -2.0531 -0.8624
  284DMF     C1 3886   0.833   2.768   2.579  0.3991 -0.0194 -0.3194
  284DMF     N1 3887   0.951   2.708   2.648 -0.3681  0.4345  0.5535
  284DMF     C2 3888   1.044   2.795   2.709 -0.5625  0.8837  0.4758
  284DMF     C3 3889   0.959   2.572   2.673 -0.3926 -0.4859 -0.1665
  284DMF     O1 3890   0.869   2.496   2.636 -0.1983 -0.0911 -0.1099
  284DMF     H1 3891   0.844   2.734   2.475 -0.0729  0.8895 -0.6658
  284DMF     H2 3892   0.841   2.877   2.584  1.2432 -0.1294  0.9843
  284DMF     H3 3893   0.740   2.737   2.627  1.3577 -0.4621  1.2950
  284DMF     H4 3894   1.118   2.738   2.765 -2.3326 -0.8324  1.1317
  284DMF     H5 3895   0.992   2.864   2.777 -0.4057  1.7502 -0.2751
  284DMF     H6 3896   1.090   2.855   2.629  1.0592 -1.4473 -0.3789
  284DMF     H7 3897   1.051   2.534   2.720 -1.0166 -2.0091 -0.1475
  285DMF     C1 3898   3.295   1.840   0.118 -0.4030  0.1030  0.3074
  285DMF     N1 3899   3.328   1.758   0.240  0.0552  0.6855  0.1561
  285DMF     C2 3900   3.264   1.803   0.363  0.2537 -0.3563 -0.2530
  285DMF     C3 3901   3.437   1.675   0.238 -1.1136 -0.1977  0.2268
  285DMF     O1 3902   3.480   1.628   0.142 -0.1052  0.2022  0.2572
  285DMF     H1 3903   3.233   1.781   0.050 -0.1257 -0.9068  0.9120
  285DMF     H2 3904   3.384   1.880   0.068 -0.9937  1.0574  0.0150
  285DMF     H3 3905   3.232   1.924   0.150 -1.2968 -0.6340  0.5118
  285DMF     H4 3906   3.158   1.779   0.349 -0.2534  1.9364 -0.5002
  285DMF     H5 3907   3.287   1.909   0.375  1.6750 -0.8389  1.5178
  285DMF     H6 3908   3.306   1.748   0.449 -0.0352 -0.2317 -0.0312
  285DMF     H7 3909   3.474   1.644   0.338 -0.1083  0.5693  0.1033
  286DMF     C1 3910   2.056   1.850   2.932  0.6539  0.1929  0.2075
  286DMF     N1 3911   1.918   1.824   2.967  0.3767 -0.5108 -0.4783
  286DMF     C2 3912   1.825   1.938   2.983 -0.6175 -0.3265 -0.1393
  286DMF     C3 3913   1.890   1.705   3.022 -0.6671  0.1638 -0.2042
  286DMF     O1 3914   1.976   1.619   3.033  0.1947  0.2065  0.0246
  286DMF     H1 3915   2.102   1.770   2.872  2.5332  2.5420 -1.5901
  286DMF     H2 3916   2.116   1.863   3.023 -1.7935  0.3748  1.8423
  286DMF     H3 3917   2.062   1.948   2.883 -2.2127  0.9750  1.3348
  286DMF     H4 3918   1.729   1.905   3.024  0.3883 -1.9840  0.9261
  286DMF     H5 3919   1.805   1.976   2.882 -0.2027  0.0105 -0.1006
  286DMF     H6 3920   1.864   2.018   3.048 -0.0281 -0.5884 -0.1660
  286DMF     H7 3921   1.787   1.699   3.062 -1.1728 -0.6435 -1.6121
  287DMF     C1 3922   0.174   0.722   2.498 -0.5968 -0.3389 -0.1317
  287DMF     N1 3923   0.089   0.691   2.377  0.2708 -0.2423 -0.4218
  287DMF     C2 3924   0.060   0.550   2.342  0.1300 -0.2978 -0.3274
  287DMF     C3 3925   0.053   0.789   2.286  0.1401  0.2535 -0.1576
  287DMF     O1 3926   0.093   0.906   2.293 -0.6952 -0.0683 -0.0556
  287DMF     H1 3927   0.180   0.639   2.570  1.0688  0.4670  0.6807
  287DMF     H2 3928   0.134   0.806   2.557  1.0486  1.8119 -1.9919
  287DMF     H3 3929   0.273   0.763   2.476 -0.1549  0.0350  2.4409
  287DMF     H4 3930   0.119   0.481   2.403 -0.7404 -0.3042  0.5268
  287DMF     H5 3931   0.078   0.537   2.234  1.7509  1.1066 -0.2586
  287DMF     H6 3932  -0.047   0.533   2.361  0.2267 -2.0072 -1.2356
  287DMF     H7 3933  -0.005   0.750   2.200 -1.4689  0.6570  0.7354
  288DMF     C1 3934   1.995   2.244   2.877  0.3250 -0.9228 -0.4794
  288DMF     N1 3935   2.068   2.315   2.986 -0.4049  0.9717  0.4859
  288DMF     C2 3936   2.111   2.460   2.958 -0.4026  0.3999 -0.0385
  288DMF     C3 3937   2.104   2.259   3.109  0.0444  0.2060 -0.0443
  288DMF     O1 3938   2.088   2.142   3.133 -0.0311  0.0957 -0.1099
  288DMF     H1 3939   1.913   2.186   2.920  0.8094 -1.0839  0.2299
  288DMF     H2 3940   2.065   2.168   2.838  0.1893 -0.6443 -1.2736
  288DMF     H3 3941   1.960   2.311   2.798  0.2479 -0.0249  0.3199
  288DMF     H4 3942   2.198   2.493   3.016 -0.6243  0.4891  0.2387
  288DMF     H5 3943   2.031   2.523   2.998  1.9214  2.3865  1.6254
  288DMF     H6 3944   2.117   2.468   2.849  0.0680  2.0606  0.1073
  288DMF     H7 3945   2.152   2.329   3.181  0.2578 -0.4769  0.4883
  289DMF     C1 3946   1.323   2.818   3.022 -0.1006  0.7842 -0.1807
  289DMF     N1 3947   1.394   2.937   2.982 -0.2522  0.0147 -0.0738
  289DMF     C2 3948   1.310   3.061   2.960 -0.2384 -0.6223 -0.0009
  289DMF     C3 3949   1.531   2.927   2.929  0.5245 -0.9805 -0.0810
  289DMF     O1 3950   1.599   2.828   2.944 -0.0046  1.0722 -0.2330
  289DMF     H1 3951   1.377   2.729   2.987  0.9756  1.2602  0.2236
  289DMF     H2 3952   1.221   2.821   2.983  0.1000 -0.5519 -0.8337
  289DMF     H3 3953   1.317   2.818   3.132 -0.8056 -2.9701 -0.1675
  289DMF     H4 3954   1.369   3.152   2.973 -1.0312 -0.1488  0.3614
  289DMF     H5 3955   1.223   3.058   3.027 -1.1201  1.6867 -0.9881
  289DMF     H6 3956   1.264   3.061   2.861 -1.6857  1.2250  0.6399
  289DMF     H7 3957   1.583   3.016   2.890 -0.0492 -0.5763  0.0590
  290DMF     C1 3958   2.079   0.560   2.253  1.0838 -0.4448  0.1161
  290DMF     N1 3959   2.177   0.616   2.346  0.0454 -0.6712 -0.3501
  290DMF     C2 3960   2.251   0.734   2.304  0.6560 -0.8458 -0.5775
  290DMF     C3 3961   2.211   0.559   2.462 -0.1876  0.2405 -0.0634
  290DMF     O1 3962   2.167   0.451   2.500 -0.6627  0.0164 -0.6385
  290DMF     H1 3963   2.025   0.475   2.296  1.4068 -1.7166 -1.9040
  290DMF     H2 3964   2.142   0.519   2.173 -0.8170  0.3330 -1.8328
  290DMF     H3 3965   2.009   0.634   2.212  1.9102  0.5799  0.5289
  290DMF     H4 3966   2.188   0.813   2.260  2.0598  0.5954 -0.0737
  290DMF     H5 3967   2.324   0.706   2.227 -0.2678 -2.4993 -0.8737
  290DMF     H6 3968   2.297   0.792   2.385 -2.1388  3.6045 -1.9767
  290DMF     H7 3969   2.275   0.627   2.521  1.0450 -1.2631  0.3634
  291DMF     C1 3970   1.159   2.893   0.705  0.3624  0.0114 -0.3057
  291DMF     N1 3971   1.290   2.885   0.642  0.3971 -0.2826 -0.3086
  291DMF     C2 3972   1.408   2.842   0.719  0.1192 -0.0227 -0.6433
  291DMF     C3 3973   1.304   2.925   0.508  0.2330 -0.2538 -0.2268
  291DMF     O1 3974   1.212   2.971   0.448 -0.4848  0.0917 -0.1538
  291DMF     H1 3975   1.159   2.869   0.812 -0.1667 -1.1719 -0.5612
  291DMF     H2 3976   1.086   2.840   0.642  1.8165 -0.6518 -1.4573
  291DMF     H3 3977   1.125   2.997   0.708 -0.1189 -0.1823  2.0681
  291DMF     H4 3978   1.502   2.879   0.675  0.4082 -0.0413 -0.0430
  291DMF     H5 3979   1.410   2.733   0.723 -1.5210  0.0066  2.2578
  291DMF     H6 3980   1.403   2.878   0.822  0.2916  0.0891 -0.6727
  291DMF     H7 3981   1.403   2.906   0.463 -0.1202 -1.7974 -0.3896
  292DMF     C1 3982   0.579   3.407   2.462 -0.4748 -0.6079  0.2206
  292DMF     N1 3983   0.700   3.435   2.388  0.6304 -0.2413 -0.7295
  292DMF     C2 3984   0.735   3.572   2.368  0.5501  0.2315  0.1779
  292DMF     C3 3985   0.776   3.334   2.323 -0.0173  0.3583  0.0176
  292DMF     O1 3986   0.759   3.220   2.353  0.0222  0.2191  0.1277
  292DMF     H1 3987   0.496   3.467   2.422  0.8640  0.7530 -0.5678
  292DMF     H2 3988   0.582   3.439   2.567 -1.2555 -1.3235  0.4643
  292DMF     H3 3989   0.546   3.307   2.432  1.0201 -0.7936 -0.8399
  292DMF     H4 3990   0.667   3.639   2.422 -2.1903 -1.7434 -0.6777
  292DMF     H5 3991   0.724   3.588   2.260  0.1951 -0.7952  0.0547
  292DMF     H6 3992   0.837   3.593   2.400 -0.1093  3.3887  0.3670
  292DMF     H7 3993   0.841   3.373   2.242  0.1439  0.9140  0.4085
  293DMF     C1 3994   0.167   3.028   3.578 -0.1003  0.3132 -0.1757
  293DMF     N1 3995   0.031   3.053   3.560  0.2891  0.0610  0.0921
  293DMF     C2 3996  -0.056   2.977   3.647  0.4921  0.0039 -0.1849
  293DMF     C3 3997  -0.025   3.144   3.464 -0.0945  0.1968 -0.1765
  293DMF     O1 3998   0.048   3.205   3.384 -0.3614 -0.1340 -0.3089
  293DMF     H1 3999   0.198   2.923   3.584 -1.2411  0.0405  1.0035
  293DMF     H2 4000   0.204   3.072   3.672  1.4659  1.6144 -1.3505
  293DMF     H3 4001   0.215   3.080   3.494  0.3253 -0.2851 -0.3082
  293DMF     H4 4002  -0.009   2.880   3.668  0.0975  0.0593  1.0138
  293DMF     H5 4003  -0.150   2.963   3.592 -0.7722  1.3099  1.5977
  293DMF     H6 4004  -0.086   3.025   3.741 -0.4155  0.9724 -0.9631
  293DMF     H7 4005  -0.135   3.151   3.475 -0.0468  0.8601 -0.0529
  294DMF     C1 4006   0.755   2.246   1.502  0.0600  0.2223  0.2059
  294DMF     N1 4007   0.861   2.345   1.465 -0.2057  0.3400 -0.3365
  294DMF     C2 4008   1.004   2.311   1.492 -0.3973 -0.3290 -0.0894
  294DMF     C3 4009   0.831   2.450   1.382 -0.0757 -0.6421 -0.0004
  294DMF     O1 4010   0.719   2.470   1.338 -0.5173 -0.1798 -0.0342
  294DMF     H1 4011   0.769   2.156   1.441 -1.9697  0.0634 -0.0767
  294DMF     H2 4012   0.655   2.291   1.504  1.0339  2.4961 -0.6017
  294DMF     H3 4013   0.780   2.220   1.606 -0.3336 -1.4671 -0.1133
  294DMF     H4 4014   1.036   2.350   1.589 -1.5770  0.3886  0.0176
  294DMF     H5 4015   1.068   2.349   1.411 -0.8252 -1.3189 -0.9117
  294DMF     H6 4016   1.017   2.202   1.500 -1.2653 -0.3986  0.3864
  294DMF     H7 4017   0.917   2.519   1.367 -1.1062  0.1066 -2.7884
  295DMF     C1 4018   2.039   3.058   2.730 -0.1791  0.4961  0.6208
  295DMF     N1 4019   1.924   2.954   2.736 -0.0811 -0.3080  0.1020
  295DMF     C2 4020   1.799   2.992   2.676  0.4960  0.1340  0.8470
  295DMF     C3 4021   1.929   2.835   2.813  0.3000  0.1002  0.4614
  295DMF     O1 4022   2.033   2.795   2.868  0.0010 -0.1639 -0.1779
  295DMF     H1 4023   2.090   3.032   2.636 -0.3471 -0.4838  0.7952
  295DMF     H2 4024   2.107   3.033   2.812  0.7492  2.1136  0.3644
  295DMF     H3 4025   1.992   3.157   2.736 -1.3104  0.0081  0.0353
  295DMF     H4 4026   1.740   2.900   2.685  1.0783 -0.5765 -2.1435
  295DMF     H5 4027   1.813   3.014   2.569 -0.4144  1.4524  0.9854
  295DMF     H6 4028   1.743   3.071   2.728  2.4305  2.5532 -0.6299
  295DMF     H7 4029   1.835   2.777   2.805 -0.8882  2.1586 -0.9446
  296DMF     C1 4030   1.146   3.160   2.279 -0.4881  0.5921 -0.1562
  296DMF     N1 4031   1.124   3.017   2.255  0.5790 -0.6885  0.2430
  296DMF     C2 4032   0.988   2.963   2.280  0.2905  0.0248  0.4429
  296DMF     C3 4033   1.232   2.932   2.219 -0.3502 -0.4996 -0.4108
  296DMF     O1 4034   1.348   2.970   2.207  0.7222 -0.2572  0.0739
  296DMF     H1 4035   1.054   3.214   2.303 -1.4214 -1.3156  0.6580
  296DMF     H2 4036   1.182   3.215   2.191 -3.5934  1.5685 -0.8502
  296DMF     H3 4037   1.221   3.180   2.356  0.6695  0.6335 -1.2746
  296DMF     H4 4038   0.935   3.014   2.362  0.7911  0.3312  0.5769
  296DMF     H5 4039   1.009   2.863   2.320  0.5607 -0.4797 -0.9381
  296DMF     H6 4040   0.927   2.964   2.189 -0.3132 -0.8565  0.8296
  296DMF     H7 4041   1.204   2.825   2.210 -1.6507 -0.3040  1.1574
  297DMF     C1 4042   0.428   0.155   0.244 -0.3661  0.0922  0.6520
  297DMF     N1 4043   0.381   0.144   0.385 -0.0786 -0.3446 -0.4053
  297DMF     C2 4044   0.242   0.117   0.408  0.2892 -0.2616  0.3096
  297DMF     C3 4045   0.467   0.166   0.490 -0.3475  0.7823 -0.4578
  297DMF     O1 4046   0.582   0.191   0.472  0.4067 -0.4912  0.4856
  297DMF     H1 4047   0.348   0.130   0.173 -1.0701 -2.0941  2.1637
  297DMF     H2 4048   0.519   0.100   0.218 -0.1045  2.2003 -3.3601
  297DMF     H3 4049   0.456   0.259   0.223 -1.8667  0.0367 -1.7205
  297DMF     H4 4050   0.179   0.160   0.330 -0.4414 -0.0722  0.9958
  297DMF     H5 4051   0.203   0.160   0.501 -0.1935  1.9381 -0.8787
  297DMF     H6 4052   0.236   0.007   0.410  0.0017 -0.2771 -0.9157
  297DMF     H7 4053   0.421   0.153   0.590 -0.5808  0.9872 -0.5376
  298DMF     C1 4054   1.530   0.214   0.346 -1.2037  0.1884  0.0222
  298DMF     N1 4055   1.399   0.191   0.400 -0.2448 -0.1977 -0.2853
  298DMF     C2 4056   1.293   0.278   0.352  0.2847 -0.7615 -0.1293
  298DMF     C3 4057   1.372   0.097   0.503 -1.0563 -0.1501 -0.0305
  298DMF     O1 4058   1.463   0.031   0.557  0.5299  0.2793 -0.3306
  298DMF     H1 4059   1.600   0.183   0.425 -0.9847 -0.3185 -0.3743
  298DMF     H2 4060   1.546   0.321   0.330  0.0470 -0.1975 -1.2855
  298DMF     H3 4061   1.545   0.169   0.248  1.1029  2.4120 -0.6848
  298DMF     H4 4062   1.286   0.284   0.243  3.7906 -1.9569 -0.4602
  298DMF     H5 4063   1.288   0.367   0.416 -4.5743 -1.1752  0.2580
  298DMF     H6 4064   1.199   0.229   0.381  1.0787 -0.4879  3.1029
  298DMF     H7 4065   1.268   0.099   0.538 -0.2121  0.7483  2.5724
  299DMF     C1 4066   0.490   3.361   0.913 -0.4749  0.1543 -0.0018
  299DMF     N1 4067   0.547   3.233   0.860 -0.2527  0.1633 -0.7596
  299DMF     C2 4068   0.627   3.154   0.951  0.1979 -0.6939  0.0264
  299DMF     C3 4069   0.507   3.184   0.733 -0.2470  0.5562  0.6780
  299DMF     O1 4070   0.452   3.247   0.649 -0.5055 -0.9310 -0.2950
  299DMF     H1 4071   0.575   3.429   0.899  0.6413 -0.8177  1.9512
  299DMF     H2 4072   0.466   3.350   1.019  0.5375 -0.2113  0.1926
  299DMF     H3 4073   0.397   3.391   0.863 -0.2302  0.2530 -0.4057
  299DMF     H4 4074   0.573   3.064   0.983 -2.8123  1.9895  2.9542
  299DMF     H5 4075   0.670   3.213   1.033  0.4758 -0.9808  0.0886
  299DMF     H6 4076   0.723   3.131   0.904 -0.0488 -0.1940 -0.7509
  299DMF     H7 4077   0.532   3.077   0.726  0.6255  0.6287  2.3273
  300DMF     C1 4078   1.695   1.049   0.784 -0.2088  0.1719  0.3084
  300DMF     N1 4079   1.710   0.907   0.761  0.4263  0.8384  0.2261
  300DMF     C2 4080   1.742   0.827   0.878 -0.2227  0.8447  0.3923
  300DMF     C3 4081   1.710   0.852   0.634 -0.0180  0.1753  0.1071
  300DMF     O1 4082   1.704   0.920   0.533 -0.1427 -0.2504 -0.0523
  300DMF     H1 4083   1.778   1.107   0.742  1.1426 -0.2567  2.3235
  300DMF     H2 4084   1.705   1.077   0.890  2.6042  1.3734 -0.2474
  300DMF     H3 4085   1.598   1.084   0.745 -1.0547 -0.1617  2.0494
  300DMF     H4 4086   1.837   0.776   0.855 -0.9405 -0.5153  0.3849
  300DMF     H5 4087   1.662   0.753   0.890 -1.0043  1.7675  0.9935
  300DMF     H6 4088   1.749   0.887   0.970  0.1810  2.8119 -0.8861
  300DMF     H7 4089   1.696   0.742   0.636 -0.4008  0.1918 -1.1266
  301DMF     C1 4090   3.158   1.889   3.569  0.0828  0.2181  0.6085
  301DMF     N1 4091   3.016   1.851   3.596  0.0752 -0.0519  0.1068
  301DMF     C2 4092   2.952   1.769   3.492 -0.2688  0.2676 -0.5915
  301DMF     C3 4093   2.947   1.898   3.706  0.1009 -0.2230 -0.5345
  301DMF     O1 4094   2.995   1.991   3.772  0.7969 -0.2454  0.2597
  301DMF     H1 4095   3.164   1.908   3.461  0.0928 -0.2358  0.5286
  301DMF     H2 4096   3.227   1.804   3.580 -0.6761 -0.2639  1.6956
  301DMF     H3 4097   3.199   1.980   3.614  0.0725 -0.1537  1.3865
  301DMF     H4 4098   2.872   1.701   3.523 -2.2106  3.5400  1.8094
  301DMF     H5 4099   3.032   1.702   3.457 -0.0574  0.6315 -0.8067
  301DMF     H6 4100   2.925   1.832   3.407 -1.1133 -0.9278 -1.2208
  301DMF     H7 4101   2.846   1.857   3.723 -0.5933  1.4580 -0.5993
  302DMF     C1 4102   2.758   0.948   0.874 -0.2439  0.2487  0.2905
  302DMF     N1 4103   2.716   0.807   0.893 -0.1189  0.6505  0.2216
  302DMF     C2 4104   2.784   0.738   1.000 -0.0315 -0.1517 -0.0696
  302DMF     C3 4105   2.623   0.737   0.812 -0.8229 -0.1557  0.0045
  302DMF     O1 4106   2.544   0.787   0.737  0.0801 -0.0673  0.5276
  302DMF     H1 4107   2.865   0.962   0.852 -0.8921  1.7449 -2.1953
  302DMF     H2 4108   2.745   1.010   0.964  1.2590 -0.4076  0.9655
  302DMF     H3 4109   2.688   0.987   0.799 -1.5857 -1.2624  0.7211
  302DMF     H4 4110   2.886   0.778   1.000 -0.3200  0.6007  0.4968
  302DMF     H5 4111   2.800   0.637   0.962  0.6661 -0.2473  0.4819
  302DMF     H6 4112   2.734   0.744   1.097 -1.4781 -1.7484 -0.7059
  302DMF     H7 4113   2.634   0.629   0.832  1.0012 -0.6093 -3.0461
  303DMF     C1 4114   2.296   2.770   1.508  0.4003  0.6289  0.4905
  303DMF     N1 4115   2.319   2.905   1.554  0.3192 -0.2339  0.0547
  303DMF     C2 4116   2.459   2.946   1.547 -0.0125  0.7053 -0.1112
  303DMF     C3 4117   2.217   2.997   1.587  0.3583 -0.5017  0.2091
  303DMF     O1 4118   2.100   2.975   1.555 -0.0672  0.0285  0.5253
  303DMF     H1 4119   2.376   2.747   1.436 -0.4419 -2.1923  0.3805
  303DMF     H2 4120   2.198   2.764   1.459  1.4452 -1.7319 -1.4495
  303DMF     H3 4121   2.306   2.700   1.592 -0.7984  0.3770  0.4372
  303DMF     H4 4122   2.532   2.876   1.589  0.2466  1.6362  0.9998
  303DMF     H5 4123   2.486   3.038   1.600  0.6729 -0.1938  1.1125
  303DMF     H6 4124   2.476   2.964   1.440  2.1176  1.9112  0.4031
  303DMF     H7 4125   2.239   3.091   1.642  1.0902 -0.7300  0.3109
  304DMF     C1 4126   1.745   2.506   2.964  0.3513  0.1949  0.0790
  304DMF     N1 4127   1.613   2.461   3.008  0.1751 -0.1505  0.0665
  304DMF     C2 4128   1.550   2.536   3.119  0.6841 -0.4519  0.3473
  304DMF     C3 4129   1.558   2.340   2.965  0.0547 -0.1431 -0.0482
  304DMF     O1 4130   1.614   2.271   2.879  0.5729  0.4249 -0.2425
  304DMF     H1 4131   1.755   2.607   3.004 -3.6378  0.5005  0.5380
  304DMF     H2 4132   1.752   2.510   2.854  1.4314  2.4606  0.2130
  304DMF     H3 4133   1.826   2.449   3.010 -0.2372  1.2197  2.4445
  304DMF     H4 4134   1.442   2.538   3.106  0.6959 -1.0698  0.1721
  304DMF     H5 4135   1.585   2.640   3.114 -0.9595  0.0773 -0.2495
  304DMF     H6 4136   1.572   2.503   3.222 -2.6339  0.2040  1.3343
  304DMF     H7 4137   1.465   2.316   3.019 -0.7780 -0.0615 -1.4232
  305DMF     C1 4138   0.411   0.857   3.506  0.2092 -0.1720 -0.0238
  305DMF     N1 4139   0.319   0.891   3.618  0.6357  0.2012  0.2851
  305DMF     C2 4140   0.327   0.807   3.736 -0.1641  0.0714 -0.1315
  305DMF     C3 4141   0.235   1.005   3.617  0.1885  0.0968 -0.5682
  305DMF     O1 4142   0.240   1.091   3.528 -0.1122  0.6779 -0.1745
  305DMF     H1 4143   0.516   0.880   3.528 -0.4784  1.5760  1.5748
  305DMF     H2 4144   0.381   0.919   3.421 -0.8723 -1.1564 -0.3657
  305DMF     H3 4145   0.404   0.751   3.482 -0.3102 -0.3929  1.0617
  305DMF     H4 4146   0.296   0.858   3.827  0.0749 -0.7797  0.4308
  305DMF     H5 4147   0.433   0.785   3.752  0.0748  1.4892  0.2952
  305DMF     H6 4148   0.273   0.713   3.718  1.3640 -0.5438 -1.7224
  305DMF     H7 4149   0.176   1.018   3.710 -2.3872  1.8794 -2.3716
  306DMF     C1 4150   2.527   2.694   0.520  0.1127 -0.3593  0.2623
  306DMF     N1 4151   2.640   2.616   0.473 -0.1072 -0.0779 -0.3053
  306DMF     C2 4152   2.672   2.485   0.546 -0.2773 -0.2217 -0.4858
  306DMF     C3 4153   2.739   2.672   0.389  0.0385 -0.1611  0.6698
  306DMF     O1 4154   2.724   2.778   0.329 -0.1351 -0.8072 -0.2072
  306DMF     H1 4155   2.500   2.764   0.440 -0.6072 -1.1014 -0.1360
  306DMF     H2 4156   2.554   2.754   0.609 -1.5146 -2.4584  2.2257
  306DMF     H3 4157   2.441   2.632   0.547  0.0307 -0.6286 -0.6354
  306DMF     H4 4158   2.618   2.406   0.494 -0.0834 -1.0172  0.5214
  306DMF     H5 4159   2.657   2.507   0.653 -3.1754  0.5760 -1.0093
  306DMF     H6 4160   2.780   2.466   0.544 -0.4895 -1.3686 -1.0757
  306DMF     H7 4161   2.830   2.611   0.379 -1.0673 -1.3588 -2.8452
  307DMF     C1 4162   0.812   0.787   0.751 -0.5871 -0.0692 -0.6551
  307DMF     N1 4163   0.709   0.691   0.799  0.0086  0.4062 -0.8287
  307DMF     C2 4164   0.683   0.572   0.720  0.4042 -0.3531 -0.0632
  307DMF     C3 4165   0.655   0.697   0.925 -0.4473  0.3317  0.2244
  307DMF     O1 4166   0.690   0.781   1.001 -0.3952  0.6700  0.1672
  307DMF     H1 4167   0.893   0.789   0.824 -1.0018  0.4424 -0.2016
  307DMF     H2 4168   0.766   0.887   0.750 -1.1643 -0.2870  2.0435
  307DMF     H3 4169   0.856   0.760   0.654  0.5513 -0.8538  0.0782
  307DMF     H4 4170   0.669   0.589   0.612 -0.3892 -1.0858 -0.0792
  307DMF     H5 4171   0.593   0.518   0.751  0.2783 -0.5849 -0.8141
  307DMF     H6 4172   0.760   0.495   0.737  1.3361  0.2974 -1.2687
  307DMF     H7 4173   0.584   0.617   0.953 -0.8369  0.9509  1.0148
   3.40320   3.43847   3.80000
