HFIP comparator n4
 3225
    1GR      C1    1   0.000   0.000   1.900  0.0000  0.0000  0.0000
    1GR      C2    2   0.142   0.000   1.900  0.0000  0.0000  0.0000
    1GR      C3    3   0.213   0.123   1.900  0.0000  0.0000  0.0000
    1GR      C4    4   0.354   0.123   1.900  0.0000  0.0000  0.0000
    1GR      C5    5   0.000   0.246   1.900  0.0000  0.0000  0.0000
    1GR      C6    6   0.142   0.246   1.900  0.0000  0.0000  0.0000
    1GR      C7    7   0.213   0.368   1.900  0.0000  0.0000  0.0000
    1GR      C8    8   0.354   0.368   1.900  0.0000  0.0000  0.0000
    1GR      C9    9   0.000   0.491   1.900  0.0000  0.0000  0.0000
    1GR     C10   10   0.142   0.491   1.900  0.0000  0.0000  0.0000
    1GR     C11   11   0.213   0.614   1.900  0.0000  0.0000  0.0000
    1GR     C12   12   0.354   0.614   1.900  0.0000  0.0000  0.0000
    1GR     C13   13   0.000   0.737   1.900  0.0000  0.0000  0.0000
    1GR     C14   14   0.142   0.737   1.900  0.0000  0.0000  0.0000
    1GR     C15   15   0.213   0.860   1.900  0.0000  0.0000  0.0000
    1GR     C16   16   0.354   0.860   1.900  0.0000  0.0000  0.0000
    1GR     C17   17   0.000   0.982   1.900  0.0000  0.0000  0.0000
    1GR     C18   18   0.142   0.982   1.900  0.0000  0.0000  0.0000
    1GR     C19   19   0.213   1.105   1.900  0.0000  0.0000  0.0000
    1GR     C20   20   0.354   1.105   1.900  0.0000  0.0000  0.0000
    1GR     C21   21   0.000   1.228   1.900  0.0000  0.0000  0.0000
    1GR     C22   22   0.142   1.228   1.900  0.0000  0.0000  0.0000
    1GR     C23   23   0.213   1.351   1.900  0.0000  0.0000  0.0000
    1GR     C24   24   0.354   1.351   1.900  0.0000  0.0000  0.0000
    1GR     C25   25   0.000   1.474   1.900  0.0000  0.0000  0.0000
    1GR     C26   26   0.142   1.474   1.900  0.0000  0.0000  0.0000
    1GR     C27   27   0.213   1.596   1.900  0.0000  0.0000  0.0000
    1GR     C28   28   0.354   1.596   1.900  0.0000  0.0000  0.0000
    1GR     C29   29   0.000   1.719   1.900  0.0000  0.0000  0.0000
    1GR     C30   30   0.142   1.719   1.900  0.0000  0.0000  0.0000
    1GR     C31   31   0.213   1.842   1.900  0.0000  0.0000  0.0000
    1GR     C32   32   0.354   1.842   1.900  0.0000  0.0000  0.0000
    1GR     C33   33   0.000   1.965   1.900  0.0000  0.0000  0.0000
    1GR     C34   34   0.142   1.965   1.900  0.0000  0.0000  0.0000
    1GR     C35   35   0.213   2.088   1.900  0.0000  0.0000  0.0000
    1GR     C36   36   0.354   2.088   1.900  0.0000  0.0000  0.0000
    1GR     C37   37   0.000   2.210   1.900  0.0000  0.0000  0.0000
    1GR     C38   38   0.142   2.210   1.900  0.0000  0.0000  0.0000
    1GR     C39   39   0.213   2.333   1.900  0.0000  0.0000  0.0000
    1GR     C40   40   0.354   2.333   1.900  0.0000  0.0000  0.0000
    1GR     C41   41   0.000   2.456   1.900  0.0000  0.0000  0.0000
    1GR     C42   42   0.142   2.456   1.900  0.0000  0.0000  0.0000
    1GR     C43   43   0.213   2.579   1.900  0.0000  0.0000  0.0000
    1GR     C44   44   0.354   2.579   1.900  0.0000  0.0000  0.0000
    1GR     C45   45   0.000   2.702   1.900  0.0000  0.0000  0.0000
    1GR     C46   46   0.142   2.702   1.900  0.0000  0.0000  0.0000
    1GR     C47   47   0.213   2.824   1.900  0.0000  0.0000  0.0000
    1GR     C48   48   0.354   2.824   1.900  0.0000  0.0000  0.0000
    1GR     C49   49   0.000   2.947   1.900  0.0000  0.0000  0.0000
    1GR     C50   50   0.142   2.947   1.900  0.0000  0.0000  0.0000
    1GR     C51   51   0.213   3.070   1.900  0.0000  0.0000  0.0000
    1GR     C52   52   0.354   3.070   1.900  0.0000  0.0000  0.0000
    1GR     C53   53   0.000   3.193   1.900  0.0000  0.0000  0.0000
    1GR     C54   54   0.142   3.193   1.900  0.0000  0.0000  0.0000
    1GR     C55   55   0.213   3.316   1.900  0.0000  0.0000  0.0000
    1GR     C56   56   0.354   3.316   1.900  0.0000  0.0000  0.0000
    1GR     C57   57   0.425   0.000   1.900  0.0000  0.0000  0.0000
    1GR     C58   58   0.567   0.000   1.900  0.0000  0.0000  0.0000
    1GR     C59   59   0.638   0.123   1.900  0.0000  0.0000  0.0000
    1GR     C60   60   0.780   0.123   1.900  0.0000  0.0000  0.0000
    1GR     C61   61   0.425   0.246   1.900  0.0000  0.0000  0.0000
    1GR     C62   62   0.567   0.246   1.900  0.0000  0.0000  0.0000
    1GR     C63   63   0.638   0.368   1.900  0.0000  0.0000  0.0000
    1GR     C64   64   0.780   0.368   1.900  0.0000  0.0000  0.0000
    1GR     C65   65   0.425   0.491   1.900  0.0000  0.0000  0.0000
    1GR     C66   66   0.567   0.491   1.900  0.0000  0.0000  0.0000
    1GR     C67   67   0.638   0.614   1.900  0.0000  0.0000  0.0000
    1GR     C68   68   0.780   0.614   1.900  0.0000  0.0000  0.0000
    1GR     C69   69   0.425   0.737   1.900  0.0000  0.0000  0.0000
    1GR     C70   70   0.567   0.737   1.900  0.0000  0.0000  0.0000
    1GR     C71   71   0.638   0.860   1.900  0.0000  0.0000  0.0000
    1GR     C72   72   0.780   0.860   1.900  0.0000  0.0000  0.0000
    1GR     C73   73   0.425   0.982   1.900  0.0000  0.0000  0.0000
    1GR     C74   74   0.567   0.982   1.900  0.0000  0.0000  0.0000
    1GR     C75   75   0.638   1.105   1.900  0.0000  0.0000  0.0000
    1GR     C76   76   0.780   1.105   1.900  0.0000  0.0000  0.0000
    1GR     C77   77   0.425   1.228   1.900  0.0000  0.0000  0.0000
    1GR     C78   78   0.567   1.228   1.900  0.0000  0.0000  0.0000
    1GR     C79   79   0.638   1.351   1.900  0.0000  0.0000  0.0000
    1GR     C80   80   0.780   1.351   1.900  0.0000  0.0000  0.0000
    1GR     C81   81   0.425   1.474   1.900  0.0000  0.0000  0.0000
    1GR     C82   82   0.567   1.474   1.900  0.0000  0.0000  0.0000
    1GR     C83   83   0.638   1.596   1.900  0.0000  0.0000  0.0000
    1GR     C84   84   0.780   1.596   1.900  0.0000  0.0000  0.0000
    1GR     C85   85   0.425   1.719   1.900  0.0000  0.0000  0.0000
    1GR     C86   86   0.567   1.719   1.900  0.0000  0.0000  0.0000
    1GR     C87   87   0.638   1.842   1.900  0.0000  0.0000  0.0000
    1GR     C88   88   0.780   1.842   1.900  0.0000  0.0000  0.0000
    1GR     C89   89   0.425   1.965   1.900  0.0000  0.0000  0.0000
    1GR     C90   90   0.567   1.965   1.900  0.0000  0.0000  0.0000
    1GR     C91   91   0.638   2.088   1.900  0.0000  0.0000  0.0000
    1GR     C92   92   0.780   2.088   1.900  0.0000  0.0000  0.0000
    1GR     C93   93   0.425   2.210   1.900  0.0000  0.0000  0.0000
    1GR     C94   94   0.567   2.210   1.900  0.0000  0.0000  0.0000
    1GR     C95   95   0.638   2.333   1.900  0.0000  0.0000  0.0000
    1GR     C96   96   0.780   2.333   1.900  0.0000  0.0000  0.0000
    1GR     C97   97   0.425   2.456   1.900  0.0000  0.0000  0.0000
    1GR     C98   98   0.567   2.456   1.900  0.0000  0.0000  0.0000
    1GR     C99   99   0.638   2.579   1.900  0.0000  0.0000  0.0000
    1GR    C100  100   0.780   2.579   1.900  0.0000  0.0000  0.0000
    1GR    C101  101   0.425   2.702   1.900  0.0000  0.0000  0.0000
    1GR    C102  102   0.567   2.702   1.900  0.0000  0.0000  0.0000
    1GR    C103  103   0.638   2.824   1.900  0.0000  0.0000  0.0000
    1GR    C104  104   0.780   2.824   1.900  0.0000  0.0000  0.0000
    1GR    C105  105   0.425   2.947   1.900  0.0000  0.0000  0.0000
    1GR    C106  106   0.567   2.947   1.900  0.0000  0.0000  0.0000
    1GR    C107  107   0.638   3.070   1.900  0.0000  0.0000  0.0000
    1GR    C108  108   0.780   3.070   1.900  0.0000  0.0000  0.0000
    1GR    C109  109   0.425   3.193   1.900  0.0000  0.0000  0.0000
    1GR    C110  110   0.567   3.193   1.900  0.0000  0.0000  0.0000
    1GR    C111  111   0.638   3.316   1.900  0.0000  0.0000  0.0000
    1GR    C112  112   0.780   3.316   1.900  0.0000  0.0000  0.0000
    1GR    C113  113   0.851   0.000   1.900  0.0000  0.0000  0.0000
    1GR    C114  114   0.993   0.000   1.900  0.0000  0.0000  0.0000
    1GR    C115  115   1.064   0.123   1.900  0.0000  0.0000  0.0000
    1GR    C116  116   1.205   0.123   1.900  0.0000  0.0000  0.0000
    1GR    C117  117   0.851   0.246   1.900  0.0000  0.0000  0.0000
    1GR    C118  118   0.993   0.246   1.900  0.0000  0.0000  0.0000
    1GR    C119  119   1.064   0.368   1.900  0.0000  0.0000  0.0000
    1GR    C120  120   1.205   0.368   1.900  0.0000  0.0000  0.0000
    1GR    C121  121   0.851   0.491   1.900  0.0000  0.0000  0.0000
    1GR    C122  122   0.993   0.491   1.900  0.0000  0.0000  0.0000
    1GR    C123  123   1.064   0.614   1.900  0.0000  0.0000  0.0000
    1GR    C124  124   1.205   0.614   1.900  0.0000  0.0000  0.0000
    1GR    C125  125   0.851   0.737   1.900  0.0000  0.0000  0.0000
    1GR    C126  126   0.993   0.737   1.900  0.0000  0.0000  0.0000
    1GR    C127  127   1.064   0.860   1.900  0.0000  0.0000  0.0000
    1GR    C128  128   1.205   0.860   1.900  0.0000  0.0000  0.0000
    1GR    C129  129   0.851   0.982   1.900  0.0000  0.0000  0.0000
    1GR    C130  130   0.993   0.982   1.900  0.0000  0.0000  0.0000
    1GR    C131  131   1.064   1.105   1.900  0.0000  0.0000  0.0000
    1GR    C132  132   1.205   1.105   1.900  0.0000  0.0000  0.0000
    1GR    C133  133   0.851   1.228   1.900  0.0000  0.0000  0.0000
    1GR    C134  134   0.993   1.228   1.900  0.0000  0.0000  0.0000
    1GR    C135  135   1.064   1.351   1.900  0.0000  0.0000  0.0000
    1GR    C136  136   1.205   1.351   1.900  0.0000  0.0000  0.0000
    1GR    C137  137   0.851   1.474   1.900  0.0000  0.0000  0.0000
    1GR    C138  138   0.993   1.474   1.900  0.0000  0.0000  0.0000
    1GR    C139  139   1.064   1.596   1.900  0.0000  0.0000  0.0000
    1GR    C140  140   1.205   1.596   1.900  0.0000  0.0000  0.0000
    1GR    C141  141   0.851   1.719   1.900  0.0000  0.0000  0.0000
    1GR    C142  142   0.993   1.719   1.900  0.0000  0.0000  0.0000
    1GR    C143  143   1.064   1.842   1.900  0.0000  0.0000  0.0000
    1GR    C144  144   1.205   1.842   1.900  0.0000  0.0000  0.0000
    1GR    C145  145   0.851   1.965   1.900  0.0000  0.0000  0.0000
    1GR    C146  146   0.993   1.965   1.900  0.0000  0.0000  0.0000
    1GR    C147  147   1.064   2.088   1.900  0.0000  0.0000  0.0000
    1GR    C148  148   1.205   2.088   1.900  0.0000  0.0000  0.0000
    1GR    C149  149   0.851   2.210   1.900  0.0000  0.0000  0.0000
    1GR    C150  150   0.993   2.210   1.900  0.0000  0.0000  0.0000
    1GR    C151  151   1.064   2.333   1.900  0.0000  0.0000  0.0000
    1GR    C152  152   1.205   2.333   1.900  0.0000  0.0000  0.0000
    1GR    C153  153   0.851   2.456   1.900  0.0000  0.0000  0.0000
    1GR    C154  154   0.993   2.456   1.900  0.0000  0.0000  0.0000
    1GR    C155  155   1.064   2.579   1.900  0.0000  0.0000  0.0000
    1GR    C156  156   1.205   2.579   1.900  0.0000  0.0000  0.0000
    1GR    C157  157   0.851   2.702   1.900  0.0000  0.0000  0.0000
    1GR    C158  158   0.993   2.702   1.900  0.0000  0.0000  0.0000
    1GR    C159  159   1.064   2.824   1.900  0.0000  0.0000  0.0000
    1GR    C160  160   1.205   2.824   1.900  0.0000  0.0000  0.0000
    1GR    C161  161   0.851   2.947   1.900  0.0000  0.0000  0.0000
    1GR    C162  162   0.993   2.947   1.900  0.0000  0.0000  0.0000
    1GR    C163  163   1.064   3.070   1.900  0.0000  0.0000  0.0000
    1GR    C164  164   1.205   3.070   1.900  0.0000  0.0000  0.0000
    1GR    C165  165   0.851   3.193   1.900  0.0000  0.0000  0.0000
    1GR    C166  166   0.993   3.193   1.900  0.0000  0.0000  0.0000
    1GR    C167  167   1.064   3.316   1.900  0.0000  0.0000  0.0000
    1GR    C168  168   1.205   3.316   1.900  0.0000  0.0000  0.0000
    1GR    C169  169   1.276   0.000   1.900  0.0000  0.0000  0.0000
    1GR    C170  170   1.418   0.000   1.900  0.0000  0.0000  0.0000
    1GR    C171  171   1.489   0.123   1.900  0.0000  0.0000  0.0000
    1GR    C172  172   1.631   0.123   1.900  0.0000  0.0000  0.0000
    1GR    C173  173   1.276   0.246   1.900  0.0000  0.0000  0.0000
    1GR    C174  174   1.418   0.246   1.900  0.0000  0.0000  0.0000
    1GR    C175  175   1.489   0.368   1.900  0.0000  0.0000  0.0000
    1GR    C176  176   1.631   0.368   1.900  0.0000  0.0000  0.0000
    1GR    C177  177   1.276   0.491   1.900  0.0000  0.0000  0.0000
    1GR    C178  178   1.418   0.491   1.900  0.0000  0.0000  0.0000
    1GR    C179  179   1.489   0.614   1.900  0.0000  0.0000  0.0000
    1GR    C180  180   1.631   0.614   1.900  0.0000  0.0000  0.0000
    1GR    C181  181   1.276   0.737   1.900  0.0000  0.0000  0.0000
    1GR    C182  182   1.418   0.737   1.900  0.0000  0.0000  0.0000
    1GR    C183  183   1.489   0.860   1.900  0.0000  0.0000  0.0000
    1GR    C184  184   1.631   0.860   1.900  0.0000  0.0000  0.0000
    1GR    C185  185   1.276   0.982   1.900  0.0000  0.0000  0.0000
    1GR    C186  186   1.418   0.982   1.900  0.0000  0.0000  0.0000
    1GR    C187  187   1.489   1.105   1.900  0.0000  0.0000  0.0000
    1GR    C188  188   1.631   1.105   1.900  0.0000  0.0000  0.0000
    1GR    C189  189   1.276   1.228   1.900  0.0000  0.0000  0.0000
    1GR    C190  190   1.418   1.228   1.900  0.0000  0.0000  0.0000
    1GR    C191  191   1.489   1.351   1.900  0.0000  0.0000  0.0000
    1GR    C192  192   1.631   1.351   1.900  0.0000  0.0000  0.0000
    1GR    C193  193   1.276   1.474   1.900  0.0000  0.0000  0.0000
    1GR    C194  194   1.418   1.474   1.900  0.0000  0.0000  0.0000
    1GR    C195  195   1.489   1.596   1.900  0.0000  0.0000  0.0000
    1GR    C196  196   1.631   1.596   1.900  0.0000  0.0000  0.0000
    1GR    C197  197   1.276   1.719   1.900  0.0000  0.0000  0.0000
    1GR    C198  198   1.418   1.719   1.900  0.0000  0.0000  0.0000
    1GR    C199  199   1.489   1.842   1.900  0.0000  0.0000  0.0000
    1GR    C200  200   1.631   1.842   1.900  0.0000  0.0000  0.0000
    1GR    C201  201   1.276   1.965   1.900  0.0000  0.0000  0.0000
    1GR    C202  202   1.418   1.965   1.900  0.0000  0.0000  0.0000
    1GR    C203  203   1.489   2.088   1.900  0.0000  0.0000  0.0000
    1GR    C204  204   1.631   2.088   1.900  0.0000  0.0000  0.0000
    1GR    C205  205   1.276   2.210   1.900  0.0000  0.0000  0.0000
    1GR    C206  206   1.418   2.210   1.900  0.0000  0.0000  0.0000
    1GR    C207  207   1.489   2.333   1.900  0.0000  0.0000  0.0000
    1GR    C208  208   1.631   2.333   1.900  0.0000  0.0000  0.0000
    1GR    C209  209   1.276   2.456   1.900  0.0000  0.0000  0.0000
    1GR    C210  210   1.418   2.456   1.900  0.0000  0.0000  0.0000
    1GR    C211  211   1.489   2.579   1.900  0.0000  0.0000  0.0000
    1GR    C212  212   1.631   2.579   1.900  0.0000  0.0000  0.0000
    1GR    C213  213   1.276   2.702   1.900  0.0000  0.0000  0.0000
    1GR    C214  214   1.418   2.702   1.900  0.0000  0.0000  0.0000
    1GR    C215  215   1.489   2.824   1.900  0.0000  0.0000  0.0000
    1GR    C216  216   1.631   2.824   1.900  0.0000  0.0000  0.0000
    1GR    C217  217   1.276   2.947   1.900  0.0000  0.0000  0.0000
    1GR    C218  218   1.418   2.947   1.900  0.0000  0.0000  0.0000
    1GR    C219  219   1.489   3.070   1.900  0.0000  0.0000  0.0000
    1GR    C220  220   1.631   3.070   1.900  0.0000  0.0000  0.0000
    1GR    C221  221   1.276   3.193   1.900  0.0000  0.0000  0.0000
    1GR    C222  222   1.418   3.193   1.900  0.0000  0.0000  0.0000
    1GR    C223  223   1.489   3.316   1.900  0.0000  0.0000  0.0000
    1GR    C224  224   1.631   3.316   1.900  0.0000  0.0000  0.0000
    1GR    C225  225   1.702   0.000   1.900  0.0000  0.0000  0.0000
    1GR    C226  226   1.843   0.000   1.900  0.0000  0.0000  0.0000
    1GR    C227  227   1.914   0.123   1.900  0.0000  0.0000  0.0000
    1GR    C228  228   2.056   0.123   1.900  0.0000  0.0000  0.0000
    1GR    C229  229   1.702   0.246   1.900  0.0000  0.0000  0.0000
    1GR    C230  230   1.843   0.246   1.900  0.0000  0.0000  0.0000
    1GR    C231  231   1.914   0.368   1.900  0.0000  0.0000  0.0000
    1GR    C232  232   2.056   0.368   1.900  0.0000  0.0000  0.0000
    1GR    C233  233   1.702   0.491   1.900  0.0000  0.0000  0.0000
    1GR    C234  234   1.843   0.491   1.900  0.0000  0.0000  0.0000
    1GR    C235  235   1.914   0.614   1.900  0.0000  0.0000  0.0000
    1GR    C236  236   2.056   0.614   1.900  0.0000  0.0000  0.0000
    1GR    C237  237   1.702   0.737   1.900  0.0000  0.0000  0.0000
    1GR    C238  238   1.843   0.737   1.900  0.0000  0.0000  0.0000
    1GR    C239  239   1.914   0.860   1.900  0.0000  0.0000  0.0000
    1GR    C240  240   2.056   0.860   1.900  0.0000  0.0000  0.0000
    1GR    C241  241   1.702   0.982   1.900  0.0000  0.0000  0.0000
    1GR    C242  242   1.843   0.982   1.900  0.0000  0.0000  0.0000
    1GR    C243  243   1.914   1.105   1.900  0.0000  0.0000  0.0000
    1GR    C244  244   2.056   1.105   1.900  0.0000  0.0000  0.0000
    1GR    C245  245   1.702   1.228   1.900  0.0000  0.0000  0.0000
    1GR    C246  246   1.843   1.228   1.900  0.0000  0.0000  0.0000
    1GR    C247  247   1.914   1.351   1.900  0.0000  0.0000  0.0000
    1GR    C248  248   2.056   1.351   1.900  0.0000  0.0000  0.0000
    1GR    C249  249   1.702   1.474   1.900  0.0000  0.0000  0.0000
    1GR    C250  250   1.843   1.474   1.900  0.0000  0.0000  0.0000
    1GR    C251  251   1.914   1.596   1.900  0.0000  0.0000  0.0000
    1GR    C252  252   2.056   1.596   1.900  0.0000  0.0000  0.0000
    1GR    C253  253   1.702   1.719   1.900  0.0000  0.0000  0.0000
    1GR    C254  254   1.843   1.719   1.900  0.0000  0.0000  0.0000
    1GR    C255  255   1.914   1.842   1.900  0.0000  0.0000  0.0000
    1GR    C256  256   2.056   1.842   1.900  0.0000  0.0000  0.0000
    1GR    C257  257   1.702   1.965   1.900  0.0000  0.0000  0.0000
    1GR    C258  258   1.843   1.965   1.900  0.0000  0.0000  0.0000
    1GR    C259  259   1.914   2.088   1.900  0.0000  0.0000  0.0000
    1GR    C260  260   2.056   2.088   1.900  0.0000  0.0000  0.0000
    1GR    C261  261   1.702   2.210   1.900  0.0000  0.0000  0.0000
    1GR    C262  262   1.843   2.210   1.900  0.0000  0.0000  0.0000
    1GR    C263  263   1.914   2.333   1.900  0.0000  0.0000  0.0000
    1GR    C264  264   2.056   2.333   1.900  0.0000  0.0000  0.0000
    1GR    C265  265   1.702   2.456   1.900  0.0000  0.0000  0.0000
    1GR    C266  266   1.843   2.456   1.900  0.0000  0.0000  0.0000
    1GR    C267  267   1.914   2.579   1.900  0.0000  0.0000  0.0000
    1GR    C268  268   2.056   2.579   1.900  0.0000  0.0000  0.0000
    1GR    C269  269   1.702   2.702   1.900  0.0000  0.0000  0.0000
    1GR    C270  270   1.843   2.702   1.900  0.0000  0.0000  0.0000
    1GR    C271  271   1.914   2.824   1.900  0.0000  0.0000  0.0000
    1GR    C272  272   2.056   2.824   1.900  0.0000  0.0000  0.0000
    1GR    C273  273   1.702   2.947   1.900  0.0000  0.0000  0.0000
    1GR    C274  274   1.843   2.947   1.900  0.0000  0.0000  0.0000
    1GR    C275  275   1.914   3.070   1.900  0.0000  0.0000  0.0000
    1GR    C276  276   2.056   3.070   1.900  0.0000  0.0000  0.0000
    1GR    C277  277   1.702   3.193   1.900  0.0000  0.0000  0.0000
    1GR    C278  278   1.843   3.193   1.900  0.0000  0.0000  0.0000
    1GR    C279  279   1.914   3.316   1.900  0.0000  0.0000  0.0000
    1GR    C280  280   2.056   3.316   1.900  0.0000  0.0000  0.0000
    1GR    C281  281   2.127   3.438   1.900  0.0000  0.0000  0.0000
    1GR    C282  282   2.269   0.000   1.900  0.0000  0.0000  0.0000
    1GR    C283  283   2.340   0.123   1.900  0.0000  0.0000  0.0000
    1GR    C284  284   2.481   0.123   1.900  0.0000  0.0000  0.0000
    1GR    C285  285   2.127   0.246   1.900  0.0000  0.0000  0.0000
    1GR    C286  286   2.269   0.246   1.900  0.0000  0.0000  0.0000
    1GR    C287  287   2.340   0.368   1.900  0.0000  0.0000  0.0000
    1GR    C288  288   2.481   0.368   1.900  0.0000  0.0000  0.0000
    1GR    C289  289   2.127   0.491   1.900  0.0000  0.0000  0.0000
    1GR    C290  290   2.269   0.491   1.900  0.0000  0.0000  0.0000
    1GR    C291  291   2.340   0.614   1.900  0.0000  0.0000  0.0000
    1GR    C292  292   2.481   0.614   1.900  0.0000  0.0000  0.0000
    1GR    C293  293   2.127   0.737   1.900  0.0000  0.0000  0.0000
    1GR    C294  294   2.269   0.737   1.900  0.0000  0.0000  0.0000
    1GR    C295  295   2.340   0.860   1.900  0.0000  0.0000  0.0000
    1GR    C296  296   2.481   0.860   1.900  0.0000  0.0000  0.0000
    1GR    C297  297   2.127   0.982   1.900  0.0000  0.0000  0.0000
    1GR    C298  298   2.269   0.982   1.900  0.0000  0.0000  0.0000
    1GR    C299  299   2.340   1.105   1.900  0.0000  0.0000  0.0000
    1GR    C300  300   2.481   1.105   1.900  0.0000  0.0000  0.0000
    1GR    C301  301   2.127   1.228   1.900  0.0000  0.0000  0.0000
    1GR    C302  302   2.269   1.228   1.900  0.0000  0.0000  0.0000
    1GR    C303  303   2.340   1.351   1.900  0.0000  0.0000  0.0000
    1GR    C304  304   2.481   1.351   1.900  0.0000  0.0000  0.0000
    1GR    C305  305   2.127   1.474   1.900  0.0000  0.0000  0.0000
    1GR    C306  306   2.269   1.474   1.900  0.0000  0.0000  0.0000
    1GR    C307  307   2.340   1.596   1.900  0.0000  0.0000  0.0000
    1GR    C308  308   2.481   1.596   1.900  0.0000  0.0000  0.0000
    1GR    C309  309   2.127   1.719   1.900  0.0000  0.0000  0.0000
    1GR    C310  310   2.269   1.719   1.900  0.0000  0.0000  0.0000
    1GR    C311  311   2.340   1.842   1.900  0.0000  0.0000  0.0000
    1GR    C312  312   2.481   1.842   1.900  0.0000  0.0000  0.0000
    1GR    C313  313   2.127   1.965   1.900  0.0000  0.0000  0.0000
    1GR    C314  314   2.269   1.965   1.900  0.0000  0.0000  0.0000
    1GR    C315  315   2.340   2.088   1.900  0.0000  0.0000  0.0000
    1GR    C316  316   2.481   2.088   1.900  0.0000  0.0000  0.0000
    1GR    C317  317   2.127   2.210   1.900  0.0000  0.0000  0.0000
    1GR    C318  318   2.269   2.210   1.900  0.0000  0.0000  0.0000
    1GR    C319  319   2.340   2.333   1.900  0.0000  0.0000  0.0000
    1GR    C320  320   2.481   2.333   1.900  0.0000  0.0000  0.0000
    1GR    C321  321   2.127   2.456   1.900  0.0000  0.0000  0.0000
    1GR    C322  322   2.269   2.456   1.900  0.0000  0.0000  0.0000
    1GR    C323  323   2.340   2.579   1.900  0.0000  0.0000  0.0000
    1GR    C324  324   2.481   2.579   1.900  0.0000  0.0000  0.0000
    1GR    C325  325   2.127   2.702   1.900  0.0000  0.0000  0.0000
    1GR    C326  326   2.269   2.702   1.900  0.0000  0.0000  0.0000
    1GR    C327  327   2.340   2.824   1.900  0.0000  0.0000  0.0000
    1GR    C328  328   2.481   2.824   1.900  0.0000  0.0000  0.0000
    1GR    C329  329   2.127   2.947   1.900  0.0000  0.0000  0.0000
    1GR    C330  330   2.269   2.947   1.900  0.0000  0.0000  0.0000
    1GR    C331  331   2.340   3.070   1.900  0.0000  0.0000  0.0000
    1GR    C332  332   2.481   3.070   1.900  0.0000  0.0000  0.0000
    1GR    C333  333   2.127   3.193   1.900  0.0000  0.0000  0.0000
    1GR    C334  334   2.269   3.193   1.900  0.0000  0.0000  0.0000
    1GR    C335  335   2.340   3.316   1.900  0.0000  0.0000  0.0000
    1GR    C336  336   2.481   3.316   1.900  0.0000  0.0000  0.0000
    1GR    C337  337   2.552   0.000   1.900  0.0000  0.0000  0.0000
    1GR    C338  338   2.694   0.000   1.900  0.0000  0.0000  0.0000
    1GR    C339  339   2.765   0.123   1.900  0.0000  0.0000  0.0000
    1GR    C340  340   2.907   0.123   1.900  0.0000  0.0000  0.0000
    1GR    C341  341   2.552   0.246   1.900  0.0000  0.0000  0.0000
    1GR    C342  342   2.694   0.246   1.900  0.0000  0.0000  0.0000
    1GR    C343  343   2.765   0.368   1.900  0.0000  0.0000  0.0000
    1GR    C344  344   2.907   0.368   1.900  0.0000  0.0000  0.0000
    1GR    C345  345   2.552   0.491   1.900  0.0000  0.0000  0.0000
    1GR    C346  346   2.694   0.491   1.900  0.0000  0.0000  0.0000
    1GR    C347  347   2.765   0.614   1.900  0.0000  0.0000  0.0000
    1GR    C348  348   2.907   0.614   1.900  0.0000  0.0000  0.0000
    1GR    C349  349   2.552   0.737   1.900  0.0000  0.0000  0.0000
    1GR    C350  350   2.694   0.737   1.900  0.0000  0.0000  0.0000
    1GR    C351  351   2.765   0.860   1.900  0.0000  0.0000  0.0000
    1GR    C352  352   2.907   0.860   1.900  0.0000  0.0000  0.0000
    1GR    C353  353   2.552   0.982   1.900  0.0000  0.0000  0.0000
    1GR    C354  354   2.694   0.982   1.900  0.0000  0.0000  0.0000
    1GR    C355  355   2.765   1.105   1.900  0.0000  0.0000  0.0000
    1GR    C356  356   2.907   1.105   1.900  0.0000  0.0000  0.0000
    1GR    C357  357   2.552   1.228   1.900  0.0000  0.0000  0.0000
    1GR    C358  358   2.694   1.228   1.900  0.0000  0.0000  0.0000
    1GR    C359  359   2.765   1.351   1.900  0.0000  0.0000  0.0000
    1GR    C360  360   2.907   1.351   1.900  0.0000  0.0000  0.0000
    1GR    C361  361   2.552   1.474   1.900  0.0000  0.0000  0.0000
    1GR    C362  362   2.694   1.474   1.900  0.0000  0.0000  0.0000
    1GR    C363  363   2.765   1.596   1.900  0.0000  0.0000  0.0000
    1GR    C364  364   2.907   1.596   1.900  0.0000  0.0000  0.0000
    1GR    C365  365   2.552   1.719   1.900  0.0000  0.0000  0.0000
    1GR    C366  366   2.694   1.719   1.900  0.0000  0.0000  0.0000
    1GR    C367  367   2.765   1.842   1.900  0.0000  0.0000  0.0000
    1GR    C368  368   2.907   1.842   1.900  0.0000  0.0000  0.0000
    1GR    C369  369   2.552   1.965   1.900  0.0000  0.0000  0.0000
    1GR    C370  370   2.694   1.965   1.900  0.0000  0.0000  0.0000
    1GR    C371  371   2.765   2.088   1.900  0.0000  0.0000  0.0000
    1GR    C372  372   2.907   2.088   1.900  0.0000  0.0000  0.0000
    1GR    C373  373   2.552   2.210   1.900  0.0000  0.0000  0.0000
    1GR    C374  374   2.694   2.210   1.900  0.0000  0.0000  0.0000
    1GR    C375  375   2.765   2.333   1.900  0.0000  0.0000  0.0000
    1GR    C376  376   2.907   2.333   1.900  0.0000  0.0000  0.0000
    1GR    C377  377   2.552   2.456   1.900  0.0000  0.0000  0.0000
    1GR    C378  378   2.694   2.456   1.900  0.0000  0.0000  0.0000
    1GR    C379  379   2.765   2.579   1.900  0.0000  0.0000  0.0000
    1GR    C380  380   2.907   2.579   1.900  0.0000  0.0000  0.0000
    1GR    C381  381   2.552   2.702   1.900  0.0000  0.0000  0.0000
    1GR    C382  382   2.694   2.702   1.900  0.0000  0.0000  0.0000
    1GR    C383  383   2.765   2.824   1.900  0.0000  0.0000  0.0000
    1GR    C384  384   2.907   2.824   1.900  0.0000  0.0000  0.0000
    1GR    C385  385   2.552   2.947   1.900  0.0000  0.0000  0.0000
    1GR    C386  386   2.694   2.947   1.900  0.0000  0.0000  0.0000
    1GR    C387  387   2.765   3.070   1.900  0.0000  0.0000  0.0000
    1GR    C388  388   2.907   3.070   1.900  0.0000  0.0000  0.0000
    1GR    C389  389   2.552   3.193   1.900  0.0000  0.0000  0.0000
    1GR    C390  390   2.694   3.193   1.900  0.0000  0.0000  0.0000
    1GR    C391  391   2.765   3.316   1.900  0.0000  0.0000  0.0000
    1GR    C392  392   2.907   3.316   1.900  0.0000  0.0000  0.0000
    1GR    C393  393   2.978   0.000   1.900  0.0000  0.0000  0.0000
    1GR    C394  394   3.120   0.000   1.900  0.0000  0.0000  0.0000
    1GR    C395  395   3.191   0.123   1.900  0.0000  0.0000  0.0000
    1GR    C396  396   3.332   0.123   1.900  0.0000  0.0000  0.0000
    1GR    C397  397   2.978   0.246   1.900  0.0000  0.0000  0.0000
    1GR    C398  398   3.120   0.246   1.900  0.0000  0.0000  0.0000
    1GR    C399  399   3.191   0.368   1.900  0.0000  0.0000  0.0000
    1GR    C400  400   3.332   0.368   1.900  0.0000  0.0000  0.0000
    1GR    C401  401   2.978   0.491   1.900  0.0000  0.0000  0.0000
    1GR    C402  402   3.120   0.491   1.900  0.0000  0.0000  0.0000
    1GR    C403  403   3.191   0.614   1.900  0.0000  0.0000  0.0000
    1GR    C404  404   3.332   0.614   1.900  0.0000  0.0000  0.0000
    1GR    C405  405   2.978   0.737   1.900  0.0000  0.0000  0.0000
    1GR    C406  406   3.120   0.737   1.900  0.0000  0.0000  0.0000
    1GR    C407  407   3.191   0.860   1.900  0.0000  0.0000  0.0000
    1GR    C408  408   3.332   0.860   1.900  0.0000  0.0000  0.0000
    1GR    C409  409   2.978   0.982   1.900  0.0000  0.0000  0.0000
    1GR    C410  410   3.120   0.982   1.900  0.0000  0.0000  0.0000
    1GR    C411  411   3.191   1.105   1.900  0.0000  0.0000  0.0000
    1GR    C412  412   3.332   1.105   1.900  0.0000  0.0000  0.0000
    1GR    C413  413   2.978   1.228   1.900  0.0000  0.0000  0.0000
    1GR    C414  414   3.120   1.228   1.900  0.0000  0.0000  0.0000
    1GR    C415  415   3.191   1.351   1.900  0.0000  0.0000  0.0000
    1GR    C416  416   3.332   1.351   1.900  0.0000  0.0000  0.0000
    1GR    C417  417   2.978   1.474   1.900  0.0000  0.0000  0.0000
    1GR    C418  418   3.120   1.474   1.900  0.0000  0.0000  0.0000
    1GR    C419  419   3.191   1.596   1.900  0.0000  0.0000  0.0000
    1GR    C420  420   3.332   1.596   1.900  0.0000  0.0000  0.0000
    1GR    C421  421   2.978   1.719   1.900  0.0000  0.0000  0.0000
    1GR    C422  422   3.120   1.719   1.900  0.0000  0.0000  0.0000
    1GR    C423  423   3.191   1.842   1.900  0.0000  0.0000  0.0000
    1GR    C424  424   3.332   1.842   1.900  0.0000  0.0000  0.0000
    1GR    C425  425   2.978   1.965   1.900  0.0000  0.0000  0.0000
    1GR    C426  426   3.120   1.965   1.900  0.0000  0.0000  0.0000
    1GR    C427  427   3.191   2.088   1.900  0.0000  0.0000  0.0000
    1GR    C428  428   3.332   2.088   1.900  0.0000  0.0000  0.0000
    1GR    C429  429   2.978   2.210   1.900  0.0000  0.0000  0.0000
    1GR    C430  430   3.120   2.210   1.900  0.0000  0.0000  0.0000
    1GR    C431  431   3.191   2.333   1.900  0.0000  0.0000  0.0000
    1GR    C432  432   3.332   2.333   1.900  0.0000  0.0000  0.0000
    1GR    C433  433   2.978   2.456   1.900  0.0000  0.0000  0.0000
    1GR    C434  434   3.120   2.456   1.900  0.0000  0.0000  0.0000
    1GR    C435  435   3.191   2.579   1.900  0.0000  0.0000  0.0000
    1GR    C436  436   3.332   2.579   1.900  0.0000  0.0000  0.0000
    1GR    C437  437   2.978   2.702   1.900  0.0000  0.0000  0.0000
    1GR    C438  438   3.120   2.702   1.900  0.0000  0.0000  0.0000
    1GR    C439  439   3.191   2.824   1.900  0.0000  0.0000  0.0000
    1GR    C440  440   3.332   2.824   1.900  0.0000  0.0000  0.0000
    1GR    C441  441   2.978   2.947   1.900  0.0000  0.0000  0.0000
    1GR    C442  442   3.120   2.947   1.900  0.0000  0.0000  0.0000
    1GR    C443  443   3.191   3.070   1.900  0.0000  0.0000  0.0000
    1GR    C444  444   3.332   3.070   1.900  0.0000  0.0000  0.0000
    1GR    C445  445   2.978   3.193   1.900  0.0000  0.0000  0.0000
    1GR    C446  446   3.120   3.193   1.900  0.0000  0.0000  0.0000
    1GR    C447  447   3.191   3.316   1.900  0.0000  0.0000  0.0000
    1GR    C448  448   3.332   3.316   1.900  0.0000  0.0000  0.0000
    2PMMA   CX1  449   0.007   0.234   2.409 -0.0337  0.6499  0.0026
    2PMMA   CA2  450   0.088   0.348   2.466  0.1389  0.1934  0.1793
    2PMMA   CX3  451   0.204   0.364   2.370 -0.3503  0.2873 -0.1359
    2PMMA    C4  452  -0.012   0.464   2.464 -0.2793  0.3672  0.0545
    2PMMA    O5  453  -0.096   0.493   2.544  0.6787 -0.0842 -0.2699
    2PMMA   OS6  454   0.006   0.543   2.348  0.6938 -0.0533  0.3874
    2PMMA   CE7  455  -0.076   0.653   2.313 -0.2193  0.7278 -0.7193
    2PMMA   CX8  456   0.121   0.305   2.615 -0.8053 -0.3740  0.1046
    2PMMA   CA9  457   0.222   0.370   2.712 -0.2451  1.1572  0.3328
    2PMMA  CX10  458   0.360   0.345   2.647 -1.0855 -0.7104  0.2117
    2PMMA   C11  459   0.215   0.292   2.847  0.2933  0.3388 -0.0992
    2PMMA   O12  460   0.279   0.193   2.875  0.3208 -0.3882 -0.3701
    2PMMA  OS13  461   0.111   0.330   2.918 -0.0461  0.2518 -0.4841
    2PMMA  CE14  462   0.080   0.264   3.039 -0.0609 -0.2971  0.1687
    2PMMA  CX15  463   0.195   0.512   2.731 -0.1394 -0.2824  0.3915
    2PMMA  CA16  464   0.273   0.615   2.832  0.9044 -0.1751 -0.0868
    2PMMA  CX17  465   0.211   0.755   2.789  0.2567 -0.3078  0.6424
    2PMMA   C18  466   0.237   0.601   2.985 -0.2832 -0.1362  0.1245
    2PMMA   O19  467   0.175   0.681   3.048 -0.1490  0.2603  0.0358
    2PMMA  OS20  468   0.310   0.496   3.045  0.1374 -0.1515  0.2499
    2PMMA  CE21  469   0.326   0.495   3.185 -0.3923  0.2864 -0.3897
    2PMMA  CX22  470   0.422   0.621   2.799  0.6428 -0.0009  0.2686
    2PMMA  CA23  471   0.523   0.736   2.841  0.2477  0.0351 -0.5036
    2PMMA  CX24  472   0.532   0.757   2.994 -0.3744 -0.3850 -0.4971
    2PMMA   C25  473   0.509   0.860   2.750 -0.1983 -0.3208 -0.4924
    2PMMA   O26  474   0.484   0.856   2.632  0.0233  0.1735 -0.4793
    2PMMA  OS27  475   0.479   0.974   2.824 -0.3765  0.1248  0.3006
    2PMMA  CE28  476   0.419   1.084   2.761 -0.0706 -0.0560  0.5878
    2PMMA  CX29  477   0.655   0.676   2.778  0.4319 -0.2070  0.9350
    2PMMA  HC30  478  -0.094   0.231   2.453 -1.0889 -0.0672 -2.3754
    2PMMA  HC31  479  -0.018   0.244   2.303  2.2594  0.2735 -0.5916
    2PMMA  HC32  480   0.056   0.136   2.409 -0.7320  0.2871 -1.4261
    2PMMA  HC33  481   0.257   0.457   2.395  0.6956 -0.6103  0.9879
    2PMMA  HC34  482   0.189   0.369   2.261 -3.1404 -2.4442  0.0350
    2PMMA  HC35  483   0.273   0.281   2.384  1.4719  2.1064  2.1649
    2PMMA  H136  484  -0.073   0.730   2.391 -0.3920 -1.2678  1.3403
    2PMMA  H137  485  -0.174   0.610   2.296 -0.1169 -0.4254  1.3866
    2PMMA  H138  486  -0.026   0.688   2.223 -0.3207 -1.4435 -1.6448
    2PMMA  HC39  487   0.022   0.305   2.661 -1.2843 -1.4238 -0.9178
    2PMMA  HC40  488   0.146   0.198   2.626 -0.6313 -0.1913  1.5535
    2PMMA  HC41  489   0.375   0.245   2.606 -1.2055 -0.0546 -1.4387
    2PMMA  HC42  490   0.390   0.424   2.578 -0.8084 -0.7860  0.2427
    2PMMA  HC43  491   0.438   0.336   2.724  0.1670 -1.6295 -1.1228
    2PMMA  H144  492   0.174   0.253   3.093 -0.0355  1.1864  0.4436
    2PMMA  H145  493   0.041   0.162   3.027  1.9059 -1.1927  1.1575
    2PMMA  H146  494   0.013   0.330   3.094 -1.6907 -1.1249 -0.7718
    2PMMA  HC47  495   0.200   0.548   2.628  0.4078 -0.6007  0.3059
    2PMMA  HC48  496   0.089   0.523   2.758 -0.5358 -1.5462 -0.6302
    2PMMA  HC49  497   0.226   0.790   2.686  0.6134  0.5887  0.9947
    2PMMA  HC50  498   0.239   0.836   2.857  1.1550 -0.2511  0.2231
    2PMMA  HC51  499   0.104   0.737   2.802 -0.2362  1.3981 -0.9223
    2PMMA  H152  500   0.231   0.476   3.236 -0.3863  1.5321  0.0943
    2PMMA  H153  501   0.374   0.583   3.228 -0.1494 -0.0295 -0.0110
    2PMMA  H154  502   0.393   0.410   3.199  1.3759  1.3771 -2.0694
    2PMMA  HC55  503   0.456   0.526   2.842 -0.8366 -0.0832  1.2736
    2PMMA  HC56  504   0.428   0.608   2.690 -3.1896 -1.3320  0.1626
    2PMMA  HC57  505   0.533   0.661   3.045  0.9143  0.6080  1.3784
    2PMMA  HC58  506   0.617   0.820   3.022 -0.3918  0.0429 -1.3809
    2PMMA  HC59  507   0.445   0.810   3.035 -0.1969 -0.7395  0.3347
    2PMMA  H160  508   0.439   1.172   2.821 -0.7093 -0.0227  0.7511
    2PMMA  H161  509   0.312   1.064   2.757  0.3088 -2.4423  1.5749
    2PMMA  H162  510   0.462   1.096   2.661 -0.7242 -0.4040  0.2565
    2PMMA  HC63  511   0.745   0.729   2.810  2.4762 -2.3491 -1.0771
    2PMMA  HC64  512   0.676   0.571   2.800 -1.8430 -1.0306 -0.6006
    2PMMA  HC65  513   0.645   0.681   2.669 -0.6514 -0.1280  1.0309
    3HFI     O1  514   3.310   3.281   3.578  0.2672 -0.2946  0.2888
    3HFI     C1  515   3.310   3.242   3.714  0.6129 -0.3336 -0.0238
    3HFI     C2  516   3.253   3.096   3.717  0.2747 -0.0044 -0.4988
    3HFI     F1  517   3.140   3.090   3.652 -0.2887 -0.1910  0.1307
    3HFI     F2  518   3.226   3.041   3.843 -0.2240 -0.3154  0.4505
    3HFI     F3  519   3.346   3.012   3.651  0.2504 -0.8741  0.0536
    3HFI     C3  520   3.212   3.333   3.801  0.1043  0.2997 -0.1606
    3HFI     F4  521   3.213   3.296   3.928 -0.1844  0.2804 -0.0139
    3HFI     F5  522   3.085   3.347   3.752  0.0832 -0.2259  0.4056
    3HFI     F6  523   3.272   3.458   3.801  0.2352 -0.3286  0.1504
    3HFI     H1  524   3.398   3.316   3.558  0.6627 -0.9711  0.8296
    3HFI     H2  525   3.415   3.234   3.747  0.5596 -0.4254  0.1249
    4HFI     O1  526   2.042   1.023   0.442  0.4774  0.6618 -0.0771
    4HFI     C1  527   1.962   1.013   0.563  0.4288  0.0713  0.3442
    4HFI     C2  528   2.033   0.920   0.662 -0.0831 -0.6592 -0.5939
    4HFI     F1  529   2.164   0.937   0.667 -0.3477  0.5682 -0.5274
    4HFI     F2  530   2.020   0.790   0.622 -0.2936 -0.0059 -1.0739
    4HFI     F3  531   1.976   0.939   0.788  0.4589 -0.2605 -0.1455
    4HFI     C3  532   1.816   0.968   0.533 -0.4580  0.2697 -0.1346
    4HFI     F4  533   1.735   0.951   0.641 -0.2479  0.2050 -0.1630
    4HFI     F5  534   1.808   0.862   0.448  0.4346  0.3834  0.3812
    4HFI     F6  535   1.761   1.061   0.455  0.2279 -0.1637  0.0372
    4HFI     H1  536   1.987   1.059   0.370  1.6711  1.2646 -0.6933
    4HFI     H2  537   1.951   1.112   0.610 -0.8210 -0.5928  1.4763
    5HFI     O1  538   1.078   1.773   0.625  0.4192 -0.2436 -0.1102
    5HFI     C1  539   0.963   1.792   0.535  0.0005  0.5645 -1.3723
    5HFI     C2  540   0.974   1.722   0.391 -0.2038  0.2725 -0.5001
    5HFI     F1  541   1.078   1.770   0.324 -0.5752 -0.2253 -0.2976
    5HFI     F2  542   0.859   1.737   0.326  0.2102 -0.6134  0.1605
    5HFI     F3  543   0.990   1.588   0.402 -0.1559  0.0878 -0.4647
    5HFI     C3  544   0.913   1.945   0.531  0.5797  0.6328 -0.1464
    5HFI     F4  545   0.812   1.962   0.442  0.3412  0.1033  0.2484
    5HFI     F5  546   1.015   2.031   0.497 -0.2163  0.0979 -0.2826
    5HFI     F6  547   0.872   1.978   0.652 -0.0222 -0.4287 -0.3603
    5HFI     H1  548   1.159   1.805   0.583  0.5184 -0.7892 -0.3477
    5HFI     H2  549   0.875   1.736   0.567  0.6761 -0.4187 -1.2126
    6HFI     O1  550   1.133   0.908   1.182  0.6394 -0.5269  0.7659
    6HFI     C1  551   1.131   0.838   1.054 -0.3635  0.4003  0.1593
    6HFI     C2  552   0.997   0.885   0.988 -0.9767  0.0485  0.1347
    6HFI     F1  553   1.001   1.017   0.944 -0.4061 -0.1842 -0.2071
    6HFI     F2  554   0.902   0.881   1.086 -0.0103  0.0051  0.0151
    6HFI     F3  555   0.957   0.799   0.884 -0.1447  0.2785  0.6244
    6HFI     C3  556   1.154   0.681   1.068 -0.5502 -0.7775 -0.0450
    6HFI     F4  557   1.137   0.616   0.951  0.2500 -0.1435  0.2954
    6HFI     F5  558   1.070   0.629   1.158  0.1687 -0.5719 -0.8517
    6HFI     F6  559   1.276   0.645   1.117  0.0408 -0.3519 -0.1805
    6HFI     H1  560   1.052   0.881   1.228  2.2185 -2.9864  2.2563
    6HFI     H2  561   1.206   0.877   0.984  0.8839 -0.8371  0.7921
    7HFI     O1  562   3.033   2.406   0.994  0.4094 -0.0993  0.1360
    7HFI     C1  563   3.079   2.489   0.879 -0.1906 -0.5715  0.3071
    7HFI     C2  564   3.104   2.626   0.933 -0.1592 -0.0887 -0.1919
    7HFI     F1  565   3.182   2.692   0.846  0.1581  0.7251  0.2948
    7HFI     F2  566   3.170   2.630   1.047  0.1561  0.3850 -0.0785
    7HFI     F3  567   2.988   2.696   0.955  0.6300 -0.0166 -0.2266
    7HFI     C3  568   2.982   2.477   0.758 -0.2471  0.1573 -0.1462
    7HFI     F4  569   3.013   2.560   0.651 -0.8001 -0.4028 -0.4188
    7HFI     F5  570   2.856   2.501   0.791  0.4018 -0.0240 -0.2662
    7HFI     F6  571   2.987   2.344   0.717  0.1168 -0.2117  0.0889
    7HFI     H1  572   3.079   2.416   1.079 -1.0010  2.4654  0.6340
    7HFI     H2  573   3.172   2.452   0.835  0.5292  1.7420 -0.1975
    8HFI     O1  574   0.985   2.026   1.188 -0.3102 -0.0192 -0.1667
    8HFI     C1  575   1.018   1.994   1.043  1.0522 -0.0165 -0.0300
    8HFI     C2  576   1.105   1.861   1.033  0.0140 -0.0569  0.0507
    8HFI     F1  577   1.138   1.826   0.907 -0.2387  0.3696 -0.1689
    8HFI     F2  578   1.027   1.761   1.082  0.2262 -0.4403  0.0781
    8HFI     F3  579   1.223   1.860   1.107  0.1699 -0.1844  0.5199
    8HFI     C3  580   1.096   2.112   0.979 -0.3462  0.6687  0.0502
    8HFI     F4  581   1.028   2.226   0.997 -0.0675 -0.2360  0.0712
    8HFI     F5  582   1.120   2.099   0.847 -0.1682  0.4540 -0.1061
    8HFI     F6  583   1.213   2.139   1.038  0.3131  0.3084  0.2431
    8HFI     H1  584   1.066   2.032   1.242 -0.7254 -2.5372  0.7905
    8HFI     H2  585   0.920   1.990   0.996  0.9132  0.9572  0.1731
    9HFI     O1  586   0.016   0.684   1.378  0.0564  0.3768 -0.2236
    9HFI     C1  587  -0.080   0.644   1.475  0.0415 -0.6230  0.3330
    9HFI     C2  588  -0.131   0.502   1.453 -0.0130  0.1454 -0.2715
    9HFI     F1  589  -0.194   0.454   1.557  0.3925  0.2247 -0.2317
    9HFI     F2  590  -0.029   0.415   1.430  0.2163 -0.3212  0.1833
    9HFI     F3  591  -0.221   0.485   1.353  0.2917  0.3630  0.1407
    9HFI     C3  592  -0.191   0.751   1.494  0.2837  0.4724 -0.4631
    9HFI     F4  593  -0.143   0.871   1.526 -0.6438 -0.2179  0.0134
    9HFI     F5  594  -0.281   0.718   1.593  0.1946  0.5392 -0.0739
    9HFI     F6  595  -0.260   0.761   1.380 -0.0644 -0.0986  0.0917
    9HFI     H1  596   0.070   0.607   1.353  0.2523  1.5083 -3.5943
    9HFI     H2  597  -0.033   0.649   1.574 -0.4973 -2.6321  0.7048
   10HFI     O1  598   2.023   2.912   3.666  0.4582  0.3750 -0.0535
   10HFI     C1  599   1.935   2.812   3.727 -0.0276 -0.8970 -0.5563
   10HFI     C2  600   1.819   2.877   3.811 -0.0647 -0.3496  0.5496
   10HFI     F1  601   1.765   2.973   3.734 -0.2218  0.1469 -0.0763
   10HFI     F2  602   1.862   2.924   3.931 -0.3673  0.2693  0.4144
   10HFI     F3  603   1.721   2.782   3.835  0.0855  0.4397  0.1370
   10HFI     C3  604   2.019   2.721   3.822 -0.0824  0.1997  0.0927
   10HFI     F4  605   2.093   2.788   3.914 -0.2435  0.0290  0.1466
   10HFI     F5  606   2.103   2.640   3.746 -0.0117 -0.1121 -0.2883
   10HFI     F6  607   1.944   2.638   3.898  0.2285 -0.4241  0.1856
   10HFI     H1  608   2.076   2.957   3.734  0.1190 -1.7515  1.6697
   10HFI     H2  609   1.894   2.751   3.646 -1.8919  0.6226 -0.7905
   11HFI     O1  610   3.283   0.275   0.610 -0.0397  0.2427  0.0109
   11HFI     C1  611   3.225   0.175   0.518  0.0599  0.4218  0.1621
   11HFI     C2  612   3.126   0.080   0.597  0.1541  0.2906 -0.6602
   11HFI     F1  613   3.079  -0.026   0.524  0.2247  0.1110  0.5393
   11HFI     F2  614   3.009   0.149   0.638  0.2811  0.5226 -0.3930
   11HFI     F3  615   3.188   0.026   0.709 -0.0458 -0.5041 -0.5147
   11HFI     C3  616   3.333   0.096   0.443 -0.4481 -0.5296 -0.4518
   11HFI     F4  617   3.288   0.038   0.330  0.6516  0.3845  0.2483
   11HFI     F5  618   3.368  -0.014   0.515  0.2226  0.0324  0.0590
   11HFI     F6  619   3.442   0.167   0.426 -0.0439  0.1389  0.2735
   11HFI     H1  620   3.379   0.279   0.598 -0.1116 -1.6058 -1.2536
   11HFI     H2  621   3.166   0.227   0.442  1.1096  0.0417 -0.9216
   12HFI     O1  622   3.227   2.093   0.795 -0.2558  0.1692  0.3692
   12HFI     C1  623   3.148   2.013   0.691  0.4402 -0.3745 -0.0510
   12HFI     C2  624   3.057   1.911   0.765  0.4179 -1.1116  0.1844
   12HFI     F1  625   3.125   1.816   0.835 -0.3893  0.2228 -0.0798
   12HFI     F2  626   2.966   1.859   0.682  0.2935 -0.0386 -0.1116
   12HFI     F3  627   2.987   1.977   0.858  0.0445  0.5234 -0.3256
   12HFI     C3  628   3.249   1.944   0.590 -0.0451 -0.3138  0.0731
   12HFI     F4  629   3.348   1.866   0.648 -0.6864  0.3278 -0.7899
   12HFI     F5  630   3.319   2.039   0.518  0.2229 -0.3330 -0.0674
   12HFI     F6  631   3.175   1.868   0.504 -0.0841  0.6242  0.1289
   12HFI     H1  632   3.169   2.120   0.869  1.5641 -0.9973  2.2636
   12HFI     H2  633   3.079   2.084   0.644  0.1968  0.0496  0.9291
   13HFI     O1  634   0.575   0.275   1.174 -0.0111  0.6697  0.3184
   13HFI     C1  635   0.614   0.223   1.038  0.1109 -0.7847  0.3015
   13HFI     C2  636   0.585   0.335   0.931 -0.8768 -0.2228  0.5691
   13HFI     F1  637   0.682   0.435   0.945  0.5851  0.1141  0.3461
   13HFI     F2  638   0.469   0.386   0.949 -0.6001 -0.5918  0.5571
   13HFI     F3  639   0.594   0.300   0.799 -0.2914  0.0661  0.2335
   13HFI     C3  640   0.560   0.077   1.008  0.0321 -0.3084 -0.2486
   13HFI     F4  641   0.433   0.083   0.971  0.3484 -0.0496 -0.0840
   13HFI     F5  642   0.564   0.011   1.127  0.2669 -0.6830 -0.1090
   13HFI     F6  643   0.630   0.005   0.920  0.3189 -0.0344  0.0202
   13HFI     H1  644   0.637   0.344   1.204 -0.6686  1.9430 -1.1494
   13HFI     H2  645   0.723   0.214   1.034  0.3322  0.0430  3.1895
   14HFI     O1  646   1.177   0.153   0.603  0.0521  0.5000  0.0592
   14HFI     C1  647   1.142   0.014   0.581  0.1413  0.4428 -0.6966
   14HFI     C2  648   1.251  -0.049   0.491 -0.3708 -0.8021  0.6535
   14HFI     F1  649   1.377  -0.014   0.541 -0.4196 -0.5548  0.1331
   14HFI     F2  650   1.233  -0.010   0.363  0.0042  0.0579  0.2576
   14HFI     F3  651   1.254  -0.181   0.502 -0.4036  0.4169 -0.4979
   14HFI     C3  652   1.002  -0.005   0.510  0.1566  0.6386 -0.0739
   14HFI     F4  653   0.978  -0.125   0.464  0.1973 -0.5048  0.5595
   14HFI     F5  654   0.990   0.080   0.405 -0.4596  0.5491 -0.1284
   14HFI     F6  655   0.898   0.025   0.592  0.2770  0.5703  0.1040
   14HFI     H1  656   1.097   0.205   0.618  0.6432  1.5996 -0.5492
   14HFI     H2  657   1.143  -0.043   0.674  1.9470  0.8029 -0.4846
   15HFI     O1  658   1.105   0.513   1.430 -0.5431 -0.4476 -0.1784
   15HFI     C1  659   0.983   0.524   1.510 -0.0807  0.3294  0.0351
   15HFI     C2  660   0.902   0.396   1.510  0.1460  0.5111 -0.1234
   15HFI     F1  661   0.841   0.369   1.393 -0.3564  0.0779  0.2482
   15HFI     F2  662   0.806   0.406   1.606 -0.0151  0.1415 -0.1703
   15HFI     F3  663   0.985   0.290   1.537  0.2099  0.4361 -0.0509
   15HFI     C3  664   0.913   0.653   1.475 -0.3179  0.3766  0.2612
   15HFI     F4  665   0.871   0.640   1.340 -0.1409 -0.1326  0.2654
   15HFI     F5  666   0.993   0.757   1.490 -0.6848  0.7458 -0.1924
   15HFI     F6  667   0.801   0.678   1.547 -0.5226 -0.2529  0.6114
   15HFI     H1  668   1.085   0.502   1.336  0.7772  0.3469 -0.5661
   15HFI     H2  669   1.021   0.543   1.612  1.5215 -0.1463 -0.4500
   16HFI     O1  670   3.280   2.822   0.404  0.5801  0.4493 -0.3838
   16HFI     C1  671   3.153   2.850   0.478  0.1369  0.2494 -0.3720
   16HFI     C2  672   3.036   2.827   0.387  0.0718 -0.5133 -0.8416
   16HFI     F1  673   2.918   2.854   0.447 -0.2271 -0.2626 -0.4604
   16HFI     F2  674   3.029   2.698   0.352  0.3315  0.3015 -0.0271
   16HFI     F3  675   3.040   2.904   0.274 -0.1416  0.3208  0.5366
   16HFI     C3  676   3.165   2.992   0.538  0.2612  0.0611 -0.6121
   16HFI     F4  677   3.268   3.011   0.624  0.3111  0.6674  0.4909
   16HFI     F5  678   3.060   3.020   0.613 -0.1395 -0.3425 -0.1707
   16HFI     F6  679   3.172   3.093   0.443  0.1938 -0.0506  0.1671
   16HFI     H1  680   3.280   2.872   0.320  1.3463  0.6981 -0.2450
   16HFI     H2  681   3.136   2.776   0.557 -2.1245  0.2570 -0.8348
   17HFI     O1  682   1.275   2.214   1.316  0.0509  0.3580  0.3406
   17HFI     C1  683   1.282   2.349   1.376  0.3965 -0.3113 -0.4882
   17HFI     C2  684   1.429   2.404   1.357  0.1525  0.6589  0.0141
   17HFI     F1  685   1.523   2.323   1.407 -0.3714 -0.1227 -0.0525
   17HFI     F2  686   1.436   2.516   1.427  0.0801 -0.2287  0.1088
   17HFI     F3  687   1.456   2.448   1.233  0.3058 -0.0611 -0.3372
   17HFI     C3  688   1.214   2.344   1.512 -0.7959  0.3369 -0.4703
   17HFI     F4  689   1.275   2.263   1.600 -0.1868 -0.3171 -0.0405
   17HFI     F5  690   1.093   2.295   1.493 -0.1338 -0.3991 -0.2465
   17HFI     F6  691   1.193   2.458   1.568  0.0832  0.1498 -0.3896
   17HFI     H1  692   1.312   2.153   1.383  0.5767 -0.1151 -0.3775
   17HFI     H2  693   1.209   2.410   1.322 -0.3403 -0.4112  0.3852
   18HFI     O1  694   0.173   0.295   0.178  0.2430 -0.4851 -0.4434
   18HFI     C1  695   0.124   0.202   0.075 -0.5126 -0.6988  0.2196
   18HFI     C2  696   0.189   0.057   0.091  0.1616 -0.1175 -0.9221
   18HFI     F1  697   0.149  -0.028  -0.004 -0.0428  0.5346  0.4065
   18HFI     F2  698   0.160   0.001   0.212 -0.5232  0.1111 -0.1767
   18HFI     F3  699   0.325   0.062   0.076 -0.6156 -0.1194 -1.0813
   18HFI     C3  700   0.136   0.261  -0.071  0.4755  0.1841  0.1284
   18HFI     F4  701   0.102   0.167  -0.157  0.4581 -0.3362  0.2220
   18HFI     F5  702   0.262   0.295  -0.109 -0.3852 -0.6827  0.5328
   18HFI     F6  703   0.053   0.363  -0.083 -0.1017  0.1101 -0.4403
   18HFI     H1  704   0.115   0.374   0.175  2.3717  1.0735 -2.8669
   18HFI     H2  705   0.019   0.180   0.095 -0.1332 -1.7317  1.0844
   19HFI     O1  706   1.120   2.594   0.316  0.1528  0.7293  0.1295
   19HFI     C1  707   1.076   2.535   0.447 -0.1392  0.3597 -0.6685
   19HFI     C2  708   1.186   2.533   0.550 -0.4763 -0.5192  0.2195
   19HFI     F1  709   1.239   2.650   0.559  0.0856 -0.3420 -0.1713
   19HFI     F2  710   1.284   2.449   0.499  0.5173  0.2874  0.3450
   19HFI     F3  711   1.142   2.496   0.669  0.6329  0.6674  0.0725
   19HFI     C3  712   0.997   2.404   0.425 -0.2616  0.1706 -0.2809
   19HFI     F4  713   0.904   2.428   0.330 -0.0851  0.0309  0.1166
   19HFI     F5  714   0.938   2.360   0.545 -0.0191 -0.2090 -0.2530
   19HFI     F6  715   1.072   2.296   0.387 -0.1397 -0.1455  0.1368
   19HFI     H1  716   1.100   2.539   0.238  2.1966 -0.5203  0.4740
   19HFI     H2  717   1.000   2.605   0.484 -0.6352 -0.4267 -0.1950
   20HFI     O1  718   3.023   0.018   1.344 -0.6738 -0.2093  0.4340
   20HFI     C1  719   3.130  -0.068   1.395 -0.2337 -0.2124  0.1587
   20HFI     C2  720   3.089  -0.125   1.533  0.6119  0.5779  0.4442
   20HFI     F1  721   2.985  -0.209   1.510 -0.3917  0.3083  0.1000
   20HFI     F2  722   3.058  -0.024   1.615  0.3569 -0.3180 -0.2858
   20HFI     F3  723   3.180  -0.203   1.585 -0.3540 -0.1814 -0.1789
   20HFI     C3  724   3.263   0.014   1.405  0.2033 -0.4048  0.6253
   20HFI     F4  725   3.261   0.115   1.502 -0.0998  0.2491 -0.0692
   20HFI     F5  726   3.281   0.070   1.286  0.5463 -0.1807  0.1812
   20HFI     F6  727   3.370  -0.066   1.428  0.5141  0.1278 -0.2358
   20HFI     H1  728   3.033   0.107   1.380  0.4392  0.1260 -0.6756
   20HFI     H2  729   3.161  -0.147   1.326 -1.6265  0.8877 -1.7836
   21HFI     O1  730   0.428   1.739   3.406 -0.0031  0.9106 -0.0837
   21HFI     C1  731   0.313   1.647   3.401  0.8989  0.0072 -0.6913
   21HFI     C2  732   0.336   1.512   3.330 -0.4324  0.6883  0.6232
   21HFI     F1  733   0.437   1.442   3.389  0.1904 -0.2416  0.4416
   21HFI     F2  734   0.365   1.527   3.197  0.2710  0.0134  0.4298
   21HFI     F3  735   0.231   1.430   3.343  0.0099 -0.4245  0.5160
   21HFI     C3  736   0.181   1.713   3.347  0.1500 -0.2064  0.7523
   21HFI     F4  737   0.178   1.839   3.393 -0.2978 -0.0189 -0.4411
   21HFI     F5  738   0.082   1.638   3.396  0.1497 -0.1468  0.2390
   21HFI     F6  739   0.175   1.718   3.214 -0.3074  0.8832 -0.0276
   21HFI     H1  740   0.402   1.831   3.424  2.9953  1.4764  1.8095
   21HFI     H2  741   0.287   1.616   3.503 -1.6854  1.5964 -0.8342
   22HFI     O1  742   2.884   1.791   3.188  0.1306 -0.4282 -0.2763
   22HFI     C1  743   3.002   1.706   3.160  0.6380  0.0049  0.2805
   22HFI     C2  744   3.023   1.602   3.276  0.0798  0.3264 -0.4310
   22HFI     F1  745   3.151   1.574   3.286 -0.5022  0.4158 -0.0940
   22HFI     F2  746   2.952   1.491   3.259  0.1171 -0.0022  0.0437
   22HFI     F3  747   2.989   1.654   3.396 -0.2866  0.0326 -0.3992
   22HFI     C3  748   3.122   1.788   3.125 -0.2349 -0.0794  0.3541
   22HFI     F4  749   3.219   1.720   3.067 -0.5028 -0.0614 -0.0615
   22HFI     F5  750   3.170   1.837   3.239  0.2467 -0.2244  0.0362
   22HFI     F6  751   3.090   1.887   3.039 -0.3800  0.2159 -0.4736
   22HFI     H1  752   2.892   1.861   3.121  1.1400 -0.9437 -0.7102
   22HFI     H2  753   2.983   1.648   3.069  1.2390 -0.0027  0.1555
   23HFI     O1  754   1.791   2.713   0.322  0.1427 -0.1387 -0.4578
   23HFI     C1  755   1.770   2.589   0.396  0.4038  0.3450  0.2952
   23HFI     C2  756   1.613   2.569   0.421  0.8443 -0.0493 -0.4214
   23HFI     F1  757   1.553   2.538   0.305 -0.4362  0.3240 -0.4222
   23HFI     F2  758   1.567   2.691   0.466  0.4301 -0.4168 -0.4511
   23HFI     F3  759   1.583   2.465   0.502 -0.0792 -0.1350  0.9698
   23HFI     C3  760   1.855   2.587   0.521  1.0973 -0.0630  0.4103
   23HFI     F4  761   1.839   2.474   0.585 -0.3984 -0.2060 -0.3453
   23HFI     F5  762   1.813   2.685   0.607  0.0163  0.7590  0.4519
   23HFI     F6  763   1.988   2.602   0.496 -0.5709  0.0234 -0.0317
   23HFI     H1  764   1.710   2.765   0.308 -0.3707 -0.9979 -0.7768
   23HFI     H2  765   1.799   2.499   0.340 -2.6609  0.3743 -1.4343
   24HFI     O1  766   2.190   1.186   1.555 -0.4427 -0.0744 -0.0941
   24HFI     C1  767   2.321   1.147   1.508 -0.5795  0.0586  0.8298
   24HFI     C2  768   2.375   1.230   1.388 -0.0376 -0.3616  0.0379
   24HFI     F1  769   2.494   1.190   1.336 -0.0982  0.4090 -0.1657
   24HFI     F2  770   2.391   1.358   1.417  0.3408 -0.3577  0.6918
   24HFI     F3  771   2.289   1.220   1.282 -0.0417 -0.2772 -0.3625
   24HFI     C3  772   2.334   0.998   1.485  0.7261 -0.3082 -0.3958
   24HFI     F4  773   2.272   0.956   1.373  0.0470  0.6000  0.5514
   24HFI     F5  774   2.286   0.913   1.576  0.2775  0.1007 -0.1452
   24HFI     F6  775   2.464   0.970   1.472  0.5324  0.4475  0.2724
   24HFI     H1  776   2.140   1.202   1.474 -1.0674  0.6923  0.4335
   24HFI     H2  777   2.394   1.175   1.585  0.0578  1.6971 -0.3393
   25HFI     O1  778   1.199   0.182   0.072 -0.6095  0.0771 -0.7377
   25HFI     C1  779   1.122   0.243  -0.031 -0.0619  0.1705  0.2315
   25HFI     C2  780   0.972   0.209  -0.006 -0.3840  0.4421 -0.3160
   25HFI     F1  781   0.893   0.301  -0.054  0.3083 -0.3139 -0.0438
   25HFI     F2  782   0.942   0.210   0.125  0.4478  0.2463  0.0674
   25HFI     F3  783   0.939   0.085  -0.054 -0.4481  1.0105 -0.2601
   25HFI     C3  784   1.161   0.230  -0.177 -0.4122 -0.2850  0.4154
   25HFI     F4  785   1.078   0.292  -0.261 -0.1617 -0.3548  0.3624
   25HFI     F5  786   1.173   0.101  -0.211 -0.5165  0.4520 -0.4153
   25HFI     F6  787   1.276   0.292  -0.190 -0.1577  0.2630 -0.3057
   25HFI     H1  788   1.129   0.144   0.128 -0.1842 -0.7294 -0.7357
   25HFI     H2  789   1.127   0.352  -0.019  1.5725  0.5361 -3.1474
   26HFI     O1  790   1.686   2.790   3.483  0.7408  0.8940  0.2769
   26HFI     C1  791   1.594   2.689   3.428  0.5643  0.4834  0.3038
   26HFI     C2  792   1.617   2.680   3.281  0.5396  0.2554  0.7225
   26HFI     F1  793   1.564   2.564   3.233  0.0376 -0.0743  0.5391
   26HFI     F2  794   1.753   2.678   3.254  0.3608 -0.5063  0.2070
   26HFI     F3  795   1.569   2.781   3.215 -0.2414 -0.0750  0.5137
   26HFI     C3  796   1.446   2.742   3.459  1.0000 -0.1897  0.1458
   26HFI     F4  797   1.425   2.868   3.418 -0.0173  0.3067  0.5448
   26HFI     F5  798   1.431   2.739   3.597  0.0712 -0.0713  0.2582
   26HFI     F6  799   1.346   2.669   3.403 -0.6746 -0.1019  0.4529
   26HFI     H1  800   1.668   2.867   3.428 -0.7420  0.5469  0.2476
   26HFI     H2  801   1.611   2.594   3.479 -0.1472  0.1531 -0.0697
   27HFI     O1  802   0.572   1.593   1.002  0.0731 -0.1590  0.2529
   27HFI     C1  803   0.559   1.726   0.944 -0.5123  0.3390 -0.2521
   27HFI     C2  804   0.674   1.765   0.838 -0.0622 -0.1503 -0.1034
   27HFI     F1  805   0.789   1.793   0.905  0.0411 -0.4615  0.1529
   27HFI     F2  806   0.640   1.879   0.770 -0.0755  0.2821 -0.1461
   27HFI     F3  807   0.702   1.662   0.753  0.3379 -0.1296 -0.0112
   27HFI     C3  808   0.541   1.834   1.057 -0.7627 -0.5114  0.6424
   27HFI     F4  809   0.421   1.825   1.122  0.3245 -0.3607 -0.2630
   27HFI     F5  810   0.522   1.955   0.999 -0.1861  0.1473  0.5164
   27HFI     F6  811   0.635   1.845   1.148 -0.0305  0.2080 -0.5517
   27HFI     H1  812   0.488   1.575   1.047 -0.3786  0.9326 -0.1263
   27HFI     H2  813   0.468   1.722   0.882  0.6279  2.6531 -2.1270
   28HFI     O1  814   1.331   2.311   0.241 -0.3312  0.1655 -0.2506
   28HFI     C1  815   1.268   2.221   0.139  0.1897 -0.5756  0.2399
   28HFI     C2  816   1.361   2.100   0.099 -0.0212 -0.5936  0.4347
   28HFI     F1  817   1.468   2.146   0.027 -0.6710 -0.2908  0.2867
   28HFI     F2  818   1.298   2.006   0.024  0.2124 -0.4109 -0.0331
   28HFI     F3  819   1.410   2.039   0.204 -0.3369 -0.1032  0.1998
   28HFI     C3  820   1.208   2.295   0.012  0.2792 -0.2341 -0.0959
   28HFI     F4  821   1.307   2.341  -0.062 -0.7615  0.2632 -0.3212
   28HFI     F5  822   1.128   2.404   0.044  0.7286 -0.5724 -0.0240
   28HFI     F6  823   1.133   2.208  -0.061 -0.2169 -0.1409 -0.3048
   28HFI     H1  824   1.395   2.254   0.287 -2.0475 -0.2626  1.6893
   28HFI     H2  825   1.179   2.172   0.179 -0.5913  0.8508  0.2925
   29HFI     O1  826   0.077   1.341   1.605  0.3666 -0.0127 -0.2989
   29HFI     C1  827   0.083   1.260   1.482 -0.1132 -0.3500 -0.9397
   29HFI     C2  828  -0.060   1.241   1.411 -0.9983 -0.0407  0.4303
   29HFI     F1  829  -0.115   1.359   1.395  0.5506  0.1294 -0.0205
   29HFI     F2  830  -0.145   1.162   1.482  0.3283 -0.1837  0.3442
   29HFI     F3  831  -0.040   1.196   1.286 -0.2241 -0.2127  0.4784
   29HFI     C3  832   0.152   1.121   1.501 -0.5538 -0.0576 -0.0712
   29HFI     F4  833   0.277   1.124   1.563  0.1766 -0.6992  0.7926
   29HFI     F5  834   0.175   1.061   1.379  0.1007 -0.1249  0.2187
   29HFI     F6  835   0.077   1.034   1.566  0.2467  0.1891 -0.1457
   29HFI     H1  836   0.021   1.290   1.666  0.5002  1.5870  1.2067
   29HFI     H2  837   0.145   1.319   1.414  0.5542  2.1098  1.7279
   30HFI     O1  838   1.118   0.591   0.565 -0.4545 -0.5921  0.3871
   30HFI     C1  839   0.980   0.557   0.529  0.5002 -0.0528  0.0487
   30HFI     C2  840   0.900   0.477   0.634 -0.0039  0.2578 -0.8305
   30HFI     F1  841   0.927   0.350   0.644  0.1921 -0.1638 -0.6875
   30HFI     F2  842   0.768   0.494   0.603 -0.2660  0.2862 -0.2310
   30HFI     F3  843   0.918   0.526   0.753  0.2733  0.1129 -0.1931
   30HFI     C3  844   0.976   0.484   0.395  0.6539 -0.1795 -0.5356
   30HFI     F4  845   1.014   0.576   0.300 -0.4321  0.0681 -0.2597
   30HFI     F5  846   0.855   0.441   0.352 -0.9773 -0.2724 -0.4746
   30HFI     F6  847   1.067   0.379   0.398  0.2015  0.5623  0.1424
   30HFI     H1  848   1.156   0.653   0.500  2.4182 -2.2947  0.3330
   30HFI     H2  849   0.921   0.648   0.510 -0.6385 -0.4927  1.3242
   31HFI     O1  850   1.034   1.013   3.621  0.3656  0.2346  0.3941
   31HFI     C1  851   1.047   1.008   3.765 -0.0017  0.2896  0.1666
   31HFI     C2  852   1.170   0.916   3.813 -0.0594 -0.3533  0.0840
   31HFI     F1  853   1.175   0.899   3.949 -0.3279  0.1153 -0.0556
   31HFI     F2  854   1.284   0.976   3.779  0.0079 -0.1488  0.3992
   31HFI     F3  855   1.156   0.797   3.759 -0.0125  0.0430  0.5077
   31HFI     C3  856   0.910   0.955   3.829 -0.1363 -0.6893 -0.1571
   31HFI     F4  857   0.912   0.980   3.964 -0.6483 -0.5944 -0.2493
   31HFI     F5  858   0.884   0.824   3.809 -0.4197 -0.0241  0.1898
   31HFI     F6  859   0.805   1.031   3.775 -0.5277 -0.1568  0.2478
   31HFI     H1  860   0.995   0.931   3.586  1.2443  0.1833 -0.4997
   31HFI     H2  861   1.066   1.110   3.801 -0.8941 -0.2432  2.2251
   32HFI     O1  862   2.695   3.187   1.341  0.2257 -0.2628  0.2296
   32HFI     C1  863   2.676   3.332   1.356 -0.7953  0.0548  0.1805
   32HFI     C2  864   2.610   3.349   1.492  0.0984  0.2572  0.4496
   32HFI     F1  865   2.654   3.273   1.591 -0.5946 -0.0027  0.9199
   32HFI     F2  866   2.484   3.317   1.478 -0.2042  0.5300 -0.3107
   32HFI     F3  867   2.619   3.483   1.527  0.0648 -0.4768 -0.4790
   32HFI     C3  868   2.613   3.399   1.243  0.3794  0.0771 -0.0686
   32HFI     F4  869   2.502   3.335   1.203  0.4616  0.1558  0.4963
   32HFI     F5  870   2.708   3.401   1.143  0.0816 -0.0358  0.8150
   32HFI     F6  871   2.588   3.530   1.275  0.1673  0.5980 -0.1258
   32HFI     H1  872   2.733   3.155   1.425 -0.5012 -0.4002  0.5109
   32HFI     H2  873   2.778   3.372   1.359 -0.5920 -0.2613 -1.8392
   33HFI     O1  874   0.680   1.162   0.953 -0.0122 -0.4501  0.5669
   33HFI     C1  875   0.579   1.080   1.032  0.0385 -0.1449 -0.0087
   33HFI     C2  876   0.529   0.949   0.958  0.1373 -0.1179 -0.2513
   33HFI     F1  877   0.522   0.977   0.829 -0.0763  0.0381  0.1359
   33HFI     F2  878   0.416   0.890   1.005  0.3223 -0.2881 -0.5213
   33HFI     F3  879   0.641   0.865   0.965  0.1764  0.3154 -0.4519
   33HFI     C3  880   0.453   1.161   1.079 -0.0760 -0.4430 -0.3270
   33HFI     F4  881   0.497   1.265   1.150 -0.2283 -0.0390 -0.2301
   33HFI     F5  882   0.367   1.092   1.157  0.5665 -0.5837  0.1681
   33HFI     F6  883   0.384   1.206   0.970  0.1767 -0.1136 -0.0917
   33HFI     H1  884   0.728   1.099   0.897 -1.3780  1.4870 -2.9313
   33HFI     H2  885   0.618   1.047   1.129  0.5959  0.2227 -0.1073
   34HFI     O1  886   2.285   1.774   0.813 -0.4685  0.0907  0.0493
   34HFI     C1  887   2.338   1.837   0.933  0.0419  0.5686 -0.6098
   34HFI     C2  888   2.455   1.756   0.990 -0.5519 -0.8394 -0.6125
   34HFI     F1  889   2.423   1.629   1.024  0.4183 -0.1959 -0.2230
   34HFI     F2  890   2.505   1.820   1.104  0.1812  0.0179  0.1768
   34HFI     F3  891   2.558   1.747   0.906  0.0561  0.1650 -0.1779
   34HFI     C3  892   2.224   1.873   1.039  0.6908  0.8811  0.0748
   34HFI     F4  893   2.269   1.942   1.145 -0.0489  0.6320  0.1319
   34HFI     F5  894   2.182   1.752   1.088 -0.3682  0.3112  0.0044
   34HFI     F6  895   2.124   1.932   0.981  0.4781 -0.2182  0.2820
   34HFI     H1  896   2.309   1.680   0.825 -1.4754  0.0440  1.9005
   34HFI     H2  897   2.386   1.934   0.913 -0.6121  0.9514 -0.3224
   35HFI     O1  898   2.411   2.448   0.415  0.1491 -0.1771 -0.2606
   35HFI     C1  899   2.470   2.584   0.399  0.0594  0.7581  0.7129
   35HFI     C2  900   2.626   2.576   0.433  0.1851  0.5585 -0.1744
   35HFI     F1  901   2.636   2.531   0.565  0.4602  0.1033 -0.3440
   35HFI     F2  902   2.694   2.693   0.423  0.7884  0.0689 -0.0175
   35HFI     F3  903   2.690   2.485   0.357 -0.4003 -0.2988 -0.3743
   35HFI     C3  904   2.384   2.683   0.484  0.9144  0.4424  0.5537
   35HFI     F4  905   2.391   2.659   0.615  0.1828  0.3857  0.2099
   35HFI     F5  906   2.255   2.693   0.451 -0.1819  0.3781  0.2161
   35HFI     F6  907   2.440   2.807   0.459  0.0892  0.4668  1.1406
   35HFI     H1  908   2.424   2.433   0.510 -0.3021  2.5599  0.2814
   35HFI     H2  909   2.456   2.610   0.293 -0.8678 -0.2917  0.5617
   36HFI     O1  910   1.403   3.080   1.274 -0.0595  0.2301  0.2020
   36HFI     C1  911   1.451   3.039   1.405  0.2699 -0.8424 -0.1716
   36HFI     C2  912   1.594   3.095   1.430 -1.0829  0.7031  0.0137
   36HFI     F1  913   1.679   3.048   1.342  0.2305  0.1419 -0.0789
   36HFI     F2  914   1.638   3.061   1.559  0.4336 -0.0727  0.6474
   36HFI     F3  915   1.603   3.226   1.425  0.6334  0.0620 -0.3480
   36HFI     C3  916   1.419   2.889   1.437 -0.1710 -0.7679 -0.0987
   36HFI     F4  917   1.431   2.868   1.568 -0.5588  0.0957  0.0753
   36HFI     F5  918   1.506   2.808   1.383  0.2532  0.5042  0.1064
   36HFI     F6  919   1.297   2.851   1.406 -0.2469 -0.0775 -0.4996
   36HFI     H1  920   1.412   3.008   1.210 -0.8153  0.2912  0.0155
   36HFI     H2  921   1.397   3.087   1.488  0.1309  0.2493 -0.8722
   37HFI     O1  922   1.513   0.166   1.380 -0.2263 -0.4064  0.6096
   37HFI     C1  923   1.659   0.154   1.359  0.9399 -0.0233 -0.3388
   37HFI     C2  924   1.748   0.154   1.490  0.0443  0.4745 -0.3461
   37HFI     F1  925   1.738   0.271   1.563  0.1568  0.2356  0.3384
   37HFI     F2  926   1.876   0.130   1.462  0.0626 -0.3782 -0.2238
   37HFI     F3  927   1.708   0.052   1.569  0.1690  0.0743 -0.0217
   37HFI     C3  928   1.711   0.256   1.258 -0.0522 -0.1164  0.9220
   37HFI     F4  929   1.702   0.386   1.295 -0.6171 -0.0757  0.4582
   37HFI     F5  930   1.637   0.243   1.144 -0.7356 -0.1200 -0.1457
   37HFI     F6  931   1.835   0.235   1.219 -0.1196  0.2272 -0.1962
   37HFI     H1  932   1.499   0.247   1.432  1.5675  0.7684 -0.6546
   37HFI     H2  933   1.676   0.055   1.315 -0.7390 -0.4967  0.0708
   38HFI     O1  934   2.282   0.363   1.313  0.0382  0.8406  0.0771
   38HFI     C1  935   2.179   0.318   1.407  0.2461  0.6192  0.1822
   38HFI     C2  936   2.094   0.439   1.453 -0.0353  0.1802 -0.5353
   38HFI     F1  937   2.172   0.524   1.517  0.0551 -0.2696  0.3465
   38HFI     F2  938   1.996   0.404   1.542  0.0212 -0.2388 -0.4019
   38HFI     F3  939   2.039   0.509   1.351  0.4069  0.6757 -0.1198
   38HFI     C3  940   2.244   0.224   1.523  0.7558 -0.1085 -1.2909
   38HFI     F4  941   2.340   0.288   1.593  0.0288  0.5343  0.1428
   38HFI     F5  942   2.290   0.111   1.474 -0.0761 -0.4713 -0.0659
   38HFI     F6  943   2.150   0.187   1.612 -0.4164 -0.4331  0.0249
   38HFI     H1  944   2.338   0.423   1.365 -0.0215  0.4733  0.5679
   38HFI     H2  945   2.106   0.258   1.352 -0.1686  0.6543  0.6999
   39HFI     O1  946   1.726   2.511   1.317  0.2692  0.4166  0.0423
   39HFI     C1  947   1.833   2.539   1.413  0.5638 -0.6419  0.0033
   39HFI     C2  948   1.850   2.416   1.506 -0.6635  0.5571  0.2512
   39HFI     F1  949   1.866   2.300   1.440  0.1536  0.4096  0.1345
   39HFI     F2  950   1.743   2.397   1.587 -0.5578 -0.1517 -0.7297
   39HFI     F3  951   1.965   2.426   1.583 -0.1195 -0.2204 -0.3289
   39HFI     C3  952   1.803   2.663   1.494  0.7638  0.7870  0.3628
   39HFI     F4  953   1.676   2.666   1.546  0.0907  0.0693 -0.0507
   39HFI     F5  954   1.810   2.776   1.415 -0.2822  0.5231 -0.1203
   39HFI     F6  955   1.886   2.678   1.601 -0.2826  0.5126 -0.0587
   39HFI     H1  956   1.649   2.568   1.330 -1.6679 -2.1248  0.2729
   39HFI     H2  957   1.926   2.551   1.356  0.9322  2.2572  1.1375
   40HFI     O1  958   1.283   2.832   0.332 -0.1737 -0.0572  0.2952
   40HFI     C1  959   1.283   2.909   0.215 -0.4835  0.7413  0.0789
   40HFI     C2  960   1.142   2.979   0.197 -1.0473 -0.1526 -0.4795
   40HFI     F1  961   1.127   3.061   0.300 -0.3145 -0.0819  0.2924
   40HFI     F2  962   1.032   2.901   0.211 -0.4154  0.0175  0.5972
   40HFI     F3  963   1.129   3.047   0.086 -0.7113 -0.0858 -0.0550
   40HFI     C3  964   1.321   2.831   0.089  0.0780  0.0513  0.1488
   40HFI     F4  965   1.236   2.730   0.063  0.1098 -0.0080 -0.4551
   40HFI     F5  966   1.449   2.778   0.090 -0.3664  0.1354  0.1605
   40HFI     F6  967   1.311   2.912  -0.022  0.3930  0.7244  0.1181
   40HFI     H1  968   1.221   2.758   0.324 -2.4123  1.7596  0.3322
   40HFI     H2  969   1.358   2.989   0.212 -0.9944  1.2392  0.5097
   41HFI     O1  970   3.248   1.577   0.381 -0.4413  0.1057 -0.6400
   41HFI     C1  971   3.176   1.449   0.405  0.0872  0.0628  0.0540
   41HFI     C2  972   3.020   1.455   0.392  0.0382  0.1270  0.1701
   41HFI     F1  973   2.972   1.545   0.483  0.0605 -0.3793 -0.0486
   41HFI     F2  974   2.965   1.336   0.411 -0.9411 -0.1109  0.2763
   41HFI     F3  975   2.978   1.500   0.269 -0.3553 -0.0560  0.3158
   41HFI     C3  976   3.217   1.386   0.539 -0.1578  0.3325 -0.3056
   41HFI     F4  977   3.350   1.364   0.549  0.3479 -0.2206 -0.0464
   41HFI     F5  978   3.163   1.270   0.552 -0.3621 -0.1538  0.6534
   41HFI     F6  979   3.186   1.468   0.645  0.0929  0.2230 -0.0213
   41HFI     H1  980   3.315   1.589   0.450 -1.1756  0.1515  0.0603
   41HFI     H2  981   3.202   1.372   0.331 -0.7197  0.3035 -0.4799
   42HFI     O1  982   0.616   3.367   0.470  0.6156 -0.6686 -0.1798
   42HFI     C1  983   0.512   3.472   0.456  0.6207  0.2627 -0.1518
   42HFI     C2  984   0.572   3.614   0.437 -0.6286 -0.1039  0.2653
   42HFI     F1  985   0.618   3.614   0.312  0.2429  0.1702  0.0753
   42HFI     F2  986   0.668   3.645   0.520 -0.1187 -0.0714  0.1971
   42HFI     F3  987   0.471   3.703   0.446  0.0233 -0.1816  0.3387
   42HFI     C3  988   0.401   3.456   0.560 -0.3216 -0.2320 -0.2078
   42HFI     F4  989   0.380   3.329   0.600  0.3203 -0.4977  0.1441
   42HFI     F5  990   0.284   3.499   0.517  0.5648  0.3478  0.2007
   42HFI     F6  991   0.439   3.530   0.665 -0.6650 -0.0300 -0.1383
   42HFI     H1  992   0.642   3.374   0.564  2.2684  0.0211 -0.6716
   42HFI     H2  993   0.461   3.448   0.362  1.0871 -1.3123 -0.0261
   43HFI     O1  994   0.809   2.387   0.894  0.1025 -0.6319  0.2072
   43HFI     C1  995   0.792   2.513   0.971 -0.2212  0.6349  0.3604
   43HFI     C2  996   0.647   2.567   0.976 -0.5425 -0.5834 -0.4178
   43HFI     F1  997   0.644   2.672   1.064 -0.3870 -0.5179 -0.1790
   43HFI     F2  998   0.562   2.475   1.036 -0.4511  0.0577 -0.0139
   43HFI     F3  999   0.599   2.607   0.858 -0.2861 -0.6908  0.4329
   43HFI     C3 1000   0.896   2.628   0.923  0.1662  0.3309 -0.4293
   43HFI     F4 1001   1.017   2.587   0.965 -0.0300  0.6025 -0.1263
   43HFI     F5 1002   0.872   2.754   0.964  0.1411  0.1296  0.0927
   43HFI     F6 1003   0.911   2.633   0.790 -1.2341  0.1362 -0.7392
   43HFI     H1 1004   0.898   2.400   0.858 -0.4354 -2.0242 -1.7167
   43HFI     H2 1005   0.810   2.493   1.078  0.4187 -1.2590 -0.0805
   44HFI     O1 1006   0.866   1.328   1.134  0.4125 -0.3245 -0.5368
   44HFI     C1 1007   0.984   1.407   1.091  0.1647 -0.1816 -0.6125
   44HFI     C2 1008   1.018   1.388   0.943  0.2800 -0.0278  0.7474
   44HFI     F1 1009   1.082   1.498   0.899 -0.0842 -0.5051 -0.7141
   44HFI     F2 1010   0.906   1.390   0.865  0.1744 -0.5652  0.2011
   44HFI     F3 1011   1.086   1.281   0.907  0.7929  0.0632 -0.1291
   44HFI     C3 1012   1.105   1.385   1.178 -0.2198 -0.0228 -0.0921
   44HFI     F4 1013   1.204   1.482   1.164  0.2904 -0.4744 -0.2755
   44HFI     F5 1014   1.169   1.263   1.161 -0.3787  0.2629 -0.3209
   44HFI     F6 1015   1.065   1.392   1.311  0.4001  0.0290  0.2296
   44HFI     H1 1016   0.837   1.276   1.057  2.2389 -2.8385  0.3948
   44HFI     H2 1017   0.965   1.514   1.110 -2.4305 -0.4340 -1.5679
   45HFI     O1 1018   0.667   1.590   1.569 -0.0979  0.0234  0.4358
   45HFI     C1 1019   0.520   1.597   1.567  0.0021  0.1897  0.0266
   45HFI     C2 1020   0.447   1.457   1.561  0.0136 -0.0760  0.6003
   45HFI     F1 1021   0.426   1.421   1.430 -0.3983 -0.3159 -0.4401
   45HFI     F2 1022   0.326   1.470   1.615  0.4609 -0.5107 -0.2479
   45HFI     F3 1023   0.517   1.357   1.623  0.2587  0.1978  0.3729
   45HFI     C3 1024   0.483   1.685   1.448  0.2952  0.5398  0.5064
   45HFI     F4 1025   0.543   1.630   1.339  0.2613  0.3788  0.1319
   45HFI     F5 1026   0.530   1.807   1.461 -0.5260 -0.1847  0.2399
   45HFI     F6 1027   0.348   1.688   1.430  0.1209 -0.1584  0.3029
   45HFI     H1 1028   0.694   1.516   1.512 -1.5028  0.1846 -0.4679
   45HFI     H2 1029   0.479   1.646   1.655  1.7828 -1.3806  1.7982
   46HFI     O1 1030   2.109   2.805   0.884 -0.2550 -0.0125  0.2823
   46HFI     C1 1031   1.966   2.821   0.900  0.2236 -0.3355 -0.0524
   46HFI     C2 1032   1.921   2.932   0.811 -0.7925 -0.6590  0.0467
   46HFI     F1 1033   1.957   3.048   0.863 -0.0240  0.0243 -0.1798
   46HFI     F2 1034   1.792   2.938   0.790  0.0398 -0.1506  0.2121
   46HFI     F3 1035   1.987   2.921   0.692  0.1586 -0.7011 -0.2133
   46HFI     C3 1036   1.928   2.826   1.051  0.1313  0.3483  0.0313
   46HFI     F4 1037   1.795   2.845   1.055 -0.7003 -0.0895 -0.1446
   46HFI     F5 1038   1.980   2.928   1.121  0.0735  0.4578  0.4169
   46HFI     F6 1039   1.954   2.706   1.111 -0.0824  0.1964  0.2846
   46HFI     H1 1040   2.139   2.853   0.805  2.2705 -0.3645  1.0017
   46HFI     H2 1041   1.923   2.729   0.858 -1.9658  0.1206  1.1378
   47HFI     O1 1042   1.550   0.333   0.644 -0.1348 -0.0790 -0.3727
   47HFI     C1 1043   1.547   0.476   0.694 -0.4902 -0.1315 -0.1386
   47HFI     C2 1044   1.432   0.491   0.807 -0.1952  0.0751 -0.2477
   47HFI     F1 1045   1.463   0.419   0.919 -0.3442  0.0683 -0.5644
   47HFI     F2 1046   1.316   0.443   0.761 -1.1284  0.1846 -0.1957
   47HFI     F3 1047   1.410   0.618   0.842 -0.5113 -0.6175  0.2597
   47HFI     C3 1048   1.532   0.582   0.587 -0.6085  0.0098  0.3006
   47HFI     F4 1049   1.417   0.585   0.527  0.2820 -0.3808  0.2248
   47HFI     F5 1050   1.618   0.565   0.481  0.0841 -0.1330 -0.0732
   47HFI     F6 1051   1.560   0.701   0.637 -0.1132 -0.5619 -0.1287
   47HFI     H1 1052   1.586   0.278   0.716 -2.2084 -1.7695 -0.5702
   47HFI     H2 1053   1.637   0.500   0.752 -1.3522  1.2867  0.6507
   48HFI     O1 1054   2.053   2.015   0.653  0.4181  0.1905 -0.0492
   48HFI     C1 1055   2.117   2.128   0.580 -0.0612 -0.4059  0.2251
   48HFI     C2 1056   2.175   2.235   0.675 -0.1510  0.3557 -0.1311
   48HFI     F1 1057   2.243   2.186   0.788  0.0930 -0.6642 -0.3507
   48HFI     F2 1058   2.074   2.322   0.717  0.2086 -0.1090  0.1758
   48HFI     F3 1059   2.273   2.300   0.618 -0.3465 -0.5581  0.0255
   48HFI     C3 1060   2.021   2.198   0.470 -0.5081  0.8882 -0.2230
   48HFI     F4 1061   2.000   2.109   0.369  0.1361  0.6278 -0.2463
   48HFI     F5 1062   2.062   2.317   0.421 -0.0702 -0.0341  0.4109
   48HFI     F6 1063   1.902   2.216   0.529  0.5375  0.5712  0.6185
   48HFI     H1 1064   1.957   2.022   0.643  0.5439 -0.0944 -1.6398
   48HFI     H2 1065   2.201   2.078   0.531  0.5605  1.0271 -0.1974
   49HFI     O1 1066   0.417   0.283   1.397  0.1734  0.4612 -0.5929
   49HFI     C1 1067   0.402   0.185   1.501  0.1222  0.6894  0.2859
   49HFI     C2 1068   0.532   0.087   1.509  0.1936 -0.3334 -0.1787
   49HFI     F1 1069   0.566   0.027   1.395 -0.5078 -0.2302 -0.3120
   49HFI     F2 1070   0.520  -0.003   1.606  0.1567  0.4086  0.5478
   49HFI     F3 1071   0.637   0.169   1.553  0.2372  0.3047 -0.2367
   49HFI     C3 1072   0.270   0.101   1.470  0.4119  0.7622  0.3603
   49HFI     F4 1073   0.264   0.042   1.347 -0.0551 -0.2375  0.0036
   49HFI     F5 1074   0.164   0.184   1.477  0.9454  0.1337  0.8987
   49HFI     F6 1075   0.251   0.005   1.560 -0.3500 -0.4888 -0.3401
   49HFI     H1 1076   0.465   0.238   1.325 -0.1153 -1.4383  0.3701
   49HFI     H2 1077   0.373   0.226   1.598  1.2020  3.7942 -0.6555
   50HFI     O1 1078   1.218   0.313   1.203 -0.7447  0.2574 -0.0533
   50HFI     C1 1079   1.178   0.242   1.080 -0.7058 -0.0289 -0.1194
   50HFI     C2 1080   1.021   0.232   1.053  0.0196 -0.7828  0.8169
   50HFI     F1 1081   0.962   0.138   1.128  0.2628  0.2809  0.0171
   50HFI     F2 1082   1.000   0.210   0.923  0.1691 -0.1451 -0.2948
   50HFI     F3 1083   0.965   0.352   1.080 -0.8130  0.0246 -0.1927
   50HFI     C3 1084   1.264   0.118   1.049 -0.1048  0.1592  0.8610
   50HFI     F4 1085   1.263   0.078   0.915  0.2749 -0.1016 -0.4583
   50HFI     F5 1086   1.222   0.014   1.128 -0.0785  0.7714  0.0041
   50HFI     F6 1087   1.388   0.146   1.085 -0.3786  0.1182  0.1783
   50HFI     H1 1088   1.265   0.249   1.259  0.5337  2.1700  1.1339
   50HFI     H2 1089   1.205   0.309   0.998  3.4977 -0.0737  1.1341
   51HFI     O1 1090   2.692   1.638   3.403  0.0193 -0.6171 -0.1927
   51HFI     C1 1091   2.547   1.620   3.383 -0.6754 -0.2693 -0.1907
   51HFI     C2 1092   2.497   1.664   3.243 -0.0214  0.0776  0.5024
   51HFI     F1 1093   2.386   1.601   3.204  0.0834  0.0317  0.3610
   51HFI     F2 1094   2.592   1.647   3.147 -0.4073 -0.1811  0.2031
   51HFI     F3 1095   2.477   1.801   3.254 -0.2066  0.0266  1.2938
   51HFI     C3 1096   2.461   1.687   3.496  0.5172  0.7843  0.0372
   51HFI     F4 1097   2.469   1.616   3.614  0.4186  0.1565  0.2050
   51HFI     F5 1098   2.326   1.694   3.462 -0.0297  0.1344  0.1119
   51HFI     F6 1099   2.489   1.813   3.524 -0.1548  0.3810 -0.3046
   51HFI     H1 1100   2.735   1.697   3.339  1.5915 -3.2852 -1.6619
   51HFI     H2 1101   2.524   1.514   3.395  0.8933 -0.6214 -0.2522
   52HFI     O1 1102   1.848   0.743   1.296 -0.0424  0.3510  0.1006
   52HFI     C1 1103   1.929   0.849   1.368 -0.3205 -0.3724 -0.2982
   52HFI     C2 1104   1.862   0.869   1.514  0.4300  0.0560  1.0753
   52HFI     F1 1105   1.735   0.914   1.494 -0.2861  0.5420  0.1989
   52HFI     F2 1106   1.925   0.943   1.599 -0.2178 -0.3322  0.4372
   52HFI     F3 1107   1.847   0.746   1.572 -0.1574  0.0038  0.1973
   52HFI     C3 1108   1.945   0.977   1.278  0.0552  0.2476 -0.0106
   52HFI     F4 1109   2.003   1.080   1.347  0.2879 -0.4046  0.1403
   52HFI     F5 1110   1.827   1.020   1.225 -0.1211  0.0514  0.4227
   52HFI     F6 1111   2.033   0.942   1.178  0.4194 -0.0842 -0.4297
   52HFI     H1 1112   1.761   0.738   1.340 -0.7010  2.8884 -0.7732
   52HFI     H2 1113   2.032   0.813   1.370  0.0648  0.7344  0.5207
   53HFI     O1 1114   2.403   1.911   0.602  0.3370  0.6386 -0.4125
   53HFI     C1 1115   2.434   1.819   0.494 -0.1892 -0.5812 -0.1040
   53HFI     C2 1116   2.304   1.772   0.427  0.0706  0.2024  0.6545
   53HFI     F1 1117   2.237   1.681   0.503 -0.3918  0.2079 -0.1174
   53HFI     F2 1118   2.338   1.699   0.315  0.2642 -0.0241  0.2387
   53HFI     F3 1119   2.223   1.877   0.406  0.3923 -0.0242 -0.4426
   53HFI     C3 1120   2.531   1.695   0.540 -0.1573  0.4853  0.3313
   53HFI     F4 1121   2.484   1.629   0.647  0.2921 -0.5366  0.7634
   53HFI     F5 1122   2.653   1.740   0.587 -0.3332 -0.3879  0.3472
   53HFI     F6 1123   2.561   1.604   0.450  0.0396  0.4517  0.4026
   53HFI     H1 1124   2.359   1.853   0.666 -0.6514  1.6591 -0.1600
   53HFI     H2 1125   2.487   1.878   0.418 -1.4876 -0.0067 -0.5700
   54HFI     O1 1126   0.665   1.704   0.101  0.3823  0.7078  0.2439
   54HFI     C1 1127   0.667   1.572   0.045 -0.6103  0.7487  0.2177
   54HFI     C2 1128   0.550   1.566  -0.067 -0.1890 -0.6119 -0.4131
   54HFI     F1 1129   0.560   1.457  -0.146 -0.9315  0.3777  0.0608
   54HFI     F2 1130   0.564   1.669  -0.148  0.4930  0.2460 -0.6617
   54HFI     F3 1131   0.423   1.561  -0.025  0.1053  0.5482 -0.1443
   54HFI     C3 1132   0.659   1.459   0.150 -0.6049 -0.2780  0.3648
   54HFI     F4 1133   0.729   1.488   0.258 -0.1895  0.4012 -0.0579
   54HFI     F5 1134   0.712   1.344   0.109 -0.0029 -0.3125 -0.4591
   54HFI     F6 1135   0.527   1.449   0.188 -0.2621  0.2003  0.0084
   54HFI     H1 1136   0.674   1.702   0.198  0.3962 -0.3202  0.2228
   54HFI     H2 1137   0.751   1.554  -0.023 -1.1673 -3.2824  0.4179
   55HFI     O1 1138   2.265   3.154   1.320 -0.5515  0.1580  0.4830
   55HFI     C1 1139   2.112   3.170   1.333  0.0792  0.9567 -0.5333
   55HFI     C2 1140   2.045   3.273   1.246 -0.1530 -0.4268  0.5438
   55HFI     F1 1141   2.048   3.406   1.298  0.5107 -0.0714  0.2100
   55HFI     F2 1142   1.916   3.228   1.237 -0.3278  0.1457  1.2120
   55HFI     F3 1143   2.099   3.274   1.120  0.4187  0.5455  0.3152
   55HFI     C3 1144   2.070   3.174   1.483 -0.1643 -0.3211  0.3347
   55HFI     F4 1145   2.123   3.280   1.549  0.1132  0.4527 -0.8380
   55HFI     F5 1146   2.109   3.065   1.546 -0.3407  0.3675 -0.3271
   55HFI     F6 1147   1.939   3.184   1.501 -0.4839  0.1204  0.0078
   55HFI     H1 1148   2.308   3.184   1.402 -2.0582  1.3181  0.8671
   55HFI     H2 1149   2.066   3.075   1.305 -0.2060  1.3407 -1.3790
   56HFI     O1 1150   2.259   1.022   0.272 -0.6312 -0.3001  0.6366
   56HFI     C1 1151   2.318   1.153   0.238  0.3056 -0.0904  0.8492
   56HFI     C2 1152   2.323   1.260   0.349 -0.1611  0.2399  0.0059
   56HFI     F1 1153   2.337   1.385   0.305  0.2585 -0.5896  0.2065
   56HFI     F2 1154   2.426   1.236   0.435 -0.0460 -0.0773 -0.2396
   56HFI     F3 1155   2.211   1.255   0.429 -0.0517  0.2934  0.0593
   56HFI     C3 1156   2.261   1.211   0.110  0.6940 -0.5293  0.0090
   56HFI     F4 1157   2.245   1.113   0.017  0.0846  0.0383  0.1512
   56HFI     F5 1158   2.331   1.309   0.053 -0.4417  0.2555  0.2885
   56HFI     F6 1159   2.132   1.258   0.133  0.0055  0.4117 -0.2733
   56HFI     H1 1160   2.202   1.036   0.350 -1.5160  0.1543 -0.0868
   56HFI     H2 1161   2.421   1.142   0.203 -0.1954 -2.9645  0.2077
   57HFI     O1 1162   2.882   0.330   3.700 -0.1185  0.0843  0.2641
   57HFI     C1 1163   2.963   0.310   3.827 -0.3312 -0.1854  0.2080
   57HFI     C2 1164   2.917   0.380   3.957 -0.4157  0.3973 -0.0258
   57HFI     F1 1165   2.989   0.340   4.061 -0.2316 -0.3619 -0.3530
   57HFI     F2 1166   2.789   0.350   3.974 -0.3974  0.7852  0.4654
   57HFI     F3 1167   2.928   0.512   3.943 -0.5218  0.7575 -0.3906
   57HFI     C3 1168   3.117   0.322   3.801  0.0862 -0.1154 -0.2974
   57HFI     F4 1169   3.145   0.265   3.684 -0.0748  0.1451 -0.4679
   57HFI     F5 1170   3.183   0.266   3.902 -0.0027  0.3694  0.3485
   57HFI     F6 1171   3.160   0.454   3.790 -0.3688  0.1812 -0.1385
   57HFI     H1 1172   2.798   0.369   3.731 -0.8553 -1.4551  0.2806
   57HFI     H2 1173   2.958   0.205   3.858  0.5289 -0.3836 -0.2824
   58HFI     O1 1174   1.585   0.701   1.397  0.0433  0.8250 -0.2945
   58HFI     C1 1175   1.504   0.692   1.518  0.0909 -0.3797 -0.7681
   58HFI     C2 1176   1.476   0.538   1.534 -0.1248 -0.0107  0.3490
   58HFI     F1 1177   1.583   0.486   1.603  0.6187 -0.3249 -0.3159
   58HFI     F2 1178   1.466   0.471   1.419  0.0839  0.2416  0.0266
   58HFI     F3 1179   1.372   0.504   1.615 -0.3059  0.2206 -0.1979
   58HFI     C3 1180   1.371   0.778   1.504 -0.5654 -0.3840 -0.5738
   58HFI     F4 1181   1.309   0.757   1.388 -0.2508  0.1763  0.1356
   58HFI     F5 1182   1.396   0.908   1.514  0.3150 -0.4075  0.5001
   58HFI     F6 1183   1.290   0.739   1.609 -0.0393 -0.5395 -0.4690
   58HFI     H1 1184   1.530   0.668   1.324  0.6368  1.6860 -1.1399
   58HFI     H2 1185   1.564   0.738   1.597 -1.3162 -2.3954  1.5485
   59HFI     O1 1186   2.590   0.333   1.461 -0.5563 -0.1515 -0.1992
   59HFI     C1 1187   2.682   0.414   1.536 -0.2171 -0.1524  0.1666
   59HFI     C2 1188   2.643   0.562   1.535  0.6225 -0.6907  0.3163
   59HFI     F1 1189   2.513   0.581   1.576  0.5730  0.0154  0.1088
   59HFI     F2 1190   2.656   0.624   1.417  0.1715  0.2560 -0.5313
   59HFI     F3 1191   2.728   0.626   1.615  0.2910  0.3064  0.0847
   59HFI     C3 1192   2.825   0.381   1.487  0.1831  0.2555 -0.2774
   59HFI     F4 1193   2.851   0.249   1.496  0.1887 -0.3759 -0.4536
   59HFI     F5 1194   2.917   0.452   1.551 -0.1419  0.6876 -0.6200
   59HFI     F6 1195   2.833   0.411   1.363  0.0410  0.0129 -0.1254
   59HFI     H1 1196   2.614   0.239   1.463 -0.4770 -0.1291  2.9159
   59HFI     H2 1197   2.682   0.399   1.645  0.0212 -0.2612  0.1523
   60HFI     O1 1198   0.796   1.946   0.031 -0.2013  0.2240  0.2462
   60HFI     C1 1199   0.699   2.051   0.048  0.5370 -0.1357 -1.0884
   60HFI     C2 1200   0.580   2.059  -0.050  0.0486  0.0781 -0.0068
   60HFI     F1 1201   0.613   2.078  -0.171 -0.5878 -0.3812 -1.1022
   60HFI     F2 1202   0.483   2.149  -0.021 -0.4050 -0.4376 -0.2321
   60HFI     F3 1203   0.522   1.938  -0.044 -0.1078  0.2206  0.5280
   60HFI     C3 1204   0.772   2.190   0.060  0.4527 -0.1129  0.3385
   60HFI     F4 1205   0.849   2.220  -0.054 -0.3305 -0.3607  0.1979
   60HFI     F5 1206   0.862   2.181   0.165 -0.2333  1.0443  0.0996
   60HFI     F6 1207   0.692   2.292   0.090  0.3582  0.0527 -0.2823
   60HFI     H1 1208   0.752   1.880  -0.025  0.9355 -0.8448  0.5965
   60HFI     H2 1209   0.648   2.034   0.144  0.6583  0.3703 -0.9305
   61HFI     O1 1210   3.165   0.900   0.583  0.0638  0.2270 -0.1438
   61HFI     C1 1211   3.154   0.770   0.527 -0.0185  0.1995  0.1747
   61HFI     C2 1212   3.129   0.779   0.372  0.3292  0.2219 -0.5942
   61HFI     F1 1213   3.004   0.829   0.357  0.3616 -0.0372  0.0770
   61HFI     F2 1214   3.133   0.655   0.311  0.0139  0.0687  0.0335
   61HFI     F3 1215   3.213   0.862   0.309  0.0639 -0.1167  0.3131
   61HFI     C3 1216   3.059   0.672   0.601 -0.0026  0.0434  0.1263
   61HFI     F4 1217   2.939   0.723   0.631 -0.3565 -0.3510 -0.0154
   61HFI     F5 1218   3.113   0.645   0.715  0.1088 -0.2207  0.1704
   61HFI     F6 1219   3.047   0.557   0.529 -1.0451  0.1606  0.0615
   61HFI     H1 1220   3.076   0.941   0.585  0.3583  0.9016 -0.6312
   61HFI     H2 1221   3.253   0.723   0.528 -0.1369 -0.0265  1.6683
   62HFI     O1 1222   0.135   2.205   1.352 -0.4079 -0.7016  0.1016
   62HFI     C1 1223   0.071   2.099   1.426 -0.1973 -0.6685  0.7742
   62HFI     C2 1224  -0.058   2.157   1.495  0.6685  0.2066 -0.8096
   62HFI     F1 1225  -0.148   2.207   1.404 -0.2179 -0.3477  0.0599
   62HFI     F2 1226  -0.025   2.261   1.574  0.1669 -0.1304  0.5718
   62HFI     F3 1227  -0.124   2.063   1.568  0.2504 -0.1953 -0.2246
   62HFI     C3 1228   0.172   2.041   1.519 -0.3570 -0.2869 -0.6772
   62HFI     F4 1229   0.199   2.129   1.621  0.0381 -0.1296  0.0928
   62HFI     F5 1230   0.288   2.011   1.456  0.3637  0.1255  0.4033
   62HFI     F6 1231   0.125   1.929   1.584 -0.5108 -0.6918  0.4558
   62HFI     H1 1232   0.147   2.275   1.419 -1.2936 -0.7526  0.3174
   62HFI     H2 1233   0.038   2.015   1.364 -3.8852 -0.2824  2.0356
   63HFI     O1 1234   2.208   2.255   1.306  0.4539 -0.2808  0.3276
   63HFI     C1 1235   2.291   2.207   1.412  0.6212  0.7896 -0.5328
   63HFI     C2 1236   2.216   2.103   1.500  0.4677  0.0881  1.1796
   63HFI     F1 1237   2.102   2.146   1.560  0.6125  0.4814  0.6086
   63HFI     F2 1238   2.291   2.048   1.592  0.0036  0.1710 -0.1291
   63HFI     F3 1239   2.174   2.002   1.419 -0.1478 -0.5772 -0.0503
   63HFI     C3 1240   2.359   2.321   1.498  0.2789  0.4034 -0.2716
   63HFI     F4 1241   2.406   2.415   1.413 -0.0858 -0.0791 -0.3033
   63HFI     F5 1242   2.459   2.283   1.584 -0.0748 -0.2111 -0.0353
   63HFI     F6 1243   2.268   2.383   1.578 -0.2650  0.2378 -0.5392
   63HFI     H1 1244   2.125   2.205   1.304  0.6399 -0.6661  1.8036
   63HFI     H2 1245   2.368   2.145   1.366 -0.8387  0.1240 -2.1267
   64HFI     O1 1246   0.815   1.324   1.430  0.5425  0.7946 -0.1169
   64HFI     C1 1247   0.830   1.195   1.497  0.4666  0.2793  0.5398
   64HFI     C2 1248   0.981   1.160   1.518  0.2824  0.6015 -0.1655
   64HFI     F1 1249   1.047   1.146   1.402  0.0573 -0.1465  0.4001
   64HFI     F2 1250   0.989   1.036   1.585  0.0050 -0.3478  0.2737
   64HFI     F3 1251   1.044   1.245   1.592 -0.5249 -0.2536  0.2623
   64HFI     C3 1252   0.753   1.091   1.413 -0.1438 -0.3523 -0.3195
   64HFI     F4 1253   0.802   1.067   1.285  0.4922 -0.6632 -0.2680
   64HFI     F5 1254   0.619   1.127   1.402 -0.2105 -0.3049  0.0351
   64HFI     F6 1255   0.756   0.967   1.472  0.3752  0.5643 -0.5261
   64HFI     H1 1256   0.869   1.320   1.349 -1.1124 -0.5420 -1.1809
   64HFI     H2 1257   0.774   1.195   1.592  0.0208 -1.7689  0.3089
   65HFI     O1 1258   1.687   1.765   1.569  0.2703 -0.0167  0.2828
   65HFI     C1 1259   1.682   1.853   1.450  0.2129  0.2230  0.6724
   65HFI     C2 1260   1.800   1.955   1.462  0.4832 -0.2966  0.4036
   65HFI     F1 1261   1.770   2.056   1.541 -0.1853  0.1860  0.4431
   65HFI     F2 1262   1.837   2.000   1.334 -0.3162 -0.2241 -0.4965
   65HFI     F3 1263   1.908   1.896   1.512 -0.0846  0.3501  0.1897
   65HFI     C3 1264   1.537   1.904   1.429 -0.1455  0.6253  0.3004
   65HFI     F4 1265   1.446   1.811   1.395  0.2689 -0.1921  0.1316
   65HFI     F5 1266   1.530   1.993   1.328 -0.0227  0.2351 -0.3707
   65HFI     F6 1267   1.493   1.963   1.547  0.7551 -0.2538 -0.4294
   65HFI     H1 1268   1.622   1.694   1.557  0.3371  0.3445 -2.5833
   65HFI     H2 1269   1.709   1.797   1.359  0.4952  1.9158 -0.3033
   66HFI     O1 1270   2.444   0.061   0.472 -0.7592  0.0691  0.1292
   66HFI     C1 1271   2.499   0.180   0.546 -0.4101 -0.5526  0.4449
   66HFI     C2 1272   2.647   0.150   0.592  0.1314  0.2242 -0.6948
   66HFI     F1 1273   2.649   0.042   0.666 -0.0370 -0.3863 -0.1698
   66HFI     F2 1274   2.704   0.251   0.662  0.0307 -0.1996  0.0405
   66HFI     F3 1275   2.732   0.124   0.478  0.0947  0.4598 -0.0381
   66HFI     C3 1276   2.412   0.237   0.658 -0.1854 -0.1628 -0.1447
   66HFI     F4 1277   2.421   0.165   0.766 -0.3291  0.3673 -0.2930
   66HFI     F5 1278   2.284   0.239   0.622  0.1644  0.2370 -0.0247
   66HFI     F6 1279   2.447   0.367   0.687  0.2279  0.2615  0.1710
   66HFI     H1 1280   2.415   0.001   0.542 -0.2116 -0.3602 -0.0046
   66HFI     H2 1281   2.503   0.270   0.483 -1.0987 -0.6351  0.2755
   67HFI     O1 1282   0.917   2.373   3.467  0.0441 -0.2977  0.1745
   67HFI     C1 1283   0.981   2.425   3.348 -0.7822  0.4062  0.3883
   67HFI     C2 1284   0.896   2.407   3.222  0.0694 -0.1239  0.4835
   67HFI     F1 1285   0.788   2.481   3.234  0.5213 -0.3455 -0.0781
   67HFI     F2 1286   0.868   2.279   3.192  0.2463  0.1354 -0.2989
   67HFI     F3 1287   0.956   2.458   3.111  0.5266  0.0237 -0.4666
   67HFI     C3 1288   1.123   2.368   3.347 -1.0060  0.2083 -0.6403
   67HFI     F4 1289   1.209   2.430   3.435 -0.2100  0.1451 -0.2018
   67HFI     F5 1290   1.178   2.402   3.227 -0.2061 -0.2882 -0.1391
   67HFI     F6 1291   1.129   2.236   3.371 -0.1741 -0.0734 -0.0127
   67HFI     H1 1292   0.911   2.276   3.466 -0.5764 -0.2732  0.7808
   67HFI     H2 1293   0.983   2.534   3.355  3.3091  0.6701 -2.9862
   68HFI     O1 1294   3.386   0.599   0.094  0.1939 -0.4775  0.4436
   68HFI     C1 1295   3.433   0.732   0.065 -0.5794  0.1351  0.2579
   68HFI     C2 1296   3.329   0.820  -0.023  0.1542 -0.1832  0.8821
   68HFI     F1 1297   3.311   0.779  -0.151  0.0732 -0.3791  0.0961
   68HFI     F2 1298   3.359   0.947  -0.023  0.1302  0.1752 -0.0121
   68HFI     F3 1299   3.208   0.807   0.039 -0.2250  0.4055  0.0185
   68HFI     C3 1300   3.580   0.733   0.014  0.4808  0.4172 -0.1480
   68HFI     F4 1301   3.597   0.631  -0.076 -0.2009  0.2785  0.2786
   68HFI     F5 1302   3.667   0.709   0.108  0.4474 -0.1682 -0.4188
   68HFI     F6 1303   3.620   0.848  -0.048  0.0332  0.4244  0.5454
   68HFI     H1 1304   3.294   0.594   0.062  0.7993 -1.8728 -1.1367
   68HFI     H2 1305   3.450   0.793   0.155  1.7127  3.0572 -2.0414
   69HFI     O1 1306   0.354   2.827   0.632 -0.3887 -0.3844 -0.2179
   69HFI     C1 1307   0.253   2.848   0.744  0.0211 -0.0390  0.0706
   69HFI     C2 1308   0.314   2.886   0.881 -0.5688  1.1258  0.7990
   69HFI     F1 1309   0.384   2.784   0.929 -0.1637 -0.1634  0.3897
   69HFI     F2 1310   0.215   2.918   0.964  0.7895 -0.1436  0.1939
   69HFI     F3 1311   0.401   2.995   0.871 -0.0148  0.3768 -0.3234
   69HFI     C3 1312   0.172   2.724   0.759  0.3380  0.2104 -0.1475
   69HFI     F4 1313   0.090   2.700   0.656  0.2852  0.1233  0.0725
   69HFI     F5 1314   0.095   2.710   0.864  0.1467 -0.1293  0.7692
   69HFI     F6 1315   0.255   2.618   0.750  0.3426  0.3549 -0.4960
   69HFI     H1 1316   0.403   2.743   0.637  0.6822  0.3019  1.3762
   69HFI     H2 1317   0.182   2.927   0.716  1.0812  0.8759 -0.0725
   70HFI     O1 1318   3.311   3.055   1.320  0.1711 -0.2368  0.2163
   70HFI     C1 1319   3.252   2.920   1.317  0.0554  0.3050  1.1956
   70HFI     C2 1320   3.139   2.907   1.218  0.2638 -0.0593  0.7966
   70HFI     F1 1321   3.063   2.796   1.240 -0.2117  0.1748  0.0593
   70HFI     F2 1322   3.186   2.900   1.090 -0.4053 -0.0582  0.0597
   70HFI     F3 1323   3.053   3.018   1.219 -0.1477  0.3724 -0.1521
   70HFI     C3 1324   3.211   2.887   1.463  0.5275 -0.5107  0.0915
   70HFI     F4 1325   3.309   2.924   1.549  0.1014 -0.1123  0.2053
   70HFI     F5 1326   3.191   2.756   1.480 -0.1523 -0.0762 -0.4170
   70HFI     F6 1327   3.102   2.955   1.508 -0.2378  0.2090  0.1416
   70HFI     H1 1328   3.404   3.059   1.348  0.4416 -0.1142 -0.7025
   70HFI     H2 1329   3.330   2.850   1.285  0.8564  1.4298  0.6903
   71HFI     O1 1330   0.257   1.516   0.889 -0.5711  0.3144 -0.2939
   71HFI     C1 1331   0.166   1.462   0.989 -0.3048 -0.8938  0.2339
   71HFI     C2 1332   0.016   1.472   0.936 -0.5806 -0.7858  0.0867
   71HFI     F1 1333   0.006   1.424   0.811  0.2651 -0.4155 -0.1936
   71HFI     F2 1334  -0.033   1.594   0.937  0.4535 -0.3276 -0.2139
   71HFI     F3 1335  -0.070   1.390   1.011  0.4175  0.0884  0.3923
   71HFI     C3 1336   0.188   1.536   1.117 -0.2387  0.5823 -0.1431
   71HFI     F4 1337   0.138   1.658   1.123 -0.2679 -0.6525  0.2341
   71HFI     F5 1338   0.322   1.549   1.141 -0.2983 -0.4419 -0.2216
   71HFI     F6 1339   0.143   1.463   1.222 -0.2105  0.0805 -0.0568
   71HFI     H1 1340   0.235   1.489   0.798  2.0816 -0.0911 -0.8481
   71HFI     H2 1341   0.189   1.358   1.012 -0.1276 -0.6672  1.0996
   72HFI     O1 1342   2.680   1.963   3.765 -0.3954  0.8518 -0.6371
   72HFI     C1 1343   2.713   1.819   3.777 -0.1160  0.4982  0.3547
   72HFI     C2 1344   2.707   1.767   3.927 -1.0218  0.0731  0.2943
   72HFI     F1 1345   2.585   1.801   3.972 -0.6873  0.4835 -0.4632
   72HFI     F2 1346   2.799   1.820   4.008  0.0257  0.1721 -0.2614
   72HFI     F3 1347   2.722   1.636   3.938  0.0601 -0.2368 -0.2781
   72HFI     C3 1348   2.852   1.791   3.721 -0.7251  0.4699  0.1626
   72HFI     F4 1349   2.945   1.870   3.781 -0.3202 -0.0764 -0.4191
   72HFI     F5 1350   2.866   1.822   3.594  0.9807  0.4833  0.6785
   72HFI     F6 1351   2.892   1.658   3.731  0.0547 -0.6970 -0.0889
   72HFI     H1 1352   2.712   2.003   3.682  3.3558  0.0270  0.3168
   72HFI     H2 1353   2.649   1.758   3.712  2.3428  0.0345 -1.7513
   73HFI     O1 1354   3.379   3.091   0.925 -0.4958  0.0079 -0.1780
   73HFI     C1 1355   3.362   3.236   0.886 -0.4732  0.2172  0.9194
   73HFI     C2 1356   3.499   3.288   0.812  0.4005 -0.0455 -0.0671
   73HFI     F1 1357   3.524   3.211   0.702 -0.3159 -0.1087  0.8897
   73HFI     F2 1358   3.610   3.272   0.890 -0.7255 -0.5230 -0.8675
   73HFI     F3 1359   3.489   3.417   0.771  0.5372  0.7521  0.2550
   73HFI     C3 1360   3.314   3.319   1.012 -0.0462 -0.0025  0.2494
   73HFI     F4 1361   3.196   3.278   1.062 -0.2581 -0.6935  0.2703
   73HFI     F5 1362   3.294   3.455   0.980 -0.2569  0.1086  0.0933
   73HFI     F6 1363   3.411   3.312   1.105  0.2840 -0.3048  0.0726
   73HFI     H1 1364   3.303   3.056   0.974  0.3453 -3.0559 -0.9861
   73HFI     H2 1365   3.287   3.243   0.806  1.1912  2.4062 -0.4911
   74HFI     O1 1366   0.083   2.173   0.772  0.4372 -0.2020  0.1274
   74HFI     C1 1367   0.160   2.181   0.892 -0.2208 -0.1604 -0.4352
   74HFI     C2 1368   0.142   2.054   0.983 -0.6072  0.1100 -0.7429
   74HFI     F1 1369   0.185   1.941   0.913 -0.3133 -0.0876  0.3495
   74HFI     F2 1370   0.013   2.031   1.006  0.5594 -0.2757  0.1117
   74HFI     F3 1371   0.204   2.055   1.100  0.0403  0.2537 -0.3381
   74HFI     C3 1372   0.120   2.307   0.982  0.3110 -0.5286  0.6584
   74HFI     F4 1373   0.217   2.338   1.073 -0.1285  0.4352 -0.2504
   74HFI     F5 1374  -0.007   2.297   1.038 -0.1449  0.0523  0.0796
   74HFI     F6 1375   0.116   2.418   0.904 -0.5323  0.7328 -0.0554
   74HFI     H1 1376  -0.010   2.156   0.792  0.7056 -1.2063  0.5667
   74HFI     H2 1377   0.266   2.192   0.865  0.3855  0.4551  2.0047
   75HFI     O1 1378   0.723   2.620   1.333 -0.1036  0.2055  0.2352
   75HFI     C1 1379   0.819   2.662   1.437 -0.0258  0.2764  0.5132
   75HFI     C2 1380   0.785   2.802   1.507  0.6403  0.6075  0.0267
   75HFI     F1 1381   0.684   2.785   1.591 -0.0408  0.2279 -0.1898
   75HFI     F2 1382   0.751   2.898   1.417  0.2677 -0.0370  0.2376
   75HFI     F3 1383   0.896   2.848   1.575  0.5984 -0.0996 -0.1169
   75HFI     C3 1384   0.959   2.654   1.372 -0.1871 -0.1689  0.1232
   75HFI     F4 1385   0.980   2.762   1.289  0.5455 -0.5263 -0.2900
   75HFI     F5 1386   0.959   2.545   1.298 -0.1907 -0.2152 -0.0121
   75HFI     F6 1387   1.060   2.656   1.462  0.2093 -0.1025 -0.1409
   75HFI     H1 1388   0.695   2.691   1.272  1.4893  2.3253  1.8841
   75HFI     H2 1389   0.828   2.591   1.520  3.1327  0.6253  0.5600
   76HFI     O1 1390   1.171   0.813   0.413 -0.2274 -0.3970  0.6546
   76HFI     C1 1391   1.254   0.909   0.493 -0.1218  0.4221 -0.1442
   76HFI     C2 1392   1.171   1.007   0.570 -0.3742 -0.3332 -0.4634
   76HFI     F1 1393   1.134   1.116   0.498 -0.0662  0.3221  0.2219
   76HFI     F2 1394   1.240   1.061   0.665  0.5822 -0.6597 -0.1263
   76HFI     F3 1395   1.070   0.945   0.635  0.7481  0.2222  0.2176
   76HFI     C3 1396   1.373   0.973   0.412  0.5202  0.2654 -0.4481
   76HFI     F4 1397   1.326   1.052   0.312 -0.0230 -0.2246 -0.2579
   76HFI     F5 1398   1.449   0.874   0.357  0.0146 -0.0199  0.4215
   76HFI     F6 1399   1.452   1.039   0.498  0.0885 -0.2853  0.4940
   76HFI     H1 1400   1.157   0.860   0.329  1.8034  0.3305  0.7014
   76HFI     H2 1401   1.302   0.848   0.571 -0.1345  0.2718 -0.2520
   77HFI     O1 1402   3.321   1.927   3.680 -0.1892  0.0433  0.2478
   77HFI     C1 1403   3.398   1.939   3.807 -0.1309 -0.3478  0.1999
   77HFI     C2 1404   3.545   1.900   3.787  0.7210 -0.2990  0.3829
   77HFI     F1 1405   3.599   1.974   3.692  0.6095 -0.5607 -0.3797
   77HFI     F2 1406   3.573   1.772   3.756 -0.3059 -0.2359 -0.6001
   77HFI     F3 1407   3.616   1.938   3.891  0.0896  0.1145  0.2165
   77HFI     C3 1408   3.329   1.866   3.922 -0.1542  0.7518 -0.6305
   77HFI     F4 1409   3.296   1.741   3.876 -0.0051  0.0624 -0.2321
   77HFI     F5 1410   3.210   1.937   3.944 -0.1838  0.3540 -0.5240
   77HFI     F6 1411   3.404   1.861   4.034 -0.5265 -0.1181 -0.0345
   77HFI     H1 1412   3.247   1.864   3.691 -0.0901 -0.4307 -1.5270
   77HFI     H2 1413   3.400   2.045   3.837  2.5172 -0.0672 -0.8473
   78HFI     O1 1414   0.338   1.148   3.530 -0.1561  0.8738  0.4436
   78HFI     C1 1415   0.411   1.076   3.432 -0.1233  0.0853  0.2896
   78HFI     C2 1416   0.369   1.107   3.281  0.2133  0.5437 -0.3750
   78HFI     F1 1417   0.435   1.210   3.231  0.0528  0.3963  0.3102
   78HFI     F2 1418   0.237   1.134   3.282 -0.3164  0.1950 -0.0681
   78HFI     F3 1419   0.386   0.999   3.204 -0.6386  0.2825 -0.0568
   78HFI     C3 1420   0.406   0.927   3.474 -0.4304  0.4735  0.9416
   78HFI     F4 1421   0.496   0.854   3.404  0.0615  0.1882 -0.0284
   78HFI     F5 1422   0.278   0.875   3.455 -0.3026 -0.2243 -0.0620
   78HFI     F6 1423   0.445   0.912   3.602 -0.1158  0.1207  0.2717
   78HFI     H1 1424   0.246   1.162   3.502 -0.1236 -0.2630 -0.2517
   78HFI     H2 1425   0.516   1.108   3.433 -0.3548  1.1599 -3.1573
   79HFI     O1 1426   1.668   0.142   0.875  0.3114 -0.3771 -0.1143
   79HFI     C1 1427   1.738   0.017   0.866  0.0778  0.1622 -0.1119
   79HFI     C2 1428   1.648  -0.093   0.928 -0.4254 -0.0143 -0.1016
   79HFI     F1 1429   1.699  -0.215   0.926  0.3698 -0.0794  0.0544
   79HFI     F2 1430   1.532  -0.108   0.851  0.6404  0.3403  0.0033
   79HFI     F3 1431   1.612  -0.065   1.056 -0.2375  0.7473  0.1545
   79HFI     C3 1432   1.883   0.017   0.921 -0.1766 -1.0841  0.3353
   79HFI     F4 1433   1.959   0.121   0.868 -0.0916 -0.2163  0.0630
   79HFI     F5 1434   1.945  -0.100   0.882  0.2382 -0.7796  0.0141
   79HFI     F6 1435   1.887   0.029   1.060  0.2396  0.0308  0.3861
   79HFI     H1 1436   1.652   0.165   0.968 -0.1966  2.1022 -0.7867
   79HFI     H2 1437   1.760  -0.011   0.762 -0.5838  1.3868 -0.5936
   80HFI     O1 1438   2.245   2.456   3.125 -0.1169  0.0944 -0.2403
   80HFI     C1 1439   2.208   2.571   3.208 -0.9693 -0.4697  0.1275
   80HFI     C2 1440   2.176   2.525   3.352 -0.9066  0.1528 -0.6108
   80HFI     F1 1441   2.287   2.467   3.410  0.1075 -0.1561 -0.2302
   80HFI     F2 1442   2.077   2.433   3.361 -0.0781 -0.0485  0.0902
   80HFI     F3 1443   2.147   2.628   3.422  0.1802  0.3357  0.2146
   80HFI     C3 1444   2.088   2.650   3.141  0.1377  0.3934 -0.2797
   80HFI     F4 1445   2.060   2.766   3.219  0.2056  0.6807 -0.1798
   80HFI     F5 1446   1.982   2.565   3.127 -0.3253  0.0291 -0.2064
   80HFI     F6 1447   2.118   2.691   3.018  1.0035 -0.3685  0.4539
   80HFI     H1 1448   2.184   2.381   3.134  0.1335  0.0094  0.8077
   80HFI     H2 1449   2.291   2.641   3.221 -2.6329  1.2106  2.0341
   81HFI     O1 1450   2.526   2.285   0.799 -0.5001 -0.4043  0.1619
   81HFI     C1 1451   2.605   2.317   0.922 -0.1942 -0.2996  0.6532
   81HFI     C2 1452   2.718   2.213   0.947 -0.6335 -0.6839  0.1872
   81HFI     F1 1453   2.802   2.262   1.049  0.1664  0.0167  0.0509
   81HFI     F2 1454   2.790   2.199   0.830  0.6419  0.0783 -0.5085
   81HFI     F3 1455   2.669   2.095   0.974  0.1454 -0.3723  0.2862
   81HFI     C3 1456   2.509   2.341   1.043 -0.8031  0.6591  0.3468
   81HFI     F4 1457   2.437   2.233   1.070 -0.0943 -0.7390 -0.1924
   81HFI     F5 1458   2.423   2.434   1.019  0.4487 -0.3041  0.2554
   81HFI     F6 1459   2.583   2.376   1.152 -0.4240  0.4466  0.3189
   81HFI     H1 1460   2.596   2.265   0.734  0.5889 -0.9114  1.4728
   81HFI     H2 1461   2.657   2.411   0.904 -2.2447  0.5789 -0.8696
   82HFI     O1 1462   0.187   3.073   1.445  0.1091 -0.0542 -0.1194
   82HFI     C1 1463   0.315   3.134   1.401  0.0103 -0.3729 -0.1981
   82HFI     C2 1464   0.351   3.112   1.251 -0.2254 -0.0715 -0.0385
   82HFI     F1 1465   0.446   3.198   1.209 -0.2173  0.3626  0.2305
   82HFI     F2 1466   0.236   3.128   1.175 -0.8427 -0.5828  0.4008
   82HFI     F3 1467   0.387   2.983   1.236  0.3146 -0.1570  0.4428
   82HFI     C3 1468   0.437   3.088   1.488  0.1043 -0.2037 -0.3270
   82HFI     F4 1469   0.459   2.959   1.489  0.5567  0.2781 -0.6718
   82HFI     F5 1470   0.411   3.120   1.618 -0.1649  0.5597  0.1337
   82HFI     F6 1471   0.550   3.153   1.452  0.1252  0.5716  0.3200
   82HFI     H1 1472   0.191   3.064   1.542  0.6203 -1.3073 -0.2348
   82HFI     H2 1473   0.309   3.241   1.425  1.6060  0.0714 -1.6496
   83HFI     O1 1474   1.412   0.984   1.218  0.4225  0.4303 -0.5871
   83HFI     C1 1475   1.521   1.033   1.123  0.4499 -0.1270 -0.1792
   83HFI     C2 1476   1.493   1.177   1.067  0.1413 -0.2987 -0.0866
   83HFI     F1 1477   1.476   1.261   1.175  0.1338 -0.6199  0.5549
   83HFI     F2 1478   1.386   1.190   0.985  0.3005  0.5353 -0.6030
   83HFI     F3 1479   1.601   1.222   1.002  0.0418 -0.2203 -0.6954
   83HFI     C3 1480   1.552   0.927   1.013 -0.2015 -0.0985  0.7194
   83HFI     F4 1481   1.598   0.817   1.071  0.7966  0.3834  0.3371
   83HFI     F5 1482   1.639   0.966   0.924  0.4402 -0.6885 -0.1696
   83HFI     F6 1483   1.438   0.907   0.940  0.5564  0.2401 -0.3307
   83HFI     H1 1484   1.323   0.986   1.178  1.0481 -0.0134 -2.0048
   83HFI     H2 1485   1.615   1.044   1.180 -0.4264 -0.4035  1.3697
   84HFI     O1 1486   1.603   3.229   0.557 -0.1901  0.0036  0.1690
   84HFI     C1 1487   1.682   3.238   0.436 -0.3251  0.9168 -0.4854
   84HFI     C2 1488   1.752   3.380   0.426 -0.2687  0.3573  0.9403
   84HFI     F1 1489   1.661   3.480   0.412 -0.0857 -0.5107  0.2004
   84HFI     F2 1490   1.837   3.384   0.324 -0.2773  0.3569  0.1704
   84HFI     F3 1491   1.814   3.401   0.542 -0.4063 -0.1715  0.5027
   84HFI     C3 1492   1.593   3.201   0.313  0.2169  0.3250 -0.3437
   84HFI     F4 1493   1.670   3.216   0.197  0.1388 -0.1886 -0.6645
   84HFI     F5 1494   1.484   3.281   0.304 -0.2730  0.8008  0.0937
   84HFI     F6 1495   1.562   3.064   0.306 -0.2236  0.0970  0.0425
   84HFI     H1 1496   1.523   3.281   0.541  1.4281  1.8631 -2.2519
   84HFI     H2 1497   1.761   3.164   0.456 -1.7393 -0.0291  1.8342
   85HFI     O1 1498   2.536   2.824   1.218 -0.2494 -0.3593  0.2524
   85HFI     C1 1499   2.485   2.769   1.339  0.1434 -0.4391  0.8193
   85HFI     C2 1500   2.334   2.740   1.325  0.3194  0.1828 -0.3757
   85HFI     F1 1501   2.301   2.665   1.217  0.0721  0.2187  0.5003
   85HFI     F2 1502   2.255   2.851   1.317  0.4971 -0.4861  0.0724
   85HFI     F3 1503   2.293   2.671   1.431  0.0256 -0.2787  0.9372
   85HFI     C3 1504   2.528   2.860   1.467  0.2355 -0.2100  0.4320
   85HFI     F4 1505   2.471   2.988   1.452 -0.2176 -0.5130 -0.3562
   85HFI     F5 1506   2.665   2.878   1.482  0.2684  0.4168 -0.3871
   85HFI     F6 1507   2.474   2.801   1.582  0.2786 -0.1179  0.0658
   85HFI     H1 1508   2.489   2.907   1.200  0.6267  0.1814  0.3945
   85HFI     H2 1509   2.534   2.673   1.359  3.9020  0.9721 -1.1995
   86HFI     O1 1510   2.052   1.749   1.343  0.6072  0.0190 -0.2939
   86HFI     C1 1511   2.122   1.628   1.390 -0.3826 -0.1794  0.5937
   86HFI     C2 1512   2.048   1.506   1.328  0.3851 -0.6223  0.0127
   86HFI     F1 1513   2.085   1.390   1.372 -0.2334  0.5611  0.3254
   86HFI     F2 1514   2.058   1.505   1.192 -0.1431  0.7694  0.4728
   86HFI     F3 1515   1.914   1.512   1.360  0.1490  0.0880 -0.1403
   86HFI     C3 1516   2.143   1.629   1.546 -0.0620 -0.3446 -0.0244
   86HFI     F4 1517   2.025   1.597   1.604  0.4779  0.0964 -0.0693
   86HFI     F5 1518   2.179   1.746   1.593 -0.4965 -0.8044 -0.1203
   86HFI     F6 1519   2.239   1.541   1.571 -0.0189  0.3530 -0.4221
   86HFI     H1 1520   2.096   1.817   1.397  0.6001 -1.2614  1.3564
   86HFI     H2 1521   2.221   1.619   1.344 -0.8959 -1.4471 -0.3032
   87HFI     O1 1522   0.115   2.337   0.520  0.3688  0.4215 -0.0171
   87HFI     C1 1523   0.013   2.397   0.437 -0.6554  0.2322  0.0744
   87HFI     C2 1524  -0.112   2.429   0.520  0.8326  0.4175 -0.2949
   87HFI     F1 1525  -0.192   2.327   0.553  0.5311 -0.1621  0.2921
   87HFI     F2 1526  -0.180   2.522   0.453  0.1139 -0.1079 -0.4594
   87HFI     F3 1527  -0.094   2.487   0.636  0.1039  0.1626  0.2682
   87HFI     C3 1528   0.000   2.328   0.300 -0.4227  0.8445 -0.3736
   87HFI     F4 1529  -0.092   2.227   0.304 -0.0977  0.2746 -0.0411
   87HFI     F5 1530   0.113   2.259   0.269 -0.1523  0.2651 -0.6652
   87HFI     F6 1531  -0.030   2.408   0.194  0.0984 -0.6274  0.3197
   87HFI     H1 1532   0.074   2.274   0.582  0.2422 -1.1829 -1.6734
   87HFI     H2 1533   0.046   2.497   0.406 -1.8830  0.5147 -0.3282
   88HFI     O1 1534   1.722   1.278   0.677  0.3505 -0.1568 -0.3024
   88HFI     C1 1535   1.620   1.312   0.573  0.7936  0.1448 -0.8036
   88HFI     C2 1536   1.672   1.424   0.479 -0.0706 -0.3389  0.3549
   88HFI     F1 1537   1.728   1.366   0.368 -0.0067  0.5438 -0.2392
   88HFI     F2 1538   1.769   1.498   0.533 -0.0180  0.0865  0.5562
   88HFI     F3 1539   1.581   1.513   0.438  0.6985  0.4967 -0.6148
   88HFI     C3 1540   1.482   1.351   0.641 -0.0411  0.2879  0.4487
   88HFI     F4 1541   1.381   1.353   0.553  0.3430  0.1908  0.2173
   88HFI     F5 1542   1.482   1.470   0.694 -0.4867  0.1041  0.1285
   88HFI     F6 1543   1.452   1.263   0.741  0.5930 -0.4365 -0.4632
   88HFI     H1 1544   1.678   1.238   0.754 -0.0120  2.2438  0.7764
   88HFI     H2 1545   1.591   1.222   0.517  1.4703 -1.5302  1.4416
   89HFI     O1 1546   2.372   0.763   0.863 -0.0417 -0.4163  0.0435
   89HFI     C1 1547   2.429   0.826   0.980 -0.2672 -0.1068  0.1972
   89HFI     C2 1548   2.415   0.736   1.109 -0.4105 -0.7842  0.1772
   89HFI     F1 1549   2.285   0.741   1.162  0.1236 -0.3861 -0.3063
   89HFI     F2 1550   2.489   0.778   1.204  0.0231  0.6338 -0.0433
   89HFI     F3 1551   2.450   0.611   1.078 -0.2004  0.3253  0.3215
   89HFI     C3 1552   2.390   0.981   0.991  0.1710  0.0186 -0.2049
   89HFI     F4 1553   2.395   1.046   0.866 -0.0951 -0.4321 -0.1128
   89HFI     F5 1554   2.480   1.053   1.067 -0.0197  0.0736  0.3283
   89HFI     F6 1555   2.271   1.008   1.035  0.0557  0.3442 -0.0714
   89HFI     H1 1556   2.281   0.743   0.890  0.7306 -1.2434  2.1435
   89HFI     H2 1557   2.539   0.832   0.975 -0.4348  2.9766 -0.8680
   90HFI     O1 1558   3.029   1.385   0.906 -0.2555  0.5084 -0.1060
   90HFI     C1 1559   2.891   1.395   0.942 -0.0056  0.0368 -0.0978
   90HFI     C2 1560   2.803   1.408   0.808 -0.8387 -0.1993  0.6864
   90HFI     F1 1561   2.675   1.395   0.834  0.0320  0.0119  0.2407
   90HFI     F2 1562   2.841   1.310   0.726  0.6547  0.0853  0.0304
   90HFI     F3 1563   2.828   1.526   0.751  0.0375 -0.3224 -0.4124
   90HFI     C3 1564   2.859   1.515   1.028 -0.2583 -0.2155  0.7181
   90HFI     F4 1565   2.724   1.544   1.040 -0.7284 -0.0272  0.7181
   90HFI     F5 1566   2.908   1.627   0.973  0.1864  0.3300  0.0725
   90HFI     F6 1567   2.915   1.501   1.152  0.3569 -0.1508 -0.2537
   90HFI     H1 1568   3.055   1.470   0.868 -1.4531  0.9756  0.1042
   90HFI     H2 1569   2.859   1.306   0.997 -0.3223  0.1326 -0.1234
   91HFI     O1 1570   3.025   0.921   1.125  0.3508  0.6654 -0.1073
   91HFI     C1 1571   2.924   0.862   1.043  0.0805 -0.3556 -0.7141
   91HFI     C2 1572   2.865   0.962   0.943  0.2913  0.1580 -0.2224
   91HFI     F1 1573   2.965   1.009   0.862  0.0439 -0.0817  0.3894
   91HFI     F2 1574   2.805   1.072   0.999  0.1238  0.2187  0.4830
   91HFI     F3 1575   2.785   0.890   0.865 -0.1469 -0.1819 -0.3437
   91HFI     C3 1576   2.814   0.790   1.127 -0.3106  0.4575  0.0543
   91HFI     F4 1577   2.735   0.879   1.196  0.0057  0.1377 -0.4838
   91HFI     F5 1578   2.866   0.705   1.223  0.3122  0.4474  0.2289
   91HFI     F6 1579   2.739   0.710   1.048  1.1662 -0.3993  0.1463
   91HFI     H1 1580   3.068   0.845   1.168  0.7817  1.7484  1.4358
   91HFI     H2 1581   2.965   0.782   0.980 -0.1926 -1.2073  0.1760
   92HFI     O1 1582   1.503   2.747   0.746 -0.1478 -0.2268  0.3882
   92HFI     C1 1583   1.433   2.850   0.834 -0.0656  0.0563 -0.0801
   92HFI     C2 1584   1.389   2.796   0.972  0.6948 -0.5178  0.6955
   92HFI     F1 1585   1.275   2.721   0.954 -0.9084  0.3691  0.3413
   92HFI     F2 1586   1.370   2.892   1.057 -0.1001 -0.1909 -0.1598
   92HFI     F3 1587   1.481   2.711   1.021  0.4738 -0.1528 -0.4403
   92HFI     C3 1588   1.322   2.927   0.761  0.1030 -0.1181 -0.4415
   92HFI     F4 1589   1.223   2.846   0.724  0.9656  0.1840  0.1323
   92HFI     F5 1590   1.382   2.976   0.646 -0.9658 -0.2463 -0.0003
   92HFI     F6 1591   1.262   3.029   0.827 -0.3617 -0.0510  0.1375
   92HFI     H1 1592   1.459   2.762   0.660  0.3597 -0.5386  0.0640
   92HFI     H2 1593   1.511   2.921   0.865 -0.6825  0.0538  1.5629
   93HFI     O1 1594   1.809   1.741   0.160  0.1430  0.3263 -0.7048
   93HFI     C1 1595   1.908   1.745   0.051 -0.1802  0.9132 -0.0233
   93HFI     C2 1596   2.020   1.646   0.079  0.1759 -0.4036  0.8645
   93HFI     F1 1597   1.965   1.517   0.074 -0.1121  0.2563 -0.0336
   93HFI     F2 1598   2.081   1.661   0.201 -0.6593 -0.5721 -0.1263
   93HFI     F3 1599   2.115   1.646  -0.008 -0.0167 -0.3600 -0.0539
   93HFI     C3 1600   1.956   1.889   0.014 -0.9069  0.2187 -0.0597
   93HFI     F4 1601   2.037   1.938   0.110  0.1018  0.1675  0.0943
   93HFI     F5 1602   1.852   1.971   0.002  0.0919  0.4238  0.2326
   93HFI     F6 1603   2.028   1.894  -0.099 -0.2376  0.2268  0.5432
   93HFI     H1 1604   1.833   1.820   0.212 -0.7732  0.4953 -0.5233
   93HFI     H2 1605   1.849   1.713  -0.036 -1.6769 -0.9473  1.6334
   94HFI     O1 1606   2.096   0.677   0.924 -0.2233  0.3040 -0.0605
   94HFI     C1 1607   2.063   0.540   0.960 -0.8362 -0.0223 -0.0249
   94HFI     C2 1608   2.156   0.437   0.885 -0.1002 -0.2401 -0.3720
   94HFI     F1 1609   2.121   0.426   0.755  0.5729  0.5037  0.0562
   94HFI     F2 1610   2.151   0.313   0.937  0.1016  0.2660  0.0247
   94HFI     F3 1611   2.280   0.488   0.880 -0.3822 -0.1575  0.1450
   94HFI     C3 1612   1.919   0.515   0.933  0.0142  1.0266 -0.1644
   94HFI     F4 1613   1.879   0.384   0.964 -0.4259  0.2230 -0.1451
   94HFI     F5 1614   1.894   0.543   0.805  0.0008 -0.1424 -0.1511
   94HFI     F6 1615   1.837   0.591   1.003  0.0218  0.2970  0.3747
   94HFI     H1 1616   2.021   0.729   0.891  0.4363  1.4623  0.2561
   94HFI     H2 1617   2.083   0.518   1.065  0.0953 -0.5457 -0.3020
   95HFI     O1 1618   1.566   1.906   0.890  0.7169 -0.4458 -0.0337
   95HFI     C1 1619   1.632   1.773   0.900  0.3883 -0.6175  0.0921
   95HFI     C2 1620   1.574   1.685   1.013 -0.3314  0.6692 -0.5758
   95HFI     F1 1621   1.443   1.707   1.020  0.6975 -0.1163  1.3795
   95HFI     F2 1622   1.623   1.716   1.137 -0.1466  0.2599 -0.3064
   95HFI     F3 1623   1.597   1.558   0.995  0.1468  0.2871  0.1500
   95HFI     C3 1624   1.789   1.795   0.907  0.4717  0.5928 -0.3194
   95HFI     F4 1625   1.862   1.682   0.899 -0.3437 -0.1432 -0.0671
   95HFI     F5 1626   1.819   1.864   1.027 -0.6945  0.2395  0.2844
   95HFI     F6 1627   1.827   1.877   0.806  0.2548  0.2034  0.1447
   95HFI     H1 1628   1.545   1.924   0.983 -0.2772 -1.0466 -0.1429
   95HFI     H2 1629   1.604   1.722   0.808 -2.9542 -0.7200  1.0921
   96HFI     O1 1630   2.630   0.674   0.675 -0.3741  0.1580  0.0521
   96HFI     C1 1631   2.637   0.707   0.537  0.7511  0.0705  0.6202
   96HFI     C2 1632   2.522   0.806   0.499 -0.2337 -0.3352 -0.3029
   96HFI     F1 1633   2.404   0.738   0.500 -0.6749  0.4163  0.5395
   96HFI     F2 1634   2.542   0.851   0.369 -0.3014  0.7359  0.1178
   96HFI     F3 1635   2.511   0.910   0.586 -0.2975  0.1913 -0.5099
   96HFI     C3 1636   2.649   0.579   0.457 -0.8828 -0.8867 -0.0194
   96HFI     F4 1637   2.535   0.510   0.448 -0.1455  0.1700 -0.0867
   96HFI     F5 1638   2.753   0.502   0.500 -0.1209  0.2890  0.0463
   96HFI     F6 1639   2.683   0.615   0.332  0.4303  0.0320  0.1576
   96HFI     H1 1640   2.543   0.634   0.693  0.1592 -2.1422 -2.3235
   96HFI     H2 1641   2.728   0.765   0.519  0.8648  0.0576  1.1230
   97HFI     O1 1642   1.122   3.127   1.494 -0.1209  0.6330  0.6203
   97HFI     C1 1643   1.104   3.274   1.516  0.7958 -0.4875  0.0914
   97HFI     C2 1644   0.997   3.332   1.421 -0.0781  0.4023 -0.2578
   97HFI     F1 1645   0.875   3.284   1.446  0.4452 -0.0871  0.0937
   97HFI     F2 1646   1.021   3.303   1.295  0.3727 -0.6008 -0.0831
   97HFI     F3 1647   0.972   3.464   1.426 -0.5134  0.3233  0.1801
   97HFI     C3 1648   1.240   3.353   1.505  0.1120 -0.1053 -0.4875
   97HFI     F4 1649   1.230   3.475   1.557 -0.2984  0.2822 -0.1242
   97HFI     F5 1650   1.279   3.361   1.379 -0.1620 -0.5101  0.4634
   97HFI     F6 1651   1.338   3.289   1.572  0.2535  0.2226 -0.2393
   97HFI     H1 1652   1.165   3.119   1.408 -0.2731 -1.0956  0.6811
   97HFI     H2 1653   1.073   3.297   1.619  1.4757  1.2619 -0.0702
   98HFI     O1 1654   0.854   1.831   1.590 -0.6879 -0.1700  0.0909
   98HFI     C1 1655   0.948   1.826   1.484 -0.2686  0.0592 -0.0031
   98HFI     C2 1656   0.993   1.681   1.456  0.4786  0.6886  0.2045
   98HFI     F1 1657   1.029   1.617   1.568  0.1826  0.1558  0.5712
   98HFI     F2 1658   1.088   1.674   1.373 -0.5773  0.4411  0.1378
   98HFI     F3 1659   0.885   1.609   1.389 -0.1187 -0.4631  0.2320
   98HFI     C3 1660   1.076   1.918   1.514  0.1854 -0.2267  0.6162
   98HFI     F4 1661   1.042   2.038   1.570  0.2946  0.3135  0.4408
   98HFI     F5 1662   1.144   1.952   1.400 -0.3379  0.5139 -0.3139
   98HFI     F6 1663   1.165   1.853   1.593 -0.2683 -0.4585 -0.2906
   98HFI     H1 1664   0.766   1.803   1.560 -0.2876 -1.5035  0.1570
   98HFI     H2 1665   0.909   1.869   1.391  2.7829  3.7375  0.3062
   99HFI     O1 1666   0.269   0.526   1.352 -0.1502 -0.0474  0.0867
   99HFI     C1 1667   0.355   0.639   1.384 -0.7990  0.0126 -0.0946
   99HFI     C2 1668   0.483   0.633   1.291  0.1855  0.0321  0.0960
   99HFI     F1 1669   0.550   0.744   1.311 -0.2635 -0.4072 -0.0882
   99HFI     F2 1670   0.448   0.616   1.160  0.2662 -0.4718  0.3785
   99HFI     F3 1671   0.563   0.532   1.319 -0.0638  0.2003 -0.0267
   99HFI     C3 1672   0.378   0.645   1.534  0.0587 -0.2075 -0.2312
   99HFI     F4 1673   0.432   0.767   1.578  0.0320 -0.2081  0.1942
   99HFI     F5 1674   0.456   0.542   1.580  0.5331 -0.7137  0.5187
   99HFI     F6 1675   0.259   0.624   1.600 -0.2095  0.3421  0.1427
   99HFI     H1 1676   0.305   0.438   1.373 -0.3050 -0.0124  0.5130
   99HFI     H2 1677   0.306   0.734   1.361 -0.0700  0.4083 -0.0185
  100HFI     O1 1678   3.056   2.400   1.319  0.1074 -0.2381  0.7386
  100HFI     C1 1679   2.928   2.388   1.392  0.2836 -0.0436  0.2443
  100HFI     C2 1680   2.857   2.531   1.415  0.0757  0.0412 -0.2673
  100HFI     F1 1681   2.905   2.599   1.526  0.5344  0.5355  0.0704
  100HFI     F2 1682   2.727   2.511   1.448 -0.0438 -0.2004  0.0403
  100HFI     F3 1683   2.858   2.609   1.310 -0.4205  0.1014 -0.0435
  100HFI     C3 1684   2.944   2.306   1.526 -0.5704  0.3367  0.1973
  100HFI     F4 1685   3.039   2.362   1.598 -0.0701 -0.3520 -0.2277
  100HFI     F5 1686   2.999   2.189   1.492  0.9642  0.1550  0.1052
  100HFI     F6 1687   2.835   2.281   1.593 -0.2192  0.0842  0.0669
  100HFI     H1 1688   3.125   2.351   1.367 -0.1630 -0.1118  1.2557
  100HFI     H2 1689   2.851   2.338   1.332  0.1592 -1.3208  1.4333
  101HFI     O1 1690   0.020   1.142   0.830 -0.3394 -0.5304  0.0925
  101HFI     C1 1691   0.048   1.015   0.902 -0.7106 -0.4048  0.4065
  101HFI     C2 1692   0.115   0.912   0.812  0.0593  0.7167  0.1615
  101HFI     F1 1693   0.039   0.882   0.704  0.1566 -0.1195 -0.1736
  101HFI     F2 1694   0.145   0.809   0.889  0.5314  0.2480 -0.1288
  101HFI     F3 1695   0.231   0.963   0.772  0.3779  0.2630 -0.1957
  101HFI     C3 1696  -0.078   0.963   0.987  0.0945  0.9641 -0.1636
  101HFI     F4 1697  -0.181   0.921   0.915 -0.0796  0.0913  0.1916
  101HFI     F5 1698  -0.114   1.071   1.063  0.2301  0.3665  0.1931
  101HFI     F6 1699  -0.044   0.872   1.077  0.1705 -0.5452 -0.0636
  101HFI     H1 1700  -0.042   1.114   0.761 -0.1733  2.5077 -1.3909
  101HFI     H2 1701   0.127   1.030   0.976  0.1474 -1.4875 -0.2845
  102HFI     O1 1702   2.065   1.341   0.678 -0.5679  0.3515  0.1056
  102HFI     C1 1703   2.127   1.299   0.805  0.6129 -0.9492  0.5475
  102HFI     C2 1704   2.026   1.272   0.910  0.0653 -0.4684 -0.0178
  102HFI     F1 1705   2.093   1.210   1.011 -0.6726  0.3834 -0.0773
  102HFI     F2 1706   1.931   1.193   0.862  0.4681  0.0695  0.2614
  102HFI     F3 1707   1.966   1.379   0.960  0.1599  0.0496  0.6209
  102HFI     C3 1708   2.229   1.406   0.849  0.7486 -0.4710  0.2690
  102HFI     F4 1709   2.174   1.528   0.863 -0.1299 -0.0541 -0.1792
  102HFI     F5 1710   2.316   1.420   0.744  0.6267  0.0303 -0.0629
  102HFI     F6 1711   2.298   1.373   0.962 -0.1639 -0.2259  0.6327
  102HFI     H1 1712   2.000   1.410   0.699 -1.3221  0.1261 -1.3889
  102HFI     H2 1713   2.181   1.204   0.789  0.5059 -1.2685  1.9828
  103HFI     O1 1714   0.457   2.232   1.380 -0.2113  0.1925  0.2393
  103HFI     C1 1715   0.592   2.288   1.390 -0.2637 -0.0761  0.2023
  103HFI     C2 1716   0.690   2.219   1.300  0.7764  0.6930 -0.8162
  103HFI     F1 1717   0.797   2.297   1.283 -0.1232  0.1080 -0.0810
  103HFI     F2 1718   0.639   2.189   1.177  0.3768 -0.3900 -0.2352
  103HFI     F3 1719   0.743   2.100   1.350 -0.4700 -0.3181  0.5479
  103HFI     C3 1720   0.649   2.297   1.538  0.0125 -0.2358 -0.1784
  103HFI     F4 1721   0.769   2.359   1.543  0.0090 -0.0072 -0.2237
  103HFI     F5 1722   0.657   2.175   1.600 -0.1400  0.4670  0.0624
  103HFI     F6 1723   0.559   2.363   1.621  0.0504 -0.2148 -0.5568
  103HFI     H1 1724   0.457   2.138   1.402 -0.4761  0.2963  0.6753
  103HFI     H2 1725   0.582   2.390   1.350 -1.8189  0.0578  0.9241
  104HFI     O1 1726   0.433   3.399   3.499  0.2475 -0.2727  0.0912
  104HFI     C1 1727   0.522   3.432   3.388  0.0174  0.2142 -0.1046
  104HFI     C2 1728   0.646   3.506   3.448  0.6612 -0.4856  0.0677
  104HFI     F1 1729   0.715   3.419   3.521 -0.2291 -0.3702 -0.2913
  104HFI     F2 1730   0.615   3.599   3.529 -0.0404  0.6026 -0.2355
  104HFI     F3 1731   0.725   3.563   3.362 -0.2440 -0.2358  0.0956
  104HFI     C3 1732   0.455   3.511   3.275 -0.1388  0.3767 -0.0962
  104HFI     F4 1733   0.435   3.640   3.306  0.2765 -0.4072 -0.0061
  104HFI     F5 1734   0.337   3.467   3.234  0.6638  0.4059  0.2688
  104HFI     F6 1735   0.540   3.512   3.172  0.0856  0.0548  0.6690
  104HFI     H1 1736   0.466   3.450   3.576  1.0608  0.5025 -0.7600
  104HFI     H2 1737   0.555   3.341   3.337  0.3671  0.6532 -0.6801
  105HFI     O1 1738   0.751   2.492   3.676  0.3636 -0.0143  0.6732
  105HFI     C1 1739   0.740   2.634   3.694 -0.3177  0.5444  0.1826
  105HFI     C2 1740   0.857   2.703   3.618 -0.2802  0.2172 -0.1146
  105HFI     F1 1741   0.975   2.649   3.647 -0.1423 -0.2551  0.0515
  105HFI     F2 1742   0.856   2.833   3.645  0.2801 -0.3903  0.0557
  105HFI     F3 1743   0.838   2.688   3.484 -0.3320 -0.1503 -0.3005
  105HFI     C3 1744   0.742   2.675   3.848 -0.0703  0.3409  0.1652
  105HFI     F4 1745   0.692   2.798   3.872  0.5037  0.1708 -0.4407
  105HFI     F5 1746   0.867   2.665   3.899 -0.1275 -0.4595  0.0518
  105HFI     F6 1747   0.666   2.593   3.920  0.2992  0.0252 -0.0415
  105HFI     H1 1748   0.811   2.472   3.602  0.3327  2.5898 -0.1053
  105HFI     H2 1749   0.646   2.664   3.645 -0.9638 -3.6117 -1.2814
  106HFI     O1 1750   2.289   3.006   0.709  0.3975 -0.2160  0.0577
  106HFI     C1 1751   2.314   3.124   0.788 -0.1306 -0.4621  0.0733
  106HFI     C2 1752   2.252   3.253   0.724 -0.0307  0.2505  0.1753
  106HFI     F1 1753   2.134   3.223   0.662 -0.6824  0.6178 -0.1181
  106HFI     F2 1754   2.335   3.310   0.635 -0.2910  0.4275 -0.2168
  106HFI     F3 1755   2.223   3.343   0.826  0.2462 -0.0536  0.1553
  106HFI     C3 1756   2.459   3.138   0.826  0.1847  0.3675  0.2625
  106HFI     F4 1757   2.495   3.028   0.894 -0.0269  0.4626 -0.5817
  106HFI     F5 1758   2.481   3.236   0.915  0.5725  0.3315 -0.0231
  106HFI     F6 1759   2.542   3.158   0.720 -0.2526  0.0049 -0.4038
  106HFI     H1 1760   2.341   3.011   0.627  1.2089  0.9506  0.6297
  106HFI     H2 1761   2.262   3.117   0.885  0.2147 -1.2374  0.1986
  107HFI     O1 1762   2.981   1.673   1.390  0.1447 -0.1201  0.0310
  107HFI     C1 1763   3.124   1.683   1.379 -0.2636  0.0115 -0.2317
  107HFI     C2 1764   3.195   1.649   1.508  0.1153  0.7409 -0.1287
  107HFI     F1 1765   3.177   1.750   1.599 -0.0586 -0.1317  0.2466
  107HFI     F2 1766   3.328   1.637   1.504 -0.1848 -0.1935  0.6909
  107HFI     F3 1767   3.133   1.541   1.560 -0.3848 -0.3968  0.4551
  107HFI     C3 1768   3.163   1.822   1.312 -0.0507  0.3916 -0.0943
  107HFI     F4 1769   3.107   1.827   1.190 -0.1794  0.5868 -0.1272
  107HFI     F5 1770   3.295   1.825   1.309 -0.1409  0.5227 -0.0234
  107HFI     F6 1771   3.124   1.924   1.378  0.4185  0.3001  0.2170
  107HFI     H1 1772   2.954   1.595   1.440 -0.1976 -1.3958 -2.0786
  107HFI     H2 1773   3.162   1.607   1.309 -2.2914 -1.6540  0.4391
  108HFI     O1 1774   0.221   0.418   0.577  0.2877 -0.0741 -0.0684
  108HFI     C1 1775   0.274   0.537   0.526  0.2071 -0.1310 -0.5774
  108HFI     C2 1776   0.386   0.592   0.619  0.0534 -0.4907 -0.4341
  108HFI     F1 1777   0.416   0.718   0.585 -0.3863 -0.0835  0.4145
  108HFI     F2 1778   0.492   0.527   0.595 -0.2823  0.4425  0.4224
  108HFI     F3 1779   0.345   0.586   0.752  0.4794  0.3320 -0.2517
  108HFI     C3 1780   0.159   0.630   0.480  0.4039 -0.4382  0.2725
  108HFI     F4 1781   0.070   0.642   0.576 -0.5117 -0.0149 -0.1016
  108HFI     F5 1782   0.099   0.581   0.373 -0.3727  0.2822 -0.2779
  108HFI     F6 1783   0.194   0.752   0.444 -0.5364 -0.1657 -0.0656
  108HFI     H1 1784   0.246   0.418   0.671  0.1329  2.5887 -0.0100
  108HFI     H2 1785   0.325   0.518   0.431 -0.7870  1.6197 -1.4930
  109HFI     O1 1786   1.342   1.210   1.455  0.1751 -0.2760 -0.5269
  109HFI     C1 1787   1.444   1.281   1.531 -0.1776 -0.3074  0.2785
  109HFI     C2 1788   1.457   1.434   1.487 -0.0044  0.8634 -0.1418
  109HFI     F1 1789   1.340   1.482   1.428 -0.6461  0.2150 -0.2938
  109HFI     F2 1790   1.555   1.447   1.390 -0.0101 -0.1025 -0.5675
  109HFI     F3 1791   1.495   1.516   1.590 -0.2738  0.1575 -0.5943
  109HFI     C3 1792   1.583   1.209   1.536 -0.8042 -0.1192  0.0105
  109HFI     F4 1793   1.625   1.163   1.413  0.1624  0.0557 -0.1905
  109HFI     F5 1794   1.572   1.105   1.611 -0.0076 -0.3306 -0.6101
  109HFI     F6 1795   1.679   1.294   1.586  0.1340  0.2536  0.5970
  109HFI     H1 1796   1.363   1.209   1.360 -4.4889 -0.0348 -1.6615
  109HFI     H2 1797   1.423   1.287   1.638  0.4523 -2.5770  0.5448
  110HFI     O1 1798   0.728   3.120   0.903 -0.5931  0.3866 -0.2038
  110HFI     C1 1799   0.842   3.096   0.995  0.1702 -0.1532  0.8203
  110HFI     C2 1800   0.797   3.085   1.140 -0.7740  0.1032 -0.4023
  110HFI     F1 1801   0.757   3.211   1.184 -0.2226 -0.7085 -0.1188
  110HFI     F2 1802   0.902   3.046   1.230  0.2582 -0.2511  0.3026
  110HFI     F3 1803   0.696   3.001   1.157 -0.0986  0.3668  0.0628
  110HFI     C3 1804   0.957   3.201   0.972 -0.2075 -0.8867 -0.3283
  110HFI     F4 1805   0.996   3.199   0.843  0.2903  0.0033 -0.7879
  110HFI     F5 1806   1.061   3.173   1.057  0.5067 -0.1139 -0.3178
  110HFI     F6 1807   0.923   3.332   0.994 -0.8088  0.5540  0.1259
  110HFI     H1 1808   0.638   3.088   0.924 -0.3227 -0.6244 -0.5790
  110HFI     H2 1809   0.886   2.999   0.971  0.9274  0.1438  0.9842
  111HFI     O1 1810   2.804   1.821   1.569  0.2617 -0.3356  0.7699
  111HFI     C1 1811   2.670   1.855   1.516 -0.2271  0.5895  0.6247
  111HFI     C2 1812   2.571   1.748   1.502  0.4259  0.9870  0.2061
  111HFI     F1 1813   2.594   1.661   1.397 -0.4120 -0.0763  0.5793
  111HFI     F2 1814   2.452   1.800   1.486  0.4944 -0.3871  0.1566
  111HFI     F3 1815   2.574   1.665   1.612 -0.2516  0.4037 -0.1994
  111HFI     C3 1816   2.696   1.923   1.381 -0.3064 -0.3471 -0.3902
  111HFI     F4 1817   2.785   2.031   1.391 -0.3221 -0.1996  0.2954
  111HFI     F5 1818   2.583   1.974   1.336  0.3547  0.2093 -0.0020
  111HFI     F6 1819   2.744   1.848   1.273 -0.2933  0.1491  0.2071
  111HFI     H1 1820   2.867   1.804   1.498 -0.2998  0.5867  0.0348
  111HFI     H2 1821   2.629   1.938   1.575 -1.6676  1.2152 -1.2075
  112HFI     O1 1822   1.778   2.502   1.034 -0.0530 -0.3035  0.5427
  112HFI     C1 1823   1.772   2.385   0.951 -0.1894 -0.3527  0.5787
  112HFI     C2 1824   1.632   2.369   0.885 -0.1957 -0.7025 -0.4367
  112HFI     F1 1825   1.591   2.490   0.856  0.0566  0.1456  0.7535
  112HFI     F2 1826   1.529   2.323   0.968  0.1474 -0.0370  0.0224
  112HFI     F3 1827   1.629   2.289   0.776 -0.6504  0.4607  0.1749
  112HFI     C3 1828   1.830   2.264   1.022 -0.0096 -0.1368  0.2214
  112HFI     F4 1829   1.962   2.263   1.002 -0.0907 -0.2159 -0.2347
  112HFI     F5 1830   1.785   2.150   0.976 -0.2216 -0.3027 -0.1922
  112HFI     F6 1831   1.810   2.270   1.158  0.4469 -0.4704 -0.1808
  112HFI     H1 1832   1.757   2.476   1.126  0.6614 -0.8453  0.5632
  112HFI     H2 1833   1.836   2.388   0.862  0.3981 -0.4678  0.9968
  113HFI     O1 1834   2.951   1.181   1.300 -1.0069  0.3289 -0.1660
  113HFI     C1 1835   2.854   1.167   1.407  0.8496  0.1755  0.0238
  113HFI     C2 1836   2.826   1.299   1.477 -0.0358  0.3753  0.2486
  113HFI     F1 1837   2.787   1.395   1.383 -0.1427 -0.3656 -0.2763
  113HFI     F2 1838   2.935   1.349   1.544 -0.1550 -0.2308  0.1088
  113HFI     F3 1839   2.721   1.285   1.556 -0.7682 -0.2927  0.1549
  113HFI     C3 1840   2.883   1.056   1.512 -0.2972  0.2121  0.7480
  113HFI     F4 1841   2.916   0.941   1.444  0.1481  0.3506 -0.5749
  113HFI     F5 1842   2.768   1.033   1.591 -0.7592  0.1080 -0.2825
  113HFI     F6 1843   2.982   1.086   1.594 -0.1418  0.0537  1.0464
  113HFI     H1 1844   3.037   1.142   1.325 -0.8333  1.4317  1.0168
  113HFI     H2 1845   2.761   1.132   1.360  1.6880  0.2644 -1.7881
  114HFI     O1 1846   0.766   3.167   0.620  0.1307  0.1550  0.4586
  114HFI     C1 1847   0.803   3.044   0.537 -0.4549 -0.0293 -0.5440
  114HFI     C2 1848   0.690   2.941   0.512 -0.0683 -0.2128  0.4311
  114HFI     F1 1849   0.718   2.874   0.392  0.2250 -0.1728 -0.8297
  114HFI     F2 1850   0.574   3.003   0.504  0.0057 -0.1008 -0.0908
  114HFI     F3 1851   0.677   2.848   0.605  0.2147  0.0765  0.0249
  114HFI     C3 1852   0.928   2.969   0.591  0.4819  0.1056 -0.3705
  114HFI     F4 1853   1.031   3.054   0.590 -0.4157  0.3526  0.1945
  114HFI     F5 1854   0.961   2.867   0.511 -0.0816 -0.1714  0.0767
  114HFI     F6 1855   0.914   2.924   0.715 -0.7118  0.3702 -0.2225
  114HFI     H1 1856   0.770   3.149   0.715 -0.4130 -0.0865  0.4429
  114HFI     H2 1857   0.833   3.084   0.440  2.0509  2.5739  1.1868
  115HFI     O1 1858   0.396   2.524   1.281 -0.2734  0.0283 -0.5555
  115HFI     C1 1859   0.334   2.633   1.362 -0.0554  0.0841 -0.0849
  115HFI     C2 1860   0.306   2.585   1.511  0.5873 -1.1374 -0.2849
  115HFI     F1 1861   0.416   2.593   1.581  0.1885  0.0541 -0.2328
  115HFI     F2 1862   0.253   2.460   1.504  0.2496  0.5481 -0.3677
  115HFI     F3 1863   0.209   2.664   1.571  0.9834 -0.0273 -0.5561
  115HFI     C3 1864   0.204   2.680   1.288 -0.4305  0.9611  0.1564
  115HFI     F4 1865   0.091   2.612   1.306 -0.4682 -0.0610  0.3932
  115HFI     F5 1866   0.228   2.676   1.152 -0.0720  0.0555 -0.2942
  115HFI     F6 1867   0.182   2.802   1.325 -0.0048  0.1478 -0.0392
  115HFI     H1 1868   0.323   2.468   1.249 -0.6123 -0.5456  1.1750
  115HFI     H2 1869   0.404   2.718   1.366  1.7028 -1.3016 -0.8293
  116HFI     O1 1870   2.841   0.503   0.893  0.2241 -0.4061 -0.1237
  116HFI     C1 1871   2.901   0.373   0.911 -0.3668 -0.1673 -0.2292
  116HFI     C2 1872   2.820   0.268   0.984 -0.8624 -0.7237  0.0211
  116HFI     F1 1873   2.851   0.262   1.120 -0.2620 -0.0098  0.1620
  116HFI     F2 1874   2.834   0.147   0.926 -0.3705 -0.1223  0.1242
  116HFI     F3 1875   2.687   0.304   0.971 -0.0099 -0.0290 -0.0021
  116HFI     C3 1876   3.046   0.378   0.950 -0.4856 -0.0342 -0.0255
  116HFI     F4 1877   3.099   0.264   0.988 -0.6578 -0.2453  0.1079
  116HFI     F5 1878   3.064   0.470   1.044 -0.5917  0.2874  0.1708
  116HFI     F6 1879   3.115   0.428   0.847 -0.0785 -0.2138  0.0711
  116HFI     H1 1880   2.745   0.507   0.883  0.1075  2.0868  1.5733
  116HFI     H2 1881   2.917   0.333   0.810  1.0700  0.5921 -0.3154
  117HFI     O1 1882   0.173   1.594   0.372 -0.0643  0.4610  0.0392
  117HFI     C1 1883   0.240   1.713   0.441 -0.3583  0.4632  1.2924
  117HFI     C2 1884   0.360   1.753   0.360 -0.5736 -0.1973 -1.0370
  117HFI     F1 1885   0.464   1.675   0.399 -0.3735  0.4326  0.1507
  117HFI     F2 1886   0.401   1.875   0.390  0.0935  0.4154 -0.2842
  117HFI     F3 1887   0.343   1.743   0.223 -0.3704  0.3614 -0.1718
  117HFI     C3 1888   0.259   1.702   0.595  0.4308  1.2965 -0.4078
  117HFI     F4 1889   0.343   1.599   0.616  0.0010  0.1507 -0.0792
  117HFI     F5 1890   0.149   1.666   0.657  0.1014 -0.1467 -0.1522
  117HFI     F6 1891   0.313   1.810   0.653  0.3429 -0.6446  0.7397
  117HFI     H1 1892   0.246   1.543   0.333  0.1725 -0.5962  1.8363
  117HFI     H2 1893   0.168   1.795   0.430  0.6355  1.3388  1.3087
  118HFI     O1 1894   2.982   0.714   2.440  0.8134 -0.1395 -0.1209
  118HFI     C1 1895   2.842   0.714   2.395 -0.7568 -0.1342  0.0530
  118HFI     C2 1896   2.800   0.571   2.336 -0.1661 -0.2492 -0.3018
  118HFI     F1 1897   2.865   0.534   2.222  0.1672  0.1152  0.5823
  118HFI     F2 1898   2.670   0.557   2.313 -0.2224 -0.1026 -0.2091
  118HFI     F3 1899   2.819   0.477   2.433 -0.4438  0.3075  0.2189
  118HFI     C3 1900   2.818   0.829   2.303  0.3709  0.2001  0.1327
  118HFI     F4 1901   2.864   0.945   2.364  0.2438 -0.0327  0.0562
  118HFI     F5 1902   2.687   0.846   2.273 -0.0848  0.3815  0.0429
  118HFI     F6 1903   2.886   0.809   2.186  0.6893  0.0998  0.2214
  118HFI     H1 1904   2.997   0.658   2.517 -0.1261 -1.4128 -0.8491
  118HFI     H2 1905   2.769   0.730   2.475 -2.1677  0.1865 -1.2702
  119HFI     O1 1906   3.033   2.846   2.812 -0.1555  0.2885  0.0845
  119HFI     C1 1907   3.062   2.711   2.838 -0.2650  0.1744 -0.5172
  119HFI     C2 1908   3.167   2.655   2.745  0.0395  0.1492 -0.1339
  119HFI     F1 1909   3.271   2.740   2.729 -0.4367  0.0268 -0.2391
  119HFI     F2 1910   3.135   2.629   2.619  0.4077  0.0326 -0.4648
  119HFI     F3 1911   3.219   2.542   2.792 -0.5366 -0.2640 -0.2037
  119HFI     C3 1912   2.929   2.625   2.848  0.1968 -0.2757 -0.0493
  119HFI     F4 1913   2.960   2.500   2.891  0.5840  0.4340 -0.0552
  119HFI     F5 1914   2.862   2.606   2.727  0.0792 -0.0649  0.7379
  119HFI     F6 1915   2.845   2.683   2.938  0.3108 -0.2955 -0.2925
  119HFI     H1 1916   3.073   2.867   2.726  1.0341  0.1750  0.5971
  119HFI     H2 1917   3.109   2.706   2.937  1.5037  2.0402 -1.2218
  120HFI     O1 1918   0.958   0.046   2.495  0.4271  0.2527 -0.0984
  120HFI     C1 1919   0.904  -0.065   2.423  0.2260  1.0816  1.0045
  120HFI     C2 1920   0.900  -0.052   2.267 -0.0995  0.6470 -0.3124
  120HFI     F1 1921   0.802   0.026   2.230  0.1277  0.1444  0.7515
  120HFI     F2 1922   0.873  -0.171   2.210 -0.6962  1.0384  0.1531
  120HFI     F3 1923   1.019  -0.006   2.221 -0.4085 -0.4824 -0.1943
  120HFI     C3 1924   0.762  -0.111   2.486 -0.1357  0.3881 -0.1010
  120HFI     F4 1925   0.793  -0.170   2.606  0.1462  0.1661  0.2307
  120HFI     F5 1926   0.692  -0.201   2.413 -0.2922  0.2360 -0.2116
  120HFI     F6 1927   0.680  -0.009   2.515  0.3026  0.2517 -0.3992
  120HFI     H1 1928   0.997   0.011   2.577  1.6730  0.4760 -0.5868
  120HFI     H2 1929   0.963  -0.155   2.444 -3.0482 -1.5315 -0.7000
  121HFI     O1 1930   0.305   3.428   2.518  0.1040  0.2675 -0.2058
  121HFI     C1 1931   0.332   3.359   2.395 -0.6359 -0.8299  0.5227
  121HFI     C2 1932   0.401   3.446   2.287  0.2185  0.2603 -0.2043
  121HFI     F1 1933   0.310   3.527   2.223  0.0876  0.0819  0.1317
  121HFI     F2 1934   0.461   3.367   2.194  0.3968 -0.5756 -0.2805
  121HFI     F3 1935   0.502   3.517   2.330 -0.3971 -0.2797  0.2960
  121HFI     C3 1936   0.210   3.271   2.351 -0.2826  0.3331 -0.5735
  121HFI     F4 1937   0.222   3.156   2.424 -0.0220  0.5898 -0.2852
  121HFI     F5 1938   0.209   3.230   2.220  0.2619  0.0508 -0.2323
  121HFI     F6 1939   0.089   3.322   2.384 -0.4821 -0.0623 -0.0122
  121HFI     H1 1940   0.355   3.387   2.590 -0.6580  0.1371  0.2542
  121HFI     H2 1941   0.410   3.284   2.415  1.5695  2.0708  3.3376
  122HFI     O1 1942   1.991   2.590   2.299  0.1144  0.4651  0.3814
  122HFI     C1 1943   2.060   2.517   2.401  0.4424 -1.0574  0.1106
  122HFI     C2 1944   2.202   2.480   2.351  0.4468  0.6577  1.2501
  122HFI     F1 1945   2.270   2.387   2.423  0.0631 -0.1934  0.0518
  122HFI     F2 1946   2.280   2.593   2.362  0.2631 -0.3661 -0.0726
  122HFI     F3 1947   2.198   2.441   2.217 -0.0548 -0.0950 -0.1402
  122HFI     C3 1948   1.978   2.387   2.449  0.2949 -0.5946  0.2599
  122HFI     F4 1949   1.854   2.427   2.497 -0.0696 -0.1021 -0.2664
  122HFI     F5 1950   2.041   2.318   2.547 -0.0652 -0.4439 -0.2468
  122HFI     F6 1951   1.964   2.304   2.342  0.4607 -0.2012 -0.6783
  122HFI     H1 1952   1.986   2.535   2.219  0.0117  1.9213 -0.6361
  122HFI     H2 1953   2.066   2.572   2.496 -0.0918  0.3994 -0.7001
  123HFI     O1 1954   1.041   0.831   3.376 -0.3263  0.1111  0.0687
  123HFI     C1 1955   0.961   0.713   3.360  0.0491  0.3234  0.3479
  123HFI     C2 1956   0.874   0.722   3.231 -0.3226  0.4743 -0.3953
  123HFI     F1 1957   0.840   0.599   3.183 -0.1850 -0.1466 -0.6968
  123HFI     F2 1958   0.946   0.774   3.134 -0.6162  0.3833  0.1539
  123HFI     F3 1959   0.754   0.795   3.250  0.1303 -0.3105 -0.5881
  123HFI     C3 1960   0.873   0.690   3.490  0.1408  0.2097 -0.6985
  123HFI     F4 1961   0.950   0.633   3.589 -0.1940  0.1105  0.1552
  123HFI     F5 1962   0.761   0.608   3.473 -0.0996 -0.1007  0.3806
  123HFI     F6 1963   0.823   0.805   3.530  0.0654 -0.2745 -0.4330
  123HFI     H1 1964   1.086   0.842   3.290 -2.1093  1.7612 -0.6893
  123HFI     H2 1965   1.036   0.635   3.341 -1.2402 -1.5624  2.7531
  124HFI     O1 1966   2.849   0.473   3.449 -0.5147  0.1055 -0.3593
  124HFI     C1 1967   2.873   0.624   3.429  0.3857 -0.8195 -0.7063
  124HFI     C2 1968   2.916   0.696   3.561  0.1489 -0.3693  0.2224
  124HFI     F1 1969   2.825   0.714   3.651  0.4074  0.2496 -0.1511
  124HFI     F2 1970   2.973   0.815   3.541  0.2111  0.2238 -0.1530
  124HFI     F3 1971   3.015   0.617   3.624  0.1717  0.0313 -0.2262
  124HFI     C3 1972   2.738   0.684   3.378  0.1982 -0.3021 -0.3170
  124HFI     F4 1973   2.724   0.649   3.246 -0.0758  0.1910 -0.0801
  124HFI     F5 1974   2.740   0.816   3.377 -0.1747  0.0794  0.4339
  124HFI     F6 1975   2.635   0.650   3.453  0.4362 -0.1784  0.0777
  124HFI     H1 1976   2.910   0.440   3.517 -0.5829  1.8384  0.5935
  124HFI     H2 1977   2.948   0.647   3.353  0.7106  0.5718  0.0165
  125HFI     O1 1978   1.407   1.635   3.031  0.5241 -0.7883 -0.4084
  125HFI     C1 1979   1.321   1.572   3.133  0.4300  0.1792 -0.1126
  125HFI     C2 1980   1.398   1.534   3.263  0.1348  0.5677  0.1871
  125HFI     F1 1981   1.506   1.462   3.234 -0.5322  0.1444  0.4903
  125HFI     F2 1982   1.325   1.473   3.361  0.0788  0.2752 -0.1956
  125HFI     F3 1983   1.446   1.653   3.308 -0.3695  0.5511 -0.0076
  125HFI     C3 1984   1.253   1.441   3.070 -1.0217 -0.1164  0.0849
  125HFI     F4 1985   1.199   1.464   2.947 -0.2228 -0.3467 -0.4311
  125HFI     F5 1986   1.154   1.386   3.137  0.0481  0.3287  0.1965
  125HFI     F6 1987   1.343   1.337   3.054 -0.2375  0.5817  0.3223
  125HFI     H1 1988   1.483   1.578   3.010  0.5073 -1.1359  0.4317
  125HFI     H2 1989   1.239   1.643   3.144  0.2909 -0.2678  1.9440
  126HFI     O1 1990   1.227   0.091   2.428  0.8781  0.7665 -0.5510
  126HFI     C1 1991   1.288   0.222   2.431 -0.7551 -0.3371  0.2831
  126HFI     C2 1992   1.318   0.287   2.289 -0.1027 -0.1018  0.1517
  126HFI     F1 1993   1.416   0.230   2.214  0.0247 -0.6381 -0.0906
  126HFI     F2 1994   1.352   0.419   2.303 -0.1400  0.4251  0.0977
  126HFI     F3 1995   1.201   0.282   2.214  0.2718  0.1842 -0.1740
  126HFI     C3 1996   1.428   0.216   2.506 -0.4379 -1.0091  0.0807
  126HFI     F4 1997   1.470   0.340   2.527  0.2194 -0.2264 -0.1255
  126HFI     F5 1998   1.527   0.148   2.453 -0.2197  0.5268  0.2979
  126HFI     F6 1999   1.409   0.159   2.625 -1.2207  0.0618 -0.4780
  126HFI     H1 2000   1.199   0.070   2.337  1.2134 -0.9569 -0.2863
  126HFI     H2 2001   1.223   0.293   2.483  0.3136  0.9473 -0.1025
  127HFI     O1 2002   1.931   0.739   0.157 -0.1137 -0.2168 -0.0394
  127HFI     C1 2003   1.999   0.839   0.077 -0.1140 -0.0598 -0.3346
  127HFI     C2 2004   1.914   0.967   0.072 -0.4846  0.0408  1.1183
  127HFI     F1 2005   1.781   0.935   0.055  0.3008  0.1549  0.0219
  127HFI     F2 2006   1.953   1.049  -0.029  0.4259  0.1047  0.2880
  127HFI     F3 2007   1.926   1.043   0.182  0.2838  0.0788 -0.3730
  127HFI     C3 2008   2.036   0.774  -0.059  0.4159 -0.0587  0.1224
  127HFI     F4 2009   2.109   0.853  -0.130  0.2606 -0.0409  0.0519
  127HFI     F5 2010   1.917   0.749  -0.146  0.0425 -0.1952  0.1320
  127HFI     F6 2011   2.095   0.656  -0.034 -0.3238 -0.0234 -0.3334
  127HFI     H1 2012   1.837   0.735   0.131  0.1753 -1.0098 -0.9853
  127HFI     H2 2013   2.099   0.872   0.108  0.0479 -0.0721 -0.8401
  128HFI     O1 2014   3.303   2.706   2.271  0.3208 -0.2064 -0.0726
  128HFI     C1 2015   3.289   2.848   2.257  0.2740  0.2321  0.6182
  128HFI     C2 2016   3.403   2.931   2.331 -0.3317  0.0354  0.6074
  128HFI     F1 2017   3.437   2.878   2.451  0.1566  0.4150 -0.3234
  128HFI     F2 2018   3.383   3.061   2.353  0.9556 -0.0400 -0.0975
  128HFI     F3 2019   3.508   2.926   2.244  0.3185  0.2739 -0.0192
  128HFI     C3 2020   3.141   2.891   2.296 -0.2501  0.1378 -0.3287
  128HFI     F4 2021   3.054   2.828   2.207 -0.0781 -0.1835  0.0077
  128HFI     F5 2022   3.114   3.022   2.291  0.1980 -0.6028  0.2623
  128HFI     F6 2023   3.113   2.851   2.423  0.0845  0.4912  0.2619
  128HFI     H1 2024   3.378   2.686   2.330  0.0191  0.6915  0.6240
  128HFI     H2 2025   3.305   2.874   2.152  1.1977  1.0331  0.9504
  129HFI     O1 2026   0.033   1.994   2.599 -0.4384 -0.3742 -0.4503
  129HFI     C1 2027   0.050   1.952   2.735 -0.3685  0.0408  0.4629
  129HFI     C2 2028   0.002   2.059   2.840 -0.6148 -0.1803 -0.1605
  129HFI     F1 2029  -0.093   2.139   2.793  0.3462  0.2280 -0.0589
  129HFI     F2 2030   0.098   2.136   2.889  0.6118  0.4911  0.3631
  129HFI     F3 2031  -0.047   1.987   2.945  0.0107  0.4257  0.0317
  129HFI     C3 2032   0.188   1.889   2.766 -0.1096  0.1158  0.1226
  129HFI     F4 2033   0.196   1.858   2.896  0.4153 -0.0731  0.5902
  129HFI     F5 2034   0.293   1.977   2.737 -0.1599  0.6385  0.0917
  129HFI     F6 2035   0.208   1.781   2.693 -0.2624  0.2280  0.3382
  129HFI     H1 2036   0.092   2.070   2.587  0.6258 -1.0712  0.2037
  129HFI     H2 2037  -0.017   1.866   2.748  0.1043 -0.6227 -1.3483
  130HFI     O1 2038   0.961   3.411   3.351 -0.0616 -0.4373 -0.4414
  130HFI     C1 2039   1.007   3.273   3.352 -0.6930  0.4806 -0.1323
  130HFI     C2 2040   0.899   3.163   3.385 -0.1478 -0.8075 -0.3286
  130HFI     F1 2041   0.859   3.154   3.516 -0.0039 -0.1523  0.0624
  130HFI     F2 2042   0.940   3.038   3.345 -0.1105  0.0927 -0.2600
  130HFI     F3 2043   0.790   3.199   3.317 -0.4113  0.2637 -0.1888
  130HFI     C3 2044   1.151   3.250   3.413  0.4006  0.5428  0.0246
  130HFI     F4 2045   1.198   3.137   3.358  0.7472 -0.4061  0.8418
  130HFI     F5 2046   1.148   3.231   3.545  1.0113  0.1588  0.5092
  130HFI     F6 2047   1.230   3.353   3.379 -0.4580  0.1858  0.0986
  130HFI     H1 2048   1.024   3.456   3.410 -0.4693  0.4627 -0.6920
  130HFI     H2 2049   1.025   3.248   3.247  0.6318  1.0643 -0.0504
  131HFI     O1 2050   2.056   0.510   0.418 -0.1269 -0.0186 -0.6904
  131HFI     C1 2051   2.048   0.370   0.434 -0.3589 -0.2392  0.3474
  131HFI     C2 2052   2.080   0.286   0.303 -0.4131  0.1559  0.9551
  131HFI     F1 2053   2.006   0.341   0.198  0.0988  0.6552  0.2869
  131HFI     F2 2054   2.040   0.160   0.310  0.4446  0.1114 -0.5793
  131HFI     F3 2055   2.214   0.289   0.280 -0.2160  0.9574 -0.3305
  131HFI     C3 2056   1.911   0.326   0.487 -0.0464 -0.3779  0.2203
  131HFI     F4 2057   1.901   0.204   0.557 -0.6762  0.1330 -0.0267
  131HFI     F5 2058   1.820   0.313   0.388  0.2573 -0.5199  0.1579
  131HFI     F6 2059   1.857   0.422   0.563 -0.3739  0.2469  0.0903
  131HFI     H1 2060   2.039   0.535   0.326 -1.4390  2.9767  0.3107
  131HFI     H2 2061   2.126   0.352   0.510 -0.2363  2.5567  0.9397
  132HFI     O1 2062   0.580   2.255   0.367  0.4455 -0.1422 -0.1606
  132HFI     C1 2063   0.500   2.312   0.476  0.0970  0.1557 -0.0420
  132HFI     C2 2064   0.562   2.451   0.516 -0.0840 -0.1047  1.0015
  132HFI     F1 2065   0.669   2.451   0.595 -0.3187 -0.3952 -0.5330
  132HFI     F2 2066   0.465   2.518   0.580  0.1401  0.4133  0.3498
  132HFI     F3 2067   0.586   2.525   0.411 -0.2555  0.1536 -0.5185
  132HFI     C3 2068   0.492   2.219   0.603  0.4653 -0.4002 -0.2427
  132HFI     F4 2069   0.434   2.282   0.708 -0.0393  0.4992 -0.5964
  132HFI     F5 2070   0.614   2.185   0.641 -0.0250  0.2245  0.2025
  132HFI     F6 2071   0.424   2.105   0.583  0.1675  0.2833  0.0109
  132HFI     H1 2072   0.611   2.324   0.307  0.0909 -0.3241 -0.5552
  132HFI     H2 2073   0.399   2.336   0.442  0.0671 -0.4471 -0.3906
  133HFI     O1 2074   2.022   1.085   2.227  0.3077  0.1517  0.6179
  133HFI     C1 2075   1.992   1.164   2.349 -0.8114 -0.2696  0.5054
  133HFI     C2 2076   1.882   1.095   2.438  0.3295 -0.1277  0.0115
  133HFI     F1 2077   1.908   0.964   2.450  0.5444  0.1709 -0.2216
  133HFI     F2 2078   1.759   1.119   2.376  0.3689  0.3118  0.3463
  133HFI     F3 2079   1.876   1.153   2.560  0.2167 -0.2870 -0.6452
  133HFI     C3 2080   1.956   1.312   2.310 -0.0945 -0.2601  0.5686
  133HFI     F4 2081   2.051   1.375   2.232 -0.0203 -0.3655 -0.0727
  133HFI     F5 2082   1.947   1.394   2.424 -1.0753  0.4539  0.3074
  133HFI     F6 2083   1.837   1.325   2.248 -0.4999 -0.1068 -0.0873
  133HFI     H1 2084   1.982   1.130   2.151  2.1265  0.6090 -0.0884
  133HFI     H2 2085   2.080   1.159   2.415 -2.0441 -0.7196  2.1365
  134HFI     O1 2086   1.685   0.376   3.290 -0.3838 -0.5188 -0.1073
  134HFI     C1 2087   1.548   0.372   3.329 -0.0575  0.2571  0.0876
  134HFI     C2 2088   1.460   0.300   3.224 -0.1662  0.8131  0.4176
  134HFI     F1 2089   1.337   0.276   3.271 -0.3965 -0.0576 -0.1187
  134HFI     F2 2090   1.509   0.175   3.182 -0.1041  0.0792  0.2214
  134HFI     F3 2091   1.449   0.371   3.114  0.2189 -0.0875 -0.6508
  134HFI     C3 2092   1.495   0.515   3.358  0.5239  0.3097  0.1969
  134HFI     F4 2093   1.516   0.593   3.255  0.0636 -1.0264 -0.5831
  134HFI     F5 2094   1.555   0.571   3.466  1.0365 -0.7476 -0.1348
  134HFI     F6 2095   1.362   0.518   3.394 -0.7319  0.0796  0.0422
  134HFI     H1 2096   1.684   0.353   3.195 -1.7266  0.3413 -0.3150
  134HFI     H2 2097   1.537   0.315   3.422  2.2514 -1.5757 -0.7320
  135HFI     O1 2098   1.949   2.967   2.494 -0.3111 -0.2469  0.6816
  135HFI     C1 2099   2.089   3.003   2.450  0.0910 -0.1769  0.3611
  135HFI     C2 2100   2.079   3.115   2.344  0.0920  0.3251  0.2671
  135HFI     F1 2101   2.032   3.228   2.406  0.0638  0.2228 -0.2972
  135HFI     F2 2102   1.981   3.087   2.251  0.0787  0.4204 -0.0796
  135HFI     F3 2103   2.192   3.145   2.276 -0.2942 -0.4740  0.1861
  135HFI     C3 2104   2.173   2.880   2.418 -0.5032 -0.6283 -0.7244
  135HFI     F4 2105   2.137   2.791   2.511  0.0909  0.2193 -0.2192
  135HFI     F5 2106   2.307   2.899   2.421 -0.2267 -0.6902 -0.1436
  135HFI     F6 2107   2.144   2.835   2.294  0.2336  0.7222  0.4902
  135HFI     H1 2108   1.890   2.966   2.417  0.6643  2.9381 -0.1850
  135HFI     H2 2109   2.141   3.058   2.529  1.5273 -2.6003  1.1338
  136HFI     O1 2110   0.180   2.234   2.505 -0.0858  0.3685 -0.5614
  136HFI     C1 2111   0.152   2.356   2.426  0.3100  0.8600  0.2682
  136HFI     C2 2112   0.061   2.450   2.516  0.3268 -0.0390 -0.2933
  136HFI     F1 2113   0.061   2.575   2.460 -0.3918  0.2323 -0.0701
  136HFI     F2 2114   0.114   2.456   2.640 -0.2564 -0.0564 -0.4692
  136HFI     F3 2115  -0.067   2.408   2.525  0.1915  0.0751  0.1103
  136HFI     C3 2116   0.103   2.326   2.286  0.4819 -0.1881 -0.7158
  136HFI     F4 2117   0.189   2.246   2.228  0.1695  0.2733 -0.6516
  136HFI     F5 2118   0.088   2.441   2.219 -0.3859 -0.4826  0.7319
  136HFI     F6 2119  -0.013   2.259   2.293 -0.0209 -0.0204  0.1748
  136HFI     H1 2120   0.270   2.204   2.487  0.2171  0.7221  0.3266
  136HFI     H2 2121   0.249   2.406   2.411  1.1338 -0.8527 -0.3051
  137HFI     O1 2122   1.627   1.541   3.710 -0.3307 -0.1149 -0.3791
  137HFI     C1 2123   1.545   1.532   3.831 -0.1027  0.1533 -0.3976
  137HFI     C2 2124   1.500   1.383   3.853 -0.6148 -0.3485  0.3440
  137HFI     F1 2125   1.605   1.291   3.852 -0.1900 -0.0925 -0.3473
  137HFI     F2 2126   1.406   1.340   3.766 -0.3336 -0.1662 -0.5806
  137HFI     F3 2127   1.447   1.370   3.978 -0.3355 -0.0218  0.0849
  137HFI     C3 2128   1.438   1.638   3.842 -0.4679  0.4657 -0.6341
  137HFI     F4 2129   1.496   1.757   3.843 -0.3295  0.0527 -0.2164
  137HFI     F5 2130   1.359   1.633   3.951  0.1111  0.2594 -0.0249
  137HFI     F6 2131   1.351   1.641   3.734 -0.0586  0.0136  0.0177
  137HFI     H1 2132   1.624   1.454   3.666 -0.9257 -0.1663 -0.2386
  137HFI     H2 2133   1.609   1.557   3.917 -1.6445  2.3732  0.1386
  138HFI     O1 2134   1.803   2.007   2.313  0.2998  0.0907  0.7447
  138HFI     C1 2135   1.889   1.901   2.269 -0.5299  0.2505  0.0483
  138HFI     C2 2136   1.836   1.766   2.317  0.4351 -0.2221  0.4666
  138HFI     F1 2137   1.716   1.746   2.255  0.5289 -0.5764 -0.4306
  138HFI     F2 2138   1.827   1.766   2.452 -0.4206  0.1464 -0.3088
  138HFI     F3 2139   1.925   1.669   2.285  0.4053  0.2811  0.0069
  138HFI     C3 2140   2.035   1.930   2.316 -0.0861 -0.3899 -0.2168
  138HFI     F4 2141   2.045   1.959   2.450 -0.1134  0.3535  0.7912
  138HFI     F5 2142   2.079   2.033   2.253 -0.0079 -0.0555  0.9076
  138HFI     F6 2143   2.124   1.835   2.289  0.2299 -0.8378 -0.3305
  138HFI     H1 2144   1.842   2.044   2.394  3.0025  0.3366 -0.6012
  138HFI     H2 2145   1.894   1.892   2.160 -0.7592  1.0447 -0.0333
  139HFI     O1 2146   2.302   2.397   0.161  0.7628  0.3065  0.4585
  139HFI     C1 2147   2.316   2.272   0.083 -0.3684  0.2471 -0.0312
  139HFI     C2 2148   2.349   2.146   0.174  0.4420 -0.4842  0.8693
  139HFI     F1 2149   2.284   2.177   0.287  0.2266  0.0728 -0.2267
  139HFI     F2 2150   2.476   2.134   0.208 -0.2765 -0.1008  0.0819
  139HFI     F3 2151   2.305   2.032   0.121  0.1208 -0.1068 -0.0401
  139HFI     C3 2152   2.422   2.290  -0.032 -0.2867  0.2507  1.1803
  139HFI     F4 2153   2.541   2.340   0.011  0.4786  0.8319  0.0783
  139HFI     F5 2154   2.367   2.375  -0.120 -0.5699 -0.5996 -0.0471
  139HFI     F6 2155   2.442   2.175  -0.104  0.7399  0.5355 -0.5934
  139HFI     H1 2156   2.289   2.367   0.252  0.2617  0.9611  0.6073
  139HFI     H2 2157   2.221   2.238   0.039 -0.2284 -1.1702  0.7143
  140HFI     O1 2158   3.207   1.509   3.606  0.0662 -0.6012  0.1959
  140HFI     C1 2159   3.189   1.370   3.653  0.2413  1.0665 -0.0098
  140HFI     C2 2160   3.278   1.340   3.771  0.4110  0.0187 -0.1270
  140HFI     F1 2161   3.255   1.427   3.875 -0.2542 -0.0418 -0.0733
  140HFI     F2 2162   3.408   1.339   3.729 -0.3057 -0.2561 -0.5904
  140HFI     F3 2163   3.254   1.216   3.811 -0.6708 -0.3964  0.4023
  140HFI     C3 2164   3.191   1.268   3.527 -0.0375  0.0639 -0.3806
  140HFI     F4 2165   3.256   1.153   3.555 -0.7798  0.3900  0.5626
  140HFI     F5 2166   3.259   1.320   3.422  0.5044 -0.2755  0.2142
  140HFI     F6 2167   3.071   1.235   3.491 -0.4673 -0.2742  0.6311
  140HFI     H1 2168   3.214   1.515   3.509  2.0796  0.0222  0.3521
  140HFI     H2 2169   3.084   1.363   3.684  0.4421 -1.1147  0.2560
  141HFI     O1 2170   1.220   2.455   2.657  0.3443 -0.3084  0.4611
  141HFI     C1 2171   1.252   2.446   2.797  0.2116 -0.2657  0.0783
  141HFI     C2 2172   1.188   2.567   2.868  0.2263 -0.9069  0.0263
  141HFI     F1 2173   1.048   2.556   2.858  0.1587  0.2208  0.1479
  141HFI     F2 2174   1.234   2.685   2.823  0.5623 -0.3653  0.0411
  141HFI     F3 2175   1.224   2.559   3.001 -0.4281  0.0160  0.1876
  141HFI     C3 2176   1.404   2.440   2.837 -0.3427  0.0829 -1.0361
  141HFI     F4 2177   1.464   2.557   2.847  0.3251  0.1279  0.3262
  141HFI     F5 2178   1.464   2.368   2.740 -0.1571  1.0123  0.2982
  141HFI     F6 2179   1.417   2.375   2.951  0.6959  0.4722  0.4418
  141HFI     H1 2180   1.269   2.528   2.616  0.4530  0.2232  1.5046
  141HFI     H2 2181   1.206   2.352   2.831  0.7933 -0.0607  1.4599
  142HFI     O1 2182   0.452   1.303   0.682 -0.9447 -0.5423  0.0617
  142HFI     C1 2183   0.462   1.191   0.587 -0.1024 -0.6848 -0.3081
  142HFI     C2 2184   0.608   1.163   0.544  0.2644 -0.4466  0.3776
  142HFI     F1 2185   0.614   1.041   0.498  0.1756  0.1149  0.2876
  142HFI     F2 2186   0.687   1.166   0.651 -0.3746 -0.2642 -0.2159
  142HFI     F3 2187   0.661   1.250   0.450  0.3408 -0.5565 -0.3230
  142HFI     C3 2188   0.356   1.213   0.472 -0.5218  0.2229 -0.3439
  142HFI     F4 2189   0.246   1.269   0.521  0.7214  0.1665 -0.2771
  142HFI     F5 2190   0.315   1.097   0.417  0.9826  0.3580  0.0888
  142HFI     F6 2191   0.400   1.293   0.362 -0.7087  0.6255 -0.4714
  142HFI     H1 2192   0.532   1.306   0.736 -0.5020 -2.2873 -0.4261
  142HFI     H2 2193   0.433   1.093   0.628  1.6821 -1.5688 -1.0817
  143HFI     O1 2194   0.290   3.358   2.820 -0.0053 -0.6163 -0.4518
  143HFI     C1 2195   0.401   3.288   2.888 -0.2252  0.4491 -0.3438
  143HFI     C2 2196   0.536   3.356   2.846  0.2341  0.4841  0.9314
  143HFI     F1 2197   0.534   3.347   2.712 -0.0177  0.4677  0.0488
  143HFI     F2 2198   0.649   3.301   2.890 -0.0170 -0.5750  0.2698
  143HFI     F3 2199   0.540   3.489   2.869 -0.1425 -0.0705 -0.2903
  143HFI     C3 2200   0.402   3.136   2.852 -0.4454  0.0187  0.1447
  143HFI     F4 2201   0.511   3.072   2.900 -0.2062 -0.2216  0.1476
  143HFI     F5 2202   0.400   3.124   2.717 -0.3725 -0.3175  0.5010
  143HFI     F6 2203   0.290   3.080   2.895  0.0543  0.0756 -0.3567
  143HFI     H1 2204   0.284   3.453   2.838 -0.0486 -0.8434  0.8169
  143HFI     H2 2205   0.388   3.300   2.996  0.9224  0.2860 -0.1833
  144HFI     O1 2206   2.750   2.202   0.184 -0.0760  0.5057 -0.0238
  144HFI     C1 2207   2.831   2.142   0.290  0.4661  0.1011  0.2256
  144HFI     C2 2208   2.755   2.128   0.422  0.4121  0.5621 -0.6899
  144HFI     F1 2209   2.721   2.244   0.485 -0.1792  0.1861  0.1585
  144HFI     F2 2210   2.823   2.055   0.512 -0.2311 -0.2530 -0.2901
  144HFI     F3 2211   2.645   2.060   0.400  0.2137 -0.0752  0.0986
  144HFI     C3 2212   2.956   2.219   0.316  0.4230 -0.3020  0.1920
  144HFI     F4 2213   3.032   2.163   0.410 -0.0975  0.6022 -0.2942
  144HFI     F5 2214   2.926   2.350   0.351 -0.3813  0.1799 -0.2011
  144HFI     F6 2215   3.035   2.211   0.212  0.0952  0.1066  0.5933
  144HFI     H1 2216   2.669   2.148   0.178  1.6022 -2.0490 -0.1379
  144HFI     H2 2217   2.874   2.043   0.266  3.1454  1.7766 -2.1390
  145HFI     O1 2218   1.846   3.037   3.441 -0.0343 -0.0206 -0.0658
  145HFI     C1 2219   1.931   3.079   3.316 -0.5741 -0.4038  0.5796
  145HFI     C2 2220   2.071   3.147   3.356 -0.4890 -0.1357  0.1875
  145HFI     F1 2221   2.141   3.197   3.256 -0.1785  0.1214  0.6223
  145HFI     F2 2222   2.148   3.057   3.410  0.3292 -0.1155  0.4848
  145HFI     F3 2223   2.056   3.248   3.441  0.4877 -0.1448  0.5495
  145HFI     C3 2224   1.856   3.156   3.210 -0.9005 -0.6829  0.2371
  145HFI     F4 2225   1.742   3.093   3.186  0.1944  0.2692 -0.1395
  145HFI     F5 2226   1.925   3.152   3.097 -0.4144 -0.4698  0.9988
  145HFI     F6 2227   1.831   3.283   3.246 -0.5070  0.4935 -0.4042
  145HFI     H1 2228   1.902   3.003   3.513 -1.5748 -0.6698  0.8479
  145HFI     H2 2229   1.959   2.982   3.274  0.0610  0.2840 -0.6218
  146HFI     O1 2230   2.639   1.770   2.489 -0.3733  0.1678  0.4658
  146HFI     C1 2231   2.671   1.841   2.372 -0.1106 -0.2955 -0.6072
  146HFI     C2 2232   2.542   1.854   2.285 -0.4432 -0.6059 -1.0761
  146HFI     F1 2233   2.513   1.742   2.231  0.2737  0.1852 -0.2463
  146HFI     F2 2234   2.562   1.951   2.196  0.2188 -0.2587 -0.4490
  146HFI     F3 2235   2.441   1.892   2.371 -0.5205 -0.0252  0.5200
  146HFI     C3 2236   2.796   1.789   2.292  0.5667 -0.0310 -0.5856
  146HFI     F4 2237   2.777   1.670   2.224  0.6125 -0.1585 -0.3532
  146HFI     F5 2238   2.900   1.768   2.376  0.1124  0.9957 -0.1321
  146HFI     F6 2239   2.834   1.889   2.209 -0.0677  0.4998 -0.4827
  146HFI     H1 2240   2.609   1.680   2.468  0.6859 -1.0202  3.6383
  146HFI     H2 2241   2.697   1.944   2.398  0.7013 -0.6390 -0.0002
  147HFI     O1 2242   2.861   3.064   2.952 -0.1838 -0.0749 -0.0887
  147HFI     C1 2243   2.800   3.184   2.875 -0.5381  0.1886  0.7240
  147HFI     C2 2244   2.750   3.144   2.735  0.3644  0.1527 -0.7111
  147HFI     F1 2245   2.658   3.037   2.751  0.3122  0.6098  0.3968
  147HFI     F2 2246   2.850   3.108   2.653  0.6149 -0.1204 -0.0866
  147HFI     F3 2247   2.682   3.254   2.683 -0.2252 -0.3448 -0.8828
  147HFI     C3 2248   2.906   3.292   2.869 -0.0690  0.1055 -0.1475
  147HFI     F4 2249   3.026   3.246   2.820  0.3421 -0.6439 -0.4474
  147HFI     F5 2250   2.929   3.327   2.994  0.0316 -0.5623 -0.2176
  147HFI     F6 2251   2.865   3.400   2.799  0.1577 -0.5376  0.0253
  147HFI     H1 2252   2.887   2.995   2.889  0.3065  2.1080 -2.3771
  147HFI     H2 2253   2.711   3.208   2.935  0.5079 -0.2321  2.4784
  148HFI     O1 2254   2.567   0.031   2.511  0.0785  0.1145 -0.2259
  148HFI     C1 2255   2.466   0.088   2.419 -0.0043 -0.7229  0.3519
  148HFI     C2 2256   2.387  -0.031   2.351 -0.0145 -0.0900  0.7935
  148HFI     F1 2257   2.465  -0.122   2.288 -0.3279 -0.1494  0.7637
  148HFI     F2 2258   2.282   0.019   2.280 -0.4182  0.0770  0.2266
  148HFI     F3 2259   2.329  -0.102   2.456 -0.3728  0.2723 -0.1378
  148HFI     C3 2260   2.533   0.184   2.321  0.6412  0.2713  0.5163
  148HFI     F4 2261   2.624   0.267   2.382 -0.1884 -0.2413 -0.1031
  148HFI     F5 2262   2.443   0.253   2.248 -0.0264 -0.2976 -0.1864
  148HFI     F6 2263   2.606   0.116   2.227 -0.4705  0.1994 -0.0858
  148HFI     H1 2264   2.633  -0.018   2.459 -0.7335 -1.1707 -0.0841
  148HFI     H2 2265   2.382   0.138   2.468  0.3673  1.0605 -0.7733
  149HFI     O1 2266   1.398   1.841   2.265  0.2029  0.3789 -0.5325
  149HFI     C1 2267   1.428   1.947   2.357 -0.6695  0.3331  0.0094
  149HFI     C2 2268   1.437   1.895   2.498 -0.7922 -0.3088 -0.1975
  149HFI     F1 2269   1.513   1.784   2.497  0.0056  0.2943  0.1703
  149HFI     F2 2270   1.316   1.855   2.554  0.0505  0.4736  0.0352
  149HFI     F3 2271   1.499   1.986   2.581 -0.0619 -0.0402 -0.4578
  149HFI     C3 2272   1.324   2.069   2.331 -0.2341  0.7279 -0.7206
  149HFI     F4 2273   1.332   2.164   2.419  0.2337  0.1418 -0.0722
  149HFI     F5 2274   1.199   2.029   2.329 -0.0124 -0.1159  0.2956
  149HFI     F6 2275   1.350   2.124   2.216 -0.3085 -0.1429 -0.2432
  149HFI     H1 2276   1.459   1.769   2.287  0.7684  0.9935 -0.0808
  149HFI     H2 2277   1.525   1.993   2.336 -0.9839  0.1968 -1.9077
  150HFI     O1 2278   2.610   1.489   2.406 -0.0849  0.2201  0.3801
  150HFI     C1 2279   2.579   1.400   2.294 -0.1409 -0.1014  0.2799
  150HFI     C2 2280   2.434   1.345   2.309  0.0073 -0.3431 -0.2660
  150HFI     F1 2281   2.341   1.443   2.288  0.6862  0.2562 -0.0425
  150HFI     F2 2282   2.412   1.286   2.431  0.3422 -0.5865  0.0474
  150HFI     F3 2283   2.406   1.244   2.227  0.4412 -0.3259 -0.0623
  150HFI     C3 2284   2.679   1.280   2.293  0.5133 -0.0967  0.0758
  150HFI     F4 2285   2.666   1.198   2.400 -0.0644 -0.6296  0.4872
  150HFI     F5 2286   2.806   1.338   2.309  0.0607 -0.4699  0.2920
  150HFI     F6 2287   2.674   1.212   2.179 -0.1680 -0.3516 -0.4191
  150HFI     H1 2288   2.697   1.464   2.440  0.1847  2.5320  1.4643
  150HFI     H2 2289   2.588   1.460   2.202  0.4401 -0.7525 -0.0969
  151HFI     O1 2290   1.556   1.159   3.404 -0.9589  0.2010 -0.6884
  151HFI     C1 2291   1.489   1.040   3.453 -0.2505  0.4600  0.0005
  151HFI     C2 2292   1.586   0.963   3.550  0.2386  0.1761  0.6266
  151HFI     F1 2293   1.635   1.042   3.645  0.2864  0.0231 -0.0939
  151HFI     F2 2294   1.686   0.914   3.480 -0.0572  0.1865 -0.5733
  151HFI     F3 2295   1.519   0.861   3.611 -0.5370  0.5898  0.0418
  151HFI     C3 2296   1.421   0.968   3.330 -0.1987  0.6285  0.6362
  151HFI     F4 2297   1.387   0.847   3.367 -0.3679 -0.2005 -0.6147
  151HFI     F5 2298   1.496   0.956   3.217 -0.2263  0.1145  0.2763
  151HFI     F6 2299   1.304   1.038   3.296 -0.2015 -0.0748 -0.0496
  151HFI     H1 2300   1.617   1.119   3.339 -0.1526  2.2919 -1.2384
  151HFI     H2 2301   1.407   1.067   3.521 -1.1927 -2.3975  0.0488
  152HFI     O1 2302   2.600   3.154   0.065 -0.2297 -0.6910 -0.2832
  152HFI     C1 2303   2.688   3.191   0.180  0.2953 -0.7069 -0.0344
  152HFI     C2 2304   2.635   3.156   0.320 -0.2878 -0.2583 -0.0590
  152HFI     F1 2305   2.627   3.022   0.328  0.4726  0.1882  0.5509
  152HFI     F2 2306   2.515   3.210   0.351 -0.3775 -0.1997 -0.2611
  152HFI     F3 2307   2.719   3.199   0.412 -0.1426 -0.1915  0.7996
  152HFI     C3 2308   2.731   3.344   0.173  0.1532 -0.1016  0.3238
  152HFI     F4 2309   2.854   3.360   0.225  0.0737  0.1125  0.4090
  152HFI     F5 2310   2.648   3.425   0.235 -0.2789 -0.0721 -0.5926
  152HFI     F6 2311   2.746   3.384   0.045  0.0697 -0.0203  0.4383
  152HFI     H1 2312   2.528   3.218   0.075  0.9971  0.5436  0.9598
  152HFI     H2 2313   2.780   3.132   0.166 -0.1119 -1.7673  1.5762
  153HFI     O1 2314   0.531   1.847   2.418 -0.0240  0.0462  0.5815
  153HFI     C1 2315   0.477   1.929   2.313 -0.3372  0.0942 -0.4909
  153HFI     C2 2316   0.522   2.075   2.316 -0.3395 -0.9513 -0.8225
  153HFI     F1 2317   0.503   2.135   2.202  0.1619  0.3291  0.4854
  153HFI     F2 2318   0.653   2.088   2.347 -0.0572 -0.1812  0.4769
  153HFI     F3 2319   0.462   2.152   2.408  0.1366 -0.4317 -0.3098
  153HFI     C3 2320   0.329   1.894   2.297 -0.0899  0.7422  1.7508
  153HFI     F4 2321   0.252   1.939   2.400 -0.1454  0.1752 -0.0818
  153HFI     F5 2322   0.305   1.764   2.282 -0.4074  0.3365  0.2032
  153HFI     F6 2323   0.267   1.960   2.197 -0.0205  0.4352  0.2568
  153HFI     H1 2324   0.474   1.851   2.497 -0.5746 -0.8555  0.2370
  153HFI     H2 2325   0.518   1.885   2.221  0.7136 -1.1933  0.5703
  154HFI     O1 2326   0.589   0.465   0.253 -0.2509  0.2753 -0.1596
  154HFI     C1 2327   0.567   0.579   0.170 -0.1384  0.0702  0.3445
  154HFI     C2 2328   0.663   0.571   0.044  0.0969 -0.2919 -0.8811
  154HFI     F1 2329   0.792   0.570   0.085  0.2234  0.6744 -0.5130
  154HFI     F2 2330   0.643   0.669  -0.045  0.5984 -0.1030  0.2344
  154HFI     F3 2331   0.634   0.458  -0.024  0.3066  0.1281  0.2473
  154HFI     C3 2332   0.586   0.713   0.244 -0.0204  0.3060  0.1331
  154HFI     F4 2333   0.702   0.711   0.321 -0.1173 -0.5506 -0.0577
  154HFI     F5 2334   0.483   0.736   0.321 -0.2193 -0.1873 -0.0119
  154HFI     F6 2335   0.590   0.817   0.165 -0.1300  0.4648 -0.1911
  154HFI     H1 2336   0.686   0.458   0.264 -0.2523 -0.9447 -0.9100
  154HFI     H2 2337   0.464   0.575   0.133 -0.1550 -2.7694  0.5612
  155HFI     O1 2338   1.151   2.859   2.194 -0.1958  0.3108 -0.0499
  155HFI     C1 2339   1.059   2.821   2.298 -0.0698 -0.1513  0.6282
  155HFI     C2 2340   0.956   2.937   2.319  0.0832  0.0998  0.1896
  155HFI     F1 2341   1.012   3.039   2.393 -0.1853 -0.3465  0.1851
  155HFI     F2 2342   0.843   2.886   2.385  0.6142  0.1874  0.8353
  155HFI     F3 2343   0.911   2.988   2.198  0.1365 -0.2752 -0.3039
  155HFI     C3 2344   1.126   2.787   2.436  0.2945  0.2819  0.0594
  155HFI     F4 2345   1.041   2.797   2.541  0.3284  0.1147  0.1910
  155HFI     F5 2346   1.234   2.870   2.467  0.5797  0.1089  0.4514
  155HFI     F6 2347   1.182   2.668   2.436  0.2001  0.1578  0.1418
  155HFI     H1 2348   1.239   2.876   2.231 -0.9320  2.1101  0.8973
  155HFI     H2 2349   0.996   2.740   2.260  0.9384 -0.0305 -1.3305
  156HFI     O1 2350   2.578   1.841   2.748 -0.9572 -0.1872 -0.1929
  156HFI     C1 2351   2.480   1.769   2.823  0.2734  0.2706 -0.0608
  156HFI     C2 2352   2.382   1.684   2.740 -0.0110  0.6584 -0.3332
  156HFI     F1 2353   2.445   1.604   2.654 -0.3652 -0.3477  0.2721
  156HFI     F2 2354   2.300   1.764   2.664 -0.0700 -0.6439 -0.0576
  156HFI     F3 2355   2.304   1.612   2.819 -0.5044 -0.8318  0.5837
  156HFI     C3 2356   2.409   1.863   2.925  0.9430 -0.0122 -0.4912
  156HFI     F4 2357   2.361   1.968   2.856  0.0138 -0.0524  0.4264
  156HFI     F5 2358   2.499   1.916   3.006 -0.3693  0.3815  0.5663
  156HFI     F6 2359   2.322   1.798   3.005  0.0200 -0.0916 -0.1728
  156HFI     H1 2360   2.551   1.832   2.655 -3.2819 -1.9439  0.5780
  156HFI     H2 2361   2.527   1.687   2.877 -0.0802  0.0251 -0.1205
  157HFI     O1 2362   1.515   2.172   0.444 -1.0252 -0.0299 -0.1491
  157HFI     C1 2363   1.517   2.056   0.534  0.0536  0.5744  0.5418
  157HFI     C2 2364   1.604   1.935   0.477 -0.5486 -0.4495  0.5617
  157HFI     F1 2365   1.561   1.890   0.362 -0.1759 -0.4263 -0.0436
  157HFI     F2 2366   1.602   1.840   0.572  0.1186 -0.3623  0.0461
  157HFI     F3 2367   1.734   1.966   0.454  0.0880 -0.4365 -0.1294
  157HFI     C3 2368   1.366   2.008   0.560  0.5875 -0.4872 -0.6467
  157HFI     F4 2369   1.377   1.913   0.658  0.3069 -0.2205  0.6876
  157HFI     F5 2370   1.307   1.952   0.448  0.6041 -0.2121  0.1441
  157HFI     F6 2371   1.289   2.108   0.609 -0.7090 -0.2989 -0.6451
  157HFI     H1 2372   1.520   2.251   0.500 -2.7292 -0.2167  0.3035
  157HFI     H2 2373   1.568   2.084   0.627 -1.7221  1.7898  1.1782
  158HFI     O1 2374   1.618   2.352   3.671 -0.5268  0.2194 -0.0932
  158HFI     C1 2375   1.755   2.308   3.691 -0.2950  0.3500  0.5257
  158HFI     C2 2376   1.791   2.307   3.836 -0.0339  0.9629 -0.7165
  158HFI     F1 2377   1.925   2.304   3.859  0.0004 -0.0384 -0.1235
  158HFI     F2 2378   1.737   2.206   3.911  0.7410  0.1798 -0.1691
  158HFI     F3 2379   1.745   2.421   3.894 -0.0142 -0.3735 -0.3621
  158HFI     C3 2380   1.855   2.380   3.597 -0.2006 -0.4785 -0.5409
  158HFI     F4 2381   1.982   2.338   3.616  0.1084  0.1071  0.3125
  158HFI     F5 2382   1.859   2.515   3.614  0.1809 -0.4671 -0.1822
  158HFI     F6 2383   1.825   2.345   3.468  0.5894 -0.0228 -0.5855
  158HFI     H1 2384   1.566   2.289   3.724 -0.7055 -2.3068 -3.1014
  158HFI     H2 2385   1.769   2.205   3.657 -1.1539  0.3752  0.0727
  159HFI     O1 2386   2.121   0.388   3.285 -0.4384 -0.0865 -0.2446
  159HFI     C1 2387   2.078   0.354   3.419 -0.1607 -0.5151 -0.3815
  159HFI     C2 2388   2.180   0.401   3.526 -0.3025  0.2564 -0.0329
  159HFI     F1 2389   2.299   0.330   3.513  0.0165 -0.5616 -0.3542
  159HFI     F2 2390   2.137   0.368   3.653  0.7496 -0.6308 -0.3696
  159HFI     F3 2391   2.212   0.529   3.524  0.4043 -0.1348  0.3007
  159HFI     C3 2392   2.020   0.211   3.419 -0.5681 -0.0920 -0.3415
  159HFI     F4 2393   1.965   0.187   3.301  0.1096  0.0007  0.4248
  159HFI     F5 2394   1.922   0.204   3.511  0.4113 -0.2979  0.1541
  159HFI     F6 2395   2.118   0.115   3.440  0.0046 -0.1603  0.1788
  159HFI     H1 2396   2.069   0.340   3.218  0.1403  2.3516 -2.5125
  159HFI     H2 2397   1.990   0.416   3.434 -1.3860 -2.0314 -1.1796
  160HFI     O1 2398   0.644   3.434   0.029 -0.1569 -0.1803  0.3823
  160HFI     C1 2399   0.670   3.320   0.122 -0.6246  0.1998 -0.3129
  160HFI     C2 2400   0.821   3.286   0.134 -0.3192 -0.8560  0.1756
  160HFI     F1 2401   0.848   3.187   0.228  0.4619  0.0249  0.0440
  160HFI     F2 2402   0.884   3.400   0.182  0.7785 -1.1542  0.3064
  160HFI     F3 2403   0.874   3.251   0.014  0.2736 -0.1893  0.5968
  160HFI     C3 2404   0.573   3.196   0.090 -0.0147 -0.4383  0.7890
  160HFI     F4 2405   0.588   3.152  -0.035 -0.1804 -0.2130 -0.0680
  160HFI     F5 2406   0.446   3.235   0.097  0.6107  0.2039  0.0711
  160HFI     F6 2407   0.579   3.089   0.171  0.1087 -0.4668 -0.5837
  160HFI     H1 2408   0.726   3.438  -0.023 -0.8514 -2.1792 -0.9492
  160HFI     H2 2409   0.629   3.360   0.216  0.3559  1.5848 -0.4581
  161HFI     O1 2410   2.959   3.072   3.236  0.1315  0.2122 -0.6575
  161HFI     C1 2411   3.066   2.987   3.295  0.0586 -0.2363  0.0566
  161HFI     C2 2412   3.211   3.015   3.243  0.3844  0.1704  0.1951
  161HFI     F1 2413   3.235   3.152   3.237 -0.0743 -0.3448  0.0975
  161HFI     F2 2414   3.234   2.970   3.122  0.4673 -0.5943 -0.3080
  161HFI     F3 2415   3.305   2.956   3.326  0.0172 -0.1537 -0.3174
  161HFI     C3 2416   3.026   2.839   3.287  0.6952 -0.2957 -0.2124
  161HFI     F4 2417   3.121   2.747   3.309  0.0811  0.1633 -0.2830
  161HFI     F5 2418   2.970   2.815   3.169  0.1605 -0.2047  0.0664
  161HFI     F6 2419   2.930   2.816   3.376  0.1136  0.2316 -0.1226
  161HFI     H1 2420   2.927   3.047   3.147  1.6618  1.0074 -1.4656
  161HFI     H2 2421   3.075   3.014   3.401 -3.1654  0.1109  0.2774
  162HFI     O1 2422   0.040   3.283   2.929  0.1041 -0.3407 -0.1426
  162HFI     C1 2423  -0.070   3.269   2.840 -0.3882  0.0029  0.1918
  162HFI     C2 2424  -0.061   3.123   2.775 -0.5352  0.1047  0.1552
  162HFI     F1 2425  -0.040   3.021   2.865 -0.1928 -0.1414  0.4585
  162HFI     F2 2426   0.052   3.120   2.699 -0.1276 -0.4769 -0.3693
  162HFI     F3 2427  -0.166   3.082   2.695 -0.0402 -0.0614 -0.1490
  162HFI     C3 2428  -0.068   3.380   2.728  0.1572  0.1787 -0.0846
  162HFI     F4 2429  -0.113   3.497   2.784  0.6919  0.0628  0.1863
  162HFI     F5 2430  -0.161   3.339   2.625  0.2534 -0.1225 -0.3454
  162HFI     F6 2431   0.053   3.407   2.672  0.1114 -0.7074  0.0132
  162HFI     H1 2432   0.114   3.294   2.867  0.2402  0.4227  0.1434
  162HFI     H2 2433  -0.163   3.280   2.897  0.9238  1.5366  2.0867
  163HFI     O1 2434   0.949   1.170   2.341  0.2597 -0.0309  0.1280
  163HFI     C1 2435   0.899   1.050   2.263 -0.1884 -0.1761  0.0240
  163HFI     C2 2436   0.743   1.019   2.284 -0.0972 -0.5318 -0.6964
  163HFI     F1 2437   0.675   1.132   2.271 -0.0870  0.1592  0.0267
  163HFI     F2 2438   0.718   0.965   2.403 -0.1944  0.0271  0.3650
  163HFI     F3 2439   0.695   0.940   2.189 -0.1140 -0.7400  0.3277
  163HFI     C3 2440   0.991   0.927   2.293 -0.1819 -0.3013  0.4415
  163HFI     F4 2441   0.994   0.895   2.423 -0.2281  0.0934 -0.2486
  163HFI     F5 2442   1.119   0.955   2.260 -0.3914  0.1948  0.5408
  163HFI     F6 2443   0.955   0.816   2.215  0.1641  0.1796  0.2527
  163HFI     H1 2444   0.934   1.162   2.437  0.0986  0.6692  0.1682
  163HFI     H2 2445   0.914   1.064   2.155  0.2199 -1.2764 -0.0681
  164HFI     O1 2446   0.585   2.392   2.954  0.0620  0.1922  0.6463
  164HFI     C1 2447   0.581   2.314   2.828 -0.3715  0.1732  0.1659
  164HFI     C2 2448   0.442   2.339   2.763 -0.2713 -0.5910 -0.4771
  164HFI     F1 2449   0.431   2.293   2.638  0.2859  0.1807  0.0860
  164HFI     F2 2450   0.425   2.475   2.748 -0.4893  0.0707  0.1752
  164HFI     F3 2451   0.346   2.284   2.839  0.1539 -0.3415  0.2302
  164HFI     C3 2452   0.602   2.160   2.852  0.4032  0.2929  0.4502
  164HFI     F4 2453   0.521   2.107   2.943 -0.0293  0.0311 -0.3189
  164HFI     F5 2454   0.718   2.141   2.912 -0.0513  0.0325 -0.6917
  164HFI     F6 2455   0.607   2.086   2.738 -0.1711  0.2507  0.2095
  164HFI     H1 2456   0.659   2.454   2.947 -1.2992  1.6043 -1.9116
  164HFI     H2 2457   0.657   2.351   2.758 -0.0464 -0.5362  0.1488
  165HFI     O1 2458   0.666   0.469   2.482 -0.1607  0.2290  0.0763
  165HFI     C1 2459   0.759   0.406   2.399  0.0832  1.1036 -0.6042
  165HFI     C2 2460   0.904   0.448   2.416  0.0634 -0.0540 -0.7937
  165HFI     F1 2461   0.981   0.351   2.366 -0.3732 -0.0637 -0.0452
  165HFI     F2 2462   0.922   0.445   2.552 -0.4713 -0.5118  0.4348
  165HFI     F3 2463   0.941   0.571   2.366 -0.4103  0.1290 -0.2241
  165HFI     C3 2464   0.715   0.415   2.250 -0.2575 -0.0680  0.1652
  165HFI     F4 2465   0.730   0.542   2.209 -0.1085  0.0725  0.1418
  165HFI     F5 2466   0.581   0.386   2.241  0.2315 -0.2134  0.2882
  165HFI     F6 2467   0.787   0.327   2.176  0.2541 -0.0067  0.3853
  165HFI     H1 2468   0.582   0.478   2.434 -0.3529  0.2397  0.4109
  165HFI     H2 2469   0.752   0.298   2.417  0.8142  1.0017 -0.9245
  166HFI     O1 2470   1.059   1.228   3.441  0.1955  0.3709  0.0193
  166HFI     C1 2471   0.944   1.315   3.438  1.3741  0.3470 -0.5249
  166HFI     C2 2472   0.923   1.389   3.575 -0.7526 -0.1645 -0.0608
  166HFI     F1 2473   0.898   1.306   3.673  0.0867 -0.2349  0.4670
  166HFI     F2 2474   0.823   1.482   3.575  0.0111 -0.7507 -0.3571
  166HFI     F3 2475   1.030   1.465   3.604  0.3181  0.2462 -0.1280
  166HFI     C3 2476   0.815   1.231   3.396 -0.4074  0.7308  0.6091
  166HFI     F4 2477   0.779   1.140   3.491  0.0846  0.4413  0.0350
  166HFI     F5 2478   0.844   1.159   3.281  0.5142  0.2169 -0.7212
  166HFI     F6 2479   0.700   1.305   3.367  0.3937  0.1484  0.1431
  166HFI     H1 2480   1.045   1.160   3.509 -0.9348  1.8874  1.3508
  166HFI     H2 2481   0.953   1.395   3.364  0.5080 -0.7965 -1.8976
  167HFI     O1 2482   1.424   2.250   3.289 -0.3277 -0.3802 -0.3231
  167HFI     C1 2483   1.446   2.109   3.293  0.4366  0.6443 -0.6147
  167HFI     C2 2484   1.498   2.068   3.439  0.1878  0.6979  0.3917
  167HFI     F1 2485   1.494   1.937   3.459  0.3371 -0.3712  0.0765
  167HFI     F2 2486   1.426   2.127   3.531  0.3333 -0.4481  1.0300
  167HFI     F3 2487   1.627   2.107   3.453 -0.3053  0.3985  0.7814
  167HFI     C3 2488   1.540   2.073   3.177 -0.3718 -0.4828  0.0959
  167HFI     F4 2489   1.479   2.120   3.065 -0.1815  0.1853  0.5025
  167HFI     F5 2490   1.559   1.942   3.167  0.3522  0.0363 -0.1053
  167HFI     F6 2491   1.655   2.132   3.179 -0.2933 -0.1646  0.0969
  167HFI     H1 2492   1.425   2.277   3.195  1.1406 -1.3775 -0.5985
  167HFI     H2 2493   1.354   2.053   3.278  0.5007 -0.5376  2.9569
  168HFI     O1 2494   3.200   0.016   2.361 -0.1392  0.4660  0.0024
  168HFI     C1 2495   3.061   0.042   2.315 -0.7224 -0.4240  0.2823
  168HFI     C2 2496   3.038   0.191   2.287  0.4218 -0.1780  0.5135
  168HFI     F1 2497   3.133   0.240   2.206 -0.0052  0.1633 -0.3291
  168HFI     F2 2498   3.036   0.263   2.396 -0.2035 -0.0063  0.1015
  168HFI     F3 2499   2.923   0.204   2.216  0.2776  0.2480 -0.1508
  168HFI     C3 2500   2.964  -0.025   2.410 -0.4296  0.4300  0.1419
  168HFI     F4 2501   2.988   0.002   2.543 -0.3090 -0.5631 -0.0502
  168HFI     F5 2502   2.974  -0.158   2.397  0.4138  0.0316  0.0000
  168HFI     F6 2503   2.833   0.003   2.389 -0.4498 -0.0693  0.4447
  168HFI     H1 2504   3.208   0.039   2.455  1.5845  0.8452 -0.2242
  168HFI     H2 2505   3.051  -0.012   2.220 -1.6289  1.4027 -0.6886
  169HFI     O1 2506   0.339   2.843   2.443 -0.1049 -0.1934  0.2457
  169HFI     C1 2507   0.443   2.807   2.355  0.1169 -0.5836 -0.9374
  169HFI     C2 2508   0.483   2.930   2.264 -0.1255  1.0902  0.2185
  169HFI     F1 2509   0.392   2.970   2.172  0.4195  0.1929  0.1467
  169HFI     F2 2510   0.601   2.905   2.203 -0.0513 -0.0567 -0.3948
  169HFI     F3 2511   0.494   3.042   2.345 -0.3788  0.5886 -0.1413
  169HFI     C3 2512   0.403   2.684   2.271 -0.0389 -0.8539  0.0159
  169HFI     F4 2513   0.397   2.577   2.354 -0.0206 -0.2295  0.3720
  169HFI     F5 2514   0.492   2.661   2.180  0.3297 -0.6329  0.4819
  169HFI     F6 2515   0.280   2.692   2.221  0.1212 -0.4735  0.5312
  169HFI     H1 2516   0.316   2.936   2.430  0.2855 -0.4154 -2.1641
  169HFI     H2 2517   0.526   2.781   2.421 -1.5478 -1.6737  0.7706
  170HFI     O1 2518   0.196   3.222   3.498  0.0791 -0.1870 -0.1023
  170HFI     C1 2519   0.223   3.098   3.437 -0.4420 -0.2015  0.4977
  170HFI     C2 2520   0.357   3.038   3.481  1.2031 -0.8619  0.3257
  170HFI     F1 2521   0.457   3.113   3.457 -0.0828 -0.4323 -0.2843
  170HFI     F2 2522   0.379   2.924   3.408  0.9001 -0.0692 -0.2976
  170HFI     F3 2523   0.369   3.000   3.609 -0.3529  0.2355 -1.0854
  170HFI     C3 2524   0.213   3.111   3.287  0.4038 -0.2327  0.7080
  170HFI     F4 2525   0.208   2.993   3.221  0.7736 -0.1569 -0.0843
  170HFI     F5 2526   0.313   3.179   3.229  0.0306 -0.3582  0.6422
  170HFI     F6 2527   0.092   3.172   3.252 -0.2755 -0.2183  0.3179
  170HFI     H1 2528   0.285   3.255   3.518 -0.0897 -0.8346  1.7490
  170HFI     H2 2529   0.149   3.030   3.480 -0.6494 -0.0668  0.3550
  171HFI     O1 2530   2.030   1.776   3.008  0.5381  0.7932 -0.7439
  171HFI     C1 2531   1.924   1.682   3.035  0.0948 -0.5040 -0.5577
  171HFI     C2 2532   1.981   1.535   3.017 -0.2785  0.1630  0.4933
  171HFI     F1 2533   2.089   1.507   3.097 -0.0233  0.2947 -0.3832
  171HFI     F2 2534   2.017   1.508   2.892  0.1646 -0.5696 -0.1008
  171HFI     F3 2535   1.887   1.443   3.041 -0.3709 -0.5335  0.1312
  171HFI     C3 2536   1.799   1.715   2.954  0.0966 -0.6414 -0.0342
  171HFI     F4 2537   1.824   1.713   2.822 -0.0768 -0.1742 -0.1303
  171HFI     F5 2538   1.766   1.845   2.981  0.0504  0.1960  0.5860
  171HFI     F6 2539   1.689   1.634   2.978  0.8614 -0.0508 -0.4065
  171HFI     H1 2540   2.029   1.791   2.912 -2.8022  2.0992 -0.5876
  171HFI     H2 2541   1.893   1.688   3.140 -0.0596 -2.3466 -0.4792
  172HFI     O1 2542   2.567   0.043   2.789  0.1195  0.4376 -0.2544
  172HFI     C1 2543   2.480   0.120   2.872  0.5182 -0.1145 -0.0825
  172HFI     C2 2544   2.340   0.045   2.892  0.6008 -0.8285 -0.0728
  172HFI     F1 2545   2.271   0.031   2.776  0.3434 -0.1457  0.0209
  172HFI     F2 2546   2.265   0.107   2.986 -0.1450  0.3500  0.1177
  172HFI     F3 2547   2.364  -0.090   2.935  0.3956  0.0923  0.0391
  172HFI     C3 2548   2.470   0.265   2.824  0.3598 -0.0639  0.2742
  172HFI     F4 2549   2.383   0.332   2.893  0.3634 -0.6527 -0.0673
  172HFI     F5 2550   2.446   0.282   2.693  0.0774  0.5483 -0.0088
  172HFI     F6 2551   2.583   0.334   2.845  0.3323  0.2728 -0.0608
  172HFI     H1 2552   2.529   0.020   2.703  0.9660 -0.6043 -0.3590
  172HFI     H2 2553   2.526   0.127   2.971  0.9654  1.1120 -0.3630
  173HFI     O1 2554   3.387   2.122   3.394 -0.1055 -0.3737 -0.1400
  173HFI     C1 2555   3.292   2.229   3.362  0.7853  0.0386 -0.1208
  173HFI     C2 2556   3.158   2.212   3.443  0.3024 -0.0927  0.0134
  173HFI     F1 2557   3.097   2.093   3.438 -0.2620 -0.0743 -0.7544
  173HFI     F2 2558   3.061   2.295   3.393  0.3224 -0.1487 -0.3193
  173HFI     F3 2559   3.177   2.246   3.577  0.3007 -0.2412  0.6871
  173HFI     C3 2560   3.270   2.234   3.207  0.1158 -0.6330  0.2189
  173HFI     F4 2561   3.199   2.340   3.174  0.1068 -0.3611 -0.5764
  173HFI     F5 2562   3.211   2.121   3.163  0.0507  0.1424  0.2927
  173HFI     F6 2563   3.392   2.248   3.150  0.4954 -0.0100  0.0073
  173HFI     H1 2564   3.336   2.042   3.370  0.0639 -0.6479  0.3896
  173HFI     H2 2565   3.334   2.324   3.399 -0.0389  0.0125  0.9127
  174HFI     O1 2566   0.211   0.258   0.843  0.1310  0.0664  0.2569
  174HFI     C1 2567   0.108   0.305   0.944  0.4393  0.1320  0.1436
  174HFI     C2 2568   0.084   0.464   0.939 -0.3514  1.3993  0.0722
  174HFI     F1 2569   0.062   0.494   0.811 -0.1769 -0.3191 -0.2698
  174HFI     F2 2570   0.186   0.540   0.993  0.1325  0.4707  0.2017
  174HFI     F3 2571  -0.033   0.492   1.009 -0.2588 -0.4695  0.3335
  174HFI     C3 2572   0.148   0.254   1.084  0.2166 -0.1114  0.0978
  174HFI     F4 2573   0.058   0.297   1.182  0.3181 -0.0002  0.5131
  174HFI     F5 2574   0.269   0.288   1.126 -0.5179  0.6941 -0.4287
  174HFI     F6 2575   0.143   0.120   1.074 -0.4727  0.0279 -0.0655
  174HFI     H1 2576   0.249   0.172   0.870 -0.2256 -0.0117  0.5188
  174HFI     H2 2577   0.013   0.261   0.912  0.4760  0.2774 -0.1628
  175HFI     O1 2578   3.051   0.525   2.627  0.0188  0.0445  0.1363
  175HFI     C1 2579   2.999   0.436   2.727  0.3088  0.1734 -0.2277
  175HFI     C2 2580   2.950   0.509   2.855  0.2285  0.5123 -1.1209
  175HFI     F1 2581   2.855   0.597   2.829 -0.5270 -0.3507 -0.6998
  175HFI     F2 2582   3.051   0.584   2.918  0.1209 -0.0511  0.4366
  175HFI     F3 2583   2.909   0.419   2.949 -0.0872 -0.0043 -0.0684
  175HFI     C3 2584   3.096   0.317   2.756  0.4033 -0.0797 -0.2056
  175HFI     F4 2585   3.204   0.362   2.828  0.2802 -0.0270  0.3435
  175HFI     F5 2586   3.153   0.267   2.638 -0.5032 -0.0998 -0.7400
  175HFI     F6 2587   3.038   0.219   2.820 -0.2122  0.3134  0.5850
  175HFI     H1 2588   3.147   0.512   2.628  0.2239  1.4962 -0.3117
  175HFI     H2 2589   2.913   0.381   2.688  0.3089  0.9069 -1.2846
  176HFI     O1 2590   3.080   2.278   2.460  0.1313 -0.0744 -0.1819
  176HFI     C1 2591   2.978   2.318   2.364 -0.1116  0.1994 -0.0785
  176HFI     C2 2592   2.930   2.194   2.284 -0.3684  0.7645  0.3017
  176HFI     F1 2593   2.885   2.100   2.377 -0.7147 -0.2531  0.3884
  176HFI     F2 2594   3.028   2.139   2.209  0.2315  0.2884 -0.3634
  176HFI     F3 2595   2.826   2.222   2.206 -0.1438  0.5022 -0.3635
  176HFI     C3 2596   3.018   2.439   2.289  0.0653 -0.4081  0.5674
  176HFI     F4 2597   3.110   2.417   2.198  0.0394 -0.3643  0.3099
  176HFI     F5 2598   3.060   2.532   2.380 -0.4922 -0.0509 -0.4850
  176HFI     F6 2599   2.913   2.490   2.226  0.2337  0.1602  0.1461
  176HFI     H1 2600   3.132   2.357   2.483  0.2828 -0.0511 -0.6006
  176HFI     H2 2601   2.885   2.342   2.417 -0.9694  0.4204 -1.6339
  177HFI     O1 2602   0.231   2.950   0.422 -0.5142  0.6829  0.0928
  177HFI     C1 2603   0.265   2.933   0.278  0.3922  0.8483 -0.0134
  177HFI     C2 2604   0.166   3.004   0.181 -0.6034 -0.3453 -0.0005
  177HFI     F1 2605   0.038   2.967   0.205 -0.2852 -0.0371 -0.0776
  177HFI     F2 2606   0.193   2.978   0.051  0.4764  0.9387  0.1432
  177HFI     F3 2607   0.189   3.140   0.195  0.2513  0.5037  0.2223
  177HFI     C3 2608   0.290   2.786   0.236 -0.4885  0.5182 -0.1640
  177HFI     F4 2609   0.362   2.728   0.331 -0.1300 -0.1126  0.0811
  177HFI     F5 2610   0.352   2.775   0.119 -0.1728  0.5248 -0.0877
  177HFI     F6 2611   0.176   2.713   0.225 -0.4924 -0.0026  0.1250
  177HFI     H1 2612   0.287   2.888   0.472  0.6349 -0.4317 -2.4719
  177HFI     H2 2613   0.364   2.979   0.268  0.4343  1.2560  2.1203
  178HFI     O1 2614   2.505   1.096   3.190 -0.1219 -0.4631 -0.0852
  178HFI     C1 2615   2.613   1.110   3.295  0.3145 -0.4856  0.4368
  178HFI     C2 2616   2.562   1.101   3.440  0.6677 -0.5502 -0.3106
  178HFI     F1 2617   2.477   1.216   3.462 -0.1749 -0.7143  0.1739
  178HFI     F2 2618   2.661   1.089   3.531 -0.5016  0.0254 -0.0252
  178HFI     F3 2619   2.468   0.995   3.447 -0.7767  0.3431 -0.1666
  178HFI     C3 2620   2.698   1.234   3.260  0.2676  0.2751  0.1997
  178HFI     F4 2621   2.621   1.341   3.235  0.1819  0.1623  0.0831
  178HFI     F5 2622   2.775   1.210   3.149 -0.0509 -0.0170  0.3247
  178HFI     F6 2623   2.784   1.267   3.360 -0.0965  0.1637  0.6882
  178HFI     H1 2624   2.488   1.001   3.179  0.5021 -0.3911 -1.8023
  178HFI     H2 2625   2.686   1.029   3.282 -1.2209 -1.5323 -2.1390
  179HFI     O1 2626   1.187   1.329   2.274  0.4552 -0.0230 -0.1503
  179HFI     C1 2627   1.321   1.328   2.336 -0.8960 -0.7299  0.4611
  179HFI     C2 2628   1.323   1.269   2.479 -0.0222 -0.4633 -0.1026
  179HFI     F1 2629   1.228   1.178   2.489  0.1190 -0.2076 -0.1820
  179HFI     F2 2630   1.307   1.370   2.572  0.0148  0.5568 -0.0439
  179HFI     F3 2631   1.446   1.215   2.506  0.4401 -0.1277 -0.0383
  179HFI     C3 2632   1.381   1.478   2.327 -0.0227 -0.1803  0.0464
  179HFI     F4 2633   1.302   1.569   2.385 -0.2066  0.1394 -0.3034
  179HFI     F5 2634   1.401   1.511   2.200 -0.0815 -0.4045 -0.5662
  179HFI     F6 2635   1.500   1.496   2.384  0.6855 -0.9019 -0.3416
  179HFI     H1 2636   1.116   1.274   2.312  0.8585 -0.6949 -0.3637
  179HFI     H2 2637   1.383   1.252   2.287  0.8539  1.6954 -1.1909
  180HFI     O1 2638   2.542   2.573   2.887  0.7740 -0.1919 -0.2769
  180HFI     C1 2639   2.423   2.511   2.842  0.2191 -0.5538 -0.2963
  180HFI     C2 2640   2.427   2.360   2.868 -0.6620 -0.3751  0.1821
  180HFI     F1 2641   2.465   2.327   2.986  0.6716  0.4777  0.2354
  180HFI     F2 2642   2.505   2.294   2.781  0.3135 -0.0911  0.2473
  180HFI     F3 2643   2.304   2.311   2.856  0.5341  0.2624  0.5990
  180HFI     C3 2644   2.388   2.560   2.699 -0.1641  0.4898 -0.1056
  180HFI     F4 2645   2.274   2.513   2.653 -0.0298  0.1522 -0.1405
  180HFI     F5 2646   2.482   2.525   2.608 -0.4331  0.0882  0.0675
  180HFI     F6 2647   2.380   2.693   2.705 -0.0117 -0.1697  0.4547
  180HFI     H1 2648   2.598   2.514   2.941  1.0640  2.2282  2.1327
  180HFI     H2 2649   2.338   2.539   2.906 -0.5293 -1.2538 -0.9695
  181HFI     O1 2650   2.868   2.709   0.131  0.2857 -0.3745 -0.0209
  181HFI     C1 2651   2.904   2.680  -0.005  0.0042 -0.2363 -0.2271
  181HFI     C2 2652   2.942   2.532  -0.033 -0.3952  0.4003 -0.3014
  181HFI     F1 2653   2.836   2.452  -0.004 -0.5181 -0.7625  0.0237
  181HFI     F2 2654   3.053   2.494   0.031 -0.3446  0.2480 -0.4137
  181HFI     F3 2655   2.969   2.507  -0.158  0.0774  0.4633  0.4084
  181HFI     C3 2656   3.007   2.778  -0.047 -0.1135 -0.4923 -0.1001
  181HFI     F4 2657   3.039   2.755  -0.177 -0.1600 -0.3665  0.1734
  181HFI     F5 2658   3.116   2.761   0.027 -0.2663 -0.4555  0.1085
  181HFI     F6 2659   2.962   2.905  -0.033 -0.0180  0.3444  0.4516
  181HFI     H1 2660   2.942   2.684   0.189  0.3334 -2.7106 -1.0212
  181HFI     H2 2661   2.822   2.687  -0.077  0.2354  0.4152 -0.4356
  182HFI     O1 2662   0.435   0.975   2.405  1.0399  0.7519  0.3452
  182HFI     C1 2663   0.370   0.902   2.292 -0.1464  1.0546  0.7131
  182HFI     C2 2664   0.214   0.925   2.300 -0.0977  0.2385 -0.7037
  182HFI     F1 2665   0.174   0.873   2.414 -0.2169  0.2259 -0.1816
  182HFI     F2 2666   0.154   0.864   2.198 -0.1518  0.8320  0.0049
  182HFI     F3 2667   0.181   1.057   2.301 -0.0388 -0.3190  0.4753
  182HFI     C3 2668   0.402   0.743   2.299 -0.4546 -0.2828  0.3386
  182HFI     F4 2669   0.387   0.676   2.420 -0.1675 -0.3589 -0.2075
  182HFI     F5 2670   0.532   0.730   2.264 -0.5284  0.1559  0.0193
  182HFI     F6 2671   0.332   0.673   2.207  0.2652 -0.5699 -0.2601
  182HFI     H1 2672   0.439   0.921   2.487  0.4279  0.5596  0.2508
  182HFI     H2 2673   0.396   0.947   2.195 -1.0170  2.2662  1.0249
  183HFI     O1 2674   0.237   2.338   3.351  0.3051  0.5567  0.1461
  183HFI     C1 2675   0.355   2.280   3.282 -0.0107 -0.2436  0.2135
  183HFI     C2 2676   0.348   2.123   3.287 -0.0110  0.2469  0.1691
  183HFI     F1 2677   0.245   2.075   3.216 -0.5736 -0.4755  0.1255
  183HFI     F2 2678   0.331   2.074   3.407  0.4288  0.4691 -0.2377
  183HFI     F3 2679   0.457   2.073   3.232 -0.5497  0.3400  0.3596
  183HFI     C3 2680   0.489   2.338   3.343 -0.2629  0.1574  0.1063
  183HFI     F4 2681   0.492   2.312   3.479  0.5835 -0.3324  0.5546
  183HFI     F5 2682   0.501   2.475   3.328  0.6008 -0.2119 -0.1156
  183HFI     F6 2683   0.595   2.283   3.286  0.0990  0.2953 -0.0286
  183HFI     H1 2684   0.196   2.289   3.425  1.0488 -0.1906  0.0664
  183HFI     H2 2685   0.352   2.288   3.173 -2.6111  0.5658  0.3103
  184HFI     O1 2686   2.173   1.886   3.263 -0.5138  0.1787 -0.0453
  184HFI     C1 2687   2.139   1.995   3.346 -0.7248  0.7837  0.5012
  184HFI     C2 2688   1.997   2.034   3.336 -0.0468 -0.3851 -0.8315
  184HFI     F1 2689   1.914   1.924   3.346 -0.2354 -0.3365  0.6164
  184HFI     F2 2690   1.961   2.097   3.225 -0.6297 -0.3630  0.5096
  184HFI     F3 2691   1.970   2.121   3.434 -0.0910  0.3625 -0.5129
  184HFI     C3 2692   2.253   2.109   3.348  0.0632 -0.1699 -0.4443
  184HFI     F4 2693   2.219   2.190   3.450 -0.1152 -0.3117 -0.5196
  184HFI     F5 2694   2.257   2.176   3.231 -0.0215  0.0904 -0.2373
  184HFI     F6 2695   2.376   2.061   3.368 -0.1519 -0.3972 -0.3442
  184HFI     H1 2696   2.147   1.906   3.171  2.0302 -2.9417 -1.5310
  184HFI     H2 2697   2.144   1.953   3.448 -1.3350  0.7177  0.5006
  185HFI     O1 2698   0.475   1.282   2.467  0.2264 -0.2678 -0.2416
  185HFI     C1 2699   0.343   1.341   2.436  0.4262  0.5164  1.0289
  185HFI     C2 2700   0.333   1.363   2.287  0.4535 -0.1499 -0.1273
  185HFI     F1 2701   0.210   1.384   2.247  0.1655 -0.2056 -0.6288
  185HFI     F2 2702   0.379   1.260   2.217  0.0340  0.4970  0.1686
  185HFI     F3 2703   0.406   1.470   2.252 -0.5677 -0.3341 -0.3792
  185HFI     C3 2704   0.321   1.466   2.523  0.5116 -0.2631 -0.3707
  185HFI     F4 2705   0.337   1.431   2.656  0.0754  0.2767 -0.1510
  185HFI     F5 2706   0.196   1.514   2.509  0.4865 -0.1853 -0.3182
  185HFI     F6 2707   0.412   1.565   2.493  0.2006  0.3303 -0.0445
  185HFI     H1 2708   0.482   1.190   2.437  2.9435 -0.0283 -0.4317
  185HFI     H2 2709   0.257   1.279   2.463  0.8986 -2.0966 -3.1038
  186HFI     O1 2710   0.920   2.414   2.559 -0.3356  0.2678  0.2650
  186HFI     C1 2711   0.870   2.366   2.427  0.2801 -0.0090 -0.3989
  186HFI     C2 2712   0.979   2.372   2.315 -0.3122 -0.5292 -0.2521
  186HFI     F1 2713   1.096   2.352   2.370 -0.0100 -0.2801 -0.2569
  186HFI     F2 2714   0.986   2.497   2.258 -0.4401 -0.3225 -0.4198
  186HFI     F3 2715   0.958   2.274   2.224  0.0050  0.6988 -0.3166
  186HFI     C3 2716   0.727   2.422   2.382 -0.0444 -0.3650 -0.6024
  186HFI     F4 2717   0.690   2.375   2.259 -0.1856  0.2026  0.3651
  186HFI     F5 2718   0.730   2.563   2.385 -0.3058  0.1440  0.0771
  186HFI     F6 2719   0.638   2.376   2.481 -0.3999 -0.6208 -0.0296
  186HFI     H1 2720   1.017   2.417   2.550 -0.2951 -1.7907 -0.2841
  186HFI     H2 2721   0.853   2.258   2.433 -0.0671  0.0047 -1.0783
  187HFI     O1 2722   0.965   1.245   2.707  0.5392  0.0806 -0.2069
  187HFI     C1 2723   0.904   1.204   2.832 -1.0353  0.7511  1.2668
  187HFI     C2 2724   1.002   1.109   2.905  0.4108  0.1497 -0.4372
  187HFI     F1 2725   1.031   1.001   2.823 -0.0186 -0.0081 -0.0203
  187HFI     F2 2726   0.961   1.063   3.027  0.5024 -0.2662  0.1506
  187HFI     F3 2727   1.116   1.173   2.937 -0.2552  0.2486  0.2641
  187HFI     C3 2728   0.759   1.153   2.816  0.1510  0.5146  0.6078
  187HFI     F4 2729   0.771   1.046   2.733 -0.1807 -0.1495  0.0099
  187HFI     F5 2730   0.687   1.253   2.755  0.2651  0.4164  0.1478
  187HFI     F6 2731   0.690   1.124   2.933  0.2131 -0.3800  0.1821
  187HFI     H1 2732   1.034   1.311   2.724 -0.7887  1.1064  1.2932
  187HFI     H2 2733   0.881   1.294   2.891 -2.3643 -0.0047  1.9358
  188HFI     O1 2734   3.025   1.150   2.500 -0.0394  0.1406 -0.4218
  188HFI     C1 2735   3.161   1.192   2.442  0.5944  0.1677  0.3734
  188HFI     C2 2736   3.152   1.184   2.284 -0.6575 -0.4457  0.2952
  188HFI     F1 2737   3.260   1.242   2.232 -0.2014 -0.3486 -0.0322
  188HFI     F2 2738   3.050   1.247   2.229 -0.3487  0.1526 -0.6522
  188HFI     F3 2739   3.152   1.060   2.238  0.2875 -0.1221 -0.2472
  188HFI     C3 2740   3.280   1.117   2.501  0.0106 -0.1463 -0.5612
  188HFI     F4 2741   3.395   1.179   2.463  0.6998  0.0396  0.4669
  188HFI     F5 2742   3.287   0.989   2.457 -0.4170  0.3041 -0.4189
  188HFI     F6 2743   3.281   1.118   2.633  0.3593 -0.5642  0.1641
  188HFI     H1 2744   2.986   1.089   2.435  2.5205  0.2115 -2.0928
  188HFI     H2 2745   3.181   1.297   2.469 -0.6197  0.4032  0.3564
  189HFI     O1 2746   3.055   2.023   2.597 -0.1227 -0.3567 -0.1823
  189HFI     C1 2747   2.990   2.006   2.730  0.3610  0.0197 -0.2660
  189HFI     C2 2748   2.950   1.859   2.746 -0.6967  0.4322  0.3046
  189HFI     F1 2749   3.063   1.781   2.735 -0.1552  0.2241  0.4016
  189HFI     F2 2750   2.873   1.822   2.647 -0.0898 -0.3470  0.0613
  189HFI     F3 2751   2.889   1.837   2.860  0.1798  0.1503 -0.0983
  189HFI     C3 2752   2.869   2.105   2.748  0.2597 -0.8110  0.1458
  189HFI     F4 2753   2.913   2.230   2.722  0.2684  0.0121 -0.4756
  189HFI     F5 2754   2.814   2.102   2.871  0.1006 -0.2823 -0.2009
  189HFI     F6 2755   2.769   2.078   2.664 -0.1740  0.4291 -0.2021
  189HFI     H1 2756   3.010   2.098   2.553  0.2845 -0.9041 -1.5766
  189HFI     H2 2757   3.048   2.037   2.818  1.5004 -1.0970 -0.6094
  190HFI     O1 2758   3.219   0.005   3.286  0.4340  1.2133 -0.8711
  190HFI     C1 2759   3.086   0.047   3.260 -0.1241  1.0332  0.6238
  190HFI     C2 2760   3.075   0.140   3.132 -0.1404 -0.2565 -0.1533
  190HFI     F1 2761   3.135   0.258   3.141 -0.0711  0.0196 -0.2240
  190HFI     F2 2762   2.954   0.166   3.092  0.2327  0.3175 -0.4326
  190HFI     F3 2763   3.135   0.070   3.032  0.3143  0.0254 -0.6206
  190HFI     C3 2764   3.025   0.101   3.384 -0.1857 -0.4564  0.9819
  190HFI     F4 2765   3.083   0.223   3.421 -0.5585  0.1670 -0.7457
  190HFI     F5 2766   3.044   0.019   3.483  0.5036  0.3594 -0.2276
  190HFI     F6 2767   2.888   0.116   3.375 -0.4207  0.1569  0.2653
  190HFI     H1 2768   3.216  -0.080   3.334 -0.0926  0.7435 -1.7014
  190HFI     H2 2769   3.023  -0.039   3.234  0.0945  1.0501  0.0299
  191HFI     O1 2770   1.867   1.276   3.577 -0.2884 -0.3381  0.2237
  191HFI     C1 2771   1.980   1.354   3.509  0.5786 -0.1633  0.0072
  191HFI     C2 2772   1.921   1.493   3.452  0.3236 -0.0698  0.1833
  191HFI     F1 2773   2.012   1.548   3.374  0.1488  0.1679  0.0320
  191HFI     F2 2774   1.902   1.586   3.549  0.2950  0.4782  0.5704
  191HFI     F3 2775   1.808   1.473   3.380  0.1308 -0.2202  0.3037
  191HFI     C3 2776   2.052   1.281   3.395  0.5029 -0.9607  0.4698
  191HFI     F4 2777   2.165   1.343   3.350 -0.3939 -0.5724 -0.4865
  191HFI     F5 2778   1.971   1.256   3.289 -0.2536 -0.5264 -0.0900
  191HFI     F6 2779   2.087   1.168   3.450 -0.6810  0.2182 -0.0858
  191HFI     H1 2780   1.908   1.196   3.614 -2.8150 -1.9765 -0.3832
  191HFI     H2 2781   2.056   1.376   3.585 -1.3573  1.4660  1.5392
  192HFI     O1 2782   2.200   3.336   0.359  0.0909  0.3931  0.5350
  192HFI     C1 2783   2.154   3.318   0.220 -0.0274 -0.1602  0.0434
  192HFI     C2 2784   2.106   3.168   0.198  0.7801 -0.2401  0.5880
  192HFI     F1 2785   2.006   3.147   0.288 -0.0620  0.1344 -0.3031
  192HFI     F2 2786   2.213   3.077   0.214 -0.3118  0.0050  0.5552
  192HFI     F3 2787   2.051   3.156   0.076  0.0584  0.4350 -0.5911
  192HFI     C3 2788   2.262   3.364   0.117 -0.5410  0.2811  0.1253
  192HFI     F4 2789   2.202   3.390   0.003 -0.0057  0.0795  0.1609
  192HFI     F5 2790   2.350   3.261   0.091  0.3888 -0.4381  0.4423
  192HFI     F6 2791   2.327   3.471   0.165  0.0860 -0.0685 -0.0550
  192HFI     H1 2792   2.286   3.381   0.360 -1.7808  4.3014 -1.7862
  192HFI     H2 2793   2.067   3.379   0.191  1.4559  1.1707 -1.7083
  193HFI     O1 2794   1.939   2.962   2.768  0.6451 -0.1365 -0.0512
  193HFI     C1 2795   1.842   2.869   2.824 -0.0038 -0.7325 -0.0546
  193HFI     C2 2796   1.844   2.732   2.757 -0.4146  0.1673 -0.3684
  193HFI     F1 2797   1.793   2.730   2.626  0.2205  0.1964 -0.4045
  193HFI     F2 2798   1.775   2.644   2.834 -0.0914 -0.0545  0.3293
  193HFI     F3 2799   1.977   2.683   2.751  0.1020 -0.2501 -0.0802
  193HFI     C3 2800   1.701   2.933   2.823  0.1182  0.4991  0.3581
  193HFI     F4 2801   1.701   3.058   2.876  0.2793  0.0830  0.2770
  193HFI     F5 2802   1.613   2.868   2.905 -0.1878 -0.1630  0.0312
  193HFI     F6 2803   1.649   2.937   2.703  0.0352 -0.1042  0.5568
  193HFI     H1 2804   1.938   2.943   2.673  1.5732  1.0481 -0.3168
  193HFI     H2 2805   1.875   2.843   2.925  2.6532  0.2407 -0.6213
  194HFI     O1 2806   2.762   2.853   2.205  0.1559  0.3046  0.3654
  194HFI     C1 2807   2.649   2.869   2.295 -0.2495 -0.0315  0.0150
  194HFI     C2 2808   2.600   3.015   2.305  0.8423  0.5579 -0.5826
  194HFI     F1 2809   2.702   3.102   2.296  0.5025 -0.5153 -0.4980
  194HFI     F2 2810   2.533   3.046   2.412 -0.3624 -0.1056 -0.3259
  194HFI     F3 2811   2.518   3.043   2.210  0.4235 -0.1829  0.3737
  194HFI     C3 2812   2.690   2.785   2.427 -0.0994 -1.0390 -0.4846
  194HFI     F4 2813   2.598   2.779   2.529 -0.0479 -0.9561  0.1294
  194HFI     F5 2814   2.796   2.851   2.475  0.0494 -0.2330 -0.2619
  194HFI     F6 2815   2.737   2.665   2.403  0.0504 -0.0381 -0.3411
  194HFI     H1 2816   2.814   2.934   2.218  0.9434  0.3065 -2.4301
  194HFI     H2 2817   2.560   2.819   2.254 -0.9647  0.2261  1.2321
  195HFI     O1 2818   2.838   2.199   3.236  0.0850  0.0640  0.0512
  195HFI     C1 2819   2.719   2.279   3.271  0.3273 -0.4441  0.0235
  195HFI     C2 2820   2.718   2.416   3.193 -0.0469 -0.4157  0.1986
  195HFI     F1 2821   2.809   2.507   3.236  0.0295  0.4390 -0.1334
  195HFI     F2 2822   2.597   2.470   3.204  0.5913  0.0188  0.6339
  195HFI     F3 2823   2.740   2.402   3.067 -0.1234 -0.5167  0.1379
  195HFI     C3 2824   2.700   2.296   3.432  0.9519 -0.2183  0.0448
  195HFI     F4 2825   2.703   2.175   3.497 -0.1586 -0.0391 -0.2130
  195HFI     F5 2826   2.582   2.354   3.458 -0.0480 -0.1354 -0.1918
  195HFI     F6 2827   2.797   2.378   3.472  0.0317 -0.6343 -0.2654
  195HFI     H1 2828   2.909   2.248   3.281 -0.0755  2.6094 -2.3596
  195HFI     H2 2829   2.624   2.237   3.236 -1.4007  1.0396  2.7338
  196HFI     O1 2830   1.613   0.812   2.508  0.5885  0.8580  0.1758
  196HFI     C1 2831   1.559   0.747   2.390  0.1630 -0.6721 -0.6668
  196HFI     C2 2832   1.677   0.720   2.286 -0.0904  0.3137  0.3789
  196HFI     F1 2833   1.791   0.668   2.341  0.5446 -0.5759  0.2787
  196HFI     F2 2834   1.711   0.825   2.210  0.4644  0.6060  0.1849
  196HFI     F3 2835   1.631   0.617   2.208 -0.1228 -0.3201  0.1240
  196HFI     C3 2836   1.450   0.833   2.335  0.9108  0.5411 -0.7101
  196HFI     F4 2837   1.479   0.960   2.319  0.3580 -0.1784  0.2829
  196HFI     F5 2838   1.332   0.831   2.411 -0.8228  0.1471 -0.0456
  196HFI     F6 2839   1.409   0.792   2.212 -0.1855  0.4222 -0.0849
  196HFI     H1 2840   1.569   0.899   2.508  1.4321  1.3341 -2.2990
  196HFI     H2 2841   1.523   0.648   2.420 -1.2538 -0.1105 -0.5117
  197HFI     O1 2842   1.654   0.597   2.796  0.3644  0.1087 -0.1559
  197HFI     C1 2843   1.784   0.603   2.852 -0.5879  0.0560  0.2955
  197HFI     C2 2844   1.896   0.619   2.743  1.0271  0.2246  0.4226
  197HFI     F1 2845   2.021   0.589   2.786 -0.0143 -0.1143  0.3851
  197HFI     F2 2846   1.896   0.750   2.708  0.1271 -0.3262 -0.5157
  197HFI     F3 2847   1.869   0.544   2.630  0.3330  0.3649 -0.0811
  197HFI     C3 2848   1.806   0.488   2.955 -0.1806 -0.4384 -0.7067
  197HFI     F4 2849   1.819   0.367   2.897  0.0977 -0.0276 -0.2541
  197HFI     F5 2850   1.691   0.477   3.028 -0.2960 -0.4183 -0.3123
  197HFI     F6 2851   1.914   0.499   3.040  0.0801  0.5785  0.1317
  197HFI     H1 2852   1.646   0.510   2.754 -0.8862  0.1967 -0.1140
  197HFI     H2 2853   1.799   0.696   2.908  1.1574  0.0867 -0.1853
  198HFI     O1 2854   0.683   1.488   2.911  0.1176 -0.0634  0.5392
  198HFI     C1 2855   0.699   1.578   2.799 -0.5786 -0.2477  0.0588
  198HFI     C2 2856   0.838   1.633   2.780  0.0088  0.3032 -0.4759
  198HFI     F1 2857   0.884   1.550   2.678  0.2600  0.2136  0.6270
  198HFI     F2 2858   0.924   1.623   2.886 -0.2026  0.1520  0.1883
  198HFI     F3 2859   0.842   1.762   2.735 -0.5916  0.1171  0.0470
  198HFI     C3 2860   0.584   1.691   2.809 -0.2805 -0.1587 -0.5799
  198HFI     F4 2861   0.467   1.631   2.833  0.2912 -0.2037 -0.1322
  198HFI     F5 2862   0.577   1.766   2.696 -0.4495 -0.2331  0.6829
  198HFI     F6 2863   0.602   1.769   2.916  0.2172  0.3855  0.0509
  198HFI     H1 2864   0.639   1.526   2.989 -0.2852 -1.4461  0.9956
  198HFI     H2 2865   0.665   1.527   2.708 -0.0715  2.1938 -1.5550
  199HFI     O1 2866   1.558   0.037   3.480 -0.0067  0.1610  0.8561
  199HFI     C1 2867   1.520  -0.060   3.581 -0.3559 -0.0464 -0.1282
  199HFI     C2 2868   1.534  -0.008   3.728  0.1228  1.3754 -0.3597
  199HFI     F1 2869   1.657   0.036   3.755 -0.2137 -0.1077 -0.6589
  199HFI     F2 2870   1.488  -0.095   3.820  0.4372 -0.3504 -0.2777
  199HFI     F3 2871   1.445   0.098   3.739  0.4908  0.0703 -0.0340
  199HFI     C3 2872   1.578  -0.204   3.564  0.8322 -0.1773 -0.9046
  199HFI     F4 2873   1.697  -0.214   3.627  0.8512 -0.1253 -0.2460
  199HFI     F5 2874   1.593  -0.220   3.434  0.0132  0.1653 -0.3485
  199HFI     F6 2875   1.496  -0.298   3.618  0.2634 -0.5822  0.2919
  199HFI     H1 2876   1.637   0.002   3.435 -0.3899 -1.5985  1.4775
  199HFI     H2 2877   1.411  -0.072   3.568 -0.4137  1.6973 -1.5187
  200HFI     O1 2878   0.036   0.776   3.252 -0.0910 -0.0371  0.3989
  200HFI     C1 2879  -0.106   0.729   3.244  0.1892  0.1084  0.6541
  200HFI     C2 2880  -0.119   0.580   3.200 -0.1762  1.0681 -0.5233
  200HFI     F1 2881  -0.119   0.568   3.065 -0.5337  0.2044  0.6608
  200HFI     F2 2882  -0.240   0.531   3.244  0.0738  0.1558  0.1002
  200HFI     F3 2883  -0.021   0.498   3.250  0.1289 -0.0314  0.1494
  200HFI     C3 2884  -0.187   0.834   3.170  0.2255  0.4804  0.9769
  200HFI     F4 2885  -0.125   0.860   3.052 -0.0012 -0.1538  0.0678
  200HFI     F5 2886  -0.186   0.954   3.235  0.2292  0.0926 -0.5013
  200HFI     F6 2887  -0.309   0.793   3.142 -0.0703  0.1099 -0.4732
  200HFI     H1 2888   0.082   0.749   3.170  0.2454 -0.7697  0.8211
  200HFI     H2 2889  -0.156   0.734   3.342  0.2985  2.1781  0.6383
  201HFI     O1 2890   1.282   3.290   2.942 -0.3496  0.2593 -0.3110
  201HFI     C1 2891   1.255   3.188   2.841  0.3232 -0.2706 -0.1472
  201HFI     C2 2892   1.115   3.182   2.778 -0.4612  0.3959 -0.0622
  201HFI     F1 2893   1.091   3.272   2.682 -0.4172 -0.0730  0.1323
  201HFI     F2 2894   1.023   3.204   2.871  0.7852  0.5592 -0.3907
  201HFI     F3 2895   1.088   3.065   2.722 -0.1803  0.1325  0.6774
  201HFI     C3 2896   1.315   3.055   2.897 -0.9568 -0.2288  0.2906
  201HFI     F4 2897   1.238   2.999   2.996  0.2260 -0.2662 -0.2194
  201HFI     F5 2898   1.437   3.083   2.949  0.4368  0.0257  0.2041
  201HFI     F6 2899   1.336   2.963   2.803 -1.1491  0.2235  0.5561
  201HFI     H1 2900   1.287   3.238   3.024  0.9340  0.2805 -0.3759
  201HFI     H2 2901   1.318   3.205   2.753 -0.7731  1.6291 -0.5983
  202HFI     O1 2902   0.752   2.607   2.927 -0.5006  0.4478  0.1312
  202HFI     C1 2903   0.706   2.740   2.907 -0.8047 -0.0327  0.4704
  202HFI     C2 2904   0.736   2.784   2.753  0.0361  0.0555 -0.0158
  202HFI     F1 2905   0.866   2.817   2.739 -0.1038 -0.4259  0.5236
  202HFI     F2 2906   0.667   2.897   2.724 -0.3872 -0.4023  0.0948
  202HFI     F3 2907   0.697   2.683   2.665 -0.1043  0.0035 -0.3077
  202HFI     C3 2908   0.774   2.835   3.011  0.4588 -0.3394  0.0348
  202HFI     F4 2909   0.717   2.813   3.136  0.0226  0.5114  0.3932
  202HFI     F5 2910   0.765   2.962   2.979  0.4312 -0.4521 -0.1177
  202HFI     F6 2911   0.899   2.806   3.018  0.4989  0.0554 -0.1894
  202HFI     H1 2912   0.848   2.618   2.917 -0.5087 -0.9732 -1.7483
  202HFI     H2 2913   0.599   2.753   2.929 -1.1935  3.7072 -3.0082
  203HFI     O1 2914   2.043   0.781   3.013 -0.4348 -0.5836  0.0102
  203HFI     C1 2915   2.041   0.787   3.164 -0.2008  0.1553 -0.4676
  203HFI     C2 2916   1.920   0.840   3.234 -0.3102 -0.2821 -0.4471
  203HFI     F1 2917   1.901   0.973   3.203  0.1098 -0.1806  0.0798
  203HFI     F2 2918   1.931   0.815   3.371 -0.6071 -0.0549 -0.0178
  203HFI     F3 2919   1.813   0.772   3.191  0.0727  0.1919  0.0850
  203HFI     C3 2920   2.165   0.866   3.205  0.0127  0.0862 -0.5238
  203HFI     F4 2921   2.277   0.808   3.158 -0.4315 -0.4827 -0.5477
  203HFI     F5 2922   2.178   0.873   3.342  0.1468  0.3004  0.2995
  203HFI     F6 2923   2.168   0.992   3.163  0.4213  0.2195 -0.2774
  203HFI     H1 2924   2.126   0.818   2.981 -0.8006 -0.5600 -0.9225
  203HFI     H2 2925   2.039   0.686   3.208 -1.1441  0.4280  0.1172
  204HFI     O1 2926   1.935   3.336   2.740  0.1860  0.4798 -0.1147
  204HFI     C1 2927   1.848   3.370   2.849  0.1858 -0.0990  0.0012
  204HFI     C2 2928   1.707   3.388   2.801 -0.2366  0.2785  0.8150
  204HFI     F1 2929   1.686   3.505   2.745  0.6219  0.0838  0.2663
  204HFI     F2 2930   1.614   3.377   2.896  0.6753 -0.0150  0.0252
  204HFI     F3 2931   1.667   3.294   2.712 -0.3014  0.2780 -0.4969
  204HFI     C3 2932   1.906   3.476   2.938 -0.6401  0.1078  0.6555
  204HFI     F4 2933   1.969   3.566   2.860 -0.0024  0.0033  0.0245
  204HFI     F5 2934   2.001   3.416   3.020 -0.1702 -0.0093 -0.0632
  204HFI     F6 2935   1.825   3.547   3.020  0.2725  0.3518 -0.3472
  204HFI     H1 2936   2.001   3.407   2.729  0.8986  0.0786  1.4054
  204HFI     H2 2937   1.834   3.285   2.918  0.4434 -0.8831 -0.9009
  205HFI     O1 2938   2.646   2.832   3.097  0.0569 -0.2267 -0.7913
  205HFI     C1 2939   2.550   2.898   3.176 -0.2029 -0.0415 -0.0474
  205HFI     C2 2940   2.411   2.904   3.104 -0.0849 -0.1522  0.1232
  205HFI     F1 2941   2.386   2.784   3.041 -0.2795  0.3512  0.1218
  205HFI     F2 2942   2.405   3.003   3.007  0.1957 -0.4870 -0.0388
  205HFI     F3 2943   2.310   2.933   3.191 -0.2261 -0.1752 -0.1362
  205HFI     C3 2944   2.593   3.031   3.246 -0.0998  0.3125  0.3176
  205HFI     F4 2945   2.662   3.108   3.161  0.0507 -0.3200 -0.2388
  205HFI     F5 2946   2.680   3.003   3.347 -0.0639  0.8366  0.6409
  205HFI     F6 2947   2.497   3.101   3.307  0.2480  0.3599 -0.4159
  205HFI     H1 2948   2.687   2.892   3.032 -0.4346  3.3147  2.0308
  205HFI     H2 2949   2.533   2.829   3.260 -1.9610 -0.9636 -1.1312
  206HFI     O1 2950   0.181   2.455   3.018 -0.2534  0.0379  0.3700
  206HFI     C1 2951   0.170   2.594   2.996  0.4050 -0.4925 -0.2379
  206HFI     C2 2952   0.301   2.673   3.034  0.8126 -0.1834  0.1073
  206HFI     F1 2953   0.411   2.620   2.973  0.7607 -0.0216  0.2992
  206HFI     F2 2954   0.319   2.677   3.163  0.0788 -0.5364 -0.9604
  206HFI     F3 2955   0.292   2.806   2.999 -0.6754  0.2571 -0.3145
  206HFI     C3 2956   0.048   2.647   3.071  0.9647 -0.1466  0.6906
  206HFI     F4 2957   0.028   2.781   3.055  0.2574  0.9432  0.0619
  206HFI     F5 2958   0.051   2.620   3.208  0.2104  0.0862 -0.5738
  206HFI     F6 2959  -0.067   2.594   3.027  0.0326  0.3167  0.1595
  206HFI     H1 2960   0.129   2.415   2.946 -0.1033  1.7968 -0.7551
  206HFI     H2 2961   0.152   2.613   2.890  0.9049 -1.8067 -0.5766
  207HFI     O1 2962   1.351   0.777   2.762  0.2226  0.0729  0.4606
  207HFI     C1 2963   1.238   0.697   2.823 -0.3140  0.7487  0.4402
  207HFI     C2 2964   1.258   0.688   2.971 -0.6938  0.8975 -0.3926
  207HFI     F1 2965   1.389   0.658   3.005 -0.2431 -0.3078 -0.3544
  207HFI     F2 2966   1.184   0.583   3.022 -0.0176  0.5596 -0.0633
  207HFI     F3 2967   1.225   0.797   3.045  0.3833  0.2091  0.3877
  207HFI     C3 2968   1.237   0.561   2.757  0.0443  0.4030  0.0479
  207HFI     F4 2969   1.122   0.497   2.766 -0.3628  0.1341  0.1404
  207HFI     F5 2970   1.334   0.479   2.803 -0.1032 -0.1297 -0.2002
  207HFI     F6 2971   1.256   0.579   2.624  0.1758 -0.3697 -0.8455
  207HFI     H1 2972   1.435   0.728   2.756  0.9413  0.9228  3.0763
  207HFI     H2 2973   1.140   0.744   2.808 -1.3272 -1.5136 -0.2923
  208HFI     O1 2974   0.070   1.155   2.991  0.2859  0.0043  0.2219
  208HFI     C1 2975  -0.029   1.249   2.943 -0.1062 -0.3316  0.8182
  208HFI     C2 2976   0.031   1.347   2.835 -0.1516  0.0705 -0.1688
  208HFI     F1 2977  -0.067   1.414   2.775 -0.0436 -0.5040 -0.1001
  208HFI     F2 2978   0.098   1.283   2.738  0.1352 -0.2889  0.0026
  208HFI     F3 2979   0.105   1.443   2.885  0.3720  0.2651 -0.3188
  208HFI     C3 2980  -0.092   1.313   3.072 -0.0576  0.6012  0.6481
  208HFI     F4 2981  -0.187   1.394   3.035 -0.1053  0.1623 -0.3181
  208HFI     F5 2982  -0.005   1.387   3.147 -0.1315 -0.0791  0.1587
  208HFI     F6 2983  -0.152   1.217   3.144 -0.2151  0.0455 -0.4286
  208HFI     H1 2984   0.033   1.087   3.049  1.0495 -0.5556  0.0633
  208HFI     H2 2985  -0.111   1.192   2.899  0.0765 -2.1612  2.7795
  209HFI     O1 2986   1.444   2.482   2.488  0.2935  0.1107 -0.0216
  209HFI     C1 2987   1.562   2.524   2.415  0.8329  0.3721 -1.2492
  209HFI     C2 2988   1.544   2.678   2.361 -0.4307  0.6481 -0.1507
  209HFI     F1 2989   1.442   2.680   2.270 -0.0011 -0.2076 -0.5020
  209HFI     F2 2990   1.651   2.728   2.302 -0.3064 -0.3772 -0.8953
  209HFI     F3 2991   1.507   2.764   2.454 -0.1918 -0.5468 -0.0157
  209HFI     C3 2992   1.592   2.408   2.311  0.8078  0.2411 -0.3574
  209HFI     F4 2993   1.652   2.301   2.367  0.1662 -0.2873 -0.3967
  209HFI     F5 2994   1.682   2.456   2.220  0.4740 -1.0464  0.1946
  209HFI     F6 2995   1.482   2.371   2.240 -0.6205  0.8814 -0.4235
  209HFI     H1 2996   1.435   2.385   2.500 -1.5846  0.3817  0.9802
  209HFI     H2 2997   1.640   2.532   2.491 -2.0204  0.5848  1.7444
  210HFI     O1 2998   1.813   0.224   2.509  0.0512  0.6308  0.6538
  210HFI     C1 2999   1.927   0.259   2.423  0.4550 -0.2552  0.2218
  210HFI     C2 3000   1.912   0.189   2.285 -0.1917 -0.3862  0.0555
  210HFI     F1 3001   1.782   0.206   2.253  0.1392  0.4912  0.3367
  210HFI     F2 3002   1.930   0.054   2.298  0.4569  0.5861 -0.1060
  210HFI     F3 3003   1.994   0.231   2.186 -0.1856  0.1422 -0.2911
  210HFI     C3 3004   2.066   0.229   2.501  0.5853  0.0661 -0.0156
  210HFI     F4 3005   2.180   0.266   2.437  0.5674  0.3846 -0.3723
  210HFI     F5 3006   2.089   0.099   2.530  0.4434 -0.1604  0.0912
  210HFI     F6 3007   2.063   0.295   2.614  0.5409  0.1245 -0.4663
  210HFI     H1 3008   1.794   0.132   2.485 -0.2102  1.5654 -3.0152
  210HFI     H2 3009   1.926   0.365   2.396  1.1684 -0.8485 -2.2611
  211HFI     O1 3010   2.600   0.532   3.732 -0.1757  0.1413  0.4007
  211HFI     C1 3011   2.517   0.597   3.830 -0.1164  0.4012 -0.1986
  211HFI     C2 3012   2.415   0.496   3.916  0.7147 -0.8278  0.3012
  211HFI     F1 3013   2.310   0.440   3.845  0.2646 -0.1598  0.1034
  211HFI     F2 3014   2.369   0.571   4.019  0.3330 -0.1586  0.2666
  211HFI     F3 3015   2.476   0.389   3.973  0.1407 -0.2277 -0.4535
  211HFI     C3 3016   2.451   0.728   3.770  0.4412 -0.5483 -0.0928
  211HFI     F4 3017   2.371   0.792   3.850  0.1294  0.1010  0.4550
  211HFI     F5 3018   2.381   0.690   3.663 -0.6409  0.1464 -0.3229
  211HFI     F6 3019   2.549   0.816   3.728 -0.1057 -0.0742  0.1898
  211HFI     H1 3020   2.566   0.560   3.645 -0.7153  1.5572  1.0519
  211HFI     H2 3021   2.579   0.637   3.912  1.2084  0.5516 -1.2629
  212HFI     O1 3022   2.468   2.984   3.597 -0.1871 -0.2256 -0.1615
  212HFI     C1 3023   2.444   2.850   3.654 -0.4873 -0.0267  0.1885
  212HFI     C2 3024   2.471   2.843   3.807 -0.3704 -0.2918  0.7235
  212HFI     F1 3025   2.414   2.947   3.858  0.1972 -0.2031  0.2659
  212HFI     F2 3026   2.600   2.847   3.828 -0.2916  0.0443  0.0061
  212HFI     F3 3027   2.414   2.730   3.863  0.0827  0.2512 -0.1422
  212HFI     C3 3028   2.530   2.746   3.576  0.2002  0.5285 -0.1723
  212HFI     F4 3029   2.471   2.721   3.455  0.5726  0.2128  0.3046
  212HFI     F5 3030   2.527   2.627   3.635  1.0646  0.9569 -0.1482
  212HFI     F6 3031   2.656   2.777   3.551 -0.5379 -0.6372  0.1175
  212HFI     H1 3032   2.497   3.047   3.666  0.7868  0.3070 -1.0560
  212HFI     H2 3033   2.337   2.828   3.637 -0.2274  0.1393 -1.7251
  213HFI     O1 3034   2.226   1.267   3.027  0.4901 -0.0660 -0.3636
  213HFI     C1 3035   2.243   1.272   2.881 -0.2274  0.4786 -0.3728
  213HFI     C2 3036   2.141   1.186   2.806  0.7863 -0.4227  0.0160
  213HFI     F1 3037   2.152   1.063   2.852 -0.0686 -0.4807  0.0541
  213HFI     F2 3038   2.166   1.192   2.673 -0.0236  0.3522  0.5601
  213HFI     F3 3039   2.019   1.225   2.833 -0.0492 -0.1422 -0.2756
  213HFI     C3 3040   2.391   1.250   2.835  0.6221  0.4518  1.1448
  213HFI     F4 3041   2.409   1.254   2.703 -0.5291  0.0116 -0.3281
  213HFI     F5 3042   2.433   1.128   2.878 -0.2047 -0.0488 -0.1058
  213HFI     F6 3043   2.472   1.342   2.895  0.4176  0.0091  0.2243
  213HFI     H1 3044   2.305   1.305   3.069 -0.5341 -0.2767  1.8003
  213HFI     H2 3045   2.222   1.372   2.842 -2.1963  0.3663  0.3510
  214HFI     O1 3046   2.606   0.161   3.518 -0.3245  0.1958 -0.2603
  214HFI     C1 3047   2.520   0.060   3.448 -0.2347  0.0110  0.5006
  214HFI     C2 3048   2.489  -0.070   3.528  0.1552 -0.3778  0.1595
  214HFI     F1 3049   2.583  -0.169   3.522  0.1681 -0.0227 -0.1972
  214HFI     F2 3050   2.371  -0.116   3.475 -0.3941 -0.0287 -0.1436
  214HFI     F3 3051   2.476  -0.043   3.660 -0.3668 -0.1747  0.3337
  214HFI     C3 3052   2.571   0.035   3.299 -0.6719  0.4307  0.2727
  214HFI     F4 3053   2.660  -0.073   3.299  0.0580  0.0137 -0.3441
  214HFI     F5 3054   2.638   0.134   3.236  0.3537 -0.0778  0.5027
  214HFI     F6 3055   2.474  -0.013   3.226  0.7310  0.1333 -0.0669
  214HFI     H1 3056   2.695   0.148   3.482 -0.0923  0.7726  0.1001
  214HFI     H2 3057   2.424   0.109   3.423  0.6946  2.2163  1.1270
  215HFI     O1 3058   1.989   2.071   2.818 -0.5683 -0.0440 -0.0478
  215HFI     C1 3059   1.879   2.148   2.877  0.2453  0.2099  0.1193
  215HFI     C2 3060   1.761   2.130   2.774 -0.3164 -0.4364 -0.0483
  215HFI     F1 3061   1.747   1.994   2.747 -0.5090 -0.0886 -0.3043
  215HFI     F2 3062   1.777   2.195   2.655  0.3523  0.3685 -0.5486
  215HFI     F3 3063   1.639   2.165   2.822  0.5267 -0.2357 -0.6342
  215HFI     C3 3064   1.916   2.297   2.906  0.6207  0.5747  0.2902
  215HFI     F4 3065   2.019   2.314   2.989 -0.1120  0.3673  0.1315
  215HFI     F5 3066   1.805   2.363   2.953  0.1708  0.0574 -0.0197
  215HFI     F6 3067   1.953   2.353   2.786 -0.0140  0.1810  0.5556
  215HFI     H1 3068   2.044   2.138   2.774 -1.1565 -0.0513 -0.7926
  215HFI     H2 3069   1.845   2.105   2.972  0.3255 -0.0917  0.0099
  216HFI     O1 3070   0.353   2.591   3.540 -0.5028  0.0972  0.1517
  216HFI     C1 3071   0.257   2.606   3.651  0.1499  0.0102 -0.0357
  216HFI     C2 3072   0.260   2.479   3.727  0.0728  0.5426 -0.1707
  216HFI     F1 3073   0.387   2.445   3.754  0.1419  0.0201  0.1775
  216HFI     F2 3074   0.207   2.376   3.661  0.1213  0.7493 -0.0610
  216HFI     F3 3075   0.200   2.498   3.845  0.2233 -0.6016 -0.0115
  216HFI     C3 3076   0.108   2.657   3.606  0.2550  0.5265  0.2023
  216HFI     F4 3077   0.033   2.563   3.536  0.0951 -0.4103 -0.3606
  216HFI     F5 3078   0.120   2.768   3.529 -0.1245  0.3158  0.1080
  216HFI     F6 3079   0.036   2.695   3.718  0.6870 -0.0113  0.7150
  216HFI     H1 3080   0.307   2.564   3.458 -0.2808 -4.1791  1.3657
  216HFI     H2 3081   0.297   2.682   3.718  0.8729  0.8158 -1.3613
  217HFI     O1 3082   0.938   0.058   2.812  0.1418 -0.3960 -0.4298
  217HFI     C1 3083   0.975   0.190   2.861  0.5223 -0.0249  0.0892
  217HFI     C2 3084   1.076   0.195   2.987  0.1245  0.0952 -0.2996
  217HFI     F1 3085   1.075   0.082   3.066  0.9698  0.0698 -0.0825
  217HFI     F2 3086   1.057   0.301   3.068 -0.2271  0.1334  0.3961
  217HFI     F3 3087   1.201   0.212   2.933 -0.4965 -0.0726 -0.5356
  217HFI     C3 3088   0.835   0.260   2.904  0.0166 -0.7407  0.3228
  217HFI     F4 3089   0.843   0.394   2.948 -0.7184  0.4536  0.6269
  217HFI     F5 3090   0.772   0.189   2.997  0.7449 -0.4938  0.6781
  217HFI     F6 3091   0.756   0.254   2.795  0.1093 -0.4616 -0.4733
  217HFI     H1 3092   0.876   0.013   2.872 -1.1620  0.7103 -0.9271
  217HFI     H2 3093   1.021   0.242   2.776  0.1461  2.2744  1.2587
  218HFI     O1 3094   1.674   0.646   0.140  0.6983  0.2449  0.1444
  218HFI     C1 3095   1.615   0.582   0.025  0.2712  0.5932  0.3264
  218HFI     C2 3096   1.464   0.590   0.042  0.5030  0.1682  0.0084
  218HFI     F1 3097   1.412   0.516   0.145 -0.0415  0.2828 -0.1285
  218HFI     F2 3098   1.402   0.543  -0.075 -0.2583 -0.1312 -0.3583
  218HFI     F3 3099   1.421   0.720   0.067 -0.3031 -0.4301  0.0770
  218HFI     C3 3100   1.683   0.447  -0.004  0.1521 -0.2037 -0.0049
  218HFI     F4 3101   1.658   0.403  -0.135  0.8306 -0.5014 -0.2047
  218HFI     F5 3102   1.660   0.350   0.081 -0.0590  0.0147 -0.3248
  218HFI     F6 3103   1.814   0.471   0.006 -0.6579 -0.1583  0.3242
  218HFI     H1 3104   1.631   0.615   0.222 -0.6902 -0.0571 -0.6756
  218HFI     H2 3105   1.639   0.639  -0.066 -1.1225  1.1606  0.2947
  219HFI     O1 3106   0.959   1.955   2.925  0.1801 -0.3151  0.2692
  219HFI     C1 3107   1.060   2.002   2.829 -0.1236 -0.0867 -0.2636
  219HFI     C2 3108   1.183   2.063   2.894 -0.1381 -0.8054 -0.0176
  219HFI     F1 3109   1.154   2.172   2.973  0.6330  0.1647  0.1669
  219HFI     F2 3110   1.279   2.097   2.807 -0.1277  0.0896  0.6885
  219HFI     F3 3111   1.246   1.974   2.981 -0.2467  0.2281 -0.3828
  219HFI     C3 3112   0.989   2.105   2.725 -0.0989  0.2113 -0.1391
  219HFI     F4 3113   1.077   2.142   2.622  0.0286  0.4836  0.0836
  219HFI     F5 3114   0.959   2.214   2.794  0.0479  0.0426 -0.2965
  219HFI     F6 3115   0.883   2.047   2.680  0.0068 -0.3543 -0.0566
  219HFI     H1 3116   0.894   2.023   2.950 -0.0796  0.0921 -1.4560
  219HFI     H2 3117   1.087   1.920   2.762 -0.9251 -0.7910  0.2622
  220HFI     O1 3118   1.434   3.271   2.520  0.0429  0.0862  0.6631
  220HFI     C1 3119   1.432   3.180   2.405  0.9165  0.2941 -0.4771
  220HFI     C2 3120   1.573   3.161   2.343 -0.5442  0.1177 -0.9039
  220HFI     F1 3121   1.656   3.093   2.423  0.0936 -0.1990 -0.1202
  220HFI     F2 3122   1.629   3.290   2.327 -0.2865 -0.2168  0.0448
  220HFI     F3 3123   1.569   3.106   2.219  0.1758  0.3246  0.6671
  220HFI     C3 3124   1.310   3.215   2.310 -0.9149  0.6184  0.9783
  220HFI     F4 3125   1.195   3.241   2.374  0.1452  0.6003 -0.3106
  220HFI     F5 3126   1.286   3.113   2.216  0.7332  0.1130  0.0754
  220HFI     F6 3127   1.348   3.323   2.242  0.2201  0.4122 -0.0320
  220HFI     H1 3128   1.511   3.330   2.514  1.6365 -2.0532 -0.3893
  220HFI     H2 3129   1.410   3.076   2.430 -1.0083  0.5647 -0.9548
  221HFI     O1 3130   2.554   0.907   2.984  0.1143 -0.0658  0.1370
  221HFI     C1 3131   2.623   0.826   2.883 -0.5848  0.2025 -0.0856
  221HFI     C2 3132   2.738   0.907   2.820  0.0646 -0.0919  0.0509
  221HFI     F1 3133   2.698   1.034   2.793  0.0533  0.1982  0.1575
  221HFI     F2 3134   2.779   0.858   2.696  0.1179 -0.4656  0.2873
  221HFI     F3 3135   2.841   0.918   2.896 -0.4515 -0.1593  0.2949
  221HFI     C3 3136   2.525   0.771   2.769 -0.0374 -0.3952 -0.4952
  221HFI     F4 3137   2.495   0.871   2.672 -0.3385  0.2071  0.3453
  221HFI     F5 3138   2.406   0.728   2.821  0.6023  0.6202  0.0619
  221HFI     F6 3139   2.582   0.672   2.700  0.6046  0.2959 -0.3388
  221HFI     H1 3140   2.538   0.996   2.948 -1.2614  0.9656  3.1434
  221HFI     H2 3141   2.666   0.736   2.928 -1.2931  0.2573  0.7331
  222HFI     O1 3142   2.877   1.503   2.534  0.1218  0.5635 -0.6167
  222HFI     C1 3143   2.897   1.415   2.647  0.4372 -0.3847 -0.0591
  222HFI     C2 3144   2.778   1.426   2.752 -0.7256 -0.3557 -0.9615
  222HFI     F1 3145   2.753   1.556   2.781  0.8822 -0.1335 -0.3686
  222HFI     F2 3146   2.799   1.352   2.860  0.3217 -0.5420  0.5087
  222HFI     F3 3147   2.674   1.384   2.685  0.1662  0.4215 -0.2493
  222HFI     C3 3148   3.033   1.441   2.722  0.5749  0.0892 -0.4509
  222HFI     F4 3149   3.019   1.506   2.842  0.1641  0.1039 -0.3843
  222HFI     F5 3150   3.114   1.513   2.645  0.7414 -0.4823  0.2023
  222HFI     F6 3151   3.088   1.324   2.737 -0.0008 -0.6310 -0.0371
  222HFI     H1 3152   2.966   1.535   2.508 -0.2489  0.8325 -1.5891
  222HFI     H2 3153   2.911   1.309   2.620  1.5862 -0.5026  0.9583
  223HFI     O1 3154   0.714   1.655   3.325 -0.3522 -0.0379  0.4250
  223HFI     C1 3155   0.807   1.760   3.293  0.4189  0.1455  0.5077
  223HFI     C2 3156   0.950   1.715   3.272  0.5403  0.0313 -0.0387
  223HFI     F1 3157   0.947   1.616   3.184  0.4110  0.0787 -0.0343
  223HFI     F2 3158   1.001   1.673   3.387  0.5437  0.4305  0.3632
  223HFI     F3 3159   1.024   1.810   3.214 -0.1842  0.8561  0.1923
  223HFI     C3 3160   0.796   1.865   3.400  0.3142 -0.5756  0.0518
  223HFI     F4 3161   0.674   1.929   3.401  0.9810  0.1705  0.5356
  223HFI     F5 3162   0.890   1.961   3.385  0.0991  0.4449  0.6716
  223HFI     F6 3163   0.812   1.812   3.522  0.2114  0.1273 -0.1441
  223HFI     H1 3164   0.636   1.683   3.376 -0.4410  1.5912 -0.6012
  223HFI     H2 3165   0.775   1.808   3.200  1.2223  2.6473  1.4803
  224HFI     O1 3166   1.740   1.182   3.040 -0.4226 -0.2514  0.2781
  224HFI     C1 3167   1.635   1.143   2.944  0.6010 -0.1091 -0.1381
  224HFI     C2 3168   1.671   1.001   2.889 -0.7440  0.0341 -0.2032
  224HFI     F1 3169   1.690   0.914   2.984 -0.0273 -0.2830 -0.4842
  224HFI     F2 3170   1.779   0.996   2.813 -0.3427 -0.6458  0.3551
  224HFI     F3 3171   1.564   0.966   2.809  0.2662 -0.1339 -0.3473
  224HFI     C3 3172   1.591   1.256   2.841 -0.7009 -0.2783 -0.2895
  224HFI     F4 3173   1.482   1.226   2.771  0.1236 -0.5667  0.5532
  224HFI     F5 3174   1.692   1.286   2.754  0.2625  0.4069 -0.2520
  224HFI     F6 3175   1.557   1.369   2.903  0.2549  0.0764  0.1721
  224HFI     H1 3176   1.827   1.153   3.008  0.5129 -0.6983  3.0652
  224HFI     H2 3177   1.540   1.130   2.997  0.7089  2.1220  0.6615
  225HFI     O1 3178   2.615   1.320   0.146  0.5059 -0.3976  0.4662
  225HFI     C1 3179   2.698   1.243   0.053 -0.4476  0.8155 -0.4820
  225HFI     C2 3180   2.767   1.111   0.111  0.4135  0.1909  0.0229
  225HFI     F1 3181   2.812   1.028   0.019  0.4707  0.9147  0.3064
  225HFI     F2 3182   2.676   1.041   0.187  0.3413 -0.5517  0.3212
  225HFI     F3 3183   2.874   1.143   0.193 -0.2926 -0.4729 -0.2040
  225HFI     C3 3184   2.784   1.340  -0.034 -0.3623  0.5178 -0.1107
  225HFI     F4 3185   2.829   1.280  -0.147  0.1243  0.2695 -0.0797
  225HFI     F5 3186   2.893   1.390   0.036  0.5415 -0.2117 -0.2633
  225HFI     F6 3187   2.709   1.452  -0.066 -0.4101 -0.5215  0.1830
  225HFI     H1 3188   2.639   1.413   0.129  1.7238 -0.9404 -0.9628
  225HFI     H2 3189   2.626   1.208  -0.022 -0.5925  1.5002 -0.6717
  226HFI     O1 3190   0.989   1.608   2.424 -0.4537 -0.5355  0.2748
  226HFI     C1 3191   0.865   1.654   2.364  0.8185 -0.3992 -0.0257
  226HFI     C2 3192   0.808   1.544   2.268 -0.0005  0.1026  0.3136
  226HFI     F1 3193   0.890   1.530   2.163  0.2052 -0.2911  0.1300
  226HFI     F2 3194   0.685   1.588   2.220  0.2750 -0.0492 -0.0535
  226HFI     F3 3195   0.795   1.436   2.341  0.4458 -0.0207  0.6507
  226HFI     C3 3196   0.891   1.796   2.295  0.9105  0.1004 -0.3922
  226HFI     F4 3197   0.793   1.829   2.202  0.2658  0.7448 -0.1112
  226HFI     F5 3198   1.007   1.797   2.229  0.1453 -0.6420  0.0905
  226HFI     F6 3199   0.891   1.895   2.384 -0.3156  0.0889  0.1590
  226HFI     H1 3200   1.060   1.619   2.359  0.9321  0.5076  1.9366
  226HFI     H2 3201   0.785   1.656   2.439  0.2159 -1.3560 -0.6370
  227HFI     O1 3202   2.084   0.801   2.236 -0.2510  0.4643  0.6215
  227HFI     C1 3203   2.211   0.749   2.271  0.3507  0.1817  0.1979
  227HFI     C2 3204   2.192   0.599   2.324 -0.1280  0.0759  0.0271
  227HFI     F1 3205   2.116   0.531   2.236  0.4328 -0.0896 -0.5095
  227HFI     F2 3206   2.128   0.605   2.443  0.1399 -0.4372  0.5805
  227HFI     F3 3207   2.310   0.533   2.344  0.0753 -0.3971  0.5344
  227HFI     C3 3208   2.296   0.846   2.347 -0.9639  0.1832  0.6913
  227HFI     F4 3209   2.237   0.890   2.461 -0.1765  0.1655  0.2090
  227HFI     F5 3210   2.323   0.949   2.273  0.1894 -0.0785 -0.2369
  227HFI     F6 3211   2.412   0.795   2.388 -0.5468  0.1613 -0.3984
  227HFI     H1 3212   2.038   0.837   2.313 -1.3715  0.1833  0.0880
  227HFI     H2 3213   2.266   0.733   2.178 -0.3408  1.0914 -0.3789
  228HFI     O1 3214   3.166   1.777   2.459 -0.6667  0.3058  0.3892
  228HFI     C1 3215   3.275   1.764   2.374 -0.1303  0.9494 -0.3209
  228HFI     C2 3216   3.262   1.878   2.274  0.1125  0.0206 -0.0809
  228HFI     F1 3217   3.380   1.877   2.203 -0.4910 -0.0217  0.1143
  228HFI     F2 3218   3.255   1.994   2.335  0.0006  0.1111 -0.7646
  228HFI     F3 3219   3.160   1.872   2.198  0.1291 -0.3225 -0.0816
  228HFI     C3 3220   3.289   1.622   2.324 -0.1120 -0.1854 -0.2122
  228HFI     F4 3221   3.173   1.566   2.294 -0.4270 -0.0157 -0.7935
  228HFI     F5 3222   3.340   1.545   2.420 -0.0016  0.1180  0.5359
  228HFI     F6 3223   3.372   1.607   2.218  0.5088 -0.1031 -0.0353
  228HFI     H1 3224   3.171   1.866   2.498  2.1421  1.6057 -2.7662
  228HFI     H2 3225   3.367   1.779   2.431 -0.7189  0.5275  0.7419
   3.40320   3.43847   3.80000
