HFIP comparator n4
 3225
    1GR      C1    1   0.000   0.000   1.900
    1GR      C2    2   0.142   0.000   1.900
    1GR      C3    3   0.213   0.123   1.900
    1GR      C4    4   0.354   0.123   1.900
    1GR      C5    5   0.000   0.246   1.900
    1GR      C6    6   0.142   0.246   1.900
    1GR      C7    7   0.213   0.368   1.900
    1GR      C8    8   0.354   0.368   1.900
    1GR      C9    9   0.000   0.491   1.900
    1GR     C10   10   0.142   0.491   1.900
    1GR     C11   11   0.213   0.614   1.900
    1GR     C12   12   0.354   0.614   1.900
    1GR     C13   13   0.000   0.737   1.900
    1GR     C14   14   0.142   0.737   1.900
    1GR     C15   15   0.213   0.860   1.900
    1GR     C16   16   0.354   0.860   1.900
    1GR     C17   17   0.000   0.982   1.900
    1GR     C18   18   0.142   0.982   1.900
    1GR     C19   19   0.213   1.105   1.900
    1GR     C20   20   0.354   1.105   1.900
    1GR     C21   21   0.000   1.228   1.900
    1GR     C22   22   0.142   1.228   1.900
    1GR     C23   23   0.213   1.351   1.900
    1GR     C24   24   0.354   1.351   1.900
    1GR     C25   25   0.000   1.474   1.900
    1GR     C26   26   0.142   1.474   1.900
    1GR     C27   27   0.213   1.596   1.900
    1GR     C28   28   0.354   1.596   1.900
    1GR     C29   29   0.000   1.719   1.900
    1GR     C30   30   0.142   1.719   1.900
    1GR     C31   31   0.213   1.842   1.900
    1GR     C32   32   0.354   1.842   1.900
    1GR     C33   33   0.000   1.965   1.900
    1GR     C34   34   0.142   1.965   1.900
    1GR     C35   35   0.213   2.088   1.900
    1GR     C36   36   0.354   2.088   1.900
    1GR     C37   37   0.000   2.210   1.900
    1GR     C38   38   0.142   2.210   1.900
    1GR     C39   39   0.213   2.333   1.900
    1GR     C40   40   0.354   2.333   1.900
    1GR     C41   41   0.000   2.456   1.900
    1GR     C42   42   0.142   2.456   1.900
    1GR     C43   43   0.213   2.579   1.900
    1GR     C44   44   0.354   2.579   1.900
    1GR     C45   45   0.000   2.702   1.900
    1GR     C46   46   0.142   2.702   1.900
    1GR     C47   47   0.213   2.824   1.900
    1GR     C48   48   0.354   2.824   1.900
    1GR     C49   49   0.000   2.947   1.900
    1GR     C50   50   0.142   2.947   1.900
    1GR     C51   51   0.213   3.070   1.900
    1GR     C52   52   0.354   3.070   1.900
    1GR     C53   53   0.000   3.193   1.900
    1GR     C54   54   0.142   3.193   1.900
    1GR     C55   55   0.213   3.316   1.900
    1GR     C56   56   0.354   3.316   1.900
    1GR     C57   57   0.425   0.000   1.900
    1GR     C58   58   0.567   0.000   1.900
    1GR     C59   59   0.638   0.123   1.900
    1GR     C60   60   0.780   0.123   1.900
    1GR     C61   61   0.425   0.246   1.900
    1GR     C62   62   0.567   0.246   1.900
    1GR     C63   63   0.638   0.368   1.900
    1GR     C64   64   0.780   0.368   1.900
    1GR     C65   65   0.425   0.491   1.900
    1GR     C66   66   0.567   0.491   1.900
    1GR     C67   67   0.638   0.614   1.900
    1GR     C68   68   0.780   0.614   1.900
    1GR     C69   69   0.425   0.737   1.900
    1GR     C70   70   0.567   0.737   1.900
    1GR     C71   71   0.638   0.860   1.900
    1GR     C72   72   0.780   0.860   1.900
    1GR     C73   73   0.425   0.982   1.900
    1GR     C74   74   0.567   0.982   1.900
    1GR     C75   75   0.638   1.105   1.900
    1GR     C76   76   0.780   1.105   1.900
    1GR     C77   77   0.425   1.228   1.900
    1GR     C78   78   0.567   1.228   1.900
    1GR     C79   79   0.638   1.351   1.900
    1GR     C80   80   0.780   1.351   1.900
    1GR     C81   81   0.425   1.474   1.900
    1GR     C82   82   0.567   1.474   1.900
    1GR     C83   83   0.638   1.596   1.900
    1GR     C84   84   0.780   1.596   1.900
    1GR     C85   85   0.425   1.719   1.900
    1GR     C86   86   0.567   1.719   1.900
    1GR     C87   87   0.638   1.842   1.900
    1GR     C88   88   0.780   1.842   1.900
    1GR     C89   89   0.425   1.965   1.900
    1GR     C90   90   0.567   1.965   1.900
    1GR     C91   91   0.638   2.088   1.900
    1GR     C92   92   0.780   2.088   1.900
    1GR     C93   93   0.425   2.210   1.900
    1GR     C94   94   0.567   2.210   1.900
    1GR     C95   95   0.638   2.333   1.900
    1GR     C96   96   0.780   2.333   1.900
    1GR     C97   97   0.425   2.456   1.900
    1GR     C98   98   0.567   2.456   1.900
    1GR     C99   99   0.638   2.579   1.900
    1GR    C100  100   0.780   2.579   1.900
    1GR    C101  101   0.425   2.702   1.900
    1GR    C102  102   0.567   2.702   1.900
    1GR    C103  103   0.638   2.824   1.900
    1GR    C104  104   0.780   2.824   1.900
    1GR    C105  105   0.425   2.947   1.900
    1GR    C106  106   0.567   2.947   1.900
    1GR    C107  107   0.638   3.070   1.900
    1GR    C108  108   0.780   3.070   1.900
    1GR    C109  109   0.425   3.193   1.900
    1GR    C110  110   0.567   3.193   1.900
    1GR    C111  111   0.638   3.316   1.900
    1GR    C112  112   0.780   3.316   1.900
    1GR    C113  113   0.851   0.000   1.900
    1GR    C114  114   0.993   0.000   1.900
    1GR    C115  115   1.064   0.123   1.900
    1GR    C116  116   1.205   0.123   1.900
    1GR    C117  117   0.851   0.246   1.900
    1GR    C118  118   0.993   0.246   1.900
    1GR    C119  119   1.064   0.368   1.900
    1GR    C120  120   1.205   0.368   1.900
    1GR    C121  121   0.851   0.491   1.900
    1GR    C122  122   0.993   0.491   1.900
    1GR    C123  123   1.064   0.614   1.900
    1GR    C124  124   1.205   0.614   1.900
    1GR    C125  125   0.851   0.737   1.900
    1GR    C126  126   0.993   0.737   1.900
    1GR    C127  127   1.064   0.860   1.900
    1GR    C128  128   1.205   0.860   1.900
    1GR    C129  129   0.851   0.982   1.900
    1GR    C130  130   0.993   0.982   1.900
    1GR    C131  131   1.064   1.105   1.900
    1GR    C132  132   1.205   1.105   1.900
    1GR    C133  133   0.851   1.228   1.900
    1GR    C134  134   0.993   1.228   1.900
    1GR    C135  135   1.064   1.351   1.900
    1GR    C136  136   1.205   1.351   1.900
    1GR    C137  137   0.851   1.474   1.900
    1GR    C138  138   0.993   1.474   1.900
    1GR    C139  139   1.064   1.596   1.900
    1GR    C140  140   1.205   1.596   1.900
    1GR    C141  141   0.851   1.719   1.900
    1GR    C142  142   0.993   1.719   1.900
    1GR    C143  143   1.064   1.842   1.900
    1GR    C144  144   1.205   1.842   1.900
    1GR    C145  145   0.851   1.965   1.900
    1GR    C146  146   0.993   1.965   1.900
    1GR    C147  147   1.064   2.088   1.900
    1GR    C148  148   1.205   2.088   1.900
    1GR    C149  149   0.851   2.210   1.900
    1GR    C150  150   0.993   2.210   1.900
    1GR    C151  151   1.064   2.333   1.900
    1GR    C152  152   1.205   2.333   1.900
    1GR    C153  153   0.851   2.456   1.900
    1GR    C154  154   0.993   2.456   1.900
    1GR    C155  155   1.064   2.579   1.900
    1GR    C156  156   1.205   2.579   1.900
    1GR    C157  157   0.851   2.702   1.900
    1GR    C158  158   0.993   2.702   1.900
    1GR    C159  159   1.064   2.824   1.900
    1GR    C160  160   1.205   2.824   1.900
    1GR    C161  161   0.851   2.947   1.900
    1GR    C162  162   0.993   2.947   1.900
    1GR    C163  163   1.064   3.070   1.900
    1GR    C164  164   1.205   3.070   1.900
    1GR    C165  165   0.851   3.193   1.900
    1GR    C166  166   0.993   3.193   1.900
    1GR    C167  167   1.064   3.316   1.900
    1GR    C168  168   1.205   3.316   1.900
    1GR    C169  169   1.276   0.000   1.900
    1GR    C170  170   1.418   0.000   1.900
    1GR    C171  171   1.489   0.123   1.900
    1GR    C172  172   1.631   0.123   1.900
    1GR    C173  173   1.276   0.246   1.900
    1GR    C174  174   1.418   0.246   1.900
    1GR    C175  175   1.489   0.368   1.900
    1GR    C176  176   1.631   0.368   1.900
    1GR    C177  177   1.276   0.491   1.900
    1GR    C178  178   1.418   0.491   1.900
    1GR    C179  179   1.489   0.614   1.900
    1GR    C180  180   1.631   0.614   1.900
    1GR    C181  181   1.276   0.737   1.900
    1GR    C182  182   1.418   0.737   1.900
    1GR    C183  183   1.489   0.860   1.900
    1GR    C184  184   1.631   0.860   1.900
    1GR    C185  185   1.276   0.982   1.900
    1GR    C186  186   1.418   0.982   1.900
    1GR    C187  187   1.489   1.105   1.900
    1GR    C188  188   1.631   1.105   1.900
    1GR    C189  189   1.276   1.228   1.900
    1GR    C190  190   1.418   1.228   1.900
    1GR    C191  191   1.489   1.351   1.900
    1GR    C192  192   1.631   1.351   1.900
    1GR    C193  193   1.276   1.474   1.900
    1GR    C194  194   1.418   1.474   1.900
    1GR    C195  195   1.489   1.596   1.900
    1GR    C196  196   1.631   1.596   1.900
    1GR    C197  197   1.276   1.719   1.900
    1GR    C198  198   1.418   1.719   1.900
    1GR    C199  199   1.489   1.842   1.900
    1GR    C200  200   1.631   1.842   1.900
    1GR    C201  201   1.276   1.965   1.900
    1GR    C202  202   1.418   1.965   1.900
    1GR    C203  203   1.489   2.088   1.900
    1GR    C204  204   1.631   2.088   1.900
    1GR    C205  205   1.276   2.210   1.900
    1GR    C206  206   1.418   2.210   1.900
    1GR    C207  207   1.489   2.333   1.900
    1GR    C208  208   1.631   2.333   1.900
    1GR    C209  209   1.276   2.456   1.900
    1GR    C210  210   1.418   2.456   1.900
    1GR    C211  211   1.489   2.579   1.900
    1GR    C212  212   1.631   2.579   1.900
    1GR    C213  213   1.276   2.702   1.900
    1GR    C214  214   1.418   2.702   1.900
    1GR    C215  215   1.489   2.824   1.900
    1GR    C216  216   1.631   2.824   1.900
    1GR    C217  217   1.276   2.947   1.900
    1GR    C218  218   1.418   2.947   1.900
    1GR    C219  219   1.489   3.070   1.900
    1GR    C220  220   1.631   3.070   1.900
    1GR    C221  221   1.276   3.193   1.900
    1GR    C222  222   1.418   3.193   1.900
    1GR    C223  223   1.489   3.316   1.900
    1GR    C224  224   1.631   3.316   1.900
    1GR    C225  225   1.702   0.000   1.900
    1GR    C226  226   1.843   0.000   1.900
    1GR    C227  227   1.914   0.123   1.900
    1GR    C228  228   2.056   0.123   1.900
    1GR    C229  229   1.702   0.246   1.900
    1GR    C230  230   1.843   0.246   1.900
    1GR    C231  231   1.914   0.368   1.900
    1GR    C232  232   2.056   0.368   1.900
    1GR    C233  233   1.702   0.491   1.900
    1GR    C234  234   1.843   0.491   1.900
    1GR    C235  235   1.914   0.614   1.900
    1GR    C236  236   2.056   0.614   1.900
    1GR    C237  237   1.702   0.737   1.900
    1GR    C238  238   1.843   0.737   1.900
    1GR    C239  239   1.914   0.860   1.900
    1GR    C240  240   2.056   0.860   1.900
    1GR    C241  241   1.702   0.982   1.900
    1GR    C242  242   1.843   0.982   1.900
    1GR    C243  243   1.914   1.105   1.900
    1GR    C244  244   2.056   1.105   1.900
    1GR    C245  245   1.702   1.228   1.900
    1GR    C246  246   1.843   1.228   1.900
    1GR    C247  247   1.914   1.351   1.900
    1GR    C248  248   2.056   1.351   1.900
    1GR    C249  249   1.702   1.474   1.900
    1GR    C250  250   1.843   1.474   1.900
    1GR    C251  251   1.914   1.596   1.900
    1GR    C252  252   2.056   1.596   1.900
    1GR    C253  253   1.702   1.719   1.900
    1GR    C254  254   1.843   1.719   1.900
    1GR    C255  255   1.914   1.842   1.900
    1GR    C256  256   2.056   1.842   1.900
    1GR    C257  257   1.702   1.965   1.900
    1GR    C258  258   1.843   1.965   1.900
    1GR    C259  259   1.914   2.088   1.900
    1GR    C260  260   2.056   2.088   1.900
    1GR    C261  261   1.702   2.210   1.900
    1GR    C262  262   1.843   2.210   1.900
    1GR    C263  263   1.914   2.333   1.900
    1GR    C264  264   2.056   2.333   1.900
    1GR    C265  265   1.702   2.456   1.900
    1GR    C266  266   1.843   2.456   1.900
    1GR    C267  267   1.914   2.579   1.900
    1GR    C268  268   2.056   2.579   1.900
    1GR    C269  269   1.702   2.702   1.900
    1GR    C270  270   1.843   2.702   1.900
    1GR    C271  271   1.914   2.824   1.900
    1GR    C272  272   2.056   2.824   1.900
    1GR    C273  273   1.702   2.947   1.900
    1GR    C274  274   1.843   2.947   1.900
    1GR    C275  275   1.914   3.070   1.900
    1GR    C276  276   2.056   3.070   1.900
    1GR    C277  277   1.702   3.193   1.900
    1GR    C278  278   1.843   3.193   1.900
    1GR    C279  279   1.914   3.316   1.900
    1GR    C280  280   2.056   3.316   1.900
    1GR    C281  281   2.127   0.000   1.900
    1GR    C282  282   2.269   0.000   1.900
    1GR    C283  283   2.340   0.123   1.900
    1GR    C284  284   2.481   0.123   1.900
    1GR    C285  285   2.127   0.246   1.900
    1GR    C286  286   2.269   0.246   1.900
    1GR    C287  287   2.340   0.368   1.900
    1GR    C288  288   2.481   0.368   1.900
    1GR    C289  289   2.127   0.491   1.900
    1GR    C290  290   2.269   0.491   1.900
    1GR    C291  291   2.340   0.614   1.900
    1GR    C292  292   2.481   0.614   1.900
    1GR    C293  293   2.127   0.737   1.900
    1GR    C294  294   2.269   0.737   1.900
    1GR    C295  295   2.340   0.860   1.900
    1GR    C296  296   2.481   0.860   1.900
    1GR    C297  297   2.127   0.982   1.900
    1GR    C298  298   2.269   0.982   1.900
    1GR    C299  299   2.340   1.105   1.900
    1GR    C300  300   2.481   1.105   1.900
    1GR    C301  301   2.127   1.228   1.900
    1GR    C302  302   2.269   1.228   1.900
    1GR    C303  303   2.340   1.351   1.900
    1GR    C304  304   2.481   1.351   1.900
    1GR    C305  305   2.127   1.474   1.900
    1GR    C306  306   2.269   1.474   1.900
    1GR    C307  307   2.340   1.596   1.900
    1GR    C308  308   2.481   1.596   1.900
    1GR    C309  309   2.127   1.719   1.900
    1GR    C310  310   2.269   1.719   1.900
    1GR    C311  311   2.340   1.842   1.900
    1GR    C312  312   2.481   1.842   1.900
    1GR    C313  313   2.127   1.965   1.900
    1GR    C314  314   2.269   1.965   1.900
    1GR    C315  315   2.340   2.088   1.900
    1GR    C316  316   2.481   2.088   1.900
    1GR    C317  317   2.127   2.210   1.900
    1GR    C318  318   2.269   2.210   1.900
    1GR    C319  319   2.340   2.333   1.900
    1GR    C320  320   2.481   2.333   1.900
    1GR    C321  321   2.127   2.456   1.900
    1GR    C322  322   2.269   2.456   1.900
    1GR    C323  323   2.340   2.579   1.900
    1GR    C324  324   2.481   2.579   1.900
    1GR    C325  325   2.127   2.702   1.900
    1GR    C326  326   2.269   2.702   1.900
    1GR    C327  327   2.340   2.824   1.900
    1GR    C328  328   2.481   2.824   1.900
    1GR    C329  329   2.127   2.947   1.900
    1GR    C330  330   2.269   2.947   1.900
    1GR    C331  331   2.340   3.070   1.900
    1GR    C332  332   2.481   3.070   1.900
    1GR    C333  333   2.127   3.193   1.900
    1GR    C334  334   2.269   3.193   1.900
    1GR    C335  335   2.340   3.316   1.900
    1GR    C336  336   2.481   3.316   1.900
    1GR    C337  337   2.552   0.000   1.900
    1GR    C338  338   2.694   0.000   1.900
    1GR    C339  339   2.765   0.123   1.900
    1GR    C340  340   2.907   0.123   1.900
    1GR    C341  341   2.552   0.246   1.900
    1GR    C342  342   2.694   0.246   1.900
    1GR    C343  343   2.765   0.368   1.900
    1GR    C344  344   2.907   0.368   1.900
    1GR    C345  345   2.552   0.491   1.900
    1GR    C346  346   2.694   0.491   1.900
    1GR    C347  347   2.765   0.614   1.900
    1GR    C348  348   2.907   0.614   1.900
    1GR    C349  349   2.552   0.737   1.900
    1GR    C350  350   2.694   0.737   1.900
    1GR    C351  351   2.765   0.860   1.900
    1GR    C352  352   2.907   0.860   1.900
    1GR    C353  353   2.552   0.982   1.900
    1GR    C354  354   2.694   0.982   1.900
    1GR    C355  355   2.765   1.105   1.900
    1GR    C356  356   2.907   1.105   1.900
    1GR    C357  357   2.552   1.228   1.900
    1GR    C358  358   2.694   1.228   1.900
    1GR    C359  359   2.765   1.351   1.900
    1GR    C360  360   2.907   1.351   1.900
    1GR    C361  361   2.552   1.474   1.900
    1GR    C362  362   2.694   1.474   1.900
    1GR    C363  363   2.765   1.596   1.900
    1GR    C364  364   2.907   1.596   1.900
    1GR    C365  365   2.552   1.719   1.900
    1GR    C366  366   2.694   1.719   1.900
    1GR    C367  367   2.765   1.842   1.900
    1GR    C368  368   2.907   1.842   1.900
    1GR    C369  369   2.552   1.965   1.900
    1GR    C370  370   2.694   1.965   1.900
    1GR    C371  371   2.765   2.088   1.900
    1GR    C372  372   2.907   2.088   1.900
    1GR    C373  373   2.552   2.210   1.900
    1GR    C374  374   2.694   2.210   1.900
    1GR    C375  375   2.765   2.333   1.900
    1GR    C376  376   2.907   2.333   1.900
    1GR    C377  377   2.552   2.456   1.900
    1GR    C378  378   2.694   2.456   1.900
    1GR    C379  379   2.765   2.579   1.900
    1GR    C380  380   2.907   2.579   1.900
    1GR    C381  381   2.552   2.702   1.900
    1GR    C382  382   2.694   2.702   1.900
    1GR    C383  383   2.765   2.824   1.900
    1GR    C384  384   2.907   2.824   1.900
    1GR    C385  385   2.552   2.947   1.900
    1GR    C386  386   2.694   2.947   1.900
    1GR    C387  387   2.765   3.070   1.900
    1GR    C388  388   2.907   3.070   1.900
    1GR    C389  389   2.552   3.193   1.900
    1GR    C390  390   2.694   3.193   1.900
    1GR    C391  391   2.765   3.316   1.900
    1GR    C392  392   2.907   3.316   1.900
    1GR    C393  393   2.978   0.000   1.900
    1GR    C394  394   3.120   0.000   1.900
    1GR    C395  395   3.191   0.123   1.900
    1GR    C396  396   3.332   0.123   1.900
    1GR    C397  397   2.978   0.246   1.900
    1GR    C398  398   3.120   0.246   1.900
    1GR    C399  399   3.191   0.368   1.900
    1GR    C400  400   3.332   0.368   1.900
    1GR    C401  401   2.978   0.491   1.900
    1GR    C402  402   3.120   0.491   1.900
    1GR    C403  403   3.191   0.614   1.900
    1GR    C404  404   3.332   0.614   1.900
    1GR    C405  405   2.978   0.737   1.900
    1GR    C406  406   3.120   0.737   1.900
    1GR    C407  407   3.191   0.860   1.900
    1GR    C408  408   3.332   0.860   1.900
    1GR    C409  409   2.978   0.982   1.900
    1GR    C410  410   3.120   0.982   1.900
    1GR    C411  411   3.191   1.105   1.900
    1GR    C412  412   3.332   1.105   1.900
    1GR    C413  413   2.978   1.228   1.900
    1GR    C414  414   3.120   1.228   1.900
    1GR    C415  415   3.191   1.351   1.900
    1GR    C416  416   3.332   1.351   1.900
    1GR    C417  417   2.978   1.474   1.900
    1GR    C418  418   3.120   1.474   1.900
    1GR    C419  419   3.191   1.596   1.900
    1GR    C420  420   3.332   1.596   1.900
    1GR    C421  421   2.978   1.719   1.900
    1GR    C422  422   3.120   1.719   1.900
    1GR    C423  423   3.191   1.842   1.900
    1GR    C424  424   3.332   1.842   1.900
    1GR    C425  425   2.978   1.965   1.900
    1GR    C426  426   3.120   1.965   1.900
    1GR    C427  427   3.191   2.088   1.900
    1GR    C428  428   3.332   2.088   1.900
    1GR    C429  429   2.978   2.210   1.900
    1GR    C430  430   3.120   2.210   1.900
    1GR    C431  431   3.191   2.333   1.900
    1GR    C432  432   3.332   2.333   1.900
    1GR    C433  433   2.978   2.456   1.900
    1GR    C434  434   3.120   2.456   1.900
    1GR    C435  435   3.191   2.579   1.900
    1GR    C436  436   3.332   2.579   1.900
    1GR    C437  437   2.978   2.702   1.900
    1GR    C438  438   3.120   2.702   1.900
    1GR    C439  439   3.191   2.824   1.900
    1GR    C440  440   3.332   2.824   1.900
    1GR    C441  441   2.978   2.947   1.900
    1GR    C442  442   3.120   2.947   1.900
    1GR    C443  443   3.191   3.070   1.900
    1GR    C444  444   3.332   3.070   1.900
    1GR    C445  445   2.978   3.193   1.900
    1GR    C446  446   3.120   3.193   1.900
    1GR    C447  447   3.191   3.316   1.900
    1GR    C448  448   3.332   3.316   1.900
    2PMMA   CX1  449   1.207   1.836   2.434
    2PMMA   CA2  450   1.360   1.822   2.438
    2PMMA   CX3  451   1.416   1.879   2.306
    2PMMA    C4  452   1.397   1.904   2.563
    2PMMA    O5  453   1.375   1.865   2.674
    2PMMA   OS6  454   1.464   2.020   2.540
    2PMMA   CE7  455   1.503   2.101   2.650
    2PMMA   CX8  456   1.391   1.670   2.459
    2PMMA   CA9  457   1.537   1.612   2.456
    2PMMA  CX10  458   1.584   1.599   2.309
    2PMMA   C11  459   1.520   1.471   2.516
    2PMMA   O12  460   1.508   1.368   2.454
    2PMMA  OS13  461   1.522   1.473   2.652
    2PMMA  CE14  462   1.508   1.356   2.729
    2PMMA  CX15  463   1.634   1.701   2.540
    2PMMA  CA16  464   1.788   1.675   2.557
    2PMMA  CX17  465   1.829   1.761   2.679
    2PMMA   C18  466   1.817   1.528   2.593
    2PMMA   O19  467   1.852   1.488   2.702
    2PMMA  OS20  468   1.818   1.448   2.484
    2PMMA  CE21  469   1.851   1.310   2.497
    2PMMA  CX22  470   1.867   1.727   2.431
    2PMMA  CA23  471   2.021   1.751   2.435
    2PMMA  CX24  472   2.092   1.626   2.491
    2PMMA   C25  473   2.063   1.880   2.507
    2PMMA   O26  474   1.995   1.978   2.517
    2PMMA  OS27  475   2.186   1.870   2.564
    2PMMA  CE28  476   2.238   1.976   2.642
    2PMMA  CX29  477   2.070   1.773   2.289
    2PMMA  HC30  478   1.160   1.807   2.529
    2PMMA  HC31  479   1.175   1.939   2.415
    2PMMA  HC32  480   1.162   1.774   2.355
    2PMMA  HC33  481   1.525   1.891   2.309
    2PMMA  HC34  482   1.375   1.978   2.283
    2PMMA  HC35  483   1.392   1.814   2.221
    2PMMA  H136  484   1.419   2.164   2.681
    2PMMA  H137  485   1.587   2.164   2.621
    2PMMA  H138  486   1.534   2.040   2.735
    2PMMA  HC39  487   1.345   1.642   2.554
    2PMMA  HC40  488   1.332   1.613   2.387
    2PMMA  HC41  489   1.504   1.565   2.242
    2PMMA  HC42  490   1.621   1.694   2.268
    2PMMA  HC43  491   1.666   1.527   2.297
    2PMMA  H144  492   1.418   1.302   2.701
    2PMMA  H145  493   1.502   1.383   2.835
    2PMMA  H146  494   1.595   1.292   2.714
    2PMMA  HC47  495   1.626   1.804   2.502
    2PMMA  HC48  496   1.589   1.709   2.640
    2PMMA  HC49  497   1.809   1.867   2.660
    2PMMA  HC50  498   1.934   1.750   2.706
    2PMMA  HC51  499   1.772   1.733   2.768
    2PMMA  H152  500   1.775   1.260   2.557
    2PMMA  H153  501   1.948   1.298   2.544
    2PMMA  H154  502   1.854   1.264   2.398
    2PMMA  HC55  503   1.846   1.659   2.349
    2PMMA  HC56  504   1.821   1.821   2.398
    2PMMA  HC57  505   2.201   1.635   2.483
    2PMMA  HC58  506   2.073   1.610   2.597
    2PMMA  HC59  507   2.062   1.536   2.437
    2PMMA  H160  508   2.235   2.069   2.585
    2PMMA  H161  509   2.342   1.954   2.669
    2PMMA  H162  510   2.180   1.986   2.734
    2PMMA  HC63  511   2.051   1.686   2.226
    2PMMA  HC64  512   2.020   1.858   2.242
    2PMMA  HC65  513   2.178   1.792   2.284
    3HFI     O1  514   1.850   0.050   0.675
    3HFI     C1  515   1.769   0.166   0.642
    3HFI     C2  516   1.857   0.294   0.644
    3HFI     F1  517   1.957   0.283   0.553
    3HFI     F2  518   1.914   0.313   0.765
    3HFI     F3  519   1.786   0.404   0.612
    3HFI     C3  520   1.642   0.177   0.732
    3HFI     F4  521   1.675   0.184   0.863
    3HFI     F5  522   1.562   0.070   0.716
    3HFI     F6  523   1.568   0.285   0.703
    3HFI     H1  524   1.914   0.074   0.744
    3HFI     H2  525   1.732   0.157   0.539
    4HFI     O1  526   0.178   1.188   0.525
    4HFI     C1  527   0.242   1.312   0.568
    4HFI     C2  528   0.251   1.414   0.452
    4HFI     F1  529   0.130   1.432   0.395
    4HFI     F2  530   0.335   1.368   0.356
    4HFI     F3  531   0.295   1.534   0.494
    4HFI     C3  532   0.379   1.283   0.635
    4HFI     F4  533   0.452   1.201   0.558
    4HFI     F5  534   0.359   1.221   0.753
    4HFI     F6  535   0.453   1.392   0.660
    4HFI     H1  536   0.226   1.155   0.447
    4HFI     H2  537   0.179   1.360   0.645
    5HFI     O1  538   1.955   1.058   0.714
    5HFI     C1  539   2.032   1.138   0.807
    5HFI     C2  540   2.056   1.281   0.753
    5HFI     F1  541   1.941   1.350   0.755
    5HFI     F2  542   2.098   1.278   0.626
    5HFI     F3  543   2.144   1.353   0.823
    5HFI     C3  544   2.157   1.061   0.858
    5HFI     F4  545   2.209   0.984   0.761
    5HFI     F5  546   2.121   0.978   0.957
    5HFI     F6  547   2.257   1.137   0.905
    5HFI     H1  548   1.999   1.059   0.627
    5HFI     H2  549   1.971   1.150   0.897
    6HFI     O1  550   2.840   1.697   0.220
    6HFI     C1  551   2.710   1.746   0.265
    6HFI     C2  552   2.729   1.868   0.358
    6HFI     F1  553   2.807   1.960   0.298
    6HFI     F2  554   2.789   1.833   0.474
    6HFI     F3  555   2.613   1.927   0.388
    6HFI     C3  556   2.623   1.633   0.327
    6HFI     F4  557   2.689   1.571   0.427
    6HFI     F5  558   2.593   1.540   0.233
    6HFI     F6  559   2.506   1.678   0.377
    6HFI     H1  560   2.906   1.717   0.288
    6HFI     H2  561   2.655   1.781   0.177
    7HFI     O1  562   1.839   2.767   0.434
    7HFI     C1  563   1.746   2.839   0.348
    7HFI     C2  564   1.687   2.745   0.238
    7HFI     F1  565   1.631   2.636   0.294
    7HFI     F2  566   1.782   2.701   0.154
    7HFI     F3  567   1.590   2.806   0.167
    7HFI     C3  568   1.814   2.964   0.287
    7HFI     F4  569   1.920   2.929   0.215
    7HFI     F5  570   1.858   3.046   0.385
    7HFI     F6  571   1.731   3.035   0.208
    7HFI     H1  572   1.900   2.716   0.377
    7HFI     H2  573   1.662   2.876   0.407
    8HFI     O1  574   0.334   2.004   0.671
    8HFI     C1  575   0.287   2.084   0.558
    8HFI     C2  576   0.196   2.201   0.604
    8HFI     F1  577   0.265   2.288   0.681
    8HFI     F2  578   0.093   2.155   0.678
    8HFI     F3  579   0.147   2.271   0.500
    8HFI     C3  580   0.221   1.994   0.450
    8HFI     F4  581   0.100   1.949   0.490
    8HFI     F5  582   0.297   1.886   0.424
    8HFI     F6  583   0.205   2.061   0.333
    8HFI     H1  584   0.263   1.999   0.737
    8HFI     H2  585   0.373   2.131   0.509
    9HFI     O1  586   2.757   1.165   1.387
    9HFI     C1  587   2.757   1.277   1.293
    9HFI     C2  588   2.709   1.408   1.361
    9HFI     F1  589   2.782   1.432   1.471
    9HFI     F2  590   2.580   1.399   1.399
    9HFI     F3  591   2.724   1.514   1.280
    9HFI     C3  592   2.684   1.244   1.159
    9HFI     F4  593   2.556   1.207   1.179
    9HFI     F5  594   2.747   1.142   1.098
    9HFI     F6  595   2.685   1.347   1.072
    9HFI     H1  596   2.665   1.150   1.415
    9HFI     H2  597   2.860   1.298   1.263
   10HFI     O1  598   0.954   2.918   0.117
   10HFI     C1  599   1.035   2.896   0.236
   10HFI     C2  600   1.150   2.798   0.207
   10HFI     F1  601   1.225   2.845   0.106
   10HFI     F2  602   1.102   2.677   0.172
   10HFI     F3  603   1.233   2.783   0.313
   10HFI     C3  604   0.946   2.853   0.354
   10HFI     F4  605   0.861   2.758   0.313
   10HFI     F5  606   0.873   2.957   0.400
   10HFI     F6  607   1.017   2.806   0.459
   10HFI     H1  608   0.924   2.832   0.083
   10HFI     H2  609   1.081   2.992   0.264
   11HFI     O1  610   2.760   0.866   0.998
   11HFI     C1  611   2.623   0.836   1.038
   11HFI     C2  612   2.612   0.827   1.193
   11HFI     F1  613   2.625   0.947   1.251
   11HFI     F2  614   2.709   0.749   1.245
   11HFI     F3  615   2.493   0.780   1.235
   11HFI     C3  616   2.570   0.712   0.958
   11HFI     F4  617   2.658   0.611   0.957
   11HFI     F5  618   2.550   0.743   0.829
   11HFI     F6  619   2.453   0.664   1.004
   11HFI     H1  620   2.819   0.795   1.030
   11HFI     H2  621   2.559   0.920   1.008
   12HFI     O1  622   2.038   2.697   0.717
   12HFI     C1  623   2.148   2.606   0.684
   12HFI     C2  624   2.276   2.680   0.639
   12HFI     F1  625   2.313   2.780   0.721
   12HFI     F2  626   2.257   2.737   0.520
   12HFI     F3  627   2.382   2.597   0.630
   12HFI     C3  628   2.106   2.502   0.578
   12HFI     F4  629   2.069   2.566   0.465
   12HFI     F5  630   2.000   2.431   0.618
   12HFI     F6  631   2.205   2.416   0.550
   12HFI     H1  632   2.019   2.752   0.639
   12HFI     H2  633   2.175   2.547   0.773
   13HFI     O1  634   1.952   1.289   1.079
   13HFI     C1  635   2.006   1.304   1.213
   13HFI     C2  636   2.126   1.211   1.235
   13HFI     F1  637   2.224   1.235   1.147
   13HFI     F2  638   2.092   1.081   1.222
   13HFI     F3  639   2.177   1.233   1.357
   13HFI     C3  640   1.895   1.301   1.319
   13HFI     F4  641   1.784   1.243   1.270
   13HFI     F5  642   1.864   1.429   1.350
   13HFI     F6  643   1.930   1.237   1.433
   13HFI     H1  644   1.862   1.253   1.088
   13HFI     H2  645   2.049   1.404   1.225
   14HFI     O1  646   3.197   1.305   0.366
   14HFI     C1  647   3.054   1.291   0.342
   14HFI     C2  648   2.987   1.426   0.309
   14HFI     F1  649   3.057   1.493   0.215
   14HFI     F2  650   2.980   1.507   0.418
   14HFI     F3  651   2.862   1.408   0.262
   14HFI     C3  652   2.985   1.217   0.459
   14HFI     F4  653   3.006   1.281   0.576
   14HFI     F5  654   3.036   1.093   0.473
   14HFI     F6  655   2.851   1.205   0.442
   14HFI     H1  656   3.212   1.377   0.429
   14HFI     H2  657   3.038   1.228   0.253
   15HFI     O1  658   0.019   0.805   1.278
   15HFI     C1  659   0.076   0.863   1.399
   15HFI     C2  660   0.168   0.983   1.365
   15HFI     F1  661   0.100   1.073   1.289
   15HFI     F2  662   0.277   0.945   1.295
   15HFI     F3  663   0.208   1.048   1.476
   15HFI     C3  664   0.144   0.756   1.487
   15HFI     F4  665   0.249   0.699   1.423
   15HFI     F5  666   0.056   0.658   1.517
   15HFI     F6  667   0.189   0.807   1.604
   15HFI     H1  668   0.071   0.726   1.254
   15HFI     H2  669  -0.004   0.904   1.462
   16HFI     O1  670   1.667   1.147   0.728
   16HFI     C1  671   1.585   1.076   0.826
   16HFI     C2  672   1.446   1.140   0.848
   16HFI     F1  673   1.400   1.205   0.739
   16HFI     F2  674   1.448   1.229   0.947
   16HFI     F3  675   1.356   1.045   0.881
   16HFI     C3  676   1.664   1.043   0.957
   16HFI     F4  677   1.749   1.141   0.990
   16HFI     F5  678   1.739   0.933   0.939
   16HFI     F6  679   1.585   1.024   1.064
   16HFI     H1  680   1.684   1.237   0.760
   16HFI     H2  681   1.562   0.978   0.783
   17HFI     O1  682   0.646   2.899   0.746
   17HFI     C1  683   0.600   2.879   0.883
   17HFI     C2  684   0.567   2.731   0.914
   17HFI     F1  685   0.676   2.654   0.891
   17HFI     F2  686   0.468   2.685   0.835
   17HFI     F3  687   0.532   2.712   1.043
   17HFI     C3  688   0.487   2.977   0.921
   17HFI     F4  689   0.374   2.949   0.856
   17HFI     F5  690   0.524   3.103   0.889
   17HFI     F6  691   0.461   2.974   1.053
   17HFI     H1  692   0.622   2.821   0.693
   17HFI     H2  693   0.681   2.906   0.952
   18HFI     O1  694   2.179   0.717   0.904
   18HFI     C1  695   2.117   0.630   0.805
   18HFI     C2  696   2.222   0.543   0.733
   18HFI     F1  697   2.285   0.462   0.820
   18HFI     F2  698   2.316   0.618   0.671
   18HFI     F3  699   2.163   0.465   0.641
   18HFI     C3  700   2.025   0.707   0.708
   18HFI     F4  701   2.094   0.790   0.628
   18HFI     F5  702   1.936   0.779   0.778
   18HFI     F6  703   1.957   0.623   0.629
   18HFI     H1  704   2.177   0.808   0.871
   18HFI     H2  705   2.050   0.559   0.855
   19HFI     O1  706   3.129   2.827   1.168
   19HFI     C1  707   3.005   2.753   1.189
   19HFI     C2  708   3.001   2.622   1.108
   19HFI     F1  709   3.108   2.544   1.134
   19HFI     F2  710   3.001   2.648   0.977
   19HFI     F3  711   2.890   2.551   1.135
   19HFI     C3  712   2.880   2.840   1.162
   19HFI     F4  713   2.867   2.873   1.032
   19HFI     F5  714   2.892   2.955   1.228
   19HFI     F6  715   2.765   2.782   1.203
   19HFI     H1  716   3.131   2.863   1.078
   19HFI     H2  717   3.001   2.721   1.294
   20HFI     O1  718   2.314   1.586   1.490
   20HFI     C1  719   2.352   1.726   1.498
   20HFI     C2  720   2.497   1.742   1.552
   20HFI     F1  721   2.585   1.748   1.450
   20HFI     F2  722   2.532   1.635   1.626
   20HFI     F3  723   2.517   1.853   1.625
   20HFI     C3  724   2.231   1.808   1.552
   20HFI     F4  725   2.152   1.732   1.629
   20HFI     F5  726   2.153   1.849   1.449
   20HFI     F6  727   2.265   1.917   1.622
   20HFI     H1  728   2.334   1.544   1.576
   20HFI     H2  729   2.367   1.767   1.397
   21HFI     O1  730   1.994   2.123   0.182
   21HFI     C1  731   1.909   2.237   0.213
   21HFI     C2  732   1.992   2.366   0.225
   21HFI     F1  733   2.043   2.401   0.106
   21HFI     F2  734   2.095   2.347   0.310
   21HFI     F3  735   1.918   2.471   0.267
   21HFI     C3  736   1.828   2.205   0.338
   21HFI     F4  737   1.909   2.168   0.439
   21HFI     F5  738   1.749   2.100   0.305
   21HFI     F6  739   1.749   2.306   0.380
   21HFI     H1  740   1.990   2.062   0.258
   21HFI     H2  741   1.837   2.253   0.132
   22HFI     O1  742   1.557   2.321   0.155
   22HFI     C1  743   1.452   2.352   0.252
   22HFI     C2  744   1.403   2.227   0.326
   22HFI     F1  745   1.505   2.161   0.382
   22HFI     F2  746   1.341   2.144   0.239
   22HFI     F3  747   1.319   2.260   0.426
   22HFI     C3  748   1.333   2.426   0.188
   22HFI     F4  749   1.294   2.362   0.075
   22HFI     F5  750   1.372   2.550   0.156
   22HFI     F6  751   1.225   2.439   0.267
   22HFI     H1  752   1.515   2.301   0.069
   22HFI     H2  753   1.492   2.421   0.327
   23HFI     O1  754   1.288   0.151   0.856
   23HFI     C1  755   1.243   0.214   0.979
   23HFI     C2  756   1.356   0.301   1.038
   23HFI     F1  757   1.432   0.355   0.941
   23HFI     F2  758   1.438   0.227   1.113
   23HFI     F3  759   1.307   0.402   1.114
   23HFI     C3  760   1.190   0.110   1.082
   23HFI     F4  761   1.266  -0.002   1.082
   23HFI     F5  762   1.064   0.073   1.051
   23HFI     F6  763   1.189   0.157   1.209
   23HFI     H1  764   1.252   0.061   0.852
   23HFI     H2  765   1.160   0.282   0.957
   24HFI     O1  766   0.836   2.140   0.873
   24HFI     C1  767   0.706   2.116   0.812
   24HFI     C2  768   0.722   2.090   0.660
   24HFI     F1  769   0.758   1.962   0.635
   24HFI     F2  770   0.820   2.170   0.612
   24HFI     F3  771   0.610   2.114   0.589
   24HFI     C3  772   0.610   2.233   0.841
   24HFI     F4  773   0.633   2.335   0.758
   24HFI     F5  774   0.626   2.279   0.967
   24HFI     F6  775   0.483   2.197   0.825
   24HFI     H1  776   0.883   2.209   0.824
   24HFI     H2  777   0.659   2.027   0.854
   25HFI     O1  778   2.591   0.325   0.981
   25HFI     C1  779   2.627   0.291   1.119
   25HFI     C2  780   2.701   0.408   1.187
   25HFI     F1  781   2.613   0.509   1.202
   25HFI     F2  782   2.804   0.452   1.111
   25HFI     F3  783   2.750   0.381   1.309
   25HFI     C3  784   2.703   0.158   1.129
   25HFI     F4  785   2.820   0.163   1.063
   25HFI     F5  786   2.628   0.059   1.076
   25HFI     F6  787   2.729   0.124   1.257
   25HFI     H1  788   2.626   0.413   0.961
   25HFI     H2  789   2.535   0.275   1.177
   26HFI     O1  790   1.158   3.357   0.819
   26HFI     C1  791   1.096   3.241   0.884
   26HFI     C2  792   1.197   3.123   0.891
   26HFI     F1  793   1.274   3.134   1.002
   26HFI     F2  794   1.282   3.122   0.787
   26HFI     F3  795   1.137   3.002   0.894
   26HFI     C3  796   0.957   3.214   0.819
   26HFI     F4  797   0.968   3.204   0.685
   26HFI     F5  798   0.875   3.317   0.846
   26HFI     F6  799   0.895   3.103   0.865
   26HFI     H1  800   1.145   3.348   0.723
   26HFI     H2  801   1.075   3.266   0.989
   27HFI     O1  802   0.356   3.140   0.632
   27HFI     C1  803   0.226   3.093   0.582
   27HFI     C2  804   0.215   2.937   0.584
   27HFI     F1  805   0.164   2.896   0.701
   27HFI     F2  806   0.337   2.879   0.568
   27HFI     F3  807   0.135   2.889   0.487
   27HFI     C3  808   0.191   3.154   0.445
   27HFI     F4  809   0.256   3.091   0.345
   27HFI     F5  810   0.224   3.285   0.439
   27HFI     F6  811   0.058   3.146   0.421
   27HFI     H1  812   0.426   3.112   0.571
   27HFI     H2  813   0.149   3.128   0.651
   28HFI     O1  814   2.344   3.164   0.565
   28HFI     C1  815   2.267   3.060   0.501
   28HFI     C2  816   2.245   3.090   0.350
   28HFI     F1  817   2.361   3.081   0.282
   28HFI     F2  818   2.196   3.215   0.332
   28HFI     F3  819   2.161   3.003   0.293
   28HFI     C3  820   2.134   3.039   0.579
   28HFI     F4  821   2.055   3.147   0.568
   28HFI     F5  822   2.161   3.021   0.709
   28HFI     F6  823   2.066   2.930   0.537
   28HFI     H1  824   2.303   3.250   0.544
   28HFI     H2  825   2.323   2.966   0.506
   29HFI     O1  826   3.049   1.602   1.379
   29HFI     C1  827   3.078   1.722   1.453
   29HFI     C2  828   3.210   1.706   1.533
   29HFI     F1  829   3.313   1.678   1.451
   29HFI     F2  830   3.199   1.603   1.619
   29HFI     F3  831   3.243   1.817   1.602
   29HFI     C3  832   2.953   1.761   1.535
   29HFI     F4  833   2.903   1.654   1.599
   29HFI     F5  834   2.858   1.809   1.453
   29HFI     F6  835   2.979   1.856   1.626
   29HFI     H1  836   3.001   1.541   1.438
   29HFI     H2  837   3.096   1.806   1.384
   30HFI     O1  838   0.752   1.636   0.329
   30HFI     C1  839   0.700   1.531   0.240
   30HFI     C2  840   0.558   1.569   0.188
   30HFI     F1  841   0.566   1.675   0.106
   30HFI     F2  842   0.477   1.603   0.290
   30HFI     F3  843   0.498   1.470   0.118
   30HFI     C3  844   0.703   1.391   0.309
   30HFI     F4  845   0.636   1.393   0.426
   30HFI     F5  846   0.831   1.356   0.336
   30HFI     F6  847   0.652   1.293   0.232
   30HFI     H1  848   0.739   1.606   0.421
   30HFI     H2  849   0.764   1.523   0.152
   31HFI     O1  850   2.628   2.227   0.718
   31HFI     C1  851   2.696   2.178   0.600
   31HFI     C2  852   2.843   2.139   0.633
   31HFI     F1  853   2.844   2.034   0.718
   31HFI     F2  854   2.910   2.241   0.692
   31HFI     F3  855   2.911   2.101   0.524
   31HFI     C3  856   2.683   2.277   0.481
   31HFI     F4  857   2.779   2.371   0.482
   31HFI     F5  858   2.564   2.342   0.486
   31HFI     F6  859   2.688   2.212   0.363
   31HFI     H1  860   2.671   2.310   0.747
   31HFI     H2  861   2.647   2.086   0.568
   32HFI     O1  862   1.390   1.290   1.601
   32HFI     C1  863   1.531   1.259   1.588
   32HFI     C2  864   1.613   1.383   1.551
   32HFI     F1  865   1.570   1.491   1.619
   32HFI     F2  866   1.601   1.410   1.419
   32HFI     F3  867   1.743   1.367   1.583
   32HFI     C3  868   1.562   1.133   1.504
   32HFI     F4  869   1.525   1.146   1.375
   32HFI     F5  870   1.498   1.027   1.557
   32HFI     F6  871   1.693   1.104   1.508
   32HFI     H1  872   1.361   1.338   1.522
   32HFI     H2  873   1.570   1.230   1.686
   33HFI     O1  874   2.871   2.794   0.755
   33HFI     C1  875   2.750   2.722   0.721
   33HFI     C2  876   2.735   2.592   0.805
   33HFI     F1  877   2.722   2.624   0.935
   33HFI     F2  878   2.842   2.511   0.792
   33HFI     F3  879   2.626   2.520   0.773
   33HFI     C3  880   2.742   2.698   0.569
   33HFI     F4  881   2.852   2.636   0.523
   33HFI     F5  882   2.729   2.816   0.504
   33HFI     F6  883   2.635   2.624   0.535
   33HFI     H1  884   2.946   2.732   0.759
   33HFI     H2  885   2.663   2.784   0.746
   34HFI     O1  886   1.635   2.984   0.694
   34HFI     C1  887   1.640   3.072   0.811
   34HFI     C2  888   1.718   3.201   0.779
   34HFI     F1  889   1.660   3.264   0.676
   34HFI     F2  890   1.846   3.175   0.744
   34HFI     F3  891   1.719   3.287   0.884
   34HFI     C3  892   1.696   2.998   0.933
   34HFI     F4  893   1.825   2.963   0.914
   34HFI     F5  894   1.626   2.884   0.947
   34HFI     F6  895   1.684   3.068   1.047
   34HFI     H1  896   1.705   2.917   0.703
   34HFI     H2  897   1.539   3.104   0.838
   35HFI     O1  898   1.678   0.499   0.892
   35HFI     C1  899   1.629   0.634   0.871
   35HFI     C2  900   1.512   0.669   0.968
   35HFI     F1  901   1.539   0.631   1.095
   35HFI     F2  902   1.396   0.612   0.931
   35HFI     F3  903   1.488   0.801   0.970
   35HFI     C3  904   1.592   0.657   0.722
   35HFI     F4  905   1.518   0.556   0.674
   35HFI     F5  906   1.700   0.670   0.644
   35HFI     F6  907   1.522   0.770   0.705
   35HFI     H1  908   1.606   0.436   0.871
   35HFI     H2  909   1.711   0.703   0.894
   36HFI     O1  910   0.831   2.315   1.536
   36HFI     C1  911   0.752   2.400   1.447
   36HFI     C2  912   0.640   2.325   1.372
   36HFI     F1  913   0.564   2.259   1.462
   36HFI     F2  914   0.691   2.235   1.285
   36HFI     F3  915   0.558   2.408   1.305
   36HFI     C3  916   0.843   2.482   1.353
   36HFI     F4  917   0.936   2.407   1.293
   36HFI     F5  918   0.909   2.573   1.426
   36HFI     F6  919   0.777   2.548   1.257
   36HFI     H1  920   0.879   2.249   1.483
   36HFI     H2  921   0.699   2.473   1.510
   37HFI     O1  922   0.947   0.790   1.419
   37HFI     C1  923   1.052   0.836   1.509
   37HFI     C2  924   1.019   0.979   1.555
   37HFI     F1  925   0.905   0.978   1.626
   37HFI     F2  926   0.996   1.059   1.450
   37HFI     F3  927   1.115   1.035   1.629
   37HFI     C3  928   1.191   0.824   1.443
   37HFI     F4  929   1.197   0.894   1.329
   37HFI     F5  930   1.215   0.696   1.409
   37HFI     F6  931   1.289   0.865   1.525
   37HFI     H1  932   0.985   0.785   1.330
   37HFI     H2  933   1.055   0.774   1.599
   38HFI     O1  934   0.849   1.368   1.607
   38HFI     C1  935   0.755   1.341   1.499
   38HFI     C2  936   0.786   1.422   1.371
   38HFI     F1  937   0.911   1.470   1.372
   38HFI     F2  938   0.704   1.528   1.356
   38HFI     F3  939   0.772   1.343   1.262
   38HFI     C3  940   0.608   1.359   1.541
   38HFI     F4  941   0.586   1.479   1.599
   38HFI     F5  942   0.571   1.265   1.628
   38HFI     F6  943   0.523   1.348   1.437
   38HFI     H1  944   0.868   1.463   1.609
   38HFI     H2  945   0.765   1.235   1.473
   39HFI     O1  946   1.625   2.849   1.628
   39HFI     C1  947   1.738   2.812   1.547
   39HFI     C2  948   1.729   2.893   1.416
   39HFI     F1  949   1.724   3.025   1.442
   39HFI     F2  950   1.618   2.863   1.349
   39HFI     F3  951   1.834   2.869   1.336
   39HFI     C3  952   1.749   2.657   1.533
   39HFI     F4  953   1.635   2.596   1.571
   39HFI     F5  954   1.847   2.608   1.611
   39HFI     F6  955   1.776   2.617   1.408
   39HFI     H1  956   1.558   2.777   1.623
   39HFI     H2  957   1.830   2.846   1.597
   40HFI     O1  958   0.690   3.125   1.130
   40HFI     C1  959   0.633   3.227   1.218
   40HFI     C2  960   0.548   3.331   1.139
   40HFI     F1  961   0.436   3.273   1.091
   40HFI     F2  962   0.618   3.379   1.034
   40HFI     F3  963   0.509   3.436   1.215
   40HFI     C3  964   0.744   3.291   1.304
   40HFI     F4  965   0.835   3.351   1.224
   40HFI     F5  966   0.808   3.197   1.376
   40HFI     F6  967   0.696   3.382   1.392
   40HFI     H1  968   0.714   3.170   1.047
   40HFI     H2  969   0.563   3.180   1.289
   41HFI     O1  970   1.036   1.698   0.152
   41HFI     C1  971   1.168   1.641   0.128
   41HFI     C2  972   1.200   1.528   0.228
   41HFI     F1  973   1.103   1.434   0.221
   41HFI     F2  974   1.203   1.571   0.356
   41HFI     F3  975   1.318   1.468   0.200
   41HFI     C3  976   1.277   1.751   0.124
   41HFI     F4  977   1.291   1.809   0.244
   41HFI     F5  978   1.240   1.849   0.039
   41HFI     F6  979   1.397   1.704   0.085
   41HFI     H1  980   1.042   1.758   0.229
   41HFI     H2  981   1.170   1.594   0.029
   42HFI     O1  982   2.286   1.661   0.674
   42HFI     C1  983   2.275   1.807   0.679
   42HFI     C2  984   2.198   1.862   0.558
   42HFI     F1  985   2.079   1.799   0.547
   42HFI     F2  986   2.270   1.839   0.446
   42HFI     F3  987   2.173   1.994   0.566
   42HFI     C3  988   2.411   1.877   0.702
   42HFI     F4  989   2.506   1.828   0.619
   42HFI     F5  990   2.452   1.856   0.828
   42HFI     F6  991   2.407   2.010   0.684
   42HFI     H1  992   2.308   1.635   0.583
   42HFI     H2  993   2.213   1.832   0.766
   43HFI     O1  994   2.830   3.222   0.564
   43HFI     C1  995   2.715   3.291   0.510
   43HFI     C2  996   2.621   3.338   0.625
   43HFI     F1  997   2.678   3.441   0.690
   43HFI     F2  998   2.598   3.239   0.715
   43HFI     F3  999   2.502   3.384   0.582
   43HFI     C3 1000   2.645   3.205   0.401
   43HFI     F4 1001   2.598   3.089   0.452
   43HFI     F5 1002   2.732   3.173   0.302
   43HFI     F6 1003   2.544   3.272   0.343
   43HFI     H1 1004   2.805   3.132   0.591
   43HFI     H2 1005   2.748   3.382   0.459
   44HFI     O1 1006   1.408   2.943   0.463
   44HFI     C1 1007   1.392   3.085   0.494
   44HFI     C2 1008   1.245   3.134   0.487
   44HFI     F1 1009   1.161   3.042   0.539
   44HFI     F2 1010   1.205   3.155   0.359
   44HFI     F3 1011   1.226   3.250   0.554
   44HFI     C3 1012   1.486   3.174   0.409
   44HFI     F4 1013   1.466   3.153   0.277
   44HFI     F5 1014   1.613   3.143   0.436
   44HFI     F6 1015   1.469   3.305   0.435
   44HFI     H1 1016   1.350   2.920   0.388
   44HFI     H2 1017   1.425   3.102   0.598
   45HFI     O1 1018   2.614   2.049   1.465
   45HFI     C1 1019   2.536   2.160   1.414
   45HFI     C2 1020   2.581   2.295   1.470
   45HFI     F1 1021   2.709   2.316   1.441
   45HFI     F2 1022   2.569   2.301   1.604
   45HFI     F3 1023   2.511   2.394   1.415
   45HFI     C3 1024   2.386   2.141   1.425
   45HFI     F4 1025   2.341   2.160   1.551
   45HFI     F5 1026   2.352   2.018   1.383
   45HFI     F6 1027   2.323   2.227   1.344
   45HFI     H1 1028   2.611   2.049   1.562
   45HFI     H2 1029   2.550   2.168   1.305
   46HFI     O1 1030   1.833   0.066   1.183
   46HFI     C1 1031   1.717   0.151   1.197
   46HFI     C2 1032   1.760   0.297   1.179
   46HFI     F1 1033   1.826   0.311   1.062
   46HFI     F2 1034   1.845   0.335   1.277
   46HFI     F3 1035   1.657   0.383   1.177
   46HFI     C3 1036   1.641   0.121   1.330
   46HFI     F4 1037   1.727   0.116   1.434
   46HFI     F5 1038   1.579   0.002   1.322
   46HFI     F6 1039   1.547   0.214   1.358
   46HFI     H1 1040   1.873   0.054   1.271
   46HFI     H2 1041   1.648   0.128   1.115
   47HFI     O1 1042   0.867   0.903   0.024
   47HFI     C1 1043   0.955   0.928   0.138
   47HFI     C2 1044   0.990   0.796   0.211
   47HFI     F1 1045   1.042   0.706   0.125
   47HFI     F2 1046   0.881   0.740   0.268
   47HFI     F3 1047   1.082   0.815   0.307
   47HFI     C3 1048   0.898   1.041   0.227
   47HFI     F4 1049   0.764   1.031   0.235
   47HFI     F5 1050   0.927   1.161   0.172
   47HFI     F6 1051   0.946   1.041   0.353
   47HFI     H1 1052   0.775   0.914   0.054
   47HFI     H2 1053   1.052   0.966   0.101
   48HFI     O1 1054   0.530   0.101   0.596
   48HFI     C1 1055   0.432   0.164   0.508
   48HFI     C2 1056   0.488   0.294   0.444
   48HFI     F1 1057   0.608   0.272   0.386
   48HFI     F2 1058   0.505   0.390   0.538
   48HFI     F3 1059   0.406   0.343   0.349
   48HFI     C3 1060   0.296   0.185   0.581
   48HFI     F4 1061   0.309   0.265   0.690
   48HFI     F5 1062   0.246   0.068   0.624
   48HFI     F6 1063   0.203   0.242   0.501
   48HFI     H1 1064   0.554   0.162   0.668
   48HFI     H2 1065   0.411   0.097   0.424
   49HFI     O1 1066   3.053   1.133   1.327
   49HFI     C1 1067   3.158   1.144   1.429
   49HFI     C2 1068   3.141   1.033   1.535
   49HFI     F1 1069   3.122   0.913   1.477
   49HFI     F2 1070   3.034   1.057   1.613
   49HFI     F3 1071   3.251   1.022   1.613
   49HFI     C3 1072   3.165   1.286   1.491
   49HFI     F4 1073   3.042   1.336   1.517
   49HFI     F5 1074   3.226   1.371   1.406
   49HFI     F6 1075   3.236   1.290   1.606
   49HFI     H1 1076   2.968   1.117   1.371
   49HFI     H2 1077   3.255   1.127   1.382
   50HFI     O1 1078   3.104   0.588   1.567
   50HFI     C1 1079   3.105   0.487   1.462
   50HFI     C2 1080   3.070   0.550   1.324
   50HFI     F1 1081   3.155   0.651   1.295
   50HFI     F2 1082   2.945   0.602   1.325
   50HFI     F3 1083   3.079   0.461   1.223
   50HFI     C3 1084   3.016   0.366   1.501
   50HFI     F4 1085   2.895   0.407   1.546
   50HFI     F5 1086   3.074   0.297   1.601
   50HFI     F6 1087   2.997   0.279   1.400
   50HFI     H1 1088   3.012   0.617   1.580
   50HFI     H2 1089   3.207   0.447   1.451
   51HFI     O1 1090   2.978   2.263   0.291
   51HFI     C1 1091   3.113   2.261   0.347
   51HFI     C2 1092   3.181   2.399   0.328
   51HFI     F1 1093   3.123   2.490   0.408
   51HFI     F2 1094   3.167   2.442   0.200
   51HFI     F3 1095   3.312   2.397   0.357
   51HFI     C3 1096   3.195   2.142   0.293
   51HFI     F4 1097   3.220   2.156   0.161
   51HFI     F5 1098   3.128   2.025   0.309
   51HFI     F6 1099   3.313   2.128   0.357
   51HFI     H1 1100   2.983   2.294   0.199
   51HFI     H2 1101   3.107   2.246   0.456
   52HFI     O1 1102   0.081   0.672   0.863
   52HFI     C1 1103   0.174   0.593   0.784
   52HFI     C2 1104   0.310   0.583   0.858
   52HFI     F1 1105   0.293   0.526   0.980
   52HFI     F2 1106   0.365   0.705   0.878
   52HFI     F3 1107   0.399   0.506   0.792
   52HFI     C3 1108   0.188   0.645   0.638
   52HFI     F4 1109   0.234   0.772   0.636
   52HFI     F5 1110   0.068   0.644   0.577
   52HFI     F6 1111   0.270   0.569   0.564
   52HFI     H1 1112   0.098   0.766   0.846
   52HFI     H2 1113   0.137   0.490   0.776
   53HFI     O1 1114   2.236   2.029   0.254
   53HFI     C1 1115   2.374   2.061   0.227
   53HFI     C2 1116   2.385   2.209   0.190
   53HFI     F1 1117   2.373   2.285   0.300
   53HFI     F2 1118   2.284   2.241   0.108
   53HFI     F3 1119   2.503   2.238   0.132
   53HFI     C3 1120   2.431   1.967   0.117
   53HFI     F4 1121   2.370   1.986  -0.001
   53HFI     F5 1122   2.414   1.837   0.152
   53HFI     F6 1123   2.564   1.984   0.099
   53HFI     H1 1124   2.181   2.074   0.188
   53HFI     H2 1125   2.433   2.048   0.318
   54HFI     O1 1126   1.520   2.394   0.559
   54HFI     C1 1127   1.528   2.536   0.586
   54HFI     C2 1128   1.663   2.566   0.655
   54HFI     F1 1129   1.762   2.541   0.567
   54HFI     F2 1130   1.683   2.483   0.758
   54HFI     F3 1131   1.676   2.694   0.696
   54HFI     C3 1132   1.397   2.587   0.650
   54HFI     F4 1133   1.351   2.500   0.743
   54HFI     F5 1134   1.300   2.597   0.556
   54HFI     F6 1135   1.408   2.710   0.706
   54HFI     H1 1136   1.549   2.346   0.639
   54HFI     H2 1137   1.532   2.592   0.491
   55HFI     O1 1138   1.886   0.619   1.330
   55HFI     C1 1139   1.904   0.759   1.368
   55HFI     C2 1140   1.849   0.789   1.510
   55HFI     F1 1141   1.889   0.694   1.596
   55HFI     F2 1142   1.713   0.790   1.511
   55HFI     F3 1143   1.893   0.908   1.558
   55HFI     C3 1144   1.848   0.851   1.258
   55HFI     F4 1145   1.721   0.819   1.227
   55HFI     F5 1146   1.922   0.839   1.145
   55HFI     F6 1147   1.851   0.980   1.294
   55HFI     H1 1148   1.810   0.582   1.378
   55HFI     H2 1149   2.012   0.781   1.375
   56HFI     O1 1150   3.117   2.630   0.724
   56HFI     C1 1151   3.215   2.557   0.804
   56HFI     C2 1152   3.313   2.651   0.880
   56HFI     F1 1153   3.250   2.765   0.920
   56HFI     F2 1154   3.418   2.689   0.805
   56HFI     F3 1155   3.361   2.591   0.991
   56HFI     C3 1156   3.290   2.450   0.720
   56HFI     F4 1157   3.353   2.506   0.615
   56HFI     F5 1158   3.202   2.360   0.671
   56HFI     F6 1159   3.380   2.384   0.795
   56HFI     H1 1160   3.147   2.631   0.631
   56HFI     H2 1161   3.163   2.500   0.881
   57HFI     O1 1162   1.197   1.039   0.493
   57HFI     C1 1163   1.296   1.034   0.387
   57HFI     C2 1164   1.429   0.971   0.434
   57HFI     F1 1165   1.414   0.839   0.456
   57HFI     F2 1166   1.472   1.027   0.548
   57HFI     F3 1167   1.527   0.985   0.343
   57HFI     C3 1168   1.305   1.171   0.318
   57HFI     F4 1169   1.298   1.271   0.409
   57HFI     F5 1170   1.201   1.183   0.233
   57HFI     F6 1171   1.416   1.189   0.243
   57HFI     H1 1172   1.221   1.111   0.554
   57HFI     H2 1173   1.262   0.964   0.309
   58HFI     O1 1174   0.289   1.432   1.609
   58HFI     C1 1175   0.207   1.502   1.511
   58HFI     C2 1176   0.155   1.401   1.406
   58HFI     F1 1177   0.082   1.305   1.465
   58HFI     F2 1178   0.257   1.339   1.343
   58HFI     F3 1179   0.077   1.459   1.311
   58HFI     C3 1180   0.281   1.624   1.452
   58HFI     F4 1181   0.391   1.587   1.383
   58HFI     F5 1182   0.321   1.708   1.550
   58HFI     F6 1183   0.202   1.695   1.367
   58HFI     H1 1184   0.360   1.386   1.563
   58HFI     H2 1185   0.118   1.542   1.562
   59HFI     O1 1186   0.662   1.773   1.493
   59HFI     C1 1187   0.772   1.833   1.564
   59HFI     C2 1188   0.779   1.986   1.547
   59HFI     F1 1189   0.664   2.042   1.590
   59HFI     F2 1190   0.797   2.021   1.419
   59HFI     F3 1191   0.879   2.044   1.617
   59HFI     C3 1192   0.907   1.759   1.541
   59HFI     F4 1193   0.933   1.743   1.410
   59HFI     F5 1194   0.902   1.637   1.597
   59HFI     F6 1195   1.012   1.824   1.595
   59HFI     H1 1196   0.656   1.811   1.404
   59HFI     H2 1197   0.751   1.817   1.671
   60HFI     O1 1198   2.433   2.812   0.327
   60HFI     C1 1199   2.395   2.685   0.265
   60HFI     C2 1200   2.516   2.626   0.191
   60HFI     F1 1201   2.625   2.619   0.269
   60HFI     F2 1202   2.548   2.700   0.083
   60HFI     F3 1203   2.490   2.501   0.152
   60HFI     C3 1204   2.269   2.703   0.175
   60HFI     F4 1205   2.285   2.808   0.092
   60HFI     F5 1206   2.158   2.725   0.249
   60HFI     F6 1207   2.243   2.594   0.099
   60HFI     H1 1208   2.453   2.876   0.256
   60HFI     H2 1209   2.368   2.612   0.342
   61HFI     O1 1210   0.920   1.310   0.735
   61HFI     C1 1211   0.812   1.404   0.764
   61HFI     C2 1212   0.818   1.527   0.673
   61HFI     F1 1213   0.868   1.499   0.553
   61HFI     F2 1214   0.898   1.619   0.726
   61HFI     F3 1215   0.697   1.584   0.655
   61HFI     C3 1216   0.813   1.444   0.913
   61HFI     F4 1217   0.940   1.458   0.955
   61HFI     F5 1218   0.754   1.350   0.989
   61HFI     F6 1219   0.748   1.559   0.935
   61HFI     H1 1220   1.001   1.342   0.779
   61HFI     H2 1221   0.714   1.357   0.745
   62HFI     O1 1222   2.228   3.138   1.605
   62HFI     C1 1223   2.145   3.198   1.502
   62HFI     C2 1224   2.165   3.349   1.497
   62HFI     F1 1225   2.293   3.370   1.461
   62HFI     F2 1226   2.144   3.405   1.617
   62HFI     F3 1227   2.086   3.412   1.408
   62HFI     C3 1228   2.000   3.148   1.506
   62HFI     F4 1229   1.967   3.094   1.625
   62HFI     F5 1230   1.991   3.051   1.414
   62HFI     F6 1231   1.906   3.242   1.480
   62HFI     H1 1232   2.185   3.151   1.692
   62HFI     H2 1233   2.184   3.164   1.405
   63HFI     O1 1234   2.003   2.526   0.994
   63HFI     C1 1235   1.908   2.547   1.101
   63HFI     C2 1236   1.809   2.430   1.113
   63HFI     F1 1237   1.874   2.315   1.111
   63HFI     F2 1238   1.721   2.426   1.012
   63HFI     F3 1239   1.740   2.433   1.227
   63HFI     C3 1240   1.839   2.680   1.075
   63HFI     F4 1241   1.806   2.687   0.944
   63HFI     F5 1242   1.922   2.782   1.102
   63HFI     F6 1243   1.727   2.694   1.146
   63HFI     H1 1244   1.961   2.554   0.911
   63HFI     H2 1245   1.961   2.554   1.197
   64HFI     O1 1246   3.106   2.338   1.625
   64HFI     C1 1247   2.996   2.313   1.535
   64HFI     C2 1248   2.965   2.161   1.524
   64HFI     F1 1249   2.864   2.129   1.607
   64HFI     F2 1250   3.074   2.091   1.564
   64HFI     F3 1251   2.932   2.118   1.401
   64HFI     C3 1252   3.024   2.387   1.403
   64HFI     F4 1253   3.145   2.354   1.352
   64HFI     F5 1254   3.025   2.521   1.425
   64HFI     F6 1255   2.931   2.363   1.309
   64HFI     H1 1256   3.152   2.253   1.639
   64HFI     H2 1257   2.905   2.360   1.576
   65HFI     O1 1258   0.964   0.324   1.167
   65HFI     C1 1259   0.969   0.343   1.312
   65HFI     C2 1260   0.871   0.250   1.387
   65HFI     F1 1261   0.914   0.123   1.378
   65HFI     F2 1262   0.747   0.257   1.334
   65HFI     F3 1263   0.863   0.279   1.519
   65HFI     C3 1264   0.953   0.491   1.350
   65HFI     F4 1265   0.825   0.531   1.339
   65HFI     F5 1266   1.025   0.567   1.265
   65HFI     F6 1267   0.995   0.515   1.476
   65HFI     H1 1268   0.924   0.405   1.129
   65HFI     H2 1269   1.068   0.313   1.349
   66HFI     O1 1270   1.180   0.387   0.650
   66HFI     C1 1271   1.162   0.340   0.513
   66HFI     C2 1272   1.203   0.190   0.501
   66HFI     F1 1273   1.135   0.115   0.592
   66HFI     F2 1274   1.335   0.173   0.525
   66HFI     F3 1275   1.175   0.140   0.380
   66HFI     C3 1276   1.236   0.432   0.413
   66HFI     F4 1277   1.366   0.446   0.447
   66HFI     F5 1278   1.180   0.555   0.414
   66HFI     F6 1279   1.229   0.387   0.286
   66HFI     H1 1280   1.265   0.433   0.655
   66HFI     H2 1281   1.056   0.344   0.487
   67HFI     O1 1282   3.264   3.012   0.281
   67HFI     C1 1283   3.154   2.944   0.347
   67HFI     C2 1284   3.060   3.044   0.418
   67HFI     F1 1285   3.016   3.137   0.331
   67HFI     F2 1286   3.122   3.108   0.519
   67HFI     F3 1287   2.951   2.982   0.469
   67HFI     C3 1288   3.204   2.832   0.442
   67HFI     F4 1289   3.265   2.880   0.552
   67HFI     F5 1290   3.291   2.750   0.379
   67HFI     F6 1291   3.102   2.755   0.483
   67HFI     H1 1292   3.316   3.062   0.347
   67HFI     H2 1293   3.093   2.893   0.272
   68HFI     O1 1294   1.890   1.530   0.175
   68HFI     C1 1295   1.971   1.611   0.265
   68HFI     C2 1296   2.028   1.738   0.196
   68HFI     F1 1297   1.946   1.780   0.098
   68HFI     F2 1298   2.151   1.719   0.144
   68HFI     F3 1299   2.035   1.840   0.283
   68HFI     C3 1300   2.077   1.523   0.337
   68HFI     F4 1301   2.129   1.429   0.254
   68HFI     F5 1302   2.018   1.459   0.439
   68HFI     F6 1303   2.181   1.592   0.389
   68HFI     H1 1304   1.885   1.574   0.088
   68HFI     H2 1305   1.907   1.649   0.345
   69HFI     O1 1306   2.797   3.340   0.912
   69HFI     C1 1307   2.917   3.281   0.969
   69HFI     C2 1308   2.965   3.162   0.880
   69HFI     F1 1309   3.030   3.211   0.772
   69HFI     F2 1310   2.860   3.089   0.836
   69HFI     F3 1311   3.051   3.079   0.942
   69HFI     C3 1312   2.891   3.242   1.115
   69HFI     F4 1313   2.785   3.158   1.119
   69HFI     F5 1314   2.859   3.347   1.191
   69HFI     F6 1315   2.998   3.186   1.174
   69HFI     H1 1316   2.725   3.275   0.916
   69HFI     H2 1317   2.997   3.356   0.970
   70HFI     O1 1318   1.446   0.645   1.554
   70HFI     C1 1319   1.465   0.510   1.503
   70HFI     C2 1320   1.338   0.421   1.526
   70HFI     F1 1321   1.275   0.402   1.408
   70HFI     F2 1322   1.249   0.481   1.608
   70HFI     F3 1323   1.361   0.299   1.578
   70HFI     C3 1324   1.605   0.458   1.545
   70HFI     F4 1325   1.660   0.542   1.633
   70HFI     F5 1326   1.687   0.461   1.440
   70HFI     F6 1327   1.610   0.335   1.599
   70HFI     H1 1328   1.513   0.664   1.622
   70HFI     H2 1329   1.470   0.517   1.394
   71HFI     O1 1330   2.551   2.513   1.170
   71HFI     C1 1331   2.468   2.473   1.058
   71HFI     C2 1332   2.320   2.496   1.083
   71HFI     F1 1333   2.296   2.620   1.126
   71HFI     F2 1334   2.270   2.416   1.177
   71HFI     F3 1335   2.254   2.477   0.969
   71HFI     C3 1336   2.496   2.329   1.011
   71HFI     F4 1337   2.461   2.241   1.106
   71HFI     F5 1338   2.627   2.315   0.986
   71HFI     F6 1339   2.429   2.297   0.899
   71HFI     H1 1340   2.504   2.493   1.253
   71HFI     H2 1341   2.492   2.534   0.970
   72HFI     O1 1342   0.768   1.869   0.179
   72HFI     C1 1343   0.703   1.998   0.197
   72HFI     C2 1344   0.804   2.097   0.257
   72HFI     F1 1345   0.916   2.101   0.181
   72HFI     F2 1346   0.839   2.056   0.379
   72HFI     F3 1347   0.757   2.223   0.266
   72HFI     C3 1348   0.571   1.985   0.276
   72HFI     F4 1349   0.588   1.907   0.385
   72HFI     F5 1350   0.477   1.926   0.198
   72HFI     F6 1351   0.521   2.104   0.315
   72HFI     H1 1352   0.746   1.810   0.253
   72HFI     H2 1353   0.674   2.041   0.100
   73HFI     O1 1354   2.547   0.242   1.427
   73HFI     C1 1355   2.438   0.333   1.456
   73HFI     C2 1356   2.487   0.449   1.546
   73HFI     F1 1357   2.545   0.545   1.472
   73HFI     F2 1358   2.581   0.404   1.631
   73HFI     F3 1359   2.388   0.506   1.617
   73HFI     C3 1360   2.316   0.254   1.505
   73HFI     F4 1361   2.351   0.172   1.607
   73HFI     F5 1362   2.275   0.179   1.402
   73HFI     F6 1363   2.211   0.329   1.543
   73HFI     H1 1364   2.570   0.194   1.508
   73HFI     H2 1365   2.407   0.378   1.361
   74HFI     O1 1366   2.787   3.180   1.423
   74HFI     C1 1367   2.648   3.177   1.465
   74HFI     C2 1368   2.552   3.142   1.349
   74HFI     F1 1369   2.597   3.035   1.281
   74HFI     F2 1370   2.539   3.243   1.259
   74HFI     F3 1371   2.428   3.111   1.392
   74HFI     C3 1372   2.608   3.306   1.540
   74HFI     F4 1373   2.582   3.409   1.457
   74HFI     F5 1374   2.707   3.347   1.621
   74HFI     F6 1375   2.498   3.285   1.615
   74HFI     H1 1376   2.800   3.253   1.361
   74HFI     H2 1377   2.635   3.098   1.540
   75HFI     O1 1378   0.525   0.242   1.506
   75HFI     C1 1379   0.462   0.360   1.564
   75HFI     C2 1380   0.310   0.366   1.534
   75HFI     F1 1381   0.251   0.250   1.571
   75HFI     F2 1382   0.285   0.386   1.403
   75HFI     F3 1383   0.249   0.464   1.604
   75HFI     C3 1384   0.537   0.491   1.528
   75HFI     F4 1385   0.537   0.511   1.395
   75HFI     F5 1386   0.665   0.483   1.570
   75HFI     F6 1387   0.481   0.598   1.588
   75HFI     H1 1388   0.568   0.267   1.422
   75HFI     H2 1389   0.471   0.353   1.673
   76HFI     O1 1390   1.184   0.792   0.946
   76HFI     C1 1391   1.106   0.760   0.827
   76HFI     C2 1392   1.027   0.630   0.845
   76HFI     F1 1393   0.926   0.648   0.932
   76HFI     F2 1394   1.105   0.532   0.896
   76HFI     F3 1395   0.972   0.586   0.730
   76HFI     C3 1396   1.189   0.763   0.698
   76HFI     F4 1397   1.264   0.652   0.684
   76HFI     F5 1398   1.272   0.868   0.699
   76HFI     F6 1399   1.110   0.775   0.590
   76HFI     H1 1400   1.255   0.727   0.955
   76HFI     H2 1401   1.031   0.839   0.810
   77HFI     O1 1402   1.501   1.873   0.632
   77HFI     C1 1403   1.614   1.824   0.551
   77HFI     C2 1404   1.735   1.920   0.562
   77HFI     F1 1405   1.801   1.897   0.676
   77HFI     F2 1406   1.694   2.048   0.567
   77HFI     F3 1407   1.824   1.903   0.463
   77HFI     C3 1408   1.573   1.787   0.406
   77HFI     F4 1409   1.534   1.894   0.336
   77HFI     F5 1410   1.474   1.696   0.408
   77HFI     F6 1411   1.675   1.730   0.339
   77HFI     H1 1412   1.532   1.885   0.723
   77HFI     H2 1413   1.648   1.727   0.590
   78HFI     O1 1414   2.577   1.066   0.467
   78HFI     C1 1415   2.540   1.145   0.583
   78HFI     C2 1416   2.556   1.063   0.714
   78HFI     F1 1417   2.680   1.010   0.722
   78HFI     F2 1418   2.469   0.960   0.714
   78HFI     F3 1419   2.536   1.135   0.826
   78HFI     C3 1420   2.398   1.202   0.563
   78HFI     F4 1421   2.310   1.104   0.533
   78HFI     F5 1422   2.396   1.290   0.460
   78HFI     F6 1423   2.356   1.266   0.673
   78HFI     H1 1424   2.506   1.002   0.451
   78HFI     H2 1425   2.608   1.231   0.593
   79HFI     O1 1426   0.572   0.947   0.501
   79HFI     C1 1427   0.621   0.830   0.431
   79HFI     C2 1428   0.529   0.794   0.311
   79HFI     F1 1429   0.508   0.903   0.233
   79HFI     F2 1430   0.409   0.750   0.352
   79HFI     F3 1431   0.585   0.700   0.232
   79HFI     C3 1432   0.646   0.712   0.529
   79HFI     F4 1433   0.536   0.687   0.603
   79HFI     F5 1434   0.746   0.744   0.614
   79HFI     F6 1435   0.683   0.599   0.465
   79HFI     H1 1436   0.496   0.922   0.556
   79HFI     H2 1437   0.719   0.854   0.390
   80HFI     O1 1438   0.991   2.520   0.469
   80HFI     C1 1439   0.891   2.492   0.572
   80HFI     C2 1440   0.765   2.583   0.556
   80HFI     F1 1441   0.714   2.571   0.432
   80HFI     F2 1442   0.793   2.713   0.578
   80HFI     F3 1443   0.666   2.553   0.640
   80HFI     C3 1444   0.957   2.494   0.713
   80HFI     F4 1445   1.006   2.616   0.742
   80HFI     F5 1446   1.059   2.406   0.717
   80HFI     F6 1447   0.871   2.457   0.810
   80HFI     H1 1448   1.050   2.590   0.501
   80HFI     H2 1449   0.853   2.390   0.556
   81HFI     O1 1450   1.188   2.018   0.701
   81HFI     C1 1451   1.106   1.950   0.601
   81HFI     C2 1452   1.124   1.797   0.606
   81HFI     F1 1453   1.108   1.754   0.731
   81HFI     F2 1454   1.246   1.758   0.567
   81HFI     F3 1455   1.033   1.735   0.528
   81HFI     C3 1456   1.137   2.003   0.461
   81HFI     F4 1457   1.270   1.998   0.444
   81HFI     F5 1458   1.096   2.130   0.449
   81HFI     F6 1459   1.080   1.931   0.362
   81HFI     H1 1460   1.281   2.006   0.677
   81HFI     H2 1461   1.000   1.971   0.620
   82HFI     O1 1462   2.162   0.979   1.465
   82HFI     C1 1463   2.307   0.965   1.473
   82HFI     C2 1464   2.339   0.829   1.539
   82HFI     F1 1465   2.324   0.731   1.450
   82HFI     F2 1466   2.250   0.804   1.636
   82HFI     F3 1467   2.464   0.817   1.589
   82HFI     C3 1468   2.375   1.092   1.534
   82HFI     F4 1469   2.287   1.164   1.607
   82HFI     F5 1470   2.422   1.171   1.436
   82HFI     F6 1471   2.482   1.068   1.612
   82HFI     H1 1472   2.130   1.024   1.545
   82HFI     H2 1473   2.346   0.957   1.371
   83HFI     O1 1474   2.772   1.315   0.775
   83HFI     C1 1475   2.745   1.445   0.716
   83HFI     C2 1476   2.849   1.552   0.758
   83HFI     F1 1477   2.975   1.507   0.741
   83HFI     F2 1478   2.835   1.581   0.888
   83HFI     F3 1479   2.837   1.665   0.687
   83HFI     C3 1480   2.597   1.491   0.738
   83HFI     F4 1481   2.537   1.416   0.833
   83HFI     F5 1482   2.526   1.477   0.625
   83HFI     F6 1483   2.585   1.619   0.776
   83HFI     H1 1484   2.764   1.322   0.872
   83HFI     H2 1485   2.758   1.436   0.607
   84HFI     O1 1486   0.783   3.152   0.232
   84HFI     C1 1487   0.641   3.153   0.202
   84HFI     C2 1488   0.564   3.248   0.298
   84HFI     F1 1489   0.630   3.365   0.313
   84HFI     F2 1490   0.548   3.194   0.421
   84HFI     F3 1491   0.443   3.278   0.248
   84HFI     C3 1492   0.580   3.009   0.193
   84HFI     F4 1493   0.579   2.948   0.314
   84HFI     F5 1494   0.652   2.932   0.109
   84HFI     F6 1495   0.454   3.012   0.146
   84HFI     H1 1496   0.799   3.091   0.306
   84HFI     H2 1497   0.626   3.197   0.103
   85HFI     O1 1498   2.365   3.068   1.105
   85HFI     C1 1499   2.352   2.960   1.009
   85HFI     C2 1500   2.212   2.893   1.022
   85HFI     F1 1501   2.117   2.975   0.975
   85HFI     F2 1502   2.183   2.867   1.152
   85HFI     F3 1503   2.199   2.779   0.953
   85HFI     C3 1504   2.472   2.865   1.025
   85HFI     F4 1505   2.479   2.815   1.150
   85HFI     F5 1506   2.587   2.932   1.001
   85HFI     F6 1507   2.469   2.762   0.938
   85HFI     H1 1508   2.359   3.030   1.194
   85HFI     H2 1509   2.357   3.000   0.907
   86HFI     O1 1510   1.182   2.581   1.437
   86HFI     C1 1511   1.202   2.725   1.456
   86HFI     C2 1512   1.347   2.755   1.493
   86HFI     F1 1513   1.430   2.689   1.411
   86HFI     F2 1514   1.375   2.713   1.618
   86HFI     F3 1515   1.375   2.887   1.484
   86HFI     C3 1516   1.100   2.783   1.554
   86HFI     F4 1517   1.071   2.688   1.644
   86HFI     F5 1518   0.985   2.814   1.493
   86HFI     F6 1519   1.142   2.894   1.618
   86HFI     H1 1520   1.178   2.541   1.526
   86HFI     H2 1521   1.182   2.781   1.363
   87HFI     O1 1522   2.282   0.199   0.618
   87HFI     C1 1523   2.347   0.270   0.507
   87HFI     C2 1524   2.330   0.194   0.373
   87HFI     F1 1525   2.204   0.210   0.327
   87HFI     F2 1526   2.352   0.061   0.388
   87HFI     F3 1527   2.414   0.240   0.278
   87HFI     C3 1528   2.493   0.311   0.540
   87HFI     F4 1529   2.579   0.208   0.523
   87HFI     F5 1530   2.505   0.353   0.668
   87HFI     F6 1531   2.533   0.413   0.461
   87HFI     H1 1532   2.348   0.150   0.669
   87HFI     H2 1533   2.295   0.365   0.488
   88HFI     O1 1534   3.270   1.394   1.052
   88HFI     C1 1535   3.166   1.490   1.017
   88HFI     C2 1536   3.212   1.637   1.040
   88HFI     F1 1537   3.317   1.666   0.961
   88HFI     F2 1538   3.252   1.655   1.168
   88HFI     F3 1539   3.117   1.728   1.011
   88HFI     C3 1540   3.034   1.453   1.091
   88HFI     F4 1541   3.061   1.385   1.203
   88HFI     F5 1542   2.955   1.374   1.018
   88HFI     F6 1543   2.960   1.558   1.127
   88HFI     H1 1544   3.285   1.400   1.148
   88HFI     H2 1545   3.145   1.482   0.910
   89HFI     O1 1546   1.064   1.360   1.174
   89HFI     C1 1547   1.111   1.237   1.231
   89HFI     C2 1548   1.197   1.263   1.358
   89HFI     F1 1549   1.124   1.321   1.456
   89HFI     F2 1550   1.301   1.345   1.333
   89HFI     F3 1551   1.247   1.149   1.409
   89HFI     C3 1552   1.184   1.151   1.125
   89HFI     F4 1553   1.173   1.207   1.002
   89HFI     F5 1554   1.129   1.030   1.117
   89HFI     F6 1555   1.315   1.135   1.151
   89HFI     H1 1556   1.136   1.396   1.121
   89HFI     H2 1557   1.024   1.178   1.262
   90HFI     O1 1558   0.930   1.905   1.197
   90HFI     C1 1559   0.833   1.901   1.089
   90HFI     C2 1560   0.711   1.817   1.130
   90HFI     F1 1561   0.652   1.866   1.240
   90HFI     F2 1562   0.749   1.692   1.160
   90HFI     F3 1563   0.617   1.812   1.033
   90HFI     C3 1564   0.900   1.847   0.961
   90HFI     F4 1565   0.958   1.729   0.987
   90HFI     F5 1566   0.997   1.928   0.916
   90HFI     F6 1567   0.812   1.831   0.861
   90HFI     H1 1568   0.973   1.819   1.203
   90HFI     H2 1569   0.796   2.002   1.069
   91HFI     O1 1570   1.521   2.607   0.945
   91HFI     C1 1571   1.397   2.610   1.020
   91HFI     C2 1572   1.377   2.749   1.081
   91HFI     F1 1573   1.350   2.840   0.986
   91HFI     F2 1574   1.485   2.790   1.147
   91HFI     F3 1575   1.278   2.748   1.170
   91HFI     C3 1576   1.390   2.494   1.121
   91HFI     F4 1577   1.488   2.503   1.213
   91HFI     F5 1578   1.403   2.376   1.058
   91HFI     F6 1579   1.273   2.493   1.187
   91HFI     H1 1580   1.592   2.636   1.005
   91HFI     H2 1581   1.312   2.595   0.953
   92HFI     O1 1582   3.242   1.115   0.672
   92HFI     C1 1583   3.208   1.029   0.785
   92HFI     C2 1584   3.216   0.880   0.744
   92HFI     F1 1585   3.341   0.853   0.702
   92HFI     F2 1586   3.132   0.852   0.643
   92HFI     F3 1587   3.189   0.797   0.848
   92HFI     C3 1588   3.073   1.067   0.848
   92HFI     F4 1589   2.969   1.041   0.766
   92HFI     F5 1590   3.073   1.199   0.873
   92HFI     F6 1591   3.052   1.003   0.966
   92HFI     H1 1592   3.184   1.092   0.598
   92HFI     H2 1593   3.283   1.043   0.864
   93HFI     O1 1594   1.289   1.468   1.062
   93HFI     C1 1595   1.237   1.604   1.055
   93HFI     C2 1596   1.315   1.694   0.955
   93HFI     F1 1597   1.322   1.636   0.834
   93HFI     F2 1598   1.440   1.715   0.998
   93HFI     F3 1599   1.259   1.816   0.942
   93HFI     C3 1600   1.236   1.669   1.194
   93HFI     F4 1601   1.363   1.684   1.237
   93HFI     F5 1602   1.168   1.594   1.282
   93HFI     F6 1603   1.177   1.790   1.193
   93HFI     H1 1604   1.383   1.470   1.085
   93HFI     H2 1605   1.134   1.600   1.020
   94HFI     O1 1606   1.849   1.543   1.051
   94HFI     C1 1607   1.724   1.571   0.986
   94HFI     C2 1608   1.644   1.446   0.960
   94HFI     F1 1609   1.627   1.378   1.075
   94HFI     F2 1610   1.704   1.367   0.871
   94HFI     F3 1611   1.523   1.475   0.911
   94HFI     C3 1612   1.742   1.658   0.862
   94HFI     F4 1613   1.803   1.594   0.760
   94HFI     F5 1614   1.818   1.763   0.892
   94HFI     F6 1615   1.625   1.706   0.817
   94HFI     H1 1616   1.915   1.521   0.983
   94HFI     H2 1617   1.659   1.625   1.057
   95HFI     O1 1618   0.808   2.846   1.224
   95HFI     C1 1619   0.947   2.834   1.182
   95HFI     C2 1620   1.018   2.971   1.200
   95HFI     F1 1621   1.004   3.016   1.326
   95HFI     F2 1622   0.966   3.066   1.120
   95HFI     F3 1623   1.150   2.967   1.177
   95HFI     C3 1624   0.960   2.767   1.042
   95HFI     F4 1625   0.898   2.839   0.947
   95HFI     F5 1626   0.906   2.644   1.042
   95HFI     F6 1627   1.087   2.751   1.001
   95HFI     H1 1628   0.768   2.925   1.185
   95HFI     H2 1629   0.998   2.763   1.249
   96HFI     O1 1630   0.660   0.857   0.960
   96HFI     C1 1631   0.732   0.950   0.874
   96HFI     C2 1632   0.858   1.008   0.943
   96HFI     F1 1633   0.923   0.910   1.008
   96HFI     F2 1634   0.831   1.103   1.035
   96HFI     F3 1635   0.944   1.060   0.853
   96HFI     C3 1636   0.635   1.055   0.815
   96HFI     F4 1637   0.593   1.144   0.907
   96HFI     F5 1638   0.525   0.993   0.768
   96HFI     F6 1639   0.693   1.121   0.713
   96HFI     H1 1640   0.630   0.906   1.038
   96HFI     H2 1641   0.772   0.896   0.788
   97HFI     O1 1642   0.678   0.763   1.450
   97HFI     C1 1643   0.601   0.871   1.390
   97HFI     C2 1644   0.681   0.948   1.283
   97HFI     F1 1645   0.765   0.864   1.219
   97HFI     F2 1646   0.756   1.047   1.333
   97HFI     F3 1647   0.600   1.001   1.189
   97HFI     C3 1648   0.543   0.964   1.498
   97HFI     F4 1649   0.639   1.005   1.584
   97HFI     F5 1650   0.449   0.900   1.570
   97HFI     F6 1651   0.486   1.072   1.443
   97HFI     H1 1652   0.772   0.785   1.452
   97HFI     H2 1653   0.515   0.828   1.338
   98HFI     O1 1654   2.607   2.856   1.483
   98HFI     C1 1655   2.693   2.781   1.574
   98HFI     C2 1656   2.839   2.832   1.571
   98HFI     F1 1657   2.847   2.956   1.624
   98HFI     F2 1658   2.882   2.840   1.447
   98HFI     F3 1659   2.927   2.753   1.633
   98HFI     C3 1660   2.679   2.630   1.546
   98HFI     F4 1661   2.691   2.605   1.414
   98HFI     F5 1662   2.557   2.592   1.587
   98HFI     F6 1663   2.768   2.553   1.611
   98HFI     H1 1664   2.632   2.834   1.392
   98HFI     H2 1665   2.655   2.797   1.675
   99HFI     O1 1666   3.352   2.206   1.131
   99HFI     C1 1667   3.258   2.100   1.094
   99HFI     C2 1668   3.131   2.157   1.024
   99HFI     F1 1669   3.163   2.256   0.938
   99HFI     F2 1670   3.044   2.209   1.112
   99HFI     F3 1671   3.067   2.062   0.952
   99HFI     C3 1672   3.224   2.010   1.216
   99HFI     F4 1673   3.206   2.085   1.327
   99HFI     F5 1674   3.323   1.923   1.244
   99HFI     F6 1675   3.114   1.937   1.197
   99HFI     H1 1676   3.304   2.271   1.187
   99HFI     H2 1677   3.305   2.034   1.020
  100HFI     O1 1678   1.956   2.308   1.628
  100HFI     C1 1679   1.891   2.208   1.546
  100HFI     C2 1680   1.962   2.211   1.411
  100HFI     F1 1681   2.087   2.169   1.427
  100HFI     F2 1682   1.963   2.336   1.361
  100HFI     F3 1683   1.908   2.131   1.320
  100HFI     C3 1684   1.737   2.227   1.542
  100HFI     F4 1685   1.700   2.330   1.620
  100HFI     F5 1686   1.673   2.117   1.588
  100HFI     F6 1687   1.689   2.254   1.420
  100HFI     H1 1688   1.898   2.386   1.632
  100HFI     H2 1689   1.910   2.108   1.588
  101HFI     O1 1690   2.508   1.979   1.076
  101HFI     C1 1691   2.639   1.932   1.120
  101HFI     C2 1692   2.750   2.039   1.106
  101HFI     F1 1693   2.729   2.147   1.182
  101HFI     F2 1694   2.764   2.082   0.979
  101HFI     F3 1695   2.868   1.989   1.146
  101HFI     C3 1696   2.681   1.803   1.046
  101HFI     F4 1697   2.724   1.828   0.921
  101HFI     F5 1698   2.578   1.718   1.035
  101HFI     F6 1699   2.777   1.741   1.114
  101HFI     H1 1700   2.502   1.968   0.980
  101HFI     H2 1701   2.634   1.906   1.227
  102HFI     O1 1702   0.291   1.299   1.013
  102HFI     C1 1703   0.293   1.443   1.039
  102HFI     C2 1704   0.212   1.525   0.935
  102HFI     F1 1705   0.094   1.465   0.910
  102HFI     F2 1706   0.274   1.535   0.815
  102HFI     F3 1707   0.187   1.650   0.980
  102HFI     C3 1708   0.436   1.496   1.056
  102HFI     F4 1709   0.501   1.489   0.939
  102HFI     F5 1710   0.504   1.423   1.146
  102HFI     F6 1711   0.435   1.625   1.098
  102HFI     H1 1712   0.356   1.279   0.943
  102HFI     H2 1713   0.243   1.463   1.135
  103HFI     O1 1714   2.053   2.693   1.400
  103HFI     C1 1715   2.147   2.674   1.510
  103HFI     C2 1716   2.219   2.806   1.542
  103HFI     F1 1717   2.135   2.880   1.615
  103HFI     F2 1718   2.249   2.875   1.430
  103HFI     F3 1719   2.333   2.790   1.613
  103HFI     C3 1720   2.246   2.560   1.484
  103HFI     F4 1721   2.343   2.598   1.398
  103HFI     F5 1722   2.183   2.454   1.431
  103HFI     F6 1723   2.302   2.516   1.598
  103HFI     H1 1724   2.089   2.758   1.338
  103HFI     H2 1725   2.094   2.645   1.601
  104HFI     O1 1726   2.818   0.385   0.592
  104HFI     C1 1727   2.958   0.387   0.634
  104HFI     C2 1728   2.997   0.256   0.707
  104HFI     F1 1729   2.966   0.148   0.631
  104HFI     F2 1730   2.930   0.244   0.823
  104HFI     F3 1731   3.129   0.250   0.734
  104HFI     C3 1732   2.989   0.515   0.715
  104HFI     F4 1733   2.911   0.526   0.825
  104HFI     F5 1734   2.967   0.623   0.638
  104HFI     F6 1735   3.119   0.520   0.754
  104HFI     H1 1736   2.762   0.368   0.670
  104HFI     H2 1737   3.021   0.391   0.545
  105HFI     O1 1738   2.938   0.814   0.401
  105HFI     C1 1739   2.800   0.858   0.389
  105HFI     C2 1740   2.703   0.755   0.455
  105HFI     F1 1741   2.722   0.752   0.588
  105HFI     F2 1742   2.727   0.631   0.408
  105HFI     F3 1743   2.572   0.783   0.434
  105HFI     C3 1744   2.765   0.891   0.241
  105HFI     F4 1745   2.780   0.783   0.161
  105HFI     F5 1746   2.847   0.988   0.194
  105HFI     F6 1747   2.638   0.935   0.225
  105HFI     H1 1748   2.939   0.718   0.417
  105HFI     H2 1749   2.789   0.951   0.445
  106HFI     O1 1750   2.212   3.414   1.150
  106HFI     C1 1751   2.111   3.366   1.056
  106HFI     C2 1752   2.034   3.243   1.115
  106HFI     F1 1753   1.953   3.277   1.215
  106HFI     F2 1754   2.119   3.154   1.168
  106HFI     F3 1755   1.957   3.182   1.024
  106HFI     C3 1756   2.174   3.344   0.916
  106HFI     F4 1757   2.276   3.256   0.920
  106HFI     F5 1758   2.224   3.460   0.868
  106HFI     F6 1759   2.085   3.301   0.824
  106HFI     H1 1760   2.288   3.353   1.148
  106HFI     H2 1761   2.035   3.444   1.042
  107HFI     O1 1762   1.591   2.093   1.224
  107HFI     C1 1763   1.692   2.049   1.133
  107HFI     C2 1764   1.644   2.056   0.985
  107HFI     F1 1765   1.584   2.174   0.959
  107HFI     F2 1766   1.556   1.959   0.954
  107HFI     F3 1767   1.748   2.046   0.901
  107HFI     C3 1768   1.754   1.914   1.176
  107HFI     F4 1769   1.666   1.815   1.158
  107HFI     F5 1770   1.790   1.911   1.305
  107HFI     F6 1771   1.865   1.887   1.107
  107HFI     H1 1772   1.530   2.020   1.241
  107HFI     H2 1773   1.775   2.121   1.137
  108HFI     O1 1774   2.291   1.781   1.186
  108HFI     C1 1775   2.293   1.661   1.105
  108HFI     C2 1776   2.150   1.618   1.073
  108HFI     F1 1777   2.098   1.688   0.972
  108HFI     F2 1778   2.071   1.636   1.182
  108HFI     F3 1779   2.143   1.491   1.036
  108HFI     C3 1780   2.373   1.547   1.172
  108HFI     F4 1781   2.298   1.471   1.253
  108HFI     F5 1782   2.474   1.597   1.245
  108HFI     F6 1783   2.426   1.466   1.079
  108HFI     H1 1784   2.207   1.784   1.235
  108HFI     H2 1785   2.341   1.683   1.009
  109HFI     O1 1786   0.163   2.005   1.163
  109HFI     C1 1787   0.303   1.993   1.196
  109HFI     C2 1788   0.334   2.047   1.338
  109HFI     F1 1789   0.252   1.992   1.430
  109HFI     F2 1790   0.318   2.181   1.345
  109HFI     F3 1791   0.460   2.016   1.375
  109HFI     C3 1792   0.385   2.061   1.085
  109HFI     F4 1793   0.342   2.187   1.064
  109HFI     F5 1794   0.370   1.992   0.969
  109HFI     F6 1795   0.517   2.065   1.111
  109HFI     H1 1796   0.138   2.099   1.160
  109HFI     H2 1797   0.332   1.887   1.196
  110HFI     O1 1798   2.003   0.525   1.095
  110HFI     C1 1799   2.142   0.487   1.118
  110HFI     C2 1800   2.163   0.333   1.124
  110HFI     F1 1801   2.116   0.274   1.012
  110HFI     F2 1802   2.098   0.278   1.229
  110HFI     F3 1803   2.294   0.301   1.134
  110HFI     C3 1804   2.204   0.565   1.234
  110HFI     F4 1805   2.154   0.526   1.354
  110HFI     F5 1806   2.179   0.698   1.220
  110HFI     F6 1807   2.337   0.550   1.237
  110HFI     H1 1808   1.962   0.545   1.181
  110HFI     H2 1809   2.204   0.517   1.033
  111HFI     O1 1810   1.088   2.221   1.410
  111HFI     C1 1811   1.136   2.129   1.307
  111HFI     C2 1812   1.289   2.113   1.316
  111HFI     F1 1813   1.325   2.077   1.441
  111HFI     F2 1814   1.351   2.229   1.291
  111HFI     F3 1815   1.335   2.018   1.232
  111HFI     C3 1816   1.089   2.170   1.163
  111HFI     F4 1817   1.131   2.292   1.129
  111HFI     F5 1818   0.955   2.173   1.155
  111HFI     F6 1819   1.136   2.085   1.070
  111HFI     H1 1820   1.115   2.310   1.382
  111HFI     H2 1821   1.096   2.029   1.326
  112HFI     O1 1822   0.535   0.274   0.879
  112HFI     C1 1823   0.664   0.318   0.930
  112HFI     C2 1824   0.654   0.451   1.010
  112HFI     F1 1825   0.558   0.442   1.104
  112HFI     F2 1826   0.625   0.556   0.931
  112HFI     F3 1827   0.769   0.480   1.074
  112HFI     C3 1828   0.770   0.322   0.817
  112HFI     F4 1829   0.743   0.418   0.726
  112HFI     F5 1830   0.773   0.204   0.751
  112HFI     F6 1831   0.894   0.342   0.867
  112HFI     H1 1832   0.478   0.353   0.867
  112HFI     H2 1833   0.701   0.243   1.002
  113HFI     O1 1834   1.433   1.919   1.629
  113HFI     C1 1835   1.465   1.785   1.585
  113HFI     C2 1836   1.577   1.795   1.482
  113HFI     F1 1837   1.690   1.838   1.543
  113HFI     F2 1838   1.540   1.885   1.389
  113HFI     F3 1839   1.607   1.680   1.419
  113HFI     C3 1840   1.336   1.715   1.536
  113HFI     F4 1841   1.270   1.795   1.452
  113HFI     F5 1842   1.251   1.690   1.636
  113HFI     F6 1843   1.360   1.595   1.480
  113HFI     H1 1844   1.411   1.975   1.553
  113HFI     H2 1845   1.506   1.725   1.667
  114HFI     O1 1846   1.709   0.835   0.196
  114HFI     C1 1847   1.733   0.731   0.296
  114HFI     C2 1848   1.883   0.692   0.300
  114HFI     F1 1849   1.954   0.784   0.369
  114HFI     F2 1850   1.934   0.688   0.175
  114HFI     F3 1851   1.906   0.572   0.357
  114HFI     C3 1852   1.638   0.610   0.274
  114HFI     F4 1853   1.671   0.542   0.162
  114HFI     F5 1854   1.510   0.652   0.260
  114HFI     F6 1855   1.641   0.525   0.378
  114HFI     H1 1856   1.766   0.818   0.119
  114HFI     H2 1857   1.709   0.770   0.396
  115HFI     O1 1858   0.755   2.960   1.538
  115HFI     C1 1859   0.626   2.896   1.562
  115HFI     C2 1860   0.632   2.743   1.550
  115HFI     F1 1861   0.741   2.694   1.612
  115HFI     F2 1862   0.638   2.704   1.422
  115HFI     F3 1863   0.524   2.683   1.605
  115HFI     C3 1864   0.513   2.960   1.478
  115HFI     F4 1865   0.536   2.946   1.345
  115HFI     F5 1866   0.504   3.092   1.505
  115HFI     F6 1867   0.393   2.904   1.506
  115HFI     H1 1868   0.808   2.906   1.478
  115HFI     H2 1869   0.595   2.917   1.665
  116HFI     O1 1870   2.126   2.225   1.063
  116HFI     C1 1871   2.053   2.141   0.970
  116HFI     C2 1872   2.117   2.006   0.964
  116HFI     F1 1873   2.121   1.956   1.089
  116HFI     F2 1874   2.243   2.012   0.919
  116HFI     F3 1875   2.046   1.922   0.887
  116HFI     C3 1876   2.034   2.208   0.831
  116HFI     F4 1877   2.150   2.259   0.786
  116HFI     F5 1878   1.944   2.307   0.842
  116HFI     F6 1879   1.986   2.124   0.738
  116HFI     H1 1880   2.199   2.174   1.103
  116HFI     H2 1881   1.952   2.122   1.008
  117HFI     O1 1882   1.695   1.213   0.201
  117HFI     C1 1883   1.779   1.247   0.315
  117HFI     C2 1884   1.852   1.121   0.370
  117HFI     F1 1885   1.898   1.046   0.268
  117HFI     F2 1886   1.774   1.044   0.448
  117HFI     F3 1887   1.960   1.155   0.443
  117HFI     C3 1888   1.701   1.328   0.423
  117HFI     F4 1889   1.588   1.266   0.461
  117HFI     F5 1890   1.665   1.449   0.374
  117HFI     F6 1891   1.774   1.352   0.533
  117HFI     H1 1892   1.615   1.168   0.233
  117HFI     H2 1893   1.860   1.313   0.281
  118HFI     O1 1894   0.723   1.810   2.426
  118HFI     C1 1895   0.761   1.676   2.386
  118HFI     C2 1896   0.847   1.605   2.492
  118HFI     F1 1897   0.776   1.591   2.606
  118HFI     F2 1898   0.957   1.678   2.521
  118HFI     F3 1899   0.887   1.483   2.452
  118HFI     C3 1900   0.823   1.675   2.245
  118HFI     F4 1901   0.939   1.743   2.239
  118HFI     F5 1902   0.736   1.736   2.163
  118HFI     F6 1903   0.845   1.551   2.197
  118HFI     H1 1904   0.803   1.863   2.439
  118HFI     H2 1905   0.669   1.617   2.378
  119HFI     O1 1906   1.678   0.749   2.669
  119HFI     C1 1907   1.585   0.857   2.637
  119HFI     C2 1908   1.660   0.982   2.585
  119HFI     F1 1909   1.711   0.960   2.462
  119HFI     F2 1910   1.763   1.012   2.667
  119HFI     F3 1911   1.579   1.090   2.577
  119HFI     C3 1912   1.488   0.890   2.753
  119HFI     F4 1913   1.543   0.969   2.848
  119HFI     F5 1914   1.444   0.778   2.814
  119HFI     F6 1915   1.379   0.954   2.707
  119HFI     H1 1916   1.742   0.782   2.733
  119HFI     H2 1917   1.521   0.826   2.554
  120HFI     O1 1918   2.675   1.237   2.285
  120HFI     C1 1919   2.787   1.164   2.230
  120HFI     C2 1920   2.783   1.014   2.266
  120HFI     F1 1921   2.665   0.960   2.228
  120HFI     F2 1922   2.793   0.995   2.399
  120HFI     F3 1923   2.880   0.943   2.206
  120HFI     C3 1924   2.920   1.238   2.255
  120HFI     F4 1925   2.943   1.249   2.387
  120HFI     F5 1926   2.914   1.363   2.206
  120HFI     F6 1927   3.024   1.177   2.197
  120HFI     H1 1928   2.642   1.189   2.363
  120HFI     H2 1929   2.778   1.168   2.121
  121HFI     O1 1930   2.162   1.357   2.191
  121HFI     C1 1931   2.300   1.327   2.226
  121HFI     C2 1932   2.322   1.174   2.242
  121HFI     F1 1933   2.436   1.135   2.184
  121HFI     F2 1934   2.220   1.104   2.187
  121HFI     F3 1935   2.328   1.138   2.370
  121HFI     C3 1936   2.345   1.411   2.347
  121HFI     F4 1937   2.260   1.397   2.450
  121HFI     F5 1938   2.351   1.542   2.313
  121HFI     F6 1939   2.466   1.376   2.392
  121HFI     H1 1940   2.118   1.275   2.162
  121HFI     H2 1941   2.368   1.359   2.146
  122HFI     O1 1942   3.227   3.327   2.600
  122HFI     C1 1943   3.144   3.210   2.625
  122HFI     C2 1944   3.016   3.247   2.703
  122HFI     F1 1945   2.950   3.348   2.643
  122HFI     F2 1946   3.045   3.289   2.828
  122HFI     F3 1947   2.931   3.143   2.712
  122HFI     C3 1948   3.225   3.095   2.692
  122HFI     F4 1949   3.264   3.127   2.817
  122HFI     F5 1950   3.337   3.069   2.621
  122HFI     F6 1951   3.154   2.980   2.698
  122HFI     H1 1952   3.245   3.370   2.685
  122HFI     H2 1953   3.109   3.170   2.529
  123HFI     O1 1954   1.637   2.518   3.196
  123HFI     C1 1955   1.757   2.447   3.239
  123HFI     C2 1956   1.832   2.526   3.348
  123HFI     F1 1957   1.766   2.516   3.465
  123HFI     F2 1958   1.838   2.656   3.314
  123HFI     F3 1959   1.958   2.481   3.369
  123HFI     C3 1960   1.847   2.412   3.120
  123HFI     F4 1961   1.913   2.519   3.074
  123HFI     F5 1962   1.771   2.365   3.019
  123HFI     F6 1963   1.937   2.317   3.153
  123HFI     H1 1964   1.659   2.613   3.188
  123HFI     H2 1965   1.731   2.351   3.285
  124HFI     O1 1966   1.387   1.573   3.276
  124HFI     C1 1967   1.261   1.538   3.341
  124HFI     C2 1968   1.157   1.652   3.338
  124HFI     F1 1969   1.132   1.694   3.214
  124HFI     F2 1970   1.201   1.759   3.407
  124HFI     F3 1971   1.040   1.610   3.390
  124HFI     C3 1972   1.284   1.487   3.485
  124HFI     F4 1973   1.339   1.580   3.565
  124HFI     F5 1974   1.366   1.380   3.481
  124HFI     F6 1975   1.170   1.447   3.544
  124HFI     H1 1976   1.407   1.667   3.291
  124HFI     H2 1977   1.216   1.455   3.286
  125HFI     O1 1978   2.090   2.733   3.191
  125HFI     C1 1979   2.215   2.669   3.225
  125HFI     C2 1980   2.332   2.769   3.220
  125HFI     F1 1981   2.305   2.879   3.294
  125HFI     F2 1982   2.358   2.808   3.093
  125HFI     F3 1983   2.445   2.715   3.270
  125HFI     C3 1984   2.239   2.546   3.133
  125HFI     F4 1985   2.182   2.570   3.014
  125HFI     F5 1986   2.182   2.435   3.184
  125HFI     F6 1987   2.368   2.517   3.109
  125HFI     H1 1988   2.073   2.717   3.097
  125HFI     H2 1989   2.208   2.632   3.328
  126HFI     O1 1990   3.245   1.244   2.390
  126HFI     C1 1991   3.255   1.132   2.482
  126HFI     C2 1992   3.212   0.998   2.418
  126HFI     F1 1993   3.279   0.977   2.303
  126HFI     F2 1994   3.081   0.996   2.389
  126HFI     F3 1995   3.237   0.892   2.498
  126HFI     C3 1996   3.192   1.163   2.621
  126HFI     F4 1997   3.060   1.184   2.611
  126HFI     F5 1998   3.246   1.275   2.673
  126HFI     F6 1999   3.212   1.063   2.710
  126HFI     H1 2000   3.178   1.307   2.423
  126HFI     H2 2001   3.362   1.116   2.504
  127HFI     O1 2002   0.832   1.063   3.524
  127HFI     C1 2003   0.760   1.187   3.504
  127HFI     C2 2004   0.775   1.233   3.357
  127HFI     F1 2005   0.697   1.157   3.277
  127HFI     F2 2006   0.903   1.219   3.317
  127HFI     F3 2007   0.739   1.362   3.339
  127HFI     C3 2008   0.798   1.294   3.609
  127HFI     F4 2009   0.907   1.365   3.572
  127HFI     F5 2010   0.825   1.238   3.728
  127HFI     F6 2011   0.695   1.379   3.630
  127HFI     H1 2012   0.913   1.064   3.470
  127HFI     H2 2013   0.652   1.170   3.519
  128HFI     O1 2014   1.596   0.574   2.437
  128HFI     C1 2015   1.565   0.440   2.391
  128HFI     C2 2016   1.431   0.389   2.455
  128HFI     F1 2017   1.326   0.438   2.385
  128HFI     F2 2018   1.417   0.433   2.582
  128HFI     F3 2019   1.417   0.255   2.456
  128HFI     C3 2020   1.692   0.350   2.400
  128HFI     F4 2021   1.765   0.379   2.510
  128HFI     F5 2022   1.771   0.375   2.293
  128HFI     F6 2023   1.667   0.217   2.400
  128HFI     H1 2024   1.637   0.570   2.525
  128HFI     H2 2025   1.542   0.445   2.284
  129HFI     O1 2026   2.592   0.215   2.730
  129HFI     C1 2027   2.504   0.330   2.747
  129HFI     C2 2028   2.394   0.331   2.639
  129HFI     F1 2029   2.326   0.214   2.640
  129HFI     F2 2030   2.453   0.344   2.519
  129HFI     F3 2031   2.306   0.431   2.652
  129HFI     C3 2032   2.586   0.462   2.746
  129HFI     F4 2033   2.655   0.475   2.630
  129HFI     F5 2034   2.676   0.460   2.846
  129HFI     F6 2035   2.509   0.571   2.761
  129HFI     H1 2036   2.608   0.202   2.635
  129HFI     H2 2037   2.453   0.324   2.843
  130HFI     O1 2038   2.773   0.633   3.282
  130HFI     C1 2039   2.693   0.592   3.396
  130HFI     C2 2040   2.542   0.577   3.364
  130HFI     F1 2041   2.523   0.508   3.250
  130HFI     F2 2042   2.480   0.696   3.349
  130HFI     F3 2043   2.478   0.508   3.460
  130HFI     C3 2044   2.722   0.680   3.522
  130HFI     F4 2045   2.675   0.806   3.507
  130HFI     F5 2046   2.855   0.689   3.544
  130HFI     F6 2047   2.667   0.627   3.633
  130HFI     H1 2048   2.747   0.724   3.258
  130HFI     H2 2049   2.724   0.490   3.424
  131HFI     O1 2050   0.895   0.758   2.844
  131HFI     C1 2051   1.006   0.832   2.904
  131HFI     C2 2052   1.122   0.737   2.936
  131HFI     F1 2053   1.178   0.693   2.822
  131HFI     F2 2054   1.076   0.629   3.004
  131HFI     F3 2055   1.218   0.797   3.008
  131HFI     C3 2056   0.961   0.916   3.027
  131HFI     F4 2057   0.960   0.844   3.141
  131HFI     F5 2058   0.837   0.964   3.010
  131HFI     F6 2059   1.044   1.020   3.044
  131HFI     H1 2060   0.856   0.703   2.914
  131HFI     H2 2061   1.046   0.903   2.831
  132HFI     O1 2062   2.136   0.395   3.391
  132HFI     C1 2063   2.110   0.252   3.408
  132HFI     C2 2064   1.957   0.226   3.411
  132HFI     F1 2065   1.908   0.230   3.286
  132HFI     F2 2066   1.893   0.321   3.483
  132HFI     F3 2067   1.924   0.106   3.463
  132HFI     C3 2068   2.183   0.192   3.531
  132HFI     F4 2069   2.129   0.237   3.646
  132HFI     F5 2070   2.314   0.226   3.529
  132HFI     F6 2071   2.178   0.057   3.531
  132HFI     H1 2072   2.084   0.442   3.457
  132HFI     H2 2073   2.149   0.197   3.321
  133HFI     O1 2074   0.564   2.614   2.190
  133HFI     C1 2075   0.593   2.480   2.241
  133HFI     C2 2076   0.463   2.399   2.270
  133HFI     F1 2077   0.454   2.295   2.186
  133HFI     F2 2078   0.354   2.477   2.251
  133HFI     F3 2079   0.455   2.350   2.396
  133HFI     C3 2080   0.687   2.491   2.362
  133HFI     F4 2081   0.629   2.564   2.459
  133HFI     F5 2082   0.801   2.553   2.327
  133HFI     F6 2083   0.719   2.370   2.411
  133HFI     H1 2084   0.477   2.642   2.223
  133HFI     H2 2085   0.649   2.423   2.166
  134HFI     O1 2086   2.941   0.408   3.499
  134HFI     C1 2087   2.915   0.267   3.524
  134HFI     C2 2088   2.783   0.247   3.605
  134HFI     F1 2089   2.677   0.284   3.530
  134HFI     F2 2090   2.783   0.322   3.717
  134HFI     F3 2091   2.763   0.118   3.640
  134HFI     C3 2092   3.038   0.199   3.590
  134HFI     F4 2093   3.057   0.244   3.716
  134HFI     F5 2094   3.150   0.226   3.519
  134HFI     F6 2095   3.025   0.064   3.594
  134HFI     H1 2096   2.973   0.449   3.581
  134HFI     H2 2097   2.900   0.215   3.428
  135HFI     O1 2098   0.061   0.948   2.651
  135HFI     C1 2099   0.196   1.001   2.642
  135HFI     C2 2100   0.201   1.154   2.614
  135HFI     F1 2101   0.112   1.220   2.690
  135HFI     F2 2102   0.173   1.183   2.485
  135HFI     F3 2103   0.322   1.205   2.642
  135HFI     C3 2104   0.280   0.919   2.542
  135HFI     F4 2105   0.235   0.931   2.415
  135HFI     F5 2106   0.274   0.789   2.575
  135HFI     F6 2107   0.409   0.958   2.547
  135HFI     H1 2108   0.057   0.862   2.605
  135HFI     H2 2109   0.246   0.987   2.738
  136HFI     O1 2110   1.885   3.382   2.440
  136HFI     C1 2111   1.813   3.262   2.398
  136HFI     C2 2112   1.727   3.292   2.274
  136HFI     F1 2113   1.805   3.348   2.179
  136HFI     F2 2114   1.628   3.380   2.301
  136HFI     F3 2115   1.674   3.180   2.222
  136HFI     C3 2116   1.736   3.200   2.517
  136HFI     F4 2117   1.656   3.293   2.574
  136HFI     F5 2118   1.822   3.157   2.611
  136HFI     F6 2119   1.661   3.094   2.480
  136HFI     H1 2120   1.821   3.441   2.484
  136HFI     H2 2121   1.883   3.185   2.363
  137HFI     O1 2122   2.812   2.331   2.826
  137HFI     C1 2123   2.728   2.232   2.762
  137HFI     C2 2124   2.626   2.298   2.668
  137HFI     F1 2125   2.687   2.335   2.554
  137HFI     F2 2126   2.579   2.411   2.724
  137HFI     F3 2127   2.523   2.219   2.632
  137HFI     C3 2128   2.675   2.132   2.867
  137HFI     F4 2129   2.631   2.195   2.978
  137HFI     F5 2130   2.777   2.051   2.906
  137HFI     F6 2131   2.577   2.052   2.822
  137HFI     H1 2132   2.757   2.410   2.843
  137HFI     H2 2133   2.792   2.174   2.693
  138HFI     O1 2134   3.325   2.889   2.399
  138HFI     C1 2135   3.210   2.816   2.348
  138HFI     C2 2136   3.257   2.693   2.265
  138HFI     F1 2137   3.297   2.595   2.347
  138HFI     F2 2138   3.362   2.726   2.187
  138HFI     F3 2139   3.161   2.640   2.187
  138HFI     C3 2140   3.113   2.912   2.275
  138HFI     F4 2141   3.177   2.981   2.180
  138HFI     F5 2142   3.062   3.002   2.362
  138HFI     F6 2143   3.008   2.848   2.219
  138HFI     H1 2144   3.375   2.925   2.324
  138HFI     H2 2145   3.154   2.775   2.433
  139HFI     O1 2146   0.958   2.117   3.472
  139HFI     C1 2147   1.022   2.123   3.603
  139HFI     C2 2148   0.995   2.258   3.671
  139HFI     F1 2149   0.862   2.280   3.676
  139HFI     F2 2150   1.054   2.359   3.602
  139HFI     F3 2151   1.041   2.263   3.797
  139HFI     C3 2152   1.171   2.087   3.592
  139HFI     F4 2153   1.220   2.133   3.476
  139HFI     F5 2154   1.186   1.954   3.591
  139HFI     F6 2155   1.247   2.135   3.693
  139HFI     H1 2156   1.030   2.117   3.406
  139HFI     H2 2157   0.980   2.047   3.671
  140HFI     O1 2158   1.894   2.159   3.503
  140HFI     C1 2159   2.021   2.094   3.528
  140HFI     C2 2160   2.005   1.979   3.631
  140HFI     F1 2161   1.929   1.879   3.581
  140HFI     F2 2162   1.943   2.023   3.741
  140HFI     F3 2163   2.122   1.924   3.669
  140HFI     C3 2164   2.126   2.198   3.570
  140HFI     F4 2165   2.089   2.262   3.682
  140HFI     F5 2166   2.139   2.291   3.473
  140HFI     F6 2167   2.248   2.144   3.589
  140HFI     H1 2168   1.857   2.190   3.588
  140HFI     H2 2169   2.058   2.052   3.434
  141HFI     O1 2170   2.953   0.875   2.602
  141HFI     C1 2171   2.983   0.835   2.738
  141HFI     C2 2172   2.934   0.691   2.763
  141HFI     F1 2173   3.001   0.602   2.686
  141HFI     F2 2174   2.803   0.681   2.734
  141HFI     F3 2175   2.952   0.651   2.891
  141HFI     C3 2176   2.919   0.934   2.838
  141HFI     F4 2177   2.787   0.942   2.820
  141HFI     F5 2178   2.967   1.058   2.823
  141HFI     F6 2179   2.941   0.900   2.967
  141HFI     H1 2180   2.857   0.884   2.591
  141HFI     H2 2181   3.091   0.836   2.754
  142HFI     O1 2182   2.011   2.834   3.779
  142HFI     C1 2183   1.948   2.875   3.654
  142HFI     C2 2184   1.806   2.815   3.643
  142HFI     F1 2185   1.720   2.881   3.723
  142HFI     F2 2186   1.804   2.685   3.680
  142HFI     F3 2187   1.758   2.822   3.517
  142HFI     C3 2188   2.039   2.836   3.535
  142HFI     F4 2189   2.037   2.703   3.516
  142HFI     F5 2190   2.167   2.873   3.558
  142HFI     F6 2191   2.000   2.894   3.421
  142HFI     H1 2192   2.014   2.737   3.782
  142HFI     H2 2193   1.937   2.984   3.651
  143HFI     O1 2194   2.536   1.364   2.665
  143HFI     C1 2195   2.513   1.230   2.717
  143HFI     C2 2196   2.589   1.125   2.633
  143HFI     F1 2197   2.722   1.147   2.641
  143HFI     F2 2198   2.557   1.132   2.503
  143HFI     F3 2199   2.565   0.999   2.675
  143HFI     C3 2200   2.362   1.202   2.740
  143HFI     F4 2201   2.294   1.199   2.625
  143HFI     F5 2202   2.308   1.300   2.816
  143HFI     F6 2203   2.338   1.084   2.802
  143HFI     H1 2204   2.500   1.371   2.575
  143HFI     H2 2205   2.561   1.224   2.815
  144HFI     O1 2206   1.477   2.427   3.688
  144HFI     C1 2207   1.454   2.540   3.599
  144HFI     C2 2208   1.347   2.636   3.657
  144HFI     F1 2209   1.404   2.716   3.748
  144HFI     F2 2210   1.244   2.570   3.713
  144HFI     F3 2211   1.294   2.717   3.565
  144HFI     C3 2212   1.416   2.491   3.459
  144HFI     F4 2213   1.296   2.430   3.459
  144HFI     F5 2214   1.507   2.402   3.417
  144HFI     F6 2215   1.415   2.592   3.369
  144HFI     H1 2216   1.391   2.382   3.700
  144HFI     H2 2217   1.546   2.598   3.588
  145HFI     O1 2218   1.290   0.487   3.125
  145HFI     C1 2219   1.308   0.523   3.265
  145HFI     C2 2220   1.409   0.429   3.336
  145HFI     F1 2221   1.516   0.409   3.257
  145HFI     F2 2222   1.355   0.308   3.362
  145HFI     F3 2223   1.454   0.484   3.451
  145HFI     C3 2224   1.172   0.535   3.340
  145HFI     F4 2225   1.099   0.422   3.326
  145HFI     F5 2226   1.099   0.637   3.290
  145HFI     F6 2227   1.189   0.558   3.471
  145HFI     H1 2228   1.253   0.397   3.119
  145HFI     H2 2229   1.352   0.624   3.269
  146HFI     O1 2230   0.405   3.149   2.648
  146HFI     C1 2231   0.443   3.202   2.517
  146HFI     C2 2232   0.406   3.105   2.402
  146HFI     F1 2233   0.278   3.063   2.413
  146HFI     F2 2234   0.485   2.995   2.404
  146HFI     F3 2235   0.419   3.163   2.281
  146HFI     C3 2236   0.593   3.247   2.517
  146HFI     F4 2237   0.670   3.159   2.583
  146HFI     F5 2238   0.606   3.367   2.580
  146HFI     F6 2239   0.644   3.260   2.393
  146HFI     H1 2240   0.444   3.061   2.660
  146HFI     H2 2241   0.385   3.293   2.498
  147HFI     O1 2242   0.287   0.971   3.135
  147HFI     C1 2243   0.397   1.058   3.093
  147HFI     C2 2244   0.344   1.183   3.020
  147HFI     F1 2245   0.242   1.241   3.087
  147HFI     F2 2246   0.298   1.151   2.899
  147HFI     F3 2247   0.442   1.274   3.005
  147HFI     C3 2248   0.499   0.980   3.008
  147HFI     F4 2249   0.436   0.905   2.914
  147HFI     F5 2250   0.570   0.896   3.088
  147HFI     F6 2251   0.587   1.059   2.943
  147HFI     H1 2252   0.267   0.908   3.063
  147HFI     H2 2253   0.451   1.095   3.181
  148HFI     O1 2254   0.351   1.359   2.354
  148HFI     C1 2255   0.461   1.263   2.367
  148HFI     C2 2256   0.594   1.338   2.381
  148HFI     F1 2257   0.590   1.419   2.489
  148HFI     F2 2258   0.620   1.414   2.273
  148HFI     F3 2259   0.697   1.252   2.399
  148HFI     C3 2260   0.460   1.155   2.257
  148HFI     F4 2261   0.340   1.153   2.195
  148HFI     F5 2262   0.484   1.033   2.306
  148HFI     F6 2263   0.554   1.178   2.165
  148HFI     H1 2264   0.294   1.330   2.282
  148HFI     H2 2265   0.454   1.207   2.461
  149HFI     O1 2266   3.352   2.312   2.834
  149HFI     C1 2267   3.274   2.387   2.930
  149HFI     C2 2268   3.136   2.318   2.939
  149HFI     F1 2269   3.147   2.197   2.999
  149HFI     F2 2270   3.088   2.296   2.815
  149HFI     F3 2271   3.046   2.388   3.009
  149HFI     C3 2272   3.275   2.539   2.892
  149HFI     F4 2273   3.255   2.557   2.759
  149HFI     F5 2274   3.395   2.593   2.923
  149HFI     F6 2275   3.182   2.611   2.957
  149HFI     H1 2276   3.293   2.288   2.761
  149HFI     H2 2277   3.320   2.380   3.029
  150HFI     O1 2278   0.904   2.309   2.186
  150HFI     C1 2279   0.963   2.219   2.285
  150HFI     C2 2280   1.112   2.253   2.309
  150HFI     F1 2281   1.127   2.384   2.339
  150HFI     F2 2282   1.188   2.229   2.200
  150HFI     F3 2283   1.161   2.182   2.412
  150HFI     C3 2284   0.936   2.069   2.253
  150HFI     F4 2285   1.031   2.016   2.175
  150HFI     F5 2286   0.817   2.054   2.191
  150HFI     F6 2287   0.931   1.995   2.363
  150HFI     H1 2288   0.951   2.297   2.102
  150HFI     H2 2289   0.915   2.236   2.382
  151HFI     O1 2290   3.137   1.397   3.264
  151HFI     C1 2291   3.053   1.280   3.240
  151HFI     C2 2292   3.024   1.262   3.088
  151HFI     F1 2293   3.130   1.203   3.027
  151HFI     F2 2294   3.003   1.380   3.027
  151HFI     F3 2295   2.916   1.184   3.065
  151HFI     C3 2296   2.925   1.280   3.329
  151HFI     F4 2297   2.839   1.376   3.289
  151HFI     F5 2298   2.956   1.304   3.458
  151HFI     F6 2299   2.861   1.161   3.324
  151HFI     H1 2300   3.102   1.472   3.212
  151HFI     H2 2301   3.109   1.191   3.272
  152HFI     O1 2302   1.839   1.607   3.713
  152HFI     C1 2303   1.827   1.499   3.617
  152HFI     C2 2304   1.836   1.551   3.471
  152HFI     F1 2305   1.965   1.577   3.442
  152HFI     F2 2306   1.768   1.666   3.454
  152HFI     F3 2307   1.791   1.463   3.380
  152HFI     C3 2308   1.700   1.417   3.641
  152HFI     F4 2309   1.592   1.480   3.592
  152HFI     F5 2310   1.679   1.397   3.773
  152HFI     F6 2311   1.709   1.295   3.583
  152HFI     H1 2312   1.771   1.673   3.693
  152HFI     H2 2313   1.911   1.429   3.629
  153HFI     O1 2314   2.147   3.425   2.384
  153HFI     C1 2315   2.226   3.308   2.420
  153HFI     C2 2316   2.258   3.220   2.295
  153HFI     F1 2317   2.338   3.287   2.210
  153HFI     F2 2318   2.146   3.187   2.228
  153HFI     F3 2319   2.326   3.108   2.327
  153HFI     C3 2320   2.161   3.230   2.537
  153HFI     F4 2321   2.073   3.138   2.494
  153HFI     F5 2322   2.096   3.313   2.621
  153HFI     F6 2323   2.255   3.168   2.609
  153HFI     H1 2324   2.054   3.408   2.408
  153HFI     H2 2325   2.323   3.339   2.459
  154HFI     O1 2326   0.714   0.820   3.369
  154HFI     C1 2327   0.632   0.825   3.490
  154HFI     C2 2328   0.636   0.693   3.572
  154HFI     F1 2329   0.762   0.643   3.576
  154HFI     F2 2330   0.555   0.598   3.520
  154HFI     F3 2331   0.598   0.715   3.700
  154HFI     C3 2332   0.489   0.876   3.460
  154HFI     F4 2333   0.431   0.804   3.362
  154HFI     F5 2334   0.495   1.005   3.418
  154HFI     F6 2335   0.410   0.873   3.569
  154HFI     H1 2336   0.662   0.783   3.296
  154HFI     H2 2337   0.674   0.898   3.560
  155HFI     O1 2338   2.683   3.270   2.191
  155HFI     C1 2339   2.663   3.184   2.306
  155HFI     C2 2340   2.746   3.235   2.426
  155HFI     F1 2341   2.717   3.365   2.451
  155HFI     F2 2342   2.878   3.226   2.400
  155HFI     F3 2343   2.719   3.165   2.538
  155HFI     C3 2344   2.690   3.036   2.270
  155HFI     F4 2345   2.804   3.026   2.198
  155HFI     F5 2346   2.589   2.987   2.195
  155HFI     F6 2347   2.703   2.956   2.378
  155HFI     H1 2348   2.773   3.256   2.156
  155HFI     H2 2349   2.558   3.190   2.337
  156HFI     O1 2350   0.694   0.823   2.647
  156HFI     C1 2351   0.588   0.725   2.659
  156HFI     C2 2352   0.600   0.633   2.783
  156HFI     F1 2353   0.634   0.706   2.891
  156HFI     F2 2354   0.694   0.537   2.770
  156HFI     F3 2355   0.484   0.572   2.813
  156HFI     C3 2356   0.568   0.645   2.528
  156HFI     F4 2357   0.678   0.575   2.496
  156HFI     F5 2358   0.538   0.727   2.424
  156HFI     F6 2359   0.468   0.558   2.539
  156HFI     H1 2360   0.776   0.789   2.688
  156HFI     H2 2361   0.493   0.778   2.675
  157HFI     O1 2362   3.100   3.092   3.304
  157HFI     C1 2363   3.159   3.225   3.313
  157HFI     C2 2364   3.189   3.280   3.172
  157HFI     F1 2365   3.074   3.285   3.102
  157HFI     F2 2366   3.274   3.200   3.104
  157HFI     F3 2367   3.239   3.405   3.173
  157HFI     C3 2368   3.282   3.225   3.407
  157HFI     F4 2369   3.379   3.143   3.360
  157HFI     F5 2370   3.248   3.180   3.529
  157HFI     F6 2371   3.335   3.348   3.422
  157HFI     H1 2372   3.169   3.030   3.275
  157HFI     H2 2373   3.087   3.294   3.358
  158HFI     O1 2374   2.391   2.356   3.696
  158HFI     C1 2375   2.438   2.486   3.655
  158HFI     C2 2376   2.344   2.544   3.550
  158HFI     F1 2377   2.217   2.535   3.594
  158HFI     F2 2378   2.352   2.478   3.433
  158HFI     F3 2379   2.370   2.674   3.528
  158HFI     C3 2380   2.585   2.477   3.613
  158HFI     F4 2381   2.603   2.365   3.540
  158HFI     F5 2382   2.666   2.468   3.721
  158HFI     F6 2383   2.625   2.584   3.541
  158HFI     H1 2384   2.411   2.291   3.626
  158HFI     H2 2385   2.431   2.557   3.737
  159HFI     O1 2386   0.131   2.099   3.514
  159HFI     C1 2387   0.249   2.075   3.432
  159HFI     C2 2388   0.231   1.950   3.342
  159HFI     F1 2389   0.111   1.953   3.279
  159HFI     F2 2390   0.237   1.835   3.413
  159HFI     F3 2391   0.325   1.947   3.245
  159HFI     C3 2392   0.379   2.070   3.518
  159HFI     F4 2393   0.363   1.984   3.621
  159HFI     F5 2394   0.405   2.191   3.571
  159HFI     F6 2395   0.488   2.032   3.448
  159HFI     H1 2396   0.134   2.039   3.591
  159HFI     H2 2397   0.261   2.158   3.361
  160HFI     O1 2398   2.187   1.199   3.472
  160HFI     C1 2399   2.327   1.235   3.454
  160HFI     C2 2400   2.350   1.300   3.314
  160HFI     F1 2401   2.273   1.408   3.297
  160HFI     F2 2402   2.319   1.216   3.214
  160HFI     F3 2403   2.477   1.341   3.297
  160HFI     C3 2404   2.423   1.118   3.489
  160HFI     F4 2405   2.390   1.005   3.422
  160HFI     F5 2406   2.416   1.090   3.621
  160HFI     F6 2407   2.553   1.145   3.463
  160HFI     H1 2408   2.169   1.118   3.423
  160HFI     H2 2409   2.354   1.313   3.527
  161HFI     O1 2410   2.249   0.839   2.642
  161HFI     C1 2411   2.242   0.855   2.498
  161HFI     C2 2412   2.102   0.819   2.442
  161HFI     F1 2413   2.008   0.897   2.500
  161HFI     F2 2414   2.069   0.690   2.468
  161HFI     F3 2415   2.092   0.840   2.309
  161HFI     C3 2416   2.359   0.781   2.427
  161HFI     F4 2417   2.357   0.651   2.460
  161HFI     F5 2418   2.478   0.832   2.467
  161HFI     F6 2419   2.355   0.792   2.292
  161HFI     H1 2420   2.256   0.745   2.663
  161HFI     H2 2421   2.254   0.962   2.476
  162HFI     O1 2422   1.151   1.086   2.672
  162HFI     C1 2423   1.053   1.187   2.638
  162HFI     C2 2424   1.107   1.329   2.668
  162HFI     F1 2425   1.185   1.371   2.566
  162HFI     F2 2426   1.182   1.329   2.780
  162HFI     F3 2427   1.010   1.419   2.685
  162HFI     C3 2428   0.918   1.155   2.706
  162HFI     F4 2429   0.929   1.174   2.838
  162HFI     F5 2430   0.884   1.026   2.687
  162HFI     F6 2431   0.817   1.230   2.658
  162HFI     H1 2432   1.239   1.118   2.646
  162HFI     H2 2433   1.033   1.184   2.530
  163HFI     O1 2434   2.495   2.337   2.343
  163HFI     C1 2435   2.382   2.360   2.255
  163HFI     C2 2436   2.351   2.512   2.246
  163HFI     F1 2437   2.452   2.578   2.186
  163HFI     F2 2438   2.339   2.564   2.369
  163HFI     F3 2439   2.237   2.539   2.179
  163HFI     C3 2440   2.258   2.274   2.293
  163HFI     F4 2441   2.190   2.324   2.398
  163HFI     F5 2442   2.295   2.148   2.326
  163HFI     F6 2443   2.172   2.265   2.190
  163HFI     H1 2444   2.486   2.393   2.421
  163HFI     H2 2445   2.409   2.329   2.154
  164HFI     O1 2446   2.689   0.058   2.977
  164HFI     C1 2447   2.765   0.175   3.017
  164HFI     C2 2448   2.901   0.137   3.078
  164HFI     F1 2449   2.978   0.079   2.984
  164HFI     F2 2450   2.887   0.049   3.180
  164HFI     F3 2451   2.969   0.244   3.125
  164HFI     C3 2452   2.683   0.269   3.109
  164HFI     F4 2453   2.679   0.223   3.237
  164HFI     F5 2454   2.556   0.280   3.066
  164HFI     F6 2455   2.737   0.392   3.111
  164HFI     H1 2456   2.703  -0.015   3.040
  164HFI     H2 2457   2.787   0.235   2.927
  165HFI     O1 2458   2.801   1.551   2.694
  165HFI     C1 2459   2.871   1.511   2.573
  165HFI     C2 2460   3.025   1.528   2.587
  165HFI     F1 2461   3.065   1.484   2.708
  165HFI     F2 2462   3.065   1.655   2.575
  165HFI     F3 2463   3.090   1.456   2.493
  165HFI     C3 2464   2.807   1.579   2.447
  165HFI     F4 2465   2.743   1.693   2.480
  165HFI     F5 2466   2.714   1.497   2.394
  165HFI     F6 2467   2.897   1.607   2.351
  165HFI     H1 2468   2.821   1.644   2.713
  165HFI     H2 2469   2.855   1.403   2.560
  166HFI     O1 2470   2.555   1.955   3.112
  166HFI     C1 2471   2.470   1.978   3.228
  166HFI     C2 2472   2.426   2.126   3.241
  166HFI     F1 2473   2.388   2.176   3.122
  166HFI     F2 2474   2.527   2.201   3.288
  166HFI     F3 2475   2.320   2.138   3.323
  166HFI     C3 2476   2.536   1.923   3.357
  166HFI     F4 2477   2.667   1.953   3.360
  166HFI     F5 2478   2.525   1.789   3.363
  166HFI     F6 2479   2.480   1.973   3.469
  166HFI     H1 2480   2.628   2.020   3.117
  166HFI     H2 2481   2.377   1.921   3.214
  167HFI     O1 2482   2.894   2.823   3.129
  167HFI     C1 2483   2.841   2.959   3.138
  167HFI     C2 2484   2.692   2.965   3.183
  167HFI     F1 2485   2.667   2.877   3.282
  167HFI     F2 2486   2.606   2.940   3.082
  167HFI     F3 2487   2.662   3.087   3.231
  167HFI     C3 2488   2.868   3.037   3.008
  167HFI     F4 2489   2.803   2.982   2.903
  167HFI     F5 2490   3.000   3.033   2.979
  167HFI     F6 2491   2.831   3.166   3.018
  167HFI     H1 2492   2.881   2.790   3.039
  167HFI     H2 2493   2.894   3.012   3.218
  168HFI     O1 2494   1.183   0.844   2.232
  168HFI     C1 2495   1.323   0.885   2.230
  168HFI     C2 2496   1.408   0.773   2.289
  168HFI     F1 2497   1.394   0.662   2.214
  168HFI     F2 2498   1.365   0.744   2.414
  168HFI     F3 2499   1.539   0.804   2.292
  168HFI     C3 2500   1.343   1.026   2.293
  168HFI     F4 2501   1.281   1.035   2.412
  168HFI     F5 2502   1.292   1.121   2.212
  168HFI     F6 2503   1.473   1.057   2.310
  168HFI     H1 2504   1.179   0.748   2.221
  168HFI     H2 2505   1.358   0.895   2.126
  169HFI     O1 2506   2.245   0.115   2.177
  169HFI     C1 2507   2.343   0.217   2.211
  169HFI     C2 2508   2.466   0.157   2.283
  169HFI     F1 2509   2.521   0.061   2.207
  169HFI     F2 2510   2.435   0.100   2.401
  169HFI     F3 2511   2.564   0.247   2.304
  169HFI     C3 2512   2.271   0.339   2.273
  169HFI     F4 2513   2.216   0.309   2.392
  169HFI     F5 2514   2.171   0.380   2.192
  169HFI     F6 2515   2.356   0.442   2.286
  169HFI     H1 2516   2.208   0.078   2.259
  169HFI     H2 2517   2.388   0.258   2.120
  170HFI     O1 2518   1.221   1.130   3.229
  170HFI     C1 2519   1.336   1.097   3.144
  170HFI     C2 2520   1.427   0.994   3.216
  170HFI     F1 2521   1.373   0.871   3.216
  170HFI     F2 2522   1.441   1.029   3.345
  170HFI     F3 2523   1.550   0.983   3.161
  170HFI     C3 2524   1.409   1.226   3.100
  170HFI     F4 2525   1.468   1.287   3.205
  170HFI     F5 2526   1.322   1.314   3.045
  170HFI     F6 2527   1.505   1.202   3.008
  170HFI     H1 2528   1.254   1.171   3.311
  170HFI     H2 2529   1.301   1.048   3.052
  171HFI     O1 2530   0.368   2.069   2.828
  171HFI     C1 2531   0.259   2.042   2.922
  171HFI     C2 2532   0.146   1.957   2.858
  171HFI     F1 2533   0.195   1.844   2.804
  171HFI     F2 2534   0.084   2.025   2.760
  171HFI     F3 2535   0.053   1.920   2.949
  171HFI     C3 2536   0.210   2.174   2.988
  171HFI     F4 2537   0.210   2.275   2.899
  171HFI     F5 2538   0.292   2.212   3.087
  171HFI     F6 2539   0.087   2.165   3.043
  171HFI     H1 2540   0.331   2.112   2.749
  171HFI     H2 2541   0.298   1.982   3.005
  172HFI     O1 2542   0.451   2.297   3.292
  172HFI     C1 2543   0.438   2.432   3.342
  172HFI     C2 2544   0.289   2.477   3.353
  172HFI     F1 2545   0.221   2.396   3.437
  172HFI     F2 2546   0.226   2.473   3.233
  172HFI     F3 2547   0.278   2.603   3.402
  172HFI     C3 2548   0.522   2.533   3.261
  172HFI     F4 2549   0.465   2.559   3.142
  172HFI     F5 2550   0.646   2.484   3.236
  172HFI     F6 2551   0.536   2.649   3.327
  172HFI     H1 2552   0.445   2.297   3.195
  172HFI     H2 2553   0.477   2.435   3.445
  173HFI     O1 2554   1.417   3.000   2.916
  173HFI     C1 2555   1.426   3.144   2.895
  173HFI     C2 2556   1.365   3.184   2.759
  173HFI     F1 2557   1.239   3.138   2.747
  173HFI     F2 2558   1.440   3.130   2.660
  173HFI     F3 2559   1.362   3.318   2.741
  173HFI     C3 2560   1.572   3.190   2.909
  173HFI     F4 2561   1.654   3.115   2.833
  173HFI     F5 2562   1.612   3.177   3.037
  173HFI     F6 2563   1.592   3.317   2.874
  173HFI     H1 2564   1.468   2.955   2.846
  173HFI     H2 2565   1.368   3.197   2.972
  174HFI     O1 2566   1.703   1.063   3.429
  174HFI     C1 2567   1.760   0.930   3.437
  174HFI     C2 2568   1.693   0.846   3.550
  174HFI     F1 2569   1.559   0.851   3.537
  174HFI     F2 2570   1.725   0.892   3.673
  174HFI     F3 2571   1.727   0.716   3.545
  174HFI     C3 2572   1.913   0.936   3.451
  174HFI     F4 2573   1.946   1.020   3.552
  174HFI     F5 2574   1.972   0.985   3.340
  174HFI     F6 2575   1.969   0.815   3.474
  174HFI     H1 2576   1.726   1.114   3.508
  174HFI     H2 2577   1.738   0.878   3.344
  175HFI     O1 2578   1.427   1.825   3.161
  175HFI     C1 2579   1.363   1.781   3.037
  175HFI     C2 2580   1.462   1.711   2.941
  175HFI     F1 2581   1.536   1.620   3.009
  175HFI     F2 2582   1.548   1.798   2.885
  175HFI     F3 2583   1.397   1.644   2.844
  175HFI     C3 2584   1.279   1.895   2.974
  175HFI     F4 2585   1.358   1.992   2.921
  175HFI     F5 2586   1.207   1.954   3.070
  175HFI     F6 2587   1.193   1.853   2.879
  175HFI     H1 2588   1.450   1.919   3.153
  175HFI     H2 2589   1.292   1.700   3.058
  176HFI     O1 2590   0.631   0.105   2.345
  176HFI     C1 2591   0.650   0.218   2.255
  176HFI     C2 2592   0.782   0.292   2.288
  176HFI     F1 2593   0.886   0.206   2.281
  176HFI     F2 2594   0.776   0.340   2.413
  176HFI     F3 2595   0.807   0.394   2.204
  176HFI     C3 2596   0.525   0.310   2.260
  176HFI     F4 2597   0.494   0.341   2.387
  176HFI     F5 2598   0.418   0.246   2.208
  176HFI     F6 2599   0.541   0.425   2.192
  176HFI     H1 2600   0.660   0.130   2.434
  176HFI     H2 2601   0.659   0.181   2.152
  177HFI     O1 2602   2.695   0.881   3.229
  177HFI     C1 2603   2.642   0.915   3.098
  177HFI     C2 2604   2.535   1.023   3.108
  177HFI     F1 2605   2.578   1.115   3.196
  177HFI     F2 2606   2.416   0.974   3.148
  177HFI     F3 2607   2.519   1.086   2.991
  177HFI     C3 2608   2.593   0.792   3.016
  177HFI     F4 2609   2.495   0.724   3.078
  177HFI     F5 2610   2.696   0.706   2.998
  177HFI     F6 2611   2.547   0.826   2.894
  177HFI     H1 2612   2.686   0.959   3.286
  177HFI     H2 2613   2.721   0.963   3.039
  178HFI     O1 2614   1.674   2.044   3.680
  178HFI     C1 2615   1.628   1.981   3.556
  178HFI     C2 2616   1.549   2.084   3.471
  178HFI     F1 2617   1.633   2.165   3.408
  178HFI     F2 2618   1.473   2.161   3.552
  178HFI     F3 2619   1.469   2.027   3.378
  178HFI     C3 2620   1.548   1.853   3.588
  178HFI     F4 2621   1.438   1.884   3.656
  178HFI     F5 2622   1.622   1.771   3.666
  178HFI     F6 2623   1.513   1.784   3.477
  178HFI     H1 2624   1.606   2.031   3.748
  178HFI     H2 2625   1.713   1.950   3.494
  179HFI     O1 2626   0.285   2.225   2.594
  179HFI     C1 2627   0.152   2.278   2.564
  179HFI     C2 2628   0.097   2.230   2.426
  179HFI     F1 2629   0.096   2.095   2.419
  179HFI     F2 2630   0.173   2.275   2.324
  179HFI     F3 2631  -0.030   2.270   2.404
  179HFI     C3 2632   0.147   2.433   2.582
  179HFI     F4 2633   0.245   2.494   2.513
  179HFI     F5 2634   0.162   2.465   2.711
  179HFI     F6 2635   0.029   2.485   2.545
  179HFI     H1 2636   0.349   2.268   2.535
  179HFI     H2 2637   0.081   2.238   2.637
  180HFI     O1 2638   0.531   2.864   3.144
  180HFI     C1 2639   0.444   2.958   3.214
  180HFI     C2 2640   0.300   2.955   3.158
  180HFI     F1 2641   0.244   2.833   3.176
  180HFI     F2 2642   0.299   2.980   3.025
  180HFI     F3 2643   0.220   3.045   3.218
  180HFI     C3 2644   0.507   3.100   3.219
  180HFI     F4 2645   0.499   3.162   3.099
  180HFI     F5 2646   0.638   3.092   3.251
  180HFI     F6 2647   0.447   3.178   3.312
  180HFI     H1 2648   0.547   2.896   3.053
  180HFI     H2 2649   0.435   2.926   3.319
  181HFI     O1 2650   0.767   3.279   3.453
  181HFI     C1 2651   0.854   3.184   3.522
  181HFI     C2 2652   0.769   3.078   3.597
  181HFI     F1 2653   0.695   3.005   3.511
  181HFI     F2 2654   0.683   3.137   3.683
  181HFI     F3 2655   0.844   2.991   3.666
  181HFI     C3 2656   0.955   3.259   3.614
  181HFI     F4 2657   0.891   3.328   3.710
  181HFI     F5 2658   1.027   3.347   3.541
  181HFI     F6 2659   1.042   3.175   3.674
  181HFI     H1 2660   0.718   3.329   3.520
  181HFI     H2 2661   0.914   3.130   3.448
  182HFI     O1 2662   1.364   2.582   2.421
  182HFI     C1 2663   1.482   2.514   2.374
  182HFI     C2 2664   1.476   2.508   2.223
  182HFI     F1 2665   1.505   2.632   2.176
  182HFI     F2 2666   1.352   2.475   2.182
  182HFI     F3 2667   1.563   2.421   2.171
  182HFI     C3 2668   1.506   2.377   2.442
  182HFI     F4 2669   1.409   2.290   2.411
  182HFI     F5 2670   1.507   2.393   2.577
  182HFI     F6 2671   1.624   2.322   2.407
  182HFI     H1 2672   1.286   2.530   2.393
  182HFI     H2 2673   1.571   2.574   2.399
  183HFI     O1 2674   2.390   0.738   3.627
  183HFI     C1 2675   2.246   0.717   3.641
  183HFI     C2 2676   2.181   0.838   3.712
  183HFI     F1 2677   2.187   0.946   3.631
  183HFI     F2 2678   2.246   0.869   3.826
  183HFI     F3 2679   2.050   0.817   3.741
  183HFI     C3 2680   2.212   0.582   3.709
  183HFI     F4 2681   2.232   0.586   3.842
  183HFI     F5 2682   2.288   0.483   3.660
  183HFI     F6 2683   2.083   0.548   3.685
  183HFI     H1 2684   2.429   0.749   3.715
  183HFI     H2 2685   2.202   0.712   3.540
  184HFI     O1 2686   0.904   2.846   3.061
  184HFI     C1 2687   1.047   2.868   3.039
  184HFI     C2 2688   1.133   2.747   3.085
  184HFI     F1 2689   1.071   2.631   3.055
  184HFI     F2 2690   1.151   2.746   3.218
  184HFI     F3 2691   1.255   2.745   3.026
  184HFI     C3 2692   1.093   3.005   3.096
  184HFI     F4 2693   1.030   3.033   3.213
  184HFI     F5 2694   1.064   3.105   3.010
  184HFI     F6 2695   1.226   3.011   3.119
  184HFI     H1 2696   0.890   2.832   3.157
  184HFI     H2 2697   1.065   2.877   2.931
  185HFI     O1 2698   1.817   2.845   2.184
  185HFI     C1 2699   1.925   2.752   2.218
  185HFI     C2 2700   1.868   2.622   2.274
  185HFI     F1 2701   1.797   2.557   2.180
  185HFI     F2 2702   1.782   2.653   2.372
  185HFI     F3 2703   1.960   2.535   2.321
  185HFI     C3 2704   2.029   2.822   2.306
  185HFI     F4 2705   1.970   2.884   2.411
  185HFI     F5 2706   2.095   2.915   2.234
  185HFI     F6 2707   2.121   2.737   2.353
  185HFI     H1 2708   1.756   2.851   2.260
  185HFI     H2 2709   1.981   2.722   2.128
  186HFI     O1 2710   2.926   2.820   2.549
  186HFI     C1 2711   2.956   2.683   2.588
  186HFI     C2 2712   2.898   2.581   2.487
  186HFI     F1 2713   2.949   2.602   2.364
  186HFI     F2 2714   2.764   2.593   2.476
  186HFI     F3 2715   2.929   2.455   2.521
  186HFI     C3 2716   2.918   2.652   2.734
  186HFI     F4 2717   2.787   2.624   2.750
  186HFI     F5 2718   2.948   2.754   2.817
  186HFI     F6 2719   2.985   2.545   2.777
  186HFI     H1 2720   2.829   2.833   2.553
  186HFI     H2 2721   3.065   2.668   2.586
  187HFI     O1 2722   2.372   1.748   3.610
  187HFI     C1 2723   2.370   1.625   3.687
  187HFI     C2 2724   2.496   1.540   3.654
  187HFI     F1 2725   2.608   1.605   3.692
  187HFI     F2 2726   2.505   1.518   3.521
  187HFI     F3 2727   2.495   1.420   3.715
  187HFI     C3 2728   2.236   1.549   3.665
  187HFI     F4 2729   2.222   1.511   3.538
  187HFI     F5 2730   2.131   1.628   3.692
  187HFI     F6 2731   2.225   1.440   3.744
  187HFI     H1 2732   2.406   1.730   3.521
  187HFI     H2 2733   2.375   1.648   3.794
  188HFI     O1 2734   1.295   2.987   2.485
  188HFI     C1 2735   1.284   3.054   2.357
  188HFI     C2 2736   1.384   2.993   2.257
  188HFI     F1 2737   1.325   2.889   2.193
  188HFI     F2 2738   1.494   2.943   2.319
  188HFI     F3 2739   1.424   3.082   2.167
  188HFI     C3 2740   1.288   3.209   2.371
  188HFI     F4 2741   1.410   3.253   2.406
  188HFI     F5 2742   1.200   3.251   2.465
  188HFI     F6 2743   1.252   3.270   2.255
  188HFI     H1 2744   1.355   2.911   2.476
  188HFI     H2 2745   1.185   3.035   2.313
  189HFI     O1 2746   0.935   0.244   2.620
  189HFI     C1 2747   1.050   0.327   2.651
  189HFI     C2 2748   1.066   0.339   2.805
  189HFI     F1 2749   1.074   0.217   2.862
  189HFI     F2 2750   0.959   0.402   2.860
  189HFI     F3 2751   1.177   0.407   2.840
  189HFI     C3 2752   1.044   0.465   2.579
  189HFI     F4 2753   0.938   0.538   2.620
  189HFI     F5 2754   1.033   0.449   2.445
  189HFI     F6 2755   1.155   0.539   2.599
  189HFI     H1 2756   0.856   0.289   2.654
  189HFI     H2 2757   1.141   0.278   2.615
  190HFI     O1 2758   1.309   0.931   3.611
  190HFI     C1 2759   1.296   1.048   3.697
  190HFI     C2 2760   1.173   1.130   3.655
  190HFI     F1 2761   1.064   1.053   3.666
  190HFI     F2 2762   1.180   1.169   3.525
  190HFI     F3 2763   1.152   1.238   3.733
  190HFI     C3 2764   1.427   1.130   3.704
  190HFI     F4 2765   1.474   1.153   3.580
  190HFI     F5 2766   1.522   1.060   3.770
  190HFI     F6 2767   1.413   1.249   3.766
  190HFI     H1 2768   1.372   0.951   3.539
  190HFI     H2 2769   1.277   1.015   3.800
  191HFI     O1 2770   0.759   2.201   3.257
  191HFI     C1 2771   0.775   2.121   3.136
  191HFI     C2 2772   0.648   2.038   3.104
  191HFI     F1 2773   0.543   2.120   3.090
  191HFI     F2 2774   0.621   1.952   3.203
  191HFI     F3 2775   0.659   1.970   2.989
  191HFI     C3 2776   0.903   2.034   3.142
  191HFI     F4 2777   0.903   1.956   3.251
  191HFI     F5 2778   1.009   2.116   3.153
  191HFI     F6 2779   0.920   1.955   3.035
  191HFI     H1 2780   0.795   2.152   3.333
  191HFI     H2 2781   0.788   2.189   3.051
  192HFI     O1 2782   1.904   3.390   3.240
  192HFI     C1 2783   1.810   3.284   3.267
  192HFI     C2 2784   1.673   3.337   3.321
  192HFI     F1 2785   1.630   3.443   3.250
  192HFI     F2 2786   1.681   3.376   3.449
  192HFI     F3 2787   1.577   3.243   3.311
  192HFI     C3 2788   1.872   3.175   3.357
  192HFI     F4 2789   1.899   3.220   3.482
  192HFI     F5 2790   1.990   3.135   3.303
  192HFI     F6 2791   1.791   3.068   3.367
  192HFI     H1 2792   1.907   3.445   3.319
  192HFI     H2 2793   1.788   3.232   3.172
  193HFI     O1 2794   2.989   0.363   2.836
  193HFI     C1 2795   3.129   0.327   2.854
  193HFI     C2 2796   3.213   0.443   2.915
  193HFI     F1 2797   3.155   0.488   3.029
  193HFI     F2 2798   3.223   0.549   2.832
  193HFI     F3 2799   3.338   0.403   2.947
  193HFI     C3 2800   3.187   0.266   2.724
  193HFI     F4 2801   3.197   0.357   2.625
  193HFI     F5 2802   3.107   0.167   2.679
  193HFI     F6 2803   3.308   0.211   2.743
  193HFI     H1 2804   2.984   0.435   2.770
  193HFI     H2 2805   3.137   0.247   2.928
  194HFI     O1 2806   1.000   0.948   2.431
  194HFI     C1 2807   0.886   0.986   2.348
  194HFI     C2 2808   0.829   0.863   2.272
  194HFI     F1 2809   0.809   0.762   2.359
  194HFI     F2 2810   0.914   0.816   2.179
  194HFI     F3 2811   0.712   0.889   2.212
  194HFI     C3 2812   0.925   1.102   2.253
  194HFI     F4 2813   1.026   1.067   2.174
  194HFI     F5 2814   0.965   1.212   2.320
  194HFI     F6 2815   0.822   1.140   2.176
  194HFI     H1 2816   1.075   0.929   2.372
  194HFI     H2 2817   0.804   1.022   2.411
  195HFI     O1 2818   1.013   2.678   2.781
  195HFI     C1 2819   1.143   2.618   2.752
  195HFI     C2 2820   1.238   2.721   2.688
  195HFI     F1 2821   1.235   2.838   2.755
  195HFI     F2 2822   1.201   2.746   2.562
  195HFI     F3 2823   1.365   2.678   2.689
  195HFI     C3 2824   1.124   2.491   2.666
  195HFI     F4 2825   1.034   2.513   2.567
  195HFI     F5 2826   1.077   2.393   2.744
  195HFI     F6 2827   1.236   2.445   2.611
  195HFI     H1 2828   0.962   2.681   2.699
  195HFI     H2 2829   1.192   2.585   2.844
  196HFI     O1 2830   2.991   2.164   2.543
  196HFI     C1 2831   3.009   2.047   2.628
  196HFI     C2 2832   3.158   2.002   2.628
  196HFI     F1 2833   3.236   2.103   2.671
  196HFI     F2 2834   3.200   1.968   2.504
  196HFI     F3 2835   3.178   1.897   2.711
  196HFI     C3 2836   2.910   1.934   2.590
  196HFI     F4 2837   2.943   1.878   2.472
  196HFI     F5 2838   2.784   1.981   2.577
  196HFI     F6 2839   2.905   1.838   2.686
  196HFI     H1 2840   3.014   2.141   2.452
  196HFI     H2 2841   2.988   2.073   2.732
  197HFI     O1 2842   1.005   2.154   2.854
  197HFI     C1 2843   0.880   2.125   2.785
  197HFI     C2 2844   0.901   2.022   2.674
  197HFI     F1 2845   0.914   1.898   2.723
  197HFI     F2 2846   1.013   2.052   2.606
  197HFI     F3 2847   0.797   2.021   2.588
  197HFI     C3 2848   0.807   2.253   2.738
  197HFI     F4 2849   0.860   2.300   2.624
  197HFI     F5 2850   0.818   2.350   2.832
  197HFI     F6 2851   0.675   2.231   2.718
  197HFI     H1 2852   1.068   2.191   2.790
  197HFI     H2 2853   0.809   2.076   2.854
  198HFI     O1 2854   1.931   3.123   2.944
  198HFI     C1 2855   1.916   2.981   2.909
  198HFI     C2 2856   1.846   2.903   3.024
  198HFI     F1 2857   1.712   2.920   3.022
  198HFI     F2 2858   1.891   2.942   3.143
  198HFI     F3 2859   1.865   2.770   3.017
  198HFI     C3 2860   2.051   2.920   2.865
  198HFI     F4 2861   2.140   2.924   2.965
  198HFI     F5 2862   2.103   2.989   2.761
  198HFI     F6 2863   2.039   2.792   2.824
  198HFI     H1 2864   2.004   3.132   3.007
  198HFI     H2 2865   1.851   2.974   2.821
  199HFI     O1 2866   2.553   3.248   3.012
  199HFI     C1 2867   2.415   3.295   3.023
  199HFI     C2 2868   2.349   3.241   3.152
  199HFI     F1 2869   2.421   3.276   3.260
  199HFI     F2 2870   2.341   3.107   3.149
  199HFI     F3 2871   2.224   3.290   3.169
  199HFI     C3 2872   2.337   3.259   2.895
  199HFI     F4 2873   2.346   3.126   2.871
  199HFI     F5 2874   2.389   3.324   2.789
  199HFI     F6 2875   2.206   3.291   2.902
  199HFI     H1 2876   2.550   3.156   2.983
  199HFI     H2 2877   2.413   3.405   3.030
  200HFI     O1 2878   1.779   1.397   3.040
  200HFI     C1 2879   1.893   1.308   3.023
  200HFI     C2 2880   1.861   1.189   2.928
  200HFI     F1 2881   1.797   1.232   2.819
  200HFI     F2 2882   1.783   1.096   2.988
  200HFI     F3 2883   1.974   1.127   2.886
  200HFI     C3 2884   1.948   1.259   3.159
  200HFI     F4 2885   1.849   1.207   3.233
  200HFI     F5 2886   2.001   1.359   3.232
  200HFI     F6 2887   2.045   1.166   3.145
  200HFI     H1 2888   1.719   1.360   3.107
  200HFI     H2 2889   1.974   1.363   2.972
  201HFI     O1 2890   1.601   0.288   2.716
  201HFI     C1 2891   1.587   0.178   2.810
  201HFI     C2 2892   1.445   0.180   2.874
  201HFI     F1 2893   1.351   0.175   2.777
  201HFI     F2 2894   1.426   0.294   2.944
  201HFI     F3 2895   1.423   0.077   2.958
  201HFI     C3 2896   1.703   0.183   2.911
  201HFI     F4 2897   1.709   0.305   2.969
  201HFI     F5 2898   1.821   0.162   2.848
  201HFI     F6 2899   1.693   0.092   3.008
  201HFI     H1 2900   1.583   0.370   2.765
  201HFI     H2 2901   1.595   0.084   2.755
  202HFI     O1 2902   2.489   3.032   2.625
  202HFI     C1 2903   2.435   2.900   2.656
  202HFI     C2 2904   2.550   2.806   2.698
  202HFI     F1 2905   2.574   2.817   2.830
  202HFI     F2 2906   2.664   2.840   2.633
  202HFI     F3 2907   2.526   2.676   2.673
  202HFI     C3 2908   2.352   2.843   2.539
  202HFI     F4 2909   2.429   2.819   2.431
  202HFI     F5 2910   2.255   2.927   2.503
  202HFI     F6 2911   2.289   2.730   2.575
  202HFI     H1 2912   2.584   3.023   2.603
  202HFI     H2 2913   2.366   2.907   2.740
  203HFI     O1 2914   2.369   1.554   2.978
  203HFI     C1 2915   2.502   1.613   2.977
  203HFI     C2 2916   2.521   1.699   2.849
  203HFI     F1 2917   2.430   1.799   2.850
  203HFI     F2 2918   2.500   1.628   2.737
  203HFI     F3 2919   2.643   1.756   2.841
  203HFI     C3 2920   2.608   1.505   3.013
  203HFI     F4 2921   2.563   1.381   2.986
  203HFI     F5 2922   2.633   1.510   3.145
  203HFI     F6 2923   2.725   1.520   2.951
  203HFI     H1 2924   2.363   1.490   2.906
  203HFI     H2 2925   2.511   1.687   3.058
  204HFI     O1 2926   0.551   0.286   3.183
  204HFI     C1 2927   0.568   0.419   3.126
  204HFI     C2 2928   0.703   0.481   3.172
  204HFI     F1 2929   0.807   0.405   3.129
  204HFI     F2 2930   0.711   0.486   3.307
  204HFI     F3 2931   0.723   0.606   3.125
  204HFI     C3 2932   0.443   0.507   3.155
  204HFI     F4 2933   0.420   0.516   3.287
  204HFI     F5 2934   0.334   0.453   3.097
  204HFI     F6 2935   0.456   0.632   3.106
  204HFI     H1 2936   0.548   0.294   3.280
  204HFI     H2 2937   0.574   0.410   3.017
  205HFI     O1 2938   0.298   1.551   2.987
  205HFI     C1 2939   0.441   1.578   3.000
  205HFI     C2 2940   0.477   1.612   3.147
  205HFI     F1 2941   0.495   1.501   3.220
  205HFI     F2 2942   0.378   1.683   3.205
  205HFI     F3 2943   0.589   1.685   3.155
  205HFI     C3 2944   0.490   1.685   2.900
  205HFI     F4 2945   0.444   1.807   2.935
  205HFI     F5 2946   0.445   1.657   2.777
  205HFI     F6 2947   0.624   1.691   2.893
  205HFI     H1 2948   0.251   1.603   3.054
  205HFI     H2 2949   0.500   1.490   2.972
  206HFI     O1 2950   2.362   0.488   3.008
  206HFI     C1 2951   2.218   0.505   3.020
  206HFI     C2 2952   2.144   0.372   2.984
  206HFI     F1 2953   2.170   0.279   3.078
  206HFI     F2 2954   2.186   0.322   2.866
  206HFI     F3 2955   2.011   0.386   2.976
  206HFI     C3 2956   2.173   0.631   2.940
  206HFI     F4 2957   2.212   0.627   2.812
  206HFI     F5 2958   2.227   0.742   2.995
  206HFI     F6 2959   2.039   0.652   2.940
  206HFI     H1 2960   2.407   0.566   3.047
  206HFI     H2 2961   2.194   0.524   3.125
  207HFI     O1 2962   2.948   1.977   3.130
  207HFI     C1 2963   2.989   1.841   3.164
  207HFI     C2 2964   3.135   1.811   3.120
  207HFI     F1 2965   3.219   1.905   3.167
  207HFI     F2 2966   3.147   1.811   2.985
  207HFI     F3 2967   3.178   1.691   3.166
  207HFI     C3 2968   2.889   1.738   3.108
  207HFI     F4 2969   2.887   1.742   2.973
  207HFI     F5 2970   2.764   1.764   3.151
  207HFI     F6 2971   2.920   1.613   3.148
  207HFI     H1 2972   2.940   1.983   3.034
  207HFI     H2 2973   2.986   1.826   3.273
  208HFI     O1 2974   1.785   1.791   3.010
  208HFI     C1 2975   1.829   1.924   3.046
  208HFI     C2 2976   1.739   1.987   3.153
  208HFI     F1 2977   1.710   1.898   3.251
  208HFI     F2 2978   1.621   2.029   3.102
  208HFI     F3 2979   1.800   2.091   3.212
  208HFI     C3 2980   1.851   2.013   2.922
  208HFI     F4 2981   1.740   2.019   2.846
  208HFI     F5 2982   1.952   1.965   2.848
  208HFI     F6 2983   1.883   2.137   2.956
  208HFI     H1 2984   1.713   1.797   2.945
  208HFI     H2 2985   1.929   1.918   3.092
  209HFI     O1 2986   0.259   0.255   2.499
  209HFI     C1 2987   0.145   0.343   2.519
  209HFI     C2 2988   0.127   0.443   2.400
  209HFI     F1 2989   0.120   0.376   2.283
  209HFI     F2 2990   0.232   0.528   2.391
  209HFI     F3 2991   0.015   0.517   2.413
  209HFI     C3 2992   0.150   0.412   2.658
  209HFI     F4 2993   0.254   0.495   2.671
  209HFI     F5 2994   0.161   0.319   2.756
  209HFI     F6 2995   0.039   0.484   2.682
  209HFI     H1 2996   0.335   0.308   2.472
  209HFI     H2 2997   0.053   0.283   2.519
  210HFI     O1 2998   0.284   1.778   2.284
  210HFI     C1 2999   0.399   1.831   2.358
  210HFI     C2 3000   0.369   1.840   2.510
  210HFI     F1 3001   0.310   1.727   2.552
  210HFI     F2 3002   0.285   1.942   2.537
  210HFI     F3 3003   0.481   1.860   2.583
  210HFI     C3 3004   0.449   1.964   2.297
  210HFI     F4 3005   0.344   2.040   2.256
  210HFI     F5 3006   0.525   1.940   2.189
  210HFI     F6 3007   0.523   2.040   2.381
  210HFI     H1 3008   0.209   1.837   2.300
  210HFI     H2 3009   0.482   1.760   2.349
  211HFI     O1 3010   2.888   2.146   3.340
  211HFI     C1 3011   2.961   2.146   3.467
  211HFI     C2 3012   3.104   2.088   3.453
  211HFI     F1 3013   3.165   2.141   3.345
  211HFI     F2 3014   3.104   1.954   3.437
  211HFI     F3 3015   3.180   2.117   3.561
  211HFI     C3 3016   2.879   2.080   3.582
  211HFI     F4 3017   2.867   1.946   3.565
  211HFI     F5 3018   2.754   2.131   3.588
  211HFI     F6 3019   2.937   2.102   3.702
  211HFI     H1 3020   2.931   2.085   3.278
  211HFI     H2 3021   2.975   2.250   3.499
  212HFI     O1 3022   1.494   2.885   3.514
  212HFI     C1 3023   1.444   3.019   3.490
  212HFI     C2 3024   1.492   3.115   3.601
  212HFI     F1 3025   1.627   3.126   3.598
  212HFI     F2 3026   1.459   3.068   3.724
  212HFI     F3 3027   1.441   3.239   3.588
  212HFI     C3 3028   1.291   3.019   3.472
  212HFI     F4 3029   1.227   2.986   3.586
  212HFI     F5 3030   1.258   2.928   3.379
  212HFI     F6 3031   1.244   3.138   3.429
  212HFI     H1 3032   1.457   2.856   3.600
  212HFI     H2 3033   1.485   3.053   3.394
  213HFI     O1 3034   0.604   2.747   2.889
  213HFI     C1 3035   0.486   2.668   2.851
  213HFI     C2 3036   0.527   2.523   2.811
  213HFI     F1 3037   0.572   2.455   2.919
  213HFI     F2 3038   0.629   2.526   2.723
  213HFI     F3 3039   0.427   2.452   2.758
  213HFI     C3 3040   0.398   2.740   2.745
  213HFI     F4 3041   0.431   2.707   2.618
  213HFI     F5 3042   0.408   2.875   2.757
  213HFI     F6 3043   0.268   2.709   2.763
  213HFI     H1 3044   0.683   2.703   2.855
  213HFI     H2 3045   0.420   2.658   2.938
  214HFI     O1 3046   0.992   1.432   3.149
  214HFI     C1 3047   0.946   1.443   3.011
  214HFI     C2 3048   0.966   1.587   2.960
  214HFI     F1 3049   1.098   1.610   2.947
  214HFI     F2 3050   0.915   1.677   3.048
  214HFI     F3 3051   0.909   1.612   2.841
  214HFI     C3 3052   0.800   1.393   2.999
  214HFI     F4 3053   0.721   1.467   3.077
  214HFI     F5 3054   0.788   1.266   3.041
  214HFI     F6 3055   0.751   1.399   2.874
  214HFI     H1 3056   0.927   1.479   3.205
  214HFI     H2 3057   1.007   1.378   2.948
  215HFI     O1 3058   3.137   2.640   3.229
  215HFI     C1 3059   3.241   2.647   3.331
  215HFI     C2 3060   3.212   2.552   3.450
  215HFI     F1 3061   3.205   2.424   3.407
  215HFI     F2 3062   3.094   2.581   3.509
  215HFI     F3 3063   3.309   2.558   3.544
  215HFI     C3 3064   3.267   2.794   3.374
  215HFI     F4 3065   3.165   2.842   3.447
  215HFI     F5 3066   3.278   2.873   3.265
  215HFI     F6 3067   3.381   2.807   3.445
  215HFI     H1 3068   3.055   2.678   3.265
  215HFI     H2 3069   3.336   2.612   3.288
  216HFI     O1 3070   1.854   0.794   3.149
  216HFI     C1 3071   1.766   0.678   3.154
  216HFI     C2 3072   1.837   0.558   3.221
  216HFI     F1 3073   1.837   0.571   3.354
  216HFI     F2 3074   1.966   0.551   3.184
  216HFI     F3 3075   1.778   0.441   3.192
  216HFI     C3 3076   1.703   0.647   3.016
  216HFI     F4 3077   1.782   0.573   2.936
  216HFI     F5 3078   1.683   0.763   2.951
  216HFI     F6 3079   1.584   0.585   3.027
  216HFI     H1 3080   1.913   0.786   3.072
  216HFI     H2 3081   1.680   0.699   3.219
  217HFI     O1 3082   2.302   1.690   3.198
  217HFI     C1 3083   2.161   1.692   3.230
  217HFI     C2 3084   2.073   1.647   3.111
  217HFI     F1 3085   2.117   1.530   3.062
  217HFI     F2 3086   2.076   1.736   3.010
  217HFI     F3 3087   1.947   1.627   3.151
  217HFI     C3 3088   2.120   1.830   3.286
  217HFI     F4 3089   2.142   1.930   3.198
  217HFI     F5 3090   2.193   1.858   3.396
  217HFI     F6 3091   1.990   1.835   3.320
  217HFI     H1 3092   2.315   1.625   3.127
  217HFI     H2 3093   2.143   1.620   3.310
  218HFI     O1 3094   3.083   0.952   3.189
  218HFI     C1 3095   3.167   0.834   3.206
  218HFI     C2 3096   3.227   0.830   3.349
  218HFI     F1 3097   3.128   0.843   3.441
  218HFI     F2 3098   3.314   0.931   3.369
  218HFI     F3 3099   3.290   0.713   3.374
  218HFI     C3 3100   3.274   0.824   3.094
  218HFI     F4 3101   3.356   0.931   3.092
  218HFI     F5 3102   3.213   0.819   2.974
  218HFI     F6 3103   3.350   0.713   3.105
  218HFI     H1 3104   3.052   0.954   3.097
  218HFI     H2 3105   3.105   0.744   3.198
  219HFI     O1 3106   2.590   2.478   3.284
  219HFI     C1 3107   2.714   2.457   3.214
  219HFI     C2 3108   2.838   2.487   3.303
  219HFI     F1 3109   2.829   2.430   3.425
  219HFI     F2 3110   2.857   2.619   3.322
  219HFI     F3 3111   2.949   2.435   3.248
  219HFI     C3 3112   2.711   2.538   3.082
  219HFI     F4 3113   2.659   2.660   3.099
  219HFI     F5 3114   2.634   2.476   2.990
  219HFI     F6 3115   2.833   2.554   3.027
  219HFI     H1 3116   2.576   2.573   3.297
  219HFI     H2 3117   2.722   2.351   3.186
  220HFI     O1 3118   2.868   0.618   2.446
  220HFI     C1 3119   2.835   0.508   2.356
  220HFI     C2 3120   2.960   0.462   2.277
  220HFI     F1 3121   3.059   0.427   2.363
  220HFI     F2 3122   3.008   0.562   2.200
  220HFI     F3 3123   2.935   0.355   2.200
  220HFI     C3 3124   2.715   0.549   2.268
  220HFI     F4 3125   2.742   0.662   2.198
  220HFI     F5 3126   2.607   0.574   2.344
  220HFI     F6 3127   2.681   0.452   2.181
  220HFI     H1 3128   2.909   0.689   2.394
  220HFI     H2 3129   2.802   0.421   2.414
  221HFI     O1 3130   1.489   2.281   3.167
  221HFI     C1 3131   1.381   2.288   3.070
  221HFI     C2 3132   1.423   2.368   2.945
  221HFI     F1 3133   1.537   2.320   2.892
  221HFI     F2 3134   1.441   2.498   2.975
  221HFI     F3 3135   1.330   2.361   2.849
  221HFI     C3 3136   1.250   2.341   3.133
  221HFI     F4 3137   1.263   2.467   3.178
  221HFI     F5 3138   1.215   2.264   3.238
  221HFI     F6 3139   1.148   2.339   3.045
  221HFI     H1 3140   1.520   2.371   3.186
  221HFI     H2 3141   1.358   2.187   3.035
  222HFI     O1 3142   0.821   2.692   3.317
  222HFI     C1 3143   0.835   2.697   3.463
  222HFI     C2 3144   0.977   2.742   3.499
  222HFI     F1 3145   1.002   2.860   3.438
  222HFI     F2 3146   1.065   2.650   3.455
  222HFI     F3 3147   0.996   2.760   3.632
  222HFI     C3 3148   0.797   2.562   3.530
  222HFI     F4 3149   0.840   2.459   3.454
  222HFI     F5 3150   0.663   2.551   3.542
  222HFI     F6 3151   0.847   2.550   3.654
  222HFI     H1 3152   0.837   2.601   3.288
  222HFI     H2 3153   0.766   2.772   3.504
  223HFI     O1 3154   2.604   3.053   3.691
  223HFI     C1 3155   2.689   3.049   3.572
  223HFI     C2 3156   2.803   2.944   3.587
  223HFI     F1 3157   2.751   2.824   3.621
  223HFI     F2 3158   2.890   2.979   3.684
  223HFI     F3 3159   2.872   2.927   3.473
  223HFI     C3 3160   2.742   3.191   3.536
  223HFI     F4 3161   2.806   3.246   3.641
  223HFI     F5 3162   2.640   3.273   3.503
  223HFI     F6 3163   2.828   3.190   3.432
  223HFI     H1 3164   2.654   3.097   3.763
  223HFI     H2 3165   2.628   3.016   3.487
  224HFI     O1 3166   0.042   1.362   3.502
  224HFI     C1 3167   0.133   1.279   3.423
  224HFI     C2 3168   0.167   1.146   3.494
  224HFI     F1 3169   0.059   1.095   3.557
  224HFI     F2 3170   0.264   1.162   3.588
  224HFI     F3 3171   0.209   1.053   3.405
  224HFI     C3 3172   0.259   1.360   3.383
  224HFI     F4 3173   0.309   1.427   3.489
  224HFI     F5 3174   0.227   1.451   3.289
  224HFI     F6 3175   0.358   1.281   3.334
  224HFI     H1 3176   0.092   1.403   3.574
  224HFI     H2 3177   0.084   1.251   3.329
  225HFI     O1 3178   0.942   1.817   3.533
  225HFI     C1 3179   0.798   1.830   3.519
  225HFI     C2 3180   0.735   1.836   3.659
  225HFI     F1 3181   0.775   1.951   3.715
  225HFI     F2 3182   0.778   1.732   3.734
  225HFI     F3 3183   0.601   1.837   3.658
  225HFI     C3 3184   0.738   1.718   3.433
  225HFI     F4 3185   0.757   1.598   3.490
  225HFI     F5 3186   0.798   1.713   3.313
  225HFI     F6 3187   0.606   1.735   3.414
  225HFI     H1 3188   0.961   1.729   3.570
  225HFI     H2 3189   0.773   1.924   3.470
  226HFI     O1 3190   2.370   2.319   2.880
  226HFI     C1 3191   2.267   2.309   2.778
  226HFI     C2 3192   2.255   2.440   2.696
  226HFI     F1 3193   2.348   2.440   2.599
  226HFI     F2 3194   2.277   2.548   2.773
  226HFI     F3 3195   2.136   2.454   2.636
  226HFI     C3 3196   2.135   2.257   2.836
  226HFI     F4 3197   2.073   2.352   2.908
  226HFI     F5 3198   2.158   2.152   2.918
  226HFI     F6 3199   2.051   2.217   2.738
  226HFI     H1 3200   2.341   2.381   2.949
  226HFI     H2 3201   2.296   2.233   2.705
  227HFI     O1 3202   0.711   2.829   2.336
  227HFI     C1 3203   0.799   2.900   2.428
  227HFI     C2 3204   0.946   2.885   2.385
  227HFI     F1 3205   0.965   2.930   2.259
  227HFI     F2 3206   0.986   2.757   2.389
  227HFI     F3 3207   1.024   2.957   2.467
  227HFI     C3 3208   0.776   2.860   2.577
  227HFI     F4 3209   0.807   2.731   2.600
  227HFI     F5 3210   0.648   2.878   2.611
  227HFI     F6 3211   0.850   2.934   2.663
  227HFI     H1 3212   0.750   2.743   2.315
  227HFI     H2 3213   0.778   3.008   2.421
  228HFI     O1 3214   1.619   2.582   2.786
  228HFI     C1 3215   1.729   2.660   2.734
  228HFI     C2 3216   1.680   2.784   2.655
  228HFI     F1 3217   1.602   2.860   2.735
  228HFI     F2 3218   1.605   2.751   2.547
  228HFI     F3 3219   1.782   2.861   2.614
  228HFI     C3 3220   1.833   2.568   2.665
  228HFI     F4 3221   1.774   2.487   2.576
  228HFI     F5 3222   1.889   2.490   2.758
  228HFI     F6 3223   1.931   2.638   2.604
  228HFI     H1 3224   1.619   2.495   2.744
  228HFI     H2 3225   1.786   2.702   2.818
   3.40320   3.43847   3.80000
