cutoff-scheme = Verlet
nstlist = 20
rlist = 1.0
coulombtype = PME
rcoulomb = 1.0
vdwtype = Cut-off
rvdw = 1.0
DispCorr = EnerPres
pbc = xyz
fourierspacing = 0.12
ewald-rtol = 1e-4
pme-order = 4
constraints = h-bonds
constraint-algorithm = lincs
lincs-order = 6
lincs-iter = 2
freezegrps = GRAPHENE
freezedim = Y Y Y
integrator = md
dt = 0.001
tcoupl = v-rescale
tc-grps = System
tau-t = 0.2
ref-t = 298.15
nstenergy = 1000
nstlog = 1000
nstxout-compressed = 1000
compressed-x-precision = 10000
gen-seed = 20261006
comm-mode = None
nsteps = 50000
pcoupl = no
gen-vel = yes
gen-temp = 298.15
