HFIP comparator n4
 3225
    1GR      C1    1   0.000   0.000   1.900  0.0000  0.0000  0.0000
    1GR      C2    2   0.142   0.000   1.900  0.0000  0.0000  0.0000
    1GR      C3    3   0.213   0.123   1.900  0.0000  0.0000  0.0000
    1GR      C4    4   0.354   0.123   1.900  0.0000  0.0000  0.0000
    1GR      C5    5   0.000   0.246   1.900  0.0000  0.0000  0.0000
    1GR      C6    6   0.142   0.246   1.900  0.0000  0.0000  0.0000
    1GR      C7    7   0.213   0.368   1.900  0.0000  0.0000  0.0000
    1GR      C8    8   0.354   0.368   1.900  0.0000  0.0000  0.0000
    1GR      C9    9   0.000   0.491   1.900  0.0000  0.0000  0.0000
    1GR     C10   10   0.142   0.491   1.900  0.0000  0.0000  0.0000
    1GR     C11   11   0.213   0.614   1.900  0.0000  0.0000  0.0000
    1GR     C12   12   0.354   0.614   1.900  0.0000  0.0000  0.0000
    1GR     C13   13   0.000   0.737   1.900  0.0000  0.0000  0.0000
    1GR     C14   14   0.142   0.737   1.900  0.0000  0.0000  0.0000
    1GR     C15   15   0.213   0.860   1.900  0.0000  0.0000  0.0000
    1GR     C16   16   0.354   0.860   1.900  0.0000  0.0000  0.0000
    1GR     C17   17   0.000   0.982   1.900  0.0000  0.0000  0.0000
    1GR     C18   18   0.142   0.982   1.900  0.0000  0.0000  0.0000
    1GR     C19   19   0.213   1.105   1.900  0.0000  0.0000  0.0000
    1GR     C20   20   0.354   1.105   1.900  0.0000  0.0000  0.0000
    1GR     C21   21   0.000   1.228   1.900  0.0000  0.0000  0.0000
    1GR     C22   22   0.142   1.228   1.900  0.0000  0.0000  0.0000
    1GR     C23   23   0.213   1.351   1.900  0.0000  0.0000  0.0000
    1GR     C24   24   0.354   1.351   1.900  0.0000  0.0000  0.0000
    1GR     C25   25   3.403   1.474   1.900  0.0000  0.0000  0.0000
    1GR     C26   26   0.142   1.474   1.900  0.0000  0.0000  0.0000
    1GR     C27   27   0.213   1.596   1.900  0.0000  0.0000  0.0000
    1GR     C28   28   0.354   1.596   1.900  0.0000  0.0000  0.0000
    1GR     C29   29   0.000   1.719   1.900  0.0000  0.0000  0.0000
    1GR     C30   30   0.142   1.719   1.900  0.0000  0.0000  0.0000
    1GR     C31   31   0.213   1.842   1.900  0.0000  0.0000  0.0000
    1GR     C32   32   0.354   1.842   1.900  0.0000  0.0000  0.0000
    1GR     C33   33   0.000   1.965   1.900  0.0000  0.0000  0.0000
    1GR     C34   34   0.142   1.965   1.900  0.0000  0.0000  0.0000
    1GR     C35   35   0.213   2.088   1.900  0.0000  0.0000  0.0000
    1GR     C36   36   0.354   2.088   1.900  0.0000  0.0000  0.0000
    1GR     C37   37   0.000   2.210   1.900  0.0000  0.0000  0.0000
    1GR     C38   38   0.142   2.210   1.900  0.0000  0.0000  0.0000
    1GR     C39   39   0.213   2.333   1.900  0.0000  0.0000  0.0000
    1GR     C40   40   0.354   2.333   1.900  0.0000  0.0000  0.0000
    1GR     C41   41   0.000   2.456   1.900  0.0000  0.0000  0.0000
    1GR     C42   42   0.142   2.456   1.900  0.0000  0.0000  0.0000
    1GR     C43   43   0.213   2.579   1.900  0.0000  0.0000  0.0000
    1GR     C44   44   0.354   2.579   1.900  0.0000  0.0000  0.0000
    1GR     C45   45   0.000   2.702   1.900  0.0000  0.0000  0.0000
    1GR     C46   46   0.142   2.702   1.900  0.0000  0.0000  0.0000
    1GR     C47   47   0.213   2.824   1.900  0.0000  0.0000  0.0000
    1GR     C48   48   0.354   2.824   1.900  0.0000  0.0000  0.0000
    1GR     C49   49   0.000   2.947   1.900  0.0000  0.0000  0.0000
    1GR     C50   50   0.142   2.947   1.900  0.0000  0.0000  0.0000
    1GR     C51   51   0.213   3.070   1.900  0.0000  0.0000  0.0000
    1GR     C52   52   0.354   3.070   1.900  0.0000  0.0000  0.0000
    1GR     C53   53   0.000   3.193   1.900  0.0000  0.0000  0.0000
    1GR     C54   54   0.142   3.193   1.900  0.0000  0.0000  0.0000
    1GR     C55   55   0.213   3.316   1.900  0.0000  0.0000  0.0000
    1GR     C56   56   0.354   3.316   1.900  0.0000  0.0000  0.0000
    1GR     C57   57   0.425   0.000   1.900  0.0000  0.0000  0.0000
    1GR     C58   58   0.567   0.000   1.900  0.0000  0.0000  0.0000
    1GR     C59   59   0.638   0.123   1.900  0.0000  0.0000  0.0000
    1GR     C60   60   0.780   0.123   1.900  0.0000  0.0000  0.0000
    1GR     C61   61   0.425   0.246   1.900  0.0000  0.0000  0.0000
    1GR     C62   62   0.567   0.246   1.900  0.0000  0.0000  0.0000
    1GR     C63   63   0.638   0.368   1.900  0.0000  0.0000  0.0000
    1GR     C64   64   0.780   0.368   1.900  0.0000  0.0000  0.0000
    1GR     C65   65   0.425   0.491   1.900  0.0000  0.0000  0.0000
    1GR     C66   66   0.567   0.491   1.900  0.0000  0.0000  0.0000
    1GR     C67   67   0.638   0.614   1.900  0.0000  0.0000  0.0000
    1GR     C68   68   0.780   0.614   1.900  0.0000  0.0000  0.0000
    1GR     C69   69   0.425   0.737   1.900  0.0000  0.0000  0.0000
    1GR     C70   70   0.567   0.737   1.900  0.0000  0.0000  0.0000
    1GR     C71   71   0.638   0.860   1.900  0.0000  0.0000  0.0000
    1GR     C72   72   0.780   0.860   1.900  0.0000  0.0000  0.0000
    1GR     C73   73   0.425   0.982   1.900  0.0000  0.0000  0.0000
    1GR     C74   74   0.567   0.982   1.900  0.0000  0.0000  0.0000
    1GR     C75   75   0.638   1.105   1.900  0.0000  0.0000  0.0000
    1GR     C76   76   0.780   1.105   1.900  0.0000  0.0000  0.0000
    1GR     C77   77   0.425   1.228   1.900  0.0000  0.0000  0.0000
    1GR     C78   78   0.567   1.228   1.900  0.0000  0.0000  0.0000
    1GR     C79   79   0.638   1.351   1.900  0.0000  0.0000  0.0000
    1GR     C80   80   0.780   1.351   1.900  0.0000  0.0000  0.0000
    1GR     C81   81   0.425   1.474   1.900  0.0000  0.0000  0.0000
    1GR     C82   82   0.567   1.474   1.900  0.0000  0.0000  0.0000
    1GR     C83   83   0.638   1.596   1.900  0.0000  0.0000  0.0000
    1GR     C84   84   0.780   1.596   1.900  0.0000  0.0000  0.0000
    1GR     C85   85   0.425   1.719   1.900  0.0000  0.0000  0.0000
    1GR     C86   86   0.567   1.719   1.900  0.0000  0.0000  0.0000
    1GR     C87   87   0.638   1.842   1.900  0.0000  0.0000  0.0000
    1GR     C88   88   0.780   1.842   1.900  0.0000  0.0000  0.0000
    1GR     C89   89   0.425   1.965   1.900  0.0000  0.0000  0.0000
    1GR     C90   90   0.567   1.965   1.900  0.0000  0.0000  0.0000
    1GR     C91   91   0.638   2.088   1.900  0.0000  0.0000  0.0000
    1GR     C92   92   0.780   2.088   1.900  0.0000  0.0000  0.0000
    1GR     C93   93   0.425   2.210   1.900  0.0000  0.0000  0.0000
    1GR     C94   94   0.567   2.210   1.900  0.0000  0.0000  0.0000
    1GR     C95   95   0.638   2.333   1.900  0.0000  0.0000  0.0000
    1GR     C96   96   0.780   2.333   1.900  0.0000  0.0000  0.0000
    1GR     C97   97   0.425   2.456   1.900  0.0000  0.0000  0.0000
    1GR     C98   98   0.567   2.456   1.900  0.0000  0.0000  0.0000
    1GR     C99   99   0.638   2.579   1.900  0.0000  0.0000  0.0000
    1GR    C100  100   0.780   2.579   1.900  0.0000  0.0000  0.0000
    1GR    C101  101   0.425   2.702   1.900  0.0000  0.0000  0.0000
    1GR    C102  102   0.567   2.702   1.900  0.0000  0.0000  0.0000
    1GR    C103  103   0.638   2.824   1.900  0.0000  0.0000  0.0000
    1GR    C104  104   0.780   2.824   1.900  0.0000  0.0000  0.0000
    1GR    C105  105   0.425   2.947   1.900  0.0000  0.0000  0.0000
    1GR    C106  106   0.567   2.947   1.900  0.0000  0.0000  0.0000
    1GR    C107  107   0.638   3.070   1.900  0.0000  0.0000  0.0000
    1GR    C108  108   0.780   3.070   1.900  0.0000  0.0000  0.0000
    1GR    C109  109   0.425   3.193   1.900  0.0000  0.0000  0.0000
    1GR    C110  110   0.567   3.193   1.900  0.0000  0.0000  0.0000
    1GR    C111  111   0.638   3.316   1.900  0.0000  0.0000  0.0000
    1GR    C112  112   0.780   3.316   1.900  0.0000  0.0000  0.0000
    1GR    C113  113   0.851   0.000   1.900  0.0000  0.0000  0.0000
    1GR    C114  114   0.993   0.000   1.900  0.0000  0.0000  0.0000
    1GR    C115  115   1.064   0.123   1.900  0.0000  0.0000  0.0000
    1GR    C116  116   1.205   0.123   1.900  0.0000  0.0000  0.0000
    1GR    C117  117   0.851   0.246   1.900  0.0000  0.0000  0.0000
    1GR    C118  118   0.993   0.246   1.900  0.0000  0.0000  0.0000
    1GR    C119  119   1.064   0.368   1.900  0.0000  0.0000  0.0000
    1GR    C120  120   1.205   0.368   1.900  0.0000  0.0000  0.0000
    1GR    C121  121   0.851   0.491   1.900  0.0000  0.0000  0.0000
    1GR    C122  122   0.993   0.491   1.900  0.0000  0.0000  0.0000
    1GR    C123  123   1.064   0.614   1.900  0.0000  0.0000  0.0000
    1GR    C124  124   1.205   0.614   1.900  0.0000  0.0000  0.0000
    1GR    C125  125   0.851   0.737   1.900  0.0000  0.0000  0.0000
    1GR    C126  126   0.993   0.737   1.900  0.0000  0.0000  0.0000
    1GR    C127  127   1.064   0.860   1.900  0.0000  0.0000  0.0000
    1GR    C128  128   1.205   0.860   1.900  0.0000  0.0000  0.0000
    1GR    C129  129   0.851   0.982   1.900  0.0000  0.0000  0.0000
    1GR    C130  130   0.993   0.982   1.900  0.0000  0.0000  0.0000
    1GR    C131  131   1.064   1.105   1.900  0.0000  0.0000  0.0000
    1GR    C132  132   1.205   1.105   1.900  0.0000  0.0000  0.0000
    1GR    C133  133   0.851   1.228   1.900  0.0000  0.0000  0.0000
    1GR    C134  134   0.993   1.228   1.900  0.0000  0.0000  0.0000
    1GR    C135  135   1.064   1.351   1.900  0.0000  0.0000  0.0000
    1GR    C136  136   1.205   1.351   1.900  0.0000  0.0000  0.0000
    1GR    C137  137   0.851   1.474   1.900  0.0000  0.0000  0.0000
    1GR    C138  138   0.993   1.474   1.900  0.0000  0.0000  0.0000
    1GR    C139  139   1.064   1.596   1.900  0.0000  0.0000  0.0000
    1GR    C140  140   1.205   1.596   1.900  0.0000  0.0000  0.0000
    1GR    C141  141   0.851   1.719   1.900  0.0000  0.0000  0.0000
    1GR    C142  142   0.993   1.719   1.900  0.0000  0.0000  0.0000
    1GR    C143  143   1.064   1.842   1.900  0.0000  0.0000  0.0000
    1GR    C144  144   1.205   1.842   1.900  0.0000  0.0000  0.0000
    1GR    C145  145   0.851   1.965   1.900  0.0000  0.0000  0.0000
    1GR    C146  146   0.993   1.965   1.900  0.0000  0.0000  0.0000
    1GR    C147  147   1.064   2.088   1.900  0.0000  0.0000  0.0000
    1GR    C148  148   1.205   2.088   1.900  0.0000  0.0000  0.0000
    1GR    C149  149   0.851   2.210   1.900  0.0000  0.0000  0.0000
    1GR    C150  150   0.993   2.210   1.900  0.0000  0.0000  0.0000
    1GR    C151  151   1.064   2.333   1.900  0.0000  0.0000  0.0000
    1GR    C152  152   1.205   2.333   1.900  0.0000  0.0000  0.0000
    1GR    C153  153   0.851   2.456   1.900  0.0000  0.0000  0.0000
    1GR    C154  154   0.993   2.456   1.900  0.0000  0.0000  0.0000
    1GR    C155  155   1.064   2.579   1.900  0.0000  0.0000  0.0000
    1GR    C156  156   1.205   2.579   1.900  0.0000  0.0000  0.0000
    1GR    C157  157   0.851   2.702   1.900  0.0000  0.0000  0.0000
    1GR    C158  158   0.993   2.702   1.900  0.0000  0.0000  0.0000
    1GR    C159  159   1.064   2.824   1.900  0.0000  0.0000  0.0000
    1GR    C160  160   1.205   2.824   1.900  0.0000  0.0000  0.0000
    1GR    C161  161   0.851   2.947   1.900  0.0000  0.0000  0.0000
    1GR    C162  162   0.993   2.947   1.900  0.0000  0.0000  0.0000
    1GR    C163  163   1.064   3.070   1.900  0.0000  0.0000  0.0000
    1GR    C164  164   1.205   3.070   1.900  0.0000  0.0000  0.0000
    1GR    C165  165   0.851   3.193   1.900  0.0000  0.0000  0.0000
    1GR    C166  166   0.993   3.193   1.900  0.0000  0.0000  0.0000
    1GR    C167  167   1.064   3.316   1.900  0.0000  0.0000  0.0000
    1GR    C168  168   1.205   3.316   1.900  0.0000  0.0000  0.0000
    1GR    C169  169   1.276   0.000   1.900  0.0000  0.0000  0.0000
    1GR    C170  170   1.418   0.000   1.900  0.0000  0.0000  0.0000
    1GR    C171  171   1.489   0.123   1.900  0.0000  0.0000  0.0000
    1GR    C172  172   1.631   0.123   1.900  0.0000  0.0000  0.0000
    1GR    C173  173   1.276   0.246   1.900  0.0000  0.0000  0.0000
    1GR    C174  174   1.418   0.246   1.900  0.0000  0.0000  0.0000
    1GR    C175  175   1.489   0.368   1.900  0.0000  0.0000  0.0000
    1GR    C176  176   1.631   0.368   1.900  0.0000  0.0000  0.0000
    1GR    C177  177   1.276   0.491   1.900  0.0000  0.0000  0.0000
    1GR    C178  178   1.418   0.491   1.900  0.0000  0.0000  0.0000
    1GR    C179  179   1.489   0.614   1.900  0.0000  0.0000  0.0000
    1GR    C180  180   1.631   0.614   1.900  0.0000  0.0000  0.0000
    1GR    C181  181   1.276   0.737   1.900  0.0000  0.0000  0.0000
    1GR    C182  182   1.418   0.737   1.900  0.0000  0.0000  0.0000
    1GR    C183  183   1.489   0.860   1.900  0.0000  0.0000  0.0000
    1GR    C184  184   1.631   0.860   1.900  0.0000  0.0000  0.0000
    1GR    C185  185   1.276   0.982   1.900  0.0000  0.0000  0.0000
    1GR    C186  186   1.418   0.982   1.900  0.0000  0.0000  0.0000
    1GR    C187  187   1.489   1.105   1.900  0.0000  0.0000  0.0000
    1GR    C188  188   1.631   1.105   1.900  0.0000  0.0000  0.0000
    1GR    C189  189   1.276   1.228   1.900  0.0000  0.0000  0.0000
    1GR    C190  190   1.418   1.228   1.900  0.0000  0.0000  0.0000
    1GR    C191  191   1.489   1.351   1.900  0.0000  0.0000  0.0000
    1GR    C192  192   1.631   1.351   1.900  0.0000  0.0000  0.0000
    1GR    C193  193   1.276   1.474   1.900  0.0000  0.0000  0.0000
    1GR    C194  194   1.418   1.474   1.900  0.0000  0.0000  0.0000
    1GR    C195  195   1.489   1.596   1.900  0.0000  0.0000  0.0000
    1GR    C196  196   1.631   1.596   1.900  0.0000  0.0000  0.0000
    1GR    C197  197   1.276   1.719   1.900  0.0000  0.0000  0.0000
    1GR    C198  198   1.418   1.719   1.900  0.0000  0.0000  0.0000
    1GR    C199  199   1.489   1.842   1.900  0.0000  0.0000  0.0000
    1GR    C200  200   1.631   1.842   1.900  0.0000  0.0000  0.0000
    1GR    C201  201   1.276   1.965   1.900  0.0000  0.0000  0.0000
    1GR    C202  202   1.418   1.965   1.900  0.0000  0.0000  0.0000
    1GR    C203  203   1.489   2.088   1.900  0.0000  0.0000  0.0000
    1GR    C204  204   1.631   2.088   1.900  0.0000  0.0000  0.0000
    1GR    C205  205   1.276   2.210   1.900  0.0000  0.0000  0.0000
    1GR    C206  206   1.418   2.210   1.900  0.0000  0.0000  0.0000
    1GR    C207  207   1.489   2.333   1.900  0.0000  0.0000  0.0000
    1GR    C208  208   1.631   2.333   1.900  0.0000  0.0000  0.0000
    1GR    C209  209   1.276   2.456   1.900  0.0000  0.0000  0.0000
    1GR    C210  210   1.418   2.456   1.900  0.0000  0.0000  0.0000
    1GR    C211  211   1.489   2.579   1.900  0.0000  0.0000  0.0000
    1GR    C212  212   1.631   2.579   1.900  0.0000  0.0000  0.0000
    1GR    C213  213   1.276   2.702   1.900  0.0000  0.0000  0.0000
    1GR    C214  214   1.418   2.702   1.900  0.0000  0.0000  0.0000
    1GR    C215  215   1.489   2.824   1.900  0.0000  0.0000  0.0000
    1GR    C216  216   1.631   2.824   1.900  0.0000  0.0000  0.0000
    1GR    C217  217   1.276   2.947   1.900  0.0000  0.0000  0.0000
    1GR    C218  218   1.418   2.947   1.900  0.0000  0.0000  0.0000
    1GR    C219  219   1.489   3.070   1.900  0.0000  0.0000  0.0000
    1GR    C220  220   1.631   3.070   1.900  0.0000  0.0000  0.0000
    1GR    C221  221   1.276   3.193   1.900  0.0000  0.0000  0.0000
    1GR    C222  222   1.418   3.193   1.900  0.0000  0.0000  0.0000
    1GR    C223  223   1.489   3.316   1.900  0.0000  0.0000  0.0000
    1GR    C224  224   1.631   3.316   1.900  0.0000  0.0000  0.0000
    1GR    C225  225   1.702   0.000   1.900  0.0000  0.0000  0.0000
    1GR    C226  226   1.843   0.000   1.900  0.0000  0.0000  0.0000
    1GR    C227  227   1.914   0.123   1.900  0.0000  0.0000  0.0000
    1GR    C228  228   2.056   0.123   1.900  0.0000  0.0000  0.0000
    1GR    C229  229   1.702   0.246   1.900  0.0000  0.0000  0.0000
    1GR    C230  230   1.843   0.246   1.900  0.0000  0.0000  0.0000
    1GR    C231  231   1.914   0.368   1.900  0.0000  0.0000  0.0000
    1GR    C232  232   2.056   0.368   1.900  0.0000  0.0000  0.0000
    1GR    C233  233   1.702   0.491   1.900  0.0000  0.0000  0.0000
    1GR    C234  234   1.843   0.491   1.900  0.0000  0.0000  0.0000
    1GR    C235  235   1.914   0.614   1.900  0.0000  0.0000  0.0000
    1GR    C236  236   2.056   0.614   1.900  0.0000  0.0000  0.0000
    1GR    C237  237   1.702   0.737   1.900  0.0000  0.0000  0.0000
    1GR    C238  238   1.843   0.737   1.900  0.0000  0.0000  0.0000
    1GR    C239  239   1.914   0.860   1.900  0.0000  0.0000  0.0000
    1GR    C240  240   2.056   0.860   1.900  0.0000  0.0000  0.0000
    1GR    C241  241   1.702   0.982   1.900  0.0000  0.0000  0.0000
    1GR    C242  242   1.843   0.982   1.900  0.0000  0.0000  0.0000
    1GR    C243  243   1.914   1.105   1.900  0.0000  0.0000  0.0000
    1GR    C244  244   2.056   1.105   1.900  0.0000  0.0000  0.0000
    1GR    C245  245   1.702   1.228   1.900  0.0000  0.0000  0.0000
    1GR    C246  246   1.843   1.228   1.900  0.0000  0.0000  0.0000
    1GR    C247  247   1.914   1.351   1.900  0.0000  0.0000  0.0000
    1GR    C248  248   2.056   1.351   1.900  0.0000  0.0000  0.0000
    1GR    C249  249   1.702   1.474   1.900  0.0000  0.0000  0.0000
    1GR    C250  250   1.843   1.474   1.900  0.0000  0.0000  0.0000
    1GR    C251  251   1.914   1.596   1.900  0.0000  0.0000  0.0000
    1GR    C252  252   2.056   1.596   1.900  0.0000  0.0000  0.0000
    1GR    C253  253   1.702   1.719   1.900  0.0000  0.0000  0.0000
    1GR    C254  254   1.843   1.719   1.900  0.0000  0.0000  0.0000
    1GR    C255  255   1.914   1.842   1.900  0.0000  0.0000  0.0000
    1GR    C256  256   2.056   1.842   1.900  0.0000  0.0000  0.0000
    1GR    C257  257   1.702   1.965   1.900  0.0000  0.0000  0.0000
    1GR    C258  258   1.843   1.965   1.900  0.0000  0.0000  0.0000
    1GR    C259  259   1.914   2.088   1.900  0.0000  0.0000  0.0000
    1GR    C260  260   2.056   2.088   1.900  0.0000  0.0000  0.0000
    1GR    C261  261   1.702   2.210   1.900  0.0000  0.0000  0.0000
    1GR    C262  262   1.843   2.210   1.900  0.0000  0.0000  0.0000
    1GR    C263  263   1.914   2.333   1.900  0.0000  0.0000  0.0000
    1GR    C264  264   2.056   2.333   1.900  0.0000  0.0000  0.0000
    1GR    C265  265   1.702   2.456   1.900  0.0000  0.0000  0.0000
    1GR    C266  266   1.843   2.456   1.900  0.0000  0.0000  0.0000
    1GR    C267  267   1.914   2.579   1.900  0.0000  0.0000  0.0000
    1GR    C268  268   2.056   2.579   1.900  0.0000  0.0000  0.0000
    1GR    C269  269   1.702   2.702   1.900  0.0000  0.0000  0.0000
    1GR    C270  270   1.843   2.702   1.900  0.0000  0.0000  0.0000
    1GR    C271  271   1.914   2.824   1.900  0.0000  0.0000  0.0000
    1GR    C272  272   2.056   2.824   1.900  0.0000  0.0000  0.0000
    1GR    C273  273   1.702   2.947   1.900  0.0000  0.0000  0.0000
    1GR    C274  274   1.843   2.947   1.900  0.0000  0.0000  0.0000
    1GR    C275  275   1.914   3.070   1.900  0.0000  0.0000  0.0000
    1GR    C276  276   2.056   3.070   1.900  0.0000  0.0000  0.0000
    1GR    C277  277   1.702   3.193   1.900  0.0000  0.0000  0.0000
    1GR    C278  278   1.843   3.193   1.900  0.0000  0.0000  0.0000
    1GR    C279  279   1.914   3.316   1.900  0.0000  0.0000  0.0000
    1GR    C280  280   2.056   3.316   1.900  0.0000  0.0000  0.0000
    1GR    C281  281   2.127   0.000   1.900  0.0000  0.0000  0.0000
    1GR    C282  282   2.269   0.000   1.900  0.0000  0.0000  0.0000
    1GR    C283  283   2.340   0.123   1.900  0.0000  0.0000  0.0000
    1GR    C284  284   2.481   0.123   1.900  0.0000  0.0000  0.0000
    1GR    C285  285   2.127   0.246   1.900  0.0000  0.0000  0.0000
    1GR    C286  286   2.269   0.246   1.900  0.0000  0.0000  0.0000
    1GR    C287  287   2.340   0.368   1.900  0.0000  0.0000  0.0000
    1GR    C288  288   2.481   0.368   1.900  0.0000  0.0000  0.0000
    1GR    C289  289   2.127   0.491   1.900  0.0000  0.0000  0.0000
    1GR    C290  290   2.269   0.491   1.900  0.0000  0.0000  0.0000
    1GR    C291  291   2.340   0.614   1.900  0.0000  0.0000  0.0000
    1GR    C292  292   2.481   0.614   1.900  0.0000  0.0000  0.0000
    1GR    C293  293   2.127   0.737   1.900  0.0000  0.0000  0.0000
    1GR    C294  294   2.269   0.737   1.900  0.0000  0.0000  0.0000
    1GR    C295  295   2.340   0.860   1.900  0.0000  0.0000  0.0000
    1GR    C296  296   2.481   0.860   1.900  0.0000  0.0000  0.0000
    1GR    C297  297   2.127   0.982   1.900  0.0000  0.0000  0.0000
    1GR    C298  298   2.269   0.982   1.900  0.0000  0.0000  0.0000
    1GR    C299  299   2.340   1.105   1.900  0.0000  0.0000  0.0000
    1GR    C300  300   2.481   1.105   1.900  0.0000  0.0000  0.0000
    1GR    C301  301   2.127   1.228   1.900  0.0000  0.0000  0.0000
    1GR    C302  302   2.269   1.228   1.900  0.0000  0.0000  0.0000
    1GR    C303  303   2.340   1.351   1.900  0.0000  0.0000  0.0000
    1GR    C304  304   2.481   1.351   1.900  0.0000  0.0000  0.0000
    1GR    C305  305   2.127   1.474   1.900  0.0000  0.0000  0.0000
    1GR    C306  306   2.269   1.474   1.900  0.0000  0.0000  0.0000
    1GR    C307  307   2.340   1.596   1.900  0.0000  0.0000  0.0000
    1GR    C308  308   2.481   1.596   1.900  0.0000  0.0000  0.0000
    1GR    C309  309   2.127   1.719   1.900  0.0000  0.0000  0.0000
    1GR    C310  310   2.269   1.719   1.900  0.0000  0.0000  0.0000
    1GR    C311  311   2.340   1.842   1.900  0.0000  0.0000  0.0000
    1GR    C312  312   2.481   1.842   1.900  0.0000  0.0000  0.0000
    1GR    C313  313   2.127   1.965   1.900  0.0000  0.0000  0.0000
    1GR    C314  314   2.269   1.965   1.900  0.0000  0.0000  0.0000
    1GR    C315  315   2.340   2.088   1.900  0.0000  0.0000  0.0000
    1GR    C316  316   2.481   2.088   1.900  0.0000  0.0000  0.0000
    1GR    C317  317   2.127   2.210   1.900  0.0000  0.0000  0.0000
    1GR    C318  318   2.269   2.210   1.900  0.0000  0.0000  0.0000
    1GR    C319  319   2.340   2.333   1.900  0.0000  0.0000  0.0000
    1GR    C320  320   2.481   2.333   1.900  0.0000  0.0000  0.0000
    1GR    C321  321   2.127   2.456   1.900  0.0000  0.0000  0.0000
    1GR    C322  322   2.269   2.456   1.900  0.0000  0.0000  0.0000
    1GR    C323  323   2.340   2.579   1.900  0.0000  0.0000  0.0000
    1GR    C324  324   2.481   2.579   1.900  0.0000  0.0000  0.0000
    1GR    C325  325   2.127   2.702   1.900  0.0000  0.0000  0.0000
    1GR    C326  326   2.269   2.702   1.900  0.0000  0.0000  0.0000
    1GR    C327  327   2.340   2.824   1.900  0.0000  0.0000  0.0000
    1GR    C328  328   2.481   2.824   1.900  0.0000  0.0000  0.0000
    1GR    C329  329   2.127   2.947   1.900  0.0000  0.0000  0.0000
    1GR    C330  330   2.269   2.947   1.900  0.0000  0.0000  0.0000
    1GR    C331  331   2.340   3.070   1.900  0.0000  0.0000  0.0000
    1GR    C332  332   2.481   3.070   1.900  0.0000  0.0000  0.0000
    1GR    C333  333   2.127   3.193   1.900  0.0000  0.0000  0.0000
    1GR    C334  334   2.269   3.193   1.900  0.0000  0.0000  0.0000
    1GR    C335  335   2.340   3.316   1.900  0.0000  0.0000  0.0000
    1GR    C336  336   2.481   3.316   1.900  0.0000  0.0000  0.0000
    1GR    C337  337   2.552   0.000   1.900  0.0000  0.0000  0.0000
    1GR    C338  338   2.694   0.000   1.900  0.0000  0.0000  0.0000
    1GR    C339  339   2.765   0.123   1.900  0.0000  0.0000  0.0000
    1GR    C340  340   2.907   0.123   1.900  0.0000  0.0000  0.0000
    1GR    C341  341   2.552   0.246   1.900  0.0000  0.0000  0.0000
    1GR    C342  342   2.694   0.246   1.900  0.0000  0.0000  0.0000
    1GR    C343  343   2.765   0.368   1.900  0.0000  0.0000  0.0000
    1GR    C344  344   2.907   0.368   1.900  0.0000  0.0000  0.0000
    1GR    C345  345   2.552   0.491   1.900  0.0000  0.0000  0.0000
    1GR    C346  346   2.694   0.491   1.900  0.0000  0.0000  0.0000
    1GR    C347  347   2.765   0.614   1.900  0.0000  0.0000  0.0000
    1GR    C348  348   2.907   0.614   1.900  0.0000  0.0000  0.0000
    1GR    C349  349   2.552   0.737   1.900  0.0000  0.0000  0.0000
    1GR    C350  350   2.694   0.737   1.900  0.0000  0.0000  0.0000
    1GR    C351  351   2.765   0.860   1.900  0.0000  0.0000  0.0000
    1GR    C352  352   2.907   0.860   1.900  0.0000  0.0000  0.0000
    1GR    C353  353   2.552   0.982   1.900  0.0000  0.0000  0.0000
    1GR    C354  354   2.694   0.982   1.900  0.0000  0.0000  0.0000
    1GR    C355  355   2.765   1.105   1.900  0.0000  0.0000  0.0000
    1GR    C356  356   2.907   1.105   1.900  0.0000  0.0000  0.0000
    1GR    C357  357   2.552   1.228   1.900  0.0000  0.0000  0.0000
    1GR    C358  358   2.694   1.228   1.900  0.0000  0.0000  0.0000
    1GR    C359  359   2.765   1.351   1.900  0.0000  0.0000  0.0000
    1GR    C360  360   2.907   1.351   1.900  0.0000  0.0000  0.0000
    1GR    C361  361   2.552   1.474   1.900  0.0000  0.0000  0.0000
    1GR    C362  362   2.694   1.474   1.900  0.0000  0.0000  0.0000
    1GR    C363  363   2.765   1.596   1.900  0.0000  0.0000  0.0000
    1GR    C364  364   2.907   1.596   1.900  0.0000  0.0000  0.0000
    1GR    C365  365   2.552   1.719   1.900  0.0000  0.0000  0.0000
    1GR    C366  366   2.694   1.719   1.900  0.0000  0.0000  0.0000
    1GR    C367  367   2.765   1.842   1.900  0.0000  0.0000  0.0000
    1GR    C368  368   2.907   1.842   1.900  0.0000  0.0000  0.0000
    1GR    C369  369   2.552   1.965   1.900  0.0000  0.0000  0.0000
    1GR    C370  370   2.694   1.965   1.900  0.0000  0.0000  0.0000
    1GR    C371  371   2.765   2.088   1.900  0.0000  0.0000  0.0000
    1GR    C372  372   2.907   2.088   1.900  0.0000  0.0000  0.0000
    1GR    C373  373   2.552   2.210   1.900  0.0000  0.0000  0.0000
    1GR    C374  374   2.694   2.210   1.900  0.0000  0.0000  0.0000
    1GR    C375  375   2.765   2.333   1.900  0.0000  0.0000  0.0000
    1GR    C376  376   2.907   2.333   1.900  0.0000  0.0000  0.0000
    1GR    C377  377   2.552   2.456   1.900  0.0000  0.0000  0.0000
    1GR    C378  378   2.694   2.456   1.900  0.0000  0.0000  0.0000
    1GR    C379  379   2.765   2.579   1.900  0.0000  0.0000  0.0000
    1GR    C380  380   2.907   2.579   1.900  0.0000  0.0000  0.0000
    1GR    C381  381   2.552   2.702   1.900  0.0000  0.0000  0.0000
    1GR    C382  382   2.694   2.702   1.900  0.0000  0.0000  0.0000
    1GR    C383  383   2.765   2.824   1.900  0.0000  0.0000  0.0000
    1GR    C384  384   2.907   2.824   1.900  0.0000  0.0000  0.0000
    1GR    C385  385   2.552   2.947   1.900  0.0000  0.0000  0.0000
    1GR    C386  386   2.694   2.947   1.900  0.0000  0.0000  0.0000
    1GR    C387  387   2.765   3.070   1.900  0.0000  0.0000  0.0000
    1GR    C388  388   2.907   3.070   1.900  0.0000  0.0000  0.0000
    1GR    C389  389   2.552   3.193   1.900  0.0000  0.0000  0.0000
    1GR    C390  390   2.694   3.193   1.900  0.0000  0.0000  0.0000
    1GR    C391  391   2.765   3.316   1.900  0.0000  0.0000  0.0000
    1GR    C392  392   2.907   3.316   1.900  0.0000  0.0000  0.0000
    1GR    C393  393   2.978   0.000   1.900  0.0000  0.0000  0.0000
    1GR    C394  394   3.120   0.000   1.900  0.0000  0.0000  0.0000
    1GR    C395  395   3.191   0.123   1.900  0.0000  0.0000  0.0000
    1GR    C396  396   3.332   0.123   1.900  0.0000  0.0000  0.0000
    1GR    C397  397   2.978   0.246   1.900  0.0000  0.0000  0.0000
    1GR    C398  398   3.120   0.246   1.900  0.0000  0.0000  0.0000
    1GR    C399  399   3.191   0.368   1.900  0.0000  0.0000  0.0000
    1GR    C400  400   3.332   0.368   1.900  0.0000  0.0000  0.0000
    1GR    C401  401   2.978   0.491   1.900  0.0000  0.0000  0.0000
    1GR    C402  402   3.120   0.491   1.900  0.0000  0.0000  0.0000
    1GR    C403  403   3.191   0.614   1.900  0.0000  0.0000  0.0000
    1GR    C404  404   3.332   0.614   1.900  0.0000  0.0000  0.0000
    1GR    C405  405   2.978   0.737   1.900  0.0000  0.0000  0.0000
    1GR    C406  406   3.120   0.737   1.900  0.0000  0.0000  0.0000
    1GR    C407  407   3.191   0.860   1.900  0.0000  0.0000  0.0000
    1GR    C408  408   3.332   0.860   1.900  0.0000  0.0000  0.0000
    1GR    C409  409   2.978   0.982   1.900  0.0000  0.0000  0.0000
    1GR    C410  410   3.120   0.982   1.900  0.0000  0.0000  0.0000
    1GR    C411  411   3.191   1.105   1.900  0.0000  0.0000  0.0000
    1GR    C412  412   3.332   1.105   1.900  0.0000  0.0000  0.0000
    1GR    C413  413   2.978   1.228   1.900  0.0000  0.0000  0.0000
    1GR    C414  414   3.120   1.228   1.900  0.0000  0.0000  0.0000
    1GR    C415  415   3.191   1.351   1.900  0.0000  0.0000  0.0000
    1GR    C416  416   3.332   1.351   1.900  0.0000  0.0000  0.0000
    1GR    C417  417   2.978   1.474   1.900  0.0000  0.0000  0.0000
    1GR    C418  418   3.120   1.474   1.900  0.0000  0.0000  0.0000
    1GR    C419  419   3.191   1.596   1.900  0.0000  0.0000  0.0000
    1GR    C420  420   3.332   1.596   1.900  0.0000  0.0000  0.0000
    1GR    C421  421   2.978   1.719   1.900  0.0000  0.0000  0.0000
    1GR    C422  422   3.120   1.719   1.900  0.0000  0.0000  0.0000
    1GR    C423  423   3.191   1.842   1.900  0.0000  0.0000  0.0000
    1GR    C424  424   3.332   1.842   1.900  0.0000  0.0000  0.0000
    1GR    C425  425   2.978   1.965   1.900  0.0000  0.0000  0.0000
    1GR    C426  426   3.120   1.965   1.900  0.0000  0.0000  0.0000
    1GR    C427  427   3.191   2.088   1.900  0.0000  0.0000  0.0000
    1GR    C428  428   3.332   2.088   1.900  0.0000  0.0000  0.0000
    1GR    C429  429   2.978   2.210   1.900  0.0000  0.0000  0.0000
    1GR    C430  430   3.120   2.210   1.900  0.0000  0.0000  0.0000
    1GR    C431  431   3.191   2.333   1.900  0.0000  0.0000  0.0000
    1GR    C432  432   3.332   2.333   1.900  0.0000  0.0000  0.0000
    1GR    C433  433   2.978   2.456   1.900  0.0000  0.0000  0.0000
    1GR    C434  434   3.120   2.456   1.900  0.0000  0.0000  0.0000
    1GR    C435  435   3.191   2.579   1.900  0.0000  0.0000  0.0000
    1GR    C436  436   3.332   2.579   1.900  0.0000  0.0000  0.0000
    1GR    C437  437   2.978   2.702   1.900  0.0000  0.0000  0.0000
    1GR    C438  438   3.120   2.702   1.900  0.0000  0.0000  0.0000
    1GR    C439  439   3.191   2.824   1.900  0.0000  0.0000  0.0000
    1GR    C440  440   3.332   2.824   1.900  0.0000  0.0000  0.0000
    1GR    C441  441   2.978   2.947   1.900  0.0000  0.0000  0.0000
    1GR    C442  442   3.120   2.947   1.900  0.0000  0.0000  0.0000
    1GR    C443  443   3.191   3.070   1.900  0.0000  0.0000  0.0000
    1GR    C444  444   3.332   3.070   1.900  0.0000  0.0000  0.0000
    1GR    C445  445   2.978   3.193   1.900  0.0000  0.0000  0.0000
    1GR    C446  446   3.120   3.193   1.900  0.0000  0.0000  0.0000
    1GR    C447  447   3.191   3.316   1.900  0.0000  0.0000  0.0000
    1GR    C448  448   3.332   3.316   1.900  0.0000  0.0000  0.0000
    2PMMA   CX1  449   1.733   1.339   2.480  0.3085  0.4596 -0.0519
    2PMMA   CA2  450   1.859   1.399   2.409 -0.2569  0.1199  0.0432
    2PMMA   CX3  451   1.863   1.323   2.273 -0.5192 -0.4608  0.2382
    2PMMA    C4  452   1.844   1.560   2.398  0.5651  0.1473 -0.6306
    2PMMA    O5  453   1.790   1.632   2.477  0.4524 -0.3133 -0.1866
    2PMMA   OS6  454   1.877   1.609   2.274  0.2356 -0.8745  0.3111
    2PMMA   CE7  455   1.870   1.749   2.242 -0.1530  0.4055  0.3235
    2PMMA   CX8  456   1.984   1.364   2.497 -0.6083 -0.1072 -0.2013
    2PMMA   CA9  457   2.131   1.418   2.473 -0.0559 -0.2952 -0.4691
    2PMMA  CX10  458   2.162   1.399   2.322 -0.6831  0.5297 -0.2650
    2PMMA   C11  459   2.228   1.328   2.549  0.3033 -0.1735 -0.2856
    2PMMA   O12  460   2.318   1.260   2.506 -0.1246  0.7445  1.2638
    2PMMA  OS13  461   2.189   1.316   2.681 -0.4953  0.5006  1.1393
    2PMMA  CE14  462   2.239   1.209   2.758  0.1283 -0.0995 -0.1641
    2PMMA  CX15  463   2.151   1.573   2.522  0.5030  0.4886  0.7649
    2PMMA  CA16  464   2.288   1.650   2.532  0.2172 -0.2006  0.3557
    2PMMA  CX17  465   2.243   1.803   2.554  0.0064 -0.5154 -0.3809
    2PMMA   C18  466   2.367   1.600   2.658  0.5726 -0.3063 -0.0339
    2PMMA   O19  467   2.347   1.641   2.768 -0.1447 -0.0417 -0.0295
    2PMMA  OS20  468   2.477   1.529   2.627 -0.3671  0.0009 -1.1930
    2PMMA  CE21  469   2.561   1.477   2.731  0.2361 -0.1505  0.4425
    2PMMA  CX22  470   2.369   1.645   2.397 -0.2169 -0.4728 -0.2575
    2PMMA  CA23  471   2.478   1.755   2.358  0.3564  0.6627  0.1233
    2PMMA  CX24  472   2.598   1.739   2.455 -0.4465 -0.0905 -1.0059
    2PMMA   C25  473   2.424   1.896   2.332 -0.0467  0.1862  0.4721
    2PMMA   O26  474   2.345   1.904   2.242 -0.4992  0.5188 -0.0468
    2PMMA  OS27  475   2.489   2.000   2.385 -0.2662 -0.1694 -0.0832
    2PMMA  CE28  476   2.459   2.128   2.328  0.1888 -0.2182  0.4875
    2PMMA  CX29  477   2.537   1.707   2.221  0.2085  0.5638 -0.7918
    2PMMA  HC30  478   1.728   1.395   2.574  1.0752 -0.2873  0.4335
    2PMMA  HC31  479   1.639   1.375   2.435  1.0683  0.9388 -1.2830
    2PMMA  HC32  480   1.736   1.231   2.492 -0.0124  0.6366  1.7111
    2PMMA  HC33  481   1.928   1.362   2.195 -2.1587  0.3271 -0.7674
    2PMMA  HC34  482   1.765   1.323   2.223 -0.3822  0.9823 -0.0603
    2PMMA  HC35  483   1.870   1.216   2.295 -2.3517 -1.0449 -1.8029
    2PMMA  H136  484   1.919   1.779   2.149  1.0318  0.7861  1.0546
    2PMMA  H137  485   1.908   1.808   2.326 -1.4435 -0.4673  1.5431
    2PMMA  H138  486   1.763   1.766   2.233  0.0789  0.9610 -1.6082
    2PMMA  HC39  487   1.960   1.388   2.601  0.5026 -2.3253  0.5744
    2PMMA  HC40  488   1.982   1.255   2.499 -1.2384 -0.0853  0.5899
    2PMMA  HC41  489   2.130   1.302   2.282  1.3992  0.1888 -1.2071
    2PMMA  HC42  490   2.121   1.482   2.264  0.7578 -0.4173 -2.7197
    2PMMA  HC43  491   2.270   1.395   2.301 -0.5807  0.9635  0.1783
    2PMMA  H144  492   2.201   1.219   2.860  1.3235  1.6443  0.1223
    2PMMA  H145  493   2.346   1.204   2.774 -0.1452 -2.4533  1.2420
    2PMMA  H146  494   2.201   1.114   2.720 -1.1115  1.0231 -1.8289
    2PMMA  HC47  495   2.096   1.628   2.445 -1.8372 -1.7305  0.7951
    2PMMA  HC48  496   2.095   1.590   2.614 -2.5000 -0.3014 -0.8428
    2PMMA  HC49  497   2.193   1.840   2.464  0.4664 -1.2066 -0.9211
    2PMMA  HC50  498   2.329   1.865   2.579  0.7025 -1.8766  0.7135
    2PMMA  HC51  499   2.170   1.820   2.635  0.6964 -2.1695  0.6140
    2PMMA  H152  500   2.509   1.402   2.791 -1.3425  0.0231 -0.6693
    2PMMA  H153  501   2.605   1.568   2.773 -0.1326  0.3172 -0.1723
    2PMMA  H154  502   2.645   1.429   2.680 -0.1152  0.9132 -1.1610
    2PMMA  HC55  503   2.419   1.549   2.384  2.3796  0.9029 -0.8704
    2PMMA  HC56  504   2.296   1.652   2.316 -0.4588  1.9096  0.1147
    2PMMA  HC57  505   2.688   1.785   2.411 -1.9391  3.0097 -0.9874
    2PMMA  HC58  506   2.588   1.779   2.557  2.0536 -0.4299 -0.5971
    2PMMA  HC59  507   2.622   1.634   2.473  0.6966  0.3491  0.1519
    2PMMA  H160  508   2.507   2.209   2.383  0.1261  0.6454 -0.7093
    2PMMA  H161  509   2.354   2.153   2.341  0.5499  1.1828  0.8168
    2PMMA  H162  510   2.495   2.140   2.225  1.8632  3.7403  1.4487
    2PMMA  HC63  511   2.588   1.611   2.231  1.9054  1.6381  1.0888
    2PMMA  HC64  512   2.459   1.683   2.148 -1.1887  1.0461  0.5134
    2PMMA  HC65  513   2.609   1.778   2.178  0.0973  1.3014  0.2218
    3HFI     O1  514   1.223   0.270   0.185  0.5544 -0.2605  0.6435
    3HFI     C1  515   1.336   0.208   0.124 -0.1119  0.1180 -0.8359
    3HFI     C2  516   1.422   0.121   0.227 -0.0281  0.1937  0.2553
    3HFI     F1  517   1.478   0.199   0.327 -0.7431 -0.3741 -0.2967
    3HFI     F2  518   1.514   0.039   0.167  0.1734  0.2363  0.2970
    3HFI     F3  519   1.335   0.034   0.291  0.0630 -0.3296  0.0041
    3HFI     C3  520   1.422   0.311   0.055 -0.1255 -0.4788  0.2952
    3HFI     F4  521   1.446   0.417   0.134 -0.0811 -0.4287  0.2141
    3HFI     F5  522   1.363   0.353  -0.059 -0.5381 -0.2226  0.0504
    3HFI     F6  523   1.539   0.253   0.013 -1.1130 -0.6498 -0.0583
    3HFI     H1  524   1.223   0.252   0.281  2.3049  2.8697  1.3015
    3HFI     H2  525   1.291   0.137   0.054 -0.1173  0.1326 -0.8473
    4HFI     O1  526   0.637   2.008   0.804 -0.1060 -0.2363 -1.1701
    4HFI     C1  527   0.597   1.985   0.668 -0.2772  0.2342 -0.8340
    4HFI     C2  528   0.728   1.967   0.580  0.1778  0.2775  0.3089
    4HFI     F1  529   0.817   1.895   0.649  0.2779 -0.2083  0.0280
    4HFI     F2  530   0.786   2.086   0.552 -0.5310  0.0159 -0.5354
    4HFI     F3  531   0.698   1.913   0.462 -0.0147  0.7766 -0.0673
    4HFI     C3  532   0.498   2.095   0.628 -0.0874 -0.5806  0.2284
    4HFI     F4  533   0.463   2.082   0.499  0.1657 -0.4136 -0.0581
    4HFI     F5  534   0.546   2.217   0.642 -0.0151 -0.3419 -0.2250
    4HFI     F6  535   0.387   2.087   0.702  0.3835 -0.3796  0.1235
    4HFI     H1  536   0.731   1.984   0.817  0.2074  1.8416  0.7260
    4HFI     H2  537   0.537   1.893   0.667 -0.7057  0.5132 -0.6751
    5HFI     O1  538   2.584   1.598   0.728  0.3141 -0.7645 -0.2137
    5HFI     C1  539   2.650   1.558   0.602  0.8762 -0.4107 -0.2379
    5HFI     C2  540   2.717   1.672   0.521  0.4386  0.9351  0.0031
    5HFI     F1  541   2.810   1.735   0.596  0.1469  0.2146  0.2462
    5HFI     F2  542   2.631   1.765   0.482  0.3641 -0.3833  0.2103
    5HFI     F3  543   2.771   1.617   0.412 -0.0154 -0.2802 -0.0607
    5HFI     C3  544   2.552   1.470   0.508 -0.2419  0.7217 -0.5486
    5HFI     F4  545   2.452   1.540   0.462 -0.4578 -0.2669  0.3777
    5HFI     F5  546   2.496   1.383   0.595  0.3798 -0.1759  0.0350
    5HFI     F6  547   2.622   1.406   0.409 -0.4393 -0.0205 -0.2375
    5HFI     H1  548   2.507   1.540   0.740  0.2415 -0.2368  2.0459
    5HFI     H2  549   2.729   1.487   0.629  2.0573  0.9657 -0.0551
    6HFI     O1  550   3.397   2.221   3.768  0.7019 -0.4367  0.2431
    6HFI     C1  551   3.525   2.158   3.811 -0.6215 -0.0525  0.8467
    6HFI     C2  552   3.588   2.074   3.693 -0.3833  0.0906  0.2902
    6HFI     F1  553   3.630   2.149   3.597 -0.3676  0.0547 -0.2777
    6HFI     F2  554   3.496   2.004   3.630  0.1242 -0.0709  0.6342
    6HFI     F3  555   3.691   1.992   3.736 -0.1110  0.4933 -0.3407
    6HFI     C3  556   3.509   2.069   3.941 -0.3270 -0.9408  0.6150
    6HFI     F4  557   3.629   2.031   3.988  0.2726 -0.3489 -0.3401
    6HFI     F5  558   3.438   1.958   3.919  0.9083  0.0220 -0.0151
    6HFI     F6  559   3.448   2.138   4.035  0.4991  0.1934 -0.0797
    6HFI     H1  560   3.377   2.300   3.821 -0.5957 -1.2044  0.9004
    6HFI     H2  561   3.605   2.232   3.824 -0.4125 -0.2178  0.5112
    7HFI     O1  562   1.659   3.258   3.790  0.2139  0.0092  0.3940
    7HFI     C1  563   1.568   3.210   3.687 -0.5011  0.3222  0.0960
    7HFI     C2  564   1.452   3.316   3.673  0.2497  0.4044 -0.0018
    7HFI     F1  565   1.500   3.437   3.648  0.3587 -0.1372 -0.0202
    7HFI     F2  566   1.380   3.329   3.792  0.5822  0.0120 -0.3595
    7HFI     F3  567   1.366   3.285   3.571 -0.2466  0.3620  0.2815
    7HFI     C3  568   1.526   3.067   3.718 -0.1775 -0.5071 -0.0033
    7HFI     F4  569   1.445   3.019   3.618  0.5240 -0.5818 -0.1143
    7HFI     F5  570   1.460   3.063   3.833 -0.0056  0.0617  0.1796
    7HFI     F6  571   1.632   2.980   3.724 -0.9784  0.0248  0.2179
    7HFI     H1  572   1.609   3.236   3.870  0.9725 -0.1101  0.8363
    7HFI     H2  573   1.611   3.214   3.586 -3.2413 -2.4447 -1.2698
    8HFI     O1  574   0.633   2.381   1.137 -0.1771  0.7064 -0.7226
    8HFI     C1  575   0.559   2.408   1.015  0.1107 -0.0534 -0.2818
    8HFI     C2  576   0.592   2.535   0.940  1.2541 -0.0095  0.0351
    8HFI     F1  577   0.532   2.646   0.991  0.8608 -0.2967 -0.0175
    8HFI     F2  578   0.553   2.531   0.812 -0.3328  0.4504  0.1033
    8HFI     F3  579   0.728   2.555   0.937  0.0674  0.2324 -0.0433
    8HFI     C3  580   0.406   2.386   1.027  0.5965  0.3666 -0.1358
    8HFI     F4  581   0.378   2.268   1.095  0.4308  0.3377  0.9406
    8HFI     F5  582   0.357   2.375   0.899  0.0034 -0.1871  0.2418
    8HFI     F6  583   0.342   2.486   1.093  0.2902 -0.6302  0.4491
    8HFI     H1  584   0.582   2.313   1.185  2.0572  0.5451  1.5049
    8HFI     H2  585   0.583   2.330   0.942  0.5105 -0.5326  0.3568
    9HFI     O1  586   2.634   2.321   1.399 -0.1011  0.0174  0.2490
    9HFI     C1  587   2.702   2.243   1.503  0.0235  0.2683 -0.4859
    9HFI     C2  588   2.854   2.240   1.494 -0.4654  0.2610 -0.7188
    9HFI     F1  589   2.915   2.172   1.591 -0.1851  0.4175 -0.4781
    9HFI     F2  590   2.898   2.365   1.501 -1.1070 -0.1535  0.1586
    9HFI     F3  591   2.895   2.186   1.371 -0.2264  0.3170 -0.3946
    9HFI     C3  592   2.630   2.105   1.510  0.3531 -0.3829 -0.5648
    9HFI     F4  593   2.593   2.066   1.388 -0.1764 -0.4121  0.3157
    9HFI     F5  594   2.520   2.110   1.585  0.2772  0.2786  0.2162
    9HFI     F6  595   2.698   2.010   1.561  0.2060 -0.0858  0.6134
    9HFI     H1  596   2.659   2.286   1.311  4.6467 -1.8427  2.1831
    9HFI     H2  597   2.682   2.277   1.605  0.3386 -1.2164  0.0823
   10HFI     O1  598   0.918   3.181   3.653  0.3055  0.0643 -0.3378
   10HFI     C1  599   0.994   3.229   3.763  0.5650 -0.4022  0.4104
   10HFI     C2  600   1.060   3.120   3.846 -0.1234  0.1756 -0.4014
   10HFI     F1  601   1.141   3.043   3.775  0.2483  0.4568 -0.3534
   10HFI     F2  602   0.972   3.038   3.898 -0.0275  0.1807  0.1367
   10HFI     F3  603   1.139   3.176   3.946 -0.1185 -0.0568 -0.7782
   10HFI     C3  604   0.918   3.328   3.851 -0.3369 -0.5121 -0.5783
   10HFI     F4  605   0.841   3.253   3.935  0.0612  0.1204 -0.1632
   10HFI     F5  606   0.830   3.404   3.777 -0.0054  0.1065  0.3281
   10HFI     F6  607   0.994   3.412   3.923 -0.7023 -0.2008  0.1927
   10HFI     H1  608   0.930   3.087   3.631  0.4031 -0.0031  0.0063
   10HFI     H2  609   1.073   3.287   3.713  0.3374 -0.6250 -0.2141
   11HFI     O1  610   2.868   1.168   0.587 -0.2142  0.4476 -0.7748
   11HFI     C1  611   3.006   1.209   0.548  0.4062 -0.2227 -0.4895
   11HFI     C2  612   3.113   1.095   0.583 -0.2664  0.0480 -0.4563
   11HFI     F1  613   3.098   0.987   0.503  0.4530 -0.1673 -0.6749
   11HFI     F2  614   3.100   1.056   0.714 -0.4566  0.0717 -0.1341
   11HFI     F3  615   3.241   1.141   0.559  0.0536  0.4620  0.1997
   11HFI     C3  616   3.039   1.352   0.603 -0.2597 -0.1181  0.0994
   11HFI     F4  617   3.062   1.359   0.736  0.1065  0.3425 -0.7030
   11HFI     F5  618   2.941   1.437   0.570 -0.5763 -0.2377 -0.5857
   11HFI     F6  619   3.155   1.404   0.547 -0.1738  0.0773  0.0706
   11HFI     H1  620   2.874   1.111   0.665 -0.1995 -0.8996 -1.7397
   11HFI     H2  621   3.001   1.224   0.439 -0.3718 -0.1028 -0.4434
   12HFI     O1  622   2.056   3.382   0.690  0.2878 -0.3315  0.3709
   12HFI     C1  623   2.144   3.346   0.795  0.4995  0.7450 -0.2947
   12HFI     C2  624   2.259   3.450   0.831 -1.1908 -0.6429 -0.1719
   12HFI     F1  625   2.380   3.441   0.761  0.3751  0.0166  0.2903
   12HFI     F2  626   2.292   3.441   0.962 -0.0162 -0.5556 -0.1277
   12HFI     F3  627   2.219   3.580   0.816  0.0651  0.0884  0.1526
   12HFI     C3  628   2.198   3.202   0.769 -0.2754 -0.1048 -0.5527
   12HFI     F4  629   2.257   3.199   0.646  0.2894 -0.5528 -0.0861
   12HFI     F5  630   2.103   3.103   0.774  0.0640 -0.3026 -0.1749
   12HFI     F6  631   2.298   3.171   0.861 -0.6613 -0.1789  0.0843
   12HFI     H1  632   2.088   3.347   0.605 -0.0880 -2.9350  1.2607
   12HFI     H2  633   2.084   3.329   0.885 -0.3028  0.4111 -0.8889
   13HFI     O1  634   2.345   1.531   0.850  0.2841 -0.6020  0.0917
   13HFI     C1  635   2.335   1.608   0.975  0.0996  0.0064 -0.2637
   13HFI     C2  636   2.349   1.500   1.094 -0.8095 -0.3810 -1.3648
   13HFI     F1  637   2.474   1.438   1.094  0.2864  0.0264  0.0794
   13HFI     F2  638   2.255   1.403   1.081 -0.1536  0.4756 -0.2084
   13HFI     F3  639   2.333   1.557   1.217  0.9685 -0.2101 -0.3020
   13HFI     C3  640   2.201   1.691   0.990  0.4968  0.5494 -0.5886
   13HFI     F4  641   2.092   1.620   1.018  0.3208 -0.1273  0.5153
   13HFI     F5  642   2.184   1.759   0.875 -0.2295  0.0718 -0.1272
   13HFI     F6  643   2.204   1.785   1.089  0.5787  0.1545  0.1403
   13HFI     H1  644   2.257   1.506   0.819  0.3875 -1.9263  0.8351
   13HFI     H2  645   2.411   1.687   0.979  1.1793 -1.0002 -0.4054
   14HFI     O1  646   0.015   1.520   3.661 -0.3902  0.1400 -0.0659
   14HFI     C1  647  -0.069   1.448   3.750 -0.2512  0.5599 -0.4271
   14HFI     C2  648   0.006   1.354   3.847 -0.6780  0.4371  0.0711
   14HFI     F1  649   0.088   1.426   3.924 -0.0307  0.2011 -0.4499
   14HFI     F2  650   0.075   1.259   3.781  0.2614  0.2365  0.0342
   14HFI     F3  651  -0.073   1.288   3.934  0.0952 -0.0145  0.1272
   14HFI     C3  652  -0.170   1.368   3.669  0.3508 -0.2296  0.1286
   14HFI     F4  653  -0.112   1.297   3.573  0.1957  0.1521 -0.1608
   14HFI     F5  654  -0.250   1.450   3.612  0.1170 -0.2038  0.2331
   14HFI     F6  655  -0.244   1.284   3.745 -0.2119  0.3339  0.0635
   14HFI     H1  656   0.065   1.452   3.612 -3.2231 -2.1716  0.1393
   14HFI     H2  657  -0.138   1.517   3.800 -0.9711  1.4754 -2.6078
   15HFI     O1  658   0.100   1.357   1.327  0.2014 -0.5724  0.3942
   15HFI     C1  659   0.193   1.436   1.403  1.1035 -0.2914  0.2402
   15HFI     C2  660   0.332   1.441   1.332  0.4890  0.1589  0.0705
   15HFI     F1  661   0.311   1.469   1.203  0.0282 -0.0112 -0.4860
   15HFI     F2  662   0.394   1.317   1.332 -0.2612 -0.0913  0.3403
   15HFI     F3  663   0.424   1.528   1.379 -0.8128  0.1348  0.2776
   15HFI     C3  664   0.203   1.391   1.551  0.5596 -0.7113  0.3645
   15HFI     F4  665   0.210   1.258   1.563 -0.1446  0.5029  0.5666
   15HFI     F5  666   0.085   1.432   1.610 -0.3216 -0.3470 -0.0858
   15HFI     F6  667   0.306   1.444   1.621 -0.3231 -0.0717 -0.1404
   15HFI     H1  668   0.104   1.267   1.364  0.3304 -0.6931  0.0916
   15HFI     H2  669   0.162   1.541   1.399  1.3310 -0.2570 -0.8646
   16HFI     O1  670   1.500   1.098   0.970 -0.4273 -0.3512 -0.3751
   16HFI     C1  671   1.532   0.961   0.946 -0.6915  0.2089 -0.0813
   16HFI     C2  672   1.409   0.897   0.877 -0.1893 -0.0613 -0.4626
   16HFI     F1  673   1.307   0.850   0.961 -0.2357  0.1475 -0.6554
   16HFI     F2  674   1.450   0.792   0.803  0.0349 -0.6103 -0.0936
   16HFI     F3  675   1.359   0.982   0.786 -0.3103 -0.2567 -0.0640
   16HFI     C3  676   1.595   0.892   1.077  0.0845  0.3491 -0.5424
   16HFI     F4  677   1.701   0.969   1.115 -0.1652  0.5012  0.0984
   16HFI     F5  678   1.634   0.768   1.049  0.2652 -0.1045 -0.1404
   16HFI     F6  679   1.515   0.888   1.184 -0.2983  0.2127  0.0083
   16HFI     H1  680   1.439   1.118   0.897  0.0707  1.1816 -0.3973
   16HFI     H2  681   1.614   0.953   0.874 -3.1376  1.6305 -3.1345
   17HFI     O1  682   3.323   0.129   1.493 -0.3483  0.3713 -0.9390
   17HFI     C1  683   3.454   0.113   1.426 -0.0895  0.5132 -0.0758
   17HFI     C2  684   3.511  -0.027   1.452  0.1182 -0.0378 -0.0320
   17HFI     F1  685   3.521  -0.056   1.583  0.7976  0.4475  0.1350
   17HFI     F2  686   3.641  -0.035   1.399  0.1595  0.6844 -0.1122
   17HFI     F3  687   3.441  -0.123   1.389  0.0787 -0.2218  0.4351
   17HFI     C3  688   3.547   0.239   1.437  0.1233 -0.0289  0.0874
   17HFI     F4  689   3.561   0.287   1.568  0.0098 -0.3430 -0.4834
   17HFI     F5  690   3.481   0.339   1.372 -0.5512  0.1844 -0.1393
   17HFI     F6  691   3.675   0.218   1.379  0.6970  0.4599 -0.4442
   17HFI     H1  692   3.352   0.095   1.579  2.0974  0.7422 -1.5668
   17HFI     H2  693   3.424   0.110   1.320 -0.4146 -0.8941  0.0538
   18HFI     O1  694   2.285   0.883   0.551  0.5130 -0.0076 -0.1463
   18HFI     C1  695   2.405   0.914   0.483 -0.2692 -0.0028 -0.3318
   18HFI     C2  696   2.527   0.926   0.587  0.2007  0.2909  0.6568
   18HFI     F1  697   2.542   0.805   0.642 -0.0436  0.1252 -0.5980
   18HFI     F2  698   2.509   1.017   0.684  0.0249  0.3660 -0.3585
   18HFI     F3  699   2.651   0.957   0.539  0.4674 -0.2784 -0.6356
   18HFI     C3  700   2.388   1.050   0.400 -0.0320  0.7183 -0.1772
   18HFI     F4  701   2.372   1.152   0.475  0.0636  0.2435 -0.1966
   18HFI     F5  702   2.279   1.035   0.324  0.2814  0.3621 -0.4110
   18HFI     F6  703   2.486   1.068   0.311 -0.5719 -0.3845 -0.1311
   18HFI     H1  704   2.207   0.918   0.506 -0.2085 -0.8746  0.4071
   18HFI     H2  705   2.434   0.834   0.414  0.4736  0.8733 -1.0655
   19HFI     O1  706   3.366   2.826   1.168  0.2113  0.2366 -0.0210
   19HFI     C1  707   3.413   2.844   1.027 -0.0447  0.6454 -0.2802
   19HFI     C2  708   3.390   2.712   0.955  0.2859 -0.8852  0.1788
   19HFI     F1  709   3.258   2.680   0.957  0.1323  0.3958 -0.8129
   19HFI     F2  710   3.467   2.616   1.013 -0.0064 -0.6538 -0.4593
   19HFI     F3  711   3.432   2.716   0.823 -0.0662 -0.0981  0.4056
   19HFI     C3  712   3.561   2.898   1.018  0.6859  0.4968 -0.2995
   19HFI     F4  713   3.559   3.017   1.073  0.5429 -0.0455  0.0718
   19HFI     F5  714   3.607   2.909   0.887 -0.0901  0.1223 -0.1636
   19HFI     F6  715   3.646   2.816   1.091  0.2673  0.0965 -0.0964
   19HFI     H1  716   3.435   2.795   1.229 -1.2114  3.5956  3.5770
   19HFI     H2  717   3.356   2.917   0.969  0.0431  0.3284 -0.7672
   20HFI     O1  718   2.041   1.782   1.294  0.5349  0.4074  0.1645
   20HFI     C1  719   2.056   1.874   1.402 -0.0559 -0.1446  0.3309
   20HFI     C2  720   2.202   1.866   1.459 -0.3734 -0.0212 -0.3193
   20HFI     F1  721   2.286   1.853   1.360 -0.2196 -0.0413 -0.4237
   20HFI     F2  722   2.218   1.759   1.532  0.1470 -0.2863  0.4352
   20HFI     F3  723   2.237   1.976   1.533  0.1753 -0.2609  0.4390
   20HFI     C3  724   1.942   1.864   1.511 -0.0547 -0.1861  0.4606
   20HFI     F4  725   1.838   1.931   1.454  0.2141 -0.4906 -0.0570
   20HFI     F5  726   1.979   1.941   1.625 -0.5333 -0.5437 -0.4169
   20HFI     F6  727   1.903   1.738   1.552 -0.1844 -0.4547  0.5031
   20HFI     H1  728   2.111   1.792   1.227  2.0744 -0.8777  1.5483
   20HFI     H2  729   2.048   1.976   1.363  0.1544  0.5695  2.1387
   21HFI     O1  730   2.018   2.961   0.156  0.0079 -0.3136 -0.1144
   21HFI     C1  731   2.010   2.962   0.016  0.1047  0.5203 -0.1552
   21HFI     C2  732   2.004   2.820  -0.034 -0.1246 -0.1191  0.2460
   21HFI     F1  733   1.914   2.748   0.035 -0.0061 -0.0036 -0.1758
   21HFI     F2  734   2.122   2.755  -0.006  0.2583  0.2284  0.4397
   21HFI     F3  735   1.973   2.802  -0.164 -0.1474 -1.0080 -0.0069
   21HFI     C3  736   2.126   3.036  -0.051 -0.1465  0.3826 -0.1963
   21HFI     F4  737   2.248   3.000  -0.007 -0.0637  0.0500 -0.2201
   21HFI     F5  738   2.118   3.171  -0.032 -0.4269  0.3678 -0.1817
   21HFI     F6  739   2.132   3.016  -0.182 -0.0033 -0.2000  0.0185
   21HFI     H1  740   2.103   2.918   0.171 -0.1444 -0.7493 -0.4799
   21HFI     H2  741   1.918   3.013  -0.013  1.3701  1.5376 -2.5124
   22HFI     O1  742   1.724   2.527   3.581  0.3612 -0.0081 -0.1256
   22HFI     C1  743   1.590   2.577   3.550 -0.6583  0.2938 -0.2844
   22HFI     C2  744   1.593   2.687   3.447  0.3616 -0.8843 -0.4768
   22HFI     F1  745   1.473   2.730   3.410 -0.4571  0.9828 -0.2950
   22HFI     F2  746   1.658   2.654   3.336 -0.3507 -0.3400 -0.2418
   22HFI     F3  747   1.667   2.798   3.499  0.1780  0.0177 -0.0564
   22HFI     C3  748   1.506   2.607   3.679  0.6163  0.0386  0.7690
   22HFI     F4  749   1.511   2.503   3.762  0.0661  0.2412 -0.6723
   22HFI     F5  750   1.374   2.618   3.650  0.0836 -0.6013  0.1678
   22HFI     F6  751   1.533   2.719   3.749 -0.3371  0.3912 -0.0797
   22HFI     H1  752   1.785   2.603   3.576  0.3820  0.1102  1.5957
   22HFI     H2  753   1.534   2.490   3.513  0.3894 -0.8753  0.8157
   23HFI     O1  754   0.646   0.765   1.085 -0.1338 -0.3493 -0.2329
   23HFI     C1  755   0.658   0.633   1.128  0.0141 -0.1220  0.0100
   23HFI     C2  756   0.798   0.567   1.072 -0.2587  0.1390 -0.0068
   23HFI     F1  757   0.892   0.657   1.076  0.0649 -0.1030  0.1946
   23HFI     F2  758   0.793   0.519   0.948  0.6886 -0.1376  0.0789
   23HFI     F3  759   0.834   0.468   1.164  0.5641 -0.2692 -0.3714
   23HFI     C3  760   0.534   0.540   1.103 -0.2143  0.3119  0.1973
   23HFI     F4  761   0.476   0.546   0.985  0.3364  0.4867 -0.0408
   23HFI     F5  762   0.438   0.566   1.197  0.3540  0.3203  0.1097
   23HFI     F6  763   0.573   0.414   1.120  0.2113  0.1967  0.2720
   23HFI     H1  764   0.655   0.781   0.989  1.8197  0.7892  0.1167
   23HFI     H2  765   0.671   0.634   1.237 -0.2026  1.5150  0.0238
   24HFI     O1  766   0.867   2.928   1.321  0.5600 -0.1788  0.3217
   24HFI     C1  767   0.841   2.796   1.377  0.1966 -0.3292  0.2860
   24HFI     C2  768   0.919   2.770   1.513 -0.4936 -0.1975  0.6288
   24HFI     F1  769   0.886   2.876   1.596 -0.3529  0.0024 -0.2736
   24HFI     F2  770   1.049   2.755   1.504 -0.4584  0.5158  0.2835
   24HFI     F3  771   0.876   2.661   1.579 -0.0828  0.2704  0.5351
   24HFI     C3  772   0.860   2.676   1.277  0.2505  0.3292  0.1927
   24HFI     F4  773   0.990   2.660   1.263  0.3388  0.1713 -0.2904
   24HFI     F5  774   0.806   2.708   1.153 -0.3297  0.3087 -0.1764
   24HFI     F6  775   0.805   2.561   1.324  0.0815  0.6396  0.2581
   24HFI     H1  776   0.963   2.942   1.310  0.2268  0.7823 -1.5376
   24HFI     H2  777   0.734   2.790   1.401 -0.6848  0.4434 -3.2461
   25HFI     O1  778   3.185   0.795   0.802 -0.7402 -0.0669 -0.0080
   25HFI     C1  779   3.197   0.673   0.871 -0.7639 -0.6426 -0.0173
   25HFI     C2  780   3.089   0.665   0.989 -0.1725  0.7112  0.4668
   25HFI     F1  781   3.111   0.750   1.094  0.5175  0.0322 -0.2587
   25HFI     F2  782   3.090   0.534   1.030  0.3845 -0.1899 -0.3416
   25HFI     F3  783   2.961   0.692   0.935  0.0016 -0.0923  0.6402
   25HFI     C3  784   3.353   0.655   0.923 -0.0727  0.1920  0.0513
   25HFI     F4  785   3.371   0.553   1.003 -0.3436  0.4192  0.0141
   25HFI     F5  786   3.370   0.766   0.989 -0.2895 -0.3125  0.2442
   25HFI     F6  787   3.443   0.652   0.824 -0.3690  0.6931 -0.1587
   25HFI     H1  788   3.231   0.867   0.850 -2.5498  0.1825  1.4269
   25HFI     H2  789   3.173   0.589   0.805 -1.9655  0.4535 -0.9919
   26HFI     O1  790   0.502   0.003   0.210  0.0993 -0.2090  0.1296
   26HFI     C1  791   0.454  -0.121   0.280 -1.1776 -0.6138 -0.7098
   26HFI     C2  792   0.529  -0.149   0.412  0.1777 -0.4941  0.7287
   26HFI     F1  793   0.556  -0.027   0.468 -0.3178 -0.0539 -0.1108
   26HFI     F2  794   0.637  -0.218   0.379  0.3087 -0.7293 -0.4760
   26HFI     F3  795   0.453  -0.223   0.497 -0.0704 -0.0532  0.5319
   26HFI     C3  796   0.439  -0.241   0.183  0.0095  0.3760  0.2615
   26HFI     F4  797   0.561  -0.259   0.128 -0.3291  1.2250  0.2248
   26HFI     F5  798   0.363  -0.207   0.075  0.3130  0.2340 -0.2373
   26HFI     F6  799   0.388  -0.356   0.240 -0.5724 -0.5435 -0.7844
   26HFI     H1  800   0.444   0.024   0.135  2.2911 -1.1118 -1.8571
   26HFI     H2  801   0.347  -0.107   0.297 -1.0150 -1.5570  1.2377
   27HFI     O1  802   0.167   3.218   0.464 -0.0289  0.4748  0.0819
   27HFI     C1  803   0.025   3.172   0.464  0.1945 -0.0103  0.4698
   27HFI     C2  804  -0.024   3.159   0.612  0.8288  0.1873 -0.2013
   27HFI     F1  805   0.012   3.262   0.694  0.0944  0.8715  0.0347
   27HFI     F2  806   0.026   3.046   0.665  0.0820 -0.5330  0.5268
   27HFI     F3  807  -0.160   3.156   0.613  0.5752  0.0845  0.1034
   27HFI     C3  808  -0.003   3.049   0.377 -0.2144 -0.1677  0.1143
   27HFI     F4  809   0.075   2.944   0.401 -0.4489 -0.7323  0.9200
   27HFI     F5  810   0.009   3.081   0.249  0.0409 -0.1485 -0.2921
   27HFI     F6  811  -0.131   3.001   0.386  0.0968  0.5083  0.0448
   27HFI     H1  812   0.224   3.142   0.480 -1.4663 -0.6319  0.0504
   27HFI     H2  813  -0.035   3.253   0.422  2.9467  1.4108 -0.8957
   28HFI     O1  814   1.918   3.292   0.135 -0.0211 -0.1728  0.1861
   28HFI     C1  815   1.994   3.421   0.111  0.4127  0.1221  0.2461
   28HFI     C2  816   2.040   3.475   0.248  0.6784 -0.0204 -0.8063
   28HFI     F1  817   2.132   3.572   0.236 -0.0192 -0.5835 -0.0267
   28HFI     F2  818   2.104   3.381   0.319 -0.1527 -0.0668 -0.2154
   28HFI     F3  819   1.942   3.520   0.325 -0.0859  0.2107 -0.0344
   28HFI     C3  820   1.919   3.522   0.018  0.3270 -0.3505 -0.0989
   28HFI     F4  821   1.804   3.561   0.086 -0.4169 -0.2859 -0.2729
   28HFI     F5  822   1.885   3.465  -0.102  0.1408  0.3108 -0.7142
   28HFI     F6  823   1.983   3.641  -0.001 -0.2465  0.4024 -0.3068
   28HFI     H1  824   1.875   3.289   0.223  0.1153 -1.1043  0.2203
   28HFI     H2  825   2.090   3.403   0.061  0.5525 -1.5070  1.0700
   29HFI     O1  826   3.173   2.275   1.341 -0.1549 -0.7324  0.1870
   29HFI     C1  827   3.311   2.290   1.391  0.3256  0.0589  0.3444
   29HFI     C2  828   3.318   2.299   1.546  0.0260  0.0290  0.0111
   29HFI     F1  829   3.253   2.194   1.609 -0.0254 -0.0311  0.7969
   29HFI     F2  830   3.255   2.410   1.595  0.1588 -0.3278  0.1966
   29HFI     F3  831   3.446   2.305   1.593  0.0176 -0.0977  0.0528
   29HFI     C3  832   3.399   2.386   1.313 -0.8767 -0.1562 -0.1501
   29HFI     F4  833   3.369   2.514   1.336 -0.2982  0.2173  0.3299
   29HFI     F5  834   3.401   2.369   1.180  0.0145  0.4178  0.6351
   29HFI     F6  835   3.534   2.376   1.349 -0.0212  0.6108 -0.3096
   29HFI     H1  836   3.119   2.348   1.378  0.4066  0.5795 -1.4879
   29HFI     H2  837   3.360   2.194   1.373  1.0554  0.7176 -1.2089
   30HFI     O1  838   0.342   1.517   3.635  0.0950 -0.2774 -0.3551
   30HFI     C1  839   0.434   1.589   3.725  0.0911  0.2160 -0.3462
   30HFI     C2  840   0.567   1.621   3.661 -0.3392  0.1426  0.7115
   30HFI     F1  841   0.541   1.672   3.533 -0.2069  0.1133  0.5463
   30HFI     F2  842   0.650   1.519   3.651 -0.1502 -0.1615 -0.1814
   30HFI     F3  843   0.637   1.718   3.716  0.0104 -0.2203 -0.0085
   30HFI     C3  844   0.449   1.532   3.868 -0.2185 -0.2242 -0.7547
   30HFI     F4  845   0.491   1.403   3.870  0.8878 -0.5669 -0.2291
   30HFI     F5  846   0.329   1.532   3.920 -0.3315 -0.1793  0.4884
   30HFI     F6  847   0.531   1.606   3.948 -0.3396  0.0773 -0.2624
   30HFI     H1  848   0.376   1.507   3.544  2.4534  2.6885  0.1074
   30HFI     H2  849   0.392   1.687   3.753  1.8383  0.4654  1.4429
   31HFI     O1  850   0.163   2.178   0.541 -0.2749  0.3817 -0.1966
   31HFI     C1  851   0.180   2.310   0.596  0.0567 -0.2567 -0.2623
   31HFI     C2  852   0.064   2.349   0.689  0.0656 -0.7715 -0.3165
   31HFI     F1  853   0.046   2.260   0.786  0.1973 -0.2332 -0.3781
   31HFI     F2  854  -0.059   2.374   0.625 -0.4923  0.6486  0.0000
   31HFI     F3  855   0.097   2.459   0.760 -0.2118 -0.0312 -0.3356
   31HFI     C3  856   0.200   2.413   0.479  0.0575 -0.2015 -0.4107
   31HFI     F4  857   0.099   2.421   0.388  0.3792 -0.1867 -0.8788
   31HFI     F5  858   0.308   2.374   0.412  0.0819  0.3802  0.3592
   31HFI     F6  859   0.225   2.539   0.519  0.1149  0.0086 -0.2573
   31HFI     H1  860   0.076   2.143   0.568 -0.6748 -0.7372 -2.7996
   31HFI     H2  861   0.271   2.318   0.657 -0.0537 -1.1333  0.0322
   32HFI     O1  862   1.563   1.438   1.258  0.0244 -0.2816 -0.2874
   32HFI     C1  863   1.661   1.407   1.360  0.1237 -0.1617  0.3182
   32HFI     C2  864   1.618   1.458   1.502 -0.6681  0.0603 -0.1200
   32HFI     F1  865   1.704   1.419   1.604 -0.4226  0.3144  0.4360
   32HFI     F2  866   1.491   1.410   1.527 -0.5255 -0.2551 -0.3668
   32HFI     F3  867   1.619   1.591   1.507  0.6799  0.0897 -0.4848
   32HFI     C3  868   1.800   1.457   1.319  0.3503 -0.2873  0.0854
   32HFI     F4  869   1.797   1.590   1.293 -0.3623  0.2737  0.0160
   32HFI     F5  870   1.838   1.395   1.206 -0.2536 -0.3149 -0.6798
   32HFI     F6  871   1.898   1.437   1.415  0.4246 -0.2135  0.1202
   32HFI     H1  872   1.483   1.404   1.301 -0.6276 -1.6419 -2.4769
   32HFI     H2  873   1.675   1.299   1.373 -2.5525 -0.1731  3.9521
   33HFI     O1  874   2.830   2.780   0.633  0.7571 -0.2582 -0.0294
   33HFI     C1  875   2.860   2.715   0.514  0.0116 -0.6681  0.2585
   33HFI     C2  876   2.851   2.566   0.527 -0.4548 -0.0755  0.0375
   33HFI     F1  877   2.758   2.532   0.624 -0.8082 -0.5473  0.9940
   33HFI     F2  878   2.970   2.513   0.562  0.0012  0.5265 -0.6533
   33HFI     F3  879   2.829   2.499   0.415 -0.1679  0.2544  1.2505
   33HFI     C3  880   2.995   2.765   0.459  0.1385  0.6853 -0.1633
   33HFI     F4  881   3.095   2.761   0.552  0.7494  0.0874  0.0038
   33HFI     F5  882   2.981   2.886   0.405 -0.1256  0.1684  0.1130
   33HFI     F6  883   3.030   2.679   0.354 -0.1487  0.1809 -0.0759
   33HFI     H1  884   2.842   2.715   0.704 -1.5540 -1.7224 -0.9271
   33HFI     H2  885   2.778   2.747   0.449 -0.3449 -1.9850  0.0461
   34HFI     O1  886   1.433   2.879   0.868  0.5784  0.6988 -0.0027
   34HFI     C1  887   1.344   2.826   0.965 -0.7298  0.1036  0.1734
   34HFI     C2  888   1.203   2.850   0.920  0.2980  0.2606  0.6055
   34HFI     F1  889   1.115   2.755   0.952  0.1094  0.5443 -0.2465
   34HFI     F2  890   1.190   2.850   0.782 -0.0742 -0.2205 -0.4621
   34HFI     F3  891   1.154   2.973   0.960  1.0761  0.9482 -0.0805
   34HFI     C3  892   1.381   2.849   1.118  0.1423 -1.1832  0.2253
   34HFI     F4  893   1.274   2.824   1.191 -0.6608  0.1369 -0.1332
   34HFI     F5  894   1.423   2.978   1.140  0.6330  0.1247 -0.4746
   34HFI     F6  895   1.476   2.761   1.158  0.1581  0.1800 -0.0426
   34HFI     H1  896   1.433   2.976   0.870 -0.9611  0.7135 -0.3035
   34HFI     H2  897   1.360   2.719   0.947 -0.3930  0.2083 -0.1604
   35HFI     O1  898   1.746   0.316   0.439  0.0280 -0.2836  0.5880
   35HFI     C1  899   1.748   0.303   0.585 -0.4750  0.0658  0.4897
   35HFI     C2  900   1.709   0.154   0.623  0.1917 -0.9477  0.1318
   35HFI     F1  901   1.792   0.071   0.556  0.4616  0.5628  0.0637
   35HFI     F2  902   1.585   0.119   0.587  0.4985  0.3630  0.2392
   35HFI     F3  903   1.724   0.143   0.759 -0.1422 -0.7063 -0.3828
   35HFI     C3  904   1.666   0.405   0.673 -0.1012 -0.8053  0.4862
   35HFI     F4  905   1.540   0.360   0.687  0.4338 -0.2197  0.0093
   35HFI     F5  906   1.672   0.524   0.612  0.2478 -0.2808  0.0456
   35HFI     F6  907   1.719   0.422   0.794 -0.8469  0.2879  0.3352
   35HFI     H1  908   1.663   0.275   0.410 -0.4615  0.0462  1.4982
   35HFI     H2  909   1.850   0.316   0.623 -0.8907  0.3032  1.5332
   36HFI     O1  910   0.532   0.132   1.508 -0.7913 -0.5036  0.2506
   36HFI     C1  911   0.667   0.203   1.526 -0.2227 -0.4183 -0.4811
   36HFI     C2  912   0.655   0.353   1.484  0.7215 -0.1596  0.0411
   36HFI     F1  913   0.620   0.431   1.588  0.2884 -0.3227  0.1682
   36HFI     F2  914   0.555   0.362   1.394 -0.0456  0.6350  0.2939
   36HFI     F3  915   0.773   0.398   1.426 -0.5079 -0.2516  0.3682
   36HFI     C3  916   0.778   0.123   1.446  0.1669  0.1442 -0.2678
   36HFI     F4  917   0.903   0.161   1.489  0.0840 -0.1601 -0.2760
   36HFI     F5  918   0.766   0.142   1.311  0.3494  0.7375  0.1514
   36HFI     F6  919   0.769  -0.010   1.471 -0.2214 -0.1602 -0.1597
   36HFI     H1  920   0.484   0.176   1.436 -2.4997 -1.7823  0.5754
   36HFI     H2  921   0.678   0.210   1.635  1.3284 -1.8767 -0.5262
   37HFI     O1  922   1.374   0.835   1.431  0.5770 -0.6116 -0.0340
   37HFI     C1  923   1.388   0.957   1.511  0.5555 -0.2113 -0.3809
   37HFI     C2  924   1.264   1.045   1.504 -0.2512 -0.2032 -0.3581
   37HFI     F1  925   1.151   0.999   1.547  1.1403 -0.0182  0.3143
   37HFI     F2  926   1.249   1.084   1.372  0.1283 -0.2207  0.2980
   37HFI     F3  927   1.292   1.157   1.578  0.9224 -0.2421 -0.2261
   37HFI     C3  928   1.525   1.026   1.489  0.2122 -0.6612  0.1639
   37HFI     F4  929   1.532   1.091   1.369  0.3906 -0.6636 -0.5074
   37HFI     F5  930   1.622   0.934   1.505  0.5387  0.0501  0.3354
   37HFI     F6  931   1.543   1.108   1.591 -0.1303 -0.3587 -0.0756
   37HFI     H1  932   1.430   0.844   1.352 -0.7088 -0.2484 -0.9068
   37HFI     H2  933   1.396   0.920   1.614 -2.6254  0.8678  0.2941
   38HFI     O1  934   0.933   1.722   1.533 -0.5672  0.2493 -0.1285
   38HFI     C1  935   0.886   1.588   1.549 -0.2166  0.2047  0.5597
   38HFI     C2  936   0.984   1.478   1.493 -0.4804  0.5348  0.2207
   38HFI     F1  937   0.944   1.354   1.532 -0.5744 -0.0220 -0.1996
   38HFI     F2  938   1.104   1.498   1.544 -0.1333 -0.1076 -0.3495
   38HFI     F3  939   0.999   1.473   1.359  0.3601  0.3162  0.0980
   38HFI     C3  940   0.736   1.573   1.518  0.3724 -0.5834  0.2575
   38HFI     F4  941   0.673   1.690   1.552  0.6402 -0.0436 -0.0128
   38HFI     F5  942   0.690   1.470   1.585 -0.1136  0.2659  0.0985
   38HFI     F6  943   0.710   1.547   1.390  0.2424  0.0162  0.5013
   38HFI     H1  944   0.865   1.787   1.559  0.2576  0.3828  1.7387
   38HFI     H2  945   0.892   1.552   1.653  1.1823 -2.7080 -0.4849
   39HFI     O1  946   1.468   0.069   1.504  0.0205 -0.1817  0.1723
   39HFI     C1  947   1.606   0.086   1.549 -0.0666 -0.0392 -0.3533
   39HFI     C2  948   1.677   0.217   1.510  0.7091 -0.1790  0.1308
   39HFI     F1  949   1.606   0.332   1.539  0.5939 -0.5450  0.2353
   39HFI     F2  950   1.702   0.225   1.378 -0.3230 -0.2180  0.3627
   39HFI     F3  951   1.802   0.238   1.563  0.2458 -0.0575 -0.6399
   39HFI     C3  952   1.682  -0.041   1.513  0.3609  1.4375  0.0478
   39HFI     F4  953   1.671  -0.067   1.386 -0.2988  0.3926 -0.1731
   39HFI     F5  954   1.630  -0.153   1.576  0.2392 -0.2286 -0.0389
   39HFI     F6  955   1.817  -0.035   1.543 -0.5590 -0.5078  0.3430
   39HFI     H1  956   1.423   0.155   1.510  0.1355  0.0992 -2.5184
   39HFI     H2  957   1.601   0.097   1.658 -1.1342 -1.7729 -0.2091
   40HFI     O1  958   3.189   0.265   0.282  0.0641 -0.5564 -0.0934
   40HFI     C1  959   3.259   0.259   0.413 -0.1904  0.5557 -0.0524
   40HFI     C2  960   3.410   0.235   0.405  0.3396 -0.2276 -0.1365
   40HFI     F1  961   3.472   0.256   0.524 -0.3731 -0.6403  0.4792
   40HFI     F2  962   3.464   0.323   0.312 -0.0802 -0.0053  0.4344
   40HFI     F3  963   3.448   0.111   0.368 -0.0397  0.3534 -0.4215
   40HFI     C3  964   3.190   0.160   0.514  0.5811 -0.1386 -0.1622
   40HFI     F4  965   3.233   0.035   0.508 -0.7103 -0.2683 -0.4169
   40HFI     F5  966   3.060   0.152   0.487  0.0446 -0.0091 -0.1764
   40HFI     F6  967   3.208   0.204   0.636  0.5709  0.2587 -0.0727
   40HFI     H1  968   3.246   0.250   0.205 -1.5446 -1.9848 -1.0286
   40HFI     H2  969   3.253   0.358   0.461 -0.8341 -0.4657  2.0368
   41HFI     O1  970   1.445   1.829   3.727  0.4201 -0.5190 -0.0017
   41HFI     C1  971   1.481   1.965   3.768 -0.7120  0.2773  0.2879
   41HFI     C2  972   1.445   1.980   3.918 -0.4964 -0.1739 -1.1567
   41HFI     F1  973   1.344   1.904   3.948 -0.5532  0.4125  0.7975
   41HFI     F2  974   1.414   2.111   3.946 -0.2154  0.3557  0.2409
   41HFI     F3  975   1.544   1.940   3.996 -0.4815 -0.2098 -0.0821
   41HFI     C3  976   1.418   2.066   3.669  0.8177 -0.1226 -0.0317
   41HFI     F4  977   1.281   2.057   3.676  0.0327 -0.1255  0.0388
   41HFI     F5  978   1.447   2.034   3.542  0.0096  0.4447  0.5770
   41HFI     F6  979   1.460   2.195   3.694  0.0595  0.3909 -0.2645
   41HFI     H1  980   1.374   1.791   3.781 -1.5244 -0.6574 -2.5504
   41HFI     H2  981   1.589   1.975   3.758 -0.9572  1.1371 -1.8814
   42HFI     O1  982   3.210   2.185   0.496 -0.3529 -0.1936 -0.1500
   42HFI     C1  983   3.132   2.122   0.394 -0.1299 -0.3327  0.3660
   42HFI     C2  984   3.112   2.237   0.285 -0.1505  0.1806  0.0071
   42HFI     F1  985   3.013   2.325   0.318 -0.3102 -0.3826  0.4515
   42HFI     F2  986   3.088   2.179   0.167 -0.3657  0.0413  0.4229
   42HFI     F3  987   3.232   2.304   0.267  0.5510  0.6754  0.1301
   42HFI     C3  988   2.997   2.056   0.444 -0.4415 -0.5032  0.6715
   42HFI     F4  989   3.020   1.948   0.521  0.0805 -0.0898 -0.5145
   42HFI     F5  990   2.916   2.023   0.341 -0.4714 -0.1215 -0.5247
   42HFI     F6  991   2.933   2.147   0.522 -0.1773 -0.2969 -0.0015
   42HFI     H1  992   3.156   2.253   0.540  1.8788  0.6934  1.2909
   42HFI     H2  993   3.189   2.050   0.335  1.0962  0.8417  0.0900
   43HFI     O1  994   3.251   0.067   0.899 -0.4284 -0.5503  0.2838
   43HFI     C1  995   3.142   0.022   0.976 -0.0234 -0.7162 -0.4248
   43HFI     C2  996   3.179  -0.025   1.117 -0.1177  0.5515 -0.4689
   43HFI     F1  997   3.196   0.082   1.193 -0.2550  0.0312 -0.3416
   43HFI     F2  998   3.299  -0.094   1.119  0.4414  0.5049  0.3997
   43HFI     F3  999   3.096  -0.104   1.177  0.3355 -0.6492 -0.3053
   43HFI     C3 1000   3.055  -0.089   0.906  0.2964  0.2676  0.1926
   43HFI     F4 1001   3.112  -0.205   0.900 -0.2536 -0.4915 -0.0357
   43HFI     F5 1002   3.031  -0.051   0.781 -0.2045 -0.2480 -0.0472
   43HFI     F6 1003   2.937  -0.103   0.970  0.2937  0.1484  0.1660
   43HFI     H1 1004   3.276  -0.008   0.843  1.7654 -0.6269  1.3160
   43HFI     H2 1005   3.078   0.109   0.994 -1.3662 -1.9485  0.8328
   44HFI     O1 1006   0.992   3.435   0.484 -0.5345  0.0901  0.0682
   44HFI     C1 1007   1.030   3.512   0.601  0.3731  0.3237 -0.2935
   44HFI     C2 1008   0.909   3.614   0.634 -0.8596 -0.8391  0.6626
   44HFI     F1 1009   0.802   3.540   0.663 -0.1892  0.2490 -0.8222
   44HFI     F2 1010   0.874   3.699   0.531  0.0933 -0.5041  0.2265
   44HFI     F3 1011   0.933   3.695   0.740 -0.8203  0.1682  0.0249
   44HFI     C3 1012   1.165   3.587   0.581 -0.4027  0.7960 -0.2253
   44HFI     F4 1013   1.153   3.664   0.469 -0.0845 -0.6276  0.2005
   44HFI     F5 1014   1.267   3.501   0.560 -0.3509 -0.3774  0.3506
   44HFI     F6 1015   1.199   3.672   0.678 -0.4487 -0.5471 -0.1534
   44HFI     H1 1016   0.966   3.343   0.499  0.4301 -0.1403  0.3862
   44HFI     H2 1017   1.039   3.442   0.685  1.4738  1.8878  0.9254
   45HFI     O1 1018   3.126   2.931   1.266 -0.0469  0.7038 -0.1009
   45HFI     C1 1019   3.053   2.888   1.386 -0.2344 -0.0238  0.1346
   45HFI     C2 1020   3.044   3.002   1.489  0.0122  0.0990 -0.0417
   45HFI     F1 1021   2.962   3.096   1.436 -0.4921 -0.3793  0.4524
   45HFI     F2 1022   3.172   3.058   1.504 -0.2482  0.1912  0.0636
   45HFI     F3 1023   2.991   2.968   1.607 -0.0200  0.0958 -0.0478
   45HFI     C3 1024   3.108   2.758   1.452 -0.4425 -0.7921  0.1853
   45HFI     F4 1025   3.023   2.705   1.542 -0.0529 -0.0278 -0.3964
   45HFI     F5 1026   3.226   2.784   1.515  0.1643  0.3600 -0.3104
   45HFI     F6 1027   3.137   2.662   1.360  0.1637 -0.2175  0.1528
   45HFI     H1 1028   3.217   2.960   1.285  0.0477  1.0631 -1.0929
   45HFI     H2 1029   2.948   2.865   1.361 -1.0046  2.4839  0.9054
   46HFI     O1 1030   1.131   0.469   0.906  0.8939 -0.3481 -0.3919
   46HFI     C1 1031   1.187   0.431   1.031 -0.0768  0.3531 -1.0564
   46HFI     C2 1032   1.339   0.454   1.027 -0.2039 -0.0770  0.2618
   46HFI     F1 1033   1.389   0.383   0.921  0.2410  0.2033 -0.3959
   46HFI     F2 1034   1.416   0.429   1.132 -0.4274  0.1358  0.7408
   46HFI     F3 1035   1.353   0.585   0.998 -0.2346  0.3188 -0.5819
   46HFI     C3 1036   1.137   0.283   1.054 -0.5956  0.6583 -0.3107
   46HFI     F4 1037   1.006   0.269   1.039 -0.1612  0.1740  0.1868
   46HFI     F5 1038   1.168   0.230   1.174 -0.0650  0.0246 -0.0094
   46HFI     F6 1039   1.195   0.196   0.964 -0.4799  0.0334 -0.6579
   46HFI     H1 1040   1.169   0.425   0.828 -1.2591 -1.2280 -0.9847
   46HFI     H2 1041   1.140   0.491   1.110  0.1102 -1.2663  0.3056
   47HFI     O1 1042   0.652   0.838   0.378 -0.3746 -0.4801  0.0778
   47HFI     C1 1043   0.779   0.892   0.419 -0.0991  0.5920  0.4835
   47HFI     C2 1044   0.804   0.868   0.569 -0.6541 -0.2170 -0.5464
   47HFI     F1 1045   0.814   0.735   0.592  0.2872  0.1621 -0.2945
   47HFI     F2 1046   0.708   0.932   0.646  0.3040 -0.0262  0.0796
   47HFI     F3 1047   0.923   0.924   0.607 -0.6932  0.3994 -0.7335
   47HFI     C3 1048   0.798   1.041   0.380  0.2743  0.5270 -0.1035
   47HFI     F4 1049   0.725   1.121   0.464 -0.7590 -0.6728 -0.6649
   47HFI     F5 1050   0.755   1.067   0.253 -0.7488  0.1563 -0.3773
   47HFI     F6 1051   0.920   1.089   0.388 -0.4007  0.2618  0.1051
   47HFI     H1 1052   0.644   0.748   0.414  0.0240 -0.3953  0.3726
   47HFI     H2 1053   0.862   0.849   0.362 -2.8067  0.9891 -4.0468
   48HFI     O1 1054   0.602   0.549   0.449  0.0993  0.3217  0.4043
   48HFI     C1 1055   0.479   0.553   0.531 -0.9148 -0.7910 -0.1953
   48HFI     C2 1056   0.453   0.415   0.580  0.5798  0.2697 -0.0390
   48HFI     F1 1057   0.556   0.366   0.649 -0.0548 -0.5386 -0.2584
   48HFI     F2 1058   0.420   0.322   0.490 -0.2527 -0.4246 -0.2104
   48HFI     F3 1059   0.351   0.420   0.668  0.1654 -0.4444  0.5118
   48HFI     C3 1060   0.358   0.615   0.458 -0.1395 -0.6018 -0.7431
   48HFI     F4 1061   0.317   0.537   0.359  0.4773  0.3519  0.2878
   48HFI     F5 1062   0.398   0.731   0.403  0.1063 -0.0053  0.0592
   48HFI     F6 1063   0.254   0.640   0.546 -0.9053  0.5830 -0.4932
   48HFI     H1 1064   0.620   0.460   0.414 -2.2097 -0.6517  1.5703
   48HFI     H2 1065   0.487   0.598   0.630 -2.7593  1.3990 -0.9762
   49HFI     O1 1066   3.029   1.788   1.347  0.4486  0.9273  0.1877
   49HFI     C1 1067   3.036   1.683   1.440  0.5933  0.7941  0.3717
   49HFI     C2 1068   3.169   1.685   1.519  0.0125  0.4702  0.0339
   49HFI     F1 1069   3.172   1.792   1.592 -0.3903 -0.2086 -0.0635
   49HFI     F2 1070   3.275   1.699   1.440 -0.6375 -0.2353 -0.0374
   49HFI     F3 1071   3.189   1.581   1.602  0.1860 -0.7066 -0.1025
   49HFI     C3 1072   3.000   1.540   1.388  0.4542 -0.0190  0.5406
   49HFI     F4 1073   3.112   1.495   1.334  0.1956 -0.3953  0.3576
   49HFI     F5 1074   2.899   1.539   1.298  0.5669 -0.0172  0.3304
   49HFI     F6 1075   2.974   1.467   1.492  0.1625 -0.0701 -0.0092
   49HFI     H1 1076   3.115   1.802   1.305  0.5647 -1.8752 -0.6209
   49HFI     H2 1077   2.969   1.685   1.527  2.3970  0.3686  1.8087
   50HFI     O1 1078   2.922   1.231   1.328 -0.0960  0.3765  0.1196
   50HFI     C1 1079   2.941   1.151   1.453 -0.7599 -0.4840  0.5832
   50HFI     C2 1080   3.086   1.142   1.490 -0.4145  0.2376  0.6725
   50HFI     F1 1081   3.140   1.263   1.504  0.2181 -0.0015  0.1244
   50HFI     F2 1082   3.150   1.085   1.384 -0.4204  0.1904  0.1149
   50HFI     F3 1083   3.115   1.073   1.603  0.1007  0.3563 -0.0295
   50HFI     C3 1084   2.859   1.019   1.440 -0.6394  0.3438  0.0829
   50HFI     F4 1085   2.852   0.948   1.556  0.0335 -0.0452  0.3455
   50HFI     F5 1086   2.907   0.943   1.342 -0.2812  0.3732  0.6639
   50HFI     F6 1087   2.734   1.050   1.400 -0.2062 -0.3319 -0.3333
   50HFI     H1 1088   2.955   1.176   1.254 -0.7810  2.2197 -1.6041
   50HFI     H2 1089   2.892   1.204   1.535  1.4508  0.4519  1.3527
   51HFI     O1 1090   0.573   2.722   3.166  0.2705 -0.1740  0.2132
   51HFI     C1 1091   0.530   2.865   3.166 -0.4463 -0.0745 -0.2274
   51HFI     C2 1092   0.507   2.921   3.311  0.7642  0.6707  0.5008
   51HFI     F1 1093   0.628   2.923   3.376  0.6264 -0.1826 -0.1137
   51HFI     F2 1094   0.419   2.843   3.376 -0.0898  0.1619 -0.1001
   51HFI     F3 1095   0.460   3.049   3.309  0.2557  0.0753 -0.1340
   51HFI     C3 1096   0.423   2.898   3.058  0.0507 -0.4470 -0.2708
   51HFI     F4 1097   0.295   2.880   3.108 -0.0410  0.6345  0.1854
   51HFI     F5 1098   0.439   2.817   2.954 -0.2177 -0.0906  0.5320
   51HFI     F6 1099   0.436   3.027   3.028 -0.1414  0.5222  0.0470
   51HFI     H1 1100   0.505   2.671   3.119  0.6823 -1.7687  1.3278
   51HFI     H2 1101   0.606   2.936   3.130 -1.2081  0.4791 -0.7789
   52HFI     O1 1102   0.479   1.072   0.917  0.0342  0.5136  0.8681
   52HFI     C1 1103   0.353   1.023   0.860  0.4915 -0.1197  0.5977
   52HFI     C2 1104   0.248   1.024   0.971  0.2652 -1.0101  0.0389
   52HFI     F1 1105   0.263   1.149   1.036  0.3737 -0.2191  0.0134
   52HFI     F2 1106   0.252   0.924   1.063  0.3416  0.0115 -0.3395
   52HFI     F3 1107   0.121   1.027   0.918  0.1676  0.6602  0.5996
   52HFI     C3 1108   0.360   0.896   0.786  0.1317  0.0572 -0.3345
   52HFI     F4 1109   0.410   0.797   0.864  0.2540  0.0305  0.0930
   52HFI     F5 1110   0.439   0.916   0.677 -0.2521  0.1112 -0.2218
   52HFI     F6 1111   0.244   0.852   0.737  0.4096 -0.4555 -0.1340
   52HFI     H1 1112   0.482   1.169   0.905  1.9327  0.0169 -3.8882
   52HFI     H2 1113   0.318   1.100   0.790  1.6233  0.5900  0.7998
   53HFI     O1 1114   2.593   2.135   0.207 -0.0288  0.4998 -0.4789
   53HFI     C1 1115   2.612   2.236   0.317  0.0068 -0.1773 -0.9447
   53HFI     C2 1116   2.603   2.181   0.465 -0.4692 -0.1270 -0.4789
   53HFI     F1 1117   2.645   2.050   0.472 -0.0235 -0.1092 -0.6130
   53HFI     F2 1118   2.480   2.170   0.504 -0.4149 -0.1850 -0.3007
   53HFI     F3 1119   2.681   2.248   0.557  0.0828  0.3202  0.1605
   53HFI     C3 1120   2.523   2.363   0.294  0.1049 -0.0762  0.7467
   53HFI     F4 1121   2.529   2.440   0.405  0.0826 -0.1139 -0.4780
   53HFI     F5 1122   2.396   2.323   0.266 -0.0984  0.3009  0.1795
   53HFI     F6 1123   2.569   2.434   0.188  0.4492 -0.6616  0.1922
   53HFI     H1 1124   2.646   2.055   0.220 -0.2393  0.6046  1.2784
   53HFI     H2 1125   2.713   2.276   0.305  1.4050 -3.2708  0.1902
   54HFI     O1 1126   1.737   3.045   0.228  0.6065  0.0707  0.1741
   54HFI     C1 1127   1.701   3.073   0.366 -0.5045  0.9162 -0.7792
   54HFI     C2 1128   1.633   3.215   0.383  0.0288 -0.6794  0.5869
   54HFI     F1 1129   1.584   3.242   0.504 -0.4142  0.6549 -0.1709
   54HFI     F2 1130   1.529   3.231   0.299 -0.6180  0.0275  0.4677
   54HFI     F3 1131   1.719   3.315   0.346 -0.0286 -0.2952  0.1325
   54HFI     C3 1132   1.821   3.047   0.465 -0.2820  0.4160  0.0988
   54HFI     F4 1133   1.868   2.923   0.441  0.3397 -0.1028  0.3614
   54HFI     F5 1134   1.780   3.056   0.591  0.0667  0.2919 -0.4002
   54HFI     F6 1135   1.920   3.136   0.441 -0.4050  0.4122  0.0074
   54HFI     H1 1136   1.823   3.000   0.220  0.7496  0.3553  0.0887
   54HFI     H2 1137   1.628   2.997   0.395  1.7326 -2.2813 -3.1443
   55HFI     O1 1138   2.039   1.032   1.283 -0.0323 -0.1054 -0.0114
   55HFI     C1 1139   2.064   1.131   1.377  0.4068  0.4155 -0.0045
   55HFI     C2 1140   2.209   1.124   1.424 -0.4695 -0.1199 -0.3015
   55HFI     F1 1141   2.288   1.176   1.326 -0.6411  0.0474 -0.6175
   55HFI     F2 1142   2.248   0.997   1.460  0.0061  0.3957  0.2501
   55HFI     F3 1143   2.229   1.205   1.528 -0.1683  0.0982 -0.0966
   55HFI     C3 1144   1.962   1.120   1.496  0.7610 -0.3155  0.0678
   55HFI     F4 1145   1.987   1.005   1.564 -0.3540  0.1214 -0.0500
   55HFI     F5 1146   1.834   1.115   1.450  0.4331  0.2113 -0.0762
   55HFI     F6 1147   1.975   1.223   1.585  0.2580  0.3838  0.1234
   55HFI     H1 1148   2.119   0.995   1.242  0.4719  0.6378  0.3016
   55HFI     H2 1149   2.054   1.227   1.325 -1.1286 -0.1138 -0.7273
   56HFI     O1 1150   0.650   2.833   0.593 -0.4918  0.0858 -0.2890
   56HFI     C1 1151   0.529   2.888   0.528 -0.2768 -0.4601  0.0472
   56HFI     C2 1152   0.407   2.904   0.620 -0.2959 -0.4844  0.2821
   56HFI     F1 1153   0.295   2.968   0.570 -0.0153  0.0489 -0.2656
   56HFI     F2 1154   0.441   2.974   0.728  0.0637  0.5830 -0.1249
   56HFI     F3 1155   0.369   2.788   0.663  0.0407  0.0917 -0.0992
   56HFI     C3 1156   0.488   2.815   0.394 -0.1378  0.5176  0.1010
   56HFI     F4 1157   0.372   2.864   0.354 -0.2107 -0.2541  0.3198
   56HFI     F5 1158   0.471   2.683   0.411  0.0882 -0.2270  0.5446
   56HFI     F6 1159   0.577   2.828   0.301  0.5839 -0.5812  0.9386
   56HFI     H1 1160   0.635   2.739   0.610 -2.1028  0.6851  1.8433
   56HFI     H2 1161   0.540   2.994   0.501 -0.7976 -0.7630 -1.4024
   57HFI     O1 1162   1.472   1.501   0.563 -0.3529 -0.5874  0.6117
   57HFI     C1 1163   1.455   1.433   0.437  0.2550  0.1760 -0.0261
   57HFI     C2 1164   1.401   1.289   0.458  1.0049  0.1420  0.2503
   57HFI     F1 1165   1.287   1.293   0.527  0.7615 -0.5678  0.6123
   57HFI     F2 1166   1.481   1.208   0.530 -0.5514 -0.1600 -0.3930
   57HFI     F3 1167   1.379   1.214   0.345 -0.6849 -0.4687 -0.0268
   57HFI     C3 1168   1.582   1.445   0.356 -0.9113  0.5546  0.1336
   57HFI     F4 1169   1.611   1.578   0.340 -0.0216  0.0897 -0.6211
   57HFI     F5 1170   1.573   1.389   0.233 -0.6218  0.6596 -0.0842
   57HFI     F6 1171   1.692   1.379   0.421  0.1015  0.1682  0.1248
   57HFI     H1 1172   1.496   1.592   0.540 -1.4357 -1.0153 -2.4879
   57HFI     H2 1173   1.375   1.487   0.386 -0.3910  0.5828  1.3987
   58HFI     O1 1174   0.116   2.045   1.518  0.1611 -0.0074 -0.0698
   58HFI     C1 1175   0.238   1.965   1.559 -0.4172  0.2824  0.0346
   58HFI     C2 1176   0.362   2.028   1.486 -0.0051 -0.1015  0.6125
   58HFI     F1 1177   0.401   2.151   1.527  0.2114 -0.3290  0.5611
   58HFI     F2 1178   0.342   2.040   1.354  0.2567  0.0541  0.7609
   58HFI     F3 1179   0.470   1.954   1.509 -0.2467  1.0435  0.2691
   58HFI     C3 1180   0.234   1.814   1.525 -0.5597 -0.2918 -0.0943
   58HFI     F4 1181   0.235   1.795   1.394 -0.4814  0.0220 -0.3965
   58HFI     F5 1182   0.124   1.758   1.579 -0.1390  0.4937 -0.1825
   58HFI     F6 1183   0.339   1.743   1.580 -0.1219  0.5111  0.2867
   58HFI     H1 1184   0.035   2.006   1.555 -0.3740  1.3903  0.2604
   58HFI     H2 1185   0.251   1.980   1.667  1.9216  0.8981 -0.2908
   59HFI     O1 1186   1.367   2.027   1.295  0.4639  0.0142  0.2221
   59HFI     C1 1187   1.416   1.956   1.416  0.4038  0.0479  0.4267
   59HFI     C2 1188   1.321   1.843   1.460 -0.5479 -0.4687  0.6550
   59HFI     F1 1189   1.360   1.778   1.568 -0.1351 -0.6444  0.1039
   59HFI     F2 1190   1.302   1.754   1.359 -0.5213 -0.1868 -0.0996
   59HFI     F3 1191   1.196   1.890   1.478 -0.3093 -0.0599 -0.0221
   59HFI     C3 1192   1.447   2.049   1.534  0.3141 -0.1651 -0.5167
   59HFI     F4 1193   1.341   2.074   1.611 -0.0165 -0.3589  0.1797
   59HFI     F5 1194   1.480   2.171   1.492  0.4615 -0.1432 -0.0476
   59HFI     F6 1195   1.553   2.007   1.607 -0.4913  0.0821 -0.0109
   59HFI     H1 1196   1.271   2.017   1.292  0.3605  0.4083  1.6979
   59HFI     H2 1197   1.510   1.905   1.391  0.5581  0.6198 -0.1723
   60HFI     O1 1198   2.500   2.751   0.476 -0.5445  0.0485 -0.0703
   60HFI     C1 1199   2.429   2.879   0.474 -0.9848 -0.5635 -0.1541
   60HFI     C2 1200   2.273   2.867   0.443  0.3111  0.2907  0.2470
   60HFI     F1 1201   2.207   2.780   0.529 -0.3462 -0.2806  0.1354
   60HFI     F2 1202   2.246   2.822   0.316 -0.8239  0.5618  0.2596
   60HFI     F3 1203   2.209   2.986   0.460 -0.2768  0.2081 -0.2795
   60HFI     C3 1204   2.501   2.969   0.372 -0.0505  0.4862 -0.0390
   60HFI     F4 1205   2.502   2.919   0.244 -0.2015  0.3810  0.0086
   60HFI     F5 1206   2.633   2.979   0.406 -0.5487 -0.4590  0.0978
   60HFI     F6 1207   2.446   3.086   0.366  0.2224 -0.2253  0.7793
   60HFI     H1 1208   2.448   2.693   0.534  0.5253  0.2083  1.0660
   60HFI     H2 1209   2.438   2.924   0.574  0.3163 -1.4764  0.1514
   61HFI     O1 1210   1.492   1.822   0.561  0.3814  0.5031  0.6308
   61HFI     C1 1211   1.413   1.934   0.515  0.3960  0.7034 -0.0358
   61HFI     C2 1212   1.426   2.060   0.603  0.4192 -0.1406 -0.5015
   61HFI     F1 1213   1.554   2.102   0.597  0.1616 -0.6081  0.3423
   61HFI     F2 1214   1.382   2.031   0.728  0.0737 -0.4272  0.1830
   61HFI     F3 1215   1.350   2.165   0.561  0.9133  0.3903  0.0730
   61HFI     C3 1216   1.267   1.899   0.485 -0.2779  0.4488  0.5817
   61HFI     F4 1217   1.198   1.882   0.604  0.3679  0.3061 -0.5542
   61HFI     F5 1218   1.244   1.780   0.412 -0.0607 -0.3480  0.1415
   61HFI     F6 1219   1.204   1.989   0.408 -0.1341  0.3168  0.1705
   61HFI     H1 1220   1.545   1.858   0.635 -0.0305  0.1013  1.1296
   61HFI     H2 1221   1.460   1.969   0.422  0.3156  0.5840 -0.1220
   62HFI     O1 1222   2.455   0.164   1.382  0.2804 -0.1113  0.1588
   62HFI     C1 1223   2.358   0.235   1.473  0.3316 -0.1054  0.1604
   62HFI     C2 1224   2.214   0.239   1.421 -1.0865 -0.2302 -0.5954
   62HFI     F1 1225   2.171   0.116   1.416  0.6705 -0.1646  0.4284
   62HFI     F2 1226   2.204   0.290   1.294 -0.1068 -0.9580  0.5867
   62HFI     F3 1227   2.123   0.303   1.497  0.1319 -0.4899  0.2336
   62HFI     C3 1228   2.416   0.378   1.501  0.2286 -0.0126  0.3251
   62HFI     F4 1229   2.425   0.470   1.397  0.5008 -0.2799 -0.3209
   62HFI     F5 1230   2.543   0.362   1.543  0.4066 -0.1385 -0.1257
   62HFI     F6 1231   2.346   0.438   1.600  0.2581 -0.3935  0.1263
   62HFI     H1 1232   2.446   0.202   1.293 -1.8458  0.0707  0.4274
   62HFI     H2 1233   2.358   0.191   1.574  0.3426  1.1052  0.7038
   63HFI     O1 1234   1.629   3.298   0.912  0.3512  0.0908  0.5868
   63HFI     C1 1235   1.515   3.319   0.997 -0.0717  0.4370 -0.0869
   63HFI     C2 1236   1.374   3.275   0.937 -0.8001  0.3797 -0.5872
   63HFI     F1 1237   1.390   3.164   0.856 -0.4918 -0.1754 -0.4493
   63HFI     F2 1238   1.317   3.372   0.859  0.4527  0.4120 -0.5743
   63HFI     F3 1239   1.285   3.241   1.039 -0.6019 -0.0287 -0.0726
   63HFI     C3 1240   1.514   3.464   1.063  0.9970 -0.2337 -0.4940
   63HFI     F4 1241   1.497   3.559   0.966 -0.1195 -0.3443 -0.2824
   63HFI     F5 1242   1.629   3.487   1.127  0.1190  0.0452  0.3041
   63HFI     F6 1243   1.416   3.477   1.158 -0.0757 -0.2924  0.6170
   63HFI     H1 1244   1.694   3.368   0.932 -1.2248  0.6036  4.2744
   63HFI     H2 1245   1.525   3.254   1.086 -0.5415  0.6152  0.0965
   64HFI     O1 1246   0.309   2.459   1.584  0.1633 -0.0818  0.4236
   64HFI     C1 1247   0.357   2.549   1.481 -0.7015  0.7740 -0.1295
   64HFI     C2 1248   0.511   2.572   1.489  0.1596 -0.4464 -0.2007
   64HFI     F1 1249   0.551   2.651   1.381 -0.5225  0.2205  0.0866
   64HFI     F2 1250   0.580   2.451   1.479  0.0177  0.1402 -0.2806
   64HFI     F3 1251   0.546   2.640   1.600  0.1799  0.1923  0.1735
   64HFI     C3 1252   0.275   2.680   1.464  0.0174 -0.1973 -0.3526
   64HFI     F4 1253   0.315   2.781   1.543 -0.0535 -0.4041  0.5045
   64HFI     F5 1254   0.142   2.666   1.483 -0.2095  0.5318  0.5886
   64HFI     F6 1255   0.298   2.716   1.338 -0.1919 -0.3980 -0.4163
   64HFI     H1 1256   0.275   2.505   1.663 -0.3684  1.8039 -0.8703
   64HFI     H2 1257   0.329   2.490   1.392 -0.7533 -1.2238  1.1804
   65HFI     O1 1258   1.196   0.609   1.335  0.2879  0.3300  0.8196
   65HFI     C1 1259   1.127   0.516   1.427  0.1890 -0.5485  0.0282
   65HFI     C2 1260   1.016   0.589   1.498 -0.1051 -0.9066  0.2201
   65HFI     F1 1261   0.921   0.643   1.416 -0.2165 -0.3929 -0.0724
   65HFI     F2 1262   1.068   0.692   1.572  0.3705 -0.0717 -0.1921
   65HFI     F3 1263   0.953   0.507   1.585  0.4646 -0.0559  0.0214
   65HFI     C3 1264   1.233   0.443   1.518  0.9910  0.4884  0.0182
   65HFI     F4 1265   1.317   0.529   1.578  0.2141 -0.0162  0.5978
   65HFI     F5 1266   1.301   0.362   1.438  0.1649  0.0877  0.2244
   65HFI     F6 1267   1.179   0.362   1.611 -0.1086 -0.3155  0.2913
   65HFI     H1 1268   1.232   0.689   1.377  0.8450  0.3640  0.2887
   65HFI     H2 1269   1.084   0.438   1.363  1.0747 -0.6145 -0.4995
   66HFI     O1 1270   1.360   0.824   0.467 -0.5129 -0.0242  0.1744
   66HFI     C1 1271   1.322   0.691   0.517 -0.2908 -0.3988  0.5797
   66HFI     C2 1272   1.368   0.567   0.428  0.2134 -0.4957 -0.8830
   66HFI     F1 1273   1.493   0.583   0.395  0.0089 -0.4931  0.1393
   66HFI     F2 1274   1.287   0.567   0.315 -0.4516  0.2894  0.0843
   66HFI     F3 1275   1.353   0.449   0.488  0.1734 -0.6703 -0.0162
   66HFI     C3 1276   1.164   0.684   0.541 -0.4512  0.2084  0.0198
   66HFI     F4 1277   1.089   0.723   0.437  0.0576  0.4103  0.3380
   66HFI     F5 1278   1.132   0.758   0.650  0.7500 -0.8301 -0.3494
   66HFI     F6 1279   1.125   0.563   0.579  0.5449  0.6051  0.2323
   66HFI     H1 1280   1.313   0.844   0.384 -0.3258  1.2422  0.3644
   66HFI     H2 1281   1.363   0.668   0.617 -0.1238  0.3721  0.6939
   67HFI     O1 1282   0.049   2.887   3.640  0.2444 -0.3620  0.3782
   67HFI     C1 1283   0.009   3.013   3.581  0.5954 -0.3496 -0.3909
   67HFI     C2 1284   0.096   3.062   3.451  0.2928  0.2501  0.5524
   67HFI     F1 1285   0.108   2.961   3.362  0.1316 -0.0240 -0.2587
   67HFI     F2 1286   0.215   3.103   3.495 -0.1897 -0.3869  0.2634
   67HFI     F3 1287   0.043   3.164   3.383 -0.6715 -0.2314 -0.3755
   67HFI     C3 1288  -0.015   3.118   3.694  0.5057 -0.3178  0.0945
   67HFI     F4 1289   0.087   3.137   3.770  0.2989  0.6989  0.0111
   67HFI     F5 1290  -0.121   3.080   3.778  0.2147 -0.0633 -0.7245
   67HFI     F6 1291  -0.030   3.245   3.644  0.1962 -0.4510  0.1383
   67HFI     H1 1292   0.142   2.896   3.668  0.0754  1.3878  0.4128
   67HFI     H2 1293  -0.091   3.009   3.535 -0.4679 -2.9525  1.9814
   68HFI     O1 1294   2.349   2.104   3.792  0.7603 -0.1228 -0.1417
   68HFI     C1 1295   2.273   1.983   3.814 -0.1685 -0.4268  0.3378
   68HFI     C2 1296   2.322   1.903   3.945 -0.0588  0.1962  0.2718
   68HFI     F1 1297   2.322   1.983   4.058 -0.0350  0.2876 -0.1114
   68HFI     F2 1298   2.446   1.855   3.923 -0.0716 -0.4708 -0.1442
   68HFI     F3 1299   2.246   1.795   3.975 -0.3581  0.3510 -0.1475
   68HFI     C3 1300   2.262   1.897   3.687  0.1417 -0.0730  0.0132
   68HFI     F4 1301   2.178   1.956   3.603  0.2505  0.3028  0.5842
   68HFI     F5 1302   2.212   1.772   3.703 -0.2650  0.2765 -0.2258
   68HFI     F6 1303   2.376   1.876   3.627  0.3268  0.0772 -0.2668
   68HFI     H1 1304   2.393   2.117   3.877 -0.9114  2.1143  0.3999
   68HFI     H2 1305   2.169   2.011   3.835  0.1721 -0.6774  2.4984
   69HFI     O1 1306   2.488   0.274   1.104 -0.0962  0.3453  0.0938
   69HFI     C1 1307   2.620   0.313   1.060  0.0407 -0.0110  0.2676
   69HFI     C2 1308   2.625   0.455   1.020  0.5769 -0.0938 -0.0188
   69HFI     F1 1309   2.588   0.526   1.122  0.3160 -0.1178 -0.0268
   69HFI     F2 1310   2.548   0.486   0.917 -0.4007 -0.0216  0.2379
   69HFI     F3 1311   2.756   0.487   0.985  0.2774  0.2020 -0.3473
   69HFI     C3 1312   2.684   0.212   0.957 -0.0675 -0.1180 -0.0543
   69HFI     F4 1313   2.664   0.083   0.991 -0.2717  0.6376 -0.5488
   69HFI     F5 1314   2.818   0.226   0.956 -0.2318 -0.3074 -0.4671
   69HFI     F6 1315   2.643   0.235   0.830 -0.0134 -0.0993  0.2517
   69HFI     H1 1316   2.426   0.268   1.028 -0.9260 -0.6874  0.8279
   69HFI     H2 1317   2.681   0.309   1.151 -1.5767 -2.3430  1.2858
   70HFI     O1 1318   1.844   0.773   1.272  0.1451 -0.2610  0.5458
   70HFI     C1 1319   1.923   0.721   1.382  0.0231  0.1342  0.1943
   70HFI     C2 1320   2.070   0.673   1.341 -0.3156  0.1272  0.3248
   70HFI     F1 1321   2.123   0.741   1.239 -0.3690 -0.1600 -0.3232
   70HFI     F2 1322   2.072   0.543   1.299 -0.1015 -0.0922  0.5987
   70HFI     F3 1323   2.155   0.685   1.445 -0.3460 -0.1976  0.3054
   70HFI     C3 1324   1.840   0.615   1.468  0.0760 -0.1917  0.5607
   70HFI     F4 1325   1.805   0.512   1.391 -0.6268 -0.2739 -0.0258
   70HFI     F5 1326   1.726   0.674   1.512 -0.3951 -0.0613  0.3407
   70HFI     F6 1327   1.910   0.569   1.572 -0.3974 -0.0930 -0.2071
   70HFI     H1 1328   1.883   0.850   1.228  2.5999 -2.4194 -1.1784
   70HFI     H2 1329   1.940   0.811   1.443 -0.9937 -0.4342  1.3439
   71HFI     O1 1330   2.929   3.064   1.097  0.2457  0.0997 -0.8038
   71HFI     C1 1331   2.811   3.001   1.024  0.5955  0.0888 -0.4742
   71HFI     C2 1332   2.672   3.061   1.066 -0.3114 -0.5906 -0.4843
   71HFI     F1 1333   2.684   3.186   1.092  0.6391  0.3021 -0.5942
   71HFI     F2 1334   2.613   3.007   1.174 -0.5089 -0.3323 -0.0296
   71HFI     F3 1335   2.585   3.051   0.959  0.1019  0.4816  0.0272
   71HFI     C3 1336   2.812   2.847   1.036 -0.3946  0.4986  0.5371
   71HFI     F4 1337   2.823   2.816   1.161  0.1223  0.0932  0.0184
   71HFI     F5 1338   2.914   2.787   0.971  0.1415  0.5548  0.1110
   71HFI     F6 1339   2.699   2.793   0.988  0.1623 -0.4925  0.1403
   71HFI     H1 1340   2.970   2.993   1.149  1.4509  0.6204 -1.0223
   71HFI     H2 1341   2.821   3.031   0.919 -0.6200  0.5231 -0.4765
   72HFI     O1 1342   0.790   2.102   0.238 -0.2807  0.0658  0.5281
   72HFI     C1 1343   0.663   2.179   0.246 -0.2023  0.2442 -0.7925
   72HFI     C2 1344   0.583   2.156   0.119 -0.0299  0.2292 -0.5883
   72HFI     F1 1345   0.581   2.022   0.088  0.4054 -0.2367  0.4124
   72HFI     F2 1346   0.641   2.227   0.020 -0.2560 -0.2279 -0.4601
   72HFI     F3 1347   0.456   2.207   0.121 -0.1878 -0.2077  0.0189
   72HFI     C3 1348   0.692   2.331   0.281  0.0126  0.4795 -0.1281
   72HFI     F4 1349   0.776   2.378   0.186  0.5084 -0.4809 -0.1310
   72HFI     F5 1350   0.743   2.346   0.403  0.7225  0.4685  0.0698
   72HFI     F6 1351   0.572   2.402   0.273 -0.2460 -0.0618  0.0893
   72HFI     H1 1352   0.835   2.128   0.155 -0.5674 -3.1298 -0.6857
   72HFI     H2 1353   0.609   2.134   0.330  0.6388  1.9257  0.6757
   73HFI     O1 1354   2.286   1.020   1.070 -0.2774 -0.0484 -0.2689
   73HFI     C1 1355   2.228   1.007   0.933 -0.6594  0.3965 -0.4432
   73HFI     C2 1356   2.245   1.136   0.846  0.7928  0.2285 -0.5121
   73HFI     F1 1357   2.362   1.196   0.864 -0.3984  0.2464 -0.1930
   73HFI     F2 1358   2.150   1.219   0.893  0.3663  0.0912 -0.0108
   73HFI     F3 1359   2.225   1.115   0.713 -0.4068 -0.0396  0.5663
   73HFI     C3 1360   2.090   0.940   0.922  0.1118  0.1564  0.3086
   73HFI     F4 1361   2.092   0.817   0.982  0.4782  0.4457 -0.0593
   73HFI     F5 1362   2.052   0.922   0.790 -0.1886  0.3010 -0.3134
   73HFI     F6 1363   2.000   1.015   0.986  0.5812 -0.3209  0.2005
   73HFI     H1 1364   2.377   1.053   1.063 -0.7928  1.2361 -1.0748
   73HFI     H2 1365   2.286   0.929   0.883 -0.1711  1.6510 -1.8642
   74HFI     O1 1366   2.685   0.025   1.337  0.5087  0.1782  0.2035
   74HFI     C1 1367   2.756  -0.079   1.415 -0.0717 -0.3679  0.0208
   74HFI     C2 1368   2.660  -0.172   1.495  0.1875  0.6357 -0.1584
   74HFI     F1 1369   2.562  -0.113   1.569 -0.1903 -0.4612 -0.3159
   74HFI     F2 1370   2.728  -0.256   1.576  0.1308 -0.5349  0.2183
   74HFI     F3 1371   2.603  -0.258   1.407  0.2177 -0.4169 -0.2345
   74HFI     C3 1372   2.859  -0.001   1.505  0.2484 -1.1844 -0.1911
   74HFI     F4 1373   2.810   0.089   1.598  0.4702  0.0289  0.4427
   74HFI     F5 1374   2.942   0.070   1.433 -0.3537 -0.0306 -0.6309
   74HFI     F6 1375   2.939  -0.089   1.572 -0.0576  0.1537  0.3721
   74HFI     H1 1376   2.648   0.094   1.395 -1.0282 -0.3502 -0.1290
   74HFI     H2 1377   2.822  -0.139   1.352 -0.3435  0.0159 -0.6417
   75HFI     O1 1378   0.273   0.919   1.404  0.2033 -0.3430 -0.3156
   75HFI     C1 1379   0.179   0.863   1.499  0.1771 -0.0173 -0.3090
   75HFI     C2 1380   0.193   0.712   1.512 -1.2022  0.7740  0.4262
   75HFI     F1 1381   0.312   0.676   1.554  0.1984 -0.1714 -0.1904
   75HFI     F2 1382   0.177   0.656   1.392 -0.4593 -0.5570  0.3394
   75HFI     F3 1383   0.098   0.664   1.594  0.2046 -0.1009  0.4280
   75HFI     C3 1384   0.042   0.916   1.460  0.3529 -0.0489  0.6511
   75HFI     F4 1385  -0.016   0.851   1.364 -0.4546 -0.1002 -0.2469
   75HFI     F5 1386   0.045   1.047   1.425  0.0489  0.1457  0.0402
   75HFI     F6 1387  -0.038   0.910   1.573  0.2595 -0.2979  0.2635
   75HFI     H1 1388   0.255   0.866   1.324  0.5333  0.1004 -0.6898
   75HFI     H2 1389   0.191   0.897   1.602 -2.8977  0.5830 -0.0942
   76HFI     O1 1390   1.131   1.137   0.890  0.4717  0.3733 -0.3736
   76HFI     C1 1391   1.067   1.122   1.023  0.5115 -0.2024  0.5824
   76HFI     C2 1392   0.926   1.056   0.997 -0.3232 -0.0461  0.0406
   76HFI     F1 1393   0.839   1.117   0.915 -0.0304 -0.2612 -0.3747
   76HFI     F2 1394   0.872   1.035   1.114 -0.0292 -0.3718 -0.0345
   76HFI     F3 1395   0.945   0.934   0.953  0.4716 -0.4998 -0.4223
   76HFI     C3 1396   1.066   1.248   1.117 -0.9344  0.1918  0.3539
   76HFI     F4 1397   0.976   1.324   1.058  0.1963 -0.0843  0.2313
   76HFI     F5 1398   1.192   1.309   1.113  0.1683 -0.2098  0.3346
   76HFI     F6 1399   1.026   1.229   1.245  0.2181  0.3257  0.4876
   76HFI     H1 1400   1.060   1.136   0.824  0.1655  1.9375 -0.0834
   76HFI     H2 1401   1.118   1.040   1.076 -0.2234 -1.4267 -0.5712
   77HFI     O1 1402   1.843   2.450   0.115 -0.0411 -0.0061 -0.5468
   77HFI     C1 1403   1.834   2.420   0.259  0.9979 -0.4114 -0.4320
   77HFI     C2 1404   1.926   2.517   0.341 -0.5621 -0.0549 -0.0238
   77HFI     F1 1405   1.916   2.493   0.472 -0.1658 -0.2298  0.3844
   77HFI     F2 1406   1.890   2.643   0.336 -0.8849 -0.3085  0.3442
   77HFI     F3 1407   2.056   2.506   0.303 -0.6148  0.1925 -0.4473
   77HFI     C3 1408   1.853   2.269   0.287  1.0534  0.0154  0.8960
   77HFI     F4 1409   1.977   2.219   0.284  0.0819 -0.2102  0.1285
   77HFI     F5 1410   1.785   2.193   0.192  0.5257 -0.0869  0.1703
   77HFI     F6 1411   1.798   2.226   0.405  0.2350  0.2130 -0.1764
   77HFI     H1 1412   1.856   2.547   0.115 -0.1702  0.0148  0.0808
   77HFI     H2 1413   1.736   2.445   0.302  1.1548  1.1049 -0.9133
   78HFI     O1 1414   2.586   1.592   3.727 -0.3629  0.2259  0.2987
   78HFI     C1 1415   2.654   1.623   3.600 -0.0245  0.0430 -0.3418
   78HFI     C2 1416   2.640   1.508   3.498  0.2981  0.4991  1.1749
   78HFI     F1 1417   2.511   1.476   3.473 -0.2841  0.3059  0.1020
   78HFI     F2 1418   2.702   1.396   3.533 -0.1235 -0.1230  0.5960
   78HFI     F3 1419   2.693   1.544   3.379  0.2025  0.2337 -0.3625
   78HFI     C3 1420   2.803   1.660   3.627 -0.0979 -0.1151  0.7434
   78HFI     F4 1421   2.871   1.561   3.685  0.6607  0.2138  0.6117
   78HFI     F5 1422   2.821   1.755   3.721  0.4699 -0.1124 -0.4903
   78HFI     F6 1423   2.875   1.696   3.517  0.6280 -0.7036 -0.1426
   78HFI     H1 1424   2.617   1.510   3.769  0.4393  0.0118 -0.7139
   78HFI     H2 1425   2.608   1.708   3.549 -0.0868  1.5200  2.1076
   79HFI     O1 1426   0.154   1.181   0.425  0.1455  0.2244 -0.8640
   79HFI     C1 1427   0.253   1.283   0.430  0.2059 -0.5634 -0.7712
   79HFI     C2 1428   0.402   1.237   0.459  0.7788 -0.3759 -0.9593
   79HFI     F1 1429   0.417   1.198   0.586  0.1861  0.2517 -0.3137
   79HFI     F2 1430   0.493   1.330   0.427 -0.4667  0.2172  0.1536
   79HFI     F3 1431   0.440   1.137   0.378  0.0610  0.0211 -0.3861
   79HFI     C3 1432   0.194   1.400   0.513 -0.2206 -0.0237 -0.5713
   79HFI     F4 1433   0.069   1.437   0.472  0.1692 -0.2197 -0.0235
   79HFI     F5 1434   0.266   1.513   0.507 -0.4739 -0.3686  0.3404
   79HFI     F6 1435   0.182   1.376   0.646  0.6198  0.4370 -0.0893
   79HFI     H1 1436   0.156   1.145   0.334 -4.3197 -0.3097 -0.8667
   79HFI     H2 1437   0.266   1.325   0.329 -1.9894 -0.2284 -0.9474
   80HFI     O1 1438   0.337   2.823   3.670 -0.2993 -0.2768  0.0630
   80HFI     C1 1439   0.453   2.793   3.758 -0.2634 -0.4000  0.1478
   80HFI     C2 1440   0.572   2.886   3.731 -0.1911 -0.1911 -0.1628
   80HFI     F1 1441   0.523   3.000   3.689 -0.1571 -0.2560 -0.4721
   80HFI     F2 1442   0.659   2.840   3.645  0.0704 -0.3306  0.1718
   80HFI     F3 1443   0.632   2.908   3.848 -0.4239 -0.0251  0.5431
   80HFI     C3 1444   0.485   2.651   3.759  0.0792  0.2433 -0.4091
   80HFI     F4 1445   0.510   2.599   3.638  0.1257  0.4651  0.0657
   80HFI     F5 1446   0.373   2.584   3.808  0.4350  0.2134  0.5153
   80HFI     F6 1447   0.591   2.627   3.837 -0.0168  0.3903  0.3750
   80HFI     H1 1448   0.349   2.771   3.588 -0.9567  0.2817 -0.4003
   80HFI     H2 1449   0.417   2.820   3.858 -0.7978 -0.0888 -0.1275
   81HFI     O1 1450   0.943   3.160   0.470 -0.3096  0.0920  0.0558
   81HFI     C1 1451   1.012   3.042   0.516 -0.4368  0.3750 -0.3867
   81HFI     C2 1452   1.165   3.074   0.529 -0.3865 -0.3922 -0.0306
   81HFI     F1 1453   1.238   2.963   0.546 -0.3550 -0.1792 -0.5877
   81HFI     F2 1454   1.190   3.152   0.639 -0.1061  0.3198  0.0903
   81HFI     F3 1455   1.218   3.133   0.420  0.4060  0.7057 -0.0045
   81HFI     C3 1456   0.983   2.919   0.428  0.4393  0.4430 -0.0657
   81HFI     F4 1457   1.072   2.900   0.332 -0.1470 -0.2133 -0.3603
   81HFI     F5 1458   0.857   2.928   0.367  0.9705  0.0440 -0.0978
   81HFI     F6 1459   0.992   2.809   0.497  0.3154  0.0033 -0.0276
   81HFI     H1 1460   0.870   3.134   0.412 -1.7448  1.4372  1.2171
   81HFI     H2 1461   0.980   3.013   0.617  2.2345 -3.5636 -0.5500
   82HFI     O1 1462   2.369   1.528   1.500 -0.3996  0.1088  0.2674
   82HFI     C1 1463   2.516   1.521   1.529  0.8361  0.1036 -0.1331
   82HFI     C2 1464   2.599   1.650   1.502  0.8604 -0.1885 -0.1609
   82HFI     F1 1465   2.733   1.623   1.517  0.2101  0.0678  0.2826
   82HFI     F2 1466   2.568   1.736   1.594 -0.1955 -0.6419 -1.0401
   82HFI     F3 1467   2.576   1.703   1.378 -0.8235  0.3545 -0.4102
   82HFI     C3 1468   2.586   1.390   1.470  0.2854 -0.1449  0.1747
   82HFI     F4 1469   2.620   1.410   1.341 -0.2251  0.2661 -0.3614
   82HFI     F5 1470   2.498   1.283   1.477  0.1947  0.0471 -0.0068
   82HFI     F6 1471   2.687   1.357   1.547 -0.2386  0.1780  0.2034
   82HFI     H1 1472   2.343   1.617   1.528 -2.3954 -0.4443  0.2070
   82HFI     H2 1473   2.533   1.494   1.634 -1.5553 -0.2362  0.1792
   83HFI     O1 1474   3.237   1.767   0.648  0.6176 -0.1407 -0.8097
   83HFI     C1 1475   3.309   1.713   0.537  0.6229 -0.1654 -0.9721
   83HFI     C2 1476   3.443   1.775   0.516  0.8417 -0.0988  0.1854
   83HFI     F1 1477   3.524   1.751   0.624 -0.3364  0.5414 -0.4392
   83HFI     F2 1478   3.425   1.907   0.515 -0.0009  0.4003 -0.2714
   83HFI     F3 1479   3.501   1.742   0.401 -0.1073 -0.1286 -0.0006
   83HFI     C3 1480   3.229   1.710   0.406 -0.9416  0.1555 -0.4393
   83HFI     F4 1481   3.232   1.827   0.337  0.3836 -0.4189 -0.1725
   83HFI     F5 1482   3.103   1.659   0.427  0.1976 -0.5380 -0.2942
   83HFI     F6 1483   3.275   1.611   0.330  0.0285  0.1247  0.2089
   83HFI     H1 1484   3.297   1.799   0.718 -2.7840  1.6548  1.4100
   83HFI     H2 1485   3.327   1.609   0.566 -0.2756  0.1552  0.7686
   84HFI     O1 1486   0.701   0.349   0.275  0.4896 -0.6127  1.1129
   84HFI     C1 1487   0.822   0.373   0.207 -0.0277 -0.1107  0.0194
   84HFI     C2 1488   0.880   0.509   0.254 -0.5345 -0.0851 -0.0117
   84HFI     F1 1489   0.795   0.618   0.231  0.0779  0.3781 -0.3201
   84HFI     F2 1490   0.999   0.543   0.190  0.2349 -0.4729  0.1466
   84HFI     F3 1491   0.899   0.504   0.382 -0.4149  1.0186  0.2390
   84HFI     C3 1492   0.807   0.359   0.052  1.4830 -0.5479 -0.3981
   84HFI     F4 1493   0.732   0.465   0.004 -0.3460 -0.6810  0.2359
   84HFI     F5 1494   0.749   0.241   0.011  0.1760  0.4556 -0.2714
   84HFI     F6 1495   0.930   0.362  -0.010 -0.5483 -0.1869 -0.8815
   84HFI     H1 1496   0.631   0.345   0.208  1.7720 -1.5235 -0.1908
   84HFI     H2 1497   0.895   0.298   0.241  0.7963 -0.6061 -2.7199
   85HFI     O1 1498   2.027   3.227   1.347  0.3081 -0.2584  0.0472
   85HFI     C1 1499   2.157   3.148   1.361  0.0789 -0.0275 -0.6401
   85HFI     C2 1500   2.224   3.186   1.499  0.3706 -0.1811 -0.1471
   85HFI     F1 1501   2.127   3.192   1.601 -0.1419 -0.2777 -0.0875
   85HFI     F2 1502   2.290   3.305   1.496  0.2366 -0.8129 -0.6383
   85HFI     F3 1503   2.308   3.079   1.527  0.1130 -0.3134  0.4691
   85HFI     C3 1504   2.246   3.159   1.234  0.8129  0.4407 -0.6690
   85HFI     F4 1505   2.323   3.269   1.236  0.3373 -0.0259  0.1120
   85HFI     F5 1506   2.172   3.150   1.123  0.0835  0.1033 -0.0530
   85HFI     F6 1507   2.326   3.055   1.226 -0.2020  0.4771  0.1718
   85HFI     H1 1508   2.011   3.282   1.426  0.1810  0.1929 -0.2898
   85HFI     H2 1509   2.134   3.041   1.365 -0.1460  0.0006 -1.1198
   86HFI     O1 1510   1.137   3.058   1.341 -0.2821  0.0192  0.0270
   86HFI     C1 1511   1.198   3.097   1.468  0.4898  0.0867 -0.4945
   86HFI     C2 1512   1.214   3.253   1.476  0.6740 -0.1614  0.3753
   86HFI     F1 1513   1.091   3.308   1.469  0.3480  0.2996  0.4352
   86HFI     F2 1514   1.286   3.301   1.373  0.0196 -0.2144  0.1359
   86HFI     F3 1515   1.274   3.290   1.599  0.0017  0.8051  0.1939
   86HFI     C3 1516   1.329   3.017   1.492 -0.2453 -0.4965 -0.0375
   86HFI     F4 1517   1.372   3.037   1.618 -0.6705  0.0681  0.0788
   86HFI     F5 1518   1.424   3.056   1.408  0.5238 -0.4494 -0.2245
   86HFI     F6 1519   1.319   2.882   1.476  0.1961 -0.4124  0.2698
   86HFI     H1 1520   1.136   3.139   1.286  0.9481  0.7821  1.0874
   86HFI     H2 1521   1.130   3.075   1.552  0.5479  2.8439  0.3223
   87HFI     O1 1522   2.372   0.409   0.730  0.1661 -0.1875  0.1696
   87HFI     C1 1523   2.330   0.499   0.629 -0.0991  0.6345 -0.1037
   87HFI     C2 1524   2.175   0.521   0.643  0.3121  1.2105 -0.6740
   87HFI     F1 1525   2.091   0.411   0.617 -0.1956 -0.0259 -0.4020
   87HFI     F2 1526   2.134   0.614   0.560  0.2500  0.1025  0.8615
   87HFI     F3 1527   2.140   0.569   0.763  0.2068 -0.3113  0.6810
   87HFI     C3 1528   2.382   0.464   0.480  0.3950  0.4740  0.4383
   87HFI     F4 1529   2.303   0.368   0.417  0.2560  0.4023  0.0756
   87HFI     F5 1530   2.509   0.420   0.485  0.2714  0.1526  0.2067
   87HFI     F6 1531   2.384   0.576   0.404 -0.0319  0.2811  0.1340
   87HFI     H1 1532   2.319   0.328   0.729 -1.4756  0.8778  0.2342
   87HFI     H2 1533   2.366   0.600   0.653 -2.0309  0.7471  2.4716
   88HFI     O1 1534   3.385   1.848   0.909  0.1723 -0.8116 -0.3662
   88HFI     C1 1535   3.460   1.876   1.030  0.0019  0.1596 -1.6224
   88HFI     C2 1536   3.366   1.922   1.151  0.3449  0.0468  0.1362
   88HFI     F1 1537   3.278   1.833   1.186  0.7644  0.0462 -0.5270
   88HFI     F2 1538   3.291   2.028   1.121  0.0164  0.3790 -0.5831
   88HFI     F3 1539   3.438   1.952   1.254  0.3579  0.1351  0.0445
   88HFI     C3 1540   3.567   1.978   1.005  0.0563 -0.0149  0.2582
   88HFI     F4 1541   3.509   2.103   0.997  0.0379 -0.3639  0.7164
   88HFI     F5 1542   3.626   1.949   0.890 -0.1708 -0.2060 -0.1955
   88HFI     F6 1543   3.671   1.980   1.093  0.3842 -0.2554 -0.2029
   88HFI     H1 1544   3.303   1.900   0.911  0.0166 -0.9267 -2.6042
   88HFI     H2 1545   3.507   1.783   1.066 -0.7355 -0.3671 -2.0012
   89HFI     O1 1546   1.065   1.607   0.868 -0.4015  0.3547 -0.0279
   89HFI     C1 1547   1.162   1.656   0.969 -0.2025 -0.7283  0.0509
   89HFI     C2 1548   1.142   1.808   0.993  0.3112 -0.0067  0.3255
   89HFI     F1 1549   1.092   1.859   0.879  0.2147 -0.1591 -0.0683
   89HFI     F2 1550   1.258   1.878   1.017  0.6656  0.1507 -0.0437
   89HFI     F3 1551   1.057   1.831   1.091 -0.5279 -0.7394 -0.1060
   89HFI     C3 1552   1.304   1.617   0.926  0.3407 -1.0076  0.3254
   89HFI     F4 1553   1.315   1.484   0.891  0.5467  0.4439  0.2463
   89HFI     F5 1554   1.397   1.637   1.021 -0.1533  0.3526  0.3735
   89HFI     F6 1555   1.344   1.688   0.811  0.9349 -0.4630 -0.0179
   89HFI     H1 1556   1.049   1.680   0.805 -1.5005 -1.0737 -1.4658
   89HFI     H2 1557   1.157   1.602   1.064  1.4935  1.8988  1.7143
   90HFI     O1 1558   0.930   2.290   1.070  0.0625  0.0996 -0.0148
   90HFI     C1 1559   1.016   2.260   0.953  0.2855  0.0662  0.4468
   90HFI     C2 1560   1.100   2.385   0.906 -0.1169  0.0271  0.0065
   90HFI     F1 1561   1.153   2.441   1.018  0.1195  0.3675  0.5818
   90HFI     F2 1562   1.023   2.482   0.845 -0.0023  0.1109  0.3205
   90HFI     F3 1563   1.203   2.361   0.831  0.4345  0.1199 -0.3110
   90HFI     C3 1564   0.941   2.194   0.832  0.1620 -0.8477 -0.5741
   90HFI     F4 1565   1.011   2.187   0.721 -0.2817  0.2470  0.6686
   90HFI     F5 1566   0.825   2.261   0.804 -0.3090  0.2285  0.4635
   90HFI     F6 1567   0.917   2.067   0.867  0.0956 -0.0516 -0.2166
   90HFI     H1 1568   0.868   2.360   1.044 -0.9425 -1.0126 -0.6849
   90HFI     H2 1569   1.083   2.179   0.983  1.3941  0.5280 -0.7165
   91HFI     O1 1570   1.826   2.488   0.935  0.6313 -0.1373  0.0150
   91HFI     C1 1571   1.725   2.395   0.957 -0.7362 -0.0343 -0.2454
   91HFI     C2 1572   1.685   2.303   0.840  0.0507  0.0444 -0.2996
   91HFI     F1 1573   1.621   2.366   0.743 -0.8748 -0.1406  0.3095
   91HFI     F2 1574   1.620   2.195   0.880  0.1698 -0.5751 -0.1028
   91HFI     F3 1575   1.791   2.255   0.778 -0.0766  0.3360 -0.1764
   91HFI     C3 1576   1.596   2.476   1.004  0.4432  0.3212 -0.9886
   91HFI     F4 1577   1.578   2.585   0.932  0.1599 -0.2726 -0.5142
   91HFI     F5 1578   1.613   2.514   1.133 -0.0010  0.4324  0.0039
   91HFI     F6 1579   1.479   2.402   1.001 -0.2135 -0.0065 -0.0611
   91HFI     H1 1580   1.896   2.448   0.880  2.8945  0.0248  2.6479
   91HFI     H2 1581   1.757   2.323   1.034  2.3149 -0.6589 -2.0270
   92HFI     O1 1582   3.103   1.397   1.018  0.0454 -0.4730  0.2192
   92HFI     C1 1583   3.230   1.335   1.055 -0.1435 -0.0402  0.3044
   92HFI     C2 1584   3.348   1.393   0.969  0.3390  0.4735  0.2687
   92HFI     F1 1585   3.321   1.389   0.835 -0.1626 -0.1294  0.3092
   92HFI     F2 1586   3.458   1.326   0.983 -0.3270 -0.2486  0.2709
   92HFI     F3 1587   3.382   1.520   0.994  0.3613 -0.1276  0.7392
   92HFI     C3 1588   3.233   1.181   1.054 -0.0443  0.5484 -0.6011
   92HFI     F4 1589   3.243   1.129   0.931 -0.1478  0.6679 -0.0321
   92HFI     F5 1590   3.126   1.130   1.108 -0.6495 -0.0789 -0.1443
   92HFI     F6 1591   3.343   1.134   1.117 -0.5708 -0.2353  0.1255
   92HFI     H1 1592   3.101   1.398   0.920 -0.2309 -1.3121  0.2095
   92HFI     H2 1593   3.257   1.372   1.154  1.2710 -0.7689  0.2091
   93HFI     O1 1594   1.468   2.810   0.528 -0.2491  0.4480 -0.0772
   93HFI     C1 1595   1.400   2.709   0.450 -0.1338  0.4117 -0.5257
   93HFI     C2 1596   1.452   2.566   0.491 -0.1684  0.1567  0.3452
   93HFI     F1 1597   1.412   2.545   0.619  0.0202  0.1073 -0.6209
   93HFI     F2 1598   1.585   2.570   0.492 -0.1259  0.0130 -0.4423
   93HFI     F3 1599   1.412   2.460   0.418 -0.1948 -0.0281  0.0825
   93HFI     C3 1600   1.436   2.739   0.303  0.2893  0.2872  0.2572
   93HFI     F4 1601   1.572   2.721   0.275  0.3085 -0.3109 -0.2440
   93HFI     F5 1602   1.407   2.869   0.273  0.5235 -0.0617  0.1008
   93HFI     F6 1603   1.358   2.663   0.214  0.4283  0.3990  0.3638
   93HFI     H1 1604   1.428   2.796   0.616  1.1328  0.7857  0.6219
   93HFI     H2 1605   1.291   2.724   0.456 -0.3373 -0.6100 -1.4123
   94HFI     O1 1606   1.735   1.549   0.740  0.4328  0.0258  0.1288
   94HFI     C1 1607   1.785   1.409   0.735  0.5591  0.0514 -0.2702
   94HFI     C2 1608   1.745   1.314   0.850 -0.8404  0.4748  1.1142
   94HFI     F1 1609   1.631   1.350   0.913  0.3663  0.0597  0.0182
   94HFI     F2 1610   1.843   1.323   0.940  0.7992  1.1108  0.3230
   94HFI     F3 1611   1.736   1.185   0.811  0.1256 -0.0684  0.3222
   94HFI     C3 1612   1.936   1.402   0.694  0.6209  0.1266 -0.0336
   94HFI     F4 1613   1.951   1.458   0.574  0.1498  0.0863  0.6032
   94HFI     F5 1614   1.969   1.278   0.675  0.5260 -0.2340 -0.1615
   94HFI     F6 1615   2.022   1.467   0.782  0.5995  0.2618  0.0745
   94HFI     H1 1616   1.716   1.570   0.834 -0.7612 -0.5116  0.0044
   94HFI     H2 1617   1.735   1.358   0.651 -0.9994  0.3549  0.4518
   95HFI     O1 1618   0.923   3.140   1.123  0.7447  0.7892 -0.1490
   95HFI     C1 1619   0.947   3.220   1.009 -0.1172 -0.2643  0.2360
   95HFI     C2 1620   0.916   3.368   1.045 -0.0776  0.6128  0.1868
   95HFI     F1 1621   0.993   3.419   1.153  0.9599  0.0078 -0.2451
   95HFI     F2 1622   0.789   3.387   1.074  0.1448 -0.1122 -0.0845
   95HFI     F3 1623   0.934   3.454   0.946 -0.1957  0.6577  0.1996
   95HFI     C3 1624   0.866   3.181   0.876 -0.1066 -0.3166 -0.2186
   95HFI     F4 1625   0.734   3.224   0.875 -0.6229 -0.2203  0.2304
   95HFI     F5 1626   0.864   3.046   0.872 -0.0886  0.3337  0.5131
   95HFI     F6 1627   0.921   3.229   0.762  0.0071  0.2191 -0.4944
   95HFI     H1 1628   0.852   3.079   1.096  2.1432 -0.8963 -0.1328
   95HFI     H2 1629   1.055   3.218   0.989  0.2315  0.5589  1.9336
   96HFI     O1 1630   0.846   1.632   0.408 -0.3481  0.0032 -0.1465
   96HFI     C1 1631   0.847   1.507   0.493  0.2396  0.0906  0.4289
   96HFI     C2 1632   0.760   1.523   0.617 -0.3042  0.6621  0.0112
   96HFI     F1 1633   0.814   1.611   0.701 -0.2888 -0.4254  0.6412
   96HFI     F2 1634   0.745   1.414   0.697 -0.4320 -0.0832  0.3166
   96HFI     F3 1635   0.639   1.559   0.585 -0.2746  0.1475 -0.4614
   96HFI     C3 1636   0.995   1.479   0.537  0.4588  0.1381 -0.2884
   96HFI     F4 1637   1.008   1.402   0.641  0.6258  0.2556 -0.1996
   96HFI     F5 1638   1.065   1.595   0.552 -0.2528  0.4036  0.2785
   96HFI     F6 1639   1.052   1.418   0.437  0.3794 -0.3141 -0.3446
   96HFI     H1 1640   0.881   1.710   0.455 -1.8396 -0.6860  2.1521
   96HFI     H2 1641   0.815   1.422   0.432  1.0112  1.1456 -1.5073
   97HFI     O1 1642   0.497   1.113   1.520 -0.0474 -0.3265 -0.1146
   97HFI     C1 1643   0.622   1.054   1.519  0.0644 -0.4611 -0.2525
   97HFI     C2 1644   0.704   1.106   1.395 -0.2359 -0.4604  0.3255
   97HFI     F1 1645   0.635   1.079   1.280  0.4954  0.2702  0.2118
   97HFI     F2 1646   0.830   1.049   1.384 -0.5052  0.3370  0.4919
   97HFI     F3 1647   0.733   1.242   1.412 -0.0820  0.8090 -0.5865
   97HFI     C3 1648   0.608   0.898   1.505  0.0404 -0.7484 -0.5585
   97HFI     F4 1649   0.725   0.842   1.520 -0.2942  0.2308  0.0078
   97HFI     F5 1650   0.553   0.858   1.392 -0.1311  0.2363  0.6163
   97HFI     F6 1651   0.526   0.847   1.601  0.0072  0.5018  0.2668
   97HFI     H1 1652   0.443   1.077   1.448 -0.8659  2.4068 -0.9174
   97HFI     H2 1653   0.679   1.088   1.606 -1.2673 -1.1178  0.9026
   98HFI     O1 1654   0.641   3.196   1.302 -0.8337  0.0436  0.5026
   98HFI     C1 1655   0.520   3.156   1.372 -0.2313 -0.0020  0.2422
   98HFI     C2 1656   0.546   3.074   1.506  0.7356  0.0316  0.4401
   98HFI     F1 1657   0.442   3.079   1.586  0.1575 -0.6470 -0.3914
   98HFI     F2 1658   0.648   3.130   1.573  0.0293  0.3639 -0.2497
   98HFI     F3 1659   0.570   2.940   1.479 -0.1174 -0.4021 -0.7848
   98HFI     C3 1660   0.419   3.081   1.279 -0.5489 -0.0375  0.0835
   98HFI     F4 1661   0.472   2.966   1.224 -0.1533 -0.6186  0.3251
   98HFI     F5 1662   0.400   3.164   1.170  0.5360 -0.5634  0.5236
   98HFI     F6 1663   0.300   3.054   1.343 -0.0248  0.1973 -0.6601
   98HFI     H1 1664   0.704   3.240   1.361 -0.2920  0.2771 -0.2464
   98HFI     H2 1665   0.459   3.246   1.388 -1.0904 -1.0400  3.2339
   99HFI     O1 1666   2.871   2.191   0.911  0.1650  0.2348  0.5254
   99HFI     C1 1667   2.970   2.262   0.981 -0.3930  0.0032  0.1453
   99HFI     C2 1668   2.923   2.394   1.042  0.6459 -0.3322  0.8314
   99HFI     F1 1669   2.817   2.380   1.126 -0.3469  0.4464 -0.3990
   99HFI     F2 1670   2.888   2.485   0.948  0.0815 -0.6184  0.5518
   99HFI     F3 1671   3.010   2.456   1.123  0.2443  0.2671 -0.0947
   99HFI     C3 1672   3.102   2.282   0.896  0.2707  0.2044 -0.0926
   99HFI     F4 1673   3.071   2.342   0.782 -0.2163  0.0053 -0.3795
   99HFI     F5 1674   3.168   2.172   0.871  0.6342 -0.3670  0.1474
   99HFI     F6 1675   3.191   2.372   0.955  0.2533  0.2958 -0.5222
   99HFI     H1 1676   2.892   2.190   0.816  2.4527 -0.1859  1.0076
   99HFI     H2 1677   2.997   2.206   1.072  0.1608 -1.1535 -0.7053
  100HFI     O1 1678   1.654   2.721   1.442 -0.5111  0.1233 -0.4192
  100HFI     C1 1679   1.685   2.859   1.397 -0.1549 -0.1801  0.5094
  100HFI     C2 1680   1.777   2.872   1.263 -0.3655 -0.5636 -0.3289
  100HFI     F1 1681   1.907   2.891   1.296 -0.1718 -0.5142  0.2825
  100HFI     F2 1682   1.741   2.978   1.183  0.6073  0.1481 -0.3673
  100HFI     F3 1683   1.774   2.763   1.182  0.2924 -0.3579  0.2909
  100HFI     C3 1684   1.739   2.929   1.520  0.8187 -0.8204 -0.2954
  100HFI     F4 1685   1.785   3.057   1.502  0.3972  0.3034  0.0208
  100HFI     F5 1686   1.835   2.859   1.583 -0.5765 -0.2278  0.2051
  100HFI     F6 1687   1.635   2.934   1.612  0.0257 -0.5228 -0.4971
  100HFI     H1 1688   1.560   2.697   1.429 -0.0370 -1.5535 -0.8399
  100HFI     H2 1689   1.591   2.906   1.364 -0.4410 -0.0560  1.4984
  101HFI     O1 1690   2.197   2.179   0.823 -0.3633 -0.7201  0.0853
  101HFI     C1 1691   2.223   2.111   0.951  0.1824 -0.4653 -0.3222
  101HFI     C2 1692   2.151   2.177   1.076 -0.1881  0.7030  0.0454
  101HFI     F1 1693   2.020   2.188   1.036  0.6679  0.1800  0.2070
  101HFI     F2 1694   2.198   2.301   1.101 -0.1759 -0.3119 -0.6109
  101HFI     F3 1695   2.157   2.103   1.187 -0.4874  0.0397 -0.0023
  101HFI     C3 1696   2.368   2.084   0.961  0.0830 -0.2915  0.7179
  101HFI     F4 1697   2.432   2.206   0.955  0.2262 -0.8410  0.1240
  101HFI     F5 1698   2.413   2.006   0.860  0.1121 -0.5479 -0.1680
  101HFI     F6 1699   2.405   2.025   1.079 -0.0040 -0.0050  0.1681
  101HFI     H1 1700   2.239   2.266   0.824 -0.5155 -0.5199 -3.4291
  101HFI     H2 1701   2.177   2.012   0.938  0.4538 -0.5655 -0.5253
  102HFI     O1 1702   0.599   1.466   1.135 -0.5262  0.1918 -0.3780
  102HFI     C1 1703   0.635   1.532   1.008  0.2666  0.2378 -0.5417
  102HFI     C2 1704   0.702   1.674   1.045 -0.2388  0.9515 -0.1585
  102HFI     F1 1705   0.799   1.656   1.128 -0.1523  0.0293 -0.1067
  102HFI     F2 1706   0.616   1.760   1.096  0.7163 -0.1705 -0.4312
  102HFI     F3 1707   0.746   1.740   0.937  0.6672  0.4093  0.0388
  102HFI     C3 1708   0.509   1.552   0.916  0.2169 -0.3108  0.1725
  102HFI     F4 1709   0.414   1.612   0.991 -0.1457 -0.0676 -0.2175
  102HFI     F5 1710   0.463   1.436   0.870 -0.0093 -0.6176 -0.7318
  102HFI     F6 1711   0.540   1.637   0.815 -0.2762 -0.1018 -0.0243
  102HFI     H1 1712   0.584   1.538   1.199  1.3633  0.0213  0.2932
  102HFI     H2 1713   0.710   1.468   0.962  1.9148  2.0927 -0.5194
  103HFI     O1 1714   2.466   2.724   1.593 -0.3488 -0.1910  0.4623
  103HFI     C1 1715   2.478   2.651   1.466 -0.2637 -0.0114  0.2661
  103HFI     C2 1716   2.626   2.659   1.415  0.6009  0.3051  0.0764
  103HFI     F1 1717   2.695   2.572   1.488  0.1087  0.0115 -0.6015
  103HFI     F2 1718   2.685   2.779   1.424 -0.4185 -0.0678  0.0214
  103HFI     F3 1719   2.623   2.630   1.284  0.0618  0.1779 -0.2063
  103HFI     C3 1720   2.378   2.688   1.360 -0.2686  0.4963 -0.2610
  103HFI     F4 1721   2.354   2.584   1.278  0.1084  0.1140  0.2776
  103HFI     F5 1722   2.416   2.795   1.289 -0.3811  0.1532 -0.2589
  103HFI     F6 1723   2.256   2.712   1.416 -0.1884  0.1744  0.4180
  103HFI     H1 1724   2.485   2.817   1.570 -0.6421  0.3044  2.1372
  103HFI     H2 1725   2.446   2.548   1.485  0.5889 -0.3395 -0.0465
  104HFI     O1 1726   3.231   0.692   0.150 -0.1442 -0.3869  0.6645
  104HFI     C1 1727   3.231   0.787   0.263 -0.1235  0.0445 -0.0825
  104HFI     C2 1728   3.265   0.931   0.207  0.4743  0.2139  0.9670
  104HFI     F1 1729   3.143   0.980   0.172 -0.1282  0.2320  0.0084
  104HFI     F2 1730   3.341   0.924   0.092  0.2970  0.4264 -0.2725
  104HFI     F3 1731   3.328   1.012   0.294 -0.0542 -0.1309 -0.0242
  104HFI     C3 1732   3.340   0.737   0.370  1.1360 -0.2514 -0.1689
  104HFI     F4 1733   3.470   0.740   0.333  0.3124 -0.3050  0.5030
  104HFI     F5 1734   3.304   0.613   0.396  0.3996 -0.0948 -0.6332
  104HFI     F6 1735   3.327   0.797   0.489  0.4874 -0.3194  0.3880
  104HFI     H1 1736   3.299   0.716   0.084 -2.6742 -0.3036 -1.9777
  104HFI     H2 1737   3.136   0.802   0.316  0.6723  2.1541  0.8289
  105HFI     O1 1738   2.784   0.328   0.394 -0.3957 -0.0816  0.1492
  105HFI     C1 1739   2.868   0.451   0.422  0.2886  0.0732  0.2323
  105HFI     C2 1740   2.889   0.480   0.576  0.0960 -0.0595  0.8225
  105HFI     F1 1741   2.778   0.481   0.640  0.2890  0.3560 -0.0212
  105HFI     F2 1742   2.949   0.601   0.592  0.0424 -0.6005 -0.3047
  105HFI     F3 1743   2.957   0.380   0.641 -0.4452  0.0088 -0.3226
  105HFI     C3 1744   2.805   0.575   0.344  1.1649 -0.2041  0.3097
  105HFI     F4 1745   2.894   0.673   0.325  0.4575 -0.3156 -0.1353
  105HFI     F5 1746   2.695   0.624   0.409  0.2453  0.6543 -0.7519
  105HFI     F6 1747   2.768   0.538   0.220  0.4635  0.2784 -0.1908
  105HFI     H1 1748   2.695   0.338   0.431 -0.9438 -2.1707 -0.5450
  105HFI     H2 1749   2.967   0.437   0.378  0.6269  1.6659  0.4352
  106HFI     O1 1750   1.777   0.312   1.113  0.5182 -0.8162  0.0531
  106HFI     C1 1751   1.920   0.271   1.110  0.4313 -0.8871  0.1516
  106HFI     C2 1752   2.002   0.353   1.010 -0.1373  0.1902 -0.1677
  106HFI     F1 1753   1.978   0.489   1.022 -0.3434 -0.4883  0.2046
  106HFI     F2 1754   1.974   0.323   0.881 -0.5789 -0.3925  0.0928
  106HFI     F3 1755   2.137   0.331   1.035  0.0027  0.5352  0.0849
  106HFI     C3 1756   1.943   0.117   1.114 -0.5352 -0.3970 -0.0497
  106HFI     F4 1757   2.074   0.086   1.128 -0.1001 -0.2037  0.1190
  106HFI     F5 1758   1.894   0.056   1.000 -0.3956 -0.4543 -0.4656
  106HFI     F6 1759   1.883   0.058   1.219 -0.5053 -0.0759  0.1852
  106HFI     H1 1760   1.722   0.265   1.178 -0.2972  2.1570  1.5889
  106HFI     H2 1761   1.954   0.307   1.208  2.6220 -0.0276 -0.8803
  107HFI     O1 1762   2.105   2.596   0.881  0.3000 -0.1682  0.6706
  107HFI     C1 1763   2.249   2.628   0.907  0.9374 -0.0595 -0.3219
  107HFI     C2 1764   2.277   2.780   0.922  0.4987 -0.5928 -0.2204
  107HFI     F1 1765   2.233   2.850   0.813 -0.1360 -0.7578 -0.0809
  107HFI     F2 1766   2.402   2.803   0.944 -0.5448 -0.0443 -0.6781
  107HFI     F3 1767   2.197   2.821   1.023 -0.0423  0.0439 -0.5940
  107HFI     C3 1768   2.347   2.554   0.805  0.7851  0.0897  0.2875
  107HFI     F4 1769   2.355   2.622   0.687 -0.2947  0.2028 -0.2665
  107HFI     F5 1770   2.323   2.424   0.780  0.0687 -0.4842 -0.4850
  107HFI     F6 1771   2.477   2.557   0.853  0.2541 -0.4520 -0.0502
  107HFI     H1 1772   2.052   2.669   0.916 -1.0271 -1.8862  2.4108
  107HFI     H2 1773   2.286   2.589   1.003 -1.8590 -1.6967  0.1396
  108HFI     O1 1774   2.823   1.646   0.940  0.2937  0.2325 -0.0663
  108HFI     C1 1775   2.868   1.761   1.015  0.3275  0.3796 -0.3304
  108HFI     C2 1776   2.754   1.863   1.041 -0.2107  0.2726  0.7789
  108HFI     F1 1777   2.793   1.966   1.122 -0.1083 -0.6253  0.0996
  108HFI     F2 1778   2.663   1.798   1.110 -0.2565 -0.6973  0.1317
  108HFI     F3 1779   2.704   1.908   0.927 -0.2235  0.1666 -0.0489
  108HFI     C3 1780   2.994   1.832   0.959  0.1756 -0.6681  0.0308
  108HFI     F4 1781   2.970   1.885   0.834 -0.4571  0.4622 -0.2322
  108HFI     F5 1782   3.095   1.739   0.938  0.2861 -0.0730 -0.0334
  108HFI     F6 1783   3.048   1.928   1.045  0.2795  0.6358  0.1354
  108HFI     H1 1784   2.805   1.680   0.851  1.6314 -1.9305 -1.2152
  108HFI     H2 1785   2.891   1.725   1.116 -0.5650  2.8036  0.7736
  109HFI     O1 1786   0.645   2.145   1.351 -0.6180  0.8655 -0.0782
  109HFI     C1 1787   0.784   2.122   1.383  0.2469 -0.7041 -0.1929
  109HFI     C2 1788   0.839   2.002   1.297  0.8706 -0.3655  0.1687
  109HFI     F1 1789   0.796   1.993   1.169  0.0167  0.0412 -0.5651
  109HFI     F2 1790   0.803   1.879   1.351 -0.5573  0.6779 -0.0778
  109HFI     F3 1791   0.973   2.011   1.304 -0.2983  0.8802 -0.0089
  109HFI     C3 1792   0.807   2.107   1.530  0.6926 -0.1839 -0.1984
  109HFI     F4 1793   0.940   2.106   1.560  0.7062  0.2412  0.3798
  109HFI     F5 1794   0.750   1.999   1.589 -0.4293 -0.1329  0.5605
  109HFI     F6 1795   0.760   2.215   1.593 -0.3077  0.4390  0.9389
  109HFI     H1 1796   0.595   2.062   1.346 -0.8798  0.9174  1.3886
  109HFI     H2 1797   0.851   2.201   1.346  0.7824 -0.6903  0.7879
  110HFI     O1 1798   2.560   1.067   1.113 -0.1607  0.1584  0.1684
  110HFI     C1 1799   2.643   1.062   0.994 -0.1205 -0.7963 -0.1242
  110HFI     C2 1800   2.680   0.919   0.954  0.4506  0.3391 -0.2492
  110HFI     F1 1801   2.756   0.853   1.047 -0.0314 -0.3004  0.3171
  110HFI     F2 1802   2.742   0.912   0.836 -0.6807 -0.2931  0.0226
  110HFI     F3 1803   2.563   0.859   0.941  0.3824  0.4827  0.6782
  110HFI     C3 1804   2.776   1.150   1.005 -0.4819 -0.2537  0.2957
  110HFI     F4 1805   2.759   1.265   1.071  0.3601 -0.4454 -0.6187
  110HFI     F5 1806   2.827   1.174   0.887  0.2427 -0.4064  0.0594
  110HFI     F6 1807   2.866   1.084   1.081 -0.6084  0.4100 -0.1310
  110HFI     H1 1808   2.623   1.089   1.184 -0.8570  2.2210  0.1876
  110HFI     H2 1809   2.588   1.103   0.908  2.9731 -0.2042 -1.9153
  111HFI     O1 1810   1.310   2.398   1.598  0.1399  0.1613  0.1276
  111HFI     C1 1811   1.237   2.438   1.473  0.2418 -0.7352 -0.0482
  111HFI     C2 1812   1.114   2.354   1.437  0.2064 -0.6124 -0.0813
  111HFI     F1 1813   1.027   2.359   1.545  0.4346 -0.1871  0.5808
  111HFI     F2 1814   1.152   2.225   1.417 -0.2914 -0.3115  0.1299
  111HFI     F3 1815   1.043   2.391   1.330  0.1548 -0.1956  0.5678
  111HFI     C3 1816   1.329   2.456   1.355  0.5821 -0.1756  0.4122
  111HFI     F4 1817   1.373   2.343   1.304  0.1459  0.4089  0.0255
  111HFI     F5 1818   1.426   2.530   1.396 -0.0513  0.4631 -0.2098
  111HFI     F6 1819   1.288   2.526   1.245 -0.1349  0.8185  0.3502
  111HFI     H1 1820   1.369   2.321   1.582  1.0393  0.4709  1.8921
  111HFI     H2 1821   1.195   2.535   1.504  1.2986 -0.4465  0.4787
  112HFI     O1 1822   0.432   0.112   1.075 -0.4330 -0.3145 -0.2019
  112HFI     C1 1823   0.327   0.056   0.988  0.0174  0.4052 -0.1946
  112HFI     C2 1824   0.387  -0.016   0.860  0.0745 -0.2648 -0.3792
  112HFI     F1 1825   0.297  -0.088   0.790  0.0011 -0.2786 -0.1447
  112HFI     F2 1826   0.484  -0.100   0.892 -0.3986  0.8704 -0.0027
  112HFI     F3 1827   0.437   0.077   0.771  0.1313  0.1712 -0.3378
  112HFI     C3 1828   0.210   0.159   0.966 -0.5869 -0.7583  0.0178
  112HFI     F4 1829   0.271   0.281   0.959 -0.0486  0.3235  0.0642
  112HFI     F5 1830   0.117   0.156   1.067  0.0343  0.7611  0.5140
  112HFI     F6 1831   0.153   0.132   0.845  0.0276 -0.4861  0.2073
  112HFI     H1 1832   0.494   0.152   1.012  2.5187 -1.3474  1.8923
  112HFI     H2 1833   0.287  -0.031   1.041 -2.0803  1.1908 -0.4600
  113HFI     O1 1834   1.888   2.567   1.529  0.0136 -0.0521 -0.7008
  113HFI     C1 1835   1.900   2.425   1.558 -0.6001  0.2730  0.4305
  113HFI     C2 1836   2.022   2.360   1.488 -0.4399 -0.3713 -0.1646
  113HFI     F1 1837   2.126   2.442   1.525 -0.0073  0.2993  0.5137
  113HFI     F2 1838   2.006   2.368   1.357 -0.5374  0.0518  0.0492
  113HFI     F3 1839   2.053   2.232   1.528 -0.1307 -0.7049 -0.0383
  113HFI     C3 1840   1.770   2.349   1.524  0.4441  0.3756 -0.3472
  113HFI     F4 1841   1.744   2.358   1.390  0.0016 -0.2353 -0.2558
  113HFI     F5 1842   1.655   2.394   1.584  0.5578  0.2403  0.4076
  113HFI     F6 1843   1.785   2.218   1.566  0.3660 -0.3004 -0.0911
  113HFI     H1 1844   1.796   2.597   1.519 -0.3503 -0.3727  1.5302
  113HFI     H2 1845   1.919   2.417   1.666  1.6712 -0.1514  0.0413
  114HFI     O1 1846   1.993   0.982   0.514 -0.0624  0.7581 -0.2214
  114HFI     C1 1847   1.887   0.909   0.451  0.2781  0.2342  0.0662
  114HFI     C2 1848   1.838   0.965   0.310 -0.4880 -0.5304 -0.0452
  114HFI     F1 1849   1.758   1.077   0.324 -0.4664 -0.0712 -0.2013
  114HFI     F2 1850   1.760   0.873   0.243 -0.0183 -0.2768  0.1683
  114HFI     F3 1851   1.941   0.990   0.220  0.1995  0.1923 -0.2556
  114HFI     C3 1852   1.771   0.882   0.546  0.3419 -0.1757 -0.0201
  114HFI     F4 1853   1.721   0.997   0.591  0.1949 -0.3205 -0.6640
  114HFI     F5 1854   1.799   0.808   0.656 -0.1159  0.0358  0.6899
  114HFI     F6 1855   1.668   0.822   0.493  0.2772  0.1076  0.3881
  114HFI     H1 1856   1.960   1.066   0.550  1.4354  0.5289  1.8276
  114HFI     H2 1857   1.928   0.810   0.434  0.9135  0.4816  0.1576
  115HFI     O1 1858   3.125   0.329   1.551  0.2176  0.1862 -0.0550
  115HFI     C1 1859   3.067   0.450   1.502  0.6220 -0.2936 -0.5570
  115HFI     C2 1860   2.986   0.417   1.376 -0.5746 -0.7156 -0.2207
  115HFI     F1 1861   2.881   0.333   1.400  0.0414 -0.0326 -0.4254
  115HFI     F2 1862   3.063   0.348   1.290 -0.0568  0.2962  0.4627
  115HFI     F3 1863   2.939   0.531   1.320  0.6677  0.5983 -0.2727
  115HFI     C3 1864   3.181   0.548   1.477  0.2902  0.3981  0.1679
  115HFI     F4 1865   3.267   0.530   1.371  0.1392  0.1925  0.3178
  115HFI     F5 1866   3.265   0.553   1.588  0.5079 -0.1294  0.5677
  115HFI     F6 1867   3.129   0.670   1.460 -0.3004 -0.8879  0.1363
  115HFI     H1 1868   3.173   0.283   1.480  0.9417  0.2745  0.3772
  115HFI     H2 1869   3.001   0.491   1.579  0.6602 -0.5147 -0.4058
  116HFI     O1 1870   1.710   1.634   0.998  0.4715 -0.8056 -0.5696
  116HFI     C1 1871   1.761   1.764   1.042 -0.5593 -0.0499 -0.2436
  116HFI     C2 1872   1.665   1.852   1.133 -0.6488  0.5734  0.3345
  116HFI     F1 1873   1.601   1.779   1.217 -0.1825  0.0058  0.3534
  116HFI     F2 1874   1.579   1.922   1.068  0.2189  0.4089  0.4364
  116HFI     F3 1875   1.735   1.939   1.205 -0.0637  0.0853 -0.2949
  116HFI     C3 1876   1.811   1.847   0.924  0.7355 -0.2659  0.5117
  116HFI     F4 1877   1.718   1.883   0.828 -0.0799  0.0555 -0.1669
  116HFI     F5 1878   1.910   1.774   0.864 -0.3673 -0.0481  0.3597
  116HFI     F6 1879   1.866   1.961   0.963 -0.0371 -0.5384  0.0804
  116HFI     H1 1880   1.652   1.600   1.067 -1.7941  0.9362 -1.5311
  116HFI     H2 1881   1.852   1.752   1.101 -0.9576  2.2925  0.9160
  117HFI     O1 1882   1.886   1.760   0.541 -0.5120  0.1963 -0.5551
  117HFI     C1 1883   1.983   1.822   0.468  0.1247 -0.2597 -0.3929
  117HFI     C2 1884   2.060   1.940   0.546  0.4166 -0.2324  0.6959
  117HFI     F1 1885   2.094   1.901   0.671  0.8791 -0.0732  0.2757
  117HFI     F2 1886   1.983   2.052   0.547 -0.0592  0.1898  0.0685
  117HFI     F3 1887   2.171   1.969   0.484 -0.3597 -0.0125 -0.5899
  117HFI     C3 1888   1.918   1.859   0.325 -0.6168 -0.0037 -0.1925
  117HFI     F4 1889   1.793   1.914   0.328 -0.1066  0.0027  0.3675
  117HFI     F5 1890   1.913   1.738   0.259  0.4793 -0.0012 -0.3816
  117HFI     F6 1891   1.996   1.941   0.255  0.4207 -0.4976  0.2434
  117HFI     H1 1892   1.887   1.664   0.527 -0.9748  0.0743  0.2173
  117HFI     H2 1893   2.068   1.759   0.440  1.8695  1.7418  0.2742
  118HFI     O1 1894   0.929   1.524   2.420 -0.1192 -0.3113 -0.0953
  118HFI     C1 1895   1.062   1.582   2.403 -0.2598  0.9193  0.2599
  118HFI     C2 1896   1.105   1.567   2.254  0.4027  0.2810  0.1060
  118HFI     F1 1897   1.097   1.437   2.222  0.1125 -0.4540 -0.3488
  118HFI     F2 1898   1.236   1.609   2.228  0.2409  0.3198  0.0005
  118HFI     F3 1899   1.022   1.635   2.173  0.3327  0.5131  0.1288
  118HFI     C3 1900   1.176   1.543   2.508  0.0940 -0.3272  0.2178
  118HFI     F4 1901   1.293   1.622   2.499  0.1752 -0.2981 -0.0282
  118HFI     F5 1902   1.205   1.408   2.486 -0.0880  0.1538  0.4495
  118HFI     F6 1903   1.129   1.548   2.637  0.0181  0.4225  0.5950
  118HFI     H1 1904   0.927   1.451   2.356 -1.9950 -1.0996  0.8164
  118HFI     H2 1905   1.062   1.691   2.413  0.5033  0.9673 -0.1863
  119HFI     O1 1906   1.568   0.978   2.988  0.5774  0.2004  0.3579
  119HFI     C1 1907   1.637   0.856   2.936  0.2122 -0.5865  0.6131
  119HFI     C2 1908   1.711   0.776   3.045 -0.7403 -0.1937  1.0153
  119HFI     F1 1909   1.621   0.748   3.142  0.4182  0.3345 -0.0363
  119HFI     F2 1910   1.820   0.836   3.094  0.4465 -0.0415 -0.0004
  119HFI     F3 1911   1.744   0.652   2.994 -0.6201 -0.1667  0.0208
  119HFI     C3 1912   1.733   0.892   2.823 -0.1398 -0.6345  1.0015
  119HFI     F4 1913   1.816   0.975   2.868 -0.1381  0.0641  0.1765
  119HFI     F5 1914   1.662   0.957   2.723 -0.4478  0.5813  0.4980
  119HFI     F6 1915   1.801   0.782   2.773  0.0850 -0.0988  0.2791
  119HFI     H1 1916   1.630   1.036   3.036 -1.0153  0.6301  1.9373
  119HFI     H2 1917   1.567   0.786   2.889  0.1899 -0.1565  0.0054
  120HFI     O1 1918   2.342   0.498   2.425 -0.1951 -0.2523  0.4433
  120HFI     C1 1919   2.473   0.507   2.364  0.1250  0.5241  0.1490
  120HFI     C2 1920   2.576   0.438   2.455 -0.3516 -0.3400 -0.4059
  120HFI     F1 1921   2.542   0.308   2.476 -0.2429  0.1780 -0.0099
  120HFI     F2 1922   2.578   0.490   2.576 -0.0481 -0.0477 -0.2625
  120HFI     F3 1923   2.702   0.445   2.407 -0.1214  0.3179  0.1252
  120HFI     C3 1924   2.505   0.655   2.336 -0.6666 -0.1817 -0.1029
  120HFI     F4 1925   2.626   0.681   2.277 -0.3705  0.1549 -0.1049
  120HFI     F5 1926   2.511   0.723   2.452 -1.0019  0.1817  0.4038
  120HFI     F6 1927   2.409   0.711   2.259 -0.2309 -0.4367 -0.5470
  120HFI     H1 1928   2.341   0.554   2.505 -1.8538  1.5368 -0.7618
  120HFI     H2 1929   2.478   0.438   2.280  1.3576 -1.8900  2.1389
  121HFI     O1 1930   2.013   0.652   2.388  0.7308 -0.2160 -0.1114
  121HFI     C1 1931   2.035   0.784   2.321 -0.0349  0.9020 -0.5416
  121HFI     C2 1932   2.128   0.893   2.395 -0.2623 -0.0692  0.4177
  121HFI     F1 1933   2.192   0.965   2.302 -0.0366  0.2267  0.3479
  121HFI     F2 1934   2.220   0.832   2.478  0.2164  0.1562  0.4298
  121HFI     F3 1935   2.057   0.991   2.468 -0.5501 -0.0314  0.1423
  121HFI     C3 1936   1.896   0.839   2.279  0.5602 -0.2340  0.4094
  121HFI     F4 1937   1.820   0.851   2.389  0.2034 -0.0678 -0.2603
  121HFI     F5 1938   1.835   0.749   2.200 -0.4799  0.6122 -0.2036
  121HFI     F6 1939   1.910   0.964   2.220 -0.1292 -0.0792  0.7083
  121HFI     H1 1940   1.936   0.605   2.351  0.8939 -1.0182  0.5581
  121HFI     H2 1941   2.078   0.770   2.222  2.0413  0.6783  0.3779
  122HFI     O1 1942   0.686   3.169   2.543  0.2099 -0.5060 -0.4122
  122HFI     C1 1943   0.576   3.134   2.470  0.0549  0.1987 -0.3865
  122HFI     C2 1944   0.508   2.999   2.517 -0.2230  1.3552  0.3326
  122HFI     F1 1945   0.495   3.007   2.650  0.0136  0.2103  0.2973
  122HFI     F2 1946   0.587   2.884   2.495  0.3352  0.4139  0.6267
  122HFI     F3 1947   0.388   2.982   2.463  0.5520  0.4599 -0.1841
  122HFI     C3 1948   0.612   3.142   2.321  0.3924 -0.3331 -0.1734
  122HFI     F4 1949   0.497   3.143   2.260  0.0948 -0.6234  0.6350
  122HFI     F5 1950   0.678   3.037   2.279  0.2462  0.6972 -0.6498
  122HFI     F6 1951   0.684   3.257   2.291  0.0608 -0.4294  0.7740
  122HFI     H1 1952   0.747   3.209   2.478  0.1666 -0.5756 -0.4959
  122HFI     H2 1953   0.495   3.206   2.488 -0.5823 -0.5735 -0.1008
  123HFI     O1 1954   2.423   2.640   3.126 -0.5998 -0.3840 -0.2612
  123HFI     C1 1955   2.451   2.781   3.127 -0.7862 -0.1552 -0.5067
  123HFI     C2 1956   2.358   2.850   3.226  0.3406  0.0228  0.2304
  123HFI     F1 1957   2.371   2.806   3.347 -0.1897  0.4536 -0.1941
  123HFI     F2 1958   2.231   2.839   3.187  0.3295 -0.2613  0.1382
  123HFI     F3 1959   2.378   2.985   3.224  0.1194  0.2631  0.5277
  123HFI     C3 1960   2.457   2.846   2.983 -0.2564 -0.3909 -0.5371
  123HFI     F4 1961   2.539   2.760   2.902 -0.0085  0.7078 -0.2806
  123HFI     F5 1962   2.520   2.965   2.986 -0.4785  0.4477  0.4933
  123HFI     F6 1963   2.329   2.852   2.924  0.3108  0.1085 -0.4302
  123HFI     H1 1964   2.369   2.618   3.204 -0.5511  0.4825  0.0284
  123HFI     H2 1965   2.551   2.797   3.168 -0.0652 -3.0521 -1.0333
  124HFI     O1 1966   2.077   2.078   3.315  0.0935 -0.5434 -0.2744
  124HFI     C1 1967   1.955   2.020   3.377 -0.2066  0.0225  0.4974
  124HFI     C2 1968   1.864   1.953   3.276  0.0838  0.5596 -0.7539
  124HFI     F1 1969   1.917   1.847   3.214 -0.0109  0.4975 -0.2267
  124HFI     F2 1970   1.813   2.040   3.187 -0.2920  0.4258  0.1764
  124HFI     F3 1971   1.762   1.892   3.341  0.1847 -0.3358 -0.2815
  124HFI     C3 1972   1.876   2.118   3.459 -0.1347 -0.0551  0.1375
  124HFI     F4 1973   1.796   2.194   3.384 -0.6062 -0.2908  0.6817
  124HFI     F5 1974   1.974   2.194   3.518  0.0621  0.2497  0.2173
  124HFI     F6 1975   1.797   2.070   3.553  0.0906  0.0915 -0.3588
  124HFI     H1 1976   2.141   2.011   3.287 -0.1038 -0.4824 -0.8892
  124HFI     H2 1977   1.981   1.942   3.449 -2.3457 -0.3449  0.9132
  125HFI     O1 1978   2.819   2.714   3.552 -0.5129  0.4024  0.3613
  125HFI     C1 1979   2.847   2.719   3.696  0.4200 -0.0671 -0.0691
  125HFI     C2 1980   2.713   2.665   3.780  0.0377 -0.4420 -0.2716
  125HFI     F1 1981   2.651   2.555   3.728 -0.2647 -0.7362  0.1219
  125HFI     F2 1982   2.620   2.766   3.781  0.4247 -0.7832 -0.0523
  125HFI     F3 1983   2.759   2.643   3.910  0.0888  0.5053 -0.2611
  125HFI     C3 1984   2.906   2.856   3.735 -0.7031  0.0183 -0.0507
  125HFI     F4 1985   2.813   2.956   3.724  0.0226  0.7756 -0.0281
  125HFI     F5 1986   3.011   2.883   3.660 -0.2808  0.3825  0.1388
  125HFI     F6 1987   2.944   2.862   3.863 -0.6041 -0.0765  0.2915
  125HFI     H1 1988   2.731   2.673   3.541 -1.7878  3.5771 -1.9841
  125HFI     H2 1989   2.918   2.639   3.720 -2.6491 -2.6748  0.6318
  126HFI     O1 1990   3.040   1.099   2.456 -0.0968  0.0403 -0.5868
  126HFI     C1 1991   3.121   0.985   2.397  0.1551 -0.7297 -0.3348
  126HFI     C2 1992   3.046   0.897   2.292  0.1341 -0.1985 -0.3035
  126HFI     F1 1993   2.954   0.813   2.359 -0.1366  0.1444  0.9902
  126HFI     F2 1994   3.130   0.815   2.221 -0.1626 -0.3756  0.1586
  126HFI     F3 1995   2.974   0.975   2.206 -0.2150  0.3540 -0.2880
  126HFI     C3 1996   3.189   0.907   2.504 -0.0555  0.4117 -0.3480
  126HFI     F4 1997   3.114   0.847   2.599  0.2464  0.0183 -0.0737
  126HFI     F5 1998   3.271   0.994   2.567  0.2270 -0.4294  0.2160
  126HFI     F6 1999   3.268   0.815   2.458  0.1815  0.4241 -0.5120
  126HFI     H1 2000   3.086   1.182   2.476 -1.9426  0.6232  1.4330
  126HFI     H2 2001   3.198   1.023   2.329 -1.0401  0.2719 -1.1613
  127HFI     O1 2002   0.986   1.489   3.683  0.0950 -0.5202  0.1276
  127HFI     C1 2003   1.059   1.433   3.799 -0.9241 -1.1367  0.1895
  127HFI     C2 2004   0.969   1.352   3.894  0.1693  0.4621  0.7824
  127HFI     F1 2005   0.898   1.266   3.821  0.3659  0.3014  0.2554
  127HFI     F2 2006   0.871   1.425   3.956  0.4232  0.4540 -0.1231
  127HFI     F3 2007   1.046   1.291   3.981 -0.3563 -0.5322  0.7858
  127HFI     C3 2008   1.143   1.541   3.868 -0.8613 -0.4471  0.6132
  127HFI     F4 2009   1.064   1.635   3.923 -0.3016 -0.2839 -0.3067
  127HFI     F5 2010   1.218   1.607   3.775  0.1801 -0.3390  0.3266
  127HFI     F6 2011   1.222   1.485   3.955  0.7788  0.9785  0.1665
  127HFI     H1 2012   0.961   1.580   3.706 -1.1485 -0.5070 -1.1836
  127HFI     H2 2013   1.132   1.359   3.764  1.2823  0.9117  0.3450
  128HFI     O1 2014   1.440   0.628   2.516  0.3620 -0.1857 -0.1511
  128HFI     C1 2015   1.539   0.598   2.412 -0.2087 -0.1576  0.6818
  128HFI     C2 2016   1.483   0.524   2.284  0.1605 -0.3881  0.1318
  128HFI     F1 2017   1.370   0.581   2.241 -0.2590  0.3119 -0.2913
  128HFI     F2 2018   1.454   0.398   2.310  0.3069 -0.0821 -0.3868
  128HFI     F3 2019   1.571   0.530   2.182 -0.2277  0.1637  0.9071
  128HFI     C3 2020   1.669   0.539   2.459  0.5046 -0.0040 -0.5135
  128HFI     F4 2021   1.760   0.533   2.362 -0.2437  0.1284 -0.1423
  128HFI     F5 2022   1.659   0.412   2.510 -0.7139  0.1216  0.5031
  128HFI     F6 2023   1.719   0.615   2.557 -0.0468  0.6858 -0.1894
  128HFI     H1 2024   1.427   0.545   2.564  0.5876  0.3558  0.8656
  128HFI     H2 2025   1.565   0.697   2.371  0.4326  0.4500  2.4958
  129HFI     O1 2026   2.726   0.144   2.923 -0.5740 -0.1102 -0.3295
  129HFI     C1 2027   2.744   0.279   2.981 -0.1408  0.5874 -0.6797
  129HFI     C2 2028   2.880   0.298   3.054  0.5625 -0.5693 -0.4149
  129HFI     F1 2029   2.978   0.311   2.965 -0.4815 -0.4724 -0.1661
  129HFI     F2 2030   2.920   0.194   3.133  0.7305  0.3427 -0.2164
  129HFI     F3 2031   2.875   0.410   3.129 -0.2999  0.2408  0.2515
  129HFI     C3 2032   2.626   0.312   3.067  0.6076 -0.2297  0.1372
  129HFI     F4 2033   2.506   0.256   3.023  0.0619  0.1424  0.0650
  129HFI     F5 2034   2.602   0.441   3.080  0.5455 -0.5805  0.0229
  129HFI     F6 2035   2.639   0.259   3.193 -0.4610 -0.6077  0.1719
  129HFI     H1 2036   2.632   0.124   2.908 -0.4256 -1.3179  0.2359
  129HFI     H2 2037   2.736   0.350   2.898  0.8050  0.2277 -1.0818
  130HFI     O1 2038   2.730   0.162   0.038 -0.1511 -0.6911 -0.4727
  130HFI     C1 2039   2.763   0.278  -0.056  0.1686 -1.2551 -0.5725
  130HFI     C2 2040   2.730   0.251  -0.202  0.2671  0.9297  0.0655
  130HFI     F1 2041   2.594   0.224  -0.222 -0.1721  0.4420 -0.5569
  130HFI     F2 2042   2.801   0.147  -0.261 -0.0994 -0.2657  0.3419
  130HFI     F3 2043   2.751   0.357  -0.277 -0.2220  0.0611  0.0481
  130HFI     C3 2044   2.909   0.334  -0.031 -0.0249  0.5243  0.0389
  130HFI     F4 2045   3.008   0.261  -0.087 -0.9284  0.0447 -0.0254
  130HFI     F5 2046   2.927   0.337   0.101  0.1403 -0.3142  0.3638
  130HFI     F6 2047   2.910   0.460  -0.084  0.3668  0.3893 -0.5286
  130HFI     H1 2048   2.746   0.192   0.129 -3.3434  1.5518 -0.5569
  130HFI     H2 2049   2.698   0.365  -0.040  0.3792 -1.2869  0.4379
  131HFI     O1 2050   1.046   1.353   3.381 -0.3210 -0.0515  0.0851
  131HFI     C1 2051   0.901   1.319   3.362 -0.5297  0.8870 -0.1916
  131HFI     C2 2052   0.873   1.188   3.280 -0.2721 -0.6021 -0.5038
  131HFI     F1 2053   0.974   1.111   3.308  0.7341 -0.0299 -0.3264
  131HFI     F2 2054   0.879   1.222   3.149 -0.8031  0.1715 -0.7223
  131HFI     F3 2055   0.756   1.128   3.307 -0.0372 -0.1070  0.5950
  131HFI     C3 2056   0.818   1.438   3.323  0.1305 -0.4141 -0.4742
  131HFI     F4 2057   0.876   1.500   3.216 -0.5848  0.4073 -0.4596
  131HFI     F5 2058   0.808   1.519   3.428 -0.0153  0.8532  0.4425
  131HFI     F6 2059   0.693   1.396   3.278  0.0197 -0.2296  1.2101
  131HFI     H1 2060   1.054   1.447   3.357 -0.4900 -0.4049 -1.4059
  131HFI     H2 2061   0.863   1.289   3.460 -0.2483  2.3036  0.3649
  132HFI     O1 2062   1.720   0.516   0.206 -0.0093 -0.2268 -0.1151
  132HFI     C1 2063   1.832   0.470   0.125 -0.1845  0.1783 -0.1796
  132HFI     C2 2064   1.976   0.494   0.187 -0.0570  0.5146 -0.0833
  132HFI     F1 2065   1.990   0.424   0.302  0.6730  0.3055  0.1567
  132HFI     F2 2066   1.998   0.627   0.213  0.5899 -0.2617 -0.2411
  132HFI     F3 2067   2.074   0.458   0.108 -0.3071 -0.6861  0.2778
  132HFI     C3 2068   1.813   0.517  -0.020  0.1976  0.1702 -0.1627
  132HFI     F4 2069   1.680   0.518  -0.051 -0.2919  0.2852  0.3551
  132HFI     F5 2070   1.871   0.432  -0.106  0.0485  0.0575  0.0334
  132HFI     F6 2071   1.860   0.637  -0.036  0.7519  0.0857  0.2228
  132HFI     H1 2072   1.755   0.584   0.266 -0.5928 -0.0326  0.0058
  132HFI     H2 2073   1.818   0.361   0.117  0.0828 -0.0042  1.5615
  133HFI     O1 2074   0.571   2.038   2.296  0.0248 -0.7566  0.6549
  133HFI     C1 2075   0.690   1.960   2.260 -0.9584 -0.4548  0.2203
  133HFI     C2 2076   0.681   1.820   2.325  0.8183  0.5717 -0.4376
  133HFI     F1 2077   0.753   1.731   2.261 -0.2281  0.0776  0.6536
  133HFI     F2 2078   0.553   1.773   2.316 -0.2877 -0.0626  0.1608
  133HFI     F3 2079   0.715   1.824   2.456  0.0156  0.3922 -0.2908
  133HFI     C3 2080   0.824   2.037   2.275 -0.6998  0.5840 -0.0233
  133HFI     F4 2081   0.920   1.963   2.217 -0.0535  0.4811 -0.0045
  133HFI     F5 2082   0.860   2.060   2.406  0.2568  0.3713  0.0810
  133HFI     F6 2083   0.829   2.155   2.218 -0.2689  0.1782  0.7016
  133HFI     H1 2084   0.490   1.992   2.268 -0.9571  3.0685 -3.2579
  133HFI     H2 2085   0.697   1.943   2.152  0.9696  1.6192 -0.0148
  134HFI     O1 2086   0.321   0.143   0.030  0.8373 -1.0239 -0.2623
  134HFI     C1 2087   0.280   0.284   0.033 -0.6691 -0.3868 -0.0016
  134HFI     C2 2088   0.155   0.301  -0.045 -0.0421 -0.5175  0.6466
  134HFI     F1 2089   0.084   0.407  -0.005 -0.2794 -0.2480  0.2051
  134HFI     F2 2090   0.072   0.194  -0.034 -0.0112  0.3854  0.1631
  134HFI     F3 2091   0.189   0.315  -0.178  0.1682  0.4023  0.2721
  134HFI     C3 2092   0.390   0.387  -0.000  0.7905  0.4732 -0.1973
  134HFI     F4 2093   0.460   0.356  -0.112 -0.7055  0.0455 -0.3060
  134HFI     F5 2094   0.471   0.391   0.101  0.1549  0.1843 -0.6515
  134HFI     F6 2095   0.333   0.513  -0.017  0.2360 -0.2555  0.3877
  134HFI     H1 2096   0.283   0.104  -0.051  0.2144  0.0948 -0.5160
  134HFI     H2 2097   0.253   0.311   0.136  0.3289 -2.7512  0.8972
  135HFI     O1 2098   0.802   0.013   2.431 -0.4827 -0.1851 -0.2133
  135HFI     C1 2099   0.944   0.062   2.400  0.3794 -0.2480  0.1649
  135HFI     C2 2100   0.983   0.186   2.482  0.0640  0.8703  0.5303
  135HFI     F1 2101   0.967   0.168   2.618  0.0423  0.8195 -0.1184
  135HFI     F2 2102   0.908   0.291   2.448 -0.2916 -0.2705 -0.0164
  135HFI     F3 2103   1.111   0.226   2.457  0.0748 -1.0489 -0.2222
  135HFI     C3 2104   0.952   0.081   2.248  0.4225  0.2782  0.4822
  135HFI     F4 2105   0.949  -0.042   2.195  0.0064 -0.0348  0.0517
  135HFI     F5 2106   1.062   0.141   2.197 -0.1388  0.1793  0.2218
  135HFI     F6 2107   0.841   0.146   2.200 -0.7096 -0.6021  0.8388
  135HFI     H1 2108   0.742   0.082   2.398 -1.9018 -0.9461  0.7113
  135HFI     H2 2109   1.017  -0.017   2.419 -0.6899 -0.6881  2.6170
  136HFI     O1 2110   2.066   3.031   2.396 -0.2147  0.3010  0.2148
  136HFI     C1 2111   2.089   3.133   2.293 -0.5675 -1.0631 -0.0202
  136HFI     C2 2112   2.234   3.180   2.286 -0.2000  0.2908 -0.1488
  136HFI     F1 2113   2.315   3.081   2.249  0.1980  0.3586 -0.3117
  136HFI     F2 2114   2.280   3.227   2.400  0.1115  0.4731  0.0471
  136HFI     F3 2115   2.254   3.272   2.188 -1.1219  0.1122 -0.4512
  136HFI     C3 2116   1.987   3.248   2.301 -1.2264 -0.1858  0.2522
  136HFI     F4 2117   2.011   3.329   2.402  0.4431  0.0825 -0.2152
  136HFI     F5 2118   1.868   3.190   2.330  0.1558 -0.2951 -0.0829
  136HFI     F6 2119   1.986   3.317   2.181  0.0917  0.5814 -0.5696
  136HFI     H1 2120   2.096   3.061   2.484 -0.5010  0.4743  0.2561
  136HFI     H2 2121   2.069   3.084   2.197  2.1281 -0.7276 -0.8103
  137HFI     O1 2122   3.239   2.319   3.018 -0.4791 -0.0615  0.5058
  137HFI     C1 2123   3.287   2.312   2.881  0.1451 -0.2784 -0.4972
  137HFI     C2 2124   3.165   2.322   2.780 -0.3905 -0.3365 -0.3302
  137HFI     F1 2125   3.110   2.445   2.804 -0.6517 -0.0282 -0.3086
  137HFI     F2 2126   3.071   2.224   2.796  0.0497  0.3933 -0.5633
  137HFI     F3 2127   3.210   2.320   2.651 -0.2403 -0.3434  0.1849
  137HFI     C3 2128   3.380   2.185   2.871  0.2037  0.2524 -0.2013
  137HFI     F4 2129   3.306   2.076   2.855  0.1104  0.6258  0.0980
  137HFI     F5 2130   3.450   2.169   2.983  0.0981  0.2916  0.5524
  137HFI     F6 2131   3.461   2.195   2.762 -0.2170 -0.1500  0.2782
  137HFI     H1 2132   3.145   2.345   3.020 -0.4302  0.1429  0.2217
  137HFI     H2 2133   3.352   2.397   2.858  2.5135 -1.7588  0.4809
  138HFI     O1 2134   0.712   2.587   2.219  0.8473  0.5622 -0.3194
  138HFI     C1 2135   0.607   2.594   2.314  0.4955 -0.4113  0.2682
  138HFI     C2 2136   0.570   2.451   2.376  0.6138 -0.4974  0.1637
  138HFI     F1 2137   0.659   2.409   2.463  0.2516  0.0831 -0.7225
  138HFI     F2 2138   0.548   2.357   2.283  0.0177  0.0604  0.1249
  138HFI     F3 2139   0.460   2.467   2.446  0.1775  0.1472 -0.3087
  138HFI     C3 2140   0.475   2.663   2.263 -0.7873 -0.2121 -0.3568
  138HFI     F4 2141   0.399   2.587   2.193  0.1852 -0.3233  0.0515
  138HFI     F5 2142   0.499   2.774   2.192 -0.2982 -0.4358  0.0059
  138HFI     F6 2143   0.403   2.708   2.368 -0.0956 -0.0176 -0.6446
  138HFI     H1 2144   0.771   2.514   2.241 -0.3969 -0.5478 -0.5898
  138HFI     H2 2145   0.635   2.665   2.393  3.5879 -1.4442  0.1857
  139HFI     O1 2146   1.161   2.394   3.627  0.0942 -0.0746  0.0842
  139HFI     C1 2147   1.088   2.492   3.704  0.1470 -0.2919 -0.3641
  139HFI     C2 2148   1.087   2.465   3.858 -0.1769 -0.1809 -0.5043
  139HFI     F1 2149   1.218   2.462   3.909  0.0302  0.2175  0.4151
  139HFI     F2 2150   1.035   2.345   3.892 -0.1957 -0.3385  0.3723
  139HFI     F3 2151   1.031   2.564   3.922  0.5348  0.4083 -0.0613
  139HFI     C3 2152   0.949   2.519   3.629 -0.3236 -0.2215  0.3267
  139HFI     F4 2153   0.861   2.417   3.652 -0.0197  0.0980  0.0935
  139HFI     F5 2154   0.957   2.529   3.493  0.7040 -0.2306  0.3917
  139HFI     F6 2155   0.887   2.627   3.667 -0.2541 -0.3977  0.0592
  139HFI     H1 2156   1.234   2.352   3.677 -0.2670 -1.1736 -0.3057
  139HFI     H2 2157   1.135   2.591   3.696  0.6631 -0.6996 -2.6435
  140HFI     O1 2158   2.856   2.051   3.718  0.4139  0.2688  0.7704
  140HFI     C1 2159   2.931   2.165   3.673  0.4005 -0.2065  0.2221
  140HFI     C2 2160   2.844   2.297   3.685 -0.6129  0.0181 -0.2338
  140HFI     F1 2161   2.806   2.307   3.812 -0.2652  0.3852  0.1871
  140HFI     F2 2162   2.734   2.292   3.602 -0.2534 -0.0304  0.7170
  140HFI     F3 2163   2.918   2.403   3.656 -0.1726  0.2732 -0.3568
  140HFI     C3 2164   2.986   2.144   3.534  0.0270 -0.0347 -1.3370
  140HFI     F4 2165   3.064   2.247   3.493  0.5579  0.1785 -0.0909
  140HFI     F5 2166   2.894   2.123   3.444 -0.2062  0.4522 -0.0576
  140HFI     F6 2167   3.065   2.037   3.542  0.2057  0.3205  0.3238
  140HFI     H1 2168   2.793   2.020   3.651  1.3311  1.1629 -0.5226
  140HFI     H2 2169   3.014   2.183   3.743  0.7510 -0.6913 -0.0646
  141HFI     O1 2170   3.079   0.889   2.897  0.5778 -0.1411  0.4923
  141HFI     C1 2171   3.128   0.802   3.006  0.2410  0.1195 -0.0944
  141HFI     C2 2172   3.281   0.808   3.015  0.7523  0.3485 -0.3476
  141HFI     F1 2173   3.318   0.924   3.076 -0.1129  0.5593 -0.0571
  141HFI     F2 2174   3.346   0.799   2.896  0.0975 -0.3850  0.0482
  141HFI     F3 2175   3.330   0.715   3.098  0.6530  0.3247 -0.0639
  141HFI     C3 2176   3.085   0.656   2.982  0.0096 -0.0244 -0.5465
  141HFI     F4 2177   3.115   0.616   2.859 -0.4135  0.5482 -0.3875
  141HFI     F5 2178   2.953   0.648   2.995  0.1828 -0.0855 -0.7479
  141HFI     F6 2179   3.134   0.567   3.074  0.0448  0.7551 -0.3338
  141HFI     H1 2180   3.110   0.846   2.815 -1.1172 -0.8015  0.1667
  141HFI     H2 2181   3.081   0.838   3.098  1.0625  0.9398  0.0112
  142HFI     O1 2182   2.848   3.360   0.500 -0.0106 -0.4674 -0.4160
  142HFI     C1 2183   2.709   3.313   0.505  0.4906  0.1546  0.0295
  142HFI     C2 2184   2.607   3.423   0.465  0.0354  0.2787 -0.2730
  142HFI     F1 2185   2.625   3.474   0.337  0.4081 -0.0976 -0.2046
  142HFI     F2 2186   2.613   3.523   0.555  0.5045 -0.3710  0.9551
  142HFI     F3 2187   2.484   3.371   0.472 -0.1355 -0.2531 -0.0299
  142HFI     C3 2188   2.676   3.241   0.638  0.1199  0.3707  0.1854
  142HFI     F4 2189   2.650   3.325   0.742  0.2394  0.7653  0.2545
  142HFI     F5 2190   2.784   3.164   0.675 -0.2516  0.0760  0.1817
  142HFI     F6 2191   2.572   3.153   0.633  0.0267  0.4879 -0.5557
  142HFI     H1 2192   2.851   3.453   0.529 -0.7816 -1.2483  2.3229
  142HFI     H2 2193   2.700   3.230   0.434 -1.5438  1.4509 -1.3038
  143HFI     O1 2194   2.546   0.799   2.740 -0.2656  0.1391 -0.0368
  143HFI     C1 2195   2.642   0.901   2.700 -0.2609 -0.2958 -0.6528
  143HFI     C2 2196   2.784   0.842   2.658 -0.3146 -0.6236  0.4227
  143HFI     F1 2197   2.773   0.783   2.539 -0.3338 -0.2723 -0.1483
  143HFI     F2 2198   2.822   0.744   2.745  0.3146  0.1902 -0.3058
  143HFI     F3 2199   2.876   0.940   2.655  0.6719  0.4867 -0.0290
  143HFI     C3 2200   2.646   1.001   2.814 -0.3233 -0.1385  0.0858
  143HFI     F4 2201   2.691   0.936   2.929  0.1325 -0.4406  0.3178
  143HFI     F5 2202   2.522   1.036   2.834 -0.1833 -0.4859  0.2622
  143HFI     F6 2203   2.728   1.108   2.790 -0.2530 -0.5446  0.1885
  143HFI     H1 2204   2.573   0.781   2.832 -2.2741 -1.6081  0.2598
  143HFI     H2 2205   2.600   0.948   2.610  0.9175  0.9737 -0.5546
  144HFI     O1 2206   1.218   3.304   3.147 -0.1929  0.2417 -0.4607
  144HFI     C1 2207   1.359   3.284   3.165  0.4976 -0.9883 -0.5604
  144HFI     C2 2208   1.444   3.413   3.127  0.1764  1.3901 -0.2839
  144HFI     F1 2209   1.376   3.527   3.175 -0.0205 -0.0711  0.3351
  144HFI     F2 2210   1.475   3.421   3.004  0.4124  0.3592 -0.1707
  144HFI     F3 2211   1.562   3.406   3.203  0.1858  0.4208  0.0529
  144HFI     C3 2212   1.409   3.168   3.075  0.0891  0.4193  0.4526
  144HFI     F4 2213   1.544   3.147   3.088 -0.0818 -0.7472  0.1117
  144HFI     F5 2214   1.377   3.181   2.947 -0.5204 -0.7643  0.0451
  144HFI     F6 2215   1.351   3.049   3.112  0.2146  0.0235 -0.2085
  144HFI     H1 2216   1.198   3.399   3.152 -0.4141  0.1291  1.4713
  144HFI     H2 2217   1.384   3.259   3.269  1.8064  1.1710 -0.3382
  145HFI     O1 2218   0.723   0.724   3.473 -0.1261 -0.0084 -0.2183
  145HFI     C1 2219   0.857   0.736   3.416 -0.2053  0.2433 -0.4544
  145HFI     C2 2220   0.920   0.605   3.373  0.5672  0.5147 -0.4993
  145HFI     F1 2221   1.049   0.621   3.332 -0.5057  0.1829 -0.6197
  145HFI     F2 2222   0.862   0.546   3.268  0.0566  0.5394 -0.2878
  145HFI     F3 2223   0.931   0.513   3.477  0.6483  0.0141 -0.0781
  145HFI     C3 2224   0.948   0.806   3.516  0.1512  0.1436 -0.3611
  145HFI     F4 2225   0.892   0.923   3.551 -0.3278  0.1371 -0.2894
  145HFI     F5 2226   1.066   0.831   3.465 -0.0406  0.0802  0.5996
  145HFI     F6 2227   0.971   0.722   3.631 -0.4740  0.1895 -0.2032
  145HFI     H1 2228   0.712   0.783   3.549 -0.2589  0.4368 -0.5794
  145HFI     H2 2229   0.858   0.795   3.324 -3.2920  0.6945 -0.2348
  146HFI     O1 2230   1.184   2.867   2.508 -0.5260 -0.1705  0.1149
  146HFI     C1 2231   1.159   2.981   2.418  0.1587  0.5504 -0.5226
  146HFI     C2 2232   1.014   3.020   2.430 -0.2491  0.1145  0.1028
  146HFI     F1 2233   0.973   3.035   2.568 -0.2272 -0.0797 -0.0663
  146HFI     F2 2234   0.933   2.928   2.382  0.1470  0.2373  0.3954
  146HFI     F3 2235   0.990   3.135   2.356  0.2776  0.2114  0.0819
  146HFI     C3 2236   1.207   2.956   2.276 -0.1791  0.2080 -0.6480
  146HFI     F4 2237   1.154   2.848   2.224 -0.5987 -0.1098  0.0640
  146HFI     F5 2238   1.344   2.954   2.269 -0.7288 -0.6845 -0.6360
  146HFI     F6 2239   1.177   3.056   2.188  0.4056  0.0397  0.3050
  146HFI     H1 2240   1.147   2.785   2.471  1.6140 -1.1988  0.1632
  146HFI     H2 2241   1.214   3.072   2.446  0.8949 -0.1910  0.4730
  147HFI     O1 2242   0.856   1.076   2.872 -0.0377  0.5161 -0.5324
  147HFI     C1 2243   0.870   0.936   2.868  0.0793 -0.3108 -0.2839
  147HFI     C2 2244   0.930   0.883   3.006  0.0519 -0.3265  0.1043
  147HFI     F1 2245   0.844   0.912   3.106 -0.4006  0.8533 -0.0486
  147HFI     F2 2246   1.043   0.951   3.045 -0.0433  0.7939 -0.3978
  147HFI     F3 2247   0.954   0.750   3.005 -0.0435  0.3334 -0.1667
  147HFI     C3 2248   0.962   0.900   2.745 -1.0108  0.0932 -0.7816
  147HFI     F4 2249   1.081   0.940   2.759  0.0202 -0.4211 -0.1720
  147HFI     F5 2250   0.920   0.969   2.635 -0.1478  0.2674  0.4694
  147HFI     F6 2251   0.961   0.763   2.724 -0.3353  0.3579  0.2661
  147HFI     H1 2252   0.931   1.111   2.922  0.3016  1.5314 -1.7108
  147HFI     H2 2253   0.771   0.890   2.864  0.8044 -2.0239  0.4728
  148HFI     O1 2254   0.756   1.247   2.522 -0.5437 -0.0275 -0.1432
  148HFI     C1 2255   0.753   1.159   2.410 -0.7774  0.0230 -0.4437
  148HFI     C2 2256   0.879   1.184   2.323 -0.0308  0.6410 -0.2239
  148HFI     F1 2257   0.892   1.088   2.230  0.0668  0.0290  0.2866
  148HFI     F2 2258   0.987   1.182   2.400 -0.2463  0.1976 -0.7609
  148HFI     F3 2259   0.861   1.300   2.257  0.1527  0.3356 -0.1880
  148HFI     C3 2260   0.612   1.147   2.343  0.1348  0.0373 -0.5086
  148HFI     F4 2261   0.519   1.103   2.428 -0.4017  0.1547 -0.0135
  148HFI     F5 2262   0.605   1.066   2.234  0.7742 -0.4951 -0.1753
  148HFI     F6 2263   0.562   1.273   2.307 -0.1076 -0.0423 -0.6334
  148HFI     H1 2264   0.687   1.218   2.584 -2.3957  0.5595 -1.9121
  148HFI     H2 2265   0.768   1.060   2.456 -0.3254  0.3039  0.0105
  149HFI     O1 2266   0.131   2.788   2.459 -0.4127 -0.1133 -0.8578
  149HFI     C1 2267   0.091   2.749   2.592  0.3127 -0.0527  0.3164
  149HFI     C2 2268   0.196   2.764   2.701  0.2253 -0.7350 -0.3867
  149HFI     F1 2269   0.226   2.897   2.717 -0.1940  0.0699 -0.1160
  149HFI     F2 2270   0.312   2.706   2.666  0.3865  0.2776 -0.4166
  149HFI     F3 2271   0.137   2.713   2.819  0.4943 -0.3123 -0.2902
  149HFI     C3 2272   0.030   2.602   2.589 -0.0902  0.3367 -0.2370
  149HFI     F4 2273   0.122   2.506   2.608 -0.1202  0.6318  0.1179
  149HFI     F5 2274  -0.039   2.571   2.481  0.0811  0.1453 -0.0720
  149HFI     F6 2275  -0.049   2.580   2.694 -0.5458 -0.2636  0.2818
  149HFI     H1 2276   0.227   2.781   2.443  0.0228  1.4837  0.8188
  149HFI     H2 2277   0.013   2.817   2.629  0.2274  0.5839 -1.0141
  150HFI     O1 2278   1.414   2.115   2.461 -0.2140 -0.0795  0.1258
  150HFI     C1 2279   1.431   2.011   2.361  0.6235  0.3442 -0.1157
  150HFI     C2 2280   1.552   2.038   2.261 -0.0266  0.4862 -0.2798
  150HFI     F1 2281   1.548   2.153   2.186  0.0831 -0.0984 -0.2276
  150HFI     F2 2282   1.565   1.932   2.180 -0.2705  0.6304  0.4016
  150HFI     F3 2283   1.662   2.037   2.339  0.7142 -0.3331 -0.1473
  150HFI     C3 2284   1.291   1.990   2.294 -0.3625 -0.5611  0.4381
  150HFI     F4 2285   1.247   2.092   2.220  0.5490  0.2704  0.5185
  150HFI     F5 2286   1.195   1.964   2.383  0.7230  0.5062 -0.1840
  150HFI     F6 2287   1.298   1.883   2.215  0.4521  0.0918 -0.0884
  150HFI     H1 2288   1.499   2.162   2.467  0.7681 -1.2803 -3.3245
  150HFI     H2 2289   1.451   1.918   2.415 -0.1810 -0.0487 -0.4905
  151HFI     O1 2290   0.026   1.801   3.407  0.8882 -0.0110 -0.2627
  151HFI     C1 2291  -0.102   1.867   3.375  0.3740 -0.0814 -0.6243
  151HFI     C2 2292  -0.197   1.763   3.321  0.0402  0.5502 -0.5570
  151HFI     F1 2293  -0.325   1.806   3.331  0.3619  0.5063  0.3914
  151HFI     F2 2294  -0.186   1.658   3.405 -0.5058 -0.6740 -0.2586
  151HFI     F3 2295  -0.165   1.708   3.203  0.4109  0.1862 -0.2641
  151HFI     C3 2296  -0.090   1.994   3.280  0.1517  0.6242 -0.5997
  151HFI     F4 2297  -0.023   1.954   3.170 -0.0842  0.6578  0.0246
  151HFI     F5 2298  -0.019   2.087   3.340  0.3081 -0.9623  0.0957
  151HFI     F6 2299  -0.208   2.053   3.245  0.3083  0.2691 -0.1887
  151HFI     H1 2300   0.012   1.735   3.478  0.4825 -1.0463 -1.2835
  151HFI     H2 2301  -0.157   1.910   3.459 -2.1617 -1.3084 -1.5913
  152HFI     O1 2302   1.655   1.658   3.547 -0.1298  0.6151 -0.7943
  152HFI     C1 2303   1.759   1.600   3.633 -0.1011  0.9359  0.1290
  152HFI     C2 2304   1.704   1.544   3.766  0.6032 -0.5016  0.1556
  152HFI     F1 2305   1.662   1.638   3.848 -0.4267  0.0439  0.2011
  152HFI     F2 2306   1.795   1.474   3.833  0.3377  0.1167  0.0262
  152HFI     F3 2307   1.601   1.464   3.739  0.1196 -0.1165  0.2253
  152HFI     C3 2308   1.882   1.692   3.654 -0.0024  0.7346 -0.4202
  152HFI     F4 2309   1.978   1.645   3.736  0.2369  0.3196 -0.1970
  152HFI     F5 2310   1.838   1.811   3.693  0.5828 -0.3848  0.1283
  152HFI     F6 2311   1.953   1.705   3.539 -0.6693  0.0631 -0.2231
  152HFI     H1 2312   1.693   1.703   3.470 -1.3663  1.5477 -0.8702
  152HFI     H2 2313   1.798   1.517   3.573  1.0433  0.2714  1.7666
  153HFI     O1 2314   2.852   3.299   2.316 -0.6194  0.3694  0.3567
  153HFI     C1 2315   2.766   3.410   2.284 -0.2718  0.1807 -0.6729
  153HFI     C2 2316   2.843   3.548   2.297 -0.5990 -0.1489  0.2720
  153HFI     F1 2317   2.961   3.553   2.224 -0.5254  0.0974 -0.3841
  153HFI     F2 2318   2.871   3.571   2.430  0.3927  0.1571  0.2100
  153HFI     F3 2319   2.767   3.645   2.251 -0.1648  0.0160 -0.2117
  153HFI     C3 2320   2.620   3.405   2.340  0.0914 -0.7778 -0.0795
  153HFI     F4 2321   2.621   3.417   2.475 -0.4142  0.0229 -0.2250
  153HFI     F5 2322   2.566   3.285   2.314 -0.2309 -0.1215 -0.1324
  153HFI     F6 2323   2.543   3.492   2.273 -0.1702  0.0217  0.2669
  153HFI     H1 2324   2.807   3.228   2.364  1.6541 -2.9171 -2.1853
  153HFI     H2 2325   2.763   3.422   2.175 -1.6961 -0.0919 -0.6745
  154HFI     O1 2326   0.532   1.091   0.098 -0.1756 -0.4269  0.0671
  154HFI     C1 2327   0.478   0.954   0.095 -0.5835  0.1661  0.2196
  154HFI     C2 2328   0.560   0.854  -0.001 -0.3259 -0.1062 -0.3641
  154HFI     F1 2329   0.695   0.852   0.023 -0.0398  0.4058 -0.0725
  154HFI     F2 2330   0.544   0.883  -0.131  0.1124 -0.2752  0.6104
  154HFI     F3 2331   0.509   0.729   0.018 -0.2619 -0.2748 -0.6903
  154HFI     C3 2332   0.326   0.963   0.058 -0.4296 -0.2841 -0.3756
  154HFI     F4 2333   0.305   1.007  -0.065 -0.1515  0.1463  0.3575
  154HFI     F5 2334   0.260   1.047   0.141 -0.2419 -0.2473  0.0158
  154HFI     F6 2335   0.261   0.847   0.069 -0.0384  0.5500  0.1958
  154HFI     H1 2336   0.626   1.086   0.122 -0.0838  2.8221  0.6280
  154HFI     H2 2337   0.487   0.910   0.195 -3.6060 -0.0770  0.4358
  155HFI     O1 2338   3.227   0.290   2.440  0.8603  0.1697 -0.1405
  155HFI     C1 2339   3.121   0.379   2.400  0.1269 -0.6838  0.0742
  155HFI     C2 2340   3.150   0.436   2.257  0.5581 -0.3612  0.7032
  155HFI     F1 2341   3.265   0.496   2.265  0.2018 -0.4404  0.0810
  155HFI     F2 2342   3.052   0.516   2.202 -0.2937  0.0983  0.1123
  155HFI     F3 2343   3.166   0.332   2.176  0.3232  0.6262 -0.5042
  155HFI     C3 2344   3.090   0.483   2.505  0.1707  0.0418 -0.2099
  155HFI     F4 2345   3.194   0.550   2.543 -0.3836  0.0796 -0.2517
  155HFI     F5 2346   3.030   0.432   2.615  0.2270  0.6297 -0.1512
  155HFI     F6 2347   3.006   0.581   2.465  0.0112 -0.5674  0.1625
  155HFI     H1 2348   3.246   0.232   2.365  0.7043  0.5105 -0.4454
  155HFI     H2 2349   3.025   0.329   2.381 -0.3817 -0.9087  2.9680
  156HFI     O1 2350   1.114   0.471   2.988 -0.3500 -0.4721  0.2794
  156HFI     C1 2351   1.187   0.418   2.879 -0.1059  0.3517 -0.1550
  156HFI     C2 2352   1.259   0.285   2.920  0.7843  1.0242 -0.3293
  156HFI     F1 2353   1.192   0.209   3.019  0.0934 -0.3087  0.3419
  156HFI     F2 2354   1.383   0.293   2.974 -0.0157 -0.1024 -0.0413
  156HFI     F3 2355   1.271   0.203   2.812  0.1167  0.2568 -0.1290
  156HFI     C3 2356   1.280   0.521   2.815 -0.1724 -0.3697  0.1893
  156HFI     F4 2357   1.359   0.573   2.910 -0.5147  0.3228 -0.2134
  156HFI     F5 2358   1.214   0.618   2.750 -0.2071 -0.1012 -0.0486
  156HFI     F6 2359   1.371   0.466   2.727 -0.0228  0.3626  0.1117
  156HFI     H1 2360   1.059   0.547   2.961  1.1562  0.1341 -1.1440
  156HFI     H2 2361   1.115   0.386   2.803  1.2783  1.5092 -1.9858
  157HFI     O1 2362   3.123   0.152   3.362 -0.0666  0.7334  0.4408
  157HFI     C1 2363   3.219   0.237   3.305  0.0310 -0.0081  0.8524
  157HFI     C2 2364   3.368   0.175   3.315  0.4160  0.9260 -0.3804
  157HFI     F1 2365   3.403   0.141   3.447 -0.0454 -0.0627  0.2278
  157HFI     F2 2366   3.454   0.264   3.271 -0.4394  0.4060 -0.2683
  157HFI     F3 2367   3.387   0.068   3.238  0.2353  0.3642  0.8701
  157HFI     C3 2368   3.205   0.378   3.367 -0.0599  0.0051 -0.6794
  157HFI     F4 2369   3.291   0.451   3.300 -0.0335  0.3945  0.2092
  157HFI     F5 2370   3.237   0.382   3.502 -0.3003  0.0653  0.2472
  157HFI     F6 2371   3.075   0.426   3.356  0.1447  0.0649 -0.3666
  157HFI     H1 2372   3.035   0.173   3.327  0.6045  3.0272  0.0139
  157HFI     H2 2373   3.198   0.249   3.198 -1.1930 -1.6914  0.8777
  158HFI     O1 2374   0.053   2.477   0.063 -0.4817  0.3302  0.2941
  158HFI     C1 2375  -0.029   2.591   0.014 -0.1274  0.0983  0.4564
  158HFI     C2 2376  -0.035   2.701   0.122  0.1376 -0.3478  0.2642
  158HFI     F1 2377   0.089   2.744   0.155  0.2341  0.3626  0.0339
  158HFI     F2 2378  -0.092   2.657   0.234 -0.5194 -0.0435  0.2492
  158HFI     F3 2379  -0.106   2.815   0.079 -0.3996 -0.1404  0.0116
  158HFI     C3 2380  -0.167   2.546  -0.034 -0.3013  0.3107  0.0035
  158HFI     F4 2381  -0.163   2.452  -0.128  0.4036 -0.3228  0.2441
  158HFI     F5 2382  -0.236   2.650  -0.090  0.1564  0.1182 -0.0705
  158HFI     F6 2383  -0.237   2.505   0.081  0.2302 -0.4390 -0.0000
  158HFI     H1 2384   0.064   2.486   0.160  2.3160 -0.2697  0.0655
  158HFI     H2 2385   0.017   2.641  -0.072  0.1245 -2.2138 -0.7827
  159HFI     O1 2386   0.581   1.896   3.388  0.1990 -0.5620  0.0345
  159HFI     C1 2387   0.514   1.872   3.262 -0.9748 -0.1474  0.1266
  159HFI     C2 2388   0.363   1.865   3.284  0.6942  0.3283  0.2297
  159HFI     F1 2389   0.310   1.987   3.323  0.1308  0.0416  0.7108
  159HFI     F2 2390   0.331   1.780   3.379  0.5393 -0.3552 -0.2772
  159HFI     F3 2391   0.296   1.825   3.175  0.4535 -0.5088  0.6764
  159HFI     C3 2392   0.564   1.748   3.181  0.1535  0.1119  0.5369
  159HFI     F4 2393   0.692   1.722   3.202 -0.1927 -0.8214  0.2440
  159HFI     F5 2394   0.551   1.763   3.049  0.2691 -0.3474  0.2634
  159HFI     F6 2395   0.503   1.635   3.218 -0.5051 -0.2771  0.1751
  159HFI     H1 2396   0.583   1.819   3.447  1.0742  0.5256  1.4834
  159HFI     H2 2397   0.523   1.962   3.200  1.0923  0.3457  1.0812
  160HFI     O1 2398   2.497   1.090   3.338  0.5115  0.2974 -0.3660
  160HFI     C1 2399   2.380   1.164   3.383 -0.7820  0.3419 -0.8211
  160HFI     C2 2400   2.361   1.149   3.540 -0.2356  0.8661  0.1876
  160HFI     F1 2401   2.285   1.250   3.604  0.2746 -0.1283  0.0507
  160HFI     F2 2402   2.484   1.162   3.598 -0.4175 -0.1917  0.0121
  160HFI     F3 2403   2.319   1.025   3.570  0.4349 -0.3096 -0.0549
  160HFI     C3 2404   2.250   1.130   3.301  0.9349 -0.4574 -0.2297
  160HFI     F4 2405   2.232   0.998   3.301 -0.6303 -0.4163 -0.3075
  160HFI     F5 2406   2.267   1.166   3.173 -0.2436  0.0204  0.2451
  160HFI     F6 2407   2.135   1.194   3.341  0.7079 -0.2992 -0.4493
  160HFI     H1 2408   2.542   1.046   3.412  0.1480 -0.9069 -0.8576
  160HFI     H2 2409   2.409   1.268   3.367  0.3201 -0.1417 -2.0354
  161HFI     O1 2410   2.312   0.634   2.672  0.4856 -0.1886 -0.5891
  161HFI     C1 2411   2.231   0.614   2.793 -0.3186 -0.0532 -0.4906
  161HFI     C2 2412   2.189   0.747   2.854  0.9728 -0.1930 -0.3362
  161HFI     F1 2413   2.107   0.819   2.767 -0.2173  0.2312 -0.3091
  161HFI     F2 2414   2.299   0.825   2.881  0.4200  0.7422 -0.3164
  161HFI     F3 2415   2.116   0.730   2.971  0.2294 -0.3170  0.2834
  161HFI     C3 2416   2.309   0.517   2.895 -0.1732  0.6315  0.6084
  161HFI     F4 2417   2.411   0.583   2.956  0.1429 -0.2427  0.3725
  161HFI     F5 2418   2.370   0.414   2.828 -0.7206 -0.0308  0.2458
  161HFI     F6 2419   2.228   0.464   2.996  0.2995  0.2834  0.0902
  161HFI     H1 2420   2.379   0.703   2.686 -2.2848  2.8090 -1.3512
  161HFI     H2 2421   2.138   0.561   2.771  0.9073 -1.7995 -1.5697
  162HFI     O1 2422   1.353   1.459   2.971  0.0237  0.4820 -0.4784
  162HFI     C1 2423   1.234   1.405   2.909  0.3062  0.0573  0.0689
  162HFI     C2 2424   1.108   1.436   2.993  0.6414  0.2147  0.9285
  162HFI     F1 2425   1.105   1.571   3.026 -0.2902 -0.3674 -0.0573
  162HFI     F2 2426   1.107   1.363   3.108  0.2247  0.0415  0.5412
  162HFI     F3 2427   0.996   1.401   2.924  0.2318  0.6541 -0.2337
  162HFI     C3 2428   1.240   1.259   2.870 -0.0728  0.4051 -0.7209
  162HFI     F4 2429   1.278   1.181   2.978 -0.1783  0.1711  0.4335
  162HFI     F5 2430   1.328   1.241   2.769  0.3401  0.4042  0.1214
  162HFI     F6 2431   1.124   1.217   2.832 -0.0664  0.2032  0.2385
  162HFI     H1 2432   1.419   1.388   2.978 -2.1009 -1.3351  2.0507
  162HFI     H2 2433   1.202   1.459   2.819 -0.6996 -0.8967 -0.1531
  163HFI     O1 2434   2.819   2.598   2.284 -0.0989  0.4047  0.0143
  163HFI     C1 2435   2.869   2.466   2.314  0.4154 -0.0863  0.4338
  163HFI     C2 2436   2.804   2.411   2.448  0.2241  0.2585 -0.2801
  163HFI     F1 2437   2.676   2.370   2.416 -0.4986 -0.0318  0.5362
  163HFI     F2 2438   2.791   2.510   2.538 -0.3883 -0.9911  0.4901
  163HFI     F3 2439   2.865   2.297   2.497 -0.1586 -0.0311  0.5462
  163HFI     C3 2440   3.027   2.460   2.298 -1.1603  0.2435 -0.6221
  163HFI     F4 2441   3.056   2.513   2.178 -0.0539 -0.1438 -0.6041
  163HFI     F5 2442   3.078   2.336   2.305 -0.5313  0.4448 -0.3397
  163HFI     F6 2443   3.085   2.543   2.386 -0.2232  0.2315  0.2726
  163HFI     H1 2444   2.855   2.658   2.352 -0.3227  0.3514  0.1781
  163HFI     H2 2445   2.833   2.405   2.231 -1.2581 -2.1525  2.5945
  164HFI     O1 2446   2.824   3.034   3.200  0.1784 -0.1936  0.5651
  164HFI     C1 2447   2.808   3.175   3.242 -0.3868 -0.0428  0.5722
  164HFI     C2 2448   2.780   3.270   3.115 -0.4848  0.0544 -0.4717
  164HFI     F1 2449   2.670   3.229   3.052 -0.1769 -0.4103 -0.0553
  164HFI     F2 2450   2.891   3.271   3.034  0.3599 -0.2285 -0.0881
  164HFI     F3 2451   2.751   3.395   3.160 -0.0822  0.3371  0.4184
  164HFI     C3 2452   2.936   3.228   3.311 -0.5051  0.9705 -1.3187
  164HFI     F4 2453   3.042   3.161   3.263  0.3495  0.5967  0.3821
  164HFI     F5 2454   2.932   3.191   3.439  0.6385 -0.1976 -0.5402
  164HFI     F6 2455   2.966   3.356   3.305 -0.1516  0.1575 -0.1223
  164HFI     H1 2456   2.920   3.016   3.193  0.3517  0.7677  0.3496
  164HFI     H2 2457   2.721   3.195   3.306  0.4449  0.2855  1.6095
  165HFI     O1 2458   2.717   1.112   2.472 -0.3501 -0.1052 -0.6228
  165HFI     C1 2459   2.634   1.189   2.383 -0.0702 -0.0864 -0.2972
  165HFI     C2 2460   2.534   1.095   2.303  0.0260  0.7396  0.0253
  165HFI     F1 2461   2.444   1.161   2.233  0.0495 -0.0995  0.5060
  165HFI     F2 2462   2.471   1.007   2.385 -0.0977 -0.1461  0.0270
  165HFI     F3 2463   2.599   1.009   2.219  0.2268  0.3779  0.5360
  165HFI     C3 2464   2.727   1.270   2.280 -0.1397 -0.0177 -1.3001
  165HFI     F4 2465   2.804   1.185   2.206  0.0314  0.0176 -0.0941
  165HFI     F5 2466   2.803   1.350   2.351  0.1258 -0.5867 -0.0859
  165HFI     F6 2467   2.645   1.342   2.204 -0.0036  0.3357  0.4836
  165HFI     H1 2468   2.807   1.100   2.437  0.2109  0.2902  0.6454
  165HFI     H2 2469   2.573   1.265   2.434 -2.7729 -2.0227 -0.5255
  166HFI     O1 2470   2.595   2.431   3.063 -0.3009  0.4379  0.4771
  166HFI     C1 2471   2.742   2.445   3.103 -0.1506 -0.4476 -0.1147
  166HFI     C2 2472   2.764   2.523   3.234  0.2064  0.3478  0.5677
  166HFI     F1 2473   2.678   2.483   3.325  0.5339  0.6701  0.5302
  166HFI     F2 2474   2.755   2.659   3.217 -0.0858  0.1274 -0.0398
  166HFI     F3 2475   2.880   2.497   3.289  0.2684 -1.0472 -0.5013
  166HFI     C3 2476   2.826   2.484   2.980  0.5166  0.2921  0.5244
  166HFI     F4 2477   2.793   2.610   2.937 -0.1351  0.3871  0.2756
  166HFI     F5 2478   2.817   2.397   2.870 -0.1462  0.2663  0.4559
  166HFI     F6 2479   2.953   2.481   3.009 -0.6481  0.6660  0.0983
  166HFI     H1 2480   2.547   2.513   3.083  0.5588  0.8865  0.7496
  166HFI     H2 2481   2.782   2.347   3.132  1.4202  0.6782  1.5611
  167HFI     O1 2482   0.382   3.435   2.963  0.7231 -0.0437 -0.3519
  167HFI     C1 2483   0.341   3.309   2.901  0.7766  0.1152 -0.5330
  167HFI     C2 2484   0.314   3.329   2.746  0.1603 -0.0619 -0.3295
  167HFI     F1 2485   0.431   3.361   2.682  0.4491 -0.1134 -0.1456
  167HFI     F2 2486   0.230   3.430   2.716  0.3132 -0.3901  0.2094
  167HFI     F3 2487   0.261   3.222   2.686  0.6291  0.4391 -0.5373
  167HFI     C3 2488   0.211   3.259   2.969 -0.1271 -0.4457 -0.4452
  167HFI     F4 2489   0.122   3.354   2.972 -0.2068  0.4217 -0.0317
  167HFI     F5 2490   0.238   3.239   3.100 -0.5855 -0.4791 -0.0403
  167HFI     F6 2491   0.156   3.145   2.915 -0.0334 -0.2486  0.2588
  167HFI     H1 2492   0.300   3.486   2.974 -0.0267 -1.1797 -0.6314
  167HFI     H2 2493   0.419   3.232   2.900 -0.6769 -1.3813 -1.9452
  168HFI     O1 2494   1.243   0.848   2.459  0.0340  0.7017  0.3145
  168HFI     C1 2495   1.302   0.971   2.400 -0.2235 -0.0896 -0.5149
  168HFI     C2 2496   1.317   0.951   2.247 -0.0338  0.4492 -0.4780
  168HFI     F1 2497   1.320   1.075   2.192 -0.1200 -0.5638 -0.2245
  168HFI     F2 2498   1.204   0.891   2.202  0.2187  0.1535  0.2585
  168HFI     F3 2499   1.421   0.876   2.209  0.4655 -0.0827 -0.4866
  168HFI     C3 2500   1.432   1.013   2.475  0.8553 -0.0254  0.3532
  168HFI     F4 2501   1.412   1.016   2.611  0.2099 -0.0505  0.0678
  168HFI     F5 2502   1.485   1.138   2.435  0.0659 -0.5224  0.1134
  168HFI     F6 2503   1.538   0.927   2.450 -0.0145  0.6301 -0.5049
  168HFI     H1 2504   1.310   0.786   2.493  0.2392  0.7234 -0.0560
  168HFI     H2 2505   1.236   1.057   2.412  0.6482  0.3361  1.5331
  169HFI     O1 2506   2.274   0.226   2.399  0.3050  0.0296 -0.0347
  169HFI     C1 2507   2.136   0.191   2.408  0.4815 -0.6617 -0.1427
  169HFI     C2 2508   2.058   0.224   2.277  0.1115  0.0637 -0.3601
  169HFI     F1 2509   2.108   0.148   2.181 -0.2280 -0.6713  0.1810
  169HFI     F2 2510   2.062   0.357   2.247  0.3488  0.4152  0.2180
  169HFI     F3 2511   1.924   0.192   2.278 -0.4126 -0.3327 -0.1023
  169HFI     C3 2512   2.076   0.253   2.535 -0.0969  0.2143 -0.1176
  169HFI     F4 2513   2.101   0.389   2.554 -0.3016  0.0428 -0.3676
  169HFI     F5 2514   2.124   0.185   2.644  0.5113  0.5387  0.0237
  169HFI     F6 2515   1.941   0.237   2.549  0.0343  0.2308 -0.4678
  169HFI     H1 2516   2.280   0.323   2.392 -1.1176  0.0949 -0.4510
  169HFI     H2 2517   2.121   0.083   2.419  1.3420 -0.9889 -1.8689
  170HFI     O1 2518   1.784   1.154   3.111  0.5294 -0.4233 -0.5331
  170HFI     C1 2519   1.848   1.287   3.115  0.6522 -0.5253 -0.0628
  170HFI     C2 2520   1.770   1.383   3.214  0.4553  0.4977  0.2604
  170HFI     F1 2521   1.774   1.332   3.339  0.3882  0.1049 -0.2901
  170HFI     F2 2522   1.638   1.379   3.179  0.7412  0.3351  0.2760
  170HFI     F3 2523   1.817   1.510   3.224 -0.4351 -0.0212  0.1413
  170HFI     C3 2524   1.867   1.355   2.973 -0.4601 -0.4221 -0.0733
  170HFI     F4 2525   1.751   1.367   2.898  1.1599 -0.4110 -0.0218
  170HFI     F5 2526   1.954   1.283   2.902  0.4212  0.5244 -0.3670
  170HFI     F6 2527   1.908   1.484   2.976 -0.0711 -0.1132 -0.3448
  170HFI     H1 2528   1.778   1.118   3.201 -1.5000  1.4651  0.1506
  170HFI     H2 2529   1.950   1.281   3.154  0.1436 -1.1784  1.2174
  171HFI     O1 2530   0.299   2.019   2.769  0.0861 -0.7481  0.3313
  171HFI     C1 2531   0.436   2.045   2.803  1.3144 -0.2831  0.1914
  171HFI     C2 2532   0.434   2.168   2.898 -0.4287  0.6330  0.7241
  171HFI     F1 2533   0.390   2.139   3.021 -1.0347  0.2461  0.1930
  171HFI     F2 2534   0.354   2.266   2.850  0.1373 -0.2415 -0.1086
  171HFI     F3 2535   0.558   2.216   2.900  0.2084  0.2418 -0.1568
  171HFI     C3 2536   0.529   2.064   2.679  0.2524 -0.2762 -0.2274
  171HFI     F4 2537   0.491   1.971   2.585 -0.8001  0.0216 -0.9680
  171HFI     F5 2538   0.652   2.040   2.723 -0.4107 -0.3459  0.4372
  171HFI     F6 2539   0.518   2.185   2.618 -0.2957 -0.0114 -0.1723
  171HFI     H1 2540   0.275   2.037   2.677  1.1686  1.5029  0.4569
  171HFI     H2 2541   0.466   1.963   2.870  2.0652  1.0182  1.5038
  172HFI     O1 2542   1.034   2.186   3.303 -0.5200 -0.4886 -0.0904
  172HFI     C1 2543   0.922   2.219   3.403  0.4866  0.3523 -0.3962
  172HFI     C2 2544   0.920   2.104   3.511  0.6944  0.5478  0.3460
  172HFI     F1 2545   0.859   2.156   3.619  0.0193 -0.0921  0.3134
  172HFI     F2 2546   1.042   2.063   3.552  0.5848  0.4035 -0.8356
  172HFI     F3 2547   0.844   1.997   3.477  0.2612 -0.0198 -0.2608
  172HFI     C3 2548   0.788   2.242   3.330 -0.0715  0.4050 -0.6857
  172HFI     F4 2549   0.749   2.125   3.268  0.0616 -0.3378 -0.0624
  172HFI     F5 2550   0.804   2.333   3.228 -0.0169 -0.5469 -0.3450
  172HFI     F6 2551   0.699   2.287   3.417 -0.4927 -0.1266  0.5356
  172HFI     H1 2552   1.033   2.090   3.293 -2.4706 -0.5886  0.7923
  172HFI     H2 2553   0.954   2.311   3.453 -2.8309  2.2318 -1.6043
  173HFI     O1 2554   1.965   3.166   3.104  0.4692 -0.3287 -0.1322
  173HFI     C1 2555   1.916   3.177   3.237  0.1041 -0.0375 -0.2426
  173HFI     C2 2556   2.021   3.254   3.320  0.0866 -0.4088  0.0172
  173HFI     F1 2557   2.147   3.199   3.300  0.0523  0.0334 -0.2671
  173HFI     F2 2558   1.995   3.249   3.452 -0.0880 -0.9308 -0.4184
  173HFI     F3 2559   2.020   3.383   3.287 -0.1027 -0.2617 -0.0555
  173HFI     C3 2560   1.867   3.054   3.305  0.8004  0.4866  0.0405
  173HFI     F4 2561   1.959   2.966   3.349  0.4144  0.0975 -0.1104
  173HFI     F5 2562   1.789   2.981   3.219 -0.2828  0.1208 -0.0895
  173HFI     F6 2563   1.789   3.078   3.414 -0.2103  0.0593  0.2836
  173HFI     H1 2564   2.058   3.142   3.121  0.0205 -1.8116  0.3590
  173HFI     H2 2565   1.826   3.239   3.235  0.3530  0.3841  1.4807
  174HFI     O1 2566   2.105   1.394   0.019 -0.5537 -0.2789  0.0185
  174HFI     C1 2567   2.169   1.372   0.139  0.0943  0.2690 -0.2652
  174HFI     C2 2568   2.100   1.425   0.267  0.4721 -0.7641  0.1376
  174HFI     F1 2569   1.963   1.441   0.257  0.0234  0.1148  0.2136
  174HFI     F2 2570   2.146   1.545   0.295 -0.0528  0.0805 -0.4870
  174HFI     F3 2571   2.131   1.349   0.374 -0.1051 -0.5033  0.5486
  174HFI     C3 2572   2.318   1.407   0.129  0.6671 -0.0363  0.5421
  174HFI     F4 2573   2.334   1.525   0.073 -0.1624 -0.1026 -0.2946
  174HFI     F5 2574   2.380   1.313   0.052 -0.3040  0.5225  0.1386
  174HFI     F6 2575   2.385   1.409   0.243 -1.0005  0.2870 -0.6872
  174HFI     H1 2576   2.046   1.472   0.025  0.8639  0.6567  2.1908
  174HFI     H2 2577   2.179   1.264   0.152  1.0700  0.2262 -1.3167
  175HFI     O1 2578   1.671   1.857   2.553  0.2335  0.2760  0.1384
  175HFI     C1 2579   1.644   1.854   2.701 -0.4417  0.3448  0.5492
  175HFI     C2 2580   1.735   1.960   2.778  0.3526  0.1216 -1.3019
  175HFI     F1 2581   1.720   2.090   2.729 -0.3247 -0.0245 -0.3365
  175HFI     F2 2582   1.863   1.928   2.749 -0.3603  0.0107  0.2165
  175HFI     F3 2583   1.720   1.960   2.913  0.0532  0.0806 -0.5215
  175HFI     C3 2584   1.655   1.716   2.763 -0.1172 -0.0846  0.0404
  175HFI     F4 2585   1.772   1.665   2.797 -0.2440 -0.9012  0.3517
  175HFI     F5 2586   1.596   1.619   2.686 -0.0551  0.6318 -0.5728
  175HFI     F6 2587   1.597   1.702   2.884 -0.0787  0.2366 -0.1113
  175HFI     H1 2588   1.737   1.787   2.539 -1.0246 -1.0969  0.9084
  175HFI     H2 2589   1.540   1.888   2.710 -0.5386 -0.0756  1.0934
  176HFI     O1 2590   1.443   0.125   2.458 -0.0645 -0.2285  0.2248
  176HFI     C1 2591   1.471  -0.005   2.386 -0.1500  0.0253  0.3147
  176HFI     C2 2592   1.600   0.026   2.302 -0.4876  0.1676 -0.3807
  176HFI     F1 2593   1.702   0.045   2.388  0.1692  0.6832  0.2577
  176HFI     F2 2594   1.587   0.133   2.217 -0.1668 -0.6661  0.1731
  176HFI     F3 2595   1.624  -0.075   2.218  0.1947 -0.4215 -0.1805
  176HFI     C3 2596   1.357  -0.053   2.312 -0.4042 -0.3405  0.2139
  176HFI     F4 2597   1.309   0.034   2.217 -0.1951 -0.1689 -0.3067
  176HFI     F5 2598   1.259  -0.090   2.397  0.8007  0.2339 -0.1500
  176HFI     F6 2599   1.385  -0.169   2.254  0.2172  0.0478  0.6932
  176HFI     H1 2600   1.418   0.184   2.385 -1.7160 -0.1937  0.7991
  176HFI     H2 2601   1.490  -0.078   2.465  1.5652  0.8411  0.6712
  177HFI     O1 2602   2.664   1.302   3.794  0.3476 -0.0727  0.1308
  177HFI     C1 2603   2.798   1.240   3.806 -0.7270  0.0680 -0.0305
  177HFI     C2 2604   2.811   1.100   3.737 -0.7363 -0.4357 -0.1719
  177HFI     F1 2605   2.810   1.106   3.600  0.5188  0.4132  0.1554
  177HFI     F2 2606   2.708   1.026   3.780 -0.0014  0.4205  0.6077
  177HFI     F3 2607   2.931   1.034   3.768  0.0949  0.3205  0.1474
  177HFI     C3 2608   2.849   1.233   3.950  0.4982  0.4421 -0.3078
  177HFI     F4 2609   2.789   1.136   4.026 -0.4587  0.0314 -0.0684
  177HFI     F5 2610   2.832   1.353   4.011 -0.1287  0.5040 -0.1686
  177HFI     F6 2611   2.984   1.216   3.960  0.5737  0.2662  0.2631
  177HFI     H1 2612   2.596   1.234   3.807  1.4751 -1.2721 -0.1985
  177HFI     H2 2613   2.878   1.297   3.758  0.4705 -0.5326  1.2348
  178HFI     O1 2614   2.364   2.296   3.583  0.2127  0.6583  0.0285
  178HFI     C1 2615   2.263   2.394   3.561  0.1083  0.9536  0.1985
  178HFI     C2 2616   2.329   2.527   3.508  0.0148 -0.2005  0.0813
  178HFI     F1 2617   2.370   2.500   3.378  0.3231  0.0375  0.0939
  178HFI     F2 2618   2.432   2.572   3.577 -0.0610  0.3064 -0.2274
  178HFI     F3 2619   2.232   2.615   3.497  0.6198  0.8943  0.2789
  178HFI     C3 2620   2.191   2.415   3.696 -0.2783  0.7054 -0.3308
  178HFI     F4 2621   2.260   2.496   3.778 -0.1049 -0.4094  0.1718
  178HFI     F5 2622   2.166   2.303   3.760 -0.0822  0.1003 -0.0620
  178HFI     F6 2623   2.074   2.471   3.672 -0.3431 -0.5940  0.4813
  178HFI     H1 2624   2.351   2.243   3.663  4.1370 -0.0664  0.3112
  178HFI     H2 2625   2.188   2.353   3.493 -0.0828  0.4232  0.7214
  179HFI     O1 2626   0.191   2.185   2.470  0.5708 -1.3777  0.0442
  179HFI     C1 2627   0.102   2.098   2.393  0.0910  0.2740 -0.1860
  179HFI     C2 2628   0.188   1.984   2.315 -0.4212  0.1993  0.1240
  179HFI     F1 2629   0.282   1.926   2.392 -0.0847  0.6758 -0.4693
  179HFI     F2 2630   0.254   2.031   2.206  0.6584  1.0549 -0.5818
  179HFI     F3 2631   0.108   1.885   2.267 -0.4903 -0.6009  0.1408
  179HFI     C3 2632   0.011   2.182   2.292 -1.5618 -0.7505  0.3899
  179HFI     F4 2633  -0.078   2.104   2.219 -0.3929  0.1111  0.0915
  179HFI     F5 2634   0.084   2.253   2.204  0.1073  0.0285 -0.5278
  179HFI     F6 2635  -0.061   2.268   2.362  0.1143  0.3423 -0.1677
  179HFI     H1 2636   0.167   2.278   2.459  1.7901 -1.2914 -1.9711
  179HFI     H2 2637   0.039   2.046   2.467  2.1813 -1.2578  0.5545
  180HFI     O1 2638   0.672   0.343   2.613  0.5641  0.1580  0.1455
  180HFI     C1 2639   0.680   0.319   2.759  0.2557  0.0390  0.4661
  180HFI     C2 2640   0.535   0.312   2.812  0.3424  0.4241  0.2067
  180HFI     F1 2641   0.475   0.210   2.746  0.1599 -0.1034  0.4368
  180HFI     F2 2642   0.470   0.425   2.773  0.3471  0.1402 -0.2455
  180HFI     F3 2643   0.528   0.301   2.940 -0.5816  0.3537 -0.6870
  180HFI     C3 2644   0.761   0.430   2.838  0.8096 -0.3390  1.0646
  180HFI     F4 2645   0.879   0.449   2.781  0.3271  0.1757  0.3999
  180HFI     F5 2646   0.780   0.387   2.966 -0.5674 -0.4916 -0.1049
  180HFI     F6 2647   0.700   0.551   2.836 -0.6888  0.1511  0.0924
  180HFI     H1 2648   0.618   0.420   2.590  1.5229  0.9999  0.6591
  180HFI     H2 2649   0.728   0.224   2.785  0.9043  0.3871  0.5513
  181HFI     O1 2650   0.863   0.184   3.512  0.6093  0.0270  0.5982
  181HFI     C1 2651   0.948   0.161   3.402 -0.3933  0.2301 -0.3218
  181HFI     C2 2652   0.888   0.073   3.284  0.0056  0.1797  0.0763
  181HFI     F1 2653   0.787   0.136   3.220  0.4276 -0.0229 -0.6562
  181HFI     F2 2654   0.841  -0.050   3.327  0.3231  0.1050  0.3293
  181HFI     F3 2655   0.982   0.050   3.184 -1.0105  0.0397 -0.6781
  181HFI     C3 2656   1.083   0.103   3.446 -0.5608 -0.4512  0.0972
  181HFI     F4 2657   1.180   0.107   3.354  0.3087 -0.1262  0.0695
  181HFI     F5 2658   1.068  -0.021   3.489  0.0757 -0.5585  0.1688
  181HFI     F6 2659   1.134   0.171   3.556 -0.3987  0.3356  0.0371
  181HFI     H1 2660   0.821   0.099   3.532 -1.1376  0.4105 -1.2959
  181HFI     H2 2661   0.982   0.257   3.360  0.6162 -0.0303 -0.1270
  182HFI     O1 2662   1.980   2.017   2.447  0.3378 -0.0411  0.7964
  182HFI     C1 2663   2.071   2.134   2.435  0.5846  0.1137  0.8729
  182HFI     C2 2664   2.052   2.224   2.557 -0.1833  0.8279 -0.4231
  182HFI     F1 2665   2.084   2.159   2.673 -0.4117 -0.0907  0.3974
  182HFI     F2 2666   1.921   2.258   2.571 -0.1906 -0.0733  0.2001
  182HFI     F3 2667   2.130   2.336   2.549 -0.1113 -0.8007 -0.1071
  182HFI     C3 2668   2.047   2.218   2.300 -0.7343  0.5798 -0.3092
  182HFI     F4 2669   1.923   2.260   2.295 -0.1345 -0.1804 -0.0280
  182HFI     F5 2670   2.056   2.134   2.199  0.3354  0.0397  0.1218
  182HFI     F6 2671   2.129   2.322   2.276 -0.4823  0.3493 -0.1678
  182HFI     H1 2672   1.889   2.049   2.432 -0.1944 -1.5160  0.7851
  182HFI     H2 2673   2.175   2.099   2.442  0.3185 -0.8415  0.1422
  183HFI     O1 2674   2.285   0.691   3.616 -0.2173 -0.0998 -0.1245
  183HFI     C1 2675   2.324   0.644   3.747 -0.2572 -0.2403  0.5162
  183HFI     C2 2676   2.313   0.763   3.850  0.0631 -0.3074  0.3254
  183HFI     F1 2677   2.188   0.809   3.851  0.3238  0.1740  0.2977
  183HFI     F2 2678   2.382   0.871   3.813  0.1054  0.0208  0.0119
  183HFI     F3 2679   2.353   0.737   3.976 -0.2488 -0.1227  0.3239
  183HFI     C3 2680   2.467   0.571   3.758  0.0002  0.3821 -0.4438
  183HFI     F4 2681   2.569   0.655   3.734  0.3747 -0.5266  0.3670
  183HFI     F5 2682   2.475   0.474   3.664  0.0719 -0.2177  0.8073
  183HFI     F6 2683   2.498   0.513   3.875 -0.1879  0.5491  0.0097
  183HFI     H1 2684   2.358   0.741   3.575  1.6853 -2.0872  0.8007
  183HFI     H2 2685   2.253   0.565   3.777 -1.2487  0.1777 -0.7117
  184HFI     O1 2686   0.857   3.068   2.858  0.2582 -0.0931 -0.5442
  184HFI     C1 2687   0.884   3.203   2.900 -0.2307 -0.4564  0.2433
  184HFI     C2 2688   0.761   3.294   2.914 -0.0763  0.7172 -0.0793
  184HFI     F1 2689   0.673   3.232   3.003  0.0359 -0.1694 -0.0160
  184HFI     F2 2690   0.695   3.314   2.799  0.1111 -0.0606 -0.0216
  184HFI     F3 2691   0.800   3.415   2.968 -0.0061 -0.0846 -0.0079
  184HFI     C3 2692   0.994   3.271   2.810  0.0767 -0.3287  0.1191
  184HFI     F4 2693   1.039   3.379   2.878  0.3345 -0.0157 -0.4951
  184HFI     F5 2694   0.954   3.307   2.687  0.2793  0.0756  0.1824
  184HFI     F6 2695   1.112   3.197   2.787 -0.0696 -0.4541 -0.3022
  184HFI     H1 2696   0.810   3.071   2.773 -0.9579  1.6515  0.1637
  184HFI     H2 2697   0.939   3.197   2.995  0.1410  1.1396  0.1528
  185HFI     O1 2698   2.524   2.745   2.265  0.0400 -0.4041 -0.0573
  185HFI     C1 2699   2.469   2.642   2.363 -0.1506 -0.2850 -0.2399
  185HFI     C2 2700   2.397   2.531   2.292 -0.0456  0.3013  0.1808
  185HFI     F1 2701   2.363   2.432   2.380 -0.1104 -0.3795 -0.5409
  185HFI     F2 2702   2.484   2.479   2.199  0.0060  0.0784  0.6356
  185HFI     F3 2703   2.281   2.574   2.233 -0.3811 -0.1369 -0.6677
  185HFI     C3 2704   2.385   2.710   2.470 -0.0733 -0.7794 -0.2831
  185HFI     F4 2705   2.467   2.790   2.540 -0.5482 -0.0162  0.0993
  185HFI     F5 2706   2.341   2.621   2.564 -0.0188 -0.0908  0.3533
  185HFI     F6 2707   2.280   2.777   2.423  0.0193  0.5496 -0.0229
  185HFI     H1 2708   2.579   2.698   2.200  0.7503 -0.0526  0.2972
  185HFI     H2 2709   2.557   2.597   2.412 -0.8826 -1.5706 -0.0954
  186HFI     O1 2710   0.020   2.918   2.228 -0.0901  0.4334 -0.1024
  186HFI     C1 2711  -0.065   3.037   2.275  0.2688 -0.5166 -1.0666
  186HFI     C2 2712   0.027   3.145   2.353 -0.0518 -0.9998 -0.2031
  186HFI     F1 2713   0.128   3.183   2.282 -0.3940  0.2791 -0.1124
  186HFI     F2 2714   0.080   3.104   2.466  0.1417  0.2771  0.5611
  186HFI     F3 2715  -0.044   3.259   2.382 -0.9131  0.2900  0.5209
  186HFI     C3 2716  -0.187   2.984   2.347  0.2307 -0.0994 -0.2767
  186HFI     F4 2717  -0.152   2.951   2.472 -0.2311 -0.0416 -0.2204
  186HFI     F5 2718  -0.228   2.870   2.294 -0.3483 -0.4148  0.5588
  186HFI     F6 2719  -0.289   3.073   2.352  0.0871  0.5904  0.0649
  186HFI     H1 2720   0.049   2.865   2.304 -0.8460 -0.1985 -0.2448
  186HFI     H2 2721  -0.104   3.086   2.185 -0.1483  1.6524  0.2747
  187HFI     O1 2722   2.762   1.978   2.843  0.8394  0.0759  0.4110
  187HFI     C1 2723   2.804   1.925   2.971  0.2673 -0.4907 -0.0236
  187HFI     C2 2724   2.808   2.036   3.080  0.3105 -0.6979  0.2693
  187HFI     F1 2725   2.686   2.101   3.089  0.2315  0.4166  0.2459
  187HFI     F2 2726   2.893   2.139   3.042  0.1136  0.2688  0.0459
  187HFI     F3 2727   2.845   1.980   3.204 -0.8350 -0.3284  0.2426
  187HFI     C3 2728   2.938   1.847   2.954  0.1433  0.2313  0.0117
  187HFI     F4 2729   3.046   1.930   2.942  0.0149 -0.1128 -0.3928
  187HFI     F5 2730   2.937   1.758   2.844  0.1212 -0.8933 -0.3468
  187HFI     F6 2731   2.958   1.768   3.065 -0.1097 -0.0099 -0.0280
  187HFI     H1 2732   2.828   2.040   2.806 -0.3993  0.3100 -1.4739
  187HFI     H2 2733   2.728   1.852   3.001 -0.9598  0.9121  0.3864
  188HFI     O1 2734   1.762   2.837   2.468 -0.3104 -0.2860 -0.7060
  188HFI     C1 2735   1.690   2.727   2.408  0.1586 -0.3286 -0.1225
  188HFI     C2 2736   1.732   2.584   2.470  0.4009 -0.2287  0.2814
  188HFI     F1 2737   1.644   2.477   2.449  0.0360  0.4855 -0.1917
  188HFI     F2 2738   1.738   2.601   2.605  0.0090  0.7321 -0.4228
  188HFI     F3 2739   1.853   2.542   2.429  0.0913 -0.6310 -0.4354
  188HFI     C3 2740   1.700   2.724   2.257 -0.3123  0.3033  0.4326
  188HFI     F4 2741   1.825   2.742   2.208 -0.0370 -0.4941 -0.1354
  188HFI     F5 2742   1.633   2.826   2.210 -0.5483  0.3247  0.3531
  188HFI     F6 2743   1.651   2.604   2.210  0.1664  0.4498  0.5037
  188HFI     H1 2744   1.839   2.860   2.412  2.9066  0.0952  3.5544
  188HFI     H2 2745   1.584   2.746   2.429 -0.2381 -0.8511 -1.6057
  189HFI     O1 2746   1.604   3.434   2.751 -0.0208 -0.6191  0.3104
  189HFI     C1 2747   1.745   3.395   2.739 -0.0008 -0.5672  0.0900
  189HFI     C2 2748   1.753   3.254   2.685 -0.3163 -0.1553 -0.2754
  189HFI     F1 2749   1.660   3.221   2.589 -0.1313  0.0546  0.6039
  189HFI     F2 2750   1.743   3.165   2.784 -0.5032 -0.5234  0.1831
  189HFI     F3 2751   1.870   3.233   2.624  0.1545 -0.1757 -0.0086
  189HFI     C3 2752   1.826   3.425   2.865  0.0009  1.0164  0.1765
  189HFI     F4 2753   1.843   3.558   2.877  0.1534  0.0344 -0.1678
  189HFI     F5 2754   1.943   3.369   2.850 -0.0203 -0.2457  0.0288
  189HFI     F6 2755   1.766   3.380   2.977 -0.1650 -0.1735 -0.4359
  189HFI     H1 2756   1.575   3.434   2.844  1.3684 -1.9559  0.7597
  189HFI     H2 2757   1.790   3.455   2.659 -0.9297  0.3466  0.2491
  190HFI     O1 2758   1.198   1.111   3.459  0.1865 -0.1062  0.1758
  190HFI     C1 2759   1.337   1.066   3.448 -0.5589  0.5823  0.0653
  190HFI     C2 2760   1.425   1.182   3.488 -0.1739 -0.4984  0.5511
  190HFI     F1 2761   1.433   1.279   3.382 -0.1689  0.0676  0.0838
  190HFI     F2 2762   1.553   1.148   3.509  0.5069  0.0875 -1.0838
  190HFI     F3 2763   1.377   1.242   3.599 -0.4016 -0.1647  0.4520
  190HFI     C3 2764   1.370   0.989   3.318  0.0562 -0.0089 -0.0286
  190HFI     F4 2765   1.501   0.954   3.307 -0.6654 -0.3360  0.6272
  190HFI     F5 2766   1.342   1.070   3.219  0.3441  0.1186  0.3611
  190HFI     F6 2767   1.302   0.874   3.305  0.3147  0.0117  0.1125
  190HFI     H1 2768   1.175   1.187   3.404  0.8821 -1.5167 -2.1508
  190HFI     H2 2769   1.354   0.983   3.519 -1.3995 -0.4122 -0.8787
  191HFI     O1 2770   1.233   2.239   3.020  0.4639  0.1613 -0.1228
  191HFI     C1 2771   1.375   2.265   3.062  0.4247 -0.1679 -0.4889
  191HFI     C2 2772   1.471   2.145   3.044  0.2029  0.9574  0.1332
  191HFI     F1 2773   1.473   2.102   2.911 -0.7617  0.3269  0.4282
  191HFI     F2 2774   1.438   2.032   3.112  0.1223  0.1685 -0.0665
  191HFI     F3 2775   1.602   2.181   3.070  0.1756  0.1286 -0.4739
  191HFI     C3 2776   1.380   2.325   3.207  0.5025  0.1920  0.3673
  191HFI     F4 2777   1.292   2.424   3.222  0.1466 -0.4010 -0.4745
  191HFI     F5 2778   1.499   2.363   3.247 -0.5520  0.0614 -0.3449
  191HFI     F6 2779   1.335   2.226   3.290  0.0821 -0.0564 -0.7290
  191HFI     H1 2780   1.181   2.259   3.100  2.1091 -1.2845  1.3615
  191HFI     H2 2781   1.419   2.342   2.997  2.1462  0.3417  1.2166
  192HFI     O1 2782   1.302   0.829   0.211 -0.2660 -0.3958 -0.7671
  192HFI     C1 2783   1.236   0.847   0.081 -0.0316 -0.6931  0.4043
  192HFI     C2 2784   1.335   0.789  -0.031  0.4168  0.4613  0.2794
  192HFI     F1 2785   1.394   0.672   0.011  0.2976 -0.7404  0.0085
  192HFI     F2 2786   1.433   0.877  -0.051  0.3373 -0.3387  0.2183
  192HFI     F3 2787   1.277   0.770  -0.152  0.0105  0.2435  0.4094
  192HFI     C3 2788   1.178   0.993   0.054 -0.5297 -0.1879  0.1994
  192HFI     F4 2789   1.121   0.991  -0.061 -0.1885 -0.2747 -0.0515
  192HFI     F5 2790   1.280   1.088   0.052 -0.3801  0.0234  0.1249
  192HFI     F6 2791   1.078   1.016   0.141 -0.1878  0.1993 -0.3391
  192HFI     H1 2792   1.375   0.765   0.203  0.7171  0.3390  1.7635
  192HFI     H2 2793   1.147   0.783   0.074 -0.8173  0.4942 -0.5703
  193HFI     O1 2794   3.338   0.235   2.722  0.4804 -0.2552  0.2809
  193HFI     C1 2795   3.357   0.369   2.774  0.8110  0.2535  0.4934
  193HFI     C2 2796   3.477   0.435   2.700 -0.2252  1.2151  0.9723
  193HFI     F1 2797   3.465   0.441   2.563  0.3601  0.6861 -0.0078
  193HFI     F2 2798   3.587   0.358   2.727 -0.0836  0.2611 -0.6478
  193HFI     F3 2799   3.507   0.564   2.742  0.1167 -0.9102  0.2157
  193HFI     C3 2800   3.382   0.339   2.926  0.3692 -0.4518  0.6189
  193HFI     F4 2801   3.278   0.271   2.974 -0.0571 -0.4646 -0.6162
  193HFI     F5 2802   3.393   0.456   2.992  0.1863  0.4982 -0.2598
  193HFI     F6 2803   3.493   0.261   2.960  0.4923  0.6405 -0.2283
  193HFI     H1 2804   3.403   0.220   2.651 -1.1383  2.7663 -2.0235
  193HFI     H2 2805   3.265   0.426   2.757 -1.0685 -3.2751 -1.8756
  194HFI     O1 2806   0.953   0.810   2.406 -0.9899 -0.2198 -0.8239
  194HFI     C1 2807   0.903   0.714   2.311 -0.0533 -0.2723  0.7881
  194HFI     C2 2808   0.765   0.677   2.353 -0.8099 -0.2076  0.6420
  194HFI     F1 2809   0.770   0.593   2.465 -0.1349 -0.3297  0.3305
  194HFI     F2 2810   0.695   0.605   2.254 -0.4373  0.3458  0.4213
  194HFI     F3 2811   0.684   0.786   2.372 -0.1283  0.2369  0.3851
  194HFI     C3 2812   1.004   0.601   2.288 -0.1590  0.1359  0.3991
  194HFI     F4 2813   1.063   0.566   2.404 -0.6229  0.1456 -0.0176
  194HFI     F5 2814   1.097   0.640   2.203 -0.1079  0.1328 -0.1747
  194HFI     F6 2815   0.944   0.498   2.236 -0.3394  0.1016  0.5163
  194HFI     H1 2816   1.049   0.800   2.420 -0.9307  1.5654  0.1281
  194HFI     H2 2817   0.886   0.758   2.213 -0.2699 -0.7679  0.6023
  195HFI     O1 2818   1.220   2.866   2.781 -0.6536 -0.3151 -0.3972
  195HFI     C1 2819   1.359   2.843   2.814 -0.3374  0.3479 -0.0652
  195HFI     C2 2820   1.467   2.898   2.713  0.5635 -0.2431 -0.4620
  195HFI     F1 2821   1.459   2.837   2.594  0.6460 -0.1684 -0.3194
  195HFI     F2 2822   1.595   2.884   2.752 -0.3702  0.5922 -0.5117
  195HFI     F3 2823   1.442   3.027   2.690 -0.3380 -0.0014  0.1955
  195HFI     C3 2824   1.384   2.693   2.848 -0.7176 -0.3517 -0.2245
  195HFI     F4 2825   1.296   2.651   2.939  0.0711  0.4986  0.1737
  195HFI     F5 2826   1.511   2.675   2.893 -0.1627  0.3862  0.9266
  195HFI     F6 2827   1.367   2.617   2.736  0.1471  0.0096  0.3992
  195HFI     H1 2828   1.212   2.862   2.684  0.0247 -0.2119 -0.4591
  195HFI     H2 2829   1.393   2.903   2.900  0.2559  2.8357 -1.9520
  196HFI     O1 2830   2.909   1.707   2.250 -0.0743  0.2266  0.0385
  196HFI     C1 2831   2.995   1.769   2.351 -0.3015 -0.1296  0.3101
  196HFI     C2 2832   2.989   1.921   2.350 -0.4885 -0.3611  0.0502
  196HFI     F1 2833   2.864   1.963   2.378 -0.8491 -0.3542 -0.2405
  196HFI     F2 2834   3.021   1.968   2.225 -0.0243 -0.0050 -0.3251
  196HFI     F3 2835   3.069   1.978   2.447  0.1496  0.0524  0.2299
  196HFI     C3 2836   3.142   1.709   2.346  0.4909  0.1497 -0.0830
  196HFI     F4 2837   3.213   1.737   2.237 -0.3617  0.3698  0.1279
  196HFI     F5 2838   3.136   1.572   2.361  0.1151  0.3212 -0.2913
  196HFI     F6 2839   3.218   1.744   2.458 -0.0990  0.0148 -0.1796
  196HFI     H1 2840   2.956   1.692   2.167 -2.4718 -0.3374 -1.2750
  196HFI     H2 2841   2.948   1.742   2.447  1.7702 -0.8620  1.1451
  197HFI     O1 2842   1.110   1.960   3.000  0.3179  0.3329 -0.5405
  197HFI     C1 2843   1.072   1.896   2.879  0.5867 -0.2607 -0.3172
  197HFI     C2 2844   1.176   1.916   2.765 -0.0962  0.4290  0.2480
  197HFI     F1 2845   1.298   1.874   2.805  0.8203  0.2391  0.4257
  197HFI     F2 2846   1.192   2.047   2.730 -0.1298  0.0860 -0.1808
  197HFI     F3 2847   1.144   1.840   2.658 -0.1046  0.3593 -0.3000
  197HFI     C3 2848   0.929   1.944   2.846 -0.2154 -0.2876 -0.7032
  197HFI     F4 2849   0.928   2.073   2.803 -0.3869 -0.8274  0.2159
  197HFI     F5 2850   0.850   1.954   2.957  0.3334 -0.1158  0.6387
  197HFI     F6 2851   0.866   1.872   2.761 -0.2669  0.2058 -0.2906
  197HFI     H1 2852   1.129   2.052   2.977 -0.8962  0.8835  0.5521
  197HFI     H2 2853   1.064   1.787   2.882  0.3410 -0.2195  2.0856
  198HFI     O1 2854   2.272   3.160   3.022 -0.2570 -0.4851 -1.0903
  198HFI     C1 2855   2.239   3.269   2.932 -0.1206 -0.5615 -0.4611
  198HFI     C2 2856   2.282   3.241   2.781 -0.1979 -0.0855 -0.1642
  198HFI     F1 2857   2.262   3.108   2.748 -0.3055 -0.5818 -0.2403
  198HFI     F2 2858   2.409   3.272   2.762 -0.4123 -0.5455  0.7196
  198HFI     F3 2859   2.221   3.313   2.693 -0.1787 -0.1744  0.1229
  198HFI     C3 2860   2.292   3.405   2.985  0.3665 -0.4637 -0.1884
  198HFI     F4 2861   2.418   3.402   3.022 -0.3223 -0.6202  0.2754
  198HFI     F5 2862   2.217   3.464   3.083 -0.6101 -0.6539  0.3173
  198HFI     F6 2863   2.285   3.491   2.878 -0.5688  0.3595 -0.0403
  198HFI     H1 2864   2.369   3.161   3.029 -0.2974 -0.1061 -0.5411
  198HFI     H2 2865   2.131   3.273   2.918 -0.4020 -0.0707  1.6079
  199HFI     O1 2866   2.642   3.314   3.548  0.2269 -0.1393 -0.3772
  199HFI     C1 2867   2.587   3.205   3.630  0.2237  0.4680  0.0253
  199HFI     C2 2868   2.512   3.099   3.562 -0.0335  0.1882  0.7353
  199HFI     F1 2869   2.396   3.139   3.496 -0.4367 -0.1862 -0.3464
  199HFI     F2 2870   2.482   2.994   3.641 -0.3117 -0.3480 -0.0081
  199HFI     F3 2871   2.592   3.050   3.470  0.2742 -0.5339 -0.2512
  199HFI     C3 2872   2.523   3.259   3.758 -1.1747  0.4476 -0.4556
  199HFI     F4 2873   2.405   3.308   3.729  0.2641  0.3660  0.5154
  199HFI     F5 2874   2.603   3.360   3.809  0.0550 -0.0523 -0.0703
  199HFI     F6 2875   2.515   3.163   3.856  0.0692 -0.0050 -0.0348
  199HFI     H1 2876   2.672   3.391   3.598 -1.9436 -0.8536  2.0714
  199HFI     H2 2877   2.675   3.161   3.679  0.2849 -0.7865 -1.1867
  200HFI     O1 2878   2.407   1.705   3.036  0.1125  0.3823  0.3284
  200HFI     C1 2879   2.291   1.687   3.122 -0.7262  0.4044 -0.3893
  200HFI     C2 2880   2.314   1.778   3.255  0.3770 -0.5506 -0.2618
  200HFI     F1 2881   2.194   1.804   3.318 -0.0193 -0.0784 -0.1988
  200HFI     F2 2882   2.365   1.905   3.234 -0.1558 -0.1740  0.0975
  200HFI     F3 2883   2.394   1.710   3.345 -0.2539  0.1774  0.0077
  200HFI     C3 2884   2.253   1.536   3.154 -0.2397 -0.6139 -0.0075
  200HFI     F4 2885   2.149   1.532   3.239 -0.0195  0.7406  0.5286
  200HFI     F5 2886   2.353   1.469   3.207 -0.5714  0.1985  0.0067
  200HFI     F6 2887   2.223   1.459   3.050  0.0631 -0.2305 -0.3932
  200HFI     H1 2888   2.384   1.666   2.950  2.0546  1.9177 -0.9058
  200HFI     H2 2889   2.203   1.734   3.076 -0.8281 -0.0988 -0.7110
  201HFI     O1 2890   2.205   0.358   3.544  0.3308 -0.3915 -0.3359
  201HFI     C1 2891   2.129   0.367   3.418  0.0462 -0.3168  0.7169
  201HFI     C2 2892   2.195   0.285   3.309 -0.0441 -0.3847  0.5485
  201HFI     F1 2893   2.226   0.162   3.350  0.1673 -0.1193  0.4529
  201HFI     F2 2894   2.309   0.343   3.260 -0.3750  0.0365 -0.0674
  201HFI     F3 2895   2.109   0.268   3.202  0.1187 -0.1887  0.0509
  201HFI     C3 2896   2.091   0.518   3.377  0.1459 -0.5242  0.2890
  201HFI     F4 2897   2.011   0.513   3.265 -0.4786 -0.5339 -0.2208
  201HFI     F5 2898   2.200   0.592   3.343 -0.0558 -0.1866 -0.4140
  201HFI     F6 2899   2.012   0.574   3.476 -0.6525 -0.1182  0.2838
  201HFI     H1 2900   2.302   0.357   3.530  0.5886 -0.5313  1.4104
  201HFI     H2 2901   2.032   0.316   3.430  1.0218 -2.4572 -0.2866
  202HFI     O1 2902   3.285   3.393   2.803  0.1387  0.1707  0.0070
  202HFI     C1 2903   3.152   3.330   2.800  0.3680  0.5759  0.3575
  202HFI     C2 2904   3.160   3.179   2.761 -0.1339 -0.4601 -0.5963
  202HFI     F1 2905   3.243   3.109   2.845 -0.2145  0.2891  0.3799
  202HFI     F2 2906   3.205   3.161   2.630  0.2759  0.1249 -0.1929
  202HFI     F3 2907   3.041   3.112   2.765 -0.6344  0.1813 -0.3673
  202HFI     C3 2908   3.052   3.412   2.713 -0.1461  0.6588 -0.2785
  202HFI     F4 2909   3.040   3.540   2.752 -0.4645 -0.2507  0.2430
  202HFI     F5 2910   2.925   3.363   2.717  0.2913 -0.4874 -0.1000
  202HFI     F6 2911   3.092   3.397   2.591 -0.4060  0.1052  0.1230
  202HFI     H1 2912   3.277   3.480   2.759 -2.8001 -0.4539 -0.7836
  202HFI     H2 2913   3.107   3.333   2.900 -0.4277 -0.5022  0.0413
  203HFI     O1 2914   2.998   1.101   3.360 -0.1166  0.1011  0.1300
  203HFI     C1 2915   2.986   1.199   3.251 -0.3319  0.1117 -0.5902
  203HFI     C2 2916   3.034   1.340   3.289  0.2899  0.2248 -1.0144
  203HFI     F1 2917   3.167   1.343   3.303 -0.1840 -0.0219 -0.0067
  203HFI     F2 2918   2.977   1.387   3.401  0.5041  0.4797 -0.1459
  203HFI     F3 2919   3.006   1.429   3.192 -0.5281  0.1555  0.0938
  203HFI     C3 2920   2.832   1.190   3.206  0.1484  0.3065  0.1411
  203HFI     F4 2921   2.754   1.241   3.305 -0.0003  0.2590 -0.3060
  203HFI     F5 2922   2.792   1.056   3.197 -0.3351  0.4442  0.4090
  203HFI     F6 2923   2.803   1.252   3.089 -0.4530 -0.0433  0.4831
  203HFI     H1 2924   2.924   1.126   3.419  1.3124 -0.9388  2.4363
  203HFI     H2 2925   3.044   1.169   3.162 -0.6237 -1.0402 -0.3991
  204HFI     O1 2926   0.540   0.672   3.244 -0.1140  0.7024 -0.1503
  204HFI     C1 2927   0.388   0.664   3.223 -0.3528  0.1228 -0.2604
  204HFI     C2 2928   0.329   0.527   3.269 -0.1581  0.5567  0.6472
  204HFI     F1 2929   0.364   0.424   3.194  0.0851 -0.2129 -0.1764
  204HFI     F2 2930   0.200   0.540   3.265  0.0956 -0.6521  0.3966
  204HFI     F3 2931   0.364   0.510   3.398  0.4747  0.2143 -0.4868
  204HFI     C3 2932   0.347   0.716   3.083  0.2315  0.9146  0.5507
  204HFI     F4 2933   0.330   0.613   2.990 -0.4583  0.0333 -0.4660
  204HFI     F5 2934   0.440   0.804   3.043  0.7617  0.5460  0.4481
  204HFI     F6 2935   0.237   0.779   3.087 -0.1434  0.0831  0.1858
  204HFI     H1 2936   0.567   0.625   3.325  0.8036  1.0294 -0.2563
  204HFI     H2 2937   0.338   0.730   3.295  0.6396 -0.2573  0.7910
  205HFI     O1 2938   0.274   1.009   2.671  0.5833  0.1825 -0.1861
  205HFI     C1 2939   0.376   0.949   2.759  0.7622 -0.6008  0.6462
  205HFI     C2 2940   0.476   1.064   2.808  0.2462 -0.0080  0.2742
  205HFI     F1 2941   0.415   1.185   2.827 -0.1173  0.2061 -0.3892
  205HFI     F2 2942   0.573   1.083   2.714 -0.1715  0.1023  0.6009
  205HFI     F3 2943   0.545   1.038   2.927  0.4025  0.3382 -0.1222
  205HFI     C3 2944   0.454   0.825   2.704  0.4352 -0.9778 -0.1050
  205HFI     F4 2945   0.505   0.850   2.587  0.1645 -0.1217  0.1846
  205HFI     F5 2946   0.376   0.714   2.693 -0.6532 -0.1190 -0.1374
  205HFI     F6 2947   0.554   0.789   2.783 -0.2515 -0.5481  0.1766
  205HFI     H1 2948   0.258   0.938   2.607  1.9984 -2.1487  1.9794
  205HFI     H2 2949   0.319   0.918   2.848 -1.4191 -1.5699 -1.0585
  206HFI     O1 2950   2.653   0.706   3.143 -0.1067  0.6735  0.3574
  206HFI     C1 2951   2.627   0.750   3.278 -0.3692  0.5608  0.0912
  206HFI     C2 2952   2.750   0.732   3.364  1.1305  0.3938 -0.4511
  206HFI     F1 2953   2.863   0.769   3.307 -0.1016  0.2816  0.2962
  206HFI     F2 2954   2.758   0.603   3.389  0.1232  0.2809  0.0411
  206HFI     F3 2955   2.736   0.807   3.475  0.4333  0.1249  0.7352
  206HFI     C3 2956   2.496   0.688   3.332  0.0720 -0.0823  0.0277
  206HFI     F4 2957   2.492   0.552   3.327 -0.7015 -0.2818  0.3095
  206HFI     F5 2958   2.395   0.739   3.259  0.1686  0.7253  0.1057
  206HFI     F6 2959   2.478   0.734   3.458 -0.4425  0.0072 -0.0652
  206HFI     H1 2960   2.655   0.609   3.132  1.4833  0.8305 -0.9462
  206HFI     H2 2961   2.610   0.859   3.274  1.1113  0.7406 -2.0544
  207HFI     O1 2962   3.288   1.702   2.895  0.2150  0.0801  0.3444
  207HFI     C1 2963   3.434   1.698   2.881  0.3512 -0.4448  0.6055
  207HFI     C2 2964   3.478   1.729   2.732 -0.1770  0.0819 -0.5714
  207HFI     F1 2965   3.424   1.845   2.697  0.1746  0.1866  0.7792
  207HFI     F2 2966   3.434   1.634   2.654 -0.3409  0.5507 -0.5300
  207HFI     F3 2967   3.614   1.747   2.722  0.3790 -0.2214 -0.0524
  207HFI     C3 2968   3.496   1.569   2.928  0.4674  0.2915  0.0118
  207HFI     F4 2969   3.415   1.465   2.879 -0.0634 -0.5497  0.0500
  207HFI     F5 2970   3.503   1.557   3.065  0.2167  1.1474  0.2508
  207HFI     F6 2971   3.625   1.552   2.884  0.1841  0.1740 -0.3144
  207HFI     H1 2972   3.251   1.791   2.884 -1.2501 -0.3902  1.3958
  207HFI     H2 2973   3.484   1.773   2.943 -0.1159 -1.5441  2.3420
  208HFI     O1 2974   2.363   2.281   3.039 -0.1081  0.4792  0.2823
  208HFI     C1 2975   2.336   2.217   2.907  0.4051 -0.0339 -0.3563
  208HFI     C2 2976   2.317   2.064   2.926 -0.7561 -0.0890 -0.3545
  208HFI     F1 2977   2.273   1.998   2.813  0.2693 -0.4575 -0.2594
  208HFI     F2 2978   2.229   2.036   3.023  0.6212  0.1055  0.0767
  208HFI     F3 2979   2.432   1.999   2.958  0.1430  0.6022 -0.8293
  208HFI     C3 2980   2.430   2.264   2.802  0.8287 -0.1195  0.2813
  208HFI     F4 2981   2.415   2.202   2.680  0.2888  0.0602  0.0224
  208HFI     F5 2982   2.555   2.220   2.842  1.0960  0.1492 -0.2013
  208HFI     F6 2983   2.433   2.399   2.789 -0.4394  0.5936  0.0958
  208HFI     H1 2984   2.457   2.263   3.053 -0.3302 -1.6191 -0.7777
  208HFI     H2 2985   2.236   2.250   2.875  0.7043  0.8165 -0.4330
  209HFI     O1 2986   0.330   0.327   2.470  0.2740  0.4457 -0.0530
  209HFI     C1 2987   0.337   0.191   2.426 -0.1913 -0.0588  0.6242
  209HFI     C2 2988   0.444   0.167   2.308  0.2514  0.1123 -0.3540
  209HFI     F1 2989   0.563   0.221   2.343  0.4004 -0.0547 -0.1743
  209HFI     F2 2990   0.408   0.227   2.194  0.6187 -0.2296  0.2243
  209HFI     F3 2991   0.465   0.040   2.284 -0.1450  0.1797 -0.0550
  209HFI     C3 2992   0.198   0.133   2.397 -0.1674  0.0582  0.4747
  209HFI     F4 2993   0.112   0.157   2.494 -0.2251 -0.1001  0.4134
  209HFI     F5 2994   0.201   0.003   2.387 -0.4295 -0.1811  0.2073
  209HFI     F6 2995   0.144   0.185   2.286 -0.1411  0.0682 -0.7720
  209HFI     H1 2996   0.257   0.372   2.425 -0.1238 -0.1156  0.0266
  209HFI     H2 2997   0.380   0.133   2.509 -2.0446  0.2312  1.8104
  210HFI     O1 2998   0.291   1.571   2.417 -0.2294 -0.3211 -0.1224
  210HFI     C1 2999   0.168   1.494   2.408 -0.5633 -0.3064 -0.4378
  210HFI     C2 3000   0.181   1.362   2.495  0.1989  0.5011 -0.1796
  210HFI     F1 3001   0.067   1.286   2.497  0.6719  0.2681 -0.0948
  210HFI     F2 3002   0.203   1.392   2.627 -0.0635  0.2497  0.8847
  210HFI     F3 3003   0.276   1.285   2.458 -0.2671  0.3949 -0.3558
  210HFI     C3 3004   0.124   1.462   2.263 -0.5618 -0.0296  0.3599
  210HFI     F4 3005   0.223   1.390   2.206 -0.2988  0.9107 -0.1495
  210HFI     F5 3006   0.115   1.577   2.189  0.6366  0.3729  0.2403
  210HFI     F6 3007   0.008   1.399   2.247 -0.4899  0.0991 -0.1230
  210HFI     H1 3008   0.370   1.542   2.369 -0.9961  0.7056 -2.0667
  210HFI     H2 3009   0.087   1.556   2.449  0.5959  0.2113  1.1455
  211HFI     O1 3010   0.036   2.424   3.322  0.1761  0.3961  0.1099
  211HFI     C1 3011   0.179   2.446   3.327 -0.3619 -0.1267 -0.3899
  211HFI     C2 3012   0.210   2.541   3.444 -0.3517  0.1935  0.3725
  211HFI     F1 3013   0.333   2.578   3.439  0.1274  0.0326  0.1148
  211HFI     F2 3014   0.194   2.465   3.548 -0.0670 -0.2128 -0.0235
  211HFI     F3 3015   0.130   2.647   3.461  0.6734 -0.3982  0.3042
  211HFI     C3 3016   0.237   2.501   3.196  0.5246  0.2405 -0.2947
  211HFI     F4 3017   0.376   2.478   3.199 -0.2993 -0.1330 -0.4484
  211HFI     F5 3018   0.221   2.634   3.188 -0.0772 -0.4478  0.4280
  211HFI     F6 3019   0.188   2.438   3.083 -0.5157  0.0946  0.1321
  211HFI     H1 3020  -0.008   2.487   3.262  0.7939  1.4033  0.6971
  211HFI     H2 3021   0.228   2.351   3.347 -1.3568 -0.2098  1.8382
  212HFI     O1 3022   1.688   0.548   3.387 -0.0162  0.2177  0.4115
  212HFI     C1 3023   1.579   0.453   3.410  0.2375  0.4382  0.3577
  212HFI     C2 3024   1.603   0.309   3.350  0.2429  0.0018 -0.8228
  212HFI     F1 3025   1.735   0.279   3.366  0.0556 -0.7934  0.5051
  212HFI     F2 3026   1.574   0.298   3.223 -0.6785  0.2306 -0.0945
  212HFI     F3 3027   1.528   0.220   3.423 -0.1812 -0.2834  0.2304
  212HFI     C3 3028   1.440   0.506   3.367  0.4633 -0.3731  0.2414
  212HFI     F4 3029   1.441   0.568   3.249 -0.0468 -0.1120  0.3563
  212HFI     F5 3030   1.408   0.597   3.449 -0.0778 -0.2663 -0.2552
  212HFI     F6 3031   1.345   0.419   3.364  0.1677  0.1840 -0.1894
  212HFI     H1 3032   1.721   0.539   3.296  2.7023 -0.0139  1.3695
  212HFI     H2 3033   1.579   0.434   3.518  0.8720 -2.1133 -0.0426
  213HFI     O1 3034   1.016   2.479   2.771  0.2082  0.3945  0.7506
  213HFI     C1 3035   0.989   2.601   2.839  0.0689 -0.4118 -0.4455
  213HFI     C2 3036   0.939   2.567   2.982 -0.3407 -0.2674  0.0494
  213HFI     F1 3037   0.832   2.483   2.976 -0.0043 -0.2293 -0.1468
  213HFI     F2 3038   0.912   2.677   3.055  0.2848 -0.1899  0.0946
  213HFI     F3 3039   1.044   2.495   3.047  0.4873 -0.0791  0.3224
  213HFI     C3 3040   0.900   2.697   2.754 -0.4415  0.3383  0.6763
  213HFI     F4 3041   0.878   2.815   2.816 -0.4040  0.3174  0.3370
  213HFI     F5 3042   0.770   2.639   2.733 -0.4832 -0.1161 -0.0242
  213HFI     F6 3043   0.969   2.720   2.637 -0.0570  0.0288 -0.5845
  213HFI     H1 3044   0.941   2.421   2.791 -0.3616  1.2319  1.0940
  213HFI     H2 3045   1.076   2.666   2.851 -0.6087  0.6316 -1.0676
  214HFI     O1 3046   0.815   1.531   2.694  0.2168 -0.5661  0.2574
  214HFI     C1 3047   0.672   1.544   2.737 -0.0724  0.0724  0.1210
  214HFI     C2 3048   0.659   1.459   2.875  0.2513 -0.0277  0.1720
  214HFI     F1 3049   0.745   1.502   2.970 -0.6495  0.3109  0.0449
  214HFI     F2 3050   0.695   1.329   2.846  0.0135 -0.0513  0.4119
  214HFI     F3 3051   0.537   1.459   2.933  0.1867  0.5091 -0.2198
  214HFI     C3 3052   0.561   1.518   2.639  0.4659  0.1231  0.2323
  214HFI     F4 3053   0.546   1.391   2.619  0.6546  0.0920 -0.3270
  214HFI     F5 3054   0.594   1.570   2.521  0.2194  0.3263  0.0066
  214HFI     F6 3055   0.448   1.577   2.675 -0.1460  0.4999  0.2749
  214HFI     H1 3056   0.811   1.514   2.599 -0.2677 -0.2752  0.2256
  214HFI     H2 3057   0.656   1.649   2.764 -1.9575 -0.3474  0.7674
  215HFI     O1 3058   0.531   3.414   3.248  0.0237 -0.2369 -0.3411
  215HFI     C1 3059   0.444   3.408   3.368 -0.2257  0.0736  0.1976
  215HFI     C2 3060   0.369   3.538   3.374  0.1083  0.2481  0.0771
  215HFI     F1 3061   0.317   3.559   3.254  0.5998 -0.1748 -0.3280
  215HFI     F2 3062   0.438   3.652   3.406 -0.3813 -0.4621 -0.4164
  215HFI     F3 3063   0.275   3.530   3.470  0.3253  0.2722  0.1897
  215HFI     C3 3064   0.534   3.378   3.496 -0.1252  0.3971  0.1865
  215HFI     F4 3065   0.619   3.483   3.524  0.2892 -0.0919  0.0911
  215HFI     F5 3066   0.607   3.267   3.473 -0.0960  0.0468  0.1995
  215HFI     F6 3067   0.455   3.354   3.597 -0.1970  0.4748 -0.0713
  215HFI     H1 3068   0.485   3.402   3.163  0.5857  0.4190 -0.7376
  215HFI     H2 3069   0.379   3.320   3.357  0.8210 -0.9567  1.9111
  216HFI     O1 3070   1.723   0.949   3.666 -0.0359  0.0532 -0.4399
  216HFI     C1 3071   1.852   0.967   3.603  0.2380 -0.1496 -0.4203
  216HFI     C2 3072   1.904   1.108   3.630 -0.3237 -0.3156  0.3125
  216HFI     F1 3073   1.802   1.190   3.680  0.8453 -0.2054  0.2802
  216HFI     F2 3074   1.952   1.171   3.531  0.6854 -0.0228  0.5743
  216HFI     F3 3075   2.007   1.101   3.715 -0.4572 -0.8695  0.6993
  216HFI     C3 3076   1.869   0.927   3.463  0.7757 -0.4221  0.2466
  216HFI     F4 3077   1.819   0.808   3.442  0.0620 -0.3871 -0.2069
  216HFI     F5 3078   2.002   0.931   3.424 -0.5610  0.3361 -0.0710
  216HFI     F6 3079   1.802   1.016   3.380 -0.4717  0.2500  0.2564
  216HFI     H1 3080   1.650   0.989   3.615 -1.2026 -0.5508  0.7039
  216HFI     H2 3081   1.916   0.901   3.664 -0.9292 -0.8150  0.0916
  217HFI     O1 3082   3.197   1.313   2.590 -0.3192 -0.0847  0.4005
  217HFI     C1 3083   3.138   1.357   2.711 -0.1634 -0.4044 -0.3770
  217HFI     C2 3084   3.135   1.248   2.823  0.1285  0.2937  0.2948
  217HFI     F1 3085   3.117   1.298   2.942 -0.1956  0.2438  0.3032
  217HFI     F2 3086   3.249   1.182   2.829 -0.3103  0.0919 -0.2771
  217HFI     F3 3087   3.039   1.157   2.807  0.4374 -0.2416  0.0591
  217HFI     C3 3088   3.002   1.430   2.694  0.7382 -0.1502 -0.0505
  217HFI     F4 3089   3.003   1.542   2.612 -0.3152 -0.1176  0.1357
  217HFI     F5 3090   2.959   1.477   2.815  0.0082  0.4080  0.0541
  217HFI     F6 3091   2.906   1.353   2.646  0.2157  0.0812  0.2910
  217HFI     H1 3092   3.285   1.272   2.598 -0.5332 -0.5882  0.2239
  217HFI     H2 3093   3.206   1.434   2.750 -1.1306  1.9213 -3.0760
  218HFI     O1 3094   3.201   0.868   3.339  0.4247  0.7669 -0.5547
  218HFI     C1 3095   3.262   0.770   3.430  0.5366  0.0341  0.2553
  218HFI     C2 3096   3.179   0.765   3.563 -0.3892  0.3495 -0.0822
  218HFI     F1 3097   3.180   0.891   3.624 -0.3641 -0.1755  0.6587
  218HFI     F2 3098   3.220   0.665   3.649  0.1576 -0.0796  0.1733
  218HFI     F3 3099   3.059   0.740   3.533  0.6652 -0.1850  0.4587
  218HFI     C3 3100   3.411   0.795   3.460 -0.2174  0.3860  0.6666
  218HFI     F4 3101   3.434   0.905   3.530 -0.0619  0.1277 -0.4373
  218HFI     F5 3102   3.478   0.806   3.344  0.3055 -0.1789 -0.1215
  218HFI     F6 3103   3.467   0.690   3.522  0.4317  0.0658 -0.7825
  218HFI     H1 3104   3.155   0.939   3.387 -0.3788 -0.2739  0.2432
  218HFI     H2 3105   3.253   0.670   3.386 -0.4842  0.1824  0.1125
  219HFI     O1 3106   3.063   2.907   3.094  0.2790 -0.0911  0.2059
  219HFI     C1 3107   3.115   2.770   3.102  0.1980  0.6087 -0.2283
  219HFI     C2 3108   3.217   2.751   3.222  0.0929  0.0883  0.1072
  219HFI     F1 3109   3.161   2.792   3.344  0.4318 -0.3582  0.0202
  219HFI     F2 3110   3.332   2.821   3.200 -0.3155 -0.0115  0.2719
  219HFI     F3 3111   3.255   2.627   3.238 -0.0100 -0.2244  0.1056
  219HFI     C3 3112   3.180   2.733   2.969 -0.2467 -0.0679  0.3735
  219HFI     F4 3113   3.091   2.721   2.867  0.7608 -0.1532  0.5306
  219HFI     F5 3114   3.237   2.612   2.977  0.4822  0.0851 -0.2618
  219HFI     F6 3115   3.268   2.832   2.932 -0.1204  0.0357  0.3703
  219HFI     H1 3116   3.137   2.962   3.062  0.0117 -1.3621 -2.6983
  219HFI     H2 3117   3.036   2.698   3.127  0.0248  0.5034 -1.0778
  220HFI     O1 3118   0.180   0.833   2.495 -0.1920 -0.4243 -0.9477
  220HFI     C1 3119   0.253   0.849   2.363 -0.1822 -0.1250 -0.7845
  220HFI     C2 3120   0.195   0.963   2.269 -0.4659 -0.3519 -0.1191
  220HFI     F1 3121   0.114   0.916   2.173 -0.2176 -0.4308  0.3224
  220HFI     F2 3122   0.300   1.018   2.206 -0.1478  0.0404  0.3410
  220HFI     F3 3123   0.142   1.067   2.339 -0.7249 -0.2483 -0.5440
  220HFI     C3 3124   0.268   0.707   2.297  0.3803 -0.4975 -0.5060
  220HFI     F4 3125   0.150   0.649   2.261  0.1047 -0.0013  0.2271
  220HFI     F5 3126   0.322   0.627   2.383  0.2622 -0.3453 -0.0846
  220HFI     F6 3127   0.353   0.704   2.189 -0.0912  0.2320  0.2308
  220HFI     H1 3128   0.094   0.792   2.475 -0.5840 -0.2313  0.2631
  220HFI     H2 3129   0.355   0.887   2.381  0.8238 -3.0273 -0.0643
  221HFI     O1 3130   1.822   2.437   3.171 -0.1015  0.2610 -0.0077
  221HFI     C1 3131   1.926   2.460   3.077 -0.3030 -0.2246 -0.3727
  221HFI     C2 3132   1.925   2.354   2.963  0.3653 -0.3513  0.2976
  221HFI     F1 3133   1.822   2.368   2.878  0.2043 -0.6278  0.4776
  221HFI     F2 3134   1.926   2.232   3.016 -0.2432  0.1920 -0.3339
  221HFI     F3 3135   2.041   2.361   2.893  0.1787 -0.3699  0.0727
  221HFI     C3 3136   2.061   2.479   3.151 -1.2210 -0.3386 -0.3851
  221HFI     F4 3137   2.109   2.356   3.161  0.1508 -0.0626 -0.2422
  221HFI     F5 3138   2.040   2.533   3.274  0.0999 -0.0679  0.3728
  221HFI     F6 3139   2.153   2.548   3.083  0.3017  0.1663 -0.3781
  221HFI     H1 3140   1.820   2.342   3.194  2.5467  0.0056 -0.6762
  221HFI     H2 3141   1.902   2.554   3.025 -3.3524 -1.5296 -1.4009
  222HFI     O1 3142   0.897   2.952   3.455  0.0048  0.0110  0.2276
  222HFI     C1 3143   0.975   2.912   3.341  0.2952 -0.1065  0.2142
  222HFI     C2 3144   1.116   2.857   3.380  0.3893 -0.3625  0.2576
  222HFI     F1 3145   1.115   2.774   3.487 -0.6496  0.4057  0.4071
  222HFI     F2 3146   1.203   2.962   3.402 -0.1427 -0.6457 -0.1647
  222HFI     F3 3147   1.159   2.785   3.278  0.0382  0.2631  0.5377
  222HFI     C3 3148   0.974   3.024   3.238  0.0397  0.3324  0.5605
  222HFI     F4 3149   1.041   2.984   3.125  0.7692 -0.3563  0.2309
  222HFI     F5 3150   1.036   3.131   3.300 -0.3273  0.0256  0.0511
  222HFI     F6 3151   0.848   3.062   3.202  0.0287 -0.5916 -0.4117
  222HFI     H1 3152   0.806   2.957   3.420  0.3604 -0.8549 -0.8299
  222HFI     H2 3153   0.922   2.835   3.284 -0.2553  0.1894  0.3263
  223HFI     O1 3154   3.055   3.264   0.343  0.2931  0.2093  0.0549
  223HFI     C1 3155   3.046   3.255   0.195  0.0898 -0.1893 -0.3304
  223HFI     C2 3156   3.110   3.385   0.130 -0.0973  0.0049 -0.6691
  223HFI     F1 3157   3.242   3.404   0.176 -0.0556 -0.1075 -0.2060
  223HFI     F2 3158   3.039   3.499   0.164 -0.8530  0.3358  0.2843
  223HFI     F3 3159   3.109   3.370  -0.009  0.3740 -0.7498 -0.0896
  223HFI     C3 3160   2.901   3.226   0.149 -0.5489 -0.1176  0.4002
  223HFI     F4 3161   2.827   3.326   0.206  0.2267 -0.1200 -0.0371
  223HFI     F5 3162   2.847   3.109   0.194  0.2065  0.3129 -0.4152
  223HFI     F6 3163   2.884   3.242   0.019 -0.1269  0.1870  0.1193
  223HFI     H1 3164   2.967   3.278   0.383  0.8641  0.6208  1.2138
  223HFI     H2 3165   3.094   3.166   0.151 -0.5849 -0.2728 -0.9197
  224HFI     O1 3166   0.388   1.403   3.363  0.4837 -0.1023  0.2120
  224HFI     C1 3167   0.288   1.306   3.329  0.0769 -0.3994 -0.5149
  224HFI     C2 3168   0.247   1.214   3.443 -0.6919  0.8011  0.9478
  224HFI     F1 3169   0.181   1.287   3.537  0.4339 -0.4147 -0.1472
  224HFI     F2 3170   0.364   1.163   3.493  0.0271  0.0851 -0.1582
  224HFI     F3 3171   0.161   1.114   3.401 -0.0523  0.8472  0.1596
  224HFI     C3 3172   0.327   1.227   3.204  0.6325 -0.3100  0.9135
  224HFI     F4 3173   0.420   1.134   3.232 -0.1131  0.0450  0.7640
  224HFI     F5 3174   0.388   1.301   3.108  0.0977  0.5450 -0.6542
  224HFI     F6 3175   0.221   1.165   3.151 -0.2571  0.1412  0.4233
  224HFI     H1 3176   0.439   1.420   3.282 -0.8907  1.8053 -0.2899
  224HFI     H2 3177   0.198   1.360   3.296  0.5147  0.6885  0.0375
  225HFI     O1 3178   1.186   1.571   3.316 -0.1509 -0.2735 -0.2223
  225HFI     C1 3179   1.235   1.702   3.283 -0.1264 -0.0623 -0.1097
  225HFI     C2 3180   1.384   1.712   3.321  0.0472 -0.0566 -0.4144
  225HFI     F1 3181   1.459   1.612   3.263 -0.0271  0.4220 -0.0362
  225HFI     F2 3182   1.386   1.692   3.452  0.1821  0.3171 -0.2715
  225HFI     F3 3183   1.437   1.828   3.292  0.0474 -0.4477  0.0749
  225HFI     C3 3184   1.145   1.824   3.325  1.0109 -0.2816  0.4640
  225HFI     F4 3185   1.193   1.941   3.272  0.4724  0.8220  0.2953
  225HFI     F5 3186   1.146   1.837   3.455 -0.2221  0.0498 -0.1346
  225HFI     F6 3187   1.008   1.811   3.281  0.4985  0.1236 -0.0054
  225HFI     H1 3188   1.242   1.502   3.277  0.6062  0.3099 -0.1754
  225HFI     H2 3189   1.237   1.709   3.173  3.8468 -1.9718 -0.2130
  226HFI     O1 3190   2.748   3.067   2.450 -0.4599 -0.0305 -0.1145
  226HFI     C1 3191   2.802   3.012   2.572  0.0060  0.1591 -0.4046
  226HFI     C2 3192   2.838   2.862   2.556 -0.2791  0.2418 -0.2936
  226HFI     F1 3193   2.743   2.776   2.582 -0.2484 -0.2559  0.1761
  226HFI     F2 3194   2.935   2.832   2.642 -0.4432 -0.1747 -0.0181
  226HFI     F3 3195   2.885   2.839   2.427  0.5432 -0.2252  0.2988
  226HFI     C3 3196   2.713   3.037   2.699 -0.2234 -0.0088  0.4687
  226HFI     F4 3197   2.753   2.965   2.805 -0.5179  0.2467 -0.1379
  226HFI     F5 3198   2.579   3.011   2.676  0.0434  0.2671  0.0613
  226HFI     F6 3199   2.724   3.161   2.738 -0.3428 -0.2542  0.1531
  226HFI     H1 3200   2.658   3.036   2.429 -0.9303  0.4490  1.1485
  226HFI     H2 3201   2.894   3.069   2.588 -0.5598  0.1773  3.3283
  227HFI     O1 3202   1.168   2.574   2.488  0.1536 -0.3902  0.0277
  227HFI     C1 3203   1.179   2.533   2.356  0.2640 -0.0277  0.1027
  227HFI     C2 3204   1.098   2.405   2.324 -0.5986  0.0848  0.2013
  227HFI     F1 3205   0.962   2.430   2.334  0.0154 -0.4597  0.6588
  227HFI     F2 3206   1.123   2.302   2.402 -0.0012  0.3346 -0.8924
  227HFI     F3 3207   1.117   2.369   2.194  0.0617  0.7966 -0.1816
  227HFI     C3 3208   1.331   2.514   2.318  0.1040 -0.3868  0.4939
  227HFI     F4 3209   1.352   2.518   2.188 -0.1165 -0.0151  0.0750
  227HFI     F5 3210   1.391   2.404   2.361  0.6016  0.0511  0.0377
  227HFI     F6 3211   1.398   2.624   2.362  0.0353  0.2196 -0.1397
  227HFI     H1 3212   1.169   2.505   2.557 -2.5869  0.4024  0.9321
  227HFI     H2 3213   1.134   2.604   2.285  1.1400  0.1082 -0.3206
  228HFI     O1 3214   2.056   2.947   2.742  0.0159  0.7750  0.0434
  228HFI     C1 3215   1.966   2.832   2.763  0.4710 -0.1636  0.0843
  228HFI     C2 3216   1.900   2.826   2.908 -0.5211  0.3931  0.3271
  228HFI     F1 3217   1.984   2.793   3.003  0.1239  0.3038 -0.3533
  228HFI     F2 3218   1.797   2.740   2.904  0.0352  0.0192  0.0443
  228HFI     F3 3219   1.838   2.940   2.942  0.4998 -0.5768  0.0963
  228HFI     C3 3220   2.045   2.699   2.731 -0.1891 -0.0014  0.5970
  228HFI     F4 3221   2.164   2.702   2.799 -0.5237 -0.4014  0.0821
  228HFI     F5 3222   2.071   2.698   2.598  0.5436 -0.1511  0.0084
  228HFI     F6 3223   1.973   2.594   2.766  0.3833  0.1724 -0.2388
  228HFI     H1 3224   2.136   2.935   2.796  0.4937 -0.4336 -0.9064
  228HFI     H2 3225   1.883   2.832   2.692 -0.3268  0.1801  0.9960
   3.40320   3.43847   3.80000
