HFIP comparator n4
 3225
    1GR      C1    1   0.000   0.000   1.900  0.0000  0.0000  0.0000
    1GR      C2    2   0.142   0.000   1.900  0.0000  0.0000  0.0000
    1GR      C3    3   0.213   0.123   1.900  0.0000  0.0000  0.0000
    1GR      C4    4   0.354   0.123   1.900  0.0000  0.0000  0.0000
    1GR      C5    5   3.403   0.246   1.900  0.0000  0.0000  0.0000
    1GR      C6    6   0.142   0.246   1.900  0.0000  0.0000  0.0000
    1GR      C7    7   0.213   0.368   1.900  0.0000  0.0000  0.0000
    1GR      C8    8   0.354   0.368   1.900  0.0000  0.0000  0.0000
    1GR      C9    9   0.000   0.491   1.900  0.0000  0.0000  0.0000
    1GR     C10   10   0.142   0.491   1.900  0.0000  0.0000  0.0000
    1GR     C11   11   0.213   0.614   1.900  0.0000  0.0000  0.0000
    1GR     C12   12   0.354   0.614   1.900  0.0000  0.0000  0.0000
    1GR     C13   13   0.000   0.737   1.900  0.0000  0.0000  0.0000
    1GR     C14   14   0.142   0.737   1.900  0.0000  0.0000  0.0000
    1GR     C15   15   0.213   0.860   1.900  0.0000  0.0000  0.0000
    1GR     C16   16   0.354   0.860   1.900  0.0000  0.0000  0.0000
    1GR     C17   17   0.000   0.982   1.900  0.0000  0.0000  0.0000
    1GR     C18   18   0.142   0.982   1.900  0.0000  0.0000  0.0000
    1GR     C19   19   0.213   1.105   1.900  0.0000  0.0000  0.0000
    1GR     C20   20   0.354   1.105   1.900  0.0000  0.0000  0.0000
    1GR     C21   21   0.000   1.228   1.900  0.0000  0.0000  0.0000
    1GR     C22   22   0.142   1.228   1.900  0.0000  0.0000  0.0000
    1GR     C23   23   0.213   1.351   1.900  0.0000  0.0000  0.0000
    1GR     C24   24   0.354   1.351   1.900  0.0000  0.0000  0.0000
    1GR     C25   25   0.000   1.474   1.900  0.0000  0.0000  0.0000
    1GR     C26   26   0.142   1.474   1.900  0.0000  0.0000  0.0000
    1GR     C27   27   0.213   1.596   1.900  0.0000  0.0000  0.0000
    1GR     C28   28   0.354   1.596   1.900  0.0000  0.0000  0.0000
    1GR     C29   29   0.000   1.719   1.900  0.0000  0.0000  0.0000
    1GR     C30   30   0.142   1.719   1.900  0.0000  0.0000  0.0000
    1GR     C31   31   0.213   1.842   1.900  0.0000  0.0000  0.0000
    1GR     C32   32   0.354   1.842   1.900  0.0000  0.0000  0.0000
    1GR     C33   33   0.000   1.965   1.900  0.0000  0.0000  0.0000
    1GR     C34   34   0.142   1.965   1.900  0.0000  0.0000  0.0000
    1GR     C35   35   0.213   2.088   1.900  0.0000  0.0000  0.0000
    1GR     C36   36   0.354   2.088   1.900  0.0000  0.0000  0.0000
    1GR     C37   37   0.000   2.210   1.900  0.0000  0.0000  0.0000
    1GR     C38   38   0.142   2.210   1.900  0.0000  0.0000  0.0000
    1GR     C39   39   0.213   2.333   1.900  0.0000  0.0000  0.0000
    1GR     C40   40   0.354   2.333   1.900  0.0000  0.0000  0.0000
    1GR     C41   41   0.000   2.456   1.900  0.0000  0.0000  0.0000
    1GR     C42   42   0.142   2.456   1.900  0.0000  0.0000  0.0000
    1GR     C43   43   0.213   2.579   1.900  0.0000  0.0000  0.0000
    1GR     C44   44   0.354   2.579   1.900  0.0000  0.0000  0.0000
    1GR     C45   45   0.000   2.702   1.900  0.0000  0.0000  0.0000
    1GR     C46   46   0.142   2.702   1.900  0.0000  0.0000  0.0000
    1GR     C47   47   0.213   2.824   1.900  0.0000  0.0000  0.0000
    1GR     C48   48   0.354   2.824   1.900  0.0000  0.0000  0.0000
    1GR     C49   49   0.000   2.947   1.900  0.0000  0.0000  0.0000
    1GR     C50   50   0.142   2.947   1.900  0.0000  0.0000  0.0000
    1GR     C51   51   0.213   3.070   1.900  0.0000  0.0000  0.0000
    1GR     C52   52   0.354   3.070   1.900  0.0000  0.0000  0.0000
    1GR     C53   53   0.000   3.193   1.900  0.0000  0.0000  0.0000
    1GR     C54   54   0.142   3.193   1.900  0.0000  0.0000  0.0000
    1GR     C55   55   0.213   3.316   1.900  0.0000  0.0000  0.0000
    1GR     C56   56   0.354   3.316   1.900  0.0000  0.0000  0.0000
    1GR     C57   57   0.425   0.000   1.900  0.0000  0.0000  0.0000
    1GR     C58   58   0.567   0.000   1.900  0.0000  0.0000  0.0000
    1GR     C59   59   0.638   0.123   1.900  0.0000  0.0000  0.0000
    1GR     C60   60   0.780   0.123   1.900  0.0000  0.0000  0.0000
    1GR     C61   61   0.425   0.246   1.900  0.0000  0.0000  0.0000
    1GR     C62   62   0.567   0.246   1.900  0.0000  0.0000  0.0000
    1GR     C63   63   0.638   0.368   1.900  0.0000  0.0000  0.0000
    1GR     C64   64   0.780   0.368   1.900  0.0000  0.0000  0.0000
    1GR     C65   65   0.425   0.491   1.900  0.0000  0.0000  0.0000
    1GR     C66   66   0.567   0.491   1.900  0.0000  0.0000  0.0000
    1GR     C67   67   0.638   0.614   1.900  0.0000  0.0000  0.0000
    1GR     C68   68   0.780   0.614   1.900  0.0000  0.0000  0.0000
    1GR     C69   69   0.425   0.737   1.900  0.0000  0.0000  0.0000
    1GR     C70   70   0.567   0.737   1.900  0.0000  0.0000  0.0000
    1GR     C71   71   0.638   0.860   1.900  0.0000  0.0000  0.0000
    1GR     C72   72   0.780   0.860   1.900  0.0000  0.0000  0.0000
    1GR     C73   73   0.425   0.982   1.900  0.0000  0.0000  0.0000
    1GR     C74   74   0.567   0.982   1.900  0.0000  0.0000  0.0000
    1GR     C75   75   0.638   1.105   1.900  0.0000  0.0000  0.0000
    1GR     C76   76   0.780   1.105   1.900  0.0000  0.0000  0.0000
    1GR     C77   77   0.425   1.228   1.900  0.0000  0.0000  0.0000
    1GR     C78   78   0.567   1.228   1.900  0.0000  0.0000  0.0000
    1GR     C79   79   0.638   1.351   1.900  0.0000  0.0000  0.0000
    1GR     C80   80   0.780   1.351   1.900  0.0000  0.0000  0.0000
    1GR     C81   81   0.425   1.474   1.900  0.0000  0.0000  0.0000
    1GR     C82   82   0.567   1.474   1.900  0.0000  0.0000  0.0000
    1GR     C83   83   0.638   1.596   1.900  0.0000  0.0000  0.0000
    1GR     C84   84   0.780   1.596   1.900  0.0000  0.0000  0.0000
    1GR     C85   85   0.425   1.719   1.900  0.0000  0.0000  0.0000
    1GR     C86   86   0.567   1.719   1.900  0.0000  0.0000  0.0000
    1GR     C87   87   0.638   1.842   1.900  0.0000  0.0000  0.0000
    1GR     C88   88   0.780   1.842   1.900  0.0000  0.0000  0.0000
    1GR     C89   89   0.425   1.965   1.900  0.0000  0.0000  0.0000
    1GR     C90   90   0.567   1.965   1.900  0.0000  0.0000  0.0000
    1GR     C91   91   0.638   2.088   1.900  0.0000  0.0000  0.0000
    1GR     C92   92   0.780   2.088   1.900  0.0000  0.0000  0.0000
    1GR     C93   93   0.425   2.210   1.900  0.0000  0.0000  0.0000
    1GR     C94   94   0.567   2.210   1.900  0.0000  0.0000  0.0000
    1GR     C95   95   0.638   2.333   1.900  0.0000  0.0000  0.0000
    1GR     C96   96   0.780   2.333   1.900  0.0000  0.0000  0.0000
    1GR     C97   97   0.425   2.456   1.900  0.0000  0.0000  0.0000
    1GR     C98   98   0.567   2.456   1.900  0.0000  0.0000  0.0000
    1GR     C99   99   0.638   2.579   1.900  0.0000  0.0000  0.0000
    1GR    C100  100   0.780   2.579   1.900  0.0000  0.0000  0.0000
    1GR    C101  101   0.425   2.702   1.900  0.0000  0.0000  0.0000
    1GR    C102  102   0.567   2.702   1.900  0.0000  0.0000  0.0000
    1GR    C103  103   0.638   2.824   1.900  0.0000  0.0000  0.0000
    1GR    C104  104   0.780   2.824   1.900  0.0000  0.0000  0.0000
    1GR    C105  105   0.425   2.947   1.900  0.0000  0.0000  0.0000
    1GR    C106  106   0.567   2.947   1.900  0.0000  0.0000  0.0000
    1GR    C107  107   0.638   3.070   1.900  0.0000  0.0000  0.0000
    1GR    C108  108   0.780   3.070   1.900  0.0000  0.0000  0.0000
    1GR    C109  109   0.425   3.193   1.900  0.0000  0.0000  0.0000
    1GR    C110  110   0.567   3.193   1.900  0.0000  0.0000  0.0000
    1GR    C111  111   0.638   3.316   1.900  0.0000  0.0000  0.0000
    1GR    C112  112   0.780   3.316   1.900  0.0000  0.0000  0.0000
    1GR    C113  113   0.851   0.000   1.900  0.0000  0.0000  0.0000
    1GR    C114  114   0.993   0.000   1.900  0.0000  0.0000  0.0000
    1GR    C115  115   1.064   0.123   1.900  0.0000  0.0000  0.0000
    1GR    C116  116   1.205   0.123   1.900  0.0000  0.0000  0.0000
    1GR    C117  117   0.851   0.246   1.900  0.0000  0.0000  0.0000
    1GR    C118  118   0.993   0.246   1.900  0.0000  0.0000  0.0000
    1GR    C119  119   1.064   0.368   1.900  0.0000  0.0000  0.0000
    1GR    C120  120   1.205   0.368   1.900  0.0000  0.0000  0.0000
    1GR    C121  121   0.851   0.491   1.900  0.0000  0.0000  0.0000
    1GR    C122  122   0.993   0.491   1.900  0.0000  0.0000  0.0000
    1GR    C123  123   1.064   0.614   1.900  0.0000  0.0000  0.0000
    1GR    C124  124   1.205   0.614   1.900  0.0000  0.0000  0.0000
    1GR    C125  125   0.851   0.737   1.900  0.0000  0.0000  0.0000
    1GR    C126  126   0.993   0.737   1.900  0.0000  0.0000  0.0000
    1GR    C127  127   1.064   0.860   1.900  0.0000  0.0000  0.0000
    1GR    C128  128   1.205   0.860   1.900  0.0000  0.0000  0.0000
    1GR    C129  129   0.851   0.982   1.900  0.0000  0.0000  0.0000
    1GR    C130  130   0.993   0.982   1.900  0.0000  0.0000  0.0000
    1GR    C131  131   1.064   1.105   1.900  0.0000  0.0000  0.0000
    1GR    C132  132   1.205   1.105   1.900  0.0000  0.0000  0.0000
    1GR    C133  133   0.851   1.228   1.900  0.0000  0.0000  0.0000
    1GR    C134  134   0.993   1.228   1.900  0.0000  0.0000  0.0000
    1GR    C135  135   1.064   1.351   1.900  0.0000  0.0000  0.0000
    1GR    C136  136   1.205   1.351   1.900  0.0000  0.0000  0.0000
    1GR    C137  137   0.851   1.474   1.900  0.0000  0.0000  0.0000
    1GR    C138  138   0.993   1.474   1.900  0.0000  0.0000  0.0000
    1GR    C139  139   1.064   1.596   1.900  0.0000  0.0000  0.0000
    1GR    C140  140   1.205   1.596   1.900  0.0000  0.0000  0.0000
    1GR    C141  141   0.851   1.719   1.900  0.0000  0.0000  0.0000
    1GR    C142  142   0.993   1.719   1.900  0.0000  0.0000  0.0000
    1GR    C143  143   1.064   1.842   1.900  0.0000  0.0000  0.0000
    1GR    C144  144   1.205   1.842   1.900  0.0000  0.0000  0.0000
    1GR    C145  145   0.851   1.965   1.900  0.0000  0.0000  0.0000
    1GR    C146  146   0.993   1.965   1.900  0.0000  0.0000  0.0000
    1GR    C147  147   1.064   2.088   1.900  0.0000  0.0000  0.0000
    1GR    C148  148   1.205   2.088   1.900  0.0000  0.0000  0.0000
    1GR    C149  149   0.851   2.210   1.900  0.0000  0.0000  0.0000
    1GR    C150  150   0.993   2.210   1.900  0.0000  0.0000  0.0000
    1GR    C151  151   1.064   2.333   1.900  0.0000  0.0000  0.0000
    1GR    C152  152   1.205   2.333   1.900  0.0000  0.0000  0.0000
    1GR    C153  153   0.851   2.456   1.900  0.0000  0.0000  0.0000
    1GR    C154  154   0.993   2.456   1.900  0.0000  0.0000  0.0000
    1GR    C155  155   1.064   2.579   1.900  0.0000  0.0000  0.0000
    1GR    C156  156   1.205   2.579   1.900  0.0000  0.0000  0.0000
    1GR    C157  157   0.851   2.702   1.900  0.0000  0.0000  0.0000
    1GR    C158  158   0.993   2.702   1.900  0.0000  0.0000  0.0000
    1GR    C159  159   1.064   2.824   1.900  0.0000  0.0000  0.0000
    1GR    C160  160   1.205   2.824   1.900  0.0000  0.0000  0.0000
    1GR    C161  161   0.851   2.947   1.900  0.0000  0.0000  0.0000
    1GR    C162  162   0.993   2.947   1.900  0.0000  0.0000  0.0000
    1GR    C163  163   1.064   3.070   1.900  0.0000  0.0000  0.0000
    1GR    C164  164   1.205   3.070   1.900  0.0000  0.0000  0.0000
    1GR    C165  165   0.851   3.193   1.900  0.0000  0.0000  0.0000
    1GR    C166  166   0.993   3.193   1.900  0.0000  0.0000  0.0000
    1GR    C167  167   1.064   3.316   1.900  0.0000  0.0000  0.0000
    1GR    C168  168   1.205   3.316   1.900  0.0000  0.0000  0.0000
    1GR    C169  169   1.276   0.000   1.900  0.0000  0.0000  0.0000
    1GR    C170  170   1.418   0.000   1.900  0.0000  0.0000  0.0000
    1GR    C171  171   1.489   0.123   1.900  0.0000  0.0000  0.0000
    1GR    C172  172   1.631   0.123   1.900  0.0000  0.0000  0.0000
    1GR    C173  173   1.276   0.246   1.900  0.0000  0.0000  0.0000
    1GR    C174  174   1.418   0.246   1.900  0.0000  0.0000  0.0000
    1GR    C175  175   1.489   0.368   1.900  0.0000  0.0000  0.0000
    1GR    C176  176   1.631   0.368   1.900  0.0000  0.0000  0.0000
    1GR    C177  177   1.276   0.491   1.900  0.0000  0.0000  0.0000
    1GR    C178  178   1.418   0.491   1.900  0.0000  0.0000  0.0000
    1GR    C179  179   1.489   0.614   1.900  0.0000  0.0000  0.0000
    1GR    C180  180   1.631   0.614   1.900  0.0000  0.0000  0.0000
    1GR    C181  181   1.276   0.737   1.900  0.0000  0.0000  0.0000
    1GR    C182  182   1.418   0.737   1.900  0.0000  0.0000  0.0000
    1GR    C183  183   1.489   0.860   1.900  0.0000  0.0000  0.0000
    1GR    C184  184   1.631   0.860   1.900  0.0000  0.0000  0.0000
    1GR    C185  185   1.276   0.982   1.900  0.0000  0.0000  0.0000
    1GR    C186  186   1.418   0.982   1.900  0.0000  0.0000  0.0000
    1GR    C187  187   1.489   1.105   1.900  0.0000  0.0000  0.0000
    1GR    C188  188   1.631   1.105   1.900  0.0000  0.0000  0.0000
    1GR    C189  189   1.276   1.228   1.900  0.0000  0.0000  0.0000
    1GR    C190  190   1.418   1.228   1.900  0.0000  0.0000  0.0000
    1GR    C191  191   1.489   1.351   1.900  0.0000  0.0000  0.0000
    1GR    C192  192   1.631   1.351   1.900  0.0000  0.0000  0.0000
    1GR    C193  193   1.276   1.474   1.900  0.0000  0.0000  0.0000
    1GR    C194  194   1.418   1.474   1.900  0.0000  0.0000  0.0000
    1GR    C195  195   1.489   1.596   1.900  0.0000  0.0000  0.0000
    1GR    C196  196   1.631   1.596   1.900  0.0000  0.0000  0.0000
    1GR    C197  197   1.276   1.719   1.900  0.0000  0.0000  0.0000
    1GR    C198  198   1.418   1.719   1.900  0.0000  0.0000  0.0000
    1GR    C199  199   1.489   1.842   1.900  0.0000  0.0000  0.0000
    1GR    C200  200   1.631   1.842   1.900  0.0000  0.0000  0.0000
    1GR    C201  201   1.276   1.965   1.900  0.0000  0.0000  0.0000
    1GR    C202  202   1.418   1.965   1.900  0.0000  0.0000  0.0000
    1GR    C203  203   1.489   2.088   1.900  0.0000  0.0000  0.0000
    1GR    C204  204   1.631   2.088   1.900  0.0000  0.0000  0.0000
    1GR    C205  205   1.276   2.210   1.900  0.0000  0.0000  0.0000
    1GR    C206  206   1.418   2.210   1.900  0.0000  0.0000  0.0000
    1GR    C207  207   1.489   2.333   1.900  0.0000  0.0000  0.0000
    1GR    C208  208   1.631   2.333   1.900  0.0000  0.0000  0.0000
    1GR    C209  209   1.276   2.456   1.900  0.0000  0.0000  0.0000
    1GR    C210  210   1.418   2.456   1.900  0.0000  0.0000  0.0000
    1GR    C211  211   1.489   2.579   1.900  0.0000  0.0000  0.0000
    1GR    C212  212   1.631   2.579   1.900  0.0000  0.0000  0.0000
    1GR    C213  213   1.276   2.702   1.900  0.0000  0.0000  0.0000
    1GR    C214  214   1.418   2.702   1.900  0.0000  0.0000  0.0000
    1GR    C215  215   1.489   2.824   1.900  0.0000  0.0000  0.0000
    1GR    C216  216   1.631   2.824   1.900  0.0000  0.0000  0.0000
    1GR    C217  217   1.276   2.947   1.900  0.0000  0.0000  0.0000
    1GR    C218  218   1.418   2.947   1.900  0.0000  0.0000  0.0000
    1GR    C219  219   1.489   3.070   1.900  0.0000  0.0000  0.0000
    1GR    C220  220   1.631   3.070   1.900  0.0000  0.0000  0.0000
    1GR    C221  221   1.276   3.193   1.900  0.0000  0.0000  0.0000
    1GR    C222  222   1.418   3.193   1.900  0.0000  0.0000  0.0000
    1GR    C223  223   1.489   3.316   1.900  0.0000  0.0000  0.0000
    1GR    C224  224   1.631   3.316   1.900  0.0000  0.0000  0.0000
    1GR    C225  225   1.702   0.000   1.900  0.0000  0.0000  0.0000
    1GR    C226  226   1.843   0.000   1.900  0.0000  0.0000  0.0000
    1GR    C227  227   1.914   0.123   1.900  0.0000  0.0000  0.0000
    1GR    C228  228   2.056   0.123   1.900  0.0000  0.0000  0.0000
    1GR    C229  229   1.702   0.246   1.900  0.0000  0.0000  0.0000
    1GR    C230  230   1.843   0.246   1.900  0.0000  0.0000  0.0000
    1GR    C231  231   1.914   0.368   1.900  0.0000  0.0000  0.0000
    1GR    C232  232   2.056   0.368   1.900  0.0000  0.0000  0.0000
    1GR    C233  233   1.702   0.491   1.900  0.0000  0.0000  0.0000
    1GR    C234  234   1.843   0.491   1.900  0.0000  0.0000  0.0000
    1GR    C235  235   1.914   0.614   1.900  0.0000  0.0000  0.0000
    1GR    C236  236   2.056   0.614   1.900  0.0000  0.0000  0.0000
    1GR    C237  237   1.702   0.737   1.900  0.0000  0.0000  0.0000
    1GR    C238  238   1.843   0.737   1.900  0.0000  0.0000  0.0000
    1GR    C239  239   1.914   0.860   1.900  0.0000  0.0000  0.0000
    1GR    C240  240   2.056   0.860   1.900  0.0000  0.0000  0.0000
    1GR    C241  241   1.702   0.982   1.900  0.0000  0.0000  0.0000
    1GR    C242  242   1.843   0.982   1.900  0.0000  0.0000  0.0000
    1GR    C243  243   1.914   1.105   1.900  0.0000  0.0000  0.0000
    1GR    C244  244   2.056   1.105   1.900  0.0000  0.0000  0.0000
    1GR    C245  245   1.702   1.228   1.900  0.0000  0.0000  0.0000
    1GR    C246  246   1.843   1.228   1.900  0.0000  0.0000  0.0000
    1GR    C247  247   1.914   1.351   1.900  0.0000  0.0000  0.0000
    1GR    C248  248   2.056   1.351   1.900  0.0000  0.0000  0.0000
    1GR    C249  249   1.702   1.474   1.900  0.0000  0.0000  0.0000
    1GR    C250  250   1.843   1.474   1.900  0.0000  0.0000  0.0000
    1GR    C251  251   1.914   1.596   1.900  0.0000  0.0000  0.0000
    1GR    C252  252   2.056   1.596   1.900  0.0000  0.0000  0.0000
    1GR    C253  253   1.702   1.719   1.900  0.0000  0.0000  0.0000
    1GR    C254  254   1.843   1.719   1.900  0.0000  0.0000  0.0000
    1GR    C255  255   1.914   1.842   1.900  0.0000  0.0000  0.0000
    1GR    C256  256   2.056   1.842   1.900  0.0000  0.0000  0.0000
    1GR    C257  257   1.702   1.965   1.900  0.0000  0.0000  0.0000
    1GR    C258  258   1.843   1.965   1.900  0.0000  0.0000  0.0000
    1GR    C259  259   1.914   2.088   1.900  0.0000  0.0000  0.0000
    1GR    C260  260   2.056   2.088   1.900  0.0000  0.0000  0.0000
    1GR    C261  261   1.702   2.210   1.900  0.0000  0.0000  0.0000
    1GR    C262  262   1.843   2.210   1.900  0.0000  0.0000  0.0000
    1GR    C263  263   1.914   2.333   1.900  0.0000  0.0000  0.0000
    1GR    C264  264   2.056   2.333   1.900  0.0000  0.0000  0.0000
    1GR    C265  265   1.702   2.456   1.900  0.0000  0.0000  0.0000
    1GR    C266  266   1.843   2.456   1.900  0.0000  0.0000  0.0000
    1GR    C267  267   1.914   2.579   1.900  0.0000  0.0000  0.0000
    1GR    C268  268   2.056   2.579   1.900  0.0000  0.0000  0.0000
    1GR    C269  269   1.702   2.702   1.900  0.0000  0.0000  0.0000
    1GR    C270  270   1.843   2.702   1.900  0.0000  0.0000  0.0000
    1GR    C271  271   1.914   2.824   1.900  0.0000  0.0000  0.0000
    1GR    C272  272   2.056   2.824   1.900  0.0000  0.0000  0.0000
    1GR    C273  273   1.702   2.947   1.900  0.0000  0.0000  0.0000
    1GR    C274  274   1.843   2.947   1.900  0.0000  0.0000  0.0000
    1GR    C275  275   1.914   3.070   1.900  0.0000  0.0000  0.0000
    1GR    C276  276   2.056   3.070   1.900  0.0000  0.0000  0.0000
    1GR    C277  277   1.702   3.193   1.900  0.0000  0.0000  0.0000
    1GR    C278  278   1.843   3.193   1.900  0.0000  0.0000  0.0000
    1GR    C279  279   1.914   3.316   1.900  0.0000  0.0000  0.0000
    1GR    C280  280   2.056   3.316   1.900  0.0000  0.0000  0.0000
    1GR    C281  281   2.127   0.000   1.900  0.0000  0.0000  0.0000
    1GR    C282  282   2.269   0.000   1.900  0.0000  0.0000  0.0000
    1GR    C283  283   2.340   0.123   1.900  0.0000  0.0000  0.0000
    1GR    C284  284   2.481   0.123   1.900  0.0000  0.0000  0.0000
    1GR    C285  285   2.127   0.246   1.900  0.0000  0.0000  0.0000
    1GR    C286  286   2.269   0.246   1.900  0.0000  0.0000  0.0000
    1GR    C287  287   2.340   0.368   1.900  0.0000  0.0000  0.0000
    1GR    C288  288   2.481   0.368   1.900  0.0000  0.0000  0.0000
    1GR    C289  289   2.127   0.491   1.900  0.0000  0.0000  0.0000
    1GR    C290  290   2.269   0.491   1.900  0.0000  0.0000  0.0000
    1GR    C291  291   2.340   0.614   1.900  0.0000  0.0000  0.0000
    1GR    C292  292   2.481   0.614   1.900  0.0000  0.0000  0.0000
    1GR    C293  293   2.127   0.737   1.900  0.0000  0.0000  0.0000
    1GR    C294  294   2.269   0.737   1.900  0.0000  0.0000  0.0000
    1GR    C295  295   2.340   0.860   1.900  0.0000  0.0000  0.0000
    1GR    C296  296   2.481   0.860   1.900  0.0000  0.0000  0.0000
    1GR    C297  297   2.127   0.982   1.900  0.0000  0.0000  0.0000
    1GR    C298  298   2.269   0.982   1.900  0.0000  0.0000  0.0000
    1GR    C299  299   2.340   1.105   1.900  0.0000  0.0000  0.0000
    1GR    C300  300   2.481   1.105   1.900  0.0000  0.0000  0.0000
    1GR    C301  301   2.127   1.228   1.900  0.0000  0.0000  0.0000
    1GR    C302  302   2.269   1.228   1.900  0.0000  0.0000  0.0000
    1GR    C303  303   2.340   1.351   1.900  0.0000  0.0000  0.0000
    1GR    C304  304   2.481   1.351   1.900  0.0000  0.0000  0.0000
    1GR    C305  305   2.127   1.474   1.900  0.0000  0.0000  0.0000
    1GR    C306  306   2.269   1.474   1.900  0.0000  0.0000  0.0000
    1GR    C307  307   2.340   1.596   1.900  0.0000  0.0000  0.0000
    1GR    C308  308   2.481   1.596   1.900  0.0000  0.0000  0.0000
    1GR    C309  309   2.127   1.719   1.900  0.0000  0.0000  0.0000
    1GR    C310  310   2.269   1.719   1.900  0.0000  0.0000  0.0000
    1GR    C311  311   2.340   1.842   1.900  0.0000  0.0000  0.0000
    1GR    C312  312   2.481   1.842   1.900  0.0000  0.0000  0.0000
    1GR    C313  313   2.127   1.965   1.900  0.0000  0.0000  0.0000
    1GR    C314  314   2.269   1.965   1.900  0.0000  0.0000  0.0000
    1GR    C315  315   2.340   2.088   1.900  0.0000  0.0000  0.0000
    1GR    C316  316   2.481   2.088   1.900  0.0000  0.0000  0.0000
    1GR    C317  317   2.127   2.210   1.900  0.0000  0.0000  0.0000
    1GR    C318  318   2.269   2.210   1.900  0.0000  0.0000  0.0000
    1GR    C319  319   2.340   2.333   1.900  0.0000  0.0000  0.0000
    1GR    C320  320   2.481   2.333   1.900  0.0000  0.0000  0.0000
    1GR    C321  321   2.127   2.456   1.900  0.0000  0.0000  0.0000
    1GR    C322  322   2.269   2.456   1.900  0.0000  0.0000  0.0000
    1GR    C323  323   2.340   2.579   1.900  0.0000  0.0000  0.0000
    1GR    C324  324   2.481   2.579   1.900  0.0000  0.0000  0.0000
    1GR    C325  325   2.127   2.702   1.900  0.0000  0.0000  0.0000
    1GR    C326  326   2.269   2.702   1.900  0.0000  0.0000  0.0000
    1GR    C327  327   2.340   2.824   1.900  0.0000  0.0000  0.0000
    1GR    C328  328   2.481   2.824   1.900  0.0000  0.0000  0.0000
    1GR    C329  329   2.127   2.947   1.900  0.0000  0.0000  0.0000
    1GR    C330  330   2.269   2.947   1.900  0.0000  0.0000  0.0000
    1GR    C331  331   2.340   3.070   1.900  0.0000  0.0000  0.0000
    1GR    C332  332   2.481   3.070   1.900  0.0000  0.0000  0.0000
    1GR    C333  333   2.127   3.193   1.900  0.0000  0.0000  0.0000
    1GR    C334  334   2.269   3.193   1.900  0.0000  0.0000  0.0000
    1GR    C335  335   2.340   3.316   1.900  0.0000  0.0000  0.0000
    1GR    C336  336   2.481   3.316   1.900  0.0000  0.0000  0.0000
    1GR    C337  337   2.552   0.000   1.900  0.0000  0.0000  0.0000
    1GR    C338  338   2.694   0.000   1.900  0.0000  0.0000  0.0000
    1GR    C339  339   2.765   0.123   1.900  0.0000  0.0000  0.0000
    1GR    C340  340   2.907   0.123   1.900  0.0000  0.0000  0.0000
    1GR    C341  341   2.552   0.246   1.900  0.0000  0.0000  0.0000
    1GR    C342  342   2.694   0.246   1.900  0.0000  0.0000  0.0000
    1GR    C343  343   2.765   0.368   1.900  0.0000  0.0000  0.0000
    1GR    C344  344   2.907   0.368   1.900  0.0000  0.0000  0.0000
    1GR    C345  345   2.552   0.491   1.900  0.0000  0.0000  0.0000
    1GR    C346  346   2.694   0.491   1.900  0.0000  0.0000  0.0000
    1GR    C347  347   2.765   0.614   1.900  0.0000  0.0000  0.0000
    1GR    C348  348   2.907   0.614   1.900  0.0000  0.0000  0.0000
    1GR    C349  349   2.552   0.737   1.900  0.0000  0.0000  0.0000
    1GR    C350  350   2.694   0.737   1.900  0.0000  0.0000  0.0000
    1GR    C351  351   2.765   0.860   1.900  0.0000  0.0000  0.0000
    1GR    C352  352   2.907   0.860   1.900  0.0000  0.0000  0.0000
    1GR    C353  353   2.552   0.982   1.900  0.0000  0.0000  0.0000
    1GR    C354  354   2.694   0.982   1.900  0.0000  0.0000  0.0000
    1GR    C355  355   2.765   1.105   1.900  0.0000  0.0000  0.0000
    1GR    C356  356   2.907   1.105   1.900  0.0000  0.0000  0.0000
    1GR    C357  357   2.552   1.228   1.900  0.0000  0.0000  0.0000
    1GR    C358  358   2.694   1.228   1.900  0.0000  0.0000  0.0000
    1GR    C359  359   2.765   1.351   1.900  0.0000  0.0000  0.0000
    1GR    C360  360   2.907   1.351   1.900  0.0000  0.0000  0.0000
    1GR    C361  361   2.552   1.474   1.900  0.0000  0.0000  0.0000
    1GR    C362  362   2.694   1.474   1.900  0.0000  0.0000  0.0000
    1GR    C363  363   2.765   1.596   1.900  0.0000  0.0000  0.0000
    1GR    C364  364   2.907   1.596   1.900  0.0000  0.0000  0.0000
    1GR    C365  365   2.552   1.719   1.900  0.0000  0.0000  0.0000
    1GR    C366  366   2.694   1.719   1.900  0.0000  0.0000  0.0000
    1GR    C367  367   2.765   1.842   1.900  0.0000  0.0000  0.0000
    1GR    C368  368   2.907   1.842   1.900  0.0000  0.0000  0.0000
    1GR    C369  369   2.552   1.965   1.900  0.0000  0.0000  0.0000
    1GR    C370  370   2.694   1.965   1.900  0.0000  0.0000  0.0000
    1GR    C371  371   2.765   2.088   1.900  0.0000  0.0000  0.0000
    1GR    C372  372   2.907   2.088   1.900  0.0000  0.0000  0.0000
    1GR    C373  373   2.552   2.210   1.900  0.0000  0.0000  0.0000
    1GR    C374  374   2.694   2.210   1.900  0.0000  0.0000  0.0000
    1GR    C375  375   2.765   2.333   1.900  0.0000  0.0000  0.0000
    1GR    C376  376   2.907   2.333   1.900  0.0000  0.0000  0.0000
    1GR    C377  377   2.552   2.456   1.900  0.0000  0.0000  0.0000
    1GR    C378  378   2.694   2.456   1.900  0.0000  0.0000  0.0000
    1GR    C379  379   2.765   2.579   1.900  0.0000  0.0000  0.0000
    1GR    C380  380   2.907   2.579   1.900  0.0000  0.0000  0.0000
    1GR    C381  381   2.552   2.702   1.900  0.0000  0.0000  0.0000
    1GR    C382  382   2.694   2.702   1.900  0.0000  0.0000  0.0000
    1GR    C383  383   2.765   2.824   1.900  0.0000  0.0000  0.0000
    1GR    C384  384   2.907   2.824   1.900  0.0000  0.0000  0.0000
    1GR    C385  385   2.552   2.947   1.900  0.0000  0.0000  0.0000
    1GR    C386  386   2.694   2.947   1.900  0.0000  0.0000  0.0000
    1GR    C387  387   2.765   3.070   1.900  0.0000  0.0000  0.0000
    1GR    C388  388   2.907   3.070   1.900  0.0000  0.0000  0.0000
    1GR    C389  389   2.552   3.193   1.900  0.0000  0.0000  0.0000
    1GR    C390  390   2.694   3.193   1.900  0.0000  0.0000  0.0000
    1GR    C391  391   2.765   3.316   1.900  0.0000  0.0000  0.0000
    1GR    C392  392   2.907   3.316   1.900  0.0000  0.0000  0.0000
    1GR    C393  393   2.978   0.000   1.900  0.0000  0.0000  0.0000
    1GR    C394  394   3.120   0.000   1.900  0.0000  0.0000  0.0000
    1GR    C395  395   3.191   0.123   1.900  0.0000  0.0000  0.0000
    1GR    C396  396   3.332   0.123   1.900  0.0000  0.0000  0.0000
    1GR    C397  397   2.978   0.246   1.900  0.0000  0.0000  0.0000
    1GR    C398  398   3.120   0.246   1.900  0.0000  0.0000  0.0000
    1GR    C399  399   3.191   0.368   1.900  0.0000  0.0000  0.0000
    1GR    C400  400   3.332   0.368   1.900  0.0000  0.0000  0.0000
    1GR    C401  401   2.978   0.491   1.900  0.0000  0.0000  0.0000
    1GR    C402  402   3.120   0.491   1.900  0.0000  0.0000  0.0000
    1GR    C403  403   3.191   0.614   1.900  0.0000  0.0000  0.0000
    1GR    C404  404   3.332   0.614   1.900  0.0000  0.0000  0.0000
    1GR    C405  405   2.978   0.737   1.900  0.0000  0.0000  0.0000
    1GR    C406  406   3.120   0.737   1.900  0.0000  0.0000  0.0000
    1GR    C407  407   3.191   0.860   1.900  0.0000  0.0000  0.0000
    1GR    C408  408   3.332   0.860   1.900  0.0000  0.0000  0.0000
    1GR    C409  409   2.978   0.982   1.900  0.0000  0.0000  0.0000
    1GR    C410  410   3.120   0.982   1.900  0.0000  0.0000  0.0000
    1GR    C411  411   3.191   1.105   1.900  0.0000  0.0000  0.0000
    1GR    C412  412   3.332   1.105   1.900  0.0000  0.0000  0.0000
    1GR    C413  413   2.978   1.228   1.900  0.0000  0.0000  0.0000
    1GR    C414  414   3.120   1.228   1.900  0.0000  0.0000  0.0000
    1GR    C415  415   3.191   1.351   1.900  0.0000  0.0000  0.0000
    1GR    C416  416   3.332   1.351   1.900  0.0000  0.0000  0.0000
    1GR    C417  417   2.978   1.474   1.900  0.0000  0.0000  0.0000
    1GR    C418  418   3.120   1.474   1.900  0.0000  0.0000  0.0000
    1GR    C419  419   3.191   1.596   1.900  0.0000  0.0000  0.0000
    1GR    C420  420   3.332   1.596   1.900  0.0000  0.0000  0.0000
    1GR    C421  421   2.978   1.719   1.900  0.0000  0.0000  0.0000
    1GR    C422  422   3.120   1.719   1.900  0.0000  0.0000  0.0000
    1GR    C423  423   3.191   1.842   1.900  0.0000  0.0000  0.0000
    1GR    C424  424   3.332   1.842   1.900  0.0000  0.0000  0.0000
    1GR    C425  425   2.978   1.965   1.900  0.0000  0.0000  0.0000
    1GR    C426  426   3.120   1.965   1.900  0.0000  0.0000  0.0000
    1GR    C427  427   3.191   2.088   1.900  0.0000  0.0000  0.0000
    1GR    C428  428   3.332   2.088   1.900  0.0000  0.0000  0.0000
    1GR    C429  429   2.978   2.210   1.900  0.0000  0.0000  0.0000
    1GR    C430  430   3.120   2.210   1.900  0.0000  0.0000  0.0000
    1GR    C431  431   3.191   2.333   1.900  0.0000  0.0000  0.0000
    1GR    C432  432   3.332   2.333   1.900  0.0000  0.0000  0.0000
    1GR    C433  433   2.978   2.456   1.900  0.0000  0.0000  0.0000
    1GR    C434  434   3.120   2.456   1.900  0.0000  0.0000  0.0000
    1GR    C435  435   3.191   2.579   1.900  0.0000  0.0000  0.0000
    1GR    C436  436   3.332   2.579   1.900  0.0000  0.0000  0.0000
    1GR    C437  437   2.978   2.702   1.900  0.0000  0.0000  0.0000
    1GR    C438  438   3.120   2.702   1.900  0.0000  0.0000  0.0000
    1GR    C439  439   3.191   2.824   1.900  0.0000  0.0000  0.0000
    1GR    C440  440   3.332   2.824   1.900  0.0000  0.0000  0.0000
    1GR    C441  441   2.978   2.947   1.900  0.0000  0.0000  0.0000
    1GR    C442  442   3.120   2.947   1.900  0.0000  0.0000  0.0000
    1GR    C443  443   3.191   3.070   1.900  0.0000  0.0000  0.0000
    1GR    C444  444   3.332   3.070   1.900  0.0000  0.0000  0.0000
    1GR    C445  445   2.978   3.193   1.900  0.0000  0.0000  0.0000
    1GR    C446  446   3.120   3.193   1.900  0.0000  0.0000  0.0000
    1GR    C447  447   3.191   3.316   1.900  0.0000  0.0000  0.0000
    1GR    C448  448   3.332   3.316   1.900  0.0000  0.0000  0.0000
    2PMMA   CX1  449   2.194   0.823   2.426 -0.0037 -0.4254 -0.6117
    2PMMA   CA2  450   2.324   0.904   2.412 -0.0512  0.2637 -0.3598
    2PMMA   CX3  451   2.382   0.860   2.273  0.0584  0.1582 -0.2555
    2PMMA    C4  452   2.266   1.049   2.407  0.2536  0.3677  0.0234
    2PMMA    O5  453   2.252   1.109   2.507  0.3248 -0.4065 -0.4456
    2PMMA   OS6  454   2.242   1.099   2.276 -0.3360 -0.4464 -0.0296
    2PMMA   CE7  455   2.169   1.221   2.264 -0.2487 -0.9154 -0.0403
    2PMMA   CX8  456   2.418   0.880   2.542 -0.0954 -0.0879  0.0030
    2PMMA   CA9  457   2.562   0.939   2.542 -0.7025 -0.5025 -1.0744
    2PMMA  CX10  458   2.651   0.890   2.424 -0.0487  0.0423 -0.4265
    2PMMA   C11  459   2.609   0.885   2.683 -0.5637  0.0085  1.1832
    2PMMA   O12  460   2.678   0.787   2.695 -0.3708  0.1048  0.3852
    2PMMA  OS13  461   2.562   0.959   2.789  0.2819  0.1791 -0.1494
    2PMMA  CE14  462   2.606   0.924   2.921  0.0701 -0.1382 -0.0385
    2PMMA  CX15  463   2.560   1.101   2.532  0.2588  0.1676  0.1471
    2PMMA  CA16  464   2.685   1.191   2.540  0.6792 -0.1634  0.6641
    2PMMA  CX17  465   2.629   1.335   2.563 -0.1040  0.5495  0.0331
    2PMMA   C18  466   2.775   1.155   2.657  0.1502  0.3100  0.3034
    2PMMA   O19  467   2.750   1.179   2.773 -0.1963  0.0289 -0.1927
    2PMMA  OS20  468   2.872   1.068   2.628  0.1193  0.3013  0.6509
    2PMMA  CE21  469   2.967   1.026   2.727  0.2808 -0.0635  0.2314
    2PMMA  CX22  470   2.771   1.197   2.407  0.3227 -0.2242 -0.4888
    2PMMA  CA23  471   2.878   1.308   2.379  0.0314 -0.6814  0.7525
    2PMMA  CX24  472   2.963   1.329   2.507  0.0370  0.3023  0.8086
    2PMMA   C25  473   2.809   1.437   2.335 -0.0639 -0.4558  0.4595
    2PMMA   O26  474   2.696   1.449   2.286 -0.3749 -0.0060 -0.2671
    2PMMA  OS27  475   2.888   1.548   2.348 -0.2184 -0.4102  0.1738
    2PMMA  CE28  476   2.868   1.672   2.272  0.3136  0.5130  0.5300
    2PMMA  CX29  477   2.964   1.265   2.257 -0.0847  0.3519  0.2880
    2PMMA  HC30  478   2.138   0.842   2.518 -0.6218  1.2902 -1.3242
    2PMMA  HC31  479   2.124   0.832   2.342 -2.3550 -1.9425  1.0924
    2PMMA  HC32  480   2.207   0.715   2.440 -0.2001 -0.1383  1.9548
    2PMMA  HC33  481   2.456   0.935   2.243  0.1346  0.7557  1.4045
    2PMMA  HC34  482   2.303   0.853   2.198  0.1650 -1.9852 -0.2114
    2PMMA  HC35  483   2.425   0.759   2.271  0.0330  0.1578 -0.9361
    2PMMA  H136  484   2.140   1.226   2.159 -1.0511 -1.0473  0.1739
    2PMMA  H137  485   2.233   1.309   2.274 -0.4318 -0.8340  0.4009
    2PMMA  H138  486   2.081   1.229   2.328 -0.2299  2.2173 -0.3648
    2PMMA  HC39  487   2.357   0.904   2.630  0.9150 -1.1184  0.9978
    2PMMA  HC40  488   2.428   0.771   2.549  0.2736  0.0291  1.4113
    2PMMA  HC41  489   2.621   0.795   2.380 -0.8436  0.7353 -1.4017
    2PMMA  HC42  490   2.659   0.952   2.334  0.4854  1.8166  0.7887
    2PMMA  HC43  491   2.755   0.886   2.458  0.0105 -0.9298 -0.7206
    2PMMA  H144  492   2.713   0.942   2.921  0.1133 -0.3518 -2.1141
    2PMMA  H145  493   2.570   0.824   2.949 -2.7019  0.5335 -1.0398
    2PMMA  H146  494   2.573   0.999   2.994  0.5391  0.3518 -0.3329
    2PMMA  HC47  495   2.520   1.126   2.433  2.6265 -1.8839 -1.3693
    2PMMA  HC48  496   2.479   1.129   2.601  1.1054 -0.5623  1.4479
    2PMMA  HC49  497   2.559   1.371   2.488  0.7939  1.6253 -0.3119
    2PMMA  HC50  498   2.709   1.408   2.582  0.3732  0.1377 -0.3560
    2PMMA  HC51  499   2.565   1.337   2.652  0.1053  0.9317  0.1760
    2PMMA  H152  500   3.055   0.996   2.670  0.7148  0.6292  0.5220
    2PMMA  H153  501   2.939   0.931   2.772  1.7839  0.1318  1.5995
    2PMMA  H154  502   3.000   1.099   2.801  0.1155  0.5301 -0.2649
    2PMMA  HC55  503   2.829   1.105   2.398 -1.3524 -1.0966 -2.7048
    2PMMA  HC56  504   2.706   1.190   2.320 -0.1817 -1.3322 -0.0249
    2PMMA  HC57  505   3.027   1.243   2.531 -0.9851 -0.1673  1.9203
    2PMMA  HC58  506   3.036   1.408   2.488 -0.6774  0.6007 -0.7593
    2PMMA  HC59  507   2.903   1.364   2.592  0.6449 -1.4691  1.9931
    2PMMA  H160  508   2.949   1.680   2.200 -1.0492  4.8213 -0.6643
    2PMMA  H161  509   2.867   1.758   2.339 -0.6366  1.4375 -0.6468
    2PMMA  H162  510   2.768   1.661   2.230 -0.4434 -0.8671  2.5952
    2PMMA  HC63  511   3.018   1.170   2.268  0.5649  0.4899 -1.6529
    2PMMA  HC64  512   2.896   1.242   2.175 -0.6828  0.8313  0.6401
    2PMMA  HC65  513   3.032   1.345   2.229  0.8969 -0.2425  0.9666
    3HFI     O1  514   1.892   0.067   0.148  0.2775 -0.5140  0.3743
    3HFI     C1  515   1.861  -0.002   0.024 -0.4860  0.1139  0.2710
    3HFI     C2  516   1.991  -0.053  -0.039  0.1887  0.7269 -0.0102
    3HFI     F1  517   2.077   0.051  -0.066 -0.1411  0.0608 -0.6918
    3HFI     F2  518   1.963  -0.124  -0.154 -0.5156  0.1091 -0.4281
    3HFI     F3  519   2.046  -0.143   0.038 -0.0682 -0.3974 -0.1318
    3HFI     C3  520   1.772   0.085  -0.075 -0.0068  0.8416  0.2244
    3HFI     F4  521   1.720   0.005  -0.167 -0.3550 -0.5109  0.2146
    3HFI     F5  522   1.846   0.175  -0.147 -0.2706 -0.1158  0.2765
    3HFI     F6  523   1.676   0.150  -0.013 -0.2389  0.1218  0.4413
    3HFI     H1  524   1.955   0.140   0.129  0.4180 -0.7457 -0.0427
    3HFI     H2  525   1.801  -0.092   0.041 -0.9700  0.0252 -1.8165
    4HFI     O1  526   1.280   2.496   0.148 -0.7506 -0.3899 -0.3808
    4HFI     C1  527   1.321   2.379   0.229 -0.1930 -0.4512 -0.1138
    4HFI     C2  528   1.198   2.329   0.299 -0.0662  1.3823  0.0171
    4HFI     F1  529   1.107   2.316   0.199 -0.2228 -0.3156 -0.7007
    4HFI     F2  530   1.150   2.413   0.392  0.3312  0.4149  0.2115
    4HFI     F3  531   1.214   2.207   0.360 -0.3651  0.0716 -0.1138
    4HFI     C3  532   1.430   2.425   0.324 -0.5086  1.0225  0.4550
    4HFI     F4  533   1.463   2.327   0.407  0.0847 -0.4637 -0.5871
    4HFI     F5  534   1.384   2.530   0.390  0.2471 -0.0664  0.1997
    4HFI     F6  535   1.535   2.468   0.261  0.1857  0.2925  0.2073
    4HFI     H1  536   1.343   2.503   0.074 -1.4992  2.4911 -0.7970
    4HFI     H2  537   1.359   2.295   0.169 -0.4661  0.8755 -2.1882
    5HFI     O1  538   3.272   1.305   0.534  0.3365 -0.1308  0.1042
    5HFI     C1  539   3.176   1.420   0.526  0.3590 -0.2372 -0.1121
    5HFI     C2  540   3.076   1.415   0.645 -0.5508  0.7467 -0.0634
    5HFI     F1  541   2.970   1.495   0.633  0.0852  0.1108  0.1065
    5HFI     F2  542   3.137   1.446   0.765  0.1574 -0.0991 -0.2277
    5HFI     F3  543   3.028   1.285   0.658 -0.2990 -0.0072 -0.2318
    5HFI     C3  544   3.116   1.418   0.377 -0.5861  0.5173  0.0644
    5HFI     F4  545   3.219   1.424   0.285  0.2969  0.1014  0.0354
    5HFI     F5  546   3.035   1.517   0.361 -0.0974  0.2104 -0.0393
    5HFI     F6  547   3.050   1.304   0.356 -0.1864  0.2330  0.3766
    5HFI     H1  548   3.219   1.223   0.543 -0.1674  0.3012  1.1610
    5HFI     H2  549   3.231   1.513   0.540 -1.4003  0.9273 -0.8086
    6HFI     O1  550   0.507   1.643   0.631 -0.0044 -0.1117  0.1398
    6HFI     C1  551   0.654   1.648   0.626  0.4883  0.3203  0.5674
    6HFI     C2  552   0.694   1.788   0.585  0.5022  0.3945  0.9160
    6HFI     F1  553   0.648   1.875   0.679 -0.1378  0.5232 -0.5150
    6HFI     F2  554   0.637   1.826   0.468  0.0300 -0.5883  0.0550
    6HFI     F3  555   0.830   1.809   0.579  0.0526  0.6670  0.2804
    6HFI     C3  556   0.724   1.521   0.554  0.0250 -0.5622 -0.7202
    6HFI     F4  557   0.844   1.498   0.605 -0.4183 -0.5948 -0.2487
    6HFI     F5  558   0.731   1.532   0.421  0.5399 -0.3526 -0.7952
    6HFI     F6  559   0.655   1.412   0.582 -0.1998  0.0713  0.8199
    6HFI     H1  560   0.476   1.702   0.560  0.8301  2.1298  1.6286
    6HFI     H2  561   0.671   1.634   0.734  2.8662 -0.5045  0.1288
    7HFI     O1  562   1.895   3.186   0.342 -0.3274 -0.7636 -0.2002
    7HFI     C1  563   1.823   3.298   0.398  0.0378  0.1246 -0.2742
    7HFI     C2  564   1.842   3.310   0.550 -0.2167 -0.3802  0.5778
    7HFI     F1  565   1.965   3.328   0.579  0.0165  0.3983 -0.2588
    7HFI     F2  566   1.802   3.198   0.619 -0.0128 -0.2233 -0.8782
    7HFI     F3  567   1.774   3.416   0.590 -0.1600  0.3437  0.3715
    7HFI     C3  568   1.672   3.293   0.353 -0.6297 -1.3343  0.2613
    7HFI     F4  569   1.597   3.400   0.377  0.2302  0.3963  0.6570
    7HFI     F5  570   1.608   3.186   0.409  0.4907 -0.6160  0.0588
    7HFI     F6  571   1.665   3.272   0.224  0.3161  0.8874  0.0214
    7HFI     H1  572   1.866   3.104   0.385  2.0334 -1.2280  0.5506
    7HFI     H2  573   1.865   3.393   0.365  1.5610 -0.2004  0.6868
    8HFI     O1  574   0.245   2.659   0.778 -0.2749 -0.4702  0.4550
    8HFI     C1  575   0.129   2.703   0.854  0.1322  0.7798  0.2046
    8HFI     C2  576   0.046   2.824   0.797  0.6941 -0.4918  1.0880
    8HFI     F1  577   0.096   2.938   0.834  0.1889 -0.6868  0.3920
    8HFI     F2  578  -0.077   2.825   0.837 -0.3827  0.0771  0.0856
    8HFI     F3  579   0.045   2.821   0.664  0.0757  0.1392 -0.2235
    8HFI     C3  580   0.147   2.711   1.010  0.0126 -0.2953  0.3765
    8HFI     F4  581   0.169   2.583   1.057 -0.1062  0.5271  0.1339
    8HFI     F5  582   0.040   2.763   1.070 -0.3662  0.1025 -0.0646
    8HFI     F6  583   0.241   2.792   1.040  0.0269 -0.2396 -0.0744
    8HFI     H1  584   0.255   2.721   0.705 -0.2813 -0.4428  0.4773
    8HFI     H2  585   0.063   2.616   0.851  0.7730  0.3188 -0.5268
    9HFI     O1  586   2.702   1.156   1.516  0.3731 -0.6027  0.2634
    9HFI     C1  587   2.833   1.211   1.553 -0.1393  0.4491 -0.5325
    9HFI     C2  588   2.855   1.331   1.463  0.6073 -0.3543 -0.0353
    9HFI     F1  589   2.746   1.411   1.466 -0.5015 -0.1414  0.1964
    9HFI     F2  590   2.878   1.300   1.333 -0.0756  0.6834 -0.0633
    9HFI     F3  591   2.964   1.397   1.507  0.1582 -0.2041 -0.0422
    9HFI     C3  592   2.945   1.094   1.548 -0.7448 -0.4914 -0.6865
    9HFI     F4  593   2.909   0.987   1.622 -0.1639  0.1168 -0.0724
    9HFI     F5  594   3.066   1.135   1.587 -0.2180 -0.4426  0.1689
    9HFI     F6  595   2.968   1.043   1.419  0.3556  0.1573 -0.0676
    9HFI     H1  596   2.642   1.232   1.503  0.6141 -0.5136 -0.3229
    9HFI     H2  597   2.834   1.258   1.652  0.4171  1.0226 -0.8091
   10HFI     O1  598   1.277   2.960   3.692 -0.4204  0.3926 -0.3851
   10HFI     C1  599   1.329   3.007   3.826 -0.5143 -0.4645 -0.2794
   10HFI     C2  600   1.336   3.157   3.831  0.4831  0.4292 -0.6426
   10HFI     F1  601   1.205   3.204   3.815  0.2118  0.3859  0.0474
   10HFI     F2  602   1.406   3.200   3.716 -0.3273  0.7419  0.7249
   10HFI     F3  603   1.390   3.212   3.941  0.5453 -0.1090  0.1580
   10HFI     C3  604   1.473   2.948   3.856  0.2636 -0.1735  0.3294
   10HFI     F4  605   1.558   2.990   3.767  0.2217  0.1841 -0.2122
   10HFI     F5  606   1.472   2.812   3.850 -0.1773 -0.4613 -0.1988
   10HFI     F6  607   1.517   2.984   3.975 -0.0105  0.1910  0.1860
   10HFI     H1  608   1.351   2.954   3.630 -0.2716  0.2835 -0.1995
   10HFI     H2  609   1.269   2.969   3.909 -3.1962  2.8031 -0.6528
   11HFI     O1  610   3.168   0.744   0.618 -0.5251  0.2374  0.2393
   11HFI     C1  611   3.045   0.775   0.551 -0.4958 -0.4347 -0.0238
   11HFI     C2  612   2.984   0.659   0.462 -1.0701  0.3307  0.2921
   11HFI     F1  613   2.910   0.688   0.355 -0.3384  0.4603 -0.3787
   11HFI     F2  614   2.905   0.579   0.537  0.2991 -0.2340 -0.7024
   11HFI     F3  615   3.085   0.579   0.413  0.3697  0.0292  0.1180
   11HFI     C3  616   3.062   0.895   0.462 -0.0871  0.4739 -0.2824
   11HFI     F4  617   2.946   0.933   0.409  0.8201 -0.3114  0.0365
   11HFI     F5  618   3.144   0.867   0.358 -0.1332 -0.2571  0.1170
   11HFI     F6  619   3.112   0.996   0.532 -0.5222 -0.0472  0.3976
   11HFI     H1  620   3.194   0.652   0.602  0.9451  0.3306  1.9102
   11HFI     H2  621   2.972   0.813   0.624  0.5853  1.2983  0.1578
   12HFI     O1  622   1.932   2.888   0.859  0.1148 -0.7985 -0.5131
   12HFI     C1  623   1.928   2.823   0.988  0.3484  0.4376  0.4655
   12HFI     C2  624   2.019   2.908   1.079 -0.0405 -0.9686  0.0017
   12HFI     F1  625   2.160   2.900   1.048  0.3637 -0.1207  0.3451
   12HFI     F2  626   1.999   2.864   1.207 -0.0073 -0.2413  0.1709
   12HFI     F3  627   1.979   3.038   1.082  0.0472 -0.1131  0.5185
   12HFI     C3  628   1.960   2.668   0.994 -0.1462 -0.0914 -0.6166
   12HFI     F4  629   2.094   2.639   1.003  0.3469  0.0200  0.3142
   12HFI     F5  630   1.915   2.609   0.882  0.1956 -0.1940 -0.1132
   12HFI     F6  631   1.898   2.612   1.101 -0.5699  0.2235  0.0752
   12HFI     H1  632   2.024   2.911   0.835  1.2819 -3.7454  0.9137
   12HFI     H2  633   1.826   2.832   1.029  0.0242 -0.9423 -0.0219
   13HFI     O1  634   2.896   0.979   0.849  0.4213 -0.4270 -0.4841
   13HFI     C1  635   2.774   1.060   0.850 -0.1385 -0.0326  0.0309
   13HFI     C2  636   2.712   1.083   0.986  0.3793 -0.4130 -0.1260
   13HFI     F1  637   2.802   1.090   1.080 -0.2031 -0.0342 -0.3192
   13HFI     F2  638   2.624   0.986   1.011 -0.2313 -0.3752 -0.2529
   13HFI     F3  639   2.643   1.198   0.982  0.1278  0.1676  0.7392
   13HFI     C3  640   2.682   1.039   0.733  0.2136 -0.7486  0.0482
   13HFI     F4  641   2.595   1.139   0.714  0.6036  0.1719 -0.9836
   13HFI     F5  642   2.618   0.921   0.752  0.1345 -0.0987 -0.0223
   13HFI     F6  643   2.755   1.025   0.620  0.7098 -0.3554 -0.2233
   13HFI     H1  644   2.943   0.993   0.933 -0.8796  1.1509  0.0081
   13HFI     H2  645   2.799   1.164   0.827 -0.1388 -0.2585 -1.0051
   14HFI     O1  646   0.343   1.217   0.630  0.3697  0.0577  0.5764
   14HFI     C1  647   0.213   1.163   0.580 -0.4266 -0.8430 -0.0444
   14HFI     C2  648   0.176   1.040   0.671  0.5947 -0.1229 -0.0187
   14HFI     F1  649   0.206   1.064   0.801 -0.1202  0.1974 -0.4024
   14HFI     F2  650   0.237   0.931   0.626 -0.2424 -0.6116 -0.3553
   14HFI     F3  651   0.046   1.032   0.658  0.1101  0.0761  0.4256
   14HFI     C3  652   0.212   1.142   0.426  0.4625  1.0876 -0.3490
   14HFI     F4  653   0.338   1.121   0.385  0.2099 -0.4242  0.2064
   14HFI     F5  654   0.162   1.255   0.367 -0.5487  0.1163 -0.0585
   14HFI     F6  655   0.137   1.041   0.381 -0.1484  0.3464 -0.3595
   14HFI     H1  656   0.348   1.194   0.725 -0.5480 -1.0779  0.3484
   14HFI     H2  657   0.135   1.235   0.610  0.8301 -0.6217  2.9084
   15HFI     O1  658   0.753   0.995   1.459 -0.0878 -0.2389  0.2067
   15HFI     C1  659   0.863   1.094   1.429  0.4392 -0.1923  0.4395
   15HFI     C2  660   1.011   1.036   1.441  0.2035 -0.0883 -0.4574
   15HFI     F1  661   1.023   0.915   1.377  0.0680  0.1525 -0.1177
   15HFI     F2  662   1.061   1.027   1.567  0.0776 -0.1196  0.3731
   15HFI     F3  663   1.093   1.129   1.384  0.6646  0.1750  0.2656
   15HFI     C3  664   0.837   1.234   1.491 -0.4441 -0.3696 -0.5514
   15HFI     F4  665   0.871   1.342   1.413  0.0583 -0.2700 -0.4575
   15HFI     F5  666   0.903   1.241   1.603 -0.2843  0.1661 -0.2214
   15HFI     F6  667   0.705   1.254   1.519  0.0172  0.4218 -0.2872
   15HFI     H1  668   0.786   0.914   1.501  1.0907 -0.3314 -0.8740
   15HFI     H2  669   0.850   1.116   1.322 -1.4307 -0.9463  0.4946
   16HFI     O1  670   2.223   0.139   0.315 -0.8413  0.7084 -0.0233
   16HFI     C1  671   2.266   0.233   0.415 -0.1121  0.4287 -0.5136
   16HFI     C2  672   2.303   0.153   0.539  0.3689 -0.2339  0.0755
   16HFI     F1  673   2.355   0.229   0.637  0.3215  0.1680 -0.1294
   16HFI     F2  674   2.393   0.062   0.507 -0.2117 -0.3872  0.4279
   16HFI     F3  675   2.200   0.086   0.593  0.1258 -0.1152 -0.3355
   16HFI     C3  676   2.150   0.329   0.440  0.6744  0.2493  1.0173
   16HFI     F4  677   2.124   0.402   0.331 -1.1702  0.2337 -0.8438
   16HFI     F5  678   2.172   0.417   0.530 -0.2728 -0.1718  0.0493
   16HFI     F6  679   2.036   0.264   0.479 -0.0741 -0.2150 -0.2034
   16HFI     H1  680   2.281   0.061   0.316  0.1988  1.3969  3.8299
   16HFI     H2  681   2.353   0.287   0.376  0.1607 -0.7188 -1.5338
   17HFI     O1  682   0.176   3.267   1.587  0.1528  0.5768 -0.3561
   17HFI     C1  683   0.127   3.193   1.465  1.2338  0.2168 -0.1080
   17HFI     C2  684  -0.024   3.166   1.457 -0.9830  0.1057  0.0709
   17HFI     F1  685  -0.076   3.098   1.563  0.0748 -0.0766  0.0132
   17HFI     F2  686  -0.060   3.085   1.354 -0.1375  0.0416 -0.5109
   17HFI     F3  687  -0.089   3.285   1.444 -0.2040  0.3142 -0.3134
   17HFI     C3  688   0.209   3.066   1.448  0.7233  0.2152  0.2661
   17HFI     F4  689   0.203   3.004   1.566 -0.4172  0.0729 -0.4139
   17HFI     F5  690   0.343   3.091   1.430 -0.3834  0.7980 -0.2788
   17HFI     F6  691   0.173   2.974   1.350 -0.3718 -0.2119  0.4336
   17HFI     H1  692   0.154   3.223   1.670  0.0220 -2.2647 -1.8457
   17HFI     H2  693   0.139   3.262   1.381 -0.1213  0.3533 -0.2024
   18HFI     O1  694   2.739   1.158   3.641 -0.2885 -0.3535 -0.1208
   18HFI     C1  695   2.834   1.258   3.689 -0.7495 -1.1106  0.3785
   18HFI     C2  696   2.963   1.256   3.604  0.8044 -0.0621 -0.3607
   18HFI     F1  697   2.931   1.281   3.477  0.1086  0.0541  0.1193
   18HFI     F2  698   3.022   1.132   3.609  0.3066 -0.3618  0.1530
   18HFI     F3  699   3.056   1.350   3.651  0.4035  0.4382 -0.5382
   18HFI     C3  700   2.854   1.231   3.848  0.2876  0.3163  0.8451
   18HFI     F4  701   2.929   1.324   3.906  0.4687  0.0729 -0.1636
   18HFI     F5  702   2.913   1.107   3.866  0.4656 -0.4409  0.8791
   18HFI     F6  703   2.728   1.232   3.900  0.4356 -0.2546 -0.2852
   18HFI     H1  704   2.656   1.170   3.690  0.3554  2.3933  0.4081
   18HFI     H2  705   2.793   1.359   3.681 -1.2414 -1.3382  0.0366
   19HFI     O1  706   2.853   3.146   0.491  0.3232 -0.6643  0.1694
   19HFI     C1  707   2.904   3.078   0.370  0.4727  0.3151  0.2288
   19HFI     C2  708   3.048   3.065   0.380  0.4525  0.7147  0.1011
   19HFI     F1  709   3.077   2.994   0.492 -0.1509 -0.5368 -0.1362
   19HFI     F2  710   3.116   3.178   0.381  0.1080  0.0767 -0.0329
   19HFI     F3  711   3.096   2.987   0.279  0.4581  0.3396  0.0307
   19HFI     C3  712   2.857   3.154   0.248 -0.7751 -0.0689 -0.7559
   19HFI     F4  713   2.726   3.147   0.227  0.4347  0.6434  0.3505
   19HFI     F5  714   2.912   3.109   0.138 -0.1933  0.1860  0.3167
   19HFI     F6  715   2.889   3.287   0.252 -0.5542  0.0610  0.4846
   19HFI     H1  716   2.910   3.214   0.531 -2.4995  0.8238  1.8292
   19HFI     H2  717   2.858   2.978   0.366 -0.8225  0.9564 -1.0730
   20HFI     O1  718   2.419   0.881   1.277  0.5785  0.1344 -0.8584
   20HFI     C1  719   2.330   0.902   1.391  0.6790  0.7131  0.5015
   20HFI     C2  720   2.372   1.024   1.477 -0.1110 -0.4445  0.2203
   20HFI     F1  721   2.421   1.132   1.406  0.1738 -0.8061 -0.1765
   20HFI     F2  722   2.463   0.994   1.569  0.0767  0.2271 -0.4253
   20HFI     F3  723   2.260   1.067   1.545  0.1171 -0.0721 -0.4359
   20HFI     C3  724   2.306   0.774   1.479  0.4541  0.2312  0.4190
   20HFI     F4  725   2.225   0.793   1.584 -0.0166 -0.3919 -0.0645
   20HFI     F5  726   2.424   0.722   1.520 -0.2673 -0.4233 -0.0755
   20HFI     F6  727   2.258   0.682   1.391 -0.2640 -0.5376  0.0735
   20HFI     H1  728   2.485   0.818   1.310  0.1690 -0.6093 -1.4418
   20HFI     H2  729   2.237   0.938   1.345  1.3548  0.8300 -0.7968
   21HFI     O1  730   3.041   2.619   3.261 -0.1446  0.0153 -0.1944
   21HFI     C1  731   3.148   2.607   3.368  0.2221 -0.5504  0.0678
   21HFI     C2  732   3.101   2.646   3.512 -0.1106 -0.3154 -0.2782
   21HFI     F1  733   2.989   2.578   3.541  0.5398  0.1166  0.0682
   21HFI     F2  734   3.061   2.769   3.525  0.5809 -0.0601  0.0956
   21HFI     F3  735   3.196   2.608   3.596 -0.4348  0.3237  0.0926
   21HFI     C3  736   3.281   2.686   3.320  1.0489  0.4169 -0.7197
   21HFI     F4  737   3.311   2.654   3.190 -0.1302 -0.2381  0.4057
   21HFI     F5  738   3.389   2.645   3.402 -0.1695  0.1772  0.2526
   21HFI     F6  739   3.268   2.823   3.327 -0.3634 -0.2435 -0.4056
   21HFI     H1  740   3.081   2.647   3.177  0.0519 -0.4044 -0.2409
   21HFI     H2  741   3.187   2.505   3.381  2.0677  0.2197  0.8193
   22HFI     O1  742   2.675   2.565   3.488  0.0917  0.4564 -0.3218
   22HFI     C1  743   2.572   2.596   3.394 -0.5404 -0.6070 -0.1644
   22HFI     C2  744   2.617   2.564   3.248  0.5809  0.1239 -0.4457
   22HFI     F1  745   2.521   2.587   3.157 -0.3582  0.2981  0.0043
   22HFI     F2  746   2.647   2.427   3.240 -0.3358  0.2157  0.3556
   22HFI     F3  747   2.724   2.633   3.215  0.0639  0.9955  0.2532
   22HFI     C3  748   2.519   2.751   3.429 -0.1856  0.6314  0.4758
   22HFI     F4  749   2.416   2.794   3.350 -0.0491  0.0156  0.2655
   22HFI     F5  750   2.625   2.835   3.412 -0.3389 -0.2132 -0.3498
   22HFI     F6  751   2.489   2.759   3.557 -0.7080 -0.2754 -0.0070
   22HFI     H1  752   2.756   2.581   3.437 -0.5336  0.1534 -1.4107
   22HFI     H2  753   2.484   2.532   3.404 -0.2029 -1.0677 -0.1485
   23HFI     O1  754   0.707   0.168   0.663  0.3066 -0.3951 -0.7900
   23HFI     C1  755   0.570   0.140   0.718  0.6787 -0.3148  0.0167
   23HFI     C2  756   0.481   0.251   0.684  0.2015  0.5628  0.1079
   23HFI     F1  757   0.454   0.259   0.552 -0.6433  0.6074  0.1233
   23HFI     F2  758   0.534   0.366   0.720  0.0110  0.4069 -0.3329
   23HFI     F3  759   0.362   0.243   0.746 -0.2652  0.0446  0.0860
   23HFI     C3  760   0.580   0.100   0.869 -0.7225  0.0885 -0.3678
   23HFI     F4  761   0.621   0.189   0.953  0.0107 -0.0330  0.1501
   23HFI     F5  762   0.670   0.001   0.889  0.1463  0.1782 -0.0378
   23HFI     F6  763   0.463   0.055   0.919 -0.1990  0.3428  0.5501
   23HFI     H1  764   0.755   0.222   0.729 -1.3786 -0.5868  0.6099
   23HFI     H2  765   0.538   0.042   0.679  0.6852 -0.2720 -0.0979
   24HFI     O1  766   1.267   2.242   1.546  0.1119  0.7818 -0.0085
   24HFI     C1  767   1.369   2.141   1.511 -0.6082  0.1320 -0.2645
   24HFI     C2  768   1.513   2.197   1.518  0.2490 -0.0086  0.3276
   24HFI     F1  769   1.520   2.305   1.592 -0.2653 -0.1856  0.1889
   24HFI     F2  770   1.558   2.226   1.393  0.0870 -0.1080 -0.3672
   24HFI     F3  771   1.598   2.103   1.562 -0.3239 -0.6018 -0.1183
   24HFI     C3  772   1.342   2.068   1.379  0.1942 -0.3057 -0.0180
   24HFI     F4  773   1.303   2.150   1.271  0.1261 -0.1595 -0.4930
   24HFI     F5  774   1.233   1.989   1.391  0.2272  0.1072 -0.3744
   24HFI     F6  775   1.445   1.995   1.337  0.2541  0.0383 -0.1965
   24HFI     H1  776   1.296   2.326   1.507  0.0946  0.1992 -1.2845
   24HFI     H2  777   1.362   2.053   1.577 -0.5288  0.3632  0.0512
   25HFI     O1  778   0.260   0.537   0.548  0.4337  0.2825  0.0281
   25HFI     C1  779   0.153   0.487   0.458 -0.1282  0.1896 -0.1463
   25HFI     C2  780   0.131   0.579   0.328 -0.3900 -0.3350  0.0065
   25HFI     F1  781   0.086   0.699   0.363 -0.0268 -0.1425 -0.2211
   25HFI     F2  782   0.059   0.516   0.233  0.6266 -0.2311 -0.0913
   25HFI     F3  783   0.255   0.598   0.273  0.2323  0.9013  0.2060
   25HFI     C3  784   0.028   0.458   0.542 -0.2492  0.4524  0.0617
   25HFI     F4  785  -0.070   0.402   0.466 -0.0693  0.0412  0.1326
   25HFI     F5  786  -0.019   0.565   0.607  0.2953 -0.1647 -0.0103
   25HFI     F6  787   0.047   0.367   0.642 -0.0935  0.3135  0.3141
   25HFI     H1  788   0.308   0.610   0.506  0.0120 -0.0658 -1.0974
   25HFI     H2  789   0.183   0.391   0.413  0.5793  0.5583 -0.4826
   26HFI     O1  790   0.709   2.888   3.296  0.4248  0.2625  0.0639
   26HFI     C1  791   0.841   2.840   3.333 -0.1563  1.0210 -0.1883
   26HFI     C2  792   0.914   2.948   3.425 -0.4643 -0.1156  0.9647
   26HFI     F1  793   0.848   2.961   3.541 -0.0701  0.2649  0.0973
   26HFI     F2  794   0.911   3.067   3.368  0.4486  0.0970 -0.2746
   26HFI     F3  795   1.043   2.910   3.454  1.2420 -0.7027 -1.2733
   26HFI     C3  796   0.928   2.792   3.214  0.5114  0.1330 -0.3563
   26HFI     F4  797   0.951   2.896   3.137 -0.0039  0.2950 -0.3259
   26HFI     F5  798   0.866   2.699   3.139 -0.5739  0.0509 -0.3044
   26HFI     F6  799   1.043   2.733   3.248  0.0511 -0.2126  0.0643
   26HFI     H1  800   0.675   2.941   3.370  1.2302  1.9091 -0.7339
   26HFI     H2  801   0.824   2.748   3.390 -2.5957  1.1490 -0.6558
   27HFI     O1  802   0.521   2.526   0.541  0.4940  0.1251 -0.3370
   27HFI     C1  803   0.534   2.631   0.430 -0.1178  0.1969  0.1075
   27HFI     C2  804   0.577   2.771   0.483  0.5397  0.8187 -0.1708
   27HFI     F1  805   0.685   2.760   0.559 -0.2777 -0.0149 -0.0276
   27HFI     F2  806   0.489   2.831   0.554  0.4284 -0.0678 -0.1270
   27HFI     F3  807   0.603   2.851   0.382  0.0206 -0.6470  0.0972
   27HFI     C3  808   0.408   2.629   0.342  0.0258 -0.1729  0.4788
   27HFI     F4  809   0.422   2.706   0.236 -0.7235  0.1253 -0.7538
   27HFI     F5  810   0.307   2.685   0.409  0.6127 -0.1331 -0.2456
   27HFI     F6  811   0.372   2.501   0.307 -0.2653  0.5020  0.6442
   27HFI     H1  812   0.433   2.539   0.581  1.5910  2.0487  1.5996
   27HFI     H2  813   0.616   2.608   0.362  0.6406 -0.1173  1.1098
   28HFI     O1  814   3.092   3.166   3.499  0.0643  0.6235 -0.5631
   28HFI     C1  815   2.968   3.167   3.584  0.2544  0.1841 -0.0778
   28HFI     C2  816   2.846   3.128   3.491  0.2616  0.2854 -0.3699
   28HFI     F1  817   2.814   3.236   3.414  0.4283 -0.9949 -0.0929
   28HFI     F2  818   2.739   3.093   3.560  0.1748  0.2372 -0.6945
   28HFI     F3  819   2.874   3.037   3.398  0.3957  0.4311  0.1570
   28HFI     C3  820   2.949   3.305   3.661 -0.1845 -0.2036  0.4364
   28HFI     F4  821   2.968   3.408   3.580  0.4043 -0.5616  0.1956
   28HFI     F5  822   3.039   3.316   3.754  0.0814 -0.1018  0.1005
   28HFI     F6  823   2.830   3.317   3.707 -0.3071  0.3053  0.4933
   28HFI     H1  824   3.080   3.096   3.433  0.3162 -0.1029  0.1601
   28HFI     H2  825   2.964   3.082   3.653 -1.4313  0.7465  0.5437
   29HFI     O1  826   3.381   1.700   1.319  0.4516 -0.0717 -0.1706
   29HFI     C1  827   3.279   1.615   1.390 -0.1439 -0.5706  0.3353
   29HFI     C2  828   3.198   1.710   1.473  0.7763 -0.1268 -0.3218
   29HFI     F1  829   3.265   1.753   1.586  0.5590 -0.6587 -0.2939
   29HFI     F2  830   3.079   1.652   1.506 -0.3816  0.9644 -0.0932
   29HFI     F3  831   3.158   1.822   1.407 -0.8410 -0.1766  0.0232
   29HFI     C3  832   3.348   1.506   1.477  0.1197  0.0429 -0.2161
   29HFI     F4  833   3.432   1.563   1.570 -0.1533  0.3397 -0.2078
   29HFI     F5  834   3.422   1.425   1.402 -0.3501 -0.1953  0.3138
   29HFI     F6  835   3.257   1.428   1.543 -0.1289  0.4121  0.0649
   29HFI     H1  836   3.451   1.714   1.384  1.5225  1.2790 -1.5844
   29HFI     H2  837   3.208   1.563   1.324  0.7094 -1.2528 -0.0645
   30HFI     O1  838   0.490   1.438   0.187 -0.5225 -0.3897 -0.0041
   30HFI     C1  839   0.619   1.395   0.135  0.7152  0.0893 -0.5958
   30HFI     C2  840   0.704   1.506   0.066  0.6608  0.1760  0.5051
   30HFI     F1  841   0.648   1.563  -0.039 -0.4060 -0.1393 -0.5025
   30HFI     F2  842   0.826   1.457   0.031  0.1853 -0.5852  0.1989
   30HFI     F3  843   0.728   1.605   0.153 -0.3173  0.3437  0.0275
   30HFI     C3  844   0.598   1.267   0.046 -0.3468 -0.3305 -0.1392
   30HFI     F4  845   0.528   1.172   0.114 -0.3274  0.0246 -0.3927
   30HFI     F5  846   0.719   1.213   0.015 -0.2458 -0.0438 -0.3091
   30HFI     F6  847   0.535   1.295  -0.070 -0.1584  0.0033 -0.0485
   30HFI     H1  848   0.421   1.383   0.146  1.3191 -0.2185 -3.5790
   30HFI     H2  849   0.677   1.363   0.222 -3.4017  0.9218  2.6471
   31HFI     O1  850   0.766   2.141   0.187  0.2894 -0.0821  0.3631
   31HFI     C1  851   0.692   2.149   0.300  0.4320 -0.0402  0.0146
   31HFI     C2  852   0.576   2.245   0.300  0.0036  0.0021 -0.0704
   31HFI     F1  853   0.495   2.253   0.411  0.4681 -0.5490  0.2703
   31HFI     F2  854   0.495   2.209   0.201  0.2985 -0.2761  0.5708
   31HFI     F3  855   0.623   2.366   0.273  0.2037 -0.0660 -0.4986
   31HFI     C3  856   0.785   2.164   0.425  0.6347 -0.4148  0.0856
   31HFI     F4  857   0.839   2.289   0.415 -0.2030 -0.1544 -0.9114
   31HFI     F5  858   0.886   2.071   0.413 -0.3893  0.5427 -0.0511
   31HFI     F6  859   0.726   2.150   0.542  0.3186 -0.2145  0.0244
   31HFI     H1  860   0.833   2.212   0.193 -1.3181  1.3377  1.9164
   31HFI     H2  861   0.646   2.055   0.333  0.0412  0.8047  1.9912
   32HFI     O1  862   1.423   0.968   1.274  0.2920 -0.2982  0.4218
   32HFI     C1  863   1.522   1.038   1.354  0.3266  0.1327 -0.7600
   32HFI     C2  864   1.461   1.123   1.472  0.0203 -0.3430  0.4162
   32HFI     F1  865   1.400   1.041   1.553  0.0656 -0.0833  0.0669
   32HFI     F2  866   1.370   1.211   1.423  0.4784 -0.6090 -0.0606
   32HFI     F3  867   1.547   1.193   1.540  0.1233  0.1874  0.3231
   32HFI     C3  868   1.634   1.105   1.274 -0.1471  0.1639  0.4925
   32HFI     F4  869   1.589   1.210   1.200  0.2404 -0.1318  0.0633
   32HFI     F5  870   1.682   1.007   1.190  0.0112  0.1244 -0.0099
   32HFI     F6  871   1.740   1.144   1.347  0.0934 -0.4826 -0.6146
   32HFI     H1  872   1.481   0.914   1.216  0.6290  0.4570  0.0435
   32HFI     H2  873   1.587   0.962   1.400  0.3587  0.5765 -0.0612
   33HFI     O1  874   0.082   2.139   1.010  0.4113  0.5846  0.1793
   33HFI     C1  875   0.160   2.109   0.893  0.2660 -0.0954 -0.8655
   33HFI     C2  876   0.303   2.058   0.934 -0.0885  0.0593  0.1274
   33HFI     F1  877   0.297   1.956   1.025  0.1483  0.0917  0.0247
   33HFI     F2  878   0.378   2.165   0.980 -0.0532  0.0923  0.2856
   33HFI     F3  879   0.366   2.015   0.820  0.2175 -0.0450 -0.0626
   33HFI     C3  880   0.155   2.231   0.796 -0.1301 -0.4055  0.2966
   33HFI     F4  881   0.227   2.211   0.680  0.0545 -0.4200 -0.4447
   33HFI     F5  882   0.198   2.345   0.845 -0.4535 -0.0614 -0.0112
   33HFI     F6  883   0.022   2.251   0.758 -0.5778  0.0140  0.1167
   33HFI     H1  884   0.021   2.208   0.980  0.9271  1.0639  0.2249
   33HFI     H2  885   0.103   2.028   0.847 -1.7025  1.2955 -0.9354
   34HFI     O1  886   2.270   2.293   0.587  0.2013  0.5297  0.1530
   34HFI     C1  887   2.309   2.432   0.604  0.5946 -0.0588  0.3716
   34HFI     C2  888   2.435   2.478   0.525 -0.0126  0.5065 -1.0997
   34HFI     F1  889   2.535   2.395   0.568  0.1403  0.2469  0.5033
   34HFI     F2  890   2.465   2.608   0.547 -0.1271 -0.0941  0.0246
   34HFI     F3  891   2.417   2.460   0.391 -0.5416 -0.0803 -0.1632
   34HFI     C3  892   2.309   2.463   0.751 -0.5757 -0.2250  0.7624
   34HFI     F4  893   2.311   2.592   0.782  0.0388 -0.0997 -0.0583
   34HFI     F5  894   2.411   2.403   0.809 -0.3914 -0.1522  0.2756
   34HFI     F6  895   2.196   2.411   0.795 -0.0436  0.4403 -0.1345
   34HFI     H1  896   2.331   2.240   0.533 -0.5844 -0.4640  0.2275
   34HFI     H2  897   2.231   2.498   0.565  3.3093  1.5161 -2.6903
   35HFI     O1  898   1.230   3.243   0.426 -0.7267 -0.5083  0.0033
   35HFI     C1  899   1.265   3.386   0.444 -0.0096 -0.7425  0.0225
   35HFI     C2  900   1.307   3.424   0.595 -0.2254  0.5462  0.3218
   35HFI     F1  901   1.375   3.317   0.641  0.4421 -0.7514  0.3889
   35HFI     F2  902   1.197   3.435   0.667 -0.4478 -0.0487  0.0307
   35HFI     F3  903   1.380   3.536   0.615  0.1781 -0.3793 -0.6621
   35HFI     C3  904   1.164   3.496   0.380 -0.0009  0.5603  0.2467
   35HFI     F4  905   1.045   3.484   0.437  0.4051  0.5434  0.0177
   35HFI     F5  906   1.153   3.469   0.247 -0.2753  0.5880 -0.8783
   35HFI     F6  907   1.197   3.624   0.394 -0.3870 -0.0313 -0.0246
   35HFI     H1  908   1.164   3.214   0.491 -2.7438 -1.1904 -2.2287
   35HFI     H2  909   1.351   3.394   0.376 -1.0813 -0.3891 -1.2972
   36HFI     O1  910   0.309   0.099   1.556  0.7172 -0.0147  0.7232
   36HFI     C1  911   0.454   0.107   1.551  0.3804 -0.2215 -0.0155
   36HFI     C2  912   0.514   0.209   1.447 -0.7882  0.1694  0.1265
   36HFI     F1  913   0.472   0.335   1.483 -0.0385 -0.4598 -0.2042
   36HFI     F2  914   0.456   0.187   1.324  0.1410 -0.2268  0.4107
   36HFI     F3  915   0.645   0.208   1.426 -0.1098 -0.5842 -0.1966
   36HFI     C3  916   0.519  -0.037   1.530  0.4405  0.5245  0.4693
   36HFI     F4  917   0.654  -0.040   1.567  0.0363 -0.1682  0.2127
   36HFI     F5  918   0.509  -0.079   1.396 -0.1238  0.4476 -0.2602
   36HFI     F6  919   0.462  -0.133   1.609  0.1494 -0.2337 -0.1099
   36HFI     H1  920   0.282   0.010   1.584  1.4063 -0.3833  0.2484
   36HFI     H2  921   0.496   0.143   1.646  1.7435 -0.6251 -0.4506
   37HFI     O1  922   1.173   0.741   1.535  0.3118 -0.6059 -0.3577
   37HFI     C1  923   1.268   0.628   1.535 -0.5486  0.1692 -0.1112
   37HFI     C2  924   1.393   0.649   1.452  0.4286  0.0794  0.6083
   37HFI     F1  925   1.360   0.681   1.326 -0.5952  0.9167 -0.3304
   37HFI     F2  926   1.473   0.543   1.451 -0.6680 -0.1424 -0.0695
   37HFI     F3  927   1.465   0.751   1.501 -0.5888  0.2238  0.3670
   37HFI     C3  928   1.197   0.494   1.511  0.2032 -0.2707 -0.0225
   37HFI     F4  929   1.174   0.469   1.383 -0.7581 -0.2649 -0.2141
   37HFI     F5  930   1.082   0.485   1.576  0.0138 -0.3116  0.2533
   37HFI     F6  931   1.275   0.391   1.553 -0.2513 -0.1823  0.2785
   37HFI     H1  932   1.141   0.765   1.446 -0.8695 -1.7120 -0.2496
   37HFI     H2  933   1.298   0.627   1.640  0.0617 -2.1252 -0.2921
   38HFI     O1  934   1.282   1.496   1.331  0.5157  1.1141 -0.6298
   38HFI     C1  935   1.257   1.613   1.418  0.2494 -0.3785  0.4334
   38HFI     C2  936   1.373   1.648   1.512 -0.9331  0.3179 -0.0383
   38HFI     F1  937   1.371   1.765   1.567  0.2493 -0.5613 -0.0342
   38HFI     F2  938   1.490   1.648   1.447 -0.7748  0.5692 -0.8716
   38HFI     F3  939   1.385   1.557   1.608 -0.3070  0.2097 -0.5940
   38HFI     C3  940   1.118   1.621   1.485 -0.4996 -1.1674  0.0361
   38HFI     F4  941   1.105   1.535   1.585  0.2289 -0.0450  0.1415
   38HFI     F5  942   1.027   1.590   1.391  0.0040  0.5984  0.5789
   38HFI     F6  943   1.096   1.750   1.531 -0.4329  0.5861 -0.0692
   38HFI     H1  944   1.362   1.445   1.353 -1.0742 -1.1465  0.1800
   38HFI     H2  945   1.250   1.695   1.345  0.4147  0.5576  1.4455
   39HFI     O1  946   1.676   0.000   1.343  0.5032 -0.5085  1.0090
   39HFI     C1  947   1.592   0.038   1.453 -0.6606 -0.1074  0.3466
   39HFI     C2  948   1.442   0.005   1.414 -0.4755 -0.7781  0.1153
   39HFI     F1  949   1.425  -0.126   1.395 -0.3374 -0.4824  0.0496
   39HFI     F2  950   1.403   0.070   1.304 -0.2721 -0.4749 -0.3562
   39HFI     F3  951   1.353   0.041   1.507  0.2894  0.2449  0.4857
   39HFI     C3  952   1.629   0.180   1.504 -0.1761  0.6025 -0.1842
   39HFI     F4  953   1.625   0.264   1.406  0.7304  0.3599  0.2231
   39HFI     F5  954   1.747   0.187   1.562  0.4483  0.3445 -0.1102
   39HFI     F6  955   1.541   0.227   1.593  0.6043  0.2479  0.1951
   39HFI     H1  956   1.649   0.040   1.259 -0.1144  0.7539  1.7851
   39HFI     H2  957   1.609  -0.027   1.539 -1.4070 -1.0628 -0.2246
   40HFI     O1  958   0.646   3.121   3.756  0.0616 -0.3143  0.1509
   40HFI     C1  959   0.681   3.181   3.888 -0.1019  0.5426  0.2098
   40HFI     C2  960   0.802   3.100   3.968  0.0987  0.4920 -0.4518
   40HFI     F1  961   0.911   3.099   3.888  0.0236  0.1200 -0.0950
   40HFI     F2  962   0.765   2.972   3.973  0.7415 -0.0000  0.0496
   40HFI     F3  963   0.845   3.144   4.084 -0.3034 -0.0592  0.0430
   40HFI     C3  964   0.562   3.195   3.986  0.0875 -0.8532  0.3146
   40HFI     F4  965   0.503   3.076   4.015  0.2728 -0.3503 -0.0642
   40HFI     F5  966   0.462   3.270   3.939 -0.1518  0.4074 -0.2684
   40HFI     F6  967   0.587   3.256   4.101  0.5328  0.0130  0.3134
   40HFI     H1  968   0.714   3.054   3.736 -1.3712 -1.5961 -0.5606
   40HFI     H2  969   0.728   3.279   3.871 -2.0547  1.2197 -1.3261
   41HFI     O1  970   2.019   1.955   0.010 -0.0952  0.1892 -0.3606
   41HFI     C1  971   2.027   1.861   0.125  0.7544 -0.0425 -0.7722
   41HFI     C2  972   2.119   1.914   0.242 -0.8376 -0.5285  0.0471
   41HFI     F1  973   2.251   1.925   0.214  0.1282 -0.1649 -0.5503
   41HFI     F2  974   2.105   1.846   0.358  0.0111 -0.4766  0.1752
   41HFI     F3  975   2.086   2.041   0.272  0.3217 -0.1514  0.6346
   41HFI     C3  976   2.068   1.720   0.073  0.0759  0.5190  0.2823
   41HFI     F4  977   2.187   1.712   0.022 -0.6256  0.2729  0.2795
   41HFI     F5  978   1.987   1.678  -0.022 -0.1119  0.5894 -0.1669
   41HFI     F6  979   2.052   1.631   0.173  0.3388  0.9615  0.1042
   41HFI     H1  980   2.040   2.043   0.045 -1.7536  0.4613 -0.0449
   41HFI     H2  981   1.923   1.850   0.160  0.8857 -1.2331 -0.7422
   42HFI     O1  982   0.444   1.672   0.347  0.2327 -0.2627  0.5816
   42HFI     C1  983   0.309   1.730   0.316 -0.2959  0.9509  1.3153
   42HFI     C2  984   0.279   1.861   0.393 -0.4022  0.2274 -0.5069
   42HFI     F1  985   0.365   1.952   0.350  0.0797 -0.1402 -0.2030
   42HFI     F2  986   0.295   1.853   0.524 -0.1282 -0.4344 -0.1642
   42HFI     F3  987   0.157   1.909   0.379 -0.1691 -0.1066  0.4072
   42HFI     C3  988   0.198   1.621   0.314 -0.4155  0.2827 -0.0755
   42HFI     F4  989   0.209   1.543   0.207 -0.0638 -0.1681 -0.1567
   42HFI     F5  990   0.074   1.673   0.308 -0.0205  0.4236 -0.0867
   42HFI     F6  991   0.199   1.547   0.432 -0.6985 -0.4635 -0.3369
   42HFI     H1  992   0.457   1.599   0.285  0.8472 -1.5734  2.2039
   42HFI     H2  993   0.303   1.766   0.212  1.6145  0.1313  0.8885
   43HFI     O1  994   3.225   0.125   0.887 -0.4255 -0.2954  0.8591
   43HFI     C1  995   3.196   0.022   0.784 -0.1925 -0.0982  0.1516
   43HFI     C2  996   3.248   0.065   0.642  0.7872 -0.3943  0.4323
   43HFI     F1  997   3.179   0.175   0.596 -0.1500  0.2352 -0.0889
   43HFI     F2  998   3.228  -0.042   0.557  0.3527  0.2561  0.5418
   43HFI     F3  999   3.378   0.093   0.640 -0.0033  0.4336 -0.1116
   43HFI     C3 1000   3.037   0.007   0.773  0.0270 -0.1499 -0.2018
   43HFI     F4 1001   3.009  -0.097   0.694  0.0977 -0.1257  0.2650
   43HFI     F5 1002   2.964   0.118   0.749 -0.1581 -0.2087 -0.0239
   43HFI     F6 1003   3.000  -0.038   0.898 -0.1242  0.1603 -0.1420
   43HFI     H1 1004   3.320   0.134   0.907 -1.1213  0.9974  3.7697
   43HFI     H2 1005   3.230  -0.079   0.811 -2.6085 -0.7164  0.9409
   44HFI     O1 1006   0.657   2.935   0.925  0.0330  0.2373 -0.1075
   44HFI     C1 1007   0.569   2.964   1.036 -0.1766  0.3190 -0.3952
   44HFI     C2 1008   0.447   3.054   0.982 -0.5213 -0.4612 -0.2546
   44HFI     F1 1009   0.339   3.049   1.062  0.3194 -0.0196  0.2180
   44HFI     F2 1010   0.406   3.015   0.855 -0.0467  0.1417  0.0148
   44HFI     F3 1011   0.480   3.191   0.972 -0.0861 -0.1243  0.0372
   44HFI     C3 1012   0.653   3.037   1.150  0.1847 -0.1232 -0.4655
   44HFI     F4 1013   0.571   3.065   1.247 -0.0699  0.3210  0.0725
   44HFI     F5 1014   0.712   3.152   1.104 -0.1574 -0.0924 -0.2310
   44HFI     F6 1015   0.754   2.957   1.185  0.0575  0.5412  0.0825
   44HFI     H1 1016   0.748   2.928   0.959  1.1071 -1.9710 -3.1990
   44HFI     H2 1017   0.527   2.870   1.072  0.5202  0.7353  1.5400
   45HFI     O1 1018   3.105   2.584   1.469  0.2920  0.1817 -0.1711
   45HFI     C1 1019   3.219   2.621   1.549  0.0220  0.2635  0.8884
   45HFI     C2 1020   3.269   2.762   1.512  0.5314 -0.0275 -0.1800
   45HFI     F1 1021   3.296   2.780   1.379  0.3762  0.1124 -0.3528
   45HFI     F2 1022   3.377   2.813   1.577  0.2446 -0.7616 -0.1055
   45HFI     F3 1023   3.169   2.847   1.546 -0.1905 -0.2887  0.2457
   45HFI     C3 1024   3.333   2.510   1.535 -0.1947 -0.6134  0.0725
   45HFI     F4 1025   3.443   2.550   1.594  0.6995  0.1405 -1.0035
   45HFI     F5 1026   3.365   2.477   1.405  0.4479 -0.0795 -0.1242
   45HFI     F6 1027   3.292   2.397   1.598  0.4398  0.4142 -0.0817
   45HFI     H1 1028   3.057   2.665   1.446  2.4971  1.1148 -1.6705
   45HFI     H2 1029   3.183   2.617   1.653  1.6149  0.3169  1.4436
   46HFI     O1 1030   0.958   0.063   0.999  0.4819  0.8804 -0.5039
   46HFI     C1 1031   1.015   0.025   1.130 -0.3014  0.6591  0.4472
   46HFI     C2 1032   1.025   0.149   1.220 -0.3977  0.4120 -0.0034
   46HFI     F1 1033   1.096   0.249   1.171  0.3366  0.1582 -0.0041
   46HFI     F2 1034   1.087   0.109   1.336  0.7395 -0.1072 -0.2847
   46HFI     F3 1035   0.904   0.210   1.254  0.1711  0.0977  0.1863
   46HFI     C3 1036   1.149  -0.063   1.113 -0.1233  0.3066 -0.9413
   46HFI     F4 1037   1.200  -0.120   1.228  0.0740  0.3891  0.2904
   46HFI     F5 1038   1.253   0.013   1.055  0.2780  0.3020 -0.2444
   46HFI     F6 1039   1.132  -0.168   1.024 -0.0718 -0.4820 -0.0393
   46HFI     H1 1040   0.902  -0.013   0.973  0.9949  0.4546 -0.3764
   46HFI     H2 1041   0.947  -0.037   1.189 -0.9955  0.9238 -0.0643
   47HFI     O1 1042   1.479   1.113   0.656 -0.0259 -0.1080  0.0021
   47HFI     C1 1043   1.472   0.986   0.717 -0.1087 -0.0808 -0.1239
   47HFI     C2 1044   1.328   0.937   0.731 -0.1395  0.2061 -0.0270
   47HFI     F1 1045   1.267   0.957   0.618 -0.4495  0.2734  0.0687
   47HFI     F2 1046   1.262   1.003   0.835  0.1058  0.7652  0.4887
   47HFI     F3 1047   1.323   0.801   0.757  0.0654 -0.2634  0.3545
   47HFI     C3 1048   1.552   0.973   0.848 -0.7649  0.7207  1.1431
   47HFI     F4 1049   1.556   1.079   0.924  0.0842  0.1692  0.1876
   47HFI     F5 1050   1.683   0.952   0.819 -0.1969 -0.3082  0.3548
   47HFI     F6 1051   1.513   0.868   0.918 -0.0193 -0.1333 -0.0200
   47HFI     H1 1052   1.530   1.170   0.716 -0.9897 -0.2443  0.9730
   47HFI     H2 1053   1.518   0.923   0.640  0.7475  0.1027  0.2247
   48HFI     O1 1054   0.872   2.965   0.712  0.2693  0.1619  0.0339
   48HFI     C1 1055   0.869   3.104   0.656 -0.4188  0.1400  0.8505
   48HFI     C2 1056   0.952   3.197   0.753  0.0528 -0.2264 -0.0308
   48HFI     F1 1057   1.078   3.197   0.720  0.1586  0.1764  0.0853
   48HFI     F2 1058   0.934   3.163   0.880  0.1086  0.3684 -0.1155
   48HFI     F3 1059   0.914   3.331   0.750  0.2990 -0.4282 -0.0588
   48HFI     C3 1060   0.724   3.157   0.622  0.1383  0.4786 -0.5837
   48HFI     F4 1061   0.726   3.283   0.565  0.1938 -0.3828  0.1983
   48HFI     F5 1062   0.640   3.163   0.730  0.2043 -0.1786 -0.7586
   48HFI     F6 1063   0.665   3.080   0.531  0.3079  0.1698  0.0797
   48HFI     H1 1064   0.782   2.932   0.724  0.8236 -1.4262  0.0239
   48HFI     H2 1065   0.924   3.110   0.562  0.3645  1.6083  1.3923
   49HFI     O1 1066   0.238   1.124   1.292  0.1330  0.0384  0.0905
   49HFI     C1 1067   0.293   1.059   1.415 -0.0005 -0.5498  0.3691
   49HFI     C2 1068   0.194   0.950   1.465  0.0236  0.0177 -0.1747
   49HFI     F1 1069   0.076   1.006   1.468 -0.0158  0.3632 -0.2806
   49HFI     F2 1070   0.229   0.896   1.585 -0.6417  0.1916  0.3260
   49HFI     F3 1071   0.191   0.846   1.380  0.3184  0.4198 -0.0781
   49HFI     C3 1072   0.349   1.162   1.517 -0.3760 -0.2518 -0.7349
   49HFI     F4 1073   0.247   1.219   1.587  0.6878 -0.1311 -0.1095
   49HFI     F5 1074   0.424   1.258   1.453 -0.1880  0.1812 -0.1580
   49HFI     F6 1075   0.437   1.103   1.607 -0.0480  0.3557  0.3533
   49HFI     H1 1076   0.294   1.202   1.279  1.1432 -0.5819  0.5758
   49HFI     H2 1077   0.384   1.008   1.379  0.2067 -0.4896  0.8151
   50HFI     O1 1078   0.674   1.301   1.171  0.0830  0.0729  0.0101
   50HFI     C1 1079   0.609   1.315   1.040  0.3095 -0.3595 -0.7933
   50HFI     C2 1080   0.592   1.463   0.989  0.4513 -0.3151  0.0978
   50HFI     F1 1081   0.709   1.521   0.970  0.1191  0.4952 -0.2482
   50HFI     F2 1082   0.519   1.541   1.073  0.0865  0.1913 -0.5087
   50HFI     F3 1083   0.533   1.471   0.868  0.1366  0.1190 -0.6760
   50HFI     C3 1084   0.470   1.236   1.026 -0.5892 -0.3592  0.2097
   50HFI     F4 1085   0.426   1.226   0.901 -0.1964  0.0184 -0.4824
   50HFI     F5 1086   0.373   1.298   1.100  0.1999 -0.3659 -0.6650
   50HFI     F6 1087   0.484   1.110   1.066  0.3783 -0.0999  0.7166
   50HFI     H1 1088   0.637   1.370   1.228  0.1799  0.8239 -0.8174
   50HFI     H2 1089   0.667   1.267   0.960  1.2088 -0.7242  0.0763
   51HFI     O1 1090   1.200   2.001   3.044  0.1941  0.2113 -0.2853
   51HFI     C1 1091   1.115   2.107   3.023 -0.3003  0.4904 -0.2851
   51HFI     C2 1092   1.116   2.128   2.867 -0.3469 -0.6690 -0.7265
   51HFI     F1 1093   1.070   2.022   2.797  0.2198  0.1984  0.0660
   51HFI     F2 1094   1.241   2.145   2.826 -0.1294 -0.0535 -0.1093
   51HFI     F3 1095   1.041   2.230   2.829  0.4785 -0.2672  0.1025
   51HFI     C3 1096   1.155   2.237   3.109  0.2738 -0.1191  0.7245
   51HFI     F4 1097   1.168   2.215   3.238  0.1095  0.1116  0.1492
   51HFI     F5 1098   1.065   2.339   3.089  0.1628 -0.0487  0.1228
   51HFI     F6 1099   1.269   2.289   3.078 -0.1782 -0.3879  0.1796
   51HFI     H1 1100   1.193   1.935   2.974 -2.1458 -1.5630  1.5486
   51HFI     H2 1101   1.012   2.077   3.044 -0.8114  2.3994  0.0940
   52HFI     O1 1102   0.970   1.486   1.129 -0.1050  0.2455 -0.0783
   52HFI     C1 1103   1.085   1.426   1.062  0.3311  0.3444 -0.0409
   52HFI     C2 1104   1.135   1.523   0.947  0.0973  0.2523  0.2172
   52HFI     F1 1105   1.036   1.577   0.870  0.4134 -0.4959  0.0563
   52HFI     F2 1106   1.215   1.459   0.859 -0.4195  0.0655 -0.1803
   52HFI     F3 1107   1.199   1.630   1.001 -0.1408  0.2785  0.1499
   52HFI     C3 1108   1.059   1.276   1.020  0.4123  0.2194  0.7633
   52HFI     F4 1109   0.977   1.213   1.102 -0.9673  0.1424 -0.4620
   52HFI     F5 1110   1.180   1.211   1.013 -0.4203 -0.0846 -0.0953
   52HFI     F6 1111   1.007   1.278   0.895 -0.8100  0.0968 -0.1719
   52HFI     H1 1112   0.984   1.486   1.225  1.6931 -1.2850 -0.3188
   52HFI     H2 1113   1.163   1.419   1.140  0.0515  3.8127  0.6413
   53HFI     O1 1114   2.600   1.975   1.062 -0.9646  0.0631  0.4135
   53HFI     C1 1115   2.629   2.116   1.079 -0.2318 -0.2254 -0.2016
   53HFI     C2 1116   2.718   2.161   0.964  0.2586  0.0585  0.0481
   53HFI     F1 1117   2.769   2.289   0.971 -0.0663  0.0478  0.2707
   53HFI     F2 1118   2.651   2.146   0.851  0.4141 -0.3700  0.0363
   53HFI     F3 1119   2.820   2.070   0.960 -0.2949  0.0791 -0.1773
   53HFI     C3 1120   2.689   2.151   1.225 -0.4206 -0.8341  1.3176
   53HFI     F4 1121   2.719   2.280   1.236 -0.4137 -0.6927  0.0550
   53HFI     F5 1122   2.803   2.082   1.246 -0.1513  0.2584 -0.5883
   53HFI     F6 1123   2.601   2.115   1.322  0.7260 -0.2102 -0.1264
   53HFI     H1 1124   2.648   1.923   1.129 -0.3786  0.7237  0.5216
   53HFI     H2 1125   2.527   2.157   1.074 -0.2334  0.2422  2.7384
   54HFI     O1 1126   2.660   2.580   3.794  0.4891 -0.5211 -0.2746
   54HFI     C1 1127   2.705   2.672   3.899  1.0085  0.0234 -0.3288
   54HFI     C2 1128   2.594   2.777   3.940 -0.2796  0.7166 -0.3198
   54HFI     F1 1129   2.634   2.831   4.056 -0.2216 -0.1561 -0.0389
   54HFI     F2 1130   2.469   2.718   3.956 -0.1702 -0.0069 -0.4241
   54HFI     F3 1131   2.587   2.884   3.858 -0.3933  0.3601  0.0412
   54HFI     C3 1132   2.839   2.730   3.853  0.3006 -0.0849 -0.0432
   54HFI     F4 1133   2.929   2.627   3.856 -0.1350  0.3998 -0.4173
   54HFI     F5 1134   2.878   2.833   3.938 -0.6773  0.6209 -0.2679
   54HFI     F6 1135   2.835   2.769   3.727 -0.1401  0.1818 -0.2340
   54HFI     H1 1136   2.692   2.610   3.707  0.6759 -1.4643 -0.5414
   54HFI     H2 1137   2.725   2.622   3.995  1.7292  0.4845 -0.2367
   55HFI     O1 1138   1.969   0.699   1.341 -0.2550  0.2399  0.0046
   55HFI     C1 1139   1.853   0.705   1.426  0.1952  0.5148 -0.4378
   55HFI     C2 1140   1.856   0.833   1.513 -0.2266  0.1334 -0.2775
   55HFI     F1 1141   1.881   0.931   1.435 -0.0299  0.1931 -0.0060
   55HFI     F2 1142   1.967   0.825   1.599 -0.1478  0.3116 -0.1942
   55HFI     F3 1143   1.736   0.856   1.585  0.7198 -0.5829 -0.0489
   55HFI     C3 1144   1.853   0.581   1.514  0.0628  0.0939  0.0979
   55HFI     F4 1145   1.981   0.565   1.581  0.5061  0.0001 -0.2484
   55HFI     F5 1146   1.830   0.465   1.442 -0.4729  0.3508 -0.0457
   55HFI     F6 1147   1.754   0.581   1.607  0.3230 -0.2261  1.1187
   55HFI     H1 1148   2.038   0.643   1.381  0.9853  1.3437 -0.5599
   55HFI     H2 1149   1.759   0.725   1.373 -1.3058 -1.7085  1.2534
   56HFI     O1 1150   1.297   2.801   0.305  0.1430 -0.6225 -0.0314
   56HFI     C1 1151   1.170   2.779   0.370 -0.2148 -0.1566 -0.3554
   56HFI     C2 1152   1.051   2.864   0.305 -0.3348  0.1367  0.5044
   56HFI     F1 1153   0.928   2.823   0.350 -0.8661  0.1887 -0.2794
   56HFI     F2 1154   1.046   2.853   0.176  0.0965 -0.0729 -0.3320
   56HFI     F3 1155   1.076   2.991   0.332 -0.4304  0.6358 -0.1076
   56HFI     C3 1156   1.178   2.798   0.526  0.1680 -0.7479 -0.2956
   56HFI     F4 1157   1.262   2.711   0.580 -0.3051  0.3989 -0.1283
   56HFI     F5 1158   1.056   2.784   0.589 -0.1230  0.6203 -0.2725
   56HFI     F6 1159   1.220   2.921   0.558 -0.1899 -0.1879 -0.3171
   56HFI     H1 1160   1.361   2.745   0.353  2.0591  2.6515  1.4538
   56HFI     H2 1161   1.148   2.672   0.361 -0.8063 -0.0801  0.1392
   57HFI     O1 1162   1.919   0.929   0.197 -0.1507  0.1174 -0.3116
   57HFI     C1 1163   1.893   0.940   0.342 -0.0507  0.4291 -0.1888
   57HFI     C2 1164   1.967   0.823   0.423  0.0328 -0.8583  0.5324
   57HFI     F1 1165   2.099   0.831   0.430  1.0497 -0.1299 -0.5170
   57HFI     F2 1166   1.946   0.703   0.364  0.1024  0.6573  0.0901
   57HFI     F3 1167   1.914   0.820   0.540  0.1624 -0.0855  0.3718
   57HFI     C3 1168   1.743   0.967   0.381  0.0492 -0.1320 -0.1130
   57HFI     F4 1169   1.675   0.844   0.404 -0.4086 -0.3106 -0.2560
   57HFI     F5 1170   1.681   1.037   0.282  0.2252 -0.2282  0.0308
   57HFI     F6 1171   1.725   1.057   0.487 -0.3620 -0.1305 -0.0482
   57HFI     H1 1172   1.867   0.855   0.161 -2.1844  1.4456 -0.1945
   57HFI     H2 1173   1.947   1.029   0.376 -0.2921  0.6272 -0.3246
   58HFI     O1 1174   0.519   1.818   1.413  0.5287 -0.0732  0.4148
   58HFI     C1 1175   0.498   1.709   1.497 -0.0405  0.0839  0.2370
   58HFI     C2 1176   0.616   1.610   1.504 -0.0748  0.6295  0.3636
   58HFI     F1 1177   0.730   1.670   1.554  0.1793 -0.2889 -0.1479
   58HFI     F2 1178   0.643   1.543   1.389 -0.1071 -0.1096  0.3856
   58HFI     F3 1179   0.579   1.519   1.595  0.2101  0.3820 -0.2979
   58HFI     C3 1180   0.357   1.639   1.472 -0.2392 -0.4928  0.0538
   58HFI     F4 1181   0.355   1.552   1.369  0.9786 -0.4504 -0.3998
   58HFI     F5 1182   0.259   1.736   1.441  0.3256  0.3741  0.2498
   58HFI     F6 1183   0.319   1.575   1.588 -0.0977 -0.0908 -0.4313
   58HFI     H1 1184   0.546   1.776   1.329  0.1553 -0.3262  0.4194
   58HFI     H2 1185   0.493   1.735   1.603  0.4970  0.6978  0.1174
   59HFI     O1 1186   2.229   1.364   1.346  0.3681 -0.5423  0.0639
   59HFI     C1 1187   2.092   1.372   1.399 -0.1500  0.3102  0.5353
   59HFI     C2 1188   1.993   1.433   1.299 -0.2572 -0.6898  0.6353
   59HFI     F1 1189   1.869   1.438   1.346  0.2127  0.1397  0.3090
   59HFI     F2 1190   2.003   1.359   1.183 -0.4195  0.1405  0.3049
   59HFI     F3 1191   2.031   1.554   1.268 -0.2147 -0.3882  0.1338
   59HFI     C3 1192   2.092   1.439   1.539 -0.4039  0.6391  0.2938
   59HFI     F4 1193   2.206   1.389   1.602  0.7466  0.4917  0.0096
   59HFI     F5 1194   1.982   1.403   1.608 -0.4193  0.2688  0.1787
   59HFI     F6 1195   2.085   1.573   1.531  0.8912 -0.1745  0.3700
   59HFI     H1 1196   2.240   1.400   1.256  1.8642  1.0093  0.8335
   59HFI     H2 1197   2.052   1.271   1.414 -1.7108  0.9127  0.5999
   60HFI     O1 1198   3.024   2.506   0.630  0.3767 -0.2342  0.6541
   60HFI     C1 1199   3.110   2.580   0.539  0.4668 -0.0001  0.2750
   60HFI     C2 1200   3.040   2.597   0.398  0.0348  0.3454  0.3990
   60HFI     F1 1201   3.036   2.486   0.320 -0.1746  0.0734 -0.0704
   60HFI     F2 1202   3.113   2.689   0.328 -0.4975  0.7842  0.3059
   60HFI     F3 1203   2.915   2.647   0.411 -0.0610 -0.1554 -0.2132
   60HFI     C3 1204   3.252   2.517   0.528 -0.5023  0.2003 -0.5137
   60HFI     F4 1205   3.338   2.577   0.441 -0.1924  0.1391  0.2905
   60HFI     F5 1206   3.238   2.387   0.498 -0.7726  0.2039  0.0804
   60HFI     F6 1207   3.314   2.520   0.646  0.0058  0.2895 -0.7292
   60HFI     H1 1208   3.006   2.418   0.591  2.2578 -0.5286  0.3885
   60HFI     H2 1209   3.128   2.680   0.580  3.2060 -0.0227 -0.7947
   61HFI     O1 1210   1.656   1.686   0.492 -0.3841 -0.7324  0.3600
   61HFI     C1 1211   1.643   1.546   0.468  0.6717 -0.0274 -0.3131
   61HFI     C2 1212   1.667   1.460   0.599  0.1024 -0.3055 -0.4640
   61HFI     F1 1213   1.784   1.506   0.651  0.1811 -0.0137 -0.1914
   61HFI     F2 1214   1.678   1.328   0.585 -0.1119 -0.4586 -0.6795
   61HFI     F3 1215   1.570   1.485   0.687  0.0269  0.2882 -0.2858
   61HFI     C3 1216   1.734   1.506   0.344  0.5454  0.4185 -0.0256
   61HFI     F4 1217   1.862   1.520   0.376  0.6555  0.3916 -0.0063
   61HFI     F5 1218   1.706   1.583   0.235 -0.2527 -0.2582 -0.1420
   61HFI     F6 1219   1.709   1.377   0.310 -0.5895  0.3830 -0.1442
   61HFI     H1 1220   1.744   1.709   0.528  0.1912 -0.5920 -1.1015
   61HFI     H2 1221   1.543   1.515   0.434  1.0930 -2.0540  0.2030
   62HFI     O1 1222   2.536   2.981   1.310  0.5807  0.4744 -0.1784
   62HFI     C1 1223   2.491   3.116   1.342  0.0167 -0.9499 -0.9256
   62HFI     C2 1224   2.469   3.130   1.492 -0.6351  0.0651 -0.2170
   62HFI     F1 1225   2.563   3.075   1.564  0.0065  0.3542  0.0177
   62HFI     F2 1226   2.361   3.076   1.541 -0.0834 -0.0876  0.1372
   62HFI     F3 1227   2.471   3.262   1.532 -0.1502  0.5088  0.0607
   62HFI     C3 1228   2.375   3.170   1.262  0.6947  0.1459  0.0601
   62HFI     F4 1229   2.263   3.104   1.297 -0.2218 -0.1562 -0.2295
   62HFI     F5 1230   2.398   3.152   1.132 -0.4257  0.0827 -0.4526
   62HFI     F6 1231   2.353   3.305   1.279  0.5705 -0.4604  0.2888
   62HFI     H1 1232   2.583   2.948   1.389  2.0729  0.4477 -1.0631
   62HFI     H2 1233   2.572   3.186   1.315 -1.0334  1.3941  1.7900
   63HFI     O1 1234   1.518   3.146   0.823 -0.1835 -0.4786 -0.0058
   63HFI     C1 1235   1.483   3.179   0.964  0.1489  0.1521 -0.0426
   63HFI     C2 1236   1.569   3.295   1.013  0.2846  0.1491  0.3330
   63HFI     F1 1237   1.576   3.397   0.924  0.5031 -0.8026 -0.2907
   63HFI     F2 1238   1.693   3.249   1.032  0.2288 -0.0124 -0.3259
   63HFI     F3 1239   1.526   3.347   1.125 -0.1610 -0.3175 -0.2256
   63HFI     C3 1240   1.488   3.051   1.055 -0.2775  0.1876  0.9742
   63HFI     F4 1241   1.402   2.961   1.005 -0.0749 -0.0850 -0.7765
   63HFI     F5 1242   1.455   3.075   1.176  0.1081 -0.0656 -0.1905
   63HFI     F6 1243   1.612   2.997   1.056  0.1389  0.2913  0.1364
   63HFI     H1 1244   1.595   3.199   0.795 -1.2402  0.3504 -1.4344
   63HFI     H2 1245   1.378   3.213   0.968  0.4252  0.9711  0.3483
   64HFI     O1 1246   0.324   2.012   1.522  0.5797  0.3603 -0.5758
   64HFI     C1 1247   0.249   2.115   1.457 -0.3774  0.3334  0.1974
   64HFI     C2 1248   0.111   2.064   1.405  0.6398  0.4622 -0.3622
   64HFI     F1 1249   0.128   1.957   1.331  0.0356  0.0425  0.2324
   64HFI     F2 1250   0.046   2.155   1.328  0.1284 -0.7476  0.5143
   64HFI     F3 1251   0.030   2.031   1.507 -0.2615 -0.1406 -0.0260
   64HFI     C3 1252   0.344   2.180   1.354  0.7905  0.0556 -0.7033
   64HFI     F4 1253   0.406   2.091   1.266  0.3004  0.1497  0.1961
   64HFI     F5 1254   0.449   2.237   1.417 -0.3675 -0.6657  0.3828
   64HFI     F6 1255   0.280   2.280   1.272 -0.1215 -0.2590  0.7013
   64HFI     H1 1256   0.403   1.986   1.472  1.1556 -1.0071  1.0109
   64HFI     H2 1257   0.230   2.188   1.537 -0.6464 -0.5157  0.9117
   65HFI     O1 1258   1.124   3.086   1.361 -0.1085  1.0472 -0.0859
   65HFI     C1 1259   0.995   3.064   1.427 -0.7662  0.3464  0.5333
   65HFI     C2 1260   0.930   3.186   1.508 -0.2184  0.0278  0.6938
   65HFI     F1 1261   0.879   3.281   1.420  0.2587  0.7656 -0.1327
   65HFI     F2 1262   1.022   3.258   1.582 -0.1009 -0.2140  0.2212
   65HFI     F3 1263   0.829   3.155   1.592 -0.5824 -0.0472 -0.0280
   65HFI     C3 1264   1.004   2.936   1.518  0.0965 -0.0323  0.9620
   65HFI     F4 1265   1.084   2.954   1.627  0.1426 -0.4670  0.0549
   65HFI     F5 1266   1.049   2.819   1.458 -0.2757  0.1145  0.2749
   65HFI     F6 1267   0.880   2.900   1.563 -0.2396  0.1396 -0.2973
   65HFI     H1 1268   1.163   3.170   1.390  1.6580  0.2552 -0.0598
   65HFI     H2 1269   0.917   3.044   1.353 -0.9781  0.2004  0.7937
   66HFI     O1 1270   1.717   0.526   0.428 -0.1796 -0.4105 -0.6155
   66HFI     C1 1271   1.596   0.440   0.430 -0.0452  0.3564  0.3188
   66HFI     C2 1272   1.598   0.325   0.328 -0.1601  0.4567  0.1717
   66HFI     F1 1273   1.604   0.370   0.199 -0.2320 -0.2304 -1.0626
   66HFI     F2 1274   1.494   0.236   0.336  0.2041  0.7504 -0.0890
   66HFI     F3 1275   1.696   0.241   0.356  0.3680 -0.0236  0.1532
   66HFI     C3 1276   1.472   0.525   0.416  0.5448 -0.1490  0.2790
   66HFI     F4 1277   1.459   0.562   0.289 -0.2639  0.5213 -0.7394
   66HFI     F5 1278   1.494   0.640   0.491 -0.1272 -0.5082 -0.5094
   66HFI     F6 1279   1.359   0.461   0.464  0.3831  0.3690 -0.0990
   66HFI     H1 1280   1.786   0.466   0.462  0.5094  0.7216 -0.0098
   66HFI     H2 1281   1.573   0.396   0.528  0.7933  1.9711  1.2759
   67HFI     O1 1282   0.699   2.546   3.338 -0.0212 -0.2290  0.4778
   67HFI     C1 1283   0.565   2.566   3.285 -0.1512  0.0877  0.3338
   67HFI     C2 1284   0.455   2.627   3.379 -0.1747  0.6231 -0.2664
   67HFI     F1 1285   0.507   2.719   3.459 -0.0240 -0.3980 -0.1861
   67HFI     F2 1286   0.409   2.535   3.463  0.1644  0.0368 -0.2607
   67HFI     F3 1287   0.364   2.684   3.307  0.4107  0.2844 -0.5099
   67HFI     C3 1288   0.518   2.435   3.216  0.3209 -0.0538  0.1394
   67HFI     F4 1289   0.425   2.472   3.126 -0.5603 -0.4453 -0.1012
   67HFI     F5 1290   0.467   2.345   3.301 -0.5094  0.4726  0.2493
   67HFI     F6 1291   0.617   2.377   3.144 -0.0850 -0.0138  0.2580
   67HFI     H1 1292   0.751   2.492   3.276 -2.1444 -0.1681 -1.4241
   67HFI     H2 1293   0.579   2.639   3.204 -1.2847  0.6971  0.6793
   68HFI     O1 1294   2.641   1.811   3.660 -0.2532  0.0022 -0.4008
   68HFI     C1 1295   2.717   1.752   3.764 -0.3503  0.7563 -1.4591
   68HFI     C2 1296   2.833   1.672   3.702 -0.9372 -0.5429  0.4408
   68HFI     F1 1297   2.922   1.759   3.643  0.3487  0.1059 -0.2685
   68HFI     F2 1298   2.793   1.581   3.607 -0.1052 -0.2543  0.2820
   68HFI     F3 1299   2.900   1.613   3.802 -0.0473  0.8693 -0.3733
   68HFI     C3 1300   2.626   1.652   3.845  0.0925  0.2427  0.7433
   68HFI     F4 1301   2.598   1.539   3.783  0.5994 -0.1326  0.1153
   68HFI     F5 1302   2.509   1.716   3.870 -0.3848  0.5421  0.4037
   68HFI     F6 1303   2.680   1.629   3.975  0.0884 -0.5943 -0.0371
   68HFI     H1 1304   2.567   1.863   3.696 -0.6961 -0.1036 -1.1482
   68HFI     H2 1305   2.754   1.833   3.829  1.2575 -2.3026  1.6161
   69HFI     O1 1306   2.636   0.240   0.850  0.9371  0.1720  0.3144
   69HFI     C1 1307   2.580   0.121   0.911 -0.0093  0.2518  0.0783
   69HFI     C2 1308   2.642   0.088   1.050  0.1916 -0.3589  0.2133
   69HFI     F1 1309   2.607  -0.032   1.091  0.0633 -0.0570 -0.0323
   69HFI     F2 1310   2.605   0.185   1.140 -0.2377  0.2681  0.1694
   69HFI     F3 1311   2.781   0.088   1.041  0.1860  0.0404  0.5872
   69HFI     C3 1312   2.585   0.002   0.808 -0.2658 -0.3372 -0.0632
   69HFI     F4 1313   2.572   0.043   0.682  0.1692  0.6261 -0.3557
   69HFI     F5 1314   2.482  -0.088   0.833 -0.3377 -0.2396  0.4524
   69HFI     F6 1315   2.700  -0.068   0.809 -0.2141 -0.4186  0.4937
   69HFI     H1 1316   2.730   0.219   0.836  1.1126  0.9196  0.3555
   69HFI     H2 1317   2.471   0.127   0.922 -0.1167 -2.4974  0.8812
   70HFI     O1 1318   2.212   0.122   1.567 -0.4362 -0.1757  0.7921
   70HFI     C1 1319   2.210   0.252   1.506  0.4109  0.6164 -0.7991
   70HFI     C2 1320   2.108   0.270   1.381  0.4503 -0.5878 -0.4263
   70HFI     F1 1321   2.079   0.399   1.355 -0.2696 -0.0903  0.1640
   70HFI     F2 1322   1.998   0.203   1.405  0.4322  0.5371 -0.3038
   70HFI     F3 1323   2.168   0.220   1.273  0.0313  0.1718  0.2211
   70HFI     C3 1324   2.352   0.287   1.457  0.2968  0.4659 -0.1637
   70HFI     F4 1325   2.359   0.407   1.393  0.7346 -0.0983 -0.1061
   70HFI     F5 1326   2.408   0.188   1.372 -0.6536 -0.2442  0.4043
   70HFI     F6 1327   2.435   0.293   1.572 -0.6906 -0.0543  0.0575
   70HFI     H1 1328   2.253   0.066   1.499  2.2249  0.6599  1.6311
   70HFI     H2 1329   2.177   0.323   1.584  0.7843  0.1824 -0.2440
   71HFI     O1 1330   3.358   2.332   1.123  0.1301  0.5531 -0.0766
   71HFI     C1 1331   3.224   2.385   1.133 -0.0611 -0.0985 -0.6125
   71HFI     C2 1332   3.119   2.304   1.208  0.4931 -1.2158  0.3538
   71HFI     F1 1333   3.168   2.254   1.321 -0.0658 -0.4079  0.3595
   71HFI     F2 1334   3.081   2.208   1.132  0.0012 -0.1266  0.1836
   71HFI     F3 1335   3.010   2.378   1.240 -0.4827  0.2482  0.2629
   71HFI     C3 1336   3.175   2.438   0.993  0.5303  0.7183 -0.1632
   71HFI     F4 1337   3.186   2.349   0.890 -0.0604 -0.0688 -0.2833
   71HFI     F5 1338   3.261   2.539   0.967 -0.7826  0.2141 -0.2997
   71HFI     F6 1339   3.043   2.481   0.981  0.4579 -0.2869 -0.0243
   71HFI     H1 1340   3.400   2.310   1.208 -1.0528 -2.4115 -0.1823
   71HFI     H2 1341   3.235   2.473   1.197  0.8393 -1.7240  1.5591
   72HFI     O1 1342   1.660   1.839   0.018 -0.0106 -0.3326 -0.0331
   72HFI     C1 1343   1.521   1.880   0.019 -0.7578  0.3051  0.3149
   72HFI     C2 1344   1.472   1.885  -0.135  0.8088 -0.5408 -0.1724
   72HFI     F1 1345   1.494   1.776  -0.205 -0.4396 -0.2638 -0.0300
   72HFI     F2 1346   1.535   1.987  -0.204 -0.3112  0.1771  0.2164
   72HFI     F3 1347   1.339   1.919  -0.142 -0.2858 -0.0983  0.1274
   72HFI     C3 1348   1.509   2.004   0.105  0.2767  0.4970 -0.6519
   72HFI     F4 1349   1.613   2.086   0.084 -0.6715  0.0625  0.2172
   72HFI     F5 1350   1.510   1.975   0.233 -0.6750  0.1336 -0.3153
   72HFI     F6 1351   1.399   2.077   0.083  0.3864  0.1719 -0.7207
   72HFI     H1 1352   1.659   1.743   0.005  1.1742 -0.3600 -0.0037
   72HFI     H2 1353   1.461   1.802   0.066  0.0064 -0.3941  0.1399
   73HFI     O1 1354   2.201   0.480   0.822  0.1282  0.3701 -0.1971
   73HFI     C1 1355   2.298   0.548   0.912  0.2204 -0.6612  0.0228
   73HFI     C2 1356   2.307   0.493   1.064 -0.7704 -0.4690 -0.2216
   73HFI     F1 1357   2.348   0.362   1.058 -0.2765 -0.0114  0.9086
   73HFI     F2 1358   2.200   0.507   1.131  0.4426 -0.3941  0.5075
   73HFI     F3 1359   2.400   0.564   1.133 -0.4785  0.1862  0.4807
   73HFI     C3 1360   2.291   0.700   0.919  0.3062 -0.3735  0.3375
   73HFI     F4 1361   2.259   0.747   0.795 -0.0524  0.6184  0.2748
   73HFI     F5 1362   2.407   0.750   0.951  0.3921  0.0539  0.4101
   73HFI     F6 1363   2.206   0.746   1.014  0.0966  0.1678 -0.2929
   73HFI     H1 1364   2.138   0.545   0.788 -0.8703 -0.0529  0.7989
   73HFI     H2 1365   2.398   0.528   0.871 -0.0787  0.0588 -1.0461
   74HFI     O1 1366   2.991   2.803   1.279  0.1650  0.0867  0.2389
   74HFI     C1 1367   3.056   2.927   1.243  0.0420  0.1065  0.2082
   74HFI     C2 1368   2.964   3.051   1.300  0.4958 -0.6798  0.0396
   74HFI     F1 1369   2.962   3.164   1.224  0.0960  0.0221  0.2036
   74HFI     F2 1370   3.005   3.098   1.418 -0.0606  0.0563 -0.0799
   74HFI     F3 1371   2.838   3.016   1.324  0.1056 -0.1982 -0.7606
   74HFI     C3 1372   3.086   2.951   1.088  0.0933 -0.6343 -0.7628
   74HFI     F4 1373   2.985   3.002   1.013  0.1449  0.0532  0.3069
   74HFI     F5 1374   3.133   2.841   1.021 -0.0386 -0.5987  0.0863
   74HFI     F6 1375   3.184   3.044   1.085  0.0833 -0.0096  0.2255
   74HFI     H1 1376   2.923   2.790   1.211 -1.7499  0.9468  1.9270
   74HFI     H2 1377   3.155   2.929   1.290  0.8529 -2.7853 -1.2534
   75HFI     O1 1378   3.342   0.323   1.446  0.8404 -0.1667 -0.3497
   75HFI     C1 1379   3.381   0.446   1.510  0.2384 -0.6319 -0.3909
   75HFI     C2 1380   3.270   0.556   1.512 -0.3749  0.4931  0.2731
   75HFI     F1 1381   3.182   0.512   1.599 -0.5692  0.3312  0.5054
   75HFI     F2 1382   3.216   0.568   1.390  0.1342  0.0169 -0.2335
   75HFI     F3 1383   3.318   0.679   1.560  0.4264  0.7393  0.2033
   75HFI     C3 1384   3.514   0.506   1.454  0.4346  0.0960  0.1690
   75HFI     F4 1385   3.500   0.547   1.331 -0.8339 -0.4552  0.1132
   75HFI     F5 1386   3.612   0.410   1.463 -0.3473  0.1621 -0.7100
   75HFI     F6 1387   3.560   0.607   1.527 -0.2769  0.7875 -0.1970
   75HFI     H1 1388   3.283   0.335   1.370  2.1556 -0.6981 -1.4642
   75HFI     H2 1389   3.409   0.421   1.613 -0.9189  1.5118  0.4782
   76HFI     O1 1390   0.903   1.148   0.589  0.4346  0.1024  0.6976
   76HFI     C1 1391   0.816   1.041   0.624 -0.5622  0.4189  0.5663
   76HFI     C2 1392   0.724   0.994   0.501  0.5771 -0.6149  0.0725
   76HFI     F1 1393   0.619   1.074   0.490  0.1184 -0.3374 -0.2758
   76HFI     F2 1394   0.672   0.866   0.507  0.0698  0.0862  0.0776
   76HFI     F3 1395   0.794   1.004   0.390  0.2930  0.2218  0.1227
   76HFI     C3 1396   0.736   1.071   0.748 -0.1897 -0.2759 -0.5335
   76HFI     F4 1397   0.672   1.189   0.743 -0.0563  0.5626  0.2386
   76HFI     F5 1398   0.823   1.068   0.855 -0.1089 -0.0635  0.1373
   76HFI     F6 1399   0.630   0.990   0.779 -0.2307 -0.7060 -0.8404
   76HFI     H1 1400   0.877   1.231   0.631  1.0475  0.1047  1.0794
   76HFI     H2 1401   0.873   0.952   0.653 -2.1982 -0.9001 -0.1959
   77HFI     O1 1402   2.508   2.006   0.026  0.1248 -0.3014 -0.2159
   77HFI     C1 1403   2.513   2.137   0.087  0.6300  0.0310  0.7325
   77HFI     C2 1404   2.545   2.143   0.241  0.1172  0.0281 -0.4054
   77HFI     F1 1405   2.599   2.267   0.271 -0.1084  0.3136  0.3130
   77HFI     F2 1406   2.633   2.043   0.275 -0.3283 -0.2779 -0.6206
   77HFI     F3 1407   2.435   2.117   0.323  0.1108  0.5209 -0.0220
   77HFI     C3 1408   2.383   2.219   0.049  0.1702 -0.6260  0.9454
   77HFI     F4 1409   2.379   2.341   0.108 -0.3760  0.0348  0.4726
   77HFI     F5 1410   2.265   2.145   0.063 -0.5851 -0.0777  0.3831
   77HFI     F6 1411   2.391   2.248  -0.087 -0.4113 -0.3290 -0.4488
   77HFI     H1 1412   2.431   1.963   0.066  0.9779 -0.6056  1.1755
   77HFI     H2 1413   2.603   2.186   0.047  0.3872 -1.8114 -2.1582
   78HFI     O1 1414   0.008   1.498   3.655  0.0721  0.1362  1.0822
   78HFI     C1 1415   0.070   1.587   3.563  0.0456 -0.2498 -0.0020
   78HFI     C2 1416   0.215   1.544   3.536 -0.7679 -0.7651 -0.5848
   78HFI     F1 1417   0.216   1.418   3.494 -0.0969 -0.2089 -0.1861
   78HFI     F2 1418   0.285   1.543   3.651  0.2023  0.6838 -0.3713
   78HFI     F3 1419   0.281   1.620   3.445 -0.8354 -0.4797  0.0005
   78HFI     C3 1420   0.045   1.736   3.602  0.0431  0.0652 -0.3766
   78HFI     F4 1421   0.112   1.773   3.710  0.0878 -0.6134  0.4296
   78HFI     F5 1422  -0.077   1.757   3.635  0.0232 -0.5150 -0.0536
   78HFI     F6 1423   0.067   1.822   3.502 -0.4784 -0.5469  0.4128
   78HFI     H1 1424  -0.087   1.521   3.655 -1.0231 -3.9509  0.9415
   78HFI     H2 1425   0.021   1.581   3.465 -0.3864 -3.0933  0.3468
   79HFI     O1 1426   0.809   0.366   0.827 -0.1920 -0.4051  0.4508
   79HFI     C1 1427   0.892   0.476   0.771 -1.1266  0.1355  0.3286
   79HFI     C2 1428   1.043   0.468   0.815  0.2741  0.3057 -0.5905
   79HFI     F1 1429   1.122   0.548   0.745  0.2481  0.1759  0.4360
   79HFI     F2 1430   1.092   0.344   0.790 -0.2394  0.1266  0.7128
   79HFI     F3 1431   1.056   0.502   0.950  0.3116 -0.2830  0.8023
   79HFI     C3 1432   0.837   0.625   0.794 -0.4113  0.0650 -0.1898
   79HFI     F4 1433   0.918   0.712   0.729  0.0065  0.1799  0.0612
   79HFI     F5 1434   0.838   0.665   0.924  0.2066  0.1993  0.3441
   79HFI     F6 1435   0.709   0.638   0.758 -0.1265  0.1986  0.0774
   79HFI     H1 1436   0.765   0.411   0.901 -0.6606 -0.8861  0.4602
   79HFI     H2 1437   0.908   0.458   0.664 -0.7109 -2.6553  0.8251
   80HFI     O1 1438   1.284   2.534   3.389 -0.1017 -0.9554  0.0815
   80HFI     C1 1439   1.327   2.423   3.464 -0.4996 -0.0568 -0.0645
   80HFI     C2 1440   1.302   2.429   3.618 -0.9539  0.2914  0.5427
   80HFI     F1 1441   1.371   2.528   3.681 -0.1113  0.3892 -0.3627
   80HFI     F2 1442   1.338   2.310   3.676 -0.0355 -0.1321  0.1844
   80HFI     F3 1443   1.175   2.443   3.650  0.6389 -0.3421  0.2408
   80HFI     C3 1444   1.467   2.358   3.420  0.1167  0.4310  0.1525
   80HFI     F4 1445   1.554   2.337   3.526  0.3124 -0.1131  0.1276
   80HFI     F5 1446   1.534   2.447   3.339  0.4184  0.6607  0.0855
   80HFI     F6 1447   1.459   2.241   3.363 -0.8636  0.5292 -0.0946
   80HFI     H1 1448   1.294   2.525   3.293 -1.7600  0.8656 -0.3010
   80HFI     H2 1449   1.263   2.336   3.444 -1.6378  0.7406  0.0470
   81HFI     O1 1450   1.863   2.906   0.460 -0.4968 -0.2389 -0.1859
   81HFI     C1 1451   1.797   2.808   0.540 -0.1923  0.5172 -0.1691
   81HFI     C2 1452   1.886   2.675   0.547 -0.0015  0.4099 -0.5290
   81HFI     F1 1453   1.821   2.578   0.615  0.2008  0.1677  0.5657
   81HFI     F2 1454   2.006   2.700   0.615 -0.0387 -0.1055  0.1641
   81HFI     F3 1455   1.912   2.631   0.416  0.0849 -0.2107 -0.5549
   81HFI     C3 1456   1.649   2.785   0.494 -0.0554 -0.2562 -0.0225
   81HFI     F4 1457   1.650   2.714   0.379  0.3881  0.6636  0.0902
   81HFI     F5 1458   1.595   2.907   0.471 -0.3811  0.3459  0.3248
   81HFI     F6 1459   1.572   2.717   0.582 -0.4056  0.1049  0.3673
   81HFI     H1 1460   1.914   2.855   0.394  0.9546  1.2256 -0.2191
   81HFI     H2 1461   1.785   2.832   0.646 -0.1941 -2.6496  0.5808
   82HFI     O1 1462   2.878   0.506   1.335 -0.7235  0.0461  0.4292
   82HFI     C1 1463   2.820   0.612   1.411  0.3782  0.1019  0.1705
   82HFI     C2 1464   2.723   0.551   1.524  0.5295 -0.3845  0.3339
   82HFI     F1 1465   2.685   0.649   1.603 -0.1762 -0.2909 -0.0071
   82HFI     F2 1466   2.779   0.458   1.599  0.4925 -0.8605  0.2080
   82HFI     F3 1467   2.615   0.494   1.467 -0.1923 -0.1984  0.0884
   82HFI     C3 1468   2.752   0.714   1.313  0.5174 -0.4068  0.3844
   82HFI     F4 1469   2.697   0.823   1.370 -0.1595 -0.3244 -0.1351
   82HFI     F5 1470   2.649   0.656   1.234  0.0502  0.2573  0.1162
   82HFI     F6 1471   2.837   0.764   1.228  0.6358  0.1186  0.1611
   82HFI     H1 1472   2.825   0.425   1.344 -1.8482  0.7829  0.4960
   82HFI     H2 1473   2.903   0.662   1.462  0.2950 -0.5834  0.9857
   83HFI     O1 1474   0.608   1.973   1.089 -0.2232 -0.2500  0.1832
   83HFI     C1 1475   0.743   1.970   1.147  0.5053  0.3400 -0.0527
   83HFI     C2 1476   0.822   2.070   1.079  0.0391  0.2480 -0.1488
   83HFI     F1 1477   0.777   2.193   1.105  0.2171 -0.3090  0.6844
   83HFI     F2 1478   0.823   2.064   0.945 -0.3981  0.0027 -0.3796
   83HFI     F3 1479   0.949   2.073   1.117  0.0440  0.0292  0.1987
   83HFI     C3 1480   0.785   1.823   1.149 -0.1701 -1.1363 -0.2174
   83HFI     F4 1481   0.695   1.750   1.210 -0.3842 -0.5464  0.2625
   83HFI     F5 1482   0.901   1.820   1.218 -0.0496 -0.1388  0.3026
   83HFI     F6 1483   0.801   1.779   1.025 -0.5651  0.8395  0.0155
   83HFI     H1 1484   0.607   2.009   0.998  1.3221  0.3861  0.4012
   83HFI     H2 1485   0.737   1.999   1.252 -0.9883 -0.4833  0.1052
   84HFI     O1 1486   0.855   0.143   0.096  0.0508 -0.1657 -0.1039
   84HFI     C1 1487   0.817   0.214  -0.029 -0.0737 -0.2294  0.7146
   84HFI     C2 1488   0.946   0.252  -0.109  0.0941  0.0720 -0.8482
   84HFI     F1 1489   1.007   0.347  -0.045 -0.7877  0.2105 -0.0250
   84HFI     F2 1490   0.921   0.295  -0.234  0.2037 -0.4784 -0.0650
   84HFI     F3 1491   1.030   0.147  -0.115 -0.1742 -0.3135  0.2917
   84HFI     C3 1492   0.722   0.335   0.002 -0.3200 -0.4693 -0.4536
   84HFI     F4 1493   0.765   0.406   0.111 -0.0777  0.5092 -0.8882
   84HFI     F5 1494   0.603   0.288   0.035  0.1141  0.2176  0.0771
   84HFI     F6 1495   0.704   0.419  -0.106 -0.0850  0.3306  0.5555
   84HFI     H1 1496   0.925   0.198   0.135  0.4971  1.3205 -2.8946
   84HFI     H2 1497   0.751   0.156  -0.094  2.9476 -0.8349 -1.9074
   85HFI     O1 1498   1.870   3.245   1.292  0.2745  0.2920  0.1838
   85HFI     C1 1499   1.918   3.150   1.403  0.4025 -0.0815 -0.5408
   85HFI     C2 1500   1.793   3.060   1.460  0.2254  0.1116  0.1751
   85HFI     F1 1501   1.759   2.969   1.371  0.1545 -0.2547  0.5714
   85HFI     F2 1502   1.687   3.141   1.486 -0.9712 -0.5103  0.3133
   85HFI     F3 1503   1.816   2.997   1.579 -0.1118 -0.2399 -0.2513
   85HFI     C3 1504   1.994   3.227   1.512  0.8654  0.1033 -0.0034
   85HFI     F4 1505   1.904   3.317   1.559 -0.4148 -0.6937  0.8587
   85HFI     F5 1506   2.104   3.294   1.459  0.2216 -0.2827  0.4641
   85HFI     F6 1507   2.048   3.148   1.607  0.5489 -0.6733 -0.4410
   85HFI     H1 1508   1.825   3.324   1.326  0.8109  1.2107 -1.1889
   85HFI     H2 1509   1.995   3.081   1.366  0.7499 -1.2860  2.3579
   86HFI     O1 1510   1.429   2.578   1.401 -0.2511  0.0321  0.3594
   86HFI     C1 1511   1.496   2.650   1.501 -0.8601 -0.5473 -0.8519
   86HFI     C2 1512   1.436   2.798   1.512  0.0852 -0.1196  0.4595
   86HFI     F1 1513   1.308   2.784   1.543  0.2365 -0.0242 -0.2145
   86HFI     F2 1514   1.447   2.856   1.396  0.3512 -0.3693  0.0984
   86HFI     F3 1515   1.502   2.874   1.602  0.5528  0.3372  0.1454
   86HFI     C3 1516   1.653   2.651   1.478  0.0054 -0.4463 -0.0315
   86HFI     F4 1517   1.688   2.692   1.352 -0.4634  0.0828 -0.4521
   86HFI     F5 1518   1.709   2.524   1.493  0.3873 -0.3237 -0.0229
   86HFI     F6 1519   1.719   2.737   1.559 -0.8999 -0.3233  0.5407
   86HFI     H1 1520   1.434   2.628   1.318  0.3936 -0.3129  0.1844
   86HFI     H2 1521   1.484   2.597   1.596 -0.4074 -0.5412 -0.7889
   87HFI     O1 1522   2.296   3.182   0.628 -0.1134 -0.6146 -0.0466
   87HFI     C1 1523   2.382   3.066   0.634  0.1393  0.0777  0.2006
   87HFI     C2 1524   2.484   3.058   0.516  0.1687  0.5213 -0.7000
   87HFI     F1 1525   2.422   3.030   0.398  0.0375 -0.0792 -0.5235
   87HFI     F2 1526   2.562   2.952   0.541 -0.2355  0.2162  0.2062
   87HFI     F3 1527   2.550   3.171   0.500 -0.0753  0.0132 -0.0193
   87HFI     C3 1528   2.287   2.944   0.650 -0.0242  0.0532 -0.1178
   87HFI     F4 1529   2.207   2.923   0.542  0.1286 -0.1868  0.4854
   87HFI     F5 1530   2.201   2.967   0.754 -0.1886  0.5116 -0.5826
   87HFI     F6 1531   2.365   2.827   0.672 -0.1252 -0.5282  0.1389
   87HFI     H1 1532   2.279   3.227   0.713 -1.8109  1.1894 -1.2890
   87HFI     H2 1533   2.432   3.061   0.731  3.1765 -0.4904 -1.3304
   88HFI     O1 1534   0.503   2.407   0.867 -0.4090 -0.0130  0.6145
   88HFI     C1 1535   0.606   2.461   0.953  0.0681  0.3914  0.4222
   88HFI     C2 1536   0.547   2.523   1.080 -0.7397  0.6221 -0.1184
   88HFI     F1 1537   0.475   2.431   1.158 -0.2602 -0.1472  0.0680
   88HFI     F2 1538   0.455   2.623   1.050  0.3588 -0.8642  0.2463
   88HFI     F3 1539   0.640   2.575   1.160  0.1527 -0.1770 -0.4240
   88HFI     C3 1540   0.719   2.545   0.883 -0.1833 -0.1833 -0.2636
   88HFI     F4 1541   0.776   2.473   0.789  0.3476 -0.3484 -0.0340
   88HFI     F5 1542   0.817   2.582   0.966 -0.0509 -0.0039  0.2623
   88HFI     F6 1543   0.668   2.652   0.828 -0.1210 -0.1387 -0.2242
   88HFI     H1 1544   0.423   2.389   0.918 -0.7877  2.2464  0.8349
   88HFI     H2 1545   0.666   2.378   0.991  0.2499 -0.0686 -0.8665
   89HFI     O1 1546   1.758   1.685   0.885 -0.5586 -0.3494  0.2226
   89HFI     C1 1547   1.672   1.731   0.992  0.3960  0.0144  0.6645
   89HFI     C2 1548   1.623   1.613   1.084 -1.1651 -0.1021 -0.3423
   89HFI     F1 1549   1.512   1.556   1.029  0.6764 -0.1573  0.3522
   89HFI     F2 1550   1.590   1.649   1.207  0.1637  0.0782 -0.0635
   89HFI     F3 1551   1.721   1.522   1.091 -0.6705 -0.0093 -0.4556
   89HFI     C3 1552   1.549   1.817   0.938 -0.8341  0.0118 -0.3776
   89HFI     F4 1553   1.605   1.939   0.892 -0.2159  0.2524  0.5708
   89HFI     F5 1554   1.470   1.853   1.046 -0.4667 -0.1949 -0.2145
   89HFI     F6 1555   1.480   1.749   0.844  0.0987  0.1179 -0.1717
   89HFI     H1 1556   1.792   1.599   0.915 -1.2877 -0.8474 -0.3611
   89HFI     H2 1557   1.729   1.808   1.046  0.8112  0.6190 -0.6300
   90HFI     O1 1558   1.653   2.302   0.835 -0.3707 -0.5284  0.2779
   90HFI     C1 1559   1.673   2.359   0.971 -0.4442  0.5493  0.3179
   90HFI     C2 1560   1.732   2.245   1.061 -0.7319 -0.9223  0.0451
   90HFI     F1 1561   1.785   2.292   1.178 -0.3037  0.0821 -0.1705
   90HFI     F2 1562   1.829   2.179   0.990 -0.1202 -0.4583 -0.0044
   90HFI     F3 1563   1.639   2.158   1.093  0.3413  0.0716 -0.0345
   90HFI     C3 1564   1.541   2.422   1.023  0.1280 -0.8705  1.0739
   90HFI     F4 1565   1.553   2.472   1.153  0.0172  0.3112  0.2806
   90HFI     F5 1566   1.435   2.345   1.034 -0.2555 -0.1149 -0.4737
   90HFI     F6 1567   1.504   2.530   0.943  1.0291 -0.2648 -0.0570
   90HFI     H1 1568   1.568   2.255   0.827  0.0866 -0.9655 -2.6402
   90HFI     H2 1569   1.759   2.428   0.971 -0.4747  0.6045 -0.6675
   91HFI     O1 1570   1.986   1.948   1.029 -0.5316 -0.3836 -0.0222
   91HFI     C1 1571   2.115   1.913   0.962  0.5802 -0.1716 -0.3823
   91HFI     C2 1572   2.160   1.770   0.996 -0.1008 -0.0286  0.0132
   91HFI     F1 1573   2.183   1.753   1.133  0.5172 -0.3887 -0.4508
   91HFI     F2 1574   2.276   1.748   0.932  0.2836 -0.0872  0.6211
   91HFI     F3 1575   2.076   1.675   0.956 -0.1956  0.3261  0.3182
   91HFI     C3 1576   2.216   2.029   0.991 -0.3526  0.4664  0.1685
   91HFI     F4 1577   2.318   2.024   0.913 -0.6491  0.0616 -0.1369
   91HFI     F5 1578   2.259   2.021   1.120 -0.4438 -0.0547 -0.0951
   91HFI     F6 1579   2.158   2.149   0.973  0.1009  0.4908  1.0388
   91HFI     H1 1580   1.994   2.037   1.067 -1.7292 -0.4344  0.3612
   91HFI     H2 1581   2.095   1.917   0.854 -1.2120 -0.8649 -0.0985
   92HFI     O1 1582   0.179   0.712   0.802  0.3522  0.4762  0.0811
   92HFI     C1 1583   0.223   0.693   0.939  0.3753 -0.2815  0.1249
   92HFI     C2 1584   0.307   0.818   0.992  0.1669  0.2157  1.0446
   92HFI     F1 1585   0.404   0.860   0.897 -0.1321  0.4096  0.2689
   92HFI     F2 1586   0.379   0.788   1.105 -0.0846 -0.2978 -0.2155
   92HFI     F3 1587   0.235   0.927   1.026 -0.6023 -0.1261  0.4494
   92HFI     C3 1588   0.298   0.556   0.952 -0.6141  0.3933  0.3107
   92HFI     F4 1589   0.428   0.562   0.912  0.4531 -0.0258 -0.0991
   92HFI     F5 1590   0.233   0.458   0.886 -0.4841 -0.9462 -0.2413
   92HFI     F6 1591   0.300   0.520   1.075  0.0823  0.1207  0.8216
   92HFI     H1 1592   0.197   0.631   0.750 -0.7288  0.8527 -0.9051
   92HFI     H2 1593   0.141   0.682   1.011 -0.5795 -1.9794 -1.1879
   93HFI     O1 1594   2.050   2.096   0.638  0.1231 -0.5204 -0.3516
   93HFI     C1 1595   1.906   2.125   0.622  0.2362 -0.1327 -0.2485
   93HFI     C2 1596   1.825   1.992   0.609  0.6890 -0.2978  0.0641
   93HFI     F1 1597   1.856   1.945   0.481  0.6826 -0.0302 -0.1326
   93HFI     F2 1598   1.692   2.016   0.613 -0.1207  0.2586  0.0574
   93HFI     F3 1599   1.851   1.891   0.696 -0.2066 -0.5172 -0.1062
   93HFI     C3 1600   1.881   2.254   0.528  0.1600 -0.0556 -0.3322
   93HFI     F4 1601   1.904   2.229   0.394  0.0561  0.3428 -0.2996
   93HFI     F5 1602   1.967   2.350   0.575  0.0650 -0.5805  0.4174
   93HFI     F6 1603   1.749   2.298   0.544  0.6119 -0.0149  0.5691
   93HFI     H1 1604   2.100   2.179   0.636 -3.1874  1.5594 -1.5701
   93HFI     H2 1605   1.870   2.162   0.719 -3.5565 -1.2270 -1.1537
   94HFI     O1 1606   1.575   0.587   1.066 -0.0623 -0.1475 -0.2243
   94HFI     C1 1607   1.602   0.478   0.969  0.2093  0.0534  0.3051
   94HFI     C2 1608   1.648   0.543   0.834 -0.4597 -0.4346 -0.3390
   94HFI     F1 1609   1.743   0.636   0.854  0.3053 -0.1717  0.3531
   94HFI     F2 1610   1.543   0.598   0.766 -0.0446  0.1355  0.4720
   94HFI     F3 1611   1.699   0.450   0.754 -0.1786  0.2013 -0.0960
   94HFI     C3 1612   1.483   0.371   0.955  0.2428  1.1092  0.2453
   94HFI     F4 1613   1.452   0.323   1.080  0.3624 -0.0625  0.4961
   94HFI     F5 1614   1.520   0.274   0.874  0.0156 -0.2631  0.2493
   94HFI     F6 1615   1.366   0.430   0.909 -0.6384  0.2642  0.3457
   94HFI     H1 1616   1.494   0.638   1.049  1.5281  2.8661  0.8811
   94HFI     H2 1617   1.687   0.416   0.999  0.8889  0.2340 -1.1736
   95HFI     O1 1618   1.330   2.730   1.162  0.4828 -0.1110 -0.2593
   95HFI     C1 1619   1.189   2.700   1.183  0.0959  0.3081 -0.1947
   95HFI     C2 1620   1.166   2.555   1.150 -0.2856 -1.0890 -0.7811
   95HFI     F1 1621   1.239   2.471   1.225  0.4180 -0.0829 -0.0416
   95HFI     F2 1622   1.193   2.529   1.021  0.0167 -0.3932 -0.3955
   95HFI     F3 1623   1.035   2.529   1.173  0.5894 -0.2726 -0.8474
   95HFI     C3 1624   1.102   2.801   1.097  0.0793 -0.0743 -0.0543
   95HFI     F4 1625   1.108   2.779   0.965 -0.0579  0.7494  0.2190
   95HFI     F5 1626   1.151   2.925   1.123  0.2156  0.3276  0.1676
   95HFI     F6 1627   0.975   2.796   1.140  0.1891 -0.2782  0.4515
   95HFI     H1 1628   1.345   2.822   1.135  0.0787  0.2741  0.7960
   95HFI     H2 1629   1.171   2.705   1.291  0.6305  1.2252 -0.1367
   96HFI     O1 1630   1.098   1.352   0.273 -0.2629  0.0299 -0.1858
   96HFI     C1 1631   1.154   1.252   0.368  0.0216 -0.2861  0.0445
   96HFI     C2 1632   1.187   1.333   0.494  0.0372  0.5817 -0.1345
   96HFI     F1 1633   1.290   1.414   0.467  0.0172  0.1212 -0.1954
   96HFI     F2 1634   1.235   1.249   0.590 -0.0716 -0.0493  0.4299
   96HFI     F3 1635   1.081   1.401   0.540 -0.0360 -0.4836  0.8558
   96HFI     C3 1636   1.278   1.168   0.313 -0.6546 -0.2992 -0.3266
   96HFI     F4 1637   1.362   1.258   0.257 -0.0306 -0.0342  0.2530
   96HFI     F5 1638   1.233   1.095   0.213 -0.1796 -0.2894 -0.3305
   96HFI     F6 1639   1.336   1.084   0.400  0.0092 -0.0999 -0.0830
   96HFI     H1 1640   1.103   1.299   0.192  1.5555  0.0064 -0.0756
   96HFI     H2 1641   1.078   1.180   0.400  0.2779 -1.3472 -1.6227
   97HFI     O1 1642   0.717   0.667   1.513 -0.2600 -0.7999  0.3732
   97HFI     C1 1643   0.634   0.589   1.418  0.0729 -0.1377 -0.3302
   97HFI     C2 1644   0.700   0.591   1.277 -0.0924 -1.1959 -0.0026
   97HFI     F1 1645   0.704   0.713   1.226  0.2333 -0.2857  0.4059
   97HFI     F2 1646   0.633   0.511   1.179 -0.2523 -0.4533  0.3130
   97HFI     F3 1647   0.827   0.549   1.286  0.1215  0.5583  0.2371
   97HFI     C3 1648   0.491   0.645   1.419  0.0899 -0.4878  0.0149
   97HFI     F4 1649   0.408   0.586   1.325  0.1445  0.5115 -0.1989
   97HFI     F5 1650   0.480   0.780   1.402  0.3466  0.1023  0.4720
   97HFI     F6 1651   0.447   0.624   1.543  0.2394 -0.2064 -0.0363
   97HFI     H1 1652   0.658   0.711   1.577 -1.6251 -0.7058 -0.9252
   97HFI     H2 1653   0.621   0.483   1.441 -1.5595 -0.5679 -2.9605
   98HFI     O1 1654   0.419   2.793   1.330 -0.8062 -0.2678  0.4264
   98HFI     C1 1655   0.429   2.678   1.416  1.0376  0.0698 -0.8925
   98HFI     C2 1656   0.286   2.643   1.466  0.2141  0.3017  0.4098
   98HFI     F1 1657   0.280   2.523   1.527 -0.7222 -0.4964 -0.3615
   98HFI     F2 1658   0.201   2.628   1.358  0.2510 -0.4290 -0.0415
   98HFI     F3 1659   0.235   2.737   1.543 -0.2227 -0.1442  0.6554
   98HFI     C3 1660   0.539   2.714   1.522 -0.2862 -0.5544 -0.1573
   98HFI     F4 1661   0.519   2.841   1.580 -0.1373  0.1753  0.5802
   98HFI     F5 1662   0.658   2.717   1.455  0.4925  0.2462  0.2428
   98HFI     F6 1663   0.545   2.609   1.615  0.3636  0.2189  0.4271
   98HFI     H1 1664   0.369   2.862   1.376  0.8178  0.4104  1.2247
   98HFI     H2 1665   0.463   2.593   1.357  4.2655  0.9213 -0.3950
   99HFI     O1 1666   0.115   1.641   1.089  0.3875 -0.4858 -0.0969
   99HFI     C1 1667   0.032   1.603   0.977  0.4051  0.1026 -0.1532
   99HFI     C2 1668   0.111   1.529   0.873  0.7716 -0.5711 -0.2892
   99HFI     F1 1669   0.020   1.483   0.778  0.4115 -0.6852  0.4219
   99HFI     F2 1670   0.169   1.418   0.924  0.5846 -0.0002  0.1333
   99HFI     F3 1671   0.206   1.598   0.802  0.0402  0.6816  0.0357
   99HFI     C3 1672  -0.050   1.730   0.926  0.0809 -0.2539  0.4939
   99HFI     F4 1673  -0.170   1.688   0.881 -0.6243 -0.3888  0.2210
   99HFI     F5 1674   0.002   1.796   0.818  0.0272  0.3522  0.1543
   99HFI     F6 1675  -0.077   1.834   1.014 -0.4216 -0.4302  0.2416
   99HFI     H1 1676   0.063   1.670   1.166  1.0848  0.2689  0.1075
   99HFI     H2 1677  -0.051   1.540   1.011  2.1570 -2.3475 -0.2929
  100HFI     O1 1678   2.269   2.639   1.333  0.2679 -0.6895  0.8605
  100HFI     C1 1679   2.182   2.580   1.436 -1.0949  0.4275 -0.2903
  100HFI     C2 1680   2.130   2.444   1.385  0.5269  0.6200  0.0975
  100HFI     F1 1681   2.103   2.452   1.248 -0.0048  0.2043  0.4643
  100HFI     F2 1682   2.021   2.401   1.454 -0.8084  0.4431  0.0943
  100HFI     F3 1683   2.229   2.351   1.401 -0.1612  0.2485 -0.1858
  100HFI     C3 1684   2.079   2.687   1.480  0.0686  0.8810  0.1793
  100HFI     F4 1685   2.043   2.672   1.610  0.2427  0.0623 -0.7819
  100HFI     F5 1686   1.966   2.672   1.404 -0.0096  0.2290  0.0819
  100HFI     F6 1687   2.120   2.818   1.460 -0.4041  0.4313  0.1704
  100HFI     H1 1688   2.213   2.637   1.253 -0.1602  0.7253  1.1176
  100HFI     H2 1689   2.243   2.557   1.525 -0.2098  0.2365 -0.9355
  101HFI     O1 1690   2.790   1.745   1.011 -0.2449 -0.2613 -0.0045
  101HFI     C1 1691   2.878   1.632   0.979 -0.0529 -0.1990  0.1323
  101HFI     C2 1692   2.796   1.509   0.932 -0.2673 -0.2460  0.7557
  101HFI     F1 1693   2.719   1.552   0.832  0.7740 -0.3321 -0.1785
  101HFI     F2 1694   2.706   1.481   1.030 -0.0899 -0.5672  0.3515
  101HFI     F3 1695   2.865   1.397   0.895 -0.0022  0.0963 -0.0704
  101HFI     C3 1696   2.956   1.600   1.109 -0.5979 -0.3839  0.6721
  101HFI     F4 1697   2.877   1.577   1.214 -0.1850  0.0673  0.1308
  101HFI     F5 1698   3.047   1.697   1.138 -0.1479  0.2597  0.1170
  101HFI     F6 1699   3.031   1.486   1.087 -0.3409 -0.0384 -0.2165
  101HFI     H1 1700   2.730   1.753   0.935 -0.8716 -0.6188  0.4423
  101HFI     H2 1701   2.949   1.654   0.898 -2.1270  3.6622 -0.7891
  102HFI     O1 1702   1.397   2.138   0.801 -0.8767  0.3108 -0.1911
  102HFI     C1 1703   1.276   2.128   0.717  0.4224 -0.5907  0.2007
  102HFI     C2 1704   1.186   2.257   0.712  0.5254 -0.7442 -0.2764
  102HFI     F1 1705   1.259   2.363   0.667 -0.0908  0.1680 -0.1493
  102HFI     F2 1706   1.150   2.295   0.837  0.3356  0.2327  0.4510
  102HFI     F3 1707   1.066   2.241   0.638  0.1721  0.6283 -0.1440
  102HFI     C3 1708   1.191   2.002   0.746  1.2871  0.9716 -0.0598
  102HFI     F4 1709   1.087   1.985   0.655  0.5837  0.0323 -0.0287
  102HFI     F5 1710   1.141   2.000   0.873  0.1426  0.0596 -0.1034
  102HFI     F6 1711   1.274   1.895   0.732 -0.1391 -0.1868 -0.7731
  102HFI     H1 1712   1.395   2.066   0.866  2.1652  1.3804  1.1829
  102HFI     H2 1713   1.299   2.127   0.610  1.3311  0.6099  0.3799
  103HFI     O1 1714   2.541   2.583   1.302  0.3137  0.7001  0.2523
  103HFI     C1 1715   2.636   2.553   1.410  0.5815 -0.0322  0.1479
  103HFI     C2 1716   2.572   2.453   1.507  0.8927  0.2385 -0.1477
  103HFI     F1 1717   2.663   2.398   1.593 -0.1293  0.5644 -0.2304
  103HFI     F2 1718   2.520   2.345   1.444  0.1628 -0.3152 -0.5734
  103HFI     F3 1719   2.470   2.508   1.586  0.3167  0.2540 -0.7373
  103HFI     C3 1720   2.680   2.688   1.478 -0.1471 -0.1589 -0.9160
  103HFI     F4 1721   2.778   2.664   1.568  0.3275  0.8311 -0.3542
  103HFI     F5 1722   2.579   2.756   1.544  0.2332 -0.1498  0.2256
  103HFI     F6 1723   2.731   2.780   1.390  0.2434 -0.8428 -0.0506
  103HFI     H1 1724   2.467   2.638   1.331  1.0280  2.0521 -0.4533
  103HFI     H2 1725   2.719   2.494   1.368 -1.7256 -2.3996 -1.1929
  104HFI     O1 1726   0.159   1.280   0.026 -0.4782  0.1618 -0.1284
  104HFI     C1 1727   0.125   1.140   0.003  1.1117 -0.3598  0.7845
  104HFI     C2 1728   0.205   1.078  -0.116  0.1757 -0.1664  0.0821
  104HFI     F1 1729   0.336   1.093  -0.104 -0.5280 -0.1376 -0.0406
  104HFI     F2 1730   0.163   1.132  -0.229 -0.6826  0.5013  0.5761
  104HFI     F3 1731   0.191   0.943  -0.124  0.3590 -0.1945  0.2072
  104HFI     C3 1732  -0.031   1.116  -0.002  0.6861 -0.1611 -1.6269
  104HFI     F4 1733  -0.092   1.201  -0.073 -0.4578  0.9317  0.2972
  104HFI     F5 1734  -0.076   1.130   0.124  0.0734  0.1765  0.2929
  104HFI     F6 1735  -0.064   0.997  -0.046  0.3171 -0.0994 -0.5807
  104HFI     H1 1736   0.125   1.337  -0.045  1.1904  0.7741 -0.4492
  104HFI     H2 1737   0.163   1.091   0.093  4.0234  1.5114  0.6343
  105HFI     O1 1738   3.045   0.187   0.012  0.1710 -0.2092 -0.7649
  105HFI     C1 1739   2.972   0.186   0.135 -0.4606  0.6383  0.4627
  105HFI     C2 1740   2.875   0.309   0.145 -0.8806  0.0399  0.4781
  105HFI     F1 1741   2.950   0.420   0.148  0.2165  0.4028  0.5599
  105HFI     F2 1742   2.799   0.316   0.262  0.4912 -0.3368  0.0516
  105HFI     F3 1743   2.786   0.313   0.044 -1.0943  0.1553  0.1830
  105HFI     C3 1744   3.057   0.168   0.262 -0.6276 -0.5088 -0.1452
  105HFI     F4 1745   2.980   0.150   0.362  0.0320  0.0677  0.0742
  105HFI     F5 1746   3.138   0.266   0.289  0.5625  0.7511 -0.0254
  105HFI     F6 1747   3.141   0.063   0.250  0.5016  0.5615 -0.7169
  105HFI     H1 1748   3.134   0.220   0.032 -0.7961  0.8450  2.0734
  105HFI     H2 1749   2.922   0.088   0.133  1.0035 -0.1848  2.4976
  106HFI     O1 1750   1.923   3.419   0.867  0.4272 -0.2396  0.2445
  106HFI     C1 1751   2.014   3.525   0.912  0.7372 -0.2287  0.0527
  106HFI     C2 1752   2.132   3.464   0.986 -0.4996  0.1131  0.5425
  106HFI     F1 1753   2.193   3.373   0.905 -0.1452 -0.3687  0.6804
  106HFI     F2 1754   2.088   3.386   1.091  0.8435  0.0641 -0.0475
  106HFI     F3 1755   2.214   3.553   1.032  0.3080 -0.6527 -0.4506
  106HFI     C3 1756   1.926   3.623   0.990 -0.5775 -0.2688  0.2379
  106HFI     F4 1757   1.815   3.662   0.924 -0.5157  0.2078  0.1553
  106HFI     F5 1758   2.002   3.730   1.016 -0.2633 -0.4150  0.1326
  106HFI     F6 1759   1.887   3.572   1.106 -0.1289 -0.5739  0.0570
  106HFI     H1 1760   1.935   3.347   0.931  2.7270  0.9154  1.1790
  106HFI     H2 1761   2.057   3.577   0.826 -0.2683 -1.4790 -1.2277
  107HFI     O1 1762   2.816   2.732   1.088 -0.7157 -0.1720 -0.0771
  107HFI     C1 1763   2.756   2.783   0.968  0.6323  0.5025 -0.4291
  107HFI     C2 1764   2.655   2.897   1.002 -0.1112 -0.2312 -0.6230
  107HFI     F1 1765   2.548   2.857   1.069 -0.2706  0.5434  0.0730
  107HFI     F2 1766   2.602   2.946   0.886 -1.0244 -0.0005  0.2386
  107HFI     F3 1767   2.702   2.990   1.070  0.1449 -0.6089  0.0339
  107HFI     C3 1768   2.696   2.672   0.876 -0.5842  0.2751  0.8081
  107HFI     F4 1769   2.585   2.617   0.923  0.2658 -0.0546 -0.2378
  107HFI     F5 1770   2.773   2.563   0.856 -0.3919 -0.5444  0.3037
  107HFI     F6 1771   2.667   2.723   0.752 -0.2123  0.0990 -0.3654
  107HFI     H1 1772   2.777   2.651   1.123 -0.5749  0.2230  1.0032
  107HFI     H2 1773   2.833   2.836   0.910 -0.0121  2.4609  0.4730
  108HFI     O1 1774   3.234   1.145   1.329 -0.1737  1.0367  0.1012
  108HFI     C1 1775   3.299   1.107   1.204  0.3360  0.2393 -0.2483
  108HFI     C2 1776   3.309   1.213   1.100  0.0888 -0.1702 -0.3220
  108HFI     F1 1777   3.388   1.173   1.000 -0.8200  0.7057 -0.7759
  108HFI     F2 1778   3.364   1.329   1.149  0.1262  0.0724 -0.2763
  108HFI     F3 1779   3.191   1.246   1.055  0.0850  0.0045 -0.0881
  108HFI     C3 1780   3.239   0.973   1.152  0.4471  0.1622 -0.3465
  108HFI     F4 1781   3.116   0.992   1.093  0.1529 -0.1854 -0.1635
  108HFI     F5 1782   3.216   0.882   1.257 -0.0454  0.0647 -0.5399
  108HFI     F6 1783   3.324   0.912   1.064 -0.0112 -0.2544 -0.6486
  108HFI     H1 1784   3.288   1.129   1.408 -0.7687 -1.0645  0.1054
  108HFI     H2 1785   3.406   1.085   1.219  0.0766 -0.4716  0.5951
  109HFI     O1 1786   1.043   2.340   1.396  0.2130  0.0645  0.0679
  109HFI     C1 1787   0.939   2.314   1.504  0.3635 -0.4227 -0.3834
  109HFI     C2 1788   0.923   2.164   1.515  1.0837  0.1649 -0.4547
  109HFI     F1 1789   1.021   2.101   1.578  0.0900 -0.3045 -0.5194
  109HFI     F2 1790   0.901   2.113   1.391  0.2628 -0.0565  0.1631
  109HFI     F3 1791   0.804   2.123   1.579  0.1878  0.3213 -0.0674
  109HFI     C3 1792   0.811   2.400   1.502 -0.1413  0.3866  0.0304
  109HFI     F4 1793   0.734   2.396   1.391 -0.2809 -0.4046 -0.2088
  109HFI     F5 1794   0.839   2.529   1.520 -0.4910 -0.2186 -0.5261
  109HFI     F6 1795   0.734   2.368   1.604  0.0707 -0.2366  0.2049
  109HFI     H1 1796   0.999   2.359   1.311  0.1075 -1.3756 -0.1969
  109HFI     H2 1797   0.982   2.342   1.600  2.2750  2.9794 -2.1386
  110HFI     O1 1798   3.018   0.296   0.974  0.1401 -0.2592  0.3909
  110HFI     C1 1799   3.047   0.438   0.986  0.3695  0.4536  0.1992
  110HFI     C2 1800   3.015   0.505   0.849  0.7682 -0.1626 -0.0280
  110HFI     F1 1801   3.098   0.465   0.752 -0.2195  0.1003  0.0023
  110HFI     F2 1802   3.019   0.637   0.861  0.3809 -0.4510  0.5436
  110HFI     F3 1803   2.892   0.470   0.809 -0.4940  0.0599  0.4863
  110HFI     C3 1804   3.195   0.464   1.024 -0.4588 -0.5721  0.0402
  110HFI     F4 1805   3.216   0.417   1.146  0.2245 -0.0950  0.5840
  110HFI     F5 1806   3.226   0.596   1.036 -0.3312  0.3747 -0.1381
  110HFI     F6 1807   3.283   0.400   0.934  0.7802 -0.2577 -0.6385
  110HFI     H1 1808   3.083   0.251   0.917 -0.5352 -2.7582  1.5209
  110HFI     H2 1809   2.985   0.487   1.062 -1.8135  0.7583 -1.6928
  111HFI     O1 1810   1.976   1.841   1.604  0.1989  0.0279 -0.0513
  111HFI     C1 1811   1.952   1.940   1.502  0.2244  0.3342 -0.0814
  111HFI     C2 1812   1.857   1.888   1.390  0.6244  0.4056 -0.6715
  111HFI     F1 1813   1.736   1.829   1.434 -0.1373  0.1932  0.1095
  111HFI     F2 1814   1.915   1.791   1.315 -0.4367  0.9206 -0.3547
  111HFI     F3 1815   1.814   1.986   1.313  0.0857 -0.1782  0.1420
  111HFI     C3 1816   2.084   1.984   1.443  0.4834  0.3474 -0.3352
  111HFI     F4 1817   2.164   2.044   1.528  0.2733  0.4670 -0.6939
  111HFI     F5 1818   2.073   2.080   1.346 -0.4950 -0.0853  0.1306
  111HFI     F6 1819   2.153   1.882   1.388 -0.4752  0.3704  0.6414
  111HFI     H1 1820   1.989   1.757   1.558  1.4795  0.4303 -0.4715
  111HFI     H2 1821   1.908   2.028   1.550  0.7163  1.2558 -1.3083
  112HFI     O1 1822   0.121   0.153   0.919  0.3248 -0.0986  0.3836
  112HFI     C1 1823   0.172   0.116   1.053 -0.2030  0.2354  1.2108
  112HFI     C2 1824   0.175  -0.041   1.064  0.0059  0.1776  0.2030
  112HFI     F1 1825   0.235  -0.097   0.954 -0.3452 -0.5190 -0.7536
  112HFI     F2 1826   0.046  -0.099   1.069 -0.6001 -0.2105  0.0024
  112HFI     F3 1827   0.242  -0.076   1.170 -0.4504  0.4059 -0.2132
  112HFI     C3 1828   0.088   0.178   1.167 -0.2467  0.4846 -0.1386
  112HFI     F4 1829  -0.044   0.145   1.169 -0.1524 -0.5024  0.1476
  112HFI     F5 1830   0.093   0.309   1.150  0.1775  0.1614  0.1006
  112HFI     F6 1831   0.135   0.146   1.288  0.2572  0.3901 -0.0802
  112HFI     H1 1832   0.167   0.233   0.887  1.0045 -0.6792 -0.1274
  112HFI     H2 1833   0.278   0.146   1.057 -0.7606  2.3016  0.8128
  113HFI     O1 1834   2.649   1.833   1.324  0.0352 -0.2026 -0.0451
  113HFI     C1 1835   2.521   1.798   1.387 -0.7699  0.7099  0.4905
  113HFI     C2 1836   2.531   1.799   1.548 -0.1575  0.6087 -0.0463
  113HFI     F1 1837   2.570   1.923   1.588 -0.0423  0.3791  0.1082
  113HFI     F2 1838   2.619   1.701   1.598  0.1610 -0.1960 -0.1561
  113HFI     F3 1839   2.407   1.784   1.609  0.6821 -0.4654  0.0333
  113HFI     C3 1840   2.467   1.666   1.331  0.1870 -0.1474  0.3630
  113HFI     F4 1841   2.345   1.634   1.373 -0.4334  0.5957  0.1581
  113HFI     F5 1842   2.550   1.565   1.355 -0.2449 -0.0063 -0.5788
  113HFI     F6 1843   2.455   1.678   1.193  0.2069  0.3308  0.1084
  113HFI     H1 1844   2.712   1.763   1.349  1.4396  1.1327  0.2390
  113HFI     H2 1845   2.443   1.871   1.362 -2.4680 -1.0816  0.4728
  114HFI     O1 1846   2.485   0.500   0.307 -0.1013  0.0073 -0.2333
  114HFI     C1 1847   2.547   0.604   0.392 -0.8379 -0.6390 -0.2379
  114HFI     C2 1848   2.571   0.557   0.535 -0.7322 -0.5479 -0.0645
  114HFI     F1 1849   2.651   0.448   0.531  0.4632 -0.0874 -0.4942
  114HFI     F2 1850   2.462   0.521   0.611 -0.1900  0.5184  0.0107
  114HFI     F3 1851   2.640   0.647   0.608  0.6731  0.1107  0.3686
  114HFI     C3 1852   2.462   0.735   0.388 -1.0203  0.0631 -0.1557
  114HFI     F4 1853   2.409   0.760   0.263 -0.4482 -0.6366  0.4318
  114HFI     F5 1854   2.540   0.835   0.415 -0.5849  0.2945 -0.5013
  114HFI     F6 1855   2.359   0.739   0.470  0.1095  0.5997 -0.1053
  114HFI     H1 1856   2.540   0.492   0.227  1.3898 -1.9370  0.9316
  114HFI     H2 1857   2.647   0.634   0.359 -1.6987  1.5757 -0.8971
  115HFI     O1 1858   2.779   0.231   1.384 -0.7253 -0.6779  0.4385
  115HFI     C1 1859   2.863   0.123   1.436 -0.1604  0.3061  0.4609
  115HFI     C2 1860   2.999   0.105   1.355  0.2248 -0.4029 -1.0928
  115HFI     F1 1861   3.067   0.221   1.347 -0.1566  0.5023  0.2246
  115HFI     F2 1862   2.968   0.063   1.233 -0.0679 -0.6513  0.4026
  115HFI     F3 1863   3.084   0.019   1.410 -0.2509  0.1693  0.1345
  115HFI     C3 1864   2.770   0.001   1.454 -0.8950  0.2702 -0.0447
  115HFI     F4 1865   2.825  -0.127   1.452 -0.4254  0.0563  0.1539
  115HFI     F5 1866   2.677   0.001   1.353  0.6181 -0.0153  0.5914
  115HFI     F6 1867   2.709   0.007   1.572 -0.2873 -0.0117  0.5764
  115HFI     H1 1868   2.698   0.193   1.347 -1.1618 -0.3296  1.0370
  115HFI     H2 1869   2.900   0.144   1.537  2.9814  0.3497 -0.6672
  116HFI     O1 1870   2.101   1.041   0.862  0.3073 -0.4122 -0.3223
  116HFI     C1 1871   2.155   1.157   0.794  0.2191 -0.1044 -0.0409
  116HFI     C2 1872   2.049   1.277   0.809  0.0714 -0.1017  0.3419
  116HFI     F1 1873   2.014   1.333   0.691  0.1486  0.4414 -0.4344
  116HFI     F2 1874   2.102   1.375   0.880  0.1869 -0.0619 -0.3117
  116HFI     F3 1875   1.934   1.236   0.874 -0.6355 -0.2635 -0.0169
  116HFI     C3 1876   2.189   1.116   0.645 -0.6271  0.0097 -0.2033
  116HFI     F4 1877   2.073   1.101   0.574  0.9060  0.1346  0.2494
  116HFI     F5 1878   2.255   0.992   0.648  0.4145 -0.1949  0.2719
  116HFI     F6 1879   2.261   1.213   0.580  0.6571 -0.1723  0.0571
  116HFI     H1 1880   2.011   1.057   0.894  1.2436 -0.7926  2.6403
  116HFI     H2 1881   2.248   1.187   0.844 -0.1899 -2.0038  1.9483
  117HFI     O1 1882   2.569   1.820   0.809  0.0230  0.2500 -0.1544
  117HFI     C1 1883   2.573   1.802   0.667 -0.3260  0.5610 -0.7050
  117HFI     C2 1884   2.716   1.848   0.611  0.2424  0.3704 -0.0173
  117HFI     F1 1885   2.733   1.978   0.641 -0.6340  0.1927 -0.0341
  117HFI     F2 1886   2.730   1.826   0.477  0.1125 -0.5262  0.4448
  117HFI     F3 1887   2.816   1.782   0.673  0.1466 -0.3321 -0.1037
  117HFI     C3 1888   2.453   1.866   0.590 -0.0069  0.1097  0.4578
  117HFI     F4 1889   2.456   1.999   0.589 -0.0820 -0.4757  0.2234
  117HFI     F5 1890   2.347   1.827   0.651 -0.2832 -0.3892 -0.0822
  117HFI     F6 1891   2.447   1.829   0.463 -0.2540 -0.7342 -0.4299
  117HFI     H1 1892   2.558   1.912   0.840 -0.2178 -0.2233  1.2250
  117HFI     H2 1893   2.571   1.694   0.646  1.9006  0.8670 -2.7685
  118HFI     O1 1894   1.722   1.237   2.533  0.3773  0.0312 -0.0327
  118HFI     C1 1895   1.685   1.122   2.448 -0.2579  0.3395  0.7446
  118HFI     C2 1896   1.743   0.984   2.499  0.0515 -0.1328 -0.0269
  118HFI     F1 1897   1.879   0.965   2.479 -0.2424 -0.8305  0.0405
  118HFI     F2 1898   1.680   0.889   2.428 -0.2506  0.1918  0.6191
  118HFI     F3 1899   1.719   0.964   2.636 -0.1074  0.4431 -0.1644
  118HFI     C3 1900   1.705   1.148   2.300  0.2363 -0.4707 -0.3046
  118HFI     F4 1901   1.644   1.058   2.224 -0.9199  0.0065 -0.4254
  118HFI     F5 1902   1.833   1.158   2.258  0.0528 -0.4416 -0.5569
  118HFI     F6 1903   1.644   1.261   2.258  0.1244  0.4752  0.6234
  118HFI     H1 1904   1.775   1.191   2.600  1.2705 -0.5884 -1.1410
  118HFI     H2 1905   1.576   1.109   2.453 -0.5569  3.0747  3.0672
  119HFI     O1 1906   2.253   0.094   2.788  0.1497  0.1070 -0.5350
  119HFI     C1 1907   2.130   0.070   2.862 -0.1874  0.4751 -0.1113
  119HFI     C2 1908   2.101  -0.081   2.872  0.0704 -0.0171 -0.4829
  119HFI     F1 1909   2.211  -0.151   2.906 -0.2623  0.5601 -0.2340
  119HFI     F2 1910   2.062  -0.128   2.749 -0.1246 -0.6360  0.0882
  119HFI     F3 1911   2.001  -0.112   2.955 -0.1606  0.0237  0.0812
  119HFI     C3 1912   2.013   0.153   2.805 -0.6367 -0.3023  0.1428
  119HFI     F4 1913   1.895   0.128   2.864  0.1567 -0.0896  0.2521
  119HFI     F5 1914   2.000   0.133   2.671  0.5608  0.2644 -0.3383
  119HFI     F6 1915   2.039   0.287   2.812 -0.3302 -0.5284 -0.1725
  119HFI     H1 1916   2.282   0.183   2.815  1.0061 -0.0811 -0.8266
  119HFI     H2 1917   2.139   0.104   2.966  1.7797 -2.4908  0.7547
  120HFI     O1 1918   3.039   3.311   2.474 -0.1373  0.0661 -0.0917
  120HFI     C1 1919   2.999   3.403   2.375  0.0238  0.2009 -0.4831
  120HFI     C2 1920   2.913   3.331   2.264 -0.1893  0.6347  0.4492
  120HFI     F1 1921   2.815   3.260   2.316  0.2669  0.4382 -0.4077
  120HFI     F2 1922   2.991   3.234   2.205 -0.4435  0.3035  0.3229
  120HFI     F3 1923   2.857   3.413   2.173  0.8580  0.1266  0.2382
  120HFI     C3 1924   3.105   3.485   2.311  0.1780  0.1128  0.9009
  120HFI     F4 1925   3.172   3.548   2.403  0.1621 -0.2975 -0.9035
  120HFI     F5 1926   3.057   3.578   2.220  0.1634  1.1856  0.4666
  120HFI     F6 1927   3.184   3.403   2.241 -0.0469  0.6537 -0.4854
  120HFI     H1 1928   3.088   3.239   2.430 -1.2677 -0.2849 -0.7848
  120HFI     H2 1929   2.922   3.462   2.426  1.2369  0.7156  0.8206
  121HFI     O1 1930   2.534   0.425   2.192 -0.3591  0.1683 -0.4469
  121HFI     C1 1931   2.561   0.355   2.321 -0.1274  0.3619  0.7284
  121HFI     C2 1932   2.553   0.448   2.440  0.5665  0.5710 -0.4455
  121HFI     F1 1933   2.442   0.526   2.428 -0.0311 -0.2978  0.1041
  121HFI     F2 1934   2.657   0.531   2.449  0.1467 -0.2657  0.6092
  121HFI     F3 1935   2.537   0.386   2.563 -0.4428  0.4122  0.8471
  121HFI     C3 1936   2.684   0.278   2.306 -0.7524 -0.0614  0.3898
  121HFI     F4 1937   2.788   0.366   2.309  0.2236  0.0453 -0.2200
  121HFI     F5 1938   2.684   0.200   2.194 -0.1266 -0.5508  0.1581
  121HFI     F6 1939   2.693   0.197   2.412 -0.0495  0.2970  0.4147
  121HFI     H1 1940   2.598   0.497   2.180  0.8316 -0.6678  0.8674
  121HFI     H2 1941   2.477   0.284   2.332 -0.9285  1.2673  0.5523
  122HFI     O1 1942   0.775   2.450   2.458  0.3446 -0.6719 -0.3710
  122HFI     C1 1943   0.917   2.435   2.414 -0.0611 -0.3539  0.2570
  122HFI     C2 1944   1.006   2.550   2.463 -1.0896 -0.2835 -0.7807
  122HFI     F1 1945   1.141   2.544   2.414  0.6705 -0.4155  0.0601
  122HFI     F2 1946   1.015   2.549   2.598 -0.2216 -0.3193 -0.0601
  122HFI     F3 1947   0.949   2.670   2.420 -0.1629 -0.3244  0.0789
  122HFI     C3 1948   0.913   2.417   2.263 -0.0916  0.2041 -0.0927
  122HFI     F4 1949   0.851   2.298   2.244 -0.5575  0.7996  0.0034
  122HFI     F5 1950   1.035   2.414   2.201  0.0210 -0.0958  0.0297
  122HFI     F6 1951   0.829   2.508   2.210 -0.4429  0.8838  0.1221
  122HFI     H1 1952   0.756   2.545   2.468  2.7044 -0.2775  0.8628
  122HFI     H2 1953   0.962   2.347   2.462  0.0152  0.0110  0.8670
  123HFI     O1 1954   0.029   2.057   3.308 -0.1696  0.7574 -0.3794
  123HFI     C1 1955   0.018   2.191   3.258 -0.3944  0.2439  0.9070
  123HFI     C2 1956   0.059   2.302   3.361 -0.3011  0.3590 -0.3728
  123HFI     F1 1957  -0.030   2.309   3.456  0.7536 -0.2792  0.0122
  123HFI     F2 1958   0.071   2.422   3.306 -0.0655 -0.2831 -0.5498
  123HFI     F3 1959   0.170   2.269   3.435  0.2930  0.6136  0.4858
  123HFI     C3 1960  -0.118   2.223   3.189 -0.2863  0.6628  0.0249
  123HFI     F4 1961  -0.217   2.229   3.281  0.0123 -0.0330 -0.1339
  123HFI     F5 1962  -0.157   2.125   3.099  0.0358  0.8166  0.3064
  123HFI     F6 1963  -0.107   2.348   3.130  0.0295 -0.2534  0.4858
  123HFI     H1 1964   0.003   1.994   3.239 -1.7826  0.5540  0.4054
  123HFI     H2 1965   0.093   2.203   3.179  1.3814 -0.4343  2.4641
  124HFI     O1 1966   2.146   1.584   3.493  0.4410  0.7878 -0.1169
  124HFI     C1 1967   2.270   1.541   3.416 -0.1230 -0.8578  0.2421
  124HFI     C2 1968   2.399   1.627   3.456 -0.0533  0.5775 -0.2497
  124HFI     F1 1969   2.419   1.615   3.584 -0.0833 -0.3795  0.1520
  124HFI     F2 1970   2.376   1.762   3.439 -0.5784  0.2465  0.0261
  124HFI     F3 1971   2.516   1.593   3.393 -0.4501  0.1923 -0.4438
  124HFI     C3 1972   2.237   1.559   3.263 -0.1221  0.1957 -0.1573
  124HFI     F4 1973   2.341   1.509   3.194 -0.1041 -0.0602 -0.7303
  124HFI     F5 1974   2.217   1.689   3.238 -0.2440  0.1390 -0.0761
  124HFI     F6 1975   2.130   1.486   3.222  0.1924 -0.6714 -0.1861
  124HFI     H1 1976   2.140   1.544   3.581 -0.3788  0.4027 -0.3411
  124HFI     H2 1977   2.294   1.435   3.424 -1.1750 -1.1362 -0.1719
  125HFI     O1 1978   0.748   1.887   3.735 -0.1308  0.0071  0.3523
  125HFI     C1 1979   0.630   1.963   3.687  0.8169 -0.7915  0.3331
  125HFI     C2 1980   0.507   1.869   3.664 -0.8287 -0.0945 -0.0111
  125HFI     F1 1981   0.461   1.833   3.782  0.0184  0.4671 -0.5768
  125HFI     F2 1982   0.542   1.757   3.598 -0.2573  0.2523  0.2913
  125HFI     F3 1983   0.408   1.930   3.592 -0.2789  0.5964 -0.1125
  125HFI     C3 1984   0.656   2.052   3.567  0.2001 -0.0026 -0.3512
  125HFI     F4 1985   0.674   1.984   3.448 -0.0451 -0.3987 -0.5037
  125HFI     F5 1986   0.761   2.138   3.584  0.4746  0.2844 -0.0848
  125HFI     F6 1987   0.554   2.138   3.550 -0.1013  0.3165  0.5906
  125HFI     H1 1988   0.775   1.818   3.672 -2.3755 -0.0536 -0.5987
  125HFI     H2 1989   0.593   2.025   3.770 -0.1755 -0.6215 -0.2254
  126HFI     O1 1990   0.199   0.260   2.514  0.0509 -0.1315 -0.1552
  126HFI     C1 1991   0.144   0.226   2.378 -0.1164  0.2990 -0.5174
  126HFI     C2 1992   0.232   0.112   2.315 -0.5013  0.2679  0.3493
  126HFI     F1 1993   0.354   0.149   2.283 -0.0732  0.3227  0.0581
  126HFI     F2 1994   0.165   0.082   2.205  0.2214 -0.3819  0.3155
  126HFI     F3 1995   0.231   0.004   2.396 -0.1202 -0.0006 -0.0031
  126HFI     C3 1996   0.137   0.352   2.285 -0.2603 -0.3241 -0.2585
  126HFI     F4 1997   0.051   0.342   2.183 -0.1847 -0.4613  0.1217
  126HFI     F5 1998   0.260   0.386   2.231  0.5253 -0.6483  0.2282
  126HFI     F6 1999   0.098   0.461   2.354 -0.1392  0.6289  0.3889
  126HFI     H1 2000   0.263   0.333   2.509 -0.0768  0.1370  1.6113
  126HFI     H2 2001   0.039   0.196   2.382  0.3778 -1.2976  1.0986
  127HFI     O1 2002   1.085   1.637   0.237  0.0925 -0.1585 -0.1458
  127HFI     C1 2003   1.123   1.769   0.288 -0.1325 -0.7281 -0.4768
  127HFI     C2 2004   1.122   1.865   0.163 -0.3280  0.2508 -0.2568
  127HFI     F1 2005   1.157   1.992   0.203  0.0130 -0.2073  0.5492
  127HFI     F2 2006   1.001   1.871   0.098 -0.2742 -0.5701 -0.6773
  127HFI     F3 2007   1.210   1.822   0.065 -0.5732 -1.0519  0.4525
  127HFI     C3 2008   1.244   1.769   0.372 -0.0308 -0.2489 -1.0655
  127HFI     F4 2009   1.219   1.694   0.483 -0.4860  0.2949  0.3505
  127HFI     F5 2010   1.262   1.897   0.418 -0.5201 -0.2564 -0.8886
  127HFI     F6 2011   1.348   1.724   0.299  0.5213  0.1183 -0.0872
  127HFI     H1 2012   1.063   1.578   0.312 -1.3265 -0.1363 -0.5275
  127HFI     H2 2013   1.047   1.808   0.356  0.3526 -1.5575  0.5503
  128HFI     O1 2014   2.079   3.401   2.299  0.2139 -0.0974  0.6247
  128HFI     C1 2015   2.012   3.274   2.263 -0.3135  0.3153 -0.1629
  128HFI     C2 2016   1.891   3.251   2.362 -0.7727  0.4832 -0.2724
  128HFI     F1 2017   1.830   3.134   2.336  0.1226  0.1910 -0.3964
  128HFI     F2 2018   1.805   3.353   2.353 -0.2510 -0.0636  0.5348
  128HFI     F3 2019   1.931   3.243   2.490  0.1319  0.0326  0.1867
  128HFI     C3 2020   2.117   3.161   2.273  0.8173  0.2137 -0.2821
  128HFI     F4 2021   2.224   3.208   2.203  0.1300  0.8216 -0.2473
  128HFI     F5 2022   2.067   3.055   2.212 -0.2450  0.1631 -0.1324
  128HFI     F6 2023   2.163   3.126   2.393  0.2727 -0.8116  0.0027
  128HFI     H1 2024   2.116   3.393   2.388  1.1656  0.9773  0.3463
  128HFI     H2 2025   1.969   3.272   2.163 -0.8908 -1.4355  0.0987
  129HFI     O1 2026   2.567   2.964   2.736 -0.0693  0.2257  0.4792
  129HFI     C1 2027   2.705   2.954   2.787 -0.2250  0.3825  0.2713
  129HFI     C2 2028   2.812   2.968   2.689  0.2424 -0.0194 -0.4955
  129HFI     F1 2029   2.799   3.082   2.607  0.9597  0.0188  0.3991
  129HFI     F2 2030   2.811   2.858   2.609  0.0236  0.3257  0.1262
  129HFI     F3 2031   2.929   2.969   2.745  0.9894  0.1579  0.4114
  129HFI     C3 2032   2.715   2.822   2.878 -0.3959  0.0527  0.2742
  129HFI     F4 2033   2.705   2.709   2.806 -0.5700  0.3760 -0.2319
  129HFI     F5 2034   2.609   2.823   2.969 -0.3984 -0.2854 -0.1627
  129HFI     F6 2035   2.834   2.817   2.948 -0.2373  0.0973 -0.4571
  129HFI     H1 2036   2.569   2.909   2.655  1.1523  0.9706 -0.0033
  129HFI     H2 2037   2.726   3.030   2.863  0.7481  0.2638  0.1280
  130HFI     O1 2038   3.283   0.031   3.234 -0.4674 -0.6184 -0.4425
  130HFI     C1 2039   3.277   0.002   3.377  0.3195  0.5176  0.0374
  130HFI     C2 2040   3.290   0.136   3.453 -0.0453 -0.4624  0.2237
  130HFI     F1 2041   3.411   0.197   3.438 -0.3200 -0.2111  0.1376
  130HFI     F2 2042   3.262   0.122   3.589  0.7703 -0.0996 -0.0773
  130HFI     F3 2043   3.208   0.228   3.402  0.2495 -0.0590 -0.5308
  130HFI     C3 2044   3.388  -0.101   3.417  0.2668 -0.4807  0.7053
  130HFI     F4 2045   3.509  -0.050   3.387  0.3986 -0.5071  0.0738
  130HFI     F5 2046   3.366  -0.216   3.360  0.3153  0.4242  0.0080
  130HFI     F6 2047   3.394  -0.127   3.547 -0.2636 -0.2070  0.1183
  130HFI     H1 2048   3.354   0.093   3.213 -0.6965  0.0178  0.6069
  130HFI     H2 2049   3.181  -0.038   3.410 -0.1214  0.1764 -1.5995
  131HFI     O1 2050   1.103   0.513   0.243 -0.4239 -0.2358  0.7379
  131HFI     C1 2051   1.091   0.660   0.246 -0.6442  0.0182 -0.1762
  131HFI     C2 2052   1.073   0.721   0.394 -0.5128  0.3664 -0.6197
  131HFI     F1 2053   0.998   0.635   0.475 -0.3132 -0.0565  0.5192
  131HFI     F2 2054   1.006   0.835   0.406  0.4348 -0.4485 -0.0715
  131HFI     F3 2055   1.190   0.733   0.466 -0.0155  0.4068 -0.5298
  131HFI     C3 2056   0.981   0.704   0.145  0.9696  0.4734  0.2788
  131HFI     F4 2057   0.956   0.836   0.143  0.7057  0.0423 -0.1205
  131HFI     F5 2058   0.863   0.646   0.168  0.5273 -0.1947  0.1499
  131HFI     F6 2059   1.021   0.677   0.018  0.3339 -0.6389  0.7600
  131HFI     H1 2060   1.070   0.474   0.325  0.9185 -1.4981  0.6830
  131HFI     H2 2061   1.183   0.707   0.209 -0.2269  0.1099  0.9920
  132HFI     O1 2062   2.446   0.598   3.776 -0.0307  0.1558 -0.2359
  132HFI     C1 2063   2.310   0.588   3.819  0.6134  0.8554 -0.4213
  132HFI     C2 2064   2.243   0.446   3.790 -0.5384 -0.7156  0.0965
  132HFI     F1 2065   2.325   0.353   3.849 -0.4069 -0.0932  0.0786
  132HFI     F2 2066   2.234   0.420   3.658 -0.6619  0.5473  0.3011
  132HFI     F3 2067   2.113   0.434   3.834  0.1690 -0.2965 -1.2495
  132HFI     C3 2068   2.229   0.709   3.762 -0.0666  0.0843  0.1287
  132HFI     F4 2069   2.294   0.821   3.790  0.4626 -0.2123  0.1362
  132HFI     F5 2070   2.100   0.714   3.800  0.2180  0.2553  0.2901
  132HFI     F6 2071   2.215   0.690   3.633 -0.0004 -0.2658  0.1709
  132HFI     H1 2072   2.453   0.540   3.699  0.5485 -1.5007  1.0207
  132HFI     H2 2073   2.290   0.600   3.926 -1.5604  0.7293 -0.7921
  133HFI     O1 2074   0.630   0.974   2.452  0.5975  0.2572 -0.2861
  133HFI     C1 2075   0.709   1.093   2.414  0.5370 -0.0853  0.3182
  133HFI     C2 2076   0.757   1.082   2.278 -0.4924 -1.1314 -0.1975
  133HFI     F1 2077   0.652   1.060   2.195 -0.1630  0.0203 -0.0482
  133HFI     F2 2078   0.849   0.975   2.268 -0.3494  0.3441 -0.0037
  133HFI     F3 2079   0.822   1.201   2.235 -0.1483  0.4835 -0.0688
  133HFI     C3 2080   0.823   1.123   2.523  0.3612 -0.0260 -0.5651
  133HFI     F4 2081   0.867   1.246   2.516  0.2030 -0.0902  0.4812
  133HFI     F5 2082   0.932   1.041   2.520 -0.3734  0.1503  0.3617
  133HFI     F6 2083   0.773   1.102   2.649 -0.8389 -0.3829 -0.3119
  133HFI     H1 2084   0.687   0.898   2.473  0.4001  0.0327 -0.5615
  133HFI     H2 2085   0.644   1.182   2.410 -1.0891 -1.2677 -0.3657
  134HFI     O1 2086   0.604   3.361   3.590  0.1867 -0.0721  0.3345
  134HFI     C1 2087   0.512   3.410   3.491  0.2735  0.1668  0.0228
  134HFI     C2 2088   0.436   3.296   3.408 -0.0591 -0.9859  0.2773
  134HFI     F1 2089   0.355   3.240   3.492 -0.6751  0.3106  0.4880
  134HFI     F2 2090   0.519   3.207   3.362 -0.2460  0.1781 -0.1311
  134HFI     F3 2091   0.366   3.342   3.303  0.5700  0.2040 -0.4053
  134HFI     C3 2092   0.573   3.519   3.399 -0.0283  0.1511 -0.3865
  134HFI     F4 2093   0.653   3.473   3.305  0.2527 -0.0854  0.2249
  134HFI     F5 2094   0.636   3.603   3.476  0.0420 -0.0645 -0.1721
  134HFI     F6 2095   0.472   3.581   3.331 -0.5539 -0.4955 -0.2656
  134HFI     H1 2096   0.558   3.290   3.638  2.1725 -1.3226  0.4437
  134HFI     H2 2097   0.431   3.457   3.548  0.8745  0.4088  0.6808
  135HFI     O1 2098   1.230   3.234   2.378  0.3476  0.2488  0.1167
  135HFI     C1 2099   1.250   3.111   2.307  0.9868 -0.2387  0.3444
  135HFI     C2 2100   1.159   2.993   2.366 -0.3319  0.6649  0.4134
  135HFI     F1 2101   1.030   3.026   2.372  0.3320  0.0881 -0.0520
  135HFI     F2 2102   1.198   2.953   2.491  0.1857  0.1181  0.6045
  135HFI     F3 2103   1.169   2.886   2.282  0.5203  0.0624  0.3308
  135HFI     C3 2104   1.398   3.082   2.299  0.4983  0.3156  0.0225
  135HFI     F4 2105   1.463   3.167   2.215  0.1771  0.3344  0.2775
  135HFI     F5 2106   1.431   2.967   2.244  0.3566  0.1266  1.1447
  135HFI     F6 2107   1.455   3.079   2.426  0.1375  0.0289 -0.8621
  135HFI     H1 2108   1.305   3.239   2.439  0.8727 -3.3770 -0.1628
  135HFI     H2 2109   1.223   3.125   2.201  2.1543  0.6839  0.1655
  136HFI     O1 2110   2.521   2.762   2.518  0.1313 -0.3623  0.1299
  136HFI     C1 2111   2.414   2.822   2.431 -0.4179  0.3321  0.5786
  136HFI     C2 2112   2.328   2.710   2.359 -0.6121  0.0335 -0.8677
  136HFI     F1 2113   2.233   2.747   2.270  0.6402 -0.6671 -0.0016
  136HFI     F2 2114   2.254   2.641   2.447 -0.4512  0.0526  0.3853
  136HFI     F3 2115   2.411   2.622   2.301  0.1742  0.2605  0.1465
  136HFI     C3 2116   2.483   2.926   2.329 -0.7028 -0.3835  0.2800
  136HFI     F4 2117   2.539   3.035   2.401  0.9666  0.0479 -0.1213
  136HFI     F5 2118   2.403   2.962   2.226  0.3169  0.1163  0.5006
  136HFI     F6 2119   2.588   2.855   2.274  0.0296 -0.1256 -0.0164
  136HFI     H1 2120   2.570   2.693   2.471 -0.3052  0.3887 -1.4590
  136HFI     H2 2121   2.351   2.888   2.491  2.0274  1.7450  1.6601
  137HFI     O1 2122   0.436   2.093   2.794  0.0933  0.2082  0.2521
  137HFI     C1 2123   0.545   2.135   2.882  0.1457 -0.2565 -0.5117
  137HFI     C2 2124   0.681   2.125   2.815 -0.4417  0.2390  0.0215
  137HFI     F1 2125   0.687   2.176   2.689  0.4440 -0.3629 -0.2141
  137HFI     F2 2126   0.735   1.998   2.821 -0.0884 -0.6763 -0.6697
  137HFI     F3 2127   0.764   2.210   2.881  0.1654  0.6212  0.1253
  137HFI     C3 2128   0.539   2.057   3.012  0.2089 -0.5509  0.5002
  137HFI     F4 2129   0.544   1.923   2.998  0.2357  0.0771  0.2512
  137HFI     F5 2130   0.423   2.078   3.080 -0.2498 -0.2280  0.2954
  137HFI     F6 2131   0.635   2.097   3.094 -0.2017 -0.2211  0.0750
  137HFI     H1 2132   0.468   2.011   2.752 -0.3618  0.4651 -0.6125
  137HFI     H2 2133   0.534   2.243   2.896  3.4694 -0.2114  2.2988
  138HFI     O1 2134   1.167   2.070   2.278 -0.4277  0.6262  0.1174
  138HFI     C1 2135   1.102   1.947   2.306 -0.1774  0.1963  0.4300
  138HFI     C2 2136   1.035   1.954   2.444  0.5916 -0.5046 -0.9348
  138HFI     F1 2137   0.926   2.035   2.438  0.1684  0.0183 -0.0311
  138HFI     F2 2138   1.113   2.010   2.540  0.8044  0.9893 -0.0123
  138HFI     F3 2139   0.986   1.833   2.483  0.6159 -0.0513  0.2721
  138HFI     C3 2140   1.206   1.831   2.291  0.9556 -0.0920 -0.5107
  138HFI     F4 2141   1.282   1.816   2.398  0.3075 -0.5139 -0.1866
  138HFI     F5 2142   1.287   1.851   2.185  0.0381 -0.2299  0.0620
  138HFI     F6 2143   1.143   1.716   2.263  0.4114 -0.3466  0.0542
  138HFI     H1 2144   1.250   2.057   2.229  0.2610 -1.1753  1.6983
  138HFI     H2 2145   1.024   1.933   2.230  0.7674 -0.3957 -0.4363
  139HFI     O1 2146   1.817   2.324   3.595 -0.5605  0.1733  0.5286
  139HFI     C1 2147   1.851   2.419   3.705 -0.7490  0.6711  0.2513
  139HFI     C2 2148   1.938   2.345   3.809  0.7649  0.3574 -0.4987
  139HFI     F1 2149   2.046   2.290   3.748 -0.5483 -0.1466 -0.2171
  139HFI     F2 2150   1.868   2.250   3.877  0.1322  0.2141 -0.1035
  139HFI     F3 2151   1.976   2.431   3.904  0.6220 -0.1665  0.9511
  139HFI     C3 2152   1.714   2.482   3.768  0.5390  0.0113  0.9283
  139HFI     F4 2153   1.617   2.391   3.787  0.5519  0.3002 -0.3820
  139HFI     F5 2154   1.665   2.568   3.676  0.4279 -0.6087  0.1843
  139HFI     F6 2155   1.732   2.549   3.882  0.5118 -0.3588 -0.4690
  139HFI     H1 2156   1.721   2.316   3.586 -0.3149 -0.0809 -2.3285
  139HFI     H2 2157   1.909   2.500   3.658  0.9355 -1.0402 -0.6557
  140HFI     O1 2158   3.220   2.197   0.199  0.3424  0.1234  0.3723
  140HFI     C1 2159   3.167   2.168   0.070  0.4788  0.4952 -0.4675
  140HFI     C2 2160   3.057   2.280   0.035 -0.1464 -0.1346  0.2571
  140HFI     F1 2161   3.119   2.398   0.021 -0.3355 -0.5153 -0.3373
  140HFI     F2 2162   2.966   2.298   0.126 -0.0408  0.2371 -0.4159
  140HFI     F3 2163   3.003   2.251  -0.081  0.2478 -0.1400  0.2516
  140HFI     C3 2164   3.122   2.018   0.055  0.5988 -0.3398 -0.3622
  140HFI     F4 2165   3.121   1.980  -0.077  0.1089  0.4021  0.3809
  140HFI     F5 2166   2.998   2.008   0.107 -0.7511  0.4129 -0.2635
  140HFI     F6 2167   3.211   1.936   0.119 -0.2402 -0.7490 -0.1099
  140HFI     H1 2168   3.238   2.292   0.184 -0.9844  0.0974 -1.5740
  140HFI     H2 2169   3.250   2.180  -0.002 -2.6179 -2.4104 -4.7905
  141HFI     O1 2170   0.237   3.102   2.881  0.0963 -0.2149  0.3730
  141HFI     C1 2171   0.219   2.979   2.959  0.3526 -0.2926 -0.3412
  141HFI     C2 2172   0.150   3.014   3.092 -0.1612 -0.2694  0.3354
  141HFI     F1 2173   0.052   3.103   3.073 -0.6016 -0.0635  0.1107
  141HFI     F2 2174   0.230   3.072   3.187 -0.2388 -0.1973  0.4593
  141HFI     F3 2175   0.105   2.902   3.145  0.1608 -0.2055 -0.0133
  141HFI     C3 2176   0.352   2.896   2.983  0.6420  1.1659 -0.3678
  141HFI     F4 2177   0.444   2.964   3.045  0.0458  0.3412  0.2231
  141HFI     F5 2178   0.399   2.856   2.862  0.0231  0.2361  0.0753
  141HFI     F6 2179   0.336   2.788   3.050 -0.1066 -0.0650 -0.2348
  141HFI     H1 2180   0.276   3.172   2.935 -0.3355  0.7542 -0.5328
  141HFI     H2 2181   0.149   2.918   2.899  3.1159 -0.6511 -3.3538
  142HFI     O1 2182   3.270   2.019   0.600  0.0135  0.0605  0.1638
  142HFI     C1 2183   3.188   1.974   0.487 -0.5740 -1.2417  0.2849
  142HFI     C2 2184   3.045   2.035   0.506  0.6479  0.9214 -0.1515
  142HFI     F1 2185   3.045   2.164   0.477  0.9618 -0.4414  0.1341
  142HFI     F2 2186   2.998   2.010   0.624  0.0303 -0.3441  0.0267
  142HFI     F3 2187   2.969   1.964   0.425 -0.2148  0.4772  0.3015
  142HFI     C3 2188   3.189   1.815   0.478 -0.8358  0.4990 -0.8120
  142HFI     F4 2189   3.102   1.758   0.563  0.4932 -0.0220  0.1914
  142HFI     F5 2190   3.317   1.775   0.506  0.2609  0.0882 -0.1468
  142HFI     F6 2191   3.165   1.761   0.361 -0.4793 -0.1873  0.2081
  142HFI     H1 2192   3.262   1.956   0.674  0.5226 -0.5706 -0.3126
  142HFI     H2 2193   3.235   2.011   0.395  0.6035 -0.8755  1.0098
  143HFI     O1 2194   2.855   0.612   2.634  0.1028 -0.3312  0.4319
  143HFI     C1 2195   2.901   0.524   2.738  1.4054  0.3770 -0.3824
  143HFI     C2 2196   2.967   0.394   2.681  0.0361  0.1987  0.5403
  143HFI     F1 2197   2.875   0.308   2.613 -0.6620  0.1482 -0.0859
  143HFI     F2 2198   3.039   0.331   2.777  0.6467  0.7766  0.5496
  143HFI     F3 2199   3.061   0.422   2.588 -0.3478 -0.4702 -0.4632
  143HFI     C3 2200   2.790   0.484   2.844 -0.8449  0.1627  0.4309
  143HFI     F4 2201   2.849   0.411   2.944  1.1584  0.3221 -0.0690
  143HFI     F5 2202   2.693   0.407   2.796  0.1148  0.3356 -0.0743
  143HFI     F6 2203   2.732   0.590   2.895  0.5888  0.0404  0.0785
  143HFI     H1 2204   2.773   0.649   2.671  0.8862  0.2230  1.6689
  143HFI     H2 2205   2.981   0.570   2.797 -1.5532  2.2066  2.3039
  144HFI     O1 2206   2.088   2.778   0.254  0.1194 -0.2573  0.3047
  144HFI     C1 2207   2.058   2.879   0.156 -0.2188  0.1545  0.2311
  144HFI     C2 2208   1.921   2.847   0.082 -0.0434  0.2554  0.0879
  144HFI     F1 2209   1.934   2.745  -0.006  0.1433 -0.2226 -0.2752
  144HFI     F2 2210   1.854   2.949   0.009 -0.5109  0.4369  0.5797
  144HFI     F3 2211   1.838   2.804   0.174 -0.0052 -0.7241 -0.1097
  144HFI     C3 2212   2.179   2.905   0.065 -0.3413  0.0812 -0.9220
  144HFI     F4 2213   2.142   2.998  -0.029  0.0993 -0.3979  0.0831
  144HFI     F5 2214   2.229   2.793   0.010 -0.2120  0.6423  0.3053
  144HFI     F6 2215   2.274   2.963   0.141 -0.1749  0.0640 -0.2660
  144HFI     H1 2216   2.176   2.740   0.238  1.0128  1.0727  1.8498
  144HFI     H2 2217   2.052   2.975   0.208  0.7893  1.0482 -1.2647
  145HFI     O1 2218   0.627   0.611   2.977 -0.2710 -0.0659  1.1642
  145HFI     C1 2219   0.540   0.609   3.097 -0.0699 -0.7439 -0.2006
  145HFI     C2 2220   0.628   0.579   3.230 -0.6341  0.0068  0.6038
  145HFI     F1 2221   0.554   0.546   3.339 -0.0723 -0.4206 -0.7147
  145HFI     F2 2222   0.704   0.682   3.262 -0.1060 -0.4930  0.2455
  145HFI     F3 2223   0.720   0.476   3.210 -0.4566  0.3249  0.4914
  145HFI     C3 2224   0.423   0.504   3.088  0.6478  0.2376  0.3233
  145HFI     F4 2225   0.471   0.376   3.086  0.0396  0.1431 -0.5253
  145HFI     F5 2226   0.366   0.514   2.970 -0.1932 -0.4059 -0.1934
  145HFI     F6 2227   0.330   0.523   3.190  0.3916  0.2229  0.3267
  145HFI     H1 2228   0.718   0.643   2.986 -0.4630  1.2699 -1.3831
  145HFI     H2 2229   0.497   0.709   3.116  1.1985  0.0853 -1.6123
  146HFI     O1 2230   1.256   2.285   2.435  0.0469 -0.7492 -0.1063
  146HFI     C1 2231   1.382   2.357   2.391  0.3813  0.9612  0.0940
  146HFI     C2 2232   1.430   2.303   2.255 -0.4501 -0.0118  0.2034
  146HFI     F1 2233   1.427   2.169   2.245  0.5578  0.3161  0.0090
  146HFI     F2 2234   1.545   2.359   2.215 -0.5423 -0.3315  0.0321
  146HFI     F3 2235   1.336   2.346   2.173  0.0618 -0.0236  0.1897
  146HFI     C3 2236   1.497   2.348   2.492  0.1778 -0.1751 -0.3968
  146HFI     F4 2237   1.565   2.236   2.488 -0.0889  0.2955 -0.4480
  146HFI     F5 2238   1.444   2.360   2.617 -0.6490 -0.1888 -0.4602
  146HFI     F6 2239   1.588   2.451   2.468  0.2482  0.1933  0.4731
  146HFI     H1 2240   1.237   2.211   2.376 -0.9620  0.1275 -0.9160
  146HFI     H2 2241   1.365   2.465   2.379 -1.7651  0.8036  1.4864
  147HFI     O1 2242   1.647   0.595   3.135  0.0055  0.3272  0.6060
  147HFI     C1 2243   1.617   0.597   2.991 -0.2913 -0.3262  0.4688
  147HFI     C2 2244   1.461   0.615   2.961  0.1441 -0.3187 -0.1002
  147HFI     F1 2245   1.409   0.717   3.034 -0.1795  0.4036  0.2556
  147HFI     F2 2246   1.409   0.505   3.019 -0.0724 -0.4901 -0.1325
  147HFI     F3 2247   1.420   0.638   2.836 -0.4178  0.1399  0.0923
  147HFI     C3 2248   1.689   0.477   2.920 -0.2575  0.2850 -0.2586
  147HFI     F4 2249   1.635   0.361   2.952  0.0457  0.5690 -0.1707
  147HFI     F5 2250   1.811   0.485   2.961  0.4392  0.3687 -0.5728
  147HFI     F6 2251   1.677   0.498   2.788  0.4001 -0.6836 -0.1587
  147HFI     H1 2252   1.686   0.508   3.156  1.1499  0.3776 -1.2422
  147HFI     H2 2253   1.674   0.676   2.940  2.1996 -1.6433  1.1292
  148HFI     O1 2254   1.180   0.566   2.201 -0.3132  1.1667  0.2643
  148HFI     C1 2255   1.220   0.697   2.262 -0.2964  0.6454  0.2811
  148HFI     C2 2256   1.369   0.696   2.298 -0.2880 -0.1529  0.0172
  148HFI     F1 2257   1.406   0.780   2.392 -0.1813 -0.3175  0.4923
  148HFI     F2 2258   1.443   0.736   2.194  0.4256 -0.0655  0.3391
  148HFI     F3 2259   1.414   0.574   2.334 -0.1513 -0.1635  0.5218
  148HFI     C3 2260   1.133   0.726   2.388  0.6419  0.2584  0.3639
  148HFI     F4 2261   1.001   0.694   2.362  0.0255 -0.2791  0.2794
  148HFI     F5 2262   1.127   0.855   2.440 -0.7176  0.2262 -0.5227
  148HFI     F6 2263   1.174   0.639   2.487  1.0202  0.0895  0.1965
  148HFI     H1 2264   1.173   0.492   2.264 -0.9598  0.7675 -0.2788
  148HFI     H2 2265   1.209   0.778   2.190  1.9100 -0.2491 -1.1082
  149HFI     O1 2266   0.607   2.109   2.204 -0.1469  0.0437 -0.5397
  149HFI     C1 2267   0.586   2.031   2.322 -0.5705 -0.4771 -0.2511
  149HFI     C2 2268   0.606   1.878   2.295  0.0112  0.3462 -0.0432
  149HFI     F1 2269   0.605   1.804   2.409  0.2891 -0.3089  0.3684
  149HFI     F2 2270   0.724   1.854   2.238  0.8413  0.1159  0.3412
  149HFI     F3 2271   0.511   1.835   2.210  0.2293 -0.0338  0.0121
  149HFI     C3 2272   0.458   2.063   2.392 -0.5483  0.4025  0.0514
  149HFI     F4 2273   0.344   2.016   2.333  0.1231 -0.2730  0.2920
  149HFI     F5 2274   0.441   2.193   2.419 -0.1893  0.0121 -0.0459
  149HFI     F6 2275   0.470   2.004   2.514  0.2352  0.3950  0.0302
  149HFI     H1 2276   0.641   2.198   2.223  1.8080 -1.1097  1.6068
  149HFI     H2 2277   0.668   2.044   2.394 -0.6156  0.0315 -0.2943
  150HFI     O1 2278   1.761   1.537   2.487  0.0798  0.0017  0.1729
  150HFI     C1 2279   1.810   1.640   2.397  0.2396  0.6416  0.8510
  150HFI     C2 2280   1.694   1.719   2.328  0.5871  0.1333  0.2884
  150HFI     F1 2281   1.622   1.788   2.417 -0.1170 -0.1207  0.4813
  150HFI     F2 2282   1.603   1.633   2.274 -0.6615 -0.1983 -0.3406
  150HFI     F3 2283   1.748   1.808   2.239  0.1111 -0.6316 -0.4404
  150HFI     C3 2284   1.913   1.586   2.303  0.2074  0.3662  0.5270
  150HFI     F4 2285   1.860   1.519   2.202 -0.4272 -0.0447 -0.6994
  150HFI     F5 2286   2.005   1.500   2.361  0.1055 -0.3219 -0.0265
  150HFI     F6 2287   1.977   1.691   2.254 -0.4127 -0.0713 -0.3141
  150HFI     H1 2288   1.778   1.455   2.437 -0.9071 -0.0966 -0.0113
  150HFI     H2 2289   1.863   1.714   2.457 -0.4085  2.0393 -0.2800
  151HFI     O1 2290   0.435   1.615   3.191  0.2178 -0.0613 -0.0315
  151HFI     C1 2291   0.323   1.608   3.096 -0.1559 -0.9626 -0.0575
  151HFI     C2 2292   0.208   1.719   3.113 -0.2249  0.2199  0.0124
  151HFI     F1 2293   0.148   1.747   2.995  0.0001  0.0628  0.1760
  151HFI     F2 2294   0.251   1.831   3.161 -0.1335  0.4740 -0.0021
  151HFI     F3 2295   0.109   1.677   3.193  0.2415  0.3559  0.2838
  151HFI     C3 2296   0.252   1.470   3.098  0.4188 -0.1576 -0.5165
  151HFI     F4 2297   0.146   1.473   3.014  0.3459 -0.1359  0.4845
  151HFI     F5 2298   0.215   1.430   3.220  0.2861 -0.4858 -0.6826
  151HFI     F6 2299   0.335   1.372   3.053 -1.0621  0.0220 -0.2781
  151HFI     H1 2300   0.441   1.542   3.254 -1.0084 -0.1300  0.0119
  151HFI     H2 2301   0.359   1.634   2.996  0.1146  0.0086  0.2867
  152HFI     O1 2302   2.204   1.113   0.107 -0.2537  0.1110  0.3943
  152HFI     C1 2303   2.200   1.203  -0.004  0.6040  0.2699 -0.1208
  152HFI     C2 2304   2.325   1.303  -0.012  0.5669 -0.1050  0.2400
  152HFI     F1 2305   2.305   1.425   0.035 -0.0717  0.0366  0.2514
  152HFI     F2 2306   2.358   1.328  -0.146  0.0722  0.0452 -0.2478
  152HFI     F3 2307   2.433   1.251   0.047  0.4921 -0.2587 -0.0436
  152HFI     C3 2308   2.060   1.261  -0.022  0.7488 -0.1197 -0.0907
  152HFI     F4 2309   2.075   1.346  -0.126  0.7880  0.3943 -0.1712
  152HFI     F5 2310   2.013   1.322   0.086  0.2666 -0.2499 -0.2173
  152HFI     F6 2311   1.977   1.164  -0.050 -0.3362  0.5524 -0.0534
  152HFI     H1 2312   2.289   1.123   0.153  0.1395 -0.4214 -0.1940
  152HFI     H2 2313   2.214   1.134  -0.088  0.0940 -0.0963  0.0912
  153HFI     O1 2314   3.177   2.661   2.381  0.1719  0.0356 -0.0443
  153HFI     C1 2315   3.032   2.709   2.400 -0.1322 -0.1487  0.7639
  153HFI     C2 2316   2.926   2.614   2.335  0.1955 -0.5867  0.0860
  153HFI     F1 2317   2.945   2.483   2.360 -0.8772 -0.1709 -0.2081
  153HFI     F2 2318   2.937   2.620   2.197 -0.3944 -0.6730 -0.9078
  153HFI     F3 2319   2.801   2.643   2.379 -0.5517  0.0697  0.2303
  153HFI     C3 2320   3.027   2.858   2.354 -0.3448 -0.7926 -0.7927
  153HFI     F4 2321   3.113   2.878   2.251 -0.2138  0.0920 -0.0202
  153HFI     F5 2322   3.066   2.939   2.458 -0.4173  0.0525  0.0943
  153HFI     F6 2323   2.900   2.889   2.316 -0.0454  0.2887 -0.0438
  153HFI     H1 2324   3.194   2.633   2.289  1.3288  2.1888 -0.5376
  153HFI     H2 2325   3.009   2.709   2.507 -0.0125  3.7466  0.8576
  154HFI     O1 2326   0.507   0.568   0.154  0.4189  0.2137  0.3883
  154HFI     C1 2327   0.541   0.655   0.035  0.1596  0.8137 -0.1581
  154HFI     C2 2328   0.557   0.802   0.083  0.5327 -0.5621 -0.3551
  154HFI     F1 2329   0.640   0.873   0.008  0.0077  0.4007  0.5023
  154HFI     F2 2330   0.606   0.814   0.210 -0.2518  0.6093 -0.3202
  154HFI     F3 2331   0.445   0.867   0.088 -0.4430 -0.2270 -0.2148
  154HFI     C3 2332   0.438   0.629  -0.080  0.5133 -0.2362 -0.0728
  154HFI     F4 2333   0.312   0.627  -0.031  0.7395 -0.4239  0.2146
  154HFI     F5 2334   0.463   0.505  -0.134 -0.1315 -0.6390  0.6418
  154HFI     F6 2335   0.443   0.722  -0.179  0.1776 -0.5066 -0.0025
  154HFI     H1 2336   0.417   0.533   0.141  0.1217  1.1527 -0.2108
  154HFI     H2 2337   0.641   0.622   0.004  0.9451  1.4432  1.6155
  155HFI     O1 2338   0.022   3.232   2.495  0.5056  0.0512  0.2732
  155HFI     C1 2339   0.105   3.126   2.429  0.1184 -0.1067 -0.4771
  155HFI     C2 2340   0.083   3.118   2.274  0.0755  0.5592 -0.0367
  155HFI     F1 2341   0.108   2.995   2.232  0.4725 -0.5398 -0.2757
  155HFI     F2 2342   0.168   3.198   2.210  0.7975 -0.3841 -0.2626
  155HFI     F3 2343  -0.045   3.143   2.233  0.4246  0.0322  0.2367
  155HFI     C3 2344   0.065   2.984   2.496  0.0494 -0.5071 -0.9933
  155HFI     F4 2345  -0.039   2.927   2.431  0.0958 -0.4066 -0.2605
  155HFI     F5 2346   0.012   2.997   2.621  0.2705 -0.0384 -0.1926
  155HFI     F6 2347   0.172   2.901   2.493 -0.0326 -0.0643  0.2406
  155HFI     H1 2348   0.057   3.262   2.581  0.6895  0.3866  0.0815
  155HFI     H2 2349   0.212   3.144   2.448 -0.0300 -0.8595  1.1696
  156HFI     O1 2350   1.590   3.088   2.675  0.3175  0.5203 -0.0751
  156HFI     C1 2351   1.547   3.180   2.785 -0.1871  0.4598  0.2668
  156HFI     C2 2352   1.393   3.190   2.780  0.4945 -0.5359 -0.4475
  156HFI     F1 2353   1.335   3.074   2.818 -0.0090  0.1004 -0.3319
  156HFI     F2 2354   1.352   3.218   2.652  0.0371 -0.3256  0.4024
  156HFI     F3 2355   1.343   3.285   2.860 -0.4683 -0.0891 -0.2886
  156HFI     C3 2356   1.624   3.323   2.789  0.2875  0.5060 -0.2533
  156HFI     F4 2357   1.589   3.404   2.689  0.1792 -0.3014 -0.2217
  156HFI     F5 2358   1.754   3.303   2.779 -0.4970 -0.3237  0.1197
  156HFI     F6 2359   1.605   3.394   2.904 -0.4974  0.3330  0.0069
  156HFI     H1 2360   1.685   3.070   2.669  0.3874  0.8179  0.1253
  156HFI     H2 2361   1.565   3.138   2.885  2.1325  2.5864  0.8133
  157HFI     O1 2362   0.023   2.971   3.555 -0.1206 -0.2523  0.2008
  157HFI     C1 2363   0.075   2.881   3.668 -0.1868  0.2429 -0.6357
  157HFI     C2 2364  -0.030   2.901   3.787  0.1039  0.6674  1.0557
  157HFI     F1 2365   0.014   2.835   3.896  0.3245  0.4086  0.2688
  157HFI     F2 2366  -0.149   2.847   3.748  0.1092  0.0493  0.5915
  157HFI     F3 2367  -0.045   3.030   3.818  0.3876 -0.0734  0.1061
  157HFI     C3 2368   0.223   2.907   3.705  0.4444 -0.7158 -0.7873
  157HFI     F4 2369   0.279   2.804   3.773 -0.0413  0.1676  0.0115
  157HFI     F5 2370   0.242   3.023   3.781 -0.1489  0.3151  0.0221
  157HFI     F6 2371   0.299   2.913   3.587 -0.4624 -0.0063  0.1971
  157HFI     H1 2372   0.053   3.063   3.562 -0.9457  0.0885 -0.5296
  157HFI     H2 2373   0.070   2.776   3.636  0.0133 -0.0354  0.2602
  158HFI     O1 2374   0.909   2.648   3.616  0.2014 -0.1524  0.1787
  158HFI     C1 2375   0.796   2.585   3.675 -1.0198  0.1646 -0.5513
  158HFI     C2 2376   0.727   2.678   3.778  0.1689  0.4399 -0.1565
  158HFI     F1 2377   0.810   2.710   3.877 -0.5660 -0.0627 -0.4304
  158HFI     F2 2378   0.616   2.619   3.831  0.5116 -0.1956  0.2897
  158HFI     F3 2379   0.680   2.797   3.736  0.2305 -0.6527  0.2920
  158HFI     C3 2380   0.822   2.432   3.727  0.2787 -0.3238  0.1676
  158HFI     F4 2381   0.898   2.357   3.645  0.6767 -0.0270  0.1126
  158HFI     F5 2382   0.704   2.370   3.744 -0.1519  0.1704 -0.8406
  158HFI     F6 2383   0.886   2.428   3.848 -0.2162 -0.2465  0.4271
  158HFI     H1 2384   0.968   2.675   3.688  0.6263  0.8131 -0.5313
  158HFI     H2 2385   0.719   2.574   3.597  0.2867 -0.3513 -1.7859
  159HFI     O1 2386   0.928   1.274   3.541  0.2083 -0.2787 -0.3214
  159HFI     C1 2387   1.051   1.190   3.530  0.0763 -0.3240 -0.1191
  159HFI     C2 2388   1.052   1.113   3.396 -0.5449 -0.2635 -0.3254
  159HFI     F1 2389   0.954   1.024   3.380  0.1637  0.1088  0.0700
  159HFI     F2 2390   1.177   1.051   3.384 -0.4662  0.1349  0.3808
  159HFI     F3 2391   1.040   1.207   3.300 -0.0911 -0.2453 -0.2888
  159HFI     C3 2392   1.063   1.102   3.655 -0.5208 -0.9089  0.3659
  159HFI     F4 2393   1.062   1.182   3.767  0.1551  0.1915  0.2527
  159HFI     F5 2394   1.176   1.025   3.661 -0.2034 -0.3350  0.4151
  159HFI     F6 2395   0.961   1.022   3.666 -0.1287 -0.3123 -0.1727
  159HFI     H1 2396   0.871   1.257   3.465 -0.8276 -0.3801  0.4693
  159HFI     H2 2397   1.138   1.257   3.524 -1.6225  2.0923  1.2124
  160HFI     O1 2398   3.027   0.987   3.217 -0.0928 -0.4097  0.6236
  160HFI     C1 2399   2.977   0.856   3.247  0.1694  0.2160 -0.0294
  160HFI     C2 2400   3.007   0.760   3.125 -0.6693 -0.1763 -0.3840
  160HFI     F1 2401   2.944   0.792   3.017  0.2234 -0.4661  0.6100
  160HFI     F2 2402   2.994   0.633   3.156 -0.2616  0.0572 -0.2873
  160HFI     F3 2403   3.136   0.767   3.104 -0.0561 -0.4372 -0.0762
  160HFI     C3 2404   2.821   0.859   3.269  0.1305  0.6188 -0.2758
  160HFI     F4 2405   2.759   0.937   3.179  0.2061 -0.3402  0.8423
  160HFI     F5 2406   2.782   0.923   3.383  0.6925  0.1710 -0.0041
  160HFI     F6 2407   2.761   0.740   3.259  0.5708  0.2168  0.6709
  160HFI     H1 2408   2.963   1.030   3.158 -1.2959 -3.0701 -0.0785
  160HFI     H2 2409   3.021   0.816   3.339  0.0885 -0.0709 -0.1146
  161HFI     O1 2410   2.046   0.273   3.110 -0.2862 -0.3539 -0.2651
  161HFI     C1 2411   2.021   0.274   3.255 -0.3880  0.3135  0.8632
  161HFI     C2 2412   1.915   0.376   3.298  0.5983  0.4708  0.1735
  161HFI     F1 2413   1.797   0.355   3.232  1.1232 -0.0307 -0.1022
  161HFI     F2 2414   1.959   0.500   3.277 -0.7042 -0.4684  1.0144
  161HFI     F3 2415   1.884   0.367   3.430  0.0887  0.1002 -0.0350
  161HFI     C3 2416   2.161   0.291   3.339 -0.5189  1.1980 -0.3382
  161HFI     F4 2417   2.144   0.207   3.449  0.3103 -0.3363  0.0375
  161HFI     F5 2418   2.175   0.418   3.388 -0.4609  0.2143  0.5797
  161HFI     F6 2419   2.277   0.260   3.274 -0.3130 -0.2507 -0.1355
  161HFI     H1 2420   2.066   0.361   3.073 -1.6569  0.5564  1.1048
  161HFI     H2 2421   1.981   0.178   3.289 -0.7611 -0.3588 -1.3948
  162HFI     O1 2422   2.157   0.559   3.077 -0.7229 -0.2302 -0.3687
  162HFI     C1 2423   2.238   0.642   2.990  0.3066 -0.3541  0.0205
  162HFI     C2 2424   2.154   0.772   2.945  0.0248 -0.1097 -0.6835
  162HFI     F1 2425   2.151   0.844   3.061 -0.5443 -0.9025  0.4598
  162HFI     F2 2426   2.033   0.733   2.902 -0.3882 -0.6626 -0.4335
  162HFI     F3 2427   2.218   0.847   2.852 -0.1034  0.2752  0.0295
  162HFI     C3 2428   2.305   0.573   2.870  0.5850 -0.1262  0.0413
  162HFI     F4 2429   2.413   0.646   2.828 -0.0014 -0.2223 -0.3302
  162HFI     F5 2430   2.222   0.567   2.768  0.5591  0.1246  0.3489
  162HFI     F6 2431   2.353   0.448   2.906  0.3507  0.2477  0.2440
  162HFI     H1 2432   2.140   0.607   3.160  0.8092  0.3376 -0.3712
  162HFI     H2 2433   2.321   0.683   3.049  1.2557 -0.4546 -1.2211
  163HFI     O1 2434   0.078   1.482   2.373  0.0079  0.5163 -0.0122
  163HFI     C1 2435   0.010   1.592   2.290 -0.0665  0.5155 -0.3020
  163HFI     C2 2436   0.082   1.726   2.299  0.1247 -0.8559 -0.3866
  163HFI     F1 2437   0.170   1.739   2.191 -0.1644  0.2000 -0.2212
  163HFI     F2 2438   0.151   1.731   2.411  0.0636 -0.4364 -0.3098
  163HFI     F3 2439  -0.013   1.833   2.294  0.2213  0.0877 -0.1461
  163HFI     C3 2440  -0.137   1.601   2.333  0.4079 -0.2722  0.1272
  163HFI     F4 2441  -0.192   1.480   2.327  0.0488 -0.0812 -0.0135
  163HFI     F5 2442  -0.218   1.685   2.264  0.3179  0.2984 -0.5549
  163HFI     F6 2443  -0.147   1.650   2.458  0.0915  0.1345 -0.4235
  163HFI     H1 2444   0.007   1.443   2.426  1.2614 -1.8621  0.0056
  163HFI     H2 2445   0.014   1.562   2.184 -0.2465 -0.5506 -0.0124
  164HFI     O1 2446   3.248   2.528   2.630 -0.4285 -0.1581 -0.1396
  164HFI     C1 2447   3.309   2.548   2.754 -0.5267 -0.6903 -0.2884
  164HFI     C2 2448   3.252   2.684   2.812 -0.9497 -0.1751  0.4874
  164HFI     F1 2449   3.131   2.671   2.868  0.6298 -0.0205 -0.4961
  164HFI     F2 2450   3.254   2.781   2.723  0.2488 -0.0126 -0.1337
  164HFI     F3 2451   3.335   2.725   2.914  0.1207  0.2100  0.5203
  164HFI     C3 2452   3.461   2.544   2.742 -0.9198  0.0780 -0.2138
  164HFI     F4 2453   3.513   2.664   2.710 -0.2216  0.3312  0.3432
  164HFI     F5 2454   3.502   2.459   2.639  0.1268 -0.0473  0.4767
  164HFI     F6 2455   3.518   2.505   2.862  0.3789 -0.0819  0.0050
  164HFI     H1 2456   3.292   2.571   2.554 -1.8436  2.2182  0.3502
  164HFI     H2 2457   3.286   2.463   2.819  2.0937 -1.4990 -0.3834
  165HFI     O1 2458   3.214   0.753   2.474 -0.7259  1.0040  0.0237
  165HFI     C1 2459   3.100   0.712   2.387 -0.4882 -0.0667  0.1197
  165HFI     C2 2460   3.143   0.606   2.276  0.2007 -0.9397 -0.3033
  165HFI     F1 2461   3.052   0.576   2.187  0.4082  0.5964 -0.0207
  165HFI     F2 2462   3.178   0.482   2.331 -0.0065 -0.0207  0.0848
  165HFI     F3 2463   3.249   0.647   2.202  0.0855  0.4206 -0.6000
  165HFI     C3 2464   3.032   0.840   2.325 -0.5043  0.1661  0.5693
  165HFI     F4 2465   3.112   0.903   2.236 -0.3593  0.1620  0.1466
  165HFI     F5 2466   2.991   0.926   2.415  0.0282 -0.3336 -0.1202
  165HFI     F6 2467   2.922   0.799   2.254 -0.2573  0.3488  0.0962
  165HFI     H1 2468   3.292   0.769   2.418 -0.7953  1.4458  0.0518
  165HFI     H2 2469   3.017   0.677   2.450 -1.4472  1.0257 -0.5021
  166HFI     O1 2470   2.850   1.695   3.336 -0.5717  0.2748  0.3747
  166HFI     C1 2471   2.977   1.771   3.328  0.4785 -0.3227  0.3123
  166HFI     C2 2472   2.990   1.841   3.190 -0.3982  0.1254 -0.0271
  166HFI     F1 2473   2.902   1.940   3.171  0.1783 -0.0129  0.6318
  166HFI     F2 2474   2.952   1.750   3.090  0.0567 -0.5872 -0.6670
  166HFI     F3 2475   3.111   1.886   3.156  0.1785  0.1043 -0.0788
  166HFI     C3 2476   3.088   1.680   3.362  0.9313 -0.1798  0.4300
  166HFI     F4 2477   3.095   1.582   3.272  0.2317 -0.6686 -0.4196
  166HFI     F5 2478   3.069   1.615   3.479 -0.5416 -0.6682 -0.3401
  166HFI     F6 2479   3.204   1.739   3.363  0.7341 -0.1510  0.1094
  166HFI     H1 2480   2.766   1.737   3.311 -0.9220 -0.7263 -0.1444
  166HFI     H2 2481   2.973   1.850   3.405  0.4641 -0.9359  0.9481
  167HFI     O1 2482   0.677   2.678   2.582  0.5077 -0.3290  0.1550
  167HFI     C1 2483   0.618   2.643   2.717  0.2209  0.8133  0.0797
  167HFI     C2 2484   0.725   2.587   2.822 -0.3873  0.4943 -0.3143
  167HFI     F1 2485   0.668   2.582   2.946 -0.4511  0.2221  0.3445
  167HFI     F2 2486   0.832   2.664   2.831  0.0715 -0.2945 -0.1519
  167HFI     F3 2487   0.760   2.465   2.792 -0.1895  0.1200 -0.1623
  167HFI     C3 2488   0.494   2.551   2.704  0.2106  0.1841 -0.1777
  167HFI     F4 2489   0.422   2.532   2.819  0.1486  0.1296  0.0738
  167HFI     F5 2490   0.525   2.429   2.659 -0.0617 -0.4692  0.8037
  167HFI     F6 2491   0.408   2.599   2.611  0.3685  0.0860  0.0749
  167HFI     H1 2492   0.620   2.744   2.539 -1.3562 -0.7414  1.8755
  167HFI     H2 2493   0.582   2.734   2.767 -0.9169  0.9034 -0.8616
  168HFI     O1 2494   1.924   0.256   2.215 -0.1563  0.2873  0.2866
  168HFI     C1 2495   1.968   0.361   2.302  0.4773 -0.3527 -0.1693
  168HFI     C2 2496   1.931   0.506   2.268  0.2816  0.0167 -0.3702
  168HFI     F1 2497   1.815   0.510   2.208  0.1888  0.1237 -0.5541
  168HFI     F2 2498   2.024   0.577   2.204 -0.2680  0.1655 -0.1854
  168HFI     F3 2499   1.912   0.569   2.380  0.2270  0.0876 -0.1520
  168HFI     C3 2500   2.119   0.334   2.324  0.3529 -0.3223 -0.0048
  168HFI     F4 2501   2.179   0.317   2.205 -0.5056  0.0864  0.5956
  168HFI     F5 2502   2.143   0.220   2.395  0.1787 -0.4729 -0.1572
  168HFI     F6 2503   2.183   0.436   2.397 -0.2916  0.1443  0.7098
  168HFI     H1 2504   2.000   0.215   2.172  0.1387  1.6954 -0.5797
  168HFI     H2 2505   1.929   0.346   2.403  1.5602 -1.2726  0.1296
  169HFI     O1 2506   2.389   3.296   2.684 -0.5684 -0.3930  0.6980
  169HFI     C1 2507   2.504   3.326   2.597  0.8506 -0.4385  0.1732
  169HFI     C2 2508   2.614   3.414   2.662  0.4231  0.8998 -0.4331
  169HFI     F1 2509   2.666   3.350   2.770  0.0315  0.1983  0.1449
  169HFI     F2 2510   2.563   3.534   2.704 -0.2135 -0.4544 -0.1776
  169HFI     F3 2511   2.709   3.442   2.573 -0.2072  0.4188 -0.2096
  169HFI     C3 2512   2.460   3.384   2.456  0.1418 -0.4778  0.1471
  169HFI     F4 2513   2.345   3.323   2.417  0.0706 -0.2136  0.2658
  169HFI     F5 2514   2.551   3.358   2.361 -0.1190  0.4357 -0.1090
  169HFI     F6 2515   2.432   3.520   2.470  0.2397  0.1538  0.5548
  169HFI     H1 2516   2.363   3.373   2.737 -0.8779 -0.1218  0.1508
  169HFI     H2 2517   2.548   3.228   2.575  2.2207 -0.2045  1.7436
  170HFI     O1 2518   2.371   0.968   3.186 -0.1612  0.2251 -0.3054
  170HFI     C1 2519   2.434   0.941   3.317  0.0484  0.1965 -0.7503
  170HFI     C2 2520   2.405   0.790   3.358  0.6986 -0.0407  0.2792
  170HFI     F1 2521   2.456   0.697   3.272 -0.0571 -0.0350 -0.6513
  170HFI     F2 2522   2.270   0.774   3.363  0.0425 -0.0561  0.1461
  170HFI     F3 2523   2.462   0.765   3.486  0.2748  0.3790  0.4865
  170HFI     C3 2524   2.402   1.043   3.434  0.6311  0.3356  1.2699
  170HFI     F4 2525   2.496   1.028   3.530  0.3815 -0.5956 -0.0457
  170HFI     F5 2526   2.280   1.030   3.488  0.3466  0.1674  0.4588
  170HFI     F6 2527   2.421   1.171   3.390 -0.0318 -0.3171  0.4634
  170HFI     H1 2528   2.350   1.062   3.173  1.2982  0.5575 -0.3271
  170HFI     H2 2529   2.543   0.945   3.306  0.1855  1.8084  1.0769
  171HFI     O1 2530   0.801   1.693   2.644  0.6622  0.0359  0.1257
  171HFI     C1 2531   0.850   1.600   2.751 -0.3705  0.1469  0.3708
  171HFI     C2 2532   0.797   1.634   2.895  0.4935  0.4217 -0.3646
  171HFI     F1 2533   0.662   1.623   2.898 -0.2147  0.2091 -0.0521
  171HFI     F2 2534   0.831   1.756   2.936 -0.1866 -0.0655 -0.1396
  171HFI     F3 2535   0.846   1.544   2.990  0.3461 -0.2522 -0.5418
  171HFI     C3 2536   1.009   1.594   2.754 -0.7281 -0.0971 -0.0239
  171HFI     F4 2537   1.055   1.703   2.825  0.2552 -0.7616 -0.2809
  171HFI     F5 2538   1.050   1.599   2.630 -0.2679 -0.5315  0.1910
  171HFI     F6 2539   1.065   1.483   2.811  0.2730 -0.0043 -0.0646
  171HFI     H1 2540   0.879   1.739   2.609  0.6733  0.4339  0.6705
  171HFI     H2 2541   0.818   1.497   2.735  0.6171 -0.2276  0.7774
  172HFI     O1 2542   1.538   1.340   3.346  0.2145  0.6800 -0.6169
  172HFI     C1 2543   1.499   1.444   3.254  0.4265 -0.3754 -0.9921
  172HFI     C2 2544   1.598   1.565   3.252  0.0231  0.7226  0.0543
  172HFI     F1 2545   1.723   1.525   3.279  0.3522  0.3608 -0.1390
  172HFI     F2 2546   1.566   1.648   3.354  0.5799  0.0376 -0.1750
  172HFI     F3 2547   1.592   1.634   3.131 -0.2427  0.0806  0.3166
  172HFI     C3 2548   1.355   1.496   3.282  0.6978  0.3540  0.2486
  172HFI     F4 2549   1.325   1.603   3.211  0.2820 -0.0352  0.5757
  172HFI     F5 2550   1.323   1.519   3.411  0.1707 -0.3299  0.3145
  172HFI     F6 2551   1.265   1.404   3.235  0.1691  0.2161  0.2197
  172HFI     H1 2552   1.502   1.262   3.301  0.4204  1.4648 -2.1977
  172HFI     H2 2553   1.502   1.412   3.149 -0.7033 -0.6374 -0.9508
  173HFI     O1 2554   2.502   3.420   3.072  0.2412 -0.5288  0.1778
  173HFI     C1 2555   2.508   3.310   3.163  0.4416 -0.1323 -0.0488
  173HFI     C2 2556   2.514   3.175   3.091 -0.4690  0.1502  0.2926
  173HFI     F1 2557   2.394   3.138   3.035 -0.2490  0.5114  0.0374
  173HFI     F2 2558   2.571   3.078   3.174 -0.2032  0.4036 -0.3879
  173HFI     F3 2559   2.595   3.190   2.983  0.5882  0.2389  0.3379
  173HFI     C3 2560   2.387   3.322   3.264  0.3820  0.1055 -0.1948
  173HFI     F4 2561   2.355   3.198   3.318 -0.3545  0.0173  0.4927
  173HFI     F5 2562   2.272   3.363   3.215 -0.1057 -0.2677  0.1150
  173HFI     F6 2563   2.418   3.403   3.370 -0.2674  0.3673 -0.2419
  173HFI     H1 2564   2.574   3.418   3.008  0.7309  1.7417  0.5878
  173HFI     H2 2565   2.602   3.310   3.219 -0.0760 -0.8789  0.8390
  174HFI     O1 2566   2.497   1.200   0.396 -0.5258  0.0180 -0.2551
  174HFI     C1 2567   2.561   1.330   0.363 -0.3515  0.9770 -0.7276
  174HFI     C2 2568   2.706   1.327   0.415 -0.3505 -0.2297  0.2181
  174HFI     F1 2569   2.768   1.213   0.382 -0.0540  0.3279  0.2205
  174HFI     F2 2570   2.709   1.338   0.547 -0.1890  0.1270 -0.3846
  174HFI     F3 2571   2.786   1.423   0.366 -0.7916  0.4331  0.1830
  174HFI     C3 2572   2.475   1.431   0.429 -0.7163  0.3092  0.3822
  174HFI     F4 2573   2.528   1.554   0.441  0.1834 -0.2915  0.2436
  174HFI     F5 2574   2.445   1.394   0.558 -0.4573 -0.2481 -0.0799
  174HFI     F6 2575   2.364   1.456   0.356  0.4330 -0.2557 -0.0531
  174HFI     H1 2576   2.506   1.183   0.492 -0.5361 -1.1069 -0.4427
  174HFI     H2 2577   2.567   1.344   0.254 -1.4663  0.4467 -0.8646
  175HFI     O1 2578   2.303   1.317   2.649 -0.0236 -0.2855  0.2371
  175HFI     C1 2579   2.206   1.337   2.759 -0.4968  1.0627  0.4147
  175HFI     C2 2580   2.244   1.249   2.883  0.8535 -0.3878 -0.3769
  175HFI     F1 2581   2.339   1.304   2.957  0.0566 -0.2202 -0.1490
  175HFI     F2 2582   2.287   1.129   2.841 -0.0676  0.6034 -0.6032
  175HFI     F3 2583   2.131   1.235   2.966  0.5308 -0.0856 -0.0526
  175HFI     C3 2584   2.059   1.311   2.707 -0.0781 -0.2159  0.2812
  175HFI     F4 2585   2.025   1.183   2.692 -0.1565 -0.0191  0.0081
  175HFI     F5 2586   2.049   1.363   2.580  0.1227  0.1832  0.2381
  175HFI     F6 2587   1.965   1.374   2.788  0.0941  0.2129 -0.2703
  175HFI     H1 2588   2.290   1.229   2.610 -1.6019  0.7664 -1.7097
  175HFI     H2 2589   2.218   1.442   2.785 -1.1488  1.0186  0.9199
  176HFI     O1 2590   1.946   2.806   2.396 -0.3995  0.3978  0.4834
  176HFI     C1 2591   1.848   2.707   2.367 -0.7512  0.6208  0.3920
  176HFI     C2 2592   1.923   2.577   2.304  0.1095 -0.1605  0.4438
  176HFI     F1 2593   2.017   2.533   2.390  0.2123 -0.1303  0.1728
  176HFI     F2 2594   1.976   2.595   2.186 -0.1942  0.1037 -0.1914
  176HFI     F3 2595   1.832   2.468   2.288  0.0768  0.6518 -0.2583
  176HFI     C3 2596   1.728   2.763   2.299  0.9937 -0.7133 -0.6414
  176HFI     F4 2597   1.748   2.819   2.178  0.0358  0.3124 -0.1937
  176HFI     F5 2598   1.675   2.848   2.392  0.0966  0.4144  0.0265
  176HFI     F6 2599   1.628   2.669   2.284 -0.0648 -0.1454  0.4467
  176HFI     H1 2600   1.988   2.818   2.309 -3.8255 -0.5071 -1.3785
  176HFI     H2 2601   1.809   2.667   2.462  1.2133  1.2273  1.4878
  177HFI     O1 2602   2.976   0.874   3.652  0.2405  0.5885  0.8591
  177HFI     C1 2603   2.953   0.791   3.770  0.2035 -0.1253 -0.4669
  177HFI     C2 2604   3.064   0.677   3.781  0.1881 -0.3325 -0.0494
  177HFI     F1 2605   3.176   0.729   3.735  0.0519  0.1429 -0.2970
  177HFI     F2 2606   3.017   0.565   3.713 -0.2927  0.0484  0.0965
  177HFI     F3 2607   3.086   0.650   3.912 -0.5267  0.0470 -0.2754
  177HFI     C3 2608   2.801   0.732   3.774  0.0578 -0.0378  0.0623
  177HFI     F4 2609   2.716   0.832   3.755  0.3112 -0.0388  0.1585
  177HFI     F5 2610   2.771   0.671   3.893 -0.0749  0.4486 -0.1213
  177HFI     F6 2611   2.778   0.637   3.674  0.0629 -0.1915  0.3435
  177HFI     H1 2612   2.975   0.969   3.673  0.1963  0.3212  2.1015
  177HFI     H2 2613   2.964   0.853   3.860 -0.9290 -0.8432  0.1828
  178HFI     O1 2614   2.523   2.225   3.437 -0.0326  0.2593 -0.2986
  178HFI     C1 2615   2.603   2.108   3.430  0.1078  0.0684  0.2783
  178HFI     C2 2616   2.750   2.137   3.476 -0.1386 -0.0238 -0.5197
  178HFI     F1 2617   2.745   2.223   3.577  0.2583  0.0236  0.0253
  178HFI     F2 2618   2.831   2.177   3.371 -0.0570  0.1111 -0.1062
  178HFI     F3 2619   2.803   2.028   3.530 -0.1698 -0.1379  0.8935
  178HFI     C3 2620   2.593   2.043   3.289 -0.2557  0.6798  0.0213
  178HFI     F4 2621   2.614   2.132   3.193 -0.1701  0.3369  0.0906
  178HFI     F5 2622   2.468   2.005   3.277 -0.5599  0.4738 -0.2445
  178HFI     F6 2623   2.668   1.937   3.273 -0.1206  0.0047 -0.0057
  178HFI     H1 2624   2.428   2.205   3.430 -0.2564  1.2926 -0.3076
  178HFI     H2 2625   2.561   2.027   3.491 -1.6417  1.1934  0.6090
  179HFI     O1 2626   0.386   1.279   2.486  0.5779  0.0886  0.1521
  179HFI     C1 2627   0.400   1.419   2.462  0.7342  0.5114 -0.2043
  179HFI     C2 2628   0.458   1.444   2.326 -0.0550 -0.1480 -0.5201
  179HFI     F1 2629   0.369   1.397   2.231 -0.2689  0.4095 -0.2030
  179HFI     F2 2630   0.580   1.384   2.313  0.4413  0.3219 -0.1314
  179HFI     F3 2631   0.477   1.573   2.306 -0.0854 -0.2959  0.3415
  179HFI     C3 2632   0.484   1.492   2.574 -0.2841  0.0062 -0.5448
  179HFI     F4 2633   0.493   1.624   2.560  0.2662  0.1004  0.3548
  179HFI     F5 2634   0.605   1.431   2.583  0.7404  0.2385 -0.0090
  179HFI     F6 2635   0.425   1.477   2.700 -0.6087 -0.3626  0.1912
  179HFI     H1 2636   0.292   1.255   2.495 -0.4264  3.3566 -1.0403
  179HFI     H2 2637   0.300   1.464   2.465  0.2615 -0.1366 -3.6987
  180HFI     O1 2638   1.356   0.226   3.049 -0.0593  0.2041 -0.5026
  180HFI     C1 2639   1.227   0.171   3.016 -0.6997 -0.2667 -0.1712
  180HFI     C2 2640   1.189   0.206   2.871  0.5938 -0.1328  0.1930
  180HFI     F1 2641   1.267   0.158   2.775  0.4361 -0.1405  0.7767
  180HFI     F2 2642   1.181   0.334   2.849 -0.0622 -0.1840  0.4106
  180HFI     F3 2643   1.058   0.159   2.849 -0.1407  0.1483 -0.2170
  180HFI     C3 2644   1.119   0.208   3.116  0.7211  0.7755 -0.9782
  180HFI     F4 2645   1.002   0.144   3.085 -0.4799 -0.2293 -0.1252
  180HFI     F5 2646   1.098   0.341   3.120  0.1951  0.3214  0.2639
  180HFI     F6 2647   1.142   0.170   3.246  0.0194 -0.1211  0.5411
  180HFI     H1 2648   1.363   0.304   2.990 -1.5157 -0.1015 -1.0930
  180HFI     H2 2649   1.234   0.062   3.019  1.0785 -0.1331  1.2058
  181HFI     O1 2650   1.295   3.204   3.428  0.4946  0.1302  0.3783
  181HFI     C1 2651   1.406   3.146   3.349 -0.5585  0.7159 -0.2326
  181HFI     C2 2652   1.412   3.198   3.199  0.1090  0.0844  0.2612
  181HFI     F1 2653   1.424   3.333   3.207 -0.2211  0.0525 -0.4319
  181HFI     F2 2654   1.299   3.165   3.131  0.2990 -0.0031  0.1516
  181HFI     F3 2655   1.522   3.164   3.129  0.8051  0.0193  0.0247
  181HFI     C3 2656   1.409   2.988   3.353  0.7424 -0.3958  0.3301
  181HFI     F4 2657   1.500   2.928   3.281 -0.3827 -0.0243  0.0382
  181HFI     F5 2658   1.293   2.935   3.313 -0.0295  0.1248 -0.1228
  181HFI     F6 2659   1.431   2.948   3.483 -0.3853  0.2451 -0.1689
  181HFI     H1 2660   1.292   3.300   3.413  1.1392  0.2165  0.7558
  181HFI     H2 2661   1.507   3.166   3.385 -0.6460 -2.8351  2.1790
  182HFI     O1 2662   2.546   1.650   2.387 -0.0014  0.3706  0.2882
  182HFI     C1 2663   2.405   1.608   2.385 -1.0465  0.0331 -0.1680
  182HFI     C2 2664   2.359   1.593   2.246 -0.1877  0.1876  0.2686
  182HFI     F1 2665   2.227   1.569   2.236 -0.2504 -0.2717  0.0025
  182HFI     F2 2666   2.417   1.489   2.182 -0.3762 -0.6009  0.2889
  182HFI     F3 2667   2.379   1.703   2.175 -0.1709  0.0210 -0.5527
  182HFI     C3 2668   2.323   1.702   2.477  0.1060 -1.0112  0.1719
  182HFI     F4 2669   2.308   1.832   2.418  0.1456  0.5422 -0.2014
  182HFI     F5 2670   2.394   1.718   2.596  0.1176  0.1669  0.2825
  182HFI     F6 2671   2.199   1.660   2.498  0.1529  0.1793 -0.6905
  182HFI     H1 2672   2.598   1.592   2.328  1.2985  0.7569  1.0318
  182HFI     H2 2673   2.389   1.512   2.437 -0.7587  0.7628  1.2870
  183HFI     O1 2674   2.400   3.378   0.214 -0.1032 -0.0038 -0.5790
  183HFI     C1 2675   2.428   3.441   0.085 -0.5274 -0.3327 -0.3897
  183HFI     C2 2676   2.454   3.333  -0.024 -0.0243  0.3624  0.1229
  183HFI     F1 2677   2.471   3.392  -0.145  0.2203 -0.4500 -0.3291
  183HFI     F2 2678   2.340   3.256  -0.033 -0.4763 -0.0972  0.4984
  183HFI     F3 2679   2.556   3.249  -0.001 -0.7139 -0.1450 -0.4403
  183HFI     C3 2680   2.550   3.538   0.087  1.0739  0.2071 -1.1918
  183HFI     F4 2681   2.669   3.472   0.098 -0.6095  0.0612 -0.3133
  183HFI     F5 2682   2.549   3.623   0.195  0.0812 -0.2211  0.6376
  183HFI     F6 2683   2.549   3.612  -0.026  0.3884 -0.2579  0.4266
  183HFI     H1 2684   2.478   3.321   0.231  0.5657  1.1957  0.4239
  183HFI     H2 2685   2.338   3.496   0.052 -1.8273 -2.7403 -0.9481
  184HFI     O1 2686   1.312   2.616   2.733 -0.0718  0.1354 -0.2878
  184HFI     C1 2687   1.317   2.727   2.824  0.5506 -0.0122 -0.1655
  184HFI     C2 2688   1.401   2.689   2.950  0.3409 -0.0862 -0.5125
  184HFI     F1 2689   1.527   2.661   2.909  0.2548  0.2070  0.1663
  184HFI     F2 2690   1.347   2.575   3.011 -0.0024  0.2657  0.0105
  184HFI     F3 2691   1.410   2.788   3.038  0.0736 -0.5695  0.4226
  184HFI     C3 2692   1.174   2.770   2.851 -0.9886  1.0910 -0.1796
  184HFI     F4 2693   1.159   2.876   2.935 -0.4650 -0.0698 -0.1250
  184HFI     F5 2694   1.098   2.674   2.899  0.3101  0.6640 -0.4959
  184HFI     F6 2695   1.118   2.810   2.735  0.1308  0.1916  1.0807
  184HFI     H1 2696   1.236   2.556   2.749 -0.0843  0.1843 -0.1622
  184HFI     H2 2697   1.374   2.814   2.787 -1.3154  1.1811 -0.3199
  185HFI     O1 2698   2.475   2.152   2.519 -0.4119 -0.1992  0.3719
  185HFI     C1 2699   2.584   2.171   2.425  0.2878  0.3326  0.6381
  185HFI     C2 2700   2.592   2.305   2.346  0.9976  0.8565 -0.1401
  185HFI     F1 2701   2.707   2.314   2.275 -0.5789 -0.1041  0.0052
  185HFI     F2 2702   2.595   2.415   2.435  0.1059  0.4247  0.7496
  185HFI     F3 2703   2.480   2.325   2.254 -0.0845 -0.0006 -0.5303
  185HFI     C3 2704   2.574   2.045   2.331  0.2377 -0.1048 -0.8934
  185HFI     F4 2705   2.570   1.928   2.398  0.4904  0.3276 -0.0151
  185HFI     F5 2706   2.689   2.036   2.262  0.5726  0.2138  0.2345
  185HFI     F6 2707   2.463   2.053   2.246 -0.5861  0.5548 -0.6793
  185HFI     H1 2708   2.392   2.172   2.473  0.3605 -1.0771 -1.4212
  185HFI     H2 2709   2.686   2.156   2.463  0.5888  2.1757  0.6203
  186HFI     O1 2710   0.237   2.364   2.341 -0.2491  0.0674  0.1168
  186HFI     C1 2711   0.275   2.477   2.262 -0.1914 -0.4041  0.0170
  186HFI     C2 2712   0.432   2.493   2.273 -0.3199  0.9920 -0.2524
  186HFI     F1 2713   0.488   2.393   2.199 -0.3732  0.1655 -0.6551
  186HFI     F2 2714   0.476   2.481   2.395 -0.0863 -0.1586  0.6072
  186HFI     F3 2715   0.477   2.615   2.232 -0.1870 -0.4181  0.5808
  186HFI     C3 2716   0.196   2.605   2.291  0.1571  0.1016  0.3087
  186HFI     F4 2717   0.239   2.716   2.227  0.2334  0.1794 -0.9783
  186HFI     F5 2718   0.197   2.627   2.430 -0.4906 -0.7404 -0.2232
  186HFI     F6 2719   0.070   2.591   2.254 -0.0319  0.0114  0.5091
  186HFI     H1 2720   0.256   2.380   2.435  0.1136  0.4793 -0.0271
  186HFI     H2 2721   0.256   2.455   2.156 -0.8699 -0.1558  0.0838
  187HFI     O1 2722   3.378   1.538   2.751 -0.2335  0.1349  0.4418
  187HFI     C1 2723   3.322   1.408   2.780 -0.1612  0.2133 -0.3450
  187HFI     C2 2724   3.360   1.308   2.669  0.3705  0.4271 -0.0645
  187HFI     F1 2725   3.489   1.318   2.646  0.2722  0.0601 -0.0504
  187HFI     F2 2726   3.294   1.341   2.549  0.2094 -0.2865 -0.3856
  187HFI     F3 2727   3.324   1.184   2.706  0.3925  0.5027  0.0825
  187HFI     C3 2728   3.166   1.428   2.813  0.2528  0.0530  0.5732
  187HFI     F4 2729   3.095   1.317   2.809 -0.2243  0.1494 -0.1395
  187HFI     F5 2730   3.100   1.514   2.731  0.2708  0.0526 -0.5576
  187HFI     F6 2731   3.148   1.485   2.939  0.1045 -0.2197  0.1898
  187HFI     H1 2732   3.313   1.609   2.762 -0.7963  0.2976 -3.4374
  187HFI     H2 2733   3.355   1.386   2.882  0.0335  0.8650 -0.2655
  188HFI     O1 2734   2.061   1.946   2.451  0.1005 -0.2047 -0.0828
  188HFI     C1 2735   1.993   2.056   2.378 -0.3006 -0.4052  0.1673
  188HFI     C2 2736   2.099   2.142   2.303 -0.1703  0.0571  0.9049
  188HFI     F1 2737   2.043   2.255   2.249 -0.1824 -0.2641 -0.2180
  188HFI     F2 2738   2.142   2.072   2.196 -0.0095 -0.2014 -0.3549
  188HFI     F3 2739   2.201   2.171   2.390  0.1494 -0.2647 -0.5544
  188HFI     C3 2740   1.917   2.131   2.485  0.1039  0.4147  0.0227
  188HFI     F4 2741   1.818   2.206   2.438  0.0207  0.1127  0.4802
  188HFI     F5 2742   1.999   2.203   2.565  0.1121 -0.1361  0.2462
  188HFI     F6 2743   1.851   2.040   2.561  0.0155  0.2404 -0.6203
  188HFI     H1 2744   2.153   1.972   2.469  0.3752 -1.2455  0.0587
  188HFI     H2 2745   1.921   2.027   2.300 -1.8384  2.1776  0.5630
  189HFI     O1 2746   1.884   2.962   2.625  0.5683  0.1926 -0.5249
  189HFI     C1 2747   1.948   2.948   2.762  0.4170 -0.3505 -0.0819
  189HFI     C2 2748   2.081   2.872   2.771 -0.6102 -0.6910 -0.2451
  189HFI     F1 2749   2.164   2.907   2.663 -0.0035 -0.0871 -0.6844
  189HFI     F2 2750   2.066   2.743   2.756  0.1092 -0.1257 -0.1805
  189HFI     F3 2751   2.141   2.897   2.889  0.1322 -0.3356 -0.4418
  189HFI     C3 2752   1.840   2.905   2.865 -0.1390 -0.0651  0.7539
  189HFI     F4 2753   1.748   3.005   2.875  0.5654 -0.0208 -0.7332
  189HFI     F5 2754   1.887   2.877   2.986  0.1930  0.4078  1.0857
  189HFI     F6 2755   1.776   2.806   2.804 -0.4216 -0.1813  0.6245
  189HFI     H1 2756   1.912   2.886   2.572  0.6917 -1.1698  1.4483
  189HFI     H2 2757   1.978   3.048   2.798  0.1346  0.5264 -2.2295
  190HFI     O1 2758   1.646   0.936   3.266  0.2986  0.2306  0.7760
  190HFI     C1 2759   1.781   0.982   3.278 -0.9978  0.7506  0.0023
  190HFI     C2 2760   1.819   1.064   3.158 -0.3392  0.0755 -0.0617
  190HFI     F1 2761   1.798   0.998   3.039  0.2811 -0.7034 -0.1788
  190HFI     F2 2762   1.950   1.100   3.163 -0.1630  0.2779 -0.1815
  190HFI     F3 2763   1.753   1.178   3.155 -0.1693 -0.5857 -0.2815
  190HFI     C3 2764   1.880   0.864   3.288 -0.5131 -0.1952 -0.4399
  190HFI     F4 2765   1.835   0.768   3.375  0.0350 -0.4617 -0.1482
  190HFI     F5 2766   2.008   0.895   3.335  0.3335  0.2024 -0.0555
  190HFI     F6 2767   1.904   0.796   3.167  0.0634 -1.0760 -0.6114
  190HFI     H1 2768   1.642   0.855   3.212  2.1153 -0.1006  1.1056
  190HFI     H2 2769   1.783   1.049   3.365  0.4846  1.5542 -0.6299
  191HFI     O1 2770   2.127   1.879   3.483  1.0493  0.0875  0.3024
  191HFI     C1 2771   2.044   1.995   3.454 -0.7247 -0.3358 -0.0087
  191HFI     C2 2772   1.900   1.966   3.418  0.5183 -0.1041 -0.5780
  191HFI     F1 2773   1.812   2.047   3.477 -0.1562 -0.0213  0.2118
  191HFI     F2 2774   1.868   1.836   3.468 -0.1793 -0.3262  0.0081
  191HFI     F3 2775   1.882   1.958   3.285 -0.4754  0.2508 -0.1329
  191HFI     C3 2776   2.114   2.101   3.353 -0.5334 -0.0898  0.2307
  191HFI     F4 2777   2.224   2.162   3.411  0.4125 -0.0771 -0.6830
  191HFI     F5 2778   2.034   2.199   3.311  0.6303  0.0419 -0.0541
  191HFI     F6 2779   2.158   2.025   3.250 -0.0640  0.6254  0.0988
  191HFI     H1 2780   2.107   1.806   3.421 -0.1298  0.3117  0.4247
  191HFI     H2 2781   2.046   2.054   3.546  1.2234 -1.9259  0.9779
  192HFI     O1 2782   1.693   0.726   0.140  0.1625  0.0365  0.0824
  192HFI     C1 2783   1.628   0.812   0.041  0.1740 -0.8033  0.1685
  192HFI     C2 2784   1.476   0.814   0.052  0.6167  0.1112  0.1280
  192HFI     F1 2785   1.446   0.836   0.178  0.1432  0.2273 -0.1270
  192HFI     F2 2786   1.426   0.698   0.020  0.2278 -0.0383  0.3924
  192HFI     F3 2787   1.422   0.907  -0.025 -0.4207 -0.2440 -0.3308
  192HFI     C3 2788   1.680   0.776  -0.101  0.2611  0.1413  0.1553
  192HFI     F4 2789   1.650   0.868  -0.196  0.4629 -0.2615  0.1378
  192HFI     F5 2790   1.645   0.652  -0.149 -0.2940  0.1692 -0.1522
  192HFI     F6 2791   1.814   0.779  -0.094  0.5983 -0.2109  0.0680
  192HFI     H1 2792   1.630   0.713   0.213 -2.0796 -0.8768 -1.9724
  192HFI     H2 2793   1.668   0.913   0.061  1.1326 -0.5490 -2.6721
  193HFI     O1 2794   0.718   3.436   2.956 -0.1430 -0.2122  0.3997
  193HFI     C1 2795   0.610   3.515   2.888 -0.7666  0.0913  1.0360
  193HFI     C2 2796   0.521   3.424   2.801  0.1254 -0.2078  0.5367
  193HFI     F1 2797   0.591   3.348   2.709 -0.4188  0.1440 -0.4201
  193HFI     F2 2798   0.422   3.492   2.737  0.5969  0.0981 -0.0603
  193HFI     F3 2799   0.459   3.333   2.885  0.3882  0.2711 -0.2669
  193HFI     C3 2800   0.678   3.629   2.801  0.4870  0.2809  0.9878
  193HFI     F4 2801   0.760   3.703   2.883 -0.1072  0.2872  0.1824
  193HFI     F5 2802   0.582   3.712   2.748  0.5886 -0.1819 -0.1243
  193HFI     F6 2803   0.749   3.577   2.698  0.1277  0.2292 -0.3620
  193HFI     H1 2804   0.729   3.468   3.047  1.3494 -1.3871  0.6650
  193HFI     H2 2805   0.548   3.561   2.967 -0.2967  1.3323  0.6945
  194HFI     O1 2806   1.372   0.081   2.502 -0.2821 -0.3457  0.5750
  194HFI     C1 2807   1.482   0.168   2.463 -0.1622 -0.1212  0.1258
  194HFI     C2 2808   1.495   0.295   2.560  0.2731 -0.0766 -0.0483
  194HFI     F1 2809   1.395   0.384   2.554 -0.7615  0.2277 -0.4647
  194HFI     F2 2810   1.610   0.357   2.533  0.5664 -0.1710 -0.6385
  194HFI     F3 2811   1.504   0.256   2.689  0.0876 -0.0009  0.2199
  194HFI     C3 2812   1.495   0.187   2.305 -0.3042 -0.3346 -0.6881
  194HFI     F4 2813   1.619   0.235   2.271 -0.4751 -0.2680  0.6973
  194HFI     F5 2814   1.401   0.273   2.251 -0.3676 -0.2085 -0.3539
  194HFI     F6 2815   1.476   0.065   2.246 -0.1193 -0.5879 -0.1739
  194HFI     H1 2816   1.290   0.113   2.460 -0.3037  0.9956  1.6095
  194HFI     H2 2817   1.575   0.111   2.476  0.4774  1.3441  2.2807
  195HFI     O1 2818   2.155   2.707   3.208  0.5768  0.2320 -0.3663
  195HFI     C1 2819   2.065   2.616   3.293  0.2109 -0.4769  0.1635
  195HFI     C2 2820   2.149   2.533   3.395 -0.0106 -0.1110 -1.0788
  195HFI     F1 2821   2.244   2.468   3.327 -0.3927 -0.4479  0.1147
  195HFI     F2 2822   2.077   2.455   3.472 -0.0774  0.2901 -0.2161
  195HFI     F3 2823   2.211   2.611   3.479  0.0237  0.0685 -0.2056
  195HFI     C3 2824   1.976   2.522   3.200  0.0753 -0.0454  0.1063
  195HFI     F4 2825   1.898   2.586   3.111  0.1023  0.0784  0.1729
  195HFI     F5 2826   1.896   2.447   3.279 -0.2912  0.2801 -0.4794
  195HFI     F6 2827   2.052   2.433   3.129 -0.3823  0.4857  0.5433
  195HFI     H1 2828   2.225   2.739   3.268 -1.0879  0.8573  1.3188
  195HFI     H2 2829   1.992   2.679   3.346  0.7283 -0.6075  1.0335
  196HFI     O1 2830   0.064   0.831   2.281  0.1879 -0.6124  0.0266
  196HFI     C1 2831   0.129   0.962   2.248  0.1756  0.3279 -0.3337
  196HFI     C2 2832   0.290   0.959   2.262 -0.1203 -0.2472 -0.2259
  196HFI     F1 2833   0.342   0.874   2.170 -0.3440 -0.0010 -0.3018
  196HFI     F2 2834   0.330   0.915   2.384  0.4154 -0.1950  0.4019
  196HFI     F3 2835   0.351   1.078   2.240 -0.2613 -0.1110  0.1368
  196HFI     C3 2836   0.066   1.080   2.329 -0.0524 -0.2028 -0.9106
  196HFI     F4 2837   0.132   1.102   2.448 -0.6844  0.1511 -0.0482
  196HFI     F5 2838  -0.062   1.063   2.362 -0.1112 -0.4385  0.2759
  196HFI     F6 2839   0.080   1.196   2.263 -0.3293  0.3050  0.4171
  196HFI     H1 2840   0.122   0.758   2.255 -0.6948 -1.4303  0.3492
  196HFI     H2 2841   0.116   0.984   2.142 -2.4110 -4.6949 -1.2209
  197HFI     O1 2842   1.553   1.003   2.900 -0.8533 -0.1987  0.1157
  197HFI     C1 2843   1.417   1.049   2.889 -0.1642  0.2544  0.3012
  197HFI     C2 2844   1.384   1.101   2.742 -0.0771 -0.2681  0.0258
  197HFI     F1 2845   1.383   1.002   2.653  0.1085 -0.5015  0.8317
  197HFI     F2 2846   1.480   1.191   2.691 -0.1016  0.5255  0.1494
  197HFI     F3 2847   1.270   1.168   2.731 -0.1871  0.2292 -0.6291
  197HFI     C3 2848   1.389   1.156   2.999 -0.1741 -0.3947  0.0651
  197HFI     F4 2849   1.454   1.265   2.980 -0.1805  0.4607  0.3376
  197HFI     F5 2850   1.429   1.114   3.127  0.4355  0.3319  0.5038
  197HFI     F6 2851   1.257   1.196   3.005 -0.5375  0.2300 -0.4488
  197HFI     H1 2852   1.614   1.069   2.863 -0.3855 -1.0174 -0.6045
  197HFI     H2 2853   1.358   0.958   2.911  0.5663 -0.3492 -0.2187
  198HFI     O1 2854   2.722   2.327   2.828 -0.2631 -0.0526  0.5682
  198HFI     C1 2855   2.855   2.276   2.816 -0.3566 -0.4181  0.4205
  198HFI     C2 2856   2.938   2.303   2.946 -0.2078  0.0215 -0.0704
  198HFI     F1 2857   2.878   2.243   3.056 -0.3946 -0.3943  0.3872
  198HFI     F2 2858   2.945   2.435   2.981 -0.2592 -0.0342  0.3935
  198HFI     F3 2859   3.066   2.256   2.948 -0.5625 -0.2944 -0.0096
  198HFI     C3 2860   2.923   2.337   2.695  0.0338 -0.0153  0.3625
  198HFI     F4 2861   2.950   2.470   2.701 -0.0901 -0.2744  0.2164
  198HFI     F5 2862   2.854   2.311   2.576  0.2853  1.0188  0.2995
  198HFI     F6 2863   3.042   2.278   2.673  0.0165 -0.6562  0.5313
  198HFI     H1 2864   2.682   2.296   2.911  1.4740 -0.7932  1.1325
  198HFI     H2 2865   2.837   2.169   2.799 -3.3526 -0.0574  1.0089
  199HFI     O1 2866   0.272   3.008   0.587  0.0809  0.1560  0.4125
  199HFI     C1 2867   0.216   3.115   0.510 -0.4373  0.1629 -0.2852
  199HFI     C2 2868   0.239   3.247   0.583 -0.0153 -0.7771 -0.1241
  199HFI     F1 2869   0.138   3.284   0.666 -0.5548  0.4976  0.1683
  199HFI     F2 2870   0.244   3.343   0.488  0.0566 -0.5324 -0.3824
  199HFI     F3 2871   0.350   3.244   0.652  0.1736  0.2932 -0.1847
  199HFI     C3 2872   0.073   3.088   0.451 -0.2179  0.0040  0.8689
  199HFI     F4 2873  -0.018   3.089   0.551 -0.2364  0.1600  0.3638
  199HFI     F5 2874   0.064   2.966   0.389 -0.4243 -0.0442 -0.3564
  199HFI     F6 2875   0.041   3.179   0.359 -0.4052  0.2599  0.3830
  199HFI     H1 2876   0.293   3.045   0.675  1.1807  0.4504  0.0407
  199HFI     H2 2877   0.271   3.127   0.415 -1.5506  0.9929 -0.8338
  200HFI     O1 2878   2.839   1.196   3.029  0.0221  0.4550 -0.2332
  200HFI     C1 2879   2.776   1.315   3.096 -0.6278 -0.2524  0.1962
  200HFI     C2 2880   2.669   1.273   3.199 -0.1979 -0.3383  0.3661
  200HFI     F1 2881   2.555   1.218   3.143  0.0801 -0.1195 -0.0552
  200HFI     F2 2882   2.628   1.388   3.262  0.2231  0.6575  0.4659
  200HFI     F3 2883   2.713   1.191   3.292 -0.4677 -0.2179 -0.3159
  200HFI     C3 2884   2.712   1.421   2.996 -0.2734  0.4340  0.4144
  200HFI     F4 2885   2.591   1.387   2.951 -0.4959 -0.1354 -0.5463
  200HFI     F5 2886   2.796   1.434   2.889 -0.0912  0.3214  0.0707
  200HFI     F6 2887   2.703   1.544   3.050  0.1834 -0.0278 -0.7401
  200HFI     H1 2888   2.799   1.197   2.940  0.5559  1.0954 -0.4731
  200HFI     H2 2889   2.850   1.363   3.162 -1.0491  0.7065 -0.0243
  201HFI     O1 2890   3.271   0.202   2.884 -0.3784  0.3195 -0.0381
  201HFI     C1 2891   3.417   0.177   2.878 -0.5971 -0.3982  0.1850
  201HFI     C2 2892   3.450   0.028   2.876 -0.6032 -0.2469  0.4360
  201HFI     F1 2893   3.427  -0.031   2.754  0.1203  0.2491 -0.2748
  201HFI     F2 2894   3.381  -0.039   2.965  0.1376  0.3676 -0.4599
  201HFI     F3 2895   3.580   0.011   2.898  0.0417  0.5513  0.0214
  201HFI     C3 2896   3.496   0.243   3.001  0.2694  0.2958  0.2265
  201HFI     F4 2897   3.459   0.189   3.119 -0.1716 -0.2155 -0.1401
  201HFI     F5 2898   3.468   0.375   3.013  0.0121  0.0308  0.0563
  201HFI     F6 2899   3.633   0.236   2.991  0.1961  0.1266  0.1178
  201HFI     H1 2900   3.254   0.296   2.899 -3.7447  0.1592 -2.3537
  201HFI     H2 2901   3.454   0.221   2.785 -1.5887 -0.6289 -0.3225
  202HFI     O1 2902   3.124   3.256   3.071  0.1772  0.3839 -0.3016
  202HFI     C1 2903   3.048   3.368   3.016 -0.3975  0.6486  0.2442
  202HFI     C2 2904   2.921   3.406   3.102 -0.5094  0.2779  0.4395
  202HFI     F1 2905   2.822   3.318   3.087  0.3896 -0.0353 -0.0105
  202HFI     F2 2906   2.877   3.527   3.066 -0.3195 -0.1161  0.6419
  202HFI     F3 2907   2.959   3.407   3.236 -0.2335  0.0743  0.0905
  202HFI     C3 2908   3.020   3.352   2.860  0.6568  0.6958  0.0938
  202HFI     F4 2909   3.134   3.348   2.793  0.0419  0.4574  0.1059
  202HFI     F5 2910   2.952   3.456   2.810  0.2115 -0.5414  0.2409
  202HFI     F6 2911   2.955   3.240   2.823  0.1759  0.3603  0.1439
  202HFI     H1 2912   3.200   3.241   3.013  1.1817  1.9032  0.5827
  202HFI     H2 2913   3.112   3.457   3.015  1.2558 -0.5218 -0.5920
  203HFI     O1 2914   3.278   1.009   3.330  0.1598 -0.3729  0.0655
  203HFI     C1 2915   3.357   1.118   3.285  0.9731 -0.3519 -0.6803
  203HFI     C2 2916   3.276   1.247   3.301 -0.0611 -0.1924 -0.0725
  203HFI     F1 2917   3.237   1.266   3.427 -0.2068 -0.3189 -0.1366
  203HFI     F2 2918   3.165   1.234   3.219 -0.2928 -0.0423  0.3803
  203HFI     F3 2919   3.343   1.364   3.268  0.1914  0.0854 -0.4727
  203HFI     C3 2920   3.415   1.091   3.144  0.1354  0.2969 -0.2613
  203HFI     F4 2921   3.510   0.992   3.143  0.4352 -0.4417  0.2113
  203HFI     F5 2922   3.471   1.197   3.093 -0.5174  0.2672  0.2366
  203HFI     F6 2923   3.318   1.058   3.054  0.5461 -0.1044 -0.0809
  203HFI     H1 2924   3.194   1.024   3.284  1.9529 -0.3334 -3.3997
  203HFI     H2 2925   3.449   1.133   3.343  0.4416  1.3160 -0.2286
  204HFI     O1 2926   0.050   0.706   3.180  0.1031  0.6947  0.5303
  204HFI     C1 2927   0.060   0.635   3.306 -0.5297 -0.3700 -0.3888
  204HFI     C2 2928  -0.081   0.596   3.351  0.1135  0.1960 -0.7380
  204HFI     F1 2929  -0.155   0.708   3.376 -0.1703  0.3256  0.2609
  204HFI     F2 2930  -0.081   0.525   3.467 -0.2278  0.1839 -0.2878
  204HFI     F3 2931  -0.143   0.515   3.259  0.0262 -0.1255 -0.4310
  204HFI     C3 2932   0.143   0.722   3.408 -0.5119 -0.0532  0.3231
  204HFI     F4 2933   0.105   0.854   3.425 -0.6623  0.1548 -0.3993
  204HFI     F5 2934   0.270   0.732   3.362  0.0529 -0.2384 -0.5287
  204HFI     F6 2935   0.143   0.664   3.531 -0.3776 -0.0275 -0.6166
  204HFI     H1 2936   0.030   0.799   3.201  0.0562  1.0113 -0.8805
  204HFI     H2 2937   0.114   0.541   3.294 -0.2073 -0.0736 -1.3609
  205HFI     O1 2938   0.884   0.719   3.047 -0.3542 -0.8713 -0.1661
  205HFI     C1 2939   0.919   0.813   2.942  0.3267  0.8206 -0.4910
  205HFI     C2 2940   0.974   0.738   2.819 -0.3405 -0.5531 -0.0644
  205HFI     F1 2941   0.878   0.672   2.745 -0.3742 -0.1449 -0.7634
  205HFI     F2 2942   1.072   0.651   2.861  0.3390  0.1857  0.2531
  205HFI     F3 2943   1.035   0.827   2.734  0.3435 -0.2498  0.3342
  205HFI     C3 2944   0.998   0.931   3.002  0.1171  0.1700 -0.1510
  205HFI     F4 2945   1.123   0.906   3.045  0.2955  0.6143  0.0502
  205HFI     F5 2946   0.932   0.995   3.103 -0.5499 -0.2465  0.5764
  205HFI     F6 2947   1.010   1.026   2.913  0.6286  0.2284  0.5896
  205HFI     H1 2948   0.973   0.697   3.080  0.1056 -1.1172 -1.5455
  205HFI     H2 2949   0.825   0.857   2.907  0.9487  0.6797 -2.4058
  206HFI     O1 2950   2.852   0.400   3.535  0.1795 -0.1137  0.3216
  206HFI     C1 2951   2.757   0.319   3.461 -0.0568  0.3164 -0.1230
  206HFI     C2 2952   2.790   0.296   3.303 -0.1222  0.2086  0.5384
  206HFI     F1 2953   2.918   0.258   3.284 -0.0315 -0.3174  0.1046
  206HFI     F2 2954   2.789   0.417   3.239 -0.2174 -0.3931  0.6134
  206HFI     F3 2955   2.706   0.210   3.246  0.3365  0.1275 -0.3067
  206HFI     C3 2956   2.601   0.360   3.484  0.2496 -0.1290 -0.5012
  206HFI     F4 2957   2.521   0.250   3.478 -0.6147  0.1361 -0.0619
  206HFI     F5 2958   2.549   0.438   3.386 -0.0968 -0.6258 -0.6798
  206HFI     F6 2959   2.580   0.422   3.602 -0.2592  0.1274 -0.3704
  206HFI     H1 2960   2.820   0.491   3.534 -0.1087 -0.2151 -1.8735
  206HFI     H2 2961   2.757   0.218   3.504 -0.4859  0.0233 -0.8161
  207HFI     O1 2962   0.304   0.955   2.666  0.4585 -0.0684  0.6290
  207HFI     C1 2963   0.418   1.009   2.737 -0.1403 -0.0547 -0.1015
  207HFI     C2 2964   0.487   0.905   2.817  0.0078  0.1494 -0.6183
  207HFI     F1 2965   0.401   0.849   2.908  0.6420  0.0285 -0.0285
  207HFI     F2 2966   0.601   0.938   2.882 -0.1789 -0.3686 -0.2609
  207HFI     F3 2967   0.523   0.808   2.733  0.1908 -0.4838 -0.0950
  207HFI     C3 2968   0.378   1.133   2.827  0.6425 -0.3657 -0.2380
  207HFI     F4 2969   0.327   1.097   2.948 -0.4141 -0.4070 -0.0953
  207HFI     F5 2970   0.284   1.210   2.769  0.3681 -0.3663  0.4363
  207HFI     F6 2971   0.486   1.208   2.852  0.0684 -0.3098  0.2813
  207HFI     H1 2972   0.238   0.917   2.727  1.4596  0.9491  2.3895
  207HFI     H2 2973   0.493   1.047   2.667  0.4865  0.0474  0.6232
  208HFI     O1 2974   2.605   1.671   2.815 -0.0840  0.8296  0.4310
  208HFI     C1 2975   2.696   1.786   2.844  0.2349  0.1114 -0.4132
  208HFI     C2 2976   2.610   1.900   2.909  0.3098 -0.2856  0.0528
  208HFI     F1 2977   2.510   1.928   2.825  0.7041  0.6039  0.6593
  208HFI     F2 2978   2.671   2.014   2.938  0.6406 -0.1646 -0.4027
  208HFI     F3 2979   2.557   1.860   3.021  0.7227  0.8844  0.1802
  208HFI     C3 2980   2.791   1.833   2.737  0.2132  0.1193 -0.3799
  208HFI     F4 2981   2.878   1.926   2.787  0.2427  0.2002  0.2128
  208HFI     F5 2982   2.728   1.896   2.644  0.5689 -0.1237 -0.3973
  208HFI     F6 2983   2.854   1.726   2.685 -0.5063 -0.2860 -0.0722
  208HFI     H1 2984   2.534   1.696   2.753 -0.5900 -3.0493 -0.7306
  208HFI     H2 2985   2.765   1.755   2.924  1.2559 -1.3791 -1.8232
  209HFI     O1 2986   0.490   3.108   2.544  0.8636 -0.1126 -0.9535
  209HFI     C1 2987   0.569   3.077   2.423 -0.1580 -0.0610 -0.6288
  209HFI     C2 2988   0.610   3.198   2.342 -0.1425 -0.2757 -0.4221
  209HFI     F1 2989   0.510   3.233   2.257  0.1302 -0.5117 -0.3137
  209HFI     F2 2990   0.723   3.177   2.279  0.1699  0.3270 -0.5107
  209HFI     F3 2991   0.631   3.297   2.433 -0.1662 -0.2965  0.3001
  209HFI     C3 2992   0.496   2.963   2.343 -0.1923 -0.4212  0.6130
  209HFI     F4 2993   0.519   2.846   2.405 -0.5576  0.0722 -1.0435
  209HFI     F5 2994   0.526   2.958   2.218 -0.2029 -0.3560 -0.6319
  209HFI     F6 2995   0.366   2.989   2.343 -0.7335  0.1421 -0.0326
  209HFI     H1 2996   0.523   3.191   2.581  2.3435 -0.2565 -1.9059
  209HFI     H2 2997   0.663   3.027   2.448 -0.3586 -0.1602 -0.0619
  210HFI     O1 2998   0.711   0.693   2.414 -0.1371  0.4227 -0.5051
  210HFI     C1 2999   0.650   0.556   2.411 -0.3723 -0.2644 -0.0000
  210HFI     C2 3000   0.678   0.498   2.269 -0.5190  0.1487 -0.6401
  210HFI     F1 3001   0.637   0.368   2.260  0.2323  0.1511  0.3062
  210HFI     F2 3002   0.813   0.509   2.235  0.7472  0.2486  0.2572
  210HFI     F3 3003   0.616   0.573   2.175  0.0845 -0.2158  0.1386
  210HFI     C3 3004   0.497   0.543   2.460 -0.2568 -0.1446  0.6973
  210HFI     F4 3005   0.457   0.410   2.446  0.2430 -0.0346 -0.0369
  210HFI     F5 3006   0.414   0.616   2.387 -0.1203 -0.3838 -0.0089
  210HFI     F6 3007   0.493   0.579   2.589 -0.6738 -0.6392 -0.1818
  210HFI     H1 3008   0.806   0.685   2.394 -0.2005 -0.6719 -0.4336
  210HFI     H2 3009   0.717   0.497   2.474 -0.8373  0.9551  1.6806
  211HFI     O1 3010   1.040   1.622   3.235  0.0331  0.0715  0.2444
  211HFI     C1 3011   0.967   1.699   3.327  0.3814 -0.9199  0.5417
  211HFI     C2 3012   1.043   1.823   3.379 -0.7058  0.3954 -0.1308
  211HFI     F1 3013   0.984   1.893   3.479  0.4067 -0.5615 -0.6502
  211HFI     F2 3014   1.052   1.917   3.280  0.1259  0.2310  0.0707
  211HFI     F3 3015   1.167   1.785   3.416 -0.4153  0.1880  0.1706
  211HFI     C3 3016   0.906   1.619   3.438  1.0282 -0.1736 -0.1623
  211HFI     F4 3017   0.805   1.681   3.516 -0.4070  0.1776  0.1152
  211HFI     F5 3018   1.006   1.585   3.523 -0.1303  0.2202  0.4417
  211HFI     F6 3019   0.851   1.501   3.388  0.0880 -0.4128  1.0015
  211HFI     H1 3020   1.128   1.607   3.275 -0.9541  0.0258  2.4471
  211HFI     H2 3021   0.877   1.740   3.280  1.6114 -0.8801 -1.8259
  212HFI     O1 3022   1.439   0.077   3.607  0.3828 -0.6278  0.3442
  212HFI     C1 3023   1.409   0.214   3.578 -0.4845 -0.2296  0.4182
  212HFI     C2 3024   1.503   0.273   3.466 -0.5785  0.3224  0.2706
  212HFI     F1 3025   1.503   0.197   3.356  0.2490  0.1478  0.0569
  212HFI     F2 3026   1.634   0.281   3.506 -0.1214 -0.2438 -0.1338
  212HFI     F3 3027   1.459   0.396   3.427  0.4132 -0.1358  0.0746
  212HFI     C3 3028   1.386   0.308   3.698  0.0751 -0.4838  0.1338
  212HFI     F4 3029   1.503   0.384   3.720 -0.4623  0.1075 -0.2824
  212HFI     F5 3030   1.342   0.242   3.813 -0.0804 -0.0330  0.2203
  212HFI     F6 3031   1.292   0.401   3.665  0.0873  0.2399  0.1306
  212HFI     H1 3032   1.429   0.048   3.700  2.5150 -0.9757  0.4914
  212HFI     H2 3033   1.313   0.214   3.525  0.2863 -0.4485 -1.0135
  213HFI     O1 3034   1.701   1.721   2.689  0.3471  0.3787 -0.5997
  213HFI     C1 3035   1.585   1.711   2.776 -0.0657 -0.3244  0.7303
  213HFI     C2 3036   1.541   1.562   2.803  0.3587 -0.0002  0.1804
  213HFI     F1 3037   1.503   1.501   2.691  0.1896  0.0595 -0.0519
  213HFI     F2 3038   1.444   1.548   2.900  0.4118 -0.2528  0.1107
  213HFI     F3 3039   1.645   1.494   2.848 -0.1794  0.1984  0.0394
  213HFI     C3 3040   1.470   1.807   2.743  0.5364 -0.0504  0.3330
  213HFI     F4 3041   1.411   1.824   2.863  0.1364 -0.4413  0.2242
  213HFI     F5 3042   1.383   1.761   2.657 -0.0601 -0.0926 -0.0914
  213HFI     F6 3043   1.518   1.927   2.701 -0.2664 -0.5146 -0.1812
  213HFI     H1 3044   1.687   1.659   2.616  0.9362 -0.4830  0.0063
  213HFI     H2 3045   1.610   1.749   2.876 -1.1505  0.0274  0.8718
  214HFI     O1 3046   1.124   0.655   3.178 -0.0500 -0.4810 -0.2225
  214HFI     C1 3047   1.134   0.681   3.318 -0.0852  0.3386 -0.0665
  214HFI     C2 3048   1.282   0.709   3.359  0.0560 -0.0169 -0.5890
  214HFI     F1 3049   1.355   0.605   3.314 -0.4131  0.3282  0.3575
  214HFI     F2 3050   1.310   0.723   3.484  0.3520  0.3964 -0.5143
  214HFI     F3 3051   1.328   0.812   3.290 -0.1403 -0.7957 -0.8735
  214HFI     C3 3052   1.067   0.568   3.409 -0.1012 -1.0968  0.1218
  214HFI     F4 3053   1.139   0.454   3.407  0.2363 -0.0096  0.1697
  214HFI     F5 3054   0.941   0.539   3.361 -0.4177  0.0273 -0.1111
  214HFI     F6 3055   1.048   0.602   3.534 -0.7086  0.0679 -0.2661
  214HFI     H1 3056   1.182   0.582   3.152  1.1639 -0.1943  1.6452
  214HFI     H2 3057   1.084   0.776   3.340 -0.4406  0.6133 -2.0389
  215HFI     O1 3058   0.844   2.934   2.692 -0.6738  0.2911 -0.2449
  215HFI     C1 3059   0.876   3.019   2.812  0.0216 -0.8344  0.6231
  215HFI     C2 3060   0.757   3.039   2.899 -0.4801 -0.4439 -0.4690
  215HFI     F1 3061   0.720   2.921   2.953  0.2693 -0.0520 -0.3358
  215HFI     F2 3062   0.649   3.080   2.832 -0.7193 -0.4843 -0.2621
  215HFI     F3 3063   0.780   3.125   3.001 -0.6833  0.7337  0.2373
  215HFI     C3 3064   0.953   3.148   2.783 -0.7445  0.0297  0.3070
  215HFI     F4 3065   1.061   3.108   2.710 -0.2436 -0.1279 -0.0127
  215HFI     F5 3066   1.000   3.216   2.889 -0.6295 -0.3967 -0.5816
  215HFI     F6 3067   0.881   3.234   2.704  0.2727  0.7802 -0.3942
  215HFI     H1 3068   0.927   2.916   2.645 -0.7086 -0.0990 -0.1604
  215HFI     H2 3069   0.949   2.970   2.877 -0.1345 -1.3515  0.4168
  216HFI     O1 3070   2.094   3.097   3.176  0.0201  0.0792  0.3509
  216HFI     C1 3071   2.035   3.142   3.305 -0.0755 -0.1142 -0.2560
  216HFI     C2 3072   2.040   3.024   3.409 -1.0826 -0.8249 -0.4781
  216HFI     F1 3073   1.960   2.919   3.378 -0.1298  0.0528  0.3260
  216HFI     F2 3074   2.013   3.056   3.538  0.4077  0.1162  0.6808
  216HFI     F3 3075   2.168   2.970   3.407 -0.4483 -0.0185  0.5355
  216HFI     C3 3076   1.892   3.204   3.286 -0.3225  0.2730 -0.8992
  216HFI     F4 3077   1.813   3.127   3.209 -0.0566 -0.2186 -0.3107
  216HFI     F5 3078   1.897   3.325   3.225 -0.0511  0.3049  0.0385
  216HFI     F6 3079   1.828   3.211   3.408 -0.1251  0.1171  1.0999
  216HFI     H1 3080   2.088   3.165   3.107  0.5783 -0.0123  0.2146
  216HFI     H2 3081   2.101   3.215   3.354  2.3760 -1.9263 -0.8170
  217HFI     O1 3082   3.295   0.586   2.703  0.0527 -0.2309 -0.3153
  217HFI     C1 3083   3.409   0.653   2.773  0.3185  0.5455 -0.2117
  217HFI     C2 3084   3.398   0.804   2.809 -0.0694  0.4296  0.3631
  217HFI     F1 3085   3.473   0.843   2.910  0.0597 -0.2395  0.4288
  217HFI     F2 3086   3.267   0.826   2.849 -0.4105 -0.2504  0.3535
  217HFI     F3 3087   3.424   0.891   2.713  0.0585 -0.1939 -0.2229
  217HFI     C3 3088   3.530   0.629   2.690 -0.3690  0.0442 -0.0136
  217HFI     F4 3089   3.559   0.492   2.672 -0.1734  0.2319 -0.2461
  217HFI     F5 3090   3.641   0.679   2.759 -0.6536 -0.6872 -0.2155
  217HFI     F6 3091   3.511   0.687   2.570 -0.1136  0.1245 -0.0134
  217HFI     H1 3092   3.277   0.643   2.627  2.8055  1.2106  0.0255
  217HFI     H2 3093   3.423   0.624   2.878 -0.7299 -0.6890 -0.4059
  218HFI     O1 3094   3.345   0.279   0.064  0.8762  0.5337  0.2352
  218HFI     C1 3095   3.473   0.217   0.028 -0.0784  0.1168 -0.4520
  218HFI     C2 3096   3.519   0.119   0.143 -0.0963  0.0225 -0.2371
  218HFI     F1 3097   3.459   0.004   0.118 -0.2038  0.3907 -0.4320
  218HFI     F2 3098   3.475   0.159   0.266 -0.2946  0.0234  0.1423
  218HFI     F3 3099   3.652   0.099   0.147  0.1860  0.7684  0.1458
  218HFI     C3 3100   3.590   0.305  -0.030  0.1039  0.3499  0.0974
  218HFI     F4 3101   3.670   0.224  -0.100 -0.1677  0.6704 -0.0439
  218HFI     F5 3102   3.660   0.360   0.071 -0.4355 -0.1691 -0.1705
  218HFI     F6 3103   3.552   0.404  -0.108  0.0450 -0.0848 -0.7285
  218HFI     H1 3104   3.364   0.361   0.113 -1.3426  0.5581  1.0815
  218HFI     H2 3105   3.447   0.146  -0.052 -0.7696 -0.7357  0.5034
  219HFI     O1 3106   0.090   1.894   2.660 -0.0936  0.0717 -0.1875
  219HFI     C1 3107  -0.015   1.987   2.702  0.2124 -0.1356  0.1966
  219HFI     C2 3108   0.048   2.106   2.777 -0.3438  0.3899 -0.4275
  219HFI     F1 3109   0.075   2.097   2.908 -0.4909  0.2661  0.2385
  219HFI     F2 3110  -0.030   2.219   2.761 -0.2958  0.6061 -0.0263
  219HFI     F3 3111   0.161   2.139   2.708 -0.2606  0.2655  0.3842
  219HFI     C3 3112  -0.135   1.924   2.785 -0.0089 -0.3194 -1.0411
  219HFI     F4 3113  -0.179   1.808   2.731 -0.4671  0.3586  0.1706
  219HFI     F5 3114  -0.241   2.007   2.806  0.3085 -0.0809 -0.6729
  219HFI     F6 3115  -0.084   1.889   2.907 -1.0745 -0.0737  0.2294
  219HFI     H1 3116   0.178   1.935   2.654 -0.5590  1.5047  2.2082
  219HFI     H2 3117  -0.059   2.033   2.612 -0.9465  0.2050  0.9196
  220HFI     O1 3118   1.116   0.091   2.420 -0.5409  0.2878 -0.3833
  220HFI     C1 3119   0.987   0.159   2.432  0.5085 -0.1649  0.1635
  220HFI     C2 3120   0.899   0.136   2.306  0.2147  0.3246  0.0767
  220HFI     F1 3121   0.913   0.008   2.262 -0.4701  0.0102 -0.5135
  220HFI     F2 3122   0.937   0.204   2.196  0.3165 -0.6258 -0.6689
  220HFI     F3 3123   0.769   0.159   2.321  0.5821  0.0678  0.2207
  220HFI     C3 3124   1.024   0.310   2.462  0.0020  0.0921  0.2215
  220HFI     F4 3125   1.078   0.332   2.584  1.0397 -0.0254 -0.0487
  220HFI     F5 3126   0.915   0.384   2.465  0.1270 -0.9509 -0.1005
  220HFI     F6 3127   1.112   0.362   2.373  0.2096  0.3885  0.1270
  220HFI     H1 3128   1.097   0.002   2.386  2.3450 -0.8747  0.9199
  220HFI     H2 3129   0.925   0.128   2.518 -0.2381  2.4747  0.6271
  221HFI     O1 3130   1.988   1.939   2.853  0.0314 -0.1893 -0.3110
  221HFI     C1 3131   2.031   1.838   2.951 -0.1588  0.0042 -0.0304
  221HFI     C2 3132   2.127   1.737   2.879 -0.2278  0.6236 -0.0031
  221HFI     F1 3133   2.253   1.783   2.858 -0.2793 -0.3359  0.1657
  221HFI     F2 3134   2.076   1.698   2.756 -0.0080 -0.3964 -0.4442
  221HFI     F3 3135   2.135   1.627   2.957  0.0758 -0.2093 -0.3932
  221HFI     C3 3136   1.914   1.765   3.026 -0.1082 -0.7488  0.4759
  221HFI     F4 3137   1.881   1.643   2.967  0.0864 -0.0092 -0.4833
  221HFI     F5 3138   1.807   1.839   3.026 -0.1639 -0.3219 -0.1736
  221HFI     F6 3139   1.939   1.744   3.154  0.2058 -0.1183  0.4561
  221HFI     H1 3140   1.894   1.961   2.861  0.4525  1.2110  1.1271
  221HFI     H2 3141   2.086   1.884   3.034 -0.1700 -1.7168  0.9555
  222HFI     O1 3142   1.511   2.337   2.922 -0.3192  0.0608 -0.3929
  222HFI     C1 3143   1.652   2.346   2.960  0.2129  0.3545 -0.0670
  222HFI     C2 3144   1.735   2.386   2.836 -0.3917  0.0657 -0.3768
  222HFI     F1 3145   1.676   2.481   2.771 -0.1956 -0.5701  0.2133
  222HFI     F2 3146   1.741   2.282   2.752  0.3851 -0.2026  0.7095
  222HFI     F3 3147   1.861   2.423   2.863  0.5748 -0.0442 -0.7690
  222HFI     C3 3148   1.716   2.211   3.025  0.1172  0.0207  0.6002
  222HFI     F4 3149   1.669   2.107   2.952 -0.1585 -0.0505 -0.1089
  222HFI     F5 3150   1.674   2.205   3.153  0.0142  0.0988 -0.2090
  222HFI     F6 3151   1.852   2.208   3.020 -0.0355  0.4143  0.7508
  222HFI     H1 3152   1.502   2.375   2.833 -0.7674 -1.8662 -1.1876
  222HFI     H2 3153   1.666   2.421   3.038  2.3900 -1.7163  1.5945
  223HFI     O1 3154   0.363   2.351   3.788 -0.2721 -0.1723  0.0569
  223HFI     C1 3155   0.239   2.305   3.857  0.1440 -1.0413 -0.4490
  223HFI     C2 3156   0.202   2.159   3.828  0.0411  0.4323  0.4090
  223HFI     F1 3157   0.135   2.098   3.930 -0.0057 -0.1343 -0.3102
  223HFI     F2 3158   0.313   2.096   3.800 -0.5665  0.3128  0.7879
  223HFI     F3 3159   0.117   2.155   3.723 -0.0869 -0.0991  0.3015
  223HFI     C3 3160   0.123   2.416   3.856  0.5907 -0.2341  0.1762
  223HFI     F4 3161   0.167   2.540   3.882  0.0428  0.3689 -0.0606
  223HFI     F5 3162   0.026   2.378   3.947  0.3497  0.6029 -0.2680
  223HFI     F6 3163   0.065   2.425   3.732 -0.1349 -0.4585  0.8951
  223HFI     H1 3164   0.369   2.307   3.701  1.1405 -1.9790  1.0136
  223HFI     H2 3165   0.258   2.297   3.964 -0.3202 -3.0748 -0.4969
  224HFI     O1 3166   0.654   1.027   3.196 -0.4628 -0.1402 -0.3002
  224HFI     C1 3167   0.542   1.119   3.211  0.6882  0.5001  0.5554
  224HFI     C2 3168   0.592   1.259   3.251 -0.0276  0.1535 -0.4461
  224HFI     F1 3169   0.660   1.314   3.149 -0.2143  0.4872  0.0230
  224HFI     F2 3170   0.675   1.253   3.359  0.1480 -0.0561  0.0997
  224HFI     F3 3171   0.493   1.346   3.283  0.2085 -0.2825 -0.1446
  224HFI     C3 3172   0.439   1.056   3.296 -0.3665  0.0347  0.2762
  224HFI     F4 3173   0.321   1.121   3.311 -0.3475 -0.3101 -0.3380
  224HFI     F5 3174   0.489   1.025   3.415  0.2785 -0.1700 -0.1541
  224HFI     F6 3175   0.405   0.937   3.235 -0.1870 -0.0336 -0.4346
  224HFI     H1 3176   0.693   1.011   3.284 -0.8970 -0.4345 -0.1606
  224HFI     H2 3177   0.499   1.126   3.110  1.0200  0.6300  0.4232
  225HFI     O1 3178   1.485   1.523   3.795 -0.2379  0.0756 -0.3991
  225HFI     C1 3179   1.534   1.434   3.691 -0.0957 -0.0785  0.0865
  225HFI     C2 3180   1.466   1.294   3.689  0.9961 -0.0842 -0.2088
  225HFI     F1 3181   1.337   1.293   3.653 -0.1487 -0.1809 -0.5531
  225HFI     F2 3182   1.468   1.228   3.810 -0.2482  0.2466 -0.0480
  225HFI     F3 3183   1.523   1.220   3.591  0.0742  0.0147 -0.1489
  225HFI     C3 3184   1.685   1.413   3.720  0.0222 -0.1032 -0.4037
  225HFI     F4 3185   1.756   1.356   3.623 -0.4823  0.3058 -0.1547
  225HFI     F5 3186   1.700   1.346   3.839 -0.1446 -0.2112 -0.0544
  225HFI     F6 3187   1.737   1.536   3.737 -0.3508 -0.0238 -0.1618
  225HFI     H1 3188   1.424   1.481   3.859  0.3892 -0.1328  0.0641
  225HFI     H2 3189   1.541   1.476   3.589 -0.4789  1.0742  0.5276
  226HFI     O1 3190   3.031   2.269   2.229  0.2347  0.0499 -0.0441
  226HFI     C1 3191   3.110   2.207   2.338 -0.0591  0.3165  0.2127
  226HFI     C2 3192   3.264   2.216   2.316 -0.1193 -0.4553  0.9624
  226HFI     F1 3193   3.302   2.129   2.226  0.0292  0.4452 -0.0766
  226HFI     F2 3194   3.328   2.194   2.427 -0.2258 -0.1870  0.1884
  226HFI     F3 3195   3.300   2.343   2.268 -0.0557 -0.1547  0.3460
  226HFI     C3 3196   3.064   2.065   2.372 -0.5509  0.4598 -0.1083
  226HFI     F4 3197   3.125   2.016   2.479  0.0606 -0.1166  0.0728
  226HFI     F5 3198   3.081   1.972   2.269 -0.0165 -0.1543 -0.0882
  226HFI     F6 3199   2.930   2.075   2.400 -0.7249 -0.4169  0.3719
  226HFI     H1 3200   2.957   2.310   2.277 -0.4360 -2.3282  1.0501
  226HFI     H2 3201   3.097   2.266   2.429 -1.1763 -0.4375  0.5464
  227HFI     O1 3202   1.096   1.390   2.322 -0.5973 -0.3172 -0.2973
  227HFI     C1 3203   1.225   1.334   2.383  0.3518  0.2164  0.2808
  227HFI     C2 3204   1.341   1.428   2.364  0.2400  0.7125  0.3308
  227HFI     F1 3205   1.358   1.456   2.232  0.4822 -0.4455  0.2447
  227HFI     F2 3206   1.452   1.380   2.416 -0.5712  0.3578  0.5407
  227HFI     F3 3207   1.302   1.543   2.431  0.3448  0.6987  0.3512
  227HFI     C3 3208   1.248   1.186   2.338  0.0727 -0.2294 -0.1296
  227HFI     F4 3209   1.313   1.176   2.225  0.0370 -0.5423  0.2569
  227HFI     F5 3210   1.136   1.119   2.323 -0.5396 -0.3396 -0.1821
  227HFI     F6 3211   1.317   1.121   2.431  0.4605 -0.0043 -0.0942
  227HFI     H1 3212   1.112   1.477   2.281  1.6284 -0.6433 -0.1636
  227HFI     H2 3213   1.217   1.335   2.492 -1.3595 -0.2076  0.1729
  228HFI     O1 3214   2.320   2.264   2.729  0.5852 -0.5165 -0.5841
  228HFI     C1 3215   2.284   2.335   2.854  0.2716  0.4726  0.2825
  228HFI     C2 3216   2.311   2.485   2.840  0.1047  0.0511 -0.4532
  228HFI     F1 3217   2.440   2.517   2.839  0.1929  0.3425  0.2043
  228HFI     F2 3218   2.265   2.541   2.950  0.6193  0.5012  1.0356
  228HFI     F3 3219   2.246   2.547   2.747 -0.1887  0.4764  0.3585
  228HFI     C3 3220   2.344   2.268   2.985  0.1024 -0.0580  0.6321
  228HFI     F4 3221   2.480   2.281   2.982  0.4665 -0.3397 -0.3530
  228HFI     F5 3222   2.321   2.130   2.988 -0.4472  0.0007 -0.0250
  228HFI     F6 3223   2.290   2.318   3.100 -0.2248 -0.1548  0.0187
  228HFI     H1 3224   2.417   2.263   2.724  0.6368 -2.7839  0.1078
  228HFI     H2 3225   2.175   2.329   2.865  0.3371 -1.5243 -0.0956
   3.40320   3.43847   3.80000
