cutoff-scheme = Verlet
nstlist = 20
rlist = 1.0
coulombtype = PME
rcoulomb = 1.0
vdwtype = Cut-off
rvdw = 1.0
DispCorr = EnerPres
pbc = xyz
fourierspacing = 0.12
ewald-rtol = 1e-4
pme-order = 4
constraints = h-bonds
constraint-algorithm = lincs
lincs-order = 6
lincs-iter = 2
integrator = steep
nsteps = 5000
emtol = 500
emstep = 0.005
nstenergy = 100
