HFIP comparator n0
  768
    1HFI     O1    1   2.288   0.967   0.006
    1HFI     C1    2   2.330   1.085  -0.069
    1HFI     C2    3   2.209   1.175  -0.099
    1HFI     F1    4   2.148   1.217   0.014
    1HFI     F2    5   2.118   1.102  -0.167
    1HFI     F3    6   2.245   1.285  -0.168
    1HFI     C3    7   2.407   1.045  -0.198
    1HFI     F4    8   2.332   0.964  -0.278
    1HFI     F5    9   2.519   0.977  -0.166
    1HFI     F6   10   2.446   1.151  -0.271
    1HFI     H1   11   2.220   0.921  -0.046
    1HFI     H2   12   2.398   1.146  -0.008
    2HFI     O1   13   1.809   1.867   2.603
    2HFI     C1   14   1.951   1.893   2.587
    2HFI     C2   15   2.033   1.761   2.596
    2HFI     F1   16   1.994   1.675   2.499
    2HFI     F2   17   2.014   1.700   2.715
    2HFI     F3   18   2.166   1.782   2.581
    2HFI     C3   19   1.999   1.999   2.689
    2HFI     F4   20   1.978   1.956   2.814
    2HFI     F5   21   1.926   2.112   2.673
    2HFI     F6   22   2.129   2.031   2.675
    2HFI     H1   23   1.795   1.832   2.693
    2HFI     H2   24   1.970   1.935   2.487
    3HFI     O1   25   0.600   1.657   1.962
    3HFI     C1   26   0.487   1.689   1.877
    3HFI     C2   27   0.424   1.560   1.817
    3HFI     F1   28   0.384   1.477   1.916
    3HFI     F2   29   0.514   1.493   1.742
    3HFI     F3   30   0.316   1.585   1.740
    3HFI     C3   31   0.526   1.793   1.768
    3HFI     F4   32   0.625   1.746   1.690
    3HFI     F5   33   0.570   1.908   1.825
    3HFI     F6   34   0.422   1.826   1.688
    3HFI     H1   35   0.670   1.618   1.908
    3HFI     H2   36   0.408   1.736   1.937
    4HFI     O1   37   0.929   0.312   2.016
    4HFI     C1   38   1.018   0.275   2.125
    4HFI     C2   39   1.063   0.397   2.213
    4HFI     F1   40   0.957   0.460   2.270
    4HFI     F2   41   1.127   0.489   2.139
    4HFI     F3   42   1.145   0.363   2.314
    4HFI     C3   43   1.139   0.198   2.069
    4HFI     F4   44   1.206   0.271   1.977
    4HFI     F5   45   1.098   0.085   2.010
    4HFI     F6   46   1.223   0.164   2.168
    4HFI     H1   47   0.973   0.377   1.959
    4HFI     H2   48   0.967   0.205   2.193
    5HFI     O1   49   2.232   1.443   2.386
    5HFI     C1   50   2.326   1.488   2.288
    5HFI     C2   51   2.444   1.388   2.275
    5HFI     F1   52   2.397   1.266   2.241
    5HFI     F2   53   2.510   1.374   2.392
    5HFI     F3   54   2.533   1.425   2.181
    5HFI     C3   55   2.370   1.631   2.323
    5HFI     F4   56   2.426   1.636   2.446
    5HFI     F5   57   2.262   1.713   2.324
    5HFI     F6   58   2.457   1.680   2.233
    5HFI     H1   59   2.277   1.428   2.471
    5HFI     H2   60   2.277   1.492   2.190
    6HFI     O1   61   2.078   1.920   1.591
    6HFI     C1   62   1.943   1.873   1.620
    6HFI     C2   63   1.848   1.890   1.497
    6HFI     F1   64   1.896   1.821   1.392
    6HFI     F2   65   1.841   2.020   1.460
    6HFI     F3   66   1.724   1.845   1.523
    6HFI     C3   67   1.887   1.936   1.748
    6HFI     F4   68   1.868   2.067   1.728
    6HFI     F5   69   1.975   1.921   1.851
    6HFI     F6   70   1.770   1.883   1.787
    6HFI     H1   71   2.071   2.011   1.557
    6HFI     H2   72   1.944   1.765   1.641
    7HFI     O1   73   0.478   2.267   0.435
    7HFI     C1   74   0.463   2.393   0.363
    7HFI     C2   75   0.314   2.423   0.333
    7HFI     F1   76   0.243   2.429   0.449
    7HFI     F2   77   0.259   2.325   0.258
    7HFI     F3   78   0.296   2.540   0.269
    7HFI     C3   79   0.552   2.395   0.235
    7HFI     F4   80   0.518   2.294   0.151
    7HFI     F5   81   0.682   2.379   0.268
    7HFI     F6   82   0.542   2.511   0.167
    7HFI     H1   83   0.448   2.195   0.377
    7HFI     H2   84   0.499   2.475   0.426
    8HFI     O1   85   2.339   2.283   1.119
    8HFI     C1   86   2.244   2.260   1.227
    8HFI     C2   87   2.254   2.114   1.278
    8HFI     F1   88   2.377   2.089   1.327
    8HFI     F2   89   2.234   2.028   1.176
    8HFI     F3   90   2.166   2.087   1.376
    8HFI     C3   91   2.100   2.300   1.184
    8HFI     F4   92   2.060   2.229   1.076
    8HFI     F5   93   2.096   2.431   1.151
    8HFI     F6   94   2.010   2.281   1.283
    8HFI     H1   95   2.311   2.232   1.041
    8HFI     H2   96   2.269   2.324   1.312
    9HFI     O1   97   1.052   1.859   1.976
    9HFI     C1   98   1.172   1.830   2.053
    9HFI     C2   99   1.195   1.941   2.161
    9HFI     F1  100   1.087   1.954   2.241
    9HFI     F2  101   1.217   2.061   2.103
    9HFI     F3  102   1.298   1.915   2.241
    9HFI     C3  103   1.293   1.807   1.959
    9HFI     F4  104   1.322   1.918   1.887
    9HFI     F5  105   1.266   1.707   1.871
    9HFI     F6  106   1.404   1.769   2.025
    9HFI     H1  107   1.065   1.944   1.930
    9HFI     H2  108   1.159   1.736   2.108
   10HFI     O1  109   1.017   1.761   2.565
   10HFI     C1  110   1.064   1.628   2.530
   10HFI     C2  111   1.175   1.580   2.626
   10HFI     F1  112   1.134   1.581   2.754
   10HFI     F2  113   1.286   1.658   2.618
   10HFI     F3  114   1.208   1.454   2.599
   10HFI     C3  115   1.107   1.620   2.383
   10HFI     F4  116   1.209   1.703   2.358
   10HFI     F5  117   1.006   1.651   2.299
   10HFI     F6  118   1.149   1.497   2.351
   10HFI     H1  119   1.091   1.823   2.554
   10HFI     H2  120   0.983   1.555   2.542
   11HFI     O1  121   1.416   1.488   0.828
   11HFI     C1  122   1.398   1.628   0.857
   11HFI     C2  123   1.323   1.695   0.739
   11HFI     F1  124   1.206   1.632   0.714
   11HFI     F2  125   1.396   1.688   0.626
   11HFI     F3  126   1.294   1.825   0.764
   11HFI     C3  127   1.534   1.696   0.890
   11HFI     F4  128   1.621   1.684   0.787
   11HFI     F5  129   1.591   1.638   0.998
   11HFI     F6  130   1.520   1.827   0.918
   11HFI     H1  131   1.475   1.480   0.751
   11HFI     H2  132   1.335   1.639   0.947
   12HFI     O1  133   0.227   1.798   0.716
   12HFI     C1  134   0.243   1.653   0.722
   12HFI     C2  135   0.120   1.587   0.791
   12HFI     F1  136   0.007   1.616   0.724
   12HFI     F2  137   0.105   1.632   0.918
   12HFI     F3  138   0.129   1.452   0.795
   12HFI     C3  139   0.378   1.617   0.789
   12HFI     F4  140   0.383   1.662   0.916
   12HFI     F5  141   0.482   1.673   0.722
   12HFI     F6  142   0.402   1.485   0.790
   12HFI     H1  143   0.224   1.831   0.807
   12HFI     H2  144   0.247   1.612   0.620
   13HFI     O1  145   0.969   2.743   1.820
   13HFI     C1  146   1.053   2.635   1.773
   13HFI     C2  147   1.017   2.601   1.627
   13HFI     F1  148   1.033   2.707   1.547
   13HFI     F2  149   0.886   2.571   1.621
   13HFI     F3  150   1.089   2.499   1.576
   13HFI     C3  151   1.040   2.510   1.867
   13HFI     F4  152   0.912   2.469   1.872
   13HFI     F5  153   1.074   2.537   1.995
   13HFI     F6  154   1.115   2.406   1.825
   13HFI     H1  155   0.877   2.712   1.820
   13HFI     H2  156   1.158   2.667   1.768
   14HFI     O1  157   1.309   0.596   0.915
   14HFI     C1  158   1.388   0.480   0.876
   14HFI     C2  159   1.534   0.518   0.850
   14HFI     F1  160   1.584   0.574   0.962
   14HFI     F2  161   1.542   0.606   0.749
   14HFI     F3  162   1.613   0.414   0.819
   14HFI     C3  163   1.324   0.407   0.755
   14HFI     F4  164   1.312   0.490   0.649
   14HFI     F5  165   1.201   0.364   0.786
   14HFI     F6  166   1.396   0.299   0.717
   14HFI     H1  167   1.309   0.661   0.842
   14HFI     H2  168   1.392   0.410   0.960
   15HFI     O1  169   2.758   1.681   1.562
   15HFI     C1  170   2.635   1.605   1.582
   15HFI     C2  171   2.532   1.693   1.657
   15HFI     F1  172   2.495   1.799   1.583
   15HFI     F2  173   2.581   1.738   1.775
   15HFI     F3  174   2.421   1.625   1.686
   15HFI     C3  175   2.665   1.470   1.654
   15HFI     F4  176   2.720   1.492   1.776
   15HFI     F5  177   2.754   1.397   1.582
   15HFI     F6  178   2.555   1.394   1.670
   15HFI     H1  179   2.791   1.707   1.649
   15HFI     H2  180   2.591   1.580   1.485
   16HFI     O1  181   0.718   2.100   1.511
   16HFI     C1  182   0.706   2.177   1.634
   16HFI     C2  183   0.683   2.326   1.601
   16HFI     F1  184   0.566   2.344   1.536
   16HFI     F2  185   0.780   2.368   1.517
   16HFI     F3  186   0.680   2.405   1.711
   16HFI     C3  187   0.830   2.153   1.725
   16HFI     F4  188   0.945   2.192   1.664
   16HFI     F5  189   0.844   2.021   1.753
   16HFI     F6  190   0.821   2.216   1.843
   16HFI     H1  191   0.794   2.136   1.461
   16HFI     H2  192   0.618   2.144   1.691
   17HFI     O1  193   2.599   0.421   0.898
   17HFI     C1  194   2.541   0.434   1.030
   17HFI     C2  195   2.393   0.481   1.022
   17HFI     F1  196   2.317   0.388   0.959
   17HFI     F2  197   2.384   0.595   0.951
   17HFI     F3  198   2.337   0.500   1.143
   17HFI     C3  199   2.630   0.529   1.114
   17HFI     F4  200   2.640   0.650   1.055
   17HFI     F5  201   2.754   0.478   1.125
   17HFI     F6  202   2.583   0.547   1.239
   17HFI     H1  203   2.589   0.505   0.850
   17HFI     H2  204   2.540   0.337   1.081
   18HFI     O1  205   1.680   1.060   0.936
   18HFI     C1  206   1.557   1.055   0.858
   18HFI     C2  207   1.576   0.973   0.728
   18HFI     F1  208   1.609   0.848   0.759
   18HFI     F2  209   1.677   1.021   0.651
   18HFI     F3  210   1.466   0.966   0.651
   18HFI     C3  211   1.506   1.197   0.831
   18HFI     F4  212   1.600   1.269   0.763
   18HFI     F5  213   1.485   1.258   0.949
   18HFI     F6  214   1.390   1.198   0.763
   18HFI     H1  215   1.745   1.112   0.886
   18HFI     H2  216   1.477   1.006   0.916
   19HFI     O1  217   1.057   1.080   1.780
   19HFI     C1  218   0.926   1.100   1.839
   19HFI     C2  219   0.874   0.970   1.909
   19HFI     F1  220   0.962   0.921   1.999
   19HFI     F2  221   0.859   0.870   1.821
   19HFI     F3  222   0.756   0.988   1.972
   19HFI     C3  223   0.826   1.162   1.736
   19HFI     F4  224   0.815   1.084   1.627
   19HFI     F5  225   0.870   1.282   1.694
   19HFI     F6  226   0.703   1.181   1.788
   19HFI     H1  227   1.048   1.019   1.705
   19HFI     H2  228   0.932   1.178   1.916
   20HFI     O1  229   2.498   1.203   1.956
   20HFI     C1  230   2.471   1.071   2.012
   20HFI     C2  231   2.563   0.967   1.947
   20HFI     F1  232   2.691   0.996   1.977
   20HFI     F2  233   2.552   0.966   1.813
   20HFI     F3  234   2.534   0.842   1.989
   20HFI     C3  235   2.321   1.034   1.999
   20HFI     F4  236   2.285   1.026   1.869
   20HFI     F5  237   2.243   1.128   2.057
   20HFI     F6  238   2.291   0.916   2.059
   20HFI     H1  239   2.491   1.195   1.859
   20HFI     H2  240   2.496   1.071   2.119
   21HFI     O1  241   0.502   0.602   2.296
   21HFI     C1  242   0.625   0.546   2.242
   21HFI     C2  243   0.650   0.597   2.098
   21HFI     F1  244   0.654   0.732   2.096
   21HFI     F2  245   0.550   0.559   2.015
   21HFI     F3  246   0.766   0.553   2.046
   21HFI     C3  247   0.624   0.390   2.253
   21HFI     F4  248   0.518   0.338   2.187
   21HFI     F5  249   0.616   0.348   2.380
   21HFI     F6  250   0.734   0.333   2.203
   21HFI     H1  251   0.427   0.567   2.244
   21HFI     H2  252   0.711   0.583   2.300
   22HFI     O1  253   1.801   0.482   1.456
   22HFI     C1  254   1.942   0.519   1.457
   22HFI     C2  255   2.034   0.403   1.409
   22HFI     F1  256   1.999   0.368   1.285
   22HFI     F2  257   2.022   0.296   1.490
   22HFI     F3  258   2.164   0.437   1.403
   22HFI     C3  259   1.986   0.570   1.596
   22HFI     F4  260   1.968   0.476   1.691
   22HFI     F5  261   1.913   0.676   1.632
   22HFI     F6  262   2.115   0.609   1.597
   22HFI     H1  263   1.787   0.409   1.520
   22HFI     H2  264   1.958   0.601   1.386
   23HFI     O1  265   2.724   2.192   1.340
   23HFI     C1  266   2.652   2.266   1.443
   23HFI     C2  267   2.685   2.418   1.436
   23HFI     F1  268   2.655   2.467   1.314
   23HFI     F2  269   2.816   2.439   1.458
   23HFI     F3  270   2.615   2.491   1.526
   23HFI     C3  271   2.681   2.204   1.584
   23HFI     F4  272   2.814   2.190   1.603
   23HFI     F5  273   2.625   2.082   1.593
   23HFI     F6  274   2.635   2.279   1.686
   23HFI     H1  275   2.819   2.196   1.362
   23HFI     H2  276   2.545   2.256   1.422
   24HFI     O1  277   0.317   1.181   1.159
   24HFI     C1  278   0.401   1.120   1.056
   24HFI     C2  279   0.542   1.179   1.059
   24HFI     F1  280   0.595   1.158   1.181
   24HFI     F2  281   0.535   1.312   1.034
   24HFI     F3  282   0.626   1.124   0.971
   24HFI     C3  283   0.335   1.134   0.919
   24HFI     F4  284   0.309   1.263   0.889
   24HFI     F5  285   0.219   1.070   0.922
   24HFI     F6  286   0.409   1.082   0.820
   24HFI     H1  287   0.307   1.275   1.138
   24HFI     H2  288   0.411   1.013   1.074
   25HFI     O1  289   1.234   2.255   2.393
   25HFI     C1  290   1.120   2.332   2.438
   25HFI     C2  291   1.159   2.480   2.463
   25HFI     F1  292   1.207   2.535   2.349
   25HFI     F2  293   1.256   2.490   2.557
   25HFI     F3  294   1.054   2.555   2.502
   25HFI     C3  295   1.055   2.264   2.562
   25HFI     F4  296   1.144   2.255   2.664
   25HFI     F5  297   1.018   2.137   2.532
   25HFI     F6  298   0.946   2.329   2.606
   25HFI     H1  299   1.302   2.256   2.462
   25HFI     H2  300   1.043   2.332   2.359
   26HFI     O1  301   1.609   1.066   0.327
   26HFI     C1  302   1.584   1.209   0.309
   26HFI     C2  303   1.713   1.292   0.333
   26HFI     F1  304   1.810   1.255   0.247
   26HFI     F2  305   1.761   1.272   0.458
   26HFI     F3  306   1.694   1.424   0.317
   26HFI     C3  307   1.465   1.255   0.397
   26HFI     F4  308   1.494   1.232   0.525
   26HFI     F5  309   1.353   1.186   0.368
   26HFI     F6  310   1.437   1.387   0.384
   26HFI     H1  311   1.636   1.052   0.420
   26HFI     H2  312   1.551   1.229   0.206
   27HFI     O1  313   0.705   0.717   2.785
   27HFI     C1  314   0.587   0.652   2.729
   27HFI     C2  315   0.628   0.536   2.635
   27HFI     F1  316   0.701   0.444   2.702
   27HFI     F2  317   0.705   0.582   2.534
   27HFI     F3  318   0.520   0.474   2.585
   27HFI     C3  319   0.494   0.755   2.658
   27HFI     F4  320   0.560   0.821   2.560
   27HFI     F5  321   0.453   0.848   2.748
   27HFI     F6  322   0.383   0.699   2.606
   27HFI     H1  323   0.756   0.755   2.712
   27HFI     H2  324   0.528   0.606   2.809
   28HFI     O1  325   2.698   2.156   2.234
   28HFI     C1  326   2.639   2.129   2.365
   28HFI     C2  327   2.536   2.013   2.357
   28HFI     F1  328   2.599   1.901   2.313
   28HFI     F2  329   2.437   2.041   2.270
   28HFI     F3  330   2.481   1.983   2.476
   28HFI     C3  331   2.578   2.258   2.426
   28HFI     F4  332   2.480   2.308   2.348
   28HFI     F5  333   2.673   2.354   2.439
   28HFI     F6  334   2.528   2.235   2.549
   28HFI     H1  335   2.627   2.185   2.174
   28HFI     H2  336   2.717   2.097   2.434
   29HFI     O1  337   1.155   0.559   1.885
   29HFI     C1  338   1.200   0.692   1.848
   29HFI     C2  339   1.269   0.687   1.710
   29HFI     F1  340   1.185   0.634   1.621
   29HFI     F2  341   1.379   0.608   1.713
   29HFI     F3  342   1.304   0.809   1.664
   29HFI     C3  343   1.291   0.757   1.957
   29HFI     F4  344   1.399   0.680   1.982
   29HFI     F5  345   1.224   0.772   2.073
   29HFI     F6  346   1.333   0.878   1.918
   29HFI     H1  347   1.235   0.506   1.906
   29HFI     H2  348   1.112   0.758   1.839
   30HFI     O1  349   1.205   1.331   2.155
   30HFI     C1  350   1.198   1.217   2.247
   30HFI     C2  351   1.305   1.114   2.208
   30HFI     F1  352   1.428   1.168   2.222
   30HFI     F2  353   1.291   1.080   2.079
   30HFI     F3  354   1.301   1.002   2.284
   30HFI     C3  355   1.056   1.159   2.245
   30HFI     F4  356   1.020   1.133   2.119
   30HFI     F5  357   0.970   1.253   2.288
   30HFI     F6  358   1.038   1.048   2.320
   30HFI     H1  359   1.183   1.300   2.066
   30HFI     H2  360   1.216   1.248   2.350
   31HFI     O1  361   0.648   0.634   1.442
   31HFI     C1  362   0.782   0.640   1.499
   31HFI     C2  363   0.825   0.786   1.521
   31HFI     F1  364   0.732   0.841   1.601
   31HFI     F2  365   0.825   0.857   1.406
   31HFI     F3  366   0.947   0.798   1.578
   31HFI     C3  367   0.879   0.564   1.410
   31HFI     F4  368   0.874   0.620   1.288
   31HFI     F5  369   0.840   0.435   1.403
   31HFI     F6  370   1.006   0.564   1.451
   31HFI     H1  371   0.651   0.682   1.357
   31HFI     H2  372   0.784   0.590   1.597
   32HFI     O1  373   1.880   0.250   1.077
   32HFI     C1  374   1.775   0.163   1.128
   32HFI     C2  375   1.820   0.077   1.249
   32HFI     F1  376   1.849   0.156   1.354
   32HFI     F2  377   1.931   0.005   1.220
   32HFI     F3  378   1.725  -0.007   1.293
   32HFI     C3  379   1.721   0.075   1.012
   32HFI     F4  380   1.821   0.002   0.958
   32HFI     F5  381   1.670   0.153   0.914
   32HFI     F6  382   1.624  -0.010   1.050
   32HFI     H1  383   1.956   0.196   1.049
   32HFI     H2  384   1.693   0.226   1.164
   33HFI     O1  385   1.982   2.338   2.129
   33HFI     C1  386   2.004   2.454   2.213
   33HFI     C2  387   1.902   2.564   2.183
   33HFI     F1  388   1.783   2.514   2.220
   33HFI     F2  389   1.897   2.594   2.051
   33HFI     F3  390   1.921   2.678   2.252
   33HFI     C3  391   2.150   2.501   2.207
   33HFI     F4  392   2.184   2.544   2.085
   33HFI     F5  393   2.230   2.397   2.239
   33HFI     F6  394   2.177   2.600   2.292
   33HFI     H1  395   1.980   2.365   2.036
   33HFI     H2  396   1.983   2.426   2.317
   34HFI     O1  397   0.273   0.859   0.722
   34HFI     C1  398   0.210   0.937   0.615
   34HFI     C2  399   0.057   0.959   0.642
   34HFI     F1  400   0.034   1.028   0.755
   34HFI     F2  401  -0.006   0.840   0.657
   34HFI     F3  402  -0.003   1.027   0.544
   34HFI     C3  403   0.235   0.869   0.478
   34HFI     F4  404   0.185   0.743   0.477
   34HFI     F5  405   0.367   0.859   0.452
   34HFI     F6  406   0.180   0.937   0.375
   34HFI     H1  407   0.231   0.771   0.726
   34HFI     H2  408   0.257   1.036   0.610
   35HFI     O1  409   0.855   1.171   0.523
   35HFI     C1  410   0.722   1.229   0.516
   35HFI     C2  411   0.720   1.369   0.580
   35HFI     F1  412   0.815   1.448   0.524
   35HFI     F2  413   0.746   1.359   0.712
   35HFI     F3  414   0.602   1.433   0.565
   35HFI     C3  415   0.615   1.135   0.575
   35HFI     F4  416   0.646   1.107   0.703
   35HFI     F5  417   0.611   1.019   0.508
   35HFI     F6  418   0.491   1.189   0.570
   35HFI     H1  419   0.875   1.152   0.616
   35HFI     H2  420   0.693   1.241   0.411
   36HFI     O1  421   2.155   1.390   1.881
   36HFI     C1  422   2.057   1.413   1.776
   36HFI     C2  423   2.098   1.532   1.689
   36HFI     F1  424   2.215   1.502   1.632
   36HFI     F2  425   2.116   1.644   1.763
   36HFI     F3  426   2.009   1.558   1.592
   36HFI     C3  427   1.915   1.433   1.833
   36HFI     F4  428   1.910   1.543   1.911
   36HFI     F5  429   1.881   1.329   1.911
   36HFI     F6  430   1.821   1.444   1.737
   36HFI     H1  431   2.164   1.474   1.930
   36HFI     H2  432   2.056   1.328   1.707
   37HFI     O1  433   1.338   1.538   1.506
   37HFI     C1  434   1.409   1.412   1.486
   37HFI     C2  435   1.540   1.435   1.405
   37HFI     F1  436   1.621   1.521   1.470
   37HFI     F2  437   1.513   1.487   1.284
   37HFI     F3  438   1.610   1.320   1.388
   37HFI     C3  439   1.315   1.306   1.422
   37HFI     F4  440   1.269   1.349   1.302
   37HFI     F5  441   1.208   1.284   1.501
   37HFI     F6  442   1.377   1.187   1.403
   37HFI     H1  443   1.314   1.574   1.419
   37HFI     H2  444   1.439   1.372   1.584
   38HFI     O1  445   0.672   1.266   0.186
   38HFI     C1  446   0.726   1.401   0.191
   38HFI     C2  447   0.624   1.500   0.130
   38HFI     F1  448   0.508   1.497   0.198
   38HFI     F2  449   0.597   1.462   0.004
   38HFI     F3  450   0.668   1.628   0.129
   38HFI     C3  451   0.866   1.405   0.126
   38HFI     F4  452   0.862   1.360  -0.001
   38HFI     F5  453   0.952   1.327   0.194
   38HFI     F6  454   0.917   1.529   0.124
   38HFI     H1  455   0.668   1.238   0.093
   38HFI     H2  456   0.739   1.435   0.295
   39HFI     O1  457   2.608   0.561   1.984
   39HFI     C1  458   2.716   0.549   2.081
   39HFI     C2  459   2.688   0.432   2.177
   39HFI     F1  460   2.697   0.314   2.113
   39HFI     F2  461   2.563   0.442   2.224
   39HFI     F3  462   2.774   0.428   2.281
   39HFI     C3  463   2.737   0.684   2.152
   39HFI     F4  464   2.621   0.729   2.205
   39HFI     F5  465   2.782   0.772   2.061
   39HFI     F6  466   2.829   0.681   2.250
   39HFI     H1  467   2.526   0.583   2.031
   39HFI     H2  468   2.810   0.527   2.029
   40HFI     O1  469   2.222   0.528   2.556
   40HFI     C1  470   2.330   0.626   2.569
   40HFI     C2  471   2.439   0.601   2.463
   40HFI     F1  472   2.385   0.610   2.339
   40HFI     F2  473   2.491   0.477   2.478
   40HFI     F3  474   2.540   0.690   2.470
   40HFI     C3  475   2.386   0.627   2.714
   40HFI     F4  476   2.432   0.505   2.749
   40HFI     F5  477   2.287   0.661   2.800
   40HFI     F6  478   2.485   0.716   2.730
   40HFI     H1  479   2.259   0.440   2.571
   40HFI     H2  480   2.290   0.726   2.548
   41HFI     O1  481   1.543   1.073   2.541
   41HFI     C1  482   1.607   1.189   2.601
   41HFI     C2  483   1.604   1.180   2.756
   41HFI     F1  484   1.669   1.070   2.798
   41HFI     F2  485   1.476   1.170   2.801
   41HFI     F3  486   1.662   1.286   2.815
   41HFI     C3  487   1.542   1.319   2.550
   41HFI     F4  488   1.412   1.313   2.576
   41HFI     F5  489   1.555   1.332   2.416
   41HFI     F6  490   1.593   1.431   2.606
   41HFI     H1  491   1.450   1.071   2.570
   41HFI     H2  492   1.713   1.192   2.572
   42HFI     O1  493   1.947   0.854   1.135
   42HFI     C1  494   1.959   0.839   0.991
   42HFI     C2  495   1.856   0.736   0.944
   42HFI     F1  496   1.734   0.783   0.974
   42HFI     F2  497   1.869   0.620   1.011
   42HFI     F3  498   1.862   0.716   0.811
   42HFI     C3  499   2.105   0.805   0.953
   42HFI     F4  500   2.143   0.691   1.014
   42HFI     F5  501   2.188   0.904   0.994
   42HFI     F6  502   2.122   0.790   0.820
   42HFI     H1  503   1.958   0.765   1.173
   42HFI     H2  504   1.933   0.933   0.940
   43HFI     O1  505   2.133   2.409   1.619
   43HFI     C1  506   2.189   2.293   1.687
   43HFI     C2  507   2.125   2.271   1.825
   43HFI     F1  508   1.991   2.267   1.816
   43HFI     F2  509   2.151   2.375   1.904
   43HFI     F3  510   2.167   2.159   1.887
   43HFI     C3  511   2.341   2.306   1.700
   43HFI     F4  512   2.378   2.417   1.768
   43HFI     F5  513   2.390   2.318   1.575
   43HFI     F6  514   2.396   2.198   1.757
   43HFI     H1  515   2.153   2.488   1.673
   43HFI     H2  516   2.172   2.203   1.628
   44HFI     O1  517   2.274   1.945   0.878
   44HFI     C1  518   2.193   1.823   0.871
   44HFI     C2  519   2.050   1.849   0.926
   44HFI     F1  520   1.991   1.949   0.857
   44HFI     F2  521   2.052   1.884   1.056
   44HFI     F3  522   1.971   1.741   0.914
   44HFI     C3  523   2.266   1.705   0.940
   44HFI     F4  524   2.294   1.734   1.069
   44HFI     F5  525   2.383   1.679   0.877
   44HFI     F6  526   2.194   1.591   0.935
   44HFI     H1  527   2.291   1.963   0.972
   44HFI     H2  528   2.180   1.794   0.766
   45HFI     O1  529   1.543   1.954   2.165
   45HFI     C1  530   1.630   2.029   2.252
   45HFI     C2  531   1.552   2.125   2.347
   45HFI     F1  532   1.471   2.056   2.430
   45HFI     F2  533   1.474   2.208   2.276
   45HFI     F3  534   1.633   2.201   2.424
   45HFI     C3  535   1.736   2.098   2.165
   45HFI     F4  536   1.681   2.180   2.074
   45HFI     F5  537   1.808   2.007   2.096
   45HFI     F6  538   1.820   2.166   2.243
   45HFI     H1  539   1.486   2.018   2.117
   45HFI     H2  540   1.685   1.959   2.317
   46HFI     O1  541   2.079   2.341   2.659
   46HFI     C1  542   2.121   2.457   2.584
   46HFI     C2  543   2.256   2.511   2.638
   46HFI     F1  544   2.350   2.414   2.630
   46HFI     F2  545   2.246   2.546   2.768
   46HFI     F3  546   2.302   2.616   2.567
   46HFI     C3  547   2.009   2.565   2.583
   46HFI     F4  548   1.977   2.603   2.709
   46HFI     F5  549   1.897   2.516   2.526
   46HFI     F6  550   2.044   2.675   2.514
   46HFI     H1  551   2.062   2.367   2.751
   46HFI     H2  552   2.140   2.427   2.480
   47HFI     O1  553   1.586   2.640   2.124
   47HFI     C1  554   1.456   2.598   2.079
   47HFI     C2  555   1.462   2.465   2.001
   47HFI     F1  556   1.510   2.370   2.081
   47HFI     F2  557   1.543   2.472   1.893
   47HFI     F3  558   1.341   2.423   1.961
   47HFI     C3  559   1.400   2.714   1.998
   47HFI     F4  560   1.474   2.739   1.888
   47HFI     F5  561   1.401   2.825   2.074
   47HFI     F6  562   1.275   2.692   1.960
   47HFI     H1  563   1.645   2.641   2.048
   47HFI     H2  564   1.391   2.580   2.166
   48HFI     O1  565   0.732   1.526   1.542
   48HFI     C1  566   0.734   1.530   1.397
   48HFI     C2  567   0.660   1.656   1.344
   48HFI     F1  568   0.722   1.768   1.387
   48HFI     F2  569   0.532   1.660   1.386
   48HFI     F3  570   0.659   1.663   1.211
   48HFI     C3  571   0.681   1.399   1.338
   48HFI     F4  572   0.549   1.382   1.365
   48HFI     F5  573   0.748   1.293   1.386
   48HFI     F6  574   0.699   1.402   1.205
   48HFI     H1  575   0.639   1.520   1.569
   48HFI     H2  576   0.838   1.536   1.362
   49HFI     O1  577   0.793   0.464   0.905
   49HFI     C1  578   0.920   0.397   0.928
   49HFI     C2  579   0.903   0.243   0.915
   49HFI     F1  580   0.863   0.212   0.790
   49HFI     F2  581   0.808   0.198   1.000
   49HFI     F3  582   1.017   0.175   0.940
   49HFI     C3  583   0.977   0.438   1.063
   49HFI     F4  584   0.890   0.401   1.157
   49HFI     F5  585   0.997   0.571   1.070
   49HFI     F6  586   1.093   0.382   1.092
   49HFI     H1  587   0.733   0.440   0.977
   49HFI     H2  588   0.994   0.429   0.853
   50HFI     O1  589   0.864   0.898   0.646
   50HFI     C1  590   0.988   0.884   0.721
   50HFI     C2  591   1.108   0.855   0.627
   50HFI     F1  592   1.124   0.956   0.539
   50HFI     F2  593   1.087   0.742   0.555
   50HFI     F3  594   1.223   0.840   0.695
   50HFI     C3  595   0.973   0.778   0.831
   50HFI     F4  596   0.947   0.658   0.775
   50HFI     F5  597   0.871   0.808   0.915
   50HFI     F6  598   1.085   0.768   0.905
   50HFI     H1  599   0.845   0.814   0.602
   50HFI     H2  600   1.010   0.978   0.773
   51HFI     O1  601   2.063   1.268   1.107
   51HFI     C1  602   2.040   1.335   1.233
   51HFI     C2  603   1.925   1.440   1.220
   51HFI     F1  604   1.812   1.380   1.178
   51HFI     F2  605   1.957   1.535   1.130
   51HFI     F3  606   1.896   1.501   1.337
   51HFI     C3  607   2.172   1.396   1.285
   51HFI     F4  608   2.227   1.481   1.196
   51HFI     F5  609   2.263   1.301   1.313
   51HFI     F6  610   2.152   1.464   1.396
   51HFI     H1  611   2.100   1.334   1.046
   51HFI     H2  612   2.007   1.263   1.309
   52HFI     O1  613   0.761   1.816   0.377
   52HFI     C1  614   0.882   1.897   0.365
   52HFI     C2  615   0.856   2.022   0.277
   52HFI     F1  616   0.760   2.099   0.332
   52HFI     F2  617   0.813   1.987   0.153
   52HFI     F3  618   0.966   2.099   0.262
   52HFI     C3  619   1.001   1.813   0.313
   52HFI     F4  620   0.975   1.769   0.188
   52HFI     F5  621   1.021   1.704   0.392
   52HFI     F6  622   1.117   1.882   0.309
   52HFI     H1  623   0.735   1.788   0.288
   52HFI     H2  624   0.912   1.934   0.464
   53HFI     O1  625   2.006   0.481   0.836
   53HFI     C1  626   1.966   0.395   0.728
   53HFI     C2  627   2.057   0.272   0.733
   53HFI     F1  628   2.041   0.203   0.848
   53HFI     F2  629   2.185   0.312   0.730
   53HFI     F3  630   2.038   0.185   0.631
   53HFI     C3  631   1.972   0.471   0.593
   53HFI     F4  632   2.093   0.530   0.579
   53HFI     F5  633   1.878   0.568   0.588
   53HFI     F6  634   1.952   0.390   0.486
   53HFI     H1  635   2.092   0.520   0.815
   53HFI     H2  636   1.862   0.361   0.741
   54HFI     O1  637   1.827   1.054   1.513
   54HFI     C1  638   1.808   0.978   1.636
   54HFI     C2  639   1.669   1.007   1.700
   54HFI     F1  640   1.571   0.973   1.614
   54HFI     F2  641   1.655   1.139   1.726
   54HFI     F3  642   1.649   0.939   1.814
   54HFI     C3  643   1.927   1.000   1.733
   54HFI     F4  644   1.940   1.131   1.757
   54HFI     F5  645   2.043   0.960   1.676
   54HFI     F6  646   1.914   0.935   1.850
   54HFI     H1  647   1.816   1.148   1.534
   54HFI     H2  648   1.805   0.871   1.612
   55HFI     O1  649   0.682   1.621   0.949
   55HFI     C1  650   0.813   1.684   0.952
   55HFI     C2  651   0.814   1.814   0.867
   55HFI     F1  652   0.729   1.905   0.921
   55HFI     F2  653   0.772   1.790   0.741
   55HFI     F3  654   0.935   1.871   0.861
   55HFI     C3  655   0.923   1.584   0.911
   55HFI     F4  656   0.908   1.548   0.782
   55HFI     F5  657   0.916   1.472   0.987
   55HFI     F6  658   1.046   1.635   0.927
   55HFI     H1  659   0.658   1.599   0.858
   55HFI     H2  660   0.839   1.714   1.054
   56HFI     O1  661   2.066   2.057   0.527
   56HFI     C1  662   2.182   2.062   0.439
   56HFI     C2  663   2.162   1.967   0.319
   56HFI     F1  664   2.051   2.002   0.251
   56HFI     F2  665   2.144   1.840   0.362
   56HFI     F3  666   2.266   1.973   0.234
   56HFI     C3  667   2.313   2.032   0.518
   56HFI     F4  668   2.308   1.910   0.576
   56HFI     F5  669   2.329   2.123   0.616
   56HFI     F6  670   2.423   2.036   0.440
   56HFI     H1  671   2.054   1.966   0.558
   56HFI     H2  672   2.192   2.162   0.396
   57HFI     O1  673   0.978   0.453   2.596
   57HFI     C1  674   1.098   0.534   2.611
   57HFI     C2  675   1.207   0.456   2.689
   57HFI     F1  676   1.239   0.341   2.624
   57HFI     F2  677   1.164   0.422   2.813
   57HFI     F3  678   1.321   0.527   2.702
   57HFI     C3  679   1.065   0.672   2.675
   57HFI     F4  680   1.010   0.657   2.797
   57HFI     F5  681   0.974   0.739   2.599
   57HFI     F6  682   1.173   0.751   2.687
   57HFI     H1  683   0.942   0.434   2.684
   57HFI     H2  684   1.140   0.555   2.512
   58HFI     O1  685   2.011   0.657   0.345
   58HFI     C1  686   1.892   0.720   0.290
   58HFI     C2  687   1.802   0.618   0.215
   58HFI     F1  688   1.759   0.521   0.300
   58HFI     F2  689   1.871   0.557   0.116
   58HFI     F3  690   1.692   0.675   0.162
   58HFI     C3  691   1.935   0.841   0.202
   58HFI     F4  692   2.016   0.800   0.101
   58HFI     F5  693   2.004   0.930   0.276
   58HFI     F6  694   1.830   0.905   0.149
   58HFI     H1  695   2.061   0.615   0.273
   58HFI     H2  696   1.831   0.761   0.372
   59HFI     O1  697   0.506   1.221   2.418
   59HFI     C1  698   0.580   1.315   2.500
   59HFI     C2  699   0.507   1.451   2.508
   59HFI     F1  700   0.388   1.435   2.570
   59HFI     F2  701   0.483   1.500   2.385
   59HFI     F3  702   0.576   1.545   2.576
   59HFI     C3  703   0.725   1.327   2.450
   59HFI     F4  704   0.728   1.371   2.322
   59HFI     F5  705   0.783   1.205   2.457
   59HFI     F6  706   0.800   1.411   2.525
   59HFI     H1  707   0.501   1.256   2.328
   59HFI     H2  708   0.588   1.275   2.603
   60HFI     O1  709   2.005   1.371   2.206
   60HFI     C1  710   1.916   1.293   2.292
   60HFI     C2  711   1.994   1.198   2.384
   60HFI     F1  712   2.060   1.274   2.470
   60HFI     F2  713   2.083   1.122   2.317
   60HFI     F3  714   1.916   1.118   2.459
   60HFI     C3  715   1.812   1.217   2.208
   60HFI     F4  716   1.874   1.135   2.120
   60HFI     F5  717   1.735   1.304   2.140
   60HFI     F6  718   1.729   1.142   2.284
   60HFI     H1  719   2.059   1.309   2.154
   60HFI     H2  720   1.862   1.361   2.359
   61HFI     O1  721   2.376   0.301   1.711
   61HFI     C1  722   2.481   0.389   1.760
   61HFI     C2  723   2.496   0.514   1.668
   61HFI     F1  724   2.379   0.582   1.664
   61HFI     F2  725   2.525   0.476   1.542
   61HFI     F3  726   2.590   0.601   1.709
   61HFI     C3  727   2.614   0.309   1.777
   61HFI     F4  728   2.648   0.249   1.661
   61HFI     F5  729   2.598   0.212   1.869
   61HFI     F6  730   2.720   0.383   1.815
   61HFI     H1  731   2.404   0.267   1.625
   61HFI     H2  732   2.451   0.426   1.859
   62HFI     O1  733   2.380   0.034   0.480
   62HFI     C1  734   2.388   0.138   0.581
   62HFI     C2  735   2.394   0.280   0.514
   62HFI     F1  736   2.281   0.302   0.443
   62HFI     F2  737   2.498   0.288   0.429
   62HFI     F3  738   2.407   0.381   0.603
   62HFI     C3  739   2.506   0.111   0.677
   62HFI     F4  740   2.625   0.113   0.612
   62HFI     F5  741   2.493  -0.010   0.736
   62HFI     F6  742   2.510   0.202   0.776
   62HFI     H1  743   2.461   0.037   0.426
   62HFI     H2  744   2.298   0.133   0.643
   63HFI     O1  745   2.587   1.745   0.141
   63HFI     C1  746   2.540   1.722   0.277
   63HFI     C2  747   2.644   1.642   0.359
   63HFI     F1  748   2.762   1.707   0.363
   63HFI     F2  749   2.667   1.521   0.303
   63HFI     F3  750   2.605   1.623   0.487
   63HFI     C3  751   2.401   1.651   0.276
   63HFI     F4  752   2.408   1.527   0.223
   63HFI     F5  753   2.314   1.719   0.198
   63HFI     F6  754   2.348   1.642   0.400
   63HFI     H1  755   2.591   1.659   0.095
   63HFI     H2  756   2.527   1.818   0.328
   64HFI     O1  757   1.102   0.146   1.237
   64HFI     C1  758   1.243   0.108   1.228
   64HFI     C2  759   1.305   0.092   1.369
   64HFI     F1  760   1.240  -0.004   1.437
   64HFI     F2  761   1.295   0.206   1.440
   64HFI     F3  762   1.434   0.055   1.366
   64HFI     C3  763   1.327   0.207   1.142
   64HFI     F4  764   1.325   0.332   1.193
   64HFI     F5  765   1.281   0.210   1.016
   64HFI     F6  766   1.455   0.172   1.134
   64HFI     H1  767   1.097   0.236   1.276
   64HFI     H2  768   1.250   0.011   1.178
   2.81572   2.81572   2.81572
