HFIP comparator n0
  768
    1HFI     O1    1   2.618   1.800   0.772 -0.3309 -0.0160  0.2441
    1HFI     C1    2   2.695   1.799   0.897  0.4925 -0.0113  0.1994
    1HFI     C2    3   2.837   1.742   0.874 -0.3670 -0.8078 -0.0141
    1HFI     F1    4   2.909   1.739   0.984  0.4149 -0.7411 -0.1945
    1HFI     F2    5   2.909   1.815   0.791 -0.3981 -0.3036  0.1503
    1HFI     F3    6   2.833   1.616   0.833 -0.1167 -0.3926  0.5800
    1HFI     C3    7   2.623   1.724   1.013  0.3979 -0.0195  0.3932
    1HFI     F4    8   2.595   1.595   0.978  0.3565  0.0970 -0.3967
    1HFI     F5    9   2.506   1.790   1.029  0.4377 -0.0079  0.0290
    1HFI     F6   10   2.678   1.727   1.131  0.1660 -0.1416  0.6524
    1HFI     H1   11   2.527   1.829   0.793 -1.0555 -1.0985 -1.2824
    1HFI     H2   12   2.721   1.898   0.935 -0.7363  0.8608 -1.1766
    2HFI     O1   13   1.211   1.387   0.552 -0.5508  0.3162  0.3209
    2HFI     C1   14   1.349   1.343   0.523 -0.2640  0.2731 -0.1107
    2HFI     C2   15   1.367   1.256   0.392 -0.0028  0.4674 -0.1945
    2HFI     F1   16   1.315   1.324   0.286  0.1500 -0.6080  0.0628
    2HFI     F2   17   1.291   1.145   0.401 -0.0075  0.0728 -0.5282
    2HFI     F3   18   1.497   1.219   0.354  0.0805 -0.4497 -0.4789
    2HFI     C3   19   1.426   1.279   0.646  0.7157 -0.9268 -0.3911
    2HFI     F4   20   1.560   1.257   0.628  0.1751 -0.8772 -0.1244
    2HFI     F5   21   1.366   1.158   0.665 -0.2632 -0.3059 -0.2378
    2HFI     F6   22   1.400   1.351   0.765 -0.0585 -0.2305  0.3392
    2HFI     H1   23   1.163   1.380   0.468 -0.9160  1.6128  0.4036
    2HFI     H2   24   1.400   1.436   0.498 -1.8322  1.3141  0.4997
    3HFI     O1   25   0.530   0.173   1.380  0.0314 -0.4298 -0.2094
    3HFI     C1   26   0.559   0.042   1.426  0.2622 -0.3480 -0.6992
    3HFI     C2   27   0.437  -0.051   1.394 -0.2224 -0.6435  0.6369
    3HFI     F1   28   0.392  -0.047   1.266 -0.3840 -0.0083  0.5199
    3HFI     F2   29   0.335  -0.020   1.476  0.1821 -0.2189  0.0536
    3HFI     F3   30   0.471  -0.180   1.418 -0.2627  0.6602 -0.2129
    3HFI     C3   31   0.606   0.033   1.579 -0.5072  0.8429  0.2079
    3HFI     F4   32   0.691   0.128   1.609  0.0788  0.0512  0.5581
    3HFI     F5   33   0.663  -0.082   1.616  0.7491  0.0228  0.3122
    3HFI     F6   34   0.500   0.049   1.662  0.3492 -0.5746  0.1522
    3HFI     H1   35   0.488   0.228   1.450 -0.4135  0.8496 -1.4518
    3HFI     H2   36   0.649   0.006   1.374  0.0254 -1.0217 -0.6464
    4HFI     O1   37   0.829   0.637   2.703 -0.4398 -0.1670 -0.2362
    4HFI     C1   38   0.694   0.584   2.661 -1.0561 -0.0991 -0.3576
    4HFI     C2   39   0.639   0.497   2.767  0.2316  0.0354  0.0684
    4HFI     F1   40   0.716   0.387   2.793  0.0451  0.3268  0.2055
    4HFI     F2   41   0.516   0.460   2.747 -0.0075 -0.1395  0.0275
    4HFI     F3   42   0.639   0.572   2.879 -0.1175  0.3234 -0.2431
    4HFI     C3   43   0.705   0.521   2.517  0.6052  0.1315  0.0818
    4HFI     F4   44   0.589   0.479   2.459  0.0345 -0.6051  0.3602
    4HFI     F5   45   0.792   0.415   2.523 -0.0455  0.3918  0.1930
    4HFI     F6   46   0.767   0.606   2.438 -0.3076 -0.1719 -0.0995
    4HFI     H1   47   0.803   0.703   2.770 -0.0616  1.3244 -1.5398
    4HFI     H2   48   0.621   0.666   2.656 -2.7847 -1.5790  0.3389
    5HFI     O1   49   0.489   0.811   2.452 -0.1612 -0.1406  0.4489
    5HFI     C1   50   0.358   0.872   2.504 -0.8612  1.1331  0.1698
    5HFI     C2   51   0.247   0.767   2.507 -0.6811  0.0567 -0.4556
    5HFI     F1   52   0.273   0.676   2.608 -0.0911 -0.0964 -0.4775
    5HFI     F2   53   0.243   0.699   2.389 -0.1036  0.1344  0.3410
    5HFI     F3   54   0.125   0.821   2.538  0.4019 -0.5393 -0.0993
    5HFI     C3   55   0.320   1.009   2.430 -0.1450  0.6966 -0.1661
    5HFI     F4   56   0.266   0.991   2.303  0.0372 -0.0199 -0.4160
    5HFI     F5   57   0.426   1.092   2.426  0.4515  0.2452 -0.3290
    5HFI     F6   58   0.232   1.082   2.510  0.3367  0.4974 -0.6256
    5HFI     H1   59   0.491   0.814   2.355 -1.1704  0.5199  0.4451
    5HFI     H2   60   0.378   0.898   2.609  0.1999  1.1182 -0.0313
    6HFI     O1   61   0.034   0.170   1.762  0.6778 -0.3583  0.8326
    6HFI     C1   62  -0.111   0.177   1.794 -0.2535 -0.2701  0.6627
    6HFI     C2   63  -0.174   0.059   1.869 -0.0297 -0.1463  0.0812
    6HFI     F1   64  -0.121   0.051   1.995 -0.0732  0.2950  0.0024
    6HFI     F2   65  -0.155  -0.058   1.798 -0.2329  0.3851 -0.4170
    6HFI     F3   66  -0.306   0.070   1.899  0.0118 -0.4925 -0.2644
    6HFI     C3   67  -0.201   0.231   1.673 -0.0373  0.4874  0.0095
    6HFI     F4   68  -0.230   0.128   1.595  0.3023 -0.2211 -0.2907
    6HFI     F5   69  -0.147   0.328   1.589  0.0767  0.6642  0.7108
    6HFI     F6   70  -0.318   0.280   1.721  0.1151 -0.3712  0.1015
    6HFI     H1   71   0.050   0.092   1.707  0.8487  0.5004 -0.3522
    6HFI     H2   72  -0.120   0.260   1.865 -2.6455 -1.4214  1.7597
    7HFI     O1   73   1.401   1.304   2.182  0.0624 -0.1692  0.0929
    7HFI     C1   74   1.357   1.179   2.247 -0.4420 -0.3848  0.7045
    7HFI     C2   75   1.256   1.104   2.161  0.5516  0.0746 -0.2901
    7HFI     F1   76   1.143   1.175   2.135  0.3620  0.3814  0.3930
    7HFI     F2   77   1.221   0.991   2.214  0.3914  0.0217 -1.0953
    7HFI     F3   78   1.314   1.074   2.040 -0.5217  0.4574 -0.8059
    7HFI     C3   79   1.322   1.203   2.392  0.0920  0.5942  0.5145
    7HFI     F4   80   1.215   1.295   2.403  0.7971 -0.4266  0.0407
    7HFI     F5   81   1.432   1.246   2.454  0.5041 -0.3973 -0.0871
    7HFI     F6   82   1.287   1.088   2.457 -0.2319  0.2881  0.0107
    7HFI     H1   83   1.337   1.377   2.186  2.7940  2.2218  2.2560
    7HFI     H2   84   1.449   1.119   2.245  0.8605  1.5940 -1.3275
    8HFI     O1   85   0.536   0.088   0.654  0.2737  0.3830 -0.0678
    8HFI     C1   86   0.474  -0.036   0.682 -0.1110  0.6742  0.3388
    8HFI     C2   87   0.482  -0.131   0.557 -0.3553  0.2882  0.1610
    8HFI     F1   88   0.606  -0.127   0.492 -0.1162 -0.4181  0.3710
    8HFI     F2   89   0.387  -0.105   0.471 -0.6636  0.1195 -0.0968
    8HFI     F3   90   0.467  -0.258   0.604  0.3524 -0.0165  0.0785
    8HFI     C3   91   0.325  -0.019   0.746  0.2559 -0.3073  0.4681
    8HFI     F4   92   0.332  -0.032   0.884  0.2171 -0.0691  0.2919
    8HFI     F5   93   0.241  -0.121   0.711  0.6988  0.1219 -0.4693
    8HFI     F6   94   0.265   0.099   0.719  0.1167 -0.3793  0.4732
    8HFI     H1   95   0.482   0.152   0.703 -0.7121 -0.4392 -0.0598
    8HFI     H2   96   0.532  -0.084   0.762 -0.0748 -1.9717 -1.2284
    9HFI     O1   97   1.148   0.728   1.726 -0.4586  0.2606  0.3599
    9HFI     C1   98   1.104   0.867   1.728 -0.0156  0.4813 -0.0442
    9HFI     C2   99   0.986   0.896   1.629  0.6469 -0.1976  0.0306
    9HFI     F1  100   0.935   1.021   1.641  0.0875 -0.3015  0.7354
    9HFI     F2  101   0.882   0.814   1.656  0.1409 -0.1673 -0.1198
    9HFI     F3  102   1.003   0.883   1.498  0.0951 -0.1207  0.4979
    9HFI     C3  103   1.219   0.963   1.713  0.3554  0.2234 -0.0135
    9HFI     F4  104   1.267   0.967   1.585 -0.0543 -0.1092  0.2811
    9HFI     F5  105   1.323   0.930   1.797  0.0324  0.2096 -0.1614
    9HFI     F6  106   1.177   1.085   1.747  0.1857 -0.2226 -0.4458
    9HFI     H1  107   1.193   0.714   1.641 -2.3372  1.0557 -0.7968
    9HFI     H2  108   1.060   0.882   1.828  0.2113  0.7630  0.0121
   10HFI     O1  109   1.177   0.325   2.699  0.4286  0.2005 -0.0408
   10HFI     C1  110   1.199   0.423   2.593  0.0114  0.2327  0.4875
   10HFI     C2  111   1.187   0.350   2.458 -0.1792  0.8618  0.3559
   10HFI     F1  112   1.266   0.242   2.451  0.4361  0.2616 -0.1184
   10HFI     F2  113   1.225   0.433   2.355 -0.5601  0.4415  0.2132
   10HFI     F3  114   1.059   0.304   2.437 -0.0958 -0.0493  0.3695
   10HFI     C3  115   1.333   0.490   2.615  0.7277  0.0492  0.9431
   10HFI     F4  116   1.438   0.399   2.624  0.1378  0.1611  0.7000
   10HFI     F5  117   1.327   0.559   2.729  0.1603  0.4918  0.1135
   10HFI     F6  118   1.357   0.581   2.515  0.6297 -0.5569  0.2664
   10HFI     H1  119   1.190   0.234   2.667  2.7534  1.0981 -1.8533
   10HFI     H2  120   1.122   0.501   2.596 -1.1626 -0.8482 -0.8059
   11HFI     O1  121   2.187   2.411   1.047  0.3052 -0.0735 -0.0526
   11HFI     C1  122   2.146   2.382   1.191  0.3934  0.6257  0.0473
   11HFI     C2  123   2.179   2.506   1.278  0.1391  0.3648 -0.0190
   11HFI     F1  124   2.120   2.618   1.222  0.5341 -0.0301 -0.2524
   11HFI     F2  125   2.316   2.529   1.284 -0.0189  0.1661  0.0329
   11HFI     F3  126   2.126   2.508   1.405 -0.0717  0.4064 -0.4320
   11HFI     C3  127   2.205   2.243   1.249 -0.6241  0.8988  0.1945
   11HFI     F4  128   2.323   2.259   1.315 -0.4540 -0.2587  0.3592
   11HFI     F5  129   2.232   2.151   1.151  0.3634  0.0234  0.4573
   11HFI     F6  130   2.115   2.180   1.336  0.5227 -0.2855 -0.7337
   11HFI     H1  131   2.266   2.468   1.048  0.6987 -0.6188 -0.1404
   11HFI     H2  132   2.037   2.366   1.194  0.2754  1.2317 -0.7366
   12HFI     O1  133   0.925   0.366   1.388 -0.0715  0.0709 -0.1041
   12HFI     C1  134   0.953   0.332   1.527 -0.2143  0.6857  0.2722
   12HFI     C2  135   1.020   0.444   1.603 -0.7771 -0.4977 -0.3235
   12HFI     F1  136   1.082   0.411   1.715  0.1239  0.4358  0.0793
   12HFI     F2  137   0.928   0.543   1.633 -0.3913 -0.0692  0.3173
   12HFI     F3  138   1.112   0.504   1.517 -0.4540 -0.2048 -0.2257
   12HFI     C3  139   1.033   0.204   1.533 -0.6670  0.3475 -0.5382
   12HFI     F4  140   1.155   0.224   1.478  0.0174  0.2937 -0.3019
   12HFI     F5  141   0.972   0.099   1.474  0.1312 -0.2352 -0.0616
   12HFI     F6  142   1.048   0.168   1.664  0.2784 -0.2025 -0.3723
   12HFI     H1  143   0.964   0.452   1.368  0.2575 -0.5032 -2.0296
   12HFI     H2  144   0.859   0.325   1.583  0.4460  0.7307  1.3943
   13HFI     O1  145   0.181   2.110   1.444 -0.5332 -0.5576  0.4872
   13HFI     C1  146   0.072   2.147   1.350 -0.7167 -0.0327 -0.0595
   13HFI     C2  147  -0.059   2.124   1.419 -0.4020 -0.5199  0.2613
   13HFI     F1  148  -0.154   2.185   1.340 -0.1513  0.2480  0.4056
   13HFI     F2  149  -0.069   2.195   1.536 -0.0335  0.2716  0.3108
   13HFI     F3  150  -0.091   1.999   1.448 -0.3473  0.1646 -0.6413
   13HFI     C3  151   0.094   2.081   1.213 -0.0572 -0.3997  0.5088
   13HFI     F4  152  -0.022   2.060   1.149  0.5915  0.4660 -0.5427
   13HFI     F5  153   0.163   1.963   1.218  0.2385  0.0383  0.5107
   13HFI     F6  154   0.157   2.171   1.130  0.5878 -0.2097  0.4248
   13HFI     H1  155   0.267   2.122   1.401 -0.0072 -2.0243  1.1012
   13HFI     H2  156   0.079   2.253   1.322  1.3196 -0.3966 -0.9457
   14HFI     O1  157   0.314   2.064   0.620  0.1468 -0.2899  0.1192
   14HFI     C1  158   0.388   2.128   0.732 -0.0365 -0.6413 -0.2250
   14HFI     C2  159   0.341   2.084   0.872 -0.0492  0.1955  0.5694
   14HFI     F1  160   0.212   2.101   0.884 -0.0937  0.3094  0.2010
   14HFI     F2  161   0.404   2.155   0.975  0.5572  0.2976 -0.4333
   14HFI     F3  162   0.377   1.952   0.885  0.7528  0.8382  0.7653
   14HFI     C3  163   0.373   2.287   0.713  0.0685  0.0434 -0.7275
   14HFI     F4  164   0.258   2.342   0.752 -0.2414  0.2049  0.3194
   14HFI     F5  165   0.379   2.321   0.582  0.1734  0.4531 -0.5611
   14HFI     F6  166   0.472   2.357   0.773  0.3372  0.3538 -0.1745
   14HFI     H1  167   0.367   2.083   0.540 -1.1409  0.4028 -0.5912
   14HFI     H2  168   0.495   2.106   0.722  0.0391 -0.7940  0.8105
   15HFI     O1  169   1.250   1.178   1.071 -0.3486 -0.8202  0.8166
   15HFI     C1  170   1.337   1.156   1.182 -0.3390 -0.0726 -0.2733
   15HFI     C2  171   1.355   1.008   1.223 -0.8447  0.2792  0.4829
   15HFI     F1  172   1.441   0.998   1.325 -0.2724 -0.1868  0.4404
   15HFI     F2  173   1.409   0.936   1.120 -0.2480 -0.0458 -0.4559
   15HFI     F3  174   1.237   0.951   1.254 -0.4326 -0.2547  0.2348
   15HFI     C3  175   1.297   1.244   1.303  0.3364  0.0162 -0.7138
   15HFI     F4  176   1.181   1.201   1.345  0.1880 -0.3626  0.6986
   15HFI     F5  177   1.282   1.373   1.276 -0.0432 -0.3301 -0.1239
   15HFI     F6  178   1.387   1.238   1.402  0.2847  0.0295 -0.6038
   15HFI     H1  179   1.214   1.089   1.058 -1.1160 -0.5131  0.7923
   15HFI     H2  180   1.438   1.191   1.157 -0.6331 -0.5183 -2.1251
   16HFI     O1  181   1.624   2.347   0.873  0.1268 -0.5948  0.0835
   16HFI     C1  182   1.661   2.427   0.757  0.0956 -0.5856 -0.5214
   16HFI     C2  183   1.606   2.364   0.622  1.1284  0.2709  0.5666
   16HFI     F1  184   1.630   2.231   0.611  0.4477  0.6836  0.0698
   16HFI     F2  185   1.646   2.441   0.518  0.2714 -0.2679  0.2535
   16HFI     F3  186   1.468   2.376   0.630 -0.1795  0.2172 -0.0971
   16HFI     C3  187   1.810   2.450   0.767 -1.0292  0.2272 -0.0355
   16HFI     F4  188   1.865   2.488   0.650 -0.1955 -0.1532  0.0431
   16HFI     F5  189   1.870   2.333   0.796 -0.5743 -0.6138  0.0435
   16HFI     F6  190   1.839   2.542   0.864 -0.3463  0.2769  0.3666
   16HFI     H1  191   1.691   2.278   0.886 -0.4536 -0.9885  0.9757
   16HFI     H2  192   1.624   2.529   0.767  1.9591  0.0236  0.2853
   17HFI     O1  193   2.683   1.015   1.053  0.3681 -0.3010  0.8604
   17HFI     C1  194   2.739   1.035   0.916  0.0007 -0.3443  0.4516
   17HFI     C2  195   2.636   1.113   0.814  0.1680  0.0228  0.0423
   17HFI     F1  196   2.546   1.173   0.891  0.7257 -0.3379  0.6832
   17HFI     F2  197   2.551   1.032   0.744 -0.0144 -0.3442 -0.0676
   17HFI     F3  198   2.687   1.211   0.738  0.0881 -0.1432  0.0151
   17HFI     C3  199   2.792   0.909   0.853 -0.5213 -0.4933  0.4006
   17HFI     F4  200   2.698   0.815   0.857 -0.0819 -0.2015 -0.3978
   17HFI     F5  201   2.905   0.868   0.913  0.5608 -0.0888  0.1612
   17HFI     F6  202   2.821   0.932   0.722 -0.9934  0.3190 -0.4648
   17HFI     H1  203   2.638   0.929   1.050  0.7847 -0.4890 -0.2670
   17HFI     H2  204   2.826   1.099   0.934 -0.4689  0.4675 -0.1050
   18HFI     O1  205   1.152   0.359   0.167  0.3419 -0.4685 -0.2433
   18HFI     C1  206   1.280   0.375   0.229 -0.2041 -0.5221 -0.2965
   18HFI     C2  207   1.382   0.263   0.195  0.1976 -0.5169  0.2762
   18HFI     F1  208   1.338   0.140   0.238  0.2799  0.1795  0.1715
   18HFI     F2  209   1.508   0.283   0.244 -0.3704  0.0148  0.7562
   18HFI     F3  210   1.399   0.246   0.065  0.5753  0.5365  0.0888
   18HFI     C3  211   1.273   0.389   0.388  0.4193  0.0936  0.5044
   18HFI     F4  212   1.199   0.284   0.443  0.3271 -0.7266  0.2690
   18HFI     F5  213   1.202   0.501   0.412 -0.5486  0.3886 -0.0971
   18HFI     F6  214   1.392   0.396   0.444  0.3084  0.8422  0.2030
   18HFI     H1  215   1.148   0.328   0.075  0.8004  2.0329 -1.1340
   18HFI     H2  216   1.326   0.469   0.195 -1.1417  0.8095  2.0435
   19HFI     O1  217   0.632   1.748   1.306 -0.3541 -0.1489 -0.1165
   19HFI     C1  218   0.511   1.661   1.313 -0.8892  0.3218 -0.4724
   19HFI     C2  219   0.421   1.670   1.182 -0.2317  0.6071 -0.3308
   19HFI     F1  220   0.499   1.633   1.076 -0.0248 -0.5304 -0.0389
   19HFI     F2  221   0.384   1.793   1.156  0.0855  0.4440 -0.2124
   19HFI     F3  222   0.316   1.591   1.185  0.0817  0.1284  0.4113
   19HFI     C3  223   0.425   1.682   1.438 -0.1440  0.0982 -0.2359
   19HFI     F4  224   0.378   1.804   1.457  0.0587  0.2202 -0.4353
   19HFI     F5  225   0.503   1.656   1.552 -0.3863  0.2960  0.1468
   19HFI     F6  226   0.321   1.596   1.442  0.1515 -0.1695  0.0588
   19HFI     H1  227   0.710   1.692   1.293 -0.7809 -0.2634 -2.3570
   19HFI     H2  228   0.551   1.561   1.337 -0.7872  0.7168  1.0464
   20HFI     O1  229   2.810   2.658   1.080 -0.0248 -0.2086  0.2103
   20HFI     C1  230   2.763   2.789   1.118  0.5220  0.0538  0.2792
   20HFI     C2  231   2.856   2.898   1.067 -0.1364  0.7141 -0.0388
   20HFI     F1  232   2.923   2.857   0.956 -0.2802 -0.0443 -0.6883
   20HFI     F2  233   2.949   2.924   1.164 -0.2697  0.7805  0.0082
   20HFI     F3  234   2.787   3.011   1.049 -1.2097  0.0387  0.4504
   20HFI     C3  235   2.721   2.800   1.266  0.7833 -0.2991 -0.5297
   20HFI     F4  236   2.827   2.766   1.349  0.6593 -0.4116  0.2797
   20HFI     F5  237   2.612   2.723   1.292 -0.0905 -0.0782  0.2390
   20HFI     F6  238   2.691   2.925   1.294 -0.3110 -0.1569 -0.1831
   20HFI     H1  239   2.869   2.610   1.142 -1.5587 -0.2849  1.6491
   20HFI     H2  240   2.674   2.813   1.059 -0.0459  1.3628  1.6310
   21HFI     O1  241   0.606   0.861   2.177  0.8942  0.3404  0.0134
   21HFI     C1  242   0.715   0.957   2.154 -0.1392 -0.1208 -0.1222
   21HFI     C2  243   0.691   1.049   2.028  0.2783 -0.6357  0.1544
   21HFI     F1  244   0.649   0.972   1.924 -0.1080 -0.5527 -0.5287
   21HFI     F2  245   0.796   1.136   1.991  0.2617 -0.1227  0.4241
   21HFI     F3  246   0.586   1.121   2.065 -0.3178  0.0881  0.3604
   21HFI     C3  247   0.859   0.888   2.152  0.3035  0.3753  0.7321
   21HFI     F4  248   0.910   0.878   2.027 -0.5540 -0.4281  0.1759
   21HFI     F5  249   0.848   0.758   2.194 -0.3363 -0.2048  0.8409
   21HFI     F6  250   0.946   0.948   2.240 -0.0121  0.0965  0.1684
   21HFI     H1  251   0.607   0.789   2.111  0.7241 -0.3289  0.7366
   21HFI     H2  252   0.724   1.023   2.241  0.2221 -0.7056  0.2869
   22HFI     O1  253   0.682   0.362   2.106  0.1523  0.4678  0.0874
   22HFI     C1  254   0.822   0.318   2.096 -0.2329  0.5719  0.2162
   22HFI     C2  255   0.921   0.441   2.087 -0.3190 -0.2205 -0.3266
   22HFI     F1  256   0.928   0.512   2.203  0.2853 -0.1611  0.5644
   22HFI     F2  257   0.897   0.526   1.991  0.0356 -0.4331  0.2296
   22HFI     F3  258   1.050   0.404   2.062 -0.0627 -0.1272  0.2231
   22HFI     C3  259   0.837   0.222   1.972 -0.0616 -0.1266  1.3299
   22HFI     F4  260   0.818   0.293   1.856  0.4982  0.0121 -0.6899
   22HFI     F5  261   0.733   0.132   1.975 -0.3692 -0.1492 -0.2484
   22HFI     F6  262   0.946   0.143   1.971  0.0631  0.4308 -0.1967
   22HFI     H1  263   0.631   0.280   2.119 -0.3698  0.6933 -0.5262
   22HFI     H2  264   0.846   0.260   2.186 -0.9928  0.7681  0.5507
   23HFI     O1  265   1.007   1.218   2.615 -0.0571 -0.1128  0.7016
   23HFI     C1  266   0.894   1.123   2.654  0.2772 -0.2577 -0.2135
   23HFI     C2  267   0.936   0.971   2.642 -0.9581  0.1916 -0.6413
   23HFI     F1  268   1.059   0.948   2.702  0.2179  0.0046  0.0169
   23HFI     F2  269   0.931   0.936   2.513 -0.5637  0.0374 -0.0207
   23HFI     F3  270   0.843   0.898   2.712  0.4131 -0.1571 -0.1583
   23HFI     C3  271   0.759   1.158   2.588  0.7019 -0.1666  0.0602
   23HFI     F4  272   0.771   1.146   2.448 -0.1475 -0.2584  0.5428
   23HFI     F5  273   0.719   1.284   2.612 -0.2195 -0.6390 -0.1786
   23HFI     F6  274   0.657   1.076   2.641  0.0621  0.2884  0.6514
   23HFI     H1  275   1.025   1.207   2.520 -0.3249  0.1145  0.6264
   23HFI     H2  276   0.878   1.137   2.762  2.0715 -2.6739  0.4335
   24HFI     O1  277   0.724   0.388   1.211 -0.5945 -0.3911 -0.7372
   24HFI     C1  278   0.597   0.458   1.174 -0.6011 -0.5746 -0.1445
   24HFI     C2  279   0.548   0.411   1.040  0.3044  0.5304 -0.1445
   24HFI     F1  280   0.416   0.432   1.019 -0.1451  0.7106  0.0260
   24HFI     F2  281   0.568   0.279   1.023 -0.5646 -0.3291 -0.4011
   24HFI     F3  282   0.619   0.476   0.944  0.3001 -0.2051  0.1832
   24HFI     C3  283   0.601   0.614   1.190  0.4606 -0.0495 -0.0410
   24HFI     F4  284   0.698   0.669   1.121  0.3321 -0.1484  0.3159
   24HFI     F5  285   0.618   0.654   1.320 -0.8491  0.1647 -0.2570
   24HFI     F6  286   0.479   0.671   1.154 -0.4527  0.1514  0.1664
   24HFI     H1  287   0.781   0.397   1.132  1.8032  0.6751  1.0523
   24HFI     H2  288   0.528   0.421   1.250 -0.2914  0.1044  0.4721
   25HFI     O1  289   0.578   0.787   1.581  0.5811 -0.1168 -0.3258
   25HFI     C1  290   0.582   0.934   1.569 -0.1525 -0.3118 -0.2167
   25HFI     C2  291   0.452   0.993   1.636  0.5406 -0.3337 -0.0608
   25HFI     F1  292   0.347   0.965   1.555 -0.2617  0.2207  0.5717
   25HFI     F2  293   0.459   1.130   1.670 -0.2840 -0.3677  0.3149
   25HFI     F3  294   0.424   0.925   1.749 -0.2450 -0.0419  0.2555
   25HFI     C3  295   0.632   0.986   1.426 -0.0645 -0.1981  0.1616
   25HFI     F4  296   0.674   1.118   1.429  0.4168  0.0030 -0.0955
   25HFI     F5  297   0.535   0.970   1.337 -0.4153  0.0175  0.3921
   25HFI     F6  298   0.739   0.913   1.388  0.1309 -0.0387 -0.1389
   25HFI     H1  299   0.601   0.747   1.496 -2.2851 -0.2119 -1.0908
   25HFI     H2  300   0.658   0.969   1.640  0.7573  0.2343 -1.4378
   26HFI     O1  301   1.086   1.523   0.777  0.4346 -0.1486  0.4336
   26HFI     C1  302   1.121   1.668   0.780  0.4567 -0.8310  0.0268
   26HFI     C2  303   1.179   1.722   0.646 -0.2894  0.1926 -0.4304
   26HFI     F1  304   1.206   1.852   0.654 -0.0307  0.6034 -0.0106
   26HFI     F2  305   1.085   1.701   0.549  0.0900  0.4168 -0.1301
   26HFI     F3  306   1.293   1.659   0.607  0.2368 -0.2565  0.1905
   26HFI     C3  307   1.208   1.708   0.909  0.1761 -0.3340 -0.2676
   26HFI     F4  308   1.139   1.695   1.029 -0.1101  0.1461  0.1655
   26HFI     F5  309   1.249   1.838   0.904 -0.3361  0.3918  0.6325
   26HFI     F6  310   1.327   1.633   0.912 -0.4839  0.0140  0.4899
   26HFI     H1  311   1.147   1.489   0.709  1.6591 -0.8925  1.8778
   26HFI     H2  312   1.027   1.726   0.783  0.9205 -0.0872  0.1873
   27HFI     O1  313   0.918   0.423   0.360 -0.3550  0.2523 -0.0544
   27HFI     C1  314   0.840   0.370   0.471  0.3196 -0.0862 -0.3914
   27HFI     C2  315   0.680   0.404   0.439 -0.6107  0.4164 -0.0304
   27HFI     F1  316   0.653   0.335   0.322  0.0940  0.3297 -0.1324
   27HFI     F2  317   0.661   0.536   0.419 -0.8845 -0.2622 -0.0021
   27HFI     F3  318   0.588   0.348   0.531 -0.6185 -0.1666  0.2075
   27HFI     C3  319   0.891   0.431   0.604  0.1174 -0.1750  0.3267
   27HFI     F4  320   0.875   0.563   0.613 -0.3148 -0.1896 -0.3248
   27HFI     F5  321   1.016   0.408   0.630 -0.1862  0.2899 -0.2704
   27HFI     F6  322   0.820   0.379   0.702 -0.7826  0.1939  0.7117
   27HFI     H1  323   0.994   0.363   0.353 -1.4169 -1.1973  0.5206
   27HFI     H2  324   0.839   0.260   0.480 -3.5400 -0.2064 -1.5399
   28HFI     O1  325   2.764   0.503   1.386  0.6947  0.1034  0.0040
   28HFI     C1  326   2.908   0.521   1.363  0.1590 -0.4511 -0.5073
   28HFI     C2  327   2.995   0.401   1.411 -0.2950  0.9334  0.5436
   28HFI     F1  328   2.957   0.292   1.347  0.1998 -0.3657  0.0477
   28HFI     F2  329   2.986   0.383   1.547 -0.1207  0.7620  0.0931
   28HFI     F3  330   3.122   0.422   1.379  0.1795  0.1386  0.4644
   28HFI     C3  331   2.967   0.666   1.391  0.1314 -0.3453 -0.4179
   28HFI     F4  332   2.981   0.689   1.518 -0.2686 -0.1279 -0.5915
   28HFI     F5  333   2.886   0.767   1.347  0.2283 -0.5705 -0.1238
   28HFI     F6  334   3.088   0.684   1.336  0.5536 -0.0297 -0.2768
   28HFI     H1  335   2.750   0.547   1.472 -1.1663 -1.3449  0.4682
   28HFI     H2  336   2.921   0.507   1.255  1.1550  1.1071 -0.6103
   29HFI     O1  337   1.281   0.616   2.138 -0.2016  0.3884 -0.0761
   29HFI     C1  338   1.410   0.577   2.081  0.1047 -0.2338 -0.1609
   29HFI     C2  339   1.413   0.431   2.019  0.6872 -0.0331  0.1217
   29HFI     F1  340   1.361   0.336   2.102 -0.2890 -0.0839  0.5059
   29HFI     F2  341   1.534   0.390   1.978  0.5920 -0.0949  0.1134
   29HFI     F3  342   1.340   0.430   1.909 -0.1273 -0.4970  0.4486
   29HFI     C3  343   1.521   0.595   2.186 -0.3431  0.5436 -0.5942
   29HFI     F4  344   1.508   0.706   2.256  0.0193 -0.0109  0.2668
   29HFI     F5  345   1.641   0.603   2.131  0.8760  0.9442  0.0441
   29HFI     F6  346   1.529   0.494   2.277 -0.2257 -0.2234 -0.3225
   29HFI     H1  347   1.241   0.532   2.165  0.2182  0.7775  1.8124
   29HFI     H2  348   1.437   0.646   2.000  1.1668  0.6364  0.9104
   30HFI     O1  349   0.656   2.695   2.025  0.2160  0.8899 -0.4516
   30HFI     C1  350   0.736   2.616   1.941 -0.1271 -0.7122  0.3650
   30HFI     C2  351   0.638   2.505   1.882  0.1859  0.1815  0.5274
   30HFI     F1  352   0.592   2.409   1.967  0.1424  0.2186  0.0269
   30HFI     F2  353   0.700   2.443   1.776 -0.0229 -0.4749 -0.1099
   30HFI     F3  354   0.532   2.568   1.834  0.1858 -0.0366 -0.4864
   30HFI     C3  355   0.852   2.562   2.022 -0.2412 -0.2600 -0.3077
   30HFI     F4  356   0.811   2.489   2.129 -0.1218 -0.1963 -0.5044
   30HFI     F5  357   0.930   2.655   2.073 -0.5307  0.1956  0.2756
   30HFI     F6  358   0.919   2.482   1.936 -0.1557  0.1901  0.5289
   30HFI     H1  359   0.566   2.713   1.993  1.0596 -0.4376 -3.7981
   30HFI     H2  360   0.792   2.670   1.864 -0.2819  4.1306  3.4060
   31HFI     O1  361   0.814   2.135   1.901  0.1558 -0.9588 -0.5560
   31HFI     C1  362   0.852   2.005   1.839  0.0629  0.1980  0.2727
   31HFI     C2  363   0.765   1.976   1.710 -0.2716 -0.8782  0.1709
   31HFI     F1  364   0.815   2.051   1.604 -0.2796 -0.2653  0.1090
   31HFI     F2  365   0.633   2.011   1.732 -0.2368 -0.2138 -0.3110
   31HFI     F3  366   0.764   1.845   1.674  0.2662  0.1258 -0.5237
   31HFI     C3  367   0.865   1.887   1.936 -0.1946  0.5838  0.2334
   31HFI     F4  368   0.952   1.912   2.038 -0.1330  0.4537 -0.5124
   31HFI     F5  369   0.912   1.772   1.869  0.3813  0.3042 -0.4219
   31HFI     F6  370   0.744   1.858   1.985  0.6031 -0.7996  0.2602
   31HFI     H1  371   0.727   2.133   1.946  0.7446  2.2560  0.8571
   31HFI     H2  372   0.952   2.019   1.795  0.3796  1.5603  1.3832
   32HFI     O1  373   2.786   0.299   2.202  0.3229 -0.2829 -0.6820
   32HFI     C1  374   2.923   0.328   2.253 -0.0558 -0.2347 -0.7979
   32HFI     C2  375   3.022   0.221   2.193 -0.0049  0.0097 -0.0137
   32HFI     F1  376   2.985   0.100   2.245 -0.2446 -0.3765 -0.1584
   32HFI     F2  377   3.152   0.245   2.213  0.2521 -0.3116 -0.3559
   32HFI     F3  378   3.014   0.218   2.055  0.2473  0.0068  0.2197
   32HFI     C3  379   2.929   0.327   2.411 -0.9884 -0.3747 -0.3286
   32HFI     F4  380   2.875   0.438   2.465  0.0342  0.2667  0.1757
   32HFI     F5  381   3.055   0.333   2.451 -0.3180 -0.2570  0.0026
   32HFI     F6  382   2.871   0.209   2.457  0.4556 -0.1202 -0.0729
   32HFI     H1  383   2.745   0.229   2.255  0.0578 -0.0085 -0.5172
   32HFI     H2  384   2.953   0.428   2.218 -0.7714 -0.1171 -1.0877
   33HFI     O1  385   0.594   0.611   1.987  0.2516  0.2449  0.4820
   33HFI     C1  386   0.489   0.612   1.881 -0.7767  0.1489  0.5644
   33HFI     C2  387   0.344   0.630   1.946 -0.2103  0.2342  0.1063
   33HFI     F1  388   0.255   0.577   1.864  0.2381  0.1599  0.1278
   33HFI     F2  389   0.310   0.758   1.965 -0.0468 -0.5986  0.2791
   33HFI     F3  390   0.337   0.578   2.069 -0.4938  0.1693  0.6279
   33HFI     C3  391   0.501   0.490   1.785  1.0992  0.2618 -0.1120
   33HFI     F4  392   0.494   0.372   1.850  0.2711  0.6346  0.3702
   33HFI     F5  393   0.615   0.488   1.714 -0.8104 -0.0486 -0.1719
   33HFI     F6  394   0.404   0.490   1.685 -0.4953 -0.1569 -0.2105
   33HFI     H1  395   0.608   0.520   2.018  0.4981  0.2180  0.2959
   33HFI     H2  396   0.507   0.699   1.818 -0.1362 -0.1730  0.2972
   34HFI     O1  397   0.825   1.689   0.966  0.1864 -0.3202  0.0593
   34HFI     C1  398   0.756   1.815   0.972 -0.0595 -0.3343 -0.6143
   34HFI     C2  399   0.703   1.863   0.836  0.1821  0.0618  0.1695
   34HFI     F1  400   0.606   1.780   0.795  0.4273 -0.3688  0.2466
   34HFI     F2  401   0.800   1.865   0.742 -0.0257  0.0384 -0.7330
   34HFI     F3  402   0.652   1.985   0.840  0.2769  0.5643  0.3206
   34HFI     C3  403   0.835   1.922   1.055  0.2017  0.2180 -0.1551
   34HFI     F4  404   0.942   1.964   0.990 -0.3290 -0.1234 -0.5700
   34HFI     F5  405   0.868   1.867   1.171 -0.4143  0.1884  0.1694
   34HFI     F6  406   0.762   2.032   1.084 -0.2343 -0.0663 -0.5381
   34HFI     H1  407   0.770   1.613   0.940 -1.3134  1.4491 -2.1780
   34HFI     H2  408   0.661   1.805   1.026 -0.7726  1.5046 -1.4625
   35HFI     O1  409   0.510   1.138   0.723  0.4313  0.3820 -0.1646
   35HFI     C1  410   0.409   1.030   0.747 -0.5103  0.2674  0.3956
   35HFI     C2  411   0.461   0.935   0.854 -0.3310  0.1408  0.3199
   35HFI     F1  412   0.407   0.816   0.842  0.1216  0.4249 -0.2398
   35HFI     F2  413   0.426   0.974   0.983  0.0115  0.2050  0.3451
   35HFI     F3  414   0.598   0.928   0.855  0.1216 -0.3556 -0.2719
   35HFI     C3  415   0.382   0.949   0.614 -0.0914  0.1396  0.8542
   35HFI     F4  416   0.347   1.033   0.511  0.3461 -0.0636  0.0612
   35HFI     F5  417   0.289   0.846   0.618  0.0684  0.1857  0.0549
   35HFI     F6  418   0.502   0.897   0.573  0.0110 -0.5925 -0.3808
   35HFI     H1  419   0.595   1.109   0.761  0.5724  1.5737  0.4508
   35HFI     H2  420   0.312   1.075   0.771 -0.8436 -0.6875  0.9032
   36HFI     O1  421   1.977   1.779   1.009 -0.2830  0.4097  0.1705
   36HFI     C1  422   1.976   1.923   0.990 -0.2879  0.1524 -0.5889
   36HFI     C2  423   1.826   1.974   0.964  0.6975  0.5641  0.2801
   36HFI     F1  424   1.767   1.908   0.862  0.0144 -0.2613 -0.3071
   36HFI     F2  425   1.805   2.112   0.941 -0.6126 -0.2916  0.1598
   36HFI     F3  426   1.757   1.936   1.072  0.2466  0.1723 -0.5590
   36HFI     C3  427   2.076   1.978   0.894  1.2186 -0.8139  0.2362
   36HFI     F4  428   2.040   1.945   0.770  0.8575 -0.4033 -0.2990
   36HFI     F5  429   2.199   1.930   0.922 -0.0940  0.1079  0.3796
   36HFI     F6  430   2.075   2.113   0.896  0.0056  0.1802  0.2872
   36HFI     H1  431   2.060   1.738   0.976 -0.6154 -0.2913  0.1981
   36HFI     H2  432   2.007   1.969   1.085  0.8176  0.3995 -1.0656
   37HFI     O1  433   2.552   0.244   2.561  0.3344 -0.2878 -0.0324
   37HFI     C1  434   2.425   0.290   2.489  0.1770  0.4598 -0.3254
   37HFI     C2  435   2.364   0.178   2.389  0.0444  0.0949 -0.0901
   37HFI     F1  436   2.239   0.216   2.341  0.1868 -0.0890  0.3614
   37HFI     F2  437   2.347   0.058   2.446 -0.0320  0.7033 -0.2284
   37HFI     F3  438   2.444   0.157   2.287 -0.3888 -0.0938 -0.0006
   37HFI     C3  439   2.439   0.431   2.427 -0.9570  0.1680 -0.8664
   37HFI     F4  440   2.519   0.426   2.320  0.2922  0.1043 -0.1607
   37HFI     F5  441   2.494   0.522   2.517  0.3039 -0.3472 -0.3757
   37HFI     F6  442   2.321   0.486   2.392  0.0518  0.0606 -0.0654
   37HFI     H1  443   2.595   0.320   2.603 -1.9362  0.8543  0.2848
   37HFI     H2  444   2.339   0.300   2.558 -0.7946 -0.8261 -1.3213
   38HFI     O1  445   0.993   1.380   0.054  0.7082 -0.0956  0.1464
   38HFI     C1  446   1.017   1.521   0.022 -0.0224 -1.1508  0.3811
   38HFI     C2  447   1.153   1.573   0.084  0.0119 -0.2186 -0.4096
   38HFI     F1  448   1.251   1.508   0.019  0.1340 -0.3174 -0.6034
   38HFI     F2  449   1.159   1.544   0.216  0.3335 -0.3667  0.2555
   38HFI     F3  450   1.167   1.710   0.069 -0.3450 -0.5492  0.5281
   38HFI     C3  451   0.901   1.613   0.075  0.5505 -0.0589 -0.2916
   38HFI     F4  452   0.893   1.625   0.210 -0.0250  0.2422 -0.2354
   38HFI     F5  453   0.785   1.556   0.036  0.5867  0.7426 -0.2769
   38HFI     F6  454   0.915   1.735   0.016 -0.1064  0.4841  0.3998
   38HFI     H1  455   1.044   1.319  -0.001 -0.1373  1.6971 -2.7262
   38HFI     H2  456   1.015   1.537  -0.086  0.3417  2.6817  0.8706
   39HFI     O1  457   0.671   1.438   2.364  0.2514 -0.1484  0.1000
   39HFI     C1  458   0.765   1.544   2.317 -0.5733  0.2011  0.1908
   39HFI     C2  459   0.909   1.493   2.271  0.4887  0.5654  0.0839
   39HFI     F1  460   0.975   1.588   2.200 -0.0404 -0.0519  0.2271
   39HFI     F2  461   0.891   1.377   2.190  0.1372  0.2238 -0.2420
   39HFI     F3  462   0.982   1.456   2.379  0.6635  0.0844  0.3480
   39HFI     C3  463   0.780   1.668   2.412  0.3353  0.1609 -0.4813
   39HFI     F4  464   0.832   1.637   2.529  0.1076 -0.1502  0.1846
   39HFI     F5  465   0.661   1.728   2.441  0.0802 -0.0344 -0.2883
   39HFI     F6  466   0.868   1.762   2.356  0.2054 -0.1253 -0.1183
   39HFI     H1  467   0.692   1.425   2.458 -2.4678 -1.6681  0.5280
   39HFI     H2  468   0.717   1.583   2.227  1.4977 -1.9886 -1.9320
   40HFI     O1  469   2.481   0.829   1.037 -0.1192 -0.6237 -0.3071
   40HFI     C1  470   2.421   0.747   1.150  0.6150  0.1803 -0.2649
   40HFI     C2  471   2.492   0.782   1.288 -0.9970 -0.4981  0.0312
   40HFI     F1  472   2.465   0.916   1.318  0.1804  0.0353 -0.4093
   40HFI     F2  473   2.627   0.767   1.274 -0.3814  0.4038 -0.7025
   40HFI     F3  474   2.444   0.711   1.395 -0.3773  0.7389  0.6477
   40HFI     C3  475   2.420   0.589   1.118 -0.2188  0.0651  0.6768
   40HFI     F4  476   2.550   0.549   1.087 -0.2298 -0.0357 -0.1804
   40HFI     F5  477   2.343   0.561   1.009 -0.2037  0.4948 -0.5043
   40HFI     F6  478   2.375   0.514   1.222  0.0682  0.3250 -0.2488
   40HFI     H1  479   2.468   0.774   0.957  0.6784 -0.4690 -0.5465
   40HFI     H2  480   2.312   0.755   1.162  0.9594  1.3754  2.3254
   41HFI     O1  481   0.833   0.082   2.437  0.8711  0.8530  0.9433
   41HFI     C1  482   0.753   0.065   2.557  0.3295 -0.3686 -0.2105
   41HFI     C2  483   0.773  -0.081   2.615 -1.1222 -0.2076  0.1294
   41HFI     F1  484   0.904  -0.105   2.645 -0.2101  0.0262 -0.1786
   41HFI     F2  485   0.743  -0.170   2.515 -0.2330 -0.5964 -0.0932
   41HFI     F3  486   0.697  -0.108   2.720 -0.1609 -0.5593  0.1541
   41HFI     C3  487   0.597   0.080   2.535  0.5266  0.0405  0.5666
   41HFI     F4  488   0.517   0.066   2.647  0.0687 -0.2097 -0.2219
   41HFI     F5  489   0.550   0.019   2.433  0.0364 -0.1494 -0.3802
   41HFI     F6  490   0.593   0.212   2.506  0.4759  0.4123 -0.5198
   41HFI     H1  491   0.829   0.002   2.381 -1.2354  1.2131  0.5623
   41HFI     H2  492   0.785   0.134   2.636  0.3539 -1.9621  1.2128
   42HFI     O1  493   0.922   0.748   0.228 -0.4478  0.4121  0.2121
   42HFI     C1  494   1.027   0.791   0.318  0.7184  0.1903 -0.9723
   42HFI     C2  495   0.984   0.911   0.411 -0.1787  0.2686  0.2239
   42HFI     F1  496   0.861   0.883   0.455 -0.0910 -0.4479  0.7896
   42HFI     F2  497   0.983   1.030   0.344 -0.1218  0.0952 -0.2890
   42HFI     F3  498   1.065   0.926   0.520  0.2646  0.8351 -0.6782
   42HFI     C3  499   1.157   0.803   0.236 -0.2742  0.4400  0.1022
   42HFI     F4  500   1.150   0.903   0.154  0.0478 -0.1323 -0.0872
   42HFI     F5  501   1.180   0.687   0.169  0.7387 -0.1731  0.0734
   42HFI     F6  502   1.264   0.834   0.323 -0.1138  0.8308 -0.4838
   42HFI     H1  503   0.838   0.737   0.276  0.3604  0.2984  1.6326
   42HFI     H2  504   1.045   0.710   0.390  3.1013  0.1998 -1.5340
   43HFI     O1  505   0.633   1.999   2.813 -0.1971 -0.1894 -0.1364
   43HFI     C1  506   0.533   2.043   2.911 -0.1178 -0.0900  0.1596
   43HFI     C2  507   0.582   2.034   3.058 -0.1148  0.1158  0.0458
   43HFI     F1  508   0.684   2.120   3.072 -0.0150  0.1140 -0.0502
   43HFI     F2  509   0.637   1.910   3.087  0.3117  0.2717 -0.0338
   43HFI     F3  510   0.483   2.071   3.150 -0.3680  0.1233 -0.1493
   43HFI     C3  511   0.393   1.976   2.892 -0.1849 -0.3293  0.0663
   43HFI     F4  512   0.299   2.068   2.911 -0.2558 -0.2623  0.0185
   43HFI     F5  513   0.376   1.874   2.973 -0.5215  0.2447  0.0353
   43HFI     F6  514   0.386   1.930   2.766 -0.4349  0.4076 -0.0544
   43HFI     H1  515   0.612   1.916   2.768  0.0861  0.0048 -0.6356
   43HFI     H2  516   0.527   2.151   2.893  1.9978  0.0244  0.0600
   44HFI     O1  517   2.286   2.236   0.488 -0.8212 -0.0812  0.6468
   44HFI     C1  518   2.168   2.322   0.479 -0.3517  0.1192  0.0087
   44HFI     C2  519   2.078   2.267   0.377 -0.1448 -0.3758  0.0306
   44HFI     F1  520   2.074   2.136   0.399 -0.0262  0.3353 -0.4975
   44HFI     F2  521   2.130   2.288   0.252  0.3417  0.0056 -0.3497
   44HFI     F3  522   1.954   2.313   0.390  0.2093 -0.6836 -0.1056
   44HFI     C3  523   2.196   2.470   0.458  0.2522 -0.6522 -0.0358
   44HFI     F4  524   2.288   2.488   0.360  0.3371 -0.2300 -0.4067
   44HFI     F5  525   2.255   2.508   0.576  0.9160 -0.0809 -0.3110
   44HFI     F6  526   2.089   2.547   0.445 -0.0731  0.2596 -0.2344
   44HFI     H1  527   2.311   2.200   0.401 -1.3350 -1.9308  1.2425
   44HFI     H2  528   2.117   2.305   0.575  1.5007 -3.4002  0.4166
   45HFI     O1  529   0.969   1.365   1.151 -0.1320  0.4974  0.1309
   45HFI     C1  530   0.857   1.281   1.144 -0.2674  0.4117 -0.3250
   45HFI     C2  531   0.892   1.157   1.055 -0.0556 -0.6551  0.6759
   45HFI     F1  532   0.779   1.091   1.038  0.1439 -0.0067 -0.2472
   45HFI     F2  533   0.979   1.081   1.114  0.6994  0.0181 -0.0728
   45HFI     F3  534   0.932   1.194   0.924  0.3712  0.1708  0.4624
   45HFI     C3  535   0.726   1.348   1.088  0.4335 -0.1310  0.5935
   45HFI     F4  536   0.729   1.371   0.954 -0.3363  0.0107  0.2897
   45HFI     F5  537   0.711   1.465   1.153  0.0893  0.1866 -0.3454
   45HFI     F6  538   0.616   1.276   1.112  0.0829 -0.3462 -0.5257
   45HFI     H1  539   1.047   1.321   1.114 -0.1559 -0.8330  1.6256
   45HFI     H2  540   0.828   1.230   1.238  0.0345  0.7279 -0.0603
   46HFI     O1  541   0.543   2.366   1.323 -0.6878 -0.0024  0.6715
   46HFI     C1  542   0.671   2.387   1.255  0.1754  0.4340  0.0691
   46HFI     C2  543   0.779   2.360   1.358 -0.3008 -0.3943 -0.0899
   46HFI     F1  544   0.763   2.230   1.401 -0.0792 -0.4468 -0.3753
   46HFI     F2  545   0.767   2.441   1.462  0.6139  0.0178  0.0871
   46HFI     F3  546   0.898   2.377   1.295 -0.5706  0.3651  0.4617
   46HFI     C3  547   0.686   2.528   1.178  0.1353  0.0715 -0.1154
   46HFI     F4  548   0.749   2.614   1.258  0.5397 -0.0903 -0.1041
   46HFI     F5  549   0.561   2.568   1.139 -0.4351  0.0164 -0.0675
   46HFI     F6  550   0.754   2.508   1.062  0.1575  0.0420  0.0518
   46HFI     H1  551   0.515   2.452   1.357 -0.8400 -0.0595  0.6942
   46HFI     H2  552   0.685   2.308   1.179  0.4903  0.5862 -0.0304
   47HFI     O1  553   1.164   0.075   2.199 -0.1691  0.1158  0.7606
   47HFI     C1  554   1.302   0.038   2.225 -0.6210 -1.1855  0.5164
   47HFI     C2  555   1.382  -0.001   2.093 -0.1361 -0.4538 -0.4155
   47HFI     F1  556   1.350  -0.124   2.028 -0.1487  0.3774  0.5089
   47HFI     F2  557   1.518   0.001   2.113 -0.0161 -0.0369  0.2589
   47HFI     F3  558   1.362   0.098   2.003  0.2109  0.3615 -0.0151
   47HFI     C3  559   1.311  -0.083   2.328  0.4593 -0.4880 -0.7254
   47HFI     F4  560   1.235  -0.190   2.290  0.4671  0.3087  0.4490
   47HFI     F5  561   1.262  -0.043   2.446 -0.2086  0.4581  0.1431
   47HFI     F6  562   1.434  -0.138   2.346 -0.1258 -0.5069 -0.2353
   47HFI     H1  563   1.153   0.069   2.103 -0.3670 -3.7828  0.9475
   47HFI     H2  564   1.362   0.119   2.268 -0.0932  0.0772 -2.4125
   48HFI     O1  565   0.927   2.791   0.853 -0.4659 -0.6959  0.1542
   48HFI     C1  566   1.022   2.779   0.963 -0.0802 -0.2366 -0.1465
   48HFI     C2  567   1.031   2.889   1.065 -0.7605 -0.0583 -0.6253
   48HFI     F1  568   1.100   2.989   1.005  0.0848 -0.1870 -0.4475
   48HFI     F2  569   1.102   2.840   1.168  0.2943  0.0066 -0.2890
   48HFI     F3  570   0.917   2.947   1.111 -0.8924 -0.3285  0.1429
   48HFI     C3  571   1.167   2.726   0.909 -0.9082 -0.5603 -0.0827
   48HFI     F4  572   1.257   2.714   1.012 -0.5138 -0.0742  0.1681
   48HFI     F5  573   1.222   2.810   0.813  0.3712  0.4739 -0.1643
   48HFI     F6  574   1.159   2.599   0.860  0.2492 -0.0310  0.0453
   48HFI     H1  575   0.912   2.703   0.816 -1.6339 -0.4297 -0.0265
   48HFI     H2  576   0.990   2.693   1.022 -2.3984 -0.3451 -1.4785
   49HFI     O1  577   1.005   2.598   0.317  0.7700  0.0851  0.1646
   49HFI     C1  578   1.037   2.734   0.342 -0.0617 -0.5730 -0.2421
   49HFI     C2  579   1.020   2.760   0.495  0.2445 -0.5873  0.1234
   49HFI     F1  580   0.899   2.799   0.531  0.3317  0.2619 -0.3198
   49HFI     F2  581   1.103   2.860   0.527 -0.4882  0.5143 -0.9189
   49HFI     F3  582   1.060   2.661   0.577  0.0182  0.0355 -0.0912
   49HFI     C3  583   0.954   2.842   0.256 -0.7443  0.2144  0.0919
   49HFI     F4  584   0.819   2.851   0.286 -0.1193 -0.1307  0.1683
   49HFI     F5  585   0.968   2.821   0.119 -0.0736 -0.0569  0.0832
   49HFI     F6  586   1.004   2.969   0.275 -0.3359 -0.3426 -0.3933
   49HFI     H1  587   1.041   2.545   0.390  1.3106  2.5697  1.7914
   49HFI     H2  588   1.144   2.755   0.331  0.2826 -2.0133  0.2615
   50HFI     O1  589   0.387   1.012   0.128  0.0576 -0.3571  0.0489
   50HFI     C1  590   0.442   0.909   0.207  0.2966  0.3133  0.1104
   50HFI     C2  591   0.578   0.871   0.155 -0.9883  0.5026  0.1932
   50HFI     F1  592   0.661   0.978   0.156  0.2715  0.5347 -0.0622
   50HFI     F2  593   0.568   0.832   0.031  0.3814 -0.2730  0.5927
   50HFI     F3  594   0.639   0.777   0.225  0.3387  0.4326  0.7535
   50HFI     C3  595   0.336   0.799   0.221 -0.4014  0.0493 -0.2504
   50HFI     F4  596   0.261   0.835   0.323  0.3696  0.7542 -0.0719
   50HFI     F5  597   0.387   0.682   0.257  0.4217 -0.0258  0.0100
   50HFI     F6  598   0.261   0.796   0.105  0.1354 -0.5041 -0.2086
   50HFI     H1  599   0.290   1.017   0.138  0.2979  0.5610  2.1478
   50HFI     H2  600   0.466   0.954   0.303  0.3746  0.6573 -0.0703
   51HFI     O1  601   0.964   0.519   0.937 -0.3721 -0.5965  0.1988
   51HFI     C1  602   1.101   0.570   0.965  0.0611  0.2471 -0.0071
   51HFI     C2  603   1.136   0.552   1.118  0.2441  0.4359  0.3404
   51HFI     F1  604   1.137   0.422   1.148  0.2680  0.4855 -0.5665
   51HFI     F2  605   1.047   0.607   1.197  0.2448 -0.4520  0.2860
   51HFI     F3  606   1.255   0.604   1.154  0.3370 -0.0595 -0.1495
   51HFI     C3  607   1.121   0.709   0.901  0.3504 -1.1356  0.5665
   51HFI     F4  608   1.069   0.817   0.971 -0.8126  0.5682 -0.0361
   51HFI     F5  609   1.055   0.716   0.786  0.0795 -0.3128 -0.2415
   51HFI     F6  610   1.250   0.733   0.882 -0.7728  0.1806  0.0579
   51HFI     H1  611   0.915   0.572   0.872  0.0435  0.8994  1.0976
   51HFI     H2  612   1.164   0.495   0.916 -0.8536  0.1079 -0.9953
   52HFI     O1  613   0.244   1.511   0.668  0.2066 -0.1410  0.2904
   52HFI     C1  614   0.166   1.485   0.547 -0.0362  0.2707 -0.0009
   52HFI     C2  615   0.169   1.334   0.509 -0.1929 -0.0907 -0.1857
   52HFI     F1  616   0.172   1.265   0.623 -0.1310  0.3629  0.7071
   52HFI     F2  617   0.285   1.304   0.443  0.2780 -0.0113 -0.5306
   52HFI     F3  618   0.060   1.294   0.441 -0.3649  0.0619 -0.0281
   52HFI     C3  619   0.221   1.583   0.434 -0.0529  0.2788  0.2112
   52HFI     F4  620   0.365   1.579   0.419  0.0808  0.0908  0.3331
   52HFI     F5  621   0.197   1.715   0.464  0.3239  0.2897  0.4020
   52HFI     F6  622   0.174   1.560   0.310 -0.1389 -0.2953  0.1424
   52HFI     H1  623   0.243   1.605   0.691 -1.7827  0.3093 -1.4532
   52HFI     H2  624   0.060   1.506   0.561 -0.7658 -3.9807  1.5588
   53HFI     O1  625   0.681   2.243   0.597  0.3001  0.1284  0.1961
   53HFI     C1  626   0.812   2.240   0.654 -0.3482  0.4887  0.3507
   53HFI     C2  627   0.826   2.311   0.798  0.1869  0.6772  0.1254
   53HFI     F1  628   0.724   2.274   0.874 -0.1771 -0.2299  0.2363
   53HFI     F2  629   0.816   2.445   0.793  0.0779  0.3567 -0.2415
   53HFI     F3  630   0.938   2.287   0.863  0.4257  0.0427 -0.4583
   53HFI     C3  631   0.914   2.287   0.550 -0.0731  0.1562 -0.2141
   53HFI     F4  632   0.905   2.415   0.524  0.2009 -0.0327 -0.7352
   53HFI     F5  633   0.889   2.224   0.431 -0.4874 -0.3996 -0.3108
   53HFI     F6  634   1.041   2.264   0.598 -0.3009 -0.1699 -0.2622
   53HFI     H1  635   0.676   2.313   0.529  1.1655  0.2642  0.2578
   53HFI     H2  636   0.836   2.136   0.679 -1.1190  0.2484  0.1236
   54HFI     O1  637   1.557   0.693   0.773 -0.4187 -0.2806  0.3481
   54HFI     C1  638   1.595   0.781   0.657  0.3560  0.0424 -0.4679
   54HFI     C2  639   1.562   0.724   0.522 -0.3602 -0.3569  0.3747
   54HFI     F1  640   1.587   0.805   0.423  0.0247 -0.2229  0.4120
   54HFI     F2  641   1.430   0.686   0.520  0.3571 -0.2578  0.1259
   54HFI     F3  642   1.639   0.618   0.495 -0.1964  0.8032 -0.5039
   54HFI     C3  643   1.743   0.832   0.669 -0.0579 -0.0729 -0.2171
   54HFI     F4  644   1.825   0.723   0.669  0.0962 -0.6905 -0.2358
   54HFI     F5  645   1.753   0.905   0.783  0.0351  0.5897 -0.0963
   54HFI     F6  646   1.786   0.910   0.563 -0.6726  0.5039  0.1716
   54HFI     H1  647   1.612   0.613   0.780 -1.1565 -0.7895  0.3648
   54HFI     H2  648   1.534   0.872   0.658 -0.0210 -0.2109 -0.6548
   55HFI     O1  649   2.318   0.115   1.368  0.5607 -0.1182 -0.3553
   55HFI     C1  650   2.280   0.179   1.236  0.1391  0.1931  0.4461
   55HFI     C2  651   2.126   0.205   1.231  0.5550 -0.4936  0.4259
   55HFI     F1  652   2.057   0.089   1.203 -0.1226  0.0019 -0.2968
   55HFI     F2  653   2.093   0.304   1.139 -0.2706 -0.2048  0.8064
   55HFI     F3  654   2.087   0.263   1.347 -0.1578  0.0023  0.5586
   55HFI     C3  655   2.332   0.104   1.112 -0.8318 -0.6821  0.4286
   55HFI     F4  656   2.467   0.109   1.115  0.1259  0.3534 -0.4030
   55HFI     F5  657   2.291   0.160   0.993  0.3480  0.0592 -0.2007
   55HFI     F6  658   2.294  -0.022   1.109 -0.3036  0.3798  0.4984
   55HFI     H1  659   2.332   0.019   1.356 -2.2046 -0.4628 -1.3658
   55HFI     H2  660   2.326   0.278   1.228  1.6828 -0.5436  0.0835
   56HFI     O1  661   1.486   2.363   0.046  0.2185 -0.0193  0.0192
   56HFI     C1  662   1.462   2.451   0.163 -0.3250 -0.2274  0.0817
   56HFI     C2  663   1.321   2.503   0.176  0.1661  0.1987  0.4169
   56HFI     F1  664   1.234   2.397   0.168  0.1974  0.0800  0.8103
   56HFI     F2  665   1.297   2.591   0.076 -0.0744 -0.6681  0.0528
   56HFI     F3  666   1.305   2.563   0.293 -0.4147 -0.1059 -0.2145
   56HFI     C3  667   1.573   2.568   0.165 -0.2180  0.1608 -1.1602
   56HFI     F4  668   1.568   2.640   0.055 -0.0354 -0.1799  0.0526
   56HFI     F5  669   1.696   2.518   0.178  0.1782 -0.0221  0.3016
   56HFI     F6  670   1.552   2.656   0.270  0.0829  0.3562  0.0337
   56HFI     H1  671   1.556   2.395  -0.013  0.7894 -0.3770  0.4937
   56HFI     H2  672   1.483   2.392   0.253  1.7132  0.1421 -0.1300
   57HFI     O1  673   0.888   1.600   1.349  0.4735 -0.4059  0.0132
   57HFI     C1  674   0.872   1.567   1.487 -0.7172 -0.1521 -0.5335
   57HFI     C2  675   1.007   1.580   1.566 -0.9822  0.1352 -0.0331
   57HFI     F1  676   0.990   1.526   1.687 -0.0966 -0.1517  0.2403
   57HFI     F2  677   1.048   1.705   1.583 -0.0524 -0.1988 -0.4494
   57HFI     F3  678   1.111   1.511   1.513 -0.4938 -0.5476 -0.0422
   57HFI     C3  679   0.819   1.419   1.504 -0.2239 -0.7401 -0.0415
   57HFI     F4  680   0.921   1.332   1.488  0.1404 -0.1791  0.3938
   57HFI     F5  681   0.728   1.394   1.413  0.0034  0.3304 -0.4295
   57HFI     F6  682   0.761   1.407   1.628  0.7248 -0.3895 -0.1294
   57HFI     H1  683   0.961   1.545   1.314 -0.1574 -0.6289 -0.9828
   57HFI     H2  684   0.803   1.634   1.540  0.1584 -0.5956  1.2235
   58HFI     O1  685   2.679   2.135   0.226  0.1289  0.0765  0.1835
   58HFI     C1  686   2.644   2.101   0.363  0.2679  0.3573 -0.0319
   58HFI     C2  687   2.762   2.061   0.446  0.1359  0.5033 -0.2460
   58HFI     F1  688   2.861   2.144   0.415  0.2856 -0.6777 -0.1735
   58HFI     F2  689   2.806   1.935   0.419  0.1989 -0.5439  0.0471
   58HFI     F3  690   2.745   2.075   0.582  0.0169  0.3059 -0.1113
   58HFI     C3  691   2.527   1.999   0.364  0.8566  0.0411  0.0868
   58HFI     F4  692   2.537   1.915   0.262 -0.2123  0.1380 -0.0600
   58HFI     F5  693   2.410   2.061   0.349  0.3523  0.1878 -0.3395
   58HFI     F6  694   2.522   1.927   0.477 -0.8813 -0.7438 -0.0022
   58HFI     H1  695   2.722   2.060   0.181  0.5500 -1.5071  3.0996
   58HFI     H2  696   2.609   2.190   0.417  0.1470  0.4720 -0.3004
   59HFI     O1  697   0.125   1.094   0.157  0.0309 -0.3169  0.3017
   59HFI     C1  698   0.040   1.100   0.036 -0.4869  0.2217 -0.7165
   59HFI     C2  699   0.017   1.246  -0.024 -0.2832 -0.2960 -0.5770
   59HFI     F1  700  -0.045   1.241  -0.145 -0.4384 -0.1835 -0.4715
   59HFI     F2  701   0.133   1.321  -0.043  0.7603 -0.2738  0.2003
   59HFI     F3  702  -0.056   1.316   0.062 -0.2833 -0.0142 -0.1967
   59HFI     C3  703  -0.088   1.010   0.057  0.4905  0.3386 -0.3023
   59HFI     F4  704  -0.049   0.886   0.097  0.2416  0.6703 -0.6598
   59HFI     F5  705  -0.155   0.996  -0.060  0.1166  0.1171 -0.4025
   59HFI     F6  706  -0.180   1.067   0.139  0.8083  0.2342 -0.1783
   59HFI     H1  707   0.114   1.170   0.216 -0.4525  0.1291 -0.3465
   59HFI     H2  708   0.090   1.052  -0.049 -0.0726  0.6706 -0.7268
   60HFI     O1  709   2.333   1.763   0.682 -0.2730 -0.1532 -0.5704
   60HFI     C1  710   2.307   1.626   0.660 -0.7746  0.1643 -0.9537
   60HFI     C2  711   2.360   1.573   0.524  0.5495  0.6585 -0.7118
   60HFI     F1  712   2.493   1.573   0.534  0.0057  0.2729  0.0205
   60HFI     F2  713   2.323   1.645   0.412  0.3455  0.2833 -0.4941
   60HFI     F3  714   2.326   1.446   0.508  0.3173 -0.1710 -0.6323
   60HFI     C3  715   2.158   1.597   0.685  0.1947 -0.6966  0.6592
   60HFI     F4  716   2.085   1.638   0.583  0.0870 -0.1095 -0.6114
   60HFI     F5  717   2.118   1.650   0.803 -0.4393  0.5014 -0.1307
   60HFI     F6  718   2.134   1.465   0.700  0.2374 -0.4435  0.1424
   60HFI     H1  719   2.293   1.814   0.610 -3.9457 -2.3088 -0.2067
   60HFI     H2  720   2.355   1.571   0.742  1.0562  1.3219 -1.2317
   61HFI     O1  721   2.815   1.242   1.146  0.1055  0.1924 -0.5641
   61HFI     C1  722   2.894   1.281   1.266 -0.4347  0.4125 -0.2704
   61HFI     C2  723   3.030   1.197   1.276  0.2197  0.1089 -0.5638
   61HFI     F1  724   3.109   1.232   1.379  0.2746  0.5145  0.5997
   61HFI     F2  725   3.102   1.212   1.164  0.2329  0.2767  0.2966
   61HFI     F3  726   3.003   1.067   1.281  0.2188 -0.3109  0.2110
   61HFI     C3  727   2.813   1.262   1.395 -0.4033  0.4775  0.0585
   61HFI     F4  728   2.794   1.131   1.426  0.0125  0.1800 -0.2779
   61HFI     F5  729   2.685   1.308   1.379  0.2752 -0.2779 -0.1030
   61HFI     F6  730   2.877   1.319   1.504 -1.0056 -0.5791  0.0368
   61HFI     H1  731   2.771   1.157   1.166  0.6909 -0.1362 -0.6525
   61HFI     H2  732   2.928   1.385   1.260 -2.4029  0.9591 -3.8744
   62HFI     O1  733   2.721   2.144   0.861 -0.2141  0.2058 -0.2633
   62HFI     C1  734   2.594   2.200   0.896 -0.0652  0.0801 -0.3154
   62HFI     C2  735   2.498   2.205   0.784  0.1515  0.1366  0.5550
   62HFI     F1  736   2.464   2.074   0.758 -0.2881  0.0997 -0.0297
   62HFI     F2  737   2.552   2.269   0.674 -0.4989  0.1217  0.2552
   62HFI     F3  738   2.375   2.264   0.812 -0.4632 -0.1217 -0.0702
   62HFI     C3  739   2.612   2.341   0.968 -0.4429  0.1043 -0.1948
   62HFI     F4  740   2.492   2.379   1.019 -0.2346  0.1014  0.2702
   62HFI     F5  741   2.654   2.448   0.892 -0.1161  0.1353  0.2195
   62HFI     F6  742   2.699   2.323   1.070 -0.5388  0.2818 -0.1129
   62HFI     H1  743   2.748   2.148   0.768 -1.6440  2.0121 -0.6339
   62HFI     H2  744   2.545   2.136   0.971 -0.1137 -0.9067 -1.1807
   63HFI     O1  745   0.567   1.400   0.546  0.0087 -0.4647  0.4451
   63HFI     C1  746   0.675   1.391   0.451 -0.8021  0.3133  0.3175
   63HFI     C2  747   0.653   1.281   0.352 -0.0764 -0.3553 -0.5824
   63HFI     F1  748   0.541   1.291   0.288 -0.2278 -0.2400  0.0510
   63HFI     F2  749   0.653   1.163   0.416 -0.6993  0.3413  0.4023
   63HFI     F3  750   0.748   1.279   0.265 -0.4521  0.6364 -0.1304
   63HFI     C3  751   0.813   1.384   0.531 -0.3145  0.0240 -0.4203
   63HFI     F4  752   0.813   1.290   0.628  0.4812  0.2976  0.1144
   63HFI     F5  753   0.831   1.502   0.601  0.6560 -0.5102  0.2629
   63HFI     F6  754   0.919   1.380   0.450  0.1982  0.1058  0.1023
   63HFI     H1  755   0.550   1.311   0.581  4.3386 -1.1348  1.0257
   63HFI     H2  756   0.691   1.480   0.389  1.4861 -1.0909 -1.1747
   64HFI     O1  757   1.389   0.184   0.706 -0.3249 -0.2353 -0.0506
   64HFI     C1  758   1.516   0.142   0.634 -0.0312  0.4450 -0.7496
   64HFI     C2  759   1.541  -0.012   0.628 -0.4433 -0.0612  0.1424
   64HFI     F1  760   1.666  -0.037   0.593  0.0350 -0.5327 -1.1054
   64HFI     F2  761   1.456  -0.069   0.539  0.8774  0.1316 -0.4576
   64HFI     F3  762   1.521  -0.072   0.754  0.5511  0.0754 -0.2669
   64HFI     C3  763   1.640   0.224   0.691 -0.1250  0.3283  0.1038
   64HFI     F4  764   1.743   0.237   0.598  0.1152  0.0182 -0.0464
   64HFI     F5  765   1.690   0.177   0.814 -0.0460  0.2568 -0.3399
   64HFI     F6  766   1.596   0.354   0.714 -0.0376  0.7636  0.3350
   64HFI     H1  767   1.342   0.105   0.737 -0.9678 -0.3209 -1.2161
   64HFI     H2  768   1.504   0.173   0.530  1.6671 -0.6512 -1.3019
   2.81572   2.81572   2.81572
