HFIP comparator n0
  768
    1HFI     O1    1   2.133   0.572   0.086 -0.7054 -0.4131  0.2323
    1HFI     C1    2   2.127   0.701  -0.002 -0.3091  0.0346 -0.1757
    1HFI     C2    3   2.021   0.706  -0.114  0.3425 -0.4330 -0.0640
    1HFI     F1    4   2.061   0.645  -0.222 -0.4452 -0.7086 -0.2487
    1HFI     F2    5   1.989   0.834  -0.138 -0.4075 -0.0700  0.4290
    1HFI     F3    6   1.908   0.648  -0.071 -0.2964 -0.2158 -0.2693
    1HFI     C3    7   2.271   0.734  -0.053 -0.7184 -0.2475  0.0295
    1HFI     F4    8   2.347   0.772   0.056 -0.0550 -0.3237 -0.0327
    1HFI     F5    9   2.279   0.832  -0.147  0.0753  0.3908 -0.0313
    1HFI     F6   10   2.326   0.617  -0.102 -0.4688 -0.4974  0.1380
    1HFI     H1   11   2.064   0.519   0.042 -2.7086  2.0282  0.2651
    1HFI     H2   12   2.095   0.785   0.060 -0.2642  0.0632 -0.1911
    2HFI     O1   13   2.086   0.442   0.572 -0.3102  0.3959  0.4176
    2HFI     C1   14   1.947   0.462   0.547 -0.2371  0.8098 -0.1718
    2HFI     C2   15   1.865   0.330   0.526  0.1802 -0.3012 -0.4779
    2HFI     F1   16   1.747   0.340   0.463 -0.2305 -0.2389 -0.0527
    2HFI     F2   17   1.841   0.262   0.637 -0.6003 -0.4567 -0.2038
    2HFI     F3   18   1.936   0.247   0.453 -0.1074  0.1993  0.4143
    2HFI     C3   19   1.929   0.559   0.425 -0.0231 -0.3295 -0.1374
    2HFI     F4   20   1.796   0.585   0.396 -0.8613 -0.3562 -0.0808
    2HFI     F5   21   1.982   0.511   0.314  0.2986 -0.1461 -0.1675
    2HFI     F6   22   1.980   0.681   0.447  0.0715 -0.0699 -0.4252
    2HFI     H1   23   2.109   0.390   0.651 -0.6853  1.3519  1.1631
    2HFI     H2   24   1.911   0.516   0.635 -0.2466 -0.1098  0.4017
    3HFI     O1   25   1.462   1.650   0.381  0.5602 -0.4391  0.1106
    3HFI     C1   26   1.482   1.545   0.478 -0.2378  0.5786  0.3201
    3HFI     C2   27   1.562   1.603   0.593  0.3611  0.4601 -0.0347
    3HFI     F1   28   1.600   1.520   0.689 -0.1090  0.3399 -0.2130
    3HFI     F2   29   1.503   1.710   0.645  0.4759 -0.0773  0.2906
    3HFI     F3   30   1.674   1.653   0.546 -0.1648  0.1771  0.2238
    3HFI     C3   31   1.545   1.425   0.398 -0.4796 -0.0874  0.4075
    3HFI     F4   32   1.659   1.458   0.339  0.4168  0.1191 -0.5020
    3HFI     F5   33   1.453   1.388   0.303  1.1204  0.9955 -0.1684
    3HFI     F6   34   1.553   1.322   0.484  0.6235 -0.3623 -0.5788
    3HFI     H1   35   1.538   1.710   0.378 -0.5917  0.9834 -1.9873
    3HFI     H2   36   1.390   1.515   0.530  0.2207 -1.1177  0.1871
    4HFI     O1   37   0.308   1.708   1.890  0.0146 -0.1490  0.8855
    4HFI     C1   38   0.385   1.606   1.967  0.0946 -0.5188  0.9269
    4HFI     C2   39   0.430   1.659   2.104  0.2103 -0.2832 -0.3517
    4HFI     F1   40   0.329   1.693   2.188  0.0366  0.3884  0.1426
    4HFI     F2   41   0.492   1.778   2.085  0.0428  0.4723 -0.0916
    4HFI     F3   42   0.513   1.568   2.163  0.0635  0.3156 -0.3018
    4HFI     C3   43   0.507   1.547   1.886  0.3114  0.0920 -0.1829
    4HFI     F4   44   0.610   1.632   1.895 -0.0569 -0.0346 -0.2269
    4HFI     F5   45   0.470   1.521   1.758  0.1461  0.1728  1.0065
    4HFI     F6   46   0.558   1.425   1.934  0.0738  0.1981 -0.0275
    4HFI     H1   47   0.360   1.733   1.811  0.6115  1.0166  1.6248
    4HFI     H2   48   0.328   1.514   1.990 -1.7130  0.8261  1.9492
    5HFI     O1   49   0.644   0.541   0.134 -0.2771  0.3760  0.3168
    5HFI     C1   50   0.683   0.675   0.086 -0.1119  0.1017  0.3082
    5HFI     C2   51   0.657   0.781   0.199  0.5287 -0.0352 -0.1930
    5HFI     F1   52   0.524   0.784   0.216 -0.5227 -0.2446 -0.2385
    5HFI     F2   53   0.709   0.908   0.175  0.2393 -0.2961  0.0962
    5HFI     F3   54   0.711   0.741   0.314  0.2731  0.0870 -0.3010
    5HFI     C3   55   0.616   0.716  -0.048  0.2831  0.7811 -0.4601
    5HFI     F4   56   0.622   0.850  -0.075 -0.4500  0.5072  0.4913
    5HFI     F5   57   0.490   0.673  -0.040 -0.1478  0.3189  0.1901
    5HFI     F6   58   0.666   0.647  -0.155  0.0583 -0.4695  0.3198
    5HFI     H1   59   0.585   0.501   0.068  2.7527 -2.2131 -0.9703
    5HFI     H2   60   0.792   0.685   0.075  0.0131 -1.3066  0.1932
    6HFI     O1   61   1.916   2.077   1.353 -0.1454  0.4888  0.5119
    6HFI     C1   62   2.026   2.016   1.274 -0.3792 -0.1143 -0.2307
    6HFI     C2   63   1.969   1.904   1.175  0.3268  0.0184  0.7792
    6HFI     F1   64   2.067   1.829   1.122 -0.2531 -0.3893  0.0650
    6HFI     F2   65   1.900   1.955   1.068  0.1246  0.3629  0.2240
    6HFI     F3   66   1.879   1.825   1.234 -0.1424 -0.4210 -0.3942
    6HFI     C3   67   2.130   1.956   1.376  0.5695  0.2377  0.2513
    6HFI     F4   68   2.068   1.848   1.435  0.0438 -0.3459 -0.6185
    6HFI     F5   69   2.173   2.048   1.470  0.7844  0.1935  0.1070
    6HFI     F6   70   2.241   1.909   1.307  0.0391  0.0706  0.4048
    6HFI     H1   71   1.918   2.029   1.438 -1.0749  0.2617  0.4088
    6HFI     H2   72   2.077   2.092   1.214 -0.7291 -0.6870 -1.2622
    7HFI     O1   73   2.082   0.742   1.156 -0.5785 -0.0761 -0.1444
    7HFI     C1   74   2.021   0.847   1.229  0.3253 -0.0572 -0.5659
    7HFI     C2   75   1.867   0.816   1.264 -0.1458  0.2601 -0.4550
    7HFI     F1   76   1.808   0.927   1.315  0.3076 -0.0174  0.2414
    7HFI     F2   77   1.859   0.716   1.367 -0.8143  0.6294 -0.0004
    7HFI     F3   78   1.799   0.761   1.162  0.0886  0.3176  0.2555
    7HFI     C3   79   2.035   0.988   1.168 -0.1209 -0.0750  0.3101
    7HFI     F4   80   2.159   1.016   1.126 -0.3205 -0.0776  0.1112
    7HFI     F5   81   2.013   1.076   1.267 -0.3256 -0.2131  0.8468
    7HFI     F6   82   1.943   1.021   1.068 -0.0204 -0.5212 -0.3398
    7HFI     H1   83   2.175   0.769   1.143 -0.6405 -0.0395 -0.5029
    7HFI     H2   84   2.069   0.851   1.328 -0.2294  0.7624 -0.3157
    8HFI     O1   85   0.476   0.364   2.133 -0.0552  0.2391 -0.0823
    8HFI     C1   86   0.450   0.291   2.006  0.2233 -0.2236  0.0437
    8HFI     C2   87   0.542   0.344   1.898 -0.0658 -0.5073  0.2185
    8HFI     F1   88   0.541   0.263   1.785  0.1471 -0.1653 -0.1797
    8HFI     F2   89   0.670   0.352   1.945 -0.4482  0.2732 -0.0278
    8HFI     F3   90   0.512   0.475   1.862 -0.3762  0.3092 -0.6445
    8HFI     C3   91   0.306   0.296   1.958 -0.7702  0.6925 -0.1942
    8HFI     F4   92   0.278   0.425   1.929  0.1601 -0.5667  0.0787
    8HFI     F5   93   0.221   0.252   2.055  0.1705  0.5328  0.5971
    8HFI     F6   94   0.291   0.220   1.844 -0.6850  0.0663  0.1587
    8HFI     H1   95   0.390   0.383   2.174  0.7239 -0.5412  1.9740
    8HFI     H2   96   0.476   0.186   2.026  1.8304  0.3825  1.2791
    9HFI     O1   97   0.363   0.866   1.734  0.4530  0.5384 -0.4614
    9HFI     C1   98   0.307   0.986   1.802  0.0487  0.0801 -0.1501
    9HFI     C2   99   0.314   1.096   1.695 -0.1531  0.1277 -0.6224
    9HFI     F1  100   0.441   1.131   1.652  0.5047 -0.1660 -0.5072
    9HFI     F2  101   0.258   1.206   1.742  0.0761 -0.3043  0.4291
    9HFI     F3  102   0.242   1.055   1.593  0.1969 -0.1655  0.5413
    9HFI     C3  103   0.372   1.017   1.939  0.0399  0.2775 -0.6080
    9HFI     F4  104   0.314   1.115   2.011  0.1930  0.2917 -0.0435
    9HFI     F5  105   0.508   1.053   1.921 -0.0104  0.1952 -0.0979
    9HFI     F6  106   0.375   0.903   2.015  0.1173 -0.2072  0.2117
    9HFI     H1  107   0.458   0.875   1.718  0.6331 -0.5105 -0.0289
    9HFI     H2  108   0.200   0.965   1.817  0.0876  0.7154  1.1296
   10HFI     O1  109   0.453   1.307   0.177 -0.5006  0.4596 -0.0781
   10HFI     C1  110   0.329   1.232   0.142  0.2572 -0.5151 -0.0898
   10HFI     C2  111   0.221   1.326   0.104  0.5035 -0.3942 -0.2903
   10HFI     F1  112   0.264   1.409   0.003 -0.0414  0.2872  0.3395
   10HFI     F2  113   0.194   1.409   0.202  0.1107  0.0911 -0.8184
   10HFI     F3  114   0.104   1.269   0.062  0.3684  0.3923 -0.6801
   10HFI     C3  115   0.291   1.137   0.262  0.4521 -0.1441 -0.1123
   10HFI     F4  116   0.263   1.202   0.378 -0.4013  0.4540  0.1302
   10HFI     F5  117   0.393   1.057   0.289  0.0924 -0.0428  0.0047
   10HFI     F6  118   0.188   1.061   0.224  0.2974  0.0544  0.1307
   10HFI     H1  119   0.452   1.396   0.140  1.0695  0.8660  0.8058
   10HFI     H2  120   0.346   1.159   0.062  0.7089 -0.6088  0.0927
   11HFI     O1  121   1.298   0.771   1.026  0.1763 -0.4059  0.0712
   11HFI     C1  122   1.315   0.679   1.139 -0.2583 -0.9726 -0.0779
   11HFI     C2  123   1.222   0.560   1.139 -0.4158 -0.2189  0.2645
   11HFI     F1  124   1.270   0.454   1.203 -0.1510 -0.6043 -0.8786
   11HFI     F2  125   1.210   0.516   1.007  0.3793 -0.0877  0.3734
   11HFI     F3  126   1.095   0.586   1.190  0.1802 -0.1068  0.5172
   11HFI     C3  127   1.331   0.751   1.272  0.1459  0.1878  0.5102
   11HFI     F4  128   1.367   0.655   1.362  0.5748 -0.1857  0.3722
   11HFI     F5  129   1.213   0.807   1.320  0.3685  0.0996  0.2147
   11HFI     F6  130   1.426   0.846   1.271 -0.2108 -0.0433 -0.1283
   11HFI     H1  131   1.204   0.779   1.004  0.3272 -0.6158 -0.6793
   11HFI     H2  132   1.416   0.637   1.130 -0.7812 -2.4695  0.8480
   12HFI     O1  133   1.875   0.323   1.691 -0.6254  0.3115 -0.1589
   12HFI     C1  134   2.018   0.329   1.676  1.0525  0.1415 -0.2114
   12HFI     C2  135   2.063   0.249   1.547 -0.0946 -0.2206 -0.3630
   12HFI     F1  136   2.004   0.297   1.438 -0.1110 -0.0737 -0.1179
   12HFI     F2  137   2.024   0.124   1.555 -0.1038 -0.4556  0.5253
   12HFI     F3  138   2.200   0.248   1.529 -0.1954 -0.2954 -0.5869
   12HFI     C3  139   2.106   0.293   1.797 -0.5807 -0.0469  0.3236
   12HFI     F4  140   2.053   0.347   1.910  0.5469 -0.3067  0.0055
   12HFI     F5  141   2.232   0.336   1.792 -0.2324  0.6691  0.1316
   12HFI     F6  142   2.115   0.157   1.809  0.7429  0.2564  0.3217
   12HFI     H1  143   1.850   0.316   1.785 -2.1379  1.6835 -0.4392
   12HFI     H2  144   2.046   0.432   1.648 -0.2016  0.9520  1.4605
   13HFI     O1  145   1.085   1.749   1.322 -0.5551 -0.1420 -0.3403
   13HFI     C1  146   1.208   1.822   1.298 -0.4377 -0.0826 -0.5065
   13HFI     C2  147   1.323   1.718   1.286 -0.4878  0.2188  0.7271
   13HFI     F1  148   1.308   1.628   1.182 -0.0365  0.1452 -0.3533
   13HFI     F2  149   1.343   1.646   1.396  0.0051  0.7226  0.5008
   13HFI     F3  150   1.437   1.781   1.263 -0.1211  0.1696  0.4311
   13HFI     C3  151   1.226   1.932   1.410 -0.1055  0.1915  0.6092
   13HFI     F4  152   1.229   1.867   1.529 -0.1028  0.0731  0.9483
   13HFI     F5  153   1.123   2.029   1.410  0.1873  0.1748 -0.2726
   13HFI     F6  154   1.342   1.995   1.397  0.1539 -0.5694  0.2358
   13HFI     H1  155   1.084   1.670   1.265  2.6252  0.2125 -1.0070
   13HFI     H2  156   1.198   1.879   1.205 -2.8285 -0.3457 -0.4619
   14HFI     O1  157   1.393   2.056   1.124 -0.8411 -0.1045  0.2881
   14HFI     C1  158   1.397   2.054   0.975 -0.1404  0.1706  0.3066
   14HFI     C2  159   1.393   1.911   0.919 -0.4459  0.0317  0.0402
   14HFI     F1  160   1.376   1.916   0.785 -0.0798  0.0058 -0.7043
   14HFI     F2  161   1.291   1.842   0.966 -0.4589  0.0782  0.0839
   14HFI     F3  162   1.503   1.848   0.951  0.2431 -0.0557  0.0582
   14HFI     C3  163   1.511   2.143   0.930  0.3384  0.5070  0.6417
   14HFI     F4  164   1.496   2.271   0.977 -0.6252 -0.4822  0.1545
   14HFI     F5  165   1.526   2.149   0.792  0.1591  0.0531 -0.4977
   14HFI     F6  166   1.633   2.099   0.976  0.0974 -0.3469  0.1576
   14HFI     H1  167   1.457   2.119   1.160  0.0338 -0.7536 -0.1227
   14HFI     H2  168   1.307   2.109   0.945  0.5719  0.3213 -1.6085
   15HFI     O1  169   0.289   0.738   1.521  0.2696  0.1818 -0.3424
   15HFI     C1  170   0.200   0.623   1.511  0.2795  0.2537  0.8825
   15HFI     C2  171   0.184   0.565   1.369  0.0045  0.0713 -0.0385
   15HFI     F1  172   0.310   0.518   1.335 -0.1708  0.2853 -0.0074
   15HFI     F2  173   0.148   0.667   1.286 -1.0765 -0.2156  0.0394
   15HFI     F3  174   0.094   0.467   1.357  0.0355 -0.2768  1.1135
   15HFI     C3  175   0.064   0.667   1.581 -0.2879 -0.1790 -0.4768
   15HFI     F4  176   0.067   0.651   1.718 -0.5542 -0.0839 -0.0370
   15HFI     F5  177  -0.036   0.593   1.534  0.1570  0.2062 -0.0883
   15HFI     F6  178   0.032   0.799   1.565 -0.3066  0.5585 -0.4641
   15HFI     H1  179   0.299   0.769   1.613  3.3011 -0.6800 -0.3453
   15HFI     H2  180   0.230   0.537   1.572 -0.9273 -0.9357 -0.1686
   16HFI     O1  181   1.453   0.103   1.287 -0.1086  0.0653 -0.4390
   16HFI     C1  182   1.571   0.138   1.368  0.1212  0.1161  0.2392
   16HFI     C2  183   1.588   0.058   1.502 -0.5606  0.0273 -0.2063
   16HFI     F1  184   1.494   0.096   1.589  0.5766  0.8931  0.2033
   16HFI     F2  185   1.711   0.088   1.562  0.6762  0.6025  0.2064
   16HFI     F3  186   1.579  -0.075   1.486  0.1713  0.0742 -0.0389
   16HFI     C3  187   1.582   0.295   1.379 -0.4626 -0.5071  0.0038
   16HFI     F4  188   1.697   0.337   1.432  0.3146  0.1947 -0.1559
   16HFI     F5  189   1.480   0.349   1.444 -0.2025  0.6789 -0.2928
   16HFI     F6  190   1.573   0.348   1.255 -0.3639 -0.0068  0.6251
   16HFI     H1  191   1.378   0.139   1.337  0.6790 -1.9305  2.2457
   16HFI     H2  192   1.652   0.110   1.299  1.0455  0.8191  1.0153
   17HFI     O1  193   0.372   2.033   0.679 -0.1171  0.0075 -0.4623
   17HFI     C1  194   0.498   2.089   0.631  0.6004  0.2070 -0.1584
   17HFI     C2  195   0.618   2.080   0.724 -0.0996 -0.5533 -0.6033
   17HFI     F1  196   0.620   1.959   0.779  0.0978  0.7762 -0.6674
   17HFI     F2  197   0.614   2.178   0.819  0.9126 -0.1175 -0.0163
   17HFI     F3  198   0.740   2.095   0.659  0.5388 -0.1820  0.3795
   17HFI     C3  199   0.468   2.233   0.576  0.3198  0.3534 -0.2006
   17HFI     F4  200   0.427   2.323   0.670 -0.0504 -0.0032  0.1015
   17HFI     F5  201   0.374   2.215   0.482 -0.4511 -0.2327  0.4211
   17HFI     F6  202   0.575   2.280   0.508  0.3099 -0.4904 -0.0561
   17HFI     H1  203   0.398   1.958   0.734 -0.5497  1.5566  1.9502
   17HFI     H2  204   0.526   2.026   0.546  0.1490  0.8317 -0.7787
   18HFI     O1  205   0.207   1.641   1.591 -0.0429 -0.0753 -0.1679
   18HFI     C1  206   0.204   1.581   1.458  0.2960 -0.0425  0.1096
   18HFI     C2  207   0.093   1.468   1.460 -0.2523 -0.9243  0.4752
   18HFI     F1  208   0.133   1.366   1.383  0.0598  0.3617 -0.2871
   18HFI     F2  209  -0.027   1.514   1.408 -0.3168  0.1115  0.3101
   18HFI     F3  210   0.079   1.411   1.579 -0.1427  0.3592  0.1466
   18HFI     C3  211   0.351   1.539   1.411  0.4397 -0.5185 -0.3140
   18HFI     F4  212   0.420   1.648   1.424  0.5061  0.4524  0.2002
   18HFI     F5  213   0.358   1.496   1.283 -0.0555 -0.5489 -0.0452
   18HFI     F6  214   0.399   1.450   1.494  0.2093 -0.0638 -0.1735
   18HFI     H1  215   0.129   1.618   1.645  1.4751 -0.7716  1.7762
   18HFI     H2  216   0.161   1.657   1.391  0.0524  0.7523  1.1636
   19HFI     O1  217   1.272   1.327   1.011 -0.2087 -0.3662 -0.3861
   19HFI     C1  218   1.183   1.429   0.938 -0.3937 -1.1287 -0.5347
   19HFI     C2  219   1.041   1.372   0.890 -0.0221 -0.1713 -0.7429
   19HFI     F1  220   0.948   1.465   0.882  0.4581 -0.1083  0.2403
   19HFI     F2  221   0.995   1.282   0.983 -0.4326  0.2766  0.0459
   19HFI     F3  222   1.046   1.310   0.774  0.1313  0.2808 -0.0287
   19HFI     C3  223   1.267   1.484   0.811  0.4527  1.2182 -0.3994
   19HFI     F4  224   1.195   1.571   0.746  0.2249 -0.2534 -0.3036
   19HFI     F5  225   1.304   1.386   0.727 -0.8151  0.2922 -0.4242
   19HFI     F6  226   1.374   1.557   0.860 -0.0706 -0.2961  0.5833
   19HFI     H1  227   1.206   1.261   1.039 -1.8094 -0.0545 -3.2329
   19HFI     H2  228   1.175   1.520   1.000  1.8935 -2.2568  1.5296
   20HFI     O1  229   1.444   0.474   0.618  0.3298  0.2221  0.0151
   20HFI     C1  230   1.470   0.496   0.762 -0.2472 -0.4525 -0.1540
   20HFI     C2  231   1.596   0.582   0.776 -0.0174  0.0234  0.5991
   20HFI     F1  232   1.585   0.701   0.716  0.3805  0.1603  0.3949
   20HFI     F2  233   1.708   0.522   0.729  0.2551 -0.0167  0.6268
   20HFI     F3  234   1.628   0.612   0.903  0.8158  0.4503 -0.1512
   20HFI     C3  235   1.484   0.363   0.838  0.0500 -0.1659 -0.1326
   20HFI     F4  236   1.374   0.287   0.813  0.1292  0.3812 -0.1058
   20HFI     F5  237   1.504   0.370   0.972  0.2789 -0.5330  0.1266
   20HFI     F6  238   1.588   0.291   0.788 -0.3215 -0.2307 -0.1085
   20HFI     H1  239   1.525   0.438   0.578 -0.9052 -1.6960 -0.8359
   20HFI     H2  240   1.388   0.552   0.810 -0.4866 -1.2849  0.4111
   21HFI     O1  241   0.053   1.589   0.612 -0.2340 -0.0384  0.1601
   21HFI     C1  242   0.075   1.449   0.582 -0.1811 -0.1202 -0.5936
   21HFI     C2  243  -0.054   1.383   0.521 -0.5220 -0.4507 -0.1545
   21HFI     F1  244  -0.151   1.355   0.604  0.8723 -0.4295  0.4454
   21HFI     F2  245  -0.024   1.268   0.456  0.0312 -0.1744  0.1911
   21HFI     F3  246  -0.106   1.466   0.430  0.1469 -0.1229  0.2538
   21HFI     C3  247   0.108   1.364   0.714  0.4274 -0.0918  0.4153
   21HFI     F4  248   0.048   1.399   0.829 -0.0371  0.0461 -0.1516
   21HFI     F5  249   0.239   1.372   0.739  0.0203 -0.2385 -0.2653
   21HFI     F6  250   0.087   1.236   0.700 -0.4855  0.0598  0.0874
   21HFI     H1  251  -0.005   1.632   0.546 -0.1749  2.4018  1.6305
   21HFI     H2  252   0.151   1.436   0.504  1.5616 -2.1178  1.3672
   22HFI     O1  253   0.853   0.572   1.423 -0.2247 -0.5327 -0.5303
   22HFI     C1  254   0.712   0.611   1.447  0.0577 -0.9525 -0.1800
   22HFI     C2  255   0.676   0.759   1.426  0.3188 -0.2405 -0.1432
   22HFI     F1  256   0.606   0.814   1.530 -0.7087 -0.0028  0.0577
   22HFI     F2  257   0.603   0.763   1.315 -0.0308 -0.1691 -0.3721
   22HFI     F3  258   0.789   0.822   1.407 -0.1108  0.3410  0.6529
   22HFI     C3  259   0.671   0.549   1.581  0.1621 -0.4386  0.5417
   22HFI     F4  260   0.744   0.593   1.686  0.5771  0.1042  0.3762
   22HFI     F5  261   0.688   0.413   1.571 -0.2526  0.0244  0.1712
   22HFI     F6  262   0.540   0.570   1.610  0.2601  0.0240  0.7372
   22HFI     H1  263   0.900   0.653   1.446 -1.4239 -0.1146  0.4587
   22HFI     H2  264   0.646   0.563   1.374  0.2270 -1.5068  0.0364
   23HFI     O1  265   1.999   0.984   0.182  0.2524  0.0675  0.2399
   23HFI     C1  266   1.872   0.966   0.250 -0.2245  0.7435 -0.0275
   23HFI     C2  267   1.769   0.889   0.161 -0.5577 -0.1515 -0.1458
   23HFI     F1  268   1.637   0.904   0.197 -0.3609  0.0816 -0.0648
   23HFI     F2  269   1.810   0.759   0.167  0.4138  0.0995 -0.3884
   23HFI     F3  270   1.774   0.928   0.030 -0.9713  0.3091 -0.3911
   23HFI     C3  271   1.806   1.099   0.285 -0.1124 -0.6227  0.9794
   23HFI     F4  272   1.745   1.167   0.175 -0.1312  0.2166  0.6711
   23HFI     F5  273   1.904   1.181   0.333 -0.3951 -0.1179  0.4267
   23HFI     F6  274   1.724   1.086   0.389  0.7994  0.2452  0.0713
   23HFI     H1  275   2.050   1.056   0.223  0.0299  0.6747 -0.5431
   23HFI     H2  276   1.876   0.902   0.339 -1.3922 -0.2375 -0.6534
   24HFI     O1  277   1.756   1.946   0.782 -0.0910  0.0884  0.6880
   24HFI     C1  278   1.878   1.989   0.709  0.3535 -0.2933 -0.9709
   24HFI     C2  279   1.839   2.065   0.584  0.4811 -0.0554  0.5769
   24HFI     F1  280   1.737   2.152   0.623 -0.2727 -0.2957  0.5096
   24HFI     F2  281   1.799   1.979   0.489  0.3288  0.4917  0.1148
   24HFI     F3  282   1.937   2.129   0.538  0.3539 -0.4697  0.2875
   24HFI     C3  283   1.987   1.870   0.696 -0.8358 -0.1297 -0.0533
   24HFI     F4  284   2.009   1.817   0.815 -0.5875 -0.0606  0.2268
   24HFI     F5  285   2.106   1.903   0.635  0.0279 -0.0292  0.6839
   24HFI     F6  286   1.946   1.759   0.633  0.3760 -0.4210  0.7047
   24HFI     H1  287   1.782   1.921   0.872 -1.6158  0.0053  1.1157
   24HFI     H2  288   1.925   2.064   0.774 -0.5443  0.0553 -0.7148
   25HFI     O1  289   0.904   0.187   0.579 -0.1024 -0.5008 -0.4363
   25HFI     C1  290   0.937   0.306   0.506 -0.1346  0.0580 -0.5064
   25HFI     C2  291   0.991   0.420   0.597  0.3832  0.5024  0.3362
   25HFI     F1  292   1.047   0.518   0.527  0.1359 -0.1309  0.7325
   25HFI     F2  293   1.085   0.365   0.683 -0.3214 -0.1592  0.4196
   25HFI     F3  294   0.893   0.472   0.670  0.3750  0.1461 -0.4872
   25HFI     C3  295   0.820   0.356   0.413 -0.6050  0.0873 -0.0519
   25HFI     F4  296   0.783   0.248   0.332  0.2532 -0.6017 -0.0535
   25HFI     F5  297   0.859   0.457   0.335  0.4734 -0.2227  0.2878
   25HFI     F6  298   0.717   0.395   0.484 -0.3627  0.2874 -0.2972
   25HFI     H1  299   0.885   0.206   0.673  0.5814 -2.0106  0.0237
   25HFI     H2  300   1.025   0.281   0.446  0.2661 -3.0589  1.2394
   26HFI     O1  301   1.004   0.339   1.430  0.0259  0.1876  0.5464
   26HFI     C1  302   0.972   0.245   1.540 -0.0700  0.2455 -0.6610
   26HFI     C2  303   1.107   0.178   1.595 -0.2528 -0.1827  0.7228
   26HFI     F1  304   1.190   0.274   1.660 -0.1741  0.4399 -0.3514
   26HFI     F2  305   1.190   0.125   1.499 -0.7132 -0.0175 -0.0991
   26HFI     F3  306   1.081   0.081   1.690  0.0512  0.2198  0.2734
   26HFI     C3  307   0.873   0.137   1.499  0.3416 -0.4103  0.6840
   26HFI     F4  308   0.804   0.087   1.606  0.3278 -0.1505 -0.2330
   26HFI     F5  309   0.940   0.039   1.435 -0.0209  0.2538 -0.0834
   26HFI     F6  310   0.776   0.185   1.418 -0.1008 -0.0792 -0.1735
   26HFI     H1  311   0.958   0.425   1.437 -1.6590 -0.7397  1.3271
   26HFI     H2  312   0.931   0.294   1.629 -1.8134 -3.1172  0.4542
   27HFI     O1  313   1.017   0.769   0.930 -0.0686 -0.2611  0.5238
   27HFI     C1  314   0.904   0.850   0.967 -0.2081 -0.2638 -0.5325
   27HFI     C2  315   0.942   0.938   1.092 -0.3651  0.0866 -0.3520
   27HFI     F1  316   0.847   1.032   1.119  0.2077 -0.4829  0.2311
   27HFI     F2  317   1.058   1.001   1.076 -0.1514 -0.1407  0.3879
   27HFI     F3  318   0.956   0.867   1.207  0.2317 -0.0507 -0.5277
   27HFI     C3  319   0.776   0.759   0.991  0.5044  0.2502  0.8358
   27HFI     F4  320   0.806   0.662   1.078  0.2935  0.6032 -0.2873
   27HFI     F5  321   0.742   0.713   0.878 -0.0956  0.1078  0.4238
   27HFI     F6  322   0.674   0.829   1.044  0.2763 -0.1411 -0.7646
   27HFI     H1  323   0.987   0.707   0.861  1.7571 -0.3939 -0.1857
   27HFI     H2  324   0.878   0.905   0.876 -0.2116  0.1167 -0.3050
   28HFI     O1  325   0.739   1.131   1.383  0.4323  0.1417 -0.2279
   28HFI     C1  326   0.823   1.243   1.417 -0.7838 -0.1698  0.2402
   28HFI     C2  327   0.736   1.356   1.461 -0.3744  0.9693 -0.4913
   28HFI     F1  328   0.803   1.467   1.507 -0.5262  0.2313 -0.0217
   28HFI     F2  329   0.654   1.316   1.559  0.0116 -0.0214  0.5320
   28HFI     F3  330   0.670   1.388   1.347  0.1715  0.7915 -0.6695
   28HFI     C3  331   0.931   1.279   1.312  0.0849 -0.4373  0.1463
   28HFI     F4  332   0.866   1.305   1.195 -0.6516  0.5180  0.0412
   28HFI     F5  333   1.018   1.176   1.299 -0.1894  0.2114 -0.1236
   28HFI     F6  334   1.002   1.390   1.341  0.2399  0.6211 -0.3991
   28HFI     H1  335   0.697   1.149   1.297  2.4176 -0.3489 -1.3199
   28HFI     H2  336   0.877   1.224   1.510  0.6146 -0.6510 -0.6590
   29HFI     O1  337   1.905   0.077   0.187  0.0099 -0.2744 -0.9134
   29HFI     C1  338   1.882   0.141   0.061  0.3216 -0.5421  0.2720
   29HFI     C2  339   1.990   0.117  -0.036 -0.5904  0.3571  0.3957
   29HFI     F1  340   1.948   0.132  -0.165  0.0869  0.0799  0.2563
   29HFI     F2  341   2.046  -0.005  -0.021  0.0297  0.3041 -0.0752
   29HFI     F3  342   2.095   0.206  -0.023 -0.0368  0.2108 -0.2390
   29HFI     C3  343   1.836   0.293   0.070  0.3205 -0.4679 -0.5656
   29HFI     F4  344   1.766   0.334  -0.040 -0.1909 -0.3189 -0.3515
   29HFI     F5  345   1.941   0.376   0.086 -0.0277 -0.1066 -0.4267
   29HFI     F6  346   1.756   0.305   0.178 -0.4573 -0.0517  0.1784
   29HFI     H1  347   1.883   0.147   0.251 -0.6562  1.4692 -2.9909
   29HFI     H2  348   1.796   0.091   0.016 -1.2633  1.2733  1.1908
   30HFI     O1  349   1.671   1.477   1.732 -0.5140 -0.0114  0.0314
   30HFI     C1  350   1.661   1.599   1.649 -0.7999 -0.0204  0.0601
   30HFI     C2  351   1.795   1.665   1.615  0.4251 -0.1895  0.3909
   30HFI     F1  352   1.881   1.578   1.567  0.2607 -0.2815 -0.0202
   30HFI     F2  353   1.854   1.715   1.724 -0.0480  0.4534  0.0329
   30HFI     F3  354   1.774   1.766   1.531  0.3098 -0.0602 -0.7328
   30HFI     C3  355   1.567   1.704   1.728 -0.3942  0.5811  0.3642
   30HFI     F4  356   1.556   1.820   1.662 -0.3404 -0.8936  0.1541
   30HFI     F5  357   1.624   1.727   1.855 -0.0807  0.2647  0.8307
   30HFI     F6  358   1.447   1.651   1.742 -0.1161  0.2778 -0.7555
   30HFI     H1  359   1.590   1.425   1.719 -0.5438  0.3058 -1.1230
   30HFI     H2  360   1.614   1.583   1.551  2.0686  2.1678 -1.7416
   31HFI     O1  361   0.241   0.409   0.097 -0.6862 -0.3978 -0.0494
   31HFI     C1  362   0.224   0.375   0.239 -0.1819  0.1395 -0.1103
   31HFI     C2  363   0.357   0.406   0.311 -0.5594 -0.8058  0.2479
   31HFI     F1  364   0.449   0.317   0.268 -0.0812 -0.0493  0.0685
   31HFI     F2  365   0.350   0.395   0.446 -0.0839  0.7756 -0.0951
   31HFI     F3  366   0.396   0.531   0.277  0.3925  0.4570  0.0435
   31HFI     C3  367   0.153   0.240   0.262  0.7342 -0.0417 -0.1350
   31HFI     F4  368   0.158   0.212   0.397  0.1334 -0.7830 -0.8808
   31HFI     F5  369   0.219   0.137   0.191 -0.7379 -0.2748  0.1918
   31HFI     F6  370   0.026   0.237   0.225  0.5475 -0.2472  0.3947
   31HFI     H1  371   0.161   0.392   0.045 -1.8826  1.7696  1.0049
   31HFI     H2  372   0.147   0.441   0.280 -0.6672  0.5137 -1.5865
   32HFI     O1  373   1.587   1.197   1.589  0.0763  0.1130 -0.0566
   32HFI     C1  374   1.472   1.183   1.492  0.1790 -0.0421  0.6913
   32HFI     C2  375   1.408   1.319   1.467 -0.3919  0.3317 -0.3865
   32HFI     F1  376   1.303   1.326   1.379  0.2864  0.2897 -0.6156
   32HFI     F2  377   1.503   1.402   1.424 -0.1257 -0.2965 -0.1221
   32HFI     F3  378   1.358   1.372   1.580  0.5040 -0.2631  0.1940
   32HFI     C3  379   1.367   1.080   1.542  0.4597 -0.2969  0.2349
   32HFI     F4  380   1.264   1.074   1.452 -0.1710  0.1252 -0.4531
   32HFI     F5  381   1.317   1.106   1.662  0.3847 -0.1522  0.6477
   32HFI     F6  382   1.412   0.952   1.557  0.0898  0.2457 -0.1276
   32HFI     H1  383   1.640   1.116   1.579  0.1695  0.2256 -0.4940
   32HFI     H2  384   1.514   1.140   1.400  0.1802  1.2956  0.0515
   33HFI     O1  385   1.630   1.455   1.084 -0.2261  0.1894  0.3923
   33HFI     C1  386   1.765   1.498   1.099  0.1326  0.3040  0.5797
   33HFI     C2  387   1.838   1.525   0.969  0.6765 -0.3705  0.5400
   33HFI     F1  388   1.757   1.619   0.911  0.0077 -0.2184  0.2524
   33HFI     F2  389   1.863   1.412   0.889  0.4155 -0.2241 -0.1455
   33HFI     F3  390   1.957   1.582   0.993  0.2369  0.2319 -0.0789
   33HFI     C3  391   1.840   1.401   1.195  0.0722 -0.4625  1.1694
   33HFI     F4  392   1.970   1.426   1.214  0.1033  0.8437  0.3289
   33HFI     F5  393   1.830   1.277   1.152  0.0096  0.4190 -0.0366
   33HFI     F6  394   1.789   1.407   1.319  0.6311  0.0780 -0.2047
   33HFI     H1  395   1.612   1.385   1.019  2.9041  1.5395 -2.0576
   33HFI     H2  396   1.763   1.594   1.150  1.3550  0.0397  1.1547
   34HFI     O1  397   1.099   1.533   0.201  0.1007 -0.3028 -0.3275
   34HFI     C1  398   0.998   1.440   0.238 -0.0206 -0.3999 -0.8759
   34HFI     C2  399   1.056   1.334   0.336 -0.4802 -0.4913 -0.2465
   34HFI     F1  400   1.158   1.257   0.290 -0.2568  0.1001 -0.6219
   34HFI     F2  401   0.957   1.254   0.376  0.0465 -0.5720 -0.1269
   34HFI     F3  402   1.109   1.391   0.441  0.0721 -0.0015  0.4537
   34HFI     C3  403   0.940   1.372   0.109  0.5887 -0.4179  0.7855
   34HFI     F4  404   1.043   1.324   0.037 -0.0807 -0.2294  0.0602
   34HFI     F5  405   0.874   1.460   0.029 -0.5410  0.2734  0.3007
   34HFI     F6  406   0.860   1.266   0.138 -0.5841  0.5355  0.2914
   34HFI     H1  407   1.171   1.471   0.181  0.4483 -0.3755  1.1102
   34HFI     H2  408   0.927   1.498   0.299  0.1239 -0.3270 -0.7752
   35HFI     O1  409   0.843   0.006   1.146 -0.4718 -0.2344  0.0883
   35HFI     C1  410   0.931   0.123   1.123  1.2950 -0.0762  0.0027
   35HFI     C2  411   0.859   0.231   1.038  0.1960  0.8448  0.0351
   35HFI     F1  412   0.731   0.252   1.070  0.3184  0.3141 -0.5477
   35HFI     F2  413   0.851   0.195   0.904 -0.1775  0.0666  0.8613
   35HFI     F3  414   0.923   0.346   1.052  0.1660  0.0395  0.2443
   35HFI     C3  415   1.069   0.086   1.066  0.0663  0.5576 -0.2919
   35HFI     F4  416   1.130   0.005   1.159 -0.1396  0.2926  0.3146
   35HFI     F5  417   1.150   0.197   1.048 -0.4564 -0.5978  0.3340
   35HFI     F6  418   1.062   0.012   0.957  0.2614 -0.3347 -0.3379
   35HFI     H1  419   0.902  -0.069   1.162  0.3420  0.7954  2.1472
   35HFI     H2  420   0.946   0.177   1.217  1.9725 -1.6577  0.8221
   36HFI     O1  421   0.117   1.859   2.038 -0.0981 -0.2661  0.3997
   36HFI     C1  422   0.058   1.962   1.957 -0.1465  0.5424 -0.2158
   36HFI     C2  423  -0.052   1.901   1.866  0.6395  0.5077  0.0076
   36HFI     F1  424  -0.131   2.002   1.819 -0.3103  0.2183 -0.2527
   36HFI     F2  425  -0.130   1.818   1.941  0.3751 -0.1814 -0.2015
   36HFI     F3  426  -0.006   1.833   1.757 -0.2671  0.4694  0.1170
   36HFI     C3  427   0.161   2.048   1.881 -0.2184  0.6066  0.5711
   36HFI     F4  428   0.104   2.137   1.798 -0.4103 -0.2943  0.5469
   36HFI     F5  429   0.236   1.965   1.802 -0.3590  0.2713  0.1075
   36HFI     F6  430   0.242   2.113   1.969  0.2152 -0.0502 -0.2644
   36HFI     H1  431   0.162   1.793   1.981  0.6252 -0.2848  0.9832
   36HFI     H2  432   0.010   2.040   2.017 -0.3420  1.0390 -1.0138
   37HFI     O1  433   0.858   1.894   1.211  0.2188  0.0062 -0.0199
   37HFI     C1  434   0.807   1.820   1.091  0.1067 -0.6398  0.5569
   37HFI     C2  435   0.758   1.672   1.128  0.0037  0.1593 -0.2587
   37HFI     F1  436   0.711   1.600   1.027  0.0174 -0.3443 -0.1035
   37HFI     F2  437   0.654   1.678   1.216  0.0582  0.1090  0.1647
   37HFI     F3  438   0.857   1.604   1.198 -0.1710  0.1906  0.3820
   37HFI     C3  439   0.914   1.816   0.978 -0.3517 -0.8483  0.1673
   37HFI     F4  440   0.868   1.775   0.855  0.1252  0.4384  0.0818
   37HFI     F5  441   1.024   1.750   1.013 -0.0988  0.0772 -0.2153
   37HFI     F6  442   0.959   1.941   0.962  0.3172 -0.4223  0.0112
   37HFI     H1  443   0.857   1.839   1.291  0.8373  1.7345  1.2145
   37HFI     H2  444   0.720   1.871   1.048  0.2679 -0.2288  0.7190
   38HFI     O1  445   1.839   1.151   1.825 -0.0793  0.3768 -0.3630
   38HFI     C1  446   1.920   1.038   1.776  0.3605 -0.0555  0.4131
   38HFI     C2  447   2.074   1.059   1.802  0.0551 -0.5370  0.4260
   38HFI     F1  448   2.139   0.945   1.809 -0.2845 -0.2684  0.1272
   38HFI     F2  449   2.093   1.102   1.931  0.2820 -0.4176 -0.2079
   38HFI     F3  450   2.142   1.140   1.716  0.0500  0.1857  0.0563
   38HFI     C3  451   1.893   0.985   1.630  0.2376 -0.5547  0.5935
   38HFI     F4  452   1.768   0.947   1.612 -0.3457  0.2407  0.9623
   38HFI     F5  453   1.969   0.881   1.599 -0.0228 -0.0207 -0.0479
   38HFI     F6  454   1.923   1.079   1.540  0.3412  0.4105 -0.0864
   38HFI     H1  455   1.909   1.219   1.834  2.8569 -2.4361 -0.8726
   38HFI     H2  456   1.886   0.957   1.843 -0.7259  0.5310  0.5923
   39HFI     O1  457   0.675   1.419   0.400 -0.2634 -0.0761 -0.6489
   39HFI     C1  458   0.631   1.551   0.454  0.5017 -0.3664  0.1275
   39HFI     C2  459   0.664   1.563   0.605 -0.8825 -0.0306  0.2816
   39HFI     F1  460   0.640   1.690   0.642  0.6145  0.3733 -0.4481
   39HFI     F2  461   0.798   1.546   0.620  0.7379 -0.6925 -0.3594
   39HFI     F3  462   0.603   1.472   0.680 -0.3031  0.1493  0.0598
   39HFI     C3  463   0.488   1.581   0.413  0.9048 -0.3509  0.2008
   39HFI     F4  464   0.395   1.508   0.479 -0.1815 -0.2294 -0.3320
   39HFI     F5  465   0.470   1.572   0.279 -0.1292 -0.3051 -0.3358
   39HFI     F6  466   0.468   1.713   0.440 -0.3732  0.5921 -0.2698
   39HFI     H1  467   0.655   1.341   0.454 -0.0092  1.7112  2.1517
   39HFI     H2  468   0.697   1.629   0.414  0.8699 -0.9683 -0.4501
   40HFI     O1  469   0.257   0.054   0.876 -0.0691 -0.3242  0.1727
   40HFI     C1  470   0.116   0.054   0.873  0.2785 -0.5952 -0.4334
   40HFI     C2  471   0.048  -0.070   0.926 -0.5246  0.3695  0.3501
   40HFI     F1  472  -0.082  -0.070   0.926  0.2440 -0.5891  0.1992
   40HFI     F2  473   0.085  -0.092   1.044 -0.1750 -0.3724 -0.8015
   40HFI     F3  474   0.081  -0.173   0.850 -0.3324  0.5673  0.0746
   40HFI     C3  475   0.062   0.113   0.743  0.6143 -0.3679 -0.0119
   40HFI     F4  476   0.139   0.220   0.704 -0.2351 -0.5091  0.1713
   40HFI     F5  477  -0.062   0.157   0.760 -0.3184  0.0885  0.1064
   40HFI     F6  478   0.054   0.023   0.645 -0.2024 -0.1459 -0.5506
   40HFI     H1  479   0.282  -0.030   0.835  0.0070  0.8261 -2.2205
   40HFI     H2  480   0.081   0.126   0.948  1.5568 -1.3429  0.9272
   41HFI     O1  481   1.911   1.433   1.851  0.6297  0.3510 -0.0894
   41HFI     C1  482   1.996   1.509   1.943  0.2990 -0.6326 -0.6110
   41HFI     C2  483   2.148   1.489   1.914 -0.0498 -0.3271 -0.5695
   41HFI     F1  484   2.228   1.553   2.003 -0.2027 -0.2009 -0.6438
   41HFI     F2  485   2.185   1.548   1.793 -1.2186  0.0849  0.1588
   41HFI     F3  486   2.183   1.362   1.919  0.1694  0.0237 -0.0146
   41HFI     C3  487   1.955   1.477   2.089  0.2454  0.3046  0.3791
   41HFI     F4  488   2.024   1.533   2.189  0.0020 -0.4609  0.0246
   41HFI     F5  489   1.952   1.350   2.116  0.4915  0.1497  0.6427
   41HFI     F6  490   1.826   1.513   2.108  0.1971 -0.3157  0.4369
   41HFI     H1  491   1.826   1.479   1.838  0.7351  0.6243  0.1953
   41HFI     H2  492   1.975   1.616   1.931  1.5110 -0.3083  0.0378
   42HFI     O1  493   1.178   2.006   0.002 -0.4188  0.3648  0.1471
   42HFI     C1  494   1.069   1.983  -0.089 -0.0673 -0.1625  0.0149
   42HFI     C2  495   1.004   1.838  -0.067 -0.3512 -0.0708 -0.7800
   42HFI     F1  496   0.921   1.836   0.033  0.1009 -0.1317 -0.0027
   42HFI     F2  497   1.099   1.739  -0.045  0.0363 -0.4976  0.1672
   42HFI     F3  498   0.932   1.789  -0.175  0.1543  0.1478  0.1979
   42HFI     C3  499   1.111   2.000  -0.237  0.0329 -0.2231 -0.2564
   42HFI     F4  500   1.211   1.915  -0.266  0.4799  0.2580 -0.2329
   42HFI     F5  501   1.160   2.127  -0.258  0.1015  0.7239 -0.2257
   42HFI     F6  502   1.005   1.984  -0.316  0.2376 -0.1783 -0.2375
   42HFI     H1  503   1.240   2.071  -0.033 -0.3556 -0.2510 -0.9016
   42HFI     H2  504   0.991   2.060  -0.078  1.1925  1.4794 -2.1533
   43HFI     O1  505   0.191   1.853   0.461  0.1946 -0.0333  0.1393
   43HFI     C1  506   0.157   1.877   0.312  0.5710 -0.1643 -1.1131
   43HFI     C2  507   0.079   2.011   0.275  0.1222 -0.1102 -0.5485
   43HFI     F1  508   0.117   2.102   0.364 -0.2253 -0.5005 -0.5377
   43HFI     F2  509  -0.052   2.007   0.283  0.1240  0.2792 -0.3407
   43HFI     F3  510   0.117   2.059   0.153  0.5378 -0.2081 -0.6828
   43HFI     C3  511   0.084   1.754   0.254  0.0300  0.0246  0.4462
   43HFI     F4  512   0.039   1.764   0.126  0.2465 -0.2898  0.1597
   43HFI     F5  513  -0.019   1.710   0.331 -0.0599 -0.0038 -0.7674
   43HFI     F6  514   0.172   1.655   0.269  0.2527 -1.0545  0.4280
   43HFI     H1  515   0.183   1.938   0.506 -0.7271  0.2391 -0.5335
   43HFI     H2  516   0.241   1.881   0.243  1.4969 -0.1162 -0.0058
   44HFI     O1  517   1.479   2.022   1.953 -0.2753  0.1641 -0.0547
   44HFI     C1  518   1.555   2.134   1.889  0.1267  0.5040  0.5085
   44HFI     C2  519   1.705   2.095   1.867 -0.3310  0.1711 -0.1277
   44HFI     F1  520   1.757   2.049   1.980 -0.1086 -0.3692 -0.0510
   44HFI     F2  521   1.779   2.204   1.830  0.4070 -0.1571 -0.4125
   44HFI     F3  522   1.727   1.998   1.770 -0.0166 -0.3167 -0.2063
   44HFI     C3  523   1.526   2.265   1.967  0.2282  0.7001 -0.0816
   44HFI     F4  524   1.398   2.285   1.998  0.0441 -0.0036 -0.1723
   44HFI     F5  525   1.571   2.370   1.898  0.0523 -0.1875 -0.4952
   44HFI     F6  526   1.588   2.266   2.089 -0.1956  0.2911  0.0748
   44HFI     H1  527   1.539   1.951   1.979  1.7372  1.3848 -1.2157
   44HFI     H2  528   1.523   2.152   1.786 -0.9139  1.0235  0.9106
   45HFI     O1  529   0.535   1.165   1.215  0.1772  0.0470 -0.2061
   45HFI     C1  530   0.510   1.128   1.074 -0.6915 -0.0831  0.2672
   45HFI     C2  531   0.490   1.256   0.986 -0.0129  0.4691 -0.6462
   45HFI     F1  532   0.449   1.230   0.863  0.1508 -0.0131 -0.2829
   45HFI     F2  533   0.610   1.319   0.974 -0.3154 -0.3720  0.4016
   45HFI     F3  534   0.398   1.335   1.046 -0.1996 -0.2188 -0.9154
   45HFI     C3  535   0.386   1.033   1.070 -0.1528 -0.1731 -0.3116
   45HFI     F4  536   0.406   0.917   1.132 -0.5468 -0.0495 -0.4402
   45HFI     F5  537   0.352   1.004   0.946 -0.2392  0.1051  0.2868
   45HFI     F6  538   0.282   1.097   1.135  0.3089 -0.5700 -0.3649
   45HFI     H1  539   0.451   1.198   1.249  1.3674  0.1551  2.7455
   45HFI     H2  540   0.588   1.073   1.021  0.6968  2.1731 -0.0764
   46HFI     O1  541   0.499   1.837   1.661 -0.0714  0.1526 -0.0732
   46HFI     C1  542   0.619   1.915   1.694 -0.2508 -0.0157 -0.1422
   46HFI     C2  543   0.575   2.038   1.779  0.1999  0.7057 -0.1801
   46HFI     F1  544   0.493   2.001   1.882  0.2665 -0.1896 -0.3453
   46HFI     F2  545   0.506   2.133   1.707  0.7963 -0.0710 -0.0668
   46HFI     F3  546   0.685   2.102   1.835  0.1937  0.4239 -0.1152
   46HFI     C3  547   0.697   1.954   1.569 -0.2405 -0.3388 -0.4092
   46HFI     F4  548   0.811   2.010   1.609 -0.0584  0.3352 -0.0848
   46HFI     F5  549   0.633   2.048   1.487  0.3212  0.4879 -0.4274
   46HFI     F6  550   0.722   1.849   1.488 -0.2658 -0.2671 -0.4441
   46HFI     H1  551   0.452   1.885   1.590  0.8613  2.1846  0.6276
   46HFI     H2  552   0.685   1.855   1.758 -0.0229 -1.0952 -1.3703
   47HFI     O1  553   0.511   0.051   0.119  0.4006 -0.1311 -0.1657
   47HFI     C1  554   0.558  -0.083   0.093 -0.4766 -0.3984 -0.3460
   47HFI     C2  555   0.544  -0.174   0.212 -0.1043  0.2097 -0.3879
   47HFI     F1  556   0.620  -0.126   0.318 -0.0052 -0.4224  0.1891
   47HFI     F2  557   0.573  -0.304   0.182 -0.2674 -0.2959 -0.7576
   47HFI     F3  558   0.418  -0.168   0.251  0.6633 -0.1842  0.2941
   47HFI     C3  559   0.693  -0.092   0.015  0.4639  0.0271 -0.1474
   47HFI     F4  560   0.694  -0.004  -0.089  0.9531  0.0821  0.0668
   47HFI     F5  561   0.710  -0.218  -0.029 -0.1670  0.4593  0.4413
   47HFI     F6  562   0.793  -0.064   0.092  0.2647 -0.2314  0.2118
   47HFI     H1  563   0.575   0.097   0.176  1.0096 -1.4777  0.2452
   47HFI     H2  564   0.495  -0.123   0.013 -1.0919  0.5942 -0.3711
   48HFI     O1  565   1.011   2.045   0.367  0.0950  0.0426 -0.9347
   48HFI     C1  566   1.037   1.901   0.388 -1.0688  0.3542 -0.2239
   48HFI     C2  567   0.910   1.823   0.404  0.2466  0.2050  0.1294
   48HFI     F1  568   0.838   1.834   0.295 -0.3130  0.2726  0.4389
   48HFI     F2  569   0.857   1.873   0.509  0.5846 -0.1817 -0.2328
   48HFI     F3  570   0.941   1.692   0.421  0.5492 -0.7479  0.1353
   48HFI     C3  571   1.135   1.896   0.502 -0.9868  0.1627 -0.0968
   48HFI     F4  572   1.251   1.958   0.474 -0.4673 -0.1083  0.5095
   48HFI     F5  573   1.174   1.766   0.515 -0.0864 -0.4337 -0.0773
   48HFI     F6  574   1.094   1.948   0.616 -0.2265  0.9592  0.0993
   48HFI     H1  575   1.024   2.090   0.452  1.9630 -0.2802 -1.0302
   48HFI     H2  576   1.081   1.838   0.310  2.5829 -1.2346  2.9315
   49HFI     O1  577   1.641   0.772   1.935 -0.1764  0.2931 -0.2278
   49HFI     C1  578   1.598   0.725   1.800  0.1949  0.0149  0.3537
   49HFI     C2  579   1.444   0.728   1.788  0.3653  0.2321  0.6256
   49HFI     F1  580   1.401   0.720   1.661 -0.3740  0.4707 -0.0006
   49HFI     F2  581   1.392   0.833   1.832  0.6440  0.4407 -0.3553
   49HFI     F3  582   1.386   0.628   1.854  0.1028  0.1912 -0.2409
   49HFI     C3  583   1.659   0.577   1.776 -0.1780  0.1550 -0.1624
   49HFI     F4  584   1.610   0.477   1.855 -0.0069  0.1447  0.2945
   49HFI     F5  585   1.787   0.581   1.805  0.2723 -0.0581 -0.5895
   49HFI     F6  586   1.654   0.539   1.643 -0.2694 -0.5059 -0.6563
   49HFI     H1  587   1.563   0.791   1.990  0.6700  1.3927  0.6071
   49HFI     H2  588   1.636   0.786   1.717 -1.6493  0.0498 -0.4876
   50HFI     O1  589   1.447   1.309   1.874  0.5967  0.0446  0.0412
   50HFI     C1  590   1.485   1.283   2.016  0.3349 -0.3427  0.5275
   50HFI     C2  591   1.427   1.148   2.069 -0.4667 -0.0249  0.2147
   50HFI     F1  592   1.478   1.047   1.994 -0.3755  0.1203 -0.0756
   50HFI     F2  593   1.291   1.152   2.058  0.1032 -0.0038  0.3982
   50HFI     F3  594   1.462   1.125   2.199  0.6549  0.0246 -0.1339
   50HFI     C3  595   1.455   1.411   2.112  0.2466  0.5106  0.2858
   50HFI     F4  596   1.490   1.524   2.046  0.3071  0.7969 -0.2768
   50HFI     F5  597   1.527   1.410   2.224 -0.3371  0.4209  0.5654
   50HFI     F6  598   1.319   1.428   2.146 -0.2801 -0.2003  0.0608
   50HFI     H1  599   1.359   1.349   1.877  0.2375 -0.8106  1.1853
   50HFI     H2  600   1.593   1.269   2.014  0.1749 -1.9562  1.8571
   51HFI     O1  601   1.068   0.857   1.726 -0.0939 -0.2092 -0.3138
   51HFI     C1  602   0.981   0.929   1.817  0.5402  0.4228  0.0129
   51HFI     C2  603   0.993   0.887   1.976  0.0078  0.2812 -0.0816
   51HFI     F1  604   0.968   0.985   2.059 -0.1873  0.0103  0.3886
   51HFI     F2  605   1.125   0.857   2.004 -0.2986 -0.6493 -0.1766
   51HFI     F3  606   0.919   0.779   2.013 -0.1290 -0.0350  0.2556
   51HFI     C3  607   0.841   0.957   1.771 -0.3678  1.1371 -0.4765
   51HFI     F4  608   0.777   1.037   1.854  0.5751  0.1523  0.4027
   51HFI     F5  609   0.766   0.845   1.762  0.1424  0.0671  0.5248
   51HFI     F6  610   0.836   1.006   1.645 -0.2495 -0.4328  0.1445
   51HFI     H1  611   1.154   0.843   1.771 -1.6025 -0.2082  2.7247
   51HFI     H2  612   1.028   1.028   1.830 -0.4522  0.6327  2.3391
   52HFI     O1  613   1.573   1.252   0.878 -0.1300  0.0462 -0.4648
   52HFI     C1  614   1.639   1.121   0.905  0.3985 -0.3534  0.6227
   52HFI     C2  615   1.663   1.024   0.775 -0.5841  0.1498  0.1440
   52HFI     F1  616   1.546   0.989   0.709  0.1158  0.1681 -0.1390
   52HFI     F2  617   1.724   0.914   0.821 -0.2054 -0.0063  0.0257
   52HFI     F3  618   1.740   1.078   0.677  0.8628  0.0525  0.7051
   52HFI     C3  619   1.557   1.046   1.011  0.2040 -0.3508 -0.7890
   52HFI     F4  620   1.421   1.045   0.973 -0.2859  0.0976  0.5835
   52HFI     F5  621   1.568   1.125   1.125  0.0034 -0.4088 -0.1934
   52HFI     F6  622   1.586   0.921   1.040 -0.2243  0.1119  0.6556
   52HFI     H1  623   1.482   1.243   0.845 -0.2560  0.9483 -0.3573
   52HFI     H2  624   1.738   1.137   0.949  1.6702 -1.6360 -1.7142
   53HFI     O1  625   1.043   0.837   0.595 -0.0415  0.1032 -0.3263
   53HFI     C1  626   1.121   0.956   0.582  0.6473  0.1755 -0.5304
   53HFI     C2  627   1.209   0.961   0.455 -0.2001 -0.6214 -0.0451
   53HFI     F1  628   1.127   0.949   0.344 -0.1946  0.2161  0.1780
   53HFI     F2  629   1.296   0.850   0.451 -0.3174 -0.1091 -0.5277
   53HFI     F3  630   1.276   1.076   0.436 -0.7851  0.3237  0.6167
   53HFI     C3  631   1.214   0.974   0.704 -0.6626  0.2836 -0.1299
   53HFI     F4  632   1.295   1.077   0.692  0.0009 -0.3767 -0.1491
   53HFI     F5  633   1.281   0.867   0.735  0.1207 -0.0056  0.1678
   53HFI     F6  634   1.137   0.998   0.815 -0.1334  0.4916  0.1993
   53HFI     H1  635   1.090   0.775   0.537  0.0072 -0.5651  0.4115
   53HFI     H2  636   1.044   1.035   0.581  0.2404 -0.1888  0.5799
   54HFI     O1  637   1.227   1.515   1.859 -0.7020 -0.0583 -0.2062
   54HFI     C1  638   1.086   1.523   1.823  0.2017 -0.0537 -0.6780
   54HFI     C2  639   1.014   1.387   1.818  0.1135  0.2128  0.6584
   54HFI     F1  640   0.877   1.389   1.809 -0.2858  0.0828 -0.2054
   54HFI     F2  641   1.056   1.309   1.918 -0.0268  0.3250  0.2916
   54HFI     F3  642   1.059   1.320   1.706 -0.2416  0.1947  0.1248
   54HFI     C3  643   1.061   1.614   1.699 -0.4983  0.1342 -0.5621
   54HFI     F4  644   1.114   1.561   1.587 -0.3960 -0.2824 -0.1601
   54HFI     F5  645   1.114   1.736   1.716  0.1852 -0.4728  0.1912
   54HFI     F6  646   0.929   1.622   1.674  0.5665 -0.2182  0.4129
   54HFI     H1  647   1.278   1.590   1.823 -1.1877  0.4649  0.1811
   54HFI     H2  648   1.031   1.560   1.910  1.3204  0.9980 -0.4025
   55HFI     O1  649   0.929   0.261   1.889 -0.2579  0.4046 -0.3091
   55HFI     C1  650   1.042   0.296   1.971  0.4032 -0.1090 -0.0638
   55HFI     C2  651   1.021   0.236   2.116  0.1720 -0.6797 -0.3829
   55HFI     F1  652   1.126   0.242   2.200  0.0056  0.0986  0.6172
   55HFI     F2  653   1.005   0.102   2.119 -0.2107 -0.0800 -0.1156
   55HFI     F3  654   0.911   0.292   2.173 -0.4323 -0.5158  0.2053
   55HFI     C3  655   1.071   0.451   1.973 -0.4904  0.3020  0.3902
   55HFI     F4  656   1.184   0.477   2.045 -0.0737 -0.4030  0.7557
   55HFI     F5  657   0.964   0.518   2.027  0.3683  0.0349  0.2870
   55HFI     F6  658   1.094   0.494   1.843  0.6530 -0.0272  0.2830
   55HFI     H1  659   0.846   0.291   1.930 -0.5512  1.0167 -1.3323
   55HFI     H2  660   1.132   0.246   1.935  1.1776 -0.5534  2.3658
   56HFI     O1  661   0.489   1.099   0.615  0.7916  0.8462 -0.0435
   56HFI     C1  662   0.579   0.998   0.563  0.4342 -0.2926 -0.5201
   56HFI     C2  663   0.616   0.899   0.671 -0.8670 -0.0437  0.5052
   56HFI     F1  664   0.679   0.952   0.779  0.8078 -0.3051 -0.2997
   56HFI     F2  665   0.685   0.793   0.626  0.2572 -0.2164  0.3696
   56HFI     F3  666   0.499   0.859   0.712 -0.2704 -0.3486  0.2586
   56HFI     C3  667   0.703   1.073   0.506 -0.1234 -0.3459  0.9816
   56HFI     F4  668   0.799   0.985   0.466 -0.2039 -0.2897  0.4435
   56HFI     F5  669   0.755   1.157   0.593 -0.0121 -0.3815 -0.0769
   56HFI     F6  670   0.668   1.146   0.396 -0.2135 -0.1709 -0.0271
   56HFI     H1  671   0.405   1.060   0.644  0.3871  1.7011 -0.0638
   56HFI     H2  672   0.529   0.951   0.478  0.5949  1.0123 -1.3592
   57HFI     O1  673   0.515   0.056   1.207 -0.4639 -0.0802  0.8362
   57HFI     C1  674   0.436   0.084   1.325 -0.8724  0.0308  0.4113
   57HFI     C2  675   0.320  -0.020   1.341  0.7510 -0.6531  0.3536
   57HFI     F1  676   0.198   0.037   1.373 -0.2284 -0.3544  0.1754
   57HFI     F2  677   0.344  -0.104   1.440 -0.1761 -0.1126 -0.6430
   57HFI     F3  678   0.307  -0.098   1.234  0.5882  0.3016 -0.7344
   57HFI     C3  679   0.385   0.231   1.322  0.1624 -0.2413  0.2701
   57HFI     F4  680   0.487   0.313   1.282 -0.3157  0.0788 -0.5201
   57HFI     F5  681   0.352   0.277   1.441 -0.5854  0.3857 -0.2942
   57HFI     F6  682   0.283   0.243   1.229  0.2187  0.2001  0.0846
   57HFI     H1  683   0.491   0.124   1.142  1.2971  0.4353  0.6811
   57HFI     H2  684   0.498   0.078   1.415 -2.7505  1.1355  1.8255
   58HFI     O1  685   1.685   1.819   0.277 -0.4107 -0.2629 -0.1774
   58HFI     C1  686   1.706   1.792   0.138 -0.6678  0.2194 -0.9026
   58HFI     C2  687   1.837   1.864   0.093 -0.1601  0.2031  0.3269
   58HFI     F1  688   1.936   1.831   0.179 -0.0932  0.0923  0.2384
   58HFI     F2  689   1.811   1.998   0.101 -0.2350  0.5777 -0.0024
   58HFI     F3  690   1.874   1.843  -0.033  0.3334  0.0701 -0.7262
   58HFI     C3  691   1.586   1.826   0.049  0.2116  0.3144  0.7164
   58HFI     F4  692   1.610   1.816  -0.081 -0.2142 -0.5759  0.0333
   58HFI     F5  693   1.528   1.954   0.066  0.2002  0.2279 -0.0089
   58HFI     F6  694   1.484   1.744   0.075 -0.2100 -0.3493 -0.0998
   58HFI     H1  695   1.768   1.849   0.317 -1.7780 -1.1826  3.5287
   58HFI     H2  696   1.726   1.685   0.129  2.2911  0.5481  1.0881
   59HFI     O1  697   1.431   0.502   0.314  0.2917  0.7093  0.5753
   59HFI     C1  698   1.384   0.591   0.206  0.2667  0.0221 -0.5491
   59HFI     C2  699   1.229   0.582   0.207  0.5505  0.3335 -0.4759
   59HFI     F1  700   1.160   0.659   0.117  0.2538 -0.5827 -0.4832
   59HFI     F2  701   1.192   0.621   0.326 -0.1060 -0.4102 -0.1381
   59HFI     F3  702   1.180   0.459   0.186  0.2492 -0.3273  0.0329
   59HFI     C3  703   1.448   0.545   0.072  0.3930  0.5167 -0.6289
   59HFI     F4  704   1.430   0.418   0.037  0.3332 -0.4827  0.6586
   59HFI     F5  705   1.584   0.572   0.087 -0.1792  0.1653 -0.0984
   59HFI     F6  706   1.396   0.627  -0.031  0.1258  0.0918 -0.4415
   59HFI     H1  707   1.366   0.429   0.320 -1.1242  1.7203 -1.8154
   59HFI     H2  708   1.415   0.696   0.220  0.3390 -0.3687  2.6217
   60HFI     O1  709   0.234   1.736   0.776  0.1466  0.1459  0.0574
   60HFI     C1  710   0.270   1.681   0.897 -0.3688  0.3879  0.5130
   60HFI     C2  711   0.154   1.699   1.002 -0.1982  0.6706  0.2162
   60HFI     F1  712   0.158   1.821   1.053  0.0124 -0.4238 -0.4911
   60HFI     F2  713   0.156   1.615   1.106  0.2834  0.3524 -0.2013
   60HFI     F3  714   0.031   1.684   0.938 -0.2059 -0.7437 -0.1193
   60HFI     C3  715   0.399   1.748   0.942 -0.0099 -0.1343 -0.9542
   60HFI     F4  716   0.431   1.694   1.061  0.1853 -0.2513  0.1414
   60HFI     F5  717   0.385   1.888   0.950  0.2638  0.3909 -0.0123
   60HFI     F6  718   0.497   1.710   0.857 -0.7020  0.8759 -0.5073
   60HFI     H1  719   0.158   1.691   0.736 -0.0282 -1.9878  2.7015
   60HFI     H2  720   0.285   1.573   0.895 -0.7133  0.3403  0.3781
   61HFI     O1  721   2.142   0.262   1.129  0.5018  0.0912  0.5861
   61HFI     C1  722   2.020   0.342   1.100  0.1989 -0.2284  0.3025
   61HFI     C2  723   1.897   0.256   1.078  0.4575  1.0600  0.6693
   61HFI     F1  724   1.928   0.147   1.001  0.2773 -0.1332 -0.5277
   61HFI     F2  725   1.803   0.323   1.007  0.4324 -0.0156  0.4003
   61HFI     F3  726   1.846   0.219   1.199 -0.2736 -0.1566 -0.2745
   61HFI     C3  727   2.044   0.448   0.987 -0.5101  0.1743  1.2256
   61HFI     F4  728   2.164   0.511   0.999 -0.5102  0.5571 -0.6574
   61HFI     F5  729   1.947   0.546   0.979 -0.2711 -0.0122 -0.2602
   61HFI     F6  730   2.051   0.385   0.864  0.2514  0.6214  0.0059
   61HFI     H1  731   2.201   0.319   1.181  0.6066 -0.8298  1.4953
   61HFI     H2  732   2.010   0.414   1.182  0.4791  3.4286 -2.7390
   62HFI     O1  733   1.517   0.120   0.514  0.0106 -0.8912  0.1174
   62HFI     C1  734   1.414   0.075   0.422 -0.2757 -0.2521 -0.5004
   62HFI     C2  735   1.456   0.081   0.270  0.6105  0.0500 -0.3389
   62HFI     F1  736   1.582   0.051   0.266  0.4704  0.1336 -0.0388
   62HFI     F2  737   1.445   0.206   0.219  0.4883 -0.0295  0.0687
   62HFI     F3  738   1.388  -0.012   0.201  0.3051  0.0264 -0.2817
   62HFI     C3  739   1.269   0.139   0.448 -0.2326  0.9006 -0.9626
   62HFI     F4  740   1.180   0.077   0.372  0.0344  0.1509 -0.1702
   62HFI     F5  741   1.270   0.269   0.435 -0.2117  0.2219 -0.7121
   62HFI     F6  742   1.231   0.098   0.575 -0.1545  0.6096 -0.1715
   62HFI     H1  743   1.549   0.041   0.562 -0.4244 -1.0539  0.1533
   62HFI     H2  744   1.399  -0.031   0.448  2.1269  0.0611  2.4422
   63HFI     O1  745   0.227   0.980   0.590  0.2448 -0.1830  0.2817
   63HFI     C1  746   0.173   0.844   0.607 -0.5612 -0.0380  0.1355
   63HFI     C2  747   0.185   0.774   0.472  0.2012  0.7127  0.3562
   63HFI     F1  748   0.113   0.828   0.369 -0.5671 -0.0311  0.3152
   63HFI     F2  749   0.165   0.638   0.477 -0.3431  0.6245  0.1293
   63HFI     F3  750   0.309   0.795   0.424  0.0802  0.3573  0.1990
   63HFI     C3  751   0.031   0.838   0.676  0.1203 -0.1209 -0.2059
   63HFI     F4  752   0.025   0.885   0.797 -0.1268  0.1719 -0.4662
   63HFI     F5  753  -0.021   0.715   0.681 -0.0545 -0.5684  0.4876
   63HFI     F6  754  -0.058   0.912   0.599 -0.4894 -0.7642  0.0697
   63HFI     H1  755   0.156   1.046   0.590  0.6475  0.3062  2.4939
   63HFI     H2  756   0.239   0.780   0.668 -1.9327 -1.3786  0.2303
   64HFI     O1  757   0.445   0.561   0.695 -0.7843  0.1647 -1.1324
   64HFI     C1  758   0.407   0.444   0.772 -0.2451 -0.6255  0.1103
   64HFI     C2  759   0.280   0.481   0.858 -0.0498 -0.1196 -0.4395
   64HFI     F1  760   0.254   0.383   0.947  0.4091 -0.2764 -0.3929
   64HFI     F2  761   0.177   0.487   0.772  0.6888 -0.0139 -0.3213
   64HFI     F3  762   0.285   0.596   0.931 -0.4586 -0.0272  0.2279
   64HFI     C3  763   0.524   0.391   0.862 -0.0124 -0.2848  0.0445
   64HFI     F4  764   0.514   0.262   0.901 -0.2225  0.0105 -0.8445
   64HFI     F5  765   0.536   0.464   0.979  0.2494  0.4872 -0.2770
   64HFI     F6  766   0.639   0.397   0.799 -0.6377 -0.3906  0.1089
   64HFI     H1  767   0.542   0.558   0.691 -0.6908  1.6914 -0.2147
   64HFI     H2  768   0.388   0.356   0.708  2.3641 -0.3279 -1.1443
   2.18892   2.18892   2.18892
