; Generated comparator GAFF2; no surface-desorption qualification
[ defaults ]
1 2 yes 0.5 0.83333333
[ atomtypes ]
; name    at.num    mass    charge ptype  sigma      epsilon
oh             8  16.000000  0.00000000  A     0.32428713       0.389112
c3             6  12.010000  0.00000000  A     0.33977095      0.4510352
f              9  19.000000  0.00000000  A     0.30342229      0.3481088
ho             1   1.008000  0.00000000  A    0.053792465      0.0196648
h1             1   1.008000  0.00000000  A     0.24219973      0.0870272



[ moleculetype ]
; Name            nrexcl
HFI          3

[ atoms ]
;   nr       type  resnr residue  atom   cgnr    charge       mass  typeB    chargeB      massB
; residue    1 HFI rtp HFI q -0.0
    1         oh      1    HFI     O1      1 -0.53988350  16.000000   ; qtot -0.539883
    2         c3      1    HFI     C1      2 0.06901650  12.010000   ; qtot -0.470867
    3         c3      1    HFI     C2      3 0.60281650  12.010000   ; qtot 0.131949
    4          f      1    HFI     F1      4 -0.21971650  19.000000   ; qtot -0.087767
    5          f      1    HFI     F2      5 -0.21971650  19.000000   ; qtot -0.307484
    6          f      1    HFI     F3      6 -0.21971650  19.000000   ; qtot -0.527200
    7         c3      1    HFI     C3      7 0.60281650  12.010000   ; qtot 0.075616
    8          f      1    HFI     F4      8 -0.21971650  19.000000   ; qtot -0.144100
    9          f      1    HFI     F5      9 -0.21971650  19.000000   ; qtot -0.363817
   10          f      1    HFI     F6     10 -0.21971650  19.000000   ; qtot -0.583533
   11         ho      1    HFI     H1     11 0.43591650   1.008000   ; qtot -0.147617
   12         h1      1    HFI     H2     12 0.14761650   1.008000   ; qtot -0.000000

[ bonds ]
;    ai     aj funct         c0         c1         c2         c3
      1      2     1   0.14242 238613.520000
      2      3     1   0.15354 191535.152000
      2      7     1   0.15354 191535.152000
      3      4     1   0.13512 279725.504000
      3      5     1   0.13512 279725.504000
      3      6     1   0.13512 279725.504000
      7      8     1   0.13512 279725.504000
      7      9     1   0.13512 279725.504000
      7     10     1   0.13512 279725.504000
      1     11     1   0.09725 448114.768000
      2     12     1   0.10969 288043.296000

[ pairs ]
;    ai     aj funct         c0         c1         c2         c3
      1      4     1
      1      5     1
      1      6     1
      1      8     1
      1      9     1
      1     10     1
      3      8     1
      3      9     1
      3     10     1
      4      7     1
      5      7     1
      6      7     1
     11      3     1
      4     12     1
      5     12     1
      6     12     1
     11      7     1
      8     12     1
      9     12     1
     10     12     1
     11     12     1

[ angles ]
;    ai     aj     ak funct         c0         c1         c2         c3
      1      2      3     1   109.6600471 642.578720
      1      2      7     1   109.6600471 642.578720
      2      3      4     1   109.4800467 664.084480
      2      3      5     1   109.4800467 664.084480
      2      3      6     1   109.4800467 664.084480
      2      7      8     1   109.4800467 664.084480
      2      7      9     1   109.4800467 664.084480
      2      7     10     1   109.4800467 664.084480
      3      2      7     1   112.6300483 500.992160
      4      3      5     1   107.3700460 894.371840
      4      3      6     1   107.3700460 894.371840
      5      3      6     1   107.3700460 894.371840
      8      7      9     1   107.3700460 894.371840
      8      7     10     1   107.3700460 894.371840
      9      7     10     1   107.3700460 894.371840
      1      2     12     1   110.3800471 471.034720
      2      1     11     1   107.3900462 545.007840
      3      2     12     1   109.5900471 362.167040
      7      2     12     1   109.5900471 362.167040

[ dihedrals ]
;    ai     aj     ak     al funct         c0         c1         c2         c3         c4         c5
      1      2      3      4     1  0.0000000  0.6508444  3
      1      2      3      5     1  0.0000000  0.6508444  3
      1      2      3      6     1  0.0000000  0.6508444  3
      1      2      7      8     1  0.0000000  0.6508444  3
      1      2      7      9     1  0.0000000  0.6508444  3
      1      2      7     10     1  0.0000000  0.6508444  3
      3      2      7      8     1  0.0000000  0.6508444  3
      3      2      7      9     1  0.0000000  0.6508444  3
      3      2      7     10     1  0.0000000  0.6508444  3
      4      3      2      7     1  0.0000000  0.6508444  3
      5      3      2      7     1  0.0000000  0.6508444  3
      6      3      2      7     1  0.0000000  0.6508444  3
     11      1      2      3     1  0.0000000  0.2510400  3
      4      3      2     12     1  0.0000000  0.7949600  1
      4      3      2     12     1  0.0000000  0.0000000  3
      5      3      2     12     1  0.0000000  0.7949600  1
      5      3      2     12     1  0.0000000  0.0000000  3
      6      3      2     12     1  0.0000000  0.7949600  1
      6      3      2     12     1  0.0000000  0.0000000  3
     11      1      2      7     1  0.0000000  0.2510400  3
      8      7      2     12     1  0.0000000  0.7949600  1
      8      7      2     12     1  0.0000000  0.0000000  3
      9      7      2     12     1  0.0000000  0.7949600  1
      9      7      2     12     1  0.0000000  0.0000000  3
     10      7      2     12     1  0.0000000  0.7949600  1
     10      7      2     12     1  0.0000000  0.0000000  3
     11      1      2     12     1  0.0000000  0.5146320  3


[ system ]
HFIP comparator n0
[ molecules ]
HFI 64
