HFIP comparator n4
 3225
    1GR      C1    1   0.000   0.000   1.900  0.0000  0.0000  0.0000
    1GR      C2    2   0.142   0.000   1.900  0.0000  0.0000  0.0000
    1GR      C3    3   0.213   0.123   1.900  0.0000  0.0000  0.0000
    1GR      C4    4   0.354   0.123   1.900  0.0000  0.0000  0.0000
    1GR      C5    5   0.000   0.246   1.900  0.0000  0.0000  0.0000
    1GR      C6    6   0.142   0.246   1.900  0.0000  0.0000  0.0000
    1GR      C7    7   0.213   0.368   1.900  0.0000  0.0000  0.0000
    1GR      C8    8   0.354   0.368   1.900  0.0000  0.0000  0.0000
    1GR      C9    9   0.000   0.491   1.900  0.0000  0.0000  0.0000
    1GR     C10   10   0.142   0.491   1.900  0.0000  0.0000  0.0000
    1GR     C11   11   0.213   0.614   1.900  0.0000  0.0000  0.0000
    1GR     C12   12   0.354   0.614   1.900  0.0000  0.0000  0.0000
    1GR     C13   13   0.000   0.737   1.900  0.0000  0.0000  0.0000
    1GR     C14   14   0.142   0.737   1.900  0.0000  0.0000  0.0000
    1GR     C15   15   0.213   0.860   1.900  0.0000  0.0000  0.0000
    1GR     C16   16   0.354   0.860   1.900  0.0000  0.0000  0.0000
    1GR     C17   17   0.000   0.982   1.900  0.0000  0.0000  0.0000
    1GR     C18   18   0.142   0.982   1.900  0.0000  0.0000  0.0000
    1GR     C19   19   0.213   1.105   1.900  0.0000  0.0000  0.0000
    1GR     C20   20   0.354   1.105   1.900  0.0000  0.0000  0.0000
    1GR     C21   21   0.000   1.228   1.900  0.0000  0.0000  0.0000
    1GR     C22   22   0.142   1.228   1.900  0.0000  0.0000  0.0000
    1GR     C23   23   0.213   1.351   1.900  0.0000  0.0000  0.0000
    1GR     C24   24   0.354   1.351   1.900  0.0000  0.0000  0.0000
    1GR     C25   25   0.000   1.474   1.900  0.0000  0.0000  0.0000
    1GR     C26   26   0.142   1.474   1.900  0.0000  0.0000  0.0000
    1GR     C27   27   0.213   1.596   1.900  0.0000  0.0000  0.0000
    1GR     C28   28   0.354   1.596   1.900  0.0000  0.0000  0.0000
    1GR     C29   29   0.000   1.719   1.900  0.0000  0.0000  0.0000
    1GR     C30   30   0.142   1.719   1.900  0.0000  0.0000  0.0000
    1GR     C31   31   0.213   1.842   1.900  0.0000  0.0000  0.0000
    1GR     C32   32   0.354   1.842   1.900  0.0000  0.0000  0.0000
    1GR     C33   33   0.000   1.965   1.900  0.0000  0.0000  0.0000
    1GR     C34   34   0.142   1.965   1.900  0.0000  0.0000  0.0000
    1GR     C35   35   0.213   2.088   1.900  0.0000  0.0000  0.0000
    1GR     C36   36   0.354   2.088   1.900  0.0000  0.0000  0.0000
    1GR     C37   37   0.000   2.210   1.900  0.0000  0.0000  0.0000
    1GR     C38   38   0.142   2.210   1.900  0.0000  0.0000  0.0000
    1GR     C39   39   0.213   2.333   1.900  0.0000  0.0000  0.0000
    1GR     C40   40   0.354   2.333   1.900  0.0000  0.0000  0.0000
    1GR     C41   41   0.000   2.456   1.900  0.0000  0.0000  0.0000
    1GR     C42   42   0.142   2.456   1.900  0.0000  0.0000  0.0000
    1GR     C43   43   0.213   2.579   1.900  0.0000  0.0000  0.0000
    1GR     C44   44   0.354   2.579   1.900  0.0000  0.0000  0.0000
    1GR     C45   45   0.000   2.702   1.900  0.0000  0.0000  0.0000
    1GR     C46   46   0.142   2.702   1.900  0.0000  0.0000  0.0000
    1GR     C47   47   0.213   2.824   1.900  0.0000  0.0000  0.0000
    1GR     C48   48   0.354   2.824   1.900  0.0000  0.0000  0.0000
    1GR     C49   49   0.000   2.947   1.900  0.0000  0.0000  0.0000
    1GR     C50   50   0.142   2.947   1.900  0.0000  0.0000  0.0000
    1GR     C51   51   0.213   3.070   1.900  0.0000  0.0000  0.0000
    1GR     C52   52   0.354   3.070   1.900  0.0000  0.0000  0.0000
    1GR     C53   53   0.000   3.193   1.900  0.0000  0.0000  0.0000
    1GR     C54   54   0.142   3.193   1.900  0.0000  0.0000  0.0000
    1GR     C55   55   0.213   3.316   1.900  0.0000  0.0000  0.0000
    1GR     C56   56   0.354   3.316   1.900  0.0000  0.0000  0.0000
    1GR     C57   57   0.425   0.000   1.900  0.0000  0.0000  0.0000
    1GR     C58   58   0.567   0.000   1.900  0.0000  0.0000  0.0000
    1GR     C59   59   0.638   0.123   1.900  0.0000  0.0000  0.0000
    1GR     C60   60   0.780   0.123   1.900  0.0000  0.0000  0.0000
    1GR     C61   61   0.425   0.246   1.900  0.0000  0.0000  0.0000
    1GR     C62   62   0.567   0.246   1.900  0.0000  0.0000  0.0000
    1GR     C63   63   0.638   0.368   1.900  0.0000  0.0000  0.0000
    1GR     C64   64   0.780   0.368   1.900  0.0000  0.0000  0.0000
    1GR     C65   65   0.425   0.491   1.900  0.0000  0.0000  0.0000
    1GR     C66   66   0.567   0.491   1.900  0.0000  0.0000  0.0000
    1GR     C67   67   0.638   0.614   1.900  0.0000  0.0000  0.0000
    1GR     C68   68   0.780   0.614   1.900  0.0000  0.0000  0.0000
    1GR     C69   69   0.425   0.737   1.900  0.0000  0.0000  0.0000
    1GR     C70   70   0.567   0.737   1.900  0.0000  0.0000  0.0000
    1GR     C71   71   0.638   0.860   1.900  0.0000  0.0000  0.0000
    1GR     C72   72   0.780   0.860   1.900  0.0000  0.0000  0.0000
    1GR     C73   73   0.425   0.982   1.900  0.0000  0.0000  0.0000
    1GR     C74   74   0.567   0.982   1.900  0.0000  0.0000  0.0000
    1GR     C75   75   0.638   1.105   1.900  0.0000  0.0000  0.0000
    1GR     C76   76   0.780   1.105   1.900  0.0000  0.0000  0.0000
    1GR     C77   77   0.425   1.228   1.900  0.0000  0.0000  0.0000
    1GR     C78   78   0.567   1.228   1.900  0.0000  0.0000  0.0000
    1GR     C79   79   0.638   1.351   1.900  0.0000  0.0000  0.0000
    1GR     C80   80   0.780   1.351   1.900  0.0000  0.0000  0.0000
    1GR     C81   81   0.425   1.474   1.900  0.0000  0.0000  0.0000
    1GR     C82   82   0.567   1.474   1.900  0.0000  0.0000  0.0000
    1GR     C83   83   0.638   1.596   1.900  0.0000  0.0000  0.0000
    1GR     C84   84   0.780   1.596   1.900  0.0000  0.0000  0.0000
    1GR     C85   85   0.425   1.719   1.900  0.0000  0.0000  0.0000
    1GR     C86   86   0.567   1.719   1.900  0.0000  0.0000  0.0000
    1GR     C87   87   0.638   1.842   1.900  0.0000  0.0000  0.0000
    1GR     C88   88   0.780   1.842   1.900  0.0000  0.0000  0.0000
    1GR     C89   89   0.425   1.965   1.900  0.0000  0.0000  0.0000
    1GR     C90   90   0.567   1.965   1.900  0.0000  0.0000  0.0000
    1GR     C91   91   0.638   2.088   1.900  0.0000  0.0000  0.0000
    1GR     C92   92   0.780   2.088   1.900  0.0000  0.0000  0.0000
    1GR     C93   93   0.425   2.210   1.900  0.0000  0.0000  0.0000
    1GR     C94   94   0.567   2.210   1.900  0.0000  0.0000  0.0000
    1GR     C95   95   0.638   2.333   1.900  0.0000  0.0000  0.0000
    1GR     C96   96   0.780   2.333   1.900  0.0000  0.0000  0.0000
    1GR     C97   97   0.425   2.456   1.900  0.0000  0.0000  0.0000
    1GR     C98   98   0.567   2.456   1.900  0.0000  0.0000  0.0000
    1GR     C99   99   0.638   2.579   1.900  0.0000  0.0000  0.0000
    1GR    C100  100   0.780   2.579   1.900  0.0000  0.0000  0.0000
    1GR    C101  101   0.425   2.702   1.900  0.0000  0.0000  0.0000
    1GR    C102  102   0.567   2.702   1.900  0.0000  0.0000  0.0000
    1GR    C103  103   0.638   2.824   1.900  0.0000  0.0000  0.0000
    1GR    C104  104   0.780   2.824   1.900  0.0000  0.0000  0.0000
    1GR    C105  105   0.425   2.947   1.900  0.0000  0.0000  0.0000
    1GR    C106  106   0.567   2.947   1.900  0.0000  0.0000  0.0000
    1GR    C107  107   0.638   3.070   1.900  0.0000  0.0000  0.0000
    1GR    C108  108   0.780   3.070   1.900  0.0000  0.0000  0.0000
    1GR    C109  109   0.425   3.193   1.900  0.0000  0.0000  0.0000
    1GR    C110  110   0.567   3.193   1.900  0.0000  0.0000  0.0000
    1GR    C111  111   0.638   3.316   1.900  0.0000  0.0000  0.0000
    1GR    C112  112   0.780   3.316   1.900  0.0000  0.0000  0.0000
    1GR    C113  113   0.851   0.000   1.900  0.0000  0.0000  0.0000
    1GR    C114  114   0.993   0.000   1.900  0.0000  0.0000  0.0000
    1GR    C115  115   1.064   0.123   1.900  0.0000  0.0000  0.0000
    1GR    C116  116   1.205   0.123   1.900  0.0000  0.0000  0.0000
    1GR    C117  117   0.851   0.246   1.900  0.0000  0.0000  0.0000
    1GR    C118  118   0.993   0.246   1.900  0.0000  0.0000  0.0000
    1GR    C119  119   1.064   0.368   1.900  0.0000  0.0000  0.0000
    1GR    C120  120   1.205   0.368   1.900  0.0000  0.0000  0.0000
    1GR    C121  121   0.851   0.491   1.900  0.0000  0.0000  0.0000
    1GR    C122  122   0.993   0.491   1.900  0.0000  0.0000  0.0000
    1GR    C123  123   1.064   0.614   1.900  0.0000  0.0000  0.0000
    1GR    C124  124   1.205   0.614   1.900  0.0000  0.0000  0.0000
    1GR    C125  125   0.851   0.737   1.900  0.0000  0.0000  0.0000
    1GR    C126  126   0.993   0.737   1.900  0.0000  0.0000  0.0000
    1GR    C127  127   1.064   0.860   1.900  0.0000  0.0000  0.0000
    1GR    C128  128   1.205   0.860   1.900  0.0000  0.0000  0.0000
    1GR    C129  129   0.851   0.982   1.900  0.0000  0.0000  0.0000
    1GR    C130  130   0.993   0.982   1.900  0.0000  0.0000  0.0000
    1GR    C131  131   1.064   1.105   1.900  0.0000  0.0000  0.0000
    1GR    C132  132   1.205   1.105   1.900  0.0000  0.0000  0.0000
    1GR    C133  133   0.851   1.228   1.900  0.0000  0.0000  0.0000
    1GR    C134  134   0.993   1.228   1.900  0.0000  0.0000  0.0000
    1GR    C135  135   1.064   1.351   1.900  0.0000  0.0000  0.0000
    1GR    C136  136   1.205   1.351   1.900  0.0000  0.0000  0.0000
    1GR    C137  137   0.851   1.474   1.900  0.0000  0.0000  0.0000
    1GR    C138  138   0.993   1.474   1.900  0.0000  0.0000  0.0000
    1GR    C139  139   1.064   1.596   1.900  0.0000  0.0000  0.0000
    1GR    C140  140   1.205   1.596   1.900  0.0000  0.0000  0.0000
    1GR    C141  141   0.851   1.719   1.900  0.0000  0.0000  0.0000
    1GR    C142  142   0.993   1.719   1.900  0.0000  0.0000  0.0000
    1GR    C143  143   1.064   1.842   1.900  0.0000  0.0000  0.0000
    1GR    C144  144   1.205   1.842   1.900  0.0000  0.0000  0.0000
    1GR    C145  145   0.851   1.965   1.900  0.0000  0.0000  0.0000
    1GR    C146  146   0.993   1.965   1.900  0.0000  0.0000  0.0000
    1GR    C147  147   1.064   2.088   1.900  0.0000  0.0000  0.0000
    1GR    C148  148   1.205   2.088   1.900  0.0000  0.0000  0.0000
    1GR    C149  149   0.851   2.210   1.900  0.0000  0.0000  0.0000
    1GR    C150  150   0.993   2.210   1.900  0.0000  0.0000  0.0000
    1GR    C151  151   1.064   2.333   1.900  0.0000  0.0000  0.0000
    1GR    C152  152   1.205   2.333   1.900  0.0000  0.0000  0.0000
    1GR    C153  153   0.851   2.456   1.900  0.0000  0.0000  0.0000
    1GR    C154  154   0.993   2.456   1.900  0.0000  0.0000  0.0000
    1GR    C155  155   1.064   2.579   1.900  0.0000  0.0000  0.0000
    1GR    C156  156   1.205   2.579   1.900  0.0000  0.0000  0.0000
    1GR    C157  157   0.851   2.702   1.900  0.0000  0.0000  0.0000
    1GR    C158  158   0.993   2.702   1.900  0.0000  0.0000  0.0000
    1GR    C159  159   1.064   2.824   1.900  0.0000  0.0000  0.0000
    1GR    C160  160   1.205   2.824   1.900  0.0000  0.0000  0.0000
    1GR    C161  161   0.851   2.947   1.900  0.0000  0.0000  0.0000
    1GR    C162  162   0.993   2.947   1.900  0.0000  0.0000  0.0000
    1GR    C163  163   1.064   3.070   1.900  0.0000  0.0000  0.0000
    1GR    C164  164   1.205   3.070   1.900  0.0000  0.0000  0.0000
    1GR    C165  165   0.851   3.193   1.900  0.0000  0.0000  0.0000
    1GR    C166  166   0.993   3.193   1.900  0.0000  0.0000  0.0000
    1GR    C167  167   1.064   3.316   1.900  0.0000  0.0000  0.0000
    1GR    C168  168   1.205   3.316   1.900  0.0000  0.0000  0.0000
    1GR    C169  169   1.276   0.000   1.900  0.0000  0.0000  0.0000
    1GR    C170  170   1.418   0.000   1.900  0.0000  0.0000  0.0000
    1GR    C171  171   1.489   0.123   1.900  0.0000  0.0000  0.0000
    1GR    C172  172   1.631   0.123   1.900  0.0000  0.0000  0.0000
    1GR    C173  173   1.276   0.246   1.900  0.0000  0.0000  0.0000
    1GR    C174  174   1.418   0.246   1.900  0.0000  0.0000  0.0000
    1GR    C175  175   1.489   0.368   1.900  0.0000  0.0000  0.0000
    1GR    C176  176   1.631   0.368   1.900  0.0000  0.0000  0.0000
    1GR    C177  177   1.276   0.491   1.900  0.0000  0.0000  0.0000
    1GR    C178  178   1.418   0.491   1.900  0.0000  0.0000  0.0000
    1GR    C179  179   1.489   0.614   1.900  0.0000  0.0000  0.0000
    1GR    C180  180   1.631   0.614   1.900  0.0000  0.0000  0.0000
    1GR    C181  181   1.276   0.737   1.900  0.0000  0.0000  0.0000
    1GR    C182  182   1.418   0.737   1.900  0.0000  0.0000  0.0000
    1GR    C183  183   1.489   0.860   1.900  0.0000  0.0000  0.0000
    1GR    C184  184   1.631   0.860   1.900  0.0000  0.0000  0.0000
    1GR    C185  185   1.276   0.982   1.900  0.0000  0.0000  0.0000
    1GR    C186  186   1.418   0.982   1.900  0.0000  0.0000  0.0000
    1GR    C187  187   1.489   1.105   1.900  0.0000  0.0000  0.0000
    1GR    C188  188   1.631   1.105   1.900  0.0000  0.0000  0.0000
    1GR    C189  189   1.276   1.228   1.900  0.0000  0.0000  0.0000
    1GR    C190  190   1.418   1.228   1.900  0.0000  0.0000  0.0000
    1GR    C191  191   1.489   1.351   1.900  0.0000  0.0000  0.0000
    1GR    C192  192   1.631   1.351   1.900  0.0000  0.0000  0.0000
    1GR    C193  193   1.276   1.474   1.900  0.0000  0.0000  0.0000
    1GR    C194  194   1.418   1.474   1.900  0.0000  0.0000  0.0000
    1GR    C195  195   1.489   1.596   1.900  0.0000  0.0000  0.0000
    1GR    C196  196   1.631   1.596   1.900  0.0000  0.0000  0.0000
    1GR    C197  197   1.276   1.719   1.900  0.0000  0.0000  0.0000
    1GR    C198  198   1.418   1.719   1.900  0.0000  0.0000  0.0000
    1GR    C199  199   1.489   1.842   1.900  0.0000  0.0000  0.0000
    1GR    C200  200   1.631   1.842   1.900  0.0000  0.0000  0.0000
    1GR    C201  201   1.276   1.965   1.900  0.0000  0.0000  0.0000
    1GR    C202  202   1.418   1.965   1.900  0.0000  0.0000  0.0000
    1GR    C203  203   1.489   2.088   1.900  0.0000  0.0000  0.0000
    1GR    C204  204   1.631   2.088   1.900  0.0000  0.0000  0.0000
    1GR    C205  205   1.276   2.210   1.900  0.0000  0.0000  0.0000
    1GR    C206  206   1.418   2.210   1.900  0.0000  0.0000  0.0000
    1GR    C207  207   1.489   2.333   1.900  0.0000  0.0000  0.0000
    1GR    C208  208   1.631   2.333   1.900  0.0000  0.0000  0.0000
    1GR    C209  209   1.276   2.456   1.900  0.0000  0.0000  0.0000
    1GR    C210  210   1.418   2.456   1.900  0.0000  0.0000  0.0000
    1GR    C211  211   1.489   2.579   1.900  0.0000  0.0000  0.0000
    1GR    C212  212   1.631   2.579   1.900  0.0000  0.0000  0.0000
    1GR    C213  213   1.276   2.702   1.900  0.0000  0.0000  0.0000
    1GR    C214  214   1.418   2.702   1.900  0.0000  0.0000  0.0000
    1GR    C215  215   1.489   2.824   1.900  0.0000  0.0000  0.0000
    1GR    C216  216   1.631   2.824   1.900  0.0000  0.0000  0.0000
    1GR    C217  217   1.276   2.947   1.900  0.0000  0.0000  0.0000
    1GR    C218  218   1.418   2.947   1.900  0.0000  0.0000  0.0000
    1GR    C219  219   1.489   3.070   1.900  0.0000  0.0000  0.0000
    1GR    C220  220   1.631   3.070   1.900  0.0000  0.0000  0.0000
    1GR    C221  221   1.276   3.193   1.900  0.0000  0.0000  0.0000
    1GR    C222  222   1.418   3.193   1.900  0.0000  0.0000  0.0000
    1GR    C223  223   1.489   3.316   1.900  0.0000  0.0000  0.0000
    1GR    C224  224   1.631   3.316   1.900  0.0000  0.0000  0.0000
    1GR    C225  225   1.702   0.000   1.900  0.0000  0.0000  0.0000
    1GR    C226  226   1.843   0.000   1.900  0.0000  0.0000  0.0000
    1GR    C227  227   1.914   0.123   1.900  0.0000  0.0000  0.0000
    1GR    C228  228   2.056   0.123   1.900  0.0000  0.0000  0.0000
    1GR    C229  229   1.702   0.246   1.900  0.0000  0.0000  0.0000
    1GR    C230  230   1.843   0.246   1.900  0.0000  0.0000  0.0000
    1GR    C231  231   1.914   0.368   1.900  0.0000  0.0000  0.0000
    1GR    C232  232   2.056   0.368   1.900  0.0000  0.0000  0.0000
    1GR    C233  233   1.702   0.491   1.900  0.0000  0.0000  0.0000
    1GR    C234  234   1.843   0.491   1.900  0.0000  0.0000  0.0000
    1GR    C235  235   1.914   0.614   1.900  0.0000  0.0000  0.0000
    1GR    C236  236   2.056   0.614   1.900  0.0000  0.0000  0.0000
    1GR    C237  237   1.702   0.737   1.900  0.0000  0.0000  0.0000
    1GR    C238  238   1.843   0.737   1.900  0.0000  0.0000  0.0000
    1GR    C239  239   1.914   0.860   1.900  0.0000  0.0000  0.0000
    1GR    C240  240   2.056   0.860   1.900  0.0000  0.0000  0.0000
    1GR    C241  241   1.702   0.982   1.900  0.0000  0.0000  0.0000
    1GR    C242  242   1.843   0.982   1.900  0.0000  0.0000  0.0000
    1GR    C243  243   1.914   1.105   1.900  0.0000  0.0000  0.0000
    1GR    C244  244   2.056   1.105   1.900  0.0000  0.0000  0.0000
    1GR    C245  245   1.702   1.228   1.900  0.0000  0.0000  0.0000
    1GR    C246  246   1.843   1.228   1.900  0.0000  0.0000  0.0000
    1GR    C247  247   1.914   1.351   1.900  0.0000  0.0000  0.0000
    1GR    C248  248   2.056   1.351   1.900  0.0000  0.0000  0.0000
    1GR    C249  249   1.702   1.474   1.900  0.0000  0.0000  0.0000
    1GR    C250  250   1.843   1.474   1.900  0.0000  0.0000  0.0000
    1GR    C251  251   1.914   1.596   1.900  0.0000  0.0000  0.0000
    1GR    C252  252   2.056   1.596   1.900  0.0000  0.0000  0.0000
    1GR    C253  253   1.702   1.719   1.900  0.0000  0.0000  0.0000
    1GR    C254  254   1.843   1.719   1.900  0.0000  0.0000  0.0000
    1GR    C255  255   1.914   1.842   1.900  0.0000  0.0000  0.0000
    1GR    C256  256   2.056   1.842   1.900  0.0000  0.0000  0.0000
    1GR    C257  257   1.702   1.965   1.900  0.0000  0.0000  0.0000
    1GR    C258  258   1.843   1.965   1.900  0.0000  0.0000  0.0000
    1GR    C259  259   1.914   2.088   1.900  0.0000  0.0000  0.0000
    1GR    C260  260   2.056   2.088   1.900  0.0000  0.0000  0.0000
    1GR    C261  261   1.702   2.210   1.900  0.0000  0.0000  0.0000
    1GR    C262  262   1.843   2.210   1.900  0.0000  0.0000  0.0000
    1GR    C263  263   1.914   2.333   1.900  0.0000  0.0000  0.0000
    1GR    C264  264   2.056   2.333   1.900  0.0000  0.0000  0.0000
    1GR    C265  265   1.702   2.456   1.900  0.0000  0.0000  0.0000
    1GR    C266  266   1.843   2.456   1.900  0.0000  0.0000  0.0000
    1GR    C267  267   1.914   2.579   1.900  0.0000  0.0000  0.0000
    1GR    C268  268   2.056   2.579   1.900  0.0000  0.0000  0.0000
    1GR    C269  269   1.702   2.702   1.900  0.0000  0.0000  0.0000
    1GR    C270  270   1.843   2.702   1.900  0.0000  0.0000  0.0000
    1GR    C271  271   1.914   2.824   1.900  0.0000  0.0000  0.0000
    1GR    C272  272   2.056   2.824   1.900  0.0000  0.0000  0.0000
    1GR    C273  273   1.702   2.947   1.900  0.0000  0.0000  0.0000
    1GR    C274  274   1.843   2.947   1.900  0.0000  0.0000  0.0000
    1GR    C275  275   1.914   3.070   1.900  0.0000  0.0000  0.0000
    1GR    C276  276   2.056   3.070   1.900  0.0000  0.0000  0.0000
    1GR    C277  277   1.702   3.193   1.900  0.0000  0.0000  0.0000
    1GR    C278  278   1.843   3.193   1.900  0.0000  0.0000  0.0000
    1GR    C279  279   1.914   3.316   1.900  0.0000  0.0000  0.0000
    1GR    C280  280   2.056   3.316   1.900  0.0000  0.0000  0.0000
    1GR    C281  281   2.127   0.000   1.900  0.0000  0.0000  0.0000
    1GR    C282  282   2.269   0.000   1.900  0.0000  0.0000  0.0000
    1GR    C283  283   2.340   0.123   1.900  0.0000  0.0000  0.0000
    1GR    C284  284   2.481   0.123   1.900  0.0000  0.0000  0.0000
    1GR    C285  285   2.127   0.246   1.900  0.0000  0.0000  0.0000
    1GR    C286  286   2.269   0.246   1.900  0.0000  0.0000  0.0000
    1GR    C287  287   2.340   0.368   1.900  0.0000  0.0000  0.0000
    1GR    C288  288   2.481   0.368   1.900  0.0000  0.0000  0.0000
    1GR    C289  289   2.127   0.491   1.900  0.0000  0.0000  0.0000
    1GR    C290  290   2.269   0.491   1.900  0.0000  0.0000  0.0000
    1GR    C291  291   2.340   0.614   1.900  0.0000  0.0000  0.0000
    1GR    C292  292   2.481   0.614   1.900  0.0000  0.0000  0.0000
    1GR    C293  293   2.127   0.737   1.900  0.0000  0.0000  0.0000
    1GR    C294  294   2.269   0.737   1.900  0.0000  0.0000  0.0000
    1GR    C295  295   2.340   0.860   1.900  0.0000  0.0000  0.0000
    1GR    C296  296   2.481   0.860   1.900  0.0000  0.0000  0.0000
    1GR    C297  297   2.127   0.982   1.900  0.0000  0.0000  0.0000
    1GR    C298  298   2.269   0.982   1.900  0.0000  0.0000  0.0000
    1GR    C299  299   2.340   1.105   1.900  0.0000  0.0000  0.0000
    1GR    C300  300   2.481   1.105   1.900  0.0000  0.0000  0.0000
    1GR    C301  301   2.127   1.228   1.900  0.0000  0.0000  0.0000
    1GR    C302  302   2.269   1.228   1.900  0.0000  0.0000  0.0000
    1GR    C303  303   2.340   1.351   1.900  0.0000  0.0000  0.0000
    1GR    C304  304   2.481   1.351   1.900  0.0000  0.0000  0.0000
    1GR    C305  305   2.127   1.474   1.900  0.0000  0.0000  0.0000
    1GR    C306  306   2.269   1.474   1.900  0.0000  0.0000  0.0000
    1GR    C307  307   2.340   1.596   1.900  0.0000  0.0000  0.0000
    1GR    C308  308   2.481   1.596   1.900  0.0000  0.0000  0.0000
    1GR    C309  309   2.127   1.719   1.900  0.0000  0.0000  0.0000
    1GR    C310  310   2.269   1.719   1.900  0.0000  0.0000  0.0000
    1GR    C311  311   2.340   1.842   1.900  0.0000  0.0000  0.0000
    1GR    C312  312   2.481   1.842   1.900  0.0000  0.0000  0.0000
    1GR    C313  313   2.127   1.965   1.900  0.0000  0.0000  0.0000
    1GR    C314  314   2.269   1.965   1.900  0.0000  0.0000  0.0000
    1GR    C315  315   2.340   2.088   1.900  0.0000  0.0000  0.0000
    1GR    C316  316   2.481   2.088   1.900  0.0000  0.0000  0.0000
    1GR    C317  317   2.127   2.210   1.900  0.0000  0.0000  0.0000
    1GR    C318  318   2.269   2.210   1.900  0.0000  0.0000  0.0000
    1GR    C319  319   2.340   2.333   1.900  0.0000  0.0000  0.0000
    1GR    C320  320   2.481   2.333   1.900  0.0000  0.0000  0.0000
    1GR    C321  321   2.127   2.456   1.900  0.0000  0.0000  0.0000
    1GR    C322  322   2.269   2.456   1.900  0.0000  0.0000  0.0000
    1GR    C323  323   2.340   2.579   1.900  0.0000  0.0000  0.0000
    1GR    C324  324   2.481   2.579   1.900  0.0000  0.0000  0.0000
    1GR    C325  325   2.127   2.702   1.900  0.0000  0.0000  0.0000
    1GR    C326  326   2.269   2.702   1.900  0.0000  0.0000  0.0000
    1GR    C327  327   2.340   2.824   1.900  0.0000  0.0000  0.0000
    1GR    C328  328   2.481   2.824   1.900  0.0000  0.0000  0.0000
    1GR    C329  329   2.127   2.947   1.900  0.0000  0.0000  0.0000
    1GR    C330  330   2.269   2.947   1.900  0.0000  0.0000  0.0000
    1GR    C331  331   2.340   3.070   1.900  0.0000  0.0000  0.0000
    1GR    C332  332   2.481   3.070   1.900  0.0000  0.0000  0.0000
    1GR    C333  333   2.127   3.193   1.900  0.0000  0.0000  0.0000
    1GR    C334  334   2.269   3.193   1.900  0.0000  0.0000  0.0000
    1GR    C335  335   2.340   3.316   1.900  0.0000  0.0000  0.0000
    1GR    C336  336   2.481   3.316   1.900  0.0000  0.0000  0.0000
    1GR    C337  337   2.552   0.000   1.900  0.0000  0.0000  0.0000
    1GR    C338  338   2.694   0.000   1.900  0.0000  0.0000  0.0000
    1GR    C339  339   2.765   0.123   1.900  0.0000  0.0000  0.0000
    1GR    C340  340   2.907   0.123   1.900  0.0000  0.0000  0.0000
    1GR    C341  341   2.552   0.246   1.900  0.0000  0.0000  0.0000
    1GR    C342  342   2.694   0.246   1.900  0.0000  0.0000  0.0000
    1GR    C343  343   2.765   0.368   1.900  0.0000  0.0000  0.0000
    1GR    C344  344   2.907   0.368   1.900  0.0000  0.0000  0.0000
    1GR    C345  345   2.552   0.491   1.900  0.0000  0.0000  0.0000
    1GR    C346  346   2.694   0.491   1.900  0.0000  0.0000  0.0000
    1GR    C347  347   2.765   0.614   1.900  0.0000  0.0000  0.0000
    1GR    C348  348   2.907   0.614   1.900  0.0000  0.0000  0.0000
    1GR    C349  349   2.552   0.737   1.900  0.0000  0.0000  0.0000
    1GR    C350  350   2.694   0.737   1.900  0.0000  0.0000  0.0000
    1GR    C351  351   2.765   0.860   1.900  0.0000  0.0000  0.0000
    1GR    C352  352   2.907   0.860   1.900  0.0000  0.0000  0.0000
    1GR    C353  353   2.552   0.982   1.900  0.0000  0.0000  0.0000
    1GR    C354  354   2.694   0.982   1.900  0.0000  0.0000  0.0000
    1GR    C355  355   2.765   1.105   1.900  0.0000  0.0000  0.0000
    1GR    C356  356   2.907   1.105   1.900  0.0000  0.0000  0.0000
    1GR    C357  357   2.552   1.228   1.900  0.0000  0.0000  0.0000
    1GR    C358  358   2.694   1.228   1.900  0.0000  0.0000  0.0000
    1GR    C359  359   2.765   1.351   1.900  0.0000  0.0000  0.0000
    1GR    C360  360   2.907   1.351   1.900  0.0000  0.0000  0.0000
    1GR    C361  361   2.552   1.474   1.900  0.0000  0.0000  0.0000
    1GR    C362  362   2.694   1.474   1.900  0.0000  0.0000  0.0000
    1GR    C363  363   2.765   1.596   1.900  0.0000  0.0000  0.0000
    1GR    C364  364   2.907   1.596   1.900  0.0000  0.0000  0.0000
    1GR    C365  365   2.552   1.719   1.900  0.0000  0.0000  0.0000
    1GR    C366  366   2.694   1.719   1.900  0.0000  0.0000  0.0000
    1GR    C367  367   2.765   1.842   1.900  0.0000  0.0000  0.0000
    1GR    C368  368   2.907   1.842   1.900  0.0000  0.0000  0.0000
    1GR    C369  369   2.552   1.965   1.900  0.0000  0.0000  0.0000
    1GR    C370  370   2.694   1.965   1.900  0.0000  0.0000  0.0000
    1GR    C371  371   2.765   2.088   1.900  0.0000  0.0000  0.0000
    1GR    C372  372   2.907   2.088   1.900  0.0000  0.0000  0.0000
    1GR    C373  373   2.552   2.210   1.900  0.0000  0.0000  0.0000
    1GR    C374  374   2.694   2.210   1.900  0.0000  0.0000  0.0000
    1GR    C375  375   2.765   2.333   1.900  0.0000  0.0000  0.0000
    1GR    C376  376   2.907   2.333   1.900  0.0000  0.0000  0.0000
    1GR    C377  377   2.552   2.456   1.900  0.0000  0.0000  0.0000
    1GR    C378  378   2.694   2.456   1.900  0.0000  0.0000  0.0000
    1GR    C379  379   2.765   2.579   1.900  0.0000  0.0000  0.0000
    1GR    C380  380   2.907   2.579   1.900  0.0000  0.0000  0.0000
    1GR    C381  381   2.552   2.702   1.900  0.0000  0.0000  0.0000
    1GR    C382  382   2.694   2.702   1.900  0.0000  0.0000  0.0000
    1GR    C383  383   2.765   2.824   1.900  0.0000  0.0000  0.0000
    1GR    C384  384   2.907   2.824   1.900  0.0000  0.0000  0.0000
    1GR    C385  385   2.552   2.947   1.900  0.0000  0.0000  0.0000
    1GR    C386  386   2.694   2.947   1.900  0.0000  0.0000  0.0000
    1GR    C387  387   2.765   3.070   1.900  0.0000  0.0000  0.0000
    1GR    C388  388   2.907   3.070   1.900  0.0000  0.0000  0.0000
    1GR    C389  389   2.552   3.193   1.900  0.0000  0.0000  0.0000
    1GR    C390  390   2.694   3.193   1.900  0.0000  0.0000  0.0000
    1GR    C391  391   2.765   3.316   1.900  0.0000  0.0000  0.0000
    1GR    C392  392   2.907   3.316   1.900  0.0000  0.0000  0.0000
    1GR    C393  393   2.978   0.000   1.900  0.0000  0.0000  0.0000
    1GR    C394  394   3.120   0.000   1.900  0.0000  0.0000  0.0000
    1GR    C395  395   3.191   0.123   1.900  0.0000  0.0000  0.0000
    1GR    C396  396   3.332   0.123   1.900  0.0000  0.0000  0.0000
    1GR    C397  397   2.978   0.246   1.900  0.0000  0.0000  0.0000
    1GR    C398  398   3.120   0.246   1.900  0.0000  0.0000  0.0000
    1GR    C399  399   3.191   0.368   1.900  0.0000  0.0000  0.0000
    1GR    C400  400   3.332   0.368   1.900  0.0000  0.0000  0.0000
    1GR    C401  401   2.978   0.491   1.900  0.0000  0.0000  0.0000
    1GR    C402  402   3.120   0.491   1.900  0.0000  0.0000  0.0000
    1GR    C403  403   3.191   0.614   1.900  0.0000  0.0000  0.0000
    1GR    C404  404   3.332   0.614   1.900  0.0000  0.0000  0.0000
    1GR    C405  405   2.978   0.737   1.900  0.0000  0.0000  0.0000
    1GR    C406  406   3.120   0.737   1.900  0.0000  0.0000  0.0000
    1GR    C407  407   3.191   0.860   1.900  0.0000  0.0000  0.0000
    1GR    C408  408   3.332   0.860   1.900  0.0000  0.0000  0.0000
    1GR    C409  409   2.978   0.982   1.900  0.0000  0.0000  0.0000
    1GR    C410  410   3.120   0.982   1.900  0.0000  0.0000  0.0000
    1GR    C411  411   3.191   1.105   1.900  0.0000  0.0000  0.0000
    1GR    C412  412   3.332   1.105   1.900  0.0000  0.0000  0.0000
    1GR    C413  413   2.978   1.228   1.900  0.0000  0.0000  0.0000
    1GR    C414  414   3.120   1.228   1.900  0.0000  0.0000  0.0000
    1GR    C415  415   3.191   1.351   1.900  0.0000  0.0000  0.0000
    1GR    C416  416   3.332   1.351   1.900  0.0000  0.0000  0.0000
    1GR    C417  417   2.978   1.474   1.900  0.0000  0.0000  0.0000
    1GR    C418  418   3.120   1.474   1.900  0.0000  0.0000  0.0000
    1GR    C419  419   3.191   1.596   1.900  0.0000  0.0000  0.0000
    1GR    C420  420   3.332   1.596   1.900  0.0000  0.0000  0.0000
    1GR    C421  421   2.978   1.719   1.900  0.0000  0.0000  0.0000
    1GR    C422  422   3.120   1.719   1.900  0.0000  0.0000  0.0000
    1GR    C423  423   3.191   1.842   1.900  0.0000  0.0000  0.0000
    1GR    C424  424   3.332   1.842   1.900  0.0000  0.0000  0.0000
    1GR    C425  425   2.978   1.965   1.900  0.0000  0.0000  0.0000
    1GR    C426  426   3.120   1.965   1.900  0.0000  0.0000  0.0000
    1GR    C427  427   3.191   2.088   1.900  0.0000  0.0000  0.0000
    1GR    C428  428   3.332   2.088   1.900  0.0000  0.0000  0.0000
    1GR    C429  429   2.978   2.210   1.900  0.0000  0.0000  0.0000
    1GR    C430  430   3.120   2.210   1.900  0.0000  0.0000  0.0000
    1GR    C431  431   3.191   2.333   1.900  0.0000  0.0000  0.0000
    1GR    C432  432   3.332   2.333   1.900  0.0000  0.0000  0.0000
    1GR    C433  433   2.978   2.456   1.900  0.0000  0.0000  0.0000
    1GR    C434  434   3.120   2.456   1.900  0.0000  0.0000  0.0000
    1GR    C435  435   3.191   2.579   1.900  0.0000  0.0000  0.0000
    1GR    C436  436   3.332   2.579   1.900  0.0000  0.0000  0.0000
    1GR    C437  437   2.978   2.702   1.900  0.0000  0.0000  0.0000
    1GR    C438  438   3.120   2.702   1.900  0.0000  0.0000  0.0000
    1GR    C439  439   3.191   2.824   1.900  0.0000  0.0000  0.0000
    1GR    C440  440   3.332   2.824   1.900  0.0000  0.0000  0.0000
    1GR    C441  441   2.978   2.947   1.900  0.0000  0.0000  0.0000
    1GR    C442  442   3.120   2.947   1.900  0.0000  0.0000  0.0000
    1GR    C443  443   3.191   3.070   1.900  0.0000  0.0000  0.0000
    1GR    C444  444   3.332   3.070   1.900  0.0000  0.0000  0.0000
    1GR    C445  445   2.978   3.193   1.900  0.0000  0.0000  0.0000
    1GR    C446  446   3.120   3.193   1.900  0.0000  0.0000  0.0000
    1GR    C447  447   3.191   3.316   1.900  0.0000  0.0000  0.0000
    1GR    C448  448   3.332   3.316   1.900  0.0000  0.0000  0.0000
    2PMMA   CX1  449   0.066   0.369   2.259 -0.1532  0.4397 -0.2246
    2PMMA   CA2  450   0.072   0.293   2.398  0.2158 -0.7461  0.8898
    2PMMA   CX3  451  -0.075   0.265   2.435  0.2644  0.2485 -0.6738
    2PMMA    C4  452   0.145   0.158   2.378  0.2338  0.1298  0.2965
    2PMMA    O5  453   0.258   0.140   2.416 -0.7397 -0.2513 -0.7596
    2PMMA   OS6  454   0.091   0.082   2.277 -0.3663 -0.3363  0.6179
    2PMMA   CE7  455   0.162  -0.028   2.224 -0.0425 -0.2542 -0.3096
    2PMMA   CX8  456   0.136   0.401   2.496  0.0005 -0.0669  0.0442
    2PMMA   CA9  457   0.141   0.375   2.660 -1.4119  0.0475  0.5114
    2PMMA  CX10  458   0.011   0.440   2.721 -0.0732  0.5969 -0.8828
    2PMMA   C11  459   0.259   0.472   2.701 -0.2759 -0.0822 -0.0660
    2PMMA   O12  460   0.240   0.576   2.753  0.1239 -0.1935 -0.2983
    2PMMA  OS13  461   0.379   0.442   2.652 -0.4931  0.1680  0.5178
    2PMMA  CE14  462   0.485   0.537   2.648  0.4832  1.1462 -0.0816
    2PMMA  CX15  463   0.177   0.225   2.686 -0.3578 -0.0277  0.0294
    2PMMA  CA16  464   0.204   0.167   2.830 -0.1511 -0.1130 -0.3463
    2PMMA  CX17  465   0.223   0.011   2.807  0.0312 -0.5081 -0.2417
    2PMMA   C18  466   0.338   0.221   2.896  0.8357  0.8316  0.7886
    2PMMA   O19  467   0.437   0.155   2.896  0.0136 -0.0808  0.3289
    2PMMA  OS20  468   0.326   0.337   2.965 -0.0915  1.1435  0.8467
    2PMMA  CE21  469   0.441   0.396   3.023  0.0574 -0.0492  0.2625
    2PMMA  CX22  470   0.079   0.185   2.917 -0.0511 -0.0011 -0.4793
    2PMMA  CA23  471   0.044   0.104   3.048  0.8069  0.0467  0.2206
    2PMMA  CX24  472   0.160   0.098   3.144  0.6280 -0.1466  0.1602
    2PMMA   C25  473  -0.010  -0.032   3.005 -0.4697 -0.0353 -0.2287
    2PMMA   O26  474  -0.102  -0.047   2.929 -0.0944  0.2233  0.1604
    2PMMA  OS27  475   0.059  -0.141   3.049  0.3763 -0.6982  0.2557
    2PMMA  CE28  476   0.020  -0.271   3.010  0.4802  0.3721 -0.3665
    2PMMA  CX29  477  -0.063   0.175   3.126  0.4369  1.1402  0.1296
    2PMMA  HC30  478   0.168   0.381   2.222 -0.3551  0.2762 -0.8372
    2PMMA  HC31  479   0.010   0.315   2.182 -0.1529  0.9143 -0.5549
    2PMMA  HC32  480   0.010   0.463   2.262 -1.7111 -0.5024  0.6679
    2PMMA  HC33  481  -0.081   0.221   2.535  0.0500 -0.2462 -0.9016
    2PMMA  HC34  482  -0.136   0.203   2.367 -0.4658 -0.4432  0.5865
    2PMMA  HC35  483  -0.136   0.356   2.437 -0.4066 -0.1742 -1.3409
    2PMMA  H136  484   0.256   0.005   2.180 -0.9259 -0.5289 -2.4685
    2PMMA  H137  485   0.104  -0.081   2.148  0.7004 -0.5264 -0.6953
    2PMMA  H138  486   0.190  -0.095   2.305  2.1366 -0.9523 -1.5959
    2PMMA  HC39  487   0.238   0.422   2.461 -0.9713  1.1726 -2.1729
    2PMMA  HC40  488   0.083   0.496   2.480  0.0428 -0.4146 -2.3965
    2PMMA  HC41  489   0.021   0.461   2.828  2.8650 -1.3994 -0.7291
    2PMMA  HC42  490  -0.016   0.535   2.673 -0.7786 -0.0303 -1.7332
    2PMMA  HC43  491  -0.077   0.378   2.702  0.4046  0.8850 -4.3937
    2PMMA  H144  492   0.459   0.627   2.592 -0.1543  0.0733 -1.5546
    2PMMA  H145  493   0.571   0.489   2.602  1.1807  1.1775  1.1753
    2PMMA  H146  494   0.495   0.574   2.750 -1.6110  0.6446  0.3407
    2PMMA  HC47  495   0.106   0.155   2.640 -1.4736 -0.5582  2.5174
    2PMMA  HC48  496   0.274   0.221   2.636 -0.3926  0.1811 -0.0555
    2PMMA  HC49  497   0.140  -0.046   2.762 -1.1142 -0.0935  1.3348
    2PMMA  HC50  498   0.241  -0.040   2.902 -1.2707 -0.7580 -0.1180
    2PMMA  HC51  499   0.313  -0.012   2.747  0.3515 -3.1275  1.1407
    2PMMA  H152  500   0.492   0.473   2.964 -1.2266  2.8420  2.7904
    2PMMA  H153  501   0.521   0.334   3.065 -0.3773 -0.4831  0.4665
    2PMMA  H154  502   0.401   0.455   3.105  3.1349  3.4163 -0.6004
    2PMMA  HC55  503   0.065   0.290   2.945 -2.4577 -0.7396  1.2478
    2PMMA  HC56  504  -0.006   0.178   2.847 -0.5068  0.8290 -0.0207
    2PMMA  HC57  505   0.258   0.079   3.101  0.9524 -0.4957  1.0453
    2PMMA  HC58  506   0.170   0.191   3.201 -0.1320 -1.2406  2.0900
    2PMMA  HC59  507   0.151   0.015   3.215 -2.3977  0.7675  0.9264
    2PMMA  H160  508   0.026  -0.279   2.901  0.5302 -1.1719 -0.2706
    2PMMA  H161  509  -0.087  -0.288   3.027  0.8274  0.3724  2.0781
    2PMMA  H162  510   0.059  -0.352   3.073 -2.3117 -0.9390 -0.2217
    2PMMA  HC63  511  -0.152   0.194   3.065  0.5141  1.0380 -0.0142
    2PMMA  HC64  512  -0.103   0.121   3.212 -1.7233  2.3827 -0.0478
    2PMMA  HC65  513  -0.026   0.276   3.148 -0.9184  1.2341  2.1083
    3HFI     O1  514   1.868   1.102   0.578 -0.3432  0.3571  0.3482
    3HFI     C1  515   1.982   1.012   0.556 -0.0740 -0.1660  0.2767
    3HFI     C2  516   2.068   1.051   0.422  0.4550 -0.0373  0.3640
    3HFI     F1  517   1.991   1.077   0.319  0.2022 -0.4639  0.6853
    3HFI     F2  518   2.156   0.963   0.374  0.0600 -0.3444  0.1408
    3HFI     F3  519   2.141   1.159   0.451 -0.0015  0.5366 -0.3949
    3HFI     C3  520   1.947   0.861   0.550 -0.3076  0.0584  0.5790
    3HFI     F4  521   2.067   0.786   0.542  0.1323 -0.0883  0.2543
    3HFI     F5  522   1.869   0.830   0.446  0.0979 -0.3832  0.6102
    3HFI     F6  523   1.888   0.815   0.663 -0.0094  0.2950 -0.6730
    3HFI     H1  524   1.793   1.067   0.528 -0.0739 -0.3590  0.4350
    3HFI     H2  525   2.046   1.025   0.644 -0.8875 -0.2856  0.8906
    4HFI     O1  526   1.771   0.590   3.734  0.3789  0.1741  0.3020
    4HFI     C1  527   1.873   0.502   3.755 -0.5234 -0.3075  0.4195
    4HFI     C2  528   1.935   0.525   3.896  0.1265  0.3370  0.0653
    4HFI     F1  529   1.842   0.514   3.993 -0.2018 -0.1516 -0.3937
    4HFI     F2  530   1.984   0.650   3.909 -0.2864  0.2235  0.3671
    4HFI     F3  531   2.046   0.452   3.924 -0.4873  0.1768  0.2827
    4HFI     C3  532   1.972   0.503   3.635  0.7037 -0.0299  0.4390
    4HFI     F4  533   2.075   0.420   3.658  0.1599  0.1705 -0.0261
    4HFI     F5  534   2.025   0.626   3.617  0.4095 -0.2286 -0.4508
    4HFI     F6  535   1.904   0.470   3.523  0.5724 -0.1326  0.1052
    4HFI     H1  536   1.816   0.673   3.757 -0.6079  0.6376  0.6175
    4HFI     H2  537   1.824   0.403   3.760 -1.0518  0.0399  2.0976
    5HFI     O1  538   0.896   2.777   3.666  0.1701 -0.5824 -0.1992
    5HFI     C1  539   1.010   2.721   3.743  0.1584 -0.0789  0.0469
    5HFI     C2  540   0.991   2.575   3.783  0.0640 -0.4506 -0.2727
    5HFI     F1  541   1.112   2.529   3.823  0.0271  0.2551 -0.2061
    5HFI     F2  542   0.964   2.495   3.679 -0.3964  0.3814  0.4281
    5HFI     F3  543   0.891   2.544   3.871  0.2563  0.1214  0.2410
    5HFI     C3  544   1.055   2.808   3.863 -0.5238 -0.3064 -0.2523
    5HFI     F4  545   1.085   2.734   3.974  0.0461  0.2749  0.2306
    5HFI     F5  546   0.966   2.905   3.893  0.3653 -0.3153 -0.3193
    5HFI     F6  547   1.168   2.871   3.830  0.2143 -0.0707  0.0359
    5HFI     H1  548   0.838   2.828   3.725  1.1398  0.5365 -0.1744
    5HFI     H2  549   1.099   2.706   3.681 -0.5192 -0.4645 -0.8543
    6HFI     O1  550   2.307   0.118   1.501  0.7003 -0.3130 -0.0057
    6HFI     C1  551   2.396   0.196   1.418  0.5598  0.2751 -0.0188
    6HFI     C2  552   2.428   0.117   1.283  0.3081 -0.6205  0.6682
    6HFI     F1  553   2.435   0.205   1.177 -0.1539 -0.3905  0.1778
    6HFI     F2  554   2.332   0.030   1.253  0.5987  0.2977 -0.1690
    6HFI     F3  555   2.539   0.051   1.295 -0.3052  0.5224 -0.3267
    6HFI     C3  556   2.524   0.225   1.494  0.3898 -0.3419  0.3778
    6HFI     F4  557   2.497   0.313   1.591 -0.1909 -0.3280 -0.2353
    6HFI     F5  558   2.610   0.286   1.417 -0.5868 -0.5606 -0.4695
    6HFI     F6  559   2.592   0.118   1.547  0.3316 -0.2855 -0.1380
    6HFI     H1  560   2.234   0.089   1.445 -1.2357  2.1006  1.1610
    6HFI     H2  561   2.351   0.288   1.380  0.2767  0.0743 -0.1721
    7HFI     O1  562   1.521   3.211   0.801  0.1790  0.5519 -0.1977
    7HFI     C1  563   1.656   3.244   0.844 -0.8074  0.3052  0.8838
    7HFI     C2  564   1.672   3.394   0.828  0.6990 -0.5022 -0.1779
    7HFI     F1  565   1.595   3.460   0.921 -0.1172 -0.0103 -0.0638
    7HFI     F2  566   1.637   3.435   0.702 -0.6050  0.3718 -0.3791
    7HFI     F3  567   1.794   3.431   0.848  0.3808  0.1447 -0.1276
    7HFI     C3  568   1.778   3.154   0.782  1.4020 -0.1655  0.1028
    7HFI     F4  569   1.875   3.136   0.871  0.5015 -0.3213 -0.3086
    7HFI     F5  570   1.832   3.218   0.676  0.2478  0.2966 -0.3238
    7HFI     F6  571   1.741   3.033   0.734 -0.5382 -0.1280 -0.2342
    7HFI     H1  572   1.511   3.214   0.704  1.1343  0.9474 -0.2831
    7HFI     H2  573   1.657   3.236   0.953  1.2344 -2.3693  0.7406
    8HFI     O1  574   3.313   1.990   1.417  0.4640  0.0554 -0.7759
    8HFI     C1  575   3.200   2.048   1.495 -0.4394 -0.2746 -0.3402
    8HFI     C2  576   3.061   2.008   1.447  0.4848  0.5588 -0.5942
    8HFI     F1  577   2.967   2.050   1.535  0.2364 -0.2350 -0.2970
    8HFI     F2  578   3.048   1.874   1.442 -0.1898 -0.0543 -0.2504
    8HFI     F3  579   3.026   2.053   1.329  0.9141  0.5277 -0.1406
    8HFI     C3  580   3.217   2.208   1.513 -0.5694  0.1671  0.3046
    8HFI     F4  581   3.327   2.228   1.589  0.0775 -0.2632 -0.1781
    8HFI     F5  582   3.115   2.270   1.575 -0.1647 -0.0184 -0.0273
    8HFI     F6  583   3.240   2.263   1.390  0.4082  0.3760 -0.7456
    8HFI     H1  584   3.367   2.058   1.373  1.4623  0.0018  0.3206
    8HFI     H2  585   3.200   2.008   1.598  2.1505  1.0060  0.1956
    9HFI     O1  586   0.072   3.035   1.169 -0.3602  0.2821  0.1337
    9HFI     C1  587   0.066   3.102   1.037  0.1707 -0.2226  0.0682
    9HFI     C2  588   0.162   3.222   1.040  0.0108  0.0747 -0.2419
    9HFI     F1  589   0.116   3.318   1.126 -0.3737  0.0359 -0.0275
    9HFI     F2  590   0.167   3.280   0.917 -0.4296  0.4711 -0.2613
    9HFI     F3  591   0.285   3.180   1.077  0.0173  0.2465  0.0186
    9HFI     C3  592  -0.085   3.136   0.994  0.4876  0.0529 -0.4852
    9HFI     F4  593  -0.163   3.022   0.984 -0.2428  0.5221  0.5912
    9HFI     F5  594  -0.092   3.204   0.874 -0.0073 -0.0715  0.1585
    9HFI     F6  595  -0.152   3.217   1.080 -0.2685 -0.1994  0.0466
    9HFI     H1  596   0.044   3.101   1.234  0.9359  0.4227  0.5408
    9HFI     H2  597   0.103   3.033   0.960  0.1651 -1.7926  1.4449
   10HFI     O1  598   1.643   1.848   1.243  0.1856  0.0307 -0.8426
   10HFI     C1  599   1.669   1.888   1.107  0.5500  0.9065  0.0867
   10HFI     C2  600   1.732   1.773   1.020 -0.6040 -0.3096 -0.0225
   10HFI     F1  601   1.743   1.803   0.887 -0.6784 -0.2091  0.0912
   10HFI     F2  602   1.667   1.662   1.039  0.4579 -0.4761 -0.2245
   10HFI     F3  603   1.861   1.752   1.065 -0.0674  0.5503  0.0162
   10HFI     C3  604   1.756   2.021   1.088 -0.1963 -0.0487 -0.6252
   10HFI     F4  605   1.876   1.997   1.141 -0.8129  0.2973 -0.3080
   10HFI     F5  606   1.700   2.125   1.150  0.4939 -0.7161  0.4940
   10HFI     F6  607   1.767   2.047   0.954  0.2283 -0.8189 -0.4712
   10HFI     H1  608   1.679   1.759   1.256  0.5770  0.2935 -0.0964
   10HFI     H2  609   1.569   1.907   1.066 -0.0308 -3.6934 -0.8582
   11HFI     O1  610   2.509   1.288   0.839 -0.1092 -0.2030  0.0610
   11HFI     C1  611   2.376   1.239   0.898 -0.6647  1.1931  0.2412
   11HFI     C2  612   2.397   1.129   1.014  0.5309 -0.0679 -0.1373
   11HFI     F1  613   2.399   1.000   0.977  0.0604  0.3178 -0.2077
   11HFI     F2  614   2.293   1.137   1.102  0.3057 -0.2431 -0.0318
   11HFI     F3  615   2.512   1.151   1.089 -0.9976 -0.2031  0.0499
   11HFI     C3  616   2.263   1.198   0.792  0.7169 -0.3141  0.3343
   11HFI     F4  617   2.257   1.298   0.704  0.2048 -0.0201 -0.0641
   11HFI     F5  618   2.137   1.175   0.845 -0.2488 -0.7849  0.7124
   11HFI     F6  619   2.292   1.084   0.721  0.2013  0.3269  0.1062
   11HFI     H1  620   2.562   1.215   0.802  1.0706 -1.2870  3.7341
   11HFI     H2  621   2.343   1.325   0.957 -2.2005  1.0202 -0.3330
   12HFI     O1  622   1.704   3.040   2.851  0.1917 -0.5417 -0.0357
   12HFI     C1  623   1.573   3.087   2.906  0.0926  0.0237  0.0789
   12HFI     C2  624   1.557   3.237   2.892  0.2961  0.1593 -0.6655
   12HFI     F1  625   1.565   3.261   2.759 -0.0736  0.4678 -0.2034
   12HFI     F2  626   1.658   3.314   2.934  0.1736  0.2654 -0.2663
   12HFI     F3  627   1.439   3.288   2.935  0.1187  0.2173 -0.5833
   12HFI     C3  628   1.546   3.036   3.054 -0.2778 -0.0953 -0.9315
   12HFI     F4  629   1.638   3.088   3.140 -0.9385 -0.5499 -0.4270
   12HFI     F5  630   1.558   2.898   3.063  0.3347  0.2542 -0.0524
   12HFI     F6  631   1.416   3.068   3.091 -0.6343 -0.9706  0.2263
   12HFI     H1  632   1.771   3.047   2.921  0.3908  2.7686 -0.5060
   12HFI     H2  633   1.489   3.043   2.851  0.6671 -1.9692  0.7471
   13HFI     O1  634   2.725   0.601   1.277  0.3748  0.5387  0.2610
   13HFI     C1  635   2.808   0.653   1.384  0.5640  0.2319 -0.0242
   13HFI     C2  636   2.881   0.544   1.472 -0.0668 -0.3791  0.9767
   13HFI     F1  637   2.984   0.596   1.538  0.2086 -0.3917 -0.0281
   13HFI     F2  638   2.931   0.442   1.398  0.3281 -0.1418 -0.0650
   13HFI     F3  639   2.793   0.485   1.548 -0.1614  0.4117 -0.4409
   13HFI     C3  640   2.729   0.761   1.475  0.0021 -0.0784 -0.4148
   13HFI     F4  641   2.808   0.813   1.577 -0.3277  0.2123 -0.4961
   13HFI     F5  642   2.624   0.706   1.539 -0.2678 -0.0040 -0.0230
   13HFI     F6  643   2.691   0.866   1.406  0.4652  0.7592  0.5904
   13HFI     H1  644   2.779   0.541   1.223  0.3833 -0.8222  1.7423
   13HFI     H2  645   2.897   0.701   1.343 -1.4109  3.3281 -0.8680
   14HFI     O1  646   1.676   3.170   0.160  0.2770 -0.5296 -0.3289
   14HFI     C1  647   1.680   3.027   0.184 -0.1845 -0.1239  0.3916
   14HFI     C2  648   1.685   2.992   0.331 -0.0919 -0.9448 -0.1208
   14HFI     F1  649   1.666   2.864   0.354 -0.7359  0.2822  0.6156
   14HFI     F2  650   1.579   3.052   0.395  0.1796 -0.1603 -0.1189
   14HFI     F3  651   1.791   3.039   0.398  0.4328 -0.4395  0.5387
   14HFI     C3  652   1.793   2.972   0.099 -0.3430 -0.1296  0.4978
   14HFI     F4  653   1.918   2.996   0.153  0.1769  0.1090 -0.3667
   14HFI     F5  654   1.792   3.031  -0.027 -0.2480  0.1878  0.3377
   14HFI     F6  655   1.793   2.839   0.081 -0.4522  0.0463 -0.1856
   14HFI     H1  656   1.706   3.190   0.070  3.0401 -1.5365  0.3351
   14HFI     H2  657   1.585   2.984   0.150  0.1477 -1.3154  0.9715
   15HFI     O1  658   1.159   0.549   1.404  0.3040  0.5663 -0.1689
   15HFI     C1  659   1.194   0.445   1.498 -0.2690  0.3725  0.3939
   15HFI     C2  660   1.347   0.394   1.496  0.5397  0.7919 -0.4813
   15HFI     F1  661   1.382   0.320   1.598  0.0268  0.1104 -0.6196
   15HFI     F2  662   1.433   0.498   1.492 -0.6329 -0.2072 -0.2780
   15HFI     F3  663   1.369   0.319   1.391 -0.0531 -0.2042 -0.6246
   15HFI     C3  664   1.093   0.329   1.495 -0.6626  0.0390  0.1051
   15HFI     F4  665   1.118   0.238   1.592  0.1295  0.4739  0.4145
   15HFI     F5  666   1.099   0.264   1.375 -0.0195 -0.0608 -0.2537
   15HFI     F6  667   0.958   0.367   1.512  0.3665 -0.2767 -0.3096
   15HFI     H1  668   1.176   0.522   1.312  0.2540  1.8223 -0.5494
   15HFI     H2  669   1.181   0.478   1.602  0.3045 -3.2126  1.6473
   16HFI     O1  670   1.288   2.639   2.439  0.2656  0.3402  0.0451
   16HFI     C1  671   1.329   2.727   2.323  0.5459  0.7285  0.6077
   16HFI     C2  672   1.478   2.749   2.305 -0.1427  0.3225 -0.3603
   16HFI     F1  673   1.514   2.830   2.204  0.0589 -0.3199  0.1111
   16HFI     F2  674   1.529   2.628   2.279 -0.1605  0.5807  0.2539
   16HFI     F3  675   1.535   2.795   2.412  0.0262  0.1922 -0.6139
   16HFI     C3  676   1.248   2.863   2.331  0.0837 -0.0421  0.7871
   16HFI     F4  677   1.247   2.935   2.214 -0.0309  0.1244 -0.7359
   16HFI     F5  678   1.293   2.937   2.432  0.1165  0.0130 -0.6395
   16HFI     F6  679   1.121   2.830   2.354  0.0174  0.1321 -0.7096
   16HFI     H1  680   1.360   2.619   2.501 -0.5703  0.8087  1.1764
   16HFI     H2  681   1.301   2.685   2.226 -3.4534 -0.5394  2.2374
   17HFI     O1  682   0.832   1.150   1.395 -0.5437 -0.1130  0.2411
   17HFI     C1  683   0.805   1.004   1.389  0.0490 -0.5430  0.2932
   17HFI     C2  684   0.785   0.935   1.529  0.0344  0.5079 -0.5930
   17HFI     F1  685   0.767   0.804   1.519 -0.2296 -0.8164  0.1920
   17HFI     F2  686   0.677   0.979   1.597  0.0845 -0.0943  0.1515
   17HFI     F3  687   0.900   0.959   1.611 -0.3447  0.2797  0.1784
   17HFI     C3  688   0.900   0.938   1.293 -0.1392 -0.8018 -0.5345
   17HFI     F4  689   0.875   0.811   1.262 -0.1862  0.4223 -0.2429
   17HFI     F5  690   1.026   0.938   1.350  0.0622  0.1990  0.0493
   17HFI     F6  691   0.894   1.011   1.177  0.2187  0.2091  0.1806
   17HFI     H1  692   0.901   1.161   1.462 -2.2164  1.6089  1.7602
   17HFI     H2  693   0.714   0.995   1.328  0.4706  2.9324 -0.9438
   18HFI     O1  694   1.474   2.304   0.454  0.1702 -0.5809  0.0975
   18HFI     C1  695   1.477   2.322   0.308  0.1734  0.5808 -1.0152
   18HFI     C2  696   1.578   2.234   0.234 -0.4922  0.2094  0.3837
   18HFI     F1  697   1.566   2.240   0.098  0.2000  0.0896 -0.4005
   18HFI     F2  698   1.556   2.105   0.266  0.2670  0.1214  0.0969
   18HFI     F3  699   1.702   2.271   0.269 -0.1360  0.3934  0.2072
   18HFI     C3  700   1.491   2.477   0.271 -0.0158 -0.6121  0.2536
   18HFI     F4  701   1.504   2.514   0.141 -0.4292  0.8940 -0.2955
   18HFI     F5  702   1.603   2.530   0.328  0.5323 -0.4313  0.5248
   18HFI     F6  703   1.388   2.545   0.328 -0.2980  0.0928  0.1503
   18HFI     H1  704   1.541   2.364   0.490  1.0945 -0.6131 -1.5390
   18HFI     H2  705   1.376   2.306   0.267  0.1208 -1.7839 -0.0014
   19HFI     O1  706   0.926   2.249   0.027 -0.1164 -0.0747 -0.3929
   19HFI     C1  707   0.996   2.126   0.015 -0.2566  0.3136  0.4254
   19HFI     C2  708   1.141   2.155   0.027 -0.0462 -0.9139  0.1071
   19HFI     F1  709   1.174   2.212   0.144 -0.0067 -0.2833 -0.2892
   19HFI     F2  710   1.176   2.240  -0.073 -0.4074  0.0729  0.0151
   19HFI     F3  711   1.223   2.044   0.014  0.3673 -0.1837 -0.1576
   19HFI     C3  712   0.953   2.043  -0.108 -0.5582  0.0010  0.5242
   19HFI     F4  713   0.992   1.915  -0.104 -0.5005 -0.2401 -0.3031
   19HFI     F5  714   1.008   2.093  -0.222  0.5036  0.1860  0.0135
   19HFI     F6  715   0.814   2.040  -0.116  0.2264 -0.2247  0.5993
   19HFI     H1  716   0.944   2.317  -0.041 -0.6655  1.6697  1.1684
   19HFI     H2  717   0.971   2.072   0.107  0.5245  0.4521  0.7207
   20HFI     O1  718   0.257   2.055   1.445  0.2020  0.8924  0.7289
   20HFI     C1  719   0.376   2.091   1.528  0.3482 -0.0789 -0.3787
   20HFI     C2  720   0.415   2.235   1.510 -0.2956 -0.2897  0.1056
   20HFI     F1  721   0.543   2.261   1.549 -0.2810 -0.3745  0.5813
   20HFI     F2  722   0.332   2.313   1.580  0.7962 -0.4184 -0.1538
   20HFI     F3  723   0.413   2.266   1.378  0.1140 -0.0094 -0.1376
   20HFI     C3  724   0.493   1.988   1.514 -0.2738  0.1108  0.4308
   20HFI     F4  725   0.585   2.016   1.609 -0.3104 -0.3399  0.8432
   20HFI     F5  726   0.554   1.992   1.395  0.1087 -0.0014 -0.0972
   20HFI     F6  727   0.438   1.868   1.535 -0.2512 -0.3226 -0.0037
   20HFI     H1  728   0.290   2.060   1.353  0.2454 -1.0390  0.6219
   20HFI     H2  729   0.342   2.076   1.631  0.7639  0.7182 -0.1228
   21HFI     O1  730   1.667   1.263   1.156 -0.2879  0.0641  0.1619
   21HFI     C1  731   1.714   1.225   1.023  0.9581 -0.0544  0.1318
   21HFI     C2  732   1.786   1.087   1.023 -0.0428  0.1049  0.2252
   21HFI     F1  733   1.716   0.999   1.096 -0.4778  0.4259 -0.0293
   21HFI     F2  734   1.909   1.090   1.070 -0.5335  0.0405  0.7065
   21HFI     F3  735   1.796   1.039   0.901 -0.0165  0.2472 -0.7053
   21HFI     C3  736   1.787   1.339   0.954  0.2601  0.4389 -0.9225
   21HFI     F4  737   1.868   1.285   0.863 -0.1918  0.1151  0.6093
   21HFI     F5  738   1.872   1.404   1.044  0.7429  0.2811 -0.3014
   21HFI     F6  739   1.709   1.434   0.899  0.3441 -0.0694  0.3165
   21HFI     H1  740   1.633   1.180   1.191  0.1928  1.1147  3.2573
   21HFI     H2  741   1.630   1.209   0.954  0.0955  0.6661  0.9913
   22HFI     O1  742   0.275   0.739   1.001 -0.3492 -0.0738  0.5977
   22HFI     C1  743   0.290   0.866   1.080 -0.1709  0.1174 -0.5782
   22HFI     C2  744   0.198   0.973   1.039  0.3880 -0.2965 -0.3591
   22HFI     F1  745   0.190   1.075   1.129  0.9548  0.3930  0.1859
   22HFI     F2  746   0.071   0.930   1.015  0.0063  0.3681 -0.5305
   22HFI     F3  747   0.238   1.035   0.925 -0.2115 -0.4820 -0.5762
   22HFI     C3  748   0.438   0.906   1.090  0.0859  0.4255  0.7269
   22HFI     F4  749   0.486   0.918   0.963 -0.1394 -0.0976  0.3438
   22HFI     F5  750   0.503   0.810   1.162  0.2590  0.2990  0.0087
   22HFI     F6  751   0.467   1.020   1.151  0.6411  0.0753 -0.6656
   22HFI     H1  752   0.185   0.724   0.970 -0.0975  1.7382 -1.0597
   22HFI     H2  753   0.269   0.829   1.182 -0.7525 -1.0331 -1.1046
   23HFI     O1  754   1.504   2.352   3.291  0.4534 -0.0319  0.1081
   23HFI     C1  755   1.395   2.433   3.256  0.0464 -0.1118 -0.1071
   23HFI     C2  756   1.423   2.588   3.256  0.3074  0.3459  0.0062
   23HFI     F1  757   1.318   2.658   3.203  0.1785 -0.0069 -0.0945
   23HFI     F2  758   1.535   2.614   3.181 -0.1567 -0.3186  0.0993
   23HFI     F3  759   1.443   2.628   3.383 -0.1556 -0.6883  0.2574
   23HFI     C3  760   1.265   2.391   3.334  0.0583  0.1840 -0.4161
   23HFI     F4  761   1.303   2.365   3.466  0.8951  0.4832 -0.0885
   23HFI     F5  762   1.217   2.281   3.289  0.1719 -0.6918 -0.5669
   23HFI     F6  763   1.162   2.476   3.334  0.2656  0.2512 -0.3665
   23HFI     H1  764   1.551   2.391   3.366  2.8861 -2.8677  0.1649
   23HFI     H2  765   1.369   2.414   3.152  2.9230  0.7914 -1.0507
   24HFI     O1  766   1.641   2.372   1.323  0.4709  0.4401 -0.2543
   24HFI     C1  767   1.505   2.374   1.364  0.6627 -0.2231 -0.0802
   24HFI     C2  768   1.421   2.439   1.251  0.3009  0.2816  0.0980
   24HFI     F1  769   1.429   2.370   1.133 -0.5194 -0.0213 -0.1616
   24HFI     F2  770   1.461   2.564   1.222 -0.2682  0.0214  0.1830
   24HFI     F3  771   1.291   2.447   1.282  0.1671 -0.0176  0.0577
   24HFI     C3  772   1.489   2.429   1.506 -0.7374  0.1056  0.4493
   24HFI     F4  773   1.512   2.560   1.517 -0.0213  0.6093 -0.6353
   24HFI     F5  774   1.577   2.372   1.587  0.2046 -0.1845 -0.0305
   24HFI     F6  775   1.363   2.398   1.543  0.3441  0.3850 -0.4796
   24HFI     H1  776   1.692   2.446   1.362 -1.4558  0.6419  1.9574
   24HFI     H2  777   1.479   2.268   1.361 -1.2541  0.2046  0.7461
   25HFI     O1  778   0.384   1.369   3.229  0.0025  0.3006 -0.2269
   25HFI     C1  779   0.325   1.449   3.123  0.2964 -0.5517 -0.2419
   25HFI     C2  780   0.297   1.355   3.005  0.4771  0.0087  0.7284
   25HFI     F1  781   0.236   1.246   3.062 -0.1856  0.2334  0.1455
   25HFI     F2  782   0.413   1.317   2.943  0.1560 -0.5733 -0.1538
   25HFI     F3  783   0.210   1.402   2.907 -0.1377 -0.1230 -0.1065
   25HFI     C3  784   0.420   1.569   3.080 -0.8760  0.1557 -0.5986
   25HFI     F4  785   0.547   1.526   3.048  0.3882  0.5878 -0.1918
   25HFI     F5  786   0.430   1.652   3.185 -0.6043 -0.2482  0.4222
   25HFI     F6  787   0.379   1.632   2.970  0.3841 -0.1264  0.1990
   25HFI     H1  788   0.427   1.425   3.296  1.5119  0.5321 -1.3682
   25HFI     H2  789   0.225   1.488   3.145  0.1686 -1.3353  0.5966
   26HFI     O1  790   1.815   2.538   3.544  0.2668 -0.2528  0.0077
   26HFI     C1  791   1.917   2.588   3.451  0.3598  0.2739  0.5753
   26HFI     C2  792   1.933   2.737   3.462 -0.0504  0.4151  0.8007
   26HFI     F1  793   1.827   2.802   3.416  0.0992  0.1425  0.3917
   26HFI     F2  794   2.040   2.769   3.389 -0.1201 -0.5260 -0.1687
   26HFI     F3  795   1.960   2.774   3.594 -0.2428  0.1830  0.1175
   26HFI     C3  796   1.889   2.539   3.305  0.7349  0.0945 -0.9340
   26HFI     F4  797   1.829   2.416   3.300  0.1956  0.2638  0.7933
   26HFI     F5  798   2.004   2.537   3.232 -0.0204 -0.4503 -0.0444
   26HFI     F6  799   1.803   2.621   3.239  0.5019 -0.0906  0.1964
   26HFI     H1  800   1.865   2.517   3.625  0.6884  0.0159 -0.1777
   26HFI     H2  801   2.015   2.546   3.476  0.4053  0.7538  1.2219
   27HFI     O1  802   0.090   2.255   0.837  0.2250  0.1967  0.4848
   27HFI     C1  803   0.141   2.156   0.744 -0.1892  0.0490 -0.3304
   27HFI     C2  804   0.299   2.145   0.763 -0.1622 -0.0693  0.3195
   27HFI     F1  805   0.338   2.161   0.888 -0.1535  0.2828  0.1997
   27HFI     F2  806   0.368   2.242   0.692 -0.0003 -0.7083  0.2851
   27HFI     F3  807   0.344   2.025   0.726  0.1318 -0.5295 -0.1334
   27HFI     C3  808   0.093   2.184   0.604  0.1996 -0.2487  0.8515
   27HFI     F4  809   0.124   2.310   0.556 -0.2649 -0.0524 -0.2356
   27HFI     F5  810  -0.042   2.177   0.605 -0.3497  0.2403 -1.2174
   27HFI     F6  811   0.139   2.094   0.515 -0.5624  0.2470  0.0365
   27HFI     H1  812   0.106   2.343   0.799  0.0867  0.4005  0.8995
   27HFI     H2  813   0.096   2.060   0.771  1.3532 -0.2805  1.1949
   28HFI     O1  814   0.416   1.368   3.707  0.1527  0.1240  0.6686
   28HFI     C1  815   0.510   1.341   3.817  0.5410 -0.8043 -0.5335
   28HFI     C2  816   0.579   1.207   3.800 -0.3920 -0.1226  0.4344
   28HFI     F1  817   0.491   1.114   3.823 -0.5529  0.5575 -0.3633
   28HFI     F2  818   0.675   1.193   3.891 -0.2109 -0.3194  0.1640
   28HFI     F3  819   0.629   1.191   3.676 -0.0012  0.1791 -0.5080
   28HFI     C3  820   0.438   1.368   3.958 -0.7377  0.6456  0.0125
   28HFI     F4  821   0.409   1.504   3.971  0.1995 -0.3239  0.0794
   28HFI     F5  822   0.500   1.335   4.071 -0.1011  0.3862  0.0764
   28HFI     F6  823   0.315   1.306   3.964  0.1223  0.1972  0.0068
   28HFI     H1  824   0.328   1.347   3.741  0.7529 -2.8809  0.5017
   28HFI     H2  825   0.593   1.411   3.805  1.3144 -1.8876 -1.6537
   29HFI     O1  826   2.735   1.756   1.333  0.2216  0.2944 -0.4606
   29HFI     C1  827   2.791   1.642   1.392 -0.0333  0.1206  0.1175
   29HFI     C2  828   2.760   1.509   1.315  0.5007 -0.0916  0.6405
   29HFI     F1  829   2.636   1.476   1.338  0.4717  0.1844 -0.4963
   29HFI     F2  830   2.837   1.404   1.347 -0.3750  0.2526  0.6333
   29HFI     F3  831   2.776   1.531   1.183  0.2832  0.1536  0.1631
   29HFI     C3  832   2.766   1.629   1.543  0.0729 -0.9925 -0.1224
   29HFI     F4  833   2.650   1.563   1.568  0.2371 -0.6716  0.1328
   29HFI     F5  834   2.742   1.753   1.605 -0.4277  0.2080  0.2871
   29HFI     F6  835   2.867   1.568   1.609  0.2229 -0.2740  0.1719
   29HFI     H1  836   2.659   1.788   1.386  0.1536 -0.6100 -0.0159
   29HFI     H2  837   2.900   1.652   1.378 -0.1087 -0.0266 -0.5826
   30HFI     O1  838   2.053   2.566   3.763  0.2644 -0.6017  0.0080
   30HFI     C1  839   2.101   2.502   3.890 -0.6924 -0.0276 -0.0822
   30HFI     C2  840   1.996   2.483   3.994 -0.5157  0.0145  0.0474
   30HFI     F1  841   1.968   2.599   4.061 -0.3822  0.3693 -0.7626
   30HFI     F2  842   2.034   2.385   4.083 -0.4972 -0.1799 -0.3788
   30HFI     F3  843   1.879   2.445   3.936 -0.2325  0.2942 -1.1579
   30HFI     C3  844   2.226   2.581   3.946  0.6503  0.9517  0.2562
   30HFI     F4  845   2.282   2.524   4.061 -0.1480 -0.0656 -0.1927
   30HFI     F5  846   2.208   2.705   3.981 -0.2053  0.1210  0.5143
   30HFI     F6  847   2.324   2.581   3.855  0.4807  0.1677 -0.2122
   30HFI     H1  848   2.029   2.657   3.784  0.6938  0.1977 -2.7540
   30HFI     H2  849   2.132   2.400   3.862 -1.1108 -0.1054 -0.2542
   31HFI     O1  850   3.184   2.765   1.319  0.5096 -0.0181 -0.1261
   31HFI     C1  851   3.305   2.794   1.397  0.2026  0.2994 -0.0349
   31HFI     C2  852   3.341   2.670   1.478  0.6953  0.1472  0.4596
   31HFI     F1  853   3.422   2.706   1.576  0.2761 -0.5798  0.0341
   31HFI     F2  854   3.402   2.576   1.406  0.1800  0.0068  0.8899
   31HFI     F3  855   3.229   2.617   1.540  0.6972 -0.8727  0.0511
   31HFI     C3  856   3.285   2.930   1.477  0.5618  0.4982 -0.0042
   31HFI     F4  857   3.205   2.911   1.584  0.7164 -0.1678 -0.6286
   31HFI     F5  858   3.227   3.027   1.395 -0.0728 -0.1004  0.3283
   31HFI     F6  859   3.408   2.979   1.524 -0.3558  0.1658 -0.3892
   31HFI     H1  860   3.116   2.824   1.357  1.1496 -0.6747  2.0925
   31HFI     H2  861   3.386   2.796   1.324 -0.3194  0.9673 -0.5959
   32HFI     O1  862   2.684   1.166   0.658 -0.0479  0.2859  0.3233
   32HFI     C1  863   2.745   1.259   0.558 -0.4524 -0.5132 -0.0054
   32HFI     C2  864   2.681   1.249   0.423  0.1059  0.0866 -0.2842
   32HFI     F1  865   2.715   1.151   0.349  0.5761 -0.3031 -0.4360
   32HFI     F2  866   2.705   1.361   0.353  0.1753  0.1574  0.4252
   32HFI     F3  867   2.551   1.242   0.441 -0.4391  0.0402  0.3463
   32HFI     C3  868   2.901   1.246   0.553 -0.1897 -0.2362  0.7700
   32HFI     F4  869   2.947   1.325   0.456  0.6359 -0.1463 -0.1509
   32HFI     F5  870   2.954   1.122   0.527 -0.2422 -0.5019  0.3035
   32HFI     F6  871   2.955   1.290   0.667 -0.0320  0.0906 -0.2362
   32HFI     H1  872   2.671   1.080   0.613 -4.3947  0.6552  0.7573
   32HFI     H2  873   2.728   1.362   0.589 -0.7540 -0.9250  1.2207
   33HFI     O1  874   3.033   1.998   0.071 -0.1120 -0.6797 -0.6715
   33HFI     C1  875   3.138   2.083   0.031 -0.0161  0.0620  0.0776
   33HFI     C2  876   3.263   2.004  -0.018 -0.6447  0.6694 -0.7023
   33HFI     F1  877   3.225   1.927  -0.122  0.1171  0.4045  0.1861
   33HFI     F2  878   3.310   1.927   0.083  0.3426  0.3548 -0.5352
   33HFI     F3  879   3.360   2.084  -0.061 -0.1677 -0.5327 -0.8163
   33HFI     C3  880   3.173   2.177   0.139  0.3389  0.9700  0.2933
   33HFI     F4  881   3.207   2.112   0.256 -0.2837  0.0616 -0.4195
   33HFI     F5  882   3.061   2.236   0.167 -0.2577 -0.2980  0.1591
   33HFI     F6  883   3.271   2.265   0.105 -0.3273 -0.0330  0.1823
   33HFI     H1  884   3.051   1.961   0.159 -2.8233  2.8460  1.5041
   33HFI     H2  885   3.118   2.138  -0.062  2.1556 -1.4906 -1.3748
   34HFI     O1  886   2.629   1.743   2.992  0.8589  1.1102 -0.6545
   34HFI     C1  887   2.634   1.774   2.851  0.0032 -0.0953 -0.7467
   34HFI     C2  888   2.540   1.690   2.766 -0.6849 -0.2347  0.5389
   34HFI     F1  889   2.415   1.711   2.806 -0.0353  0.0324 -0.0096
   34HFI     F2  890   2.567   1.555   2.778 -0.1394  1.1518 -0.1398
   34HFI     F3  891   2.538   1.708   2.628 -0.2491 -0.4707  0.0003
   34HFI     C3  892   2.784   1.755   2.810 -0.9354  0.0899  0.0728
   34HFI     F4  893   2.839   1.643   2.859 -0.2916 -0.3655  0.3301
   34HFI     F5  894   2.855   1.856   2.861  0.3121  0.3696  0.1511
   34HFI     F6  895   2.807   1.762   2.680 -0.3579 -0.2632  0.4474
   34HFI     H1  896   2.677   1.660   3.009 -0.2420  0.7799  0.9514
   34HFI     H2  897   2.608   1.879   2.837 -1.8744 -0.5652 -0.8758
   35HFI     O1  898   0.532   0.496   1.248  0.5554  0.7510  0.2015
   35HFI     C1  899   0.458   0.476   1.371  0.2294 -0.4728  0.4872
   35HFI     C2  900   0.399   0.602   1.437  0.0848 -0.1665  0.0683
   35HFI     F1  901   0.343   0.576   1.554  0.1906 -0.1505  0.4859
   35HFI     F2  902   0.300   0.652   1.349  0.1040  0.2591 -0.3092
   35HFI     F3  903   0.495   0.700   1.455  0.1060  0.0491  0.1923
   35HFI     C3  904   0.563   0.414   1.470 -0.6904  0.0675  0.3728
   35HFI     F4  905   0.603   0.301   1.416 -0.4755  0.0343  0.2190
   35HFI     F5  906   0.517   0.377   1.593 -0.3099 -0.3496  0.3049
   35HFI     F6  907   0.676   0.489   1.478  0.2228 -0.1338  0.5096
   35HFI     H1  908   0.518   0.587   1.217 -0.2869  1.0808  1.5109
   35HFI     H2  909   0.378   0.401   1.357  1.8184 -2.1219 -0.0454
   36HFI     O1  910   1.227   1.744   1.357 -0.1120 -0.0299 -0.0181
   36HFI     C1  911   1.239   1.888   1.399 -0.2041  0.0069  0.0471
   36HFI     C2  912   1.264   1.985   1.280  0.3758 -0.1285 -0.1399
   36HFI     F1  913   1.373   1.949   1.212  0.1183  0.0887 -0.3452
   36HFI     F2  914   1.285   2.113   1.322  0.5939 -0.5261  0.4665
   36HFI     F3  915   1.154   1.985   1.206 -0.1845 -0.3318 -0.3611
   36HFI     C3  916   1.346   1.902   1.511  0.3359  0.8662 -0.9887
   36HFI     F4  917   1.476   1.911   1.463 -0.5634  0.2306 -0.1720
   36HFI     F5  918   1.344   1.804   1.598  0.2260 -0.0065 -0.2658
   36HFI     F6  919   1.326   2.023   1.579 -0.0713 -0.1083  0.5753
   36HFI     H1  920   1.294   1.692   1.406 -1.0688 -2.0739 -0.8035
   36HFI     H2  921   1.143   1.908   1.448 -1.5552 -1.7510 -1.7670
   37HFI     O1  922   2.773   1.828   0.859  0.3651 -0.1451  0.6056
   37HFI     C1  923   2.710   1.819   0.994  0.2095  0.5056  0.4459
   37HFI     C2  924   2.583   1.725   0.992  0.1422 -0.0593  0.1562
   37HFI     F1  925   2.490   1.786   0.916  0.0916  0.1955  0.4073
   37HFI     F2  926   2.533   1.703   1.115  0.0772  0.5228  0.0620
   37HFI     F3  927   2.608   1.602   0.933 -0.1624  0.0760  0.4167
   37HFI     C3  928   2.669   1.966   1.035  0.3883  0.4281  0.0742
   37HFI     F4  929   2.582   1.956   1.140  0.2481  0.4813 -0.1255
   37HFI     F5  930   2.614   2.037   0.932  0.3841 -0.1912  0.5750
   37HFI     F6  931   2.777   2.030   1.074  0.1799  0.5291 -0.0573
   37HFI     H1  932   2.746   1.909   0.813 -1.3134 -0.4529  1.0047
   37HFI     H2  933   2.776   1.767   1.064 -0.6809 -2.6967 -0.9752
   38HFI     O1  934   2.806   3.392   1.392  0.0011 -0.4658  0.5965
   38HFI     C1  935   2.931   3.474   1.373  0.0709  0.1440 -0.2092
   38HFI     C2  936   3.040   3.383   1.298  0.5842  0.0227 -0.0348
   38HFI     F1  937   3.149   3.453   1.261 -0.0828  0.2556  0.1304
   38HFI     F2  938   2.986   3.337   1.176  0.2929  0.1487 -0.2487
   38HFI     F3  939   3.062   3.275   1.378  0.3413 -0.2891  0.7009
   38HFI     C3  940   2.984   3.555   1.498  0.3582  0.3000 -0.3505
   38HFI     F4  941   3.048   3.483   1.590  0.0721  0.3067 -0.1057
   38HFI     F5  942   2.878   3.627   1.546  0.1603  0.5477  0.0515
   38HFI     F6  943   3.081   3.637   1.457  0.4268  0.2140 -0.6728
   38HFI     H1  944   2.739   3.455   1.423  0.4022 -0.0395  0.6115
   38HFI     H2  945   2.896   3.551   1.304  2.0358  0.4712 -0.8671
   39HFI     O1  946   1.163   1.708   0.574  0.3943 -0.7594 -0.7617
   39HFI     C1  947   1.224   1.826   0.506  0.1644 -0.6912 -0.3857
   39HFI     C2  948   1.115   1.921   0.448 -0.2773 -0.0163 -0.6163
   39HFI     F1  949   1.061   1.871   0.330  0.1680  0.1411  0.3338
   39HFI     F2  950   1.163   2.041   0.421  0.0760 -0.1389 -0.3161
   39HFI     F3  951   1.009   1.935   0.533  0.2575 -0.2331 -0.4136
   39HFI     C3  952   1.328   1.765   0.405  0.6266  0.1915  0.6119
   39HFI     F4  953   1.264   1.682   0.326 -0.1077  0.4861  0.3639
   39HFI     F5  954   1.418   1.690   0.473  0.0859 -0.0541 -0.0730
   39HFI     F6  955   1.392   1.856   0.336 -0.7212 -0.4802  0.0744
   39HFI     H1  956   1.117   1.652   0.510 -0.8808  0.5502 -1.0295
   39HFI     H2  957   1.270   1.892   0.580 -1.1603  1.1741 -1.1858
   40HFI     O1  958   1.660   3.379   0.341 -0.1356  0.2167 -0.4527
   40HFI     C1  959   1.766   3.481   0.323 -0.2551  0.6209  0.0358
   40HFI     C2  960   1.757   3.547   0.180 -0.3420  0.1139  0.1140
   40HFI     F1  961   1.635   3.605   0.167 -0.2925  0.0072  0.1460
   40HFI     F2  962   1.782   3.458   0.078 -0.6339  0.1411 -1.1132
   40HFI     F3  963   1.856   3.647   0.173  0.0704 -0.4083  0.0447
   40HFI     C3  964   1.910   3.411   0.350  0.7435 -0.5719 -0.4352
   40HFI     F4  965   2.014   3.478   0.294  0.1677  0.1415 -0.0018
   40HFI     F5  966   1.912   3.282   0.291  0.0377  0.4524  0.6418
   40HFI     F6  967   1.939   3.392   0.482 -0.3854 -0.2948 -0.1317
   40HFI     H1  968   1.712   3.297   0.333 -1.6815 -0.8462  0.2528
   40HFI     H2  969   1.755   3.566   0.391 -0.7218 -0.2776  1.0916
   41HFI     O1  970   3.137   0.522   3.481 -0.3073 -0.3453  0.2582
   41HFI     C1  971   3.029   0.557   3.577 -0.0140 -0.5706  0.1694
   41HFI     C2  972   3.051   0.691   3.651  0.0590 -0.4366  0.5889
   41HFI     F1  973   3.120   0.780   3.585  0.3762  0.0535  0.3964
   41HFI     F2  974   3.120   0.679   3.770  0.0647 -0.3115 -0.1989
   41HFI     F3  975   2.937   0.752   3.684 -0.6974 -0.2819  0.0074
   41HFI     C3  976   3.003   0.433   3.668 -0.3537 -0.2860  0.0264
   41HFI     F4  977   2.897   0.449   3.752  0.5512 -0.0406  0.3345
   41HFI     F5  978   3.114   0.400   3.736 -0.1714 -0.0098  0.3704
   41HFI     F6  979   2.969   0.329   3.584 -0.8241 -0.0365  0.3060
   41HFI     H1  980   3.123   0.444   3.425 -0.8939  0.9862 -1.5058
   41HFI     H2  981   2.933   0.577   3.527  0.9249 -1.6029 -2.0657
   42HFI     O1  982   1.705   0.880   3.712  0.3934  0.2354  0.2582
   42HFI     C1  983   1.752   1.002   3.666 -0.7285 -0.0217 -0.7470
   42HFI     C2  984   1.784   1.087   3.790 -0.0601 -0.5824 -0.6779
   42HFI     F1  985   1.875   1.017   3.868 -0.0133  0.3605 -0.3486
   42HFI     F2  986   1.686   1.126   3.870  0.5946  0.5200  0.1571
   42HFI     F3  987   1.847   1.202   3.754 -0.2305  0.3264  0.6398
   42HFI     C3  988   1.649   1.067   3.568  0.9559 -0.8016  0.3042
   42HFI     F4  989   1.704   1.182   3.506 -0.0640 -0.2683  0.2676
   42HFI     F5  990   1.531   1.102   3.624 -0.0407  1.0272  0.1273
   42HFI     F6  991   1.623   0.980   3.461 -0.2856 -0.0355  0.1031
   42HFI     H1  992   1.610   0.884   3.733  0.9910  0.3323  3.2250
   42HFI     H2  993   1.850   0.988   3.619 -0.4125  3.3125 -1.2443
   43HFI     O1  994   2.276   0.766   0.211  0.6265 -0.6859 -1.5053
   43HFI     C1  995   2.368   0.808   0.104 -0.4935  0.1053  0.3020
   43HFI     C2  996   2.481   0.893   0.158  0.6289 -0.1903  0.0602
   43HFI     F1  997   2.434   1.017   0.189  0.1223  0.2940  0.9169
   43HFI     F2  998   2.585   0.911   0.073  0.1244 -0.2139 -0.3211
   43HFI     F3  999   2.539   0.847   0.276  0.2613  0.1817 -0.1367
   43HFI     C3 1000   2.298   0.881  -0.014 -0.5253  0.4719 -0.2306
   43HFI     F4 1001   2.388   0.927  -0.098 -0.2657  0.0677 -0.8482
   43HFI     F5 1002   2.220   0.986   0.033  0.4836 -0.7088 -0.0036
   43HFI     F6 1003   2.212   0.796  -0.072 -0.0034 -0.7816  0.0655
   43HFI     H1 1004   2.249   0.843   0.265 -0.3877 -1.2811 -1.1524
   43HFI     H2 1005   2.411   0.720   0.053 -0.3557 -0.2244  0.9888
   44HFI     O1 1006   2.667   2.383   0.954 -0.6708  0.4726 -0.6317
   44HFI     C1 1007   2.530   2.358   0.905 -0.2453  0.5807 -0.6099
   44HFI     C2 1008   2.480   2.470   0.803 -0.5174  0.0749  0.3958
   44HFI     F1 1009   2.474   2.593   0.857  0.0479  0.1261 -0.2502
   44HFI     F2 1010   2.352   2.437   0.757 -0.0473  0.3003 -0.0669
   44HFI     F3 1011   2.555   2.464   0.694  0.0811  0.0870  0.3101
   44HFI     C3 1012   2.437   2.359   1.032 -0.4995 -0.0939  0.2134
   44HFI     F4 1013   2.311   2.342   0.994 -0.0258  0.1401 -0.0912
   44HFI     F5 1014   2.435   2.474   1.102  0.3240  0.8960 -0.0503
   44HFI     F6 1015   2.472   2.264   1.124  0.8223 -0.2474  0.2224
   44HFI     H1 1016   2.679   2.478   0.967  0.1373  0.1478  1.1425
   44HFI     H2 1017   2.520   2.261   0.854 -0.5751 -0.4052  1.2664
   45HFI     O1 1018   2.420   2.476   1.604 -0.0998 -0.0878 -0.2217
   45HFI     C1 1019   2.375   2.569   1.503 -0.3147  0.3766  0.5580
   45HFI     C2 1020   2.465   2.690   1.491 -0.3454 -0.0972 -0.7035
   45HFI     F1 1021   2.472   2.754   1.610  0.1639 -0.1161  0.3245
   45HFI     F2 1022   2.425   2.779   1.398 -0.1858 -0.1160  0.0029
   45HFI     F3 1023   2.592   2.653   1.470  0.3502  0.3179 -0.0289
   45HFI     C3 1024   2.230   2.608   1.522 -0.6097  0.2896 -0.1215
   45HFI     F4 1025   2.152   2.490   1.532 -0.1804 -0.5795 -0.0237
   45HFI     F5 1026   2.186   2.682   1.419  1.0407 -0.1641 -0.1196
   45HFI     F6 1027   2.201   2.674   1.630 -0.1740  0.5192  0.0323
   45HFI     H1 1028   2.392   2.389   1.569  0.4515 -0.1227 -0.5862
   45HFI     H2 1029   2.372   2.519   1.405  1.1005  0.9494  0.2161
   46HFI     O1 1030   1.353   1.414   2.979  0.0120  0.0352  0.0986
   46HFI     C1 1031   1.292   1.513   2.893 -0.6679 -0.4400  0.3268
   46HFI     C2 1032   1.395   1.595   2.810 -0.1949 -0.1501  0.0020
   46HFI     F1 1033   1.475   1.676   2.891  0.3604 -0.3328 -0.0435
   46HFI     F2 1034   1.337   1.681   2.723  0.3881  0.1059 -0.0143
   46HFI     F3 1035   1.469   1.509   2.740  0.4603 -0.2021 -0.3949
   46HFI     C3 1036   1.186   1.603   2.977  0.8987  0.5340  0.0790
   46HFI     F4 1037   1.246   1.688   3.063  0.1644 -0.1722  0.2396
   46HFI     F5 1038   1.104   1.526   3.041  0.7184  0.3108 -0.3404
   46HFI     F6 1039   1.114   1.682   2.890 -0.0937 -0.1538 -0.1085
   46HFI     H1 1040   1.288   1.383   3.044  1.8061  0.3207  2.0931
   46HFI     H2 1041   1.236   1.461   2.815 -2.3789 -1.1276  1.9892
   47HFI     O1 1042   2.842   1.639   3.145  0.1333  0.6432  0.1665
   47HFI     C1 1043   2.861   1.512   3.210 -0.0006 -0.6749 -0.6818
   47HFI     C2 1044   3.004   1.517   3.276 -0.2628  0.1952 -0.3387
   47HFI     F1 1045   2.999   1.596   3.383 -0.5508  0.1897 -0.3333
   47HFI     F2 1046   3.101   1.562   3.190 -0.1237  0.3844  0.0571
   47HFI     F3 1047   3.037   1.394   3.324  0.4508  0.6747 -0.7480
   47HFI     C3 1048   2.845   1.388   3.116 -0.4082  0.5783  0.1671
   47HFI     F4 1049   2.728   1.389   3.046 -0.1136  0.0147 -0.2735
   47HFI     F5 1050   2.842   1.273   3.190  0.2333  0.4731 -0.2991
   47HFI     F6 1051   2.936   1.379   3.025  0.1564 -0.3212 -0.0407
   47HFI     H1 1052   2.903   1.705   3.183 -0.2411  1.7552 -1.1256
   47HFI     H2 1053   2.788   1.492   3.289  0.1444  0.5978 -0.2161
   48HFI     O1 1054   0.991   1.626   1.270 -0.5395 -0.5384  0.0897
   48HFI     C1 1055   0.920   1.578   1.386 -0.4606  0.4779 -0.3746
   48HFI     C2 1056   0.888   1.689   1.497  0.1225 -0.4027  0.1237
   48HFI     F1 1057   0.819   1.790   1.444  0.2470  0.4294  0.9023
   48HFI     F2 1058   0.999   1.737   1.554  0.6231 -0.0055  0.8761
   48HFI     F3 1059   0.800   1.639   1.593  0.3742 -0.0584  0.9676
   48HFI     C3 1060   1.000   1.456   1.454 -0.1719  0.5058 -0.1003
   48HFI     F4 1061   0.926   1.403   1.553  0.6320  0.8279  0.0489
   48HFI     F5 1062   1.112   1.497   1.505  0.1001 -0.0637  0.9759
   48HFI     F6 1063   1.029   1.366   1.361 -0.3154 -0.0591 -0.4595
   48HFI     H1 1064   1.063   1.683   1.302 -0.3603 -1.0294  0.5724
   48HFI     H2 1065   0.820   1.538   1.362 -0.6100  1.0633 -0.7349
   49HFI     O1 1066   1.698   2.100   1.451 -0.2568 -0.3630 -0.2376
   49HFI     C1 1067   1.821   2.106   1.527  0.5250  0.1264  0.7008
   49HFI     C2 1068   1.920   2.213   1.468 -0.6106  0.6767  0.4796
   49HFI     F1 1069   1.946   2.200   1.340 -0.0705 -0.1751  0.4093
   49HFI     F2 1070   2.038   2.199   1.535  0.9283  0.0440 -1.1993
   49HFI     F3 1071   1.875   2.332   1.499 -0.1018 -0.2099  0.3262
   49HFI     C3 1072   1.871   1.959   1.536 -0.5019 -0.1778  0.4420
   49HFI     F4 1073   1.987   1.944   1.601 -0.5234 -0.4485  0.3848
   49HFI     F5 1074   1.896   1.913   1.413  0.7125  0.5554 -0.4375
   49HFI     F6 1075   1.778   1.886   1.593  0.5013  0.1605  0.2251
   49HFI     H1 1076   1.693   2.042   1.373 -0.4641 -0.8162  0.1107
   49HFI     H2 1077   1.792   2.133   1.629 -1.6198  1.1359 -0.1265
   50HFI     O1 1078   2.830   0.427   1.079  0.0205 -0.1026  0.1828
   50HFI     C1 1079   2.801   0.340   0.965  0.4174  0.0006 -0.2736
   50HFI     C2 1080   2.851   0.201   0.987  1.1567  0.4229 -0.5608
   50HFI     F1 1081   2.798   0.152   1.105 -0.0800 -0.0637 -0.0391
   50HFI     F2 1082   2.977   0.187   1.006 -0.1348  0.2789  0.2953
   50HFI     F3 1083   2.811   0.120   0.884  0.0807 -0.4652 -0.7450
   50HFI     C3 1084   2.844   0.406   0.830  0.6552  0.2756 -0.2874
   50HFI     F4 1085   2.796   0.534   0.820 -0.3577  0.1815 -0.3346
   50HFI     F5 1086   2.793   0.347   0.723 -0.5815  0.3539  0.2357
   50HFI     F6 1087   2.983   0.408   0.829  0.3755 -0.2647  0.1944
   50HFI     H1 1088   2.925   0.448   1.079 -0.3580  1.6349 -1.3872
   50HFI     H2 1089   2.693   0.326   0.952 -0.0540  0.8784  2.4434
   51HFI     O1 1090   2.376   1.795   3.149 -0.0322  0.2173  0.2879
   51HFI     C1 1091   2.345   1.795   3.291 -0.0092  0.6124  0.0742
   51HFI     C2 1092   2.229   1.898   3.321 -0.8475  0.6061 -0.0776
   51HFI     F1 1093   2.268   2.025   3.330  0.3693  0.2993 -0.2204
   51HFI     F2 1094   2.172   1.877   3.440  0.0783 -0.7602 -0.0623
   51HFI     F3 1095   2.130   1.895   3.224  0.0932  0.1268  0.0547
   51HFI     C3 1096   2.467   1.828   3.376  0.4278  0.3555  0.3520
   51HFI     F4 1097   2.522   1.946   3.358  0.7386  0.2282 -0.5778
   51HFI     F5 1098   2.559   1.734   3.351 -0.2194  0.8461  0.0535
   51HFI     F6 1099   2.441   1.817   3.514  0.4929  0.1632  0.4153
   51HFI     H1 1100   2.442   1.864   3.131 -2.3684  2.2578 -0.8774
   51HFI     H2 1101   2.310   1.697   3.326  2.1830  0.3461  1.6346
   52HFI     O1 1102   3.216   0.108   0.766 -0.4013 -0.3716  0.4327
   52HFI     C1 1103   3.262   0.194   0.653 -0.6799  0.1323 -0.4149
   52HFI     C2 1104   3.220   0.142   0.515 -0.2142 -0.8597  0.1693
   52HFI     F1 1105   3.235   0.005   0.501 -0.2986  0.9184  0.0076
   52HFI     F2 1106   3.288   0.200   0.416 -0.3838 -0.3971  0.6820
   52HFI     F3 1107   3.090   0.177   0.497 -1.0379 -0.0573  0.0745
   52HFI     C3 1108   3.416   0.192   0.665  0.4759 -0.4250  0.3271
   52HFI     F4 1109   3.447   0.224   0.789 -0.2054 -0.1506  0.3005
   52HFI     F5 1110   3.477   0.287   0.588  0.1414 -0.2703 -0.2717
   52HFI     F6 1111   3.479   0.079   0.635  0.5225 -0.0101  0.3704
   52HFI     H1 1112   3.224   0.014   0.744  2.9532 -0.2370  0.7917
   52HFI     H2 1113   3.225   0.298   0.657  0.3212  0.4279  2.9587
   53HFI     O1 1114   3.345   0.511   0.464 -0.0061 -0.1885  0.0481
   53HFI     C1 1115   3.413   0.638   0.483 -0.0975  0.0914  0.1025
   53HFI     C2 1116   3.505   0.671   0.365  0.1547 -0.2409 -0.1504
   53HFI     F1 1117   3.597   0.580   0.342 -0.1232  0.2530 -0.3392
   53HFI     F2 1118   3.553   0.796   0.379  0.4183  0.2592 -0.1482
   53HFI     F3 1119   3.427   0.680   0.256  0.7993  0.6884  0.1313
   53HFI     C3 1120   3.482   0.644   0.620 -0.0251 -0.8214  0.0766
   53HFI     F4 1121   3.572   0.548   0.643  0.1808  0.1536 -0.0002
   53HFI     F5 1122   3.388   0.638   0.709  0.3238  0.1505  0.3458
   53HFI     F6 1123   3.556   0.760   0.637  0.0700  0.0930 -0.2904
   53HFI     H1 1124   3.407   0.446   0.429 -2.3284 -0.2690 -4.2162
   53HFI     H2 1125   3.336   0.717   0.477  0.1987  0.4141  0.5352
   54HFI     O1 1126   0.395   2.301   0.237 -0.0907  0.0883  0.2959
   54HFI     C1 1127   0.351   2.168   0.190 -0.7532 -0.0644  0.4413
   54HFI     C2 1128   0.433   2.126   0.068 -0.3640  0.0410  0.4372
   54HFI     F1 1129   0.428   2.216  -0.035  0.1773 -0.0054  0.1695
   54HFI     F2 1130   0.385   2.007   0.023 -0.3562  0.4552  0.3786
   54HFI     F3 1131   0.561   2.116   0.111 -0.1081 -0.0266 -0.1888
   54HFI     C3 1132   0.198   2.155   0.173 -0.5743 -0.1865 -0.4790
   54HFI     F4 1133   0.130   2.208   0.278  0.1946 -0.4043 -0.0447
   54HFI     F5 1134   0.157   2.029   0.162 -0.1397  0.2488  0.0918
   54HFI     F6 1135   0.155   2.225   0.061 -0.0267 -0.0739  0.4300
   54HFI     H1 1136   0.321   2.343   0.284 -2.3327 -2.2795 -0.9674
   54HFI     H2 1137   0.379   2.090   0.262  0.6874 -0.1429 -0.1845
   55HFI     O1 1138   1.231   3.232   1.497  0.5035 -0.3628 -0.2348
   55HFI     C1 1139   1.362   3.251   1.548  0.5499 -0.7918 -0.4128
   55HFI     C2 1140   1.416   3.391   1.519 -0.4403  0.0735  0.0741
   55HFI     F1 1141   1.334   3.486   1.566  0.0725 -0.0809  0.2307
   55HFI     F2 1142   1.446   3.410   1.390  0.1679 -0.0424  0.1405
   55HFI     F3 1143   1.534   3.412   1.583  0.0839  0.2612  0.6862
   55HFI     C3 1144   1.451   3.135   1.493  0.1994 -0.1889 -0.5741
   55HFI     F4 1145   1.386   3.019   1.518  0.1110  0.1887 -0.3055
   55HFI     F5 1146   1.578   3.127   1.554 -0.3185  0.2746  0.2238
   55HFI     F6 1147   1.480   3.141   1.356 -0.2971 -0.0610  0.1392
   55HFI     H1 1148   1.205   3.284   1.419  1.2009  0.4795  0.0976
   55HFI     H2 1149   1.354   3.238   1.657  1.4361  2.3757  0.0837
   56HFI     O1 1150   0.681   3.307   3.750 -0.0260  0.2769  0.4340
   56HFI     C1 1151   0.675   3.227   3.871 -0.2436 -0.5336 -0.3899
   56HFI     C2 1152   0.811   3.222   3.942 -0.1601  0.0802 -0.8103
   56HFI     F1 1153   0.902   3.174   3.859  0.0547 -0.0620  0.0827
   56HFI     F2 1154   0.806   3.151   4.060  0.0686 -0.3656  0.2555
   56HFI     F3 1155   0.845   3.349   3.978 -0.0364  0.0858  0.1957
   56HFI     C3 1156   0.610   3.084   3.850 -0.5549 -0.0825 -0.0361
   56HFI     F4 1157   0.502   3.092   3.771  0.3540  0.4389  0.2720
   56HFI     F5 1158   0.564   3.031   3.973  0.6315 -0.0482  0.0230
   56HFI     F6 1159   0.700   2.999   3.791  0.4554  0.1793 -0.2405
   56HFI     H1 1160   0.714   3.397   3.768 -1.1864  0.4143  2.0557
   56HFI     H2 1161   0.607   3.276   3.942 -0.1969  1.2379 -1.5459
   57HFI     O1 1162   2.804   0.154   3.796 -0.1203 -0.2787  0.4520
   57HFI     C1 1163   2.834   0.045   3.885 -0.5979  1.0548 -0.6918
   57HFI     C2 1164   2.961   0.062   3.964  0.1118 -0.0360 -0.0015
   57HFI     F1 1165   2.970  -0.013   4.073 -0.3182  0.0056  0.3137
   57HFI     F2 1166   2.971   0.187   4.003 -0.1703  0.1736  0.2235
   57HFI     F3 1167   3.073   0.042   3.887 -0.1882 -0.4395 -0.1255
   57HFI     C3 1168   2.818  -0.102   3.822 -0.0176 -0.4303  0.1426
   57HFI     F4 1169   2.805  -0.202   3.924  0.3031  0.1069 -0.5498
   57HFI     F5 1170   2.912  -0.139   3.743  0.5484  0.2107 -0.4642
   57HFI     F6 1171   2.709  -0.104   3.743 -0.1848  0.3273 -0.0986
   57HFI     H1 1172   2.827   0.245   3.823  0.5794  0.0492 -1.1929
   57HFI     H2 1173   2.754   0.044   3.960 -0.7410  2.5514 -0.8096
   58HFI     O1 1174   0.912   2.938   1.098 -0.4510 -0.8588 -0.2279
   58HFI     C1 1175   0.840   2.996   0.985 -0.6316 -0.5810  0.1609
   58HFI     C2 1176   0.829   3.148   0.997  0.0557  0.0135  0.1923
   58HFI     F1 1177   0.758   3.191   1.108  0.4678  0.8784  0.4632
   58HFI     F2 1178   0.783   3.199   0.886 -0.1300  0.8510  0.5287
   58HFI     F3 1179   0.952   3.205   1.007 -0.0076  0.2209 -0.0831
   58HFI     C3 1180   0.702   2.932   0.981  0.3417 -0.1787  0.1406
   58HFI     F4 1181   0.636   2.951   1.096 -0.3417 -0.3144  0.1275
   58HFI     F5 1182   0.705   2.800   0.962  0.4353 -0.0611  0.3450
   58HFI     F6 1183   0.619   2.981   0.882  0.1362  0.1968  0.0623
   58HFI     H1 1184   0.952   2.853   1.073  0.5141 -0.8909  1.3336
   58HFI     H2 1185   0.893   2.980   0.890  0.3041  0.2418  0.5316
   59HFI     O1 1186   2.325   2.232   1.504 -0.0820 -0.0647 -0.1382
   59HFI     C1 1187   2.376   2.106   1.433  0.8973  0.1980  0.0498
   59HFI     C2 1188   2.262   2.035   1.345 -0.2434  0.6571 -0.8781
   59HFI     F1 1189   2.313   1.936   1.269  0.4726 -0.1636 -0.0034
   59HFI     F2 1190   2.199   2.125   1.268  0.0799  0.0248  0.6485
   59HFI     F3 1191   2.176   1.974   1.427 -0.2702  0.2070  0.3419
   59HFI     C3 1192   2.460   2.017   1.524 -0.8429  0.0596  0.7227
   59HFI     F4 1193   2.561   2.089   1.584 -0.1487 -0.3012 -0.5116
   59HFI     F5 1194   2.514   1.912   1.449  0.0532  0.2612 -0.2299
   59HFI     F6 1195   2.381   1.963   1.618  0.2458  0.1734  0.7323
   59HFI     H1 1196   2.242   2.207   1.547 -0.5906  2.0318  0.1613
   59HFI     H2 1197   2.454   2.134   1.361  0.5813 -0.8196 -0.7129
   60HFI     O1 1198   1.228   2.945   2.902  0.1953 -0.0192 -0.2021
   60HFI     C1 1199   1.146   3.008   2.803  0.1379 -0.6703 -0.0307
   60HFI     C2 1200   1.149   3.158   2.830  0.2935  0.1828 -0.1371
   60HFI     F1 1201   1.179   3.189   2.962  0.1265 -0.0115  0.3559
   60HFI     F2 1202   1.037   3.225   2.806 -0.4886  0.6545  0.6595
   60HFI     F3 1203   1.253   3.219   2.765 -0.1960 -0.2193  0.2181
   60HFI     C3 1204   1.012   2.936   2.766  0.1184  0.7491  0.7628
   60HFI     F4 1205   0.950   2.994   2.664  0.0650 -0.4740  0.1889
   60HFI     F5 1206   0.928   2.947   2.872  0.4333  0.2576  0.0954
   60HFI     F6 1207   1.041   2.806   2.738 -0.0801  0.3413 -0.0786
   60HFI     H1 1208   1.181   2.919   2.983 -0.5452  1.0332 -0.2930
   60HFI     H2 1209   1.206   2.993   2.712 -0.1063  2.5697 -0.7686
   61HFI     O1 1210   2.380   1.660   1.431 -0.0442  0.0650 -0.0475
   61HFI     C1 1211   2.245   1.649   1.390  0.8839  0.8733  0.3543
   61HFI     C2 1212   2.148   1.649   1.521 -0.1120 -0.8629 -0.0746
   61HFI     F1 1213   2.178   1.550   1.600 -0.1624 -0.3260  0.4811
   61HFI     F2 1214   2.019   1.637   1.486 -0.0080 -0.1383  0.7467
   61HFI     F3 1215   2.170   1.767   1.593 -0.2541 -0.3072  0.2244
   61HFI     C3 1216   2.227   1.517   1.299  0.8196  0.4442 -0.7023
   61HFI     F4 1217   2.251   1.401   1.370 -0.3050 -0.0757 -0.1482
   61HFI     F5 1218   2.310   1.511   1.192 -0.2540  0.2141 -0.1482
   61HFI     F6 1219   2.100   1.520   1.248 -0.2888  0.2530  0.7770
   61HFI     H1 1220   2.401   1.582   1.486 -2.4749  0.4357  1.4695
   61HFI     H2 1221   2.214   1.729   1.322 -0.7092  1.5585  1.8416
   62HFI     O1 1222   0.733   1.193   0.952 -0.4460 -0.3407  0.3359
   62HFI     C1 1223   0.635   1.287   1.000 -0.1089 -0.2121 -0.0217
   62HFI     C2 1224   0.540   1.321   0.883 -0.3708 -0.0003  0.2672
   62HFI     F1 1225   0.584   1.416   0.806  0.2642 -0.6271 -0.0597
   62HFI     F2 1226   0.422   1.361   0.925 -0.4197 -0.3804 -0.1501
   62HFI     F3 1227   0.523   1.213   0.806  0.2046  0.1234 -0.6101
   62HFI     C3 1228   0.698   1.415   1.073 -0.8170  0.5720 -0.5752
   62HFI     F4 1229   0.786   1.489   1.003 -0.3982  0.0391  0.0728
   62HFI     F5 1230   0.761   1.380   1.185  0.6137  0.7247 -0.4442
   62HFI     F6 1231   0.598   1.503   1.099  0.6501  0.1728  0.0394
   62HFI     H1 1232   0.708   1.151   0.868 -1.5772  1.0280 -0.0211
   62HFI     H2 1233   0.574   1.228   1.070  0.4514 -0.3385  0.3647
   63HFI     O1 1234   0.413   0.173   0.761  0.0992 -0.2974 -0.1350
   63HFI     C1 1235   0.465   0.183   0.899  0.1616 -0.3746  0.3126
   63HFI     C2 1236   0.511   0.040   0.946 -0.0244 -0.3263 -0.4070
   63HFI     F1 1237   0.616  -0.012   0.876  0.8186 -0.0880 -0.2879
   63HFI     F2 1238   0.408  -0.046   0.947  0.5720 -0.0875  0.2072
   63HFI     F3 1239   0.547   0.040   1.073  0.1034  0.2299  0.6037
   63HFI     C3 1240   0.348   0.247   0.992 -0.3796  0.4754  0.2040
   63HFI     F4 1241   0.234   0.179   0.988 -0.3607  0.3694  0.1932
   63HFI     F5 1242   0.321   0.374   0.944  0.1404 -0.1413 -0.2066
   63HFI     F6 1243   0.390   0.257   1.123 -0.2441 -0.0899  0.0730
   63HFI     H1 1244   0.343   0.239   0.747 -0.4133 -1.0377 -1.1594
   63HFI     H2 1245   0.548   0.255   0.904  0.1311 -0.2500 -0.7968
   64HFI     O1 1246   2.634   2.866   0.550 -0.0837  0.1478  0.3493
   64HFI     C1 1247   2.666   2.867   0.410  0.5319  0.5539  0.5450
   64HFI     C2 1248   2.572   2.958   0.331  0.0742 -0.5929 -0.4512
   64HFI     F1 1249   2.576   3.089   0.374 -0.1474  0.1066  0.0517
   64HFI     F2 1250   2.450   2.904   0.335  0.2198 -0.1955 -0.1402
   64HFI     F3 1251   2.605   2.975   0.206  0.2540  1.0488  0.1750
   64HFI     C3 1252   2.673   2.716   0.370  0.9999 -0.3647  0.4227
   64HFI     F4 1253   2.749   2.644   0.458 -0.2325  0.1397  0.1968
   64HFI     F5 1254   2.740   2.712   0.251 -0.3129 -0.0830  0.0666
   64HFI     F6 1255   2.551   2.660   0.348  0.1324 -0.2572 -0.0117
   64HFI     H1 1256   2.544   2.841   0.575 -0.3812  0.4839 -0.3483
   64HFI     H2 1257   2.764   2.912   0.393  1.1493 -0.6692  0.7773
   65HFI     O1 1258   1.615   0.669   1.333  0.3687  0.2482  0.2040
   65HFI     C1 1259   1.744   0.622   1.372  0.8187 -0.3552 -0.2596
   65HFI     C2 1260   1.778   0.480   1.336 -0.2969 -0.8364 -0.1219
   65HFI     F1 1261   1.722   0.449   1.217  0.1541  0.1994  0.1221
   65HFI     F2 1262   1.726   0.395   1.431  0.0995 -0.3425  0.0820
   65HFI     F3 1263   1.912   0.481   1.330 -0.0509  0.2178 -0.1735
   65HFI     C3 1264   1.776   0.663   1.515 -0.0091 -0.2383 -0.1831
   65HFI     F4 1265   1.687   0.610   1.600 -0.5690  0.2408  0.5151
   65HFI     F5 1266   1.770   0.799   1.533  0.3094  0.0825  0.3342
   65HFI     F6 1267   1.895   0.618   1.556  0.2137  0.5467  0.3916
   65HFI     H1 1268   1.548   0.612   1.376  0.2204 -0.8094 -1.3954
   65HFI     H2 1269   1.820   0.679   1.316  0.7123  0.6669  0.6216
   66HFI     O1 1270   2.866   3.181   0.410 -0.0834  0.1802  0.4209
   66HFI     C1 1271   2.877   3.171   0.553 -0.5827  0.3087 -0.0600
   66HFI     C2 1272   2.898   3.308   0.615  0.3289  0.6643  0.0066
   66HFI     F1 1273   2.857   3.404   0.536 -0.2755  1.0167  0.2188
   66HFI     F2 1274   3.024   3.342   0.645 -0.5938  0.4806  0.2172
   66HFI     F3 1275   2.830   3.320   0.734  0.2260 -0.3449  0.3928
   66HFI     C3 1276   2.971   3.060   0.613  0.3219  0.3189  0.1935
   66HFI     F4 1277   2.933   2.931   0.582 -0.6081  0.2122  0.1668
   66HFI     F5 1278   2.991   3.065   0.755  0.0462  0.1305  0.4807
   66HFI     F6 1279   3.100   3.074   0.561 -0.3480  0.1974 -0.0516
   66HFI     H1 1280   2.875   3.275   0.386  2.4467  0.1277  1.0100
   66HFI     H2 1281   2.775   3.145   0.582 -0.4910  0.7862  0.7195
   67HFI     O1 1282   0.174   2.543   2.554  0.7206  0.2823  0.4122
   67HFI     C1 1283   0.247   2.652   2.483 -0.0922  0.4852 -0.4541
   67HFI     C2 1284   0.197   2.794   2.534  0.3543  0.2675 -0.0244
   67HFI     F1 1285   0.063   2.814   2.505 -0.7833 -0.9023  0.1173
   67HFI     F2 1286   0.268   2.889   2.476  0.0374  0.2016 -0.7587
   67HFI     F3 1287   0.206   2.804   2.669 -0.0452 -0.1867 -0.3669
   67HFI     C3 1288   0.249   2.643   2.328 -0.1623  0.4929  0.0390
   67HFI     F4 1289   0.146   2.697   2.258  0.0407  0.3769 -0.3116
   67HFI     F5 1290   0.262   2.514   2.288  0.1645  0.2867  0.6063
   67HFI     F6 1291   0.360   2.709   2.284 -0.0622 -0.3325 -0.5619
   67HFI     H1 1292   0.147   2.473   2.492  0.8893 -0.3215  1.0176
   67HFI     H2 1293   0.353   2.640   2.508  0.0484 -2.1139 -2.0858
   68HFI     O1 1294   0.303   0.960   3.147 -0.1576 -0.0003 -0.6486
   68HFI     C1 1295   0.448   0.976   3.195 -0.0400 -0.1639 -0.1506
   68HFI     C2 1296   0.552   0.884   3.119  0.3885  0.1752 -0.0342
   68HFI     F1 1297   0.531   0.747   3.134  0.3038 -0.1411  0.8388
   68HFI     F2 1298   0.678   0.914   3.154  0.3525  0.1393 -0.3448
   68HFI     F3 1299   0.537   0.905   2.988 -0.2731  0.0141 -0.2985
   68HFI     C3 1300   0.463   0.959   3.347 -0.4689  0.2527  0.1384
   68HFI     F4 1301   0.425   0.836   3.383  0.3223 -0.3594 -0.2228
   68HFI     F5 1302   0.383   1.046   3.415  0.5380  0.3409  0.3476
   68HFI     F6 1303   0.588   0.980   3.384  0.1715  0.1518  1.3075
   68HFI     H1 1304   0.300   0.973   3.051  0.9390  2.0937 -0.4284
   68HFI     H2 1305   0.484   1.075   3.164 -0.4944 -0.1624 -0.6772
   69HFI     O1 1306   2.176   1.620   0.244  0.3089  0.2263  0.2297
   69HFI     C1 1307   2.234   1.487   0.210 -0.2758  0.6722 -0.3270
   69HFI     C2 1308   2.370   1.505   0.129  0.5210  0.3623 -0.4967
   69HFI     F1 1309   2.433   1.391   0.093  0.1773 -0.0614 -0.0277
   69HFI     F2 1310   2.453   1.570   0.214  0.3273 -0.3114 -0.0349
   69HFI     F3 1311   2.355   1.578   0.020  0.0668  0.1557  0.0773
   69HFI     C3 1312   2.124   1.404   0.135  0.5773 -0.2019 -0.2608
   69HFI     F4 1313   2.022   1.375   0.221 -0.2061 -0.3144  0.0899
   69HFI     F5 1314   2.174   1.287   0.085  0.0552 -0.6674 -0.3441
   69HFI     F6 1315   2.069   1.472   0.033 -0.3713  0.5220 -0.3205
   69HFI     H1 1316   2.250   1.674   0.277  1.4053 -1.8501  1.2501
   69HFI     H2 1317   2.258   1.431   0.301  0.7721  1.6023 -0.0165
   70HFI     O1 1318   1.141   0.090   0.218  0.0165  0.7058  0.0098
   70HFI     C1 1319   1.255  -0.006   0.193  0.7476 -0.4694 -0.2758
   70HFI     C2 1320   1.284  -0.030   0.041 -0.0804 -0.0366 -0.0832
   70HFI     F1 1321   1.269   0.086  -0.023 -0.2593  0.0934  0.1055
   70HFI     F2 1322   1.193  -0.109  -0.010  0.2095 -0.3270 -0.1903
   70HFI     F3 1323   1.400  -0.085   0.008 -0.9745  0.1384  0.2941
   70HFI     C3 1324   1.237  -0.144   0.269 -0.4209 -0.0288  0.5732
   70HFI     F4 1325   1.323  -0.242   0.220 -0.3493  0.1323  0.1052
   70HFI     F5 1326   1.115  -0.193   0.250  0.8281 -0.2510  0.2846
   70HFI     F6 1327   1.267  -0.139   0.401  0.3870 -0.6263  0.3526
   70HFI     H1 1328   1.054   0.048   0.205  0.9985 -0.9234 -1.6027
   70HFI     H2 1329   1.348   0.034   0.234 -0.8317  0.5405  2.4955
   71HFI     O1 1330   1.938   1.589   2.395 -0.0540  0.1790 -0.3509
   71HFI     C1 1331   2.058   1.644   2.327  0.1290 -0.1018  0.0955
   71HFI     C2 1332   2.190   1.651   2.412  0.9459  0.2167  0.0163
   71HFI     F1 1333   2.297   1.700   2.347 -0.0404 -0.5203 -0.0315
   71HFI     F2 1334   2.223   1.533   2.460  0.6672 -0.0954  0.3017
   71HFI     F3 1335   2.172   1.724   2.525  0.6164 -0.0409  0.1151
   71HFI     C3 1336   2.028   1.781   2.273 -0.2676  0.0184 -0.0797
   71HFI     F4 1337   2.025   1.880   2.366 -0.0250  0.3197 -0.5670
   71HFI     F5 1338   1.908   1.783   2.213 -0.0128  0.8302  0.1843
   71HFI     F6 1339   2.128   1.830   2.199 -0.6907 -0.6235  0.0241
   71HFI     H1 1340   1.912   1.502   2.359 -1.0795 -0.5151  1.9754
   71HFI     H2 1341   2.080   1.583   2.239  0.2493 -1.3066  0.9584
   72HFI     O1 1342   2.739   3.128   1.319  0.2590 -0.5113 -0.2879
   72HFI     C1 1343   2.678   3.041   1.425 -0.1794 -0.7334  0.2243
   72HFI     C2 1344   2.564   3.122   1.492  0.6823 -0.6458  0.0941
   72HFI     F1 1345   2.497   3.196   1.404 -0.2576  0.3819 -0.2617
   72HFI     F2 1346   2.608   3.204   1.591  0.3387 -0.5344 -0.4552
   72HFI     F3 1347   2.481   3.033   1.553 -0.3327 -0.2456 -0.1209
   72HFI     C3 1348   2.795   2.990   1.512 -0.4106  0.0411 -0.8160
   72HFI     F4 1349   2.755   2.874   1.574  0.2364 -0.0028  0.3875
   72HFI     F5 1350   2.848   3.076   1.603 -0.1629 -0.2970 -0.4143
   72HFI     F6 1351   2.899   2.958   1.427 -0.4029 -0.1047 -0.0979
   72HFI     H1 1352   2.812   3.174   1.365 -1.0892  2.9394 -1.4686
   72HFI     H2 1353   2.635   2.952   1.379  0.4291  0.0387 -1.9065
   73HFI     O1 1354   2.226   0.711   2.675 -0.2235 -0.2558  0.1476
   73HFI     C1 1355   2.246   0.603   2.761 -0.1089 -0.2115  0.0971
   73HFI     C2 1356   2.205   0.631   2.912  0.3547 -0.6727 -0.3215
   73HFI     F1 1357   2.070   0.619   2.926  0.1794  0.2693 -0.2234
   73HFI     F2 1358   2.241   0.758   2.951 -0.5299 -0.0271 -0.1410
   73HFI     F3 1359   2.259   0.538   3.000 -0.1360  0.1566 -0.2136
   73HFI     C3 1360   2.398   0.566   2.738  0.1081 -0.1671 -0.3659
   73HFI     F4 1361   2.475   0.658   2.802  0.4928 -0.2932 -0.6359
   73HFI     F5 1362   2.425   0.575   2.606 -0.0447 -0.5381 -0.5947
   73HFI     F6 1363   2.434   0.444   2.776  0.4794 -0.1421 -0.0713
   73HFI     H1 1364   2.280   0.784   2.710 -1.7028  1.1152 -0.3640
   73HFI     H2 1365   2.191   0.510   2.744 -1.3028  0.0061  2.5149
   74HFI     O1 1366   0.829   1.239   2.538 -0.4388 -0.5953 -0.2647
   74HFI     C1 1367   0.717   1.235   2.452 -1.1476 -0.0794  0.1479
   74HFI     C2 1368   0.607   1.128   2.474  0.5718  0.9089  0.3406
   74HFI     F1 1369   0.516   1.129   2.380 -0.5778  0.2703  0.3880
   74HFI     F2 1370   0.545   1.167   2.593  0.2706  0.2038 -0.1104
   74HFI     F3 1371   0.642   1.003   2.493  0.3781  0.0280  0.1796
   74HFI     C3 1372   0.756   1.224   2.301 -0.0562 -0.1615 -0.8531
   74HFI     F4 1373   0.808   1.102   2.268 -0.0598 -0.0408 -0.1495
   74HFI     F5 1374   0.851   1.318   2.276  0.0938  0.3932  0.2662
   74HFI     F6 1375   0.657   1.257   2.211  0.1934 -0.1385 -0.1997
   74HFI     H1 1376   0.835   1.165   2.602  0.5818  0.6173  1.0665
   74HFI     H2 1377   0.664   1.331   2.454  2.1110  1.7499  0.9229
   75HFI     O1 1378   3.323   1.668   1.319  0.0319  0.0488  0.1450
   75HFI     C1 1379   3.349   1.579   1.426 -0.4417  0.1902 -0.1845
   75HFI     C2 1380   3.219   1.542   1.505 -0.0112  0.2595 -0.5343
   75HFI     F1 1381   3.170   1.646   1.583  0.4846 -0.6095 -0.4353
   75HFI     F2 1382   3.239   1.430   1.583  0.1699 -0.2917 -0.2206
   75HFI     F3 1383   3.115   1.507   1.422  0.1431  0.3139 -0.4188
   75HFI     C3 1384   3.463   1.630   1.519 -0.4977  0.5205  0.4346
   75HFI     F4 1385   3.480   1.535   1.611  0.6597 -0.6425 -0.4792
   75HFI     F5 1386   3.432   1.751   1.575 -0.0903  0.4811  0.1020
   75HFI     F6 1387   3.583   1.646   1.459 -0.1159 -0.4657  0.6063
   75HFI     H1 1388   3.363   1.753   1.345 -2.5532  0.6353  2.3837
   75HFI     H2 1389   3.371   1.477   1.392 -0.0851 -0.1120  0.9263
   76HFI     O1 1390   1.170   2.863   1.583 -0.4942 -0.1845  0.6348
   76HFI     C1 1391   1.089   2.807   1.474  0.2014  0.8130  0.2536
   76HFI     C2 1392   1.162   2.812   1.338  0.1317 -0.2755  0.2812
   76HFI     F1 1393   1.099   2.751   1.242 -0.0907 -0.0271  0.4618
   76HFI     F2 1394   1.282   2.754   1.342  0.0025 -1.1948 -0.0762
   76HFI     F3 1395   1.178   2.940   1.307  0.4146 -0.7082  0.1124
   76HFI     C3 1396   0.938   2.850   1.467 -0.2807 -0.1085  0.4539
   76HFI     F4 1397   0.863   2.778   1.376  0.1024 -0.2653 -0.0033
   76HFI     F5 1398   0.932   2.984   1.446  0.3488  0.3068  0.0808
   76HFI     F6 1399   0.875   2.827   1.590  0.1058 -0.3279 -0.3770
   76HFI     H1 1400   1.201   2.951   1.553  0.1149 -1.2623 -2.0264
   76HFI     H2 1401   1.090   2.700   1.499 -0.5378  0.8902  0.6372
   77HFI     O1 1402   0.370   1.009   0.288  0.2133  0.7528  0.1256
   77HFI     C1 1403   0.496   0.950   0.331 -0.1602  0.0416 -0.2054
   77HFI     C2 1404   0.492   0.794   0.339  0.7366  0.3650 -0.1741
   77HFI     F1 1405   0.440   0.747   0.445  0.4301 -0.3705 -0.6354
   77HFI     F2 1406   0.616   0.744   0.333  0.6015 -0.6585 -0.0264
   77HFI     F3 1407   0.429   0.740   0.233 -0.3113 -0.5900 -0.3105
   77HFI     C3 1408   0.559   1.012   0.467  0.3935  0.8801 -0.6943
   77HFI     F4 1409   0.594   1.143   0.445 -0.0780  1.0010  0.4640
   77HFI     F5 1410   0.663   0.939   0.514 -0.4154 -0.7003  0.2155
   77HFI     F6 1411   0.464   1.009   0.561  0.2152 -0.2602  0.6189
   77HFI     H1 1412   0.347   0.979   0.198 -1.9102 -2.0733  1.5238
   77HFI     H2 1413   0.575   0.973   0.258  1.8202 -1.0649  1.5574
   78HFI     O1 1414   2.707   2.389   1.553 -0.3901  0.0838  0.6781
   78HFI     C1 1415   2.806   2.358   1.452 -0.5845 -0.2040 -0.2486
   78HFI     C2 1416   2.908   2.471   1.434  0.4850  0.7485  0.7437
   78HFI     F1 1417   2.950   2.510   1.556  0.2435  0.1964  0.0509
   78HFI     F2 1418   2.853   2.577   1.375  0.1947  0.1157  0.5226
   78HFI     F3 1419   3.017   2.434   1.366 -0.6049  0.1894 -0.0984
   78HFI     C3 1420   2.739   2.317   1.323 -0.1873  0.1977 -0.3933
   78HFI     F4 1421   2.652   2.417   1.290 -0.3697 -0.0181  0.0701
   78HFI     F5 1422   2.668   2.206   1.342 -0.1241  0.1500  0.4926
   78HFI     F6 1423   2.826   2.306   1.214 -0.0534 -0.0756  0.0447
   78HFI     H1 1424   2.749   2.439   1.625  0.2094 -0.6188  0.8078
   78HFI     H2 1425   2.865   2.267   1.471 -1.1692 -0.3341  0.9809
   79HFI     O1 1426   0.435   2.569   3.509  0.5168  0.0533  0.0362
   79HFI     C1 1427   0.514   2.464   3.559 -0.0002  0.3474  0.0163
   79HFI     C2 1428   0.590   2.510   3.685  0.4977  0.6427  0.0691
   79HFI     F1 1429   0.501   2.557   3.767  0.2427  0.3290  0.0580
   79HFI     F2 1430   0.675   2.612   3.657 -0.0619  0.0117  0.1541
   79HFI     F3 1431   0.656   2.421   3.756 -0.3704  0.1396 -0.3654
   79HFI     C3 1432   0.615   2.408   3.455 -0.0899  0.1981  0.2415
   79HFI     F4 1433   0.556   2.393   3.340  0.1697  0.6592  0.0256
   79HFI     F5 1434   0.656   2.286   3.491  0.6321  0.2514  0.1217
   79HFI     F6 1435   0.716   2.489   3.430  0.3095 -0.4408 -0.0305
   79HFI     H1 1436   0.484   2.646   3.477 -0.3007  0.1562 -1.0211
   79HFI     H2 1437   0.441   2.386   3.587 -2.1121  2.3010  0.1277
   80HFI     O1 1438   0.192   3.347   3.686 -0.1851  0.3011 -0.2735
   80HFI     C1 1439   0.164   3.246   3.789  0.5214  0.5074 -0.4866
   80HFI     C2 1440   0.011   3.234   3.831 -0.0591 -0.0840  0.1961
   80HFI     F1 1441  -0.001   3.155   3.938  0.4399 -0.1062  0.0157
   80HFI     F2 1442  -0.059   3.187   3.729  0.0348 -0.0569 -0.0447
   80HFI     F3 1443  -0.038   3.360   3.855 -0.2861 -0.1866 -0.0707
   80HFI     C3 1444   0.247   3.281   3.921  0.3579  1.0725 -0.6946
   80HFI     F4 1445   0.179   3.369   3.990 -0.5891 -0.1059 -0.1582
   80HFI     F5 1446   0.368   3.331   3.894 -0.8256  0.1774  0.1673
   80HFI     F6 1447   0.269   3.175   4.007 -0.2299 -0.0086  0.1096
   80HFI     H1 1448   0.123   3.415   3.687 -0.6157 -0.1310 -0.4348
   80HFI     H2 1449   0.203   3.148   3.758  0.7413  0.7207 -0.8853
   81HFI     O1 1450   1.120   0.264   3.631 -0.3628 -0.1015 -0.0942
   81HFI     C1 1451   0.992   0.227   3.589  0.8113 -0.2684  0.3072
   81HFI     C2 1452   0.908   0.175   3.711  0.0504  0.1774 -0.3882
   81HFI     F1 1453   0.773   0.175   3.684 -0.3222 -0.3859  0.3747
   81HFI     F2 1454   0.927   0.261   3.813 -0.2460  0.3876 -0.2973
   81HFI     F3 1455   0.946   0.050   3.757  0.6482  0.2915  0.0727
   81HFI     C3 1456   0.995   0.131   3.471  0.7864 -0.5347 -0.2118
   81HFI     F4 1457   0.865   0.084   3.450 -0.7766  0.3683  0.1141
   81HFI     F5 1458   1.069   0.027   3.505  0.0069  0.1714  0.0061
   81HFI     F6 1459   1.045   0.179   3.354  0.3577  0.5507  0.1502
   81HFI     H1 1460   1.169   0.188   3.666  1.2127  0.0932 -1.7749
   81HFI     H2 1461   0.945   0.321   3.557  0.2911 -0.9726 -1.0626
   82HFI     O1 1462   1.296   2.836   0.813 -0.2067 -0.0037  0.2520
   82HFI     C1 1463   1.442   2.857   0.829  0.0233  0.5741 -0.0724
   82HFI     C2 1464   1.528   2.734   0.787  0.0647 -0.4902  0.4823
   82HFI     F1 1465   1.533   2.636   0.879 -0.0310  0.9168 -0.3241
   82HFI     F2 1466   1.655   2.766   0.769  0.2897  0.1483  0.0052
   82HFI     F3 1467   1.481   2.683   0.669  0.4308 -0.4639 -0.2925
   82HFI     C3 1468   1.462   2.902   0.973  0.4198 -0.0049  0.7857
   82HFI     F4 1469   1.392   3.017   0.982 -0.3726 -0.2258  0.3285
   82HFI     F5 1470   1.598   2.930   0.994  0.4005 -0.4411 -0.2121
   82HFI     F6 1471   1.402   2.812   1.063 -0.1653  0.2618 -0.5673
   82HFI     H1 1472   1.272   2.789   0.731  1.3242  2.0218 -1.4219
   82HFI     H2 1473   1.473   2.943   0.769  0.4483  0.1882 -0.4175
   83HFI     O1 1474   2.047   1.830   3.797  0.2539  0.0639  0.0059
   83HFI     C1 1475   1.949   1.833   3.909  0.2737 -0.3551  0.0170
   83HFI     C2 1476   1.801   1.852   3.859 -0.7710  0.3614 -0.3147
   83HFI     F1 1477   1.771   1.774   3.755  0.4111 -0.0740  0.2990
   83HFI     F2 1478   1.776   1.978   3.811 -0.1574  0.2383  0.1616
   83HFI     F3 1479   1.705   1.823   3.956  0.0297 -0.1832 -0.0857
   83HFI     C3 1480   1.990   1.944   4.009 -0.1405 -0.1351 -0.5095
   83HFI     F4 1481   2.000   2.065   3.938 -0.4077  0.3771  0.2800
   83HFI     F5 1482   2.109   1.914   4.062 -0.2473  0.1037 -0.2790
   83HFI     F6 1483   1.909   1.955   4.113 -0.6753  0.4193 -0.3564
   83HFI     H1 1484   2.063   1.923   3.774  0.1809  0.2587  0.7055
   83HFI     H2 1485   1.952   1.736   3.962  0.9388  1.2868  3.1079
   84HFI     O1 1486   3.046   1.876   0.343  0.2091  0.5533  0.1554
   84HFI     C1 1487   3.137   1.810   0.431  0.1299  0.2192  0.3787
   84HFI     C2 1488   3.142   1.655   0.409  0.0932  0.3648  0.9444
   84HFI     F1 1489   3.016   1.596   0.396  0.1777 -0.1477 -0.1106
   84HFI     F2 1490   3.216   1.596   0.506 -0.0287 -0.3101  0.1988
   84HFI     F3 1491   3.217   1.637   0.298  0.2606  0.2551 -0.0615
   84HFI     C3 1492   3.117   1.854   0.578 -0.9017  0.4669  0.3264
   84HFI     F4 1493   3.072   1.987   0.579  0.4931  0.1556  0.2824
   84HFI     F5 1494   3.239   1.854   0.637  0.0102  0.3033 -0.4970
   84HFI     F6 1495   3.032   1.776   0.639 -0.3937 -0.1410  0.5496
   84HFI     H1 1496   2.973   1.904   0.402  0.2097 -0.5276  0.6779
   84HFI     H2 1497   3.234   1.846   0.397  0.3166 -1.2926 -0.7639
   85HFI     O1 1498   3.199   1.559   0.875 -0.5497  0.8583  0.4597
   85HFI     C1 1499   3.215   1.415   0.895 -0.6536 -0.1747 -0.9441
   85HFI     C2 1500   3.094   1.358   0.974 -0.7687 -0.5735  0.5225
   85HFI     F1 1501   3.096   1.227   0.976 -0.1860  0.3766  0.0326
   85HFI     F2 1502   2.977   1.398   0.925 -0.3076 -0.3475  0.4848
   85HFI     F3 1503   3.100   1.405   1.103 -0.0169  0.4343 -0.4434
   85HFI     C3 1504   3.355   1.379   0.970 -0.0229 -0.7099  0.4760
   85HFI     F4 1505   3.458   1.419   0.898  0.0171  0.5979 -0.0739
   85HFI     F5 1506   3.367   1.248   0.992  0.1132  0.4777 -0.1833
   85HFI     F6 1507   3.358   1.446   1.084 -0.3405  0.0884  0.1352
   85HFI     H1 1508   3.180   1.587   0.966 -1.5540 -1.0478  0.8603
   85HFI     H2 1509   3.220   1.362   0.799 -1.1550 -1.4613 -0.2814
   86HFI     O1 1510   1.878   2.944   1.577  0.0346  0.4882 -0.1290
   86HFI     C1 1511   1.878   2.852   1.463 -0.4697  0.3464 -0.7230
   86HFI     C2 1512   1.831   2.921   1.329  1.0837  0.2205 -0.4466
   86HFI     F1 1513   1.896   3.035   1.301  0.2996 -0.0038 -0.1814
   86HFI     F2 1514   1.698   2.946   1.340 -0.0236 -0.1459  0.0939
   86HFI     F3 1515   1.855   2.840   1.224  0.1766  0.8304  0.4392
   86HFI     C3 1516   1.795   2.735   1.504  0.0991 -0.3382  0.8542
   86HFI     F4 1517   1.760   2.668   1.393 -0.3548  0.0588 -0.0247
   86HFI     F5 1518   1.683   2.781   1.569 -0.0218  0.3399 -0.4307
   86HFI     F6 1519   1.856   2.646   1.587  0.5610  1.2666 -0.1861
   86HFI     H1 1520   1.797   2.997   1.586 -0.6295 -0.5176 -0.0547
   86HFI     H2 1521   1.981   2.819   1.447  0.8250  3.7029  0.2563
   87HFI     O1 1522   3.218   1.616   3.716  0.2580  0.4114 -0.4334
   87HFI     C1 1523   3.319   1.517   3.685  0.6998 -0.0910  0.5475
   87HFI     C2 1524   3.439   1.530   3.788  0.3006  0.2944  0.7313
   87HFI     F1 1525   3.536   1.438   3.765  0.0439  0.0886  0.2591
   87HFI     F2 1526   3.401   1.506   3.917  0.4554 -0.1132 -0.6468
   87HFI     F3 1527   3.500   1.650   3.785  0.3146  0.0181  0.0557
   87HFI     C3 1528   3.376   1.528   3.532  0.3797  0.1778  0.1738
   87HFI     F4 1529   3.283   1.584   3.448 -0.0503 -0.3678  0.2947
   87HFI     F5 1530   3.407   1.406   3.487  0.0857  0.5067 -0.3077
   87HFI     F6 1531   3.492   1.601   3.529 -0.1779  0.2753 -0.1227
   87HFI     H1 1532   3.248   1.699   3.674  0.5656  1.0691  1.0212
   87HFI     H2 1533   3.265   1.423   3.696 -1.3851  1.0197  0.0175
   88HFI     O1 1534   3.067   0.988   3.332 -0.4201 -0.3923  0.3225
   88HFI     C1 1535   3.144   1.080   3.249 -0.1956  0.3143 -0.5585
   88HFI     C2 1536   3.123   1.061   3.095  0.3482  0.1342  0.2657
   88HFI     F1 1537   3.192   1.166   3.035  0.1676 -0.1740  0.6863
   88HFI     F2 1538   2.992   1.075   3.060 -0.2351  0.8965  0.3085
   88HFI     F3 1539   3.165   0.944   3.048  0.1814 -0.7877 -0.3827
   88HFI     C3 1540   3.295   1.110   3.298 -0.5571 -0.3052 -0.1288
   88HFI     F4 1541   3.320   1.243   3.296  0.5724 -0.5856 -1.1038
   88HFI     F5 1542   3.384   1.030   3.226  0.4826 -0.8071 -0.4579
   88HFI     F6 1543   3.304   1.064   3.426  0.4847  0.4451  0.0328
   88HFI     H1 1544   3.124   0.912   3.354 -0.6029 -0.6614 -0.1212
   88HFI     H2 1545   3.091   1.175   3.265  1.5546  1.1556  0.3321
   89HFI     O1 1546   1.193   0.948   2.479  0.2460  0.2007 -0.2748
   89HFI     C1 1547   1.256   0.972   2.349  0.0287 -0.1111  0.3163
   89HFI     C2 1548   1.395   0.934   2.344 -0.5258 -0.6583 -0.3694
   89HFI     F1 1549   1.449   0.953   2.222  0.1175  0.1568  0.7880
   89HFI     F2 1550   1.402   0.794   2.368 -0.1513  0.1359  0.3299
   89HFI     F3 1551   1.473   0.994   2.441  0.5440  0.6878 -0.0737
   89HFI     C3 1552   1.225   1.124   2.318  0.1398 -0.6161 -0.1440
   89HFI     F4 1553   1.093   1.145   2.302  0.3407 -0.2619  0.5571
   89HFI     F5 1554   1.291   1.160   2.197 -0.1729  0.2942 -0.0817
   89HFI     F6 1555   1.268   1.202   2.416  0.0639  0.1813  0.2148
   89HFI     H1 1556   1.233   1.000   2.551 -1.8401  1.4303  0.0506
   89HFI     H2 1557   1.201   0.915   2.273 -0.3356  0.2139  0.3377
   90HFI     O1 1558   2.366   0.416   3.481 -0.3427  0.8188  0.1724
   90HFI     C1 1559   2.409   0.297   3.405 -0.3236  0.8682  0.2249
   90HFI     C2 1560   2.546   0.318   3.334 -0.0771  0.0510 -0.1413
   90HFI     F1 1561   2.544   0.442   3.282 -0.8216 -0.0815 -0.3303
   90HFI     F2 1562   2.565   0.242   3.228 -0.8298 -0.1114 -0.2974
   90HFI     F3 1563   2.654   0.310   3.420  0.0530 -0.3588  0.1813
   90HFI     C3 1564   2.289   0.261   3.309 -0.6167 -1.1353  0.4724
   90HFI     F4 1565   2.279   0.359   3.222 -0.2333 -0.0005  0.1236
   90HFI     F5 1566   2.179   0.255   3.379  0.2780  0.0862 -0.2994
   90HFI     F6 1567   2.315   0.146   3.250  0.5900 -0.0139 -0.2369
   90HFI     H1 1568   2.359   0.492   3.421  3.1845  0.3175 -0.9829
   90HFI     H2 1569   2.425   0.213   3.474  1.9973 -0.0837 -1.4139
   91HFI     O1 1570   0.104   2.290   2.441  0.1286  0.0188 -0.2332
   91HFI     C1 1571   0.004   2.274   2.334  0.3441  0.8462  0.2769
   91HFI     C2 1572  -0.127   2.350   2.375 -0.3503  0.4844  0.0248
   91HFI     F1 1573  -0.094   2.479   2.401  0.2249  0.4053 -0.0733
   91HFI     F2 1574  -0.170   2.304   2.494 -0.3938  0.0627 -0.1536
   91HFI     F3 1575  -0.223   2.335   2.273  0.4929  0.4375 -0.3443
   91HFI     C3 1576  -0.017   2.121   2.303  0.2273 -0.0099  0.6724
   91HFI     F4 1577   0.098   2.067   2.252 -0.3097  0.2342 -0.1318
   91HFI     F5 1578  -0.109   2.105   2.215 -0.3374 -0.0833 -0.0952
   91HFI     F6 1579  -0.050   2.049   2.407 -0.1129  0.3709 -0.3888
   91HFI     H1 1580   0.083   2.215   2.499 -0.7157 -0.3122 -0.9637
   91HFI     H2 1581   0.039   2.316   2.239  0.7294 -1.4298 -0.6129
   92HFI     O1 1582   0.741   3.208   1.607  0.1792 -0.2598  0.0756
   92HFI     C1 1583   0.737   3.288   1.482 -0.7015  0.4032 -0.2279
   92HFI     C2 1584   0.839   3.411   1.500 -0.0531 -0.2713  0.1179
   92HFI     F1 1585   0.839   3.499   1.398 -0.2224 -0.3289 -0.2723
   92HFI     F2 1586   0.968   3.372   1.510 -0.0018 -0.4222 -0.3525
   92HFI     F3 1587   0.811   3.488   1.606  0.1560 -0.3644  0.2300
   92HFI     C3 1588   0.590   3.327   1.442 -0.1331 -0.5118  0.5896
   92HFI     F4 1589   0.521   3.392   1.541 -0.2017  0.2213 -0.5453
   92HFI     F5 1590   0.515   3.217   1.406  0.1740  0.2410  0.3870
   92HFI     F6 1591   0.596   3.407   1.336  0.2868  0.1786 -0.2230
   92HFI     H1 1592   0.657   3.158   1.610 -0.5690  0.9340 -0.9507
   92HFI     H2 1593   0.768   3.228   1.396  1.2069  1.9459 -0.6461
   93HFI     O1 1594   1.318   0.078   0.735  0.4104 -0.1970 -0.3232
   93HFI     C1 1595   1.378   0.196   0.677 -0.0163  0.0571 -0.0941
   93HFI     C2 1596   1.350   0.325   0.758 -0.7292  0.5151 -0.3416
   93HFI     F1 1597   1.411   0.320   0.879 -0.1909 -0.6495 -0.4203
   93HFI     F2 1598   1.215   0.346   0.771 -0.1773  0.3810  0.3106
   93HFI     F3 1599   1.397   0.434   0.691  0.3270 -0.0710  0.5079
   93HFI     C3 1600   1.349   0.204   0.524  0.2538  0.4144 -0.2548
   93HFI     F4 1601   1.212   0.202   0.504 -0.2374 -0.2879 -0.0647
   93HFI     F5 1602   1.404   0.091   0.467  0.0245  0.1713 -0.1825
   93HFI     F6 1603   1.405   0.309   0.463  0.4454 -0.2888  0.1668
   93HFI     H1 1604   1.224   0.104   0.741  0.0929 -0.7803 -2.2809
   93HFI     H2 1605   1.485   0.172   0.687 -0.1292  0.4333  2.4673
   94HFI     O1 1606   3.303   3.364   3.369  0.3730  0.0838  0.0623
   94HFI     C1 1607   3.213   3.416   3.475 -0.0093  0.0552  0.2877
   94HFI     C2 1608   3.069   3.434   3.423  0.2739 -0.3756 -0.5605
   94HFI     F1 1609   2.969   3.483   3.512  0.1407 -0.1878  0.3066
   94HFI     F2 1610   3.020   3.311   3.395 -0.1257  0.3992  0.4549
   94HFI     F3 1611   3.061   3.515   3.313 -0.0826  0.3812  0.2575
   94HFI     C3 1612   3.264   3.548   3.543  0.3369  0.2126  0.7930
   94HFI     F4 1613   3.195   3.585   3.654  0.4175 -0.0193  0.4659
   94HFI     F5 1614   3.275   3.659   3.460 -0.0186  0.4469 -0.2039
   94HFI     F6 1615   3.389   3.521   3.577 -0.4235 -0.2896  0.4631
   94HFI     H1 1616   3.282   3.273   3.342 -2.1277  0.8312 -0.7391
   94HFI     H2 1617   3.205   3.342   3.556 -0.8764  2.0985  2.1289
   95HFI     O1 1618   2.259   2.417   3.344  0.8282 -0.2203  0.1814
   95HFI     C1 1619   2.379   2.497   3.324 -0.4592 -0.4439  0.4694
   95HFI     C2 1620   2.484   2.399   3.258  0.2505 -0.3108 -1.1147
   95HFI     F1 1621   2.494   2.284   3.325  0.0631  0.2201  0.1107
   95HFI     F2 1622   2.600   2.455   3.253 -0.5882  0.2956  0.0450
   95HFI     F3 1623   2.449   2.367   3.140 -0.3968  0.0321  0.7105
   95HFI     C3 1624   2.435   2.569   3.453  0.4352  0.5909  1.3953
   95HFI     F4 1625   2.510   2.483   3.530  0.0725  0.1861  0.0051
   95HFI     F5 1626   2.334   2.622   3.538  0.1309  0.0535 -0.2253
   95HFI     F6 1627   2.521   2.664   3.425 -0.8108  0.0224  0.2885
   95HFI     H1 1628   2.264   2.340   3.285  0.7825  0.9476 -1.3925
   95HFI     H2 1629   2.360   2.577   3.252 -0.6289 -1.0805 -0.2053
   96HFI     O1 1630   1.049   1.198   0.873 -0.3634 -0.3399 -0.1110
   96HFI     C1 1631   1.061   1.143   0.736 -0.2855 -0.3049  0.5868
   96HFI     C2 1632   1.203   1.147   0.682  0.6484 -0.5573  0.2333
   96HFI     F1 1633   1.284   1.077   0.756 -0.4973  0.2000 -0.1871
   96HFI     F2 1634   1.255   1.273   0.685 -0.2553 -0.4539 -0.2356
   96HFI     F3 1635   1.217   1.110   0.548  0.3639 -0.5199  0.3621
   96HFI     C3 1636   0.952   1.203   0.640 -0.2180  0.0762  0.0832
   96HFI     F4 1637   0.844   1.224   0.713  0.3614  0.2744  0.0739
   96HFI     F5 1638   0.926   1.120   0.536  1.4350  0.4222 -0.2098
   96HFI     F6 1639   0.992   1.320   0.583  0.1015 -0.1589 -0.0513
   96HFI     H1 1640   0.967   1.247   0.885  1.4471  2.4172  1.7318
   96HFI     H2 1641   1.027   1.038   0.742  0.5588 -0.8830 -3.0575
   97HFI     O1 1642   1.568   1.005   1.388  0.5222  0.0516 -0.0647
   97HFI     C1 1643   1.453   1.028   1.479 -0.0164  0.2582 -0.8521
   97HFI     C2 1644   1.382   0.895   1.512 -0.0281 -0.7730 -0.0505
   97HFI     F1 1645   1.323   0.839   1.412 -0.2896  0.3824  0.5017
   97HFI     F2 1646   1.284   0.912   1.604 -0.4404 -0.2366  0.2596
   97HFI     F3 1647   1.465   0.803   1.563 -0.0436  0.5907 -0.5842
   97HFI     C3 1648   1.361   1.135   1.424  0.2338  0.4080  0.3211
   97HFI     F4 1649   1.264   1.168   1.515 -0.4444  0.1357  0.0433
   97HFI     F5 1650   1.291   1.082   1.316  0.7068 -0.0520 -0.2719
   97HFI     F6 1651   1.428   1.244   1.381  0.1834 -0.4216  0.2703
   97HFI     H1 1652   1.635   0.942   1.422 -1.6439 -1.0742  2.3132
   97HFI     H2 1653   1.478   1.062   1.581 -1.3781  2.6550 -1.2674
   98HFI     O1 1654   1.272   0.765   0.776  0.6955 -0.1309 -0.3918
   98HFI     C1 1655   1.305   0.791   0.912  0.1786  0.1795 -0.3657
   98HFI     C2 1656   1.460   0.773   0.938 -0.2911  0.9518  0.1301
   98HFI     F1 1657   1.496   0.806   1.061  0.2245 -0.3521  0.2539
   98HFI     F2 1658   1.524   0.849   0.858  0.1519  0.0996 -0.1756
   98HFI     F3 1659   1.497   0.644   0.925  0.1612 -0.1324  0.1621
   98HFI     C3 1660   1.208   0.722   1.012 -0.4290  0.3798  0.0408
   98HFI     F4 1661   1.081   0.741   0.977 -0.0410 -0.3581  0.4317
   98HFI     F5 1662   1.224   0.786   1.132  0.6828 -0.0105 -0.1589
   98HFI     F6 1663   1.238   0.585   1.019  0.2369 -0.3311 -0.6327
   98HFI     H1 1664   1.279   0.669   0.757  0.8806 -0.1972  0.0126
   98HFI     H2 1665   1.273   0.895   0.924 -0.8066 -0.1613  0.0929
   99HFI     O1 1666   1.689   0.743   3.108 -0.1215  0.3323 -0.7138
   99HFI     C1 1667   1.613   0.635   3.167 -0.5165 -0.4811  0.4390
   99HFI     C2 1668   1.474   0.686   3.214 -0.8383  0.7082 -0.4469
   99HFI     F1 1669   1.488   0.761   3.324 -0.0243  0.0178  0.3094
   99HFI     F2 1670   1.383   0.592   3.229 -0.2332  0.2860  0.1598
   99HFI     F3 1671   1.423   0.762   3.115 -0.2532 -0.1647 -0.0039
   99HFI     C3 1672   1.703   0.581   3.283  0.8006  0.0163  0.1376
   99HFI     F4 1673   1.628   0.508   3.375 -0.1373  0.4662  0.9676
   99HFI     F5 1674   1.765   0.677   3.351 -0.1651  0.4130  0.2263
   99HFI     F6 1675   1.799   0.500   3.237 -0.2296 -0.1301  0.3033
   99HFI     H1 1676   1.783   0.717   3.108  0.1239  1.1505  1.3778
   99HFI     H2 1677   1.586   0.560   3.091 -0.6247  0.4417 -0.4511
  100HFI     O1 1678   0.334   0.155   1.551 -0.1476  0.0646  0.1650
  100HFI     C1 1679   0.195   0.129   1.547  0.5809  0.0230  0.3408
  100HFI     C2 1680   0.158  -0.004   1.470  0.1519 -0.4091  0.1111
  100HFI     F1 1681   0.239  -0.101   1.524 -0.1758  0.2739 -0.0071
  100HFI     F2 1682   0.193   0.014   1.346 -0.0622 -0.0262 -0.1144
  100HFI     F3 1683   0.031  -0.039   1.476  0.5612 -0.3053  0.0646
  100HFI     C3 1684   0.118   0.259   1.504  0.6215 -0.7709  0.0650
  100HFI     F4 1685  -0.015   0.232   1.491  0.1864  0.0177  0.5404
  100HFI     F5 1686   0.171   0.310   1.394  0.3756  0.6637 -0.5033
  100HFI     F6 1687   0.124   0.358   1.593 -0.2964 -0.0634  0.1830
  100HFI     H1 1688   0.383   0.087   1.600  0.0875 -0.6427 -1.0480
  100HFI     H2 1689   0.151   0.125   1.648 -1.0495 -0.5746 -0.3806
  101HFI     O1 1690   0.998   2.979   0.483  0.1335  0.1792 -0.1102
  101HFI     C1 1691   0.942   2.844   0.511 -0.4904  0.2005  0.2554
  101HFI     C2 1692   0.787   2.836   0.523  0.2742  0.0785  0.1207
  101HFI     F1 1693   0.735   2.920   0.426  0.0821 -0.0691 -0.2239
  101HFI     F2 1694   0.749   2.894   0.643 -0.0825  0.2202 -0.3731
  101HFI     F3 1695   0.726   2.713   0.513 -0.1557 -0.2138  0.0891
  101HFI     C3 1696   1.029   2.774   0.617 -0.1276  0.3448 -0.3272
  101HFI     F4 1697   1.022   2.851   0.730 -0.8672  0.2574  0.6578
  101HFI     F5 1698   1.159   2.766   0.571 -0.3788  0.5564  0.1891
  101HFI     F6 1699   0.992   2.649   0.655  0.4905 -0.5037  0.0586
  101HFI     H1 1700   0.922   3.029   0.450 -0.7627 -1.0803 -0.0038
  101HFI     H2 1701   0.960   2.781   0.423 -1.7308 -2.9468  2.1502
  102HFI     O1 1702   2.205   3.200   3.377 -0.0107 -0.5252  0.0644
  102HFI     C1 1703   2.267   3.141   3.493  0.6211  0.1834 -0.5802
  102HFI     C2 1704   2.337   3.239   3.589  0.3780 -0.1565  0.7287
  102HFI     F1 1705   2.457   3.286   3.545 -0.2701  0.5283 -0.8141
  102HFI     F2 1706   2.359   3.176   3.706  0.0691 -0.7859 -0.0665
  102HFI     F3 1707   2.261   3.345   3.619 -0.8938  0.0550 -0.3270
  102HFI     C3 1708   2.356   3.014   3.463 -0.4390 -0.4171 -0.5029
  102HFI     F4 1709   2.321   2.919   3.549 -0.0185  0.1807  0.1883
  102HFI     F5 1710   2.487   3.029   3.471  0.5961  0.1028  0.7635
  102HFI     F6 1711   2.328   2.964   3.337 -0.1925  0.0457  0.2532
  102HFI     H1 1712   2.276   3.203   3.310  0.0356 -2.1508  0.0142
  102HFI     H2 1713   2.192   3.099   3.560  2.4435  1.3843  2.2764
  103HFI     O1 1714   2.091   3.363   1.461  0.2082 -0.1741 -0.0122
  103HFI     C1 1715   1.957   3.414   1.412  0.3936 -0.2551 -0.8270
  103HFI     C2 1716   1.983   3.507   1.287 -0.8188 -0.0404 -0.3408
  103HFI     F1 1717   2.054   3.442   1.192 -0.1616  0.2866 -0.1573
  103HFI     F2 1718   2.056   3.619   1.313 -0.1401  0.1900 -0.1458
  103HFI     F3 1719   1.868   3.550   1.234  0.2951 -0.6225 -0.0364
  103HFI     C3 1720   1.857   3.471   1.520 -0.8640  0.0514  0.0466
  103HFI     F4 1721   1.739   3.499   1.456  0.0830  0.4701 -0.0981
  103HFI     F5 1722   1.906   3.589   1.568  0.1691  0.1611 -0.3623
  103HFI     F6 1723   1.834   3.380   1.620  0.1610  0.0204 -0.5008
  103HFI     H1 1724   2.093   3.322   1.549  1.4441  2.0254  1.0304
  103HFI     H2 1725   1.909   3.327   1.366 -0.2487  0.0436 -0.7328
  104HFI     O1 1726   1.946   3.434   2.977 -0.4467 -0.5732 -0.1655
  104HFI     C1 1727   1.984   3.513   2.868 -0.0503 -0.3105 -0.3151
  104HFI     C2 1728   2.027   3.660   2.905 -0.5953 -0.0134 -1.0149
  104HFI     F1 1729   2.118   3.650   3.004 -0.3296 -0.1528  0.1518
  104HFI     F2 1730   1.926   3.740   2.943  0.6948  0.3639 -0.0886
  104HFI     F3 1731   2.088   3.714   2.796 -0.3872  0.3980  0.2586
  104HFI     C3 1732   1.872   3.511   2.753  0.0006  0.0239 -0.1125
  104HFI     F4 1733   1.760   3.563   2.797 -0.3078  0.1902  0.2787
  104HFI     F5 1734   1.846   3.381   2.713  1.0478 -0.5719  0.3404
  104HFI     F6 1735   1.903   3.573   2.647  0.3104 -0.2596 -0.3747
  104HFI     H1 1736   1.880   3.480   3.031  0.1118  1.6380 -1.3073
  104HFI     H2 1737   2.068   3.464   2.817 -0.7742  0.9045 -2.7909
  105HFI     O1 1738   2.022   2.344   0.976  0.4248  0.3449  0.0599
  105HFI     C1 1739   1.943   2.423   1.071  0.7599 -0.0956 -0.3093
  105HFI     C2 1740   1.830   2.517   1.010 -0.0579 -0.2642 -0.6123
  105HFI     F1 1741   1.758   2.448   0.913 -0.0145  0.1108 -0.3390
  105HFI     F2 1742   1.876   2.631   0.950  0.0421  0.4216  0.2063
  105HFI     F3 1743   1.742   2.559   1.105  0.2533 -0.6563 -0.1772
  105HFI     C3 1744   2.033   2.500   1.179 -0.0056  0.0117 -0.5455
  105HFI     F4 1745   2.130   2.409   1.223 -0.2314  0.1781  0.1580
  105HFI     F5 1746   1.957   2.539   1.287 -0.3109 -0.6129  0.1887
  105HFI     F6 1747   2.100   2.614   1.139 -0.6716 -0.1127 -0.7856
  105HFI     H1 1748   2.114   2.335   1.008 -0.0118 -1.8933  0.7986
  105HFI     H2 1749   1.891   2.351   1.135  0.6216  0.6924  0.4692
  106HFI     O1 1750   3.214   0.932   1.526  0.3328 -0.5373 -0.6285
  106HFI     C1 1751   3.216   1.009   1.401  0.0922  0.2776 -0.5519
  106HFI     C2 1752   3.335   1.102   1.403 -0.6649 -0.1335  0.3428
  106HFI     F1 1753   3.346   1.170   1.519 -0.3247 -0.6476  0.1323
  106HFI     F2 1754   3.317   1.195   1.311 -0.3163 -0.1734  0.8686
  106HFI     F3 1755   3.453   1.046   1.380  0.0593  0.2632  0.8035
  106HFI     C3 1756   3.077   1.076   1.375  0.1259 -0.3425 -0.4059
  106HFI     F4 1757   3.064   1.173   1.471 -0.2164  0.1312 -0.0164
  106HFI     F5 1758   2.981   0.975   1.385 -0.2311  0.1500  0.4197
  106HFI     F6 1759   3.067   1.129   1.252 -0.1663 -0.0161  0.5048
  106HFI     H1 1760   3.139   0.966   1.576  0.9416  0.3534 -0.3100
  106HFI     H2 1761   3.229   0.931   1.325 -1.6707 -1.8637  1.2984
  107HFI     O1 1762   3.175   0.374   1.127  0.3712  0.3728 -0.2573
  107HFI     C1 1763   3.282   0.457   1.201  0.3769  0.7415 -0.1143
  107HFI     C2 1764   3.217   0.598   1.212  0.2596 -0.9241 -1.1180
  107HFI     F1 1765   3.081   0.613   1.194  0.0015 -0.4393  0.4323
  107HFI     F2 1766   3.268   0.679   1.116  0.1723  0.2107 -0.1904
  107HFI     F3 1767   3.242   0.658   1.335  0.1232  0.4837  0.0985
  107HFI     C3 1768   3.419   0.468   1.128  0.0888  0.4270  0.0998
  107HFI     F4 1769   3.466   0.345   1.123 -0.1328 -0.3344  0.0183
  107HFI     F5 1770   3.507   0.542   1.198 -0.0394  0.1973 -0.1171
  107HFI     F6 1771   3.428   0.518   1.003 -0.1476 -0.0680 -0.3208
  107HFI     H1 1772   3.219   0.314   1.065  1.2559  0.0083  0.7072
  107HFI     H2 1773   3.291   0.429   1.306  1.9057  0.9929 -0.1651
  108HFI     O1 1774   0.398   0.199   0.337  0.0988 -0.1603  0.0350
  108HFI     C1 1775   0.539   0.225   0.343 -0.5784 -0.6888  0.1197
  108HFI     C2 1776   0.564   0.383   0.336  1.0363  0.6858  0.4141
  108HFI     F1 1777   0.483   0.458   0.417  0.2342 -0.4564  0.6862
  108HFI     F2 1778   0.552   0.433   0.216 -0.4740  0.4289  0.1024
  108HFI     F3 1779   0.689   0.417   0.371  0.0706 -0.0285  1.0771
  108HFI     C3 1780   0.614   0.139   0.245  0.1159 -0.0779  0.0494
  108HFI     F4 1781   0.593   0.007   0.279  0.7028 -0.7633 -0.0595
  108HFI     F5 1782   0.746   0.159   0.248 -0.1554 -0.2981  0.0335
  108HFI     F6 1783   0.569   0.148   0.116 -0.0113 -0.2853  0.1126
  108HFI     H1 1784   0.368   0.198   0.244 -0.3106 -1.0083  0.1785
  108HFI     H2 1785   0.579   0.199   0.442 -0.5181 -3.9571 -0.7222
  109HFI     O1 1786   1.525   1.589   3.678  0.2540 -0.9275 -0.0646
  109HFI     C1 1787   1.433   1.669   3.596 -0.0096 -0.0316  0.2390
  109HFI     C2 1788   1.374   1.799   3.662 -0.0601  0.0441  0.0770
  109HFI     F1 1789   1.471   1.875   3.715 -0.3169  0.0070 -0.2407
  109HFI     F2 1790   1.285   1.774   3.762 -0.3665 -0.5421  0.1129
  109HFI     F3 1791   1.311   1.876   3.573  0.1639 -0.3404  0.9003
  109HFI     C3 1792   1.318   1.583   3.521  0.7787 -0.3227 -0.1998
  109HFI     F4 1793   1.237   1.664   3.444  0.2330 -0.2973  0.4727
  109HFI     F5 1794   1.230   1.528   3.614 -0.4746 -0.1599 -0.2523
  109HFI     F6 1795   1.360   1.482   3.445 -0.4460 -0.0194  0.5609
  109HFI     H1 1796   1.565   1.654   3.738  1.3933 -1.5240 -0.1601
  109HFI     H2 1797   1.495   1.719   3.520  0.5109 -0.6661  0.2356
  110HFI     O1 1798   0.044   1.390   0.369 -0.1374 -0.2807  0.6036
  110HFI     C1 1799   0.041   1.247   0.384 -0.2346 -0.0189 -1.3326
  110HFI     C2 1800  -0.104   1.194   0.379 -0.1994  0.1477 -0.5737
  110HFI     F1 1801  -0.111   1.057   0.368 -0.0725 -0.1668  0.0563
  110HFI     F2 1802  -0.174   1.244   0.273 -0.0474 -0.0195 -0.4129
  110HFI     F3 1803  -0.168   1.228   0.495  0.2775  0.2219 -0.0684
  110HFI     C3 1804   0.127   1.194   0.505  0.5417 -0.0156 -0.1513
  110HFI     F4 1805   0.121   1.057   0.503 -0.4537 -0.1860 -0.1357
  110HFI     F5 1806   0.092   1.240   0.626  0.0657 -0.2948 -0.1714
  110HFI     F6 1807   0.254   1.235   0.492 -0.0641  0.0711  0.0561
  110HFI     H1 1808  -0.019   1.423   0.436 -0.9809 -2.5643  0.9815
  110HFI     H2 1809   0.082   1.203   0.292 -0.7097  2.4315 -2.7741
  111HFI     O1 1810   0.611   1.288   1.583  0.0329  0.3210 -0.3311
  111HFI     C1 1811   0.513   1.309   1.476 -0.3285  0.5325  0.1597
  111HFI     C2 1812   0.485   1.465   1.457 -0.7440 -0.5961 -0.4016
  111HFI     F1 1813   0.592   1.533   1.424 -0.0443  0.6136  0.2947
  111HFI     F2 1814   0.440   1.525   1.570 -0.2631  0.1256 -0.1965
  111HFI     F3 1815   0.389   1.481   1.362  0.3005  0.5078  0.0361
  111HFI     C3 1816   0.389   1.233   1.496  0.1240 -0.2125  0.2027
  111HFI     F4 1817   0.409   1.098   1.522 -0.1328 -0.3191  0.0848
  111HFI     F5 1818   0.319   1.228   1.377  0.9281  0.4560  0.5270
  111HFI     F6 1819   0.305   1.279   1.597  0.7691  0.5668 -0.1902
  111HFI     H1 1820   0.585   1.334   1.665 -1.1275  0.0528 -0.5408
  111HFI     H2 1821   0.561   1.273   1.384  0.8675 -1.3736  1.5124
  112HFI     O1 1822   2.314   2.930   0.582 -0.0781  0.0560  0.2795
  112HFI     C1 1823   2.210   2.843   0.514 -0.7302 -0.2962 -0.8250
  112HFI     C2 1824   2.066   2.893   0.530  0.5759  0.3403 -0.0472
  112HFI     F1 1825   2.050   3.009   0.462  0.6188 -0.0240  0.6063
  112HFI     F2 1826   2.022   2.905   0.657  0.2173  0.5702 -0.0170
  112HFI     F3 1827   1.975   2.817   0.470 -0.7099 -0.0066  0.3057
  112HFI     C3 1828   2.234   2.691   0.559 -1.0876 -0.6642 -0.9753
  112HFI     F4 1829   2.154   2.606   0.488  0.7192 -0.0577 -0.9499
  112HFI     F5 1830   2.208   2.679   0.695  0.4757 -0.1332  0.2835
  112HFI     F6 1831   2.363   2.657   0.544  0.2821  0.3904  0.3586
  112HFI     H1 1832   2.280   2.956   0.670 -0.4074 -1.3977  0.5931
  112HFI     H2 1833   2.226   2.850   0.405 -0.8753  1.2549 -0.7509
  113HFI     O1 1834   1.081   2.319   1.382 -0.7329  0.5571  0.4464
  113HFI     C1 1835   0.989   2.295   1.498 -0.1100  0.1825 -0.3043
  113HFI     C2 1836   0.938   2.144   1.516 -0.0088 -0.2822 -0.4501
  113HFI     F1 1837   1.042   2.073   1.575 -0.0879  0.2820 -0.0461
  113HFI     F2 1838   0.908   2.093   1.395 -0.6557  0.4022 -0.3107
  113HFI     F3 1839   0.828   2.137   1.595  0.2771  0.1983 -0.0022
  113HFI     C3 1840   0.879   2.406   1.490 -0.6544  0.8705 -0.8753
  113HFI     F4 1841   0.808   2.394   1.376  0.1669  0.3809  0.0132
  113HFI     F5 1842   0.948   2.524   1.491 -0.4360  0.3823  0.3489
  113HFI     F6 1843   0.792   2.405   1.600  0.4611 -0.4621 -0.3194
  113HFI     H1 1844   1.035   2.302   1.298  1.0115  0.4310 -0.5212
  113HFI     H2 1845   1.034   2.318   1.595 -0.2820  1.6829 -0.5823
  114HFI     O1 1846   1.874   1.140   2.493 -0.2241 -0.2259 -0.1674
  114HFI     C1 1847   1.970   1.088   2.399  0.4541 -0.2367 -0.8231
  114HFI     C2 1848   1.995   1.192   2.283  0.1149  0.8548 -0.0929
  114HFI     F1 1849   2.114   1.165   2.227 -0.1089 -0.1142  0.1895
  114HFI     F2 1850   1.999   1.323   2.322  0.0923 -0.8506 -0.0869
  114HFI     F3 1851   1.908   1.175   2.181  0.2103  0.0551 -0.2441
  114HFI     C3 1852   1.914   0.949   2.353 -0.0244 -0.5455 -0.6981
  114HFI     F4 1853   2.000   0.901   2.259 -0.5877  0.3177  0.2271
  114HFI     F5 1854   1.786   0.964   2.304  0.2837  0.2648  0.2898
  114HFI     F6 1855   1.913   0.851   2.446  0.5370  0.6956 -0.3275
  114HFI     H1 1856   1.784   1.107   2.472 -0.5467  0.4295  0.1694
  114HFI     H2 1857   2.070   1.068   2.439 -0.8501  0.2090  2.8464
  115HFI     O1 1858   0.600   2.363   0.493  0.3929 -0.1291  0.0979
  115HFI     C1 1859   0.709   2.296   0.426 -0.0874  0.3998  0.3218
  115HFI     C2 1860   0.725   2.150   0.471 -0.6120  0.3181  1.1995
  115HFI     F1 1861   0.805   2.135   0.577  0.2230  0.4068  0.5797
  115HFI     F2 1862   0.787   2.088   0.373 -0.1361 -0.6903  0.4827
  115HFI     F3 1863   0.607   2.092   0.495 -0.2774 -0.0729  0.0910
  115HFI     C3 1864   0.840   2.380   0.420  0.1022 -0.1567  0.1450
  115HFI     F4 1865   0.877   2.413   0.549 -0.0951 -0.3110  0.2498
  115HFI     F5 1866   0.834   2.501   0.353 -0.2553  0.3393  0.7674
  115HFI     F6 1867   0.939   2.303   0.363  0.1630 -0.4466 -0.1510
  115HFI     H1 1868   0.601   2.343   0.588  1.1624  2.5055  0.6726
  115HFI     H2 1869   0.686   2.287   0.319  1.2518 -1.0443  0.1455
  116HFI     O1 1870   0.445   1.554   3.470  0.0571  0.5111 -0.5265
  116HFI     C1 1871   0.555   1.646   3.494 -0.7333 -0.5672  0.1830
  116HFI     C2 1872   0.694   1.570   3.480  0.2033  1.1495 -0.3851
  116HFI     F1 1873   0.792   1.644   3.521 -0.3391  0.2076 -0.3408
  116HFI     F2 1874   0.716   1.536   3.353 -0.0226  0.3486  0.5632
  116HFI     F3 1875   0.705   1.457   3.553 -0.1929 -0.0365 -0.5943
  116HFI     C3 1876   0.551   1.714   3.626 -0.1423  0.7788  0.0071
  116HFI     F4 1877   0.425   1.742   3.665  0.2386 -0.4652 -0.0219
  116HFI     F5 1878   0.622   1.832   3.612  0.3600 -0.0661 -0.0313
  116HFI     F6 1879   0.606   1.644   3.727 -0.7399 -0.1534  0.4531
  116HFI     H1 1880   0.417   1.509   3.551 -0.2973  0.4962 -0.6537
  116HFI     H2 1881   0.555   1.731   3.424  1.5709  1.1762  2.2344
  117HFI     O1 1882   2.461   0.551   1.308  0.2332 -0.4958  0.6515
  117HFI     C1 1883   2.371   0.595   1.210  0.1799  0.2051 -0.0502
  117HFI     C2 1884   2.226   0.560   1.254  0.4782 -0.5680  0.2262
  117HFI     F1 1885   2.215   0.563   1.395  0.0183 -0.7200  0.2326
  117HFI     F2 1886   2.191   0.432   1.207 -0.4233  0.1158  0.4008
  117HFI     F3 1887   2.138   0.648   1.202 -0.3734  0.2183 -0.0096
  117HFI     C3 1888   2.408   0.565   1.060 -0.5545  0.0468 -1.0149
  117HFI     F4 1889   2.468   0.446   1.046 -0.0525  0.3398  0.0782
  117HFI     F5 1890   2.493   0.661   1.013 -0.0282  0.1952  0.2666
  117HFI     F6 1891   2.302   0.569   0.977 -0.0557 -0.5461 -0.0464
  117HFI     H1 1892   2.547   0.595   1.297  0.2719 -0.3289  1.5744
  117HFI     H2 1893   2.361   0.704   1.210 -0.2499  0.1781  1.6379
  118HFI     O1 1894   0.558   3.135   3.051  0.6083  0.4106 -0.4174
  118HFI     C1 1895   0.558   3.052   2.918  0.6695  0.0664 -0.2205
  118HFI     C2 1896   0.434   3.087   2.830 -0.8279  0.1724 -1.0338
  118HFI     F1 1897   0.450   3.210   2.782  0.9114 -1.1222  0.2209
  118HFI     F2 1898   0.323   3.090   2.902 -0.0053  0.2021 -0.0096
  118HFI     F3 1899   0.417   2.998   2.733 -0.1283  0.4308 -0.2969
  118HFI     C3 1900   0.575   2.906   2.953 -0.4117 -0.5201 -0.1541
  118HFI     F4 1901   0.590   2.832   2.842 -0.1095  0.3483  0.2085
  118HFI     F5 1902   0.462   2.856   3.015  0.6729  0.0880 -0.1421
  118HFI     F6 1903   0.678   2.881   3.032  0.2341 -0.2820 -0.2832
  118HFI     H1 1904   0.542   3.225   3.017  0.6018  0.3487 -0.5811
  118HFI     H2 1905   0.648   3.079   2.862  1.6121  1.6285  1.9619
  119HFI     O1 1906   1.094   1.430   1.055  0.5956  0.1901 -0.0472
  119HFI     C1 1907   1.225   1.479   1.012 -0.2452 -0.2259 -0.3281
  119HFI     C2 1908   1.329   1.464   1.123  0.0666 -0.2881 -0.7713
  119HFI     F1 1909   1.394   1.352   1.127  0.1730  0.1244  0.5462
  119HFI     F2 1910   1.267   1.487   1.238  0.3900  0.1181 -0.2348
  119HFI     F3 1911   1.421   1.563   1.118 -0.0630  0.2829 -0.5021
  119HFI     C3 1912   1.211   1.619   0.943  0.1362 -0.6357  0.4242
  119HFI     F4 1913   1.325   1.667   0.886  0.1798 -0.2409 -0.0672
  119HFI     F5 1914   1.182   1.711   1.036  0.1229 -0.0863  0.0825
  119HFI     F6 1915   1.114   1.621   0.850  0.3457 -0.7385 -0.1389
  119HFI     H1 1916   1.068   1.474   1.138 -0.5609 -0.0454 -0.2731
  119HFI     H2 1917   1.255   1.410   0.932  0.4427 -0.6069  0.2579
  120HFI     O1 1918   1.901   2.285   2.520  0.1345 -0.3108  0.2815
  120HFI     C1 1919   1.850   2.262   2.383  0.8239 -0.4125 -0.2548
  120HFI     C2 1920   1.783   2.392   2.332 -0.6966  0.0904  0.3303
  120HFI     F1 1921   1.881   2.486   2.313 -0.1401  0.5950  0.1171
  120HFI     F2 1922   1.691   2.435   2.427  0.0750 -0.2089 -0.0534
  120HFI     F3 1923   1.720   2.374   2.217  0.2338 -0.4413  0.3178
  120HFI     C3 1924   1.761   2.133   2.377  0.1322 -0.0341 -0.2387
  120HFI     F4 1925   1.814   2.044   2.461  0.9555  0.2710 -0.2671
  120HFI     F5 1926   1.753   2.087   2.252  0.4850  0.4145 -0.2266
  120HFI     F6 1927   1.638   2.168   2.426 -0.4428  0.0417  0.7519
  120HFI     H1 1928   1.835   2.249   2.582 -0.2942 -1.5221 -0.8499
  120HFI     H2 1929   1.925   2.252   2.304  0.6128  1.7275 -0.7519
  121HFI     O1 1930   3.240   2.991   2.458 -0.0767  0.6242  0.2655
  121HFI     C1 1931   3.261   3.132   2.423  0.5886 -0.5581  0.1830
  121HFI     C2 1932   3.260   3.152   2.267  0.3614 -0.3865 -0.8543
  121HFI     F1 1933   3.237   3.280   2.229 -0.1214 -0.1148  0.2549
  121HFI     F2 1934   3.158   3.083   2.220  0.6280 -0.2443  0.7281
  121HFI     F3 1935   3.371   3.110   2.208  0.3885  0.1624 -0.5259
  121HFI     C3 1936   3.379   3.195   2.514  0.1365  0.2626  0.6399
  121HFI     F4 1937   3.497   3.126   2.489 -0.5484  0.0281 -0.3078
  121HFI     F5 1938   3.345   3.173   2.640 -0.5886 -0.3651 -0.1199
  121HFI     F6 1939   3.394   3.328   2.493  0.0485  0.1722 -0.0740
  121HFI     H1 1940   3.306   2.939   2.408 -2.8373 -1.6307 -1.1733
  121HFI     H2 1941   3.166   3.172   2.460 -0.3779  0.8231 -3.5145
  122HFI     O1 1942   2.752   0.376   2.856 -0.0657  0.6433  0.7474
  122HFI     C1 1943   2.877   0.442   2.901  0.0106  0.6589  1.1933
  122HFI     C2 1944   2.859   0.525   3.030 -0.2226 -0.3263 -0.0600
  122HFI     F1 1945   2.839   0.439   3.131  0.4143  0.3822  0.1671
  122HFI     F2 1946   2.747   0.602   3.015 -0.1481 -0.3720 -0.8185
  122HFI     F3 1947   2.962   0.605   3.060  0.1050 -0.1178 -0.0190
  122HFI     C3 1948   2.956   0.511   2.777  0.0878 -0.8653  0.0908
  122HFI     F4 1949   3.082   0.541   2.825  0.6759 -0.3900 -0.0650
  122HFI     F5 1950   2.891   0.628   2.751  0.3522 -0.4674  0.1128
  122HFI     F6 1951   2.960   0.441   2.661  0.5088 -0.6821  0.6080
  122HFI     H1 1952   2.714   0.443   2.797 -0.7400  0.6297  1.1590
  122HFI     H2 1953   2.947   0.368   2.943 -0.4927 -1.1765 -1.0579
  123HFI     O1 1954   0.112   2.456   2.916 -0.6541 -0.2967  0.5168
  123HFI     C1 1955   0.248   2.422   2.954  0.1623 -0.4189  0.0572
  123HFI     C2 1956   0.340   2.545   2.935 -0.5058  0.2625  0.5865
  123HFI     F1 1957   0.384   2.560   2.802  0.0084  0.0533 -0.0241
  123HFI     F2 1958   0.447   2.554   3.011  0.3134  0.1734  0.1876
  123HFI     F3 1959   0.271   2.663   2.948  0.2597  0.3517  0.6196
  123HFI     C3 1960   0.309   2.286   2.897 -0.1568 -0.0262  0.1679
  123HFI     F4 1961   0.429   2.258   2.944  0.2889  0.0741  0.2391
  123HFI     F5 1962   0.310   2.283   2.761 -0.2765 -0.0777  0.5101
  123HFI     F6 1963   0.226   2.184   2.940 -0.2092 -0.7466  0.1874
  123HFI     H1 1964   0.102   2.517   2.841  1.1094  0.6735  1.0460
  123HFI     H2 1965   0.252   2.412   3.063  0.1469  0.5009  0.1429
  124HFI     O1 1966   0.943   2.256   1.071 -0.2959  0.1007 -0.7084
  124HFI     C1 1967   0.882   2.374   1.018 -0.1735 -0.4360  0.4092
  124HFI     C2 1968   0.812   2.355   0.883 -0.3352 -0.1427 -0.5856
  124HFI     F1 1969   0.697   2.287   0.908  0.9445 -0.3618  0.2687
  124HFI     F2 1970   0.890   2.292   0.800 -0.0746  0.4225  0.0280
  124HFI     F3 1971   0.779   2.468   0.827 -0.0696 -0.1941  0.4422
  124HFI     C3 1972   0.989   2.493   0.999 -0.5016  0.1449  0.4313
  124HFI     F4 1973   0.925   2.609   0.974  0.0950  0.4822  0.2538
  124HFI     F5 1974   1.068   2.480   0.885  0.1754 -0.6592  0.1440
  124HFI     F6 1975   1.072   2.510   1.107 -0.5776 -0.4572 -0.1889
  124HFI     H1 1976   0.896   2.180   1.031  1.3691 -0.6997 -1.1845
  124HFI     H2 1977   0.808   2.419   1.086  0.0190  0.9152 -0.2578
  125HFI     O1 1978   2.630   0.679   0.511  0.3647  0.4821 -0.1727
  125HFI     C1 1979   2.540   0.662   0.625 -0.4637 -0.2114  0.2275
  125HFI     C2 1980   2.457   0.536   0.621  0.0334 -0.5377 -0.0427
  125HFI     F1 1981   2.534   0.429   0.596  0.1523 -0.2518 -0.0735
  125HFI     F2 1982   2.366   0.543   0.519  0.0527 -0.3974 -0.3084
  125HFI     F3 1983   2.390   0.519   0.736  0.0621 -0.0851  0.0592
  125HFI     C3 1984   2.459   0.796   0.644 -0.9434 -0.3889 -0.7293
  125HFI     F4 1985   2.402   0.823   0.533  0.3231 -0.1933  0.0301
  125HFI     F5 1986   2.538   0.899   0.665 -0.1230 -0.0197 -0.4346
  125HFI     F6 1987   2.361   0.792   0.739  0.0844  0.4665 -0.5168
  125HFI     H1 1988   2.573   0.659   0.435 -0.7946 -1.5839  1.1662
  125HFI     H2 1989   2.602   0.658   0.715  0.1652  1.3443 -0.1297
  126HFI     O1 1990   0.896   0.589   0.163 -0.0261 -0.0521 -0.5325
  126HFI     C1 1991   0.997   0.620   0.264 -0.1421 -0.0920 -0.0972
  126HFI     C2 1992   1.049   0.485   0.319 -0.2170  0.3658 -0.8210
  126HFI     F1 1993   1.140   0.491   0.413  0.1202  0.3942 -0.6749
  126HFI     F2 1994   1.114   0.430   0.213  0.2985  0.5336 -0.0924
  126HFI     F3 1995   0.948   0.404   0.349 -0.0682 -0.2964 -0.0870
  126HFI     C3 1996   0.947   0.720   0.374 -0.1996 -0.4118  0.3647
  126HFI     F4 1997   1.042   0.746   0.465  0.2450 -0.1550  0.3450
  126HFI     F5 1998   0.836   0.676   0.442 -0.1106 -0.5012  0.3790
  126HFI     F6 1999   0.926   0.840   0.308 -0.1491 -0.1475 -0.0692
  126HFI     H1 2000   0.918   0.498   0.137  0.3018 -0.7047  1.9382
  126HFI     H2 2001   1.073   0.669   0.203 -0.5342  2.2817  1.2444
  127HFI     O1 2002   0.505   0.058   2.371 -0.2485 -0.1631 -1.1730
  127HFI     C1 2003   0.574   0.154   2.283 -0.4576 -0.4286  0.0669
  127HFI     C2 2004   0.718   0.174   2.339 -0.1076  0.5021  0.4499
  127HFI     F1 2005   0.781   0.059   2.370  0.2070 -0.3825  0.2595
  127HFI     F2 2006   0.712   0.258   2.450  0.1857  0.5346  0.1484
  127HFI     F3 2007   0.804   0.234   2.244 -0.0829 -0.1205 -0.3497
  127HFI     C3 2008   0.500   0.288   2.263  0.2208 -0.4925  0.1236
  127HFI     F4 2009   0.463   0.347   2.375 -0.1898  0.0558 -0.2521
  127HFI     F5 2010   0.393   0.263   2.190 -0.3173  0.2198  0.2458
  127HFI     F6 2011   0.562   0.377   2.188  0.2650 -0.1627  0.0036
  127HFI     H1 2012   0.422   0.096   2.406 -0.9276 -0.5459 -2.3478
  127HFI     H2 2013   0.589   0.119   2.180  1.8602  0.5497  0.0362
  128HFI     O1 2014   2.840   2.461   2.245 -0.3331 -0.4699 -0.3603
  128HFI     C1 2015   2.813   2.593   2.300 -0.4003 -0.2018  0.0892
  128HFI     C2 2016   2.939   2.668   2.362 -0.1401  0.6598 -0.2124
  128HFI     F1 2017   3.038   2.665   2.268  0.1763 -0.7407 -0.2838
  128HFI     F2 2018   2.983   2.608   2.477  0.1895  0.2594 -0.0196
  128HFI     F3 2019   2.923   2.796   2.399 -0.3060 -0.4034 -0.4287
  128HFI     C3 2020   2.696   2.582   2.410  0.0680  0.0638 -0.7255
  128HFI     F4 2021   2.654   2.699   2.469  0.1821  0.0805  1.1529
  128HFI     F5 2022   2.702   2.498   2.520 -0.0440 -0.4091 -0.0447
  128HFI     F6 2023   2.584   2.544   2.340 -0.3115  0.0401  0.2573
  128HFI     H1 2024   2.883   2.405   2.312  2.5304  1.7601 -0.2171
  128HFI     H2 2025   2.776   2.653   2.216  0.0542 -0.5125 -0.3370
  129HFI     O1 2026   1.360   0.333   2.457  0.3745 -0.1586  0.1728
  129HFI     C1 2027   1.458   0.248   2.407 -0.1491 -0.2272  0.1380
  129HFI     C2 2028   1.573   0.231   2.506 -0.2904 -0.7531 -0.1549
  129HFI     F1 2029   1.543   0.154   2.611  0.7140 -0.1402  0.2640
  129HFI     F2 2030   1.627   0.350   2.550  0.2574  0.4322 -0.0459
  129HFI     F3 2031   1.672   0.167   2.449  0.2650  0.0542 -0.4428
  129HFI     C3 2032   1.497   0.278   2.265 -0.4416  0.1506 -0.0157
  129HFI     F4 2033   1.556   0.170   2.204 -0.0176 -0.8573 -0.3152
  129HFI     F5 2034   1.583   0.379   2.239 -0.2535  0.2035 -0.2249
  129HFI     F6 2035   1.377   0.303   2.203 -0.0927  0.2176  0.5111
  129HFI     H1 2036   1.393   0.424   2.458  0.0532 -0.0302 -0.6388
  129HFI     H2 2037   1.415   0.148   2.391 -2.1308  0.3491  1.5709
  130HFI     O1 2038   0.993   2.491   2.486 -0.0021 -0.1662  0.2524
  130HFI     C1 2039   0.861   2.505   2.435  0.2742 -0.5460 -0.1697
  130HFI     C2 2040   0.853   2.544   2.284 -0.5725  1.1803  0.9057
  130HFI     F1 2041   0.763   2.469   2.218 -0.3808 -0.2121 -0.4303
  130HFI     F2 2042   0.967   2.518   2.219 -0.3846  0.5264  0.0609
  130HFI     F3 2043   0.815   2.672   2.263 -0.4334  0.9249 -0.0704
  130HFI     C3 2044   0.759   2.591   2.520  0.6722 -0.7316 -0.2414
  130HFI     F4 2045   0.632   2.602   2.469  0.1738  0.2390  0.3001
  130HFI     F5 2046   0.807   2.717   2.541  0.2046 -0.3506  0.5395
  130HFI     F6 2047   0.743   2.527   2.636 -0.2049 -0.7789 -0.1332
  130HFI     H1 2048   1.048   2.560   2.444  1.5286 -0.6566  1.3622
  130HFI     H2 2049   0.811   2.407   2.428 -1.0988 -0.0638  2.2530
  131HFI     O1 2050   1.776   3.388   3.239 -0.8172 -0.2786 -0.0501
  131HFI     C1 2051   1.858   3.405   3.363 -0.1936 -0.8861 -0.2590
  131HFI     C2 2052   1.838   3.293   3.470 -0.5358  0.1669  0.1683
  131HFI     F1 2053   1.714   3.287   3.514  0.1240 -0.4770  0.0399
  131HFI     F2 2054   1.906   3.310   3.584 -0.2267 -0.3857 -0.7553
  131HFI     F3 2055   1.864   3.168   3.427  0.3470 -0.1098  0.3604
  131HFI     C3 2056   1.866   3.556   3.417  0.3287 -0.1421  0.0554
  131HFI     F4 2057   1.896   3.646   3.326  0.3686 -0.2863 -0.0477
  131HFI     F5 2058   1.947   3.574   3.532  0.3326  0.1018 -0.3687
  131HFI     F6 2059   1.739   3.583   3.449 -0.3340  0.0623  0.3027
  131HFI     H1 2060   1.685   3.386   3.273 -1.0433 -2.2679 -0.6940
  131HFI     H2 2061   1.960   3.407   3.323  0.2738 -2.1332  0.8184
  132HFI     O1 2062   2.520   2.760   2.748  0.4866 -0.0367 -0.0889
  132HFI     C1 2063   2.600   2.816   2.858  0.1414 -0.1937  0.0544
  132HFI     C2 2064   2.553   2.765   2.993 -0.3962 -0.0581  0.9843
  132HFI     F1 2065   2.548   2.624   2.989  0.1747  0.2217  0.0293
  132HFI     F2 2066   2.435   2.818   3.032 -0.3492  0.7220 -1.0347
  132HFI     F3 2067   2.641   2.798   3.092 -0.2005  0.1536  0.5962
  132HFI     C3 2068   2.611   2.964   2.851  0.3467 -0.7893 -0.2348
  132HFI     F4 2069   2.668   3.002   2.736  0.6500  0.3629 -0.0730
  132HFI     F5 2070   2.674   3.027   2.953  0.5517 -0.1704 -0.1249
  132HFI     F6 2071   2.491   3.024   2.857 -0.3089 -0.0644  0.4551
  132HFI     H1 2072   2.426   2.784   2.750  0.0215 -1.7639 -0.4565
  132HFI     H2 2073   2.701   2.775   2.850  0.1143 -0.1562 -0.5139
  133HFI     O1 2074   2.709   2.923   2.246 -0.1691 -0.4880 -0.1376
  133HFI     C1 2075   2.650   3.010   2.341  0.0146  0.9470  0.0266
  133HFI     C2 2076   2.502   3.000   2.315  0.7235  0.4204 -0.4823
  133HFI     F1 2077   2.476   3.039   2.189 -0.1252  0.3931 -0.5648
  133HFI     F2 2078   2.423   3.066   2.402  0.0441 -0.0097  0.1370
  133HFI     F3 2079   2.464   2.870   2.314 -0.3291  0.0578 -0.1060
  133HFI     C3 2080   2.713   3.155   2.344  0.3873  0.2487  0.7305
  133HFI     F4 2081   2.840   3.145   2.389 -0.0060  0.0084  0.1680
  133HFI     F5 2082   2.644   3.235   2.436 -0.8868  0.0072 -0.1891
  133HFI     F6 2083   2.713   3.213   2.216  0.3131  0.4548 -0.6187
  133HFI     H1 2084   2.696   2.965   2.159  0.6872 -1.0055 -0.5314
  133HFI     H2 2085   2.673   2.973   2.442  1.0457  2.0780  0.2129
  134HFI     O1 2086   1.755   1.546   1.313 -0.2315 -0.2172 -0.7561
  134HFI     C1 2087   1.697   1.461   1.412  0.4409  0.1779 -0.5082
  134HFI     C2 2088   1.597   1.541   1.498  0.3218 -0.2005 -0.3323
  134HFI     F1 2089   1.501   1.591   1.415 -0.1453  0.0907  0.0691
  134HFI     F2 2090   1.642   1.645   1.566  0.1663 -0.1933  0.4669
  134HFI     F3 2091   1.542   1.467   1.596 -0.1223 -0.2305  0.0153
  134HFI     C3 2092   1.794   1.364   1.485 -0.2582 -0.3778 -0.2017
  134HFI     F4 2093   1.896   1.319   1.410  0.1546 -0.2704 -0.1777
  134HFI     F5 2094   1.732   1.253   1.532  0.1343  0.7324 -0.3949
  134HFI     F6 2095   1.847   1.427   1.590  0.5974  0.3203 -0.1124
  134HFI     H1 2096   1.850   1.528   1.303 -0.2207 -0.1405 -0.7961
  134HFI     H2 2097   1.644   1.384   1.354 -1.3795 -0.0583  1.4089
  135HFI     O1 2098   2.490   0.915   2.210 -0.0306 -0.3781 -0.1068
  135HFI     C1 2099   2.527   0.916   2.351  0.3267  0.3387  0.1480
  135HFI     C2 2100   2.612   0.789   2.394  0.7237  0.5089 -0.4971
  135HFI     F1 2101   2.720   0.792   2.316 -0.1312  0.0118 -0.3504
  135HFI     F2 2102   2.541   0.675   2.367 -0.1767  0.3967 -0.1797
  135HFI     F3 2103   2.654   0.787   2.527  0.4803  0.1344 -0.3031
  135HFI     C3 2104   2.395   0.928   2.431  0.1216 -0.4460  0.3851
  135HFI     F4 2105   2.314   0.821   2.401  0.3837 -0.2071  0.1067
  135HFI     F5 2106   2.342   1.043   2.399  1.0848  0.6237 -0.2031
  135HFI     F6 2107   2.413   0.922   2.568  0.1194  0.0609  0.0753
  135HFI     H1 2108   2.483   0.823   2.178  3.0788 -1.1565  1.3104
  135HFI     H2 2109   2.576   1.005   2.392  0.9252  0.1513 -0.1633
  136HFI     O1 2110   1.431   1.440   2.200 -0.5317  0.5559 -0.0211
  136HFI     C1 2111   1.514   1.476   2.313  0.1158 -0.6006 -0.1906
  136HFI     C2 2112   1.540   1.635   2.309 -0.1641 -0.1610 -0.4249
  136HFI     F1 2113   1.606   1.673   2.199  0.3142  0.2344  0.1409
  136HFI     F2 2114   1.606   1.684   2.417  0.0897 -0.1057 -0.1317
  136HFI     F3 2115   1.425   1.699   2.292  0.3264 -0.2674 -0.5076
  136HFI     C3 2116   1.637   1.386   2.332 -0.1476 -0.1365  0.4155
  136HFI     F4 2117   1.723   1.402   2.233 -0.0517 -0.5447 -0.5110
  136HFI     F5 2118   1.597   1.261   2.331 -0.4591  0.2874 -0.0611
  136HFI     F6 2119   1.704   1.411   2.450 -0.0033  0.4087 -0.0754
  136HFI     H1 2120   1.390   1.521   2.165  0.0371  0.6992 -0.3786
  136HFI     H2 2121   1.454   1.470   2.405 -1.4299 -0.2090 -1.1463
  137HFI     O1 2122   1.152   1.619   2.229  0.0239 -0.1108  0.4050
  137HFI     C1 2123   1.049   1.565   2.319 -0.0746  0.5308  0.4646
  137HFI     C2 2124   0.919   1.653   2.320 -0.5002 -0.3777  0.1788
  137HFI     F1 2125   0.818   1.580   2.369 -0.0777  0.1591 -0.0215
  137HFI     F2 2126   0.884   1.686   2.197  0.1879 -0.3834  0.7026
  137HFI     F3 2127   0.940   1.767   2.387  0.0019  0.3813  0.9976
  137HFI     C3 2128   1.108   1.566   2.461 -0.4692  0.3617  0.5658
  137HFI     F4 2129   1.153   1.691   2.498  0.4946  0.2825  0.2998
  137HFI     F5 2130   1.217   1.480   2.474 -0.3234 -0.2498  0.3574
  137HFI     F6 2131   1.023   1.520   2.556  0.6650 -0.1974 -0.1816
  137HFI     H1 2132   1.186   1.703   2.265  0.0944 -0.4085  1.0444
  137HFI     H2 2133   1.025   1.461   2.292  0.9677  0.2819  0.4564
  138HFI     O1 2134   3.330   1.299   2.522 -0.0352 -0.3382  0.2115
  138HFI     C1 2135   3.259   1.408   2.471 -0.0682  0.2125 -0.0954
  138HFI     C2 2136   3.109   1.417   2.517  0.4676  0.0787  0.2206
  138HFI     F1 2137   3.043   1.522   2.456 -0.1932 -0.4307  0.0784
  138HFI     F2 2138   3.097   1.425   2.650  0.0305  0.3297  0.7338
  138HFI     F3 2139   3.033   1.311   2.483  0.0983 -0.3042  0.1756
  138HFI     C3 2140   3.277   1.429   2.317  0.2188 -0.7300 -0.7407
  138HFI     F4 2141   3.410   1.423   2.298 -0.3119 -0.3529 -0.3156
  138HFI     F5 2142   3.220   1.548   2.271  0.1464 -0.9210 -0.1097
  138HFI     F6 2143   3.222   1.327   2.256 -0.1372 -0.1558  0.6468
  138HFI     H1 2144   3.284   1.214   2.517 -1.1413  0.1716  1.4680
  138HFI     H2 2145   3.289   1.505   2.510 -0.6539  1.4570 -2.6052
  139HFI     O1 2146   0.882   2.003   0.892  0.2061 -0.1194  0.5070
  139HFI     C1 2147   0.799   1.880   0.909 -0.6209  0.1543  0.3456
  139HFI     C2 2148   0.713   1.845   0.798  0.1402 -0.1473  0.7958
  139HFI     F1 2149   0.785   1.845   0.679 -0.1520 -0.3607  0.0572
  139HFI     F2 2150   0.620   1.936   0.790 -0.3827  0.0053  0.0428
  139HFI     F3 2151   0.651   1.719   0.818 -0.1219 -0.4549  0.0463
  139HFI     C3 2152   0.717   1.889   1.044 -0.3493  0.2500  0.7501
  139HFI     F4 2153   0.795   1.891   1.149 -0.3311  0.0245  0.3133
  139HFI     F5 2154   0.625   1.793   1.070  0.0652  0.3514  0.3017
  139HFI     F6 2155   0.654   2.005   1.046  0.4120  0.2240 -0.0732
  139HFI     H1 2156   0.965   1.988   0.843  1.3791  2.1938  1.6714
  139HFI     H2 2157   0.881   1.808   0.919  0.7880  1.4999 -1.1391
  140HFI     O1 2158   0.155   2.825   0.811  0.1037 -0.3539  0.3061
  140HFI     C1 2159   0.169   2.760   0.945 -0.2134 -0.3963 -0.7014
  140HFI     C2 2160   0.316   2.700   0.972  0.6682 -0.0682 -0.1245
  140HFI     F1 2161   0.411   2.800   0.962 -0.6548 -0.1105 -0.0262
  140HFI     F2 2162   0.355   2.609   0.876  0.1193 -0.0784 -0.0980
  140HFI     F3 2163   0.332   2.637   1.086  0.2477  0.1767 -0.2582
  140HFI     C3 2164   0.055   2.646   0.966 -0.4053 -0.7499  0.8945
  140HFI     F4 2165   0.061   2.545   0.879  0.6301  0.0252 -0.3265
  140HFI     F5 2166  -0.066   2.708   0.972 -0.4773  0.2838 -0.3991
  140HFI     F6 2167   0.075   2.592   1.086 -0.8866 -0.1421  0.4246
  140HFI     H1 2168   0.124   2.761   0.745  2.6953 -0.4661 -0.8633
  140HFI     H2 2169   0.147   2.836   1.021  1.2480  0.1459 -0.7982
  141HFI     O1 2170   2.902   1.759   3.677  0.0834  0.0294  0.2313
  141HFI     C1 2171   2.858   1.635   3.742  0.3754 -0.2258 -0.4369
  141HFI     C2 2172   2.713   1.590   3.707  0.3931 -0.4326  0.0885
  141HFI     F1 2173   2.615   1.678   3.744 -0.0583 -0.1362  0.2195
  141HFI     F2 2174   2.675   1.469   3.757 -0.1434 -0.0767 -0.2997
  141HFI     F3 2175   2.715   1.573   3.571 -0.1501 -0.4160  0.2353
  141HFI     C3 2176   2.872   1.649   3.898  0.0135 -0.3644  1.0367
  141HFI     F4 2177   2.855   1.530   3.961 -0.0245  0.1108 -0.0834
  141HFI     F5 2178   2.782   1.742   3.951 -0.2410  0.0647 -0.7084
  141HFI     F6 2179   2.996   1.697   3.927  0.6865  0.0262  0.2597
  141HFI     H1 2180   2.867   1.832   3.732  0.3638 -1.7026  2.7626
  141HFI     H2 2181   2.929   1.556   3.714 -1.0886 -0.7767 -2.6580
  142HFI     O1 2182   1.784   1.463   0.558  0.1234  0.6377  0.7033
  142HFI     C1 2183   1.656   1.459   0.489  0.2624 -0.3171  0.2597
  142HFI     C2 2184   1.549   1.354   0.540 -0.0466 -0.4658 -0.0816
  142HFI     F1 2185   1.579   1.224   0.503 -0.3063  0.4022 -0.5805
  142HFI     F2 2186   1.424   1.376   0.499 -0.4095 -0.2335  0.1693
  142HFI     F3 2187   1.545   1.353   0.673 -0.5419  0.0294 -0.0737
  142HFI     C3 2188   1.671   1.479   0.337 -0.2194  0.1484  1.3942
  142HFI     F4 2189   1.711   1.363   0.270 -0.0084  0.9290  0.3692
  142HFI     F5 2190   1.770   1.568   0.318 -0.0716  0.2281 -0.2815
  142HFI     F6 2191   1.557   1.532   0.282  0.5373 -0.2120  0.0702
  142HFI     H1 2192   1.847   1.395   0.528 -1.8410 -1.1845  0.5346
  142HFI     H2 2193   1.605   1.553   0.513  1.0110  0.0570  0.3932
  143HFI     O1 2194   2.538   0.793   3.183  0.4876  0.0915  0.2642
  143HFI     C1 2195   2.615   0.850   3.289 -1.0854 -0.0487 -0.7891
  143HFI     C2 2196   2.746   0.914   3.235 -0.5324  0.5184 -0.4680
  143HFI     F1 2197   2.789   1.016   3.318 -0.3672  0.1448 -0.4544
  143HFI     F2 2198   2.732   0.969   3.112  0.1376  0.2084 -0.3154
  143HFI     F3 2199   2.847   0.825   3.231 -0.4803  0.1569 -0.3745
  143HFI     C3 2200   2.624   0.759   3.416  0.0192 -0.6907  0.2295
  143HFI     F4 2201   2.697   0.648   3.405 -0.1142  0.0125 -0.7156
  143HFI     F5 2202   2.506   0.712   3.452 -0.2240 -0.0383  0.4721
  143HFI     F6 2203   2.676   0.818   3.522 -0.4525  0.3471 -0.0122
  143HFI     H1 2204   2.537   0.850   3.105  0.2123 -0.3389 -0.0515
  143HFI     H2 2205   2.571   0.941   3.330 -2.5496 -0.8394 -0.5545
  144HFI     O1 2206   2.910   0.633   0.568 -0.2216  0.1670  0.5740
  144HFI     C1 2207   2.993   0.652   0.446  1.1294 -0.4883  0.7463
  144HFI     C2 2208   3.032   0.796   0.429 -0.6082 -0.3987  0.0818
  144HFI     F1 2209   3.102   0.840   0.539 -0.1596  0.6915  0.2959
  144HFI     F2 2210   2.919   0.874   0.413 -0.0110 -0.1953 -0.1782
  144HFI     F3 2211   3.111   0.825   0.322  0.2880  0.1898 -0.6355
  144HFI     C3 2212   2.918   0.593   0.325  0.4188  0.0203  0.5079
  144HFI     F4 2213   2.989   0.586   0.215  0.6410 -0.2253 -0.6168
  144HFI     F5 2214   2.806   0.660   0.299  0.2455 -0.2908 -0.2321
  144HFI     F6 2215   2.877   0.466   0.356 -0.3649 -0.2834 -0.0321
  144HFI     H1 2216   2.820   0.659   0.543 -0.2090 -1.4020 -1.1814
  144HFI     H2 2217   3.090   0.601   0.447 -0.2417 -3.2589 -0.1671
  145HFI     O1 2218   1.353   0.447   3.534  0.0091  0.1196 -0.1042
  145HFI     C1 2219   1.434   0.525   3.628  0.0829  0.3942  0.1078
  145HFI     C2 2220   1.450   0.445   3.767  0.0042  0.0285  0.0466
  145HFI     F1 2221   1.538   0.345   3.748  0.1002  0.1745 -0.2842
  145HFI     F2 2222   1.327   0.397   3.787  0.4310 -0.2295 -0.5954
  145HFI     F3 2223   1.496   0.521   3.870 -0.2244  0.3305 -0.0191
  145HFI     C3 2224   1.369   0.656   3.666 -0.3304 -0.8083  0.1985
  145HFI     F4 2225   1.468   0.738   3.714  0.3135  0.2443  0.7039
  145HFI     F5 2226   1.265   0.652   3.761 -0.1173 -0.5456 -0.2740
  145HFI     F6 2227   1.325   0.717   3.554 -0.4962 -0.1325 -0.0019
  145HFI     H1 2228   1.282   0.410   3.589  0.5227 -0.9195 -0.1271
  145HFI     H2 2229   1.535   0.529   3.586 -0.5210 -1.7286 -1.6249
  146HFI     O1 2230   0.107   1.921   2.623  0.6931  0.1525  0.1825
  146HFI     C1 2231   0.040   1.930   2.750  0.2286 -0.0637  0.4213
  146HFI     C2 2232  -0.027   1.799   2.795  0.7672  0.0334  0.4503
  146HFI     F1 2233  -0.072   1.720   2.692  0.0277  0.4065 -0.2526
  146HFI     F2 2234  -0.131   1.824   2.879 -0.3115 -0.7929 -0.0399
  146HFI     F3 2235   0.064   1.729   2.860 -0.4809  0.3665 -0.1195
  146HFI     C3 2236  -0.054   2.058   2.759 -0.1932  0.2135  0.1367
  146HFI     F4 2237   0.007   2.159   2.697 -0.0111 -0.0072  0.5058
  146HFI     F5 2238  -0.073   2.089   2.888 -0.3891  0.2299 -0.1320
  146HFI     F6 2239  -0.178   2.032   2.700 -0.3666  0.1012  0.2267
  146HFI     H1 2240   0.049   1.904   2.547  0.9543  0.8269 -0.1775
  146HFI     H2 2241   0.117   1.938   2.828  0.1684  2.0721  0.2920
  147HFI     O1 2242   0.875   0.511   2.353  0.1556 -0.0498  0.5199
  147HFI     C1 2243   0.944   0.596   2.262  0.2229 -0.7724  0.7155
  147HFI     C2 2244   1.096   0.574   2.266  0.2142  0.2035 -0.1932
  147HFI     F1 2245   1.165   0.653   2.170  0.1780  0.7681  0.2328
  147HFI     F2 2246   1.112   0.443   2.240 -0.2806 -0.0476  0.2918
  147HFI     F3 2247   1.145   0.608   2.384  0.6519  0.1478  0.5463
  147HFI     C3 2248   0.898   0.746   2.282 -0.2005 -0.5845 -0.3864
  147HFI     F4 2249   0.966   0.835   2.207 -0.3680 -0.0899 -0.1648
  147HFI     F5 2250   0.912   0.770   2.414  0.3891  0.0391 -0.0725
  147HFI     F6 2251   0.772   0.753   2.246  0.1278 -0.2532 -0.1545
  147HFI     H1 2252   0.930   0.490   2.431  0.8895 -0.5589 -0.1332
  147HFI     H2 2253   0.916   0.574   2.158 -0.8958  2.7396  0.2000
  148HFI     O1 2254   2.434   3.436   2.463  0.5958 -0.1502 -0.4056
  148HFI     C1 2255   2.317   3.388   2.393 -0.0478  0.0936 -0.2926
  148HFI     C2 2256   2.340   3.394   2.242 -0.1661  0.5186 -0.2836
  148HFI     F1 2257   2.460   3.348   2.197 -0.1571 -0.1360 -0.0064
  148HFI     F2 2258   2.332   3.516   2.195 -0.0291 -0.3434  0.0057
  148HFI     F3 2259   2.251   3.314   2.176  0.3056  1.0026  0.6138
  148HFI     C3 2260   2.189   3.465   2.436  0.5580 -0.1904 -0.0318
  148HFI     F4 2261   2.212   3.601   2.427  0.1299 -0.3752  0.2588
  148HFI     F5 2262   2.164   3.432   2.566  0.7029  0.3886 -0.0825
  148HFI     F6 2263   2.078   3.437   2.361  0.2668  0.0782  0.2322
  148HFI     H1 2264   2.458   3.527   2.436  2.8269 -0.5782 -0.0182
  148HFI     H2 2265   2.303   3.281   2.412 -1.5100  0.0974 -1.3215
  149HFI     O1 2266   0.343   2.185   3.281  0.4762  0.2639  0.1202
  149HFI     C1 2267   0.272   2.076   3.341 -0.4486 -0.1022 -0.1430
  149HFI     C2 2268   0.293   2.080   3.491  0.4387  0.3271  0.6642
  149HFI     F1 2269   0.415   2.035   3.529 -0.1016  0.0964  0.1420
  149HFI     F2 2270   0.209   2.000   3.561  0.3049  0.1054  0.1620
  149HFI     F3 2271   0.283   2.203   3.541  0.0985  0.7725 -0.3381
  149HFI     C3 2272   0.306   1.939   3.277 -0.9226  0.6210  0.2057
  149HFI     F4 2273   0.270   1.943   3.150 -0.0093 -0.2058  0.1784
  149HFI     F5 2274   0.244   1.840   3.340 -0.1133 -0.4126  0.2178
  149HFI     F6 2275   0.433   1.904   3.278  0.4456 -0.2810 -0.3926
  149HFI     H1 2276   0.440   2.174   3.284  0.3964 -0.5056  0.1566
  149HFI     H2 2277   0.166   2.095   3.321  0.1174  1.0344 -2.1698
  150HFI     O1 2278   0.208   0.799   2.903 -0.2830 -0.3185 -0.7602
  150HFI     C1 2279   0.161   0.869   2.786 -0.9569  0.4500  0.8323
  150HFI     C2 2280   0.273   0.975   2.743 -1.0377  0.1681 -0.5166
  150HFI     F1 2281   0.231   1.065   2.646  0.4899  0.1845 -0.1748
  150HFI     F2 2282   0.381   0.909   2.690  0.0460  0.1186  0.4464
  150HFI     F3 2283   0.322   1.028   2.852  0.1589  0.1202 -0.2012
  150HFI     C3 2284   0.028   0.934   2.818 -0.0730  0.7365  0.2603
  150HFI     F4 2285  -0.036   0.976   2.708  0.0443  0.1144  0.1767
  150HFI     F5 2286   0.046   1.040   2.894 -0.4665  0.1122 -0.0503
  150HFI     F6 2287  -0.051   0.843   2.881  0.3840  0.1089  0.4330
  150HFI     H1 2288   0.235   0.707   2.886 -1.2844 -1.2949  2.4922
  150HFI     H2 2289   0.158   0.801   2.700  1.1548  0.7316  0.4925
  151HFI     O1 2290   0.448   2.862   3.332  0.0103  0.1151 -0.7070
  151HFI     C1 2291   0.303   2.880   3.354 -0.2418  0.3814  0.3465
  151HFI     C2 2292   0.241   2.984   3.252  0.2144  0.6342 -0.5628
  151HFI     F1 2293   0.127   3.033   3.286  0.2665 -0.0507 -0.4693
  151HFI     F2 2294   0.222   2.915   3.136 -0.4450 -0.1140  0.1901
  151HFI     F3 2295   0.324   3.090   3.232  0.5037 -0.1128  0.2897
  151HFI     C3 2296   0.262   2.923   3.500 -0.2647  0.3398 -0.1645
  151HFI     F4 2297   0.297   3.055   3.520 -0.2504  0.1109 -0.1067
  151HFI     F5 2298   0.336   2.863   3.589 -0.4286  0.3483  0.1112
  151HFI     F6 2299   0.130   2.903   3.523 -0.0746 -0.1701 -0.0456
  151HFI     H1 2300   0.476   2.935   3.274  0.0220  0.3479 -0.4095
  151HFI     H2 2301   0.264   2.780   3.332  3.1107 -0.2411 -3.2814
  152HFI     O1 2302   1.696   2.207   3.595 -0.7825  0.3337  0.9817
  152HFI     C1 2303   1.762   2.148   3.480 -1.0453 -0.0953 -0.1836
  152HFI     C2 2304   1.699   2.010   3.441 -0.1048 -0.3570 -0.4974
  152HFI     F1 2305   1.750   1.966   3.326 -0.4965  0.1654  0.1381
  152HFI     F2 2306   1.567   2.027   3.423 -0.4407  0.3480 -0.3394
  152HFI     F3 2307   1.712   1.907   3.527 -0.3218  0.1193  0.6475
  152HFI     C3 2308   1.916   2.151   3.505 -0.1557  0.4738  0.6772
  152HFI     F4 2309   1.951   2.059   3.599  0.4578 -0.5173  0.2759
  152HFI     F5 2310   1.946   2.274   3.542  0.2123  0.0715  0.6803
  152HFI     F6 2311   1.985   2.127   3.401  0.4821  0.5646 -0.1348
  152HFI     H1 2312   1.695   2.139   3.665  0.1616  1.9562  2.6208
  152HFI     H2 2313   1.745   2.205   3.388  1.5231  0.2248 -0.5075
  153HFI     O1 2314   2.418   0.463   3.789  0.2678 -0.1065 -0.2021
  153HFI     C1 2315   2.400   0.375   3.909 -0.1194  0.5021 -0.7168
  153HFI     C2 2316   2.525   0.373   4.001 -0.7765 -0.5358  0.2304
  153HFI     F1 2317   2.644   0.349   3.939  0.0761  0.0339  0.0519
  153HFI     F2 2318   2.520   0.281   4.099  0.2037  0.7186  0.2193
  153HFI     F3 2319   2.541   0.490   4.054  0.3991 -0.1595 -0.0423
  153HFI     C3 2320   2.368   0.233   3.857 -0.9365 -0.3449  0.3855
  153HFI     F4 2321   2.273   0.237   3.765 -0.0642 -0.2552 -0.8531
  153HFI     F5 2322   2.326   0.150   3.957 -0.1735  0.2941 -0.3084
  153HFI     F6 2323   2.473   0.172   3.786 -0.3036 -0.5281 -0.1887
  153HFI     H1 2324   2.364   0.426   3.717 -0.0503  2.0944 -1.1138
  153HFI     H2 2325   2.319   0.411   3.973 -0.5250  2.6571 -2.3912
  154HFI     O1 2326   3.006   2.829   3.260  0.0061  0.0347 -0.6460
  154HFI     C1 2327   3.058   2.860   3.395  0.2419 -0.1301  0.6120
  154HFI     C2 2328   2.950   2.923   3.492  0.3879 -0.1891  0.1845
  154HFI     F1 2329   2.978   2.900   3.616 -0.0387 -0.0804  0.6783
  154HFI     F2 2330   2.828   2.872   3.465  0.2459  0.2330 -0.5701
  154HFI     F3 2331   2.941   3.058   3.484  0.0754  0.7354  0.7854
  154HFI     C3 2332   3.193   2.934   3.397  1.1213 -0.0705  0.1636
  154HFI     F4 2333   3.174   3.048   3.328 -0.1331 -0.5872  0.0479
  154HFI     F5 2334   3.290   2.866   3.335 -0.4340 -0.1752 -0.0737
  154HFI     F6 2335   3.235   2.963   3.527  0.4882  0.0659 -0.3489
  154HFI     H1 2336   2.920   2.875   3.255 -1.3534 -2.1644  1.0616
  154HFI     H2 2337   3.086   2.765   3.444 -1.3906 -0.3974  1.0871
  155HFI     O1 2338   1.094   0.593   3.375  0.2415 -0.4090  0.7291
  155HFI     C1 2339   0.993   0.637   3.275  0.3829  0.2945 -0.8268
  155HFI     C2 2340   0.913   0.519   3.226 -0.3821 -0.2049 -0.0723
  155HFI     F1 2341   0.803   0.558   3.152  0.2815  0.7783 -0.5439
  155HFI     F2 2342   0.871   0.450   3.335 -0.1817  0.1665  0.1359
  155HFI     F3 2343   0.979   0.429   3.149  0.3660 -0.1611 -0.2599
  155HFI     C3 2344   1.059   0.717   3.164  0.1478 -0.4644  0.1186
  155HFI     F4 2345   1.130   0.816   3.222 -0.1207  0.2673 -0.8693
  155HFI     F5 2346   0.971   0.777   3.082 -0.0981 -0.3702 -0.0676
  155HFI     F6 2347   1.142   0.644   3.083 -0.1424 -0.5599  0.0977
  155HFI     H1 2348   1.170   0.654   3.377 -2.3001  2.9281  0.1657
  155HFI     H2 2349   0.929   0.717   3.315  0.8611  1.5234 -2.4630
  156HFI     O1 2350   0.715   0.768   0.036  0.5830 -0.3577  0.0341
  156HFI     C1 2351   0.657   0.735  -0.089  0.2498  0.4897  0.6053
  156HFI     C2 2352   0.582   0.593  -0.081  0.4165  0.4097 -0.0013
  156HFI     F1 2353   0.670   0.500  -0.038  0.1152 -0.3552  0.5121
  156HFI     F2 2354   0.536   0.549  -0.200 -0.1053 -0.0411 -0.2222
  156HFI     F3 2355   0.477   0.596  -0.003 -0.0953 -0.0394 -0.4393
  156HFI     C3 2356   0.762   0.746  -0.205  0.0323 -0.4705 -0.9541
  156HFI     F4 2357   0.721   0.719  -0.327  0.7618  0.0463 -0.0426
  156HFI     F5 2358   0.856   0.658  -0.185  0.1027  0.5780  0.4888
  156HFI     F6 2359   0.816   0.872  -0.207 -0.0658  0.2128 -0.3554
  156HFI     H1 2360   0.760   0.689   0.071 -2.6613 -2.3604 -0.1587
  156HFI     H2 2361   0.587   0.810  -0.128  0.9899 -0.6640 -3.2208
  157HFI     O1 2362   0.994   1.573   0.392  0.6498 -0.3841 -0.0800
  157HFI     C1 2363   0.853   1.604   0.373 -0.2746  0.2233 -0.0488
  157HFI     C2 2364   0.751   1.506   0.454 -0.3858  0.9024 -0.3623
  157HFI     F1 2365   0.780   1.379   0.428  0.0729  0.5855 -0.0982
  157HFI     F2 2366   0.622   1.521   0.422 -0.3211  0.2879 -0.2193
  157HFI     F3 2367   0.760   1.527   0.586 -0.0197  0.0045  0.0639
  157HFI     C3 2368   0.816   1.611   0.221 -0.6953  0.0305  0.7084
  157HFI     F4 2369   0.907   1.696   0.166  0.2923 -0.4183  0.0729
  157HFI     F5 2370   0.695   1.655   0.190  0.1192  0.1450 -0.0951
  157HFI     F6 2371   0.831   1.492   0.163 -0.6741  0.0278  0.0680
  157HFI     H1 2372   1.017   1.482   0.365  0.8073 -0.3051 -0.2065
  157HFI     H2 2373   0.830   1.705   0.409 -1.3405  0.3658 -1.1135
  158HFI     O1 2374   2.260   2.773   2.523  0.2784 -0.0753  0.3595
  158HFI     C1 2375   2.115   2.769   2.495  0.0448 -0.0833 -0.9126
  158HFI     C2 2376   2.033   2.667   2.576  0.2867 -0.4266  0.1412
  158HFI     F1 2377   1.899   2.674   2.541  0.3567  0.1065 -0.6227
  158HFI     F2 2378   2.044   2.681   2.707  0.5735  0.2055 -0.2027
  158HFI     F3 2379   2.073   2.546   2.541  0.1918 -0.4246 -0.0250
  158HFI     C3 2380   2.092   2.781   2.336  0.0961 -0.0115  0.6213
  158HFI     F4 2381   2.169   2.878   2.274  0.1018 -0.3495 -0.1183
  158HFI     F5 2382   1.962   2.819   2.315 -0.0285 -0.6419  0.6222
  158HFI     F6 2383   2.100   2.664   2.271  0.0920 -0.3575 -0.2136
  158HFI     H1 2384   2.299   2.684   2.517 -0.2538 -0.1726 -2.1079
  158HFI     H2 2385   2.078   2.866   2.529  1.8058  0.7023 -1.1899
  159HFI     O1 2386   0.696   3.403   0.593  0.0489  0.1690 -0.3294
  159HFI     C1 2387   0.831   3.428   0.645  0.2110 -1.0025 -0.2926
  159HFI     C2 2388   0.865   3.570   0.628 -0.4382 -0.3050  0.0046
  159HFI     F1 2389   0.989   3.596   0.679  0.1300  0.0082 -0.6012
  159HFI     F2 2390   0.778   3.634   0.703  0.4005 -0.1245 -0.0597
  159HFI     F3 2391   0.856   3.614   0.497 -0.4722 -0.2724  0.3178
  159HFI     C3 2392   0.929   3.322   0.591 -0.6957  0.0688 -0.4931
  159HFI     F4 2393   1.050   3.339   0.654 -0.1246  0.0099  0.2918
  159HFI     F5 2394   0.951   3.329   0.460  0.2287  0.2200  0.3958
  159HFI     F6 2395   0.880   3.200   0.621 -0.2147 -0.3700 -0.5329
  159HFI     H1 2396   0.666   3.318   0.632  2.1209 -0.2951  0.2868
  159HFI     H2 2397   0.830   3.403   0.752 -0.7568 -0.1630 -0.0934
  160HFI     O1 2398   2.290   3.291   0.736  0.0309  0.4066  0.4040
  160HFI     C1 2399   2.331   3.427   0.782  0.2108 -0.2227 -0.1342
  160HFI     C2 2400   2.348   3.526   0.658  0.4318 -0.2077 -0.2132
  160HFI     F1 2401   2.459   3.495   0.584  0.3126  0.2626 -0.0049
  160HFI     F2 2402   2.365   3.649   0.707 -0.2881 -0.5474 -0.3068
  160HFI     F3 2403   2.247   3.518   0.578  0.0719  0.4832  0.2618
  160HFI     C3 2404   2.446   3.422   0.885  1.3892 -0.0931 -0.1513
  160HFI     F4 2405   2.407   3.347   0.992  0.0682  0.7605  0.2214
  160HFI     F5 2406   2.475   3.535   0.934  0.1980 -0.3299  0.1926
  160HFI     F6 2407   2.564   3.366   0.833  0.4402  0.1280 -0.2931
  160HFI     H1 2408   2.275   3.292   0.640 -0.0705  1.1939  0.4237
  160HFI     H2 2409   2.242   3.474   0.828 -1.6035 -2.9962 -0.7072
  161HFI     O1 2410   1.591   2.064   2.850  0.7235 -0.2436  0.3602
  161HFI     C1 2411   1.452   2.020   2.853 -0.0361  0.0760 -0.5588
  161HFI     C2 2412   1.369   2.083   2.729  0.5461  0.4877 -0.6363
  161HFI     F1 2413   1.429   2.052   2.607  0.0563  0.4786 -0.4252
  161HFI     F2 2414   1.350   2.217   2.740  0.2884 -0.2757  0.0694
  161HFI     F3 2415   1.238   2.031   2.724 -0.3469  0.0605 -0.3140
  161HFI     C3 2416   1.393   2.053   2.999  0.2828 -0.3672 -0.0500
  161HFI     F4 2417   1.268   1.994   3.014  0.3783 -0.5229 -0.3899
  161HFI     F5 2418   1.377   2.184   3.020  0.1747  0.1519 -0.1775
  161HFI     F6 2419   1.466   2.005   3.101  0.2796  0.8215  0.1662
  161HFI     H1 2420   1.646   2.006   2.904 -0.3125 -3.6599 -2.0687
  161HFI     H2 2421   1.446   1.912   2.838  0.1351  0.1443 -1.1210
  162HFI     O1 2422   0.111   0.760   2.209 -0.2402 -0.4377  0.3772
  162HFI     C1 2423   0.213   0.858   2.250  0.0271  0.1273  0.1089
  162HFI     C2 2424   0.321   0.791   2.339 -0.0161  0.1376 -0.3233
  162HFI     F1 2425   0.425   0.865   2.372 -0.0449 -0.3524 -0.0131
  162HFI     F2 2426   0.366   0.686   2.269 -0.4930 -0.5054 -0.4004
  162HFI     F3 2427   0.269   0.739   2.451 -0.1177 -0.1640 -0.0563
  162HFI     C3 2428   0.161   0.990   2.311  0.3014  0.1505 -0.1734
  162HFI     F4 2429   0.261   1.082   2.334 -0.3070  0.1120 -0.5843
  162HFI     F5 2430   0.097   0.974   2.429  0.2038 -0.1505 -0.4689
  162HFI     F6 2431   0.082   1.051   2.222 -0.4367  0.2591  0.9330
  162HFI     H1 2432   0.025   0.782   2.249 -0.4727  0.3533 -0.5463
  162HFI     H2 2433   0.260   0.885   2.155  0.3887 -2.7027 -0.5356
  163HFI     O1 2434   1.322   0.304   3.115  0.1871 -0.4595  0.6450
  163HFI     C1 2435   1.418   0.193   3.099 -0.0519 -0.5367 -0.8888
  163HFI     C2 2436   1.400   0.078   3.209  0.5162  0.1121  0.6069
  163HFI     F1 2437   1.271   0.044   3.213 -0.0491  0.3615  0.5229
  163HFI     F2 2438   1.427   0.112   3.335  0.1200  0.6498  0.1387
  163HFI     F3 2439   1.477  -0.034   3.183 -0.1387  0.1355  0.7512
  163HFI     C3 2440   1.564   0.236   3.080  0.1699 -0.3803 -0.1548
  163HFI     F4 2441   1.615   0.268   3.195 -0.0288  0.2269  0.2584
  163HFI     F5 2442   1.571   0.341   3.004 -0.5228  0.0695  0.1321
  163HFI     F6 2443   1.645   0.139   3.028 -0.1255 -0.6102  0.6477
  163HFI     H1 2444   1.241   0.259   3.145  1.4829 -2.0447  1.8363
  163HFI     H2 2445   1.401   0.141   3.004  0.1665  0.2230 -1.3457
  164HFI     O1 2446   2.967   2.676   1.090  0.6900 -0.5765 -0.2386
  164HFI     C1 2447   2.924   2.784   1.003 -0.5389  0.5453 -0.3649
  164HFI     C2 2448   2.854   2.908   1.076 -0.8972 -0.0965  0.9869
  164HFI     F1 2449   2.942   2.958   1.167  0.1016 -0.6573  0.4360
  164HFI     F2 2450   2.743   2.863   1.139 -0.1326 -0.0973  0.0531
  164HFI     F3 2451   2.812   3.007   0.992 -0.0081 -0.1114  0.3468
  164HFI     C3 2452   2.832   2.730   0.892 -0.4285  0.6962 -0.6511
  164HFI     F4 2453   2.782   2.825   0.804 -0.2255 -0.3111 -0.0157
  164HFI     F5 2454   2.726   2.662   0.951 -0.0788  0.5425 -0.4975
  164HFI     F6 2455   2.893   2.639   0.825  0.1617 -0.1379 -0.0013
  164HFI     H1 2456   3.055   2.697   1.125 -0.5346  2.2805  1.3542
  164HFI     H2 2457   3.011   2.831   0.956 -1.3285  2.0404 -0.3843
  165HFI     O1 2458   0.131   1.615   2.467 -1.0737  0.0194 -0.0889
  165HFI     C1 2459   0.272   1.610   2.443 -0.4657 -0.2297  0.5609
  165HFI     C2 2460   0.321   1.657   2.304 -0.5444  0.6008 -0.1458
  165HFI     F1 2461   0.288   1.563   2.209  0.6325  0.0435  0.3631
  165HFI     F2 2462   0.457   1.669   2.293 -0.4353 -0.3209  0.1805
  165HFI     F3 2463   0.261   1.768   2.280  0.7095  0.1674  0.0795
  165HFI     C3 2464   0.327   1.473   2.492  0.5674 -0.2055  0.5001
  165HFI     F4 2465   0.354   1.483   2.626  0.1087  0.2253 -0.2188
  165HFI     F5 2466   0.441   1.435   2.436  0.3146  0.3900  0.0321
  165HFI     F6 2467   0.243   1.374   2.483  0.1323  0.1683 -0.7647
  165HFI     H1 2468   0.116   1.587   2.559 -0.3919  2.0740  0.6951
  165HFI     H2 2469   0.310   1.692   2.506  0.3615  0.2260 -0.5363
  166HFI     O1 2470   2.156   1.802   2.793  0.6911 -0.2827  0.2517
  166HFI     C1 2471   2.036   1.813   2.877  0.0724 -0.4614 -0.1623
  166HFI     C2 2472   1.935   1.693   2.864 -0.0696  0.9170 -0.6281
  166HFI     F1 2473   1.998   1.583   2.906 -0.1672  0.4315 -0.1905
  166HFI     F2 2474   1.889   1.679   2.737  0.4400  0.1006 -0.3252
  166HFI     F3 2475   1.830   1.707   2.954  0.0059  0.4641  0.3493
  166HFI     C3 2476   1.956   1.945   2.847 -0.2485  0.6227  0.4528
  166HFI     F4 2477   1.843   1.962   2.919  0.0934  0.3932 -0.0485
  166HFI     F5 2478   1.934   1.956   2.716 -0.1157  0.0826 -0.3333
  166HFI     F6 2479   2.033   2.053   2.871 -0.1204 -0.3766  0.0999
  166HFI     H1 2480   2.135   1.829   2.702 -0.7942  0.3553  0.7597
  166HFI     H2 2481   2.069   1.817   2.981  0.5010  1.6225 -0.3571
  167HFI     O1 2482   1.741   3.373   2.292 -0.2439  0.6370 -0.0176
  167HFI     C1 2483   1.708   3.250   2.366  0.1250  0.4498  0.1669
  167HFI     C2 2484   1.795   3.132   2.322 -0.0899  0.5160  0.6036
  167HFI     F1 2485   1.740   3.009   2.355 -0.5559  0.1916  0.3368
  167HFI     F2 2486   1.915   3.145   2.379 -0.2707 -0.3970  0.0383
  167HFI     F3 2487   1.815   3.139   2.189  0.4963 -0.0366 -0.1462
  167HFI     C3 2488   1.560   3.213   2.349 -0.4464 -0.7104  0.1832
  167HFI     F4 2489   1.483   3.315   2.382 -0.2826  0.5301  0.1609
  167HFI     F5 2490   1.519   3.123   2.436 -0.6393  0.3428 -0.1281
  167HFI     F6 2491   1.534   3.170   2.227 -0.2398 -0.6869 -0.3755
  167HFI     H1 2492   1.762   3.347   2.201  2.5985  0.5126  0.6305
  167HFI     H2 2493   1.729   3.265   2.473  2.2192 -1.1308  0.0137
  168HFI     O1 2494   3.067   3.264   2.880  0.0915 -0.7780 -0.5343
  168HFI     C1 2495   2.946   3.350   2.837 -0.0534  0.7029 -0.6910
  168HFI     C2 2496   2.959   3.388   2.692  0.1977  0.2528  0.3899
  168HFI     F1 2497   2.938   3.278   2.619 -0.2316 -0.1147  0.2128
  168HFI     F2 2498   3.084   3.425   2.663 -0.1033  0.1303  0.1851
  168HFI     F3 2499   2.876   3.487   2.644  0.3066 -0.2814  0.4373
  168HFI     C3 2500   2.941   3.472   2.924  0.0222  0.1277  1.1778
  168HFI     F4 2501   3.042   3.560   2.907 -0.4123  0.0941  0.0982
  168HFI     F5 2502   2.949   3.437   3.054  0.5394 -0.3803  0.2989
  168HFI     F6 2503   2.826   3.531   2.920  0.0788  0.1540  0.4738
  168HFI     H1 2504   3.136   3.320   2.919  0.1791  0.6069 -2.5911
  168HFI     H2 2505   2.854   3.292   2.851 -1.0424  2.0461 -1.5970
  169HFI     O1 2506   2.351   1.458   3.418 -0.0324 -0.2553  0.4865
  169HFI     C1 2507   2.461   1.372   3.400 -0.0170 -0.1444  0.1863
  169HFI     C2 2508   2.437   1.283   3.273  0.0410 -0.3615  0.3066
  169HFI     F1 2509   2.543   1.204   3.242  0.3522 -0.0159  0.2577
  169HFI     F2 2510   2.428   1.357   3.162 -0.7174  0.6984 -0.7786
  169HFI     F3 2511   2.329   1.211   3.279 -0.4023  0.7305  0.2124
  169HFI     C3 2512   2.496   1.278   3.522  0.1303  0.1897 -0.7426
  169HFI     F4 2513   2.426   1.159   3.524 -0.0468 -0.3491 -0.1594
  169HFI     F5 2514   2.466   1.341   3.633  0.0478 -0.4500  0.2855
  169HFI     F6 2515   2.626   1.235   3.535  0.6789 -0.3101  0.3313
  169HFI     H1 2516   2.272   1.408   3.442 -0.6764  0.0834 -0.8832
  169HFI     H2 2517   2.551   1.424   3.365  0.5903 -1.1948  0.1646
  170HFI     O1 2518   1.245   1.198   3.481 -0.0329  0.4090 -0.1228
  170HFI     C1 2519   1.179   1.116   3.376  0.1353 -0.6015 -0.0343
  170HFI     C2 2520   1.245   1.135   3.240  0.3510 -0.4583 -0.1987
  170HFI     F1 2521   1.377   1.112   3.252 -0.2582 -0.2144  0.4308
  170HFI     F2 2522   1.227   1.272   3.210  0.6791 -0.2634 -0.0185
  170HFI     F3 2523   1.195   1.063   3.134 -0.7263  0.3109  0.6460
  170HFI     C3 2524   1.026   1.133   3.375  0.0782 -0.0583 -0.2156
  170HFI     F4 2525   0.977   1.260   3.370  0.8275  0.0222 -0.2483
  170HFI     F5 2526   0.978   1.075   3.493 -0.3282 -0.0352 -0.0465
  170HFI     F6 2527   0.973   1.059   3.273 -0.3443  0.1125 -0.7189
  170HFI     H1 2528   1.320   1.252   3.451  2.0008 -0.8953  2.4839
  170HFI     H2 2529   1.190   1.008   3.391  4.5626 -0.2937 -0.4853
  171HFI     O1 2530   0.577   3.390   2.982 -0.4110 -0.3526 -0.2060
  171HFI     C1 2531   0.716   3.431   2.954  0.3817  0.2078 -0.3689
  171HFI     C2 2532   0.759   3.413   2.804  0.2999 -0.3299  0.1746
  171HFI     F1 2533   0.668   3.483   2.736  0.0383 -0.5668 -0.1253
  171HFI     F2 2534   0.752   3.290   2.765 -0.5005  0.5884  0.4607
  171HFI     F3 2535   0.880   3.468   2.769 -0.1906 -0.5394  0.4409
  171HFI     C3 2536   0.822   3.373   3.057  0.4357  0.0853 -0.6240
  171HFI     F4 2537   0.946   3.438   3.048  0.1184 -0.0538  0.3086
  171HFI     F5 2538   0.838   3.240   3.032 -0.0050  0.1536 -0.2181
  171HFI     F6 2539   0.774   3.380   3.185  0.1547 -0.5329 -0.0058
  171HFI     H1 2540   0.525   3.470   2.962  0.1862  0.5877  1.7968
  171HFI     H2 2541   0.726   3.538   2.978 -1.5827  0.0579  1.2831
  172HFI     O1 2542   1.056   2.081   3.209  0.3035  0.5511 -0.6620
  172HFI     C1 2543   0.929   2.031   3.252  0.7453  0.3601  0.0326
  172HFI     C2 2544   0.908   1.880   3.220 -0.1093  0.9269  0.2497
  172HFI     F1 2545   0.809   1.826   3.296  0.0580  0.3924 -0.0948
  172HFI     F2 2546   1.025   1.806   3.243  0.5795  0.1918  0.2905
  172HFI     F3 2547   0.876   1.867   3.089  0.3023 -0.6944 -0.3956
  172HFI     C3 2548   0.802   2.118   3.216 -0.3442  0.0768  0.6067
  172HFI     F4 2549   0.816   2.245   3.252  0.3637 -0.4648 -0.0985
  172HFI     F5 2550   0.695   2.069   3.284  0.3419  0.5153  0.9274
  172HFI     F6 2551   0.770   2.119   3.093  0.0995 -0.2165 -0.0306
  172HFI     H1 2552   1.074   2.170   3.244  3.3344  0.0433 -0.7903
  172HFI     H2 2553   0.930   2.051   3.360 -0.9214  0.6016  0.0189
  173HFI     O1 2554   0.703   0.323   1.115  0.3084  0.4802  0.3824
  173HFI     C1 2555   0.846   0.312   1.153  0.3972  0.2445 -0.3782
  173HFI     C2 2556   0.916   0.452   1.122  0.6224 -0.5962 -0.0277
  173HFI     F1 2557   0.926   0.462   0.979  0.2303  0.2494 -0.0829
  173HFI     F2 2558   1.037   0.456   1.178 -0.5106 -0.3278 -0.1787
  173HFI     F3 2559   0.842   0.545   1.180 -0.6084 -0.1291  0.1121
  173HFI     C3 2560   0.909   0.188   1.081 -0.2589 -1.1531  0.0935
  173HFI     F4 2561   1.049   0.195   1.094 -0.4351 -0.1157  0.8133
  173HFI     F5 2562   0.879   0.182   0.955  0.2062  0.2820  0.3571
  173HFI     F6 2563   0.865   0.061   1.122 -0.4567 -0.5756  0.2777
  173HFI     H1 2564   0.660   0.385   1.177  2.7172  0.8027  1.8247
  173HFI     H2 2565   0.851   0.305   1.262 -2.2939  3.5409  0.0231
  174HFI     O1 2566   2.151   2.146   2.249  0.1907  0.8840  0.5652
  174HFI     C1 2567   2.239   2.179   2.360 -0.4693  0.7075  0.3448
  174HFI     C2 2568   2.312   2.322   2.328 -0.4662 -0.1057 -0.0034
  174HFI     F1 2569   2.221   2.406   2.272  0.4796 -0.0524 -0.2240
  174HFI     F2 2570   2.419   2.311   2.247  0.1309 -0.4880 -0.1462
  174HFI     F3 2571   2.353   2.384   2.444  0.4341 -0.4391 -0.2892
  174HFI     C3 2572   2.355   2.079   2.384  0.7232 -0.4777 -0.1986
  174HFI     F4 2573   2.455   2.133   2.459 -0.1096  0.1324  0.3520
  174HFI     F5 2574   2.400   2.033   2.268  0.0012  0.4374  0.1017
  174HFI     F6 2575   2.307   1.972   2.448  0.2022 -0.2338  0.1167
  174HFI     H1 2576   2.183   2.068   2.201 -1.1401 -0.4958  1.8333
  174HFI     H2 2577   2.177   2.191   2.449 -1.7805  1.4581 -0.6523
  175HFI     O1 2578   3.220   2.815   2.675 -0.0331 -0.1467  0.5742
  175HFI     C1 2579   3.170   2.878   2.798 -0.1191 -0.8189 -0.3785
  175HFI     C2 2580   3.205   2.780   2.919  0.2606  0.3281  0.4091
  175HFI     F1 2581   3.213   2.845   3.039  0.1889 -0.0460 -0.3571
  175HFI     F2 2582   3.329   2.707   2.896 -0.4946 -0.1751 -0.1980
  175HFI     F3 2583   3.112   2.681   2.946  0.0267  0.1268 -0.2838
  175HFI     C3 2584   3.021   2.910   2.786  0.2611  0.1113  0.2500
  175HFI     F4 2585   2.956   2.797   2.754  0.4188  0.7172  0.0689
  175HFI     F5 2586   2.994   3.003   2.688  0.1393 -0.2524  0.6288
  175HFI     F6 2587   2.962   2.955   2.894 -0.7569 -0.3530 -0.0427
  175HFI     H1 2588   3.210   2.872   2.596  0.1984  0.3169  0.8836
  175HFI     H2 2589   3.221   2.975   2.803 -0.0714 -0.7850 -1.4509
  176HFI     O1 2590   0.464   3.217   2.481  0.2582 -0.1852  0.4640
  176HFI     C1 2591   0.522   3.111   2.401  0.7380  0.1863  0.0462
  176HFI     C2 2592   0.672   3.089   2.419  0.1729  0.3700  0.2144
  176HFI     F1 2593   0.748   3.202   2.425  0.2202 -0.4960  0.0987
  176HFI     F2 2594   0.722   3.012   2.322 -0.4597  0.1451 -0.0681
  176HFI     F3 2595   0.683   3.021   2.534  0.4046 -0.2964 -0.8397
  176HFI     C3 2596   0.476   3.122   2.251 -0.1923 -0.1644  0.5295
  176HFI     F4 2597   0.542   3.224   2.182  0.5543 -1.0173 -0.0309
  176HFI     F5 2598   0.348   3.153   2.241  0.3390 -0.0079 -0.3535
  176HFI     F6 2599   0.500   3.006   2.185  0.2099  0.0603  0.3235
  176HFI     H1 2600   0.520   3.297   2.475  0.3506 -0.3221 -0.6829
  176HFI     H2 2601   0.476   3.017   2.432  1.8368 -0.8153 -1.3280
  177HFI     O1 2602   2.791   1.314   2.746  0.7984  0.5334  0.0677
  177HFI     C1 2603   2.771   1.170   2.773 -0.1501 -0.5770  0.2684
  177HFI     C2 2604   2.854   1.067   2.697  0.2547  0.6329 -0.3737
  177HFI     F1 2605   2.827   0.941   2.735  0.0970 -0.1584  0.4141
  177HFI     F2 2606   2.979   1.079   2.736 -0.3213 -0.0234  0.2498
  177HFI     F3 2607   2.840   1.070   2.557  0.6089 -0.0337  0.2076
  177HFI     C3 2608   2.617   1.134   2.751  0.7705 -0.4450 -0.3954
  177HFI     F4 2609   2.579   1.015   2.800 -0.1695 -0.2014 -0.1179
  177HFI     F5 2610   2.581   1.137   2.618  0.1044  0.4407  0.0997
  177HFI     F6 2611   2.540   1.225   2.817  0.3600  0.3216  0.3017
  177HFI     H1 2612   2.863   1.348   2.801  1.8748 -1.0181 -0.3465
  177HFI     H2 2613   2.807   1.146   2.874  4.0094  0.7669 -0.8257
  178HFI     O1 2614   2.345   2.244   0.176 -0.1789  0.2661 -0.0332
  178HFI     C1 2615   2.426   2.179   0.068 -0.1891  0.1235 -0.2743
  178HFI     C2 2616   2.342   2.163  -0.059 -0.5492 -0.0081  0.3932
  178HFI     F1 2617   2.426   2.137  -0.160 -0.5984  0.2395 -0.7365
  178HFI     F2 2618   2.285   2.285  -0.092 -0.1516  0.2032 -0.2645
  178HFI     F3 2619   2.253   2.067  -0.050 -0.0261  0.1145 -0.1067
  178HFI     C3 2620   2.493   2.047   0.120 -0.1840 -0.0183 -0.3096
  178HFI     F4 2621   2.585   2.010   0.031 -0.3592  0.1327 -0.3587
  178HFI     F5 2622   2.414   1.943   0.147 -0.8822 -0.0582 -0.0823
  178HFI     F6 2623   2.579   2.079   0.227 -0.4615 -0.0659  0.0878
  178HFI     H1 2624   2.385   2.228   0.262 -0.6870 -2.4379 -0.2533
  178HFI     H2 2625   2.506   2.249   0.043  1.0897 -0.5039  1.9921
  179HFI     O1 2626   0.329   3.328   0.489 -0.1956 -0.6489 -0.8143
  179HFI     C1 2627   0.318   3.185   0.515  0.0298 -0.3437  0.4392
  179HFI     C2 2628   0.168   3.157   0.551  0.0507  0.1793 -0.0671
  179HFI     F1 2629   0.131   3.209   0.664  0.1629  0.0628  0.2410
  179HFI     F2 2630   0.143   3.024   0.567  0.0570  0.5745  0.0093
  179HFI     F3 2631   0.080   3.202   0.452  0.3841 -0.3714 -0.0840
  179HFI     C3 2632   0.424   3.133   0.621  0.6025 -0.2382  0.2331
  179HFI     F4 2633   0.550   3.148   0.565  0.0033  0.8247 -0.5399
  179HFI     F5 2634   0.398   3.001   0.664 -0.1318 -0.2094 -0.3338
  179HFI     F6 2635   0.411   3.207   0.727  0.6421 -0.0058  0.1840
  179HFI     H1 2636   0.317   3.381   0.570 -0.5149 -0.3714 -1.0429
  179HFI     H2 2637   0.328   3.137   0.416 -0.4439 -0.9684  0.6881
  180HFI     O1 2638   2.404   0.932   1.348  0.6893 -0.3400  0.1042
  180HFI     C1 2639   2.335   1.041   1.414 -0.0179  0.3901  0.6263
  180HFI     C2 2640   2.435   1.108   1.511  0.3280 -0.6088  0.6176
  180HFI     F1 2641   2.536   1.169   1.437 -0.2032 -0.3678 -0.3946
  180HFI     F2 2642   2.497   1.010   1.591  0.1197 -0.2766  0.3624
  180HFI     F3 2643   2.386   1.210   1.586 -0.3136 -0.5567  0.3426
  180HFI     C3 2644   2.216   0.987   1.491 -0.0444  0.4765  0.0354
  180HFI     F4 2645   2.122   0.937   1.409  0.1302  0.2045 -0.0117
  180HFI     F5 2646   2.157   1.072   1.576  0.0179 -0.5079  0.1241
  180HFI     F6 2647   2.256   0.882   1.574 -0.6209 -0.1620 -0.0578
  180HFI     H1 2648   2.498   0.945   1.372  0.4605  2.3080 -0.3442
  180HFI     H2 2649   2.306   1.117   1.341  0.2161 -0.0069  0.1140
  181HFI     O1 2650   2.268   3.388   3.055  0.0274  0.1733  0.5613
  181HFI     C1 2651   2.393   3.377   2.977 -0.1392 -0.0451 -0.1877
  181HFI     C2 2652   2.508   3.331   3.064 -0.4636 -0.1195 -0.0577
  181HFI     F1 2653   2.477   3.214   3.126  0.3028  0.0317 -0.2635
  181HFI     F2 2654   2.538   3.421   3.159 -0.4420  0.0700  0.1420
  181HFI     F3 2655   2.617   3.312   2.992 -0.1454 -0.3259  0.6953
  181HFI     C3 2656   2.434   3.503   2.896  0.4460 -0.8838  0.3344
  181HFI     F4 2657   2.335   3.524   2.815 -0.7339  0.1887 -0.1038
  181HFI     F5 2658   2.548   3.499   2.827 -0.2176  0.6276 -0.0057
  181HFI     F6 2659   2.442   3.606   2.978 -0.4397  0.0575  0.4937
  181HFI     H1 2660   2.284   3.466   3.110  1.4128  0.0925  0.3015
  181HFI     H2 2661   2.376   3.299   2.902 -0.8192 -1.3501  1.2841
  182HFI     O1 2662   1.668   2.310   2.731  0.4820 -0.3067  0.0498
  182HFI     C1 2663   1.679   2.457   2.755 -0.2795  0.2245  0.0633
  182HFI     C2 2664   1.788   2.485   2.861  0.7258 -0.7077 -0.6793
  182HFI     F1 2665   1.776   2.398   2.963 -0.0220  0.1971  0.0357
  182HFI     F2 2666   1.787   2.609   2.914  0.2009 -0.1590 -0.1106
  182HFI     F3 2667   1.912   2.469   2.805 -0.0062 -0.4621  0.6766
  182HFI     C3 2668   1.544   2.527   2.775 -0.3470  0.1766  0.0983
  182HFI     F4 2669   1.456   2.491   2.674 -0.0645  0.4516  0.1422
  182HFI     F5 2670   1.568   2.664   2.765 -0.2759  0.6758 -0.0749
  182HFI     F6 2671   1.484   2.496   2.899 -0.5416 -0.3809  0.0172
  182HFI     H1 2672   1.641   2.272   2.816  1.6270  2.6159  1.8087
  182HFI     H2 2673   1.708   2.506   2.661 -3.7131 -1.2301 -1.8250
  183HFI     O1 2674   2.975   2.602   3.684 -0.1071 -0.1584 -0.0227
  183HFI     C1 2675   2.855   2.535   3.645 -0.4127 -0.3717  0.0035
  183HFI     C2 2676   2.823   2.426   3.755  0.8171 -0.2588  0.2701
  183HFI     F1 2677   2.859   2.470   3.877  0.0733 -0.2628  0.2242
  183HFI     F2 2678   2.889   2.310   3.737 -0.3554 -0.0075  0.2963
  183HFI     F3 2679   2.690   2.396   3.761 -0.0882  0.0631 -0.1656
  183HFI     C3 2680   2.866   2.483   3.490  0.6248  0.3158 -0.1852
  183HFI     F4 2681   2.846   2.586   3.404  0.1968  0.0451  0.1266
  183HFI     F5 2682   2.770   2.391   3.464 -0.0741 -0.1424 -0.6435
  183HFI     F6 2683   2.994   2.428   3.471  0.5907 -0.2290  0.1546
  183HFI     H1 2684   2.966   2.652   3.767  1.8652  2.2162 -1.2039
  183HFI     H2 2685   2.772   2.607   3.645  0.1129  0.2334  0.1257
  184HFI     O1 2686   1.847   1.343   3.280 -0.5644 -0.0395 -0.0996
  184HFI     C1 2687   1.794   1.458   3.355  0.3098  0.2206 -0.1633
  184HFI     C2 2688   1.672   1.517   3.290  0.2512  0.0528  0.0395
  184HFI     F1 2689   1.707   1.583   3.178  0.1102 -0.2320 -0.2723
  184HFI     F2 2690   1.610   1.606   3.369 -0.5069  0.0465 -0.4943
  184HFI     F3 2691   1.581   1.421   3.247 -0.0943 -0.3310  0.0832
  184HFI     C3 2692   1.915   1.555   3.372 -0.1805  0.3949  0.3881
  184HFI     F4 2693   2.011   1.480   3.419 -0.2850 -0.1653  0.2869
  184HFI     F5 2694   1.890   1.651   3.456  0.3028 -0.0106 -0.4907
  184HFI     F6 2695   1.960   1.612   3.259 -0.3318 -0.0999  0.7567
  184HFI     H1 2696   1.768   1.309   3.234  0.1962 -1.9801 -0.0130
  184HFI     H2 2697   1.767   1.431   3.458 -1.1100 -0.8986 -0.8019
  185HFI     O1 2698   2.187   0.457   2.452 -0.4769  0.0383  0.1789
  185HFI     C1 2699   2.074   0.528   2.404 -0.0960 -0.7843 -0.3255
  185HFI     C2 2700   1.934   0.482   2.469 -0.4490 -0.4019  0.7119
  185HFI     F1 2701   1.938   0.468   2.609 -0.8163  0.3975 -0.0045
  185HFI     F2 2702   1.911   0.354   2.422 -0.8571 -0.1421 -0.1796
  185HFI     F3 2703   1.830   0.562   2.433 -0.3191 -0.3250 -0.2925
  185HFI     C3 2704   2.077   0.517   2.247 -0.3975 -0.3287 -0.1369
  185HFI     F4 2705   2.129   0.394   2.203 -0.6086  0.2936  0.2743
  185HFI     F5 2706   2.158   0.606   2.191 -0.0122  0.0115 -0.2213
  185HFI     F6 2707   1.961   0.540   2.194 -0.1220 -0.0105  0.3756
  185HFI     H1 2708   2.189   0.373   2.402  0.3200  1.7673 -2.8130
  185HFI     H2 2709   2.085   0.635   2.426 -0.7123 -0.9680  0.9156
  186HFI     O1 2710   3.080   0.950   2.422  0.4753  0.5916 -0.0115
  186HFI     C1 2711   3.071   0.807   2.401 -0.0172  0.1950  0.0588
  186HFI     C2 2712   3.177   0.730   2.486 -0.1487  0.2210 -0.1096
  186HFI     F1 2713   3.130   0.719   2.618  0.3523 -0.7122  0.4164
  186HFI     F2 2714   3.293   0.790   2.480 -0.3035  0.3908 -0.3749
  186HFI     F3 2715   3.201   0.600   2.440 -0.0954  0.3057  0.2430
  186HFI     C3 2716   3.095   0.777   2.250 -0.4502 -0.1158  0.3225
  186HFI     F4 2717   3.224   0.792   2.214  0.1679  0.4262 -0.1627
  186HFI     F5 2718   3.027   0.868   2.173 -0.4870  0.3617 -0.0310
  186HFI     F6 2719   3.057   0.655   2.216  0.3131  0.4597  0.2813
  186HFI     H1 2720   3.001   0.997   2.390 -1.0893 -1.7839  0.1880
  186HFI     H2 2721   2.972   0.774   2.436  0.0058 -0.2389 -0.2890
  187HFI     O1 2722   2.495   2.279   2.682  0.7377  0.4615  0.3029
  187HFI     C1 2723   2.400   2.284   2.793 -0.3401  0.3513  0.5642
  187HFI     C2 2724   2.337   2.142   2.810 -0.1603 -0.4632 -0.1771
  187HFI     F1 2725   2.437   2.053   2.809 -0.1697 -0.0796 -0.1644
  187HFI     F2 2726   2.250   2.105   2.708 -0.0047 -0.1660  0.1584
  187HFI     F3 2727   2.283   2.119   2.930 -0.1808  0.4388 -0.3360
  187HFI     C3 2728   2.300   2.398   2.771 -0.1911 -0.6320 -0.0604
  187HFI     F4 2729   2.358   2.508   2.723 -0.6178  0.1652 -0.2102
  187HFI     F5 2730   2.248   2.423   2.892 -0.2395  0.4883 -0.1121
  187HFI     F6 2731   2.200   2.369   2.688 -0.1167 -0.0879 -0.0264
  187HFI     H1 2732   2.447   2.315   2.606  0.9085  0.0378 -0.0064
  187HFI     H2 2733   2.460   2.318   2.878  0.8805 -0.7606  0.1613
  188HFI     O1 2734   2.751   2.084   2.210  0.7735  0.3706  0.1683
  188HFI     C1 2735   2.828   2.026   2.316  0.4229 -0.1915 -0.0487
  188HFI     C2 2736   2.855   2.124   2.431 -0.8668 -0.8218 -0.0063
  188HFI     F1 2737   2.749   2.196   2.466  0.2638 -0.1162  0.0039
  188HFI     F2 2738   2.964   2.204   2.408  0.2239 -0.3907  0.0952
  188HFI     F3 2739   2.887   2.050   2.540 -0.0795 -0.3042  0.2890
  188HFI     C3 2740   2.962   1.969   2.262 -0.1848 -0.4173  0.7009
  188HFI     F4 2741   3.061   1.944   2.354  0.6768  0.1774  0.3911
  188HFI     F5 2742   3.014   2.059   2.176 -0.3602  0.3066 -0.1713
  188HFI     F6 2743   2.935   1.853   2.197  0.5483 -0.4029 -0.5803
  188HFI     H1 2744   2.798   2.057   2.129  1.2877  0.4311  0.4446
  188HFI     H2 2745   2.767   1.943   2.355 -2.2643  2.0384  0.6765
  189HFI     O1 2746   2.272   3.028   0.857 -0.3916  0.1525  0.4569
  189HFI     C1 2747   2.279   2.945   0.975  0.0937 -0.0597 -0.1821
  189HFI     C2 2748   2.192   2.998   1.098 -0.0319 -0.1269 -0.3261
  189HFI     F1 2749   2.187   2.918   1.201 -0.3305  0.2721  0.7004
  189HFI     F2 2750   2.071   3.015   1.046 -0.4311  0.1502  0.0456
  189HFI     F3 2751   2.227   3.123   1.146  0.2069 -0.6485 -0.1169
  189HFI     C3 2752   2.427   2.915   1.006 -0.2333  0.2020 -0.5264
  189HFI     F4 2753   2.503   2.891   0.897 -0.0255  0.5162 -0.0014
  189HFI     F5 2754   2.428   2.809   1.088 -0.4305  0.0653 -0.0169
  189HFI     F6 2755   2.494   3.021   1.065 -0.2258 -0.1637 -0.0676
  189HFI     H1 2756   2.277   3.122   0.883  2.4364  0.0446  0.4697
  189HFI     H2 2757   2.249   2.840   0.961 -1.3878  0.1162  1.4719
  190HFI     O1 2758   1.742   0.482   0.866 -0.5587  0.1276  0.3721
  190HFI     C1 2759   1.857   0.492   0.777 -0.0202  0.0588 -0.1743
  190HFI     C2 2760   1.815   0.464   0.628 -0.5326 -0.6101  0.3475
  190HFI     F1 2761   1.725   0.558   0.578 -0.1293 -0.0750 -0.5108
  190HFI     F2 2762   1.757   0.343   0.609 -0.0997 -0.2157  0.2359
  190HFI     F3 2763   1.924   0.465   0.546  0.7213  0.2002  0.4990
  190HFI     C3 2764   1.980   0.409   0.830 -0.2393 -0.0366 -0.1644
  190HFI     F4 2765   2.096   0.465   0.782 -0.0600  0.0023  0.0007
  190HFI     F5 2766   1.968   0.279   0.798 -0.3705 -0.1602 -0.0486
  190HFI     F6 2767   1.988   0.413   0.970 -0.0255  0.2709  0.3712
  190HFI     H1 2768   1.783   0.444   0.946  2.0167  3.1328  0.5881
  190HFI     H2 2769   1.893   0.595   0.776 -1.3547  0.5383 -0.1375
  191HFI     O1 2770   2.018   2.240   0.663 -0.1105 -0.1050 -0.0150
  191HFI     C1 2771   2.092   2.116   0.626  0.6123 -0.4902  0.5979
  191HFI     C2 2772   2.109   2.020   0.741 -0.0458 -0.1623  0.4603
  191HFI     F1 2773   2.167   2.082   0.844  0.0825 -0.5650 -0.0686
  191HFI     F2 2774   2.172   1.908   0.710  0.6188  0.4410  0.4550
  191HFI     F3 2775   1.988   1.994   0.791  0.5362  0.2397  0.4824
  191HFI     C3 2776   2.220   2.157   0.553 -0.0269 -0.3560  0.5777
  191HFI     F4 2777   2.253   2.046   0.498 -0.3836 -0.1910  0.1676
  191HFI     F5 2778   2.320   2.195   0.630 -0.4499 -0.4992 -0.0201
  191HFI     F6 2779   2.209   2.252   0.450 -0.0134 -0.1213  0.0061
  191HFI     H1 2780   1.956   2.216   0.733  0.0675 -1.3673 -0.2637
  191HFI     H2 2781   2.036   2.064   0.546  3.0611  0.5310 -1.8516
  192HFI     O1 2782   0.565   2.940   1.483 -0.1873  0.0192 -0.5325
  192HFI     C1 2783   0.454   2.851   1.492 -0.1311 -0.2615 -0.2492
  192HFI     C2 2784   0.509   2.714   1.465 -0.2764 -0.4771 -0.1969
  192HFI     F1 2785   0.561   2.703   1.336 -0.0892  0.1580 -0.1101
  192HFI     F2 2786   0.415   2.613   1.465  0.7276 -0.0209 -0.0593
  192HFI     F3 2787   0.606   2.681   1.550 -0.6768  0.3376 -0.7329
  192HFI     C3 2788   0.333   2.889   1.399 -0.7916 -0.6738  0.2064
  192HFI     F4 2789   0.220   2.821   1.431 -0.3998  0.1706  0.1523
  192HFI     F5 2790   0.357   2.871   1.266 -0.4213  0.6082 -0.3681
  192HFI     F6 2791   0.302   3.018   1.413  0.3397 -0.1142 -0.1080
  192HFI     H1 2792   0.599   2.934   1.392  0.1609 -0.3322 -0.3841
  192HFI     H2 2793   0.412   2.863   1.593 -1.6796 -1.9242 -0.6724
  193HFI     O1 2794   1.065   0.376   2.574  0.7219  0.3339  0.4819
  193HFI     C1 2795   1.021   0.314   2.697  0.8418 -0.6224  0.3680
  193HFI     C2 2796   0.911   0.400   2.772 -0.1943 -0.1263 -0.3021
  193HFI     F1 2797   0.861   0.340   2.884  0.0344  0.0100 -0.4119
  193HFI     F2 2798   0.810   0.425   2.688 -0.0736  0.4416 -0.3121
  193HFI     F3 2799   0.971   0.516   2.812  0.4848 -0.0883 -0.3052
  193HFI     C3 2800   1.150   0.270   2.791  0.3833 -0.2706 -0.2163
  193HFI     F4 2801   1.191   0.163   2.714 -0.4377 -0.1694 -0.5904
  193HFI     F5 2802   1.114   0.224   2.909  0.1847  0.6204 -0.4488
  193HFI     F6 2803   1.245   0.365   2.805 -0.0227  0.1207 -0.0134
  193HFI     H1 2804   1.133   0.317   2.538 -0.7282 -1.3190  0.3935
  193HFI     H2 2805   0.966   0.223   2.670  0.8197 -1.0031  1.6592
  194HFI     O1 2806   0.771   2.001   2.602  0.2451 -0.8388  0.0182
  194HFI     C1 2807   0.730   1.931   2.724  0.1619  0.3174 -0.0166
  194HFI     C2 2808   0.778   1.780   2.731  0.2122  0.0936 -0.2250
  194HFI     F1 2809   0.792   1.729   2.856 -0.2101  0.0798  0.1786
  194HFI     F2 2810   0.897   1.768   2.671 -0.6054  0.2455  0.2545
  194HFI     F3 2811   0.683   1.700   2.661  0.1976 -0.2654  0.3076
  194HFI     C3 2812   0.574   1.949   2.755 -0.4043  0.3500  0.0211
  194HFI     F4 2813   0.497   1.886   2.662  0.1266 -0.5125 -0.1934
  194HFI     F5 2814   0.554   2.079   2.751 -0.0486  0.2561 -0.1521
  194HFI     F6 2815   0.545   1.910   2.877  0.0372 -0.6524 -0.1437
  194HFI     H1 2816   0.867   2.013   2.604  0.1747 -0.2789  0.1756
  194HFI     H2 2817   0.782   1.978   2.809  0.3705 -1.0442  0.6164
  195HFI     O1 2818   3.402   0.417   3.726 -0.3375  0.3503  0.0744
  195HFI     C1 2819   3.499   0.391   3.839  0.1694  0.8141 -1.1166
  195HFI     C2 2820   3.623   0.329   3.776  1.0038 -0.3353 -0.7837
  195HFI     F1 2821   3.603   0.208   3.722  0.2930  0.0188  0.0093
  195HFI     F2 2822   3.718   0.305   3.858  0.6273 -0.2084  0.6506
  195HFI     F3 2823   3.677   0.412   3.675 -0.1565 -0.1698 -0.3836
  195HFI     C3 2824   3.427   0.313   3.953  0.5529  0.6713  0.7740
  195HFI     F4 2825   3.439   0.180   3.931  0.3045  0.7329  0.2572
  195HFI     F5 2826   3.300   0.353   3.958 -0.2201  0.3375  0.3517
  195HFI     F6 2827   3.491   0.343   4.070  0.4699 -0.2223 -0.0329
  195HFI     H1 2828   3.326   0.356   3.731 -0.9240  1.0533 -0.2321
  195HFI     H2 2829   3.527   0.486   3.885 -0.2926 -0.0883  1.1042
  196HFI     O1 2830   1.166   3.273   2.481  0.3055  0.1637 -0.1031
  196HFI     C1 2831   1.070   3.331   2.388  0.2407  0.2048  0.3340
  196HFI     C2 2832   1.025   3.235   2.270  0.1320  0.2899 -0.7836
  196HFI     F1 2833   1.122   3.207   2.185 -0.7147 -0.2725  0.1863
  196HFI     F2 2834   0.923   3.289   2.199  0.2593 -0.0997 -0.4176
  196HFI     F3 2835   0.983   3.119   2.329  0.4163  0.3136  0.4584
  196HFI     C3 2836   1.127   3.462   2.325 -0.1132 -0.4737  0.5581
  196HFI     F4 2837   1.051   3.510   2.223 -0.4362 -0.2216 -0.4391
  196HFI     F5 2838   1.249   3.433   2.274 -0.6638 -0.2913 -0.5530
  196HFI     F6 2839   1.137   3.565   2.419 -0.2084 -0.2530 -0.4963
  196HFI     H1 2840   1.256   3.303   2.459  0.1919  1.6295  1.2875
  196HFI     H2 2841   0.974   3.344   2.439 -1.5368 -1.9525 -2.2467
  197HFI     O1 2842   1.936   3.096   2.989  0.3766  0.3496 -0.5490
  197HFI     C1 2843   2.023   3.014   2.911 -0.5937  0.1968 -0.2267
  197HFI     C2 2844   2.134   2.950   3.003 -0.0919 -0.1769  0.0111
  197HFI     F1 2845   2.076   2.893   3.110 -0.4849 -0.1993  0.1897
  197HFI     F2 2846   2.226   3.049   3.042  0.1410  0.1297  0.6718
  197HFI     F3 2847   2.203   2.853   2.933  0.5023 -0.3549  0.5178
  197HFI     C3 2848   2.088   3.094   2.797 -0.0511 -0.0278 -1.1859
  197HFI     F4 2849   1.992   3.132   2.707 -0.1915 -0.4712  0.4902
  197HFI     F5 2850   2.177   3.020   2.722 -0.4605 -0.0586 -0.5790
  197HFI     F6 2851   2.150   3.204   2.845 -0.2498  0.2830 -0.1454
  197HFI     H1 2852   1.982   3.174   3.025  2.2857 -0.8386 -0.3955
  197HFI     H2 2853   1.964   2.938   2.858 -1.1175 -0.4953  1.3265
  198HFI     O1 2854   1.551   0.882   0.529  0.3012  0.1362 -0.3641
  198HFI     C1 2855   1.506   0.827   0.402 -0.1354  0.0884 -0.0505
  198HFI     C2 2856   1.548   0.921   0.280  0.4603  0.1573 -0.0262
  198HFI     F1 2857   1.548   0.853   0.158  0.1156 -0.0313  0.0928
  198HFI     F2 2858   1.669   0.982   0.295 -0.7610  0.4089  0.0150
  198HFI     F3 2859   1.457   1.028   0.281 -0.8297  0.4470  0.0051
  198HFI     C3 2860   1.357   0.779   0.401 -0.4797 -0.1376 -0.1528
  198HFI     F4 2861   1.275   0.880   0.424 -0.0484  0.6249 -0.2572
  198HFI     F5 2862   1.342   0.677   0.488  0.2570 -0.6035  0.1054
  198HFI     F6 2863   1.325   0.730   0.281  0.3156 -0.1235 -0.4338
  198HFI     H1 2864   1.477   0.872   0.590 -0.2651 -1.3133 -1.2640
  198HFI     H2 2865   1.566   0.738   0.380 -0.4681 -1.1528  3.6594
  199HFI     O1 2866   2.755   2.252   0.702  0.2258  0.1387 -0.2945
  199HFI     C1 2867   2.818   2.333   0.594 -0.1376 -0.5691  0.0842
  199HFI     C2 2868   2.769   2.299   0.451 -0.2940  0.6994 -0.2482
  199HFI     F1 2869   2.809   2.167   0.420  0.3854 -0.4172  0.0394
  199HFI     F2 2870   2.813   2.385   0.354 -0.4637 -0.4045  0.2958
  199HFI     F3 2871   2.638   2.301   0.447  0.5110  0.2750 -0.4816
  199HFI     C3 2872   2.976   2.333   0.600  0.3416 -0.2517 -0.0008
  199HFI     F4 2873   3.027   2.458   0.572 -0.4585  0.6100  0.0046
  199HFI     F5 2874   3.034   2.246   0.523 -0.0953  0.2395  0.5566
  199HFI     F6 2875   3.015   2.288   0.719 -0.3761 -0.4050 -0.1431
  199HFI     H1 2876   2.795   2.270   0.788 -0.5634 -2.3305  0.6450
  199HFI     H2 2877   2.792   2.438   0.611  1.0719 -0.0479 -1.1887
  200HFI     O1 2878   0.494   0.049   3.591 -0.0125 -0.2419  0.4983
  200HFI     C1 2879   0.509   0.053   3.447  0.6344  0.0915 -0.4201
  200HFI     C2 2880   0.454   0.187   3.404 -0.3521  0.4217  0.1623
  200HFI     F1 2881   0.473   0.201   3.268 -0.1022 -0.0718  0.4472
  200HFI     F2 2882   0.530   0.277   3.467  1.0367  0.1799  0.4856
  200HFI     F3 2883   0.323   0.199   3.433 -0.1923 -0.1252 -0.0972
  200HFI     C3 2884   0.447  -0.072   3.372 -0.4745 -0.5224 -0.2267
  200HFI     F4 2885   0.436  -0.053   3.238  0.7691 -0.1014  0.2440
  200HFI     F5 2886   0.318  -0.087   3.416  0.1739 -0.3369 -0.3967
  200HFI     F6 2887   0.514  -0.189   3.401  0.4972 -0.0371 -0.1670
  200HFI     H1 2888   0.401   0.045   3.619 -0.5216  2.0812 -0.6952
  200HFI     H2 2889   0.616   0.039   3.425  0.6527  0.2812 -0.4494
  201HFI     O1 2890   3.350   2.234   1.077  0.5784  0.2016 -0.3056
  201HFI     C1 2891   3.201   2.218   1.059 -0.2306 -0.1330  0.2198
  201HFI     C2 2892   3.170   2.102   0.962 -0.1419  0.1117  0.0566
  201HFI     F1 2893   3.042   2.074   0.945  0.4638 -0.0545 -0.0936
  201HFI     F2 2894   3.221   1.985   1.013 -0.3467  0.0590 -0.4090
  201HFI     F3 2895   3.222   2.116   0.834 -0.7794 -0.2720  0.3012
  201HFI     C3 2896   3.145   2.357   1.008  0.4670  0.6110 -0.4898
  201HFI     F4 2897   3.171   2.449   1.105  0.0017 -0.4937 -0.3404
  201HFI     F5 2898   3.011   2.358   0.983 -0.0182  0.0369  0.7542
  201HFI     F6 2899   3.207   2.387   0.891 -0.2366 -0.1572  0.1062
  201HFI     H1 2900   3.393   2.246   0.990 -0.1861  0.3355 -0.6686
  201HFI     H2 2901   3.165   2.200   1.161  0.9707 -2.8750  0.1976
  202HFI     O1 2902   1.270   2.233   0.652 -0.3970  0.4311  0.0590
  202HFI     C1 2903   1.327   2.239   0.787  0.8571  0.3263 -0.3312
  202HFI     C2 2904   1.477   2.263   0.784 -0.2834 -0.1863  0.2124
  202HFI     F1 2905   1.502   2.389   0.736  0.2485 -0.3331  0.0707
  202HFI     F2 2906   1.546   2.168   0.708 -0.1704  0.1619  0.4860
  202HFI     F3 2907   1.525   2.255   0.908  0.5446  0.3539 -0.2479
  202HFI     C3 2908   1.283   2.116   0.860  0.1551 -0.4954  1.1231
  202HFI     F4 2909   1.301   2.127   0.991  0.2350  0.1429 -0.3594
  202HFI     F5 2910   1.355   2.007   0.826  0.6169 -0.4081 -0.1454
  202HFI     F6 2911   1.157   2.084   0.842 -0.0998 -0.2667 -0.3086
  202HFI     H1 2912   1.338   2.244   0.583  0.2693  2.3449  0.9867
  202HFI     H2 2913   1.286   2.330   0.834  1.7398  1.3653 -1.5329
  203HFI     O1 2914   0.773   0.523   0.730  0.1956 -0.5561 -0.5711
  203HFI     C1 2915   0.690   0.640   0.719 -0.4829 -0.2702 -0.7385
  203HFI     C2 2916   0.760   0.766   0.772 -0.5091 -0.8008  0.4045
  203HFI     F1 2917   0.870   0.794   0.700  0.0927 -0.6994  0.1646
  203HFI     F2 2918   0.791   0.755   0.902  0.2805  0.0303 -0.1796
  203HFI     F3 2919   0.672   0.874   0.767 -0.4458  0.0733 -0.3561
  203HFI     C3 2920   0.554   0.610   0.787 -0.2183 -0.4480  0.2352
  203HFI     F4 2921   0.552   0.615   0.919  0.2356  0.2230 -0.0865
  203HFI     F5 2922   0.520   0.489   0.753 -0.2684  0.1432 -0.0718
  203HFI     F6 2923   0.456   0.685   0.740  0.3871 -0.0659  0.2336
  203HFI     H1 2924   0.860   0.542   0.691 -0.3602  0.2905 -1.4271
  203HFI     H2 2925   0.678   0.661   0.612 -0.9717  2.6145 -0.1559
  204HFI     O1 2926   3.386   2.618   0.347  0.1963  0.4995 -0.0909
  204HFI     C1 2927   3.256   2.638   0.404  0.1085  0.2340  0.8891
  204HFI     C2 2928   3.162   2.698   0.291 -0.0723  0.2197  0.0487
  204HFI     F1 2929   3.034   2.711   0.333  0.4568 -0.5185 -0.1547
  204HFI     F2 2930   3.162   2.619   0.179 -0.0275 -0.2080  0.5235
  204HFI     F3 2931   3.209   2.817   0.259  0.8687  0.3359  0.4433
  204HFI     C3 2932   3.257   2.707   0.548  0.0720  0.1599  0.6668
  204HFI     F4 2933   3.324   2.820   0.553 -0.3054  0.4292 -0.4731
  204HFI     F5 2934   3.325   2.628   0.635  0.4278 -0.0009  0.2263
  204HFI     F6 2935   3.134   2.730   0.600 -0.1069 -0.0163  0.0397
  204HFI     H1 2936   3.377   2.607   0.250 -1.0200  1.8503 -0.1570
  204HFI     H2 2937   3.211   2.541   0.426  1.9161 -0.7035  0.5695
  205HFI     O1 2938   1.327   2.049   2.310 -0.1783 -0.5274  0.9495
  205HFI     C1 2939   1.225   2.154   2.278  0.2701 -0.3955  0.2892
  205HFI     C2 2940   1.279   2.293   2.312  0.1366 -0.0802 -0.0992
  205HFI     F1 2941   1.407   2.299   2.291 -0.6735  0.3197  0.1416
  205HFI     F2 2942   1.258   2.321   2.441  0.7844  0.3547  0.0183
  205HFI     F3 2943   1.230   2.391   2.234  0.1485 -0.1643 -0.2468
  205HFI     C3 2944   1.084   2.114   2.313 -0.0032  0.3425 -0.7868
  205HFI     F4 2945   0.994   2.205   2.275 -0.0257  0.1966  0.1893
  205HFI     F5 2946   1.068   2.100   2.444 -0.4712  0.0649  0.0466
  205HFI     F6 2947   1.050   1.995   2.256  0.2131  0.2707 -0.0535
  205HFI     H1 2948   1.360   2.058   2.401  1.9869 -2.8149  0.4486
  205HFI     H2 2949   1.216   2.157   2.169  1.0807 -0.7642  0.2053
  206HFI     O1 2950   2.758   1.169   0.047  0.2699  1.4873 -0.4405
  206HFI     C1 2951   2.890   1.115  -0.002  0.4994 -0.3665  0.1359
  206HFI     C2 2952   2.954   1.031   0.111  0.0647  0.9969  0.5180
  206HFI     F1 2953   2.876   0.929   0.125 -0.6187  0.4677  0.5204
  206HFI     F2 2954   2.966   1.101   0.231  0.0216 -0.1008  0.2766
  206HFI     F3 2955   3.071   0.968   0.071  0.0255 -0.4854 -0.5700
  206HFI     C3 2956   2.987   1.232  -0.052 -0.2552  0.5982  0.1044
  206HFI     F4 2957   3.021   1.324   0.048  0.1232  0.2799 -0.0022
  206HFI     F5 2958   2.934   1.305  -0.154 -0.3339 -0.4569  0.3670
  206HFI     F6 2959   3.102   1.184  -0.107 -0.3727  0.3258  0.2030
  206HFI     H1 2960   2.770   1.196   0.139  0.7894 -1.6766  0.4665
  206HFI     H2 2961   2.875   1.040  -0.081 -1.3131 -0.6572  0.7365
  207HFI     O1 2962   1.961   1.062   2.736  0.1904  0.0146 -0.6124
  207HFI     C1 2963   2.052   1.146   2.807 -0.0966  0.6265 -0.2476
  207HFI     C2 2964   2.106   1.264   2.720 -0.1818  0.4261  0.2164
  207HFI     F1 2965   2.166   1.359   2.793 -0.1338 -0.4560  0.5632
  207HFI     F2 2966   2.000   1.316   2.657  0.1970 -0.0786 -0.3801
  207HFI     F3 2967   2.200   1.220   2.630 -0.4149 -0.5541 -0.2920
  207HFI     C3 2968   2.157   1.061   2.877 -0.1050  0.3679  0.5973
  207HFI     F4 2969   2.225   0.981   2.788 -0.5499 -0.7275 -0.2612
  207HFI     F5 2970   2.094   0.980   2.974  0.0364 -0.7653 -0.0273
  207HFI     F6 2971   2.246   1.139   2.950 -0.0724  0.2729 -0.0064
  207HFI     H1 2972   1.932   1.107   2.655  0.7153 -0.0391 -0.8345
  207HFI     H2 2973   1.997   1.189   2.893 -0.0365  2.0369 -0.8987
  208HFI     O1 2974   0.949   1.096   0.007 -0.1947  0.5275 -0.1426
  208HFI     C1 2975   1.095   1.102  -0.006  0.9664  0.3554 -0.0180
  208HFI     C2 2976   1.148   0.954  -0.013 -0.4746  0.0603 -0.2787
  208HFI     F1 2977   1.078   0.867   0.062  0.0361 -0.1401 -0.3973
  208HFI     F2 2978   1.280   0.945   0.020 -0.0354 -0.1027  0.0396
  208HFI     F3 2979   1.132   0.914  -0.139  0.4264 -0.4938  0.1154
  208HFI     C3 2980   1.146   1.193   0.109  0.1255 -0.1840 -0.3522
  208HFI     F4 2981   1.100   1.320   0.093  0.7162  0.5185  0.0883
  208HFI     F5 2982   1.279   1.204   0.098 -0.4073  0.0598  0.4921
  208HFI     F6 2983   1.110   1.148   0.234  0.0313  0.3455  0.4736
  208HFI     H1 2984   0.925   1.068   0.097 -1.4514 -2.5397 -1.3703
  208HFI     H2 2985   1.125   1.151  -0.099  1.0723 -0.7280 -0.5592
  209HFI     O1 2986   2.673   1.621   0.671  0.1249 -0.4727 -0.0445
  209HFI     C1 2987   2.595   1.675   0.561  0.5891  0.5143  0.8901
  209HFI     C2 2988   2.594   1.831   0.563  0.1698  0.7162 -0.4453
  209HFI     F1 2989   2.722   1.867   0.567 -0.6650  0.2529  0.1810
  209HFI     F2 2990   2.535   1.889   0.667  0.0118  0.1825 -0.1933
  209HFI     F3 2991   2.541   1.882   0.452 -0.3924 -0.0889 -0.0951
  209HFI     C3 2992   2.446   1.627   0.561 -0.2309  0.2322  0.1311
  209HFI     F4 2993   2.393   1.633   0.686  0.5370  0.6214 -0.2796
  209HFI     F5 2994   2.445   1.493   0.538 -0.1611 -0.1122 -0.1249
  209HFI     F6 2995   2.365   1.691   0.473 -0.3893 -0.5979 -0.3362
  209HFI     H1 2996   2.633   1.625   0.760 -1.0136 -2.4038 -0.4276
  209HFI     H2 2997   2.642   1.649   0.465  0.9180 -1.2091  1.4927
  210HFI     O1 2998   0.702   2.175   2.383  0.1262  0.0876  0.0848
  210HFI     C1 2999   0.596   2.137   2.288 -0.8983  0.9080  0.2437
  210HFI     C2 3000   0.451   2.191   2.325 -0.1190  0.2253  0.1259
  210HFI     F1 3001   0.398   2.130   2.437  0.0353 -0.0398 -0.4745
  210HFI     F2 3002   0.360   2.175   2.220  0.4211  0.2338 -0.0444
  210HFI     F3 3003   0.464   2.324   2.357  0.4352  0.1806  0.3801
  210HFI     C3 3004   0.607   1.984   2.273 -0.7331 -0.1502 -0.3395
  210HFI     F4 3005   0.507   1.934   2.195 -0.2698 -0.6447  0.2867
  210HFI     F5 3006   0.600   1.918   2.391  0.4094 -0.0139  0.1265
  210HFI     F6 3007   0.723   1.948   2.218 -0.2438 -0.0136  0.0482
  210HFI     H1 3008   0.732   2.093   2.425  1.2327  1.1555  1.4560
  210HFI     H2 3009   0.617   2.176   2.188  0.5250 -1.0645 -0.2610
  211HFI     O1 3010   1.996   0.793   3.169 -0.0340 -0.7996  0.5331
  211HFI     C1 3011   2.036   0.844   3.303  0.3984  0.1262  0.0713
  211HFI     C2 3012   1.988   0.993   3.315  0.3126  0.0766 -1.0895
  211HFI     F1 3013   1.983   1.035   3.446  0.1110  0.8008  0.0558
  211HFI     F2 3014   1.859   1.007   3.273  0.2790  0.3810 -0.1158
  211HFI     F3 3015   2.061   1.078   3.246  0.5406 -0.0686  0.7327
  211HFI     C3 3016   2.182   0.805   3.326  0.7265 -0.1073 -0.4903
  211HFI     F4 3017   2.197   0.676   3.330 -0.5616 -0.2832  0.4307
  211HFI     F5 3018   2.225   0.855   3.445 -0.1420  0.1445  0.1828
  211HFI     F6 3019   2.254   0.855   3.228 -0.2817 -0.0971  0.4472
  211HFI     H1 3020   2.051   0.829   3.097  1.1650 -1.4885  1.0857
  211HFI     H2 3021   1.977   0.782   3.372 -0.9470  1.3072 -0.0102
  212HFI     O1 3022   2.896   0.882   0.743 -0.0611  0.2840 -0.6637
  212HFI     C1 3023   2.925   0.924   0.874  0.3069 -0.8129  0.2221
  212HFI     C2 3024   3.055   0.858   0.923 -0.5254  0.0261 -0.3062
  212HFI     F1 3025   3.161   0.901   0.849  0.0692 -0.1793  0.8044
  212HFI     F2 3026   3.049   0.722   0.918 -0.6699 -0.2484  0.6711
  212HFI     F3 3027   3.083   0.889   1.049  0.4525  0.2156 -0.4393
  212HFI     C3 3028   2.801   0.926   0.978  0.8992 -0.0581  0.1597
  212HFI     F4 3029   2.683   0.953   0.918 -0.6418  0.1108  0.1719
  212HFI     F5 3030   2.820   1.030   1.068 -0.1153  0.0798 -0.2332
  212HFI     F6 3031   2.786   0.807   1.036  0.0640  0.7858 -0.4696
  212HFI     H1 3032   2.975   0.893   0.688  1.4013  0.1815  1.3715
  212HFI     H2 3033   2.948   1.031   0.868 -1.0163 -0.5555 -0.4670
  213HFI     O1 3034   1.456   1.121   2.935  0.1606 -0.1217 -0.5160
  213HFI     C1 3035   1.561   1.206   2.877  0.3586  0.1527  0.0767
  213HFI     C2 3036   1.584   1.184   2.724  0.4888 -0.1034 -0.1812
  213HFI     F1 3037   1.619   1.059   2.697  0.4291 -0.3124 -0.2655
  213HFI     F2 3038   1.691   1.257   2.687 -0.1251  0.2295  0.0334
  213HFI     F3 3039   1.475   1.222   2.656 -0.2331 -0.2027 -0.1295
  213HFI     C3 3040   1.691   1.180   2.954  0.2597  0.0001  0.0545
  213HFI     F4 3041   1.781   1.282   2.934 -0.2285  0.2968 -0.0638
  213HFI     F5 3042   1.746   1.063   2.932  0.1400  1.1559 -0.7965
  213HFI     F6 3043   1.655   1.179   3.089 -0.0219  0.4425 -0.6302
  213HFI     H1 3044   1.477   1.032   2.901 -1.6582 -0.7306 -0.0964
  213HFI     H2 3045   1.541   1.312   2.897 -2.0014  0.1390 -1.9653
  214HFI     O1 3046   0.316   1.842   1.234 -0.0398 -0.2162 -0.3573
  214HFI     C1 3047   0.258   1.844   1.100  0.1609 -0.1475  0.4198
  214HFI     C2 3048   0.140   1.938   1.092 -0.0053 -0.0422 -0.0284
  214HFI     F1 3049   0.039   1.900   1.172  0.2897 -0.6110 -0.5765
  214HFI     F2 3050   0.087   1.947   0.967  0.0204  0.2090 -0.8968
  214HFI     F3 3051   0.179   2.063   1.133 -0.0937 -0.0088 -0.1955
  214HFI     C3 3052   0.224   1.697   1.043 -0.2618  0.2905  0.0486
  214HFI     F4 3053   0.130   1.692   0.940  0.0726 -0.2507 -0.3536
  214HFI     F5 3054   0.190   1.618   1.149 -0.2722 -0.3108  0.7193
  214HFI     F6 3055   0.338   1.642   1.001  0.3712  0.1609  0.1377
  214HFI     H1 3056   0.308   1.750   1.265  0.1504 -0.1122 -0.0024
  214HFI     H2 3057   0.329   1.882   1.026 -0.1019 -2.1248 -0.8671
  215HFI     O1 3058   3.000   1.846   3.267  0.2255 -0.1455 -0.1834
  215HFI     C1 3059   3.090   1.964   3.248 -0.2743 -0.1231  0.3270
  215HFI     C2 3060   3.237   1.926   3.281 -0.1894  0.1408  0.6125
  215HFI     F1 3061   3.288   1.865   3.173  0.5665  0.8678  0.3512
  215HFI     F2 3062   3.247   1.841   3.387  0.2651 -0.2981 -0.1155
  215HFI     F3 3063   3.312   2.033   3.298 -0.2097 -0.6189  0.3879
  215HFI     C3 3064   3.030   2.093   3.335 -0.4566 -0.5303 -0.2397
  215HFI     F4 3065   2.897   2.094   3.312 -0.2178  0.5545 -0.0998
  215HFI     F5 3066   3.078   2.212   3.296  0.4282 -0.1365  0.0214
  215HFI     F6 3067   3.055   2.078   3.466  0.1058  0.1367  0.3178
  215HFI     H1 3068   2.970   1.857   3.359  2.3995 -3.2078  0.9685
  215HFI     H2 3069   3.094   1.991   3.142 -1.2036  0.4001  0.4148
  216HFI     O1 3070   0.396   1.662   0.588 -0.3973 -0.1937  0.7519
  216HFI     C1 3071   0.315   1.692   0.472 -0.4338 -0.2909 -0.9199
  216HFI     C2 3072   0.369   1.810   0.393 -0.1718 -0.3473  0.2191
  216HFI     F1 3073   0.508   1.801   0.366 -0.1467 -0.2112  0.0612
  216HFI     F2 3074   0.348   1.926   0.454  0.1951 -0.2945  0.6885
  216HFI     F3 3075   0.306   1.809   0.274  0.3008 -0.0149  0.2806
  216HFI     C3 3076   0.164   1.699   0.507 -0.4725 -0.2607 -0.5203
  216HFI     F4 3077   0.133   1.794   0.589  0.6379 -0.0612 -0.0431
  216HFI     F5 3078   0.124   1.581   0.559  0.0270 -0.1964 -0.0455
  216HFI     F6 3079   0.086   1.722   0.393 -0.2447 -0.5979  0.4165
  216HFI     H1 3080   0.481   1.620   0.567 -0.1353  0.6246  0.1385
  216HFI     H2 3081   0.321   1.608   0.402  0.3389  1.0570 -2.5050
  217HFI     O1 3082   3.245   0.768   3.332  0.1559 -0.3318 -0.1455
  217HFI     C1 3083   3.361   0.719   3.257  0.1840  0.1200  0.1385
  217HFI     C2 3084   3.352   0.577   3.197  0.3138  0.7224  0.2313
  217HFI     F1 3085   3.447   0.550   3.106  0.4517 -0.0951 -0.2334
  217HFI     F2 3086   3.236   0.562   3.136  0.1594 -0.0959  0.0276
  217HFI     F3 3087   3.359   0.479   3.291  0.3164  0.3041 -0.0190
  217HFI     C3 3088   3.486   0.726   3.357  0.0233  0.8539  0.2588
  217HFI     F4 3089   3.457   0.667   3.471  0.0571  0.1823 -0.1926
  217HFI     F5 3090   3.491   0.857   3.395  0.2843 -0.1980  0.2652
  217HFI     F6 3091   3.605   0.673   3.309  0.1579 -0.3279  0.7568
  217HFI     H1 3092   3.217   0.696   3.390  2.7102  0.3554  2.0455
  217HFI     H2 3093   3.380   0.794   3.180 -1.3599 -0.4636 -0.8397
  218HFI     O1 3094   0.828   1.102   2.778  0.5046  0.4600 -0.2371
  218HFI     C1 3095   0.929   1.126   2.880  0.1772 -0.9266  0.0769
  218HFI     C2 3096   0.878   1.215   2.998  0.0725 -0.8797 -0.2211
  218HFI     F1 3097   0.817   1.320   2.942 -0.3561 -0.0564  0.0721
  218HFI     F2 3098   0.972   1.260   3.076  0.4511 -0.2399  0.3174
  218HFI     F3 3099   0.793   1.147   3.079  0.1906  0.2165  0.4002
  218HFI     C3 3100   1.059   1.189   2.817 -0.1113 -0.2603  0.1806
  218HFI     F4 3101   1.103   1.117   2.710 -0.1979  0.1157 -0.2622
  218HFI     F5 3102   1.165   1.193   2.899 -0.1273 -0.4808 -0.3184
  218HFI     F6 3103   1.044   1.313   2.771 -0.5739  0.1414 -0.3640
  218HFI     H1 3104   0.742   1.116   2.822 -0.1540 -1.7204 -0.7776
  218HFI     H2 3105   0.959   1.028   2.921 -0.5174 -1.0646  0.2637
  219HFI     O1 3106   0.281   2.546   0.342 -0.2970 -0.4905  0.5192
  219HFI     C1 3107   0.374   2.638   0.413  0.3403  0.9717 -0.2844
  219HFI     C2 3108   0.346   2.633   0.564 -0.3217  0.0338  0.0751
  219HFI     F1 3109   0.346   2.510   0.617  0.2148 -0.1559 -0.1033
  219HFI     F2 3110   0.223   2.691   0.601 -0.4999 -0.0579  0.0587
  219HFI     F3 3111   0.449   2.687   0.632  0.1607 -0.5125 -0.4146
  219HFI     C3 3112   0.364   2.781   0.357 -0.3129  0.3874 -0.5340
  219HFI     F4 3113   0.391   2.772   0.224 -0.8130 -0.2446  0.1083
  219HFI     F5 3114   0.436   2.871   0.419  0.5121 -0.0980  0.4619
  219HFI     F6 3115   0.239   2.828   0.361 -0.3017  0.0054 -0.0680
  219HFI     H1 3116   0.189   2.569   0.366  0.7363  0.8612  3.4849
  219HFI     H2 3117   0.478   2.610   0.391  0.2002  0.7863 -0.7177
  220HFI     O1 3118   1.126   2.452   2.731 -0.0207 -0.2039 -0.2334
  220HFI     C1 3119   1.025   2.449   2.834 -0.9311 -0.7884  0.4361
  220HFI     C2 3120   1.062   2.477   2.981 -0.6897 -0.5723 -0.3978
  220HFI     F1 3121   1.099   2.363   3.048  0.0355 -0.0780  0.5961
  220HFI     F2 3122   0.959   2.539   3.045 -0.0604 -0.2788  0.1975
  220HFI     F3 3123   1.170   2.556   2.984  0.2656 -0.3189 -0.3501
  220HFI     C3 3124   0.951   2.320   2.821 -0.4826 -0.2877 -0.3987
  220HFI     F4 3125   1.019   2.206   2.861  0.4045  0.2671  0.3421
  220HFI     F5 3126   0.905   2.303   2.692 -0.4946 -0.0056  0.2298
  220HFI     F6 3127   0.841   2.319   2.908 -0.7638 -0.5999 -0.0480
  220HFI     H1 3128   1.086   2.426   2.646 -1.0800  2.6751 -0.6597
  220HFI     H2 3129   0.955   2.530   2.812  1.6525  0.9934 -1.5677
  221HFI     O1 3130   1.500   0.864   2.818  0.5119 -0.1550 -0.3245
  221HFI     C1 3131   1.480   0.772   2.711 -0.0219 -0.0578 -0.8003
  221HFI     C2 3132   1.351   0.684   2.724  0.3646 -0.2747  0.0440
  221HFI     F1 3133   1.349   0.629   2.846 -0.5390  0.0283  0.4617
  221HFI     F2 3134   1.342   0.588   2.638  0.0589 -0.0174  0.6355
  221HFI     F3 3135   1.240   0.751   2.701  0.7211 -0.0648  0.5310
  221HFI     C3 3136   1.603   0.693   2.669 -0.0679  0.2535  0.1005
  221HFI     F4 3137   1.711   0.764   2.672 -0.1718  0.0942  0.6152
  221HFI     F5 3138   1.593   0.627   2.553 -0.0043 -0.5112  0.0947
  221HFI     F6 3139   1.620   0.605   2.771  0.5206 -0.2281  0.5167
  221HFI     H1 3140   1.569   0.831   2.877  0.5967  1.1774  0.3385
  221HFI     H2 3141   1.468   0.829   2.618 -0.0351 -1.0807 -1.4333
  222HFI     O1 3142   2.699   1.346   2.461 -0.3701 -0.0655 -0.3646
  222HFI     C1 3143   2.626   1.444   2.386  0.2780  0.6360 -0.5590
  222HFI     C2 3144   2.543   1.382   2.275  0.9318  0.6137 -0.0894
  222HFI     F1 3145   2.497   1.476   2.190 -0.1592  0.0264 -0.3799
  222HFI     F2 3146   2.433   1.319   2.318  0.6282  0.2927 -0.1219
  222HFI     F3 3147   2.613   1.298   2.213  0.2609 -0.5546  0.0303
  222HFI     C3 3148   2.703   1.568   2.340  0.5081 -0.5941 -0.0318
  222HFI     F4 3149   2.786   1.602   2.438  0.3268 -0.0438 -0.1227
  222HFI     F5 3150   2.624   1.673   2.312 -0.0727  0.7360  0.0570
  222HFI     F6 3151   2.778   1.545   2.234 -0.0508 -0.3821  0.2851
  222HFI     H1 3152   2.765   1.394   2.514 -0.4486 -0.1768 -0.1667
  222HFI     H2 3153   2.549   1.487   2.452  0.1452 -1.2924  0.5544
  223HFI     O1 3154   0.154   2.447   3.505  0.2393 -0.2839 -0.0322
  223HFI     C1 3155   0.056   2.437   3.617 -0.4254  0.0388 -0.6012
  223HFI     C2 3156  -0.095   2.430   3.570  0.4947 -0.3788 -0.0549
  223HFI     F1 3157  -0.171   2.398   3.671 -0.4955  0.6865  0.1089
  223HFI     F2 3158  -0.107   2.348   3.466 -0.5066 -0.0865 -0.0785
  223HFI     F3 3159  -0.142   2.549   3.530 -0.6381  0.1858 -0.1009
  223HFI     C3 3160   0.081   2.540   3.730 -0.4673  0.2130  0.2335
  223HFI     F4 3161   0.203   2.528   3.779  0.2942 -0.5549 -0.4403
  223HFI     F5 3162   0.001   2.543   3.843 -0.3403 -0.0175  0.0529
  223HFI     F6 3163   0.073   2.656   3.668  0.0705 -0.2688  0.0156
  223HFI     H1 3164   0.238   2.479   3.543 -1.3176  1.4843  2.0542
  223HFI     H2 3165   0.071   2.345   3.674 -1.5664 -0.4138 -1.0051
  224HFI     O1 3166   0.776   2.818   3.431  0.2594 -0.0703 -0.0301
  224HFI     C1 3167   0.828   2.923   3.345 -0.3627 -0.1370  0.4279
  224HFI     C2 3168   0.958   2.898   3.279  0.3870  0.1182  0.6074
  224HFI     F1 3169   1.065   2.877   3.362  0.3551  0.2317  0.1140
  224HFI     F2 3170   0.998   2.991   3.190  0.3421  0.6857  0.3887
  224HFI     F3 3171   0.944   2.776   3.212  0.0751 -0.4552 -0.2175
  224HFI     C3 3172   0.845   3.054   3.427  0.3331  0.1744 -0.1229
  224HFI     F4 3173   0.933   3.041   3.531  0.3777  0.0835  0.6013
  224HFI     F5 3174   0.722   3.072   3.477  0.1358  0.3928 -0.2839
  224HFI     F6 3175   0.874   3.163   3.351  0.5922 -0.1070  0.4221
  224HFI     H1 3176   0.849   2.781   3.483 -0.3335 -0.4022  0.5863
  224HFI     H2 3177   0.757   2.944   3.265  1.2006  1.4307 -0.5814
  225HFI     O1 3178   1.268   2.808   3.516 -0.1588 -0.0886 -0.0390
  225HFI     C1 3179   1.329   2.936   3.554  0.4775 -0.2355  0.1900
  225HFI     C2 3180   1.364   3.018   3.430 -0.2831 -0.5106  0.1351
  225HFI     F1 3181   1.423   2.936   3.336  0.0657 -0.4142 -0.1308
  225HFI     F2 3182   1.441   3.130   3.450  0.3179  0.1209 -0.0369
  225HFI     F3 3183   1.254   3.067   3.372  0.0241 -0.3916  0.3757
  225HFI     C3 3184   1.454   2.911   3.648 -0.3698 -0.3827  0.7322
  225HFI     F4 3185   1.493   3.023   3.705 -0.1682 -0.1021 -0.2630
  225HFI     F5 3186   1.554   2.857   3.574  0.0996 -0.3265  0.2695
  225HFI     F6 3187   1.426   2.827   3.748 -0.0235  0.1203 -0.0952
  225HFI     H1 3188   1.209   2.824   3.440 -0.8574  1.0027  0.7285
  225HFI     H2 3189   1.257   3.001   3.606  1.3600 -1.5483  3.1470
  226HFI     O1 3190   2.743   2.468   2.859  0.0656 -0.0387 -0.2486
  226HFI     C1 3191   2.856   2.393   2.911 -0.3474 -0.3601  0.0449
  226HFI     C2 3192   2.975   2.362   2.811  0.2150 -0.4308 -0.0117
  226HFI     F1 3193   3.001   2.474   2.745 -0.0381 -0.6818 -0.0425
  226HFI     F2 3194   2.938   2.263   2.718  0.1975  0.7968  0.7044
  226HFI     F3 3195   3.087   2.323   2.870  0.3086  0.2034 -0.0540
  226HFI     C3 3196   2.812   2.263   2.989  0.0493 -0.2098  0.0017
  226HFI     F4 3197   2.741   2.294   3.099 -0.2914  0.1013 -0.4334
  226HFI     F5 3198   2.917   2.189   3.020  0.0676 -0.2216  0.0269
  226HFI     F6 3199   2.734   2.184   2.910 -0.1502 -0.2477  0.3015
  226HFI     H1 3200   2.718   2.414   2.781  0.5763 -0.7953  0.1046
  226HFI     H2 3201   2.895   2.458   2.991 -0.6185  0.2573 -0.3278
  227HFI     O1 3202   2.699   0.133   2.425  0.2822  0.1368  0.9743
  227HFI     C1 3203   2.753   0.229   2.328 -0.3924 -0.5063 -0.1577
  227HFI     C2 3204   2.910   0.224   2.328 -0.4635 -0.0860 -0.4544
  227HFI     F1 3205   2.954   0.096   2.353  0.3614 -0.4619 -0.2769
  227HFI     F2 3206   2.959   0.304   2.416  0.2696 -0.4120  0.2716
  227HFI     F3 3207   2.958   0.258   2.197  0.0788  0.2600 -0.0513
  227HFI     C3 3208   2.703   0.379   2.347 -1.1858  0.4909 -0.1361
  227HFI     F4 3209   2.755   0.461   2.253 -0.5316 -0.0627  0.0228
  227HFI     F5 3210   2.720   0.428   2.473 -0.3942 -0.1822  0.2231
  227HFI     F6 3211   2.565   0.380   2.326 -0.0328  0.1577 -0.1862
  227HFI     H1 3212   2.759   0.133   2.501 -1.0485 -0.1990  2.0527
  227HFI     H2 3213   2.723   0.195   2.228  0.8862  0.8260 -1.0286
  228HFI     O1 3214   0.197   1.073   3.627  0.2952 -0.1151  0.3916
  228HFI     C1 3215   0.111   0.973   3.691 -0.6954 -0.2943  0.3157
  228HFI     C2 3216   0.024   1.034   3.805 -0.3247  0.7611 -0.7269
  228HFI     F1 3217  -0.050   1.136   3.759  0.2754 -0.0853  0.0297
  228HFI     F2 3218   0.100   1.071   3.907 -0.3877  0.1786  0.2234
  228HFI     F3 3219  -0.061   0.940   3.856 -0.6973 -0.6082 -0.0261
  228HFI     C3 3220   0.203   0.859   3.744  0.3486 -0.5499  0.6640
  228HFI     F4 3221   0.133   0.752   3.791 -0.2988  0.0189  0.1359
  228HFI     F5 3222   0.285   0.898   3.847 -0.1993 -0.0987  0.1746
  228HFI     F6 3223   0.294   0.828   3.643 -0.0192  0.1913  0.3779
  228HFI     H1 3224   0.251   1.032   3.558 -0.2105  2.6945 -1.7240
  228HFI     H2 3225   0.054   0.930   3.608 -0.7945 -0.9755  0.7317
   3.40320   3.43847   3.80000
