DMF comparator n4
 4173
    1GR      C1    1   0.000   0.000   1.900  0.0000  0.0000  0.0000
    1GR      C2    2   0.142   0.000   1.900  0.0000  0.0000  0.0000
    1GR      C3    3   0.213   0.123   1.900  0.0000  0.0000  0.0000
    1GR      C4    4   0.354   0.123   1.900  0.0000  0.0000  0.0000
    1GR      C5    5   0.000   0.246   1.900  0.0000  0.0000  0.0000
    1GR      C6    6   0.142   0.246   1.900  0.0000  0.0000  0.0000
    1GR      C7    7   0.213   0.368   1.900  0.0000  0.0000  0.0000
    1GR      C8    8   0.354   0.368   1.900  0.0000  0.0000  0.0000
    1GR      C9    9   0.000   0.491   1.900  0.0000  0.0000  0.0000
    1GR     C10   10   0.142   0.491   1.900  0.0000  0.0000  0.0000
    1GR     C11   11   0.213   0.614   1.900  0.0000  0.0000  0.0000
    1GR     C12   12   0.354   0.614   1.900  0.0000  0.0000  0.0000
    1GR     C13   13   0.000   0.737   1.900  0.0000  0.0000  0.0000
    1GR     C14   14   0.142   0.737   1.900  0.0000  0.0000  0.0000
    1GR     C15   15   0.213   0.860   1.900  0.0000  0.0000  0.0000
    1GR     C16   16   0.354   0.860   1.900  0.0000  0.0000  0.0000
    1GR     C17   17   0.000   0.982   1.900  0.0000  0.0000  0.0000
    1GR     C18   18   0.142   0.982   1.900  0.0000  0.0000  0.0000
    1GR     C19   19   0.213   1.105   1.900  0.0000  0.0000  0.0000
    1GR     C20   20   0.354   1.105   1.900  0.0000  0.0000  0.0000
    1GR     C21   21   0.000   1.228   1.900  0.0000  0.0000  0.0000
    1GR     C22   22   0.142   1.228   1.900  0.0000  0.0000  0.0000
    1GR     C23   23   0.213   1.351   1.900  0.0000  0.0000  0.0000
    1GR     C24   24   0.354   1.351   1.900  0.0000  0.0000  0.0000
    1GR     C25   25   0.000   1.474   1.900  0.0000  0.0000  0.0000
    1GR     C26   26   0.142   1.474   1.900  0.0000  0.0000  0.0000
    1GR     C27   27   0.213   1.596   1.900  0.0000  0.0000  0.0000
    1GR     C28   28   0.354   1.596   1.900  0.0000  0.0000  0.0000
    1GR     C29   29   0.000   1.719   1.900  0.0000  0.0000  0.0000
    1GR     C30   30   0.142   1.719   1.900  0.0000  0.0000  0.0000
    1GR     C31   31   0.213   1.842   1.900  0.0000  0.0000  0.0000
    1GR     C32   32   0.354   1.842   1.900  0.0000  0.0000  0.0000
    1GR     C33   33   0.000   1.965   1.900  0.0000  0.0000  0.0000
    1GR     C34   34   0.142   1.965   1.900  0.0000  0.0000  0.0000
    1GR     C35   35   0.213   2.088   1.900  0.0000  0.0000  0.0000
    1GR     C36   36   0.354   2.088   1.900  0.0000  0.0000  0.0000
    1GR     C37   37   0.000   2.210   1.900  0.0000  0.0000  0.0000
    1GR     C38   38   0.142   2.210   1.900  0.0000  0.0000  0.0000
    1GR     C39   39   0.213   2.333   1.900  0.0000  0.0000  0.0000
    1GR     C40   40   0.354   2.333   1.900  0.0000  0.0000  0.0000
    1GR     C41   41   0.000   2.456   1.900  0.0000  0.0000  0.0000
    1GR     C42   42   0.142   2.456   1.900  0.0000  0.0000  0.0000
    1GR     C43   43   0.213   2.579   1.900  0.0000  0.0000  0.0000
    1GR     C44   44   0.354   2.579   1.900  0.0000  0.0000  0.0000
    1GR     C45   45   0.000   2.702   1.900  0.0000  0.0000  0.0000
    1GR     C46   46   0.142   2.702   1.900  0.0000  0.0000  0.0000
    1GR     C47   47   0.213   2.824   1.900  0.0000  0.0000  0.0000
    1GR     C48   48   0.354   2.824   1.900  0.0000  0.0000  0.0000
    1GR     C49   49   0.000   2.947   1.900  0.0000  0.0000  0.0000
    1GR     C50   50   0.142   2.947   1.900  0.0000  0.0000  0.0000
    1GR     C51   51   0.213   3.070   1.900  0.0000  0.0000  0.0000
    1GR     C52   52   0.354   3.070   1.900  0.0000  0.0000  0.0000
    1GR     C53   53   0.000   3.193   1.900  0.0000  0.0000  0.0000
    1GR     C54   54   0.142   3.193   1.900  0.0000  0.0000  0.0000
    1GR     C55   55   0.213   3.316   1.900  0.0000  0.0000  0.0000
    1GR     C56   56   0.354   3.316   1.900  0.0000  0.0000  0.0000
    1GR     C57   57   0.425   0.000   1.900  0.0000  0.0000  0.0000
    1GR     C58   58   0.567   0.000   1.900  0.0000  0.0000  0.0000
    1GR     C59   59   0.638   0.123   1.900  0.0000  0.0000  0.0000
    1GR     C60   60   0.780   0.123   1.900  0.0000  0.0000  0.0000
    1GR     C61   61   0.425   0.246   1.900  0.0000  0.0000  0.0000
    1GR     C62   62   0.567   0.246   1.900  0.0000  0.0000  0.0000
    1GR     C63   63   0.638   0.368   1.900  0.0000  0.0000  0.0000
    1GR     C64   64   0.780   0.368   1.900  0.0000  0.0000  0.0000
    1GR     C65   65   0.425   0.491   1.900  0.0000  0.0000  0.0000
    1GR     C66   66   0.567   0.491   1.900  0.0000  0.0000  0.0000
    1GR     C67   67   0.638   0.614   1.900  0.0000  0.0000  0.0000
    1GR     C68   68   0.780   0.614   1.900  0.0000  0.0000  0.0000
    1GR     C69   69   0.425   0.737   1.900  0.0000  0.0000  0.0000
    1GR     C70   70   0.567   0.737   1.900  0.0000  0.0000  0.0000
    1GR     C71   71   0.638   0.860   1.900  0.0000  0.0000  0.0000
    1GR     C72   72   0.780   0.860   1.900  0.0000  0.0000  0.0000
    1GR     C73   73   0.425   0.982   1.900  0.0000  0.0000  0.0000
    1GR     C74   74   0.567   0.982   1.900  0.0000  0.0000  0.0000
    1GR     C75   75   0.638   1.105   1.900  0.0000  0.0000  0.0000
    1GR     C76   76   0.780   1.105   1.900  0.0000  0.0000  0.0000
    1GR     C77   77   0.425   1.228   1.900  0.0000  0.0000  0.0000
    1GR     C78   78   0.567   1.228   1.900  0.0000  0.0000  0.0000
    1GR     C79   79   0.638   1.351   1.900  0.0000  0.0000  0.0000
    1GR     C80   80   0.780   1.351   1.900  0.0000  0.0000  0.0000
    1GR     C81   81   0.425   1.474   1.900  0.0000  0.0000  0.0000
    1GR     C82   82   0.567   1.474   1.900  0.0000  0.0000  0.0000
    1GR     C83   83   0.638   1.596   1.900  0.0000  0.0000  0.0000
    1GR     C84   84   0.780   1.596   1.900  0.0000  0.0000  0.0000
    1GR     C85   85   0.425   1.719   1.900  0.0000  0.0000  0.0000
    1GR     C86   86   0.567   1.719   1.900  0.0000  0.0000  0.0000
    1GR     C87   87   0.638   1.842   1.900  0.0000  0.0000  0.0000
    1GR     C88   88   0.780   1.842   1.900  0.0000  0.0000  0.0000
    1GR     C89   89   0.425   1.965   1.900  0.0000  0.0000  0.0000
    1GR     C90   90   0.567   1.965   1.900  0.0000  0.0000  0.0000
    1GR     C91   91   0.638   2.088   1.900  0.0000  0.0000  0.0000
    1GR     C92   92   0.780   2.088   1.900  0.0000  0.0000  0.0000
    1GR     C93   93   0.425   2.210   1.900  0.0000  0.0000  0.0000
    1GR     C94   94   0.567   2.210   1.900  0.0000  0.0000  0.0000
    1GR     C95   95   0.638   2.333   1.900  0.0000  0.0000  0.0000
    1GR     C96   96   0.780   2.333   1.900  0.0000  0.0000  0.0000
    1GR     C97   97   0.425   2.456   1.900  0.0000  0.0000  0.0000
    1GR     C98   98   0.567   2.456   1.900  0.0000  0.0000  0.0000
    1GR     C99   99   0.638   2.579   1.900  0.0000  0.0000  0.0000
    1GR    C100  100   0.780   2.579   1.900  0.0000  0.0000  0.0000
    1GR    C101  101   0.425   2.702   1.900  0.0000  0.0000  0.0000
    1GR    C102  102   0.567   2.702   1.900  0.0000  0.0000  0.0000
    1GR    C103  103   0.638   2.824   1.900  0.0000  0.0000  0.0000
    1GR    C104  104   0.780   2.824   1.900  0.0000  0.0000  0.0000
    1GR    C105  105   0.425   2.947   1.900  0.0000  0.0000  0.0000
    1GR    C106  106   0.567   2.947   1.900  0.0000  0.0000  0.0000
    1GR    C107  107   0.638   3.070   1.900  0.0000  0.0000  0.0000
    1GR    C108  108   0.780   3.070   1.900  0.0000  0.0000  0.0000
    1GR    C109  109   0.425   3.193   1.900  0.0000  0.0000  0.0000
    1GR    C110  110   0.567   3.193   1.900  0.0000  0.0000  0.0000
    1GR    C111  111   0.638   3.316   1.900  0.0000  0.0000  0.0000
    1GR    C112  112   0.780   3.316   1.900  0.0000  0.0000  0.0000
    1GR    C113  113   0.851   0.000   1.900  0.0000  0.0000  0.0000
    1GR    C114  114   0.993   0.000   1.900  0.0000  0.0000  0.0000
    1GR    C115  115   1.064   0.123   1.900  0.0000  0.0000  0.0000
    1GR    C116  116   1.205   0.123   1.900  0.0000  0.0000  0.0000
    1GR    C117  117   0.851   0.246   1.900  0.0000  0.0000  0.0000
    1GR    C118  118   0.993   0.246   1.900  0.0000  0.0000  0.0000
    1GR    C119  119   1.064   0.368   1.900  0.0000  0.0000  0.0000
    1GR    C120  120   1.205   0.368   1.900  0.0000  0.0000  0.0000
    1GR    C121  121   0.851   0.491   1.900  0.0000  0.0000  0.0000
    1GR    C122  122   0.993   0.491   1.900  0.0000  0.0000  0.0000
    1GR    C123  123   1.064   0.614   1.900  0.0000  0.0000  0.0000
    1GR    C124  124   1.205   0.614   1.900  0.0000  0.0000  0.0000
    1GR    C125  125   0.851   0.737   1.900  0.0000  0.0000  0.0000
    1GR    C126  126   0.993   0.737   1.900  0.0000  0.0000  0.0000
    1GR    C127  127   1.064   0.860   1.900  0.0000  0.0000  0.0000
    1GR    C128  128   1.205   0.860   1.900  0.0000  0.0000  0.0000
    1GR    C129  129   0.851   0.982   1.900  0.0000  0.0000  0.0000
    1GR    C130  130   0.993   0.982   1.900  0.0000  0.0000  0.0000
    1GR    C131  131   1.064   1.105   1.900  0.0000  0.0000  0.0000
    1GR    C132  132   1.205   1.105   1.900  0.0000  0.0000  0.0000
    1GR    C133  133   0.851   1.228   1.900  0.0000  0.0000  0.0000
    1GR    C134  134   0.993   1.228   1.900  0.0000  0.0000  0.0000
    1GR    C135  135   1.064   1.351   1.900  0.0000  0.0000  0.0000
    1GR    C136  136   1.205   1.351   1.900  0.0000  0.0000  0.0000
    1GR    C137  137   0.851   1.474   1.900  0.0000  0.0000  0.0000
    1GR    C138  138   0.993   1.474   1.900  0.0000  0.0000  0.0000
    1GR    C139  139   1.064   1.596   1.900  0.0000  0.0000  0.0000
    1GR    C140  140   1.205   1.596   1.900  0.0000  0.0000  0.0000
    1GR    C141  141   0.851   1.719   1.900  0.0000  0.0000  0.0000
    1GR    C142  142   0.993   1.719   1.900  0.0000  0.0000  0.0000
    1GR    C143  143   1.064   1.842   1.900  0.0000  0.0000  0.0000
    1GR    C144  144   1.205   1.842   1.900  0.0000  0.0000  0.0000
    1GR    C145  145   0.851   1.965   1.900  0.0000  0.0000  0.0000
    1GR    C146  146   0.993   1.965   1.900  0.0000  0.0000  0.0000
    1GR    C147  147   1.064   2.088   1.900  0.0000  0.0000  0.0000
    1GR    C148  148   1.205   2.088   1.900  0.0000  0.0000  0.0000
    1GR    C149  149   0.851   2.210   1.900  0.0000  0.0000  0.0000
    1GR    C150  150   0.993   2.210   1.900  0.0000  0.0000  0.0000
    1GR    C151  151   1.064   2.333   1.900  0.0000  0.0000  0.0000
    1GR    C152  152   1.205   2.333   1.900  0.0000  0.0000  0.0000
    1GR    C153  153   0.851   2.456   1.900  0.0000  0.0000  0.0000
    1GR    C154  154   0.993   2.456   1.900  0.0000  0.0000  0.0000
    1GR    C155  155   1.064   2.579   1.900  0.0000  0.0000  0.0000
    1GR    C156  156   1.205   2.579   1.900  0.0000  0.0000  0.0000
    1GR    C157  157   0.851   2.702   1.900  0.0000  0.0000  0.0000
    1GR    C158  158   0.993   2.702   1.900  0.0000  0.0000  0.0000
    1GR    C159  159   1.064   2.824   1.900  0.0000  0.0000  0.0000
    1GR    C160  160   1.205   2.824   1.900  0.0000  0.0000  0.0000
    1GR    C161  161   0.851   2.947   1.900  0.0000  0.0000  0.0000
    1GR    C162  162   0.993   2.947   1.900  0.0000  0.0000  0.0000
    1GR    C163  163   1.064   3.070   1.900  0.0000  0.0000  0.0000
    1GR    C164  164   1.205   3.070   1.900  0.0000  0.0000  0.0000
    1GR    C165  165   0.851   3.193   1.900  0.0000  0.0000  0.0000
    1GR    C166  166   0.993   3.193   1.900  0.0000  0.0000  0.0000
    1GR    C167  167   1.064   3.316   1.900  0.0000  0.0000  0.0000
    1GR    C168  168   1.205   3.316   1.900  0.0000  0.0000  0.0000
    1GR    C169  169   1.276   0.000   1.900  0.0000  0.0000  0.0000
    1GR    C170  170   1.418   0.000   1.900  0.0000  0.0000  0.0000
    1GR    C171  171   1.489   0.123   1.900  0.0000  0.0000  0.0000
    1GR    C172  172   1.631   0.123   1.900  0.0000  0.0000  0.0000
    1GR    C173  173   1.276   0.246   1.900  0.0000  0.0000  0.0000
    1GR    C174  174   1.418   0.246   1.900  0.0000  0.0000  0.0000
    1GR    C175  175   1.489   0.368   1.900  0.0000  0.0000  0.0000
    1GR    C176  176   1.631   0.368   1.900  0.0000  0.0000  0.0000
    1GR    C177  177   1.276   0.491   1.900  0.0000  0.0000  0.0000
    1GR    C178  178   1.418   0.491   1.900  0.0000  0.0000  0.0000
    1GR    C179  179   1.489   0.614   1.900  0.0000  0.0000  0.0000
    1GR    C180  180   1.631   0.614   1.900  0.0000  0.0000  0.0000
    1GR    C181  181   1.276   0.737   1.900  0.0000  0.0000  0.0000
    1GR    C182  182   1.418   0.737   1.900  0.0000  0.0000  0.0000
    1GR    C183  183   1.489   0.860   1.900  0.0000  0.0000  0.0000
    1GR    C184  184   1.631   0.860   1.900  0.0000  0.0000  0.0000
    1GR    C185  185   1.276   0.982   1.900  0.0000  0.0000  0.0000
    1GR    C186  186   1.418   0.982   1.900  0.0000  0.0000  0.0000
    1GR    C187  187   1.489   1.105   1.900  0.0000  0.0000  0.0000
    1GR    C188  188   1.631   1.105   1.900  0.0000  0.0000  0.0000
    1GR    C189  189   1.276   1.228   1.900  0.0000  0.0000  0.0000
    1GR    C190  190   1.418   1.228   1.900  0.0000  0.0000  0.0000
    1GR    C191  191   1.489   1.351   1.900  0.0000  0.0000  0.0000
    1GR    C192  192   1.631   1.351   1.900  0.0000  0.0000  0.0000
    1GR    C193  193   1.276   1.474   1.900  0.0000  0.0000  0.0000
    1GR    C194  194   1.418   1.474   1.900  0.0000  0.0000  0.0000
    1GR    C195  195   1.489   1.596   1.900  0.0000  0.0000  0.0000
    1GR    C196  196   1.631   1.596   1.900  0.0000  0.0000  0.0000
    1GR    C197  197   1.276   1.719   1.900  0.0000  0.0000  0.0000
    1GR    C198  198   1.418   1.719   1.900  0.0000  0.0000  0.0000
    1GR    C199  199   1.489   1.842   1.900  0.0000  0.0000  0.0000
    1GR    C200  200   1.631   1.842   1.900  0.0000  0.0000  0.0000
    1GR    C201  201   1.276   1.965   1.900  0.0000  0.0000  0.0000
    1GR    C202  202   1.418   1.965   1.900  0.0000  0.0000  0.0000
    1GR    C203  203   1.489   2.088   1.900  0.0000  0.0000  0.0000
    1GR    C204  204   1.631   2.088   1.900  0.0000  0.0000  0.0000
    1GR    C205  205   1.276   2.210   1.900  0.0000  0.0000  0.0000
    1GR    C206  206   1.418   2.210   1.900  0.0000  0.0000  0.0000
    1GR    C207  207   1.489   2.333   1.900  0.0000  0.0000  0.0000
    1GR    C208  208   1.631   2.333   1.900  0.0000  0.0000  0.0000
    1GR    C209  209   1.276   2.456   1.900  0.0000  0.0000  0.0000
    1GR    C210  210   1.418   2.456   1.900  0.0000  0.0000  0.0000
    1GR    C211  211   1.489   2.579   1.900  0.0000  0.0000  0.0000
    1GR    C212  212   1.631   2.579   1.900  0.0000  0.0000  0.0000
    1GR    C213  213   1.276   2.702   1.900  0.0000  0.0000  0.0000
    1GR    C214  214   1.418   2.702   1.900  0.0000  0.0000  0.0000
    1GR    C215  215   1.489   2.824   1.900  0.0000  0.0000  0.0000
    1GR    C216  216   1.631   2.824   1.900  0.0000  0.0000  0.0000
    1GR    C217  217   1.276   2.947   1.900  0.0000  0.0000  0.0000
    1GR    C218  218   1.418   2.947   1.900  0.0000  0.0000  0.0000
    1GR    C219  219   1.489   3.070   1.900  0.0000  0.0000  0.0000
    1GR    C220  220   1.631   3.070   1.900  0.0000  0.0000  0.0000
    1GR    C221  221   1.276   3.193   1.900  0.0000  0.0000  0.0000
    1GR    C222  222   1.418   3.193   1.900  0.0000  0.0000  0.0000
    1GR    C223  223   1.489   3.316   1.900  0.0000  0.0000  0.0000
    1GR    C224  224   1.631   3.316   1.900  0.0000  0.0000  0.0000
    1GR    C225  225   1.702   0.000   1.900  0.0000  0.0000  0.0000
    1GR    C226  226   1.843   0.000   1.900  0.0000  0.0000  0.0000
    1GR    C227  227   1.914   0.123   1.900  0.0000  0.0000  0.0000
    1GR    C228  228   2.056   0.123   1.900  0.0000  0.0000  0.0000
    1GR    C229  229   1.702   0.246   1.900  0.0000  0.0000  0.0000
    1GR    C230  230   1.843   0.246   1.900  0.0000  0.0000  0.0000
    1GR    C231  231   1.914   0.368   1.900  0.0000  0.0000  0.0000
    1GR    C232  232   2.056   0.368   1.900  0.0000  0.0000  0.0000
    1GR    C233  233   1.702   0.491   1.900  0.0000  0.0000  0.0000
    1GR    C234  234   1.843   0.491   1.900  0.0000  0.0000  0.0000
    1GR    C235  235   1.914   0.614   1.900  0.0000  0.0000  0.0000
    1GR    C236  236   2.056   0.614   1.900  0.0000  0.0000  0.0000
    1GR    C237  237   1.702   0.737   1.900  0.0000  0.0000  0.0000
    1GR    C238  238   1.843   0.737   1.900  0.0000  0.0000  0.0000
    1GR    C239  239   1.914   0.860   1.900  0.0000  0.0000  0.0000
    1GR    C240  240   2.056   0.860   1.900  0.0000  0.0000  0.0000
    1GR    C241  241   1.702   0.982   1.900  0.0000  0.0000  0.0000
    1GR    C242  242   1.843   0.982   1.900  0.0000  0.0000  0.0000
    1GR    C243  243   1.914   1.105   1.900  0.0000  0.0000  0.0000
    1GR    C244  244   2.056   1.105   1.900  0.0000  0.0000  0.0000
    1GR    C245  245   1.702   1.228   1.900  0.0000  0.0000  0.0000
    1GR    C246  246   1.843   1.228   1.900  0.0000  0.0000  0.0000
    1GR    C247  247   1.914   1.351   1.900  0.0000  0.0000  0.0000
    1GR    C248  248   2.056   1.351   1.900  0.0000  0.0000  0.0000
    1GR    C249  249   1.702   1.474   1.900  0.0000  0.0000  0.0000
    1GR    C250  250   1.843   1.474   1.900  0.0000  0.0000  0.0000
    1GR    C251  251   1.914   1.596   1.900  0.0000  0.0000  0.0000
    1GR    C252  252   2.056   1.596   1.900  0.0000  0.0000  0.0000
    1GR    C253  253   1.702   1.719   1.900  0.0000  0.0000  0.0000
    1GR    C254  254   1.843   1.719   1.900  0.0000  0.0000  0.0000
    1GR    C255  255   1.914   1.842   1.900  0.0000  0.0000  0.0000
    1GR    C256  256   2.056   1.842   1.900  0.0000  0.0000  0.0000
    1GR    C257  257   1.702   1.965   1.900  0.0000  0.0000  0.0000
    1GR    C258  258   1.843   1.965   1.900  0.0000  0.0000  0.0000
    1GR    C259  259   1.914   2.088   1.900  0.0000  0.0000  0.0000
    1GR    C260  260   2.056   2.088   1.900  0.0000  0.0000  0.0000
    1GR    C261  261   1.702   2.210   1.900  0.0000  0.0000  0.0000
    1GR    C262  262   1.843   2.210   1.900  0.0000  0.0000  0.0000
    1GR    C263  263   1.914   2.333   1.900  0.0000  0.0000  0.0000
    1GR    C264  264   2.056   2.333   1.900  0.0000  0.0000  0.0000
    1GR    C265  265   1.702   2.456   1.900  0.0000  0.0000  0.0000
    1GR    C266  266   1.843   2.456   1.900  0.0000  0.0000  0.0000
    1GR    C267  267   1.914   2.579   1.900  0.0000  0.0000  0.0000
    1GR    C268  268   2.056   2.579   1.900  0.0000  0.0000  0.0000
    1GR    C269  269   1.702   2.702   1.900  0.0000  0.0000  0.0000
    1GR    C270  270   1.843   2.702   1.900  0.0000  0.0000  0.0000
    1GR    C271  271   1.914   2.824   1.900  0.0000  0.0000  0.0000
    1GR    C272  272   2.056   2.824   1.900  0.0000  0.0000  0.0000
    1GR    C273  273   1.702   2.947   1.900  0.0000  0.0000  0.0000
    1GR    C274  274   1.843   2.947   1.900  0.0000  0.0000  0.0000
    1GR    C275  275   1.914   3.070   1.900  0.0000  0.0000  0.0000
    1GR    C276  276   2.056   3.070   1.900  0.0000  0.0000  0.0000
    1GR    C277  277   1.702   3.193   1.900  0.0000  0.0000  0.0000
    1GR    C278  278   1.843   3.193   1.900  0.0000  0.0000  0.0000
    1GR    C279  279   1.914   3.316   1.900  0.0000  0.0000  0.0000
    1GR    C280  280   2.056   3.316   1.900  0.0000  0.0000  0.0000
    1GR    C281  281   2.127   0.000   1.900  0.0000  0.0000  0.0000
    1GR    C282  282   2.269   0.000   1.900  0.0000  0.0000  0.0000
    1GR    C283  283   2.340   0.123   1.900  0.0000  0.0000  0.0000
    1GR    C284  284   2.481   0.123   1.900  0.0000  0.0000  0.0000
    1GR    C285  285   2.127   0.246   1.900  0.0000  0.0000  0.0000
    1GR    C286  286   2.269   0.246   1.900  0.0000  0.0000  0.0000
    1GR    C287  287   2.340   0.368   1.900  0.0000  0.0000  0.0000
    1GR    C288  288   2.481   0.368   1.900  0.0000  0.0000  0.0000
    1GR    C289  289   2.127   0.491   1.900  0.0000  0.0000  0.0000
    1GR    C290  290   2.269   0.491   1.900  0.0000  0.0000  0.0000
    1GR    C291  291   2.340   0.614   1.900  0.0000  0.0000  0.0000
    1GR    C292  292   2.481   0.614   1.900  0.0000  0.0000  0.0000
    1GR    C293  293   2.127   0.737   1.900  0.0000  0.0000  0.0000
    1GR    C294  294   2.269   0.737   1.900  0.0000  0.0000  0.0000
    1GR    C295  295   2.340   0.860   1.900  0.0000  0.0000  0.0000
    1GR    C296  296   2.481   0.860   1.900  0.0000  0.0000  0.0000
    1GR    C297  297   2.127   0.982   1.900  0.0000  0.0000  0.0000
    1GR    C298  298   2.269   0.982   1.900  0.0000  0.0000  0.0000
    1GR    C299  299   2.340   1.105   1.900  0.0000  0.0000  0.0000
    1GR    C300  300   2.481   1.105   1.900  0.0000  0.0000  0.0000
    1GR    C301  301   2.127   1.228   1.900  0.0000  0.0000  0.0000
    1GR    C302  302   2.269   1.228   1.900  0.0000  0.0000  0.0000
    1GR    C303  303   2.340   1.351   1.900  0.0000  0.0000  0.0000
    1GR    C304  304   2.481   1.351   1.900  0.0000  0.0000  0.0000
    1GR    C305  305   2.127   1.474   1.900  0.0000  0.0000  0.0000
    1GR    C306  306   2.269   1.474   1.900  0.0000  0.0000  0.0000
    1GR    C307  307   2.340   1.596   1.900  0.0000  0.0000  0.0000
    1GR    C308  308   2.481   1.596   1.900  0.0000  0.0000  0.0000
    1GR    C309  309   2.127   1.719   1.900  0.0000  0.0000  0.0000
    1GR    C310  310   2.269   1.719   1.900  0.0000  0.0000  0.0000
    1GR    C311  311   2.340   1.842   1.900  0.0000  0.0000  0.0000
    1GR    C312  312   2.481   1.842   1.900  0.0000  0.0000  0.0000
    1GR    C313  313   2.127   1.965   1.900  0.0000  0.0000  0.0000
    1GR    C314  314   2.269   1.965   1.900  0.0000  0.0000  0.0000
    1GR    C315  315   2.340   2.088   1.900  0.0000  0.0000  0.0000
    1GR    C316  316   2.481   2.088   1.900  0.0000  0.0000  0.0000
    1GR    C317  317   2.127   2.210   1.900  0.0000  0.0000  0.0000
    1GR    C318  318   2.269   2.210   1.900  0.0000  0.0000  0.0000
    1GR    C319  319   2.340   2.333   1.900  0.0000  0.0000  0.0000
    1GR    C320  320   2.481   2.333   1.900  0.0000  0.0000  0.0000
    1GR    C321  321   2.127   2.456   1.900  0.0000  0.0000  0.0000
    1GR    C322  322   2.269   2.456   1.900  0.0000  0.0000  0.0000
    1GR    C323  323   2.340   2.579   1.900  0.0000  0.0000  0.0000
    1GR    C324  324   2.481   2.579   1.900  0.0000  0.0000  0.0000
    1GR    C325  325   2.127   2.702   1.900  0.0000  0.0000  0.0000
    1GR    C326  326   2.269   2.702   1.900  0.0000  0.0000  0.0000
    1GR    C327  327   2.340   2.824   1.900  0.0000  0.0000  0.0000
    1GR    C328  328   2.481   2.824   1.900  0.0000  0.0000  0.0000
    1GR    C329  329   2.127   2.947   1.900  0.0000  0.0000  0.0000
    1GR    C330  330   2.269   2.947   1.900  0.0000  0.0000  0.0000
    1GR    C331  331   2.340   3.070   1.900  0.0000  0.0000  0.0000
    1GR    C332  332   2.481   3.070   1.900  0.0000  0.0000  0.0000
    1GR    C333  333   2.127   3.193   1.900  0.0000  0.0000  0.0000
    1GR    C334  334   2.269   3.193   1.900  0.0000  0.0000  0.0000
    1GR    C335  335   2.340   3.316   1.900  0.0000  0.0000  0.0000
    1GR    C336  336   2.481   3.316   1.900  0.0000  0.0000  0.0000
    1GR    C337  337   2.552   0.000   1.900  0.0000  0.0000  0.0000
    1GR    C338  338   2.694   0.000   1.900  0.0000  0.0000  0.0000
    1GR    C339  339   2.765   0.123   1.900  0.0000  0.0000  0.0000
    1GR    C340  340   2.907   0.123   1.900  0.0000  0.0000  0.0000
    1GR    C341  341   2.552   0.246   1.900  0.0000  0.0000  0.0000
    1GR    C342  342   2.694   0.246   1.900  0.0000  0.0000  0.0000
    1GR    C343  343   2.765   0.368   1.900  0.0000  0.0000  0.0000
    1GR    C344  344   2.907   0.368   1.900  0.0000  0.0000  0.0000
    1GR    C345  345   2.552   0.491   1.900  0.0000  0.0000  0.0000
    1GR    C346  346   2.694   0.491   1.900  0.0000  0.0000  0.0000
    1GR    C347  347   2.765   0.614   1.900  0.0000  0.0000  0.0000
    1GR    C348  348   2.907   0.614   1.900  0.0000  0.0000  0.0000
    1GR    C349  349   2.552   0.737   1.900  0.0000  0.0000  0.0000
    1GR    C350  350   2.694   0.737   1.900  0.0000  0.0000  0.0000
    1GR    C351  351   2.765   0.860   1.900  0.0000  0.0000  0.0000
    1GR    C352  352   2.907   0.860   1.900  0.0000  0.0000  0.0000
    1GR    C353  353   2.552   0.982   1.900  0.0000  0.0000  0.0000
    1GR    C354  354   2.694   0.982   1.900  0.0000  0.0000  0.0000
    1GR    C355  355   2.765   1.105   1.900  0.0000  0.0000  0.0000
    1GR    C356  356   2.907   1.105   1.900  0.0000  0.0000  0.0000
    1GR    C357  357   2.552   1.228   1.900  0.0000  0.0000  0.0000
    1GR    C358  358   2.694   1.228   1.900  0.0000  0.0000  0.0000
    1GR    C359  359   2.765   1.351   1.900  0.0000  0.0000  0.0000
    1GR    C360  360   2.907   1.351   1.900  0.0000  0.0000  0.0000
    1GR    C361  361   2.552   1.474   1.900  0.0000  0.0000  0.0000
    1GR    C362  362   2.694   1.474   1.900  0.0000  0.0000  0.0000
    1GR    C363  363   2.765   1.596   1.900  0.0000  0.0000  0.0000
    1GR    C364  364   2.907   1.596   1.900  0.0000  0.0000  0.0000
    1GR    C365  365   2.552   1.719   1.900  0.0000  0.0000  0.0000
    1GR    C366  366   2.694   1.719   1.900  0.0000  0.0000  0.0000
    1GR    C367  367   2.765   1.842   1.900  0.0000  0.0000  0.0000
    1GR    C368  368   2.907   1.842   1.900  0.0000  0.0000  0.0000
    1GR    C369  369   2.552   1.965   1.900  0.0000  0.0000  0.0000
    1GR    C370  370   2.694   1.965   1.900  0.0000  0.0000  0.0000
    1GR    C371  371   2.765   2.088   1.900  0.0000  0.0000  0.0000
    1GR    C372  372   2.907   2.088   1.900  0.0000  0.0000  0.0000
    1GR    C373  373   2.552   2.210   1.900  0.0000  0.0000  0.0000
    1GR    C374  374   2.694   2.210   1.900  0.0000  0.0000  0.0000
    1GR    C375  375   2.765   2.333   1.900  0.0000  0.0000  0.0000
    1GR    C376  376   2.907   2.333   1.900  0.0000  0.0000  0.0000
    1GR    C377  377   2.552   2.456   1.900  0.0000  0.0000  0.0000
    1GR    C378  378   2.694   2.456   1.900  0.0000  0.0000  0.0000
    1GR    C379  379   2.765   2.579   1.900  0.0000  0.0000  0.0000
    1GR    C380  380   2.907   2.579   1.900  0.0000  0.0000  0.0000
    1GR    C381  381   2.552   2.702   1.900  0.0000  0.0000  0.0000
    1GR    C382  382   2.694   2.702   1.900  0.0000  0.0000  0.0000
    1GR    C383  383   2.765   2.824   1.900  0.0000  0.0000  0.0000
    1GR    C384  384   2.907   2.824   1.900  0.0000  0.0000  0.0000
    1GR    C385  385   2.552   2.947   1.900  0.0000  0.0000  0.0000
    1GR    C386  386   2.694   2.947   1.900  0.0000  0.0000  0.0000
    1GR    C387  387   2.765   3.070   1.900  0.0000  0.0000  0.0000
    1GR    C388  388   2.907   3.070   1.900  0.0000  0.0000  0.0000
    1GR    C389  389   2.552   3.193   1.900  0.0000  0.0000  0.0000
    1GR    C390  390   2.694   3.193   1.900  0.0000  0.0000  0.0000
    1GR    C391  391   2.765   3.316   1.900  0.0000  0.0000  0.0000
    1GR    C392  392   2.907   3.316   1.900  0.0000  0.0000  0.0000
    1GR    C393  393   2.978   0.000   1.900  0.0000  0.0000  0.0000
    1GR    C394  394   3.120   0.000   1.900  0.0000  0.0000  0.0000
    1GR    C395  395   3.191   0.123   1.900  0.0000  0.0000  0.0000
    1GR    C396  396   3.332   0.123   1.900  0.0000  0.0000  0.0000
    1GR    C397  397   2.978   0.246   1.900  0.0000  0.0000  0.0000
    1GR    C398  398   3.120   0.246   1.900  0.0000  0.0000  0.0000
    1GR    C399  399   3.191   0.368   1.900  0.0000  0.0000  0.0000
    1GR    C400  400   3.332   0.368   1.900  0.0000  0.0000  0.0000
    1GR    C401  401   2.978   0.491   1.900  0.0000  0.0000  0.0000
    1GR    C402  402   3.120   0.491   1.900  0.0000  0.0000  0.0000
    1GR    C403  403   3.191   0.614   1.900  0.0000  0.0000  0.0000
    1GR    C404  404   3.332   0.614   1.900  0.0000  0.0000  0.0000
    1GR    C405  405   2.978   0.737   1.900  0.0000  0.0000  0.0000
    1GR    C406  406   3.120   0.737   1.900  0.0000  0.0000  0.0000
    1GR    C407  407   3.191   0.860   1.900  0.0000  0.0000  0.0000
    1GR    C408  408   3.332   0.860   1.900  0.0000  0.0000  0.0000
    1GR    C409  409   2.978   0.982   1.900  0.0000  0.0000  0.0000
    1GR    C410  410   3.120   0.982   1.900  0.0000  0.0000  0.0000
    1GR    C411  411   3.191   1.105   1.900  0.0000  0.0000  0.0000
    1GR    C412  412   3.332   1.105   1.900  0.0000  0.0000  0.0000
    1GR    C413  413   2.978   1.228   1.900  0.0000  0.0000  0.0000
    1GR    C414  414   3.120   1.228   1.900  0.0000  0.0000  0.0000
    1GR    C415  415   3.191   1.351   1.900  0.0000  0.0000  0.0000
    1GR    C416  416   3.332   1.351   1.900  0.0000  0.0000  0.0000
    1GR    C417  417   2.978   1.474   1.900  0.0000  0.0000  0.0000
    1GR    C418  418   3.120   1.474   1.900  0.0000  0.0000  0.0000
    1GR    C419  419   3.191   1.596   1.900  0.0000  0.0000  0.0000
    1GR    C420  420   3.332   1.596   1.900  0.0000  0.0000  0.0000
    1GR    C421  421   2.978   1.719   1.900  0.0000  0.0000  0.0000
    1GR    C422  422   3.120   1.719   1.900  0.0000  0.0000  0.0000
    1GR    C423  423   3.191   1.842   1.900  0.0000  0.0000  0.0000
    1GR    C424  424   3.332   1.842   1.900  0.0000  0.0000  0.0000
    1GR    C425  425   2.978   1.965   1.900  0.0000  0.0000  0.0000
    1GR    C426  426   3.120   1.965   1.900  0.0000  0.0000  0.0000
    1GR    C427  427   3.191   2.088   1.900  0.0000  0.0000  0.0000
    1GR    C428  428   3.332   2.088   1.900  0.0000  0.0000  0.0000
    1GR    C429  429   2.978   2.210   1.900  0.0000  0.0000  0.0000
    1GR    C430  430   3.120   2.210   1.900  0.0000  0.0000  0.0000
    1GR    C431  431   3.191   2.333   1.900  0.0000  0.0000  0.0000
    1GR    C432  432   3.332   2.333   1.900  0.0000  0.0000  0.0000
    1GR    C433  433   2.978   2.456   1.900  0.0000  0.0000  0.0000
    1GR    C434  434   3.120   2.456   1.900  0.0000  0.0000  0.0000
    1GR    C435  435   3.191   2.579   1.900  0.0000  0.0000  0.0000
    1GR    C436  436   3.332   2.579   1.900  0.0000  0.0000  0.0000
    1GR    C437  437   2.978   2.702   1.900  0.0000  0.0000  0.0000
    1GR    C438  438   3.120   2.702   1.900  0.0000  0.0000  0.0000
    1GR    C439  439   3.191   2.824   1.900  0.0000  0.0000  0.0000
    1GR    C440  440   3.332   2.824   1.900  0.0000  0.0000  0.0000
    1GR    C441  441   2.978   2.947   1.900  0.0000  0.0000  0.0000
    1GR    C442  442   3.120   2.947   1.900  0.0000  0.0000  0.0000
    1GR    C443  443   3.191   3.070   1.900  0.0000  0.0000  0.0000
    1GR    C444  444   3.332   3.070   1.900  0.0000  0.0000  0.0000
    1GR    C445  445   2.978   3.193   1.900  0.0000  0.0000  0.0000
    1GR    C446  446   3.120   3.193   1.900  0.0000  0.0000  0.0000
    1GR    C447  447   3.191   3.316   1.900  0.0000  0.0000  0.0000
    1GR    C448  448   3.332   3.316   1.900  0.0000  0.0000  0.0000
    2PMMA   CX1  449   2.683   3.004   2.287  0.5695  0.0345 -0.1307
    2PMMA   CA2  450   2.573   3.035   2.386 -0.1147  0.1483 -0.7182
    2PMMA   CX3  451   2.488   3.153   2.330 -0.0460  0.2710  0.3958
    2PMMA    C4  452   2.488   2.910   2.389  0.0042 -0.4397  1.2459
    2PMMA    O5  453   2.490   2.822   2.473 -0.2335  0.1633  0.6396
    2PMMA   OS6  454   2.405   2.897   2.278  0.3770 -0.3847  0.1496
    2PMMA   CE7  455   2.313   2.789   2.265  0.6389  0.1593 -0.1992
    2PMMA   CX8  456   2.642   3.073   2.524 -0.0622  0.0732 -0.1935
    2PMMA   CA9  457   2.580   3.146   2.642 -0.2178 -0.5008 -1.2405
    2PMMA  CX10  458   2.453   3.066   2.686  0.1908  0.1848  0.2393
    2PMMA   C11  459   2.534   3.288   2.600  0.2507 -0.1623  0.1662
    2PMMA   O12  460   2.416   3.324   2.597 -0.3013 -0.3359 -0.5053
    2PMMA  OS13  461   2.626   3.362   2.547  0.3864  0.0423  0.6189
    2PMMA  CE14  462   2.607   3.497   2.507 -0.4703  0.8213 -0.5926
    2PMMA  CX15  463   2.673   3.147   2.768  0.7308 -0.1021  0.4046
    2PMMA  CA16  464   2.638   3.207   2.911 -0.5291 -0.0955  0.7069
    2PMMA  CX17  465   2.551   3.334   2.896 -0.1761 -0.0822  0.0578
    2PMMA   C18  466   2.559   3.094   2.980  0.3336  0.5263  0.2634
    2PMMA   O19  467   2.452   3.110   3.035  0.2565  0.3351 -0.3338
    2PMMA  OS20  468   2.625   2.978   2.992  0.0804 -0.3112 -0.2950
    2PMMA  CE21  469   2.559   2.862   3.036  0.1300 -0.2921 -0.0762
    2PMMA  CX22  470   2.773   3.229   2.993 -0.1097 -0.2105 -0.2579
    2PMMA  CA23  471   2.771   3.278   3.140 -0.5594 -1.3684 -0.2909
    2PMMA  CX24  472   2.709   3.174   3.238 -0.9796 -0.0031  0.1187
    2PMMA   C25  473   2.698   3.415   3.153 -0.0695  0.0005 -0.3319
    2PMMA   O26  474   2.627   3.449   3.248 -0.2174  0.5696  0.2871
    2PMMA  OS27  475   2.740   3.500   3.056 -0.2762  0.5591 -0.0809
    2PMMA  CE28  476   2.702   3.635   3.045  0.3473  0.1932  0.0359
    2PMMA  CX29  477   2.918   3.307   3.185 -0.2118 -0.6328  0.2069
    2PMMA  HC30  478   2.737   3.092   2.248 -0.8043  1.2052  0.5511
    2PMMA  HC31  479   2.762   2.940   2.327 -0.0975 -1.3035 -0.9111
    2PMMA  HC32  480   2.643   2.951   2.200  1.2172 -0.1374 -0.3258
    2PMMA  HC33  481   2.463   3.135   2.225  2.7825  1.5619 -0.5496
    2PMMA  HC34  482   2.551   3.243   2.333  0.4449 -0.0622  0.1624
    2PMMA  HC35  483   2.393   3.161   2.384  0.0408  0.9111  0.4536
    2PMMA  H136  484   2.239   2.786   2.345 -0.7114  1.0994 -1.3868
    2PMMA  H137  485   2.365   2.694   2.252  0.2181 -0.4011  2.0601
    2PMMA  H138  486   2.249   2.811   2.179  0.4146  2.5339  0.5226
    2PMMA  HC39  487   2.682   2.976   2.557  0.7737  0.5819  0.3246
    2PMMA  HC40  488   2.736   3.128   2.513  0.5203 -0.2868  2.5654
    2PMMA  HC41  489   2.381   3.048   2.606 -0.7373 -0.2279  1.1582
    2PMMA  HC42  490   2.486   2.971   2.730  0.4813  0.9289  1.6506
    2PMMA  HC43  491   2.392   3.126   2.755 -1.4660  1.6532 -2.4131
    2PMMA  H144  492   2.561   3.559   2.584  2.1925  2.2971 -0.1191
    2PMMA  H145  493   2.550   3.497   2.414 -0.1472  1.3433 -0.7912
    2PMMA  H146  494   2.704   3.543   2.488  0.0579  0.2378  0.6215
    2PMMA  HC47  495   2.721   3.049   2.785  0.5265 -0.4289 -0.8614
    2PMMA  HC48  496   2.764   3.201   2.739  1.0923 -0.1352  1.4531
    2PMMA  HC49  497   2.608   3.419   2.860  2.2509 -1.3790  0.7426
    2PMMA  HC50  498   2.512   3.372   2.991 -0.3578  1.1392 -0.4960
    2PMMA  HC51  499   2.463   3.323   2.832  1.3371 -0.6275 -1.9801
    2PMMA  H152  500   2.486   2.816   2.969  2.4493 -2.2728 -1.3224
    2PMMA  H153  501   2.507   2.884   3.130 -0.7653  1.3836 -0.9436
    2PMMA  H154  502   2.631   2.792   3.078  0.6807  0.4940  0.3091
    2PMMA  HC55  503   2.839   3.142   2.992  0.4366  0.1953 -0.3181
    2PMMA  HC56  504   2.838   3.298   2.937 -0.3675 -0.0266 -0.3337
    2PMMA  HC57  505   2.741   3.190   3.342  1.6243  1.5148 -0.8601
    2PMMA  HC58  506   2.600   3.163   3.233 -0.9817  0.0153  0.1240
    2PMMA  HC59  507   2.747   3.076   3.209 -0.6683  0.5696 -1.4543
    2PMMA  H160  508   2.739   3.688   3.133  0.5548  0.6390 -0.3162
    2PMMA  H161  509   2.593   3.638   3.039  0.3654 -0.0680 -0.5092
    2PMMA  H162  510   2.745   3.681   2.956 -1.7077 -1.0231 -1.6306
    2PMMA  HC63  511   2.964   3.376   3.114 -1.2572 -1.7281 -1.5665
    2PMMA  HC64  512   2.920   3.336   3.291 -0.7140  2.3829 -0.5752
    2PMMA  HC65  513   2.965   3.208   3.183 -0.6615 -0.8165 -2.0104
    3DMF     C1  514   1.624   0.059   0.563  0.5832 -0.5953 -0.2631
    3DMF     N1  515   1.561   0.024   0.688 -0.0197 -0.5464 -0.2172
    3DMF     C2  516   1.550  -0.116   0.717 -0.4363 -0.1119  0.1261
    3DMF     C3  517   1.462   0.115   0.747  0.0123  0.1144  0.0956
    3DMF     O1  518   1.480   0.233   0.737  0.0832 -0.0975  0.0501
    3DMF     H1  519   1.545   0.102   0.500 -1.9276 -0.5601  2.7731
    3DMF     H2  520   1.679  -0.020   0.511  0.0242 -1.4436  0.4182
    3DMF     H3  521   1.699   0.131   0.599 -0.5797  0.4752  0.0543
    3DMF     H4  522   1.454  -0.157   0.684 -0.3354  1.0163 -1.6354
    3DMF     H5  523   1.552  -0.137   0.825  0.1360 -0.9565 -0.0394
    3DMF     H6  524   1.634  -0.174   0.677 -0.6861  0.9103 -1.9393
    3DMF     H7  525   1.382   0.064   0.804 -0.9291  1.5534  0.0751
    4DMF     C1  526   0.472   2.208   2.274  0.1981 -0.5434 -0.0097
    4DMF     N1  527   0.454   2.357   2.265  0.6453  0.1091  0.2452
    4DMF     C2  528   0.316   2.403   2.289 -0.9243  0.1032 -0.5013
    4DMF     C3  529   0.568   2.442   2.283  0.4023 -0.2079  0.4489
    4DMF     O1  530   0.679   2.398   2.273 -0.1129  0.4655  0.4668
    4DMF     H1  531   0.569   2.174   2.235 -0.7610 -2.4144 -0.7907
    4DMF     H2  532   0.388   2.166   2.218  0.7368 -1.3639 -0.2047
    4DMF     H3  533   0.466   2.177   2.379  0.6358 -0.9138 -0.0963
    4DMF     H4  534   0.253   2.402   2.199 -2.4388  3.7939  0.4169
    4DMF     H5  535   0.319   2.507   2.322 -0.4965  0.0197 -0.2774
    4DMF     H6  536   0.277   2.334   2.366 -1.8200 -1.2819 -2.1598
    4DMF     H7  537   0.540   2.547   2.305  0.6213  0.0103 -0.2803
    5DMF     C1  538   2.042   0.198   0.261  0.2107 -1.1999  0.2580
    5DMF     N1  539   1.911   0.237   0.205  0.0493 -0.0412  0.5304
    5DMF     C2  540   1.800   0.167   0.267 -0.6434 -0.0013 -0.2675
    5DMF     C3  541   1.906   0.306   0.082  0.2066 -0.2290 -0.6617
    5DMF     O1  542   1.998   0.365   0.029 -0.5614 -0.7797 -0.4292
    5DMF     H1  543   2.127   0.259   0.228 -0.9554  0.1589 -0.3083
    5DMF     H2  544   2.051   0.090   0.243  1.8501 -0.8013 -1.6224
    5DMF     H3  545   2.048   0.213   0.369  0.0213 -0.4445  0.1709
    5DMF     H4  546   1.793   0.168   0.376 -0.0834  0.8919 -0.2402
    5DMF     H5  547   1.806   0.061   0.238 -0.6795  0.1830 -0.9582
    5DMF     H6  548   1.709   0.214   0.228 -1.4211 -1.7912 -0.6867
    5DMF     H7  549   1.802   0.293   0.045 -0.4083  0.1711  0.8573
    6DMF     C1  550   0.208   1.140   3.654  0.5545  0.0963  0.7662
    6DMF     N1  551   0.224   1.136   3.802 -0.0642  0.0463 -0.3769
    6DMF     C2  552   0.251   1.014   3.880  0.2960 -0.8847 -0.2093
    6DMF     C3  553   0.205   1.262   3.873  0.1287  0.2750 -0.1061
    6DMF     O1  554   0.205   1.371   3.815 -0.4060 -0.1599 -0.4719
    6DMF     H1  555   0.145   1.224   3.626 -0.4160 -1.2581 -1.2310
    6DMF     H2  556   0.159   1.043   3.638 -1.3906  1.0199  1.0333
    6DMF     H3  557   0.301   1.138   3.596  0.4173 -0.2097  0.5585
    6DMF     H4  558   0.358   1.000   3.859  0.0889  1.4676 -3.2319
    6DMF     H5  559   0.207   0.926   3.831 -2.7553  0.2055  0.4570
    6DMF     H6  560   0.232   1.020   3.988  0.7019 -0.0103 -0.1782
    6DMF     H7  561   0.201   1.251   3.983  2.0997  1.8593  0.1425
    7DMF     C1  562   2.273   0.039   3.589 -0.2192  0.3486  0.0658
    7DMF     N1  563   2.306  -0.053   3.481 -0.2145  0.5956 -0.1944
    7DMF     C2  564   2.206  -0.076   3.381 -0.3392 -0.2492  0.4551
    7DMF     C3  565   2.438  -0.089   3.462  1.0684 -0.1153 -0.1198
    7DMF     O1  566   2.520  -0.076   3.551 -0.1310  0.1181 -0.0753
    7DMF     H1  567   2.366   0.063   3.641  0.6670 -2.7625 -0.0057
    7DMF     H2  568   2.196   0.000   3.657 -1.0755  2.4703  0.3495
    7DMF     H3  569   2.222   0.124   3.542 -1.5357 -1.7149 -2.4101
    7DMF     H4  570   2.236  -0.074   3.276 -2.4104  0.8696 -0.1552
    7DMF     H5  571   2.128   0.001   3.392 -0.2186  0.0152 -0.5501
    7DMF     H6  572   2.161  -0.173   3.408  0.7433 -0.5638  1.1502
    7DMF     H7  573   2.454  -0.130   3.361  0.1986 -1.6874  0.3586
    8DMF     C1  574   0.353   2.069   0.168 -0.0468  0.0796  0.2262
    8DMF     N1  575   0.283   2.077   0.294  0.2772 -0.3964  0.5326
    8DMF     C2  576   0.207   2.202   0.322  0.3957  0.0587  0.2525
    8DMF     C3  577   0.314   1.993   0.405 -0.6406 -0.4243 -0.3138
    8DMF     O1  578   0.376   1.888   0.391 -0.3990  0.1750 -0.0111
    8DMF     H1  579   0.448   2.121   0.155  0.5999 -1.0778  0.2492
    8DMF     H2  580   0.286   2.110   0.091  2.1942 -0.6563 -2.1607
    8DMF     H3  581   0.374   1.964   0.141  0.9637 -0.1975  2.0679
    8DMF     H4  582   0.243   2.302   0.296 -3.3442  1.4445  0.0328
    8DMF     H5  583   0.172   2.203   0.426  2.5309 -1.2100  1.0017
    8DMF     H6  584   0.120   2.198   0.255  1.0409 -4.3336 -0.4777
    8DMF     H7  585   0.260   2.024   0.496 -0.2070 -2.4380  0.6513
    9DMF     C1  586   2.422   1.391   2.299  0.0795  0.0444  0.1974
    9DMF     N1  587   2.368   1.251   2.282  0.4158 -0.3600 -0.3329
    9DMF     C2  588   2.224   1.228   2.278 -0.6867 -0.3866 -0.0923
    9DMF     C3  589   2.458   1.144   2.254 -0.7719 -0.5661  0.4992
    9DMF     O1  590   2.582   1.159   2.244  0.0131 -0.8470  0.8095
    9DMF     H1  591   2.532   1.390   2.310  0.0315 -1.1217  0.5669
    9DMF     H2  592   2.372   1.431   2.388  0.0832  0.9994 -0.2290
    9DMF     H3  593   2.396   1.467   2.224  1.9901 -0.9150 -1.5202
    9DMF     H4  594   2.186   1.151   2.347 -1.2687  1.1684  1.3615
    9DMF     H5  595   2.205   1.206   2.173  2.4809 -1.6966 -0.4606
    9DMF     H6  596   2.180   1.324   2.307 -1.3532 -0.9189  0.6554
    9DMF     H7  597   2.404   1.049   2.243  2.2977 -2.3913  0.6990
   10DMF     C1  598   1.513   0.510   2.604 -0.1069 -0.0819  1.0404
   10DMF     N1  599   1.634   0.582   2.636 -0.0733 -0.6154 -0.5160
   10DMF     C2  600   1.629   0.657   2.764 -0.7369  0.2693  0.4635
   10DMF     C3  601   1.729   0.621   2.538 -0.4944  0.8395 -0.2611
   10DMF     O1  602   1.738   0.551   2.437  0.0195  0.1240  0.7075
   10DMF     H1  603   1.494   0.413   2.652 -3.4920  0.2904  0.5152
   10DMF     H2  604   1.506   0.499   2.495 -0.2049  1.6039  0.8714
   10DMF     H3  605   1.426   0.572   2.628  2.3640  2.0553  5.1448
   10DMF     H4  606   1.629   0.591   2.851  1.7702  1.2237  1.2341
   10DMF     H5  607   1.539   0.717   2.779 -1.2485 -0.3278 -0.1963
   10DMF     H6  608   1.721   0.717   2.760 -1.5672  1.6368  1.6495
   10DMF     H7  609   1.797   0.704   2.565  0.6360  0.4880 -1.9496
   11DMF     C1  610   0.958   1.324   3.744 -0.3488  0.2046 -0.1989
   11DMF     N1  611   1.026   1.455   3.791  0.4261  0.8749  0.0537
   11DMF     C2  612   1.161   1.482   3.736 -0.2905 -0.5371  0.1603
   11DMF     C3  613   0.976   1.532   3.895 -0.2589 -0.4022 -0.1694
   11DMF     O1  614   0.863   1.521   3.929  0.6296 -0.0839 -0.8581
   11DMF     H1  615   0.862   1.351   3.698  1.3898  2.4472 -2.7287
   11DMF     H2  616   0.951   1.267   3.837  0.5682 -1.9503 -1.4041
   11DMF     H3  617   1.015   1.270   3.667 -1.1492  0.1005 -0.7196
   11DMF     H4  618   1.243   1.421   3.775  0.0649 -0.4434 -0.4330
   11DMF     H5  619   1.186   1.587   3.757  0.7461 -0.2907 -2.1288
   11DMF     H6  620   1.162   1.460   3.629 -2.5409 -0.7321  0.1664
   11DMF     H7  621   1.048   1.607   3.934 -0.7351  0.0523 -0.1613
   12DMF     C1  622   0.156   2.255   0.733 -0.0387  0.0650 -0.1161
   12DMF     N1  623   0.246   2.379   0.745  0.0618  0.2864 -0.2920
   12DMF     C2  624   0.203   2.495   0.822 -0.1343  0.1915  0.2658
   12DMF     C3  625   0.356   2.392   0.659 -0.2785  0.4549  0.5189
   12DMF     O1  626   0.400   2.305   0.583  0.2322 -0.0538  0.5687
   12DMF     H1  627   0.215   2.162   0.728 -0.5968 -0.2767 -0.3571
   12DMF     H2  628   0.094   2.267   0.643 -2.8884 -0.9867  1.6315
   12DMF     H3  629   0.103   2.246   0.829 -1.9356  0.0052 -1.1482
   12DMF     H4  630   0.202   2.489   0.931 -0.2921  0.2466  0.2669
   12DMF     H5  631   0.099   2.518   0.796 -0.0762  1.7244  1.3256
   12DMF     H6  632   0.264   2.582   0.796  0.6864  0.0667  1.7693
   12DMF     H7  633   0.416   2.485   0.671  4.5431 -2.0257 -2.6833
   13DMF     C1  634   0.660   1.978   3.691 -0.1005 -0.3015  0.1686
   13DMF     N1  635   0.797   1.977   3.637 -0.0919 -0.7634 -0.0541
   13DMF     C2  636   0.811   1.975   3.487 -0.5750 -0.0281  0.2622
   13DMF     C3  637   0.910   1.996   3.717  0.2561 -0.4242  0.0654
   13DMF     O1  638   0.902   2.000   3.838  0.6244 -0.4441 -0.0138
   13DMF     H1  639   0.676   1.944   3.794 -0.2859  0.8677  0.5970
   13DMF     H2  640   0.579   1.923   3.642 -0.1019 -0.8235  0.7508
   13DMF     H3  641   0.619   2.079   3.696  1.9065  0.6043 -0.9406
   13DMF     H4  642   0.867   2.064   3.457 -2.0788  0.5173 -0.9915
   13DMF     H5  643   0.714   1.991   3.438  0.0195 -0.9494 -1.2517
   13DMF     H6  644   0.862   1.891   3.438 -2.2543 -0.5014 -0.7264
   13DMF     H7  645   1.004   1.996   3.659  1.1808 -1.1596  1.5314
   14DMF     C1  646   1.004   2.729   3.667  0.2599  0.0286 -0.1676
   14DMF     N1  647   0.915   2.824   3.736  0.0281 -0.0928  0.7736
   14DMF     C2  648   0.861   2.937   3.659 -0.5590 -0.0407 -0.0402
   14DMF     C3  649   0.858   2.791   3.861 -0.3760  0.2131  0.4826
   14DMF     O1  650   0.886   2.689   3.915 -0.2014 -0.2249  0.6450
   14DMF     H1  651   0.950   2.691   3.579 -2.0293 -0.4267  1.4080
   14DMF     H2  652   1.017   2.634   3.720 -1.5196  0.1143  0.4519
   14DMF     H3  653   1.093   2.787   3.640  0.3543  1.2518  2.6263
   14DMF     H4  654   0.782   2.989   3.716 -0.2205  0.6702 -0.2221
   14DMF     H5  655   0.816   2.904   3.564 -0.8764 -1.4982  0.5867
   14DMF     H6  656   0.942   3.007   3.640 -1.1387  0.9275  1.0222
   14DMF     H7  657   0.778   2.858   3.897 -0.4099 -0.6062  1.9659
   15DMF     C1  658   1.222   2.614   1.341 -0.4832  1.0081 -0.3375
   15DMF     N1  659   1.242   2.563   1.481 -0.3081  0.6049 -0.0379
   15DMF     C2  660   1.118   2.516   1.552 -0.8311 -0.4554  0.5640
   15DMF     C3  661   1.356   2.602   1.548 -0.1453  0.3159  0.3684
   15DMF     O1  662   1.453   2.656   1.501  0.0544 -0.5472  0.5664
   15DMF     H1  663   1.144   2.689   1.356 -0.6860  0.6831  0.2528
   15DMF     H2  664   1.179   2.535   1.279  0.4047  0.2337  0.0097
   15DMF     H3  665   1.318   2.650   1.302 -2.0414  1.0300 -4.3816
   15DMF     H4  666   1.036   2.497   1.481  0.3941 -1.1841 -0.6951
   15DMF     H5  667   1.090   2.603   1.612 -0.3484  0.1196 -0.0350
   15DMF     H6  668   1.141   2.421   1.602 -0.5519 -0.5950  0.1839
   15DMF     H7  669   1.352   2.580   1.656 -0.0945  0.6298  0.4343
   16DMF     C1  670   0.910   2.311   0.812  0.0726 -0.1815  0.2350
   16DMF     N1  671   0.768   2.271   0.798  0.3456 -0.2464 -0.5096
   16DMF     C2  672   0.689   2.275   0.911  0.0977 -0.6259  0.1383
   16DMF     C3  673   0.707   2.261   0.676  0.5300  0.0720  0.6925
   16DMF     O1  674   0.765   2.293   0.570 -0.5838 -0.1739  0.5989
   16DMF     H1  675   0.937   2.268   0.909  2.8226  4.4955  1.7065
   16DMF     H2  676   0.930   2.419   0.818  1.9117 -0.5592  1.5581
   16DMF     H3  677   0.973   2.259   0.739 -0.5479  1.2084 -1.3279
   16DMF     H4  678   0.606   2.346   0.900  1.2785  1.0961  2.0209
   16DMF     H5  679   0.753   2.308   0.993  1.4334  0.9609 -1.4983
   16DMF     H6  680   0.643   2.181   0.945  1.4179 -1.1320  0.5638
   16DMF     H7  681   0.600   2.233   0.681  0.3525  0.5480 -0.4379
   17DMF     C1  682   0.826   0.751   1.040  0.4682  0.2151 -0.5438
   17DMF     N1  683   0.968   0.769   1.097  0.7635  0.0679 -0.1516
   17DMF     C2  684   1.004   0.713   1.232  0.9883  0.0869 -0.5385
   17DMF     C3  685   1.053   0.842   1.011 -0.5845  0.1080 -0.0667
   17DMF     O1  686   1.011   0.885   0.903  0.0668 -0.3018  0.1557
   17DMF     H1  687   0.834   0.668   0.968  3.4213  1.2950 -1.5304
   17DMF     H2  688   0.771   0.842   1.014  0.6781  0.5660  0.2064
   17DMF     H3  689   0.773   0.712   1.128  1.3725  1.7101  0.6896
   17DMF     H4  690   0.981   0.790   1.306  1.5682  0.6931 -0.9721
   17DMF     H5  691   1.109   0.681   1.233  0.0221 -3.2811  1.9187
   17DMF     H6  692   0.945   0.621   1.235  0.6459  0.3106 -0.4386
   17DMF     H7  693   1.160   0.843   1.039 -0.0393  0.9314 -2.0897
   18DMF     C1  694   2.241   2.862   0.600  0.0430 -0.2179  0.2212
   18DMF     N1  695   2.178   2.876   0.735  0.4082  0.3850 -0.2504
   18DMF     C2  696   2.064   2.966   0.743  0.8453 -0.5920  0.7766
   18DMF     C3  697   2.219   2.808   0.848 -0.1658  0.0384 -0.5698
   18DMF     O1  698   2.313   2.734   0.854 -0.6346  0.4013 -0.2568
   18DMF     H1  699   2.263   2.758   0.571 -0.9741 -1.0002  2.1889
   18DMF     H2  700   2.340   2.909   0.595 -0.0890  0.2151  1.5994
   18DMF     H3  701   2.176   2.902   0.521 -1.0348  0.4527  1.4434
   18DMF     H4  702   2.052   2.989   0.850  1.4590 -2.7944  1.3568
   18DMF     H5  703   1.974   2.928   0.694  0.3096  0.6978  0.7531
   18DMF     H6  704   2.090   3.063   0.701  3.6744 -0.4057  2.8176
   18DMF     H7  705   2.143   2.820   0.927 -1.6493 -0.6209 -1.8695
   19DMF     C1  706   2.542   1.644   1.498  0.3804  0.6934  0.3050
   19DMF     N1  707   2.474   1.770   1.543  0.4229 -0.6466  0.2446
   19DMF     C2  708   2.329   1.773   1.542  0.5275 -0.1864 -0.0477
   19DMF     C3  709   2.543   1.891   1.545 -0.4736  0.3562 -0.1098
   19DMF     O1  710   2.662   1.907   1.535 -0.4997 -0.1360  0.1788
   19DMF     H1  711   2.488   1.576   1.431  2.2545  0.2597 -0.8135
   19DMF     H2  712   2.553   1.585   1.590 -0.8691 -1.5574 -0.9461
   19DMF     H3  713   2.632   1.675   1.443  0.5007 -1.7589 -0.9536
   19DMF     H4  714   2.300   1.836   1.627  0.5165  1.1921 -1.0628
   19DMF     H5  715   2.281   1.676   1.560 -2.2440  1.0380 -0.4822
   19DMF     H6  716   2.287   1.817   1.450  0.8158  0.0027 -0.0865
   19DMF     H7  717   2.474   1.974   1.570 -1.2119 -0.2365 -0.1782
   20DMF     C1  718   0.275   1.912   0.879  0.0077  0.1842 -0.2692
   20DMF     N1  719   0.314   1.835   0.766 -0.5124 -0.5996  0.5851
   20DMF     C2  720   0.210   1.759   0.702  0.6093  0.0483  0.4894
   20DMF     C3  721   0.445   1.840   0.706  0.0312 -0.1639 -0.2742
   20DMF     O1  722   0.546   1.907   0.739 -0.1339 -0.5972  0.0368
   20DMF     H1  723   0.307   1.856   0.968 -1.4117 -1.4506 -0.7731
   20DMF     H2  724   0.166   1.928   0.880  0.3613  2.8919 -0.0836
   20DMF     H3  725   0.324   2.010   0.871  0.4461 -0.1610 -2.0639
   20DMF     H4  726   0.115   1.795   0.743  0.3324  2.7350 -2.2631
   20DMF     H5  727   0.229   1.651   0.698 -0.6776 -0.1826  0.2529
   20DMF     H6  728   0.201   1.792   0.597 -2.5067  0.3582  0.7918
   20DMF     H7  729   0.439   1.783   0.612 -0.2999  1.3559 -1.1942
   21DMF     C1  730   2.159   1.375   1.080  0.2369 -0.3885 -0.0087
   21DMF     N1  731   2.294   1.331   1.059 -0.4956  0.5757  0.7851
   21DMF     C2  732   2.307   1.206   0.985 -0.3730 -0.0175  0.0972
   21DMF     C3  733   2.404   1.381   1.134 -0.0202 -0.4138  0.3062
   21DMF     O1  734   2.399   1.478   1.201 -0.1267 -0.2228  0.0052
   21DMF     H1  735   2.156   1.482   1.058 -1.0017 -0.5164 -0.5095
   21DMF     H2  736   2.122   1.358   1.182 -2.6206  0.1425 -0.8875
   21DMF     H3  737   2.086   1.335   1.008 -1.5881  1.2576  0.8817
   21DMF     H4  738   2.310   1.219   0.876  1.2349  0.9758  0.2565
   21DMF     H5  739   2.233   1.133   1.021 -0.6864  0.1489 -0.2008
   21DMF     H6  740   2.400   1.152   1.007  0.1032  1.4993  1.9084
   21DMF     H7  741   2.498   1.335   1.098 -0.1244 -0.5903  0.2612
   22DMF     C1  742   2.745   1.368   1.319  0.1129 -0.2980 -0.1214
   22DMF     N1  743   2.728   1.262   1.420  0.3912 -0.0770  0.0049
   22DMF     C2  744   2.784   1.279   1.556 -0.3172  0.3987  0.0660
   22DMF     C3  745   2.651   1.146   1.386 -0.2623 -0.7328  0.2204
   22DMF     O1  746   2.600   1.139   1.271 -0.2435  0.4024  0.1879
   22DMF     H1  747   2.645   1.413   1.311 -0.1705 -0.6403  1.3696
   22DMF     H2  748   2.779   1.321   1.226  0.2760  0.1856 -0.3095
   22DMF     H3  749   2.813   1.449   1.349  0.3638 -0.8349  0.7749
   22DMF     H4  750   2.892   1.299   1.555  0.5552 -3.7988  1.1698
   22DMF     H5  751   2.778   1.182   1.608  3.5401 -0.6392 -1.2737
   22DMF     H6  752   2.724   1.350   1.614  0.4319  0.1549  1.1682
   22DMF     H7  753   2.654   1.062   1.459 -0.0243  0.5946  1.7605
   23DMF     C1  754   3.042   0.446   1.308  0.4787  0.9634 -0.4889
   23DMF     N1  755   2.913   0.436   1.391 -0.0770 -0.4803 -0.5595
   23DMF     C2  756   2.924   0.458   1.543  0.0383  0.2349  0.3555
   23DMF     C3  757   2.798   0.382   1.327  0.1679  0.2890 -0.2326
   23DMF     O1  758   2.785   0.356   1.211  0.1110 -0.0639 -0.3377
   23DMF     H1  759   3.097   0.540   1.310  1.9060  0.1503 -1.0012
   23DMF     H2  760   3.020   0.414   1.206  0.6140 -0.5809 -0.0468
   23DMF     H3  761   3.111   0.376   1.357 -0.8634 -1.0405 -1.3818
   23DMF     H4  762   2.853   0.538   1.568 -1.5169 -0.0030 -3.0366
   23DMF     H5  763   3.029   0.484   1.561  0.8401 -0.7645 -2.6134
   23DMF     H6  764   2.894   0.366   1.595 -2.0001 -0.7168 -2.3914
   23DMF     H7  765   2.719   0.374   1.404  1.1336  2.3859  1.0194
   24DMF     C1  766   3.143   2.710   2.384  0.4425 -0.4500 -0.3135
   24DMF     N1  767   3.068   2.836   2.389  0.0595 -0.5068  0.2248
   24DMF     C2  768   3.034   2.919   2.261 -0.0591 -0.2656  0.3231
   24DMF     C3  769   2.989   2.867   2.507  0.2436  0.4057  0.3364
   24DMF     O1  770   2.981   2.795   2.605  0.4946 -0.0494  0.0973
   24DMF     H1  771   3.127   2.663   2.286  2.3657  0.0474 -0.8911
   24DMF     H2  772   3.102   2.641   2.458 -2.9439 -0.3733 -2.0250
   24DMF     H3  773   3.248   2.738   2.397  0.4385 -0.4894 -0.2023
   24DMF     H4  774   2.993   3.014   2.296  0.4360  0.0547  0.0449
   24DMF     H5  775   2.961   2.867   2.199  0.4098 -0.3457 -0.1679
   24DMF     H6  776   3.126   2.939   2.205 -1.0872 -0.0207 -1.2996
   24DMF     H7  777   2.925   2.957   2.497 -0.3810  0.0449  1.0338
   25DMF     C1  778   2.711   1.168   2.582  0.0874  0.5023 -0.6756
   25DMF     N1  779   2.760   1.187   2.721  0.3566  0.0717 -0.0775
   25DMF     C2  780   2.849   1.299   2.740 -0.3542  0.0461 -0.1390
   25DMF     C3  781   2.716   1.096   2.829 -0.2197  0.2371 -0.2256
   25DMF     O1  782   2.649   0.995   2.811  0.5139  0.3889  0.3393
   25DMF     H1  783   2.764   1.085   2.533  0.3054 -0.5459  1.2999
   25DMF     H2  784   2.730   1.260   2.525 -0.7882 -0.1346 -1.9983
   25DMF     H3  785   2.605   1.144   2.575 -0.4505  2.0413  1.4393
   25DMF     H4  786   2.953   1.275   2.715  0.1367  0.0457  1.8186
   25DMF     H5  787   2.853   1.342   2.840  1.9590 -0.3500 -0.0355
   25DMF     H6  788   2.819   1.371   2.662 -1.1319  0.9003  0.9382
   25DMF     H7  789   2.748   1.130   2.930  0.5196  0.3522 -0.4950
   26DMF     C1  790   2.787   2.501   1.431  0.8074  0.5120 -0.7595
   26DMF     N1  791   2.754   2.351   1.430 -0.2309  0.2544 -0.0980
   26DMF     C2  792   2.807   2.274   1.537  0.7672  0.0935  0.4095
   26DMF     C3  793   2.676   2.286   1.330 -0.5784 -0.3173  0.2310
   26DMF     O1  794   2.606   2.359   1.255 -0.0193  0.1064  0.0955
   26DMF     H1  795   2.886   2.521   1.388  1.4827  1.8578  1.3265
   26DMF     H2  796   2.787   2.541   1.533 -1.2362 -3.1808  0.7970
   26DMF     H3  797   2.710   2.550   1.371 -0.3293 -0.3231 -0.0037
   26DMF     H4  798   2.815   2.168   1.508 -0.2708  0.4962 -1.4241
   26DMF     H5  799   2.746   2.271   1.629 -2.3664 -0.8130 -1.6077
   26DMF     H6  800   2.908   2.304   1.569  1.1034  0.4470 -0.9857
   26DMF     H7  801   2.671   2.178   1.351  2.5925 -0.6510 -0.4928
   27DMF     C1  802   1.902   0.982   3.133  0.1136 -0.0940  0.1914
   27DMF     N1  803   1.999   0.898   3.061 -0.5596 -0.9540 -0.0172
   27DMF     C2  804   1.982   0.885   2.911  0.1421  0.2535  0.5316
   27DMF     C3  805   2.104   0.834   3.124 -0.2379  0.5109  0.2598
   27DMF     O1  806   2.127   0.857   3.248 -0.4900  0.1594  0.3601
   27DMF     H1  807   1.870   1.075   3.083 -1.5070 -1.3891 -1.2509
   27DMF     H2  808   1.949   1.014   3.226  0.2452  1.6771 -0.4551
   27DMF     H3  809   1.814   0.920   3.155  0.8121 -0.7760  1.0745
   27DMF     H4  810   1.878   0.897   2.878 -0.8917 -1.8752  2.8945
   27DMF     H5  811   2.012   0.784   2.880  2.5663  0.3629  2.3753
   27DMF     H6  812   2.042   0.955   2.851 -1.5357 -0.9702 -2.6892
   27DMF     H7  813   2.170   0.774   3.059 -0.2973  0.9583 -0.2101
   28DMF     C1  814   2.122   2.087   0.572  1.0160 -0.2258  0.2033
   28DMF     N1  815   2.145   2.220   0.519 -0.0571 -0.1330  0.0063
   28DMF     C2  816   2.242   2.303   0.588  0.1907 -0.8662  0.1710
   28DMF     C3  817   2.085   2.268   0.401 -0.2633 -0.4124  0.4619
   28DMF     O1  818   2.008   2.202   0.335  0.7182  0.0667 -0.1796
   28DMF     H1  819   2.021   2.055   0.541  1.8034 -0.6693 -2.0147
   28DMF     H2  820   2.123   2.092   0.682 -1.1162 -0.4481  0.2519
   28DMF     H3  821   2.201   2.022   0.532  1.3205  0.1235  0.2423
   28DMF     H4  822   2.299   2.254   0.667 -0.8299 -1.0692  0.7902
   28DMF     H5  823   2.199   2.398   0.620 -1.4276 -1.4076 -0.3285
   28DMF     H6  824   2.324   2.318   0.517  1.3334  0.8529  1.8223
   28DMF     H7  825   2.104   2.370   0.361  0.9573 -1.0294 -0.5543
   29DMF     C1  826   2.956   1.688   3.454  0.1135 -0.2965 -1.0464
   29DMF     N1  827   2.908   1.826   3.471  0.0626 -0.5156  0.1064
   29DMF     C2  828   2.991   1.946   3.439  0.2530 -0.5722 -0.2490
   29DMF     C3  829   2.790   1.842   3.549  0.0373  0.0032  0.1007
   29DMF     O1  830   2.714   1.750   3.573  0.3103  0.0086 -0.5089
   29DMF     H1  831   3.042   1.646   3.508 -1.1102 -1.0770  0.3286
   29DMF     H2  832   2.980   1.678   3.348 -0.4003  0.3516 -1.2267
   29DMF     H3  833   2.873   1.618   3.473  0.3964  0.1175  1.9987
   29DMF     H4  834   3.021   1.955   3.333  0.1458 -0.3034 -0.2574
   29DMF     H5  835   3.080   1.962   3.501  0.4154  0.7338 -0.8032
   29DMF     H6  836   2.932   2.036   3.458 -0.9186 -1.6348  1.2572
   29DMF     H7  837   2.775   1.946   3.580 -1.5748  0.1139 -0.9847
   30DMF     C1  838   0.354   2.177   2.732  0.3740 -0.3147 -0.9885
   30DMF     N1  839   0.496   2.212   2.695 -0.2149 -0.2712 -0.3606
   30DMF     C2  840   0.598   2.104   2.695 -0.3674  0.0608  0.1729
   30DMF     C3  841   0.522   2.322   2.616  0.5522 -0.3475  0.2940
   30DMF     O1  842   0.434   2.394   2.568 -0.2344  0.2154 -0.5188
   30DMF     H1  843   0.341   2.203   2.838  2.9121  0.5528 -0.8587
   30DMF     H2  844   0.326   2.071   2.732 -2.6261  0.4215 -0.2991
   30DMF     H3  845   0.284   2.214   2.657  0.6590  0.0796 -1.0648
   30DMF     H4  846   0.679   2.130   2.764  0.0090 -0.4342 -0.0696
   30DMF     H5  847   0.638   2.091   2.594  0.8598  0.2958  0.6197
   30DMF     H6  848   0.565   2.011   2.743 -1.4158 -0.3410 -1.2837
   30DMF     H7  849   0.628   2.339   2.592  0.1925  2.2483  0.4822
   31DMF     C1  850   2.753   2.600   3.374 -0.2727  0.6618 -0.3762
   31DMF     N1  851   2.692   2.467   3.409 -0.1654  1.0594 -0.3237
   31DMF     C2  852   2.575   2.421   3.340 -0.1681 -0.3214 -0.1342
   31DMF     C3  853   2.776   2.372   3.472 -0.3933 -0.4727  0.3522
   31DMF     O1  854   2.876   2.407   3.533  0.1020  0.0979  0.3065
   31DMF     H1  855   2.844   2.596   3.313 -0.7839  0.2304 -1.1069
   31DMF     H2  856   2.778   2.647   3.470  0.6455 -0.1009 -0.2356
   31DMF     H3  857   2.682   2.662   3.318 -2.4427 -0.9109  0.5538
   31DMF     H4  858   2.621   2.369   3.255  3.2346  1.8299  0.2765
   31DMF     H5  859   2.507   2.505   3.322  0.4540  0.7371  2.2577
   31DMF     H6  860   2.520   2.350   3.404 -0.2434 -1.2478 -1.2068
   31DMF     H7  861   2.737   2.269   3.478 -0.1462 -0.5549  0.5791
   32DMF     C1  862   0.723   3.299   3.506 -0.0165 -0.2521 -0.0127
   32DMF     N1  863   0.680   3.429   3.564 -0.2224  0.0628  0.5164
   32DMF     C2  864   0.619   3.538   3.477  0.5846  0.0181 -0.2380
   32DMF     C3  865   0.702   3.458   3.700  0.0488  0.1405 -0.2656
   32DMF     O1  866   0.763   3.377   3.767 -0.8561  0.4279 -0.4868
   32DMF     H1  867   0.643   3.250   3.450 -1.1364 -0.4061  1.6863
   32DMF     H2  868   0.735   3.231   3.592 -0.5045 -1.6408 -1.0136
   32DMF     H3  869   0.820   3.300   3.454 -0.2095 -0.7299 -0.3822
   32DMF     H4  870   0.623   3.503   3.373  1.1574 -1.2857  0.2139
   32DMF     H5  871   0.688   3.623   3.480  1.5227 -0.7403  0.2746
   32DMF     H6  872   0.517   3.571   3.500 -0.1601 -3.3192  1.5904
   32DMF     H7  873   0.666   3.556   3.737  2.9918  1.5627 -1.0031
   33DMF     C1  874   0.680   2.538   2.828  0.5662  0.2305  0.6167
   33DMF     N1  875   0.634   2.682   2.788  0.7057  0.5513  0.1545
   33DMF     C2  876   0.598   2.699   2.644 -0.3191  0.3257  0.0581
   33DMF     C3  877   0.606   2.776   2.893 -0.1523  0.2573  0.8750
   33DMF     O1  878   0.628   2.754   3.008 -0.0636 -0.0780  0.3573
   33DMF     H1  879   0.775   2.533   2.881  0.4024  1.3249  1.0197
   33DMF     H2  880   0.686   2.482   2.733  2.0527 -0.0638  0.8812
   33DMF     H3  881   0.599   2.504   2.894 -1.3889 -1.7317 -2.6279
   33DMF     H4  882   0.584   2.804   2.614 -0.9817 -0.2438 -1.7044
   33DMF     H5  883   0.497   2.657   2.630 -2.4561  4.6014  1.4671
   33DMF     H6  884   0.666   2.651   2.572 -0.4653 -1.4304  1.0612
   33DMF     H7  885   0.559   2.869   2.857  1.3757  0.0738 -1.6756
   34DMF     C1  886   0.422   3.295   1.181 -0.4567 -0.6201 -0.7276
   34DMF     N1  887   0.374   3.194   1.086 -0.1992  0.1307 -0.9437
   34DMF     C2  888   0.226   3.192   1.068  0.5654 -0.2622 -0.4742
   34DMF     C3  889   0.458   3.096   1.033  0.0116 -0.0625 -0.1449
   34DMF     O1  890   0.572   3.075   1.068  0.2274 -0.4901 -0.3077
   34DMF     H1  891   0.530   3.316   1.179 -0.4381 -0.6719 -0.2456
   34DMF     H2  892   0.389   3.278   1.284 -1.1335  0.7558 -0.7070
   34DMF     H3  893   0.370   3.388   1.155  2.9825  1.5099 -0.4199
   34DMF     H4  894   0.194   3.292   1.099 -2.6740 -1.9773  2.0399
   34DMF     H5  895   0.174   3.118   1.130  0.4799 -1.1264 -1.5664
   34DMF     H6  896   0.195   3.178   0.964  3.4279 -0.2754 -1.3721
   34DMF     H7  897   0.403   3.032   0.962 -2.2881  0.2569  1.2612
   35DMF     C1  898   1.476   2.861   3.502  0.5475  0.1497  0.8684
   35DMF     N1  899   1.511   2.834   3.641 -0.5267  0.0729 -0.0517
   35DMF     C2  900   1.404   2.819   3.740  0.4717 -0.6981  0.7758
   35DMF     C3  901   1.644   2.806   3.684 -0.8755 -0.4127  0.9230
   35DMF     O1  902   1.740   2.821   3.605  0.1428 -0.1149  0.9123
   35DMF     H1  903   1.416   2.952   3.500 -0.2093 -0.3650 -0.9772
   35DMF     H2  904   1.415   2.779   3.463  1.4777 -0.0559 -0.1857
   35DMF     H3  905   1.565   2.866   3.437 -0.1854 -0.0635 -0.1558
   35DMF     H4  906   1.441   2.859   3.835  2.1016  0.5916 -0.3423
   35DMF     H5  907   1.381   2.713   3.757 -0.5359 -0.4903  0.7037
   35DMF     H6  908   1.315   2.871   3.703  0.9436 -0.3616  0.0839
   35DMF     H7  909   1.660   2.771   3.788  2.8986  0.0356  0.5697
   36DMF     C1  910   2.644   2.475   0.745  0.0325 -0.4123  0.2632
   36DMF     N1  911   2.618   2.342   0.809  1.0778  0.2641 -0.3688
   36DMF     C2  912   2.616   2.336   0.953  0.5962 -0.3991 -0.0010
   36DMF     C3  913   2.586   2.231   0.729  0.3957 -0.2132  0.6068
   36DMF     O1  914   2.577   2.238   0.607  0.5563  0.0217  0.2554
   36DMF     H1  915   2.709   2.536   0.809  0.7913 -1.0311  0.0914
   36DMF     H2  916   2.540   2.511   0.740  0.2191  0.5097  2.7813
   36DMF     H3  917   2.678   2.468   0.641 -0.0638 -1.1851  0.2824
   36DMF     H4  918   2.684   2.415   0.986  1.4932 -1.9109  1.8324
   36DMF     H5  919   2.633   2.236   0.994 -0.1020 -0.4699  0.1332
   36DMF     H6  920   2.517   2.365   0.991  1.0752  0.9655  0.2264
   36DMF     H7  921   2.578   2.137   0.787  0.3793  0.0426  1.0198
   37DMF     C1  922   0.642   1.194   0.886 -0.0230 -0.0210  0.2331
   37DMF     N1  923   0.729   1.216   1.003 -0.5367  0.3738 -0.3284
   37DMF     C2  924   0.858   1.142   1.009 -1.0413 -0.0558 -0.9294
   37DMF     C3  925   0.715   1.318   1.092  0.2414 -0.8207 -0.8121
   37DMF     O1  926   0.626   1.402   1.080  0.3827  0.5529 -0.6707
   37DMF     H1  927   0.662   1.272   0.812  0.4348 -1.8019 -1.5634
   37DMF     H2  928   0.538   1.206   0.917  0.5068 -0.3276  2.2167
   37DMF     H3  929   0.660   1.096   0.841 -2.5187 -0.2797 -0.2915
   37DMF     H4  930   0.897   1.122   0.908 -0.4163  1.7491 -1.0603
   37DMF     H5  931   0.848   1.044   1.058 -2.0305 -0.3157 -1.6431
   37DMF     H6  932   0.931   1.204   1.062 -0.8804  0.4690 -1.7626
   37DMF     H7  933   0.797   1.324   1.166 -1.3614 -1.8412  1.0993
   38DMF     C1  934   0.336   0.810   1.399 -0.7628  0.5616 -0.6321
   38DMF     N1  935   0.200   0.741   1.381 -0.0362  0.5479  0.2307
   38DMF     C2  936   0.109   0.791   1.272  0.1480  0.4656  0.6613
   38DMF     C3  937   0.160   0.623   1.453  0.1959 -0.1207 -0.0085
   38DMF     O1  938   0.227   0.569   1.538  0.3199  0.1076 -0.1933
   38DMF     H1  939   0.320   0.918   1.385  0.4370  1.1634  2.2253
   38DMF     H2  940   0.414   0.760   1.341 -1.1696  0.9562 -1.5283
   38DMF     H3  941   0.349   0.802   1.508 -0.6954 -0.9006 -0.7419
   38DMF     H4  942   0.039   0.712   1.242  1.6943 -0.7615  0.2276
   38DMF     H5  943   0.165   0.805   1.178 -0.6047 -0.6386  0.0405
   38DMF     H6  944   0.061   0.878   1.318  1.6840 -0.2204  3.6738
   38DMF     H7  945   0.065   0.584   1.412  0.6205 -1.5023  0.2711
   39DMF     C1  946   1.084   2.437   3.337  0.4168 -0.5139 -0.5435
   39DMF     N1  947   1.071   2.428   3.478 -0.3829 -0.6255  0.8330
   39DMF     C2  948   1.187   2.455   3.565  0.1894 -0.1904  0.0961
   39DMF     C3  949   0.946   2.380   3.529 -0.5119 -0.5418 -0.7856
   39DMF     O1  950   0.849   2.358   3.459 -0.0637  0.5826  0.0519
   39DMF     H1  951   1.114   2.339   3.298  0.4291 -1.1435  1.0150
   39DMF     H2  952   1.166   2.505   3.311 -1.8167  1.5992 -2.2904
   39DMF     H3  953   0.988   2.469   3.296  0.0850  0.5303  0.9981
   39DMF     H4  954   1.263   2.378   3.545 -0.8870 -1.6361  1.4014
   39DMF     H5  955   1.166   2.443   3.672  0.7119 -1.8608  0.0364
   39DMF     H6  956   1.222   2.558   3.565 -0.8263  0.2193 -2.8727
   39DMF     H7  957   0.952   2.348   3.635  0.2377  0.1253 -0.6222
   40DMF     C1  958   2.161   1.086   0.034 -0.1750 -0.3297  0.5203
   40DMF     N1  959   2.284   1.123   0.108  0.3468  0.7103  0.4195
   40DMF     C2  960   2.402   1.178   0.037 -0.7373  0.0715  0.2929
   40DMF     C3  961   2.299   1.083   0.240  0.2611 -0.1522 -0.4137
   40DMF     O1  962   2.203   1.057   0.306 -0.0734  0.1400 -0.3021
   40DMF     H1  963   2.068   1.099   0.089  0.9377 -2.2891  2.9723
   40DMF     H2  964   2.160   0.977   0.023  1.2159 -0.0701 -3.0092
   40DMF     H3  965   2.158   1.131  -0.066  0.2676  0.5526  0.8933
   40DMF     H4  966   2.471   1.225   0.109  0.9145  0.7053 -1.6703
   40DMF     H5  967   2.373   1.244  -0.046  2.0627 -0.4587 -1.1389
   40DMF     H6  968   2.456   1.097  -0.012 -0.2631  0.5917 -0.0531
   40DMF     H7  969   2.399   1.098   0.285  0.9451  1.5795 -2.4090
   41DMF     C1  970   0.075   2.796   2.239 -0.2912  0.9308  0.1415
   41DMF     N1  971   0.086   2.690   2.343  0.0046  0.1928  0.3452
   41DMF     C2  972   0.148   2.731   2.472  0.3544 -0.3235  0.0612
   41DMF     C3  973   0.028   2.568   2.324 -0.6630 -0.1332  0.6522
   41DMF     O1  974  -0.047   2.549   2.232 -0.6734  0.8757 -0.1659
   41DMF     H1  975   0.178   2.828   2.219  0.3077 -0.9761  0.0800
   41DMF     H2  976   0.008   2.873   2.281  0.4913  2.9838 -2.2420
   41DMF     H3  977   0.012   2.767   2.154 -0.5556 -0.7920  0.9251
   41DMF     H4  978   0.254   2.755   2.453 -0.0621 -0.6194 -2.9047
   41DMF     H5  979   0.119   2.651   2.540  0.7293 -1.4982 -1.1477
   41DMF     H6  980   0.107   2.825   2.510 -1.8040 -0.6207 -1.4511
   41DMF     H7  981   0.055   2.497   2.405  2.3417 -1.8427 -1.7150
   42DMF     C1  982   2.329   1.719   0.565  0.4668  0.3193 -0.0934
   42DMF     N1  983   2.392   1.845   0.507 -1.0376 -0.0707 -1.1660
   42DMF     C2  984   2.361   1.875   0.370  0.2084  0.4364  0.2403
   42DMF     C3  985   2.490   1.916   0.574 -0.0335  0.4883  0.0384
   42DMF     O1  986   2.524   1.887   0.692  0.0072  0.1403  0.2060
   42DMF     H1  987   2.395   1.634   0.543  0.3735  0.1196  0.4023
   42DMF     H2  988   2.237   1.698   0.510  0.3272  2.2660 -0.6217
   42DMF     H3  989   2.308   1.729   0.672 -2.2072 -1.9158 -0.3689
   42DMF     H4  990   2.252   1.874   0.355  0.1736  0.2228  0.5068
   42DMF     H5  991   2.410   1.800   0.306 -2.6997 -3.0724  1.9568
   42DMF     H6  992   2.401   1.970   0.334  0.1066 -0.0846 -1.3170
   42DMF     H7  993   2.535   1.999   0.516 -1.0142  0.1338 -1.2311
   43DMF     C1  994   1.538   1.443   3.613  0.2195  0.7345 -0.5467
   43DMF     N1  995   1.420   1.424   3.524  0.4345 -0.3369  0.5300
   43DMF     C2  996   1.381   1.293   3.493  0.4351  0.0620  0.8970
   43DMF     C3  997   1.354   1.532   3.466  0.1085 -0.4240 -0.3706
   43DMF     O1  998   1.378   1.644   3.496 -0.0342 -0.5561 -0.4943
   43DMF     H1  999   1.510   1.484   3.711 -1.2240  1.1159 -1.1088
   43DMF     H2 1000   1.599   1.515   3.559 -0.3629  1.2674 -0.5047
   43DMF     H3 1001   1.597   1.351   3.623 -1.0411  0.0492  0.8388
   43DMF     H4 1002   1.432   1.228   3.566  2.2884  0.7753  0.2488
   43DMF     H5 1003   1.427   1.253   3.402  0.9702 -0.0941  1.2347
   43DMF     H6 1004   1.274   1.276   3.508 -0.2471  0.5571 -2.9378
   43DMF     H7 1005   1.284   1.506   3.384  0.2524 -2.5614  0.1736
   44DMF     C1 1006   2.432   2.147   0.090  0.1086  0.4278 -0.9176
   44DMF     N1 1007   2.528   2.089   0.004 -0.6095 -0.2697  0.3039
   44DMF     C2 1008   2.533   1.934  -0.002  0.0863 -0.5822 -0.4353
   44DMF     C3 1009   2.582   2.168  -0.097 -0.0920 -0.2756 -0.8287
   44DMF     O1 1010   2.558   2.292  -0.107  0.5855  0.6614 -0.1661
   44DMF     H1 1011   2.441   2.255   0.106 -1.4545  0.8783 -2.8187
   44DMF     H2 1012   2.432   2.093   0.185  1.6775 -0.0490 -1.1719
   44DMF     H3 1013   2.330   2.139   0.050 -1.2585  0.4384  2.4078
   44DMF     H4 1014   2.508   1.893   0.096 -0.3482  0.3363 -0.1548
   44DMF     H5 1015   2.634   1.901  -0.028  0.3892 -1.4460  1.7403
   44DMF     H6 1016   2.457   1.908  -0.078  0.4335 -1.4746 -0.4858
   44DMF     H7 1017   2.641   2.105  -0.167  1.7248 -1.6254  1.8683
   45DMF     C1 1018   2.292   1.144   2.958  0.5769  0.5805 -0.3472
   45DMF     N1 1019   2.307   1.257   2.877  0.3613 -0.4242  0.2917
   45DMF     C2 1020   2.407   1.256   2.771  0.3998  0.3151 -0.3617
   45DMF     C3 1021   2.233   1.375   2.903 -0.9167  0.6624  0.3446
   45DMF     O1 1022   2.166   1.392   3.001  0.0240  0.7096  0.3101
   45DMF     H1 1023   2.189   1.109   2.976  0.0922  0.5044 -3.0860
   45DMF     H2 1024   2.348   1.173   3.048 -1.0250  1.4167  0.3998
   45DMF     H3 1025   2.341   1.056   2.915  1.0814  0.4543  0.4661
   45DMF     H4 1026   2.500   1.294   2.815  0.6314 -0.7938  0.1234
   45DMF     H5 1027   2.368   1.315   2.687 -1.0847  0.4780  0.4244
   45DMF     H6 1028   2.430   1.154   2.737 -1.3298 -0.2265  0.0376
   45DMF     H7 1029   2.254   1.458   2.834 -0.5324 -0.8863 -1.4327
   46DMF     C1 1030   2.807   1.074   0.670  0.6248  0.0003 -0.1702
   46DMF     N1 1031   2.936   1.137   0.665 -0.8602 -0.1005  0.5767
   46DMF     C2 1032   2.936   1.281   0.625  0.5473  0.0578  0.5791
   46DMF     C3 1033   3.055   1.080   0.724 -1.0385  0.5380 -0.3433
   46DMF     O1 1034   3.065   0.961   0.762 -0.1312 -0.4001 -0.0907
   46DMF     H1 1035   2.827   0.968   0.688 -0.1782 -0.0452  0.4889
   46DMF     H2 1036   2.745   1.093   0.581  0.3678  0.9123  0.1971
   46DMF     H3 1037   2.774   1.120   0.764 -0.5323  0.6527 -0.8748
   46DMF     H4 1038   2.945   1.344   0.714  1.1433  1.7600 -0.6527
   46DMF     H5 1039   2.843   1.302   0.571  1.0964  1.0217 -0.0060
   46DMF     H6 1040   3.022   1.314   0.565 -0.6965  0.2326 -1.1332
   46DMF     H7 1041   3.144   1.146   0.733 -0.6869  0.0413 -0.1901
   47DMF     C1 1042   0.044   1.216   2.901  0.5302 -0.0224 -0.1100
   47DMF     N1 1043   0.063   1.114   2.793 -0.0636  0.1413 -0.8096
   47DMF     C2 1044   0.068   0.977   2.831  0.2161  0.1238 -0.4374
   47DMF     C3 1045   0.064   1.149   2.655  0.3747 -0.1962 -0.2858
   47DMF     O1 1046   0.059   1.263   2.614  0.0190 -0.1272 -0.4835
   47DMF     H1 1047   0.143   1.259   2.921  0.3019 -0.7930  2.9435
   47DMF     H2 1048   0.001   1.182   2.997  1.3420 -2.9423 -0.7430
   47DMF     H3 1049  -0.028   1.290   2.862  0.7657 -0.6432 -1.7450
   47DMF     H4 1050   0.048   0.911   2.746 -0.5023 -3.2209  2.2438
   47DMF     H5 1051  -0.010   0.958   2.905 -1.6168 -0.8682 -2.5483
   47DMF     H6 1052   0.167   0.956   2.873 -0.4054  0.2480  1.1224
   47DMF     H7 1053   0.069   1.062   2.586  2.1966  0.5553 -1.1471
   48DMF     C1 1054   3.094   2.297   1.321 -1.2581  0.1040 -0.0442
   48DMF     N1 1055   3.138   2.226   1.445  0.6091 -0.1790 -0.2164
   48DMF     C2 1056   3.131   2.087   1.459  0.2692  0.3338 -0.7370
   48DMF     C3 1057   3.180   2.307   1.553  0.2777 -0.3644 -0.3284
   48DMF     O1 1058   3.186   2.430   1.540  0.2543  0.4739  0.5113
   48DMF     H1 1059   3.034   2.232   1.256  0.1185  0.7995 -2.0720
   48DMF     H2 1060   3.176   2.303   1.248 -1.7683  0.3854 -0.5986
   48DMF     H3 1061   3.037   2.389   1.336  0.5108  1.1651  0.3067
   48DMF     H4 1062   3.142   2.043   1.559  0.5301 -0.1545 -0.9764
   48DMF     H5 1063   3.192   2.035   1.384  0.7422  1.5529 -1.2136
   48DMF     H6 1064   3.026   2.062   1.435 -0.3842  1.4887  0.8722
   48DMF     H7 1065   3.193   2.247   1.644 -0.0368 -3.2893 -2.1506
   49DMF     C1 1066   1.062   3.166   2.708  0.5274  0.0870  0.3046
   49DMF     N1 1067   0.970   3.200   2.811 -0.7171 -0.8173  0.1007
   49DMF     C2 1068   0.923   3.340   2.814  1.2348 -1.0071  0.6767
   49DMF     C3 1069   0.978   3.134   2.932 -0.2829 -0.3424  0.2245
   49DMF     O1 1070   1.040   3.027   2.940  0.3506 -0.1250  0.3645
   49DMF     H1 1071   1.161   3.153   2.753  0.7223  0.2309 -0.0836
   49DMF     H2 1072   1.060   3.237   2.625  0.0266  1.5079  1.5160
   49DMF     H3 1073   1.040   3.065   2.671  1.2610 -0.9860  2.6728
   49DMF     H4 1074   0.823   3.332   2.859  0.4193 -0.9411 -1.0800
   49DMF     H5 1075   0.907   3.381   2.713  2.3998 -0.1572  0.8319
   49DMF     H6 1076   0.985   3.408   2.873 -0.2839 -0.5686  1.7992
   49DMF     H7 1077   0.926   3.177   3.019  0.6836 -0.4235  0.8565
   50DMF     C1 1078   2.585   2.815   0.672 -0.0246  0.2693  1.1880
   50DMF     N1 1079   2.581   2.886   0.544  0.1492  0.6133 -0.2138
   50DMF     C2 1080   2.570   2.825   0.410  0.4540  0.1638 -0.3053
   50DMF     C3 1081   2.586   3.026   0.548  0.1521 -0.9280  0.4972
   50DMF     O1 1082   2.591   3.087   0.655 -0.1360 -0.4878 -0.3457
   50DMF     H1 1083   2.511   2.734   0.673 -1.2813  1.4104  2.9043
   50DMF     H2 1084   2.558   2.880   0.756 -0.5205 -0.7794  1.8442
   50DMF     H3 1085   2.689   2.780   0.681 -0.3931 -1.9806 -2.1101
   50DMF     H4 1086   2.560   2.716   0.416  2.8619 -0.0398  0.5802
   50DMF     H5 1087   2.668   2.833   0.360 -0.7131 -1.9156 -3.0596
   50DMF     H6 1088   2.484   2.865   0.355 -1.4017 -2.9262  0.2301
   50DMF     H7 1089   2.590   3.070   0.447 -0.7374  2.3517  1.8412
   51DMF     C1 1090   3.001   1.661   0.020  0.2976  0.4211  0.8981
   51DMF     N1 1091   2.919   1.627   0.142 -0.4326  0.1063 -0.4391
   51DMF     C2 1092   2.772   1.644   0.139  0.2676 -0.3518  0.2346
   51DMF     C3 1093   2.979   1.553   0.249  0.7353 -0.2479 -0.0811
   51DMF     O1 1094   3.097   1.532   0.254 -0.1783 -0.1975 -0.8159
   51DMF     H1 1095   2.928   1.705  -0.049  2.7278  0.9367 -1.4238
   51DMF     H2 1096   3.034   1.565  -0.021 -3.0758  0.7782 -2.9546
   51DMF     H3 1097   3.073   1.732   0.061 -1.1031  1.0228  2.3963
   51DMF     H4 1098   2.717   1.560   0.182 -1.1821 -0.7450 -2.2827
   51DMF     H5 1099   2.734   1.633   0.037 -1.4992 -0.4597  0.8868
   51DMF     H6 1100   2.741   1.738   0.186  2.2296 -0.1284  1.1130
   51DMF     H7 1101   2.910   1.521   0.328  2.3383 -0.1962  1.3662
   52DMF     C1 1102   0.256   0.085   2.273 -0.0634 -0.0191  0.1510
   52DMF     N1 1103   0.384   0.155   2.271 -0.2038  0.6885 -0.5131
   52DMF     C2 1104   0.514   0.076   2.274  0.3998 -0.3067 -0.4658
   52DMF     C3 1105   0.390   0.295   2.257 -0.3232  0.2804  0.2926
   52DMF     O1 1106   0.294   0.370   2.250  0.7227 -0.3714  0.1346
   52DMF     H1 1107   0.241   0.017   2.189 -0.5002  0.5478 -0.2352
   52DMF     H2 1108   0.170   0.153   2.275  0.0806  0.1347  1.1195
   52DMF     H3 1109   0.250   0.031   2.368 -0.8399 -0.0365  0.0941
   52DMF     H4 1110   0.580   0.115   2.195  0.4322  0.8412  0.1303
   52DMF     H5 1111   0.500  -0.031   2.251  1.6943 -0.9784  1.7103
   52DMF     H6 1112   0.556   0.090   2.374 -1.0643 -0.1985  0.1356
   52DMF     H7 1113   0.491   0.329   2.227 -0.9034  1.7842 -0.0356
   53DMF     C1 1114   3.071   3.228   2.681 -0.1930  0.3206 -0.7110
   53DMF     N1 1115   3.043   3.365   2.719  0.5355 -0.0091 -0.0856
   53DMF     C2 1116   2.937   3.443   2.646  0.0235 -0.1864  0.1096
   53DMF     C3 1117   3.102   3.426   2.832 -0.0126 -0.3285 -0.3001
   53DMF     O1 1118   3.184   3.370   2.904  0.3323  0.0724  0.2708
   53DMF     H1 1119   3.049   3.171   2.773  2.4488 -1.5718 -1.2073
   53DMF     H2 1120   3.175   3.225   2.647  0.9850  3.2004  2.2814
   53DMF     H3 1121   3.001   3.187   2.607 -0.0760 -1.8645  0.3503
   53DMF     H4 1122   2.835   3.429   2.683  0.5794  0.1993  1.7956
   53DMF     H5 1123   2.950   3.430   2.537 -1.0829  1.1291 -0.1898
   53DMF     H6 1124   2.952   3.548   2.674  0.1296  0.0424 -0.7727
   53DMF     H7 1125   3.056   3.523   2.858 -1.2807 -0.7835 -0.8086
   54DMF     C1 1126   3.202   3.436   0.350 -0.3367 -0.1358 -0.1848
   54DMF     N1 1127   3.270   3.356   0.248 -0.2304  0.6325  0.4036
   54DMF     C2 1128   3.195   3.312   0.130 -0.3074  0.5803  0.5945
   54DMF     C3 1129   3.393   3.296   0.267  0.5507 -0.9621 -0.5247
   54DMF     O1 1130   3.451   3.309   0.374 -0.3968 -0.2156 -0.6011
   54DMF     H1 1131   3.111   3.487   0.316 -0.2450  1.2977  1.6479
   54DMF     H2 1132   3.271   3.511   0.391 -0.9820 -0.4681  1.5691
   54DMF     H3 1133   3.166   3.368   0.428 -2.1601 -0.6771 -1.4567
   54DMF     H4 1134   3.246   3.222   0.094  1.3185  1.4115  0.7550
   54DMF     H5 1135   3.206   3.390   0.053  0.2467  0.9372  1.0268
   54DMF     H6 1136   3.092   3.294   0.160 -0.3663  0.0568  0.0946
   54DMF     H7 1137   3.438   3.241   0.182  2.5947 -0.9787  0.5571
   55DMF     C1 1138   3.279   1.258   3.421  0.5408 -0.0332 -0.2032
   55DMF     N1 1139   3.206   1.254   3.550 -0.2384  0.5852 -0.2378
   55DMF     C2 1140   3.290   1.281   3.668  0.0303  0.1087  0.0967
   55DMF     C3 1141   3.072   1.234   3.559 -0.3042  0.3629 -0.1331
   55DMF     O1 1142   3.000   1.194   3.470  0.0792  0.5017 -0.0996
   55DMF     H1 1143   3.225   1.203   3.342 -1.5332  1.3897  0.1920
   55DMF     H2 1144   3.376   1.210   3.439 -0.1316 -0.6308  2.0028
   55DMF     H3 1145   3.284   1.361   3.383  0.8659  0.7755  1.9779
   55DMF     H4 1146   3.321   1.189   3.720  0.4643  1.6091  2.5905
   55DMF     H5 1147   3.227   1.334   3.740 -1.1730 -0.7142 -0.3442
   55DMF     H6 1148   3.385   1.328   3.638 -0.1660 -0.5057 -1.5295
   55DMF     H7 1149   3.036   1.260   3.661  0.6681 -2.6828  1.0449
   56DMF     C1 1150   1.016   1.186   2.711  0.1795 -0.0256  0.6793
   56DMF     N1 1151   0.942   1.091   2.624  0.4531  0.1669  0.2132
   56DMF     C2 1152   0.798   1.086   2.645 -0.3369 -0.6032 -0.4440
   56DMF     C3 1153   0.995   1.040   2.509  0.0706 -0.4413 -0.4319
   56DMF     O1 1154   1.109   1.065   2.463 -0.6350  0.6301  0.6193
   56DMF     H1 1155   1.107   1.129   2.734 -0.1108 -0.7496  0.0867
   56DMF     H2 1156   0.949   1.206   2.795 -0.0633 -1.9566  0.9654
   56DMF     H3 1157   1.038   1.273   2.648  1.2451 -0.1555  0.8640
   56DMF     H4 1158   0.767   1.006   2.713  0.7276  0.3889  1.2633
   56DMF     H5 1159   0.750   1.074   2.547  0.1882 -1.5087 -0.5942
   56DMF     H6 1160   0.761   1.179   2.691  1.9445 -0.1350  0.5407
   56DMF     H7 1161   0.924   0.967   2.465  0.8150 -1.3257 -0.1828
   57DMF     C1 1162   1.645   1.092   1.138  0.1791  1.0791 -0.3602
   57DMF     N1 1163   1.705   1.100   1.002  0.1445  0.0097  0.7239
   57DMF     C2 1164   1.646   1.010   0.906 -0.0901  0.3723 -0.1802
   57DMF     C3 1165   1.807   1.196   0.964  0.6701 -0.2481 -0.3123
   57DMF     O1 1166   1.850   1.273   1.049  0.1196 -0.2427  0.1895
   57DMF     H1 1167   1.710   1.024   1.194 -0.6434 -0.3379 -1.1130
   57DMF     H2 1168   1.546   1.046   1.129 -1.0014  3.6558 -1.0532
   57DMF     H3 1169   1.649   1.195   1.176 -1.1406  0.7509  0.6856
   57DMF     H4 1170   1.561   0.947   0.937 -0.5598  0.9547 -0.2671
   57DMF     H5 1171   1.726   0.946   0.867 -0.7678 -1.0463  0.7004
   57DMF     H6 1172   1.594   1.070   0.830 -0.3693  0.7456  0.3011
   57DMF     H7 1173   1.843   1.189   0.860  0.7098  1.3439 -0.4226
   58DMF     C1 1174   1.121   0.494   0.969  0.8050  0.7221 -0.2814
   58DMF     N1 1175   1.111   0.352   0.954  0.7592  0.8377 -0.8806
   58DMF     C2 1176   1.237   0.280   0.948  0.4624 -0.1083  0.1680
   58DMF     C3 1177   0.989   0.283   0.931  0.4411 -0.2683  0.7467
   58DMF     O1 1178   0.882   0.337   0.914 -0.8246  0.5787  0.3420
   58DMF     H1 1179   1.174   0.535   0.883 -1.7848  1.4092 -1.5799
   58DMF     H2 1180   1.193   0.522   1.047 -1.7287  1.3925  1.9227
   58DMF     H3 1181   1.027   0.549   0.981 -0.1258 -0.9472  0.3704
   58DMF     H4 1182   1.271   0.278   1.052  1.7203 -1.2938 -0.2448
   58DMF     H5 1183   1.299   0.342   0.881 -0.3512  2.1739  1.4834
   58DMF     H6 1184   1.224   0.179   0.908 -1.3697  0.8713 -1.8202
   58DMF     H7 1185   1.003   0.174   0.935 -0.0288 -0.3262  0.8895
   59DMF     C1 1186   0.662   3.071   2.644 -0.1124 -0.1795 -0.4948
   59DMF     N1 1187   0.590   3.197   2.682 -0.1054  0.0031  0.4675
   59DMF     C2 1188   0.532   3.211   2.810 -0.1687 -0.2995  0.1548
   59DMF     C3 1189   0.588   3.305   2.590  0.4925  0.2870  0.0743
   59DMF     O1 1190   0.651   3.303   2.484  0.2375 -0.2251  0.2478
   59DMF     H1 1191   0.610   3.009   2.570 -0.5494  0.2617 -0.5599
   59DMF     H2 1192   0.668   2.994   2.721  0.8985 -2.1575 -2.4981
   59DMF     H3 1193   0.760   3.100   2.604 -0.0480 -2.4476 -2.0929
   59DMF     H4 1194   0.607   3.230   2.887 -1.1615  2.5642  0.4871
   59DMF     H5 1195   0.488   3.116   2.843  1.6465 -1.6053 -1.0726
   59DMF     H6 1196   0.454   3.288   2.808 -0.4584 -0.6101 -0.9093
   59DMF     H7 1197   0.529   3.389   2.629  0.5121  1.2288 -1.8502
   60DMF     C1 1198   3.397   2.048   2.712 -0.3128 -0.1635  0.4068
   60DMF     N1 1199   3.365   1.923   2.640 -0.4277 -0.3084 -0.3272
   60DMF     C2 1200   3.472   1.820   2.628 -0.5568  0.0507 -0.5536
   60DMF     C3 1201   3.245   1.892   2.583  0.2893 -0.3437  0.4509
   60DMF     O1 1202   3.154   1.971   2.586  0.1899 -0.0878  0.2968
   60DMF     H1 1203   3.441   2.117   2.640  0.4149 -0.7984  0.2424
   60DMF     H2 1204   3.464   2.023   2.795  0.9875 -0.6895 -0.7765
   60DMF     H3 1205   3.310   2.102   2.751  0.5085  0.3308  1.5847
   60DMF     H4 1206   3.494   1.778   2.727  1.3430  1.4691 -0.3397
   60DMF     H5 1207   3.556   1.879   2.588  1.1650 -1.6335  0.5114
   60DMF     H6 1208   3.455   1.753   2.544 -1.4003  1.7277 -1.7481
   60DMF     H7 1209   3.239   1.784   2.557 -2.3964 -0.3384  0.9199
   61DMF     C1 1210   0.493   1.620   1.335 -0.2134  0.4015 -1.0922
   61DMF     N1 1211   0.584   1.585   1.442 -0.2978  1.0366  0.0477
   61DMF     C2 1212   0.626   1.447   1.453  0.0606 -0.1327 -0.6273
   61DMF     C3 1213   0.619   1.667   1.554 -0.6718 -0.4438  0.5939
   61DMF     O1 1214   0.600   1.789   1.566 -0.1910 -0.1812  0.3185
   61DMF     H1 1215   0.495   1.552   1.250  1.3151 -3.0508  1.5793
   61DMF     H2 1216   0.499   1.725   1.303  1.4882  1.1533  1.5191
   61DMF     H3 1217   0.398   1.623   1.390  1.1135  1.2574  1.2363
   61DMF     H4 1218   0.711   1.425   1.387 -0.9250 -1.4897 -1.4522
   61DMF     H5 1219   0.550   1.390   1.400 -0.1223 -1.9851  1.5222
   61DMF     H6 1220   0.629   1.408   1.556  0.6645  0.0031 -0.5894
   61DMF     H7 1221   0.676   1.620   1.636 -2.7016  2.1566  3.6444
   62DMF     C1 1222   3.260   2.380   3.356 -0.0736  0.2267  0.0540
   62DMF     N1 1223   3.324   2.504   3.334  0.2808 -0.1300  0.0319
   62DMF     C2 1224   3.231   2.612   3.301 -0.3609 -0.0694  0.0690
   62DMF     C3 1225   3.467   2.523   3.323  0.3972  0.3296  0.2519
   62DMF     O1 1226   3.547   2.432   3.318 -0.3450 -0.2417  0.0696
   62DMF     H1 1227   3.206   2.367   3.451 -1.4573 -0.9796 -0.8885
   62DMF     H2 1228   3.337   2.302   3.346  1.1652  1.5668 -1.1195
   62DMF     H3 1229   3.192   2.372   3.271  0.5675  2.3807 -0.6954
   62DMF     H4 1230   3.199   2.604   3.196  1.4785 -1.4823 -0.4000
   62DMF     H5 1231   3.268   2.709   3.337 -1.8834  1.5049 -2.4344
   62DMF     H6 1232   3.140   2.595   3.360 -0.7694 -1.9466 -1.0649
   62DMF     H7 1233   3.502   2.626   3.304  1.0217  0.2813  1.1188
   63DMF     C1 1234   1.255   1.608   2.290  0.0665  0.0762  0.5634
   63DMF     N1 1235   1.227   1.467   2.307 -0.1844 -0.7402 -0.5573
   63DMF     C2 1236   1.308   1.367   2.229  0.0199  0.0109 -0.0989
   63DMF     C3 1237   1.135   1.427   2.411 -0.6292 -0.2886 -0.6697
   63DMF     O1 1238   1.082   1.504   2.485 -0.0371  0.4251 -0.0873
   63DMF     H1 1239   1.362   1.627   2.275  0.2573 -0.9483  0.5969
   63DMF     H2 1240   1.219   1.666   2.376  0.8043 -0.8248  1.4887
   63DMF     H3 1241   1.216   1.648   2.196 -0.0915 -0.6755  0.3080
   63DMF     H4 1242   1.368   1.426   2.159 -0.7667  0.4435 -0.4139
   63DMF     H5 1243   1.236   1.317   2.163  0.1864 -2.2079  1.3358
   63DMF     H6 1244   1.375   1.300   2.284  0.6987  1.8071  1.3064
   63DMF     H7 1245   1.121   1.317   2.415  0.1739 -0.3675  0.3382
   64DMF     C1 1246   1.065   2.822   0.385 -0.3920 -0.0452 -0.1984
   64DMF     N1 1247   1.122   2.863   0.513  0.6336  0.5551 -0.0845
   64DMF     C2 1248   1.126   2.761   0.620 -0.9049 -0.1743  0.7835
   64DMF     C3 1249   1.169   3.000   0.547 -0.2173 -0.1600 -0.1005
   64DMF     O1 1250   1.173   3.091   0.473 -0.4308  0.2855 -0.3193
   64DMF     H1 1251   1.148   2.783   0.325  0.1546  0.5170  0.1701
   64DMF     H2 1252   1.021   2.910   0.337 -0.0591  0.8732  1.1335
   64DMF     H3 1253   1.004   2.734   0.406 -0.4388  0.1041  0.3222
   64DMF     H4 1254   1.113   2.805   0.719  0.7158  2.3632 -0.0684
   64DMF     H5 1255   1.226   2.718   0.608 -0.1839  1.9112 -1.1956
   64DMF     H6 1256   1.056   2.678   0.606 -0.5509 -0.2978 -0.3286
   64DMF     H7 1257   1.205   3.005   0.651  0.2270 -0.8729 -0.2144
   65DMF     C1 1258   1.840   2.341   1.088 -0.1905 -0.0835  1.0976
   65DMF     N1 1259   1.822   2.313   1.229  0.0152 -0.0045 -0.2639
   65DMF     C2 1260   1.749   2.411   1.316 -0.4767 -0.0028 -0.8905
   65DMF     C3 1261   1.863   2.192   1.296  0.3906  0.2429  0.0385
   65DMF     O1 1262   1.921   2.100   1.245 -0.1235  0.3405  0.2899
   65DMF     H1 1263   1.847   2.447   1.061 -1.3261 -0.7113 -1.7805
   65DMF     H2 1264   1.748   2.303   1.041 -0.3547  1.2104  0.3495
   65DMF     H3 1265   1.924   2.291   1.039 -0.5189  0.2627  0.1713
   65DMF     H4 1266   1.809   2.442   1.402  0.2820  1.8976 -2.0567
   65DMF     H5 1267   1.660   2.363   1.358 -1.0027  0.7398 -1.1237
   65DMF     H6 1268   1.725   2.507   1.267 -4.8827 -0.2695  0.5543
   65DMF     H7 1269   1.841   2.194   1.404  0.7612  1.6710  0.0984
   66DMF     C1 1270   1.466   1.099   0.008  0.3761  0.2022  1.0659
   66DMF     N1 1271   1.434   1.086   0.149 -0.1127  0.5320 -0.0483
   66DMF     C2 1272   1.343   1.189   0.201 -0.3749  0.9912 -0.3861
   66DMF     C3 1273   1.487   0.983   0.232 -0.2571  0.5294 -0.2279
   66DMF     O1 1274   1.588   0.922   0.198  0.2137  0.0378  0.4642
   66DMF     H1 1275   1.552   1.168  -0.000  1.4142 -1.1572  0.3305
   66DMF     H2 1276   1.379   1.140  -0.045 -0.9598 -2.0798  1.4414
   66DMF     H3 1277   1.490   1.005  -0.043  0.6271 -0.7335  2.8506
   66DMF     H4 1278   1.312   1.167   0.304 -0.5335  0.3300 -0.5685
   66DMF     H5 1279   1.256   1.196   0.134 -1.1816  1.0896  0.6654
   66DMF     H6 1280   1.403   1.280   0.191  0.3830  0.4590 -0.6767
   66DMF     H7 1281   1.439   0.991   0.332 -1.0214  1.2771 -0.6500
   67DMF     C1 1282   0.616   0.347   1.061 -0.1732  0.1278 -0.2764
   67DMF     N1 1283   0.492   0.366   1.146  0.1572 -0.1198 -0.4170
   67DMF     C2 1284   0.473   0.251   1.236 -0.3188 -0.1009 -0.8072
   67DMF     C3 1285   0.427   0.487   1.150 -0.1903  0.0309 -0.0535
   67DMF     O1 1286   0.474   0.592   1.110 -0.6925  0.0318 -0.5521
   67DMF     H1 1287   0.700   0.389   1.117 -1.1337 -0.4703  1.6399
   67DMF     H2 1288   0.609   0.410   0.971 -1.7056  2.2120  1.2637
   67DMF     H3 1289   0.636   0.245   1.026  1.5886 -0.5401  2.5140
   67DMF     H4 1290   0.371   0.249   1.277 -0.5048  1.2799 -1.1460
   67DMF     H5 1291   0.543   0.251   1.320  0.3484 -2.3138 -1.3425
   67DMF     H6 1292   0.494   0.158   1.182 -2.7469 -1.1317 -0.0713
   67DMF     H7 1293   0.344   0.474   1.222 -1.1498 -0.1576 -1.1743
   68DMF     C1 1294   2.460   3.357   0.387  0.1572  0.1166  0.1179
   68DMF     N1 1295   2.371   3.272   0.470  0.5937 -0.0033 -0.0214
   68DMF     C2 1296   2.356   3.298   0.617  0.3267  0.2880  0.5779
   68DMF     C3 1297   2.312   3.158   0.415 -0.1480 -0.0242 -0.6981
   68DMF     O1 1298   2.358   3.107   0.314  0.3803  0.1429  0.4138
   68DMF     H1 1299   2.486   3.450   0.438 -0.0867  1.3617 -1.9562
   68DMF     H2 1300   2.422   3.368   0.285  1.0996 -2.5019 -0.5588
   68DMF     H3 1301   2.552   3.299   0.376 -0.8805 -1.4614 -0.3762
   68DMF     H4 1302   2.457   3.303   0.658  0.4609 -1.5953  0.5316
   68DMF     H5 1303   2.318   3.207   0.665 -0.1905  0.7030  0.9636
   68DMF     H6 1304   2.306   3.395   0.630 -0.1022 -0.0599  1.5163
   68DMF     H7 1305   2.238   3.107   0.480  1.3607 -0.8131  0.4443
   69DMF     C1 1306   0.051   2.926   0.393 -0.0324 -0.5534 -0.1083
   69DMF     N1 1307   0.084   2.900   0.539  0.4029  0.1857 -0.0065
   69DMF     C2 1308   0.122   3.009   0.624 -0.1478  0.1535  0.1738
   69DMF     C3 1309   0.086   2.770   0.584 -0.1824  0.0084 -0.2583
   69DMF     O1 1310   0.051   2.676   0.516 -0.0562 -0.2790 -0.0339
   69DMF     H1 1311   0.114   2.867   0.326 -0.6378 -1.4862  0.1308
   69DMF     H2 1312   0.065   3.030   0.362 -0.7874 -0.3045  0.3539
   69DMF     H3 1313  -0.053   2.899   0.373  0.3783 -2.1328 -0.1698
   69DMF     H4 1314   0.055   3.009   0.711  1.8551  1.9004  1.7882
   69DMF     H5 1315   0.101   3.104   0.574 -0.6786 -0.5452 -0.9581
   69DMF     H6 1316   0.226   3.002   0.658  1.2233 -0.8463 -3.9962
   69DMF     H7 1317   0.119   2.766   0.689 -1.0453 -0.5237 -0.0009
   70DMF     C1 1318   1.142   0.825   2.796 -0.6044  0.1967  0.1976
   70DMF     N1 1319   0.990   0.825   2.810  0.4140  0.2073  0.1256
   70DMF     C2 1320   0.936   0.888   2.925 -0.8072 -0.3938  0.9949
   70DMF     C3 1321   0.908   0.732   2.747 -0.4943  0.0172  0.5658
   70DMF     O1 1322   0.950   0.655   2.662  0.0227  0.5125  0.3704
   70DMF     H1 1323   1.188   0.735   2.839 -1.3623  0.3876  1.4414
   70DMF     H2 1324   1.181   0.920   2.836 -0.7602  0.3312  0.0267
   70DMF     H3 1325   1.172   0.837   2.691  0.5197  4.6605  0.9404
   70DMF     H4 1326   1.010   0.967   2.944  1.4235 -1.5776 -2.3138
   70DMF     H5 1327   0.929   0.822   3.012 -1.4254 -0.9727  0.5122
   70DMF     H6 1328   0.836   0.930   2.905 -0.1146  1.0068  0.3462
   70DMF     H7 1329   0.802   0.739   2.777 -0.5765  0.1263  0.2543
   71DMF     C1 1330   1.764   0.155   1.512  0.3310 -0.2470 -0.2598
   71DMF     N1 1331   1.670   0.045   1.544 -0.2924  0.1831  0.2629
   71DMF     C2 1332   1.526   0.079   1.563 -0.4192 -0.0047  0.7687
   71DMF     C3 1333   1.715  -0.085   1.573 -0.9609 -0.5685  1.0363
   71DMF     O1 1334   1.842  -0.113   1.563  0.3823 -0.0868 -0.3790
   71DMF     H1 1335   1.708   0.235   1.461 -0.5599 -0.4716  0.3601
   71DMF     H2 1336   1.839   0.119   1.441  0.9143 -0.1923  0.3239
   71DMF     H3 1337   1.808   0.196   1.603 -0.1149  0.2101 -0.2467
   71DMF     H4 1338   1.527   0.186   1.589 -0.8277  0.0856  0.4081
   71DMF     H5 1339   1.474   0.010   1.629 -1.0290 -0.5781 -0.3080
   71DMF     H6 1340   1.476   0.072   1.466 -0.4676  2.0470  0.6080
   71DMF     H7 1341   1.635  -0.153   1.606 -3.1457  2.1445  1.4750
   72DMF     C1 1342   0.694   2.070   1.538 -0.3650  0.2125 -0.2872
   72DMF     N1 1343   0.831   2.131   1.551  0.2281 -0.0126  0.0150
   72DMF     C2 1344   0.944   2.032   1.563  0.0664 -0.5685 -0.0444
   72DMF     C3 1345   0.856   2.265   1.554  0.3652 -0.7563  0.4457
   72DMF     O1 1346   0.767   2.348   1.558  0.0380  0.3829 -0.1767
   72DMF     H1 1347   0.681   2.008   1.628 -1.9343 -1.4478 -1.6199
   72DMF     H2 1348   0.681   2.015   1.444 -1.8155 -0.4775  0.3063
   72DMF     H3 1349   0.618   2.146   1.559  0.6547  1.5433 -1.2988
   72DMF     H4 1350   0.929   1.977   1.656 -1.8328 -1.2921 -0.7567
   72DMF     H5 1351   1.041   2.083   1.569 -0.4228  0.1878  1.7529
   72DMF     H6 1352   0.944   1.959   1.480 -0.9162 -1.6252  0.8639
   72DMF     H7 1353   0.964   2.288   1.544 -0.1789  1.6311 -0.0867
   73DMF     C1 1354   2.339   1.168   1.485  0.5263  0.2129 -0.9139
   73DMF     N1 1355   2.195   1.148   1.522 -0.1163 -0.1996 -0.1404
   73DMF     C2 1356   2.100   1.257   1.495 -0.1336 -0.0753 -0.0818
   73DMF     C3 1357   2.144   1.020   1.563 -0.9819 -0.1583  0.2463
   73DMF     O1 1358   2.210   0.921   1.583 -0.0135 -0.4885 -0.1058
   73DMF     H1 1359   2.380   1.251   1.544  0.2681  0.6896 -1.4035
   73DMF     H2 1360   2.358   1.193   1.380 -1.7279  3.1899 -0.6964
   73DMF     H3 1361   2.401   1.082   1.514  1.1316  0.3530 -1.7941
   73DMF     H4 1362   2.140   1.339   1.433 -0.2102 -1.1357 -1.5461
   73DMF     H5 1363   2.077   1.304   1.591  2.3534  2.8224 -0.7875
   73DMF     H6 1364   2.014   1.220   1.438 -1.2080  2.1397  0.0253
   73DMF     H7 1365   2.036   1.022   1.590 -1.2807 -0.4617 -0.8929
   74DMF     C1 1366   0.978   0.293   0.535  0.4494 -0.4795  0.0438
   74DMF     N1 1367   1.009   0.436   0.517  0.3567  0.1627  0.1068
   74DMF     C2 1368   1.107   0.504   0.599  0.5269 -0.1144 -0.1495
   74DMF     C3 1369   0.920   0.510   0.440 -0.6343  0.1970 -0.3112
   74DMF     O1 1370   0.826   0.462   0.380  0.2218  0.0454  0.0694
   74DMF     H1 1371   0.992   0.258   0.638  0.5198  3.0483  1.2929
   74DMF     H2 1372   1.045   0.246   0.462  0.3289 -1.1134  0.3371
   74DMF     H3 1373   0.874   0.281   0.504 -0.1651  0.1884  1.8186
   74DMF     H4 1374   1.050   0.546   0.682 -1.0323 -1.2803 -0.5974
   74DMF     H5 1375   1.160   0.579   0.538  1.6771 -2.7067 -2.4717
   74DMF     H6 1376   1.177   0.433   0.645  0.6985 -0.4518 -0.9260
   74DMF     H7 1377   0.947   0.617   0.437  1.4959 -0.2727  1.3348
   75DMF     C1 1378   3.191   0.516   2.315 -0.4630  0.0090 -0.2543
   75DMF     N1 1379   3.322   0.481   2.255  0.2914 -0.0024  0.0335
   75DMF     C2 1380   3.420   0.594   2.237 -0.1726  0.0512  0.3710
   75DMF     C3 1381   3.359   0.351   2.222 -0.0788 -0.4290 -0.7633
   75DMF     O1 1382   3.296   0.253   2.235 -0.5720  0.2906  0.7226
   75DMF     H1 1383   3.157   0.616   2.286 -1.3384  0.5233  2.3886
   75DMF     H2 1384   3.188   0.513   2.425 -1.4057  2.1673 -0.2053
   75DMF     H3 1385   3.117   0.443   2.280 -1.5628  1.1410 -0.3402
   75DMF     H4 1386   3.494   0.573   2.158  0.4340 -0.2930  1.0160
   75DMF     H5 1387   3.475   0.624   2.327  2.1707  0.7654 -1.2226
   75DMF     H6 1388   3.351   0.673   2.204 -0.4420 -0.2197  0.2849
   75DMF     H7 1389   3.461   0.353   2.178  0.3922 -2.8466  0.1717
   76DMF     C1 1390   0.156   2.948   1.411  0.1306  0.0774  0.2623
   76DMF     N1 1391   0.057   2.992   1.504 -0.7959 -0.2288 -0.1503
   76DMF     C2 1392  -0.051   2.901   1.547 -0.3070  0.4205 -0.2378
   76DMF     C3 1393   0.028   3.131   1.520  0.1939  0.4661  0.5152
   76DMF     O1 1394   0.083   3.212   1.446 -0.6856  0.2127 -0.2781
   76DMF     H1 1395   0.215   3.024   1.358  0.2590  1.2964  2.0753
   76DMF     H2 1396   0.114   2.888   1.330  0.0191  0.7979 -0.2227
   76DMF     H3 1397   0.227   2.877   1.456  3.2812  0.0227 -4.4778
   76DMF     H4 1398  -0.133   2.911   1.475 -0.0958  1.6643 -0.3158
   76DMF     H5 1399  -0.090   2.935   1.643  0.6366 -1.6558  0.9213
   76DMF     H6 1400  -0.017   2.798   1.564 -2.3630 -0.4265 -1.0522
   76DMF     H7 1401  -0.056   3.154   1.588 -2.4875  0.1834 -2.5704
   77DMF     C1 1402   2.144   3.342   2.938  0.4823 -0.1133  0.4370
   77DMF     N1 1403   2.177   3.451   2.850 -0.0108  0.2278  0.4451
   77DMF     C2 1404   2.286   3.542   2.886 -0.0757 -0.1354 -0.1126
   77DMF     C3 1405   2.091   3.473   2.739 -0.6024 -0.0823  0.1125
   77DMF     O1 1406   1.993   3.410   2.714 -0.2785  0.3428 -0.7209
   77DMF     H1 1407   2.087   3.258   2.897 -2.5212  1.4489  1.3204
   77DMF     H2 1408   2.083   3.381   3.020 -0.5240  0.7308 -0.6989
   77DMF     H3 1409   2.239   3.297   2.968  0.8558  0.9107  0.8394
   77DMF     H4 1410   2.240   3.633   2.927 -0.0096 -0.6299  1.0589
   77DMF     H5 1411   2.329   3.555   2.786 -1.9821  1.0968 -0.7986
   77DMF     H6 1412   2.357   3.484   2.946 -0.4019 -2.1463 -1.6251
   77DMF     H7 1413   2.125   3.563   2.684  0.0742 -1.9678 -2.6550
   78DMF     C1 1414   1.937   0.871   3.568  0.1905  0.1779  0.1994
   78DMF     N1 1415   1.938   0.777   3.688  0.1900 -0.8028 -0.2940
   78DMF     C2 1416   1.856   0.806   3.802  0.3771 -0.0138 -0.4529
   78DMF     C3 1417   2.021   0.664   3.697 -0.1193 -0.1784 -0.1865
   78DMF     O1 1418   2.096   0.629   3.607 -0.0027  0.1154  0.1337
   78DMF     H1 1419   1.974   0.818   3.479 -1.6077  0.1933 -0.5737
   78DMF     H2 1420   1.990   0.964   3.593 -0.4028  0.4767  0.3482
   78DMF     H3 1421   1.836   0.896   3.535  0.4383  2.4713  1.0858
   78DMF     H4 1422   1.818   0.909   3.802 -3.0809 -1.1907  0.8238
   78DMF     H5 1423   1.916   0.797   3.893  0.4056  2.0833 -0.2595
   78DMF     H6 1424   1.769   0.740   3.815 -0.5694  1.2662 -0.1678
   78DMF     H7 1425   2.019   0.616   3.796 -0.6595  1.2503  0.5050
   79DMF     C1 1426   0.374   2.969   0.329  0.5156  0.5162 -0.3244
   79DMF     N1 1427   0.451   2.841   0.307  0.6488  0.0206 -0.0673
   79DMF     C2 1428   0.363   2.717   0.307 -0.5462  0.0681  0.1142
   79DMF     C3 1429   0.589   2.847   0.288  0.0020  0.5062  0.3303
   79DMF     O1 1430   0.662   2.941   0.307 -0.1748 -0.0780  0.4038
   79DMF     H1 1431   0.335   2.979   0.431 -0.2737 -0.6630 -0.5117
   79DMF     H2 1432   0.286   2.966   0.264  0.4602 -0.9807 -0.1822
   79DMF     H3 1433   0.441   3.052   0.301 -0.0265  0.5670 -1.5001
   79DMF     H4 1434   0.271   2.722   0.249 -1.2453 -2.7783  0.9218
   79DMF     H5 1435   0.349   2.686   0.412 -2.2937  2.5494  0.6682
   79DMF     H6 1436   0.420   2.631   0.271  0.8180  1.2094 -0.4999
   79DMF     H7 1437   0.629   2.744   0.275 -0.3093  0.5982 -1.5148
   80DMF     C1 1438   2.445   1.553   0.290 -0.2698  0.0418 -0.0017
   80DMF     N1 1439   2.427   1.416   0.352  0.8149  0.0707 -0.2973
   80DMF     C2 1440   2.299   1.384   0.411  0.6077  0.3247  0.1902
   80DMF     C3 1441   2.544   1.334   0.379  0.7740  0.1598 -0.8931
   80DMF     O1 1442   2.652   1.379   0.351 -0.0758 -0.3549  0.0473
   80DMF     H1 1443   2.348   1.602   0.279  0.9221  2.5393  0.4024
   80DMF     H2 1444   2.485   1.534   0.190 -0.2690 -0.4344  0.0871
   80DMF     H3 1445   2.514   1.616   0.347 -0.0150 -0.6731  0.4924
   80DMF     H4 1446   2.306   1.277   0.433  1.0211 -0.1706 -2.1485
   80DMF     H5 1447   2.230   1.394   0.326 -0.4016  0.5851  1.0386
   80DMF     H6 1448   2.270   1.444   0.497 -1.2085 -0.4357  0.1416
   80DMF     H7 1449   2.519   1.238   0.429  1.8156  0.1709 -0.3332
   81DMF     C1 1450   3.036   2.947   3.246 -0.0392 -0.3385 -0.4024
   81DMF     N1 1451   3.068   2.884   3.123  0.2150  0.3233  0.0730
   81DMF     C2 1452   3.178   2.935   3.043  0.1868  0.6298 -0.0677
   81DMF     C3 1453   2.997   2.770   3.076 -0.0544 -0.0479 -0.1108
   81DMF     O1 1454   2.888   2.743   3.123  0.3559 -0.2590 -0.4980
   81DMF     H1 1455   3.057   2.873   3.324  0.1441  0.1170 -0.0189
   81DMF     H2 1456   2.928   2.968   3.249 -0.4735 -2.0532 -3.1721
   81DMF     H3 1457   3.091   3.038   3.273  0.2313 -0.2486 -1.2635
   81DMF     H4 1458   3.268   2.934   3.106  1.1304  0.4133 -1.4008
   81DMF     H5 1459   3.161   3.039   3.013  0.0737  1.7078  3.4670
   81DMF     H6 1460   3.193   2.883   2.948 -2.8084  0.0210 -0.2327
   81DMF     H7 1461   3.041   2.718   2.989 -0.0953  1.2707 -0.9338
   82DMF     C1 1462   1.942   1.631   1.556 -0.3826 -0.0889 -0.7902
   82DMF     N1 1463   1.966   1.719   1.436  1.1647  0.2842  0.3367
   82DMF     C2 1464   2.018   1.663   1.316 -1.0405  0.6250  0.0480
   82DMF     C3 1465   1.928   1.856   1.429 -0.6898  0.4223 -0.0868
   82DMF     O1 1466   1.881   1.916   1.525  0.2845 -0.4960  0.8755
   82DMF     H1 1467   1.999   1.537   1.554 -2.5231 -1.4788  1.2461
   82DMF     H2 1468   1.839   1.597   1.544 -0.6730  1.6490 -3.6917
   82DMF     H3 1469   1.962   1.690   1.646  0.8532 -1.1262 -0.3572
   82DMF     H4 1470   2.126   1.650   1.328 -0.8154  1.8031 -0.6587
   82DMF     H5 1471   1.995   1.726   1.229 -1.7786  0.5220  0.1661
   82DMF     H6 1472   1.963   1.569   1.302 -0.0980 -0.0879  1.0272
   82DMF     H7 1473   1.953   1.902   1.332  0.8379 -1.3895 -0.5871
   83DMF     C1 1474   1.804   0.569   3.111  0.0380 -0.2315 -0.1071
   83DMF     N1 1475   1.719   0.618   3.221 -1.0688 -0.2039 -0.2788
   83DMF     C2 1476   1.761   0.594   3.357  0.7640 -0.0296 -0.2460
   83DMF     C3 1477   1.596   0.683   3.196  0.0121  0.7016  0.0886
   83DMF     O1 1478   1.559   0.705   3.081 -0.6087  0.2019 -0.4901
   83DMF     H1 1479   1.909   0.562   3.141  0.9473  1.2775 -2.7907
   83DMF     H2 1480   1.801   0.630   3.020 -3.1900  0.3719  0.3315
   83DMF     H3 1481   1.772   0.470   3.078 -0.7760  0.4545 -1.4326
   83DMF     H4 1482   1.785   0.689   3.405 -0.0850  0.5322 -0.9093
   83DMF     H5 1483   1.844   0.522   3.361 -0.2074 -1.0981  1.1051
   83DMF     H6 1484   1.673   0.547   3.403  0.4818 -0.9174 -1.6542
   83DMF     H7 1485   1.528   0.697   3.282 -0.3263  0.5549 -0.1517
   84DMF     C1 1486   0.968   0.659   0.124  0.6950 -0.1603  0.0753
   84DMF     N1 1487   0.969   0.784   0.209  0.3003  0.0067  0.3104
   84DMF     C2 1488   0.848   0.838   0.281 -0.4461 -0.1517 -0.1354
   84DMF     C3 1489   1.089   0.860   0.206 -0.2042 -0.1537 -1.0132
   84DMF     O1 1490   1.181   0.827   0.140 -0.0051  0.1393 -0.3984
   84DMF     H1 1491   0.910   0.577   0.168  0.7524 -1.0523 -1.4612
   84DMF     H2 1492   1.064   0.609   0.103 -0.2110 -1.8932 -0.0348
   84DMF     H3 1493   0.922   0.677   0.026  0.0971 -1.2438  0.1410
   84DMF     H4 1494   0.872   0.943   0.301  0.1963 -0.1372 -0.9322
   84DMF     H5 1495   0.835   0.780   0.373  1.1562 -0.7381 -0.2633
   84DMF     H6 1496   0.754   0.836   0.223 -1.5385  0.9616  1.5437
   84DMF     H7 1497   1.088   0.954   0.264 -1.7630 -1.7163  1.6085
   85DMF     C1 1498   3.104   0.492   2.782 -0.5323 -0.2647  0.5032
   85DMF     N1 1499   3.115   0.504   2.932  0.4950  0.9246  0.1872
   85DMF     C2 1500   3.109   0.635   2.991 -0.1257 -0.3323 -0.0638
   85DMF     C3 1501   3.096   0.392   3.019  0.2994  0.1285  0.6760
   85DMF     O1 1502   3.085   0.278   2.974  0.3785  0.0882 -0.5159
   85DMF     H1 1503   3.173   0.414   2.747  0.9285  1.3824 -0.3961
   85DMF     H2 1504   3.149   0.573   2.723 -0.7275 -1.4925 -1.3899
   85DMF     H3 1505   2.998   0.476   2.756 -0.3969 -0.3872  0.0106
   85DMF     H4 1506   3.181   0.636   3.074 -2.6100 -0.6785  2.1306
   85DMF     H5 1507   3.009   0.654   3.030 -0.7346 -1.3518 -1.0788
   85DMF     H6 1508   3.142   0.706   2.914 -1.2211  0.3559  0.1016
   85DMF     H7 1509   3.103   0.425   3.124  2.9230 -0.8119  0.8251
   86DMF     C1 1510   1.514   0.871   0.596  0.3076 -0.4746 -0.5954
   86DMF     N1 1511   1.406   0.962   0.641  0.0850  0.5623 -0.8932
   86DMF     C2 1512   1.282   0.890   0.681  0.8715 -1.0642  0.3873
   86DMF     C3 1513   1.407   1.104   0.625 -0.1308  0.8712  0.7164
   86DMF     O1 1514   1.507   1.154   0.571  0.3857  0.1952  0.7787
   86DMF     H1 1515   1.504   0.834   0.494 -0.6211 -1.6443 -0.0911
   86DMF     H2 1516   1.530   0.778   0.653 -0.7154  0.2776  0.9579
   86DMF     H3 1517   1.614   0.914   0.610 -0.2780  1.2212 -1.4661
   86DMF     H4 1518   1.247   0.823   0.603  1.1991  0.9158 -1.5091
   86DMF     H5 1519   1.200   0.962   0.697  1.1396 -0.6355 -0.1348
   86DMF     H6 1520   1.305   0.821   0.763 -0.7926 -1.3120  0.6479
   86DMF     H7 1521   1.317   1.157   0.658  0.8908  2.0187  1.7077
   87DMF     C1 1522   1.417   0.027   0.197 -0.0838  0.8060 -0.0489
   87DMF     N1 1523   1.355  -0.011   0.325 -0.0927 -0.5353 -0.3075
   87DMF     C2 1524   1.215   0.031   0.357 -0.3849 -0.0468 -0.2015
   87DMF     C3 1525   1.407  -0.122   0.397  0.0445  0.0150  0.4111
   87DMF     O1 1526   1.496  -0.193   0.351  0.0432  0.1224  0.2240
   87DMF     H1 1527   1.375   0.124   0.167  0.1638  0.8421 -0.2705
   87DMF     H2 1528   1.379  -0.050   0.129  2.5283 -1.4061  0.9128
   87DMF     H3 1529   1.526   0.026   0.193 -0.1119  2.7328 -2.8653
   87DMF     H4 1530   1.157  -0.057   0.387 -0.8617  0.4061  0.2154
   87DMF     H5 1531   1.171   0.076   0.267 -1.6194 -2.3326 -0.7802
   87DMF     H6 1532   1.215   0.097   0.444 -0.9474 -0.1534 -0.1190
   87DMF     H7 1533   1.369  -0.130   0.500  2.7905  0.2741  1.4936
   88DMF     C1 1534   0.779   2.636   1.127 -0.3824  0.1332 -0.4903
   88DMF     N1 1535   0.716   2.750   1.186 -0.1443  0.3667 -0.8130
   88DMF     C2 1536   0.571   2.749   1.211 -0.2286  0.4032  0.7651
   88DMF     C3 1537   0.790   2.866   1.210 -0.8276  0.1953 -0.5551
   88DMF     O1 1538   0.910   2.875   1.222 -0.1707 -0.6338 -0.2110
   88DMF     H1 1539   0.841   2.678   1.047 -0.4074  1.2109  0.0546
   88DMF     H2 1540   0.707   2.557   1.100 -1.9716  1.5375 -0.4357
   88DMF     H3 1541   0.852   2.596   1.198  1.6826  0.1961 -2.5332
   88DMF     H4 1542   0.509   2.719   1.125 -1.1719 -0.1032  1.5995
   88DMF     H5 1543   0.533   2.850   1.228  0.6024  0.9235 -0.4053
   88DMF     H6 1544   0.549   2.685   1.298  0.7683 -1.3784 -0.2519
   88DMF     H7 1545   0.721   2.944   1.247  2.4268  2.2374  1.5370
   89DMF     C1 1546   3.088   2.258   2.644  0.0648 -0.2534  0.6325
   89DMF     N1 1547   3.064   2.400   2.671 -0.3820 -0.2614  0.6743
   89DMF     C2 1548   2.922   2.436   2.675  0.7370  0.0480  0.4394
   89DMF     C3 1549   3.162   2.502   2.673 -0.7345 -0.2751  0.3268
   89DMF     O1 1550   3.277   2.482   2.637 -0.2994 -0.2438 -0.4091
   89DMF     H1 1551   3.022   2.220   2.565 -0.1816  0.8531  0.2997
   89DMF     H2 1552   3.075   2.201   2.737  0.0072 -0.4087  0.5298
   89DMF     H3 1553   3.186   2.236   2.599  0.3012 -2.3347  2.1184
   89DMF     H4 1554   2.902   2.537   2.638  1.0336 -0.4201 -1.0256
   89DMF     H5 1555   2.888   2.422   2.778 -1.6789 -2.1743 -0.5977
   89DMF     H6 1556   2.853   2.372   2.618 -0.1802  0.3504  1.1997
   89DMF     H7 1557   3.121   2.604   2.689 -2.5576 -0.8321 -0.6882
   90DMF     C1 1558   1.421   0.459   1.214 -0.7967 -1.0059  0.1801
   90DMF     N1 1559   1.440   0.521   1.082 -0.2853  0.3784 -0.0445
   90DMF     C2 1560   1.539   0.456   0.995 -0.0726  0.3676  0.5621
   90DMF     C3 1561   1.403   0.650   1.060 -0.4419  0.2343  0.0732
   90DMF     O1 1562   1.331   0.721   1.128  0.0235  0.1950  0.0725
   90DMF     H1 1563   1.512   0.480   1.271 -0.3906 -2.6618  0.1790
   90DMF     H2 1564   1.406   0.351   1.203 -4.8366 -0.4571 -0.5287
   90DMF     H3 1565   1.329   0.505   1.254 -2.9969 -4.5707 -0.5383
   90DMF     H4 1566   1.595   0.391   1.063 -2.3362 -2.0132  0.2418
   90DMF     H5 1567   1.615   0.523   0.954 -0.7705 -0.1749 -1.7277
   90DMF     H6 1568   1.478   0.412   0.914 -1.0998 -0.8526  1.9661
   90DMF     H7 1569   1.460   0.689   0.973  0.2402  1.6913  1.1427
   91DMF     C1 1570   0.331   1.146   3.250 -0.8751  0.2859  0.2107
   91DMF     N1 1571   0.279   1.022   3.181 -0.2530 -0.4887 -0.5962
   91DMF     C2 1572   0.374   0.951   3.099 -0.2709 -0.3299 -0.4226
   91DMF     C3 1573   0.154   0.964   3.217 -0.0071 -0.2189 -0.3473
   91DMF     O1 1574   0.093   1.006   3.313 -0.0079  0.1276  0.2824
   91DMF     H1 1575   0.244   1.201   3.289 -0.9570 -0.7013  1.4674
   91DMF     H2 1576   0.388   1.211   3.184  1.4848 -1.1746  0.7631
   91DMF     H3 1577   0.395   1.119   3.335  2.2023 -0.5230 -2.2725
   91DMF     H4 1578   0.474   0.956   3.145  0.3269 -3.2000 -1.2656
   91DMF     H5 1579   0.377   0.998   3.000 -0.6924  0.4671 -0.0587
   91DMF     H6 1580   0.348   0.845   3.085 -0.3700 -0.4769  0.8461
   91DMF     H7 1581   0.129   0.877   3.153  2.0123 -0.0091 -1.4513
   92DMF     C1 1582   1.573   0.291   3.304  0.5967 -0.0772  0.0653
   92DMF     N1 1583   1.459   0.284   3.408  0.3084  0.1947  0.1738
   92DMF     C2 1584   1.473   0.192   3.522 -0.6425  0.9239 -0.5012
   92DMF     C3 1585   1.355   0.385   3.408  0.5852 -0.3694  0.7265
   92DMF     O1 1586   1.355   0.477   3.331 -0.2996  0.0843  0.2299
   92DMF     H1 1587   1.663   0.313   3.363 -1.0174  1.4113  2.0728
   92DMF     H2 1588   1.550   0.377   3.240  0.0788  0.6230  1.1656
   92DMF     H3 1589   1.583   0.196   3.251 -2.1320 -1.6398  2.2056
   92DMF     H4 1590   1.513   0.241   3.611 -1.1231 -0.8338  0.7011
   92DMF     H5 1591   1.537   0.106   3.501 -1.6246  0.3601 -1.2782
   92DMF     H6 1592   1.374   0.147   3.541  0.3207 -0.5672  1.1485
   92DMF     H7 1593   1.278   0.370   3.486  0.1830  0.6290  0.5302
   93DMF     C1 1594   3.375   0.663   0.287 -0.0119  0.2731 -0.0282
   93DMF     N1 1595   3.393   0.548   0.380  0.2463 -0.5305  0.2124
   93DMF     C2 1596   3.335   0.415   0.350  0.1006  0.0281  0.1546
   93DMF     C3 1597   3.447   0.564   0.508  0.0531 -0.1693 -0.2511
   93DMF     O1 1598   3.500   0.673   0.542  0.1030  0.9457 -0.3114
   93DMF     H1 1599   3.305   0.654   0.202 -0.1731 -0.1880  0.1509
   93DMF     H2 1600   3.474   0.673   0.241  0.6031 -0.1389  1.1920
   93DMF     H3 1601   3.348   0.754   0.342  2.7838  2.1031 -1.5804
   93DMF     H4 1602   3.290   0.411   0.250 -0.7200 -1.2525  0.5614
   93DMF     H5 1603   3.256   0.390   0.422  0.5368 -0.9045  0.3239
   93DMF     H6 1604   3.413   0.338   0.361  1.4166  1.0269 -1.9117
   93DMF     H7 1605   3.454   0.473   0.570  1.6333  0.7474  0.9570
   94DMF     C1 1606   1.445   1.435   0.867 -0.2314  0.4896 -0.4829
   94DMF     N1 1607   1.363   1.554   0.881 -0.1298  0.0423 -0.0463
   94DMF     C2 1608   1.431   1.688   0.875 -0.4195 -0.1880 -0.0756
   94DMF     C3 1609   1.222   1.543   0.872 -0.0656 -0.5373  0.0546
   94DMF     O1 1610   1.158   1.437   0.873  0.3689  0.5539 -0.2194
   94DMF     H1 1611   1.540   1.467   0.912 -0.4525  0.3920  0.0469
   94DMF     H2 1612   1.459   1.419   0.759  0.6177  1.1011 -0.4657
   94DMF     H3 1613   1.401   1.342   0.905 -0.1019  0.9015  0.6787
   94DMF     H4 1614   1.541   1.684   0.879 -0.4617 -0.7555  0.7862
   94DMF     H5 1615   1.388   1.748   0.956  1.2803 -0.3255  0.9681
   94DMF     H6 1616   1.407   1.749   0.787 -2.1910  2.9471  2.4685
   94DMF     H7 1617   1.171   1.641   0.865  1.4221  0.2264 -0.1747
   95DMF     C1 1618   1.133   2.400   2.413 -0.5049  0.5968  0.9285
   95DMF     N1 1619   1.018   2.479   2.363  0.1302  0.3213  0.5908
   95DMF     C2 1620   1.037   2.550   2.240 -0.2247 -0.0192 -0.3533
   95DMF     C3 1621   0.918   2.522   2.447  0.2512  0.7457  0.1751
   95DMF     O1 1622   0.897   2.475   2.561 -0.8741 -0.0756  0.2861
   95DMF     H1 1623   1.178   2.470   2.485 -1.2448  0.9905  1.0204
   95DMF     H2 1624   1.204   2.386   2.331 -1.5503  1.2647 -0.1219
   95DMF     H3 1625   1.100   2.306   2.458 -0.8467  0.4514  0.3714
   95DMF     H4 1626   0.946   2.544   2.179  0.2590 -1.1030 -0.9832
   95DMF     H5 1627   1.127   2.505   2.197  0.3201 -0.4139  1.1518
   95DMF     H6 1628   1.051   2.656   2.262 -0.9112  0.2438 -1.1713
   95DMF     H7 1629   0.858   2.602   2.399  0.0320 -0.3010 -1.3302
   96DMF     C1 1630   1.714   0.295   2.805 -0.3490 -0.0843  0.0212
   96DMF     N1 1631   1.793   0.235   2.917 -0.3302  0.1229 -0.4596
   96DMF     C2 1632   1.723   0.140   3.006 -0.1601 -0.4326 -0.2507
   96DMF     C3 1633   1.928   0.275   2.940 -0.2251 -0.1621 -0.2967
   96DMF     O1 1634   1.980   0.354   2.865  0.1928 -0.0064  0.3045
   96DMF     H1 1635   1.782   0.342   2.733  1.9979  0.1717  2.3351
   96DMF     H2 1636   1.646   0.374   2.839 -0.1987 -1.2270  3.2123
   96DMF     H3 1637   1.663   0.214   2.750  2.4424 -1.6636 -0.3409
   96DMF     H4 1638   1.744   0.159   3.112 -2.0081 -0.6776  0.1647
   96DMF     H5 1639   1.746   0.033   2.993  0.2399 -0.3378 -0.3291
   96DMF     H6 1640   1.618   0.157   2.980  0.1517  0.2097 -1.1356
   96DMF     H7 1641   1.986   0.234   3.025 -0.5486 -0.9363 -0.4417
   97DMF     C1 1642   3.234   0.830   3.638  0.4703 -0.6206 -0.0043
   97DMF     N1 1643   3.286   0.812   3.500  0.4725  0.0839  0.1312
   97DMF     C2 1644   3.198   0.842   3.391  0.9195  0.5576 -0.1798
   97DMF     C3 1645   3.416   0.768   3.476  0.2533 -0.4153  0.3425
   97DMF     O1 1646   3.491   0.731   3.565 -0.5826 -0.2480  0.3399
   97DMF     H1 1647   3.190   0.930   3.647 -0.2154 -0.9065 -0.1598
   97DMF     H2 1648   3.315   0.821   3.711  0.4073  0.4538  0.2076
   97DMF     H3 1649   3.162   0.751   3.665  1.3419 -1.3208  0.3025
   97DMF     H4 1650   3.244   0.896   3.307  2.5044 -1.7741 -0.8377
   97DMF     H5 1651   3.113   0.902   3.427  1.7844  1.8727 -0.3101
   97DMF     H6 1652   3.166   0.747   3.347  2.6059  0.1661 -0.5803
   97DMF     H7 1653   3.450   0.766   3.370 -1.3736  2.9551 -0.3239
   98DMF     C1 1654   1.827   3.028   1.555  0.3778 -0.0093  0.1039
   98DMF     N1 1655   1.763   2.899   1.503  0.5373  0.2890 -0.7199
   98DMF     C2 1656   1.827   2.772   1.534  0.7319 -0.1669 -0.5169
   98DMF     C3 1657   1.659   2.902   1.412 -0.2423  0.2055  0.3496
   98DMF     O1 1658   1.615   3.006   1.362  0.2108 -0.2017  0.5655
   98DMF     H1 1659   1.754   3.096   1.601  0.3139 -0.5984  0.8903
   98DMF     H2 1660   1.866   3.091   1.474  1.5255 -0.2556  0.4512
   98DMF     H3 1661   1.909   3.009   1.625  1.1766  1.4089 -0.4310
   98DMF     H4 1662   1.894   2.783   1.621 -1.2672  2.4977  0.7672
   98DMF     H5 1663   1.884   2.728   1.452  2.0539  0.7791 -0.1165
   98DMF     H6 1664   1.742   2.709   1.564  0.3049  0.0597 -1.2395
   98DMF     H7 1665   1.626   2.803   1.374 -0.9054  0.7767 -0.5959
   99DMF     C1 1666   0.024   1.059   0.841  0.4777 -0.6292  0.8742
   99DMF     N1 1667  -0.019   0.941   0.905 -0.1330  0.5726  0.2769
   99DMF     C2 1668  -0.024   0.815   0.822  0.1825  0.5611  0.0781
   99DMF     C3 1669  -0.051   0.936   1.043 -0.4568 -0.9000  0.5246
   99DMF     O1 1670  -0.027   1.031   1.118  0.5197  0.2796  0.0062
   99DMF     H1 1671  -0.031   1.146   0.878 -0.5131 -1.7097  2.0070
   99DMF     H2 1672  -0.007   1.059   0.735 -2.2814 -0.0187  1.6251
   99DMF     H3 1673   0.125   1.077   0.878 -0.1085  1.2014  1.5968
   99DMF     H4 1674   0.082   0.786   0.816  1.1554  4.2711 -1.9921
   99DMF     H5 1675  -0.062   0.831   0.721  0.2846 -2.2204 -0.4534
   99DMF     H6 1676  -0.085   0.735   0.867  0.1626  0.8426  0.5590
   99DMF     H7 1677  -0.090   0.838   1.077  0.4118 -1.9090 -1.2931
  100DMF     C1 1678   1.564   2.862   3.046 -0.4582 -0.0899 -0.2497
  100DMF     N1 1679   1.434   2.881   2.966 -0.6991 -0.0792 -0.2514
  100DMF     C2 1680   1.432   2.901   2.818 -0.7188 -0.5145  0.5043
  100DMF     C3 1681   1.314   2.850   3.027  0.2715  0.1074 -0.0975
  100DMF     O1 1682   1.304   2.829   3.147 -0.2917  0.1949  0.0555
  100DMF     H1 1683   1.571   2.942   3.121 -1.7987  0.1816 -0.3915
  100DMF     H2 1684   1.646   2.876   2.975 -1.7979  2.0431 -1.4435
  100DMF     H3 1685   1.581   2.764   3.092  1.5455 -0.1299 -1.0533
  100DMF     H4 1686   1.527   2.950   2.792 -1.7210  0.1078 -2.0832
  100DMF     H5 1687   1.354   2.969   2.782  1.1691  0.4908 -1.8598
  100DMF     H6 1688   1.418   2.808   2.760 -0.0529 -1.3357  1.6339
  100DMF     H7 1689   1.219   2.847   2.970 -0.3417  1.2506  0.8316
  101DMF     C1 1690   1.868   1.833   3.585  0.2016 -0.5184 -0.6201
  101DMF     N1 1691   1.715   1.832   3.596  0.1931  0.0523 -0.3252
  101DMF     C2 1692   1.652   1.791   3.717  0.7208 -0.1854 -0.1216
  101DMF     C3 1693   1.639   1.843   3.478  0.1985 -0.2538 -0.2501
  101DMF     O1 1694   1.679   1.884   3.372 -0.6803 -0.7995 -0.1882
  101DMF     H1 1695   1.904   1.931   3.551  1.6021  0.2988  3.0063
  101DMF     H2 1696   1.894   1.759   3.508  0.3796 -1.5163  0.3958
  101DMF     H3 1697   1.909   1.793   3.678 -0.6538 -0.9545 -0.4257
  101DMF     H4 1698   1.593   1.875   3.754  1.2640 -0.8733  2.4104
  101DMF     H5 1699   1.731   1.764   3.788  1.6084 -1.1269 -1.4454
  101DMF     H6 1700   1.584   1.705   3.714  1.3647 -0.8640  2.8729
  101DMF     H7 1701   1.532   1.826   3.501 -0.3324  0.8849 -1.8351
  102DMF     C1 1702   2.639   2.516   2.919  0.0110 -0.1237  0.4373
  102DMF     N1 1703   2.604   2.604   2.802 -0.2324 -0.0971 -0.6386
  102DMF     C2 1704   2.707   2.701   2.754  1.0733 -0.0647 -0.2536
  102DMF     C3 1705   2.491   2.583   2.729 -0.7781  0.1412  0.1627
  102DMF     O1 1706   2.405   2.504   2.762 -0.0625 -0.0365 -0.0185
  102DMF     H1 1707   2.739   2.535   2.957  0.3527 -1.0754  0.0373
  102DMF     H2 1708   2.621   2.413   2.885 -0.5655 -0.1608  0.8554
  102DMF     H3 1709   2.556   2.530   2.990  0.3946  1.0682  0.6578
  102DMF     H4 1710   2.805   2.685   2.799  0.7712  0.6361  0.6705
  102DMF     H5 1711   2.676   2.806   2.754  2.4531  0.3434 -0.3727
  102DMF     H6 1712   2.721   2.692   2.645 -0.5717  0.4305 -0.5334
  102DMF     H7 1713   2.479   2.647   2.640 -1.9081 -1.8808 -1.1678
  103DMF     C1 1714   0.475   1.527   0.552  0.6878 -0.1746 -0.6317
  103DMF     N1 1715   0.489   1.506   0.702  0.2249 -0.2202  0.2962
  103DMF     C2 1716   0.609   1.567   0.768  0.0319  0.3026  0.7121
  103DMF     C3 1717   0.407   1.435   0.778 -0.2564  0.2360  0.4131
  103DMF     O1 1718   0.308   1.382   0.728 -0.0619 -0.3303 -0.1627
  103DMF     H1 1719   0.571   1.557   0.509  0.5510  0.8422 -0.2429
  103DMF     H2 1720   0.418   1.616   0.522 -0.0090 -0.5006 -0.2959
  103DMF     H3 1721   0.433   1.441   0.499 -0.8745  0.6911 -0.8353
  103DMF     H4 1722   0.564   1.639   0.837  0.4375 -0.0406  1.3477
  103DMF     H5 1723   0.669   1.616   0.691 -0.1615 -0.9942 -0.2768
  103DMF     H6 1724   0.661   1.490   0.827  0.1622  0.8584  1.3335
  103DMF     H7 1725   0.441   1.436   0.883  0.0955 -3.6832  0.3979
  104DMF     C1 1726   1.473   2.550   3.240 -1.0866 -0.6007 -0.0056
  104DMF     N1 1727   1.480   2.461   3.355 -0.3573  0.1697  0.3354
  104DMF     C2 1728   1.558   2.499   3.476  0.1188 -0.5669  0.1375
  104DMF     C3 1729   1.431   2.329   3.336 -0.2381 -0.0359  0.2645
  104DMF     O1 1730   1.360   2.306   3.242  0.4268 -0.2330  0.5783
  104DMF     H1 1731   1.531   2.507   3.157 -0.6812  1.0299 -0.5818
  104DMF     H2 1732   1.517   2.647   3.265 -1.2613 -0.1326 -1.4557
  104DMF     H3 1733   1.374   2.564   3.195 -0.2750  0.5946 -1.4655
  104DMF     H4 1734   1.617   2.411   3.504  0.7647 -0.5764 -1.2292
  104DMF     H5 1735   1.508   2.536   3.566 -0.8565 -1.2069 -0.1399
  104DMF     H6 1736   1.626   2.581   3.451 -1.1030  0.6571  0.7764
  104DMF     H7 1737   1.461   2.255   3.413  0.8377  0.3956  0.2717
  105DMF     C1 1738   1.097   0.268   1.332  0.1591 -0.5364 -0.0429
  105DMF     N1 1739   1.122   0.127   1.362  0.5002 -0.5560 -0.1102
  105DMF     C2 1740   1.137   0.080   1.498  0.9027 -0.7668  0.2678
  105DMF     C3 1741   1.122   0.033   1.249  0.4918  0.4714 -0.5646
  105DMF     O1 1742   1.106   0.068   1.133  0.1920  0.4590 -0.0244
  105DMF     H1 1743   1.136   0.294   1.233  1.4275  0.3797  0.6879
  105DMF     H2 1744   1.141   0.331   1.411 -0.7594  0.5795 -0.4030
  105DMF     H3 1745   0.989   0.287   1.338  0.4656  1.1896  0.2319
  105DMF     H4 1746   1.222   0.120   1.555  0.2541 -0.9341  1.3764
  105DMF     H5 1747   1.134  -0.029   1.498  0.2299 -0.7605 -1.0745
  105DMF     H6 1748   1.045   0.112   1.550  1.1004  0.4398 -0.1146
  105DMF     H7 1749   1.150  -0.068   1.283  2.0997  1.3670  0.8672
  106DMF     C1 1750   2.716   2.557   2.310  0.1025 -0.1340 -0.6108
  106DMF     N1 1751   2.765   2.434   2.249  0.4629 -0.1454 -0.6521
  106DMF     C2 1752   2.908   2.406   2.256 -0.0211  0.1348  0.0696
  106DMF     C3 1753   2.676   2.331   2.210  0.5216 -0.2066 -0.3358
  106DMF     O1 1754   2.555   2.335   2.214 -0.0400  0.8437  0.4412
  106DMF     H1 1755   2.795   2.628   2.338 -0.3320  0.0563  0.1351
  106DMF     H2 1756   2.654   2.536   2.398 -1.7446  3.0803 -1.0753
  106DMF     H3 1757   2.654   2.611   2.238  0.4862  0.2251 -0.6754
  106DMF     H4 1758   2.931   2.333   2.177  1.6102  2.5821 -1.8226
  106DMF     H5 1759   2.939   2.366   2.353  2.0370  1.2370 -0.1024
  106DMF     H6 1760   2.961   2.497   2.227 -1.6682  0.8104 -0.9111
  106DMF     H7 1761   2.724   2.239   2.172 -0.9107 -0.7122 -0.9454
  107DMF     C1 1762   0.751   1.041   3.773  0.0301  0.3025 -0.4755
  107DMF     N1 1763   0.666   1.124   3.685  0.7344 -0.3848 -0.0594
  107DMF     C2 1764   0.577   1.230   3.757  0.5618 -0.5861 -0.0498
  107DMF     C3 1765   0.683   1.122   3.547 -0.2324  0.2288 -0.8645
  107DMF     O1 1766   0.773   1.056   3.489  0.3697  0.2778 -0.1229
  107DMF     H1 1767   0.775   0.948   3.720  1.7691  0.8031 -0.5964
  107DMF     H2 1768   0.691   1.023   3.864 -1.1230 -0.5197 -1.3817
  107DMF     H3 1769   0.837   1.103   3.799  0.7371  0.0275 -2.1331
  107DMF     H4 1770   0.643   1.316   3.771 -0.4353  0.1358  0.2709
  107DMF     H5 1771   0.530   1.201   3.851  0.1574 -0.5804 -0.2484
  107DMF     H6 1772   0.491   1.265   3.699 -0.9254 -0.0916  2.3976
  107DMF     H7 1773   0.617   1.194   3.496 -1.6466  0.1622  0.8025
  108DMF     C1 1774   1.178   2.785   2.580 -0.2833 -0.3030 -0.0534
  108DMF     N1 1775   1.073   2.736   2.670  0.1011 -0.0915 -0.7102
  108DMF     C2 1776   1.111   2.657   2.784  1.3120 -0.1504 -0.7414
  108DMF     C3 1777   0.938   2.776   2.649  0.2067  0.3473 -0.2416
  108DMF     O1 1778   0.890   2.826   2.546 -0.1803 -0.0511 -0.6238
  108DMF     H1 1779   1.129   2.805   2.484  0.6243 -1.3878 -0.7426
  108DMF     H2 1780   1.263   2.717   2.570 -1.0335 -1.6433  2.2560
  108DMF     H3 1781   1.227   2.877   2.614  0.2125 -0.9076  0.8751
  108DMF     H4 1782   1.205   2.683   2.834  0.6914 -1.3522  1.1053
  108DMF     H5 1783   1.110   2.551   2.756  0.1383 -1.1045  2.6237
  108DMF     H6 1784   1.041   2.670   2.868  1.5790 -0.9314 -0.4013
  108DMF     H7 1785   0.880   2.755   2.741  0.2135  0.0307 -0.3084
  109DMF     C1 1786   0.373   0.550   0.188  0.4971 -0.1388 -0.6311
  109DMF     N1 1787   0.460   0.431   0.202 -0.0148  0.5517  0.3269
  109DMF     C2 1788   0.589   0.437   0.135 -0.5311 -0.6410  0.6607
  109DMF     C3 1789   0.423   0.327   0.294  0.1627 -0.0940  0.0366
  109DMF     O1 1790   0.310   0.314   0.338  0.8077  0.2031  0.0298
  109DMF     H1 1791   0.344   0.588   0.287 -1.4855  1.7089 -1.8891
  109DMF     H2 1792   0.282   0.529   0.131  0.7473  0.4378 -1.2417
  109DMF     H3 1793   0.432   0.629   0.140  0.7981  0.4175  0.6434
  109DMF     H4 1794   0.568   0.451   0.029  0.6942 -0.7627  0.3994
  109DMF     H5 1795   0.636   0.338   0.144 -0.5427 -0.6374  0.7667
  109DMF     H6 1796   0.655   0.515   0.175  0.2885 -1.1874  0.3933
  109DMF     H7 1797   0.505   0.256   0.315 -0.6055 -1.3437 -1.1227
  110DMF     C1 1798   0.495   0.671   0.747  0.5761 -0.7076 -0.4484
  110DMF     N1 1799   0.637   0.679   0.709  0.4884  1.1089 -0.6320
  110DMF     C2 1800   0.707   0.550   0.689  0.2568 -0.0475  0.4027
  110DMF     C3 1801   0.702   0.794   0.669 -0.3488  0.6363 -0.3519
  110DMF     O1 1802   0.653   0.907   0.666 -0.1308  0.2734 -0.3874
  110DMF     H1 1803   0.469   0.763   0.802  0.2130 -1.5132  0.7255
  110DMF     H2 1804   0.476   0.585   0.811 -1.7028 -0.9768 -1.4589
  110DMF     H3 1805   0.427   0.675   0.661 -1.8794 -0.6112  1.4557
  110DMF     H4 1806   0.733   0.516   0.790  1.2673 -1.7469 -0.4141
  110DMF     H5 1807   0.802   0.560   0.636  0.6946 -2.4930  0.6816
  110DMF     H6 1808   0.644   0.471   0.645 -0.4837  0.1678  1.0544
  110DMF     H7 1809   0.806   0.766   0.645 -0.3161 -0.8193  1.3692
  111DMF     C1 1810   0.333   1.957   3.501  0.0885 -0.5450 -0.1390
  111DMF     N1 1811   0.296   2.101   3.478 -0.3932 -0.4501  0.6499
  111DMF     C2 1812   0.398   2.195   3.421  0.3616  0.9208  0.8978
  111DMF     C3 1813   0.190   2.158   3.558  0.2764  0.2316  0.1024
  111DMF     O1 1814   0.121   2.093   3.631  0.3653 -0.0474  0.5307
  111DMF     H1 1815   0.274   1.885   3.444 -0.0341  1.3536 -2.4774
  111DMF     H2 1816   0.331   1.941   3.609  1.6457  0.6897  0.1037
  111DMF     H3 1817   0.440   1.937   3.482  0.1699  0.2516 -0.5247
  111DMF     H4 1818   0.438   2.258   3.501  0.5303  1.7087  0.2014
  111DMF     H5 1819   0.345   2.257   3.348  1.1303  0.3824 -0.1329
  111DMF     H6 1820   0.482   2.138   3.380 -0.0635 -0.3928  1.8273
  111DMF     H7 1821   0.174   2.267   3.548  0.4831  0.2338 -0.2391
  112DMF     C1 1822   0.779   0.039   1.304  0.0501  0.8434 -0.2391
  112DMF     N1 1823   0.794  -0.057   1.193 -0.8267 -0.0586 -0.8199
  112DMF     C2 1824   0.759  -0.010   1.061 -0.1154  0.2542 -0.2989
  112DMF     C3 1825   0.817  -0.197   1.219 -0.6360 -0.8170  0.0936
  112DMF     O1 1826   0.861  -0.243   1.326 -0.3333 -0.7307  0.4483
  112DMF     H1 1827   0.712   0.001   1.381  0.2644  1.8745  0.4660
  112DMF     H2 1828   0.740   0.138   1.277  1.9726  1.8972  0.7283
  112DMF     H3 1829   0.871   0.049   1.364  0.1487  1.7345 -0.5263
  112DMF     H4 1830   0.650   0.000   1.053 -0.2679 -1.6090 -0.8914
  112DMF     H5 1831   0.800  -0.075   0.982 -0.0472 -0.3887  0.2588
  112DMF     H6 1832   0.808   0.085   1.038  0.5781 -0.3559 -1.4234
  112DMF     H7 1833   0.787  -0.258   1.132 -0.6552  0.5432 -0.8710
  113DMF     C1 1834   2.121   1.729   3.089 -0.1733 -0.0831 -1.1644
  113DMF     N1 1835   2.040   1.851   3.082 -0.1991  0.4898  0.3182
  113DMF     C2 1836   1.942   1.874   3.188 -0.4777  0.2166  0.2885
  113DMF     C3 1837   2.069   1.948   2.983  0.0269  0.4933  0.3437
  113DMF     O1 1838   2.142   1.920   2.890 -0.7920  0.0022  0.3367
  113DMF     H1 1839   2.057   1.648   3.054 -0.2857 -0.1905 -0.7110
  113DMF     H2 1840   2.139   1.692   3.191  0.9608 -1.4069 -1.8418
  113DMF     H3 1841   2.210   1.727   3.025 -1.3346 -2.0694 -2.7558
  113DMF     H4 1842   1.980   1.954   3.253  0.9620 -1.4229  1.4966
  113DMF     H5 1843   1.939   1.783   3.248  4.9889 -0.2746  0.1374
  113DMF     H6 1844   1.843   1.888   3.144 -0.0722 -0.4071 -0.8297
  113DMF     H7 1845   2.025   2.048   2.993  1.4341  0.9029  3.1357
  114DMF     C1 1846   2.636   0.096   1.118  0.0787  0.0042 -0.6817
  114DMF     N1 1847   2.542   0.022   1.039  0.3849  0.1003  0.4018
  114DMF     C2 1848   2.461   0.088   0.937  0.0420 -0.0222  0.1704
  114DMF     C3 1849   2.518  -0.115   1.062  0.7761 -0.3813 -0.1417
  114DMF     O1 1850   2.584  -0.172   1.138 -0.2776  0.3494 -0.0307
  114DMF     H1 1851   2.739   0.060   1.107 -0.2587 -1.0878 -0.3717
  114DMF     H2 1852   2.616   0.070   1.223  1.9303 -2.1974 -0.8311
  114DMF     H3 1853   2.624   0.204   1.104  1.3659 -0.0212 -1.9760
  114DMF     H4 1854   2.473   0.028   0.846  0.2707 -0.6351  0.6001
  114DMF     H5 1855   2.495   0.192   0.926  1.0838 -0.1342  2.0295
  114DMF     H6 1856   2.356   0.084   0.966 -0.8742  1.1754 -2.7717
  114DMF     H7 1857   2.436  -0.165   1.007 -0.9602  0.8550  1.2786
  115DMF     C1 1858   3.205   3.225   3.457 -0.2971 -0.5502 -0.2028
  115DMF     N1 1859   3.283   3.180   3.338 -0.6384  0.0689 -0.1433
  115DMF     C2 1860   3.288   3.275   3.222 -0.0540  0.5005  0.5437
  115DMF     C3 1861   3.349   3.055   3.332 -0.1841 -0.1578 -0.4102
  115DMF     O1 1862   3.329   2.977   3.426  0.3592  0.1430  0.3208
  115DMF     H1 1863   3.107   3.176   3.456  0.4968 -2.1535 -1.3841
  115DMF     H2 1864   3.199   3.334   3.449 -0.1031 -0.6069 -1.1895
  115DMF     H3 1865   3.266   3.194   3.543 -0.5593 -3.0112 -0.8560
  115DMF     H4 1866   3.243   3.228   3.135 -0.9547  0.5816  0.9595
  115DMF     H5 1867   3.395   3.295   3.205 -0.7362  0.6054 -4.0780
  115DMF     H6 1868   3.230   3.367   3.237 -0.7947 -0.1582  1.8219
  115DMF     H7 1869   3.405   3.034   3.239  1.2814 -1.2850  0.7004
  116DMF     C1 1870   3.080   1.289   1.257  0.4929  0.1234  0.0852
  116DMF     N1 1871   3.048   1.370   1.140 -0.4192 -0.0358 -0.1469
  116DMF     C2 1872   3.075   1.513   1.152  0.0170  0.1244  0.2615
  116DMF     C3 1873   3.005   1.318   1.019  0.1783 -0.9224 -0.7035
  116DMF     O1 1874   2.958   1.211   1.010 -0.6899  0.9335  0.9261
  116DMF     H1 1875   3.182   1.315   1.287  0.6767  0.0927 -0.5072
  116DMF     H2 1876   3.094   1.184   1.228 -0.6086  0.3576 -1.3915
  116DMF     H3 1877   3.008   1.296   1.339  1.8149  0.9330  1.1947
  116DMF     H4 1878   3.043   1.561   1.058  0.7133  1.1091  0.5231
  116DMF     H5 1879   3.181   1.534   1.167 -0.0537  1.7890 -1.3177
  116DMF     H6 1880   3.019   1.547   1.240 -0.4432 -1.3020  0.5452
  116DMF     H7 1881   3.019   1.390   0.936 -1.2055  1.2950  0.9303
  117DMF     C1 1882   0.260   1.421   1.563 -0.2020 -0.0926 -0.6578
  117DMF     N1 1883   0.237   1.277   1.524 -0.2126  0.0319  0.2109
  117DMF     C2 1884   0.365   1.201   1.507 -0.2406 -0.4500  0.0191
  117DMF     C3 1885   0.112   1.225   1.485 -0.6985  0.2375  0.6894
  117DMF     O1 1886   0.006   1.281   1.502 -0.4486 -0.3538  0.1695
  117DMF     H1 1887   0.197   1.436   1.651 -0.7037 -1.3329 -0.7903
  117DMF     H2 1888   0.244   1.496   1.485 -0.6403  1.4354  0.8960
  117DMF     H3 1889   0.366   1.435   1.589 -1.1108  2.6543  1.7405
  117DMF     H4 1890   0.458   1.249   1.539  0.1281  0.1156 -1.8295
  117DMF     H5 1891   0.380   1.170   1.403  3.4352  1.9346 -0.2596
  117DMF     H6 1892   0.357   1.109   1.565 -0.1285  0.3431  1.3016
  117DMF     H7 1893   0.124   1.125   1.439  0.8289 -0.0603  1.6986
  118DMF     C1 1894   0.034   1.628   3.401 -0.1050  0.6005 -0.1491
  118DMF     N1 1895   0.110   1.563   3.291  0.3071 -0.2871  0.1379
  118DMF     C2 1896   0.227   1.480   3.330  0.4347 -0.1712  0.0695
  118DMF     C3 1897   0.057   1.558   3.165  0.3572 -0.5620  0.8222
  118DMF     O1 1898  -0.035   1.628   3.130  0.2246 -0.2223 -0.3194
  118DMF     H1 1899  -0.064   1.580   3.411  0.2461 -1.0176 -3.6421
  118DMF     H2 1900   0.023   1.736   3.383 -0.8145  0.5867  0.1604
  118DMF     H3 1901   0.090   1.622   3.495  2.0035  0.4076 -1.3916
  118DMF     H4 1902   0.290   1.454   3.245 -0.7023 -0.0311 -0.8247
  118DMF     H5 1903   0.186   1.384   3.364  0.2591  0.0181  0.4023
  118DMF     H6 1904   0.292   1.532   3.403 -0.9603  2.5983 -0.5685
  118DMF     H7 1905   0.117   1.499   3.093 -2.9240 -3.3976  0.2805
  119DMF     C1 1906   2.326   0.271   3.292 -0.2993 -0.1027  0.4955
  119DMF     N1 1907   2.280   0.399   3.364  0.0891  0.2534 -0.1455
  119DMF     C2 1908   2.336   0.435   3.495 -0.2284  0.5603  0.4671
  119DMF     C3 1909   2.184   0.483   3.298 -0.5393 -0.4890 -0.4098
  119DMF     O1 1910   2.138   0.454   3.191  0.5111  0.0628 -0.2970
  119DMF     H1 1911   2.395   0.280   3.208  1.3714 -0.5973  1.7842
  119DMF     H2 1912   2.234   0.223   3.255  0.4204 -1.5866  0.6048
  119DMF     H3 1913   2.379   0.216   3.371 -0.5794 -0.9814  0.0704
  119DMF     H4 1914   2.328   0.544   3.506  0.8695  0.8247 -1.0999
  119DMF     H5 1915   2.440   0.400   3.492  0.1976  1.8825 -0.9384
  119DMF     H6 1916   2.281   0.386   3.575  1.3516  1.1734  1.9625
  119DMF     H7 1917   2.140   0.570   3.350 -0.8633 -1.4461  0.9638
  120DMF     C1 1918   3.010   1.301   3.097  0.1800 -0.4503  0.2580
  120DMF     N1 1919   2.995   1.168   3.150  0.4635  0.4117  0.2489
  120DMF     C2 1920   2.859   1.133   3.198  0.2992  0.1474 -0.4597
  120DMF     C3 1921   3.093   1.072   3.134 -0.2492  0.4787 -1.0120
  120DMF     O1 1922   3.192   1.085   3.061  0.4853  0.0207 -0.2958
  120DMF     H1 1923   3.111   1.319   3.058 -0.8139  1.4207 -1.5516
  120DMF     H2 1924   2.970   1.377   3.165 -1.4112 -0.1773 -0.9485
  120DMF     H3 1925   2.941   1.308   3.012  1.3436  0.4369 -0.6247
  120DMF     H4 1926   2.831   1.051   3.130  0.8347 -0.3400 -0.1066
  120DMF     H5 1927   2.785   1.213   3.201 -0.1536 -0.3111  1.5405
  120DMF     H6 1928   2.859   1.087   3.298 -4.8458  0.3829 -0.1972
  120DMF     H7 1929   3.063   0.980   3.188 -2.3843  1.8980  0.2569
  121DMF     C1 1930   0.002   0.069   2.613  0.0991 -0.2475 -0.3505
  121DMF     N1 1931   0.090   0.182   2.574 -0.3284  0.3173 -0.1786
  121DMF     C2 1932   0.020   0.302   2.535  0.0763 -0.0056  0.5275
  121DMF     C3 1933   0.228   0.173   2.575 -0.6379 -0.1797  0.0814
  121DMF     O1 1934   0.295   0.074   2.608 -0.6234  0.5357  0.0602
  121DMF     H1 1935  -0.102   0.102   2.613 -0.2086 -1.2012  0.4228
  121DMF     H2 1936   0.037   0.030   2.709 -0.7904 -0.6868 -0.2040
  121DMF     H3 1937   0.017  -0.010   2.539  1.5330 -2.1325  1.8858
  121DMF     H4 1938   0.004   0.359   2.627 -4.3089 -0.6264  0.2450
  121DMF     H5 1939  -0.077   0.276   2.491 -0.1867 -1.7619  2.0597
  121DMF     H6 1940   0.087   0.356   2.466 -0.0857  0.3617  0.6620
  121DMF     H7 1941   0.269   0.270   2.541  0.9408  0.2505  3.0092
  122DMF     C1 1942   1.441   0.727   1.579  0.0417 -0.5370  0.1284
  122DMF     N1 1943   1.342   0.612   1.579 -0.6889 -0.7092 -0.7754
  122DMF     C2 1944   1.197   0.652   1.566 -0.1041 -0.3007 -0.1417
  122DMF     C3 1945   1.387   0.483   1.543  0.4168  0.2977 -0.6300
  122DMF     O1 1946   1.504   0.444   1.543  0.5269 -0.1454  0.4031
  122DMF     H1 1947   1.401   0.824   1.613  1.1014  0.3584 -1.1046
  122DMF     H2 1948   1.480   0.736   1.477 -0.5604  1.4722  0.0531
  122DMF     H3 1949   1.525   0.703   1.646 -1.2067 -1.0743  1.5387
  122DMF     H4 1950   1.143   0.574   1.621 -0.9979  0.2445 -0.2221
  122DMF     H5 1951   1.163   0.652   1.461  1.5848 -3.4734 -0.7320
  122DMF     H6 1952   1.175   0.743   1.623  0.1723 -1.0914  1.2437
  122DMF     H7 1953   1.311   0.412   1.505 -0.9040  0.3422  1.8052
  123DMF     C1 1954   1.376   1.498   2.995 -0.0615  0.0258  0.3869
  123DMF     N1 1955   1.509   1.496   3.043 -0.4844 -0.3317  0.0646
  123DMF     C2 1956   1.523   1.498   3.188  0.3730 -0.1746 -0.2494
  123DMF     C3 1957   1.624   1.484   2.960  0.3734 -0.5011  1.0465
  123DMF     O1 1958   1.615   1.497   2.837  0.2884  0.0145  0.2496
  123DMF     H1 1959   1.337   1.412   2.939  1.2864 -0.9830  0.9868
  123DMF     H2 1960   1.373   1.579   2.920 -1.7617  0.5774  1.0340
  123DMF     H3 1961   1.302   1.522   3.072 -0.4275 -0.1447  0.0882
  123DMF     H4 1962   1.598   1.567   3.228 -0.9008  1.1775 -0.1758
  123DMF     H5 1963   1.536   1.399   3.235  1.2447  0.0713  0.0396
  123DMF     H6 1964   1.429   1.537   3.231  1.3029  0.1390  1.5569
  123DMF     H7 1965   1.719   1.470   3.015  1.3012  0.7159 -0.2158
  124DMF     C1 1966   0.115   0.115   3.491 -0.8908  0.4601 -0.4647
  124DMF     N1 1967   0.210   0.002   3.511 -0.0543 -0.3350  0.3304
  124DMF     C2 1968   0.299  -0.040   3.400  0.1605 -0.0719  0.1080
  124DMF     C3 1969   0.184  -0.096   3.608 -0.1551 -0.0691  0.1943
  124DMF     O1 1970   0.094  -0.090   3.686  0.1409  0.0315 -0.1970
  124DMF     H1 1971   0.030   0.081   3.430 -0.3028 -1.3637 -0.3166
  124DMF     H2 1972   0.163   0.193   3.431 -2.1566  2.2561  0.8028
  124DMF     H3 1973   0.096   0.162   3.588 -1.1040  0.4394 -0.4969
  124DMF     H4 1974   0.253  -0.124   3.346  0.4755  0.0457 -0.3515
  124DMF     H5 1975   0.396  -0.068   3.444  0.0191  2.0974  1.8402
  124DMF     H6 1976   0.320   0.044   3.333  0.5310 -0.4453 -0.2552
  124DMF     H7 1977   0.260  -0.176   3.602  1.5156  1.0945  3.9249
  125DMF     C1 1978   3.181   2.214   3.024  0.3458 -0.4407 -0.2558
  125DMF     N1 1979   3.050   2.272   3.038 -0.2336 -0.3552  0.0479
  125DMF     C2 1980   2.930   2.181   3.048  1.2757 -0.0585 -0.5583
  125DMF     C3 1981   3.026   2.406   3.001  0.0400  0.8699 -0.2885
  125DMF     O1 1982   3.114   2.484   2.979 -0.5810 -0.1973 -0.1217
  125DMF     H1 1983   3.204   2.143   3.104 -0.1264 -0.4275 -0.1109
  125DMF     H2 1984   3.257   2.293   3.035  0.2157 -0.3136 -0.2673
  125DMF     H3 1985   3.183   2.157   2.931 -0.6518 -1.3739  0.2937
  125DMF     H4 1986   2.844   2.242   3.080  2.0267  1.3199 -1.0904
  125DMF     H5 1987   2.948   2.104   3.124 -0.0184  1.5613  1.4487
  125DMF     H6 1988   2.912   2.141   2.948 -0.7033  0.0054 -0.2482
  125DMF     H7 1989   2.918   2.424   2.988  0.2734  1.9375 -0.7331
  126DMF     C1 1990   0.911   1.536   1.011  0.3065  0.2427 -0.5896
  126DMF     N1 1991   0.867   1.618   1.131  0.1433 -0.7021  0.1739
  126DMF     C2 1992   0.751   1.710   1.116  0.2087 -0.2090 -0.3304
  126DMF     C3 1993   0.917   1.588   1.258 -0.3577  0.7021 -0.3408
  126DMF     O1 1994   0.999   1.499   1.269 -0.4035  0.8898 -0.0967
  126DMF     H1 1995   0.825   1.510   0.947 -0.4120 -0.7766  0.7788
  126DMF     H2 1996   0.975   1.449   1.032 -0.3547 -0.0104  0.4307
  126DMF     H3 1997   0.965   1.607   0.947  3.3921 -0.9757  0.5503
  126DMF     H4 1998   0.732   1.774   1.203  0.7787  0.5203 -0.7400
  126DMF     H5 1999   0.660   1.656   1.086 -0.9444  0.9203  1.0590
  126DMF     H6 2000   0.780   1.784   1.041  0.9629  0.3760  0.5327
  126DMF     H7 2001   0.879   1.651   1.341  0.2647  0.4211  0.1587
  127DMF     C1 2002   1.727   1.539   2.295 -0.4940 -0.1916  0.4046
  127DMF     N1 2003   1.789   1.411   2.253  0.0783 -0.1122  0.4297
  127DMF     C2 2004   1.699   1.290   2.272  0.1394  0.5142  0.3159
  127DMF     C3 2005   1.926   1.405   2.231  0.1875 -0.4892  0.5830
  127DMF     O1 2006   1.995   1.504   2.222  0.3990 -0.2660 -0.8685
  127DMF     H1 2007   1.637   1.514   2.354 -0.4090 -1.1851  0.1164
  127DMF     H2 2008   1.685   1.605   2.219  1.9302  1.1164  0.1760
  127DMF     H3 2009   1.799   1.589   2.361  2.0372  0.6360 -2.9123
  127DMF     H4 2010   1.701   1.217   2.190 -1.0917  0.7789  0.0409
  127DMF     H5 2011   1.596   1.326   2.285  0.3802  0.4176  2.5858
  127DMF     H6 2012   1.717   1.254   2.374 -0.5421 -0.2963  0.1583
  127DMF     H7 2013   1.962   1.302   2.243  3.8832  0.9126  2.1873
  128DMF     C1 2014   2.975   1.891   2.846 -0.0821 -1.1091  0.6991
  128DMF     N1 2015   3.035   1.789   2.938 -0.4110 -0.1846  0.1680
  128DMF     C2 2016   3.148   1.708   2.886  0.3976  0.0683 -0.0366
  128DMF     C3 2017   2.998   1.778   3.070  0.1228 -0.0754 -0.6695
  128DMF     O1 2018   2.907   1.843   3.122 -0.5279  0.1672  0.6047
  128DMF     H1 2019   2.883   1.939   2.881  0.0073  0.5675 -1.2725
  128DMF     H2 2020   2.959   1.838   2.752 -0.1614 -0.3387  0.2762
  128DMF     H3 2021   3.039   1.981   2.848 -0.2801 -0.9310 -0.5206
  128DMF     H4 2022   3.237   1.759   2.926  0.3585 -0.3571  0.5810
  128DMF     H5 2023   3.142   1.716   2.776 -1.9590 -2.4157 -0.1386
  128DMF     H6 2024   3.141   1.602   2.912 -0.0224  0.0666 -0.1484
  128DMF     H7 2025   3.052   1.698   3.124 -0.8039  0.2331  0.7490
  129DMF     C1 2026   0.604   1.817   3.000  0.4937  0.3776 -0.1873
  129DMF     N1 2027   0.461   1.800   3.020 -0.1627 -0.3317 -0.4046
  129DMF     C2 2028   0.401   1.817   3.154  0.4186  0.0625 -0.5015
  129DMF     C3 2029   0.379   1.756   2.915  0.2225 -0.3038  0.4922
  129DMF     O1 2030   0.418   1.748   2.799 -0.7326  0.2399 -0.3253
  129DMF     H1 2031   0.649   1.824   2.901 -0.3495  3.7453 -0.4116
  129DMF     H2 2032   0.637   1.742   3.073 -3.2307  0.2567  1.5041
  129DMF     H3 2033   0.625   1.917   3.043  0.1456  1.0406 -1.5538
  129DMF     H4 2034   0.294   1.843   3.151  0.5406  0.6862  0.2544
  129DMF     H5 2035   0.448   1.892   3.218  2.3647 -1.5596 -0.0042
  129DMF     H6 2036   0.421   1.731   3.218  0.2070  1.7429  1.8669
  129DMF     H7 2037   0.277   1.736   2.952 -0.1458  0.6719  0.0256
  130DMF     C1 2038   1.512   3.265   3.659 -0.3859 -0.0019  0.0063
  130DMF     N1 2039   1.622   3.196   3.711  0.5259 -0.1385  0.2365
  130DMF     C2 2040   1.614   3.149   3.844 -0.5091  0.2475 -0.5528
  130DMF     C3 2041   1.735   3.170   3.636 -1.0052  0.3714 -0.3100
  130DMF     O1 2042   1.744   3.198   3.517 -0.2239 -0.4578 -1.5031
  130DMF     H1 2043   1.480   3.335   3.737  0.7451 -0.3987  0.8321
  130DMF     H2 2044   1.436   3.189   3.640 -0.0990 -0.8436  2.0857
  130DMF     H3 2045   1.535   3.321   3.567  1.3135  1.2345  1.1555
  130DMF     H4 2046   1.696   3.175   3.913  0.2239 -0.1068 -1.2883
  130DMF     H5 2047   1.595   3.041   3.842  1.3401 -0.0817 -2.1961
  130DMF     H6 2048   1.530   3.191   3.900 -0.0227  1.1467 -0.4920
  130DMF     H7 2049   1.816   3.117   3.689 -0.5053 -0.6935 -2.1016
  131DMF     C1 2050   2.216   0.111   2.429  0.1212  0.6030 -0.7280
  131DMF     N1 2051   2.302   0.100   2.304  0.0936 -0.1736  0.3644
  131DMF     C2 2052   2.293  -0.025   2.229  0.7729  0.9204 -0.0720
  131DMF     C3 2053   2.386   0.212   2.262  0.4178  0.1394  0.1511
  131DMF     O1 2054   2.406   0.311   2.334 -0.4324  0.0227  0.1870
  131DMF     H1 2055   2.279   0.119   2.519  0.1405 -0.9064 -0.6075
  131DMF     H2 2056   2.146   0.027   2.435  0.9775 -0.2058 -1.9055
  131DMF     H3 2057   2.157   0.203   2.437 -1.0551 -0.3079  1.7316
  131DMF     H4 2058   2.207  -0.019   2.160 -0.0801  1.1356  0.9986
  131DMF     H5 2059   2.283  -0.117   2.288  2.7853  0.2536 -0.7230
  131DMF     H6 2060   2.380  -0.040   2.165 -0.3677  1.0288 -1.6988
  131DMF     H7 2061   2.435   0.195   2.164 -2.1050  0.8592 -1.2618
  132DMF     C1 2062   2.285   2.359   1.537  0.7715  0.1849  0.2563
  132DMF     N1 2063   2.156   2.295   1.562 -0.0778  0.9366 -0.2453
  132DMF     C2 2064   2.039   2.381   1.551  0.1808  0.3094  0.6416
  132DMF     C3 2065   2.146   2.156   1.565  0.1424  1.3043 -0.2263
  132DMF     O1 2066   2.242   2.082   1.542  0.7447 -0.4791 -0.3845
  132DMF     H1 2067   2.344   2.303   1.464  0.7520  1.7820 -1.0207
  132DMF     H2 2068   2.341   2.377   1.630 -0.6426 -0.1334  1.1888
  132DMF     H3 2069   2.255   2.461   1.510  1.4421  1.7176  4.8821
  132DMF     H4 2070   2.021   2.452   1.633  0.7047  1.3111 -0.1077
  132DMF     H5 2071   1.950   2.317   1.543  1.9475 -2.3265  1.1838
  132DMF     H6 2072   2.051   2.439   1.459 -1.2850  1.5806  1.2528
  132DMF     H7 2073   2.048   2.113   1.594 -0.0896  1.4754 -0.7497
  133DMF     C1 2074   3.217   0.124   1.535  0.0198  0.2097  0.3185
  133DMF     N1 2075   3.347   0.190   1.530  0.0844  0.0166  0.1668
  133DMF     C2 2076   3.471   0.112   1.521 -0.2201  0.2999 -0.1182
  133DMF     C3 2077   3.357   0.330   1.566 -0.2113 -0.4480  0.0103
  133DMF     O1 2078   3.259   0.399   1.576  0.2765  0.1982 -0.4051
  133DMF     H1 2079   3.143   0.197   1.568  0.8121  1.0065  0.3590
  133DMF     H2 2080   3.217   0.044   1.610  2.3330  0.7117  0.8952
  133DMF     H3 2081   3.196   0.097   1.431 -0.1079 -0.6033  0.5497
  133DMF     H4 2082   3.550   0.154   1.458  1.3637 -3.8541 -1.0680
  133DMF     H5 2083   3.454   0.005   1.499  3.0736  0.0116 -1.5703
  133DMF     H6 2084   3.513   0.120   1.622  0.5434 -0.6859 -0.3485
  133DMF     H7 2085   3.460   0.369   1.570 -0.0229 -0.8415 -1.0114
  134DMF     C1 2086   0.536   2.318   1.292  0.5158 -0.0483 -0.2266
  134DMF     N1 2087   0.456   2.266   1.180 -0.8359 -0.2170  0.0281
  134DMF     C2 2088   0.421   2.123   1.188 -0.1184  0.8781 -0.1697
  134DMF     C3 2089   0.397   2.349   1.088 -0.1381 -0.5535  0.1541
  134DMF     O1 2090   0.405   2.469   1.088  0.6464 -0.3799  0.1454
  134DMF     H1 2091   0.589   2.234   1.336  0.6833  0.5960  0.8135
  134DMF     H2 2092   0.459   2.349   1.365  2.3014 -0.3844  1.8357
  134DMF     H3 2093   0.604   2.396   1.255 -1.8255  1.9375 -0.4933
  134DMF     H4 2094   0.516   2.068   1.189  0.0766  1.2186  0.2657
  134DMF     H5 2095   0.361   2.099   1.100 -0.0651  0.2593 -0.0372
  134DMF     H6 2096   0.352   2.100   1.270  0.4117  0.9181  0.2945
  134DMF     H7 2097   0.334   2.298   1.012 -0.4932  1.5625 -1.0215
  135DMF     C1 2098   3.174   1.129   0.164 -0.1116  0.3352 -0.4253
  135DMF     N1 2099   3.062   1.066   0.231  0.0103  0.2376 -1.0027
  135DMF     C2 2100   2.987   1.135   0.334  0.0048 -0.1680  0.1651
  135DMF     C3 2101   3.030   0.936   0.204  0.4797  0.0310 -0.1447
  135DMF     O1 2102   3.098   0.867   0.133  0.2171  0.0930 -0.2414
  135DMF     H1 2103   3.259   1.061   0.175 -0.7006 -0.2492  0.5975
  135DMF     H2 2104   3.200   1.227   0.207 -1.0011  0.2268  0.4003
  135DMF     H3 2105   3.140   1.152   0.062  0.2296  0.8779 -0.4188
  135DMF     H4 2106   2.985   1.073   0.425 -0.5043  0.1346  0.3654
  135DMF     H5 2107   2.881   1.133   0.304 -0.0232  0.3698  0.2197
  135DMF     H6 2108   3.030   1.232   0.359  1.7253 -0.5698 -1.1486
  135DMF     H7 2109   2.944   0.895   0.261  0.5614  0.0701  0.0086
  136DMF     C1 2110   0.986   0.319   3.718 -0.0583 -0.1348  0.4188
  136DMF     N1 2111   1.069   0.323   3.841 -0.2458  0.5038  0.3889
  136DMF     C2 2112   0.998   0.277   3.960  0.2999 -0.5120 -0.3285
  136DMF     C3 2113   1.200   0.364   3.840  0.2286 -0.2732  0.6612
  136DMF     O1 2114   1.257   0.376   3.732  0.0073 -0.1169  0.0373
  136DMF     H1 2115   0.882   0.330   3.753 -0.4084  0.1574 -0.6825
  136DMF     H2 2116   0.999   0.228   3.659 -1.6031  0.5536 -1.0353
  136DMF     H3 2117   0.991   0.408   3.654 -3.0054 -1.6628 -2.1150
  136DMF     H4 2118   1.051   0.302   4.053 -1.3577  0.9387  0.2619
  136DMF     H5 2119   0.978   0.170   3.951 -1.2018 -0.1650 -1.1876
  136DMF     H6 2120   0.909   0.338   3.980  1.7192  1.7497 -0.7657
  136DMF     H7 2121   1.252   0.365   3.938  3.8766  0.4508 -1.1993
  137DMF     C1 2122   1.877   3.153   0.527  0.0692  0.3127  0.5603
  137DMF     N1 2123   1.948   3.269   0.578  0.0469 -0.2753  0.7459
  137DMF     C2 2124   2.011   3.359   0.481  0.2161 -0.1618 -0.3048
  137DMF     C3 2125   1.941   3.316   0.715  0.2530  0.7903  0.1080
  137DMF     O1 2126   1.896   3.247   0.808 -0.1848  0.1689 -0.0934
  137DMF     H1 2127   1.813   3.113   0.606  1.9020  2.1799  3.0997
  137DMF     H2 2128   1.938   3.070   0.490 -2.2075 -0.3643 -1.8261
  137DMF     H3 2129   1.824   3.176   0.434  2.6019  1.9571 -0.5512
  137DMF     H4 2130   1.957   3.358   0.385 -0.6049  0.7369  0.1382
  137DMF     H5 2131   2.115   3.331   0.460  0.6997  0.2380  1.4246
  137DMF     H6 2132   2.012   3.463   0.514 -0.7975 -0.2920  0.1763
  137DMF     H7 2133   1.975   3.421   0.720 -0.6551  1.0148  2.1586
  138DMF     C1 2134   1.865   1.279   0.096  0.2687  0.6392 -0.3037
  138DMF     N1 2135   1.801   1.270   0.227  0.3916  0.2356  0.1374
  138DMF     C2 2136   1.855   1.163   0.317  0.4093  0.8689  0.2650
  138DMF     C3 2137   1.683   1.333   0.254  0.4717  0.7342  0.5544
  138DMF     O1 2138   1.629   1.408   0.178 -0.1798  0.5649 -0.4742
  138DMF     H1 2139   1.968   1.318   0.100  0.6027 -0.3196  0.7133
  138DMF     H2 2140   1.805   1.334   0.023 -0.9506  0.4729  0.5634
  138DMF     H3 2141   1.872   1.176   0.058 -2.4670  0.5894 -0.7514
  138DMF     H4 2142   1.964   1.173   0.317  0.4684  0.2182  1.0986
  138DMF     H5 2143   1.841   1.064   0.272 -1.4786  0.2921  2.0865
  138DMF     H6 2144   1.817   1.165   0.419 -1.0195 -0.6607 -0.2094
  138DMF     H7 2145   1.641   1.300   0.351 -0.1848  3.2019  1.1355
  139DMF     C1 2146   1.535   2.965   0.599  0.5079  0.7352 -0.3441
  139DMF     N1 2147   1.488   2.872   0.502 -0.0913  0.0594 -0.5550
  139DMF     C2 2148   1.468   2.918   0.365 -0.7718 -0.0084 -0.2232
  139DMF     C3 2149   1.499   2.731   0.527 -1.0973 -0.3680  0.3654
  139DMF     O1 2150   1.528   2.676   0.626  0.0484 -0.1877  0.0407
  139DMF     H1 2151   1.644   2.965   0.609  0.4826  0.6140 -0.0487
  139DMF     H2 2152   1.495   2.942   0.698  3.6657 -0.5118  0.7064
  139DMF     H3 2153   1.493   3.064   0.574  0.3642  1.0717  1.1446
  139DMF     H4 2154   1.436   2.836   0.301 -1.2734 -0.8684  1.1001
  139DMF     H5 2155   1.567   2.940   0.323 -0.6376  0.7505  0.4627
  139DMF     H6 2156   1.407   3.009   0.358  0.3474  0.7026 -0.9145
  139DMF     H7 2157   1.476   2.672   0.436 -0.8363  1.8356 -1.1728
  140DMF     C1 2158   3.328   3.351   2.241 -0.6851 -0.0390  0.3874
  140DMF     N1 2159   3.383   3.226   2.290 -0.7878 -0.4431 -0.6810
  140DMF     C2 2160   3.519   3.177   2.251 -0.5203  0.1252 -0.6628
  140DMF     C3 2161   3.314   3.143   2.378 -0.4335 -0.1168 -0.3080
  140DMF     O1 2162   3.203   3.170   2.419  0.1600 -0.1060  0.0610
  140DMF     H1 2163   3.254   3.315   2.168  1.2615 -0.7033 -1.3049
  140DMF     H2 2164   3.404   3.415   2.196  0.6990 -0.8248  1.5683
  140DMF     H3 2165   3.293   3.408   2.328 -1.1021 -2.9150  2.1987
  140DMF     H4 2166   3.562   3.236   2.169 -0.3242 -1.3030 -1.6126
  140DMF     H5 2167   3.512   3.075   2.209  3.6775 -0.9461  0.9919
  140DMF     H6 2168   3.573   3.175   2.346 -1.4232  0.3394 -0.1395
  140DMF     H7 2169   3.365   3.046   2.395 -2.6421 -1.5034 -1.3787
  141DMF     C1 2170   2.001   2.271   2.254  0.4622 -0.2057 -0.0293
  141DMF     N1 2171   2.130   2.336   2.272 -0.5237 -0.1924 -0.2837
  141DMF     C2 2172   2.244   2.256   2.242  0.7661  0.1047 -0.4272
  141DMF     C3 2173   2.143   2.472   2.302  0.0800 -0.1682 -0.2225
  141DMF     O1 2174   2.041   2.539   2.310  0.3944  0.0525 -0.0952
  141DMF     H1 2175   2.009   2.162   2.238 -0.4163 -0.0996 -1.2700
  141DMF     H2 2176   1.957   2.316   2.164 -0.6944 -2.3127 -0.5643
  141DMF     H3 2177   1.937   2.296   2.339  0.3038  1.1819 -0.5551
  141DMF     H4 2178   2.210   2.152   2.228 -1.0887  0.4156  1.5268
  141DMF     H5 2179   2.311   2.261   2.328 -0.0898 -1.2071  0.3386
  141DMF     H6 2180   2.298   2.296   2.155 -0.5341 -0.5915 -1.5959
  141DMF     H7 2181   2.242   2.520   2.302 -0.2382  0.5118 -0.7228
  142DMF     C1 2182   1.175   1.762   1.572 -0.5675  0.0764 -0.7853
  142DMF     N1 2183   1.148   1.621   1.563  0.3768 -0.0856 -0.0286
  142DMF     C2 2184   1.267   1.527   1.573 -0.2396 -0.2624  0.3470
  142DMF     C3 2185   1.021   1.577   1.585 -0.2141  0.4632 -0.1496
  142DMF     O1 2186   0.931   1.656   1.587 -0.2355 -0.3304  0.2092
  142DMF     H1 2187   1.112   1.813   1.645 -1.9254 -1.6594 -0.6891
  142DMF     H2 2188   1.143   1.799   1.473 -2.0685 -0.3587 -0.4740
  142DMF     H3 2189   1.279   1.791   1.590 -0.1677 -3.1921  2.8385
  142DMF     H4 2190   1.306   1.500   1.474 -1.1535  0.8685 -0.3384
  142DMF     H5 2191   1.241   1.430   1.616  1.3000 -1.2951 -1.0000
  142DMF     H6 2192   1.354   1.557   1.633  0.2075 -0.4967 -0.1805
  142DMF     H7 2193   1.016   1.466   1.589 -2.7620  0.5791  1.6216
  143DMF     C1 2194   1.394   0.571   0.409 -0.1058 -0.1636 -0.3911
  143DMF     N1 2195   1.480   0.513   0.516 -0.4398  0.0837  0.3421
  143DMF     C2 2196   1.597   0.430   0.473 -0.2257  0.8938  0.2790
  143DMF     C3 2197   1.447   0.525   0.652 -0.2168 -1.0645 -0.4386
  143DMF     O1 2198   1.357   0.591   0.701  0.5526  0.0499  0.0263
  143DMF     H1 2199   1.325   0.494   0.373 -0.5958 -0.3697  0.9344
  143DMF     H2 2200   1.447   0.611   0.322 -1.8624 -0.8264 -1.7924
  143DMF     H3 2201   1.336   0.648   0.460  0.3544  0.7382 -1.2192
  143DMF     H4 2202   1.596   0.430   0.363  1.0668 -1.4496  0.2545
  143DMF     H5 2203   1.600   0.326   0.508  0.5948  0.3952 -1.2312
  143DMF     H6 2204   1.690   0.485   0.492 -1.0242  3.0704 -1.8059
  143DMF     H7 2205   1.512   0.462   0.717 -1.7706 -2.0806  0.1613
  144DMF     C1 2206   0.012   1.645   0.067 -0.2304 -0.3805  0.4079
  144DMF     N1 2207   0.006   1.782   0.008 -0.0382 -0.2339  0.4208
  144DMF     C2 2208   0.084   1.893   0.075 -0.4204 -0.1052  0.0200
  144DMF     C3 2209  -0.074   1.790  -0.110 -0.5292 -0.2016  0.3700
  144DMF     O1 2210  -0.135   1.692  -0.150 -0.4170  0.9155 -0.3762
  144DMF     H1 2211   0.040   1.559   0.006 -0.0170 -1.2687  1.7286
  144DMF     H2 2212  -0.083   1.630   0.119 -2.2015  2.2554 -2.2867
  144DMF     H3 2213   0.084   1.651   0.150 -0.7809  0.7202  0.8166
  144DMF     H4 2214   0.163   1.931   0.009 -0.3407 -0.1206  0.1063
  144DMF     H5 2215   0.121   1.852   0.169  0.1141 -2.9393 -1.3698
  144DMF     H6 2216   0.024   1.979   0.108 -0.7609 -1.1051  2.0936
  144DMF     H7 2217  -0.078   1.892  -0.153  0.5494  0.5876  2.0658
  145DMF     C1 2218   1.852   1.223   3.438 -0.3180  0.0740 -0.1740
  145DMF     N1 2219   1.964   1.269   3.354 -0.1295 -0.3038  0.9303
  145DMF     C2 2220   2.091   1.206   3.387  0.4036  0.8974 -0.0204
  145DMF     C3 2221   1.948   1.373   3.265  0.0977  0.3971 -0.0156
  145DMF     O1 2222   1.844   1.433   3.255 -0.5961 -0.2428  0.0894
  145DMF     H1 2223   1.828   1.117   3.429  0.7239 -0.2021  0.2552
  145DMF     H2 2224   1.764   1.281   3.407 -0.6836 -1.0214 -1.1924
  145DMF     H3 2225   1.877   1.254   3.540  2.7967  1.4257 -1.3017
  145DMF     H4 2226   2.176   1.275   3.382  1.4037 -0.3861 -0.7600
  145DMF     H5 2227   2.112   1.115   3.330  1.0842  0.0970  1.4841
  145DMF     H6 2228   2.085   1.185   3.495  3.1799 -0.0185 -0.0137
  145DMF     H7 2229   2.044   1.386   3.212  1.2286  0.0523  1.9068
  146DMF     C1 2230   2.760   1.234   0.009  0.6834  0.5440 -0.3863
  146DMF     N1 2231   2.733   1.258  -0.134 -0.0886  0.2889 -0.5310
  146DMF     C2 2232   2.761   1.390  -0.184  0.0987 -0.0216  0.8341
  146DMF     C3 2233   2.691   1.153  -0.219 -0.2028  0.0327  0.7021
  146DMF     O1 2234   2.670   1.037  -0.181  0.1908 -0.8039 -1.0211
  146DMF     H1 2235   2.816   1.140   0.017  2.6201  1.6741 -0.5740
  146DMF     H2 2236   2.673   1.214   0.074  1.5551 -1.3662  0.2327
  146DMF     H3 2237   2.815   1.317   0.053 -1.0347  1.6985 -0.3698
  146DMF     H4 2238   2.843   1.399  -0.256  1.9416  1.6772  3.0882
  146DMF     H5 2239   2.776   1.463  -0.104 -0.3496  1.0034  0.0107
  146DMF     H6 2240   2.676   1.420  -0.248  1.2921 -1.3353 -1.4353
  146DMF     H7 2241   2.677   1.187  -0.323  0.0975  1.9856  1.2841
  147DMF     C1 2242   2.394   3.418   1.499  0.3448  0.4004  0.2948
  147DMF     N1 2243   2.244   3.410   1.521  0.0455  0.4013  0.3480
  147DMF     C2 2244   2.186   3.275   1.511 -0.4694  0.7047 -0.0244
  147DMF     C3 2245   2.154   3.519   1.552 -0.2931  0.3134 -0.2793
  147DMF     O1 2246   2.194   3.637   1.559  0.2702  0.2636  0.4532
  147DMF     H1 2247   2.439   3.479   1.579  0.9030 -2.0503  1.9177
  147DMF     H2 2248   2.416   3.472   1.406  1.5358  2.2967  1.6435
  147DMF     H3 2249   2.426   3.313   1.492 -0.9829  0.0681 -1.0002
  147DMF     H4 2250   2.200   3.224   1.607 -0.1539 -0.4943 -0.7123
  147DMF     H5 2251   2.230   3.221   1.427 -0.5501  0.2079  0.2508
  147DMF     H6 2252   2.078   3.287   1.490 -0.4649  1.3420  0.2833
  147DMF     H7 2253   2.049   3.488   1.566  0.0605 -1.1877 -0.8741
  148DMF     C1 2254   2.836   3.094   0.145  0.2855  0.8236 -0.2678
  148DMF     N1 2255   2.742   3.150   0.046 -0.7857  0.0365 -0.3752
  148DMF     C2 2256   2.602   3.108   0.049  0.5802 -0.5701 -0.2183
  148DMF     C3 2257   2.778   3.251  -0.039  0.1402  1.1150 -0.0326
  148DMF     O1 2258   2.888   3.300  -0.033 -0.1612 -0.3312  0.3055
  148DMF     H1 2259   2.827   2.985   0.138 -0.8828  1.0029 -1.7408
  148DMF     H2 2260   2.808   3.114   0.249  0.3835 -0.9352  0.1136
  148DMF     H3 2261   2.943   3.111   0.129  0.1862 -1.4620 -3.8155
  148DMF     H4 2262   2.554   3.110   0.147 -2.1155 -3.7449 -1.3716
  148DMF     H5 2263   2.599   3.000   0.034  0.9080 -0.0174 -5.0891
  148DMF     H6 2264   2.537   3.161  -0.022  0.8583 -2.2970 -1.8041
  148DMF     H7 2265   2.696   3.290  -0.103 -0.5192  1.9325  1.2999
  149DMF     C1 2266   1.501   2.064   1.111  0.4570 -0.4472 -0.1932
  149DMF     N1 2267   1.412   2.163   1.052  1.1189 -0.0232  0.3761
  149DMF     C2 2268   1.418   2.302   1.099  0.2675  0.1439  0.2737
  149DMF     C3 2269   1.315   2.128   0.958  0.3566  0.6101  0.3649
  149DMF     O1 2270   1.290   2.016   0.919  0.4279 -0.0572  0.4136
  149DMF     H1 2271   1.579   2.040   1.037 -0.6701  0.1267 -1.6048
  149DMF     H2 2272   1.449   1.974   1.145  0.8106 -0.9725 -1.0201
  149DMF     H3 2273   1.533   2.118   1.201 -0.0100  1.8965 -1.4069
  149DMF     H4 2274   1.323   2.338   1.139  1.0388  2.6275 -0.0537
  149DMF     H5 2275   1.442   2.373   1.019  0.3583 -2.3156 -1.9762
  149DMF     H6 2276   1.494   2.317   1.177 -1.9257  1.3288  2.2317
  149DMF     H7 2277   1.262   2.218   0.922  0.4979  0.1044 -1.1422
  150DMF     C1 2278   1.914   0.755   1.532  0.3297 -0.6517  0.4102
  150DMF     N1 2279   1.824   0.649   1.481 -0.1105  0.3262 -0.9283
  150DMF     C2 2280   1.843   0.512   1.517  0.4577 -0.3165  0.2650
  150DMF     C3 2281   1.711   0.679   1.404  0.3537 -0.4307  0.4682
  150DMF     O1 2282   1.689   0.793   1.367  0.4299 -0.6990  0.5328
  150DMF     H1 2283   1.963   0.812   1.452  2.1121 -2.8708 -0.1206
  150DMF     H2 2284   1.985   0.709   1.602 -0.0963 -2.1418 -0.1050
  150DMF     H3 2285   1.851   0.821   1.593  1.7334 -1.8938  3.2932
  150DMF     H4 2286   1.871   0.506   1.623 -0.6869  2.2593  0.7315
  150DMF     H5 2287   1.922   0.472   1.452 -2.3608  0.3069 -3.7038
  150DMF     H6 2288   1.750   0.453   1.517  0.9047 -1.0301 -0.5666
  150DMF     H7 2289   1.642   0.598   1.375  0.3891 -0.8237  1.4676
  151DMF     C1 2290   1.420   3.041   2.301  0.4450  0.1021  0.6975
  151DMF     N1 2291   1.285   3.069   2.258  0.0456  0.4364  0.0822
  151DMF     C2 2292   1.245   3.200   2.225  0.3765 -0.4299  0.3629
  151DMF     C3 2293   1.192   2.964   2.252  0.4374  0.6154  0.1929
  151DMF     O1 2294   1.240   2.850   2.251 -0.3201 -0.4626 -0.2010
  151DMF     H1 2295   1.416   2.991   2.398 -0.3558 -0.3759  0.4279
  151DMF     H2 2296   1.477   3.134   2.303 -1.7834  1.5842 -1.3676
  151DMF     H3 2297   1.456   2.973   2.222 -0.0906 -0.3392  0.8256
  151DMF     H4 2298   1.146   3.205   2.178  1.3987  0.4703 -1.8023
  151DMF     H5 2299   1.326   3.232   2.157 -0.7122 -0.3489 -0.9194
  151DMF     H6 2300   1.238   3.261   2.315  1.0179 -2.0211  1.5143
  151DMF     H7 2301   1.088   2.996   2.234  0.8115  1.1260 -1.1385
  152DMF     C1 2302   3.107   1.166   2.416 -0.0508 -0.1171 -0.1436
  152DMF     N1 2303   3.001   1.188   2.305 -0.1349  0.7080  0.1028
  152DMF     C2 2304   2.946   1.317   2.287 -0.5502 -0.3435  0.8156
  152DMF     C3 2305   2.941   1.074   2.244  0.3241 -0.6980  0.7295
  152DMF     O1 2306   2.968   0.955   2.273  0.2212 -0.0378 -0.1295
  152DMF     H1 2307   3.173   1.252   2.434 -2.3234  2.0475 -1.7569
  152DMF     H2 2308   3.181   1.088   2.395  0.7284  1.1270 -2.0770
  152DMF     H3 2309   3.061   1.153   2.515 -1.3567  1.6022 -0.5035
  152DMF     H4 2310   3.004   1.380   2.218 -0.5341 -2.7245 -1.4219
  152DMF     H5 2311   2.939   1.373   2.381  0.1226 -0.8180  1.1481
  152DMF     H6 2312   2.841   1.313   2.255 -0.5134 -0.7870  0.7480
  152DMF     H7 2313   2.859   1.097   2.174 -0.8761 -2.0226  1.6927
  153DMF     C1 2314   0.993   1.315   0.355  0.0454 -1.1607  0.2384
  153DMF     N1 2315   0.964   1.267   0.496 -0.0401  0.3828 -0.1316
  153DMF     C2 2316   0.885   1.353   0.588  0.1835 -0.4137  0.3909
  153DMF     C3 2317   1.024   1.144   0.548  0.4478 -0.2619  0.2125
  153DMF     O1 2318   1.099   1.068   0.485 -0.4845 -0.2219 -0.3651
  153DMF     H1 2319   1.095   1.286   0.325  0.6014  1.5638 -0.6523
  153DMF     H2 2320   0.977   1.423   0.355 -0.5088 -1.2449 -0.8433
  153DMF     H3 2321   0.924   1.265   0.287  0.4229 -0.7670 -0.4407
  153DMF     H4 2322   0.800   1.403   0.541  2.0342  0.5748 -2.0181
  153DMF     H5 2323   0.955   1.415   0.646 -0.4962 -0.2362  1.0314
  153DMF     H6 2324   0.842   1.283   0.660 -0.0803 -1.0195 -0.3535
  153DMF     H7 2325   0.993   1.137   0.654  3.5752 -1.9039  1.0876
  154DMF     C1 2326   3.134   2.969   3.703  0.4571 -0.1939 -0.0910
  154DMF     N1 2327   3.090   2.863   3.792  0.1704 -0.6054  0.5989
  154DMF     C2 2328   2.986   2.768   3.738  0.4660  0.7857 -0.3704
  154DMF     C3 2329   3.142   2.850   3.926 -0.5939 -0.3416 -0.1684
  154DMF     O1 2330   3.239   2.913   3.964  0.1077  0.2640  0.6601
  154DMF     H1 2331   3.053   3.043   3.701  2.0034  1.5396 -1.0317
  154DMF     H2 2332   3.147   2.932   3.601  2.8420  2.1921 -0.7214
  154DMF     H3 2333   3.223   3.022   3.740  1.6267 -1.8036 -0.5322
  154DMF     H4 2334   3.022   2.665   3.750  1.3356  1.0568 -0.6212
  154DMF     H5 2335   2.973   2.784   3.631 -0.1384 -1.3025 -0.6421
  154DMF     H6 2336   2.891   2.783   3.790 -1.8363 -1.1767 -3.8340
  154DMF     H7 2337   3.078   2.787   3.990  0.1640 -3.4886 -2.3525
  155DMF     C1 2338   2.619   0.864   0.159 -0.1053 -0.2493 -0.5685
  155DMF     N1 2339   2.529   0.846   0.275  0.9805 -0.6515  0.4911
  155DMF     C2 2340   2.434   0.735   0.271 -0.2544  0.5830  0.7420
  155DMF     C3 2341   2.567   0.923   0.393  0.4916  0.2195 -0.1491
  155DMF     O1 2342   2.663   0.996   0.392  0.1599 -0.7408  0.3277
  155DMF     H1 2343   2.723   0.842   0.187 -0.9741 -3.2206  0.5728
  155DMF     H2 2344   2.622   0.969   0.130 -0.3519 -0.6128 -1.9192
  155DMF     H3 2345   2.580   0.803   0.077  0.5074  0.4178 -1.3643
  155DMF     H4 2346   2.475   0.640   0.308  0.0495 -0.1853 -1.4959
  155DMF     H5 2347   2.407   0.720   0.166 -0.5746 -0.5427  0.9838
  155DMF     H6 2348   2.335   0.753   0.314 -0.8908  0.6199 -0.7187
  155DMF     H7 2349   2.499   0.900   0.477  2.0629 -0.3026  0.9824
  156DMF     C1 2350   0.393   0.781   3.677 -0.2770  0.3300 -0.6540
  156DMF     N1 2351   0.495   0.827   3.578 -0.2297  0.4784 -0.5491
  156DMF     C2 2352   0.447   0.884   3.450  0.4026 -0.3674  0.0352
  156DMF     C3 2353   0.626   0.782   3.591 -0.3590 -0.7206  0.1891
  156DMF     O1 2354   0.665   0.727   3.693 -0.5866 -0.1014 -0.0463
  156DMF     H1 2355   0.315   0.859   3.681 -2.0654 -1.4605  0.0774
  156DMF     H2 2356   0.444   0.777   3.775  3.8702  2.2051 -2.5983
  156DMF     H3 2357   0.337   0.691   3.652  0.2011 -0.7573  1.9914
  156DMF     H4 2358   0.371   0.962   3.463 -0.6399 -0.5655 -4.3608
  156DMF     H5 2359   0.413   0.806   3.382 -2.0335  1.6911 -1.1829
  156DMF     H6 2360   0.535   0.930   3.404  0.5394 -1.2489 -0.6027
  156DMF     H7 2361   0.682   0.805   3.499 -3.1418  0.5015 -1.2699
  157DMF     C1 2362   2.630   2.449   0.343 -0.3103 -0.1802 -0.1244
  157DMF     N1 2363   2.608   2.492   0.204  0.0092 -0.3747 -0.1290
  157DMF     C2 2364   2.723   2.519   0.111  0.4856  0.8948 -0.1727
  157DMF     C3 2365   2.482   2.505   0.152 -0.0642 -0.3141  0.5738
  157DMF     O1 2366   2.386   2.480   0.221  0.8270  0.3491 -0.0456
  157DMF     H1 2367   2.731   2.411   0.365 -0.9319 -1.3901  0.6838
  157DMF     H2 2368   2.572   2.359   0.367  0.6108 -1.2804 -1.8732
  157DMF     H3 2369   2.606   2.517   0.426 -0.4423 -2.0025  1.3471
  157DMF     H4 2370   2.701   2.498   0.005 -0.0262  0.4267  0.0202
  157DMF     H5 2371   2.788   2.435   0.138 -1.1546 -0.7243 -1.0905
  157DMF     H6 2372   2.771   2.615   0.131 -0.5755  1.2810  0.5958
  157DMF     H7 2373   2.472   2.551   0.052 -1.4526 -0.7957  0.4759
  158DMF     C1 2374   1.741   2.728   0.911  0.5825 -0.3625 -0.0151
  158DMF     N1 2375   1.667   2.794   1.035  0.4710 -0.4633  1.5088
  158DMF     C2 2376   1.689   2.942   1.063 -0.1392 -0.1380 -0.0547
  158DMF     C3 2377   1.584   2.711   1.116 -0.1262 -0.3917  0.1342
  158DMF     O1 2378   1.564   2.593   1.086 -0.0699 -0.1426 -0.4292
  158DMF     H1 2379   1.765   2.623   0.931  1.7985 -0.4162 -1.6312
  158DMF     H2 2380   1.837   2.772   0.882 -0.6986  1.2948 -1.8752
  158DMF     H3 2381   1.679   2.704   0.824  1.2773 -0.4472 -0.4941
  158DMF     H4 2382   1.592   2.983   1.094  0.5918  0.8408  0.9744
  158DMF     H5 2383   1.716   2.999   0.973 -0.7822  2.6105  1.4239
  158DMF     H6 2384   1.776   2.954   1.129 -0.0825  0.3395 -0.2079
  158DMF     H7 2385   1.546   2.765   1.204 -1.5844  0.4203 -0.9601
  159DMF     C1 2386   2.666   1.950   2.681  0.4566 -0.5027  0.0104
  159DMF     N1 2387   2.579   2.071   2.678 -0.6751  0.1784 -0.0011
  159DMF     C2 2388   2.446   2.044   2.622  0.2899 -0.3399  0.8693
  159DMF     C3 2389   2.614   2.189   2.721  0.2760  0.3591 -0.1176
  159DMF     O1 2390   2.722   2.206   2.779  0.0902 -0.2674 -0.7521
  159DMF     H1 2391   2.639   1.869   2.611  0.1135 -0.3382 -0.0453
  159DMF     H2 2392   2.671   1.908   2.782 -1.5666  0.9029  0.7199
  159DMF     H3 2393   2.769   1.970   2.648  1.2052 -0.9016  2.0649
  159DMF     H4 2394   2.432   2.082   2.520  1.1906 -0.5462  0.6732
  159DMF     H5 2395   2.371   2.094   2.685 -0.3679 -0.1658 -0.0256
  159DMF     H6 2396   2.428   1.936   2.624 -0.3537 -0.3131 -1.6303
  159DMF     H7 2397   2.532   2.259   2.698 -0.2537  0.2991  1.5050
  160DMF     C1 2398   2.457   1.498   3.241  0.2983 -0.2782 -0.1050
  160DMF     N1 2399   2.563   1.598   3.259 -0.2039 -0.3634  0.2071
  160DMF     C2 2400   2.525   1.728   3.322  0.5414 -0.7997  0.1297
  160DMF     C3 2401   2.692   1.569   3.213  0.2731 -0.4498 -0.0034
  160DMF     O1 2402   2.715   1.462   3.167  0.3871 -0.0610 -0.2478
  160DMF     H1 2403   2.480   1.417   3.310  0.0247 -2.2221 -2.2179
  160DMF     H2 2404   2.457   1.460   3.138 -0.8962 -0.0157 -0.2162
  160DMF     H3 2405   2.358   1.545   3.250 -0.1044 -1.1313 -0.0532
  160DMF     H4 2406   2.481   1.714   3.422  2.4100 -0.3317  1.0381
  160DMF     H5 2407   2.444   1.769   3.260  0.5884 -0.8862  0.0138
  160DMF     H6 2408   2.615   1.790   3.315 -0.4272  1.0137  2.6191
  160DMF     H7 2409   2.763   1.652   3.232  3.0151 -2.3873 -1.3124
  161DMF     C1 2410   1.859   1.967   0.922  0.6181  0.4532  0.8341
  161DMF     N1 2411   1.817   1.910   0.794  0.1343 -0.7499 -0.3908
  161DMF     C2 2412   1.698   1.969   0.731 -0.1987 -0.1893  0.0693
  161DMF     C3 2413   1.909   1.843   0.720 -0.1626  0.5243 -0.3900
  161DMF     O1 2414   2.017   1.799   0.755  0.0878 -0.1830  0.0228
  161DMF     H1 2415   1.819   1.909   1.007  1.4394 -0.2382  0.7559
  161DMF     H2 2416   1.818   2.068   0.930 -0.0092  0.3335 -0.7650
  161DMF     H3 2417   1.966   1.984   0.938  1.0191 -1.3967  0.2547
  161DMF     H4 2418   1.614   2.004   0.792 -0.6089  0.4839 -0.8627
  161DMF     H5 2419   1.665   1.897   0.655  0.3044 -0.1098 -0.2325
  161DMF     H6 2420   1.713   2.061   0.673  0.5766 -2.5976 -3.7234
  161DMF     H7 2421   1.873   1.840   0.615  1.3860  0.5592 -0.9248
  162DMF     C1 2422   2.907   3.359   1.531 -0.1065 -0.0422 -0.5759
  162DMF     N1 2423   2.892   3.211   1.509 -0.1494  0.1183  0.1476
  162DMF     C2 2424   2.756   3.156   1.484 -0.6826 -0.8238 -0.3170
  162DMF     C3 2425   3.005   3.126   1.520 -0.3061 -0.0043 -0.4950
  162DMF     O1 2426   3.110   3.152   1.570 -0.5759  0.1778 -0.5677
  162DMF     H1 2427   2.944   3.415   1.444 -0.9861 -1.7177 -2.0660
  162DMF     H2 2428   2.985   3.367   1.608 -0.4202  0.2862 -0.2860
  162DMF     H3 2429   2.817   3.405   1.575  0.3388 -0.1488  0.4697
  162DMF     H4 2430   2.761   3.062   1.541 -0.7793 -0.9127 -0.4534
  162DMF     H5 2431   2.743   3.122   1.380  3.5453  2.4284 -2.0672
  162DMF     H6 2432   2.674   3.224   1.509  0.0912 -0.5907  1.6562
  162DMF     H7 2433   2.975   3.021   1.500 -1.2443 -0.0301  0.9879
  163DMF     C1 2434   2.047   2.631   1.112 -0.2818 -0.1688  0.3126
  163DMF     N1 2435   2.145   2.539   1.044  0.4450  0.6332 -0.0898
  163DMF     C2 2436   2.277   2.518   1.108 -0.4733 -0.2032  0.3799
  163DMF     C3 2437   2.126   2.495   0.908  0.1470 -0.0470  0.2158
  163DMF     O1 2438   2.028   2.512   0.838  0.1002 -0.2462  0.2601
  163DMF     H1 2439   1.984   2.675   1.033  2.0764 -0.2982 -1.6965
  163DMF     H2 2440   2.090   2.708   1.176 -0.8237 -0.1392  0.6477
  163DMF     H3 2441   1.991   2.569   1.183  0.2611 -0.9603  0.0570
  163DMF     H4 2442   2.349   2.483   1.032  0.0172  1.7402 -0.0885
  163DMF     H5 2443   2.258   2.441   1.184 -1.5180  0.5304  0.8620
  163DMF     H6 2444   2.320   2.612   1.145 -3.2332  0.7205  1.3271
  163DMF     H7 2445   2.207   2.439   0.857 -1.1322 -1.3693 -0.4041
  164DMF     C1 2446   0.133   2.994   2.829  0.5266 -0.3789  0.2087
  164DMF     N1 2447   0.197   3.039   2.702  0.2624 -0.8251 -0.6906
  164DMF     C2 2448   0.138   3.159   2.644 -0.0982 -0.4932  0.5770
  164DMF     C3 2449   0.319   2.984   2.663 -0.1498 -0.4540  0.4340
  164DMF     O1 2450   0.369   2.892   2.725 -0.1824  0.8172 -0.2342
  164DMF     H1 2451   0.051   3.058   2.861  1.7276  1.0635  0.4591
  164DMF     H2 2452   0.206   2.992   2.910  0.0956  1.1866  0.6429
  164DMF     H3 2453   0.093   2.894   2.811 -1.8083  0.6939 -0.7329
  164DMF     H4 2454   0.029   3.149   2.658 -0.2725 -3.2258 -2.1402
  164DMF     H5 2455   0.162   3.145   2.538 -1.2437 -4.6887  0.7740
  164DMF     H6 2456   0.185   3.248   2.686  0.2116 -0.8659  1.0245
  164DMF     H7 2457   0.366   3.032   2.575 -2.0986 -1.5077 -1.2293
  165DMF     C1 2458   2.082   1.056   0.698 -0.0372  0.0377  0.0523
  165DMF     N1 2459   2.142   0.942   0.767 -0.6843  0.6145 -0.0545
  165DMF     C2 2460   2.287   0.908   0.738 -0.0159 -0.3545 -0.9042
  165DMF     C3 2461   2.070   0.862   0.863  0.4088  0.1124 -0.1492
  165DMF     O1 2462   1.955   0.889   0.887 -0.8602 -0.2774  0.5414
  165DMF     H1 2463   2.147   1.145   0.698 -1.6539  1.2599 -0.9621
  165DMF     H2 2464   1.993   1.100   0.744  0.1305 -0.4936  0.8813
  165DMF     H3 2465   2.069   1.031   0.592 -0.3795 -1.2407  0.3927
  165DMF     H4 2466   2.298   0.838   0.654 -0.7736 -0.8382 -0.6051
  165DMF     H5 2467   2.319   0.865   0.833  0.6533  1.7594 -0.1557
  165DMF     H6 2468   2.348   0.996   0.712  2.2250 -1.4368  0.5417
  165DMF     H7 2469   2.128   0.773   0.893  0.3267  0.3577  0.7514
  166DMF     C1 2470   2.941   0.252   3.340  0.8884  0.0185 -0.1842
  166DMF     N1 2471   2.982   0.306   3.471  0.3461 -0.0500 -0.3335
  166DMF     C2 2472   2.956   0.220   3.584  0.3803 -0.3808  0.2424
  166DMF     C3 2473   3.022   0.441   3.476 -0.2411 -0.5513 -0.6024
  166DMF     O1 2474   3.042   0.503   3.375 -0.0848 -0.6515  0.2226
  166DMF     H1 2475   2.960   0.318   3.255  0.2760  1.0339  0.4504
  166DMF     H2 2476   2.835   0.225   3.352  1.2908 -0.6311  2.0753
  166DMF     H3 2477   2.999   0.160   3.329  2.3459  1.0191 -1.0223
  166DMF     H4 2478   3.011   0.238   3.677 -2.7579 -2.8133  2.7023
  166DMF     H5 2479   2.982   0.122   3.544 -0.0095 -0.0846 -0.7377
  166DMF     H6 2480   2.852   0.225   3.619  0.7113  0.3257  1.1482
  166DMF     H7 2481   3.020   0.479   3.580 -2.2489 -0.1151 -0.7769
  167DMF     C1 2482   0.659   2.611   3.528 -0.1733 -0.1847  0.5814
  167DMF     N1 2483   0.553   2.598   3.625 -0.1466 -0.3474 -0.4691
  167DMF     C2 2484   0.436   2.512   3.579  0.1118  1.0620  0.2843
  167DMF     C3 2485   0.522   2.693   3.724 -0.4395 -1.4283 -0.1574
  167DMF     O1 2486   0.584   2.798   3.732  0.2795 -0.4259 -0.1238
  167DMF     H1 2487   0.680   2.521   3.470  0.5792  1.2299 -1.3824
  167DMF     H2 2488   0.746   2.633   3.591  0.3051 -1.9313  0.5506
  167DMF     H3 2489   0.634   2.702   3.471  0.8149 -0.4172 -0.2287
  167DMF     H4 2490   0.434   2.418   3.636  2.1412 -1.1789 -3.1491
  167DMF     H5 2491   0.440   2.475   3.475 -1.1723  1.2488  0.1677
  167DMF     H6 2492   0.348   2.574   3.596  0.2012  1.0289  0.8772
  167DMF     H7 2493   0.429   2.676   3.781 -0.6555 -1.4249 -0.5080
  168DMF     C1 2494   2.922   2.594   0.446  0.2602  0.4196 -0.2070
  168DMF     N1 2495   3.064   2.619   0.448 -0.1534  0.5734  0.2016
  168DMF     C2 2496   3.125   2.692   0.557  0.1159  0.1888 -0.2468
  168DMF     C3 2497   3.146   2.572   0.345  0.7578 -0.1439  0.2711
  168DMF     O1 2498   3.097   2.512   0.251  0.3755 -0.7556  0.5761
  168DMF     H1 2499   2.888   2.688   0.402  2.4462  1.3239 -0.0139
  168DMF     H2 2500   2.882   2.571   0.546  1.4894 -0.3798  0.1025
  168DMF     H3 2501   2.901   2.510   0.378  1.0447 -0.1491  0.2438
  168DMF     H4 2502   3.183   2.631   0.627 -2.1018 -1.6060  0.0672
  168DMF     H5 2503   3.054   2.752   0.615  2.1274  1.3927  1.0336
  168DMF     H6 2504   3.197   2.766   0.521 -0.5348  1.7885  1.6465
  168DMF     H7 2505   3.252   2.597   0.364  0.3965  0.4758  1.5683
  169DMF     C1 2506   2.949   1.953   0.245  0.4805  0.3717  0.2693
  169DMF     N1 2507   2.872   2.065   0.307  0.1633  0.1309 -0.4701
  169DMF     C2 2508   2.940   2.195   0.329  0.2191  0.2833  0.3798
  169DMF     C3 2509   2.738   2.046   0.347 -0.0535  0.3590  0.3479
  169DMF     O1 2510   2.676   1.937   0.333 -0.0572  0.1479  0.3764
  169DMF     H1 2511   3.041   1.986   0.195  0.9676 -0.5655  0.5381
  169DMF     H2 2512   2.883   1.902   0.173  1.6569  0.5793 -0.9848
  169DMF     H3 2513   2.978   1.899   0.336  0.4161  1.1337  0.7452
  169DMF     H4 2514   2.927   2.216   0.436 -2.7469 -1.3784  0.4159
  169DMF     H5 2515   2.890   2.276   0.275  0.8113 -0.0307 -0.6454
  169DMF     H6 2516   3.048   2.192   0.308  0.0539 -1.2351 -0.3310
  169DMF     H7 2517   2.695   2.138   0.390 -0.6842 -0.0840  0.6705
  170DMF     C1 2518   0.752   0.380   1.485  0.0953  0.1896 -0.5372
  170DMF     N1 2519   0.707   0.503   1.556 -0.1307 -0.2018 -0.0693
  170DMF     C2 2520   0.568   0.508   1.581 -0.1137 -0.1594 -0.3299
  170DMF     C3 2521   0.782   0.615   1.570 -0.2448  0.5499 -0.0986
  170DMF     O1 2522   0.897   0.613   1.549 -0.4662  0.1986 -0.8215
  170DMF     H1 2523   0.709   0.289   1.530  1.6418 -0.0000  0.5960
  170DMF     H2 2524   0.861   0.380   1.500  0.0261 -0.3105 -0.0155
  170DMF     H3 2525   0.719   0.391   1.381 -1.2249 -0.0029 -0.1508
  170DMF     H4 2526   0.513   0.527   1.488 -0.9473 -0.5816  0.0700
  170DMF     H5 2527   0.550   0.589   1.654  2.0626  2.2828 -2.4049
  170DMF     H6 2528   0.527   0.412   1.615  0.0425 -0.7278 -1.7454
  170DMF     H7 2529   0.728   0.704   1.608  0.4460  0.9143  0.0442
  171DMF     C1 2530   1.305   1.455   0.505 -0.0377 -0.1683  0.3304
  171DMF     N1 2531   1.405   1.534   0.427 -0.2190  0.4895 -0.2968
  171DMF     C2 2532   1.529   1.553   0.483 -0.0383  0.0728  0.2492
  171DMF     C3 2533   1.354   1.614   0.324  0.8042 -0.0996  0.1773
  171DMF     O1 2534   1.241   1.606   0.278  0.2721 -0.3909 -0.1047
  171DMF     H1 2535   1.264   1.515   0.588  0.2165  1.4322 -0.6773
  171DMF     H2 2536   1.353   1.363   0.539 -0.1998 -0.1115  0.7241
  171DMF     H3 2537   1.221   1.437   0.437  2.3656 -3.1877 -1.9655
  171DMF     H4 2538   1.558   1.463   0.538  1.3155  0.9824  1.0693
  171DMF     H5 2539   1.539   1.637   0.553  2.0293 -0.2562  0.4045
  171DMF     H6 2540   1.606   1.555   0.404  1.0406  0.9943  1.3006
  171DMF     H7 2541   1.435   1.682   0.292 -0.3178  1.5385  0.7814
  172DMF     C1 2542   2.102   2.250   2.688  0.7005 -0.1440  0.4112
  172DMF     N1 2543   1.955   2.263   2.679 -0.4856  0.2101  0.1939
  172DMF     C2 2544   1.903   2.375   2.759  0.6342 -0.0814  0.6731
  172DMF     C3 2545   1.872   2.178   2.606 -0.3007  0.0364 -0.4411
  172DMF     O1 2546   1.926   2.087   2.540  0.1479 -0.3232  0.3993
  172DMF     H1 2547   2.146   2.311   2.767  2.0578 -0.0771 -0.3848
  172DMF     H2 2548   2.153   2.256   2.591  0.7026  0.7774  0.4669
  172DMF     H3 2549   2.131   2.146   2.704 -3.2424 -1.2221  1.0046
  172DMF     H4 2550   1.795   2.356   2.761 -0.0411  3.4487  2.3637
  172DMF     H5 2551   1.922   2.468   2.703  1.2330 -1.0270 -0.7319
  172DMF     H6 2552   1.949   2.381   2.859  0.5398  0.1351  0.7057
  172DMF     H7 2553   1.762   2.192   2.609 -0.0595  1.6636  1.3542
  173DMF     C1 2554   1.147   1.188   1.249  0.5707 -0.0960  0.1399
  173DMF     N1 2555   1.241   1.109   1.177 -0.5595 -0.4797 -0.1550
  173DMF     C2 2556   1.290   1.148   1.044 -0.2379 -0.3609  0.0368
  173DMF     C3 2557   1.299   0.999   1.236  0.5224  1.3722  0.6016
  173DMF     O1 2558   1.286   0.968   1.355 -0.3690  0.3923  0.0284
  173DMF     H1 2559   1.048   1.140   1.251  0.7606 -0.4564  1.0689
  173DMF     H2 2560   1.149   1.295   1.224 -1.5448 -0.2154 -0.6611
  173DMF     H3 2561   1.187   1.184   1.351  2.0508  0.9091 -0.3783
  173DMF     H4 2562   1.290   1.058   0.980 -0.1483  0.5906 -1.3378
  173DMF     H5 2563   1.393   1.183   1.051  0.4805 -1.2446 -4.5049
  173DMF     H6 2564   1.231   1.228   0.996 -0.0180  1.0404  2.0495
  173DMF     H7 2565   1.369   0.948   1.168 -0.3619  1.1710 -0.1673
  174DMF     C1 2566   1.194   1.825   2.978  0.5087 -0.7432 -0.7749
  174DMF     N1 2567   1.206   1.905   3.094 -0.4541 -0.4173  0.3660
  174DMF     C2 2568   1.237   2.049   3.076 -0.1856 -0.8204  0.3601
  174DMF     C3 2569   1.167   1.857   3.222  0.4992 -0.6529 -0.1094
  174DMF     O1 2570   1.135   1.745   3.250  0.3570 -0.1860  0.0532
  174DMF     H1 2571   1.260   1.866   2.900 -0.5929  1.1212 -0.7779
  174DMF     H2 2572   1.087   1.832   2.953  0.1015 -3.5701  0.0937
  174DMF     H3 2573   1.218   1.719   2.993 -1.5043 -0.9168  1.3875
  174DMF     H4 2574   1.321   2.062   3.007 -0.5495  1.1084  0.2565
  174DMF     H5 2575   1.264   2.106   3.166  0.5830 -0.1100 -0.3084
  174DMF     H6 2576   1.154   2.089   3.016  2.0290  0.5305 -1.9286
  174DMF     H7 2577   1.187   1.931   3.302  0.7795 -0.6823 -0.1524
  175DMF     C1 2578   2.284   3.060   1.110 -0.4414  0.5495 -0.2894
  175DMF     N1 2579   2.144   3.115   1.093  0.6922  0.8529  0.6948
  175DMF     C2 2580   2.052   3.066   1.191  0.0679 -0.4406 -0.6480
  175DMF     C3 2581   2.109   3.222   1.016 -0.3947 -0.0642 -0.2672
  175DMF     O1 2582   2.181   3.276   0.929  0.3649 -0.2294 -0.2367
  175DMF     H1 2583   2.334   3.102   1.199 -0.3461 -0.1960  0.0174
  175DMF     H2 2584   2.336   3.078   1.015 -1.9635  1.6026 -0.9386
  175DMF     H3 2585   2.291   2.953   1.136 -0.3725  0.1526 -1.9039
  175DMF     H4 2586   2.009   3.142   1.257 -0.6935  0.1494 -1.7871
  175DMF     H5 2587   2.100   2.984   1.246 -0.7886 -1.0162 -0.7438
  175DMF     H6 2588   1.962   3.026   1.142  0.7435 -1.5421 -1.0063
  175DMF     H7 2589   2.006   3.260   1.025 -0.3780  0.4436 -1.9155
  176DMF     C1 2590   3.112   0.969   2.757 -0.2496 -0.6761  0.4252
  176DMF     N1 2591   3.072   0.879   2.645 -0.6217  0.5882  0.2755
  176DMF     C2 2592   2.930   0.823   2.647  0.4337  0.1752 -0.4234
  176DMF     C3 2593   3.155   0.853   2.535 -0.0389 -0.6783 -0.2156
  176DMF     O1 2594   3.271   0.893   2.535  0.4729  0.4005  0.2481
  176DMF     H1 2595   3.020   1.019   2.791  0.0216 -0.0323  0.2326
  176DMF     H2 2596   3.181   1.045   2.717  1.7060 -2.3710  0.5162
  176DMF     H3 2597   3.162   0.911   2.836  2.6215  0.5152 -0.4326
  176DMF     H4 2598   2.862   0.889   2.593 -2.4680 -2.3748 -0.0329
  176DMF     H5 2599   2.899   0.813   2.752  0.6580 -0.4233 -0.4093
  176DMF     H6 2600   2.921   0.728   2.593 -2.2633 -0.5423  1.2027
  176DMF     H7 2601   3.113   0.782   2.461 -1.0447  2.0224 -2.3317
  177DMF     C1 2602   2.009   2.262   3.743  0.3929 -0.0825  0.1760
  177DMF     N1 2603   2.125   2.276   3.657  0.1251 -0.3087 -0.3769
  177DMF     C2 2604   2.180   2.415   3.635  0.4360  0.0343 -0.3187
  177DMF     C3 2605   2.191   2.165   3.589 -0.5375 -0.6275  0.4738
  177DMF     O1 2606   2.159   2.050   3.602 -0.4010  0.4975 -0.5463
  177DMF     H1 2607   1.935   2.190   3.706 -1.1530  1.5614  0.0118
  177DMF     H2 2608   1.963   2.357   3.772 -2.3949 -1.9082  2.0101
  177DMF     H3 2609   2.046   2.220   3.837  0.0075 -0.3595  0.2079
  177DMF     H4 2610   2.273   2.416   3.577  0.4277 -0.2041 -0.3400
  177DMF     H5 2611   2.201   2.459   3.733 -1.5683  0.6157 -0.1337
  177DMF     H6 2612   2.103   2.476   3.586 -1.2543  1.3535  3.7901
  177DMF     H7 2613   2.273   2.200   3.524 -2.9834  2.3710 -1.1356
  178DMF     C1 2614   1.583   2.246   0.483  0.4100 -0.0859 -0.3567
  178DMF     N1 2615   1.599   2.337   0.593 -0.7411  0.3224 -0.1400
  178DMF     C2 2616   1.730   2.382   0.625 -0.6500 -0.0451 -0.0352
  178DMF     C3 2617   1.496   2.360   0.688  0.1700  0.0123  0.2748
  178DMF     O1 2618   1.386   2.322   0.661 -0.0538 -0.3932  0.3343
  178DMF     H1 2619   1.559   2.145   0.517 -0.6960 -0.3928 -1.9740
  178DMF     H2 2620   1.675   2.247   0.423  0.4684  0.6187 -0.2646
  178DMF     H3 2621   1.496   2.276   0.424  0.2259  1.7787  0.8105
  178DMF     H4 2622   1.736   2.479   0.677  2.1286  1.0589 -2.2437
  178DMF     H5 2623   1.785   2.409   0.533 -0.0970 -0.3354  0.2050
  178DMF     H6 2624   1.781   2.304   0.683  1.4510  1.0836 -0.2871
  178DMF     H7 2625   1.523   2.418   0.778  0.2090  2.7017 -1.4204
  179DMF     C1 2626   1.446   2.611   2.346 -0.3890 -0.0113 -0.1271
  179DMF     N1 2627   1.596   2.629   2.314 -1.2949 -1.0288 -0.3472
  179DMF     C2 2628   1.627   2.734   2.219 -1.1968  0.2528 -0.0352
  179DMF     C3 2629   1.697   2.553   2.372 -0.2202  0.2934 -0.4788
  179DMF     O1 2630   1.673   2.467   2.456 -0.3852  0.6637 -0.4668
  179DMF     H1 2631   1.425   2.511   2.387 -0.9239 -0.1344 -0.6889
  179DMF     H2 2632   1.384   2.621   2.256 -1.5694  0.0933  0.6794
  179DMF     H3 2633   1.407   2.684   2.418 -2.1891 -0.8958 -0.1674
  179DMF     H4 2634   1.542   2.742   2.150 -1.7245  1.6778  0.7663
  179DMF     H5 2635   1.712   2.704   2.156  0.9194 -0.9985  3.2500
  179DMF     H6 2636   1.652   2.833   2.260 -0.9348 -0.1238  0.7226
  179DMF     H7 2637   1.796   2.583   2.332  0.0031  0.3433  0.1049
  180DMF     C1 2638   2.497   0.968   3.286  0.6632 -0.5136  0.5611
  180DMF     N1 2639   2.405   0.960   3.404 -0.6751 -0.4924 -0.2798
  180DMF     C2 2640   2.358   0.830   3.457  0.1701 -0.0736  0.1255
  180DMF     C3 2641   2.384   1.085   3.475 -0.0812  0.4893  0.0163
  180DMF     O1 2642   2.432   1.196   3.444 -0.9068  0.7789  0.6426
  180DMF     H1 2643   2.554   0.874   3.286 -0.1886 -1.0324 -0.3771
  180DMF     H2 2644   2.571   1.047   3.306  1.1741 -0.2974 -2.0167
  180DMF     H3 2645   2.430   0.979   3.201 -1.9878  0.5524  2.6984
  180DMF     H4 2646   2.249   0.829   3.471  0.3092 -1.0054  1.2464
  180DMF     H5 2647   2.409   0.812   3.552  1.0237 -1.4031 -0.5557
  180DMF     H6 2648   2.392   0.748   3.392  1.0997  0.1894  0.2726
  180DMF     H7 2649   2.312   1.066   3.557  1.3781 -1.7115  0.8362
  181DMF     C1 2650   1.261   2.443   0.381 -0.0659 -0.3915  0.1846
  181DMF     N1 2651   1.124   2.456   0.321 -0.6228  0.0093 -0.2017
  181DMF     C2 2652   1.010   2.454   0.405  0.4294 -0.3465 -0.5499
  181DMF     C3 2653   1.110   2.447   0.187 -0.0912 -0.1781  0.3298
  181DMF     O1 2654   1.213   2.421   0.117  0.0084  0.2707 -0.0201
  181DMF     H1 2655   1.267   2.483   0.483  0.0878  1.9619 -0.7229
  181DMF     H2 2656   1.341   2.496   0.328  0.8359  0.3633  2.2578
  181DMF     H3 2657   1.287   2.336   0.376  2.3509  0.1044  1.3192
  181DMF     H4 2658   1.021   2.382   0.488 -0.7935  2.7606  2.4561
  181DMF     H5 2659   0.925   2.418   0.346  0.2962 -0.8711 -0.0432
  181DMF     H6 2660   0.986   2.551   0.451 -1.8600 -0.0837 -2.2201
  181DMF     H7 2661   1.009   2.452   0.144 -0.7667 -3.3824  1.4684
  182DMF     C1 2662   3.030   2.767   1.548  0.8225  0.3054 -0.6887
  182DMF     N1 2663   3.047   2.760   1.397  0.4070 -0.5918  0.2409
  182DMF     C2 2664   3.164   2.695   1.340 -0.1784  0.4386  0.0302
  182DMF     C3 2665   2.943   2.813   1.319  0.3755  0.5848 -0.2314
  182DMF     O1 2666   2.845   2.864   1.365  0.1634  0.0525 -0.6255
  182DMF     H1 2667   2.931   2.803   1.577  1.4907  2.3895 -0.9130
  182DMF     H2 2668   3.104   2.834   1.593  0.3760 -0.5036  1.2981
  182DMF     H3 2669   3.056   2.670   1.593  0.5757 -0.7632 -2.8151
  182DMF     H4 2670   3.236   2.691   1.423 -0.3462  0.2877  0.1667
  182DMF     H5 2671   3.193   2.760   1.256  0.6426 -0.4528 -0.3853
  182DMF     H6 2672   3.148   2.593   1.305 -2.1563  0.6441  0.3189
  182DMF     H7 2673   2.964   2.806   1.210  0.5401 -0.7694 -0.1186
  183DMF     C1 2674   2.258   0.861   1.208  0.8445 -0.3650  0.7295
  183DMF     N1 2675   2.112   0.862   1.190  0.8807  0.4748  0.3272
  183DMF     C2 2676   2.035   0.988   1.217  0.5241  0.4266  0.1950
  183DMF     C3 2677   2.035   0.747   1.180  0.3286  0.0166 -0.3475
  183DMF     O1 2678   2.081   0.635   1.164  0.1305  1.1845 -0.3490
  183DMF     H1 2679   2.289   0.783   1.279 -1.0980 -2.7287 -0.8918
  183DMF     H2 2680   2.295   0.962   1.228  0.5439  0.3675 -2.2299
  183DMF     H3 2681   2.300   0.827   1.113  1.2507 -1.7676  1.3953
  183DMF     H4 2682   1.974   0.969   1.306 -1.5731 -1.5923 -1.5807
  183DMF     H5 2683   1.965   1.013   1.136 -1.2658  0.8415  1.8302
  183DMF     H6 2684   2.091   1.081   1.234  0.3781  0.8794 -1.7013
  183DMF     H7 2685   1.926   0.767   1.186  0.8228  2.9712 -0.3009
  184DMF     C1 2686   2.484   0.662   1.519 -0.1058  0.0254  0.5262
  184DMF     N1 2687   2.391   0.553   1.553  0.2626 -0.1252  0.2311
  184DMF     C2 2688   2.244   0.583   1.559  0.6238 -0.1321 -0.6288
  184DMF     C3 2689   2.447   0.428   1.578  0.2608  0.2696 -0.4668
  184DMF     O1 2690   2.565   0.408   1.568  0.1009 -0.1033  0.0102
  184DMF     H1 2691   2.552   0.687   1.601 -1.0518 -0.6040  1.5199
  184DMF     H2 2692   2.421   0.750   1.503 -1.8084 -1.0617  1.1064
  184DMF     H3 2693   2.533   0.647   1.422  0.1729 -0.9398  0.8008
  184DMF     H4 2694   2.207   0.615   1.461  0.1515 -0.3683 -0.5303
  184DMF     H5 2695   2.223   0.665   1.630  1.7297 -0.9704  0.7068
  184DMF     H6 2696   2.188   0.492   1.584  1.5510 -0.0300  2.0167
  184DMF     H7 2697   2.374   0.359   1.624 -0.7672  1.3962 -0.4099
  185DMF     C1 2698   2.924   3.366   2.262  0.1640  0.3396  0.3604
  185DMF     N1 2699   2.924   3.511   2.249 -0.0317  0.0625  0.2430
  185DMF     C2 2700   3.031   3.591   2.318 -0.1458 -0.3977  0.4415
  185DMF     C3 2701   2.794   3.570   2.245 -0.6947 -0.4286 -0.1710
  185DMF     O1 2702   2.693   3.519   2.206  0.0448 -0.6451 -0.0303
  185DMF     H1 2703   3.021   3.317   2.279  0.6764  1.3887  0.5036
  185DMF     H2 2704   2.882   3.338   2.165 -0.9185  2.7350  0.1016
  185DMF     H3 2705   2.858   3.336   2.344  1.8910  1.0685  2.0764
  185DMF     H4 2706   3.067   3.658   2.239 -0.2234 -1.4521 -0.5169
  185DMF     H5 2707   3.118   3.529   2.344 -0.6028 -1.7620 -1.1442
  185DMF     H6 2708   2.995   3.647   2.405  0.9820 -1.0189  1.3147
  185DMF     H7 2709   2.789   3.678   2.270 -1.3317 -0.3268 -0.7471
  186DMF     C1 2710   2.054   3.126   0.152  0.0152  0.1208  0.1564
  186DMF     N1 2711   2.124   3.101   0.022  0.0355 -0.6627 -0.2355
  186DMF     C2 2712   2.228   2.992   0.020 -0.2502 -0.7768 -0.5332
  186DMF     C3 2713   2.112   3.195  -0.082  0.4330 -0.0659  0.0784
  186DMF     O1 2714   2.029   3.284  -0.070 -0.0958 -0.2164  0.2615
  186DMF     H1 2715   2.006   3.033   0.186 -1.7348  0.0614 -2.3479
  186DMF     H2 2716   1.973   3.199   0.140  2.6070  2.7509 -2.0573
  186DMF     H3 2717   2.132   3.157   0.222  0.3734  3.3189 -1.6009
  186DMF     H4 2718   2.214   2.915  -0.057 -1.1233 -1.0043 -0.1555
  186DMF     H5 2719   2.219   2.949   0.120  0.4111  1.5739  0.5840
  186DMF     H6 2720   2.327   3.038   0.017  0.5272 -2.1368  2.2954
  186DMF     H7 2721   2.173   3.168  -0.170  0.8639 -1.1108  0.6857
  187DMF     C1 2722   2.163   1.886   2.433 -0.1674 -0.7429  0.1896
  187DMF     N1 2723   2.153   1.807   2.308  0.8184  0.2293 -0.2134
  187DMF     C2 2724   2.041   1.824   2.221 -1.6933  0.2594 -0.2714
  187DMF     C3 2725   2.260   1.729   2.262 -0.4740  0.3415  0.5273
  187DMF     O1 2726   2.364   1.711   2.321  0.0079  0.1654  0.2749
  187DMF     H1 2727   2.268   1.919   2.439 -0.2682 -0.2897 -0.6198
  187DMF     H2 2728   2.131   1.830   2.522 -1.2757  0.3039  0.4676
  187DMF     H3 2729   2.103   1.978   2.431 -1.1563 -1.3936 -0.1109
  187DMF     H4 2730   1.948   1.837   2.278 -1.1448  1.8132  0.3071
  187DMF     H5 2731   2.031   1.733   2.161  1.9932 -2.4989  2.9382
  187DMF     H6 2732   2.040   1.909   2.153  1.7585 -0.4761 -1.3422
  187DMF     H7 2733   2.242   1.680   2.164  1.3876  1.2200 -0.2778
  188DMF     C1 2734   0.492   3.056   3.345  0.6708  0.6199 -0.2110
  188DMF     N1 2735   0.428   2.958   3.249  0.1526 -0.1441 -0.1100
  188DMF     C2 2736   0.431   2.810   3.272  0.3581 -0.4647  0.1269
  188DMF     C3 2737   0.353   3.011   3.144  0.7176  0.4990 -0.4020
  188DMF     O1 2738   0.338   3.131   3.126 -0.2291  0.1967  0.2352
  188DMF     H1 2739   0.546   2.999   3.421 -0.7011  0.4705  0.6733
  188DMF     H2 2740   0.403   3.102   3.391  1.7741  0.9262  1.6535
  188DMF     H3 2741   0.558   3.123   3.289 -0.4251  0.8316 -1.2678
  188DMF     H4 2742   0.532   2.766   3.266 -0.1649 -1.5525 -0.9272
  188DMF     H5 2743   0.359   2.766   3.203 -0.2269  0.3245  0.2322
  188DMF     H6 2744   0.391   2.789   3.372 -2.0719  2.5981 -0.1438
  188DMF     H7 2745   0.304   2.930   3.086  0.4071 -1.0833  1.9871
  189DMF     C1 2746   1.219   0.490   3.076  0.0692 -0.7691 -0.0145
  189DMF     N1 2747   1.175   0.463   2.937  0.0171 -0.4442 -0.1087
  189DMF     C2 2748   1.284   0.456   2.835  0.1702 -0.1103  0.0723
  189DMF     C3 2749   1.044   0.450   2.898 -0.0329  0.7822 -0.2959
  189DMF     O1 2750   0.956   0.458   2.985  0.2109  0.1313  0.4141
  189DMF     H1 2751   1.248   0.398   3.129  1.6557  0.6098  1.5764
  189DMF     H2 2752   1.155   0.566   3.122  1.9606  0.8047  0.0837
  189DMF     H3 2753   1.306   0.554   3.061 -0.9040  0.7082  0.5515
  189DMF     H4 2754   1.331   0.556   2.836 -0.1694  0.0509 -0.0235
  189DMF     H5 2755   1.257   0.422   2.735 -1.9736  1.5612  0.0550
  189DMF     H6 2756   1.353   0.383   2.878 -1.0871 -0.4033  1.6317
  189DMF     H7 2757   1.027   0.438   2.790 -0.7060 -0.9159 -0.0163
  190DMF     C1 2758   1.430   2.310   1.509 -0.1132  0.2975 -0.8061
  190DMF     N1 2759   1.507   2.182   1.547 -0.4920 -0.4547 -0.4693
  190DMF     C2 2760   1.431   2.057   1.547 -0.0720 -0.1032  0.3139
  190DMF     C3 2761   1.649   2.184   1.574  0.1903 -0.8638 -0.1837
  190DMF     O1 2762   1.708   2.287   1.582 -0.5080 -0.4114  0.1677
  190DMF     H1 2763   1.489   2.396   1.542  0.9887 -1.0269  0.7864
  190DMF     H2 2764   1.336   2.319   1.565 -0.4430 -0.9886 -1.1425
  190DMF     H3 2765   1.405   2.314   1.402 -0.5043  2.3879 -0.6633
  190DMF     H4 2766   1.492   1.968   1.529 -0.0746  0.0956 -0.7184
  190DMF     H5 2767   1.364   2.058   1.460  1.4101 -0.5220 -0.8594
  190DMF     H6 2768   1.361   2.048   1.631  2.2329 -1.5605  2.1362
  190DMF     H7 2769   1.689   2.083   1.596 -0.6099 -0.9560  0.9403
  191DMF     C1 2770   2.256   0.607   2.279  0.5277 -0.2755  0.9620
  191DMF     N1 2771   2.133   0.683   2.304 -0.1291 -0.0354 -0.0356
  191DMF     C2 2772   2.014   0.604   2.341  0.7728  0.1539 -0.3765
  191DMF     C3 2773   2.122   0.819   2.265  0.9198  0.6594  0.5572
  191DMF     O1 2774   2.218   0.884   2.238  0.0656 -0.8032 -0.1929
  191DMF     H1 2775   2.251   0.497   2.278 -0.2731 -0.2710 -2.0084
  191DMF     H2 2776   2.323   0.638   2.360  0.9848  2.8727 -0.5419
  191DMF     H3 2777   2.288   0.644   2.181  0.2738 -1.0922  0.5682
  191DMF     H4 2778   1.936   0.632   2.268 -0.0408  1.2016  0.8689
  191DMF     H5 2779   1.980   0.621   2.444  1.5388 -2.1061  0.2752
  191DMF     H6 2780   2.037   0.497   2.333  2.7917  0.7177 -2.6209
  191DMF     H7 2781   2.020   0.862   2.265  1.6808  2.5538 -0.5989
  192DMF     C1 2782   3.075   0.509   0.938 -0.1988 -0.2176 -0.2267
  192DMF     N1 2783   3.173   0.398   0.910 -0.7653 -0.2190  0.2456
  192DMF     C2 2784   3.186   0.290   1.006 -0.5856 -0.3928  0.2313
  192DMF     C3 2785   3.254   0.414   0.802 -0.5705 -0.5475 -0.0094
  192DMF     O1 2786   3.236   0.497   0.712  0.4496 -0.3167  0.5403
  192DMF     H1 2787   3.089   0.590   0.865 -0.3034  1.1288  1.2423
  192DMF     H2 2788   3.098   0.554   1.035 -0.9705  1.6807 -0.9160
  192DMF     H3 2789   2.974   0.471   0.918  0.4305 -3.4892  2.3665
  192DMF     H4 2790   3.279   0.241   0.976  0.7351  1.9243  0.4234
  192DMF     H5 2791   3.105   0.216   0.996  0.4518 -1.5328  0.1681
  192DMF     H6 2792   3.202   0.331   1.107  0.1610  2.0795 -0.8694
  192DMF     H7 2793   3.345   0.351   0.802  1.0634  1.6837 -1.7888
  193DMF     C1 2794   0.013   1.614   0.970 -0.0794  0.0052  0.0625
  193DMF     N1 2795   0.063   1.516   1.069 -0.5376 -0.1606 -0.3529
  193DMF     C2 2796   0.008   1.378   1.074  0.6607 -1.1461 -0.0810
  193DMF     C3 2797   0.173   1.542   1.151  0.0654  0.5759  0.5003
  193DMF     O1 2798   0.221   1.653   1.170 -0.0341  0.3678  0.1741
  193DMF     H1 2799  -0.006   1.710   1.019 -3.0555  0.7283 -2.3299
  193DMF     H2 2800  -0.077   1.576   0.920  0.4029 -0.1740 -0.6872
  193DMF     H3 2801   0.091   1.628   0.894 -0.4449 -0.7736 -0.4595
  193DMF     H4 2802  -0.101   1.389   1.072  0.8436  0.8474 -0.7190
  193DMF     H5 2803   0.045   1.322   1.161  0.5206  2.8051  2.6502
  193DMF     H6 2804   0.029   1.318   0.985  0.4110  0.1285 -1.0171
  193DMF     H7 2805   0.216   1.449   1.194 -1.1738 -0.8751 -1.3116
  194DMF     C1 2806   1.550   1.064   3.205  0.2071  0.0827 -0.2063
  194DMF     N1 2807   1.448   0.971   3.248  0.7198  0.1784  0.8665
  194DMF     C2 2808   1.357   0.915   3.140  0.0642  0.0122 -0.2504
  194DMF     C3 2809   1.432   0.935   3.389 -0.1424 -0.5117 -0.3410
  194DMF     O1 2810   1.511   0.969   3.473  0.2922 -0.0785  0.0935
  194DMF     H1 2811   1.640   1.009   3.175  1.0150  1.5202 -0.4941
  194DMF     H2 2812   1.582   1.126   3.290  0.1676  0.0803 -0.1892
  194DMF     H3 2813   1.526   1.126   3.117 -1.1574 -2.5266 -1.7314
  194DMF     H4 2814   1.303   0.825   3.172  0.2435  0.4519  1.3203
  194DMF     H5 2815   1.418   0.885   3.054  0.4973 -0.7391  0.3162
  194DMF     H6 2816   1.300   1.001   3.102  2.4677  1.5941 -0.3331
  194DMF     H7 2817   1.351   0.863   3.409  0.3474 -1.2107 -0.8607
  195DMF     C1 2818   0.269   0.777   2.613  0.0499  0.5676  0.0351
  195DMF     N1 2819   0.290   0.672   2.716  0.6373 -0.1172  0.3136
  195DMF     C2 2820   0.174   0.592   2.759  0.5992  0.1124 -0.1303
  195DMF     C3 2821   0.414   0.645   2.774 -0.8987 -0.7467  0.4600
  195DMF     O1 2822   0.515   0.714   2.760 -0.5153 -0.5526  0.3512
  195DMF     H1 2823   0.209   0.732   2.532 -1.0552  0.0135  1.1524
  195DMF     H2 2824   0.362   0.808   2.564 -0.5442  1.4449 -0.5487
  195DMF     H3 2825   0.212   0.860   2.656 -2.6692 -1.3187  0.2231
  195DMF     H4 2826   0.079   0.620   2.712  0.7012 -0.9050 -0.9454
  195DMF     H5 2827   0.171   0.579   2.868 -2.4880 -1.5440 -0.3680
  195DMF     H6 2828   0.192   0.490   2.723 -1.1870  0.0794 -0.9649
  195DMF     H7 2829   0.415   0.548   2.827 -0.9402 -1.2346 -0.4274
  196DMF     C1 2830   3.162   2.086   3.740 -0.5735 -0.1695  0.9760
  196DMF     N1 2831   3.087   2.207   3.773 -0.2053 -0.0317  0.3266
  196DMF     C2 2832   3.169   2.329   3.797 -0.1255 -0.6311 -0.2850
  196DMF     C3 2833   2.951   2.213   3.778 -0.1895 -0.4964  1.5148
  196DMF     O1 2834   2.885   2.115   3.753  0.1303  0.3355  0.2039
  196DMF     H1 2835   3.099   1.999   3.716 -0.1160  0.0386 -1.0776
  196DMF     H2 2836   3.227   2.068   3.826  0.8605 -0.7106 -0.1953
  196DMF     H3 2837   3.223   2.105   3.651 -1.4083 -1.4560  0.1055
  196DMF     H4 2838   3.240   2.306   3.877 -1.0620 -2.0358  0.1600
  196DMF     H5 2839   3.112   2.417   3.830 -0.2013 -0.6249 -0.4267
  196DMF     H6 2840   3.232   2.362   3.712  0.9989  1.0472  1.1654
  196DMF     H7 2841   2.913   2.314   3.800  2.4432  0.2518  2.8224
  197DMF     C1 2842   0.331   2.565   3.014  0.0840 -0.4251  0.5517
  197DMF     N1 2843   0.195   2.535   2.971  0.6962  0.0077  0.2809
  197DMF     C2 2844   0.173   2.422   2.879 -1.1412 -0.6933 -0.7491
  197DMF     C3 2845   0.087   2.624   3.001  0.3187  0.1493  0.8489
  197DMF     O1 2846   0.112   2.722   3.057  0.2282 -0.5251  0.1620
  197DMF     H1 2847   0.361   2.667   2.986 -0.4430 -0.8327 -1.6176
  197DMF     H2 2848   0.410   2.503   2.970  0.1628  0.1847 -0.1722
  197DMF     H3 2849   0.336   2.543   3.121  1.0985 -0.4108  0.5134
  197DMF     H4 2850   0.068   2.416   2.848 -0.8080  1.2450 -2.3787
  197DMF     H5 2851   0.197   2.327   2.928  1.5800 -0.2525 -1.1481
  197DMF     H6 2852   0.236   2.430   2.789  0.6294  1.8773  0.6717
  197DMF     H7 2853  -0.012   2.585   2.971 -0.0901  1.4789  0.4662
  198DMF     C1 2854   2.223   0.947   2.613 -0.1324 -0.5782  0.1804
  198DMF     N1 2855   2.357   0.875   2.638 -0.1795  0.4003 -0.6826
  198DMF     C2 2856   2.446   0.878   2.523  0.6989 -0.1691 -0.1520
  198DMF     C3 2857   2.381   0.803   2.759  0.5735 -0.1461  0.4267
  198DMF     O1 2858   2.295   0.799   2.845  0.1222  0.2505  0.3601
  198DMF     H1 2859   2.200   0.955   2.506  0.7285  0.5450  0.0633
  198DMF     H2 2860   2.250   1.045   2.655  2.9479 -0.9662 -0.7598
  198DMF     H3 2861   2.141   0.902   2.669 -2.2659  1.8004 -0.8798
  198DMF     H4 2862   2.548   0.867   2.559 -0.4250 -0.5174  3.0469
  198DMF     H5 2863   2.429   0.972   2.468  2.0774 -1.6685 -3.2733
  198DMF     H6 2864   2.424   0.788   2.463 -0.8817 -0.3741  0.6975
  198DMF     H7 2865   2.485   0.767   2.767 -0.0095 -2.0331 -0.1758
  199DMF     C1 2866   2.650   2.731   1.133 -0.3215  0.5112 -0.5012
  199DMF     N1 2867   2.687   2.851   1.054 -0.1208 -0.2033 -0.3849
  199DMF     C2 2868   2.639   2.981   1.112  0.3508 -0.0456 -0.2103
  199DMF     C3 2869   2.780   2.848   0.947  0.6776  0.1783  0.1031
  199DMF     O1 2870   2.820   2.739   0.908 -0.8690 -0.3255 -0.0606
  199DMF     H1 2871   2.589   2.658   1.078  0.1486  0.4711 -0.9744
  199DMF     H2 2872   2.605   2.755   1.230 -0.6585 -2.6643  0.2006
  199DMF     H3 2873   2.746   2.687   1.165 -1.5558 -3.9038 -2.3926
  199DMF     H4 2874   2.726   3.048   1.108  0.3831 -0.0856 -0.1712
  199DMF     H5 2875   2.599   2.961   1.212 -1.1323 -0.5611 -0.8969
  199DMF     H6 2876   2.568   3.025   1.042  0.6295  2.9455  1.3005
  199DMF     H7 2877   2.809   2.940   0.894 -0.0071  0.8811  0.9512
  200DMF     C1 2878   2.297   2.334   3.038  0.3441  0.4127  0.0957
  200DMF     N1 2879   2.248   2.438   3.130  0.6920 -0.2415  0.2414
  200DMF     C2 2880   2.206   2.563   3.062  0.2742  0.0863 -0.0651
  200DMF     C3 2881   2.199   2.402   3.253  0.8751  0.2474  0.6129
  200DMF     O1 2882   2.211   2.292   3.301  0.2213 -0.7481  0.6014
  200DMF     H1 2883   2.219   2.261   3.013  1.6824 -0.3574 -1.9801
  200DMF     H2 2884   2.383   2.289   3.088  0.9403  1.0529 -0.3475
  200DMF     H3 2885   2.321   2.380   2.941  3.2246  1.8766  1.4473
  200DMF     H4 2886   2.255   2.571   2.964 -1.8307  1.5195 -1.0180
  200DMF     H5 2887   2.248   2.650   3.114 -0.5369 -0.3753  1.4024
  200DMF     H6 2888   2.097   2.570   3.051  0.3611  1.2465 -0.2686
  200DMF     H7 2889   2.154   2.489   3.306 -0.1620 -0.3239  0.6894
  201DMF     C1 2890   1.431   1.120   2.837 -0.6146 -0.4094 -0.4746
  201DMF     N1 2891   1.407   1.136   2.689  0.2218  0.1318  0.1597
  201DMF     C2 2892   1.381   1.273   2.639  0.2525 -0.7229  0.1210
  201DMF     C3 2893   1.398   1.021   2.606 -0.0086 -0.7255 -0.3162
  201DMF     O1 2894   1.416   0.907   2.646  0.0682 -0.5350 -0.5066
  201DMF     H1 2895   1.533   1.080   2.843 -1.7917 -3.3033  1.5630
  201DMF     H2 2896   1.353   1.065   2.890 -1.8474  1.0326 -0.7423
  201DMF     H3 2897   1.452   1.220   2.876 -0.3117 -0.4851 -0.4457
  201DMF     H4 2898   1.414   1.354   2.705 -2.0103  2.0016 -1.9254
  201DMF     H5 2899   1.278   1.292   2.607  0.2057 -0.2206  0.5641
  201DMF     H6 2900   1.451   1.284   2.556  0.3118 -1.4484  0.0756
  201DMF     H7 2901   1.391   1.058   2.502  2.1739  1.6106  0.2995
  202DMF     C1 2902   2.335   2.149   1.202 -0.2023 -0.1090  0.2762
  202DMF     N1 2903   2.315   2.033   1.110 -0.4978 -0.6652 -0.7202
  202DMF     C2 2904   2.282   1.902   1.168  0.3875  0.4428 -0.3476
  202DMF     C3 2905   2.326   2.041   0.973  0.3680  0.0815 -0.8219
  202DMF     O1 2906   2.325   2.143   0.910  0.1429 -0.6078 -0.2645
  202DMF     H1 2907   2.235   2.182   1.232  0.2496 -0.4779  2.3053
  202DMF     H2 2908   2.387   2.236   1.160  1.8211 -0.4617  1.9352
  202DMF     H3 2909   2.394   2.126   1.292  1.2263  1.6600 -0.1764
  202DMF     H4 2910   2.372   1.839   1.171 -2.0974 -3.2707 -1.5923
  202DMF     H5 2911   2.204   1.853   1.109 -0.7527 -0.4498  1.8491
  202DMF     H6 2912   2.249   1.910   1.273  0.1396  0.1467 -0.4043
  202DMF     H7 2913   2.325   1.942   0.924 -3.5463  1.1365 -3.0628
  203DMF     C1 2914   1.216   1.940   0.409 -0.3783 -0.3353 -0.1225
  203DMF     N1 2915   1.234   1.998   0.544  0.1384 -0.6651  0.2811
  203DMF     C2 2916   1.142   2.095   0.584 -0.4987 -0.0796 -0.5286
  203DMF     C3 2917   1.353   1.987   0.613  0.9564 -0.6489 -0.7667
  203DMF     O1 2918   1.441   1.907   0.575  0.4405 -0.1174 -0.5186
  203DMF     H1 2919   1.302   1.904   0.352 -0.5077 -1.0610  0.1356
  203DMF     H2 2920   1.172   2.027   0.359  0.2370  0.0311 -0.0178
  203DMF     H3 2921   1.144   1.857   0.420 -0.9366  0.1075 -0.4399
  203DMF     H4 2922   1.139   2.107   0.693  2.3377  0.2215 -0.4656
  203DMF     H5 2923   1.040   2.088   0.543  0.5273  0.5354 -3.2995
  203DMF     H6 2924   1.170   2.190   0.538 -1.1606  1.3988  2.0360
  203DMF     H7 2925   1.366   2.052   0.702  0.1556 -2.8841  1.0180
  204DMF     C1 2926   3.199   3.211   1.257  0.5712  0.0551  1.0172
  204DMF     N1 2927   3.097   3.259   1.173  0.8844 -0.0178  0.2002
  204DMF     C2 2928   3.064   3.401   1.176  0.0166  0.2224 -0.2264
  204DMF     C3 2929   2.998   3.166   1.125 -0.8782 -0.9027 -0.4122
  204DMF     O1 2930   3.023   3.046   1.124 -0.1194  0.1973 -0.0753
  204DMF     H1 2931   3.189   3.269   1.349  0.7270 -0.1922  1.1877
  204DMF     H2 2932   3.297   3.242   1.219  0.2580 -0.0150  0.1402
  204DMF     H3 2933   3.187   3.106   1.285 -0.4490 -0.0305  0.3078
  204DMF     H4 2934   3.031   3.427   1.074  0.8060 -2.4741 -1.1918
  204DMF     H5 2935   3.152   3.460   1.206  1.9074 -1.9305 -1.3961
  204DMF     H6 2936   2.976   3.418   1.239 -0.6650  0.3859 -1.2091
  204DMF     H7 2937   2.906   3.210   1.085 -1.2537 -0.6751  0.6813
  205DMF     C1 2938   1.150   0.105   3.386 -0.1851  0.0187  0.0860
  205DMF     N1 2939   1.091   0.180   3.272 -0.2185  0.0652 -0.9974
  205DMF     C2 2940   1.110   0.113   3.139 -0.1617  0.5059  0.3639
  205DMF     C3 2941   1.026   0.306   3.286  1.0770 -0.2194 -0.2339
  205DMF     O1 2942   0.982   0.339   3.394  0.3219  0.5417  0.1117
  205DMF     H1 2943   1.245   0.060   3.354 -0.1600 -0.8311  1.3160
  205DMF     H2 2944   1.077   0.027   3.409 -0.0238  0.1646  1.0901
  205DMF     H3 2945   1.166   0.164   3.477 -0.2351 -0.3265  0.3163
  205DMF     H4 2946   1.214   0.080   3.143 -0.1627  0.5273  0.5579
  205DMF     H5 2947   1.107   0.184   3.055 -1.0199  1.8490  1.5082
  205DMF     H6 2948   1.049   0.023   3.123 -0.5846  0.6380  1.2365
  205DMF     H7 2949   1.001   0.353   3.189  0.4557 -0.9492 -0.4380
  206DMF     C1 2950   0.199   0.456   3.635  0.0098  0.1778  0.1037
  206DMF     N1 2951   0.209   0.338   3.726 -0.1693  0.3908  0.7509
  206DMF     C2 2952   0.115   0.326   3.832  0.3715  0.1248  0.4225
  206DMF     C3 2953   0.321   0.252   3.717  0.1849 -0.7178 -0.7056
  206DMF     O1 2954   0.417   0.285   3.648  0.0484  0.0879 -0.0343
  206DMF     H1 2955   0.111   0.436   3.573  1.3967  1.0936 -2.1919
  206DMF     H2 2956   0.283   0.475   3.567  0.1612  2.8802  0.9841
  206DMF     H3 2957   0.182   0.546   3.696 -0.5712  0.3072 -0.2456
  206DMF     H4 2958   0.166   0.279   3.917  2.1918 -0.7488 -1.1101
  206DMF     H5 2959   0.031   0.264   3.800  1.0429  1.1181 -3.4774
  206DMF     H6 2960   0.078   0.424   3.864 -0.3713 -0.4205  1.2398
  206DMF     H7 2961   0.309   0.165   3.784 -1.5215  1.9138  2.5886
  207DMF     C1 2962   3.351   0.415   3.259 -0.8235  0.7116 -0.5796
  207DMF     N1 2963   3.483   0.398   3.191 -0.5674 -0.0385  0.7515
  207DMF     C2 2964   3.508   0.271   3.122  0.2686 -0.0979 -0.4382
  207DMF     C3 2965   3.570   0.511   3.170 -0.6048 -0.2194 -0.5842
  207DMF     O1 2966   3.539   0.628   3.190 -0.6277  0.4016  0.1614
  207DMF     H1 2967   3.285   0.478   3.198  0.0175  1.5646 -0.6088
  207DMF     H2 2968   3.353   0.446   3.364  0.6208  0.9115 -0.6538
  207DMF     H3 2969   3.310   0.314   3.270 -0.5918  0.2630 -3.4600
  207DMF     H4 2970   3.517   0.281   3.013 -0.3203 -1.5432 -0.6346
  207DMF     H5 2971   3.416   0.213   3.140  0.8171 -1.2212 -1.2217
  207DMF     H6 2972   3.605   0.230   3.152  0.2770 -0.2024 -0.6051
  207DMF     H7 2973   3.670   0.482   3.134 -1.1997  0.3656 -2.7380
  208DMF     C1 2974   0.312   1.136   1.120  0.3885  0.2887  0.3916
  208DMF     N1 2975   0.412   1.032   1.081  0.1394  0.1238 -0.9640
  208DMF     C2 2976   0.379   0.939   0.965 -0.1806 -0.3714  0.6891
  208DMF     C3 2977   0.529   1.009   1.164  0.3722  0.0018  0.5332
  208DMF     O1 2978   0.542   1.068   1.269 -0.7268  0.1181 -0.1387
  208DMF     H1 2979   0.359   1.234   1.103  3.8497 -1.4368 -0.4864
  208DMF     H2 2980   0.288   1.131   1.227 -0.6376  1.3471  0.2214
  208DMF     H3 2981   0.221   1.121   1.061 -0.4741  1.5613  1.3848
  208DMF     H4 2982   0.400   0.975   0.864 -3.1691 -1.8120 -0.5127
  208DMF     H5 2983   0.269   0.934   0.957 -0.1649  1.3957 -0.7770
  208DMF     H6 2984   0.407   0.834   0.982 -0.5907 -0.8911 -1.7378
  208DMF     H7 2985   0.603   0.953   1.105  1.2544 -0.4297  2.0341
  209DMF     C1 2986   0.831   0.000   0.592 -0.9308  0.5099  0.0973
  209DMF     N1 2987   0.907  -0.113   0.655  0.1434 -0.0069  0.1081
  209DMF     C2 2988   0.855  -0.253   0.656 -0.3603 -0.2601 -0.4995
  209DMF     C3 2989   1.039  -0.083   0.702 -0.3142 -0.6756  0.4954
  209DMF     O1 2990   1.081   0.031   0.707  0.0242 -0.0499 -0.5703
  209DMF     H1 2991   0.879   0.028   0.497  0.8065 -0.2068  0.7561
  209DMF     H2 2992   0.831   0.089   0.656  1.1388  1.2745 -0.9183
  209DMF     H3 2993   0.727  -0.034   0.578 -0.8494 -0.5716  1.9706
  209DMF     H4 2994   0.822  -0.284   0.756  0.9081  0.0827  0.0347
  209DMF     H5 2995   0.940  -0.320   0.638 -0.9740 -1.3024  0.3863
  209DMF     H6 2996   0.781  -0.265   0.577 -2.7948 -0.5530  1.7551
  209DMF     H7 2997   1.100  -0.173   0.719 -0.0002 -0.1983  1.9513
  210DMF     C1 2998   0.565   2.225   3.041  0.7539  0.1201  0.6422
  210DMF     N1 2999   0.661   2.276   3.132 -0.0516  0.2276 -0.0491
  210DMF     C2 3000   0.647   2.416   3.178 -0.5113 -0.5194 -0.6118
  210DMF     C3 3001   0.754   2.189   3.186  0.2074  0.3450 -0.2556
  210DMF     O1 3002   0.771   2.073   3.153 -0.2299 -0.6642 -0.0987
  210DMF     H1 3003   0.503   2.152   3.095 -0.4225  1.3953  1.0202
  210DMF     H2 3004   0.611   2.156   2.969 -1.7066  0.5330 -1.3638
  210DMF     H3 3005   0.502   2.299   2.991 -1.3916 -1.6215  0.7149
  210DMF     H4 3006   0.550   2.433   3.226 -0.9087 -1.0473 -1.2320
  210DMF     H5 3007   0.661   2.482   3.092 -0.4999 -0.3502 -0.4821
  210DMF     H6 3008   0.726   2.438   3.252 -2.7053  0.3449  1.5569
  210DMF     H7 3009   0.819   2.233   3.264 -1.3344 -1.0255  1.8597
  211DMF     C1 3010   2.612   1.981   2.286  0.0950  0.5416 -0.3595
  211DMF     N1 3011   2.726   1.890   2.254 -0.1910  0.1960  0.5094
  211DMF     C2 3012   2.692   1.755   2.226  0.3601  0.4615  0.0534
  211DMF     C3 3013   2.860   1.942   2.266 -0.2035 -0.1309  0.4914
  211DMF     O1 3014   2.888   2.059   2.299 -0.2950  0.2991  0.4117
  211DMF     H1 3015   2.618   2.024   2.387 -1.1729  2.2116 -0.9497
  211DMF     H2 3016   2.515   1.929   2.277  0.9265 -1.0893 -0.0519
  211DMF     H3 3017   2.607   2.060   2.210 -1.0401  0.5656 -0.2794
  211DMF     H4 3018   2.682   1.691   2.314 -2.4809 -0.7726 -1.1233
  211DMF     H5 3019   2.762   1.704   2.159  1.2820  1.1197  0.4897
  211DMF     H6 3020   2.590   1.743   2.188  0.1085 -3.3604  1.7020
  211DMF     H7 3021   2.935   1.863   2.245 -0.5669  0.6371 -4.5054
  212DMF     C1 3022   2.599   1.601   2.849  0.0219 -0.4127 -0.0502
  212DMF     N1 3023   2.502   1.627   2.745  0.4749 -0.0339  0.1897
  212DMF     C2 3024   2.382   1.698   2.776 -0.4039  0.3553 -0.1454
  212DMF     C3 3025   2.525   1.592   2.614  0.3149  0.2118 -0.0836
  212DMF     O1 3026   2.628   1.543   2.574  0.3081  0.3285 -0.3660
  212DMF     H1 3027   2.610   1.680   2.925 -0.3431 -1.3301  0.9707
  212DMF     H2 3028   2.700   1.578   2.813  0.1599 -1.5523  1.0320
  212DMF     H3 3029   2.555   1.525   2.915  0.4938 -4.4848 -4.1880
  212DMF     H4 3030   2.290   1.661   2.729 -0.9501  1.8242 -0.2386
  212DMF     H5 3031   2.400   1.802   2.748  0.7495 -0.1074 -1.1813
  212DMF     H6 3032   2.364   1.700   2.884  2.6603  1.3599  0.3900
  212DMF     H7 3033   2.436   1.608   2.550  0.2731  3.0486  0.6073
  213DMF     C1 3034   1.739   0.031   1.042 -0.0563  0.1685 -0.2930
  213DMF     N1 3035   1.649  -0.023   1.137 -0.3346 -0.5990  0.5228
  213DMF     C2 3036   1.505   0.022   1.126 -0.5358  0.4957 -0.1655
  213DMF     C3 3037   1.701  -0.102   1.238 -0.2719 -0.4931 -0.5777
  213DMF     O1 3038   1.822  -0.130   1.250  0.3161 -0.3199 -0.2417
  213DMF     H1 3039   1.814   0.093   1.093 -0.3662  0.9082 -0.7294
  213DMF     H2 3040   1.691   0.108   0.980 -3.0995 -0.9900  0.5671
  213DMF     H3 3041   1.788  -0.044   0.978  0.0369  1.1695 -1.4250
  213DMF     H4 3042   1.486   0.078   1.034 -1.6775 -0.5569 -0.5744
  213DMF     H5 3043   1.478   0.073   1.219  2.0162 -0.9411  1.4368
  213DMF     H6 3044   1.447  -0.071   1.125 -2.0444  1.4294 -1.4803
  213DMF     H7 3045   1.623  -0.146   1.303  1.0605 -2.8099 -0.4710
  214DMF     C1 3046   0.641   3.260   1.570 -0.0515  0.1077  0.5847
  214DMF     N1 3047   0.499   3.245   1.553 -0.0290  0.5539  0.1932
  214DMF     C2 3048   0.432   3.113   1.550  0.2770  0.0197  0.1024
  214DMF     C3 3049   0.419   3.359   1.535  0.0620  0.4354  0.5229
  214DMF     O1 3050   0.467   3.469   1.531 -0.5764  0.0007 -0.7326
  214DMF     H1 3051   0.685   3.283   1.472  0.4520 -0.6220  0.6392
  214DMF     H2 3052   0.685   3.174   1.622  1.8449 -0.3877 -1.7821
  214DMF     H3 3053   0.646   3.342   1.643 -1.0098  2.1097 -1.5108
  214DMF     H4 3054   0.324   3.124   1.564  0.6098  4.0131 -0.0321
  214DMF     H5 3055   0.484   3.056   1.629  0.3722  1.2431  0.9325
  214DMF     H6 3056   0.458   3.063   1.456  4.0145  1.7574  0.1034
  214DMF     H7 3057   0.313   3.333   1.519 -0.1498  1.5324  0.0540
  215DMF     C1 3058   1.009   0.454   2.285  0.8113 -0.4152 -0.0954
  215DMF     N1 3059   1.077   0.576   2.338  0.3565 -0.7550  0.4623
  215DMF     C2 3060   1.012   0.709   2.334  0.2822 -0.8693  0.8355
  215DMF     C3 3061   1.193   0.559   2.406 -0.8804  0.4565  0.0416
  215DMF     O1 3062   1.255   0.455   2.409  0.0005  0.4301 -0.1911
  215DMF     H1 3063   0.962   0.398   2.366  0.5181 -1.3728 -0.9307
  215DMF     H2 3064   1.082   0.386   2.240  1.7195 -0.9601  2.1693
  215DMF     H3 3065   0.933   0.486   2.212  2.2945  0.0977 -1.4662
  215DMF     H4 3066   0.997   0.746   2.436  0.3297 -1.4142  1.0424
  215DMF     H5 3067   0.917   0.699   2.279  0.3105 -0.8553  0.7846
  215DMF     H6 3068   1.077   0.785   2.290 -1.5052 -0.1428 -0.6502
  215DMF     H7 3069   1.230   0.651   2.455  1.0489 -0.5282  0.5254
  216DMF     C1 3070   0.028   2.131   2.252 -0.3123  0.1776  0.3637
  216DMF     N1 3071  -0.115   2.084   2.248 -0.3269 -0.6407 -0.2400
  216DMF     C2 3072  -0.211   2.189   2.243  0.1266  0.1376 -0.1415
  216DMF     C3 3073  -0.143   1.954   2.288 -0.3667 -0.1146 -0.2669
  216DMF     O1 3074  -0.054   1.873   2.310  0.5240  0.0871  0.0737
  216DMF     H1 3075   0.034   2.240   2.267 -1.4520  0.6643 -2.4769
  216DMF     H2 3076   0.062   2.098   2.153 -0.1287 -1.7638  1.0541
  216DMF     H3 3077   0.083   2.097   2.341  0.9692 -0.2122 -0.5701
  216DMF     H4 3078  -0.182   2.272   2.178  0.1899 -0.5668 -1.0249
  216DMF     H5 3079  -0.226   2.240   2.339 -0.4076 -0.0361 -0.1277
  216DMF     H6 3080  -0.304   2.142   2.209  1.0156  0.4943 -3.2015
  216DMF     H7 3081  -0.252   1.939   2.296 -0.5528  0.9891 -0.5478
  217DMF     C1 3082   1.042   2.921   3.324  0.0527 -0.3074 -1.1188
  217DMF     N1 3083   0.935   2.888   3.233  0.2404  0.1851 -0.1654
  217DMF     C2 3084   0.957   2.774   3.146 -0.8736 -0.7764  0.6642
  217DMF     C3 3085   0.825   2.973   3.223 -0.0381  0.3649  0.2180
  217DMF     O1 3086   0.822   3.077   3.284  0.0444  0.5850 -0.2221
  217DMF     H1 3087   1.004   2.980   3.408  1.5055 -1.4317  0.3436
  217DMF     H2 3088   1.122   2.973   3.272  0.5573  0.5507  0.4948
  217DMF     H3 3089   1.081   2.822   3.351  0.9938  0.1889 -0.6605
  217DMF     H4 3090   0.873   2.706   3.162 -1.7818 -0.0118 -0.7308
  217DMF     H5 3091   1.051   2.723   3.172 -0.4114  0.3644  1.2718
  217DMF     H6 3092   0.961   2.810   3.043  0.9040 -0.3255  0.8676
  217DMF     H7 3093   0.744   2.926   3.164 -0.8701  1.1702  0.7062
  218DMF     C1 3094   2.008   0.599   0.516 -0.1816 -0.4260  0.1255
  218DMF     N1 3095   1.941   0.723   0.511 -0.2198 -0.5022  0.1292
  218DMF     C2 3096   2.001   0.827   0.420 -0.4733 -0.0179  0.9721
  218DMF     C3 3097   1.840   0.761   0.592  0.2980  0.2106 -0.2215
  218DMF     O1 3098   1.775   0.684   0.666 -0.6021 -0.0372  0.2010
  218DMF     H1 3099   2.058   0.581   0.612  2.2343  1.2544 -0.7833
  218DMF     H2 3100   2.087   0.592   0.441  2.7850 -0.9056  3.1493
  218DMF     H3 3101   1.933   0.524   0.487 -1.5987 -0.5316  3.7612
  218DMF     H4 3102   2.107   0.839   0.445  0.1761 -2.9085 -0.1192
  218DMF     H5 3103   1.945   0.918   0.441 -0.0430  0.6645 -0.7855
  218DMF     H6 3104   1.995   0.790   0.317 -0.9551  0.2928  0.8891
  218DMF     H7 3105   1.813   0.866   0.569  1.3699  0.2097 -1.5284
  219DMF     C1 3106   2.790   0.020   0.267 -0.5010  0.5248 -0.7848
  219DMF     N1 3107   2.757   0.124   0.177 -0.0736  0.0954 -0.2247
  219DMF     C2 3108   2.625   0.107   0.106 -0.1018 -0.3568 -0.0501
  219DMF     C3 3109   2.855   0.217   0.138  0.4190  0.2347  0.1798
  219DMF     O1 3110   2.968   0.238   0.188  0.3467 -0.5163  0.1653
  219DMF     H1 3111   2.747   0.034   0.367  0.7082 -1.2063 -0.0182
  219DMF     H2 3112   2.899   0.014   0.281 -0.3431  0.1648 -2.1325
  219DMF     H3 3113   2.758  -0.077   0.227  0.6056 -0.4267  0.5948
  219DMF     H4 3114   2.581   0.009   0.128  1.3737 -0.7266  1.3707
  219DMF     H5 3115   2.621   0.118  -0.003  1.2770  2.0010  0.1046
  219DMF     H6 3116   2.562   0.184   0.152  3.2842  1.2366  2.1298
  219DMF     H7 3117   2.819   0.273   0.050  1.2808 -2.0745 -1.6799
  220DMF     C1 3118   2.983   1.624   2.548  0.3288  0.2633  0.2662
  220DMF     N1 3119   3.101   1.549   2.517 -0.0956 -0.2004 -0.5791
  220DMF     C2 3120   3.188   1.485   2.625  0.8246 -0.0364  0.0479
  220DMF     C3 3121   3.148   1.554   2.389 -0.5744 -0.4795  0.0845
  220DMF     O1 3122   3.089   1.614   2.304  0.1574  0.0815  0.1122
  220DMF     H1 3123   2.996   1.733   2.535  0.7909  0.4111  1.9254
  220DMF     H2 3124   2.966   1.618   2.656  0.0280  1.2377  0.2790
  220DMF     H3 3125   2.893   1.589   2.496  1.0023 -2.0376  0.6365
  220DMF     H4 3126   3.224   1.388   2.589  1.8175  0.4851 -0.3973
  220DMF     H5 3127   3.128   1.476   2.716  1.0341 -1.5802  0.0384
  220DMF     H6 3128   3.278   1.544   2.647 -1.3459  3.3433  0.3179
  220DMF     H7 3129   3.239   1.494   2.370 -0.6641 -0.3127 -0.8979
  221DMF     C1 3130   2.736   0.564   3.777 -0.1275 -0.3054  0.1919
  221DMF     N1 3131   2.749   0.679   3.679  0.2203 -0.0364  0.0312
  221DMF     C2 3132   2.869   0.749   3.684  0.3876  0.4994 -0.1375
  221DMF     C3 3133   2.665   0.686   3.568  0.5846  0.5330  0.1684
  221DMF     O1 3134   2.576   0.604   3.553 -0.6096  0.4841  0.7510
  221DMF     H1 3135   2.816   0.569   3.852 -0.7036  1.9334  0.7204
  221DMF     H2 3136   2.722   0.464   3.734 -2.6691 -0.8301  2.1105
  221DMF     H3 3137   2.649   0.585   3.841  1.0658 -0.2021  1.7895
  221DMF     H4 3138   2.898   0.763   3.789  0.7642 -0.3227 -0.1292
  221DMF     H5 3139   2.869   0.847   3.636 -0.5968 -0.3733 -1.9730
  221DMF     H6 3140   2.954   0.691   3.645 -0.7279 -2.1342  1.1809
  221DMF     H7 3141   2.688   0.767   3.497 -2.3578  0.0016 -1.4795
  222DMF     C1 3142   0.872   1.674   0.455  0.3370  0.5817 -0.1489
  222DMF     N1 3143   0.882   1.800   0.529 -0.6372  0.5404  0.5326
  222DMF     C2 3144   0.824   1.918   0.468 -0.3308 -0.2484 -0.4491
  222DMF     C3 3145   0.949   1.805   0.651  0.0383  0.3889  0.3249
  222DMF     O1 3146   0.997   1.708   0.703 -0.2395 -0.1006  0.8212
  222DMF     H1 3147   0.907   1.683   0.352  0.5515 -1.3947 -0.2720
  222DMF     H2 3148   0.765   1.651   0.458  0.4707  0.1158  2.5212
  222DMF     H3 3149   0.930   1.593   0.502  1.7032  1.7711  0.2715
  222DMF     H4 3150   0.829   2.003   0.538 -0.1889  0.1954 -0.9871
  222DMF     H5 3151   0.716   1.903   0.458 -0.1850 -0.2786 -2.0387
  222DMF     H6 3152   0.884   1.954   0.383 -1.0294  1.3647 -0.2739
  222DMF     H7 3153   0.958   1.906   0.696 -0.1450  1.4310 -1.9011
  223DMF     C1 3154   0.701   2.886   1.521 -0.2882  0.2710 -0.3945
  223DMF     N1 3155   0.705   2.741   1.539  0.7007 -0.3183 -0.1979
  223DMF     C2 3156   0.821   2.661   1.549 -0.4203  0.2996 -0.4194
  223DMF     C3 3157   0.583   2.678   1.572  0.3339  0.2072 -0.5368
  223DMF     O1 3158   0.477   2.737   1.576  0.2188  0.8690  0.4295
  223DMF     H1 3159   0.802   2.928   1.512  0.0814 -0.7185 -1.0271
  223DMF     H2 3160   0.671   2.932   1.615 -0.5717  2.8962 -1.7249
  223DMF     H3 3161   0.622   2.908   1.447 -2.1461  1.0806  1.7864
  223DMF     H4 3162   0.906   2.714   1.594 -1.0834 -0.1157  1.3492
  223DMF     H5 3163   0.845   2.636   1.445  0.2094  2.4993 -0.8294
  223DMF     H6 3164   0.799   2.574   1.613 -1.7300 -0.2394 -1.5909
  223DMF     H7 3165   0.603   2.572   1.598  0.5252  0.0345 -1.3850
  224DMF     C1 3166   2.446   2.729   1.480  0.4114 -0.2779  0.0010
  224DMF     N1 3167   2.390   2.862   1.527 -0.2220 -0.3166 -0.4226
  224DMF     C2 3168   2.484   2.976   1.538  0.5731 -0.4860  0.2356
  224DMF     C3 3169   2.252   2.868   1.549 -0.3402  0.4717  0.1999
  224DMF     O1 3170   2.178   2.777   1.511 -0.0344 -0.0983  0.1331
  224DMF     H1 3171   2.391   2.640   1.513 -0.0078 -0.0626 -0.1170
  224DMF     H2 3172   2.551   2.712   1.509 -0.0572 -3.1776  0.1719
  224DMF     H3 3173   2.444   2.728   1.370  0.6193 -0.7090  0.0006
  224DMF     H4 3174   2.545   2.973   1.447  2.4818  3.4377  1.2789
  224DMF     H5 3175   2.549   2.961   1.626  1.0381  0.5885  0.0754
  224DMF     H6 3176   2.423   3.066   1.547  0.4227 -0.6222  0.6405
  224DMF     H7 3177   2.214   2.964   1.590 -0.4411  1.1563 -1.4464
  225DMF     C1 3178   3.315   1.281   0.479 -0.3323  1.1373 -0.3582
  225DMF     N1 3179   3.417   1.372   0.531  0.1804  0.8167  0.0994
  225DMF     C2 3180   3.533   1.390   0.440 -0.1507  0.1552  0.7539
  225DMF     C3 3181   3.395   1.430   0.659  0.8333  0.1338  0.6404
  225DMF     O1 3182   3.295   1.422   0.722 -0.1442 -0.3923 -0.4253
  225DMF     H1 3183   3.291   1.208   0.557 -0.7615 -1.0188 -2.4467
  225DMF     H2 3184   3.362   1.226   0.397  0.4460  1.5749 -0.2028
  225DMF     H3 3185   3.225   1.337   0.451 -2.1639 -2.1286 -1.2927
  225DMF     H4 3186   3.566   1.293   0.401  3.6764  1.1448  1.2959
  225DMF     H5 3187   3.611   1.440   0.500  1.9102 -0.5629 -1.2377
  225DMF     H6 3188   3.512   1.462   0.361  1.0275  2.3699  2.3864
  225DMF     H7 3189   3.482   1.491   0.689  0.9928  0.4831 -0.5073
  226DMF     C1 3190   1.027   1.854   2.245 -0.0028  0.7606 -0.7685
  226DMF     N1 3191   0.981   1.998   2.252 -0.2457  0.5552 -0.1542
  226DMF     C2 3192   0.837   2.022   2.287 -0.9314 -0.1663 -0.3279
  226DMF     C3 3193   1.072   2.103   2.256 -0.3551 -0.0557 -0.0267
  226DMF     O1 3194   1.191   2.087   2.250  0.1700 -0.2437 -0.0506
  226DMF     H1 3195   1.136   1.843   2.240 -0.0887 -0.6990  0.2083
  226DMF     H2 3196   0.976   1.809   2.159 -1.2575 -1.0083  0.8491
  226DMF     H3 3197   0.980   1.809   2.333 -0.8235  0.6409 -1.2632
  226DMF     H4 3198   0.820   2.130   2.297 -0.3318 -0.0188 -0.8348
  226DMF     H5 3199   0.808   1.965   2.376  1.0746 -1.5373 -0.5069
  226DMF     H6 3200   0.770   1.985   2.208 -0.0922 -1.8733 -0.2663
  226DMF     H7 3201   1.020   2.200   2.259  0.0117  0.1305  0.3744
  227DMF     C1 3202   0.248   3.419   0.659  1.0056  0.2761  0.4784
  227DMF     N1 3203   0.386   3.382   0.705  0.0141 -0.5619  0.0117
  227DMF     C2 3204   0.452   3.253   0.654 -0.3677 -0.0388  0.0151
  227DMF     C3 3205   0.469   3.467   0.788  0.0984  0.0009  0.7949
  227DMF     O1 3206   0.444   3.583   0.819  0.3310  0.1453  0.1387
  227DMF     H1 3207   0.204   3.472   0.744  1.5197 -1.8676  2.1342
  227DMF     H2 3208   0.189   3.333   0.625 -2.5151  2.5055  0.7755
  227DMF     H3 3209   0.259   3.484   0.572  0.7785  0.3043  0.4719
  227DMF     H4 3210   0.382   3.204   0.585  0.3631  1.7956 -2.0758
  227DMF     H5 3211   0.483   3.184   0.733  1.7634  0.9107  0.0464
  227DMF     H6 3212   0.545   3.279   0.602 -0.6405  1.7374  0.3675
  227DMF     H7 3213   0.566   3.415   0.802  1.3583  1.2230 -2.9005
  228DMF     C1 3214   0.843   1.192   1.485  0.3905  0.2040 -0.2283
  228DMF     N1 3215   0.949   1.088   1.513  0.6856 -0.4426  0.7822
  228DMF     C2 3216   0.902   0.945   1.504 -0.1789  0.2353  0.2435
  228DMF     C3 3217   1.074   1.116   1.569 -0.0721 -0.7576 -0.6281
  228DMF     O1 3218   1.120   1.228   1.596 -0.3501  0.1487 -0.7299
  228DMF     H1 3219   0.781   1.174   1.396  0.0976 -0.8953  0.1950
  228DMF     H2 3220   0.875   1.297   1.488 -2.8701  1.2425  3.3527
  228DMF     H3 3221   0.774   1.191   1.570  1.2023 -0.9496  0.4251
  228DMF     H4 3222   0.855   0.917   1.599  1.1284 -0.5177  0.6869
  228DMF     H5 3223   0.995   0.888   1.494  0.3704  1.2684 -0.6708
  228DMF     H6 3224   0.834   0.925   1.421  0.2677 -1.7382  0.3317
  228DMF     H7 3225   1.128   1.024   1.596  1.7650  0.2043 -0.9214
  229DMF     C1 3226   0.385   0.895   0.431  1.1847  0.9462 -0.4869
  229DMF     N1 3227   0.437   1.027   0.467 -0.1597  0.2284  0.5946
  229DMF     C2 3228   0.385   1.096   0.590 -0.9301 -0.7965 -0.3617
  229DMF     C3 3229   0.539   1.084   0.389  0.3542  0.1674  1.1264
  229DMF     O1 3230   0.595   1.028   0.293  0.1326 -0.5544  0.5300
  229DMF     H1 3231   0.288   0.899   0.380  0.8964  0.0421 -0.0126
  229DMF     H2 3232   0.361   0.851   0.528 -0.0127 -2.2518 -2.1645
  229DMF     H3 3233   0.469   0.839   0.389  2.0283  0.6438  1.5549
  229DMF     H4 3234   0.309   1.030   0.633 -1.1093 -0.4567 -0.1524
  229DMF     H5 3235   0.336   1.191   0.564  1.2672 -0.3244 -2.9490
  229DMF     H6 3236   0.458   1.112   0.670 -0.6638  3.0847 -1.2673
  229DMF     H7 3237   0.580   1.178   0.431 -0.3448  0.3571  1.3911
  230DMF     C1 3238   0.340   3.353   0.245  0.2342  0.3509  0.8855
  230DMF     N1 3239   0.474   3.324   0.206 -0.7093  0.0647 -0.0961
  230DMF     C2 3240   0.581   3.361   0.293  0.3608 -0.7657  0.3831
  230DMF     C3 3241   0.498   3.261   0.085 -0.5302 -0.6752 -0.1809
  230DMF     O1 3242   0.412   3.245   0.005  0.5642 -0.0714  0.1993
  230DMF     H1 3243   0.276   3.355   0.155 -1.2842 -0.3632  1.9226
  230DMF     H2 3244   0.340   3.455   0.283  0.0752  0.7588 -0.1902
  230DMF     H3 3245   0.299   3.274   0.310 -0.0197 -0.5178 -0.2942
  230DMF     H4 3246   0.674   3.350   0.235  0.5131  1.3122  0.1809
  230DMF     H5 3247   0.582   3.289   0.375 -0.3590  0.4418  1.4678
  230DMF     H6 3248   0.573   3.467   0.322  0.9585 -0.9139  1.1170
  230DMF     H7 3249   0.604   3.232   0.074 -0.2946  0.3640 -0.6458
  231DMF     C1 3250   2.918   0.591   0.364 -0.9198 -0.8834  0.5245
  231DMF     N1 3251   2.933   0.686   0.477 -0.0787  0.4579  0.0374
  231DMF     C2 3252   3.070   0.736   0.504 -0.2395 -0.0738  1.1299
  231DMF     C3 3253   2.834   0.713   0.570 -0.2320 -0.0820 -0.5146
  231DMF     O1 3254   2.724   0.663   0.560  0.8188 -0.1222  0.4281
  231DMF     H1 3255   2.945   0.491   0.400  0.0902 -0.5371  0.7664
  231DMF     H2 3256   2.973   0.614   0.271 -1.4943 -2.5920 -0.2648
  231DMF     H3 3257   2.818   0.588   0.320 -0.7844 -0.6217  0.1966
  231DMF     H4 3258   3.078   0.781   0.603  0.1509  1.3868  0.4589
  231DMF     H5 3259   3.087   0.814   0.428  1.3553 -1.5768 -0.1222
  231DMF     H6 3260   3.151   0.661   0.499  0.3282  0.6370 -1.3887
  231DMF     H7 3261   2.872   0.772   0.655  0.3002  0.0822 -0.8666
  232DMF     C1 3262   1.902   1.373   0.572  0.3383 -0.9454 -0.8474
  232DMF     N1 3263   1.919   1.435   0.701  0.0813  0.2034  0.9652
  232DMF     C2 3264   1.803   1.498   0.767  0.7696  0.3481  0.1263
  232DMF     C3 3265   2.047   1.451   0.761  0.8801  0.3135  0.1189
  232DMF     O1 3266   2.146   1.402   0.712 -0.0137  0.0953 -0.0895
  232DMF     H1 3267   1.928   1.436   0.486 -0.3367  1.0169  0.3566
  232DMF     H2 3268   1.793   1.357   0.570  0.3996 -1.7223  0.9781
  232DMF     H3 3269   1.938   1.270   0.577 -0.4722 -1.1542  0.9454
  232DMF     H4 3270   1.802   1.461   0.870  0.4555  0.8060  0.2861
  232DMF     H5 3271   1.704   1.480   0.724  0.0671  0.6027  1.6172
  232DMF     H6 3272   1.820   1.606   0.773 -2.0729  0.7497  1.8321
  232DMF     H7 3273   2.049   1.509   0.855 -1.0048 -0.6901  0.8028
  233DMF     C1 3274   0.300   2.170   1.541 -0.0216 -0.6351 -0.5420
  233DMF     N1 3275   0.246   2.036   1.537 -0.6789 -0.0506 -0.1315
  233DMF     C2 3276   0.338   1.917   1.510 -0.7836 -0.0071  0.2142
  233DMF     C3 3277   0.105   2.028   1.539 -0.3152 -0.3902  0.1474
  233DMF     O1 3278   0.031   2.129   1.542  0.0646  0.3349  0.3573
  233DMF     H1 3279   0.243   2.236   1.607  0.6851 -1.3932  0.8471
  233DMF     H2 3280   0.290   2.218   1.442 -0.2013  0.3877 -0.0347
  233DMF     H3 3281   0.401   2.155   1.581 -1.0395 -0.1290  2.3064
  233DMF     H4 3282   0.403   1.957   1.431 -0.5421 -0.8904 -0.0338
  233DMF     H5 3283   0.284   1.826   1.482 -1.7651  0.9857 -1.1575
  233DMF     H6 3284   0.401   1.905   1.599  3.2975 -0.6369 -2.6143
  233DMF     H7 3285   0.065   1.926   1.543 -3.6720  0.9527  2.9476
  234DMF     C1 3286   0.953   0.099   2.225  0.3890  0.2028 -0.1479
  234DMF     N1 3287   0.928   0.068   2.371  0.0438  0.3402  0.2971
  234DMF     C2 3288   1.006  -0.044   2.430 -0.0150  0.2631 -0.2934
  234DMF     C3 3289   0.823   0.139   2.441  0.2700 -0.1473 -0.1349
  234DMF     O1 3290   0.758   0.227   2.391  0.1312  0.4744  0.5343
  234DMF     H1 3291   1.024   0.182   2.217  0.7274 -0.1156 -0.4325
  234DMF     H2 3292   0.860   0.119   2.169  0.6561 -0.7343 -0.9455
  234DMF     H3 3293   0.999   0.012   2.178 -2.5416 -1.5184  0.0679
  234DMF     H4 3294   1.015  -0.036   2.539 -0.6001  0.9685 -0.2936
  234DMF     H5 3295   1.107  -0.045   2.387 -0.5340 -0.8720 -1.5215
  234DMF     H6 3296   0.961  -0.142   2.410  0.6618  0.0975 -1.0228
  234DMF     H7 3297   0.812   0.104   2.546  0.0944  1.2989  0.3418
  235DMF     C1 3298   1.122   0.709   3.447 -0.2259 -0.5388 -0.4400
  235DMF     N1 3299   1.059   0.837   3.472 -0.1143 -0.3495 -0.3073
  235DMF     C2 3300   1.011   0.870   3.609 -0.1387 -1.7690 -0.0525
  235DMF     C3 3301   1.020   0.917   3.363  0.1801  0.2184  0.6680
  235DMF     O1 3302   1.046   0.885   3.245 -0.1386 -0.5004 -0.7064
  235DMF     H1 3303   1.047   0.643   3.402 -0.4213 -0.3621 -0.3711
  235DMF     H2 3304   1.157   0.667   3.541  1.2198 -1.7880 -1.5077
  235DMF     H3 3305   1.195   0.718   3.365 -1.0482  2.6145 -0.8995
  235DMF     H4 3306   1.089   0.850   3.683 -0.7017  0.0850  1.0856
  235DMF     H5 3307   0.921   0.817   3.642 -0.6176 -0.3373  0.9983
  235DMF     H6 3308   0.992   0.978   3.620  0.6547 -1.6053 -0.2160
  235DMF     H7 3309   0.985   1.017   3.393  0.0613  0.3803 -0.0040
  236DMF     C1 3310   2.421   2.074   3.261  0.8455  0.1659  0.0579
  236DMF     N1 3311   2.513   2.028   3.156  0.0963 -0.3406  0.4556
  236DMF     C2 3312   2.464   1.968   3.036  0.1503 -0.0141 -0.0561
  236DMF     C3 3313   2.652   2.033   3.181  0.3646 -0.0354  0.0432
  236DMF     O1 3314   2.695   2.076   3.291 -0.2850  0.7380  0.5533
  236DMF     H1 3315   2.443   2.035   3.361 -1.6232 -0.3878  0.4313
  236DMF     H2 3316   2.318   2.046   3.236  0.3394 -0.5539  2.7001
  236DMF     H3 3317   2.424   2.184   3.256 -0.5853  0.0965 -2.9701
  236DMF     H4 3318   2.510   1.869   3.034 -1.9420 -1.0096 -0.2834
  236DMF     H5 3319   2.501   2.032   2.956  0.4262  0.4312  0.4267
  236DMF     H6 3320   2.355   1.955   3.042  0.6321 -3.6914  2.2358
  236DMF     H7 3321   2.716   2.021   3.091 -1.9845  1.1536 -1.8287
  237DMF     C1 3322   0.537   2.809   2.280 -0.2957  0.1511 -0.0894
  237DMF     N1 3323   0.576   2.954   2.269 -0.5184  0.0843 -0.2746
  237DMF     C2 3324   0.717   2.990   2.250  0.5256 -0.1061  0.3106
  237DMF     C3 3325   0.470   3.053   2.285  0.1994  0.0377  0.9809
  237DMF     O1 3326   0.359   3.020   2.323  0.3926 -0.2895  0.0781
  237DMF     H1 3327   0.454   2.790   2.349  0.7220 -1.9326  0.6007
  237DMF     H2 3328   0.630   2.755   2.299  0.7099  1.6819 -0.5774
  237DMF     H3 3329   0.508   2.783   2.177  0.0462  0.6813 -0.3226
  237DMF     H4 3330   0.762   2.952   2.157  2.6151  1.1143  0.7879
  237DMF     H5 3331   0.770   2.967   2.343  0.2879  1.1418  0.7639
  237DMF     H6 3332   0.721   3.100   2.245 -0.3094 -0.0944 -0.3087
  237DMF     H7 3333   0.506   3.158   2.278 -2.1206  0.7549 -0.8777
  238DMF     C1 3334   1.099   3.135   1.067 -0.5208 -0.0707 -0.0792
  238DMF     N1 3335   1.249   3.112   1.081  0.0538 -0.0233  0.3939
  238DMF     C2 3336   1.293   3.038   1.202 -0.6125 -0.5545 -0.3567
  238DMF     C3 3337   1.339   3.150   0.983 -0.3145  0.3169 -0.2652
  238DMF     O1 3338   1.309   3.212   0.885 -0.2595  0.3036 -0.5859
  238DMF     H1 3339   1.080   3.234   1.023  0.8551 -0.3157 -1.2669
  238DMF     H2 3340   1.043   3.126   1.161 -2.3104 -0.8829 -1.1873
  238DMF     H3 3341   1.048   3.061   1.004 -0.1869 -0.1027 -0.3130
  238DMF     H4 3342   1.394   3.002   1.178  0.0494  0.7142  0.4916
  238DMF     H5 3343   1.225   2.957   1.230 -0.4121 -1.4926 -2.4532
  238DMF     H6 3344   1.298   3.110   1.284  0.3414 -1.7902  0.6883
  238DMF     H7 3345   1.444   3.125   1.008 -0.0902 -0.7539 -2.1551
  239DMF     C1 3346   0.749   2.397   0.096  0.2817  0.2552  0.1703
  239DMF     N1 3347   0.716   2.316   0.214  0.0330  0.5194 -0.3194
  239DMF     C2 3348   0.772   2.178   0.224  0.6907  0.4820 -0.1397
  239DMF     C3 3349   0.627   2.357   0.310 -0.0249  0.5174  0.2608
  239DMF     O1 3350   0.603   2.478   0.322  0.2483 -0.3997 -0.1070
  239DMF     H1 3351   0.846   2.376   0.050 -0.9239  1.5692 -3.1434
  239DMF     H2 3352   0.736   2.502   0.125  2.4387  0.2023  1.3887
  239DMF     H3 3353   0.677   2.381   0.014 -0.6530  2.9502  0.4305
  239DMF     H4 3354   0.878   2.173   0.197  0.2505  0.5336 -1.8826
  239DMF     H5 3355   0.728   2.113   0.147  1.2785 -1.4858  1.1155
  239DMF     H6 3356   0.756   2.136   0.325 -1.1027 -0.5390 -0.8397
  239DMF     H7 3357   0.583   2.272   0.366 -1.9118  1.2648 -0.0436
  240DMF     C1 3358   1.568   1.635   1.242 -0.1434 -0.3416  0.0447
  240DMF     N1 3359   1.426   1.584   1.242 -1.1503 -0.1551 -0.1173
  240DMF     C2 3360   1.410   1.439   1.202 -0.4329  0.2778  0.2260
  240DMF     C3 3361   1.318   1.668   1.261  0.0992  0.1501 -0.4099
  240DMF     O1 3362   1.326   1.785   1.294  0.5645 -0.0001 -0.3789
  240DMF     H1 3363   1.555   1.742   1.262 -0.8911 -0.6494  1.2583
  240DMF     H2 3364   1.616   1.622   1.145 -0.1294 -0.0217  0.0073
  240DMF     H3 3365   1.627   1.600   1.328  0.6215 -0.8967 -0.7046
  240DMF     H4 3366   1.403   1.378   1.293  0.5873 -1.1161 -0.5965
  240DMF     H5 3367   1.503   1.413   1.148 -1.7981 -1.1510 -1.5220
  240DMF     H6 3368   1.326   1.419   1.135 -1.1141 -1.7572  1.6526
  240DMF     H7 3369   1.225   1.616   1.232  0.0715  0.8369 -1.5901
  241DMF     C1 3370   1.869   2.575   3.290 -0.4821 -0.0710 -0.1897
  241DMF     N1 3371   1.839   2.464   3.198 -0.3975 -0.3753  0.1040
  241DMF     C2 3372   1.845   2.324   3.243 -0.4510  0.3953  0.3506
  241DMF     C3 3373   1.819   2.488   3.062  0.5488  0.4342 -0.1757
  241DMF     O1 3374   1.819   2.604   3.022  0.1587 -0.1555 -0.4566
  241DMF     H1 3375   1.892   2.541   3.392 -1.2554  0.8713  0.3103
  241DMF     H2 3376   1.777   2.632   3.307 -1.3696 -1.3823 -0.5356
  241DMF     H3 3377   1.943   2.641   3.242 -0.7848  1.9671  2.0145
  241DMF     H4 3378   1.831   2.308   3.350 -0.8054 -0.1619  0.2187
  241DMF     H5 3379   1.941   2.276   3.219  0.2736  0.8906  2.1415
  241DMF     H6 3380   1.765   2.265   3.197  0.2428  0.4270 -0.9146
  241DMF     H7 3381   1.803   2.396   3.003  0.8664  0.0348  0.3618
  242DMF     C1 3382   0.934   2.053   2.868 -0.6541  0.1932 -0.5101
  242DMF     N1 3383   0.936   2.158   2.768  0.4531 -0.2245 -0.1309
  242DMF     C2 3384   0.932   2.294   2.826 -0.2746  0.2154 -0.2730
  242DMF     C3 3385   0.945   2.127   2.630  0.0922  0.7094 -0.1821
  242DMF     O1 3386   0.935   2.009   2.594  0.2254  0.2416  0.0550
  242DMF     H1 3387   1.035   2.016   2.887 -1.0504 -0.7310 -0.1454
  242DMF     H2 3388   0.872   1.968   2.836 -1.6089  0.6747  0.0427
  242DMF     H3 3389   0.900   2.088   2.966  1.7203  1.6966 -0.2058
  242DMF     H4 3390   0.952   2.373   2.752 -1.0859 -0.0916 -0.8171
  242DMF     H5 3391   0.996   2.304   2.915  1.9203  2.4565 -2.0100
  242DMF     H6 3392   0.829   2.312   2.856 -0.0254  1.3766 -0.0739
  242DMF     H7 3393   0.966   2.220   2.576  2.5677  0.8268  0.8973
  243DMF     C1 3394   2.641   0.694   3.028 -0.5992 -0.0521  1.3121
  243DMF     N1 3395   2.692   0.649   3.163 -0.6377  0.2083 -0.2297
  243DMF     C2 3396   2.651   0.515   3.199 -0.2751 -0.7125  0.5547
  243DMF     C3 3397   2.798   0.712   3.219 -0.0968 -0.1951 -0.4245
  243DMF     O1 3398   2.853   0.808   3.173  0.0826 -0.0870 -0.7614
  243DMF     H1 3399   2.532   0.700   3.022 -0.5166  2.4069  1.6190
  243DMF     H2 3400   2.666   0.621   2.950 -0.5155  2.6740 -1.3093
  243DMF     H3 3401   2.677   0.789   2.987 -1.7239  0.0350  0.5189
  243DMF     H4 3402   2.542   0.520   3.208 -0.1261  1.3806  1.4385
  243DMF     H5 3403   2.697   0.487   3.294  1.2401  0.1144  0.0751
  243DMF     H6 3404   2.693   0.449   3.121 -1.4028 -0.5232 -0.2264
  243DMF     H7 3405   2.826   0.653   3.308  2.0581 -0.9879 -1.5803
  244DMF     C1 3406   1.848   2.786   0.421  0.1645  0.3889 -0.6324
  244DMF     N1 3407   1.928   2.772   0.295  0.1905  0.0527 -0.4258
  244DMF     C2 3408   2.045   2.688   0.290  0.7705  0.2915  0.1426
  244DMF     C3 3409   1.887   2.828   0.170 -0.5968 -0.0366  0.1101
  244DMF     O1 3410   1.802   2.919   0.167  0.2813  0.3798  0.4207
  244DMF     H1 3411   1.844   2.689   0.471  1.2359  1.5901  1.8593
  244DMF     H2 3412   1.747   2.811   0.386  0.5221  3.3512  0.3036
  244DMF     H3 3413   1.891   2.856   0.494  4.8051 -0.9924 -1.8552
  244DMF     H4 3414   2.125   2.731   0.229 -1.3751  1.1009 -2.2299
  244DMF     H5 3415   2.009   2.593   0.249 -1.4995  0.7187  1.0540
  244DMF     H6 3416   2.086   2.670   0.390 -1.6125 -1.8369  0.7771
  244DMF     H7 3417   1.942   2.795   0.080 -1.7876 -0.7294 -0.3790
  245DMF     C1 3418   2.946   1.684   0.731  0.1795  0.3460 -0.0923
  245DMF     N1 3419   2.850   1.727   0.637  0.3630 -0.1593 -0.0147
  245DMF     C2 3420   2.758   1.625   0.576  0.3816 -0.7527 -0.1802
  245DMF     C3 3421   2.837   1.859   0.603  0.3911 -0.1907  0.1179
  245DMF     O1 3422   2.921   1.945   0.638 -0.3722 -0.4847  0.2369
  245DMF     H1 3423   2.987   1.585   0.710 -0.0292  0.0626  0.8446
  245DMF     H2 3424   2.907   1.695   0.833  0.2634 -0.5175  0.0310
  245DMF     H3 3425   3.035   1.749   0.727  0.4357  0.1201  1.5400
  245DMF     H4 3426   2.725   1.559   0.658 -0.1444  3.3895  3.1322
  245DMF     H5 3427   2.804   1.571   0.492  2.0873  3.2708 -1.9827
  245DMF     H6 3428   2.657   1.661   0.556  0.1797 -0.0001  2.0054
  245DMF     H7 3429   2.754   1.889   0.536 -0.4365  1.2017  1.7521
  246DMF     C1 3430   1.596   2.282   3.765  0.3948 -0.3372  0.0847
  246DMF     N1 3431   1.662   2.260   3.885  1.1633 -0.3528  0.4370
  246DMF     C2 3432   1.651   2.123   3.942 -0.3196  0.4843  1.0287
  246DMF     C3 3433   1.723   2.367   3.958 -0.1284  0.6457  1.4013
  246DMF     O1 3434   1.729   2.483   3.919 -0.2149 -0.2063 -0.1206
  246DMF     H1 3435   1.667   2.259   3.685  0.9760  0.1349  0.4543
  246DMF     H2 3436   1.565   2.385   3.745 -1.3744 -0.6190  1.2250
  246DMF     H3 3437   1.515   2.210   3.750 -0.9726  1.2816 -0.4024
  246DMF     H4 3438   1.705   2.101   4.035 -1.3026 -0.7230  1.3230
  246DMF     H5 3439   1.711   2.056   3.880  0.9809 -0.2108  2.9835
  246DMF     H6 3440   1.549   2.083   3.945  0.8066 -2.4843  1.7780
  246DMF     H7 3441   1.777   2.339   4.051 -0.0236 -1.8788  0.6171
  247DMF     C1 3442   0.325   2.960   3.636 -0.4847 -0.4483 -0.4782
  247DMF     N1 3443   0.180   2.922   3.664 -0.4441 -0.7785  0.5314
  247DMF     C2 3444   0.094   3.011   3.740  0.4942  0.0366 -0.4831
  247DMF     C3 3445   0.120   2.815   3.593 -0.3854  0.0111 -0.2710
  247DMF     O1 3446   0.182   2.739   3.527  0.4160 -0.0418  0.2166
  247DMF     H1 3447   0.353   2.890   3.556 -0.7497 -0.0040 -0.9708
  247DMF     H2 3448   0.387   2.949   3.725 -1.2328  1.2072  0.2712
  247DMF     H3 3449   0.322   3.058   3.587  2.7223  0.1085  0.3291
  247DMF     H4 3450   0.047   2.947   3.816  1.6234  0.4262  0.5525
  247DMF     H5 3451   0.023   3.059   3.671 -0.1038  1.3430  0.9955
  247DMF     H6 3452   0.151   3.090   3.791 -0.5189  0.6725 -0.3101
  247DMF     H7 3453   0.009   2.812   3.595 -0.5193  3.1874  0.1354
  248DMF     C1 3454   3.292   2.054   0.982  0.2111 -0.0684 -1.0249
  248DMF     N1 3455   3.348   1.980   1.096 -0.5363  0.2663 -0.0659
  248DMF     C2 3456   3.485   2.009   1.141 -0.1765  0.0657  0.2950
  248DMF     C3 3457   3.273   1.875   1.151 -0.4422 -0.6001  0.4968
  248DMF     O1 3458   3.172   1.827   1.097 -0.6663  1.3403 -0.0947
  248DMF     H1 3459   3.224   2.133   1.018 -0.7705 -0.5150 -1.8779
  248DMF     H2 3460   3.220   1.989   0.931 -2.2037  0.1136  2.0258
  248DMF     H3 3461   3.369   2.093   0.914  0.4481  0.0483 -0.6912
  248DMF     H4 3462   3.543   1.917   1.155 -2.3252 -1.6399 -1.7552
  248DMF     H5 3463   3.486   2.066   1.235 -0.7828 -0.1795  0.4498
  248DMF     H6 3464   3.530   2.061   1.056  0.0540 -0.6603 -0.0339
  248DMF     H7 3465   3.326   1.828   1.237 -0.5029  0.4377  1.1153
  249DMF     C1 3466   2.669   1.350   0.887 -0.1282  0.7748  0.1642
  249DMF     N1 3467   2.545   1.411   0.835  0.3293 -0.2314 -0.0069
  249DMF     C2 3468   2.530   1.558   0.866  0.7803  0.3800  0.3904
  249DMF     C3 3469   2.470   1.355   0.734  0.0586  0.1797  0.3256
  249DMF     O1 3470   2.508   1.252   0.674 -0.1059 -0.7631  0.3233
  249DMF     H1 3471   2.690   1.392   0.986  3.4670  0.0855 -0.2162
  249DMF     H2 3472   2.760   1.364   0.827 -0.2424  0.3362 -0.1173
  249DMF     H3 3473   2.651   1.242   0.901 -0.0407  0.8157  0.5840
  249DMF     H4 3474   2.607   1.613   0.810  1.2934 -0.3359  0.3867
  249DMF     H5 3475   2.549   1.582   0.972  0.0757  2.2582  0.1059
  249DMF     H6 3476   2.435   1.603   0.837  0.4289 -0.4070  0.3077
  249DMF     H7 3477   2.382   1.413   0.702  0.3377  0.5091  0.1446
  250DMF     C1 3478   1.720   2.035   2.228  0.0263 -0.8351  0.1401
  250DMF     N1 3479   1.577   2.043   2.255  0.1047 -0.3675  0.2142
  250DMF     C2 3480   1.513   2.170   2.288 -0.2731  0.0341 -0.0423
  250DMF     C3 3481   1.487   1.930   2.248 -0.3663 -0.2278 -0.1800
  250DMF     O1 3482   1.522   1.815   2.224  0.7659  0.2350 -0.0234
  250DMF     H1 3483   1.788   2.050   2.312 -0.0335 -2.1296  0.4331
  250DMF     H2 3484   1.739   2.119   2.160  2.5219 -0.2352  1.5146
  250DMF     H3 3485   1.744   1.949   2.164 -0.3161 -1.2468  0.5571
  250DMF     H4 3486   1.492   2.235   2.203 -4.7567 -0.5662  0.4529
  250DMF     H5 3487   1.580   2.219   2.360  1.6616  0.3693 -2.0384
  250DMF     H6 3488   1.420   2.145   2.342  0.1587  0.3619  0.8747
  250DMF     H7 3489   1.383   1.966   2.242  0.7879  2.8995 -4.7953
  251DMF     C1 3490   0.220   2.574   1.335  0.9297  0.4439  0.7790
  251DMF     N1 3491   0.114   2.505   1.406  0.2809  0.0259  0.2881
  251DMF     C2 3492   0.104   2.521   1.554  0.1816 -0.3843  0.9614
  251DMF     C3 3493   0.045   2.394   1.343 -0.4438  0.1780 -0.8856
  251DMF     O1 3494   0.047   2.360   1.225 -0.5034 -0.6623  0.3524
  251DMF     H1 3495   0.296   2.496   1.319 -0.3986 -0.3495 -1.8510
  251DMF     H2 3496   0.263   2.656   1.394 -0.3910  0.0349  2.3476
  251DMF     H3 3497   0.184   2.609   1.238 -1.6065 -0.2536  1.4217
  251DMF     H4 3498   0.084   2.428   1.609 -0.2266  0.0057  1.4895
  251DMF     H5 3499   0.036   2.600   1.589 -0.6944 -1.4400  1.6551
  251DMF     H6 3500   0.207   2.543   1.586  1.3174 -0.4193 -2.5050
  251DMF     H7 3501  -0.016   2.335   1.414 -2.9964  1.8874 -1.6011
  252DMF     C1 3502   2.609   0.535   2.256  0.2019 -0.5829 -0.1659
  252DMF     N1 3503   2.717   0.634   2.255  0.4097 -0.3199  0.1216
  252DMF     C2 3504   2.671   0.774   2.252 -0.1116 -1.0263 -0.0963
  252DMF     C3 3505   2.847   0.604   2.295 -0.6584  0.2894 -0.1562
  252DMF     O1 3506   2.875   0.495   2.339 -0.4685  0.3034 -0.0030
  252DMF     H1 3507   2.649   0.433   2.241  1.1207 -0.4414  1.2594
  252DMF     H2 3508   2.535   0.557   2.178 -1.8757 -1.6736  1.4567
  252DMF     H3 3509   2.559   0.541   2.353 -2.4968  4.3077 -1.7230
  252DMF     H4 3510   2.742   0.844   2.205  1.5661  0.7933  4.7867
  252DMF     H5 3511   2.662   0.805   2.357 -1.0939  1.8298 -0.9949
  252DMF     H6 3512   2.572   0.773   2.206 -0.6844  3.7304  0.7294
  252DMF     H7 3513   2.913   0.693   2.296 -0.9352  0.5316 -1.7023
  253DMF     C1 3514   0.683   1.282   2.282 -0.3141 -0.0111 -0.7892
  253DMF     N1 3515   0.823   1.315   2.259  0.0668  0.0948 -0.0706
  253DMF     C2 3516   0.857   1.457   2.226 -0.0436  0.5410 -0.6649
  253DMF     C3 3517   0.912   1.212   2.216  0.1653 -0.0593 -1.2826
  253DMF     O1 3518   0.881   1.095   2.226  0.4531 -0.3198  0.0463
  253DMF     H1 3519   0.633   1.372   2.321  2.3975  0.6677  1.2944
  253DMF     H2 3520   0.661   1.200   2.351 -0.2083 -0.5819 -1.4376
  253DMF     H3 3521   0.642   1.260   2.183  0.3519 -2.1559 -0.6107
  253DMF     H4 3522   0.934   1.460   2.148 -1.3048  0.3442 -1.9376
  253DMF     H5 3523   0.889   1.516   2.313 -0.1279 -0.0213 -0.2533
  253DMF     H6 3524   0.768   1.504   2.182 -0.3928  1.2426  0.7712
  253DMF     H7 3525   1.007   1.248   2.173 -0.9300  1.1307 -2.8032
  254DMF     C1 3526   1.946   0.222   3.331 -0.8116  0.4229  0.5793
  254DMF     N1 3527   1.867   0.106   3.385 -0.4907 -0.2916 -0.1758
  254DMF     C2 3528   1.803   0.117   3.519 -0.6103 -0.9103  0.0203
  254DMF     C3 3529   1.873  -0.018   3.310 -0.1065 -0.0608 -0.1604
  254DMF     O1 3530   1.922  -0.020   3.199  0.3940 -0.4040 -0.0309
  254DMF     H1 3531   2.040   0.193   3.283 -0.2534 -0.7097  2.3191
  254DMF     H2 3532   1.986   0.280   3.415 -3.6662  1.4972  1.2379
  254DMF     H3 3533   1.887   0.295   3.274  0.6362  0.9956 -0.2168
  254DMF     H4 3534   1.884   0.141   3.589 -0.4343  0.5390 -0.6522
  254DMF     H5 3535   1.759   0.023   3.553 -1.7724  0.3341  2.0639
  254DMF     H6 3536   1.729   0.198   3.517 -1.8923 -2.0731 -2.0825
  254DMF     H7 3537   1.816  -0.105   3.346 -2.2992  1.4308  0.0420
  255DMF     C1 3538   1.418   1.758   2.582  0.1383 -0.4929  0.2003
  255DMF     N1 3539   1.411   1.912   2.572 -0.1861 -0.4079  0.1023
  255DMF     C2 3540   1.274   1.967   2.533  0.8341  0.0079  0.1130
  255DMF     C3 3541   1.515   1.995   2.607 -0.0593  0.0078 -0.3148
  255DMF     O1 3542   1.627   1.963   2.644  0.6562  0.2411 -0.1343
  255DMF     H1 3543   1.323   1.726   2.626  0.2739  0.9244  1.5802
  255DMF     H2 3544   1.489   1.728   2.660  1.2753 -1.1351 -1.0617
  255DMF     H3 3545   1.444   1.715   2.485 -0.5003 -0.8593  0.1900
  255DMF     H4 3546   1.198   1.944   2.608  1.6261  0.4556  1.0642
  255DMF     H5 3547   1.241   1.919   2.440  1.3186 -0.5930  0.2526
  255DMF     H6 3548   1.283   2.075   2.515 -1.1944  0.2223  0.2496
  255DMF     H7 3549   1.479   2.098   2.623  3.7899  1.2030  1.1550
  256DMF     C1 3550   2.011   2.898   2.818 -1.6037 -0.0918  0.7657
  256DMF     N1 3551   2.075   2.804   2.721  0.1835 -0.3755 -0.2206
  256DMF     C2 3552   1.996   2.722   2.625  0.4968 -0.5487 -0.2276
  256DMF     C3 3553   2.213   2.789   2.725 -0.0160 -0.0961  0.8632
  256DMF     O1 3554   2.278   2.843   2.808  0.2161 -0.4036 -0.0172
  256DMF     H1 3555   1.904   2.916   2.804 -2.0178 -0.6333  3.0788
  256DMF     H2 3556   2.070   2.988   2.799  1.9025 -2.5034 -0.4998
  256DMF     H3 3557   2.032   2.856   2.917 -2.7782  0.2289  1.1594
  256DMF     H4 3558   2.049   2.630   2.600 -0.9391 -1.4779  0.0861
  256DMF     H5 3559   1.985   2.767   2.525 -3.2885 -1.0076 -0.0842
  256DMF     H6 3560   1.899   2.692   2.665  1.3293 -2.8623  0.0861
  256DMF     H7 3561   2.253   2.720   2.648 -1.2216 -1.1769  1.1734
  257DMF     C1 3562   1.114   3.107   1.551  0.4565  0.0064  0.5284
  257DMF     N1 3563   1.248   3.052   1.546  0.2333 -0.7056  0.0398
  257DMF     C2 3564   1.264   2.904   1.542  0.5455 -0.9590 -0.3272
  257DMF     C3 3565   1.366   3.128   1.550  0.4293  0.4460  0.5513
  257DMF     O1 3566   1.372   3.248   1.536  0.4386 -0.4971 -0.1148
  257DMF     H1 3567   1.031   3.036   1.555  0.1064  0.4607  1.5092
  257DMF     H2 3568   1.104   3.163   1.457 -1.0320  0.7973  1.1419
  257DMF     H3 3569   1.102   3.183   1.630  1.4019 -0.2096  0.8897
  257DMF     H4 3570   1.354   2.866   1.491  0.7327 -0.8147 -0.1095
  257DMF     H5 3571   1.182   2.854   1.489  1.2803 -1.5820 -0.8875
  257DMF     H6 3572   1.260   2.862   1.643 -2.1073 -0.0319 -0.0189
  257DMF     H7 3573   1.449   3.056   1.557 -1.4019 -1.5129  3.0228
  258DMF     C1 3574   0.521   0.259   3.129  0.3677 -0.7550  0.4623
  258DMF     N1 3575   0.445   0.178   3.033 -0.4069 -0.4085 -0.1440
  258DMF     C2 3576   0.437   0.035   3.054 -0.2070  0.4997 -0.6206
  258DMF     C3 3577   0.380   0.234   2.917 -0.1521  0.2862 -0.2399
  258DMF     O1 3578   0.356   0.352   2.900 -0.3723  0.3771 -0.1142
  258DMF     H1 3579   0.539   0.357   3.084 -0.1460 -1.3885 -1.1514
  258DMF     H2 3580   0.617   0.211   3.151  0.8706 -1.0253 -2.1688
  258DMF     H3 3581   0.458   0.267   3.219  0.2870  0.4339  0.3015
  258DMF     H4 3582   0.330   0.012   3.055 -0.5302  1.9666  0.5180
  258DMF     H5 3583   0.487  -0.001   3.145  0.8602  0.7149 -1.1118
  258DMF     H6 3584   0.482  -0.016   2.968  0.6859 -1.1970  0.8050
  258DMF     H7 3585   0.350   0.152   2.849  0.9066  0.2262 -0.6435
  259DMF     C1 3586   0.380   1.852   2.387  0.4135  1.0324 -0.6705
  259DMF     N1 3587   0.378   1.734   2.297  0.6726  0.1275 -0.6696
  259DMF     C2 3588   0.240   1.678   2.272 -0.0650 -0.2097  0.1177
  259DMF     C3 3589   0.492   1.693   2.236 -0.7288 -0.2157  0.4354
  259DMF     O1 3590   0.605   1.736   2.265  0.2959  0.0934 -0.2024
  259DMF     H1 3591   0.308   1.927   2.353 -0.7285  0.4182  0.3545
  259DMF     H2 3592   0.477   1.903   2.395 -0.6014  2.6735  1.6850
  259DMF     H3 3593   0.360   1.811   2.487  2.3376  0.2564 -0.5720
  259DMF     H4 3594   0.164   1.757   2.282  1.0483  0.6662  1.8836
  259DMF     H5 3595   0.227   1.600   2.347  1.4580 -0.4433  0.1485
  259DMF     H6 3596   0.220   1.637   2.172 -0.9546  0.0699  0.1760
  259DMF     H7 3597   0.480   1.612   2.161 -0.6686  0.8999 -0.7972
  260DMF     C1 3598   0.878   2.069   1.229  0.5164 -0.4735 -0.1158
  260DMF     N1 3599   1.019   2.024   1.206 -0.0739 -0.0173 -0.2094
  260DMF     C2 3600   1.048   1.907   1.117  0.3876 -1.1741 -0.6406
  260DMF     C3 3601   1.130   2.096   1.265  0.4200 -0.2756  0.4226
  260DMF     O1 3602   1.113   2.197   1.331  0.1740  0.2922  0.0509
  260DMF     H1 3603   0.870   2.171   1.271  0.3709  0.0749 -1.4504
  260DMF     H2 3604   0.827   1.997   1.293 -3.1355  1.8020 -0.2928
  260DMF     H3 3605   0.832   2.067   1.129  0.1452  1.6044 -0.0199
  260DMF     H4 3606   1.046   1.926   1.009  0.6059 -0.6365 -0.5523
  260DMF     H5 3607   0.981   1.824   1.145  0.4564 -0.5719  1.3866
  260DMF     H6 3608   1.149   1.869   1.133  0.3588 -0.7148  0.7482
  260DMF     H7 3609   1.227   2.053   1.233  0.7267  2.4616 -2.6796
  261DMF     C1 3610   2.125   0.078   1.222  0.4606  0.2889 -0.0686
  261DMF     N1 3611   2.167   0.214   1.243  0.5101 -0.6352 -0.0206
  261DMF     C2 3612   2.315   0.238   1.250 -0.6378  0.0582 -0.1189
  261DMF     C3 3613   2.081   0.308   1.307  0.3647 -0.4502  0.7662
  261DMF     O1 3614   1.969   0.279   1.330  0.4634 -0.5146 -0.2814
  261DMF     H1 3615   2.067   0.039   1.306  0.9114 -1.9332 -0.7659
  261DMF     H2 3616   2.206   0.005   1.216  0.1154 -0.0521 -0.6768
  261DMF     H3 3617   2.065   0.075   1.130 -0.2179  1.7894  0.3031
  261DMF     H4 3618   2.333   0.313   1.172  2.9941 -1.7626 -1.1034
  261DMF     H5 3619   2.367   0.147   1.219 -0.5369 -0.1186  0.5726
  261DMF     H6 3620   2.345   0.265   1.351  1.9730 -1.1093 -0.5488
  261DMF     H7 3621   2.127   0.401   1.346  0.6391 -1.2489  2.3836
  262DMF     C1 3622   1.140   1.266   3.110 -0.3252  0.3562 -0.3575
  262DMF     N1 3623   1.002   1.250   3.166 -0.5982  0.3388  0.2262
  262DMF     C2 3624   0.887   1.204   3.080 -0.4930 -0.5639  0.0952
  262DMF     C3 3625   0.979   1.288   3.297 -0.2115 -0.3468  0.4992
  262DMF     O1 3626   1.068   1.324   3.377  0.0792 -0.0865  0.8521
  262DMF     H1 3627   1.188   1.168   3.113  0.6038  0.6737 -3.4333
  262DMF     H2 3628   1.205   1.344   3.152 -0.4759  0.5989 -0.5683
  262DMF     H3 3629   1.125   1.302   3.007 -2.0035 -0.0875 -0.2862
  262DMF     H4 3630   0.914   1.152   2.987 -0.2152 -2.0339  0.9804
  262DMF     H5 3631   0.818   1.288   3.066 -0.4423 -0.4403  0.5936
  262DMF     H6 3632   0.820   1.143   3.142 -0.2120  0.9350  1.9059
  262DMF     H7 3633   0.872   1.287   3.323 -0.2922  2.8422  0.5089
  263DMF     C1 3634   0.084   1.342   2.304  0.9848  0.2178  0.7807
  263DMF     N1 3635   0.152   1.218   2.285 -0.1324  0.7779 -0.5299
  263DMF     C2 3636   0.088   1.093   2.312  0.4694 -0.0400 -0.3557
  263DMF     C3 3637   0.285   1.210   2.236 -0.4858 -0.4911 -0.1988
  263DMF     O1 3638   0.356   1.305   2.219 -0.1249 -0.0016 -0.7954
  263DMF     H1 3639   0.150   1.409   2.361 -0.3319  2.2984 -0.0468
  263DMF     H2 3640  -0.009   1.331   2.361  0.1167  2.0750 -0.1980
  263DMF     H3 3641   0.063   1.387   2.206 -0.2902 -1.5848  0.2065
  263DMF     H4 3642  -0.002   1.098   2.376 -0.8747 -0.1184 -2.2027
  263DMF     H5 3643   0.159   1.031   2.369 -0.6390  0.0158  1.1385
  263DMF     H6 3644   0.049   1.063   2.214 -1.0531  0.8017 -0.0285
  263DMF     H7 3645   0.331   1.110   2.226 -0.4656 -0.7473  2.0560
  264DMF     C1 3646   2.452   0.388   2.702  0.1760  0.2130 -0.0672
  264DMF     N1 3647   2.334   0.432   2.783 -0.9005 -0.5513 -0.5641
  264DMF     C2 3648   2.210   0.488   2.714  0.8599  0.7738  0.4109
  264DMF     C3 3649   2.352   0.457   2.923 -0.6835  0.9335  0.5676
  264DMF     O1 3650   2.460   0.451   2.986  0.0261 -0.1374  0.8256
  264DMF     H1 3651   2.522   0.328   2.761  0.1374 -1.5690 -1.7648
  264DMF     H2 3652   2.518   0.469   2.668  0.4325  0.4155  0.9199
  264DMF     H3 3653   2.416   0.320   2.624  3.6594  1.0962 -2.5630
  264DMF     H4 3654   2.160   0.408   2.658  1.9499  0.2707  0.1364
  264DMF     H5 3655   2.237   0.561   2.636  0.0914 -1.3782 -1.9436
  264DMF     H6 3656   2.148   0.535   2.791  1.0789  1.2578  0.3014
  264DMF     H7 3657   2.258   0.496   2.965 -0.7519  0.2185  1.0953
  265DMF     C1 3658   1.968   1.623   2.806  0.1491 -0.7362  0.9102
  265DMF     N1 3659   1.928   1.646   2.667  0.9788  0.9336 -0.5670
  265DMF     C2 3660   1.844   1.765   2.648 -0.1139 -0.6149 -0.1805
  265DMF     C3 3661   1.983   1.573   2.558  0.2878 -0.1593 -0.0105
  265DMF     O1 3662   2.047   1.470   2.565 -0.1453  0.0281 -0.8178
  265DMF     H1 3663   2.059   1.683   2.818 -1.1171  0.8140  3.0297
  265DMF     H2 3664   1.987   1.517   2.829 -1.1579 -1.0232  0.7513
  265DMF     H3 3665   1.887   1.669   2.864 -1.1334 -1.2302 -0.4593
  265DMF     H4 3666   1.908   1.853   2.654  1.6207 -1.7547 -1.2774
  265DMF     H5 3667   1.780   1.773   2.737  0.7848  3.1295  0.1877
  265DMF     H6 3668   1.783   1.745   2.559 -0.9010 -0.4859  0.3246
  265DMF     H7 3669   1.956   1.621   2.462  3.4620 -0.6789 -1.1970
  266DMF     C1 3670   1.112   2.696   1.008  0.2874 -0.2404 -0.3037
  266DMF     N1 3671   1.240   2.687   0.937  0.1534 -0.2767  0.2363
  266DMF     C2 3672   1.315   2.816   0.906 -0.1366 -0.5747 -0.1882
  266DMF     C3 3673   1.292   2.558   0.907  0.0871  0.8695  0.1093
  266DMF     O1 3674   1.228   2.453   0.921  0.0678  0.6674 -0.3383
  266DMF     H1 3675   1.124   2.671   1.114  1.8758  0.1144 -0.3841
  266DMF     H2 3676   1.047   2.619   0.963  0.4497 -1.1758  1.0315
  266DMF     H3 3677   1.059   2.787   0.980  0.7316 -0.3566 -1.5945
  266DMF     H4 3678   1.400   2.794   0.840 -0.1470  0.3074 -0.5041
  266DMF     H5 3679   1.365   2.864   0.990  0.9826 -2.4708  0.2664
  266DMF     H6 3680   1.261   2.894   0.851 -0.0217 -2.5067 -3.2295
  266DMF     H7 3681   1.399   2.549   0.882  0.2050 -0.1379  0.9227
  267DMF     C1 3682   3.337   2.987   1.018  0.0157  0.2629  0.3941
  267DMF     N1 3683   3.316   2.842   1.038 -0.6996 -0.3624  0.5540
  267DMF     C2 3684   3.193   2.781   0.985 -1.5117 -0.5248  0.0810
  267DMF     C3 3685   3.428   2.762   1.047 -0.3727 -0.4475 -0.7930
  267DMF     O1 3686   3.534   2.812   1.080  0.1309 -0.0697 -0.0991
  267DMF     H1 3687   3.241   3.039   1.017 -0.0003  0.2157 -1.2770
  267DMF     H2 3688   3.373   3.010   0.917  0.7849  0.8665  0.7965
  267DMF     H3 3689   3.392   3.045   1.093 -0.6438  3.2117 -1.3374
  267DMF     H4 3690   3.119   2.840   1.041 -0.3512 -1.7007  2.9398
  267DMF     H5 3691   3.172   2.676   1.008 -1.3566 -0.0337  2.6282
  267DMF     H6 3692   3.189   2.815   0.881  2.3397  1.3682  0.4505
  267DMF     H7 3693   3.411   2.654   1.036  0.2923 -0.6902  0.4421
  268DMF     C1 3694   2.977   1.747   1.537  0.3360  0.5204  0.5492
  268DMF     N1 3695   3.095   1.643   1.537  0.3570 -0.0521 -0.1286
  268DMF     C2 3696   3.058   1.500   1.538 -0.1251  0.3292  0.4372
  268DMF     C3 3697   3.226   1.685   1.516 -0.3447  0.7378 -0.0521
  268DMF     O1 3698   3.265   1.799   1.518 -0.7105  0.1739 -0.2871
  268DMF     H1 3699   2.984   1.791   1.637  3.8890  0.5724  0.3355
  268DMF     H2 3700   2.886   1.687   1.525  0.8867 -0.2281  0.0438
  268DMF     H3 3701   2.982   1.818   1.453 -1.5319 -0.7566 -0.6808
  268DMF     H4 3702   3.020   1.469   1.440  1.8898  0.0613 -0.2626
  268DMF     H5 3703   2.991   1.486   1.624  0.6531  1.3783  1.2378
  268DMF     H6 3704   3.150   1.442   1.548 -1.1490 -1.4827 -0.4040
  268DMF     H7 3705   3.295   1.599   1.504 -0.5703  0.7156 -1.3238
  269DMF     C1 3706   0.526   0.573   3.216 -0.1587 -0.1698 -0.0040
  269DMF     N1 3707   0.679   0.577   3.232 -0.0209 -0.9826 -0.3121
  269DMF     C2 3708   0.740   0.485   3.324  0.5079  1.1038 -0.7630
  269DMF     C3 3709   0.755   0.680   3.162  0.1167  0.4396  0.4943
  269DMF     O1 3710   0.698   0.768   3.098 -0.2865 -0.2683 -0.1681
  269DMF     H1 3711   0.479   0.482   3.255  0.5610  0.2881  1.9947
  269DMF     H2 3712   0.494   0.594   3.113 -1.1480 -0.4417  0.2454
  269DMF     H3 3713   0.489   0.656   3.276 -1.1624 -1.3162  0.9942
  269DMF     H4 3714   0.727   0.382   3.288  1.9906  0.0025  1.7315
  269DMF     H5 3715   0.690   0.487   3.422  0.6346 -1.3872 -0.6295
  269DMF     H6 3716   0.846   0.513   3.334  1.1701 -1.8648  1.0942
  269DMF     H7 3717   0.865   0.669   3.173  0.1393  1.2806  1.2083
  270DMF     C1 3718   0.574   0.873   2.265 -0.1243  0.0275 -0.1080
  270DMF     N1 3719   0.483   0.752   2.252 -0.2761 -0.2859  0.1768
  270DMF     C2 3720   0.551   0.617   2.251 -0.0392  0.1812  0.1412
  270DMF     C3 3721   0.345   0.753   2.259  0.9860  0.4018  0.9453
  270DMF     O1 3722   0.273   0.847   2.275 -0.0652  0.1116  0.1480
  270DMF     H1 3723   0.650   0.880   2.186  0.7950 -1.6486  0.5996
  270DMF     H2 3724   0.619   0.873   2.365 -3.1143  0.7619  1.2742
  270DMF     H3 3725   0.515   0.965   2.255 -0.7341 -0.5134 -1.6657
  270DMF     H4 3726   0.490   0.542   2.198  0.5558 -0.1872 -0.0207
  270DMF     H5 3727   0.571   0.595   2.356  1.3751  1.4389  0.1492
  270DMF     H6 3728   0.649   0.621   2.203  0.3141 -1.1405  0.7228
  270DMF     H7 3729   0.305   0.652   2.239  0.8812  0.7706 -0.7838
  271DMF     C1 3730   3.303   2.006   0.363 -0.2582 -0.0285  0.0214
  271DMF     N1 3731   3.261   1.928   0.486  0.4010  1.2033 -0.4404
  271DMF     C2 3732   3.243   1.780   0.471  0.0106 -0.0470 -0.4930
  271DMF     C3 3733   3.240   1.991   0.608 -0.1501  0.6995 -0.5357
  271DMF     O1 3734   3.272   2.106   0.627  0.2195 -0.6617 -0.1457
  271DMF     H1 3735   3.252   2.103   0.365  0.7718  0.5342  4.2678
  271DMF     H2 3736   3.272   1.961   0.269  1.8620 -0.9971 -0.2502
  271DMF     H3 3737   3.411   2.023   0.372 -0.7495  3.4409  0.2615
  271DMF     H4 3738   3.155   1.739   0.522  2.3132 -2.1840  1.9185
  271DMF     H5 3739   3.325   1.734   0.528  1.1484  0.1385 -1.9527
  271DMF     H6 3740   3.242   1.748   0.367 -0.1158 -0.9882 -0.2067
  271DMF     H7 3741   3.211   1.921   0.689  0.2736  0.9421 -0.1708
  272DMF     C1 3742   0.351   1.615   0.199 -0.3297  0.6171 -0.2221
  272DMF     N1 3743   0.484   1.559   0.209  0.0733 -0.5626  0.0293
  272DMF     C2 3744   0.595   1.647   0.187 -0.3584 -0.2527  0.3425
  272DMF     C3 3745   0.506   1.425   0.236  0.2767 -0.0131  0.2431
  272DMF     O1 3746   0.416   1.349   0.258  0.4721 -0.0050 -0.1734
  272DMF     H1 3747   0.333   1.666   0.104 -0.8999  2.0403  0.6310
  272DMF     H2 3748   0.320   1.693   0.270  2.7462  0.6243  1.2239
  272DMF     H3 3749   0.278   1.534   0.189  1.3789 -0.8024 -1.4885
  272DMF     H4 3750   0.683   1.606   0.238 -0.7290  0.5441  1.6458
  272DMF     H5 3751   0.571   1.740   0.240 -0.4375 -0.1837  0.1862
  272DMF     H6 3752   0.612   1.669   0.081 -0.8141  0.9836  0.5154
  272DMF     H7 3753   0.610   1.390   0.221 -0.2866 -0.8980 -1.8219
  273DMF     C1 3754   1.972   3.040   2.264 -0.0831 -0.2176 -0.2904
  273DMF     N1 3755   1.991   3.066   2.409 -0.2671 -0.9555  0.0882
  273DMF     C2 3756   2.113   3.128   2.448  0.0403  0.2169 -0.0889
  273DMF     C3 3757   1.891   3.057   2.501 -0.8300 -0.4485  0.2166
  273DMF     O1 3758   1.784   3.009   2.474  0.2026  0.0372 -0.2555
  273DMF     H1 3759   1.892   3.103   2.224  0.3878  0.3971 -0.2826
  273DMF     H2 3760   1.955   2.932   2.253  1.1666 -0.5027  0.4692
  273DMF     H3 3761   2.067   3.057   2.210 -1.3371  3.0954 -1.6036
  273DMF     H4 3762   2.116   3.138   2.558 -0.1627  0.7481 -0.1261
  273DMF     H5 3763   2.115   3.228   2.402 -0.2407  0.4681  0.4309
  273DMF     H6 3764   2.192   3.059   2.418 -0.3052  0.7726 -2.3698
  273DMF     H7 3765   1.927   3.084   2.603 -0.5180  0.4127 -0.1193
  274DMF     C1 3766   2.994   2.461   0.893 -0.5210  0.0458  0.7865
  274DMF     N1 3767   3.071   2.376   0.802  0.0551  0.6048  0.5949
  274DMF     C2 3768   2.991   2.300   0.705 -0.0635 -0.0212 -0.2743
  274DMF     C3 3769   3.207   2.394   0.780  0.0175 -0.2066 -0.2165
  274DMF     O1 3770   3.269   2.468   0.849 -0.4855  0.6093  0.1649
  274DMF     H1 3771   2.999   2.427   0.997  0.3181  0.3187  0.8408
  274DMF     H2 3772   2.886   2.457   0.876 -0.2316 -2.8265 -0.8188
  274DMF     H3 3773   3.030   2.564   0.889 -1.8633  0.4749 -0.6973
  274DMF     H4 3774   2.916   2.358   0.651  1.3190  3.4591  1.4165
  274DMF     H5 3775   2.944   2.220   0.764 -1.1217  1.3547  0.7760
  274DMF     H6 3776   3.058   2.258   0.629  1.5425 -0.1067  1.1557
  274DMF     H7 3777   3.252   2.343   0.693 -0.3881 -0.0663 -0.5074
  275DMF     C1 3778   1.285   3.198   3.129  0.1952  0.1398 -0.2026
  275DMF     N1 3779   1.341   3.231   3.265 -0.6196  0.2356  0.0913
  275DMF     C2 3780   1.266   3.193   3.383  0.3169 -0.1953  0.1001
  275DMF     C3 3781   1.462   3.309   3.273 -0.0280 -0.2156  0.1459
  275DMF     O1 3782   1.523   3.348   3.176  0.2553  0.0353 -0.3901
  275DMF     H1 3783   1.357   3.135   3.075  1.4997 -0.1642  1.8449
  275DMF     H2 3784   1.268   3.289   3.070 -0.8525 -0.3860 -0.7306
  275DMF     H3 3785   1.183   3.160   3.143  0.0981  0.2477 -0.6059
  275DMF     H4 3786   1.329   3.224   3.467  1.4492  0.9948 -1.1524
  275DMF     H5 3787   1.250   3.085   3.392 -1.9464  0.2357  1.6271
  275DMF     H6 3788   1.175   3.254   3.392 -0.3085 -1.1731  0.3882
  275DMF     H7 3789   1.492   3.333   3.377 -0.2139 -1.2360  0.4367
  276DMF     C1 3790   3.156   1.040   1.510 -0.2260 -1.4255  0.7891
  276DMF     N1 3791   3.102   0.912   1.542  0.6426  0.2982  0.8580
  276DMF     C2 3792   3.205   0.804   1.553  0.5797  0.1415  0.4048
  276DMF     C3 3793   2.962   0.899   1.569 -0.4394  0.3150  0.4342
  276DMF     O1 3794   2.883   0.991   1.566  0.0605  0.1233  0.6641
  276DMF     H1 3795   3.185   1.033   1.405  0.9670 -0.9101  1.0766
  276DMF     H2 3796   3.245   1.067   1.568  2.0835 -0.9807 -2.8088
  276DMF     H3 3797   3.077   1.115   1.517  2.0384  1.2254 -0.9745
  276DMF     H4 3798   3.240   0.772   1.454 -0.3046 -0.2761  0.2221
  276DMF     H5 3799   3.149   0.722   1.600 -1.0169  0.2497 -1.2388
  276DMF     H6 3800   3.297   0.831   1.606  1.0859  0.6597 -0.7327
  276DMF     H7 3801   2.926   0.795   1.567 -2.4482  1.0005  0.1968
  277DMF     C1 3802   0.180   0.538   0.926 -0.4291  0.4969  0.1089
  277DMF     N1 3803   0.214   0.397   0.893  0.3061  0.0286  0.1995
  277DMF     C2 3804   0.271   0.371   0.769  0.2538 -0.8256 -0.1898
  277DMF     C3 3805   0.198   0.299   0.989 -0.7586 -0.0829  0.0215
  277DMF     O1 3806   0.156   0.321   1.101 -0.3941 -0.8877  0.2488
  277DMF     H1 3807   0.256   0.589   0.987 -2.1324  2.6776  0.4500
  277DMF     H2 3808   0.091   0.540   0.990  0.1580 -0.6248  0.9882
  277DMF     H3 3809   0.159   0.600   0.838 -0.3563 -0.4890 -0.6108
  277DMF     H4 3810   0.227   0.424   0.684 -0.1668 -2.2605 -0.8839
  277DMF     H5 3811   0.248   0.264   0.761 -1.4121 -0.5812  0.9641
  277DMF     H6 3812   0.375   0.405   0.779 -0.1101  0.3053 -0.2206
  277DMF     H7 3813   0.217   0.200   0.946 -1.5470  0.2560 -1.1294
  278DMF     C1 3814   2.603   0.353   0.395  0.3481  0.0509  0.4017
  278DMF     N1 3815   2.498   0.265   0.450 -1.0801 -0.2696 -0.5253
  278DMF     C2 3816   2.360   0.278   0.398 -0.1815  0.8994  0.1622
  278DMF     C3 3817   2.509   0.222   0.586 -0.0982  0.0573  0.2537
  278DMF     O1 3818   2.610   0.231   0.649 -0.8082  0.6053 -0.1174
  278DMF     H1 3819   2.585   0.382   0.291  1.9865  0.2598  0.1523
  278DMF     H2 3820   2.704   0.310   0.406  0.0176 -0.8659 -0.1904
  278DMF     H3 3821   2.602   0.445   0.456 -0.6270  0.1978  0.1611
  278DMF     H4 3822   2.290   0.212   0.450 -0.3275  0.4397 -0.6118
  278DMF     H5 3823   2.353   0.269   0.289 -3.4346  0.4485  0.3687
  278DMF     H6 3824   2.328   0.381   0.415  0.6821  0.8669  2.1445
  278DMF     H7 3825   2.411   0.191   0.627 -0.7355  0.9686 -0.5747
  279DMF     C1 3826   1.272   0.128   2.829  0.3015  0.0494 -0.4230
  279DMF     N1 3827   1.262   0.149   2.678 -0.7509  0.1124  0.2407
  279DMF     C2 3828   1.384   0.118   2.601 -0.9416  0.9845 -0.2719
  279DMF     C3 3829   1.137   0.189   2.618 -0.1569  0.1506  0.7271
  279DMF     O1 3830   1.035   0.216   2.686 -0.2220  0.0297 -0.0607
  279DMF     H1 3831   1.210   0.205   2.876  2.6840  2.7046 -1.4864
  279DMF     H2 3832   1.376   0.134   2.864  0.3406 -1.4564 -0.2160
  279DMF     H3 3833   1.244   0.026   2.860  1.0743 -0.4042 -1.1784
  279DMF     H4 3834   1.362   0.065   2.507  2.1552 -1.8349  0.5135
  279DMF     H5 3835   1.453   0.062   2.664 -0.9512 -0.3417 -1.4145
  279DMF     H6 3836   1.441   0.205   2.568 -0.3748  0.9547  0.6256
  279DMF     H7 3837   1.151   0.193   2.508 -1.1667 -1.9822  0.4795
  280DMF     C1 3838   1.223   2.142   0.014 -0.0230 -0.4345  0.3707
  280DMF     N1 3839   1.252   2.011  -0.039 -0.2519  0.0702  0.5495
  280DMF     C2 3840   1.235   1.899   0.049  0.0189  0.6191 -0.5517
  280DMF     C3 3841   1.292   1.985  -0.168  0.8694 -0.3468  0.5526
  280DMF     O1 3842   1.296   2.070  -0.256 -0.1228 -0.0540  0.3380
  280DMF     H1 3843   1.310   2.198   0.050 -0.0856  1.2029 -1.9287
  280DMF     H2 3844   1.152   2.134   0.096 -1.3877  0.5573 -0.6883
  280DMF     H3 3845   1.184   2.204  -0.068  4.1291 -0.5219 -1.8250
  280DMF     H4 3846   1.256   1.803  -0.000  0.0378  0.4060 -0.1268
  280DMF     H5 3847   1.131   1.898   0.081 -0.3237 -2.1972 -1.5896
  280DMF     H6 3848   1.312   1.903   0.127 -1.1562  0.6496  0.6043
  280DMF     H7 3849   1.311   1.878  -0.189  0.5776 -0.6299  1.6732
  281DMF     C1 3850   2.445   2.712   3.622  0.1129 -0.0649  0.0362
  281DMF     N1 3851   2.413   2.804   3.509 -0.6779 -0.2190 -0.0383
  281DMF     C2 3852   2.483   2.938   3.497  0.1710  0.5337 -0.3484
  281DMF     C3 3853   2.330   2.762   3.411 -0.0982 -1.1667 -0.3352
  281DMF     O1 3854   2.257   2.666   3.414 -0.0531 -0.8764  0.1547
  281DMF     H1 3855   2.465   2.757   3.721 -2.7335 -0.5742  0.8738
  281DMF     H2 3856   2.535   2.654   3.596 -0.3032 -0.1643 -1.1838
  281DMF     H3 3857   2.360   2.648   3.646 -0.4436  0.5965 -0.1831
  281DMF     H4 3858   2.464   2.994   3.404 -1.3386 -0.9806 -0.9909
  281DMF     H5 3859   2.591   2.920   3.497  0.3379  1.4377 -1.9088
  281DMF     H6 3860   2.460   3.006   3.580  0.0868 -0.7396  0.6848
  281DMF     H7 3861   2.324   2.837   3.330  0.1786 -0.5624  0.2014
  282DMF     C1 3862   2.976   0.021   0.777 -0.2083  0.1320 -0.0497
  282DMF     N1 3863   3.038   0.119   0.684 -0.7151  0.4641  0.8897
  282DMF     C2 3864   2.958   0.182   0.570  0.0429 -0.2737 -0.5649
  282DMF     C3 3865   3.180   0.127   0.672 -0.4281 -0.4550  0.0356
  282DMF     O1 3866   3.257   0.073   0.750  0.4543 -0.1768 -0.3092
  282DMF     H1 3867   2.980  -0.080   0.734 -0.4261  0.1812 -0.1828
  282DMF     H2 3868   2.873   0.051   0.799 -1.1135 -1.9996 -1.1632
  282DMF     H3 3869   3.032   0.030   0.871 -0.0101  0.1426 -0.1686
  282DMF     H4 3870   3.012   0.142   0.483  0.6954 -4.3448  1.5729
  282DMF     H5 3871   2.948   0.291   0.573 -0.7491 -0.3584  0.3725
  282DMF     H6 3872   2.852   0.153   0.574 -0.5065  1.7737  0.5018
  282DMF     H7 3873   3.202   0.201   0.593 -0.8906 -0.4040 -0.0455
  283DMF     C1 3874   2.820   0.780   1.247 -0.4174  0.1987 -0.4318
  283DMF     N1 3875   2.899   0.850   1.142  0.1652  0.2095 -0.1945
  283DMF     C2 3876   2.831   0.953   1.062  0.0913  0.7547  0.3924
  283DMF     C3 3877   3.037   0.831   1.132  0.7549  0.3342  0.1076
  283DMF     O1 3878   3.107   0.758   1.209 -0.1473 -0.2357  0.2023
  283DMF     H1 3879   2.724   0.831   1.263 -0.8882 -0.6724 -0.4049
  283DMF     H2 3880   2.876   0.778   1.341  2.9577  1.8611 -2.3148
  283DMF     H3 3881   2.798   0.678   1.213  4.2904 -0.6567 -1.2656
  283DMF     H4 3882   2.738   0.910   1.025  2.0973 -2.0420 -1.5412
  283DMF     H5 3883   2.897   0.987   0.982 -1.0433 -2.1840 -1.8755
  283DMF     H6 3884   2.802   1.041   1.121 -3.4294  1.1163 -1.7310
  283DMF     H7 3885   3.090   0.889   1.054 -0.0215  0.5168 -0.2917
  284DMF     C1 3886   1.503   3.265   2.809  0.6921  0.1547 -0.1925
  284DMF     N1 3887   1.575   3.242   2.683 -0.0293 -0.2749  0.0340
  284DMF     C2 3888   1.726   3.248   2.696  0.1737 -0.4934  0.4482
  284DMF     C3 3889   1.509   3.222   2.562 -0.7674 -0.7808  0.1004
  284DMF     O1 3890   1.390   3.234   2.551  0.2787  0.0281 -0.7634
  284DMF     H1 3891   1.395   3.251   2.791  1.0513 -0.0353 -2.3947
  284DMF     H2 3892   1.518   3.368   2.842  0.2618  0.6577 -1.5476
  284DMF     H3 3893   1.553   3.206   2.886  0.7851  2.7954  1.8298
  284DMF     H4 3894   1.749   3.343   2.746 -2.5545  1.6722 -2.1978
  284DMF     H5 3895   1.777   3.263   2.600 -0.8876  0.6280  0.0427
  284DMF     H6 3896   1.773   3.164   2.748 -0.3879 -1.8172 -1.1372
  284DMF     H7 3897   1.576   3.188   2.480  0.6480  0.4983  0.7098
  285DMF     C1 3898   1.753   1.021   2.632 -0.3655 -0.0808  0.0694
  285DMF     N1 3899   1.875   1.114   2.629  0.1901  0.1103 -0.0653
  285DMF     C2 3900   1.895   1.201   2.748 -0.4255 -0.1702 -0.8646
  285DMF     C3 3901   1.964   1.125   2.521 -0.3939  0.0805 -0.2612
  285DMF     O1 3902   1.952   1.059   2.422 -0.3420 -0.1093 -0.6127
  285DMF     H1 3903   1.678   1.063   2.564 -0.9065  2.0353  1.9578
  285DMF     H2 3904   1.706   1.031   2.730  0.8524  0.6873  0.5792
  285DMF     H3 3905   1.782   0.916   2.613 -2.4781 -0.6965  0.0790
  285DMF     H4 3906   1.981   1.160   2.803 -0.0578  0.1893 -1.1622
  285DMF     H5 3907   1.812   1.218   2.817 -0.3436  1.6787 -1.2062
  285DMF     H6 3908   1.912   1.304   2.714  1.6542 -0.6462 -1.3519
  285DMF     H7 3909   2.041   1.203   2.537 -0.0974  0.0666 -1.5479
  286DMF     C1 3910   2.454   0.623   0.982  0.1060 -0.1141  0.4796
  286DMF     N1 3911   2.560   0.567   0.898 -0.2493 -0.4467 -0.1610
  286DMF     C2 3912   2.696   0.603   0.938  0.1330  0.1586  0.0859
  286DMF     C3 3913   2.535   0.505   0.770 -0.3551 -0.6202  0.2806
  286DMF     O1 3914   2.418   0.478   0.731 -0.1424  0.1778 -0.0849
  286DMF     H1 3915   2.355   0.638   0.936 -0.0824 -0.1156  0.8841
  286DMF     H2 3916   2.482   0.726   1.007 -3.2906  1.2087 -0.8212
  286DMF     H3 3917   2.452   0.559   1.071 -2.2722  0.1719  0.6498
  286DMF     H4 3918   2.734   0.690   0.882 -1.3438  0.1736 -0.9091
  286DMF     H5 3919   2.762   0.516   0.950  0.6126  0.6917  1.4897
  286DMF     H6 3920   2.683   0.653   1.035 -0.2962 -1.1657  0.7072
  286DMF     H7 3921   2.626   0.465   0.721  0.1491 -0.5429  1.1552
  287DMF     C1 3922   0.762   1.525   3.429 -0.0631 -0.0829  0.0259
  287DMF     N1 3923   0.735   1.526   3.282  0.4330  0.2437 -0.0909
  287DMF     C2 3924   0.840   1.582   3.201 -0.2720 -0.1341 -0.4152
  287DMF     C3 3925   0.620   1.485   3.228  0.4409  0.8378 -0.5467
  287DMF     O1 3926   0.541   1.425   3.299 -0.0074  0.5599  0.6343
  287DMF     H1 3927   0.773   1.623   3.475  0.9797 -0.0890 -0.1990
  287DMF     H2 3928   0.857   1.474   3.450  1.1972  1.5012 -1.6088
  287DMF     H3 3929   0.680   1.486   3.490 -1.6821 -0.2688 -2.2051
  287DMF     H4 3930   0.835   1.690   3.185 -0.3619 -0.0427  0.2438
  287DMF     H5 3931   0.826   1.532   3.104  0.3674 -2.3032  0.5617
  287DMF     H6 3932   0.940   1.552   3.236 -0.0957  0.7449 -0.1748
  287DMF     H7 3933   0.604   1.502   3.120 -1.7048 -1.6835 -0.6823
  288DMF     C1 3934   1.564   0.089   2.261  0.0982  0.1634  0.4238
  288DMF     N1 3935   1.473   0.202   2.259 -0.3291 -0.0200 -0.8985
  288DMF     C2 3936   1.531   0.329   2.288 -0.1312  0.4766 -0.7707
  288DMF     C3 3937   1.336   0.193   2.230  0.0700  0.3130  0.1313
  288DMF     O1 3938   1.285   0.084   2.225  0.1705 -0.2346  0.1636
  288DMF     H1 3939   1.510  -0.003   2.289 -2.7520  1.5942 -0.1462
  288DMF     H2 3940   1.650   0.104   2.327  1.4223 -0.1856 -1.1858
  288DMF     H3 3941   1.610   0.072   2.163  0.2519 -0.0627  0.5352
  288DMF     H4 3942   1.568   0.360   2.190 -1.3010 -1.2768 -1.7945
  288DMF     H5 3943   1.609   0.321   2.365 -2.5491  1.1610  1.8432
  288DMF     H6 3944   1.452   0.399   2.318 -0.4676  0.3210 -1.2843
  288DMF     H7 3945   1.287   0.291   2.214 -2.9338 -1.0436  0.6270
  289DMF     C1 3946   2.935   3.106   0.689 -0.6691 -0.7648  0.3889
  289DMF     N1 3947   3.071   3.130   0.622  0.0865  0.3043  0.2982
  289DMF     C2 3948   3.190   3.185   0.693  0.2581  0.3148 -0.4625
  289DMF     C3 3949   3.090   3.071   0.492  0.3438  0.9201 -0.4213
  289DMF     O1 3950   2.999   3.042   0.421  0.1549 -0.4994  0.1237
  289DMF     H1 3951   2.873   3.196   0.679  1.8790  1.1695  1.6442
  289DMF     H2 3952   2.942   3.076   0.794  0.4491  0.0682  0.5656
  289DMF     H3 3953   2.894   3.024   0.628 -2.1078  0.4929 -0.3858
  289DMF     H4 3954   3.161   3.233   0.788 -0.2366  0.7265 -0.8184
  289DMF     H5 3955   3.245   3.262   0.638 -0.3944  1.5663  0.6195
  289DMF     H6 3956   3.260   3.102   0.712  1.0161  0.8323 -0.9784
  289DMF     H7 3957   3.196   3.058   0.462  0.0750 -0.0009 -0.9824
  290DMF     C1 3958   1.644   0.851   2.281 -0.2230 -0.3135 -0.5414
  290DMF     N1 3959   1.501   0.838   2.251 -0.3159 -0.8271  0.4933
  290DMF     C2 3960   1.451   0.704   2.260  0.0113  0.0574 -0.4040
  290DMF     C3 3961   1.423   0.950   2.233 -0.6214 -0.3183  0.2378
  290DMF     O1 3962   1.463   1.070   2.229 -0.6278 -0.2831  0.9432
  290DMF     H1 3963   1.664   0.837   2.388 -1.3636  1.4220 -0.0746
  290DMF     H2 3964   1.674   0.950   2.243  0.0952 -0.7202 -1.3488
  290DMF     H3 3965   1.696   0.766   2.235 -0.3157  0.0743 -1.3750
  290DMF     H4 3966   1.462   0.672   2.364  0.3661  0.7157 -0.2399
  290DMF     H5 3967   1.518   0.644   2.196 -0.7172 -0.1446 -0.9874
  290DMF     H6 3968   1.347   0.698   2.225  0.0908  0.4408 -0.7137
  290DMF     H7 3969   1.316   0.930   2.213 -0.1784 -1.1400 -1.4029
  291DMF     C1 3970   1.592   2.060   3.114 -0.3171  0.1652  0.1999
  291DMF     N1 3971   1.630   1.996   2.991  0.1258  0.0200  0.0516
  291DMF     C2 3972   1.596   1.854   2.975  0.6190  1.2665 -1.0509
  291DMF     C3 3973   1.743   2.041   2.923  0.0948 -0.5716  0.1549
  291DMF     O1 3974   1.793   2.151   2.952 -0.3636  0.2958 -0.0947
  291DMF     H1 3975   1.675   2.040   3.183  0.2144  0.6129 -0.3034
  291DMF     H2 3976   1.499   2.021   3.157 -1.8592  0.8166 -2.4478
  291DMF     H3 3977   1.588   2.169   3.099 -0.0370  0.2523  0.7596
  291DMF     H4 3978   1.673   1.802   2.915 -0.5497 -0.1461 -1.3699
  291DMF     H5 3979   1.495   1.842   2.933  0.5656  0.6552 -0.7467
  291DMF     H6 3980   1.591   1.794   3.067 -0.3078  2.5656 -0.2450
  291DMF     H7 3981   1.795   1.976   2.849  0.3078  0.6739 -0.8136
  292DMF     C1 3982   2.295   1.520   3.714  0.2085 -0.0569  0.7995
  292DMF     N1 3983   2.181   1.561   3.623  0.0959 -0.3170  0.2506
  292DMF     C2 3984   2.200   1.686   3.532 -0.6945  0.2370 -0.3018
  292DMF     C3 3985   2.061   1.479   3.608  0.0289 -0.0764  0.7913
  292DMF     O1 3986   2.043   1.376   3.669  0.4285  0.2606  0.0600
  292DMF     H1 3987   2.344   1.607   3.759 -0.6988  0.4576  0.8083
  292DMF     H2 3988   2.365   1.464   3.652 -0.4912 -2.4698  2.1128
  292DMF     H3 3989   2.260   1.457   3.797 -0.0238 -0.4432  0.4145
  292DMF     H4 3990   2.263   1.760   3.583 -0.6309 -0.8781  1.2817
  292DMF     H5 3991   2.111   1.731   3.487 -1.6493 -0.9315  0.3818
  292DMF     H6 3992   2.266   1.647   3.454  0.5759 -2.0278  1.8161
  292DMF     H7 3993   1.996   1.513   3.525  0.6938  0.3330  0.4253
  293DMF     C1 3994   1.901   0.219   2.245 -0.4718 -0.0453 -0.1403
  293DMF     N1 3995   1.894   0.152   2.379  0.8424  0.4507 -0.6414
  293DMF     C2 3996   1.875   0.240   2.497  0.6260  0.2788 -0.3616
  293DMF     C3 3997   1.897   0.016   2.397 -0.0398  0.0458 -0.5828
  293DMF     O1 3998   1.890  -0.059   2.301  0.1058  0.2748  0.1939
  293DMF     H1 3999   1.872   0.151   2.164  0.3199  2.1276 -2.2815
  293DMF     H2 4000   2.008   0.238   2.232 -0.2955  0.0379  1.2855
  293DMF     H3 4001   1.824   0.296   2.244 -0.0649  0.3668  0.1752
  293DMF     H4 4002   1.822   0.331   2.467  0.3711  0.7160  1.3999
  293DMF     H5 4003   1.971   0.269   2.542 -0.1436 -0.1656  1.5720
  293DMF     H6 4004   1.814   0.192   2.574 -1.1024  1.5629 -0.9075
  293DMF     H7 4005   1.891  -0.016   2.502 -0.9089 -0.0087 -0.6434
  294DMF     C1 4006   0.907   1.647   2.828 -0.8359  0.3757 -0.2222
  294DMF     N1 4007   0.775   1.630   2.760  0.2047 -0.6240  0.4362
  294DMF     C2 4008   0.744   1.720   2.643  0.2062 -0.5729  0.2465
  294DMF     C3 4009   0.699   1.524   2.793 -0.1027  0.9172  0.0856
  294DMF     O1 4010   0.724   1.434   2.869  0.5649 -0.1411 -0.0044
  294DMF     H1 4011   0.972   1.588   2.762 -2.1379 -0.9128 -0.3844
  294DMF     H2 4012   0.883   1.600   2.924 -1.5102 -1.8034 -1.4205
  294DMF     H3 4013   0.938   1.752   2.828  0.2804  0.0516  0.0661
  294DMF     H4 4014   0.665   1.675   2.580  0.1263  1.0306 -0.8267
  294DMF     H5 4015   0.834   1.719   2.580 -0.7586 -2.0895 -1.1793
  294DMF     H6 4016   0.725   1.822   2.676  0.8213 -0.4323  0.1675
  294DMF     H7 4017   0.607   1.533   2.731  0.6575  2.5204 -0.8574
  295DMF     C1 4018   1.177   3.065   0.102  0.2332 -0.0642  0.0675
  295DMF     N1 4019   1.074   3.165   0.083  0.5289  0.3988 -0.7243
  295DMF     C2 4020   0.951   3.161   0.164  0.1382 -0.6447 -0.1701
  295DMF     C3 4021   1.087   3.272  -0.003  1.1631  0.5449  0.6693
  295DMF     O1 4022   1.186   3.287  -0.077 -0.2126 -0.5991 -0.0743
  295DMF     H1 4023   1.209   3.056   0.206 -0.5155 -0.4469  0.2704
  295DMF     H2 4024   1.263   3.094   0.040  1.0244  1.2016  1.7118
  295DMF     H3 4025   1.132   2.969   0.076  0.6728 -0.6411  1.4042
  295DMF     H4 4026   0.876   3.100   0.111 -0.0188 -0.0319 -0.6574
  295DMF     H5 4027   0.922   3.266   0.175  0.4782 -0.7575  2.0151
  295DMF     H6 4028   0.970   3.116   0.262 -2.1873 -3.8738 -1.1082
  295DMF     H7 4029   1.006   3.346   0.008  0.9449  0.5733 -0.9923
  296DMF     C1 4030   0.540   0.331   2.611  0.1619 -0.5165  0.2455
  296DMF     N1 4031   0.630   0.342   2.726  0.4753  0.1151 -0.7006
  296DMF     C2 4032   0.695   0.474   2.758 -0.3020  0.7327 -0.6668
  296DMF     C3 4033   0.673   0.225   2.795 -0.4008  0.1406 -0.7382
  296DMF     O1 4034   0.642   0.114   2.755 -0.6392 -0.0788  0.3204
  296DMF     H1 4035   0.440   0.354   2.649 -0.4172 -0.4392 -1.3183
  296DMF     H2 4036   0.530   0.227   2.576  1.7065 -0.6123  0.0356
  296DMF     H3 4037   0.571   0.395   2.528  1.8738  0.6180  1.7181
  296DMF     H4 4038   0.803   0.461   2.744 -0.3698 -2.9336  1.5499
  296DMF     H5 4039   0.678   0.514   2.859 -0.2753  1.1975 -0.8462
  296DMF     H6 4040   0.663   0.556   2.693  0.1291  1.1501 -0.3564
  296DMF     H7 4041   0.739   0.244   2.882 -0.0297 -0.6251 -0.8515
  297DMF     C1 4042   0.079   2.538   0.164  0.0363  0.1511 -0.4040
  297DMF     N1 4043   0.055   2.546   0.021 -0.5094 -0.0509  0.5408
  297DMF     C2 4044  -0.064   2.618  -0.034 -0.0843 -0.4842 -0.2331
  297DMF     C3 4045   0.134   2.467  -0.065 -0.6509 -0.8836  0.3244
  297DMF     O1 4046   0.208   2.380  -0.022  0.3237  0.1164  0.2728
  297DMF     H1 4047   0.060   2.631   0.220  3.3765 -0.7435  2.3503
  297DMF     H2 4048   0.183   2.515   0.189 -0.4045 -0.5967  0.7430
  297DMF     H3 4049   0.016   2.460   0.209  0.9432 -1.0425 -1.1976
  297DMF     H4 4050  -0.080   2.599  -0.141  1.5638  0.0557 -0.5761
  297DMF     H5 4051  -0.038   2.724  -0.024 -2.9083  0.3147 -0.7093
  297DMF     H6 4052  -0.151   2.597   0.031  1.9659 -0.7186  2.5416
  297DMF     H7 4053   0.113   2.498  -0.169  1.6706  2.9431  0.9009
  298DMF     C1 4054   1.652   0.510   3.662  0.2796 -0.4392  0.4191
  298DMF     N1 4055   1.555   0.567   3.749  0.4217  0.0256 -0.1174
  298DMF     C2 4056   1.500   0.700   3.719  0.4548  0.0969  0.3740
  298DMF     C3 4057   1.510   0.496   3.855 -1.1171 -0.1858 -0.2632
  298DMF     O1 4058   1.562   0.394   3.897  0.6044  0.5730 -0.4046
  298DMF     H1 4059   1.607   0.494   3.563 -0.0722 -0.0278  0.5142
  298DMF     H2 4060   1.689   0.413   3.698  0.6260 -0.3083  0.4101
  298DMF     H3 4061   1.736   0.580   3.660  0.4912 -0.7248 -1.8901
  298DMF     H4 4062   1.521   0.717   3.612 -1.7119 -0.3427 -0.1395
  298DMF     H5 4063   1.548   0.775   3.784 -2.0665  1.5818  0.5696
  298DMF     H6 4064   1.392   0.713   3.732  0.3579 -0.2934 -0.0272
  298DMF     H7 4065   1.428   0.547   3.908 -0.6249  0.4079 -0.0775
  299DMF     C1 4066   1.963   1.669   0.163 -0.2768 -0.7248 -0.1592
  299DMF     N1 4067   2.023   1.800   0.149 -0.3994 -0.0444  0.2822
  299DMF     C2 4068   2.152   1.813   0.079  0.3166  0.0145 -0.2281
  299DMF     C3 4069   1.959   1.911   0.185  0.8861 -0.5774 -0.7525
  299DMF     O1 4070   1.853   1.908   0.246 -0.3540 -0.2364  0.0466
  299DMF     H1 4071   1.982   1.621   0.260 -0.1895 -1.6682 -0.6349
  299DMF     H2 4072   2.007   1.606   0.085  2.8257  3.2791 -1.8426
  299DMF     H3 4073   1.857   1.688   0.145 -0.0220 -0.0340 -0.9791
  299DMF     H4 4074   2.207   1.720   0.099  0.6674  0.4579  0.9048
  299DMF     H5 4075   2.217   1.895   0.113 -0.0399  0.2869 -0.1948
  299DMF     H6 4076   2.119   1.824  -0.025 -3.3446 -2.2332  0.6262
  299DMF     H7 4077   2.005   2.000   0.138 -1.3225  1.5149  0.9434
  300DMF     C1 4078   0.451   1.219   2.838 -0.3816 -0.4922 -0.0862
  300DMF     N1 4079   0.400   1.342   2.781  0.5281 -0.0256 -0.9218
  300DMF     C2 4080   0.398   1.354   2.639 -0.1988  0.1998 -0.1239
  300DMF     C3 4081   0.324   1.440   2.857 -0.0087 -0.1805  0.0399
  300DMF     O1 4082   0.306   1.444   2.974 -0.3354 -0.1743 -0.1843
  300DMF     H1 4083   0.559   1.230   2.857 -1.4179  1.1871  6.0201
  300DMF     H2 4084   0.434   1.144   2.760 -0.5031  0.3033 -0.8224
  300DMF     H3 4085   0.385   1.201   2.924 -1.2018  0.3744 -0.5288
  300DMF     H4 4086   0.440   1.452   2.613 -0.3843  0.3194  0.0300
  300DMF     H5 4087   0.295   1.351   2.600 -0.2078 -1.3150 -0.0233
  300DMF     H6 4088   0.454   1.275   2.586 -0.3286  0.2858 -0.3929
  300DMF     H7 4089   0.294   1.524   2.791 -1.1303 -0.8918 -0.3788
  301DMF     C1 4090   2.656   1.901   0.956  0.2497  0.5256 -0.0551
  301DMF     N1 4091   2.775   1.936   1.029 -0.5165 -0.1260  0.5102
  301DMF     C2 4092   2.848   2.058   0.994 -0.1922 -0.3101  0.0737
  301DMF     C3 4093   2.828   1.849   1.123 -0.0759  0.8381  0.1358
  301DMF     O1 4094   2.772   1.743   1.156  0.0487  0.0363  0.0870
  301DMF     H1 4095   2.681   1.821   0.885  0.7853  0.8326 -0.2128
  301DMF     H2 4096   2.620   1.987   0.898  2.0808  0.5689 -1.1561
  301DMF     H3 4097   2.580   1.866   1.027  1.5182 -2.3425 -0.0260
  301DMF     H4 4098   2.808   2.097   0.899  0.7191 -0.6706 -0.4657
  301DMF     H5 4099   2.953   2.028   0.980 -0.3142 -2.0720  2.7171
  301DMF     H6 4100   2.842   2.140   1.067  0.2581 -1.1235  1.0356
  301DMF     H7 4101   2.922   1.883   1.170  0.4944 -1.5680  0.8354
  302DMF     C1 4102   1.924   0.324   0.736  0.3715 -0.2192  0.1484
  302DMF     N1 4103   2.061   0.329   0.789 -0.0303 -0.1582 -0.1403
  302DMF     C2 4104   2.084   0.430   0.895 -0.9051 -0.4125  0.2945
  302DMF     C3 4105   2.159   0.250   0.736 -0.1323 -0.2775 -0.2883
  302DMF     O1 4106   2.140   0.179   0.643 -0.5194  0.3691  0.6179
  302DMF     H1 4107   1.916   0.276   0.638  0.2475 -0.0351  0.0692
  302DMF     H2 4108   1.883   0.425   0.729 -1.2451 -0.7673  1.3686
  302DMF     H3 4109   1.872   0.259   0.808  0.1432  0.2140  0.3763
  302DMF     H4 4110   2.161   0.395   0.965  0.9256  1.4353 -0.7456
  302DMF     H5 4111   1.996   0.459   0.953  0.1521 -0.1427  1.7769
  302DMF     H6 4112   2.120   0.515   0.836  0.6935  0.5540  2.6009
  302DMF     H7 4113   2.257   0.275   0.780  1.1373 -2.1481 -1.9464
  303DMF     C1 4114   1.622   1.301   1.494 -0.2980  0.2214  0.3995
  303DMF     N1 4115   1.601   1.168   1.552  0.2510 -0.9096  0.1787
  303DMF     C2 4116   1.461   1.119   1.565 -0.2455  0.2174  0.0511
  303DMF     C3 4117   1.708   1.080   1.582  0.6758  0.1771  0.3767
  303DMF     O1 4118   1.824   1.120   1.572  0.4560  0.2353 -0.0720
  303DMF     H1 4119   1.531   1.360   1.498 -0.1082  0.9817 -4.1860
  303DMF     H2 4120   1.671   1.295   1.396 -0.8671  0.5275  0.1004
  303DMF     H3 4121   1.706   1.347   1.548  0.3745 -0.7695  0.2172
  303DMF     H4 4122   1.456   1.025   1.622 -2.6902 -0.2763 -0.8986
  303DMF     H5 4123   1.431   1.106   1.460 -1.7423  2.1242  0.2123
  303DMF     H6 4124   1.392   1.194   1.605  1.6556  0.6901  2.5420
  303DMF     H7 4125   1.673   0.982   1.619  0.6626  0.4688  1.1432
  304DMF     C1 4126   2.086   3.009   3.184 -0.2419 -0.1197 -0.6714
  304DMF     N1 4127   1.988   2.960   3.284  0.4648 -0.4086 -0.3173
  304DMF     C2 4128   1.849   2.943   3.243 -0.3937 -0.2686  0.3016
  304DMF     C3 4129   2.013   2.978   3.426 -0.6039 -0.0011  0.2962
  304DMF     O1 4130   2.132   2.996   3.457 -0.0719  0.0073 -0.1301
  304DMF     H1 4131   2.128   2.917   3.142 -0.9660 -1.3640  1.2182
  304DMF     H2 4132   2.154   3.081   3.230 -0.9522  0.3574 -0.3617
  304DMF     H3 4133   2.022   3.055   3.108 -0.9715  0.7801  0.4673
  304DMF     H4 4134   1.830   2.848   3.191  0.0117 -0.3480  0.2967
  304DMF     H5 4135   1.819   3.036   3.194  1.4676 -1.2322 -2.8039
  304DMF     H6 4136   1.781   2.930   3.329 -1.4657  1.6865 -0.2262
  304DMF     H7 4137   1.924   2.960   3.489 -0.4816 -1.7300 -0.0044
  305DMF     C1 4138   1.363   2.355   2.909 -0.8067 -0.5076 -0.2082
  305DMF     N1 4139   1.448   2.424   2.806 -0.0711  0.2758 -0.2361
  305DMF     C2 4140   1.549   2.516   2.847  0.6846 -0.3089 -0.3609
  305DMF     C3 4141   1.431   2.393   2.670  0.3189 -0.4864  0.0804
  305DMF     O1 4142   1.337   2.328   2.626  0.0760  0.3658  0.1016
  305DMF     H1 4143   1.391   2.390   3.009  1.0711 -1.8927 -0.2169
  305DMF     H2 4144   1.369   2.245   2.908  2.3919 -0.3935  0.6636
  305DMF     H3 4145   1.259   2.380   2.883 -0.2842  2.2353  0.2185
  305DMF     H4 4146   1.587   2.490   2.947  0.8421 -0.0169 -0.3467
  305DMF     H5 4147   1.508   2.617   2.853 -0.3168 -0.5038 -3.4570
  305DMF     H6 4148   1.629   2.516   2.772  1.4077 -0.4087  0.4012
  305DMF     H7 4149   1.504   2.444   2.604  1.0909 -0.7908  0.6835
  306DMF     C1 4150   3.363   1.943   3.074 -0.3428 -0.2086 -0.0098
  306DMF     N1 4151   3.413   2.036   3.178 -0.2019 -0.1993 -0.0122
  306DMF     C2 4152   3.354   2.023   3.308  0.5898 -0.6842  0.0214
  306DMF     C3 4153   3.511   2.130   3.153  0.5458 -0.1512  0.1785
  306DMF     O1 4154   3.582   2.129   3.052  0.3464  0.5608 -0.1865
  306DMF     H1 4155   3.433   1.861   3.055  0.3971  0.0906  1.3930
  306DMF     H2 4156   3.358   1.989   2.974  1.0658 -1.1259 -0.5306
  306DMF     H3 4157   3.258   1.923   3.096 -1.3783  3.9726 -0.5694
  306DMF     H4 4158   3.291   2.106   3.342  1.6515  0.8249 -1.6153
  306DMF     H5 4159   3.434   1.999   3.378  0.1651 -0.9151  0.4361
  306DMF     H6 4160   3.289   1.936   3.291 -1.5933  0.3798  2.5400
  306DMF     H7 4161   3.533   2.190   3.243  0.8104  0.4938 -0.3094
  307DMF     C1 4162   0.547   2.688   0.841  0.4145  0.3443  1.0583
  307DMF     N1 4163   0.575   2.736   0.698  0.9076  0.0481  0.3205
  307DMF     C2 4164   0.651   2.654   0.604  0.0427 -0.7685  0.5202
  307DMF     C3 4165   0.536   2.859   0.658  0.0333  0.9041  0.3592
  307DMF     O1 4166   0.474   2.932   0.736  0.0929 -0.0466  0.4754
  307DMF     H1 4167   0.444   2.705   0.876  0.0542  0.3074  0.0458
  307DMF     H2 4168   0.624   2.746   0.893  0.2906 -0.2666  1.9418
  307DMF     H3 4169   0.570   2.581   0.850  1.4832  0.2404 -2.1798
  307DMF     H4 4170   0.644   2.700   0.505  0.1691 -4.5362 -1.3433
  307DMF     H5 4171   0.610   2.553   0.591  1.0460 -1.0885 -0.1826
  307DMF     H6 4172   0.757   2.657   0.631  0.1091  0.4230  0.1576
  307DMF     H7 4173   0.576   2.887   0.559  1.8352 -0.5863  0.6350
   3.40320   3.43847   3.80000
