DMF comparator n0
 1500
    1DMF     C1    1   0.927   1.302   0.259
    1DMF     N1    2   0.950   1.157   0.267
    1DMF     C2    3   0.851   1.070   0.203
    1DMF     C3    4   1.064   1.105   0.330
    1DMF     O1    5   1.152   1.178   0.373
    1DMF     H1    6   0.928   1.334   0.154
    1DMF     H2    7   1.004   1.357   0.314
    1DMF     H3    8   0.830   1.323   0.304
    1DMF     H4    9   0.752   1.093   0.244
    1DMF     H5   10   0.874   0.964   0.222
    1DMF     H6   11   0.850   1.087   0.095
    1DMF     H7   12   1.064   0.995   0.335
    2DMF     C1   13   2.467   2.006   1.488
    2DMF     N1   14   2.442   1.864   1.454
    2DMF     C2   15   2.506   1.761   1.536
    2DMF     C3   16   2.360   1.827   1.348
    2DMF     O1   17   2.305   1.908   1.277
    2DMF     H1   18   2.440   2.024   1.593
    2DMF     H2   19   2.409   2.074   1.425
    2DMF     H3   20   2.574   2.029   1.475
    2DMF     H4   21   2.614   1.774   1.535
    2DMF     H5   22   2.481   1.662   1.496
    2DMF     H6   23   2.468   1.769   1.639
    2DMF     H7   24   2.349   1.718   1.334
    3DMF     C1   25   1.835   2.389   0.576
    3DMF     N1   26   1.946   2.292   0.574
    3DMF     C2   27   1.929   2.170   0.493
    3DMF     C3   28   2.066   2.317   0.643
    3DMF     O1   29   2.094   2.424   0.694
    3DMF     H1   30   1.813   2.421   0.473
    3DMF     H2   31   1.860   2.476   0.637
    3DMF     H3   32   1.746   2.340   0.618
    3DMF     H4   33   1.837   2.118   0.522
    3DMF     H5   34   2.015   2.103   0.506
    3DMF     H6   35   1.922   2.197   0.387
    3DMF     H7   36   2.135   2.231   0.641
    4DMF     C1   37   2.382   1.343   1.182
    4DMF     N1   38   2.447   1.222   1.235
    4DMF     C2   39   2.490   1.119   1.140
    4DMF     C3   40   2.487   1.213   1.370
    4DMF     O1   41   2.467   1.301   1.452
    4DMF     H1   42   2.442   1.384   1.100
    4DMF     H2   43   2.371   1.420   1.259
    4DMF     H3   44   2.282   1.316   1.144
    4DMF     H4   45   2.403   1.072   1.093
    4DMF     H5   46   2.550   1.042   1.189
    4DMF     H6   47   2.552   1.167   1.062
    4DMF     H7   48   2.538   1.118   1.394
    5DMF     C1   49   2.037   0.185   1.676
    5DMF     N1   50   2.089   0.322   1.684
    5DMF     C2   51   1.996   0.432   1.656
    5DMF     C3   52   2.222   0.350   1.723
    5DMF     O1   53   2.303   0.263   1.747
    5DMF     H1   54   1.958   0.172   1.750
    5DMF     H2   55   2.117   0.111   1.696
    5DMF     H3   56   1.997   0.167   1.576
    5DMF     H4   57   1.975   0.436   1.548
    5DMF     H5   58   2.041   0.527   1.687
    5DMF     H6   59   1.903   0.415   1.711
    5DMF     H7   60   2.244   0.458   1.728
    6DMF     C1   61   0.627   2.430   1.612
    6DMF     N1   62   0.632   2.301   1.683
    6DMF     C2   63   0.504   2.236   1.716
    6DMF     C3   64   0.757   2.240   1.712
    6DMF     O1   65   0.862   2.297   1.690
    6DMF     H1   66   0.588   2.415   1.511
    6DMF     H2   67   0.727   2.475   1.605
    6DMF     H3   68   0.562   2.500   1.667
    6DMF     H4   69   0.445   2.301   1.782
    6DMF     H5   70   0.521   2.140   1.766
    6DMF     H6   71   0.448   2.219   1.623
    6DMF     H7   72   0.748   2.139   1.756
    7DMF     C1   73   1.265   0.856   2.408
    7DMF     N1   74   1.227   0.891   2.269
    7DMF     C2   75   1.141   1.010   2.251
    7DMF     C3   76   1.278   0.822   2.158
    7DMF     O1   77   1.360   0.732   2.166
    7DMF     H1   78   1.310   0.944   2.457
    7DMF     H2   79   1.337   0.774   2.410
    7DMF     H3   80   1.176   0.827   2.465
    7DMF     H4   81   1.044   0.993   2.299
    7DMF     H5   82   1.124   1.029   2.144
    7DMF     H6   83   1.189   1.098   2.295
    7DMF     H7   84   1.240   0.860   2.062
    8DMF     C1   85   0.881   1.491   1.420
    8DMF     N1   86   1.018   1.522   1.381
    8DMF     C2   87   1.051   1.529   1.238
    8DMF     C3   88   1.112   1.558   1.478
    8DMF     O1   89   1.095   1.534   1.596
    8DMF     H1   90   0.814   1.551   1.358
    8DMF     H2   91   0.863   1.517   1.525
    8DMF     H3   92   0.863   1.384   1.406
    8DMF     H4   93   1.030   1.433   1.191
    8DMF     H5   94   1.158   1.553   1.225
    8DMF     H6   95   0.991   1.608   1.190
    8DMF     H7   96   1.207   1.596   1.436
    9DMF     C1   97   2.397   2.313   0.945
    9DMF     N1   98   2.383   2.421   1.044
    9DMF     C2   99   2.496   2.512   1.062
    9DMF     C3  100   2.264   2.440   1.118
    9DMF     O1  101   2.163   2.375   1.100
    9DMF     H1  102   2.429   2.354   0.848
    9DMF     H2  103   2.301   2.261   0.930
    9DMF     H3  104   2.472   2.240   0.980
    9DMF     H4  105   2.583   2.456   1.098
    9DMF     H5  106   2.471   2.591   1.134
    9DMF     H6  107   2.520   2.557   0.965
    9DMF     H7  108   2.271   2.522   1.192
   10DMF     C1  109   0.949   2.427   1.952
   10DMF     N1  110   0.803   2.408   1.972
   10DMF     C2  111   0.713   2.514   1.928
   10DMF     C3  112   0.750   2.289   2.019
   10DMF     O1  113   0.817   2.197   2.060
   10DMF     H1  114   0.968   2.469   1.853
   10DMF     H2  115   1.001   2.331   1.959
   10DMF     H3  116   0.988   2.496   2.028
   10DMF     H4  117   0.707   2.588   2.010
   10DMF     H5  118   0.613   2.474   1.910
   10DMF     H6  119   0.751   2.561   1.837
   10DMF     H7  120   0.639   2.285   2.014
   11DMF     C1  121   1.154   0.161   0.558
   11DMF     N1  122   1.243   0.145   0.441
   11DMF     C2  123   1.185   0.160   0.307
   11DMF     C3  124   1.381   0.121   0.457
   11DMF     O1  125   1.432   0.103   0.567
   11DMF     H1  126   1.112   0.262   0.558
   11DMF     H2  127   1.210   0.147   0.651
   11DMF     H3  128   1.072   0.089   0.553
   11DMF     H4  129   1.099   0.092   0.296
   11DMF     H5  130   1.259   0.138   0.229
   11DMF     H6  131   1.150   0.264   0.294
   11DMF     H7  132   1.437   0.118   0.362
   12DMF     C1  133   1.306   0.872   0.359
   12DMF     N1  134   1.436   0.889   0.291
   12DMF     C2  135   1.538   0.968   0.361
   12DMF     C3  136   1.454   0.849   0.157
   12DMF     O1  137   1.366   0.800   0.088
   12DMF     H1  138   1.314   0.800   0.442
   12DMF     H2  139   1.230   0.838   0.289
   12DMF     H3  140   1.275   0.968   0.403
   12DMF     H4  141   1.497   1.067   0.384
   12DMF     H5  142   1.628   0.980   0.298
   12DMF     H6  143   1.566   0.919   0.454
   12DMF     H7  144   1.556   0.868   0.120
   13DMF     C1  145   1.769   1.096   1.139
   13DMF     N1  146   1.899   1.130   1.197
   13DMF     C2  147   1.983   1.227   1.130
   13DMF     C3  148   1.940   1.073   1.315
   13DMF     O1  149   1.866   1.011   1.388
   13DMF     H1  150   1.710   1.187   1.123
   13DMF     H2  151   1.713   1.029   1.205
   13DMF     H3  152   1.788   1.046   1.044
   13DMF     H4  153   2.008   1.189   1.030
   13DMF     H5  154   2.075   1.246   1.187
   13DMF     H6  155   1.926   1.321   1.119
   13DMF     H7  156   2.047   1.093   1.338
   14DMF     C1  157   0.245   2.367   2.112
   14DMF     N1  158   0.275   2.424   2.245
   14DMF     C2  159   0.182   2.390   2.355
   14DMF     C3  160   0.396   2.491   2.271
   14DMF     O1  161   0.482   2.508   2.187
   14DMF     H1  162   0.230   2.259   2.119
   14DMF     H2  163   0.327   2.387   2.041
   14DMF     H3  164   0.153   2.413   2.073
   14DMF     H4  165   0.085   2.439   2.338
   14DMF     H5  166   0.223   2.422   2.452
   14DMF     H6  167   0.167   2.281   2.359
   14DMF     H7  168   0.406   2.524   2.376
   15DMF     C1  169   1.177   0.538   1.303
   15DMF     N1  170   1.273   0.427   1.299
   15DMF     C2  171   1.229   0.293   1.339
   15DMF     C3  172   1.395   0.441   1.232
   15DMF     O1  173   1.425   0.545   1.178
   15DMF     H1  174   1.088   0.511   1.245
   15DMF     H2  175   1.219   0.630   1.261
   15DMF     H3  176   1.147   0.558   1.407
   15DMF     H4  177   1.242   0.281   1.447
   15DMF     H5  178   1.288   0.217   1.287
   15DMF     H6  179   1.123   0.279   1.313
   15DMF     H7  180   1.460   0.352   1.238
   16DMF     C1  181   0.379   0.740   1.111
   16DMF     N1  182   0.448   0.771   1.236
   16DMF     C2  183   0.404   0.701   1.355
   16DMF     C3  184   0.552   0.865   1.241
   16DMF     O1  185   0.589   0.927   1.143
   16DMF     H1  186   0.368   0.631   1.100
   16DMF     H2  187   0.440   0.778   1.028
   16DMF     H3  188   0.280   0.786   1.108
   16DMF     H4  189   0.297   0.720   1.372
   16DMF     H5  190   0.461   0.735   1.442
   16DMF     H6  191   0.418   0.593   1.341
   16DMF     H7  192   0.594   0.879   1.342
   17DMF     C1  193   0.478   0.214   2.142
   17DMF     N1  194   0.540   0.177   2.013
   17DMF     C2  195   0.687   0.180   2.005
   17DMF     C3  196   0.463   0.137   1.903
   17DMF     O1  197   0.341   0.133   1.906
   17DMF     H1  198   0.512   0.145   2.220
   17DMF     H2  199   0.369   0.211   2.136
   17DMF     H3  200   0.509   0.316   2.168
   17DMF     H4  201   0.721   0.281   2.029
   17DMF     H5  202   0.721   0.152   1.905
   17DMF     H6  203   0.729   0.111   2.079
   17DMF     H7  204   0.522   0.110   1.814
   18DMF     C1  205   2.196   1.150   2.502
   18DMF     N1  206   2.249   1.287   2.502
   18DMF     C2  207   2.396   1.303   2.500
   18DMF     C3  208   2.164   1.398   2.512
   18DMF     O1  209   2.044   1.387   2.502
   18DMF     H1  210   2.221   1.099   2.409
   18DMF     H2  211   2.087   1.149   2.514
   18DMF     H3  212   2.242   1.092   2.583
   18DMF     H4  213   2.441   1.236   2.575
   18DMF     H5  214   2.423   1.406   2.523
   18DMF     H6  215   2.434   1.276   2.401
   18DMF     H7  216   2.217   1.494   2.525
   19DMF     C1  217   2.191   1.370   1.516
   19DMF     N1  218   2.113   1.250   1.541
   19DMF     C2  219   2.184   1.124   1.558
   19DMF     C3  220   1.973   1.255   1.532
   19DMF     O1  221   1.916   1.342   1.469
   19DMF     H1  222   2.274   1.373   1.588
   19DMF     H2  223   2.129   1.460   1.529
   19DMF     H3  224   2.231   1.367   1.414
   19DMF     H4  225   2.230   1.095   1.462
   19DMF     H5  226   2.115   1.045   1.591
   19DMF     H6  227   2.265   1.137   1.631
   19DMF     H7  228   1.924   1.167   1.576
   20DMF     C1  229   2.489   1.498   2.126
   20DMF     N1  230   2.408   1.615   2.166
   20DMF     C2  231   2.320   1.602   2.283
   20DMF     C3  232   2.410   1.734   2.090
   20DMF     O1  233   2.469   1.744   1.984
   20DMF     H1  234   2.547   1.462   2.212
   20DMF     H2  235   2.558   1.524   2.045
   20DMF     H3  236   2.423   1.417   2.091
   20DMF     H4  237   2.248   1.522   2.265
   20DMF     H5  238   2.265   1.695   2.302
   20DMF     H6  239   2.380   1.577   2.372
   20DMF     H7  240   2.349   1.815   2.135
   21DMF     C1  241   1.411   1.528   2.513
   21DMF     N1  242   1.440   1.670   2.537
   21DMF     C2  243   1.579   1.713   2.527
   21DMF     C3  244   1.339   1.764   2.562
   21DMF     O1  245   1.222   1.733   2.573
   21DMF     H1  246   1.452   1.499   2.415
   21DMF     H2  247   1.303   1.507   2.513
   21DMF     H3  248   1.459   1.467   2.590
   21DMF     H4  249   1.632   1.693   2.621
   21DMF     H5  250   1.585   1.821   2.505
   21DMF     H6  251   1.627   1.656   2.447
   21DMF     H7  252   1.376   1.867   2.572
   22DMF     C1  253   2.241   0.542   0.216
   22DMF     N1  254   2.230   0.665   0.299
   22DMF     C2  255   2.349   0.748   0.314
   22DMF     C3  256   2.118   0.692   0.376
   22DMF     O1  257   2.012   0.632   0.368
   22DMF     H1  258   2.262   0.570   0.111
   22DMF     H2  259   2.150   0.482   0.220
   22DMF     H3  260   2.325   0.481   0.253
   22DMF     H4  261   2.428   0.691   0.364
   22DMF     H5  262   2.323   0.836   0.376
   22DMF     H6  263   2.383   0.782   0.216
   22DMF     H7  264   2.131   0.778   0.445
   23DMF     C1  265   1.366   1.234   1.126
   23DMF     N1  266   1.303   1.119   1.191
   23DMF     C2  267   1.181   1.144   1.266
   23DMF     C3  268   1.367   0.994   1.198
   23DMF     O1  269   1.475   0.974   1.148
   23DMF     H1  270   1.299   1.276   1.051
   23DMF     H2  271   1.462   1.208   1.080
   23DMF     H3  272   1.382   1.310   1.204
   23DMF     H4  273   1.203   1.203   1.357
   23DMF     H5  274   1.140   1.048   1.297
   23DMF     H6  275   1.108   1.198   1.204
   23DMF     H7  276   1.309   0.917   1.252
   24DMF     C1  277   1.521   1.781   1.233
   24DMF     N1  278   1.398   1.823   1.163
   24DMF     C2  279   1.402   1.846   1.018
   24DMF     C3  280   1.274   1.814   1.228
   24DMF     O1  281   1.263   1.800   1.347
   24DMF     H1  282   1.567   1.698   1.177
   24DMF     H2  283   1.500   1.748   1.335
   24DMF     H3  284   1.594   1.863   1.237
   24DMF     H4  285   1.478   1.921   0.993
   24DMF     H5  286   1.304   1.881   0.982
   24DMF     H6  287   1.426   1.752   0.967
   24DMF     H7  288   1.187   1.822   1.159
   25DMF     C1  289   0.465   1.363   1.592
   25DMF     N1  290   0.401   1.492   1.561
   25DMF     C2  291   0.257   1.509   1.579
   25DMF     C3  292   0.478   1.600   1.517
   25DMF     O1  293   0.593   1.583   1.483
   25DMF     H1  294   0.447   1.338   1.697
   25DMF     H2  295   0.574   1.367   1.578
   25DMF     H3  296   0.424   1.283   1.529
   25DMF     H4  297   0.203   1.436   1.517
   25DMF     H5  298   0.226   1.610   1.548
   25DMF     H6  299   0.231   1.495   1.685
   25DMF     H7  300   0.423   1.695   1.508
   26DMF     C1  301   1.340   1.369   1.502
   26DMF     N1  302   1.481   1.336   1.489
   26DMF     C2  303   1.517   1.201   1.448
   26DMF     C3  304   1.575   1.438   1.492
   26DMF     O1  305   1.540   1.554   1.497
   26DMF     H1  306   1.298   1.385   1.402
   26DMF     H2  307   1.332   1.462   1.560
   26DMF     H3  308   1.284   1.291   1.555
   26DMF     H4  309   1.456   1.131   1.506
   26DMF     H5  310   1.624   1.183   1.463
   26DMF     H6  311   1.494   1.186   1.342
   26DMF     H7  312   1.679   1.402   1.477
   27DMF     C1  313   0.881   0.313   0.375
   27DMF     N1  314   0.737   0.284   0.384
   27DMF     C2  315   0.696   0.152   0.436
   27DMF     C3  316   0.643   0.376   0.336
   27DMF     O1  317   0.675   0.484   0.291
   27DMF     H1  318   0.929   0.282   0.469
   27DMF     H2  319   0.898   0.420   0.360
   27DMF     H3  320   0.924   0.257   0.292
   27DMF     H4  321   0.733   0.073   0.369
   27DMF     H5  322   0.587   0.145   0.442
   27DMF     H6  323   0.738   0.137   0.536
   27DMF     H7  324   0.539   0.341   0.347
   28DMF     C1  325   1.528   1.127   2.520
   28DMF     N1  326   1.675   1.137   2.508
   28DMF     C2  327   1.752   1.013   2.489
   28DMF     C3  328   1.739   1.264   2.505
   28DMF     O1  329   1.675   1.368   2.510
   28DMF     H1  330   1.486   1.088   2.426
   28DMF     H2  331   1.484   1.226   2.539
   28DMF     H3  332   1.502   1.059   2.602
   28DMF     H4  333   1.724   0.939   2.565
   28DMF     H5  334   1.860   1.032   2.495
   28DMF     H6  335   1.729   0.971   2.390
   28DMF     H7  336   1.849   1.257   2.498
   29DMF     C1  337   1.198   1.234   0.729
   29DMF     N1  338   1.097   1.152   0.794
   29DMF     C2  339   1.082   1.165   0.940
   29DMF     C3  340   1.034   1.047   0.725
   29DMF     O1  341   1.056   1.025   0.609
   29DMF     H1  342   1.183   1.340   0.756
   29DMF     H2  343   1.193   1.223   0.620
   29DMF     H3  344   1.297   1.201   0.764
   29DMF     H4  345   1.173   1.127   0.987
   29DMF     H5  346   0.999   1.102   0.975
   29DMF     H6  347   1.066   1.269   0.968
   29DMF     H7  348   0.965   0.987   0.788
   30DMF     C1  349   1.040   2.513   0.634
   30DMF     N1  350   1.038   2.373   0.679
   30DMF     C2  351   1.148   2.331   0.769
   30DMF     C3  352   0.942   2.282   0.630
   30DMF     O1  353   0.854   2.315   0.553
   30DMF     H1  354   1.034   2.579   0.721
   30DMF     H2  355   0.955   2.534   0.568
   30DMF     H3  356   1.133   2.532   0.580
   30DMF     H4  357   1.242   2.332   0.713
   30DMF     H5  358   1.130   2.231   0.809
   30DMF     H6  359   1.156   2.401   0.853
   30DMF     H7  360   0.952   2.180   0.672
   31DMF     C1  361   2.128   0.597   0.672
   31DMF     N1  362   2.042   0.480   0.649
   31DMF     C2  363   1.945   0.445   0.751
   31DMF     C3  364   2.069   0.389   0.544
   31DMF     O1  365   2.169   0.401   0.476
   31DMF     H1  366   2.070   0.688   0.651
   31DMF     H2  367   2.215   0.594   0.606
   31DMF     H3  368   2.163   0.597   0.776
   31DMF     H4  369   1.997   0.433   0.847
   31DMF     H5  370   1.895   0.351   0.726
   31DMF     H6  371   1.870   0.525   0.761
   31DMF     H7  372   1.997   0.306   0.536
   32DMF     C1  373   2.517   1.182   0.488
   32DMF     N1  374   2.430   1.230   0.595
   32DMF     C2  375   2.488   1.315   0.700
   32DMF     C3  376   2.293   1.202   0.591
   32DMF     O1  377   2.244   1.124   0.512
   32DMF     H1  378   2.562   1.268   0.437
   32DMF     H2  379   2.462   1.123   0.414
   32DMF     H3  380   2.595   1.118   0.531
   32DMF     H4  381   2.582   1.270   0.736
   32DMF     H5  382   2.420   1.322   0.786
   32DMF     H6  383   2.509   1.416   0.661
   32DMF     H7  384   2.236   1.259   0.667
   33DMF     C1  385   0.981   1.503   2.320
   33DMF     N1  386   1.041   1.635   2.339
   33DMF     C2  387   0.965   1.736   2.416
   33DMF     C3  388   1.175   1.660   2.303
   33DMF     O1  389   1.248   1.574   2.256
   33DMF     H1  390   0.970   1.454   2.417
   33DMF     H2  391   1.045   1.441   2.255
   33DMF     H3  392   0.883   1.513   2.272
   33DMF     H4  393   0.874   1.765   2.362
   33DMF     H5  394   1.026   1.826   2.434
   33DMF     H6  395   0.938   1.694   2.514
   33DMF     H7  396   1.207   1.764   2.323
   34DMF     C1  397   0.895   1.510   0.814
   34DMF     N1  398   0.845   1.503   0.674
   34DMF     C2  399   0.941   1.513   0.562
   34DMF     C3  400   0.712   1.466   0.646
   34DMF     O1  401   0.633   1.434   0.732
   34DMF     H1  402   0.982   1.445   0.827
   34DMF     H2  403   0.817   1.480   0.885
   34DMF     H3  404   0.924   1.612   0.841
   34DMF     H4  405   0.975   1.617   0.550
   34DMF     H5  406   0.893   1.483   0.468
   34DMF     H6  407   1.027   1.447   0.581
   34DMF     H7  408   0.690   1.461   0.538
   35DMF     C1  409   0.680   2.048   1.484
   35DMF     N1  410   0.623   1.942   1.402
   35DMF     C2  411   0.492   1.966   1.342
   35DMF     C3  412   0.691   1.821   1.383
   35DMF     O1  413   0.800   1.796   1.431
   35DMF     H1  414   0.692   2.140   1.426
   35DMF     H2  415   0.777   2.018   1.525
   35DMF     H3  416   0.611   2.065   1.568
   35DMF     H4  417   0.422   1.999   1.420
   35DMF     H5  418   0.454   1.874   1.296
   35DMF     H6  419   0.500   2.044   1.266
   35DMF     H7  420   0.635   1.751   1.319
   36DMF     C1  421   1.221   2.041   1.761
   36DMF     N1  422   1.198   1.942   1.656
   36DMF     C2  423   1.276   1.818   1.661
   36DMF     C3  424   1.079   1.946   1.581
   36DMF     O1  425   0.999   2.038   1.592
   36DMF     H1  426   1.187   1.998   1.856
   36DMF     H2  427   1.164   2.133   1.743
   36DMF     H3  428   1.328   2.065   1.767
   36DMF     H4  429   1.383   1.840   1.666
   36DMF     H5  430   1.255   1.754   1.575
   36DMF     H6  431   1.245   1.763   1.750
   36DMF     H7  432   1.065   1.860   1.513
   37DMF     C1  433   0.322   0.461   0.243
   37DMF     N1  434   0.246   0.476   0.368
   37DMF     C2  435   0.313   0.438   0.493
   37DMF     C3  436   0.121   0.541   0.371
   37DMF     O1  437   0.074   0.601   0.276
   37DMF     H1  438   0.421   0.509   0.254
   37DMF     H2  439   0.271   0.508   0.158
   37DMF     H3  440   0.337   0.355   0.221
   37DMF     H4  441   0.330   0.330   0.496
   37DMF     H5  442   0.252   0.468   0.579
   37DMF     H6  443   0.409   0.490   0.500
   37DMF     H7  444   0.074   0.539   0.471
   38DMF     C1  445   0.371   1.520   0.247
   38DMF     N1  446   0.501   1.533   0.314
   38DMF     C2  447   0.508   1.626   0.428
   38DMF     C3  448   0.614   1.464   0.270
   38DMF     O1  449   0.609   1.372   0.189
   38DMF     H1  450   0.298   1.486   0.322
   38DMF     H2  451   0.375   1.448   0.165
   38DMF     H3  452   0.339   1.618   0.210
   38DMF     H4  453   0.466   1.723   0.399
   38DMF     H5  454   0.613   1.640   0.458
   38DMF     H6  455   0.452   1.585   0.513
   38DMF     H7  456   0.707   1.498   0.318
   39DMF     C1  457   1.800   1.223   0.781
   39DMF     N1  458   1.653   1.213   0.777
   39DMF     C2  459   1.588   1.097   0.836
   39DMF     C3  460   1.578   1.316   0.722
   39DMF     O1  461   1.629   1.418   0.684
   39DMF     H1  462   1.837   1.210   0.883
   39DMF     H2  463   1.835   1.320   0.742
   39DMF     H3  464   1.841   1.145   0.716
   39DMF     H4  465   1.622   1.005   0.787
   39DMF     H5  466   1.479   1.107   0.826
   39DMF     H6  467   1.611   1.092   0.943
   39DMF     H7  468   1.469   1.297   0.719
   40DMF     C1  469   0.380   1.022   0.549
   40DMF     N1  470   0.280   0.917   0.521
   40DMF     C2  471   0.140   0.958   0.503
   40DMF     C3  472   0.311   0.781   0.522
   40DMF     O1  473   0.420   0.735   0.552
   40DMF     H1  474   0.387   1.091   0.464
   40DMF     H2  475   0.478   0.978   0.566
   40DMF     H3  476   0.349   1.079   0.638
   40DMF     H4  477   0.108   1.013   0.592
   40DMF     H5  478   0.076   0.870   0.490
   40DMF     H6  479   0.132   1.021   0.414
   40DMF     H7  480   0.224   0.717   0.499
   41DMF     C1  481   2.516   0.564   1.165
   41DMF     N1  482   2.396   0.478   1.170
   41DMF     C2  483   2.280   0.515   1.086
   41DMF     C3  484   2.389   0.370   1.260
   41DMF     O1  485   2.484   0.337   1.328
   41DMF     H1  486   2.566   0.552   1.068
   41DMF     H2  487   2.587   0.539   1.245
   41DMF     H3  488   2.486   0.669   1.178
   41DMF     H4  489   2.242   0.613   1.116
   41DMF     H5  490   2.199   0.441   1.098
   41DMF     H6  491   2.310   0.518   0.981
   41DMF     H7  492   2.291   0.319   1.262
   42DMF     C1  493   1.401   2.317   1.329
   42DMF     N1  494   1.450   2.182   1.298
   42DMF     C2  495   1.445   2.082   1.405
   42DMF     C3  496   1.501   2.151   1.172
   42DMF     O1  497   1.492   2.227   1.077
   42DMF     H1  498   1.297   2.312   1.364
   42DMF     H2  499   1.408   2.384   1.243
   42DMF     H3  500   1.462   2.357   1.411
   42DMF     H4  501   1.479   2.128   1.498
   42DMF     H5  502   1.510   1.997   1.379
   42DMF     H6  503   1.344   2.043   1.421
   42DMF     H7  504   1.546   2.051   1.166
   43DMF     C1  505   2.123   2.203   1.745
   43DMF     N1  506   2.174   2.079   1.685
   43DMF     C2  507   2.230   1.976   1.774
   43DMF     C3  508   2.163   2.057   1.547
   43DMF     O1  509   2.127   2.145   1.471
   43DMF     H1  510   2.048   2.179   1.821
   43DMF     H2  511   2.076   2.266   1.668
   43DMF     H3  512   2.206   2.260   1.789
   43DMF     H4  513   2.317   2.018   1.826
   43DMF     H5  514   2.263   1.889   1.716
   43DMF     H6  515   2.155   1.945   1.847
   43DMF     H7  516   2.192   1.955   1.517
   44DMF     C1  517   0.444   1.180   1.241
   44DMF     N1  518   0.484   1.315   1.272
   44DMF     C2  519   0.628   1.337   1.289
   44DMF     C3  520   0.392   1.421   1.273
   44DMF     O1  521   0.274   1.409   1.247
   44DMF     H1  522   0.496   1.151   1.149
   44DMF     H2  523   0.335   1.174   1.226
   44DMF     H3  524   0.474   1.114   1.323
   44DMF     H4  525   0.663   1.282   1.377
   44DMF     H5  526   0.649   1.444   1.304
   44DMF     H6  527   0.682   1.303   1.200
   44DMF     H7  528   0.437   1.520   1.296
   45DMF     C1  529   1.117   0.453   1.976
   45DMF     N1  530   1.014   0.541   1.917
   45DMF     C2  531   1.036   0.687   1.919
   45DMF     C3  532   0.896   0.487   1.866
   45DMF     O1  533   0.876   0.367   1.863
   45DMF     H1  534   1.215   0.478   1.934
   45DMF     H2  535   1.095   0.348   1.953
   45DMF     H3  536   1.119   0.466   2.085
   45DMF     H4  537   1.058   0.718   2.022
   45DMF     H5  538   0.946   0.740   1.884
   45DMF     H6  539   1.120   0.712   1.853
   45DMF     H7  540   0.824   0.563   1.832
   46DMF     C1  541   1.656   1.417   1.962
   46DMF     N1  542   1.715   1.315   1.873
   46DMF     C2  543   1.746   1.182   1.921
   46DMF     C3  544   1.744   1.346   1.742
   46DMF     O1  545   1.734   1.459   1.701
   46DMF     H1  546   1.565   1.379   2.009
   46DMF     H2  547   1.627   1.507   1.907
   46DMF     H3  548   1.729   1.445   2.039
   46DMF     H4  549   1.828   1.189   1.995
   46DMF     H5  550   1.780   1.120   1.838
   46DMF     H6  551   1.657   1.135   1.963
   46DMF     H7  552   1.773   1.259   1.680
   47DMF     C1  553   2.259   0.293   0.815
   47DMF     N1  554   2.400   0.294   0.856
   47DMF     C2  555   2.444   0.185   0.944
   47DMF     C3  556   2.490   0.392   0.810
   47DMF     O1  557   2.458   0.485   0.739
   47DMF     H1  558   2.231   0.195   0.775
   47DMF     H2  559   2.244   0.368   0.736
   47DMF     H3  560   2.195   0.317   0.900
   47DMF     H4  561   2.397   0.197   1.043
   47DMF     H5  562   2.553   0.187   0.956
   47DMF     H6  563   2.413   0.089   0.902
   47DMF     H7  564   2.593   0.375   0.847
   48DMF     C1  565   0.741   0.250   0.812
   48DMF     N1  566   0.739   0.364   0.717
   48DMF     C2  567   0.612   0.410   0.661
   48DMF     C3  568   0.858   0.426   0.679
   48DMF     O1  569   0.965   0.393   0.725
   48DMF     H1  570   0.675   0.270   0.897
   48DMF     H2  571   0.842   0.234   0.853
   48DMF     H3  572   0.708   0.158   0.762
   48DMF     H4  573   0.560   0.326   0.614
   48DMF     H5  574   0.630   0.489   0.587
   48DMF     H6  575   0.550   0.452   0.741
   48DMF     H7  576   0.845   0.506   0.603
   49DMF     C1  577   0.766   2.495   1.137
   49DMF     N1  578   0.799   2.360   1.088
   49DMF     C2  579   0.898   2.348   0.981
   49DMF     C3  580   0.728   2.247   1.133
   49DMF     O1  581   0.637   2.253   1.213
   49DMF     H1  582   0.857   2.542   1.178
   49DMF     H2  583   0.691   2.491   1.217
   49DMF     H3  584   0.728   2.556   1.055
   49DMF     H4  585   0.869   2.413   0.897
   49DMF     H5  586   0.905   2.245   0.944
   49DMF     H6  587   0.997   2.380   1.018
   49DMF     H7  588   0.764   2.153   1.086
   50DMF     C1  589   2.486   0.226   0.241
   50DMF     N1  590   2.414   0.220   0.369
   50DMF     C2  591   2.469   0.294   0.483
   50DMF     C3  592   2.285   0.163   0.378
   50DMF     O1  593   2.226   0.120   0.281
   50DMF     H1  594   2.501   0.330   0.212
   50DMF     H2  595   2.429   0.175   0.162
   50DMF     H3  596   2.583   0.176   0.252
   50DMF     H4  597   2.566   0.251   0.513
   50DMF     H5  598   2.400   0.290   0.568
   50DMF     H6  599   2.483   0.399   0.455
   50DMF     H7  600   2.244   0.162   0.481
   51DMF     C1  601   0.617   1.814   1.725
   51DMF     N1  602   0.664   1.678   1.760
   51DMF     C2  603   0.570   1.584   1.823
   51DMF     C3  604   0.799   1.641   1.743
   51DMF     O1  605   0.885   1.719   1.709
   51DMF     H1  606   0.538   1.809   1.649
   51DMF     H2  607   0.700   1.873   1.686
   51DMF     H3  608   0.576   1.864   1.813
   51DMF     H4  609   0.566   1.600   1.931
   51DMF     H5  610   0.603   1.481   1.806
   51DMF     H6  611   0.468   1.597   1.784
   51DMF     H7  612   0.818   1.535   1.768
   52DMF     C1  613   1.249   2.384   1.636
   52DMF     N1  614   1.355   2.450   1.714
   52DMF     C2  615   1.495   2.418   1.682
   52DMF     C3  616   1.327   2.554   1.804
   52DMF     O1  617   1.214   2.588   1.836
   52DMF     H1  618   1.242   2.433   1.538
   52DMF     H2  619   1.152   2.391   1.686
   52DMF     H3  620   1.274   2.278   1.620
   52DMF     H4  621   1.509   2.309   1.681
   52DMF     H5  622   1.562   2.462   1.757
   52DMF     H6  623   1.519   2.459   1.584
   52DMF     H7  624   1.418   2.600   1.846
   53DMF     C1  625   2.083   2.085   1.157
   53DMF     N1  626   2.140   2.077   1.022
   53DMF     C2  627   2.271   2.011   1.007
   53DMF     C3  628   2.079   2.139   0.914
   53DMF     O1  629   1.971   2.196   0.917
   53DMF     H1  630   2.057   1.983   1.190
   53DMF     H2  631   1.992   2.147   1.158
   53DMF     H3  632   2.157   2.128   1.225
   53DMF     H4  633   2.346   2.064   1.068
   53DMF     H5  634   2.303   2.010   0.902
   53DMF     H6  635   2.264   1.908   1.043
   53DMF     H7  636   2.140   2.129   0.822
   54DMF     C1  637   0.979   2.529   1.473
   54DMF     N1  638   0.998   2.426   1.371
   54DMF     C2  639   0.916   2.305   1.382
   54DMF     C3  640   1.095   2.438   1.270
   54DMF     O1  641   1.164   2.537   1.253
   54DMF     H1  642   0.881   2.577   1.457
   54DMF     H2  643   1.058   2.604   1.468
   54DMF     H3  644   0.980   2.482   1.572
   54DMF     H4  645   0.948   2.245   1.468
   54DMF     H5  646   0.926   2.243   1.292
   54DMF     H6  647   0.810   2.333   1.393
   54DMF     H7  648   1.101   2.349   1.205
   55DMF     C1  649   2.274   2.281   0.404
   55DMF     N1  650   2.314   2.359   0.286
   55DMF     C2  651   2.271   2.499   0.282
   55DMF     C3  652   2.388   2.304   0.181
   55DMF     O1  653   2.432   2.190   0.184
   55DMF     H1  654   2.315   2.327   0.495
   55DMF     H2  655   2.310   2.177   0.398
   55DMF     H3  656   2.165   2.281   0.409
   55DMF     H4  657   2.162   2.506   0.291
   55DMF     H5  658   2.302   2.547   0.189
   55DMF     H6  659   2.316   2.553   0.367
   55DMF     H7  660   2.404   2.374   0.097
   56DMF     C1  661   0.166   0.961   1.306
   56DMF     N1  662   0.205   1.039   1.424
   56DMF     C2  663   0.293   0.976   1.523
   56DMF     C3  664   0.166   1.172   1.439
   56DMF     O1  665   0.092   1.226   1.359
   56DMF     H1  666   0.257   0.940   1.248
   56DMF     H2  667   0.097   1.017   1.241
   56DMF     H3  668   0.118   0.867   1.336
   56DMF     H4  669   0.249   0.882   1.558
   56DMF     H5  670   0.303   1.044   1.609
   56DMF     H6  671   0.391   0.958   1.480
   56DMF     H7  672   0.208   1.222   1.528
   57DMF     C1  673   2.486   1.011   0.813
   57DMF     N1  674   2.420   0.884   0.782
   57DMF     C2  675   2.337   0.877   0.661
   57DMF     C3  676   2.441   0.771   0.862
   57DMF     O1  677   2.514   0.776   0.959
   57DMF     H1  678   2.559   1.034   0.735
   57DMF     H2  679   2.539   1.004   0.910
   57DMF     H3  680   2.412   1.091   0.822
   57DMF     H4  681   2.244   0.932   0.676
   57DMF     H5  682   2.313   0.772   0.638
   57DMF     H6  683   2.392   0.920   0.577
   57DMF     H7  684   2.381   0.683   0.831
   58DMF     C1  685   0.637   0.393   1.375
   58DMF     N1  686   0.724   0.482   1.451
   58DMF     C2  687   0.820   0.565   1.378
   58DMF     C3  688   0.735   0.469   1.589
   58DMF     O1  689   0.664   0.395   1.655
   58DMF     H1  690   0.572   0.454   1.311
   58DMF     H2  691   0.573   0.333   1.441
   58DMF     H3  692   0.697   0.325   1.314
   58DMF     H4  693   0.882   0.500   1.315
   58DMF     H5  694   0.886   0.618   1.448
   58DMF     H6  695   0.767   0.638   1.316
   58DMF     H7  696   0.810   0.538   1.632
   59DMF     C1  697   2.095   0.642   2.140
   59DMF     N1  698   1.951   0.638   2.175
   59DMF     C2  699   1.868   0.757   2.149
   59DMF     C3  700   1.890   0.516   2.212
   59DMF     O1  701   1.952   0.413   2.228
   59DMF     H1  702   2.107   0.657   2.032
   59DMF     H2  703   2.146   0.549   2.167
   59DMF     H3  704   2.143   0.725   2.193
   59DMF     H4  705   1.874   0.826   2.234
   59DMF     H5  706   1.763   0.729   2.133
   59DMF     H6  707   1.904   0.809   2.059
   59DMF     H7  708   1.780   0.524   2.223
   60DMF     C1  709   0.766   1.748   1.067
   60DMF     N1  710   0.620   1.757   1.065
   60DMF     C2  711   0.548   1.635   1.095
   60DMF     C3  712   0.552   1.877   1.042
   60DMF     O1  713   0.612   1.982   1.033
   60DMF     H1  714   0.800   1.715   1.166
   60DMF     H2  715   0.811   1.845   1.042
   60DMF     H3  716   0.797   1.674   0.993
   60DMF     H4  717   0.565   1.562   1.015
   60DMF     H5  718   0.441   1.655   1.109
   60DMF     H6  719   0.590   1.595   1.188
   60DMF     H7  720   0.442   1.867   1.038
   61DMF     C1  721   1.249   0.558   1.653
   61DMF     N1  722   1.224   0.414   1.672
   61DMF     C2  723   1.337   0.329   1.712
   61DMF     C3  724   1.101   0.356   1.638
   61DMF     O1  725   1.015   0.422   1.582
   61DMF     H1  726   1.292   0.600   1.744
   61DMF     H2  727   1.157   0.611   1.629
   61DMF     H3  728   1.320   0.571   1.570
   61DMF     H4  729   1.418   0.342   1.639
   61DMF     H5  730   1.308   0.224   1.715
   61DMF     H6  731   1.373   0.359   1.811
   61DMF     H7  732   1.093   0.249   1.662
   62DMF     C1  733   0.884   0.794   0.553
   62DMF     N1  734   0.820   0.762   0.426
   62DMF     C2  735   0.676   0.760   0.422
   62DMF     C3  736   0.893   0.725   0.311
   62DMF     O1  737   1.014   0.736   0.305
   62DMF     H1  738   0.846   0.891   0.590
   62DMF     H2  739   0.993   0.799   0.542
   62DMF     H3  740   0.857   0.719   0.628
   62DMF     H4  741   0.641   0.679   0.487
   62DMF     H5  742   0.641   0.742   0.320
   62DMF     H6  743   0.637   0.856   0.457
   62DMF     H7  744   0.830   0.691   0.227
   63DMF     C1  745   1.118   1.968   0.731
   63DMF     N1  746   1.142   1.861   0.636
   63DMF     C2  747   1.157   1.729   0.693
   63DMF     C3  748   1.175   1.891   0.504
   63DMF     O1  749   1.160   2.003   0.460
   63DMF     H1  750   1.020   1.952   0.776
   63DMF     H2  751   1.121   2.066   0.681
   63DMF     H3  752   1.198   1.965   0.806
   63DMF     H4  753   1.233   1.732   0.772
   63DMF     H5  754   1.181   1.657   0.614
   63DMF     H6  755   1.062   1.700   0.740
   63DMF     H7  756   1.212   1.804   0.446
   64DMF     C1  757   0.184   1.382   0.669
   64DMF     N1  758   0.146   1.414   0.531
   64DMF     C2  759   0.163   1.309   0.432
   64DMF     C3  760   0.116   1.546   0.494
   64DMF     O1  761   0.102   1.636   0.575
   64DMF     H1  762   0.130   1.293   0.704
   64DMF     H2  763   0.160   1.466   0.735
   64DMF     H3  764   0.292   1.362   0.673
   64DMF     H4  765   0.269   1.282   0.424
   64DMF     H5  766   0.125   1.341   0.334
   64DMF     H6  767   0.106   1.220   0.465
   64DMF     H7  768   0.103   1.559   0.385
   65DMF     C1  769   2.260   0.616   1.444
   65DMF     N1  770   2.209   0.752   1.420
   65DMF     C2  771   2.284   0.840   1.328
   65DMF     C3  772   2.087   0.793   1.476
   65DMF     O1  773   2.018   0.719   1.543
   65DMF     H1  774   2.241   0.556   1.355
   65DMF     H2  775   2.207   0.569   1.528
   65DMF     H3  776   2.367   0.619   1.467
   65DMF     H4  777   2.383   0.862   1.371
   65DMF     H5  778   2.230   0.934   1.311
   65DMF     H6  779   2.297   0.789   1.232
   65DMF     H7  780   2.062   0.898   1.453
   66DMF     C1  781   0.609   0.956   2.051
   66DMF     N1  782   0.479   1.024   2.062
   66DMF     C2  783   0.469   1.134   2.159
   66DMF     C3  784   0.363   0.972   2.003
   66DMF     O1  785   0.359   0.865   1.944
   66DMF     H1  786   0.685   1.029   2.020
   66DMF     H2  787   0.605   0.875   1.977
   66DMF     H3  788   0.636   0.915   2.149
   66DMF     H4  789   0.483   1.094   2.261
   66DMF     H5  790   0.370   1.181   2.155
   66DMF     H6  791   0.546   1.209   2.139
   66DMF     H7  792   0.274   1.037   2.017
   67DMF     C1  793   0.719   0.609   2.086
   67DMF     N1  794   0.743   0.601   2.231
   67DMF     C2  795   0.872   0.546   2.278
   67DMF     C3  796   0.643   0.636   2.321
   67DMF     O1  797   0.538   0.682   2.282
   67DMF     H1  798   0.798   0.667   2.039
   67DMF     H2  799   0.623   0.657   2.064
   67DMF     H3  800   0.716   0.507   2.045
   67DMF     H4  801   0.887   0.446   2.237
   67DMF     H5  802   0.873   0.541   2.387
   67DMF     H6  803   0.954   0.611   2.244
   67DMF     H7  804   0.668   0.619   2.427
   68DMF     C1  805   1.848   2.144   2.500
   68DMF     N1  806   1.764   2.195   2.390
   68DMF     C2  807   1.620   2.209   2.417
   68DMF     C3  808   1.814   2.213   2.259
   68DMF     O1  809   1.931   2.200   2.229
   68DMF     H1  810   1.856   2.220   2.578
   68DMF     H2  811   1.948   2.118   2.464
   68DMF     H3  812   1.802   2.054   2.542
   68DMF     H4  813   1.580   2.114   2.454
   68DMF     H5  814   1.566   2.238   2.327
   68DMF     H6  815   1.605   2.286   2.494
   68DMF     H7  816   1.735   2.240   2.187
   69DMF     C1  817   2.193   0.567   2.464
   69DMF     N1  818   2.212   0.714   2.453
   69DMF     C2  819   2.094   0.799   2.471
   69DMF     C3  820   2.338   0.769   2.420
   69DMF     O1  821   2.436   0.702   2.397
   69DMF     H1  822   2.165   0.542   2.567
   69DMF     H2  823   2.285   0.513   2.438
   69DMF     H3  824   2.113   0.535   2.397
   69DMF     H4  825   2.015   0.768   2.401
   69DMF     H5  826   2.119   0.904   2.451
   69DMF     H6  827   2.056   0.788   2.573
   69DMF     H7  828   2.337   0.879   2.415
   70DMF     C1  829   2.222   1.494   1.901
   70DMF     N1  830   2.289   1.541   1.779
   70DMF     C2  831   2.429   1.502   1.755
   70DMF     C3  832   2.224   1.634   1.698
   70DMF     O1  833   2.119   1.684   1.730
   70DMF     H1  834   2.259   1.395   1.929
   70DMF     H2  835   2.114   1.489   1.884
   70DMF     H3  836   2.242   1.566   1.982
   70DMF     H4  837   2.495   1.563   1.817
   70DMF     H5  838   2.455   1.516   1.650
   70DMF     H6  839   2.443   1.396   1.780
   70DMF     H7  840   2.276   1.656   1.603
   71DMF     C1  841   1.103   2.322   2.302
   71DMF     N1  842   1.114   2.177   2.323
   71DMF     C2  843   1.008   2.094   2.266
   71DMF     C3  844   1.230   2.116   2.371
   71DMF     O1  845   1.325   2.179   2.414
   71DMF     H1  846   1.082   2.341   2.196
   71DMF     H2  847   1.195   2.374   2.330
   71DMF     H3  848   1.019   2.361   2.360
   71DMF     H4  849   0.911   2.138   2.295
   71DMF     H5  850   1.013   1.991   2.303
   71DMF     H6  851   1.017   2.094   2.157
   71DMF     H7  852   1.227   2.006   2.368
   72DMF     C1  853   1.637   1.909   2.170
   72DMF     N1  854   1.689   1.786   2.229
   72DMF     C2  855   1.630   1.660   2.182
   72DMF     C3  856   1.799   1.784   2.316
   72DMF     O1  857   1.859   1.884   2.351
   72DMF     H1  858   1.656   1.911   2.062
   72DMF     H2  859   1.684   1.997   2.216
   72DMF     H3  860   1.529   1.915   2.188
   72DMF     H4  861   1.524   1.656   2.210
   72DMF     H5  862   1.683   1.574   2.224
   72DMF     H6  863   1.638   1.657   2.073
   72DMF     H7  864   1.826   1.683   2.351
   73DMF     C1  865   1.619   0.436   0.638
   73DMF     N1  866   1.607   0.575   0.586
   73DMF     C2  867   1.690   0.681   0.646
   73DMF     C3  868   1.515   0.604   0.485
   73DMF     O1  869   1.464   0.521   0.413
   73DMF     H1  870   1.723   0.402   0.630
   73DMF     H2  871   1.557   0.366   0.581
   73DMF     H3  872   1.587   0.432   0.743
   73DMF     H4  873   1.686   0.676   0.755
   73DMF     H5  874   1.655   0.780   0.614
   73DMF     H6  875   1.795   0.669   0.614
   73DMF     H7  876   1.500   0.713   0.473
   74DMF     C1  877   0.931   1.974   1.251
   74DMF     N1  878   1.032   2.029   1.162
   74DMF     C2  879   1.025   1.994   1.023
   74DMF     C3  880   1.142   2.099   1.213
   74DMF     O1  881   1.150   2.129   1.330
   74DMF     H1  882   0.830   1.996   1.215
   74DMF     H2  883   0.940   2.013   1.353
   74DMF     H3  884   0.945   1.865   1.255
   74DMF     H4  885   1.035   1.886   1.011
   74DMF     H5  886   1.107   2.046   0.970
   74DMF     H6  887   0.929   2.027   0.981
   74DMF     H7  888   1.219   2.124   1.137
   75DMF     C1  889   1.121   1.650   1.968
   75DMF     N1  890   1.246   1.725   1.992
   75DMF     C2  891   1.375   1.662   1.958
   75DMF     C3  892   1.243   1.847   2.060
   75DMF     O1  893   1.144   1.887   2.116
   75DMF     H1  894   1.110   1.630   1.860
   75DMF     H2  895   1.034   1.708   2.000
   75DMF     H3  896   1.123   1.556   2.023
   75DMF     H4  897   1.390   1.575   2.023
   75DMF     H5  898   1.457   1.734   1.974
   75DMF     H6  899   1.376   1.630   1.853
   75DMF     H7  900   1.341   1.900   2.063
   76DMF     C1  901   1.770   0.745   1.351
   76DMF     N1  902   1.669   0.640   1.364
   76DMF     C2  903   1.533   0.683   1.394
   76DMF     C3  904   1.705   0.505   1.366
   76DMF     O1  905   1.820   0.468   1.356
   76DMF     H1  906   1.740   0.815   1.272
   76DMF     H2  907   1.869   0.704   1.327
   76DMF     H3  908   1.778   0.798   1.447
   76DMF     H4  909   1.534   0.748   1.482
   76DMF     H5  910   1.470   0.597   1.418
   76DMF     H6  911   1.492   0.739   1.309
   76DMF     H7  912   1.620   0.437   1.381
   77DMF     C1  913   1.857   0.629   1.055
   77DMF     N1  914   1.715   0.616   1.019
   77DMF     C2  915   1.656   0.482   1.006
   77DMF     C3  916   1.632   0.728   1.010
   77DMF     O1  917   1.676   0.839   0.985
   77DMF     H1  918   1.877   0.572   1.146
   77DMF     H2  919   1.882   0.734   1.077
   77DMF     H3  920   1.921   0.592   0.974
   77DMF     H4  921   1.716   0.422   0.936
   77DMF     H5  922   1.554   0.488   0.966
   77DMF     H6  923   1.651   0.433   1.103
   77DMF     H7  924   1.525   0.705   1.020
   78DMF     C1  925   2.306   1.054   0.175
   78DMF     N1  926   2.161   1.062   0.151
   78DMF     C2  927   2.083   0.938   0.160
   78DMF     C3  928   2.098   1.184   0.123
   78DMF     O1  929   2.157   1.290   0.127
   78DMF     H1  930   2.325   1.026   0.279
   78DMF     H2  931   2.355   1.151   0.155
   78DMF     H3  932   2.350   0.979   0.108
   78DMF     H4  933   2.129   0.860   0.098
   78DMF     H5  934   1.980   0.955   0.128
   78DMF     H6  935   2.082   0.906   0.264
   78DMF     H7  936   1.992   1.172   0.096
   79DMF     C1  937   1.507   0.916   1.814
   79DMF     N1  938   1.500   0.927   1.667
   79DMF     C2  939   1.370   0.903   1.602
   79DMF     C3  940   1.616   0.961   1.593
   79DMF     O1  941   1.716   1.003   1.646
   79DMF     H1  942   1.442   0.993   1.859
   79DMF     H2  943   1.609   0.930   1.850
   79DMF     H3  944   1.473   0.817   1.845
   79DMF     H4  945   1.333   0.803   1.629
   79DMF     H5  946   1.380   0.908   1.492
   79DMF     H6  947   1.297   0.978   1.634
   79DMF     H7  948   1.603   0.951   1.484
   80DMF     C1  949   0.508   1.018   0.206
   80DMF     N1  950   0.369   0.969   0.200
   80DMF     C2  951   0.264   1.068   0.175
   80DMF     C3  952   0.339   0.832   0.207
   80DMF     O1  953   0.425   0.748   0.218
   80DMF     H1  954   0.535   1.065   0.111
   80DMF     H2  955   0.579   0.937   0.226
   80DMF     H3  956   0.518   1.093   0.286
   80DMF     H4  957   0.271   1.147   0.250
   80DMF     H5  958   0.165   1.020   0.181
   80DMF     H6  959   0.277   1.111   0.075
   80DMF     H7  960   0.231   0.810   0.201
   81DMF     C1  961   1.209   1.132   1.898
   81DMF     N1  962   1.261   1.257   1.840
   81DMF     C2  963   1.404   1.264   1.806
   81DMF     C3  964   1.177   1.369   1.824
   81DMF     O1  965   1.059   1.364   1.854
   81DMF     H1  966   1.216   1.052   1.823
   81DMF     H2  967   1.104   1.144   1.928
   81DMF     H3  968   1.268   1.106   1.986
   81DMF     H4  969   1.463   1.230   1.892
   81DMF     H5  970   1.434   1.366   1.779
   81DMF     H6  971   1.425   1.196   1.722
   81DMF     H7  972   1.230   1.458   1.786
   82DMF     C1  973   1.715   0.655   1.679
   82DMF     N1  974   1.715   0.598   1.813
   82DMF     C2  975   1.597   0.522   1.854
   82DMF     C3  976   1.833   0.593   1.887
   82DMF     O1  977   1.932   0.658   1.859
   82DMF     H1  978   1.729   0.573   1.607
   82DMF     H2  979   1.796   0.728   1.666
   82DMF     H3  980   1.619   0.703   1.661
   82DMF     H4  981   1.509   0.587   1.853
   82DMF     H5  982   1.610   0.481   1.955
   82DMF     H6  983   1.581   0.439   1.783
   82DMF     H7  984   1.826   0.524   1.973
   83DMF     C1  985   1.831   0.462   0.109
   83DMF     N1  986   1.783   0.568   0.197
   83DMF     C2  987   1.811   0.708   0.160
   83DMF     C3  988   1.763   0.535   0.332
   83DMF     O1  989   1.765   0.421   0.375
   83DMF     H1  990   1.797   0.480   0.006
   83DMF     H2  991   1.792   0.364   0.142
   83DMF     H3  992   1.940   0.459   0.114
   83DMF     H4  993   1.918   0.717   0.140
   83DMF     H5  994   1.786   0.776   0.242
   83DMF     H6  995   1.755   0.736   0.070
   83DMF     H7  996   1.751   0.626   0.394
   84DMF     C1  997   2.225   0.870   1.888
   84DMF     N1  998   2.214   1.016   1.868
   84DMF     C2  999   2.337   1.097   1.866
   84DMF     C3 1000   2.089   1.077   1.847
   84DMF     O1 1001   1.986   1.013   1.847
   84DMF     H1 1002   2.295   0.828   1.815
   84DMF     H2 1003   2.128   0.821   1.874
   84DMF     H3 1004   2.261   0.849   1.989
   84DMF     H4 1005   2.393   1.086   1.960
   84DMF     H5 1006   2.313   1.203   1.851
   84DMF     H6 1007   2.402   1.063   1.784
   84DMF     H7 1008   2.093   1.186   1.830
   85DMF     C1 1009   0.375   0.559   1.630
   85DMF     N1 1010   0.361   0.500   1.764
   85DMF     C2 1011   0.457   0.540   1.868
   85DMF     C3 1012   0.256   0.412   1.793
   85DMF     O1 1013   0.169   0.385   1.711
   85DMF     H1 1014   0.364   0.668   1.637
   85DMF     H2 1015   0.299   0.520   1.561
   85DMF     H3 1016   0.474   0.535   1.588
   85DMF     H4 1017   0.559   0.508   1.841
   85DMF     H5 1018   0.431   0.496   1.965
   85DMF     H6 1019   0.457   0.649   1.877
   85DMF     H7 1020   0.257   0.374   1.896
   86DMF     C1 1021   1.458   1.277   2.207
   86DMF     N1 1022   1.559   1.169   2.193
   86DMF     C2 1023   1.513   1.035   2.158
   86DMF     C3 1024   1.697   1.192   2.212
   86DMF     O1 1025   1.748   1.301   2.227
   86DMF     H1 1026   1.400   1.286   2.115
   86DMF     H2 1027   1.506   1.373   2.228
   86DMF     H3 1028   1.390   1.254   2.289
   86DMF     H4 1029   1.457   0.993   2.242
   86DMF     H5 1030   1.598   0.968   2.136
   86DMF     H6 1031   1.449   1.040   2.069
   86DMF     H7 1032   1.756   1.099   2.207
   87DMF     C1 1033   1.877   1.750   1.181
   87DMF     N1 1034   1.987   1.700   1.264
   87DMF     C2 1035   2.042   1.568   1.237
   87DMF     C3 1036   2.030   1.775   1.373
   87DMF     O1 1037   1.987   1.887   1.396
   87DMF     H1 1038   1.916   1.781   1.083
   87DMF     H2 1039   1.828   1.837   1.228
   87DMF     H3 1040   1.801   1.672   1.168
   87DMF     H4 1041   1.961   1.498   1.216
   87DMF     H5 1042   2.099   1.531   1.323
   87DMF     H6 1043   2.110   1.574   1.151
   87DMF     H7 1044   2.106   1.724   1.436
   88DMF     C1 1045   2.127   1.775   0.168
   88DMF     N1 1046   2.272   1.789   0.182
   88DMF     C2 1047   2.320   1.909   0.252
   88DMF     C3 1048   2.361   1.707   0.110
   88DMF     O1 1049   2.324   1.613   0.041
   88DMF     H1 1050   2.080   1.795   0.265
   88DMF     H2 1051   2.100   1.674   0.134
   88DMF     H3 1052   2.091   1.848   0.095
   88DMF     H4 1053   2.283   1.997   0.199
   88DMF     H5 1054   2.430   1.911   0.256
   88DMF     H6 1055   2.280   1.911   0.355
   88DMF     H7 1056   2.467   1.735   0.123
   89DMF     C1 1057   0.786   0.483   1.053
   89DMF     N1 1058   0.650   0.518   1.009
   89DMF     C2 1059   0.634   0.631   0.917
   89DMF     C3 1060   0.540   0.436   1.040
   89DMF     O1 1061   0.549   0.333   1.103
   89DMF     H1 1062   0.850   0.464   0.965
   89DMF     H2 1063   0.786   0.394   1.117
   89DMF     H3 1064   0.828   0.567   1.109
   89DMF     H4 1065   0.648   0.726   0.970
   89DMF     H5 1066   0.534   0.629   0.873
   89DMF     H6 1067   0.708   0.624   0.836
   89DMF     H7 1068   0.445   0.473   0.997
   90DMF     C1 1069   1.762   1.252   0.157
   90DMF     N1 1070   1.647   1.342   0.148
   90DMF     C2 1071   1.513   1.291   0.178
   90DMF     C3 1072   1.666   1.478   0.120
   90DMF     O1 1073   1.776   1.525   0.098
   90DMF     H1 1074   1.748   1.180   0.239
   90DMF     H2 1075   1.854   1.310   0.175
   90DMF     H3 1076   1.774   1.193   0.066
   90DMF     H4 1077   1.491   1.206   0.112
   90DMF     H5 1078   1.437   1.369   0.163
   90DMF     H6 1079   1.510   1.258   0.283
   90DMF     H7 1080   1.572   1.538   0.121
   91DMF     C1 1081   1.146   0.622   0.676
   91DMF     N1 1082   1.210   0.525   0.587
   91DMF     C2 1083   1.175   0.527   0.445
   91DMF     C3 1084   1.291   0.422   0.637
   91DMF     O1 1085   1.302   0.397   0.756
   91DMF     H1 1086   1.181   0.723   0.652
   91DMF     H2 1087   1.166   0.598   0.781
   91DMF     H3 1088   1.037   0.618   0.661
   91DMF     H4 1089   1.066   0.525   0.435
   91DMF     H5 1090   1.217   0.439   0.394
   91DMF     H6 1091   1.215   0.617   0.398
   91DMF     H7 1092   1.340   0.362   0.558
   92DMF     C1 1093   0.608   1.882   0.575
   92DMF     N1 1094   0.704   1.910   0.683
   92DMF     C2 1095   0.789   1.801   0.728
   92DMF     C3 1096   0.683   2.019   0.765
   92DMF     O1 1097   0.585   2.089   0.750
   92DMF     H1 1098   0.663   1.849   0.486
   92DMF     H2 1099   0.549   1.970   0.549
   92DMF     H3 1100   0.539   1.803   0.609
   92DMF     H4 1101   0.726   1.718   0.759
   92DMF     H5 1102   0.850   1.832   0.813
   92DMF     H6 1103   0.855   1.771   0.645
   92DMF     H7 1104   0.760   2.033   0.843
   93DMF     C1 1105   1.518   1.613   0.467
   93DMF     N1 1106   1.410   1.551   0.542
   93DMF     C2 1107   1.324   1.453   0.474
   93DMF     C3 1108   1.401   1.572   0.679
   93DMF     O1 1109   1.459   1.661   0.739
   93DMF     H1 1110   1.557   1.544   0.391
   93DMF     H2 1111   1.601   1.642   0.534
   93DMF     H3 1112   1.479   1.704   0.419
   93DMF     H4 1113   1.270   1.501   0.392
   93DMF     H5 1114   1.250   1.413   0.544
   93DMF     H6 1115   1.385   1.371   0.434
   93DMF     H7 1116   1.332   1.501   0.729
   94DMF     C1 1117   0.445   2.185   2.315
   94DMF     N1 1118   0.529   2.068   2.336
   94DMF     C2 1119   0.672   2.091   2.352
   94DMF     C3 1120   0.474   1.940   2.330
   94DMF     O1 1121   0.355   1.922   2.313
   94DMF     H1 1122   0.447   2.248   2.405
   94DMF     H2 1123   0.341   2.156   2.295
   94DMF     H3 1124   0.482   2.241   2.229
   94DMF     H4 1125   0.705   2.159   2.273
   94DMF     H5 1126   0.728   1.997   2.345
   94DMF     H6 1127   0.691   2.138   2.449
   94DMF     H7 1128   0.550   1.860   2.342
   95DMF     C1 1129   1.266   0.721   0.993
   95DMF     N1 1130   1.321   0.796   0.880
   95DMF     C2 1131   1.281   0.932   0.863
   95DMF     C3 1132   1.407   0.739   0.788
   95DMF     O1 1133   1.449   0.628   0.805
   95DMF     H1 1134   1.311   0.756   1.087
   95DMF     H2 1135   1.287   0.614   0.981
   95DMF     H3 1136   1.157   0.734   0.997
   95DMF     H4 1137   1.174   0.933   0.890
   95DMF     H5 1138   1.295   0.964   0.760
   95DMF     H6 1139   1.337   0.996   0.931
   95DMF     H7 1140   1.432   0.803   0.702
   96DMF     C1 1141   1.721   2.492   1.408
   96DMF     N1 1142   1.782   2.374   1.472
   96DMF     C2 1143   1.816   2.260   1.385
   96DMF     C3 1144   1.820   2.374   1.607
   96DMF     O1 1145   1.804   2.471   1.680
   96DMF     H1 1146   1.794   2.538   1.340
   96DMF     H2 1147   1.691   2.564   1.485
   96DMF     H3 1148   1.633   2.463   1.351
   96DMF     H4 1149   1.724   2.220   1.340
   96DMF     H5 1150   1.865   2.180   1.442
   96DMF     H6 1151   1.883   2.294   1.305
   96DMF     H7 1152   1.864   2.279   1.640
   97DMF     C1 1153   1.599   1.450   1.212
   97DMF     N1 1154   1.581   1.469   1.070
   97DMF     C2 1155   1.701   1.463   0.989
   97DMF     C3 1156   1.457   1.502   1.013
   97DMF     O1 1157   1.355   1.523   1.075
   97DMF     H1 1158   1.626   1.346   1.232
   97DMF     H2 1159   1.505   1.475   1.262
   97DMF     H3 1160   1.680   1.515   1.250
   97DMF     H4 1161   1.779   1.522   1.038
   97DMF     H5 1162   1.682   1.505   0.890
   97DMF     H6 1163   1.734   1.359   0.984
   97DMF     H7 1164   1.463   1.501   0.903
   98DMF     C1 1165   1.639   0.171   1.642
   98DMF     N1 1166   1.624   0.148   1.498
   98DMF     C2 1167   1.746   0.154   1.417
   98DMF     C3 1168   1.502   0.104   1.442
   98DMF     O1 1169   1.401   0.095   1.509
   98DMF     H1 1170   1.717   0.104   1.682
   98DMF     H2 1171   1.545   0.151   1.696
   98DMF     H3 1172   1.669   0.275   1.660
   98DMF     H4 1173   1.798   0.249   1.436
   98DMF     H5 1174   1.723   0.145   1.310
   98DMF     H6 1175   1.815   0.073   1.447
   98DMF     H7 1176   1.508   0.081   1.334
   99DMF     C1 1177   1.156   1.845   0.172
   99DMF     N1 1178   1.302   1.855   0.195
   99DMF     C2 1179   1.363   1.990   0.201
   99DMF     C3 1180   1.384   1.742   0.195
   99DMF     O1 1181   1.340   1.628   0.195
   99DMF     H1 1182   1.099   1.890   0.255
   99DMF     H2 1183   1.125   1.741   0.162
   99DMF     H3 1184   1.129   1.899   0.080
   99DMF     H4 1185   1.335   2.048   0.112
   99DMF     H5 1186   1.472   1.983   0.207
   99DMF     H6 1187   1.328   2.043   0.291
   99DMF     H7 1188   1.492   1.766   0.196
  100DMF     C1 1189   0.349   1.439   0.929
  100DMF     N1 1190   0.295   1.576   0.912
  100DMF     C2 1191   0.167   1.608   0.978
  100DMF     C3 1192   0.358   1.672   0.830
  100DMF     O1 1193   0.466   1.654   0.779
  100DMF     H1 1194   0.390   1.426   1.030
  100DMF     H2 1195   0.430   1.419   0.858
  100DMF     H3 1196   0.270   1.365   0.915
  100DMF     H4 1197   0.089   1.541   0.941
  100DMF     H5 1198   0.138   1.712   0.956
  100DMF     H6 1199   0.177   1.596   1.086
  100DMF     H7 1200   0.301   1.766   0.821
  101DMF     C1 1201   1.824   1.984   0.751
  101DMF     N1 1202   1.766   1.916   0.867
  101DMF     C2 1203   1.756   1.993   0.992
  101DMF     C3 1204   1.741   1.779   0.863
  101DMF     O1 1205   1.767   1.710   0.767
  101DMF     H1 1206   1.776   2.083   0.738
  101DMF     H2 1207   1.809   1.925   0.660
  101DMF     H3 1208   1.931   1.998   0.767
  101DMF     H4 1209   1.857   2.006   1.034
  101DMF     H5 1210   1.695   1.938   1.065
  101DMF     H6 1211   1.713   2.091   0.973
  101DMF     H7 1212   1.697   1.741   0.957
  102DMF     C1 1213   0.339   1.055   0.961
  102DMF     N1 1214   0.264   0.953   0.887
  102DMF     C2 1215   0.121   0.948   0.910
  102DMF     C3 1216   0.328   0.850   0.819
  102DMF     O1 1217   0.448   0.844   0.808
  102DMF     H1 1218   0.312   1.155   0.926
  102DMF     H2 1219   0.448   1.041   0.952
  102DMF     H3 1220   0.313   1.044   1.067
  102DMF     H4 1221   0.101   0.925   1.015
  102DMF     H5 1222   0.075   0.871   0.847
  102DMF     H6 1223   0.079   1.047   0.885
  102DMF     H7 1224   0.258   0.773   0.779
  103DMF     C1 1225   1.980   1.815   2.035
  103DMF     N1 1226   1.937   1.677   2.011
  103DMF     C2 1227   1.979   1.570   2.103
  103DMF     C3 1228   1.855   1.649   1.902
  103DMF     O1 1229   1.768   1.727   1.868
  103DMF     H1 1230   1.922   1.862   2.115
  103DMF     H2 1231   1.964   1.874   1.943
  103DMF     H3 1232   2.087   1.816   2.059
  103DMF     H4 1233   2.085   1.582   2.130
  103DMF     H5 1234   1.964   1.471   2.057
  103DMF     H6 1235   1.919   1.574   2.195
  103DMF     H7 1236   1.873   1.548   1.862
  104DMF     C1 1237   0.170   0.195   0.960
  104DMF     N1 1238   0.272   0.267   0.882
  104DMF     C2 1239   0.400   0.198   0.864
  104DMF     C3 1240   0.254   0.398   0.835
  104DMF     O1 1241   0.151   0.461   0.846
  104DMF     H1 1242   0.146   0.101   0.909
  104DMF     H2 1243   0.080   0.256   0.970
  104DMF     H3 1244   0.210   0.172   1.059
  104DMF     H4 1245   0.435   0.159   0.960
  104DMF     H5 1246   0.475   0.267   0.824
  104DMF     H6 1247   0.386   0.116   0.793
  104DMF     H7 1248   0.344   0.438   0.785
  105DMF     C1 1249   1.957   0.899   0.842
  105DMF     N1 1250   2.088   0.945   0.892
  105DMF     C2 1251   2.156   0.860   0.989
  105DMF     C3 1252   2.136   1.073   0.866
  105DMF     O1 1253   2.080   1.153   0.795
  105DMF     H1 1254   1.967   0.804   0.788
  105DMF     H2 1255   1.909   0.972   0.777
  105DMF     H3 1256   1.894   0.883   0.930
  105DMF     H4 1257   2.092   0.846   1.077
  105DMF     H5 1258   2.251   0.905   1.020
  105DMF     H6 1259   2.176   0.762   0.943
  105DMF     H7 1260   2.230   1.096   0.920
  106DMF     C1 1261   0.629   1.065   0.771
  106DMF     N1 1262   0.732   1.144   0.707
  106DMF     C2 1263   0.734   1.153   0.560
  106DMF     C3 1264   0.814   1.223   0.786
  106DMF     O1 1265   0.805   1.230   0.908
  106DMF     H1 1266   0.532   1.112   0.753
  106DMF     H2 1267   0.646   1.057   0.879
  106DMF     H3 1268   0.633   0.964   0.728
  106DMF     H4 1269   0.737   1.053   0.515
  106DMF     H5 1270   0.821   1.209   0.525
  106DMF     H6 1271   0.643   1.203   0.525
  106DMF     H7 1272   0.891   1.273   0.726
  107DMF     C1 1273   1.155   0.353   1.014
  107DMF     N1 1274   1.205   0.222   0.971
  107DMF     C2 1275   1.109   0.136   0.901
  107DMF     C3 1276   1.343   0.194   0.962
  107DMF     O1 1277   1.429   0.253   1.026
  107DMF     H1 1278   1.100   0.401   0.932
  107DMF     H2 1279   1.239   0.420   1.038
  107DMF     H3 1280   1.089   0.342   1.100
  107DMF     H4 1281   1.031   0.104   0.972
  107DMF     H5 1282   1.160   0.048   0.859
  107DMF     H6 1283   1.063   0.193   0.820
  107DMF     H7 1284   1.366   0.110   0.894
  108DMF     C1 1285   2.157   1.893   0.614
  108DMF     N1 1286   2.243   1.774   0.611
  108DMF     C2 1287   2.178   1.648   0.574
  108DMF     C3 1288   2.377   1.779   0.653
  108DMF     O1 1289   2.429   1.880   0.696
  108DMF     H1 1290   2.123   1.915   0.512
  108DMF     H2 1291   2.210   1.980   0.654
  108DMF     H3 1292   2.069   1.872   0.675
  108DMF     H4 1293   2.088   1.632   0.635
  108DMF     H5 1294   2.247   1.564   0.591
  108DMF     H6 1295   2.149   1.651   0.468
  108DMF     H7 1296   2.428   1.681   0.647
  109DMF     C1 1297   1.491   1.945   0.662
  109DMF     N1 1298   1.487   2.092   0.661
  109DMF     C2 1299   1.451   2.158   0.787
  109DMF     C3 1300   1.528   2.167   0.551
  109DMF     O1 1301   1.562   2.117   0.445
  109DMF     H1 1302   1.542   1.910   0.752
  109DMF     H2 1303   1.542   1.905   0.574
  109DMF     H3 1304   1.389   1.905   0.665
  109DMF     H4 1305   1.346   2.136   0.811
  109DMF     H5 1306   1.465   2.266   0.780
  109DMF     H6 1307   1.515   2.118   0.866
  109DMF     H7 1308   1.527   2.276   0.569
  110DMF     C1 1309   1.728   1.885   0.365
  110DMF     N1 1310   1.804   1.790   0.283
  110DMF     C2 1311   1.862   1.673   0.352
  110DMF     C3 1312   1.813   1.809   0.144
  110DMF     O1 1313   1.756   1.899   0.086
  110DMF     H1 1314   1.634   1.837   0.398
  110DMF     H2 1315   1.703   1.975   0.308
  110DMF     H3 1316   1.786   1.913   0.453
  110DMF     H4 1317   1.919   1.705   0.439
  110DMF     H5 1318   1.928   1.616   0.284
  110DMF     H6 1319   1.781   1.606   0.385
  110DMF     H7 1320   1.879   1.736   0.093
  111DMF     C1 1321   1.996   1.531   0.892
  111DMF     N1 1322   2.134   1.580   0.895
  111DMF     C2 1323   2.240   1.483   0.870
  111DMF     C3 1324   2.161   1.717   0.903
  111DMF     O1 1325   2.073   1.800   0.907
  111DMF     H1 1326   1.966   1.503   0.791
  111DMF     H2 1327   1.929   1.610   0.929
  111DMF     H3 1328   1.987   1.445   0.959
  111DMF     H4 1329   2.240   1.408   0.950
  111DMF     H5 1330   2.338   1.533   0.865
  111DMF     H6 1331   2.219   1.434   0.775
  111DMF     H7 1332   2.269   1.741   0.903
  112DMF     C1 1333   0.534   2.322   0.904
  112DMF     N1 1334   0.515   2.410   0.787
  112DMF     C2 1335   0.521   2.350   0.652
  112DMF     C3 1336   0.510   2.548   0.802
  112DMF     O1 1337   0.522   2.603   0.910
  112DMF     H1 1338   0.460   2.242   0.904
  112DMF     H2 1339   0.527   2.378   0.998
  112DMF     H3 1340   0.634   2.278   0.897
  112DMF     H4 1341   0.620   2.307   0.636
  112DMF     H5 1342   0.503   2.426   0.575
  112DMF     H6 1343   0.445   2.271   0.644
  112DMF     H7 1344   0.494   2.601   0.707
  113DMF     C1 1345   2.001   1.303   0.448
  113DMF     N1 1346   1.892   1.206   0.467
  113DMF     C2 1347   1.927   1.065   0.489
  113DMF     C3 1348   1.759   1.249   0.470
  113DMF     O1 1349   1.726   1.360   0.434
  113DMF     H1 1350   2.056   1.315   0.542
  113DMF     H2 1351   1.963   1.402   0.419
  113DMF     H3 1352   2.069   1.267   0.370
  113DMF     H4 1353   1.976   1.025   0.399
  113DMF     H5 1354   1.838   1.005   0.511
  113DMF     H6 1355   1.997   1.055   0.573
  113DMF     H7 1356   1.688   1.170   0.501
  114DMF     C1 1357   0.777   1.684   2.086
  114DMF     N1 1358   0.712   1.810   2.048
  114DMF     C2 1359   0.796   1.912   1.981
  114DMF     C3 1360   0.574   1.830   2.062
  114DMF     O1 1361   0.501   1.745   2.108
  114DMF     H1 1362   0.820   1.635   1.998
  114DMF     H2 1363   0.707   1.615   2.134
  114DMF     H3 1364   0.859   1.707   2.156
  114DMF     H4 1365   0.874   1.947   2.050
  114DMF     H5 1366   0.734   1.996   1.948
  114DMF     H6 1367   0.845   1.869   1.892
  114DMF     H7 1368   0.539   1.928   2.026
  115DMF     C1 1369   2.248   2.078   2.104
  115DMF     N1 1370   2.294   2.058   2.243
  115DMF     C2 1371   2.194   2.074   2.350
  115DMF     C3 1372   2.429   2.035   2.274
  115DMF     O1 1373   2.514   2.023   2.188
  115DMF     H1 1374   2.163   2.011   2.084
  115DMF     H2 1375   2.329   2.055   2.034
  115DMF     H3 1376   2.215   2.181   2.090
  115DMF     H4 1377   2.155   2.177   2.347
  115DMF     H5 1378   2.239   2.056   2.449
  115DMF     H6 1379   2.111   2.004   2.334
  115DMF     H7 1380   2.449   2.027   2.382
  116DMF     C1 1381   0.877   1.044   1.246
  116DMF     N1 1382   0.931   0.906   1.226
  116DMF     C2 1383   0.897   0.837   1.100
  116DMF     C3 1384   1.006   0.837   1.323
  116DMF     O1 1385   1.044   0.885   1.428
  116DMF     H1 1386   0.894   1.105   1.157
  116DMF     H2 1387   0.925   1.092   1.332
  116DMF     H3 1388   0.769   1.040   1.265
  116DMF     H4 1389   0.792   0.805   1.103
  116DMF     H5 1390   0.959   0.748   1.088
  116DMF     H6 1391   0.913   0.904   1.015
  116DMF     H7 1392   1.027   0.733   1.293
  117DMF     C1 1393   0.345   0.796   2.488
  117DMF     N1 1394   0.270   0.744   2.372
  117DMF     C2 1395   0.249   0.599   2.362
  117DMF     C3 1396   0.244   0.826   2.261
  117DMF     O1 1397   0.250   0.948   2.268
  117DMF     H1 1398   0.278   0.810   2.573
  117DMF     H2 1399   0.393   0.892   2.463
  117DMF     H3 1400   0.425   0.726   2.515
  117DMF     H4 1401   0.342   0.545   2.383
  117DMF     H5 1402   0.215   0.571   2.261
  117DMF     H6 1403   0.172   0.568   2.435
  117DMF     H7 1404   0.217   0.771   2.170
  118DMF     C1 1405   0.166   1.449   1.954
  118DMF     N1 1406   0.240   1.335   1.897
  118DMF     C2 1407   0.167   1.237   1.815
  118DMF     C3 1408   0.375   1.314   1.928
  118DMF     O1 1409   0.439   1.388   2.000
  118DMF     H1 1410   0.118   1.507   1.874
  118DMF     H2 1411   0.232   1.516   2.010
  118DMF     H3 1412   0.089   1.411   2.022
  118DMF     H4 1413   0.088   1.190   1.875
  118DMF     H5 1414   0.235   1.159   1.778
  118DMF     H6 1415   0.121   1.288   1.729
  118DMF     H7 1416   0.418   1.224   1.880
  119DMF     C1 1417   1.888   1.942   1.680
  119DMF     N1 1418   1.772   1.881   1.615
  119DMF     C2 1419   1.655   1.965   1.599
  119DMF     C3 1420   1.775   1.751   1.562
  119DMF     O1 1421   1.870   1.675   1.570
  119DMF     H1 1422   1.917   2.030   1.623
  119DMF     H2 1423   1.972   1.871   1.683
  119DMF     H3 1424   1.861   1.972   1.782
  119DMF     H4 1425   1.628   2.011   1.694
  119DMF     H5 1426   1.571   1.905   1.562
  119DMF     H6 1427   1.680   2.043   1.526
  119DMF     H7 1428   1.683   1.729   1.505
  120DMF     C1 1429   2.162   1.261   2.173
  120DMF     N1 1430   2.176   1.114   2.172
  120DMF     C2 1431   2.053   1.035   2.169
  120DMF     C3 1432   2.301   1.051   2.187
  120DMF     O1 1433   2.405   1.112   2.204
  120DMF     H1 1434   2.126   1.294   2.075
  120DMF     H2 1435   2.259   1.309   2.194
  120DMF     H3 1436   2.090   1.290   2.250
  120DMF     H4 1437   1.998   1.048   2.263
  120DMF     H5 1438   2.076   0.929   2.154
  120DMF     H6 1439   1.988   1.069   2.087
  120DMF     H7 1440   2.295   0.940   2.187
  121DMF     C1 1441   1.485   2.163   2.014
  121DMF     N1 1442   1.412   2.291   2.023
  121DMF     C2 1443   1.487   2.410   2.067
  121DMF     C3 1444   1.272   2.294   2.016
  121DMF     O1 1445   1.207   2.192   2.008
  121DMF     H1 1446   1.573   2.174   1.949
  121DMF     H2 1447   1.421   2.084   1.973
  121DMF     H3 1448   1.517   2.135   2.115
  121DMF     H4 1449   1.526   2.392   2.168
  121DMF     H5 1450   1.421   2.497   2.070
  121DMF     H6 1451   1.570   2.429   1.998
  121DMF     H7 1452   1.229   2.395   2.023
  122DMF     C1 1453   0.467   1.593   2.375
  122DMF     N1 1454   0.362   1.496   2.407
  122DMF     C2 1455   0.402   1.356   2.420
  122DMF     C3 1456   0.226   1.532   2.411
  122DMF     O1 1457   0.186   1.647   2.406
  122DMF     H1 1458   0.536   1.604   2.460
  122DMF     H2 1459   0.421   1.690   2.352
  122DMF     H3 1460   0.523   1.559   2.287
  122DMF     H4 1461   0.458   1.328   2.330
  122DMF     H5 1462   0.315   1.291   2.432
  122DMF     H6 1463   0.468   1.346   2.508
  122DMF     H7 1464   0.158   1.445   2.421
  123DMF     C1 1465   2.109   0.134   1.089
  123DMF     N1 1466   1.989   0.209   1.051
  123DMF     C2 1467   1.932   0.300   1.150
  123DMF     C3 1468   1.923   0.186   0.929
  123DMF     O1 1469   1.977   0.128   0.836
  123DMF     H1 1470   2.189   0.205   1.115
  123DMF     H2 1471   2.143   0.069   1.008
  123DMF     H3 1472   2.086   0.073   1.177
  123DMF     H4 1473   1.920   0.247   1.246
  123DMF     H5 1474   1.835   0.338   1.117
  123DMF     H6 1475   2.000   0.385   1.166
  123DMF     H7 1476   1.823   0.232   0.923
  124DMF     C1 1477   2.487   1.590   0.392
  124DMF     N1 1478   2.434   1.477   0.315
  124DMF     C2 1479   2.302   1.425   0.352
  124DMF     C3 1480   2.498   1.429   0.200
  124DMF     O1 1481   2.615   1.455   0.176
  124DMF     H1 1482   2.408   1.665   0.406
  124DMF     H2 1483   2.570   1.638   0.339
  124DMF     H3 1484   2.521   1.554   0.490
  124DMF     H4 1485   2.296   1.420   0.462
  124DMF     H5 1486   2.291   1.323   0.314
  124DMF     H6 1487   2.223   1.490   0.314
  124DMF     H7 1488   2.435   1.361   0.139
  125DMF     C1 1489   0.644   0.794   1.653
  125DMF     N1 1490   0.672   0.936   1.625
  125DMF     C2 1491   0.792   0.967   1.549
  125DMF     C3 1492   0.598   1.042   1.679
  125DMF     O1 1493   0.495   1.026   1.742
  125DMF     H1 1494   0.636   0.739   1.559
  125DMF     H2 1495   0.551   0.782   1.711
  125DMF     H3 1496   0.727   0.751   1.710
  125DMF     H4 1497   0.880   0.941   1.608
  125DMF     H5 1498   0.795   1.073   1.523
  125DMF     H6 1499   0.789   0.907   1.457
  125DMF     H7 1500   0.640   1.141   1.656
   2.66678   2.66678   2.66678
