DMF comparator n0
 1500
    1DMF     C1    1   0.646   0.958   0.665 -0.2853 -0.0941 -0.0430
    1DMF     N1    2   0.750   0.987   0.763  0.5174  0.0045 -0.1125
    1DMF     C2    3   0.876   1.045   0.723 -0.4905 -0.0033 -0.2770
    1DMF     C3    4   0.731   0.956   0.899 -0.0634 -0.6485  0.1619
    1DMF     O1    5   0.626   0.907   0.941 -0.1080 -0.1668 -0.0320
    1DMF     H1    6   0.630   1.034   0.588  1.3032 -1.7882 -2.1167
    1DMF     H2    7   0.548   0.929   0.704 -0.4737  0.4242 -0.1332
    1DMF     H3    8   0.683   0.866   0.616  0.9746 -0.3670  1.3745
    1DMF     H4    9   0.950   0.970   0.690 -0.5308  0.5618 -1.6872
    1DMF     H5   10   0.922   1.104   0.803 -3.1524  0.1581  1.1686
    1DMF     H6   11   0.852   1.109   0.637 -1.4944  0.7267  0.5528
    1DMF     H7   12   0.812   0.985   0.967  1.2880  0.5918 -1.9369
    2DMF     C1   13   0.133   2.368   1.671 -0.2377  0.2233  0.2137
    2DMF     N1   14   0.119   2.471   1.563  0.2090  0.0002  0.3115
    2DMF     C2   15   0.068   2.603   1.609 -0.3756 -0.2491 -0.2556
    2DMF     C3   16   0.162   2.455   1.438 -1.1476  0.7501  0.4311
    2DMF     O1   17   0.221   2.350   1.402 -0.0710 -0.0373  0.2221
    2DMF     H1   18   0.036   2.320   1.690  0.0722  0.8459  3.7100
    2DMF     H2   19   0.171   2.420   1.760 -0.9798 -1.6438  1.6568
    2DMF     H3   20   0.209   2.292   1.650 -0.3245  0.2276 -0.1194
    2DMF     H4   21   0.150   2.673   1.632 -0.8204 -0.1302  1.0300
    2DMF     H5   22   0.020   2.581   1.705 -0.5844  2.3664  0.2776
    2DMF     H6   23   0.006   2.645   1.529 -1.9495 -0.9169  0.5918
    2DMF     H7   24   0.136   2.528   1.360  3.0740  0.3293 -1.4958
    3DMF     C1   25   2.605   1.632   1.478 -0.4948  0.4398 -0.4070
    3DMF     N1   26   2.482   1.715   1.470 -0.1755 -0.3062 -1.0109
    3DMF     C2   27   2.355   1.650   1.481  0.8386  0.1682 -0.2810
    3DMF     C3   28   2.491   1.856   1.464 -0.2523 -0.0742  0.5537
    3DMF     O1   29   2.595   1.914   1.481  0.2000  0.7831  0.6170
    3DMF     H1   30   2.671   1.643   1.390  0.3763  0.1069  0.1995
    3DMF     H2   31   2.587   1.524   1.477  1.2181  0.1040  1.5500
    3DMF     H3   32   2.655   1.669   1.568  0.0404 -1.2608  0.0127
    3DMF     H4   33   2.280   1.693   1.413  0.9449  2.0936  0.7880
    3DMF     H5   34   2.319   1.654   1.585  0.6064 -0.2614 -0.3423
    3DMF     H6   35   2.358   1.542   1.463 -2.3545  0.4455 -3.1062
    3DMF     H7   36   2.393   1.906   1.464  0.0107  0.4367  0.7688
    4DMF     C1   37   0.103   1.120   1.352 -0.3591  0.3658  0.6151
    4DMF     N1   38  -0.017   1.105   1.263  0.5804  0.1441  0.3037
    4DMF     C2   39  -0.145   1.062   1.325  0.8618  0.0793  0.5789
    4DMF     C3   40  -0.005   1.137   1.127 -0.1622 -0.5031 -0.6552
    4DMF     O1   41   0.103   1.153   1.074 -0.3275 -0.3205 -0.3994
    4DMF     H1   42   0.109   1.041   1.428  0.7638 -2.5058 -2.3309
    4DMF     H2   43   0.097   1.217   1.403  1.3749 -0.5877  2.7226
    4DMF     H3   44   0.189   1.109   1.286 -1.4525  1.2333 -0.9821
    4DMF     H4   45  -0.226   1.111   1.268  2.2211  2.2417  0.4568
    4DMF     H5   46  -0.155   1.081   1.432  2.1786 -1.2269  0.9398
    4DMF     H6   47  -0.157   0.954   1.315 -1.6256  0.3508  0.0647
    4DMF     H7   48  -0.101   1.147   1.074 -1.0497 -0.5163  0.9303
    5DMF     C1   49   1.453   2.662   2.113  0.0845  0.0611  0.1047
    5DMF     N1   50   1.415   2.673   2.253  0.1250 -0.0135  0.7927
    5DMF     C2   51   1.418   2.543   2.325  0.4303 -0.5286  0.3961
    5DMF     C3   52   1.413   2.798   2.321 -0.4287 -0.5435  0.8636
    5DMF     O1   53   1.427   2.904   2.265 -0.1397 -0.0273  0.1384
    5DMF     H1   54   1.377   2.596   2.069 -0.5280  0.0458  1.1549
    5DMF     H2   55   1.545   2.602   2.115 -0.5396 -0.9092  0.4889
    5DMF     H3   56   1.456   2.757   2.060 -1.3984  0.3236  0.4592
    5DMF     H4   57   1.524   2.520   2.343  0.0002 -2.3576  0.6997
    5DMF     H5   58   1.368   2.467   2.262  2.5085 -0.9840 -0.7560
    5DMF     H6   59   1.370   2.544   2.423  1.7101  0.5384  1.0170
    5DMF     H7   60   1.403   2.779   2.430  0.1828 -0.2601  0.9760
    6DMF     C1   61   0.402   1.791   1.192  0.2552  0.1128 -0.4120
    6DMF     N1   62   0.277   1.844   1.253 -0.5619  0.3593  0.2264
    6DMF     C2   63   0.285   1.930   1.374  0.3284 -0.3702 -0.2341
    6DMF     C3   64   0.153   1.812   1.186 -0.2021  0.3041 -0.7434
    6DMF     O1   65   0.155   1.742   1.091  0.1631  0.1039 -0.1734
    6DMF     H1   66   0.425   1.831   1.092  2.8010  4.8978  1.9122
    6DMF     H2   67   0.390   1.685   1.169 -2.2785  0.5378 -1.1791
    6DMF     H3   68   0.491   1.790   1.257 -0.8835 -1.3294  1.1586
    6DMF     H4   69   0.265   2.031   1.335  0.4521 -0.3974 -0.3677
    6DMF     H5   70   0.389   1.923   1.408  0.0347  2.2643  1.3306
    6DMF     H6   71   0.220   1.893   1.454 -2.8441  1.4474 -1.8776
    6DMF     H7   72   0.066   1.855   1.240  1.6331  3.7253 -0.3933
    7DMF     C1   73   1.106   0.640   2.626  0.0315 -0.2897  0.2611
    7DMF     N1   74   0.976   0.665   2.563 -0.5340  0.5536  0.5839
    7DMF     C2   75   0.866   0.571   2.580  0.6687  0.3842 -0.2755
    7DMF     C3   76   0.958   0.765   2.467  0.6057 -0.0922  0.2187
    7DMF     O1   77   1.048   0.843   2.440 -0.4128 -0.5551  0.3682
    7DMF     H1   78   1.095   0.553   2.691 -1.1195 -0.4765 -0.1841
    7DMF     H2   79   1.133   0.719   2.697 -2.7593  0.3662  0.6409
    7DMF     H3   80   1.189   0.628   2.554 -1.4493  1.7020 -1.8591
    7DMF     H4   81   0.770   0.622   2.564 -0.8114 -2.4915 -0.8069
    7DMF     H5   82   0.864   0.529   2.681  0.2390 -1.1553 -0.9060
    7DMF     H6   83   0.881   0.493   2.504 -1.6595 -0.8824  0.5440
    7DMF     H7   84   0.858   0.768   2.419  0.3396 -1.0483  0.7059
    8DMF     C1   85   0.894   1.417   1.261  0.6460 -1.1967 -0.5442
    8DMF     N1   86   0.896   1.338   1.138  0.2298  0.1327 -0.1444
    8DMF     C2   87   0.900   1.189   1.144  0.7011 -0.2687 -1.2361
    8DMF     C3   88   0.863   1.401   1.016 -0.5213  0.1987 -0.4416
    8DMF     O1   89   0.836   1.522   1.008  0.1294 -0.8949 -0.1576
    8DMF     H1   90   0.795   1.457   1.284  0.4160 -0.8843 -2.0092
    8DMF     H2   91   0.956   1.505   1.241 -2.0183  0.6569 -0.8922
    8DMF     H3   92   0.938   1.362   1.345  0.6384 -1.2127 -0.5506
    8DMF     H4   93   0.801   1.149   1.117  0.5279  0.3822 -1.5588
    8DMF     H5   94   0.925   1.147   1.243  2.6629  1.8771 -0.7718
    8DMF     H6   95   0.979   1.163   1.072  2.4837  0.4176  0.4159
    8DMF     H7   96   0.853   1.329   0.933  2.3279 -1.3654  0.4981
    9DMF     C1   97   1.099   2.278   0.641  0.6252  0.0676  0.0853
    9DMF     N1   98   1.190   2.198   0.727 -0.4586 -0.2099  0.0098
    9DMF     C2   99   1.251   2.071   0.658  0.7537  0.0717 -0.1852
    9DMF     C3  100   1.214   2.227   0.863  0.7784  0.7187 -0.4317
    9DMF     O1  101   1.142   2.307   0.919 -0.2263  0.4328  0.3869
    9DMF     H1  102   1.127   2.253   0.538  0.4571 -1.3731  0.3858
    9DMF     H2  103   1.114   2.385   0.660  0.9532 -0.0566  0.5227
    9DMF     H3  104   0.995   2.254   0.666 -0.2430  0.3621 -3.0367
    9DMF     H4  105   1.330   2.031   0.723 -1.6363 -2.2637  1.4030
    9DMF     H5  106   1.299   2.100   0.564  1.1900 -1.2378 -0.3680
    9DMF     H6  107   1.170   2.003   0.629 -0.8499  1.8473 -0.0198
    9DMF     H7  108   1.291   2.163   0.911 -0.8493 -0.8237  0.1974
   10DMF     C1  109   0.860   2.005   2.101  0.1898  0.5618  0.3805
   10DMF     N1  110   0.892   1.857   2.118 -0.1988 -0.6391 -0.0017
   10DMF     C2  111   1.027   1.803   2.103  0.4903  0.0295 -0.5705
   10DMF     C3  112   0.796   1.778   2.191  0.1642 -0.4498 -0.2454
   10DMF     O1  113   0.693   1.829   2.217 -0.1203 -0.0384 -0.1160
   10DMF     H1  114   0.773   2.025   2.038 -0.8728 -1.2869  1.2234
   10DMF     H2  115   0.944   2.056   2.052  1.0390 -1.3593 -0.2075
   10DMF     H3  116   0.846   2.054   2.198  1.0297  0.1401  0.7232
   10DMF     H4  117   1.042   1.698   2.130 -2.1587 -0.8349 -2.3510
   10DMF     H5  118   1.094   1.862   2.168 -0.9458  1.3815 -0.2752
   10DMF     H6  119   1.058   1.816   1.999 -0.6271  2.0922 -0.6748
   10DMF     H7  120   0.834   1.680   2.226  0.9367  0.4181  1.4093
   11DMF     C1  121   1.512   0.476   2.536  0.2366 -0.7493  0.6501
   11DMF     N1  122   1.499   0.403   2.657 -0.0752  0.2168  0.4077
   11DMF     C2  123   1.370   0.355   2.713 -0.3389  0.8059  0.3700
   11DMF     C3  124   1.611   0.390   2.737  0.4400 -0.0618  0.1470
   11DMF     O1  125   1.725   0.427   2.701 -0.0048  0.0508  0.5327
   11DMF     H1  126   1.576   0.563   2.552 -2.6178  1.2902  1.2451
   11DMF     H2  127   1.409   0.494   2.504  1.0107  1.0807 -0.9207
   11DMF     H3  128   1.560   0.405   2.467  0.3433 -1.0880  1.0628
   11DMF     H4  129   1.360   0.250   2.682  2.5794 -0.0889  2.1293
   11DMF     H5  130   1.286   0.411   2.672 -1.5564 -2.3092 -1.5783
   11DMF     H6  131   1.372   0.356   2.823 -2.1302 -0.6290  0.4425
   11DMF     H7  132   1.582   0.336   2.829  1.5450 -1.6943 -0.4477
   12DMF     C1  133   1.448   0.880   0.674  0.4717  0.2242  0.3772
   12DMF     N1  134   1.348   0.997   0.670  0.2606  1.3300  0.0675
   12DMF     C2  135   1.347   1.095   0.788  0.0387  0.4551 -0.6144
   12DMF     C3  136   1.260   1.014   0.564  0.5331  0.2768 -0.2541
   12DMF     O1  137   1.241   0.930   0.476 -0.2174 -0.0694  0.6414
   12DMF     H1  138   1.413   0.794   0.732 -1.4281 -0.3678 -1.6078
   12DMF     H2  139   1.542   0.924   0.710  0.6501  0.1767 -0.0268
   12DMF     H3  140   1.467   0.853   0.569 -1.6543 -1.6542  0.4333
   12DMF     H4  141   1.452   1.119   0.807  0.5483 -1.5482 -0.7854
   12DMF     H5  142   1.298   1.049   0.874  2.7436 -0.2681  0.5831
   12DMF     H6  143   1.295   1.188   0.763 -1.3057 -0.0129  0.3925
   12DMF     H7  144   1.200   1.106   0.558  1.4088  1.0586  2.3024
   13DMF     C1  145   1.789   1.197   1.521 -0.0853 -0.0212  0.1778
   13DMF     N1  146   1.766   1.074   1.445 -0.1252 -0.4673 -0.1437
   13DMF     C2  147   1.881   0.990   1.413  0.1437  0.4604 -0.9230
   13DMF     C3  148   1.633   1.041   1.416 -0.3769  0.6927 -0.0782
   13DMF     O1  149   1.542   1.108   1.457  0.4206  0.3008 -0.3374
   13DMF     H1  150   1.700   1.261   1.521  0.3354  0.5732  0.7904
   13DMF     H2  151   1.872   1.255   1.478  0.0639  0.0764  0.5940
   13DMF     H3  152   1.826   1.177   1.623 -2.3493  0.4652  1.1298
   13DMF     H4  153   1.840   0.889   1.404  1.0819 -0.0185  0.0461
   13DMF     H5  154   1.955   0.997   1.493  0.8596  1.4066 -1.6544
   13DMF     H6  155   1.923   1.026   1.318  2.5317  1.9270  0.6490
   13DMF     H7  156   1.626   0.946   1.360 -1.3028 -0.1890  1.4942
   14DMF     C1  157   2.607   2.275   2.545  0.3336  0.0192  0.1787
   14DMF     N1  158   2.528   2.176   2.615  0.0080 -0.2575 -0.3396
   14DMF     C2  159   2.602   2.069   2.690  0.2364 -0.2557  0.1469
   14DMF     C3  160   2.386   2.173   2.609  0.3507 -0.3754 -0.0696
   14DMF     O1  161   2.313   2.257   2.554  0.0777 -0.1726  0.0846
   14DMF     H1  162   2.713   2.269   2.575  0.5502  1.6217 -0.2589
   14DMF     H2  163   2.577   2.377   2.571 -2.0255 -0.1670 -1.6330
   14DMF     H3  164   2.587   2.278   2.437 -0.9170  0.6562  0.4175
   14DMF     H4  165   2.524   2.003   2.730  1.4438 -1.6006  0.3479
   14DMF     H5  166   2.643   2.107   2.784 -1.5840  0.4718  0.6698
   14DMF     H6  167   2.667   2.001   2.633  0.4155  0.1686 -0.1564
   14DMF     H7  168   2.344   2.087   2.664  2.9228 -1.2320  0.6056
   15DMF     C1  169   0.984   0.455   1.220 -0.3763 -0.4327 -0.0389
   15DMF     N1  170   0.905   0.336   1.226 -0.6401  0.0771  0.4977
   15DMF     C2  171   0.824   0.307   1.340 -0.4740 -0.9491  0.3188
   15DMF     C3  172   0.933   0.227   1.141  0.1233 -0.6400  0.2094
   15DMF     O1  173   1.010   0.233   1.052 -0.4782  0.0588 -0.1972
   15DMF     H1  174   0.933   0.541   1.264  0.0535  0.2866 -0.9384
   15DMF     H2  175   1.009   0.475   1.115  1.3013  0.3067  0.4782
   15DMF     H3  176   1.079   0.439   1.273 -0.9211  2.4647  1.8826
   15DMF     H4  177   0.813   0.391   1.410 -0.3943  1.5143 -2.5073
   15DMF     H5  178   0.861   0.220   1.395 -1.0990 -0.6111  1.2848
   15DMF     H6  179   0.722   0.283   1.306  0.0458 -3.2083  0.3144
   15DMF     H7  180   0.864   0.143   1.160  0.0127 -0.8734 -1.1546
   16DMF     C1  181   0.275   2.169   0.192 -0.4318 -0.1065  0.5566
   16DMF     N1  182   0.252   2.113   0.319  0.7486  0.2403  0.0220
   16DMF     C2  183   0.171   1.987   0.330  1.1130  0.6008  0.4107
   16DMF     C3  184   0.302   2.180   0.441  0.4862  0.1911  0.1525
   16DMF     O1  185   0.357   2.290   0.440 -0.0571 -0.5287 -0.1129
   16DMF     H1  186   0.382   2.165   0.165 -0.3736 -0.1721  0.7971
   16DMF     H2  187   0.243   2.274   0.193 -0.2178 -0.0318 -0.1209
   16DMF     H3  188   0.216   2.118   0.115  0.0863 -0.8454  0.6345
   16DMF     H4  189   0.228   1.919   0.394 -0.5474  1.6921  3.1293
   16DMF     H5  190   0.159   1.936   0.233 -0.6764  1.5157  0.1364
   16DMF     H6  191   0.074   2.010   0.375  0.7303  1.4954 -0.8356
   16DMF     H7  192   0.286   2.119   0.532 -0.2535  0.7282  0.3850
   17DMF     C1  193   2.474   0.200   1.667  0.0657  0.5684  0.2051
   17DMF     N1  194   2.412   0.073   1.615  0.1271  0.3529  0.0803
   17DMF     C2  195   2.346   0.077   1.482 -0.1091  0.1289 -0.5547
   17DMF     C3  196   2.397  -0.037   1.693 -0.0782  0.0403 -0.0912
   17DMF     O1  197   2.448  -0.037   1.804 -0.1092 -0.1986 -0.1067
   17DMF     H1  198   2.389   0.251   1.714 -1.3322 -0.4887 -1.1159
   17DMF     H2  199   2.510   0.269   1.589  0.8199  2.0827  1.8730
   17DMF     H3  200   2.552   0.176   1.740 -0.4091  0.7161  0.7653
   17DMF     H4  201   2.272  -0.004   1.477 -2.8171  2.5418 -1.2198
   17DMF     H5  202   2.421   0.058   1.404  2.1348 -2.4241  2.0881
   17DMF     H6  203   2.293   0.172   1.468 -0.2750  0.0630 -0.3816
   17DMF     H7  204   2.338  -0.119   1.648  0.4211 -0.1117 -0.4696
   18DMF     C1  205   2.623   0.811   1.825  0.4753 -0.0395  0.3118
   18DMF     N1  206   2.647   0.929   1.904  0.0473  0.4365 -0.0594
   18DMF     C2  207   2.652   0.913   2.049 -0.0323 -0.6252  0.6902
   18DMF     C3  208   2.698   1.042   1.847 -0.7209 -0.0280 -0.8452
   18DMF     O1  209   2.709   1.053   1.732  0.1986 -0.2873 -0.0096
   18DMF     H1  210   2.634   0.719   1.883  0.8552 -0.5825 -0.6121
   18DMF     H2  211   2.695   0.809   1.743  0.0329 -0.7463 -0.0644
   18DMF     H3  212   2.520   0.808   1.787  0.1345 -1.5847  1.3094
   18DMF     H4  213   2.726   0.985   2.085  0.8013 -0.6946 -0.8290
   18DMF     H5  214   2.698   0.815   2.070 -0.1463 -0.9377 -0.4762
   18DMF     H6  215   2.557   0.933   2.101 -1.3492 -1.7043 -1.2123
   18DMF     H7  216   2.702   1.129   1.915  2.4487  0.0637 -1.1086
   19DMF     C1  217   1.513   1.190   1.817 -0.3097 -0.0033  0.7920
   19DMF     N1  218   1.623   1.260   1.885  0.5679 -0.0378  0.0384
   19DMF     C2  219   1.686   1.196   1.997  0.0725 -0.8438  0.3241
   19DMF     C3  220   1.654   1.392   1.853 -0.4349  0.3142  0.7977
   19DMF     O1  221   1.597   1.450   1.760  0.1157 -0.2199  0.0175
   19DMF     H1  222   1.496   1.092   1.863  1.2841 -0.4146  0.5569
   19DMF     H2  223   1.550   1.175   1.715  1.2580  0.4080  1.2853
   19DMF     H3  224   1.418   1.246   1.815 -1.4775 -1.9254  1.3493
   19DMF     H4  225   1.792   1.224   2.002  0.0615 -0.6160 -0.5696
   19DMF     H5  226   1.679   1.087   1.982 -1.2808 -0.7333  0.0934
   19DMF     H6  227   1.631   1.218   2.088  0.5942 -0.4921  0.5600
   19DMF     H7  228   1.744   1.431   1.904  1.3438  0.3671 -2.2400
   20DMF     C1  229   2.397   2.537   0.943  0.3927 -0.6140  0.2878
   20DMF     N1  230   2.337   2.444   0.841 -0.0164 -0.2405 -0.4918
   20DMF     C2  231   2.226   2.357   0.883 -0.1000 -0.4734 -0.0315
   20DMF     C3  232   2.413   2.415   0.721 -0.1451 -0.2172  0.0588
   20DMF     O1  233   2.508   2.487   0.694 -0.0607  0.3644  0.3963
   20DMF     H1  234   2.360   2.638   0.923  0.3028 -0.7683 -0.3161
   20DMF     H2  235   2.504   2.552   0.922  0.1825 -0.6378 -0.8015
   20DMF     H3  236   2.379   2.505   1.047  0.7575 -1.0736  0.2113
   20DMF     H4  237   2.191   2.391   0.981 -2.0074 -1.7379 -0.2380
   20DMF     H5  238   2.267   2.256   0.887  2.1493  0.4865  1.7298
   20DMF     H6  239   2.150   2.350   0.803  0.1009 -0.0140 -0.2656
   20DMF     H7  240   2.378   2.327   0.664  1.7081  0.1881 -1.7481
   21DMF     C1  241   1.133   2.313   0.263 -0.2009 -0.2109 -0.3324
   21DMF     N1  242   1.208   2.270   0.136 -1.0352 -0.1460 -0.3538
   21DMF     C2  243   1.133   2.277   0.016 -0.0482  0.4577  0.7154
   21DMF     C3  244   1.323   2.198   0.140 -0.0611  0.4727 -0.1255
   21DMF     O1  245   1.403   2.204   0.232 -0.0324 -0.0826  0.9828
   21DMF     H1  246   1.115   2.224   0.324  2.1214 -0.7552 -0.3844
   21DMF     H2  247   1.033   2.356   0.248 -1.0775 -1.8459  0.7509
   21DMF     H3  248   1.195   2.371   0.332 -0.1767  1.1258 -1.4500
   21DMF     H4  249   1.181   2.335  -0.063 -3.3491  0.5657 -1.3041
   21DMF     H5  250   1.031   2.314   0.037 -1.2055 -1.7219 -0.8914
   21DMF     H6  251   1.114   2.178  -0.027  2.1370  0.6751 -0.7913
   21DMF     H7  252   1.348   2.144   0.047  0.9151  0.2718  0.2460
   22DMF     C1  253   2.126   1.092   0.030 -0.7594  0.1744 -0.3135
   22DMF     N1  254   2.058   0.979  -0.033 -0.4328  0.0821 -0.5886
   22DMF     C2  255   1.932   0.940   0.033 -0.2186  0.1047  0.8828
   22DMF     C3  256   2.104   0.912  -0.147  0.3428  0.0146  0.5544
   22DMF     O1  257   2.218   0.940  -0.191  0.1294  0.3538 -0.2653
   22DMF     H1  258   2.140   1.168  -0.048  1.9142 -1.8895 -1.9297
   22DMF     H2  259   2.231   1.074   0.054 -0.6672  0.0526 -0.7958
   22DMF     H3  260   2.071   1.126   0.119 -1.5414 -0.9868 -0.3352
   22DMF     H4  261   1.876   1.032   0.053 -2.5283 -0.8390 -0.9566
   22DMF     H5  262   1.946   0.873   0.119  1.7759 -1.6344 -0.7509
   22DMF     H6  263   1.871   0.869  -0.023  2.3449 -1.1808 -0.3666
   22DMF     H7  264   2.041   0.834  -0.195 -0.5016  1.0284  0.0078
   23DMF     C1  265   0.893   2.013   0.548 -0.9122 -0.4481 -0.8753
   23DMF     N1  266   0.761   2.066   0.511 -0.5440 -0.1132 -0.5750
   23DMF     C2  267   0.745   2.211   0.505  0.2421  0.4238  0.6057
   23DMF     C3  268   0.652   1.980   0.482  0.2278 -0.7953  0.3929
   23DMF     O1  269   0.658   1.861   0.460 -0.2891 -0.4308  0.9075
   23DMF     H1  270   0.901   1.981   0.653 -0.6578  0.0314 -0.7463
   23DMF     H2  271   0.974   2.088   0.541 -1.0725  0.2200  3.1474
   23DMF     H3  272   0.911   1.936   0.472 -0.6084 -0.6825 -0.5667
   23DMF     H4  273   0.821   2.263   0.446 -1.1294  1.0035 -0.6655
   23DMF     H5  274   0.766   2.264   0.599  2.0730  1.7941 -0.5559
   23DMF     H6  275   0.643   2.243   0.480  0.0268 -1.2096 -0.6774
   23DMF     H7  276   0.559   2.039   0.469  0.1136 -1.1466 -0.3857
   24DMF     C1  277   1.504   1.703   2.272  0.1881  0.2484  0.1642
   24DMF     N1  278   1.493   1.721   2.131 -0.1304 -0.7255 -0.3405
   24DMF     C2  279   1.520   1.855   2.077  0.4766 -0.2064  0.4979
   24DMF     C3  280   1.481   1.607   2.052 -0.5297 -0.0928  1.1904
   24DMF     O1  281   1.443   1.499   2.093 -0.1469  0.1083 -0.8694
   24DMF     H1  282   1.594   1.752   2.310  0.7202 -0.4564 -0.1718
   24DMF     H2  283   1.480   1.599   2.297 -1.0793  0.6497  0.6619
   24DMF     H3  284   1.422   1.754   2.323 -0.0540 -1.3116  1.3664
   24DMF     H4  285   1.436   1.913   2.114 -1.4362 -2.4224 -0.2189
   24DMF     H5  286   1.532   1.862   1.968 -0.5525  1.4513  0.4744
   24DMF     H6  287   1.613   1.887   2.125  1.0914 -0.0283 -0.7804
   24DMF     H7  288   1.504   1.635   1.948  0.5699 -1.3994  1.0715
   25DMF     C1  289   0.345   0.973   1.647  0.2261 -0.2362  0.0330
   25DMF     N1  290   0.468   0.897   1.632  0.0361 -0.3211  0.8389
   25DMF     C2  291   0.489   0.833   1.499 -0.3901  0.6798 -0.1833
   25DMF     C3  292   0.557   0.861   1.736  0.4564  0.2246  0.6533
   25DMF     O1  293   0.529   0.871   1.851  0.1625  0.1662 -0.4721
   25DMF     H1  294   0.369   1.080   1.658  2.0957 -0.5461 -0.7895
   25DMF     H2  295   0.294   0.943   1.740  1.1298 -0.4906  0.4556
   25DMF     H3  296   0.287   0.964   1.555  0.0960 -1.2623  0.2133
   25DMF     H4  297   0.421   0.871   1.421 -1.8767  0.5404  1.0102
   25DMF     H5  298   0.485   0.724   1.497 -0.0920  0.6734 -0.5095
   25DMF     H6  299   0.589   0.870   1.473  0.0211  0.8381  1.5874
   25DMF     H7  300   0.650   0.817   1.695  0.0668  2.1598 -2.5296
   26DMF     C1  301   1.865   1.776   1.286 -0.0810  0.0413  0.2193
   26DMF     N1  302   1.929   1.648   1.318 -0.7791  0.2353  0.9351
   26DMF     C2  303   1.916   1.590   1.447 -1.1303 -0.2160 -0.2767
   26DMF     C3  304   2.011   1.592   1.219  0.0337 -0.2109 -0.6164
   26DMF     O1  305   2.013   1.638   1.104 -0.0801  0.3578 -0.0694
   26DMF     H1  306   1.792   1.818   1.355  1.7803  4.2525 -0.2423
   26DMF     H2  307   1.820   1.754   1.188 -0.0927  1.6502 -0.1524
   26DMF     H3  308   1.938   1.856   1.269 -1.2145  0.8913 -0.7889
   26DMF     H4  309   2.011   1.543   1.475 -0.1628  1.1448 -1.1869
   26DMF     H5  310   1.835   1.517   1.455 -2.1326  0.7046 -1.7792
   26DMF     H6  311   1.883   1.665   1.519 -2.3692  0.0570 -1.1221
   26DMF     H7  312   2.075   1.509   1.254  0.4325  1.6123  3.2506
   27DMF     C1  313   0.433   2.218   2.477  0.1035 -0.5255  0.6160
   27DMF     N1  314   0.446   2.149   2.351  0.4769 -0.5385 -0.3195
   27DMF     C2  315   0.538   2.203   2.244  0.0516  0.0248 -0.3231
   27DMF     C3  316   0.424   2.005   2.340 -0.1158  0.7029 -0.1347
   27DMF     O1  317   0.387   1.935   2.437 -0.3188  0.4604 -0.2884
   27DMF     H1  318   0.346   2.180   2.532 -0.3910  0.4407  0.5022
   27DMF     H2  319   0.404   2.322   2.464 -1.6073 -0.7391  2.3811
   27DMF     H3  320   0.525   2.212   2.536  1.2989 -0.2092 -1.1867
   27DMF     H4  321   0.627   2.139   2.243  2.0491  2.6028  2.2067
   27DMF     H5  322   0.575   2.303   2.270  1.9449 -0.8436  0.3722
   27DMF     H6  323   0.492   2.209   2.144  0.4316 -1.7103 -0.6211
   27DMF     H7  324   0.437   1.963   2.239 -1.6638  1.0546 -0.4861
   28DMF     C1  325   0.465   0.524   0.228 -0.0096  0.5498 -0.6773
   28DMF     N1  326   0.375   0.549   0.347  0.3024  0.5403 -0.0368
   28DMF     C2  327   0.264   0.451   0.382 -1.0744  0.7723  0.2526
   28DMF     C3  328   0.367   0.668   0.414 -0.2216 -0.2624  1.0415
   28DMF     O1  329   0.439   0.763   0.383 -0.3808  0.3064 -0.1112
   28DMF     H1  330   0.395   0.509   0.145 -0.0372 -0.5066 -0.4763
   28DMF     H2  331   0.510   0.427   0.256 -0.9048  1.0484  2.6922
   28DMF     H3  332   0.539   0.604   0.218  0.7011  0.1125  0.8105
   28DMF     H4  333   0.264   0.364   0.315  0.2985 -0.1180  1.3492
   28DMF     H5  334   0.173   0.507   0.360 -0.7992  1.2497  0.3167
   28DMF     H6  335   0.276   0.407   0.482 -1.1349  2.3869  0.9793
   28DMF     H7  336   0.287   0.661   0.490 -0.5415 -1.9696  0.5692
   29DMF     C1  337   1.155   1.614   1.537  0.0852 -0.2076  0.2319
   29DMF     N1  338   1.252   1.541   1.613  0.5099  0.2488 -0.0052
   29DMF     C2  339   1.313   1.427   1.558  0.7768  0.2243  0.5231
   29DMF     C3  340   1.260   1.553   1.752  0.2369  0.4787  0.2718
   29DMF     O1  341   1.202   1.638   1.815  0.3408 -0.4808 -0.1432
   29DMF     H1  342   1.074   1.655   1.598 -0.2132 -1.1015  0.4405
   29DMF     H2  343   1.114   1.551   1.457 -0.0790  0.6423 -0.3635
   29DMF     H3  344   1.208   1.697   1.488 -0.3023  2.0958  3.5256
   29DMF     H4  345   1.373   1.452   1.469  0.5610  0.4872  0.4509
   29DMF     H5  346   1.231   1.360   1.527  1.6745  0.2174 -1.9435
   29DMF     H6  347   1.381   1.375   1.627  0.3925  0.6867  1.2545
   29DMF     H7  348   1.326   1.485   1.809 -2.2119 -0.1300  2.4937
   30DMF     C1  349   2.112   0.076   1.163 -0.2472 -0.2570  0.1654
   30DMF     N1  350   2.055   0.180   1.246  0.3632 -0.3916  1.1808
   30DMF     C2  351   1.922   0.158   1.308 -0.5866 -0.5200 -0.5924
   30DMF     C3  352   2.120   0.304   1.262  1.0156 -0.4024 -0.2870
   30DMF     O1  353   2.217   0.336   1.195  0.3270 -0.7477 -0.3136
   30DMF     H1  354   2.040  -0.005   1.147 -2.5423  1.5151  1.1558
   30DMF     H2  355   2.197   0.022   1.207  1.0030  0.4931 -1.2876
   30DMF     H3  356   2.144   0.119   1.067  3.2233  0.3028  1.4774
   30DMF     H4  357   1.850   0.108   1.242 -0.6719 -0.2882 -0.6774
   30DMF     H5  358   1.873   0.255   1.326 -1.3627 -0.9833 -0.1742
   30DMF     H6  359   1.934   0.106   1.404 -0.9583  0.1883 -0.1545
   30DMF     H7  360   2.078   0.373   1.337  2.5654 -0.0352  0.2660
   31DMF     C1  361   0.914   1.073   1.889 -0.0214  0.3676 -0.1556
   31DMF     N1  362   1.030   1.069   1.794 -0.4533 -0.4407  0.2397
   31DMF     C2  363   1.162   1.100   1.842 -0.1496  0.3577 -0.3652
   31DMF     C3  364   1.005   1.069   1.664  0.1223 -0.0536  0.7478
   31DMF     O1  365   0.892   1.063   1.624 -0.2526  0.1585  0.0690
   31DMF     H1  366   0.935   1.011   1.977 -3.2497  1.4279  1.4496
   31DMF     H2  367   0.815   1.047   1.850  0.1352 -1.1512  0.4186
   31DMF     H3  368   0.904   1.177   1.921 -2.8131 -0.3234  1.3569
   31DMF     H4  369   1.184   1.207   1.841 -0.8050  0.4903 -0.7583
   31DMF     H5  370   1.238   1.050   1.781  0.3965  2.0064 -1.0723
   31DMF     H6  371   1.171   1.064   1.945  0.4867  1.3562 -0.0675
   31DMF     H7  372   1.092   1.075   1.596 -0.8834  1.2701 -0.4570
   32DMF     C1  373   2.018   2.252   0.450  0.1239  0.7440 -0.2069
   32DMF     N1  374   2.031   2.121   0.523 -0.8899  0.2478 -0.2484
   32DMF     C2  375   1.903   2.051   0.557  0.8301 -0.5394  0.1216
   32DMF     C3  376   2.148   2.076   0.581 -0.2266 -0.5751 -0.1049
   32DMF     O1  377   2.258   2.131   0.566  0.6317 -0.7586 -0.0159
   32DMF     H1  378   1.945   2.316   0.501  0.9103  0.5628  1.1709
   32DMF     H2  379   1.998   2.219   0.348 -2.6746 -1.0328  0.8574
   32DMF     H3  380   2.116   2.301   0.461  0.1894  0.5798 -0.0469
   32DMF     H4  381   1.921   1.980   0.639 -1.2983 -0.3248  0.8017
   32DMF     H5  382   1.856   1.993   0.477  0.2388 -1.1556  0.9053
   32DMF     H6  383   1.839   2.131   0.596 -0.7147 -1.7768  0.1885
   32DMF     H7  384   2.136   1.982   0.638 -2.0709 -0.4387 -0.2418
   33DMF     C1  385   1.300   1.307   0.135  0.6549 -0.1410  0.5615
   33DMF     N1  386   1.216   1.203   0.072  0.3533  0.2670  0.8260
   33DMF     C2  387   1.085   1.240   0.029  0.1561 -0.7042  1.0099
   33DMF     C3  388   1.276   1.082   0.023 -0.1067  0.4684 -0.5418
   33DMF     O1  389   1.391   1.054   0.041  0.3660  0.4221 -0.1079
   33DMF     H1  390   1.308   1.398   0.075 -0.1239 -2.6577 -3.4938
   33DMF     H2  391   1.401   1.277   0.165  0.8874 -0.1528 -0.2396
   33DMF     H3  392   1.249   1.333   0.229  0.9441  1.8816  0.1744
   33DMF     H4  393   1.027   1.172  -0.035  0.8450  0.5513 -0.9576
   33DMF     H5  394   1.087   1.336  -0.023 -0.7794 -1.2047  0.0317
   33DMF     H6  395   1.033   1.256   0.125 -0.3748 -2.0640  0.9565
   33DMF     H7  396   1.209   1.021  -0.039 -1.6232  0.7350  0.7963
   34DMF     C1  397   0.998   1.502   0.647  0.5484 -0.1922 -1.0418
   34DMF     N1  398   0.887   1.552   0.559 -0.0758  0.0855  0.8225
   34DMF     C2  399   0.751   1.494   0.586 -0.1887 -0.4420  0.5813
   34DMF     C3  400   0.918   1.634   0.449  0.3168  0.5081  0.3558
   34DMF     O1  401   1.029   1.663   0.415 -0.2977  0.0814 -0.0374
   34DMF     H1  402   0.979   1.395   0.667 -2.9465  0.3398 -1.1137
   34DMF     H2  403   0.993   1.542   0.749 -0.2226 -1.9650 -0.3468
   34DMF     H3  404   1.094   1.521   0.598  0.9384  0.6744  0.0430
   34DMF     H4  405   0.673   1.569   0.563  1.0048  1.0616  1.3875
   34DMF     H5  406   0.738   1.480   0.694 -0.3056 -1.1149  0.4813
   34DMF     H6  407   0.736   1.397   0.538  0.6188 -0.3887  0.2101
   34DMF     H7  408   0.831   1.674   0.393  0.1170 -0.4860 -0.0453
   35DMF     C1  409   0.898   2.068   0.906 -0.7297 -0.3937 -0.4324
   35DMF     N1  410   0.881   1.935   0.952 -0.5565  0.5557 -0.6438
   35DMF     C2  411   0.986   1.830   0.907  0.2882  0.7197  0.0553
   35DMF     C3  412   0.810   1.901   1.071 -0.0889 -0.2188 -0.3231
   35DMF     O1  413   0.764   1.982   1.148  0.2341 -0.0287 -0.0576
   35DMF     H1  414   0.800   2.100   0.867 -1.0797  1.5906  1.9387
   35DMF     H2  415   0.971   2.054   0.825  1.0620  0.1365  1.0626
   35DMF     H3  416   0.942   2.127   0.987 -1.1590 -1.3922  0.5469
   35DMF     H4  417   1.020   1.763   0.987  0.7024 -1.5154 -1.9316
   35DMF     H5  418   1.073   1.874   0.858 -1.0377  0.3045 -2.8078
   35DMF     H6  419   0.938   1.780   0.822 -4.7501  3.6278  1.0101
   35DMF     H7  420   0.803   1.792   1.087  1.5870 -0.7148 -2.5995
   36DMF     C1  421   1.076   2.199   1.489  0.2133  0.8310 -0.3849
   36DMF     N1  422   1.027   2.330   1.533  0.0712  0.3623 -0.9598
   36DMF     C2  423   0.888   2.349   1.584  0.5284 -0.3894  1.1113
   36DMF     C3  424   1.113   2.436   1.518 -0.9739 -0.4340 -0.3929
   36DMF     O1  425   1.219   2.425   1.465  0.0473  0.6350  0.5762
   36DMF     H1  426   1.182   2.181   1.514 -0.3620 -1.1058  0.7623
   36DMF     H2  427   1.069   2.198   1.379  0.8473  0.2935 -0.4252
   36DMF     H3  428   1.011   2.120   1.528 -0.2925  2.7571  2.8645
   36DMF     H4  429   0.871   2.266   1.654  0.4845 -1.4108 -0.0985
   36DMF     H5  430   0.822   2.329   1.499  3.4986 -1.0185 -1.1395
   36DMF     H6  431   0.871   2.442   1.639  1.0756 -0.4473  1.3789
   36DMF     H7  432   1.067   2.534   1.539 -0.2735 -0.2951  0.5509
   37DMF     C1  433   0.506   0.206   0.440  0.7217  0.0617 -0.3968
   37DMF     N1  434   0.443   0.091   0.361  0.2341  0.1049 -0.3696
   37DMF     C2  435   0.446  -0.039   0.429  0.1811  0.0165  0.1399
   37DMF     C3  436   0.406   0.108   0.223  0.4620  0.1946 -0.3663
   37DMF     O1  437   0.416   0.220   0.177 -0.1165 -0.0928 -0.0966
   37DMF     H1  438   0.426   0.280   0.456  1.8345  1.1940  0.0148
   37DMF     H2  439   0.588   0.256   0.387 -0.9427  1.8470 -1.3803
   37DMF     H3  440   0.534   0.163   0.537  0.1008  0.1905 -0.1575
   37DMF     H4  441   0.412  -0.124   0.369  1.2975 -2.2128  2.5551
   37DMF     H5  442   0.387  -0.037   0.522 -1.5241 -0.1256 -0.9239
   37DMF     H6  443   0.546  -0.065   0.465 -0.1034  1.2786  1.8827
   37DMF     H7  444   0.357   0.021   0.175  2.6673 -0.2477 -1.8971
   38DMF     C1  445   0.323   1.306   0.326  0.5579 -0.6360  0.2093
   38DMF     N1  446   0.352   1.175   0.388  0.2516  0.5515  0.4927
   38DMF     C2  447   0.466   1.160   0.467  0.0889  0.2763  0.3499
   38DMF     C3  448   0.272   1.058   0.359  0.1648 -0.5109 -0.3827
   38DMF     O1  449   0.184   1.057   0.273  0.3320  0.1007  0.2354
   38DMF     H1  450   0.250   1.303   0.244  2.0090  0.3535 -1.1535
   38DMF     H2  451   0.417   1.352   0.295  0.9176 -1.1169  0.5828
   38DMF     H3  452   0.286   1.365   0.410  1.7959  1.2152 -0.5100
   38DMF     H4  453   0.441   1.127   0.568  2.0235  0.2251  0.8190
   38DMF     H5  454   0.523   1.249   0.495  0.3436  1.4915 -3.6980
   38DMF     H6  455   0.529   1.086   0.417  1.0669  0.9684  0.5409
   38DMF     H7  456   0.322   0.967   0.398 -0.7202 -0.6395  0.4730
   39DMF     C1  457   1.635   1.243   1.140  0.1706 -0.2819  0.1853
   39DMF     N1  458   1.741   1.243   1.048  0.3992  0.3200  0.1512
   39DMF     C2  459   1.830   1.360   1.059 -1.0044  0.1563 -0.0801
   39DMF     C3  460   1.770   1.132   0.966 -0.3213 -0.7697  0.2275
   39DMF     O1  461   1.688   1.036   0.958 -0.0731 -0.0689  0.6169
   39DMF     H1  462   1.673   1.203   1.235  1.6903  0.6200 -0.0258
   39DMF     H2  463   1.558   1.172   1.108  0.3861 -0.6918  0.5675
   39DMF     H3  464   1.594   1.340   1.169  0.9733  0.1004  0.0497
   39DMF     H4  465   1.777   1.450   1.091  0.1632  0.9225 -0.2581
   39DMF     H5  466   1.877   1.382   0.962 -1.6084  0.3640 -0.3280
   39DMF     H6  467   1.899   1.353   1.143 -0.7719  3.1880  0.0295
   39DMF     H7  468   1.867   1.131   0.913  0.1164 -1.6417  1.0201
   40DMF     C1  469   1.861   2.499   2.105  0.3133 -0.5595 -0.4140
   40DMF     N1  470   1.924   2.400   2.192 -0.1644 -0.2748 -0.3468
   40DMF     C2  471   1.964   2.434   2.328  0.6846 -0.1560  0.1403
   40DMF     C3  472   1.955   2.275   2.142 -0.8629 -0.3778 -0.7602
   40DMF     O1  473   1.911   2.238   2.033 -0.2442 -0.5546  0.1274
   40DMF     H1  474   1.761   2.458   2.086  0.4450 -0.5735 -1.0970
   40DMF     H2  475   1.920   2.506   2.013  1.7352  0.6793  0.5750
   40DMF     H3  476   1.854   2.594   2.159 -1.3371 -0.3197 -1.0126
   40DMF     H4  477   2.020   2.528   2.332  1.6559 -0.6680 -1.0109
   40DMF     H5  478   2.021   2.359   2.385  1.6946  1.0371  0.7387
   40DMF     H6  479   1.871   2.456   2.381 -1.0531  0.5866 -3.1022
   40DMF     H7  480   2.017   2.213   2.209  2.6240  3.5547 -0.1632
   41DMF     C1  481   2.480   0.178   1.129 -0.2176 -0.0141  0.4501
   41DMF     N1  482   2.577   0.116   1.040 -0.3332 -0.0951  0.2586
   41DMF     C2  483   2.594   0.179   0.912  0.1395 -0.0618 -0.1032
   41DMF     C3  484   2.666   0.021   1.090  0.0054 -0.5878  0.5322
   41DMF     O1  485   2.670  -0.018   1.203 -0.4504 -0.7489 -0.1443
   41DMF     H1  486   2.412   0.235   1.065 -0.2600 -0.6874 -0.1040
   41DMF     H2  487   2.531   0.237   1.206 -0.5390  0.5219  0.2533
   41DMF     H3  488   2.415   0.098   1.165 -1.5622  0.0236 -1.8321
   41DMF     H4  489   2.693   0.218   0.883 -0.3857 -0.9005 -3.2926
   41DMF     H5  490   2.535   0.270   0.901  0.8242  0.4003  0.0288
   41DMF     H6  491   2.555   0.110   0.835 -2.5335  1.9484 -0.5995
   41DMF     H7  492   2.737  -0.017   1.014 -0.6829 -1.0431  0.1139
   42DMF     C1  493   1.200   2.017   1.154 -0.3230 -0.0341  0.3124
   42DMF     N1  494   1.341   2.021   1.204  0.1843 -0.5633 -0.5909
   42DMF     C2  495   1.370   2.085   1.334  0.3285  0.5419 -0.1763
   42DMF     C3  496   1.435   1.935   1.147  0.1798 -0.0344  0.1662
   42DMF     O1  497   1.413   1.870   1.044 -0.1488  0.3419  0.7317
   42DMF     H1  498   1.200   2.016   1.044 -0.3745 -0.8389  0.3221
   42DMF     H2  499   1.143   2.097   1.202 -1.3741 -1.2518  1.1153
   42DMF     H3  500   1.152   1.924   1.184 -0.3910 -0.0458  0.1696
   42DMF     H4  501   1.313   2.046   1.418  0.1689  2.0539  0.4219
   42DMF     H5  502   1.342   2.190   1.325  0.2138  0.5511  0.3000
   42DMF     H6  503   1.475   2.081   1.365  0.1879 -1.2612  0.1233
   42DMF     H7  504   1.523   1.917   1.211  0.4784  0.1666 -0.1837
   43DMF     C1  505   2.324   2.143   1.152  1.0697 -0.5980  0.0500
   43DMF     N1  506   2.285   2.009   1.111 -0.2496  0.4175  0.2272
   43DMF     C2  507   2.313   1.957   0.975 -0.1089  0.3269  0.5611
   43DMF     C3  508   2.212   1.931   1.210 -0.1593 -1.0228  0.0734
   43DMF     O1  509   2.165   1.974   1.311 -0.2427  0.1091 -0.1143
   43DMF     H1  510   2.383   2.131   1.243 -0.3472  1.5374  1.2977
   43DMF     H2  511   2.232   2.197   1.180  0.8419 -2.2030  2.4925
   43DMF     H3  512   2.392   2.188   1.079  0.2748 -0.4570 -0.6249
   43DMF     H4  513   2.275   2.023   0.895 -2.2815  0.9325  2.0538
   43DMF     H5  514   2.255   1.865   0.959  1.6234 -0.7559  0.3395
   43DMF     H6  515   2.417   1.936   0.947  0.4009  3.3679  0.0039
   43DMF     H7  516   2.195   1.827   1.177 -1.0344 -1.2441  1.1728
   44DMF     C1  517   0.113   1.594   0.474 -0.3774  0.1966 -0.5845
   44DMF     N1  518   0.237   1.664   0.479 -0.3389  0.6945 -0.0967
   44DMF     C2  519   0.280   1.712   0.611 -0.3493 -0.4278  0.1660
   44DMF     C3  520   0.326   1.667   0.371 -0.5540 -0.2648  0.6211
   44DMF     O1  521   0.295   1.634   0.257  0.3739 -0.0894  0.0005
   44DMF     H1  522   0.126   1.486   0.487 -0.4319  0.1709 -0.7399
   44DMF     H2  523   0.056   1.599   0.380  1.1635 -3.2963 -1.7967
   44DMF     H3  524   0.053   1.633   0.556 -0.2773  0.4089 -0.6111
   44DMF     H4  525   0.390   1.712   0.614 -0.2192  2.2565 -2.4414
   44DMF     H5  526   0.236   1.660   0.697 -2.8713  0.1055 -0.7697
   44DMF     H6  527   0.256   1.819   0.604 -1.1795 -0.5610  0.9007
   44DMF     H7  528   0.428   1.701   0.395 -0.1053 -0.1663 -1.3398
   45DMF     C1  529   1.160   0.486   1.570 -0.4665 -0.2572  0.8205
   45DMF     N1  530   1.071   0.587   1.631  0.3239  0.4790 -0.6388
   45DMF     C2  531   1.000   0.683   1.541  0.0853 -0.2288  0.0418
   45DMF     C3  532   1.075   0.599   1.774 -0.0585 -0.5666  0.1278
   45DMF     O1  533   1.135   0.520   1.849 -0.1248  0.0359 -0.4640
   45DMF     H1  534   1.255   0.493   1.625  0.5796 -1.4449 -0.8020
   45DMF     H2  535   1.182   0.512   1.466 -1.8403 -1.2318  0.2706
   45DMF     H3  536   1.108   0.390   1.569 -1.1455  0.1066  0.9536
   45DMF     H4  537   0.934   0.628   1.472 -1.1506  0.5726  0.5610
   45DMF     H5  538   1.069   0.742   1.480 -1.3224  2.0270  0.5572
   45DMF     H6  539   0.940   0.756   1.597 -0.2753 -1.5934  1.4876
   45DMF     H7  540   1.024   0.687   1.819  0.0533 -0.9948  1.1001
   46DMF     C1  541   1.901   1.765   2.067  0.4635  0.2257  0.6262
   46DMF     N1  542   2.023   1.694   2.046  0.1541 -0.6163 -0.0082
   46DMF     C2  543   2.117   1.700   2.160 -0.2469  0.5860 -0.0300
   46DMF     C3  544   2.051   1.614   1.935 -0.4671  0.2426 -0.1553
   46DMF     O1  545   1.969   1.615   1.838 -0.4536  0.6417 -0.1127
   46DMF     H1  546   1.932   1.865   2.036  0.0213  0.0828 -0.3123
   46DMF     H2  547   1.863   1.769   2.170 -0.1935  1.7419  0.3334
   46DMF     H3  548   1.820   1.722   2.006  0.4201  0.4119  0.5517
   46DMF     H4  549   2.074   1.727   2.257  0.5437  2.0703 -0.0825
   46DMF     H5  550   2.190   1.775   2.128  0.8870 -1.0345 -1.3176
   46DMF     H6  551   2.164   1.601   2.166  0.6509  1.0262  0.2474
   46DMF     H7  552   2.153   1.573   1.933  0.0448  1.3643  1.7163
   47DMF     C1  553   0.529   2.385   0.786 -0.0304  0.1012 -0.0978
   47DMF     N1  554   0.465   2.286   0.872 -0.3931 -0.1027  0.2616
   47DMF     C2  555   0.451   2.339   1.012  0.3200  0.8722 -0.8078
   47DMF     C3  556   0.435   2.152   0.850 -1.1794 -0.6303 -0.0274
   47DMF     O1  557   0.462   2.097   0.738  0.0576  0.4678 -0.4575
   47DMF     H1  558   0.625   2.415   0.829 -0.4937  1.2918  0.1364
   47DMF     H2  559   0.454   2.466   0.790 -2.0766 -1.6987 -1.2660
   47DMF     H3  560   0.535   2.356   0.681 -1.7370 -0.8509  0.0497
   47DMF     H4  561   0.489   2.260   1.078 -1.9918  0.5017  0.0908
   47DMF     H5  562   0.345   2.361   1.029 -0.0292  0.6390 -2.5275
   47DMF     H6  563   0.511   2.429   1.029 -0.1875  1.3368 -1.4260
   47DMF     H7  564   0.397   2.105   0.942 -0.8692  0.9942  0.9599
   48DMF     C1  565   1.703   2.655   0.136  0.0840  0.3436 -0.0734
   48DMF     N1  566   1.586   2.569   0.169 -0.7450 -0.2523 -0.0624
   48DMF     C2  567   1.462   2.588   0.106 -0.0174 -0.6378 -1.0800
   48DMF     C3  568   1.603   2.462   0.260 -0.5545 -0.1200 -0.1115
   48DMF     O1  569   1.714   2.438   0.310 -0.7651 -0.2463 -0.2863
   48DMF     H1  570   1.664   2.740   0.079  0.9107 -0.1284 -1.3803
   48DMF     H2  571   1.774   2.600   0.072  0.7910  0.6015  0.4834
   48DMF     H3  572   1.751   2.677   0.232  0.8100 -0.0442 -0.3382
   48DMF     H4  573   1.479   2.628   0.005  0.5101  0.9980 -0.3607
   48DMF     H5  574   1.399   2.657   0.164  0.9582  1.0234 -1.9345
   48DMF     H6  575   1.407   2.494   0.101 -2.1671  0.5401 -0.3337
   48DMF     H7  576   1.513   2.397   0.267 -1.3057  0.7520 -1.3623
   49DMF     C1  577   0.548   2.589   1.708  0.3089 -0.6855 -0.1053
   49DMF     N1  578   0.519   2.441   1.742  0.8080  0.0493  0.1834
   49DMF     C2  579   0.524   2.337   1.639 -0.3252  0.7274 -1.0915
   49DMF     C3  580   0.490   2.409   1.872  0.1846 -0.0034 -0.0986
   49DMF     O1  581   0.488   2.499   1.953 -0.2390  0.0119 -0.6063
   49DMF     H1  582   0.450   2.635   1.691  0.3785 -0.9407 -1.2197
   49DMF     H2  583   0.611   2.587   1.618  2.5198  1.6706  1.3136
   49DMF     H3  584   0.599   2.648   1.785 -0.2749 -1.3837  0.8292
   49DMF     H4  585   0.560   2.246   1.688 -0.3317  1.0556 -0.4721
   49DMF     H5  586   0.581   2.377   1.555  1.4434  1.7123  0.5212
   49DMF     H6  587   0.426   2.306   1.601  0.8141 -2.0806 -1.7887
   49DMF     H7  588   0.472   2.300   1.883  0.1426 -0.0619 -0.6979
   50DMF     C1  589   2.516   2.277   0.339 -0.3204 -0.3568  0.3381
   50DMF     N1  590   2.563   2.418   0.339 -0.1062  0.3554  0.0472
   50DMF     C2  591   2.711   2.441   0.329  0.7839 -0.7023 -0.2453
   50DMF     C3  592   2.478   2.528   0.362  0.4373  0.5749  0.2706
   50DMF     O1  593   2.355   2.512   0.374  0.0175  0.0861  1.0405
   50DMF     H1  594   2.592   2.211   0.296 -0.1602 -0.5414  0.8979
   50DMF     H2  595   2.417   2.272   0.292 -1.6903  0.9744  2.9542
   50DMF     H3  596   2.498   2.250   0.444  0.7595  0.0504  0.6290
   50DMF     H4  597   2.768   2.348   0.325  1.1047 -0.4056 -3.0703
   50DMF     H5  598   2.749   2.494   0.417  0.9368 -1.5544  0.2123
   50DMF     H6  599   2.737   2.498   0.240 -1.1908 -0.8729 -0.9625
   50DMF     H7  600   2.527   2.626   0.375 -0.4779  1.0716  0.0143
   51DMF     C1  601   0.676   1.767   1.579  0.3148 -0.2769 -0.4423
   51DMF     N1  602   0.751   1.776   1.707  0.1760  0.1861  0.6910
   51DMF     C2  603   0.884   1.831   1.707 -0.4704 -0.3620 -0.4951
   51DMF     C3  604   0.688   1.728   1.820  0.1210 -0.2086  0.1214
   51DMF     O1  605   0.585   1.672   1.819 -0.0405 -0.1527  0.5150
   51DMF     H1  606   0.700   1.672   1.531  2.3938  0.4743 -0.9148
   51DMF     H2  607   0.691   1.861   1.525 -2.2517 -0.8683 -2.2610
   51DMF     H3  608   0.567   1.760   1.591  0.4577 -0.5614  0.7637
   51DMF     H4  609   0.959   1.752   1.718 -0.1399 -0.0548 -0.5118
   51DMF     H5  610   0.876   1.904   1.789  0.4263 -1.2557  0.3938
   51DMF     H6  611   0.892   1.893   1.617 -0.1220 -0.3236 -0.4377
   51DMF     H7  612   0.752   1.740   1.910 -1.4966  1.1345  1.1014
   52DMF     C1  613   0.992   1.386   2.274  0.4857 -0.2260  0.2116
   52DMF     N1  614   1.137   1.370   2.285 -0.2028 -0.4517 -0.0880
   52DMF     C2  615   1.188   1.229   2.288 -0.6050 -0.2470 -0.8264
   52DMF     C3  616   1.226   1.470   2.334  0.0483 -0.7627  1.6372
   52DMF     O1  617   1.184   1.589   2.341 -0.3174 -0.3198  0.2437
   52DMF     H1  618   0.962   1.490   2.293 -2.1138 -0.7130 -1.0922
   52DMF     H2  619   0.933   1.325   2.344 -0.3651 -1.5799 -1.6548
   52DMF     H3  620   0.961   1.343   2.178  0.5614 -0.7567  0.4247
   52DMF     H4  621   1.112   1.161   2.248  1.9802 -4.0218  0.4610
   52DMF     H5  622   1.193   1.193   2.391  1.9050  1.8530 -0.1588
   52DMF     H6  623   1.284   1.225   2.235  1.0832 -1.5463  2.2101
   52DMF     H7  624   1.330   1.440   2.355  0.5972 -0.6404 -0.7135
   53DMF     C1  625   2.469   1.611   0.011  0.3103 -0.2771  0.6934
   53DMF     N1  626   2.592   1.543  -0.029  0.5424  0.1140  0.3988
   53DMF     C2  627   2.713   1.541   0.058  0.0825 -0.3621  0.4851
   53DMF     C3  628   2.603   1.490  -0.161  0.2031 -0.4320  0.6723
   53DMF     O1  629   2.521   1.495  -0.251  0.3414  0.7007  0.1421
   53DMF     H1  630   2.383   1.575  -0.047  1.6288 -0.1745 -1.3846
   53DMF     H2  631   2.478   1.718  -0.011  3.9396 -0.5832  0.5032
   53DMF     H3  632   2.447   1.596   0.117 -0.7906 -1.8915  0.2455
   53DMF     H4  633   2.797   1.508  -0.004  0.6497  0.3087  0.8743
   53DMF     H5  634   2.708   1.469   0.141  0.5063 -0.3073  0.5599
   53DMF     H6  635   2.738   1.644   0.088 -0.2112 -0.3648  0.7392
   53DMF     H7  636   2.694   1.427  -0.174 -1.4911 -3.0282  1.0816
   54DMF     C1  637   0.883   0.066   1.960 -0.1549  0.1017 -0.6158
   54DMF     N1  638   1.024   0.111   1.936 -0.1961  0.0437 -0.8492
   54DMF     C2  639   1.048   0.254   1.906 -0.3186  0.4915 -0.4144
   54DMF     C3  640   1.131   0.015   1.921  0.1985  0.3903 -0.0916
   54DMF     O1  641   1.107  -0.098   1.936 -0.0016  0.0447  0.2828
   54DMF     H1  642   0.830   0.127   2.034  2.4398  0.6021  0.9017
   54DMF     H2  643   0.890  -0.037   1.996  0.4104  0.4582  0.2947
   54DMF     H3  644   0.829   0.064   1.864  4.5906  0.1663 -3.4529
   54DMF     H4  645   0.980   0.281   1.825  1.5500 -0.9000 -2.4999
   54DMF     H5  646   1.150   0.283   1.876  0.1390 -0.1700  0.4543
   54DMF     H6  647   1.032   0.290   2.008  1.2496  0.0475  0.0092
   54DMF     H7  648   1.231   0.060   1.906 -0.0586  0.4591 -1.7578
   55DMF     C1  649   2.262   2.028   2.270  0.9997  0.5775 -0.0565
   55DMF     N1  650   2.393   1.975   2.310  0.0214  0.1579 -0.6078
   55DMF     C2  651   2.389   1.871   2.417 -0.4575  0.2118 -0.6907
   55DMF     C3  652   2.513   2.007   2.243 -0.1709  0.0795  0.0450
   55DMF     O1  653   2.511   2.081   2.143 -0.9939 -0.3647 -0.4191
   55DMF     H1  654   2.248   2.115   2.336  0.1882 -1.1861  2.1662
   55DMF     H2  655   2.194   1.946   2.291  2.1048 -0.2461  0.3546
   55DMF     H3  656   2.275   2.072   2.170 -0.7992  1.5225  0.1118
   55DMF     H4  657   2.316   1.790   2.404 -1.2043  0.6896  0.5630
   55DMF     H5  658   2.380   1.924   2.512  2.0876 -0.1896 -0.1719
   55DMF     H6  659   2.488   1.824   2.411 -1.4386 -1.9388 -0.6008
   55DMF     H7  660   2.601   1.952   2.280  0.2124  0.1708 -0.7429
   56DMF     C1  661   0.056   0.723   0.115 -0.6888  0.2753 -0.2063
   56DMF     N1  662  -0.069   0.751   0.043 -0.4320 -0.4867 -0.5018
   56DMF     C2  663  -0.068   0.722  -0.105 -0.3623 -0.7534 -0.7847
   56DMF     C3  664  -0.184   0.814   0.101  0.0603 -0.5536  0.2356
   56DMF     O1  665  -0.193   0.830   0.224  0.1308  0.9388 -0.2841
   56DMF     H1  666   0.058   0.634   0.178 -1.1749 -0.9743 -1.9332
   56DMF     H2  667   0.084   0.806   0.182  1.2876 -0.2460 -0.3592
   56DMF     H3  668   0.136   0.715   0.041  0.8710  3.0885  1.0790
   56DMF     H4  669  -0.071   0.617  -0.138  2.7631 -1.3108  0.5669
   56DMF     H5  670   0.015   0.771  -0.156 -0.2934 -1.8117 -1.7245
   56DMF     H6  671  -0.150   0.779  -0.151 -1.3406  0.7141  2.6300
   56DMF     H7  672  -0.247   0.865   0.026  3.3932  0.8402 -1.7615
   57DMF     C1  673   2.368   0.162   0.577 -0.0457 -0.0561 -0.1454
   57DMF     N1  674   2.428   0.240   0.466 -0.5227  0.0868  0.4948
   57DMF     C2  675   2.382   0.212   0.326 -0.1320 -0.0939  0.4601
   57DMF     C3  676   2.540   0.326   0.493  0.3288  0.5695 -0.6056
   57DMF     O1  677   2.571   0.353   0.607 -0.2130  0.1846 -0.1534
   57DMF     H1  678   2.299   0.098   0.521 -1.1765  1.3249 -0.3607
   57DMF     H2  679   2.319   0.234   0.643 -1.0459 -1.0008  0.1480
   57DMF     H3  680   2.441   0.095   0.625  2.8312  1.5364 -2.1618
   57DMF     H4  681   2.449   0.153   0.262  0.3426 -0.5168  1.3388
   57DMF     H5  682   2.381   0.308   0.273 -0.6681  0.2892  1.1659
   57DMF     H6  683   2.283   0.165   0.328  0.2666 -0.9286  1.5791
   57DMF     H7  684   2.584   0.367   0.400 -2.0665 -0.6741 -2.3271
   58DMF     C1  685   0.213   0.304   1.621  0.5245  0.6709 -0.0651
   58DMF     N1  686   0.248   0.242   1.492 -0.3800 -0.8009  0.3200
   58DMF     C2  687   0.131   0.203   1.401 -0.3451 -0.1633  0.1787
   58DMF     C3  688   0.381   0.231   1.454 -0.1382  1.4364 -0.9343
   58DMF     O1  689   0.475   0.285   1.515 -0.1557  0.0172 -0.6365
   58DMF     H1  690   0.254   0.405   1.624  0.1707  0.8257 -0.4981
   58DMF     H2  691   0.252   0.256   1.712  0.1081  0.3484 -0.0513
   58DMF     H3  692   0.105   0.323   1.624 -0.2053 -2.8426 -1.0529
   58DMF     H4  693   0.039   0.182   1.457 -0.9106 -1.1520 -1.0664
   58DMF     H5  694   0.159   0.110   1.349 -0.4896 -0.7641  1.1629
   58DMF     H6  695   0.109   0.284   1.331 -2.1358  0.6670  1.6577
   58DMF     H7  696   0.408   0.176   1.362  2.8611  0.0607  0.6785
   59DMF     C1  697   1.135   0.771   1.164 -0.1688 -0.3106  0.2546
   59DMF     N1  698   1.250   0.857   1.192  0.4748  0.6661  0.2945
   59DMF     C2  699   1.373   0.841   1.109 -0.2390  0.0470 -1.0838
   59DMF     C3  700   1.237   0.967   1.280  0.1156 -0.0088 -0.5373
   59DMF     O1  701   1.132   1.001   1.338 -0.1743 -0.2494 -0.4215
   59DMF     H1  702   1.112   0.764   1.057 -3.0923  0.7568  0.7460
   59DMF     H2  703   1.046   0.814   1.212  0.7751  1.9488  0.0702
   59DMF     H3  704   1.161   0.667   1.187  0.0698 -0.3054  0.0052
   59DMF     H4  705   1.414   0.742   1.132  1.5480  1.1298  0.6343
   59DMF     H5  706   1.456   0.909   1.136 -2.2164  1.9987  0.2553
   59DMF     H6  707   1.345   0.846   1.003 -3.2188 -1.3152 -0.4065
   59DMF     H7  708   1.329   1.029   1.286  0.3995 -0.3365 -1.3668
   60DMF     C1  709   0.731   2.533   1.251  0.4273 -1.3406  0.2454
   60DMF     N1  710   0.846   2.453   1.212 -0.6056  0.2322  0.3952
   60DMF     C2  711   0.828   2.319   1.144  0.1104 -0.6962 -0.6255
   60DMF     C3  712   0.979   2.497   1.246 -0.6698 -0.3120 -0.4820
   60DMF     O1  713   0.996   2.611   1.287 -0.1110 -0.2938  0.3744
   60DMF     H1  714   0.687   2.505   1.348 -0.2662  0.4142  0.4500
   60DMF     H2  715   0.656   2.506   1.175 -0.3220  0.2387  0.3975
   60DMF     H3  716   0.749   2.641   1.257 -0.6509 -1.0112 -1.8812
   60DMF     H4  717   0.842   2.334   1.036  1.7012  1.5321 -0.1373
   60DMF     H5  718   0.728   2.283   1.173 -0.4123 -0.9422 -2.6643
   60DMF     H6  719   0.902   2.244   1.172  0.1494 -0.3010  0.3431
   60DMF     H7  720   1.057   2.428   1.211  0.1029 -0.1938  0.9832
   61DMF     C1  721   0.668   0.395   1.850  0.2596  0.1942 -0.5124
   61DMF     N1  722   0.586   0.507   1.908 -0.0445 -0.0118  0.1034
   61DMF     C2  723   0.458   0.535   1.851 -0.3012  0.1388  0.5280
   61DMF     C3  724   0.630   0.579   2.024  0.9172  0.6609 -0.8679
   61DMF     O1  725   0.742   0.565   2.074  0.0862  0.7326 -0.4127
   61DMF     H1  726   0.659   0.410   1.742  0.0185 -0.7031 -0.6196
   61DMF     H2  727   0.636   0.296   1.886 -0.0242  0.9793  1.4260
   61DMF     H3  728   0.775   0.407   1.873  0.4002  1.3532 -1.7360
   61DMF     H4  729   0.441   0.478   1.759  0.1071  1.9085 -0.6555
   61DMF     H5  730   0.470   0.641   1.827  0.9231 -0.2723 -0.7466
   61DMF     H6  731   0.385   0.517   1.932 -0.4127  1.7176  0.8054
   61DMF     H7  732   0.561   0.652   2.069  0.8268 -0.7041  1.2820
   62DMF     C1  733   0.973   0.895   0.309 -0.0005  0.5486 -0.2202
   62DMF     N1  734   0.845   0.845   0.265  0.0826  0.0695 -0.0633
   62DMF     C2  735   0.735   0.944   0.256 -0.5784 -0.1543 -0.6083
   62DMF     C3  736   0.820   0.708   0.256  0.1416  0.2979  0.4523
   62DMF     O1  737   0.898   0.617   0.280  0.5977  0.2495 -0.0668
   62DMF     H1  738   1.012   0.843   0.398  2.0455 -3.4121 -3.2552
   62DMF     H2  739   0.974   0.999   0.342  0.3657  0.8431 -1.1441
   62DMF     H3  740   1.053   0.895   0.233  1.8046 -0.6184  1.6126
   62DMF     H4  741   0.647   0.902   0.205 -0.0334 -1.5170 -0.4560
   62DMF     H5  742   0.775   1.028   0.197  0.1024 -0.0160  0.0418
   62DMF     H6  743   0.705   0.969   0.358 -0.0656  0.2060 -0.5445
   62DMF     H7  744   0.717   0.684   0.223 -0.1917  1.8427  0.3600
   63DMF     C1  745   1.931   2.612   0.854  0.0022 -0.0861 -0.9239
   63DMF     N1  746   1.949   2.631   0.707 -0.0761  0.2371  0.0012
   63DMF     C2  747   2.079   2.607   0.651  0.4052  0.4453  0.2938
   63DMF     C3  748   1.839   2.656   0.622  0.3378  0.2577 -0.6135
   63DMF     O1  749   1.732   2.694   0.665 -0.4311 -0.2333 -0.1009
   63DMF     H1  750   1.879   2.516   0.862 -0.6097  0.1647 -1.7845
   63DMF     H2  751   1.877   2.701   0.890  1.0636 -1.3424  4.0352
   63DMF     H3  752   2.024   2.608   0.913 -0.4246  0.4447 -0.2125
   63DMF     H4  753   2.159   2.655   0.709 -0.1234  1.0620  0.5178
   63DMF     H5  754   2.078   2.633   0.545 -4.3024  0.9035  0.3634
   63DMF     H6  755   2.101   2.499   0.650  1.7362  0.6765  1.9661
   63DMF     H7  756   1.869   2.643   0.516  1.3725  0.1308 -0.3042
   64DMF     C1  757   2.117   1.089   0.493 -0.2274  0.1276 -0.2514
   64DMF     N1  758   2.012   0.990   0.532 -0.2997  0.2958  0.8274
   64DMF     C2  759   1.903   0.955   0.437 -0.2049  0.1644 -0.2069
   64DMF     C3  760   2.023   0.917   0.647  0.7292  1.0486 -0.3947
   64DMF     O1  761   2.099   0.937   0.736 -0.5421  0.1578  0.0397
   64DMF     H1  762   2.106   1.108   0.385  0.5110  0.4846 -0.2658
   64DMF     H2  763   2.216   1.051   0.520 -0.5843 -0.0680  0.8043
   64DMF     H3  764   2.100   1.181   0.550  0.4088 -0.2635  0.5753
   64DMF     H4  765   1.892   1.037   0.364 -0.3526  0.3731  0.0484
   64DMF     H5  766   1.812   0.937   0.494  0.2499 -0.6071  0.2925
   64DMF     H6  767   1.925   0.859   0.389 -1.1207 -0.2617  0.2226
   64DMF     H7  768   1.942   0.842   0.652 -1.3311  3.1531 -1.3595
   65DMF     C1  769   2.175   0.611   0.612  0.1014 -0.0085  0.3710
   65DMF     N1  770   2.236   0.677   0.493 -0.3576 -0.6360  0.4179
   65DMF     C2  771   2.354   0.759   0.516 -0.0995 -0.3210  0.4059
   65DMF     C3  772   2.175   0.655   0.367 -0.8439 -0.3404  0.2847
   65DMF     O1  773   2.066   0.604   0.358  0.3629 -0.5710 -0.2795
   65DMF     H1  774   2.070   0.596   0.583  0.7043 -3.4894 -0.2447
   65DMF     H2  775   2.175   0.668   0.706 -0.6385  0.2303  0.2296
   65DMF     H3  776   2.214   0.509   0.622  0.0955 -0.0550 -0.0784
   65DMF     H4  777   2.369   0.830   0.433 -1.0134 -0.0582  0.4570
   65DMF     H5  778   2.436   0.687   0.517 -0.1320 -0.3471  1.0367
   65DMF     H6  779   2.336   0.817   0.607  0.8044 -1.0701  1.0652
   65DMF     H7  780   2.237   0.701   0.288 -2.4555  0.4553 -0.5455
   66DMF     C1  781   2.501   0.274   2.121 -0.0526 -0.0825  0.8383
   66DMF     N1  782   2.440   0.298   2.252  0.3258 -0.8172  0.2581
   66DMF     C2  783   2.515   0.244   2.368 -0.0071  0.3828  0.2442
   66DMF     C3  784   2.320   0.365   2.267  0.3482 -0.4598 -0.6074
   66DMF     O1  785   2.247   0.413   2.178  0.0098  0.0039 -0.5074
   66DMF     H1  786   2.435   0.268   2.033  0.6836  0.1069  0.2650
   66DMF     H2  787   2.555   0.180   2.107 -2.5230 -1.1831 -1.7827
   66DMF     H3  788   2.561   0.361   2.092 -0.3928 -0.5767 -1.4839
   66DMF     H4  789   2.528   0.325   2.441  3.8269  0.9536 -0.9958
   66DMF     H5  790   2.619   0.222   2.343 -0.2389 -1.7936  1.0297
   66DMF     H6  791   2.462   0.159   2.412 -1.9515  0.7977 -1.2208
   66DMF     H7  792   2.294   0.372   2.375  2.8844  1.6840 -0.0657
   67DMF     C1  793   0.886   0.122   0.252  0.1774 -0.3337 -0.5972
   67DMF     N1  794   0.930   0.246   0.320 -0.0698  0.1953 -0.5278
   67DMF     C2  795   0.903   0.245   0.452 -0.1161 -0.5694 -0.9451
   67DMF     C3  796   1.015   0.335   0.257 -0.0667  0.3418  0.1306
   67DMF     O1  797   1.055   0.307   0.145  0.0143  0.2439 -0.2132
   67DMF     H1  798   0.796   0.076   0.295 -0.6393  1.2443 -0.6054
   67DMF     H2  799   0.968   0.049   0.240  1.1178  0.5089  0.5696
   67DMF     H3  800   0.857   0.149   0.150  1.5200 -1.5304 -1.3246
   67DMF     H4  801   0.803   0.283   0.475 -0.0690 -0.1742 -1.3770
   67DMF     H5  802   0.982   0.302   0.504 -1.3899 -0.6792  1.1894
   67DMF     H6  803   0.915   0.142   0.488 -0.4010  0.0861  1.0929
   67DMF     H7  804   1.044   0.425   0.313  0.8845  1.3932 -2.0117
   68DMF     C1  805   1.677   2.134   0.090 -0.7035 -0.1792 -0.1515
   68DMF     N1  806   1.730   2.228  -0.011  0.1954 -0.8120  0.7011
   68DMF     C2  807   1.880   2.226  -0.042 -0.7258  0.1908  0.1243
   68DMF     C3  808   1.637   2.330  -0.061  0.2176  0.5500  0.2685
   68DMF     O1  809   1.517   2.306  -0.066 -0.1828 -0.1165 -0.2028
   68DMF     H1  810   1.735   2.041   0.087 -0.0879  0.0901  2.3756
   68DMF     H2  811   1.573   2.104   0.069 -0.3702 -2.0094  0.7248
   68DMF     H3  812   1.674   2.179   0.190  1.0653  0.9583 -0.5940
   68DMF     H4  813   1.930   2.322  -0.022  1.6668 -1.1198  0.6789
   68DMF     H5  814   1.888   2.195  -0.147  0.1186  1.5124 -0.2104
   68DMF     H6  815   1.935   2.154   0.019  1.7410  0.2427 -1.9623
   68DMF     H7  816   1.692   2.410  -0.112  1.5993  0.9887  2.3967
   69DMF     C1  817   1.690   0.679   2.074 -0.0345 -0.5529 -0.3314
   69DMF     N1  818   1.550   0.692   2.121  0.7042 -0.1625  0.4882
   69DMF     C2  819   1.498   0.593   2.211  0.3195 -0.8934  0.9802
   69DMF     C3  820   1.477   0.803   2.075 -0.1360  0.0186  0.6467
   69DMF     O1  821   1.521   0.888   1.997 -0.7595 -0.4551 -0.0970
   69DMF     H1  822   1.736   0.591   2.121 -0.7331 -1.7258 -1.7882
   69DMF     H2  823   1.758   0.763   2.096  0.6104 -1.2503  0.4024
   69DMF     H3  824   1.667   0.675   1.967 -1.6390 -2.4048  0.0490
   69DMF     H4  825   1.569   0.570   2.291  1.6541  0.8258  0.3151
   69DMF     H5  826   1.471   0.501   2.158 -0.8901 -0.4727  0.8580
   69DMF     H6  827   1.401   0.630   2.247  0.0701 -0.9204  0.3569
   69DMF     H7  828   1.380   0.815   2.126 -0.5465  1.5550 -0.4640
   70DMF     C1  829   2.046   2.027   1.605 -0.2187 -0.2398  0.3584
   70DMF     N1  830   2.001   2.109   1.718  0.2729  0.5924 -0.5940
   70DMF     C2  831   1.908   2.049   1.809  0.3871 -0.5485 -0.5286
   70DMF     C3  832   2.023   2.245   1.729  0.4820  0.2053 -0.1152
   70DMF     O1  833   2.102   2.306   1.662  0.6321  0.6932  0.4325
   70DMF     H1  834   2.090   1.934   1.643 -0.8704 -0.6099  0.2035
   70DMF     H2  835   2.118   2.077   1.539 -0.7688 -0.6628 -0.5736
   70DMF     H3  836   1.968   1.987   1.540  2.8866 -1.7283 -2.5694
   70DMF     H4  837   1.819   2.111   1.823  1.2014  0.1722  1.6860
   70DMF     H5  838   1.958   2.049   1.907  1.7049  2.0549 -1.1704
   70DMF     H6  839   1.880   1.943   1.803 -1.8225 -0.0214  0.0777
   70DMF     H7  840   1.978   2.298   1.814  1.0421  3.4425 -1.7703
   71DMF     C1  841   2.080   2.650   0.151  0.3937  0.1473 -0.6385
   71DMF     N1  842   2.172   2.541   0.097  0.3766 -0.3858  0.2970
   71DMF     C2  843   2.146   2.404   0.136 -0.0600 -0.2228 -0.2942
   71DMF     C3  844   2.288   2.573   0.027  0.0998  0.6134 -0.3335
   71DMF     O1  845   2.320   2.688   0.003 -0.0767  0.6854  0.2700
   71DMF     H1  846   2.116   2.688   0.247  0.1002 -1.1747  0.0102
   71DMF     H2  847   1.977   2.612   0.155  0.1549  0.6310 -1.9102
   71DMF     H3  848   2.073   2.738   0.085  0.8161  1.2062  0.7018
   71DMF     H4  849   2.060   2.388   0.201 -0.1450  0.8071 -0.1446
   71DMF     H5  850   2.231   2.360   0.190 -0.9759 -1.2627  0.3222
   71DMF     H6  851   2.123   2.348   0.045  1.2558  3.0738 -2.7331
   71DMF     H7  852   2.337   2.477   0.000 -0.6574  0.4679 -1.2167
   72DMF     C1  853   1.279   0.100   0.504 -0.5836 -0.1164 -0.8216
   72DMF     N1  854   1.415   0.051   0.474  0.2930 -0.1115 -0.3853
   72DMF     C2  855   1.461  -0.066   0.546  1.3126 -0.3555  0.1666
   72DMF     C3  856   1.511   0.139   0.411  0.0973 -0.5512  0.6759
   72DMF     O1  857   1.482   0.245   0.357 -0.6403  0.0012  0.4837
   72DMF     H1  858   1.243   0.046   0.593  0.1164 -0.3652 -0.6797
   72DMF     H2  859   1.220   0.071   0.417 -0.7497  0.2112 -0.8160
   72DMF     H3  860   1.274   0.209   0.504 -0.1212 -0.0747  0.4464
   72DMF     H4  861   1.484  -0.037   0.649 -2.9079 -1.8671  1.6238
   72DMF     H5  862   1.552  -0.109   0.501  0.2217  0.9176 -3.4674
   72DMF     H6  863   1.382  -0.141   0.536  0.0590  0.9210  0.3585
   72DMF     H7  864   1.617   0.109   0.411  0.0392 -0.8921 -1.7960
   73DMF     C1  865   1.340   0.493   0.787  0.1971  0.1362 -0.8682
   73DMF     N1  866   1.276   0.557   0.671 -0.3332 -0.3560  0.5347
   73DMF     C2  867   1.146   0.628   0.693  0.3692 -0.9596 -0.2322
   73DMF     C3  868   1.347   0.590   0.557  0.2805  0.5283 -0.7846
   73DMF     O1  869   1.462   0.546   0.531  0.1995  0.3196 -0.1697
   73DMF     H1  870   1.418   0.559   0.827 -0.1010 -0.6111  1.0106
   73DMF     H2  871   1.381   0.397   0.751  1.3469 -0.3848  1.6682
   73DMF     H3  872   1.268   0.451   0.858 -1.2819  3.3175 -0.4197
   73DMF     H4  873   1.146   0.719   0.632 -1.2272 -0.1289  0.9955
   73DMF     H5  874   1.139   0.656   0.798  0.1762 -1.4060 -0.1225
   73DMF     H6  875   1.059   0.570   0.661  0.3862 -1.0523 -0.1106
   73DMF     H7  876   1.289   0.659   0.494  2.9512  2.9988 -0.6064
   74DMF     C1  877   0.565   0.167   1.030 -0.2461 -0.5105  0.1630
   74DMF     N1  878   0.450   0.236   1.084 -0.5929 -0.7561 -0.5708
   74DMF     C2  879   0.475   0.375   1.117  0.2721 -0.6023 -0.0900
   74DMF     C3  880   0.320   0.181   1.085 -0.8278  0.3562 -0.5786
   74DMF     O1  881   0.299   0.059   1.072  0.0259  0.7473  0.2923
   74DMF     H1  882   0.655   0.194   1.088  0.9243 -1.4355 -1.1852
   74DMF     H2  883   0.581   0.206   0.929 -1.4440  0.7725  0.4504
   74DMF     H3  884   0.561   0.057   1.027 -1.4176 -0.4522 -0.4836
   74DMF     H4  885   0.575   0.408   1.084  0.6604  0.4197  2.0460
   74DMF     H5  886   0.479   0.382   1.226 -2.1056  1.0316 -0.0790
   74DMF     H6  887   0.393   0.436   1.077  0.7503  0.6928  0.8823
   74DMF     H7  888   0.238   0.253   1.102  0.2042  1.2773  0.5757
   75DMF     C1  889   0.892   1.436   1.824  1.2296  0.1732 -0.2289
   75DMF     N1  890   0.758   1.377   1.821  0.0683 -0.3350  0.1911
   75DMF     C2  891   0.689   1.338   1.690  0.3570 -0.3238 -0.2870
   75DMF     C3  892   0.709   1.329   1.945 -0.8071 -0.6567  0.5844
   75DMF     O1  893   0.769   1.351   2.048 -0.5238 -0.8414  0.1676
   75DMF     H1  894   0.922   1.486   1.731  0.6867  0.8930 -0.0182
   75DMF     H2  895   0.976   1.371   1.853  0.0907 -1.2073  0.0608
   75DMF     H3  896   0.899   1.516   1.899  1.2148 -2.6210  2.8614
   75DMF     H4  897   0.584   1.350   1.719  0.8690 -1.7506  2.2401
   75DMF     H5  898   0.704   1.232   1.666 -1.3274 -0.7730  0.5547
   75DMF     H6  899   0.706   1.406   1.605  0.1982  0.7078  0.4902
   75DMF     H7  900   0.613   1.277   1.931 -0.9378  0.0587 -1.2785
   76DMF     C1  901   1.991   0.064   1.675 -0.1211  0.4771  0.2358
   76DMF     N1  902   2.009   0.165   1.781  0.0664 -0.0818  0.8579
   76DMF     C2  903   2.008   0.107   1.916 -0.0078 -0.1201 -0.0997
   76DMF     C3  904   2.022   0.297   1.752 -0.3579 -0.7009  0.2146
   76DMF     O1  905   2.050   0.342   1.640 -0.2449  0.5297  0.1484
   76DMF     H1  906   2.053   0.089   1.588 -1.4549  1.0230 -0.5682
   76DMF     H2  907   1.882   0.075   1.666  0.0417  1.5983 -0.3957
   76DMF     H3  908   2.024  -0.036   1.707  0.5008  0.0609 -1.6332
   76DMF     H4  909   1.967   0.192   1.970  0.3904  0.0211 -0.0160
   76DMF     H5  910   2.106   0.072   1.952 -0.5904 -2.3803 -0.6162
   76DMF     H6  911   1.919   0.045   1.930 -1.1129  0.9292 -2.2200
   76DMF     H7  912   2.002   0.364   1.838  0.0744 -1.3489  0.8338
   77DMF     C1  913   1.436   1.851   1.622  0.0120 -0.5111 -0.4333
   77DMF     N1  914   1.563   1.774   1.621 -0.2325 -0.6421 -0.8156
   77DMF     C2  915   1.649   1.769   1.746  0.3793 -0.6350  0.4127
   77DMF     C3  916   1.586   1.677   1.521 -0.8049  1.4043  0.3694
   77DMF     O1  917   1.555   1.683   1.405 -0.8616  0.2981 -0.3404
   77DMF     H1  918   1.362   1.796   1.680  0.2912 -1.2522 -0.7724
   77DMF     H2  919   1.407   1.864   1.517  1.4457  3.2881 -0.4237
   77DMF     H3  920   1.436   1.951   1.667 -2.8245 -0.2555 -0.9109
   77DMF     H4  921   1.754   1.761   1.715  0.7647 -4.5861  2.3856
   77DMF     H5  922   1.628   1.679   1.804 -1.6316 -0.1480  0.4655
   77DMF     H6  923   1.630   1.869   1.786  0.0961  0.4461 -2.3359
   77DMF     H7  924   1.640   1.589   1.560 -1.7331 -0.2037 -1.8528
   78DMF     C1  925   1.137   1.868   0.153 -0.4235 -0.2345  0.2577
   78DMF     N1  926   1.182   1.806   0.030  0.5118  0.4783 -0.2924
   78DMF     C2  927   1.257   1.681   0.040  0.3486  0.5122 -0.1419
   78DMF     C3  928   1.127   1.847  -0.095  0.0879  0.5459  0.2793
   78DMF     O1  929   1.040   1.933  -0.103  0.2513 -0.6888 -0.3703
   78DMF     H1  930   1.029   1.855   0.167 -0.2853  0.2674  1.8157
   78DMF     H2  931   1.150   1.977   0.155 -1.4271 -0.1264  1.6732
   78DMF     H3  932   1.195   1.826   0.236  0.2532 -0.3028 -0.2464
   78DMF     H4  933   1.232   1.618   0.126  2.0762 -0.6455 -0.4618
   78DMF     H5  934   1.363   1.707   0.034  0.5543 -0.6731 -2.2897
   78DMF     H6  935   1.234   1.621  -0.049  0.2745  3.5431 -2.2485
   78DMF     H7  936   1.160   1.784  -0.179  0.6515 -0.2754  1.0949
   79DMF     C1  937   1.587   0.877   2.490  0.3775 -0.4229 -0.0643
   79DMF     N1  938   1.649   0.964   2.384  0.0352 -0.1476  0.5244
   79DMF     C2  939   1.577   1.090   2.352 -0.1622  0.3912 -0.0660
   79DMF     C3  940   1.770   0.933   2.315 -0.1801  0.1998  0.8236
   79DMF     O1  941   1.842   0.842   2.353 -0.0527  0.5340  0.4050
   79DMF     H1  942   1.479   0.866   2.471  0.8993 -2.2011 -2.2714
   79DMF     H2  943   1.604   0.926   2.587  1.3378 -0.2044 -0.3362
   79DMF     H3  944   1.641   0.782   2.494  0.4864 -0.3126  1.3237
   79DMF     H4  945   1.648   1.165   2.318  0.2255  0.3435  0.6273
   79DMF     H5  946   1.521   1.120   2.442  3.0065  1.2600  1.6973
   79DMF     H6  947   1.499   1.064   2.279  0.5020  2.3797 -1.5016
   79DMF     H7  948   1.791   1.004   2.233 -1.1084  1.4728  1.6627
   80DMF     C1  949   2.463   1.189   0.252 -0.3333 -0.7242 -0.5390
   80DMF     N1  950   2.475   1.215   0.105 -0.4277 -0.2730 -0.0520
   80DMF     C2  951   2.595   1.163   0.035 -0.1147 -0.2584  0.5504
   80DMF     C3  952   2.395   1.305   0.046  0.1596  0.2856 -0.0625
   80DMF     O1  953   2.302   1.357   0.108 -0.3109 -0.0178 -0.3610
   80DMF     H1  954   2.415   1.272   0.305  0.3621  0.1160 -1.2086
   80DMF     H2  955   2.559   1.178   0.303  0.8885  4.1968 -1.4992
   80DMF     H3  956   2.399   1.101   0.259  1.1243 -1.6387  1.5714
   80DMF     H4  957   2.617   1.218  -0.057 -0.9668 -2.3934 -0.9512
   80DMF     H5  958   2.590   1.057   0.010  2.7797 -1.0658  3.0410
   80DMF     H6  959   2.682   1.178   0.100  0.9521 -0.7087 -0.7446
   80DMF     H7  960   2.425   1.337  -0.055  0.9454  0.4241  0.2156
   81DMF     C1  961   0.213   1.332   1.624  0.6984 -0.7332  0.1991
   81DMF     N1  962   0.298   1.431   1.690 -0.1813  0.7509 -0.2174
   81DMF     C2  963   0.353   1.534   1.604  0.2093  0.4050  0.1785
   81DMF     C3  964   0.330   1.422   1.823 -0.1705 -0.1824 -0.1169
   81DMF     O1  965   0.325   1.315   1.888  0.4167 -0.9656 -0.8365
   81DMF     H1  966   0.130   1.392   1.585 -0.0706 -0.3643  2.3229
   81DMF     H2  967   0.168   1.268   1.701 -0.9689 -1.3289 -1.2245
   81DMF     H3  968   0.273   1.269   1.557 -0.0682  0.2222 -1.4041
   81DMF     H4  969   0.364   1.634   1.646 -1.0971  0.1152  1.2417
   81DMF     H5  970   0.308   1.537   1.503 -1.1921 -2.2388  0.6612
   81DMF     H6  971   0.459   1.511   1.591  0.4050  1.5560 -0.3380
   81DMF     H7  972   0.373   1.514   1.867  2.6529 -0.7485 -1.5673
   82DMF     C1  973   0.000   0.022   0.031 -0.2214  0.3548 -0.1977
   82DMF     N1  974   0.095   0.134   0.023  0.2872 -0.1441  0.1715
   82DMF     C2  975   0.192   0.129  -0.086 -0.3745 -0.2896 -0.0041
   82DMF     C3  976   0.089   0.242   0.115  0.0477 -0.4800  0.0335
   82DMF     O1  977   0.009   0.254   0.202 -1.0271  0.0122  0.4420
   82DMF     H1  978  -0.048   0.003  -0.065 -0.0526 -1.5946  0.0924
   82DMF     H2  979  -0.077   0.038   0.107 -0.4895 -1.8780  0.0315
   82DMF     H3  980   0.063  -0.067   0.041  0.7452  0.9787 -0.6057
   82DMF     H4  981   0.202   0.025  -0.121  1.2411 -0.0144 -0.4325
   82DMF     H5  982   0.287   0.163  -0.043 -1.6948  1.8758  1.2974
   82DMF     H6  983   0.172   0.189  -0.176  0.8248  1.3312  0.7778
   82DMF     H7  984   0.174   0.313   0.112 -0.6255  0.4777  2.6335
   83DMF     C1  985   1.646   0.199   1.824  0.4055  0.1166  0.4426
   83DMF     N1  986   1.593   0.289   1.930 -0.0255  0.0585  0.4501
   83DMF     C2  987   1.497   0.399   1.894 -0.2486  0.0783 -0.0356
   83DMF     C3  988   1.647   0.268   2.058  0.4579 -0.1514  0.1279
   83DMF     O1  989   1.719   0.173   2.083  0.2415  0.2580  0.3808
   83DMF     H1  990   1.649   0.100   1.872 -0.7423 -0.4103 -0.5261
   83DMF     H2  991   1.746   0.232   1.793 -0.7157  2.1879 -1.0482
   83DMF     H3  992   1.572   0.204   1.742 -0.1260  2.0809  1.0075
   83DMF     H4  993   1.458   0.383   1.793 -0.8337 -2.2129  0.5270
   83DMF     H5  994   1.550   0.495   1.888 -2.0566  0.9986 -1.7217
   83DMF     H6  995   1.418   0.390   1.969  0.0139  0.6337  0.3082
   83DMF     H7  996   1.624   0.347   2.133  0.0714  0.6357 -0.8017
   84DMF     C1  997   0.335   1.092   2.141 -0.0580 -0.2036  0.1345
   84DMF     N1  998   0.417   0.985   2.205 -0.8469  0.6276 -0.3298
   84DMF     C2  999   0.564   0.989   2.182  0.1395 -0.5032  0.5406
   84DMF     C3 1000   0.351   0.890   2.287 -0.2176  0.6424 -0.2331
   84DMF     O1 1001   0.228   0.890   2.305 -0.5619  0.4364  0.3089
   84DMF     H1 1002   0.318   1.061   2.037  0.7149 -0.9973  0.2351
   84DMF     H2 1003   0.395   1.183   2.136 -0.5551  0.0627 -1.5707
   84DMF     H3 1004   0.245   1.116   2.199 -0.5261 -1.1427 -0.1769
   84DMF     H4 1005   0.601   0.928   2.099  0.7941  0.3675  0.1794
   84DMF     H5 1006   0.622   0.966   2.272  2.6137  1.0909 -0.5991
   84DMF     H6 1007   0.582   1.092   2.148 -0.3221 -0.7401 -0.4431
   84DMF     H7 1008   0.424   0.816   2.323  1.6606  1.0266 -3.0833
   85DMF     C1 1009   0.037   2.577   2.273 -0.6725 -0.1449 -0.4565
   85DMF     N1 1010  -0.059   2.544   2.165  0.5066 -0.3711  0.4462
   85DMF     C2 1011  -0.201   2.550   2.182 -0.9607 -0.1957 -0.0019
   85DMF     C3 1012  -0.017   2.517   2.037  0.0165 -0.4572 -0.4930
   85DMF     O1 1013   0.101   2.516   2.016 -0.7462  0.1506  1.0542
   85DMF     H1 1014  -0.029   2.574   2.361  1.3990  2.1573  1.2339
   85DMF     H2 1015   0.070   2.682   2.266 -1.9473  0.2633 -0.5851
   85DMF     H3 1016   0.114   2.500   2.282  2.1902  2.4725 -1.7512
   85DMF     H4 1017  -0.227   2.646   2.230  2.0004  1.1745 -1.0159
   85DMF     H5 1018  -0.236   2.464   2.239 -1.6867 -0.0106 -0.1512
   85DMF     H6 1019  -0.247   2.545   2.082 -1.1284 -0.9491  0.1107
   85DMF     H7 1020  -0.096   2.484   1.968  0.8380 -0.2465 -1.5553
   86DMF     C1 1021   2.094   1.919   0.247 -0.2749 -0.6377 -0.2311
   86DMF     N1 1022   2.116   1.774   0.238  0.3889 -0.1425 -0.0462
   86DMF     C2 1023   2.076   1.698   0.350  0.3228 -0.0749  0.1673
   86DMF     C3 1024   2.186   1.715   0.133 -0.3300 -0.6272 -0.2962
   86DMF     O1 1025   2.224   1.776   0.036 -0.5133  0.0795  0.4685
   86DMF     H1 1026   2.194   1.960   0.267 -0.9966  0.7234  0.7118
   86DMF     H2 1027   2.024   1.957   0.323  0.9550  2.2354 -0.4606
   86DMF     H3 1028   2.060   1.959   0.151  0.4439  1.3113  0.3075
   86DMF     H4 1029   1.986   1.737   0.399 -0.3914  1.2249 -2.0929
   86DMF     H5 1030   2.160   1.684   0.419 -0.5813 -2.2501  0.8524
   86DMF     H6 1031   2.047   1.596   0.323 -1.2186  0.2729  0.4880
   86DMF     H7 1032   2.187   1.605   0.144  1.0715 -0.7277 -1.3601
   87DMF     C1 1033   1.702   2.404   1.814 -0.1752  0.1846 -0.6160
   87DMF     N1 1034   1.611   2.431   1.704  0.4572 -0.3348  0.4535
   87DMF     C2 1035   1.464   2.413   1.724  0.1137  0.2661 -0.4772
   87DMF     C3 1036   1.668   2.445   1.569  0.3433  0.0542 -0.3407
   87DMF     O1 1037   1.787   2.446   1.543 -0.3914  0.3471  0.0964
   87DMF     H1 1038   1.806   2.435   1.801 -0.5035  1.0445 -1.2238
   87DMF     H2 1039   1.704   2.294   1.814 -1.5053  0.1336 -2.3682
   87DMF     H3 1040   1.657   2.450   1.903  1.3199 -2.1650  1.4075
   87DMF     H4 1041   1.421   2.514   1.723  0.4011  0.4845  3.0873
   87DMF     H5 1042   1.444   2.369   1.823 -1.3175  3.2480  0.6243
   87DMF     H6 1043   1.424   2.352   1.643  0.0752  0.6385 -0.7389
   87DMF     H7 1044   1.592   2.451   1.489  0.5793  0.9874 -0.5062
   88DMF     C1 1045   2.335   1.977   1.872  0.6001 -0.4203 -0.0917
   88DMF     N1 1046   2.474   1.934   1.846  0.0676  0.0917 -0.2051
   88DMF     C2 1047   2.576   2.029   1.820 -0.1144  0.3587 -0.8688
   88DMF     C3 1048   2.511   1.797   1.869 -0.2048 -0.0545 -0.6861
   88DMF     O1 1049   2.429   1.713   1.894  0.5912 -0.3646 -0.2820
   88DMF     H1 1050   2.332   2.059   1.944  2.9838 -1.8353  1.7294
   88DMF     H2 1051   2.276   1.896   1.917  0.4695 -0.6861 -0.7433
   88DMF     H3 1052   2.284   2.004   1.779  0.3831 -1.3456 -0.2451
   88DMF     H4 1053   2.557   2.090   1.731  0.0924  0.6411 -0.7182
   88DMF     H5 1054   2.678   1.992   1.808 -0.8217 -1.3177 -1.9681
   88DMF     H6 1055   2.586   2.100   1.903  0.7288  0.8628 -1.3893
   88DMF     H7 1056   2.618   1.779   1.849 -0.0655 -0.7637  0.6577
   89DMF     C1 1057   0.137   0.118   0.630  0.3061  0.0265 -0.8540
   89DMF     N1 1058   0.219   0.025   0.714  0.5430  0.2012 -0.6555
   89DMF     C2 1059   0.174  -0.115   0.730  0.4718  0.4844 -0.1737
   89DMF     C3 1060   0.335   0.075   0.784  0.3349  0.1283 -0.2260
   89DMF     O1 1061   0.382   0.183   0.757 -0.3754  0.3922 -0.0031
   89DMF     H1 1062   0.047   0.071   0.587 -1.0646 -1.1145  3.0126
   89DMF     H2 1063   0.204   0.157   0.553 -0.9751  0.9793 -1.4983
   89DMF     H3 1064   0.105   0.203   0.692  3.1266  1.2205 -0.9934
   89DMF     H4 1065   0.083  -0.122   0.791  1.4961  0.0313  1.3449
   89DMF     H5 1066   0.255  -0.172   0.777 -0.1634 -0.1024  0.2128
   89DMF     H6 1067   0.157  -0.148   0.627  0.1518  0.2267 -0.0379
   89DMF     H7 1068   0.382   0.004   0.853  0.2337 -0.4145 -0.7088
   90DMF     C1 1069   1.677   0.708   0.289  0.1112  0.2338 -0.1273
   90DMF     N1 1070   1.548   0.770   0.263  0.5177 -1.0473 -0.1051
   90DMF     C2 1071   1.433   0.686   0.224 -0.7623  0.1266  0.0872
   90DMF     C3 1072   1.517   0.906   0.286 -0.2834  0.9258 -0.2648
   90DMF     O1 1073   1.600   0.988   0.322  0.3400  0.4362  1.1874
   90DMF     H1 1074   1.667   0.601   0.314  0.4362 -0.3884 -2.5643
   90DMF     H2 1075   1.713   0.756   0.381 -2.4072 -0.4461  1.2713
   90DMF     H3 1076   1.743   0.719   0.202 -1.2815 -2.9486 -1.6670
   90DMF     H4 1077   1.343   0.704   0.283 -0.3983  2.1772  0.0865
   90DMF     H5 1078   1.460   0.584   0.254  1.6805  0.8927  0.6293
   90DMF     H6 1079   1.425   0.689   0.114  1.0695  0.2940 -0.0665
   90DMF     H7 1080   1.410   0.927   0.269 -0.3055  1.4277  0.4859
   91DMF     C1 1081   1.232   1.375   1.094 -0.0155 -0.4487  0.7692
   91DMF     N1 1082   1.263   1.516   1.061  0.9423  0.0578  0.5467
   91DMF     C2 1083   1.268   1.608   1.174  0.3866  0.1333 -0.0289
   91DMF     C3 1084   1.286   1.569   0.934  0.7358 -0.0118 -0.2736
   91DMF     O1 1085   1.279   1.507   0.827 -0.2466  0.3559 -0.4152
   91DMF     H1 1086   1.163   1.334   1.019  1.5112 -0.0514 -0.8793
   91DMF     H2 1087   1.188   1.359   1.193  2.6509 -1.1868  1.8736
   91DMF     H3 1088   1.321   1.315   1.072  0.4051  0.5981 -0.4580
   91DMF     H4 1089   1.349   1.582   1.243 -0.2940 -0.5801  0.5076
   91DMF     H5 1090   1.172   1.593   1.226  0.3559  1.1947  0.2387
   91DMF     H6 1091   1.278   1.714   1.146  2.8096 -0.3826 -1.2761
   91DMF     H7 1092   1.316   1.675   0.939 -0.2233  0.4447 -3.2201
   92DMF     C1 1093   0.780   1.684   0.039  0.3227  0.2807  0.4655
   92DMF     N1 1094   0.637   1.657   0.045 -0.1066  0.3942  0.1854
   92DMF     C2 1095   0.548   1.745  -0.038  0.5509  0.2575 -0.3251
   92DMF     C3 1096   0.579   1.555   0.132 -0.1418 -0.1644  0.0612
   92DMF     O1 1097   0.646   1.487   0.207 -0.3192  0.2592  0.2655
   92DMF     H1 1098   0.820   1.659   0.137  1.0420  1.4649  0.4832
   92DMF     H2 1099   0.811   1.783   0.002  3.2917 -0.7497  0.0905
   92DMF     H3 1100   0.831   1.613  -0.027 -2.0094 -1.1343  0.1304
   92DMF     H4 1101   0.558   1.849  -0.005  1.2223 -0.1871  0.9189
   92DMF     H5 1102   0.444   1.708  -0.043  0.8840 -0.5100 -1.8513
   92DMF     H6 1103   0.580   1.741  -0.143 -0.5209 -1.2759 -0.6204
   92DMF     H7 1104   0.470   1.543   0.123  0.0260 -1.7051 -0.0082
   93DMF     C1 1105   1.661   2.313   1.165 -0.5308 -0.1197  0.2721
   93DMF     N1 1106   1.780   2.320   1.245 -0.5459 -0.2836  0.0650
   93DMF     C2 1107   1.864   2.444   1.239 -0.0993  0.2511  0.7729
   93DMF     C3 1108   1.809   2.226   1.340  0.5177  0.1820  0.1262
   93DMF     O1 1109   1.746   2.124   1.363  0.3365  0.0552 -0.1643
   93DMF     H1 1110   1.604   2.225   1.199 -0.2056  0.2885  1.9564
   93DMF     H2 1111   1.689   2.307   1.059 -1.7698 -0.2009 -0.0575
   93DMF     H3 1112   1.600   2.403   1.175 -1.6627 -1.0835  2.5475
   93DMF     H4 1113   1.945   2.440   1.314 -1.2009 -1.0718  1.9321
   93DMF     H5 1114   1.802   2.533   1.256 -1.6236 -0.5341 -0.6007
   93DMF     H6 1115   1.895   2.453   1.134  0.9899 -0.6442  1.0075
   93DMF     H7 1116   1.906   2.258   1.384 -0.4275  2.3328  0.6567
   94DMF     C1 1117   0.239   2.131   2.043  0.0560 -0.5543  0.2049
   94DMF     N1 1118   0.276   1.985   2.036  0.0307 -0.6016 -1.4663
   94DMF     C2 1119   0.180   1.887   2.089 -0.4115 -0.6604  0.0044
   94DMF     C3 1120   0.396   1.954   1.975 -0.0610  0.8525  0.3263
   94DMF     O1 1121   0.480   2.027   1.937 -0.1131  0.0469 -0.4188
   94DMF     H1 1122   0.318   2.185   1.989 -1.5129  0.2578 -1.2879
   94DMF     H2 1123   0.237   2.178   2.142  3.7723  2.1469 -0.8751
   94DMF     H3 1124   0.141   2.149   1.999  0.2370 -2.2536 -0.9446
   94DMF     H4 1125   0.209   1.855   2.190 -1.3708 -1.1307  0.1368
   94DMF     H5 1126   0.180   1.797   2.027 -0.3617  0.0276 -1.0191
   94DMF     H6 1127   0.077   1.922   2.097 -0.1901 -0.0777  0.4257
   94DMF     H7 1128   0.394   1.844   1.965 -0.5477  0.9272 -0.4448
   95DMF     C1 1129   1.937   0.623   1.247 -0.3394  0.0327 -0.5171
   95DMF     N1 1130   1.887   0.683   1.122 -0.0064 -0.3954  0.9154
   95DMF     C2 1131   1.994   0.737   1.031 -0.4042 -0.0755 -0.2033
   95DMF     C3 1132   1.762   0.742   1.113 -0.2718 -0.2047  0.4667
   95DMF     O1 1133   1.670   0.725   1.193 -0.2400 -0.1700 -0.5549
   95DMF     H1 1134   1.878   0.539   1.286 -1.3423  1.0953  0.2751
   95DMF     H2 1135   1.942   0.705   1.319  2.7497  0.7217 -1.4224
   95DMF     H3 1136   2.037   0.585   1.223 -0.0099  0.8815 -0.5048
   95DMF     H4 1137   2.059   0.654   1.001 -0.4553  0.2092 -1.0904
   95DMF     H5 1138   2.041   0.815   1.092 -1.6137 -0.8189  1.7463
   95DMF     H6 1139   1.939   0.772   0.944 -3.0979  1.4455  2.0281
   95DMF     H7 1140   1.746   0.806   1.024 -1.1500 -1.7553 -0.5167
   96DMF     C1 1141   1.370   2.644   1.171  0.6097 -0.4020 -0.0216
   96DMF     N1 1142   1.412   2.679   1.033 -0.6600 -0.0067 -0.0602
   96DMF     C2 1143   1.309   2.697   0.928  0.3154  0.4074  0.3939
   96DMF     C3 1144   1.545   2.712   1.002  0.0164 -0.3601  0.3344
   96DMF     O1 1145   1.628   2.696   1.088 -0.2109 -0.1400  0.2207
   96DMF     H1 1146   1.283   2.579   1.159  0.5309 -0.6969  1.9713
   96DMF     H2 1147   1.339   2.730   1.233 -0.7746 -0.7892 -0.1553
   96DMF     H3 1148   1.453   2.588   1.215 -0.0735  0.7054  2.7980
   96DMF     H4 1149   1.257   2.603   0.906  0.1480  0.6701 -0.3707
   96DMF     H5 1150   1.355   2.731   0.834 -0.2714  0.9378  0.2916
   96DMF     H6 1151   1.245   2.777   0.966  1.1342  0.6374  1.3136
   96DMF     H7 1152   1.563   2.749   0.900  2.1922 -1.1637  0.4010
   97DMF     C1 1153   2.557   1.481   1.113  0.8112 -0.8339  0.3316
   97DMF     N1 1154   2.435   1.536   1.062 -0.0808 -0.0480  0.3618
   97DMF     C2 1155   2.445   1.648   0.960 -0.1450  0.7495  0.3636
   97DMF     C3 1156   2.315   1.491   1.105  0.5133 -0.0913 -0.5544
   97DMF     O1 1157   2.304   1.428   1.210  0.0605  0.5503  0.0193
   97DMF     H1 1158   2.641   1.539   1.074 -0.4526  0.2217 -0.8972
   97DMF     H2 1159   2.561   1.377   1.080  0.6138 -1.4357  2.1407
   97DMF     H3 1160   2.549   1.476   1.223 -0.4844  1.8299  0.4108
   97DMF     H4 1161   2.480   1.737   1.013 -0.0065  1.5106 -0.9658
   97DMF     H5 1162   2.350   1.661   0.906  1.3633  2.4639 -2.0277
   97DMF     H6 1163   2.520   1.628   0.883 -1.4253  0.2910 -0.8030
   97DMF     H7 1164   2.231   1.514   1.036 -1.5259  1.2350  2.2777
   98DMF     C1 1165   2.015   0.128   2.458  0.3214  0.3514 -0.7660
   98DMF     N1 1166   1.882   0.191   2.423  0.0832 -0.5021 -0.2181
   98DMF     C2 1167   1.883   0.334   2.367 -0.4289 -0.2857  0.0178
   98DMF     C3 1168   1.761   0.128   2.438 -0.5584 -0.4433 -0.1888
   98DMF     O1 1169   1.753   0.010   2.479 -0.1155 -0.0117 -0.4989
   98DMF     H1 1170   2.044   0.153   2.561  0.0050 -0.5214 -0.4644
   98DMF     H2 1171   2.089   0.149   2.379 -0.4941  1.6352 -1.2078
   98DMF     H3 1172   2.006   0.019   2.456 -0.3009  0.3331  1.4528
   98DMF     H4 1173   1.977   0.385   2.394 -0.5840 -0.4106  0.8254
   98DMF     H5 1174   1.802   0.403   2.395  0.8473  1.6590 -0.9946
   98DMF     H6 1175   1.857   0.312   2.263 -0.6882 -1.7230  0.3735
   98DMF     H7 1176   1.675   0.192   2.412 -0.7049 -1.0176 -1.1211
   99DMF     C1 1177   0.587   1.153   0.013  0.1714 -0.0981 -0.5395
   99DMF     N1 1178   0.498   1.041  -0.028 -0.1858 -0.6349 -0.1488
   99DMF     C2 1179   0.361   1.052  -0.005  0.1022  0.2354  0.0001
   99DMF     C3 1180   0.546   0.922  -0.080  0.1101  0.2706  0.2547
   99DMF     O1 1181   0.660   0.910  -0.106  0.4465  0.3466  0.1862
   99DMF     H1 1182   0.626   1.163   0.115  0.7333  0.5944 -0.8147
   99DMF     H2 1183   0.533   1.244  -0.018  0.3357  0.1179 -0.2058
   99DMF     H3 1184   0.677   1.165  -0.048 -1.2088  2.6650 -2.1415
   99DMF     H4 1185   0.332   0.981   0.073  0.0574  1.1767  0.8481
   99DMF     H5 1186   0.312   1.026  -0.099 -0.1597  0.6726  0.0168
   99DMF     H6 1187   0.329   1.146   0.040 -2.5670 -0.4185 -0.4338
   99DMF     H7 1188   0.478   0.842  -0.114  1.3691 -0.6280 -0.2102
  100DMF     C1 1189   0.433   1.469   0.879 -0.2250  0.0077  0.0997
  100DMF     N1 1190   0.302   1.399   0.867 -0.1276 -0.2409 -0.4890
  100DMF     C2 1191   0.181   1.464   0.915 -0.1497 -0.1116  0.0075
  100DMF     C3 1192   0.298   1.266   0.821  0.5048  0.0271 -0.3842
  100DMF     O1 1193   0.393   1.202   0.787  0.1043 -0.2349  0.3071
  100DMF     H1 1194   0.483   1.463   0.782 -0.6155 -2.1303  0.0161
  100DMF     H2 1195   0.499   1.416   0.948 -1.2286 -1.8609 -0.3300
  100DMF     H3 1196   0.421   1.572   0.916 -0.5796  0.9974 -2.6575
  100DMF     H4 1197   0.097   1.461   0.844  1.2049  0.9704 -1.6927
  100DMF     H5 1198   0.194   1.571   0.938  2.3806 -0.7964  1.8746
  100DMF     H6 1199   0.149   1.406   1.002  2.3912  0.0307  1.0657
  100DMF     H7 1200   0.195   1.226   0.822  0.8932 -0.9874 -0.5693
  101DMF     C1 1201   2.422   0.740   1.096 -0.0068 -0.3361  0.1697
  101DMF     N1 1202   2.472   0.730   0.961  0.4536 -0.0694  1.0823
  101DMF     C2 1203   2.438   0.606   0.885  0.1642 -0.0516 -0.2096
  101DMF     C3 1204   2.525   0.839   0.882 -0.3412  0.0910  0.0946
  101DMF     O1 1205   2.547   0.947   0.926 -0.0477  0.2968  0.1029
  101DMF     H1 1206   2.328   0.798   1.093 -0.6394 -1.3658 -0.0869
  101DMF     H2 1207   2.506   0.783   1.151  0.6611 -0.9860 -0.3298
  101DMF     H3 1208   2.400   0.643   1.141 -0.7457  0.1473  0.8527
  101DMF     H4 1209   2.345   0.619   0.829 -0.2983 -0.6191  0.4077
  101DMF     H5 1210   2.423   0.522   0.954 -0.1154  0.0458 -0.1517
  101DMF     H6 1211   2.517   0.584   0.813  1.0619 -0.6769  0.9386
  101DMF     H7 1212   2.548   0.811   0.778 -0.8401 -1.3642  0.3690
  102DMF     C1 1213   0.205   0.944   0.697  0.2879 -0.1172  0.5916
  102DMF     N1 1214   0.094   0.987   0.606  0.2894  0.6794  0.3345
  102DMF     C2 1215   0.047   1.122   0.617 -0.3630 -0.2627 -0.3644
  102DMF     C3 1216   0.036   0.903   0.505 -0.0970  0.5567 -0.1212
  102DMF     O1 1217   0.082   0.791   0.488  0.3490 -0.1618 -0.4468
  102DMF     H1 1218   0.175   0.976   0.798 -2.1078 -1.2263  0.2631
  102DMF     H2 1219   0.302   0.978   0.659 -1.0194 -0.2486 -3.0033
  102DMF     H3 1220   0.222   0.835   0.696 -1.8987 -0.4720 -1.6294
  102DMF     H4 1221  -0.016   1.143   0.705 -0.8331  1.2427 -1.0447
  102DMF     H5 1222  -0.012   1.145   0.528 -0.8979 -2.8969 -0.7508
  102DMF     H6 1223   0.137   1.183   0.610  0.5084 -1.7137 -2.4288
  102DMF     H7 1224  -0.051   0.948   0.453 -0.8264  1.1308  1.5705
  103DMF     C1 1225   1.528   2.181   2.273 -0.6641  0.0442  0.0923
  103DMF     N1 1226   1.513   2.069   2.368 -1.0878  0.3709 -0.0142
  103DMF     C2 1227   1.386   2.045   2.433  0.0162  0.1099  0.2125
  103DMF     C3 1228   1.631   2.016   2.421 -0.1819 -0.0833 -0.0161
  103DMF     O1 1229   1.743   2.048   2.382  0.4030  0.2144 -0.4564
  103DMF     H1 1230   1.536   2.274   2.331 -3.4357  0.9534 -0.9209
  103DMF     H2 1231   1.439   2.195   2.211  0.8572  0.6164 -2.0224
  103DMF     H3 1232   1.621   2.163   2.218  0.5765  1.6977  1.5848
  103DMF     H4 1233   1.399   1.971   2.512 -1.2448  0.0222  0.3531
  103DMF     H5 1234   1.335   1.982   2.358  0.3172 -2.8728  2.4186
  103DMF     H6 1235   1.340   2.140   2.463 -0.5403 -0.5158  1.3469
  103DMF     H7 1236   1.617   1.936   2.495 -2.9892 -0.6728 -1.1129
  104DMF     C1 1237   1.323   0.379   1.191 -0.0114  0.4813 -0.2961
  104DMF     N1 1238   1.473   0.394   1.196 -0.1485  0.1832 -0.3594
  104DMF     C2 1239   1.546   0.406   1.068 -0.0840  0.3031  0.4479
  104DMF     C3 1240   1.545   0.369   1.313  0.2951 -0.4518  0.1359
  104DMF     O1 1241   1.499   0.339   1.422 -0.3232 -0.5223  0.1971
  104DMF     H1 1242   1.303   0.297   1.122  4.2923 -0.1385 -0.9598
  104DMF     H2 1243   1.289   0.481   1.170  0.1409  1.5049  3.9907
  104DMF     H3 1244   1.279   0.351   1.287 -2.0684  0.6698 -1.1691
  104DMF     H4 1245   1.612   0.493   1.071  0.4261 -0.0859  0.5193
  104DMF     H5 1246   1.473   0.429   0.990  0.2091  1.3358  0.4830
  104DMF     H6 1247   1.607   0.319   1.039  0.8135  1.4747 -1.2529
  104DMF     H7 1248   1.653   0.367   1.291  0.3762  2.8834  0.0118
  105DMF     C1 1249   2.325   1.392   0.660  0.1347  0.8787  0.0563
  105DMF     N1 1250   2.282   1.289   0.754  0.0964 -0.0520 -0.3430
  105DMF     C2 1251   2.378   1.177   0.793  0.1800  0.2339  0.0454
  105DMF     C3 1252   2.175   1.315   0.845  0.1752 -0.0195 -1.1406
  105DMF     O1 1253   2.108   1.419   0.842 -0.7200  0.7162 -0.3565
  105DMF     H1 1254   2.381   1.475   0.704  0.9359 -0.4246  1.5179
  105DMF     H2 1255   2.233   1.436   0.619 -1.1590 -2.3704 -0.6570
  105DMF     H3 1256   2.378   1.342   0.578 -1.5700 -0.7394 -0.0784
  105DMF     H4 1257   2.431   1.134   0.707 -0.3061 -2.2282  0.9104
  105DMF     H5 1258   2.318   1.097   0.839  1.1890 -1.5652 -1.6793
  105DMF     H6 1259   2.456   1.213   0.862 -0.2274  0.9957  0.1018
  105DMF     H7 1260   2.158   1.227   0.911  0.6827  1.4279  0.9564
  106DMF     C1 1261   0.758   0.567   0.683  0.1328 -0.3774 -0.1222
  106DMF     N1 1262   0.692   0.581   0.811  0.4641 -0.1117 -0.3483
  106DMF     C2 1263   0.547   0.562   0.815  0.5574  0.4265 -0.0327
  106DMF     C3 1264   0.752   0.646   0.915 -0.4673  0.8097 -0.4499
  106DMF     O1 1265   0.871   0.668   0.907  0.0317  0.1130 -0.4492
  106DMF     H1 1266   0.852   0.622   0.682  0.1489 -0.4030 -0.0285
  106DMF     H2 1267   0.701   0.612   0.601  0.2526 -0.7235 -0.4001
  106DMF     H3 1268   0.783   0.463   0.656 -0.6477 -1.0494  1.6366
  106DMF     H4 1269   0.509   0.621   0.731  1.2982 -0.4058 -0.9728
  106DMF     H5 1270   0.509   0.609   0.906  0.5778  1.2085 -0.4175
  106DMF     H6 1271   0.515   0.458   0.805 -0.8318  0.8046  0.4137
  106DMF     H7 1272   0.693   0.654   1.008  0.5301  1.5076  0.1393
  107DMF     C1 1273   1.716   0.657   1.604  0.1421  0.4707  0.3459
  107DMF     N1 1274   1.628   0.761   1.658  0.3196  0.6919 -0.0277
  107DMF     C2 1275   1.481   0.748   1.632 -0.2943 -0.3284 -0.1853
  107DMF     C3 1276   1.677   0.863   1.740  0.4074 -0.2119  0.1481
  107DMF     O1 1277   1.779   0.856   1.798 -0.3821 -0.2468  0.1918
  107DMF     H1 1278   1.702   0.649   1.495 -0.0264  0.8723  0.3369
  107DMF     H2 1279   1.705   0.557   1.648  0.5068  1.3825  2.5528
  107DMF     H3 1280   1.822   0.684   1.617  1.1662 -3.2821  0.2726
  107DMF     H4 1281   1.463   0.701   1.534  3.3364 -1.6364 -0.2963
  107DMF     H5 1282   1.436   0.848   1.631 -0.3304 -0.3418 -1.8049
  107DMF     H6 1283   1.428   0.691   1.709  0.4901  1.2218  1.5197
  107DMF     H7 1284   1.599   0.942   1.747  2.3677  1.8763 -0.8749
  108DMF     C1 1285   0.058   1.461   2.072  0.6326  0.4369 -0.5128
  108DMF     N1 1286  -0.082   1.494   2.103 -0.1492  0.5332  0.3013
  108DMF     C2 1287  -0.188   1.403   2.041 -0.3595 -0.4661  0.2152
  108DMF     C3 1288  -0.123   1.614   2.155  0.3893  0.3315  0.4035
  108DMF     O1 1289  -0.046   1.707   2.185  0.5182 -0.4125  0.6969
  108DMF     H1 1290   0.115   1.482   2.163 -1.9791  0.2419  1.2270
  108DMF     H2 1291   0.099   1.535   2.003  3.2357 -0.4674  0.0065
  108DMF     H3 1292   0.065   1.358   2.036  1.3441  0.3453 -0.1189
  108DMF     H4 1293  -0.184   1.308   2.095 -1.8049  0.2797  1.7073
  108DMF     H5 1294  -0.163   1.380   1.937 -0.0970  2.3933 -0.3910
  108DMF     H6 1295  -0.287   1.451   2.052 -0.3502 -0.4469  0.2125
  108DMF     H7 1296  -0.232   1.624   2.170  0.3745 -0.0776  0.5684
  109DMF     C1 1297   1.805   0.415   0.850 -0.1852 -0.0721 -0.1600
  109DMF     N1 1298   1.760   0.464   0.715  0.3993  0.1536 -0.1759
  109DMF     C2 1299   1.778   0.372   0.595  0.4543 -0.4663 -0.3246
  109DMF     C3 1300   1.731   0.604   0.691  0.2463  0.0536  0.2835
  109DMF     O1 1301   1.741   0.678   0.785 -0.4287  0.4421 -0.0081
  109DMF     H1 1302   1.779   0.491   0.925  0.8477  2.7600 -2.5613
  109DMF     H2 1303   1.914   0.410   0.837 -0.1130  1.4518 -0.2216
  109DMF     H3 1304   1.767   0.315   0.874  1.7286 -0.9626 -0.7646
  109DMF     H4 1305   1.684   0.324   0.567 -0.2358  1.7743 -2.0640
  109DMF     H5 1306   1.850   0.297   0.630 -0.9305 -0.4510  2.7323
  109DMF     H6 1307   1.799   0.439   0.510 -0.1705  0.1416 -0.0055
  109DMF     H7 1308   1.711   0.633   0.586  0.8554 -2.0777 -0.4628
  110DMF     C1 1309   1.740   1.539   0.652  0.1825  0.3399 -0.3269
  110DMF     N1 1310   1.762   1.391   0.624 -0.0649  0.0008  0.0287
  110DMF     C2 1311   1.669   1.291   0.671  0.6901 -0.6865  0.2438
  110DMF     C3 1312   1.856   1.354   0.525  0.3804 -0.1910  0.8493
  110DMF     O1 1313   1.935   1.436   0.473 -0.0674  0.6090  0.0357
  110DMF     H1 1314   1.718   1.559   0.758  0.6527 -0.7840 -0.0060
  110DMF     H2 1315   1.649   1.565   0.597  0.0910 -1.4056 -1.0270
  110DMF     H3 1316   1.822   1.603   0.618 -0.9588  1.6831 -0.6035
  110DMF     H4 1317   1.696   1.185   0.666  1.2681 -0.6942  2.7405
  110DMF     H5 1318   1.572   1.306   0.623  1.7098  1.8261 -1.0975
  110DMF     H6 1319   1.659   1.307   0.779  1.7943 -0.6254  0.3497
  110DMF     H7 1320   1.846   1.251   0.485  0.9944  0.3613 -0.7675
  111DMF     C1 1321   2.433   1.226   1.698  0.2570  0.5831 -0.2122
  111DMF     N1 1322   2.295   1.273   1.674  0.1763  1.0174 -0.7050
  111DMF     C2 1323   2.251   1.411   1.704  0.4128 -0.2961 -0.2550
  111DMF     C3 1324   2.199   1.183   1.623 -0.2788  0.3093  0.2391
  111DMF     O1 1325   2.237   1.092   1.551  0.5927 -0.0919  0.3280
  111DMF     H1 1326   2.447   1.196   1.803 -0.1116 -1.6124 -0.7732
  111DMF     H2 1327   2.505   1.304   1.671 -0.9924  1.7789 -0.1372
  111DMF     H3 1328   2.454   1.137   1.639 -2.7103  0.9271 -1.8964
  111DMF     H4 1329   2.217   1.420   1.808 -1.1022 -0.8054 -0.6839
  111DMF     H5 1330   2.175   1.450   1.635  1.5356  0.9648 -0.7921
  111DMF     H6 1331   2.344   1.467   1.691  0.9929 -0.9486  1.0201
  111DMF     H7 1332   2.094   1.206   1.648 -0.2742  0.3479  0.2228
  112DMF     C1 1333   2.062   0.567   2.611 -0.2889  0.1014 -0.4116
  112DMF     N1 1334   2.134   0.458   2.681 -0.0669 -0.1584 -0.4810
  112DMF     C2 1335   2.051   0.375   2.767 -0.2907  0.5366 -0.2311
  112DMF     C3 1336   2.268   0.425   2.646 -0.0400  0.9693 -0.1777
  112DMF     O1 1337   2.335   0.491   2.575 -0.1850  0.1835  0.0381
  112DMF     H1 1338   1.954   0.559   2.621 -0.7081  2.2903 -2.7452
  112DMF     H2 1339   2.086   0.568   2.504  1.0258  0.1322 -0.1300
  112DMF     H3 1340   2.107   0.663   2.642  0.0144  0.1845 -1.1063
  112DMF     H4 1341   1.974   0.433   2.820  0.0376  0.4565  0.3413
  112DMF     H5 1342   2.115   0.333   2.845 -1.6012 -1.5016 -0.2137
  112DMF     H6 1343   2.013   0.288   2.711 -1.0769  1.0542 -0.5034
  112DMF     H7 1344   2.314   0.336   2.692 -0.8421  0.5920 -0.1116
  113DMF     C1 1345   1.931   1.828   0.863 -0.4484  0.0403  0.2871
  113DMF     N1 1346   1.850   1.951   0.890 -0.8916  0.1347  0.2959
  113DMF     C2 1347   1.708   1.924   0.927 -0.3252 -0.6469 -0.1363
  113DMF     C3 1348   1.926   2.075   0.910  0.2801 -0.2225 -0.0747
  113DMF     O1 1349   2.044   2.088   0.878 -0.1242  0.1606 -0.2579
  113DMF     H1 1350   2.027   1.828   0.916  0.1940  0.8384 -0.8422
  113DMF     H2 1351   1.956   1.813   0.757  0.3075 -0.8070  0.5745
  113DMF     H3 1352   1.888   1.732   0.894  1.8209 -1.5674 -1.3495
  113DMF     H4 1353   1.653   2.008   0.884  0.8570  0.8996  1.3160
  113DMF     H5 1354   1.701   1.926   1.037  0.7909  1.6256 -0.0804
  113DMF     H6 1355   1.674   1.832   0.878  1.3262 -1.4163  0.1275
  113DMF     H7 1356   1.873   2.159   0.958  0.4255 -0.0334 -0.2415
  114DMF     C1 1357   0.765   2.368   0.005  0.0934  0.2030  0.0715
  114DMF     N1 1358   0.726   2.292   0.129  0.0988 -0.0271  0.0150
  114DMF     C2 1359   0.784   2.153   0.163 -0.6200  0.1708  1.0368
  114DMF     C3 1360   0.609   2.337   0.192  0.4651  0.1394  0.1871
  114DMF     O1 1361   0.550   2.436   0.155 -0.1757  0.6884 -0.4258
  114DMF     H1 1362   0.800   2.470   0.025  0.7213 -0.0575  0.3060
  114DMF     H2 1363   0.680   2.375  -0.064 -1.4293 -0.5254  1.8226
  114DMF     H3 1364   0.845   2.314  -0.047  0.5348 -1.0881  2.0325
  114DMF     H4 1365   0.727   2.111   0.247 -2.4355  1.8030  0.6498
  114DMF     H5 1366   0.891   2.162   0.186 -0.1399 -0.7706 -0.7535
  114DMF     H6 1367   0.775   2.100   0.068 -1.5719  0.1887  1.1198
  114DMF     H7 1368   0.580   2.272   0.277  1.8576 -0.7479 -0.0065
  115DMF     C1 1369   0.286   0.291   2.222 -0.4417 -0.6127 -0.4177
  115DMF     N1 1370   0.306   0.183   2.114  0.5926  0.2242 -0.0395
  115DMF     C2 1371   0.405   0.071   2.129 -0.0513  0.0704  0.2603
  115DMF     C3 1372   0.232   0.183   2.000  0.2528  0.5146 -0.2298
  115DMF     O1 1373   0.143   0.264   1.966  0.0154  0.3382  0.6767
  115DMF     H1 1374   0.185   0.332   2.232 -0.0049  0.6148 -1.0094
  115DMF     H2 1375   0.354   0.375   2.206 -0.2746 -0.5527  0.5355
  115DMF     H3 1376   0.323   0.246   2.315  1.7250  1.1951 -0.3654
  115DMF     H4 1377   0.349  -0.016   2.093  1.2575  1.0405 -4.4117
  115DMF     H5 1378   0.449   0.070   2.230  2.0025 -0.3797 -0.5998
  115DMF     H6 1379   0.493   0.067   2.063  1.3512 -0.0778  2.0821
  115DMF     H7 1380   0.265   0.105   1.928 -0.6491  0.6352 -0.7818
  116DMF     C1 1381   0.264   0.614   1.313 -0.4174 -0.4018 -0.5611
  116DMF     N1 1382   0.296   0.700   1.187 -0.3546 -0.1968 -0.2392
  116DMF     C2 1383   0.190   0.737   1.102  0.2914  0.0389  0.0289
  116DMF     C3 1384   0.428   0.733   1.143 -0.0722 -0.0329 -0.5577
  116DMF     O1 1385   0.528   0.703   1.204  0.1615  0.1847  0.1904
  116DMF     H1 1386   0.215   0.677   1.389  1.2615 -0.3922  0.5340
  116DMF     H2 1387   0.359   0.573   1.350 -0.3535  1.5315  1.5011
  116DMF     H3 1388   0.195   0.535   1.282 -1.3915 -0.1789  0.9733
  116DMF     H4 1389   0.092   0.706   1.143  1.0072 -1.4334  0.6515
  116DMF     H5 1390   0.208   0.702   1.000 -0.7406  0.4109 -0.2942
  116DMF     H6 1391   0.181   0.847   1.108  0.5899  0.0773 -0.2709
  116DMF     H7 1392   0.421   0.797   1.054 -0.0900 -1.7103 -1.7927
  117DMF     C1 1393   2.304   1.032   2.064  0.0474  0.4942  0.7279
  117DMF     N1 1394   2.166   1.051   2.040  0.4922 -0.2559  0.0600
  117DMF     C2 1395   2.068   0.946   2.060  0.1353 -0.2676 -0.6205
  117DMF     C3 1396   2.114   1.181   2.007 -0.0287 -0.5843 -0.0087
  117DMF     O1 1397   2.178   1.281   1.989 -0.6594  0.0251  0.4965
  117DMF     H1 1398   2.326   1.010   2.169  0.9281  2.4292  0.9603
  117DMF     H2 1399   2.366   1.115   2.029 -2.3528  1.8150 -0.5632
  117DMF     H3 1400   2.339   0.941   2.013 -2.3146  1.1891 -2.2890
  117DMF     H4 1401   1.980   0.986   2.113 -1.1209 -1.3635 -1.8191
  117DMF     H5 1402   2.114   0.872   2.127 -0.1079  0.0824 -0.0604
  117DMF     H6 1403   2.023   0.900   1.971 -1.8610  0.4471 -0.0208
  117DMF     H7 1404   2.004   1.185   2.011 -0.1052 -2.6738  0.5858
  118DMF     C1 1405   2.341   0.592   1.647  0.0498 -0.1970  0.4776
  118DMF     N1 1406   2.319   0.726   1.595  0.7444 -0.3751  0.1320
  118DMF     C2 1407   2.219   0.816   1.658 -0.4754  0.2396  0.6400
  118DMF     C3 1408   2.382   0.778   1.477  0.0594 -0.1626 -0.5888
  118DMF     O1 1409   2.477   0.715   1.428  0.0834 -0.3174  0.4288
  118DMF     H1 1410   2.277   0.574   1.735 -0.0460 -4.0459 -0.2937
  118DMF     H2 1411   2.448   0.576   1.663  0.4585  1.4777 -0.4735
  118DMF     H3 1412   2.315   0.517   1.572 -1.8880 -0.4082  1.3208
  118DMF     H4 1413   2.261   0.888   1.730  2.4616  3.2114 -3.8382
  118DMF     H5 1414   2.153   0.752   1.719  1.4290 -0.3257  2.1570
  118DMF     H6 1415   2.162   0.873   1.583 -0.2339 -1.7442 -1.0787
  118DMF     H7 1416   2.350   0.875   1.433 -0.2801  0.4689  1.0132
  119DMF     C1 1417   2.505   2.444   1.369  0.1268 -0.5112  0.6423
  119DMF     N1 1418   2.390   2.373   1.423  0.7296  0.1450 -0.2570
  119DMF     C2 1419   2.413   2.279   1.534 -0.4758  0.1395  0.4262
  119DMF     C3 1420   2.257   2.405   1.392 -0.2389 -0.0915 -0.4696
  119DMF     O1 1421   2.232   2.471   1.301 -0.0152  0.0621  0.2619
  119DMF     H1 1422   2.588   2.373   1.358  2.1782  1.3585  3.1717
  119DMF     H2 1423   2.537   2.508   1.453  1.5445  0.6785 -0.7788
  119DMF     H3 1424   2.485   2.498   1.276  0.1608 -0.0705  0.8896
  119DMF     H4 1425   2.447   2.335   1.623 -1.9848  1.4227  0.2167
  119DMF     H5 1426   2.478   2.197   1.501  0.3010  2.0490 -2.9919
  119DMF     H6 1427   2.315   2.234   1.552 -0.8232  0.5806 -0.3296
  119DMF     H7 1428   2.175   2.361   1.452 -0.3848  0.3027 -0.3811
  120DMF     C1 1429   1.902   1.451   2.375  0.1954 -1.0622 -0.3353
  120DMF     N1 1430   2.017   1.361   2.379 -0.1448  0.1964 -0.5208
  120DMF     C2 1431   2.135   1.412   2.448  0.5231  0.2199  0.4966
  120DMF     C3 1432   2.020   1.239   2.317 -0.5491 -0.3103  0.7692
  120DMF     O1 1433   1.928   1.204   2.243  0.0692  0.2424 -0.1486
  120DMF     H1 1434   1.912   1.523   2.294 -0.4301 -0.8250 -0.2090
  120DMF     H2 1435   1.911   1.508   2.468  1.8582 -0.5694 -0.7953
  120DMF     H3 1436   1.804   1.402   2.366 -0.7498  0.9920 -1.5452
  120DMF     H4 1437   2.129   1.519   2.423 -1.0894  0.2650  1.0139
  120DMF     H5 1438   2.232   1.381   2.408  0.6279 -0.4214  1.2526
  120DMF     H6 1439   2.126   1.389   2.555 -0.8643 -1.0380  0.1281
  120DMF     H7 1440   2.100   1.168   2.346  0.4585  0.3349 -0.4112
  121DMF     C1 1441   1.140   0.194   2.521  0.8499 -0.0258  0.3585
  121DMF     N1 1442   1.093   0.159   2.387  0.3939 -0.2736 -0.1011
  121DMF     C2 1443   1.042   0.270   2.301 -0.5679 -0.2477 -0.1999
  121DMF     C3 1444   1.057   0.029   2.359 -0.3445  0.0466 -0.7537
  121DMF     O1 1445   1.058  -0.058   2.447  0.3156  0.0977  0.0561
  121DMF     H1 1446   1.237   0.243   2.508  1.3121 -1.3007 -1.1061
  121DMF     H2 1447   1.150   0.112   2.594  0.8894 -0.2882  0.0576
  121DMF     H3 1448   1.067   0.261   2.568 -1.1672 -3.0483  1.7436
  121DMF     H4 1449   0.966   0.235   2.229  2.1154 -0.2613 -3.1653
  121DMF     H5 1450   1.122   0.307   2.236  0.2430  0.4405  1.1920
  121DMF     H6 1451   0.992   0.348   2.360  2.1117  0.1382  1.6208
  121DMF     H7 1452   1.025   0.007   2.255  0.6451 -0.4747 -0.9543
  122DMF     C1 1453   1.638   1.507   0.135 -0.4913  0.2547 -0.1464
  122DMF     N1 1454   1.657   1.396   0.048  0.0148  0.4703 -0.2807
  122DMF     C2 1455   1.729   1.276   0.106 -0.2219 -0.3801  0.6130
  122DMF     C3 1456   1.591   1.382  -0.075 -0.2534 -0.0235  0.1648
  122DMF     O1 1457   1.515   1.465  -0.123  0.3109 -0.0398  0.1618
  122DMF     H1 1458   1.541   1.552   0.112  0.0448  1.8638  0.6462
  122DMF     H2 1459   1.725   1.575   0.140  1.6136 -2.1044 -2.8832
  122DMF     H3 1460   1.629   1.461   0.234  2.0503 -0.6995 -0.3224
  122DMF     H4 1461   1.720   1.277   0.215  1.6189 -1.5048  0.7832
  122DMF     H5 1462   1.833   1.264   0.075  0.2986 -0.5786  2.4126
  122DMF     H6 1463   1.673   1.189   0.070  0.7514 -0.2303 -1.3536
  122DMF     H7 1464   1.631   1.295  -0.130 -1.1044  0.7101 -1.6307
  123DMF     C1 1465   0.044   2.219   0.772 -0.1015  0.1952  0.0040
  123DMF     N1 1466   0.067   2.100   0.864  0.5819  0.6822  0.2283
  123DMF     C2 1467   0.095   2.130   1.008  0.3489  0.1239  0.2574
  123DMF     C3 1468   0.027   1.967   0.832  0.2388  0.4278 -0.7299
  123DMF     O1 1469   0.002   1.939   0.718 -0.1322 -0.3365 -0.2080
  123DMF     H1 1470  -0.014   2.194   0.683  0.5420  0.0110 -0.3669
  123DMF     H2 1471   0.145   2.244   0.736 -0.0465  0.0570  0.0585
  123DMF     H3 1472   0.006   2.302   0.833 -1.2987 -0.4122  0.0979
  123DMF     H4 1473   0.057   2.230   1.028  1.1830 -0.0295  2.8487
  123DMF     H5 1474   0.194   2.111   1.051  0.6438 -0.6926 -0.7484
  123DMF     H6 1475   0.023   2.072   1.067 -0.5475  0.4133 -0.5411
  123DMF     H7 1476   0.003   1.906   0.921  0.1163  0.8633 -0.4644
  124DMF     C1 1477   0.267   1.599   2.400 -0.0740 -0.1160 -0.2512
  124DMF     N1 1478   0.362   1.491   2.353 -0.0293 -0.3775  0.0341
  124DMF     C2 1479   0.451   1.520   2.234 -0.5838  0.5413  0.1690
  124DMF     C3 1480   0.358   1.357   2.407  0.7162  0.2970 -0.3868
  124DMF     O1 1481   0.289   1.335   2.501 -0.3489  0.5007 -0.5359
  124DMF     H1 1482   0.171   1.574   2.352  0.9703  1.5072 -3.3341
  124DMF     H2 1483   0.314   1.695   2.378 -1.5835  0.3901 -1.3965
  124DMF     H3 1484   0.262   1.587   2.509  2.8150  1.6215  0.1053
  124DMF     H4 1485   0.392   1.491   2.147 -1.5695  1.3787  0.5517
  124DMF     H5 1486   0.541   1.457   2.236 -0.0710  1.2630  0.6542
  124DMF     H6 1487   0.476   1.627   2.242  0.5845  0.3753 -1.0965
  124DMF     H7 1488   0.425   1.286   2.355 -1.0994 -1.7024 -0.0654
  125DMF     C1 1489   0.520   1.184   1.350  0.4031 -0.1780  0.8727
  125DMF     N1 1490   0.432   1.192   1.231 -0.6158  0.0289  0.8330
  125DMF     C2 1491   0.424   1.070   1.143 -0.2299  0.1309  0.1928
  125DMF     C3 1492   0.368   1.309   1.192  0.7473 -0.8218  0.3802
  125DMF     O1 1493   0.391   1.417   1.247  0.4883  0.1584 -0.0618
  125DMF     H1 1494   0.504   1.088   1.399  0.7970 -0.4507  0.4724
  125DMF     H2 1495   0.481   1.262   1.417 -0.8728  0.1279 -0.2058
  125DMF     H3 1496   0.625   1.200   1.321  0.4470 -1.9751 -0.0405
  125DMF     H4 1497   0.511   1.008   1.168 -0.4825  0.6055  2.3628
  125DMF     H5 1498   0.424   1.097   1.036  0.0515  1.8475  0.6017
  125DMF     H6 1499   0.335   1.010   1.163  1.1056 -1.2938  2.0061
  125DMF     H7 1500   0.304   1.298   1.103  1.9066 -0.1356 -0.5558
   2.66678   2.66678   2.66678
