DMF comparator n0
 1500
    1DMF     C1    1   1.151   0.593   0.471  0.0765 -0.1511  0.5790
    1DMF     N1    2   1.253   0.632   0.579 -0.2314 -0.2672  0.2451
    1DMF     C2    3   1.237   0.573   0.714 -0.4656  0.0204  0.4408
    1DMF     C3    4   1.352   0.735   0.542 -0.3478  0.2690  0.0533
    1DMF     O1    5   1.369   0.780   0.428 -0.0672  0.0973 -0.5525
    1DMF     H1    6   1.124   0.487   0.481 -0.0417 -0.1089  0.7250
    1DMF     H2    7   1.183   0.607   0.367 -1.4703 -0.0114  0.1085
    1DMF     H3    8   1.059   0.652   0.485 -0.3696 -0.8778  0.7878
    1DMF     H4    9   1.150   0.508   0.729 -2.4701  2.7832  1.2725
    1DMF     H5   10   1.221   0.656   0.785  3.0731  1.2601 -0.1132
    1DMF     H6   11   1.333   0.520   0.716  0.8587  1.9672 -4.2129
    1DMF     H7   12   1.403   0.775   0.631  0.1924  1.6413 -0.8713
    2DMF     C1   13   0.109   2.083   2.436  0.3250  0.1333 -0.6781
    2DMF     N1   14  -0.034   2.102   2.453 -0.2913  0.8665 -0.1049
    2DMF     C2   15  -0.092   2.092   2.584 -0.7651  0.0200 -0.4519
    2DMF     C3   16  -0.111   2.182   2.361  0.5113 -0.3261 -0.4531
    2DMF     O1   17  -0.066   2.219   2.253  0.1383 -0.1260  0.1188
    2DMF     H1   18   0.159   2.159   2.499  1.1072 -1.9433  1.2609
    2DMF     H2   19   0.149   2.090   2.335  0.3346  0.1168 -0.6751
    2DMF     H3   20   0.142   1.985   2.472  0.3476 -0.3724 -2.0711
    2DMF     H4   21  -0.187   2.036   2.580  0.0228 -1.3262 -0.7789
    2DMF     H5   22  -0.128   2.189   2.618 -3.1508 -1.2633  0.8264
    2DMF     H6   23  -0.029   2.046   2.661 -4.5232 -4.1856  0.3208
    2DMF     H7   24  -0.212   2.204   2.400  0.2692  1.1436 -1.8937
    3DMF     C1   25   2.424   0.955   2.186 -0.0115  0.3004  0.3836
    3DMF     N1   26   2.558   0.944   2.156 -0.6055 -0.0314 -0.3270
    3DMF     C2   27   2.661   0.984   2.254  0.2057 -0.1117  0.0978
    3DMF     C3   28   2.603   0.876   2.035 -0.5303 -0.6843 -0.2179
    3DMF     O1   29   2.529   0.840   1.948 -0.3440 -0.4185  0.0581
    3DMF     H1   30   2.365   1.013   2.113  0.5022 -0.5720 -0.7199
    3DMF     H2   31   2.411   1.021   2.273 -0.6731 -1.0676  1.3301
    3DMF     H3   32   2.385   0.857   2.215  2.5086 -1.1438 -0.9247
    3DMF     H4   33   2.611   1.004   2.350 -0.2783  1.3743 -0.4544
    3DMF     H5   34   2.725   1.062   2.212  1.2889 -1.3807 -0.6335
    3DMF     H6   35   2.723   0.902   2.291  0.3410  1.1368  2.7585
    3DMF     H7   36   2.712   0.860   2.035 -0.2571  1.0602 -1.0723
    4DMF     C1   37   1.559   2.287   1.101 -0.7176  0.0464 -0.4024
    4DMF     N1   38   1.684   2.256   1.173  0.3775 -0.1202 -0.2986
    4DMF     C2   39   1.809   2.296   1.107  0.1538 -0.1512 -0.1587
    4DMF     C3   40   1.687   2.215   1.308 -0.4565  0.2310 -0.1631
    4DMF     O1   41   1.587   2.197   1.374 -0.1258  0.4654  0.3847
    4DMF     H1   42   1.556   2.225   1.011 -0.7868 -0.2420 -0.2038
    4DMF     H2   43   1.561   2.393   1.075  1.1719  0.9022  2.8693
    4DMF     H3   44   1.471   2.255   1.159  0.7824  0.7131  2.3612
    4DMF     H4   45   1.792   2.330   1.004 -1.3039  1.5091  0.6171
    4DMF     H5   46   1.881   2.213   1.101 -1.7089 -1.9178  1.1747
    4DMF     H6   47   1.848   2.374   1.173 -0.3174  0.7149 -0.9026
    4DMF     H7   48   1.786   2.224   1.357  0.5335 -2.9777 -1.4230
    5DMF     C1   49   1.964   1.818   2.213  1.0012 -0.1254  0.0220
    5DMF     N1   50   1.925   1.959   2.215  0.4530  0.8706 -0.5079
    5DMF     C2   51   1.791   1.995   2.158  0.1054  0.7118 -0.0487
    5DMF     C3   52   2.005   2.047   2.277  0.5749  0.2402  0.1550
    5DMF     O1   53   2.119   2.020   2.307  0.3132 -0.1532  0.0301
    5DMF     H1   54   1.978   1.781   2.315 -1.3386 -0.5193  0.2362
    5DMF     H2   55   2.053   1.817   2.148  0.4178 -1.8717 -0.8023
    5DMF     H3   56   1.882   1.760   2.168 -0.0925  1.2691  0.2078
    5DMF     H4   57   1.782   1.957   2.055  1.3407  2.2499 -0.7496
    5DMF     H5   58   1.778   2.103   2.156 -5.0654  0.2306 -1.1286
    5DMF     H6   59   1.703   1.955   2.211  0.3178 -0.3854 -0.4929
    5DMF     H7   60   1.959   2.148   2.286 -0.0156 -0.0928  0.9354
    6DMF     C1   61   1.877   0.399   0.759 -0.1299 -0.7196  0.0807
    6DMF     N1   62   1.785   0.376   0.871  0.3213  0.5110 -0.1758
    6DMF     C2   63   1.832   0.401   1.006  0.2770  0.0739  0.3893
    6DMF     C3   64   1.651   0.348   0.858 -0.0270  0.3803 -0.2634
    6DMF     O1   65   1.596   0.349   0.751 -0.0474  0.3013 -0.2730
    6DMF     H1   66   1.952   0.318   0.754 -2.4817 -3.0713  1.5602
    6DMF     H2   67   1.920   0.499   0.766  2.3313 -1.6863 -0.4133
    6DMF     H3   68   1.810   0.407   0.672 -1.0673 -0.0307  0.8565
    6DMF     H4   69   1.784   0.487   1.055  1.0176  0.2158  0.8801
    6DMF     H5   70   1.933   0.443   1.000 -0.3082  1.4175 -0.2466
    6DMF     H6   71   1.831   0.311   1.069 -0.1657  0.9795  1.7142
    6DMF     H7   72   1.594   0.341   0.952 -0.6244 -2.7039 -0.7786
    7DMF     C1   73   1.738   1.537   2.318 -0.4520  0.2837  0.4307
    7DMF     N1   74   1.683   1.406   2.348 -0.2360 -0.7538 -0.1083
    7DMF     C2   75   1.690   1.300   2.243  0.1589 -0.3706  0.2957
    7DMF     C3   76   1.639   1.365   2.477  0.1384  0.4345 -0.0508
    7DMF     O1   77   1.630   1.446   2.571 -0.0937 -0.1856 -0.1609
    7DMF     H1   78   1.843   1.522   2.288 -0.7235  0.2601 -0.5366
    7DMF     H2   79   1.741   1.596   2.410 -0.0354 -1.0265  1.2760
    7DMF     H3   80   1.688   1.587   2.234  0.5946 -0.7793 -0.8575
    7DMF     H4   81   1.753   1.216   2.275  0.6328  0.9270  2.8909
    7DMF     H5   82   1.720   1.354   2.153  0.0605 -1.3629 -0.3398
    7DMF     H6   83   1.592   1.252   2.227  0.1391  0.2898 -1.6440
    7DMF     H7   84   1.623   1.256   2.474 -1.0778  0.6084 -0.1440
    8DMF     C1   85   1.022   0.863   1.002  0.1706 -0.0249  0.8641
    8DMF     N1   86   0.897   0.796   1.027  0.0981  0.3380 -0.7524
    8DMF     C2   87   0.823   0.825   1.160  0.5306  0.8927 -0.0718
    8DMF     C3   88   0.827   0.723   0.936 -0.1374  0.0267  0.3325
    8DMF     O1   89   0.869   0.703   0.819  0.0196 -0.2585  0.3044
    8DMF     H1   90   1.092   0.859   1.086  1.0393  0.0400  0.1404
    8DMF     H2   91   0.995   0.969   0.991  1.3655  0.1382 -0.6283
    8DMF     H3   92   1.063   0.833   0.905  1.3316  1.4071  0.9000
    8DMF     H4   93   0.882   0.896   1.221 -0.1771  0.4979  1.0849
    8DMF     H5   94   0.820   0.743   1.232 -2.4699  1.4478  0.5022
    8DMF     H6   95   0.718   0.855   1.153  0.0771 -0.5332  0.5384
    8DMF     H7   96   0.739   0.670   0.977 -0.4598  0.1171 -0.2378
    9DMF     C1   97   1.232   2.455   0.600  0.7127 -0.0029  0.4410
    9DMF     N1   98   1.235   2.312   0.564  0.0139  0.1263 -0.2309
    9DMF     C2   99   1.182   2.273   0.434 -0.0904 -0.3265  0.6828
    9DMF     C3  100   1.291   2.219   0.652 -0.4819 -0.1866  0.1154
    9DMF     O1  101   1.336   2.255   0.761 -0.4808  0.1250 -0.1333
    9DMF     H1  102   1.330   2.498   0.575  0.7751 -0.9708 -0.9971
    9DMF     H2  103   1.218   2.472   0.708 -2.4258 -1.1771  0.2610
    9DMF     H3  104   1.151   2.509   0.549  2.2309  1.8672 -0.0553
    9DMF     H4  105   1.087   2.223   0.460 -0.7423  0.8117  0.4943
    9DMF     H5  106   1.256   2.213   0.380 -0.4845  0.4929 -0.7877
    9DMF     H6  107   1.158   2.361   0.374  0.0002 -1.9627 -1.8264
    9DMF     H7  108   1.303   2.112   0.625 -0.7821 -0.8993  2.6645
   10DMF     C1  109   1.196   1.601   0.511 -0.4874  0.0361 -0.4630
   10DMF     N1  110   1.183   1.499   0.611 -0.0274  0.7684  0.4299
   10DMF     C2  111   1.312   1.436   0.661  0.2180 -0.3778  0.3237
   10DMF     C3  112   1.059   1.452   0.645  0.1250 -0.1186  0.3622
   10DMF     O1  113   0.952   1.503   0.606 -0.2649  0.2152  0.1011
   10DMF     H1  114   1.207   1.567   0.407  0.2301  0.8303 -0.6569
   10DMF     H2  115   1.265   1.678   0.548 -1.9612  0.0051  2.4371
   10DMF     H3  116   1.104   1.661   0.511 -0.3170  0.3068 -0.7616
   10DMF     H4  117   1.361   1.389   0.574 -0.2944  1.1816 -0.8437
   10DMF     H5  118   1.294   1.356   0.734  1.0328 -1.1527 -0.2967
   10DMF     H6  119   1.384   1.507   0.704  1.5128 -1.4209 -0.0819
   10DMF     H7  120   1.060   1.360   0.707 -3.2773 -0.9501 -0.7157
   11DMF     C1  121   2.451   1.606   0.562 -0.6178 -0.3074  0.5199
   11DMF     N1  122   2.362   1.719   0.554 -0.6289 -0.4407 -0.5221
   11DMF     C2  123   2.414   1.857   0.573 -0.1124  0.1902 -0.3001
   11DMF     C3  124   2.228   1.706   0.509  0.1039 -0.0411  0.1952
   11DMF     O1  125   2.176   1.599   0.498 -0.0510  0.6505 -0.1704
   11DMF     H1  126   2.535   1.638   0.624 -0.5445  0.0321  0.2458
   11DMF     H2  127   2.488   1.587   0.460 -0.0202  1.2214  0.4538
   11DMF     H3  128   2.408   1.514   0.603  2.8422 -2.9109 -1.4000
   11DMF     H4  129   2.333   1.926   0.599  0.0135 -0.0308  0.6836
   11DMF     H5  130   2.461   1.885   0.477  1.0824  0.0095  0.2236
   11DMF     H6  131   2.492   1.852   0.650  0.4065 -3.5665 -0.9401
   11DMF     H7  132   2.176   1.800   0.482 -0.4509  0.3305  2.4526
   12DMF     C1  133   1.391   0.845   2.284  0.1555  0.1326 -0.4111
   12DMF     N1  134   1.277   0.832   2.198 -0.4961 -0.7008  0.5296
   12DMF     C2  135   1.237   0.955   2.130  0.0882  0.3014 -0.0284
   12DMF     C3  136   1.189   0.727   2.202 -0.7494 -0.6226  0.1309
   12DMF     O1  137   1.197   0.630   2.280 -0.0058  0.0105  0.1569
   12DMF     H1  138   1.451   0.753   2.281  1.3902  0.9539 -1.8332
   12DMF     H2  139   1.355   0.858   2.386  0.8403  0.1368 -0.1638
   12DMF     H3  140   1.448   0.937   2.269  0.3900 -0.1569 -1.3851
   12DMF     H4  141   1.137   0.984   2.167  0.1710 -0.1757  0.5768
   12DMF     H5  142   1.241   0.936   2.022 -2.1012 -2.7707  0.3779
   12DMF     H6  143   1.302   1.041   2.150  0.2744 -0.1976  1.5270
   12DMF     H7  144   1.114   0.748   2.125 -1.4622  0.5624  1.1418
   13DMF     C1  145   1.787   1.433   0.584  0.0364  0.0511 -0.0915
   13DMF     N1  146   1.705   1.422   0.460 -0.1884  0.0886 -0.3912
   13DMF     C2  147   1.719   1.297   0.384  0.1592 -0.1648  0.1875
   13DMF     C3  148   1.604   1.516   0.428  0.2891  0.0802 -0.0545
   13DMF     O1  149   1.597   1.617   0.497  0.2752 -0.2169 -0.3631
   13DMF     H1  150   1.894   1.455   0.570  0.0485  1.6193  2.1143
   13DMF     H2  151   1.785   1.333   0.631  1.2850 -0.4945 -1.1630
   13DMF     H3  152   1.750   1.503   0.660 -0.7570  0.1801 -0.5928
   13DMF     H4  153   1.820   1.258   0.403 -0.3425 -1.8638 -0.5857
   13DMF     H5  154   1.704   1.328   0.280 -2.1061 -1.9365 -0.0412
   13DMF     H6  155   1.641   1.225   0.413  1.7471 -1.1519  2.2184
   13DMF     H7  156   1.533   1.490   0.347 -2.3541  0.6124  2.0059
   14DMF     C1  157   0.148   2.272   0.283  0.0881  0.3708  0.2811
   14DMF     N1  158   0.177   2.393   0.369  0.0818 -0.6426 -0.5671
   14DMF     C2  159   0.085   2.402   0.488  0.3900  0.6339  0.4720
   14DMF     C3  160   0.247   2.504   0.322 -0.0882  0.0260 -0.7355
   14DMF     O1  161   0.316   2.504   0.216 -0.0153  0.0725  0.1999
   14DMF     H1  162   0.093   2.307   0.195  0.4653  1.3608  0.4384
   14DMF     H2  163   0.099   2.193   0.341  1.5122 -2.2242 -1.9054
   14DMF     H3  164   0.247   2.228   0.264  0.1062  0.9154 -0.9342
   14DMF     H4  165   0.097   2.310   0.546  0.9035  1.8733  2.3996
   14DMF     H5  166  -0.014   2.417   0.444  0.8738  0.7773 -0.5668
   14DMF     H6  167   0.108   2.486   0.555  0.6689 -1.5466  3.2295
   14DMF     H7  168   0.238   2.587   0.395  0.7003  0.7924 -1.5007
   15DMF     C1  169   0.597   0.016   0.056 -0.3243  0.2800 -1.3370
   15DMF     N1  170   0.672   0.052  -0.063 -0.8535  0.7287  0.8964
   15DMF     C2  171   0.703  -0.052  -0.151  0.8117 -0.5002  0.3429
   15DMF     C3  172   0.718   0.179  -0.091  0.2842 -0.4389 -0.2109
   15DMF     O1  173   0.684   0.277  -0.029 -0.2868  0.0589 -0.2534
   15DMF     H1  174   0.565  -0.089   0.057 -1.0398  0.5055 -0.4633
   15DMF     H2  175   0.507   0.078   0.061  0.5215  1.4423 -0.4867
   15DMF     H3  176   0.649   0.039   0.149  0.6918  0.6138 -1.9804
   15DMF     H4  177   0.616  -0.101  -0.195  0.9179 -1.4916  1.2037
   15DMF     H5  178   0.754  -0.135  -0.100 -2.3738 -3.0134 -0.3763
   15DMF     H6  179   0.772  -0.028  -0.233  0.6458  1.0710  0.6522
   15DMF     H7  180   0.798   0.171  -0.167  1.0670 -3.6305  0.8668
   16DMF     C1  181   0.657   2.265   1.429 -0.1005 -0.2524  0.8881
   16DMF     N1  182   0.593   2.402   1.418  0.0288 -0.2472  0.0941
   16DMF     C2  183   0.603   2.481   1.543 -0.2412 -0.5908  0.1227
   16DMF     C3  184   0.510   2.439   1.309  0.2646  0.3121 -0.1941
   16DMF     O1  185   0.485   2.360   1.221 -0.3377  0.2455 -0.7938
   16DMF     H1  186   0.613   2.218   1.518 -0.7521  0.5274  0.9788
   16DMF     H2  187   0.767   2.267   1.439  0.0017 -2.2976  0.4053
   16DMF     H3  188   0.636   2.208   1.338  1.5716 -1.5830  1.3015
   16DMF     H4  189   0.593   2.588   1.518  2.6661 -0.2306  0.3093
   16DMF     H5  190   0.696   2.458   1.596 -0.7257 -1.7739  0.4744
   16DMF     H6  191   0.528   2.453   1.618 -0.0375  0.2451  0.6554
   16DMF     H7  192   0.466   2.540   1.322  0.5575  0.5428 -0.9953
   17DMF     C1  193   0.540   0.944   0.819  0.5468 -0.4432 -0.8951
   17DMF     N1  194   0.546   0.867   0.690 -0.1948  0.0889 -0.0912
   17DMF     C2  195   0.551   0.720   0.691  0.2125 -0.7271  0.2724
   17DMF     C3  196   0.535   0.934   0.569 -0.1209 -0.8016 -0.2044
   17DMF     O1  197   0.508   1.052   0.568 -0.1942  0.3440 -0.5671
   17DMF     H1  198   0.442   0.993   0.812  0.1643 -1.1492 -0.5625
   17DMF     H2  199   0.627   1.011   0.820  0.2078 -0.0227  0.6629
   17DMF     H3  200   0.538   0.869   0.899  2.2052  0.6113  0.1512
   17DMF     H4  201   0.473   0.674   0.628  0.7360  1.6504 -2.2082
   17DMF     H5  202   0.515   0.684   0.788 -0.2980  2.3256  1.2445
   17DMF     H6  203   0.648   0.673   0.670  0.4698 -0.6991  1.3560
   17DMF     H7  204   0.536   0.868   0.480 -2.6065 -0.8835 -0.2167
   18DMF     C1  205   2.237   1.352   2.317 -0.6134  0.0404 -0.0648
   18DMF     N1  206   2.193   1.360   2.177  1.0324  0.4424  0.2126
   18DMF     C2  207   2.144   1.228   2.119 -0.4032 -0.1141 -0.2226
   18DMF     C3  208   2.200   1.480   2.106 -0.1236 -0.4366 -0.0434
   18DMF     O1  209   2.222   1.584   2.168  0.3769 -0.0819  0.3589
   18DMF     H1  210   2.248   1.456   2.348 -2.7497  1.4405 -3.6834
   18DMF     H2  211   2.340   1.314   2.311 -0.0660  1.6505 -1.1241
   18DMF     H3  212   2.174   1.300   2.390  0.7266 -1.5248  0.0132
   18DMF     H4  213   2.200   1.152   2.174  1.0102  3.2320  3.1819
   18DMF     H5  214   2.159   1.235   2.010 -0.8754  1.4579 -0.2037
   18DMF     H6  215   2.037   1.210   2.136 -0.3880 -0.6267 -0.6485
   18DMF     H7  216   2.199   1.466   1.996 -0.0110  0.5772 -0.1771
   19DMF     C1  217   1.555   1.746   1.719  0.2041  0.5324  0.2460
   19DMF     N1  218   1.430   1.662   1.732 -1.0242 -0.0153 -0.5813
   19DMF     C2  219   1.447   1.540   1.816  0.0842  0.2584  0.2338
   19DMF     C3  220   1.304   1.687   1.672 -0.5712 -0.2957  1.0541
   19DMF     O1  221   1.304   1.775   1.592  0.3657  0.2333  0.2787
   19DMF     H1  222   1.598   1.779   1.815  4.1599  0.6454 -1.4694
   19DMF     H2  223   1.522   1.842   1.678  2.8566  1.1366 -0.6054
   19DMF     H3  224   1.627   1.693   1.656 -0.2261  0.2876 -0.0392
   19DMF     H4  225   1.504   1.466   1.758 -0.5594  0.0552 -0.1422
   19DMF     H5  226   1.352   1.495   1.847 -0.2285 -0.7636 -2.0724
   19DMF     H6  227   1.511   1.571   1.900  0.3502  0.0036  0.1248
   19DMF     H7  228   1.216   1.625   1.699  0.4714 -2.7129 -0.8155
   20DMF     C1  229   0.951   1.560   1.485 -0.7192 -0.1040  0.2202
   20DMF     N1  230   0.879   1.468   1.586 -0.3652  0.9732  0.3686
   20DMF     C2  231   0.974   1.407   1.686 -0.0614  0.6152  0.3122
   20DMF     C3  232   0.741   1.436   1.580  0.0328 -0.7484 -0.1358
   20DMF     O1  233   0.659   1.488   1.507 -0.3931  0.5370  0.4202
   20DMF     H1  234   0.884   1.592   1.404  0.4965  1.6096 -0.1359
   20DMF     H2  235   1.031   1.507   1.430 -0.5270  1.4101 -0.9866
   20DMF     H3  236   0.980   1.653   1.535 -0.9169 -1.2944  2.6042
   20DMF     H4  237   1.001   1.312   1.639 -0.8207  0.1941  0.7079
   20DMF     H5  238   0.922   1.387   1.781 -1.0312  1.2049 -0.0881
   20DMF     H6  239   1.057   1.468   1.723 -0.9816  1.1298  1.5865
   20DMF     H7  240   0.723   1.359   1.657  1.4495 -1.4680 -0.4892
   21DMF     C1  241   1.552   2.463   2.106  0.0222  0.7124  0.3211
   21DMF     N1  242   1.655   2.523   2.187  0.2489  0.1831 -0.7407
   21DMF     C2  243   1.629   2.664   2.214 -0.2074  0.5670 -0.5258
   21DMF     C3  244   1.732   2.452   2.273  0.1857  0.4384 -1.2015
   21DMF     O1  245   1.764   2.336   2.250  0.2271 -0.1535 -0.1139
   21DMF     H1  246   1.467   2.437   2.171  0.9409  1.6538  1.9328
   21DMF     H2  247   1.587   2.370   2.060 -3.0323 -1.7235  2.7701
   21DMF     H3  248   1.522   2.535   2.028 -1.3218  1.6694  1.6749
   21DMF     H4  249   1.671   2.712   2.125 -2.3053 -0.6122 -2.2016
   21DMF     H5  250   1.687   2.692   2.303  1.2799  0.8311 -1.5775
   21DMF     H6  251   1.524   2.695   2.225  0.2584  1.8002  0.7614
   21DMF     H7  252   1.771   2.509   2.360 -0.8050  1.4339 -1.4043
   22DMF     C1  253   1.918   1.548   1.867 -0.6852 -0.0394  1.5032
   22DMF     N1  254   1.993   1.439   1.786 -0.0353 -0.2178 -0.0549
   22DMF     C2  255   2.127   1.482   1.736 -0.0906 -0.1690  0.0945
   22DMF     C3  256   1.952   1.312   1.787 -0.4257  0.8990  0.4109
   22DMF     O1  257   1.857   1.268   1.854  0.2043 -0.7316  0.4708
   22DMF     H1  258   1.919   1.512   1.970 -2.3491 -0.9481  1.2123
   22DMF     H2  259   1.810   1.546   1.851 -0.2860  0.9633 -1.6713
   22DMF     H3  260   1.962   1.647   1.845 -1.8729  0.0788 -0.4424
   22DMF     H4  261   2.204   1.416   1.780  0.8203  0.4087 -0.6132
   22DMF     H5  262   2.150   1.586   1.761 -0.3719 -0.0434 -0.1758
   22DMF     H6  263   2.144   1.481   1.628  1.3388 -2.6584  0.2951
   22DMF     H7  264   2.008   1.243   1.720  1.6456 -0.6096  3.5775
   23DMF     C1  265   0.034   0.057   2.179  0.2160  0.4829  0.1615
   23DMF     N1  266  -0.111   0.047   2.144  0.0131  0.1669 -0.3120
   23DMF     C2  267  -0.156  -0.007   2.014 -0.2632  0.4009 -0.0813
   23DMF     C3  268  -0.210   0.103   2.232 -0.1685  0.6413 -0.8201
   23DMF     O1  269  -0.169   0.161   2.333  0.1175 -0.0978 -0.4148
   23DMF     H1  270   0.065  -0.005   2.263  0.5826 -1.7579 -1.5786
   23DMF     H2  271   0.053   0.162   2.205  0.1359 -0.2938  3.5474
   23DMF     H3  272   0.099   0.039   2.092  0.0031  4.1695 -0.8804
   23DMF     H4  273  -0.264   0.007   2.007 -0.3818  0.9998  2.3705
   23DMF     H5  274  -0.125  -0.108   1.985  0.3474  0.8598 -1.0687
   23DMF     H6  275  -0.115   0.051   1.930 -0.0198  0.9122  0.3841
   23DMF     H7  276  -0.310   0.105   2.185  0.4273 -0.0137 -2.1307
   24DMF     C1  277   1.002   1.095   1.897  0.3714 -0.4753  0.5501
   24DMF     N1  278   1.105   1.194   1.915  0.2058  0.4661  0.1044
   24DMF     C2  279   1.230   1.179   1.837  0.7352 -0.5461  0.7776
   24DMF     C3  280   1.105   1.282   2.027  0.1841 -0.1364  0.2357
   24DMF     O1  281   1.022   1.286   2.110 -0.0588  0.5782 -0.3439
   24DMF     H1  282   1.018   1.020   1.974  3.1396  0.4661  0.9487
   24DMF     H2  283   1.021   1.048   1.800  0.2994  0.3315  0.1389
   24DMF     H3  284   0.898   1.130   1.903 -0.2508 -1.7580 -2.0719
   24DMF     H4  285   1.284   1.087   1.862  2.6669  0.1674 -0.6170
   24DMF     H5  286   1.298   1.264   1.856  0.3300 -0.2902  1.0865
   24DMF     H6  287   1.206   1.189   1.730  0.5904 -1.7980  0.6896
   24DMF     H7  288   1.200   1.339   2.025  0.1639 -0.0983  0.4101
   25DMF     C1  289   1.645   0.499   2.297 -0.3236 -0.4920  0.8990
   25DMF     N1  290   1.508   0.456   2.299  0.1279  0.0487 -0.1063
   25DMF     C2  291   1.439   0.450   2.430 -0.2409 -0.0584 -0.1519
   25DMF     C3  292   1.443   0.440   2.176  0.5471  0.1361 -0.7622
   25DMF     O1  293   1.493   0.451   2.065 -0.2209 -0.1276 -0.1345
   25DMF     H1  294   1.640   0.605   2.272 -1.5880 -0.9393 -0.8022
   25DMF     H2  295   1.696   0.450   2.213 -1.2388 -0.8313  0.5396
   25DMF     H3  296   1.693   0.472   2.392 -0.6288  0.4658  1.3312
   25DMF     H4  297   1.332   0.470   2.416 -0.6949 -0.7697  2.0735
   25DMF     H5  298   1.485   0.522   2.499 -0.7517 -1.8075  2.0670
   25DMF     H6  299   1.448   0.350   2.474  0.8508  0.6523  1.2823
   25DMF     H7  300   1.338   0.408   2.185  0.9184 -0.8398  0.3503
   26DMF     C1  301   0.150   1.250   0.062  0.4973 -1.2890 -0.6912
   26DMF     N1  302   0.037   1.211   0.157 -0.1706 -0.2582  0.4406
   26DMF     C2  303   0.014   1.278   0.285  0.2952  0.3706  1.4285
   26DMF     C3  304  -0.064   1.132   0.100  0.1411 -0.2546  0.0152
   26DMF     O1  305  -0.059   1.063   0.000 -0.6792  0.2202  0.1575
   26DMF     H1  306   0.117   1.235  -0.041 -1.8592  1.5712 -0.4366
   26DMF     H2  307   0.243   1.193   0.076  2.8492  2.2547 -1.2865
   26DMF     H3  308   0.159   1.359   0.059  0.3761 -1.2402  0.3950
   26DMF     H4  309  -0.093   1.270   0.310  0.3947 -0.7379  1.5422
   26DMF     H5  310   0.033   1.385   0.270  0.1385  0.2979  0.6451
   26DMF     H6  311   0.078   1.248   0.368  2.9355 -0.1786 -0.7244
   26DMF     H7  312  -0.161   1.126   0.152  0.2626  0.4767  0.3321
   27DMF     C1  313   1.465   1.055   1.590 -0.1664 -0.4353 -0.8776
   27DMF     N1  314   1.582   1.025   1.509  0.7196  0.2042  0.2290
   27DMF     C2  315   1.693   1.121   1.542 -0.7227  0.0174  0.6738
   27DMF     C3  316   1.581   0.943   1.398  0.5258  0.0730  0.1511
   27DMF     O1  317   1.494   0.865   1.367  0.1430 -0.4704 -0.1263
   27DMF     H1  318   1.397   0.971   1.606 -1.8050  1.0374  0.0301
   27DMF     H2  319   1.408   1.142   1.554  0.0693  0.3924  0.7378
   27DMF     H3  320   1.507   1.087   1.686 -0.1562  0.8267 -1.2881
   27DMF     H4  321   1.742   1.077   1.630 -0.0109  0.5598  0.5518
   27DMF     H5  322   1.656   1.222   1.563  2.3797  1.3056  0.1308
   27DMF     H6  323   1.771   1.122   1.466 -0.9605  0.0821  0.4307
   27DMF     H7  324   1.672   0.955   1.336  0.1173  1.3450 -0.2126
   28DMF     C1  325   0.179   0.899   0.779 -1.1861 -0.0001  0.1661
   28DMF     N1  326   0.088   0.795   0.731 -0.7329  0.0130 -0.2170
   28DMF     C2  327   0.125   0.739   0.606 -0.0536 -0.3223 -0.5310
   28DMF     C3  328  -0.019   0.744   0.811  0.4836 -0.7632 -0.8437
   28DMF     O1  329  -0.039   0.782   0.924  0.3636 -0.6096 -0.3096
   28DMF     H1  330   0.134   0.977   0.842  0.1800  0.6394  0.3625
   28DMF     H2  331   0.212   0.956   0.691  0.5247  1.4878  1.7543
   28DMF     H3  332   0.268   0.855   0.826  0.5165  2.6148 -0.4851
   28DMF     H4  333   0.228   0.702   0.615 -0.0239 -0.9182 -2.8514
   28DMF     H5  334   0.123   0.820   0.533 -1.1981  0.0105 -0.1507
   28DMF     H6  335   0.053   0.666   0.565 -2.2166  0.3744  1.8391
   28DMF     H7  336  -0.071   0.657   0.769  1.5901 -1.9574  0.1877
   29DMF     C1  337   0.766   0.383   1.861  0.3344  0.3858 -0.0434
   29DMF     N1  338   0.745   0.525   1.825  0.3332 -0.3401 -0.2620
   29DMF     C2  339   0.626   0.573   1.752 -0.7476 -0.8384  0.1618
   29DMF     C3  340   0.829   0.616   1.890 -0.1640 -0.3979 -0.0923
   29DMF     O1  341   0.928   0.583   1.944 -0.1892 -0.4274 -0.3183
   29DMF     H1  342   0.860   0.345   1.820 -0.2405 -1.7467  0.5688
   29DMF     H2  343   0.688   0.316   1.823  2.5300 -0.4166 -3.3379
   29DMF     H3  344   0.765   0.379   1.970 -1.1806  1.6149  0.0124
   29DMF     H4  345   0.662   0.639   1.673  1.2310 -2.0488  0.0165
   29DMF     H5  346   0.560   0.627   1.821 -0.5597  1.4102 -1.3538
   29DMF     H6  347   0.574   0.489   1.705 -1.4877 -1.0592  1.3405
   29DMF     H7  348   0.788   0.718   1.883 -0.8984 -0.7338 -0.8133
   30DMF     C1  349   2.304   1.814   1.931 -0.3378  0.9362  0.2249
   30DMF     N1  350   2.413   1.885   1.989  0.4908  0.2416 -0.0040
   30DMF     C2  351   2.393   1.950   2.119  0.1436  0.3825 -0.1511
   30DMF     C3  352   2.541   1.898   1.928 -0.2015  0.1716  0.0864
   30DMF     O1  353   2.566   1.855   1.817 -0.2428  0.3825  0.3847
   30DMF     H1  354   2.216   1.830   1.995 -0.9513 -0.7521 -0.1474
   30DMF     H2  355   2.330   1.707   1.932  0.9954  1.2552  0.0894
   30DMF     H3  356   2.283   1.850   1.830  1.0211 -1.1760 -0.8443
   30DMF     H4  357   2.386   2.058   2.100 -0.1560 -0.1895 -3.7843
   30DMF     H5  358   2.482   1.943   2.183 -0.5474  1.5962  0.9554
   30DMF     H6  359   2.308   1.909   2.175  2.3354 -2.4131  1.2484
   30DMF     H7  360   2.621   1.949   1.984  0.1627 -1.0898  0.7157
   31DMF     C1  361   1.702   2.400   1.646  0.1011  0.5431 -0.4007
   31DMF     N1  362   1.602   2.332   1.739 -0.9473  0.2618 -0.0233
   31DMF     C2  363   1.637   2.192   1.776 -0.3919 -0.1266 -0.4386
   31DMF     C3  364   1.483   2.388   1.788 -0.4513  0.1192  0.8511
   31DMF     O1  365   1.456   2.509   1.774  0.3694  0.4669  0.1670
   31DMF     H1  366   1.770   2.320   1.616 -0.0753  0.4412 -0.5245
   31DMF     H2  367   1.759   2.473   1.705  0.2471  0.3313 -0.2754
   31DMF     H3  368   1.646   2.444   1.563  1.4101  1.2536 -0.9197
   31DMF     H4  369   1.547   2.131   1.759  0.1245 -0.7584 -0.9328
   31DMF     H5  370   1.657   2.178   1.883  0.1040  0.0674 -0.5048
   31DMF     H6  371   1.723   2.151   1.722  0.7637  0.2555  1.0620
   31DMF     H7  372   1.419   2.314   1.841  0.7850 -0.4873  1.5260
   32DMF     C1  373   1.297   1.284   2.388  0.1012 -0.0717  0.0970
   32DMF     N1  374   1.347   1.422   2.369  0.3379 -0.1928 -0.8257
   32DMF     C2  375   1.332   1.525   2.478  0.2071 -0.1066  0.6044
   32DMF     C3  376   1.384   1.469   2.242 -0.1738 -0.0413 -0.1255
   32DMF     O1  377   1.379   1.395   2.145 -0.3802  0.4016 -0.3953
   32DMF     H1  378   1.294   1.250   2.492 -1.3671  1.6352  0.6426
   32DMF     H2  379   1.367   1.222   2.331  1.2412  0.7725  0.5581
   32DMF     H3  380   1.197   1.283   2.342 -0.0254  0.4264  0.3575
   32DMF     H4  381   1.403   1.609   2.466  0.2147 -0.2641 -0.4784
   32DMF     H5  382   1.337   1.483   2.580 -0.3626 -0.2616  0.5693
   32DMF     H6  383   1.236   1.577   2.472  0.1569 -0.2594  0.0852
   32DMF     H7  384   1.405   1.577   2.233 -1.2795  0.0157 -2.4173
   33DMF     C1  385   2.101   2.224   1.529  0.0283 -0.3410 -0.2545
   33DMF     N1  386   2.195   2.112   1.500  0.8987 -0.4633 -0.6205
   33DMF     C2  387   2.290   2.055   1.603 -0.0685  0.6443 -0.5503
   33DMF     C3  388   2.190   2.049   1.379  0.1027  0.3528 -0.1405
   33DMF     O1  389   2.095   2.058   1.305  0.0101  0.2598 -0.4500
   33DMF     H1  390   2.163   2.313   1.543  0.7390 -1.1403  1.8634
   33DMF     H2  391   2.044   2.212   1.622 -1.0939  1.0155 -0.7395
   33DMF     H3  392   2.029   2.251   1.450 -0.7927 -0.9686  0.2625
   33DMF     H4  393   2.247   1.973   1.662 -0.4451  2.2788  1.5123
   33DMF     H5  394   2.335   2.136   1.662  1.9442 -0.7118 -0.1996
   33DMF     H6  395   2.374   2.006   1.552 -0.6102 -0.0698 -0.7677
   33DMF     H7  396   2.267   1.971   1.365 -0.8795 -0.4528 -1.2369
   34DMF     C1  397   1.978   1.333   0.115  0.2111 -0.3567 -0.2314
   34DMF     N1  398   2.038   1.453   0.165  0.3602 -0.2484 -0.0512
   34DMF     C2  399   1.953   1.562   0.216 -0.6933  0.4902  0.1288
   34DMF     C3  400   2.174   1.460   0.189 -0.4339 -0.9324 -0.0093
   34DMF     O1  401   2.257   1.379   0.155  0.6392  0.1576  0.1545
   34DMF     H1  402   2.029   1.243   0.153  1.7058  0.5513 -0.0164
   34DMF     H2  403   1.983   1.347   0.007 -1.4828 -3.1668 -0.7272
   34DMF     H3  404   1.872   1.332   0.143  0.7313 -2.5567  1.9096
   34DMF     H4  405   1.884   1.588   0.136 -0.3016 -0.1495 -0.4197
   34DMF     H5  406   2.029   1.635   0.247 -1.4820  0.9737  0.9365
   34DMF     H6  407   1.890   1.541   0.303 -1.2471 -0.0582 -0.4016
   34DMF     H7  408   2.206   1.554   0.238  1.6796 -1.9727  0.6498
   35DMF     C1  409   1.238   1.921   0.313 -0.5030 -0.4102 -0.1713
   35DMF     N1  410   1.120   1.869   0.234 -0.5631 -0.4162 -0.3905
   35DMF     C2  411   1.136   1.762   0.133 -0.2249 -0.3092  0.6449
   35DMF     C3  412   0.994   1.929   0.246 -0.5536  0.8948 -0.0422
   35DMF     O1  413   0.978   2.028   0.316  0.3486 -0.5647 -0.0304
   35DMF     H1  414   1.202   1.932   0.415  0.6793 -0.4474  0.2604
   35DMF     H2  415   1.261   2.025   0.283 -0.4037 -0.2279  0.5307
   35DMF     H3  416   1.325   1.855   0.304 -1.5957 -1.9697  0.6691
   35DMF     H4  417   1.103   1.664   0.169 -0.3220  0.2498  2.1006
   35DMF     H5  418   1.243   1.748   0.112 -1.0180 -2.6977 -2.0769
   35DMF     H6  419   1.088   1.776   0.036 -1.5832  0.8417  1.4513
   35DMF     H7  420   0.914   1.882   0.186 -0.1741 -1.5107  1.2355
   36DMF     C1  421   1.383   0.692   1.603  0.4939 -0.1082 -0.6124
   36DMF     N1  422   1.332   0.598   1.705  0.1084 -0.0557  0.3317
   36DMF     C2  423   1.411   0.486   1.757 -0.3631  0.6378 -0.0683
   36DMF     C3  424   1.189   0.601   1.728 -0.1460 -0.3309 -0.3510
   36DMF     O1  425   1.115   0.683   1.671 -0.2301 -0.0174 -0.0438
   36DMF     H1  426   1.486   0.726   1.620  0.2117 -0.3604  1.7193
   36DMF     H2  427   1.321   0.783   1.603  0.7348  0.1092  2.1227
   36DMF     H3  428   1.375   0.648   1.503  2.8599 -0.1436 -0.8353
   36DMF     H4  429   1.370   0.443   1.849 -2.3587  0.1747 -1.1437
   36DMF     H5  430   1.507   0.522   1.794 -0.1001  1.4374 -1.4913
   36DMF     H6  431   1.420   0.410   1.678 -0.8205 -0.2736  0.7380
   36DMF     H7  432   1.161   0.517   1.794  1.1101  1.8355  3.0478
   37DMF     C1  433   1.030   2.052   1.990  0.8962 -0.1581 -0.3906
   37DMF     N1  434   1.097   2.105   2.105 -0.6472 -0.2657  0.1850
   37DMF     C2  435   1.024   2.103   2.233 -0.0640 -0.3081 -0.2115
   37DMF     C3  436   1.216   2.184   2.097  0.0689  0.1122 -0.5806
   37DMF     O1  437   1.273   2.213   1.994  0.7134 -0.0460  0.0651
   37DMF     H1  438   1.053   2.101   1.895 -0.8221 -1.4823 -1.5193
   37DMF     H2  439   0.922   2.054   2.012  1.3769 -2.1619  2.3499
   37DMF     H3  440   1.061   1.947   1.981 -0.0422 -0.3355 -1.6310
   37DMF     H4  441   0.984   2.202   2.257  0.1598 -0.4329  0.7328
   37DMF     H5  442   1.080   2.058   2.317 -0.7150 -3.0324 -1.1701
   37DMF     H6  443   0.935   2.045   2.209  0.6985 -2.0901  1.0857
   37DMF     H7  444   1.258   2.203   2.198 -2.3317 -0.0882  0.4880
   38DMF     C1  445   2.049   0.117   1.054  0.3719 -0.3797 -0.3572
   38DMF     N1  446   2.143   0.020   1.111 -0.8863 -0.4086 -0.0653
   38DMF     C2  447   2.249  -0.021   1.024  0.4784  0.2192  0.1022
   38DMF     C3  448   2.115  -0.046   1.233 -0.5224 -0.8843  0.0196
   38DMF     O1  449   2.028  -0.011   1.309 -0.0917  0.3375  0.2162
   38DMF     H1  450   2.064   0.128   0.946 -2.2140  1.2481 -0.5923
   38DMF     H2  451   2.056   0.220   1.092 -1.8621  0.1840 -1.3952
   38DMF     H3  452   1.950   0.073   1.068 -0.1096  0.9198  0.4109
   38DMF     H4  453   2.319   0.063   1.020 -0.0132  0.6864  1.0709
   38DMF     H5  454   2.213  -0.050   0.925  1.7072 -0.8491 -0.0461
   38DMF     H6  455   2.296  -0.105   1.076 -1.4095 -0.0716  1.3979
   38DMF     H7  456   2.187  -0.127   1.253 -0.9311 -1.6002 -1.3192
   39DMF     C1  457   0.419   1.375   0.353 -0.1780 -0.4501 -0.5457
   39DMF     N1  458   0.571   1.350   0.341 -0.2989  0.0413  0.0277
   39DMF     C2  459   0.645   1.409   0.445  0.8980 -0.4423 -0.1155
   39DMF     C3  460   0.620   1.257   0.258 -0.4204 -0.2815  0.0308
   39DMF     O1  461   0.558   1.194   0.183  0.3619 -0.2582 -0.3701
   39DMF     H1  462   0.371   1.343   0.259 -0.5752 -0.7318 -0.2483
   39DMF     H2  463   0.389   1.479   0.367  0.5980 -0.1522 -1.0526
   39DMF     H3  464   0.380   1.299   0.422 -0.4558  0.4032  0.2306
   39DMF     H4  465   0.584   1.488   0.489  0.3401  0.0745 -1.7701
   39DMF     H5  466   0.743   1.444   0.410 -0.1823  1.7402 -1.0308
   39DMF     H6  467   0.656   1.336   0.526  1.6754 -1.5029 -1.1501
   39DMF     H7  468   0.729   1.240   0.267 -0.4901 -0.1535  1.2516
   40DMF     C1  469   0.087   1.284   0.712  0.3276  0.3372  0.0708
   40DMF     N1  470  -0.014   1.180   0.762 -0.0406  0.3203 -0.1162
   40DMF     C2  471  -0.041   1.174   0.905 -0.4117 -0.2458 -0.5204
   40DMF     C3  472  -0.085   1.092   0.676  0.5678  0.0259  0.2680
   40DMF     O1  473  -0.063   1.071   0.555  0.0835  0.3974  0.2479
   40DMF     H1  474   0.042   1.384   0.714  1.4123  0.8310  0.2012
   40DMF     H2  475   0.129   1.257   0.614  1.2216  1.4413  0.1379
   40DMF     H3  476   0.171   1.289   0.782  0.8231  1.1454 -0.5728
   40DMF     H4  477  -0.059   1.068   0.926 -0.4208 -0.1833 -0.2066
   40DMF     H5  478  -0.135   1.224   0.931 -1.5249 -1.3161 -2.3888
   40DMF     H6  479   0.046   1.201   0.966 -0.2238 -0.4432 -0.6983
   40DMF     H7  480  -0.173   1.045   0.724 -0.3483  0.9849 -0.4599
   41DMF     C1  481   1.657   0.683   0.773 -0.4645  0.2879 -0.2783
   41DMF     N1  482   1.715   0.807   0.823  0.4253 -0.2601  0.0786
   41DMF     C2  483   1.813   0.799   0.942  0.0929 -0.6390  1.0133
   41DMF     C3  484   1.708   0.927   0.739  0.2825 -0.6754 -0.0607
   41DMF     O1  485   1.656   0.927   0.630 -0.2850  0.8991 -1.2233
   41DMF     H1  486   1.721   0.648   0.691  1.0897 -1.1207  1.5020
   41DMF     H2  487   1.552   0.693   0.740 -0.7045 -2.0291 -0.3123
   41DMF     H3  488   1.658   0.612   0.857 -0.7361  1.5438  0.8004
   41DMF     H4  489   1.870   0.891   0.957 -3.4981  1.5837  1.5945
   41DMF     H5  490   1.890   0.725   0.920 -0.4857 -0.9941  0.1389
   41DMF     H6  491   1.759   0.778   1.036 -0.8641 -1.6567  0.2531
   41DMF     H7  492   1.754   1.018   0.782  2.1864 -1.2684 -0.8131
   42DMF     C1  493   1.560   1.064   1.044  0.2312 -0.3853  0.6488
   42DMF     N1  494   1.481   1.040   0.924  0.6306 -0.4182  0.1694
   42DMF     C2  495   1.415   0.910   0.910 -0.2547 -0.1215 -0.6322
   42DMF     C3  496   1.470   1.140   0.827  0.2430 -0.1442 -0.7524
   42DMF     O1  497   1.517   1.255   0.842 -0.0758  0.4591 -0.7107
   42DMF     H1  498   1.517   1.003   1.124  1.2103  0.7308  2.0488
   42DMF     H2  499   1.573   1.172   1.059  0.4018 -0.3679  0.3821
   42DMF     H3  500   1.659   1.021   1.024  0.5762  0.2316  1.0092
   42DMF     H4  501   1.465   0.832   0.968  1.3994 -0.3129 -2.2773
   42DMF     H5  502   1.404   0.882   0.805 -1.2718  1.8235 -1.0700
   42DMF     H6  503   1.316   0.927   0.954  0.5628  0.7341  0.9210
   42DMF     H7  504   1.421   1.103   0.734 -1.0040  1.6993 -0.8584
   43DMF     C1  505   1.456   2.431   0.251 -0.0078  0.6005 -0.0091
   43DMF     N1  506   1.559   2.513   0.185  0.4397 -0.3965 -0.2863
   43DMF     C2  507   1.700   2.498   0.226  0.3870 -0.9004 -0.3104
   43DMF     C3  508   1.519   2.602   0.085  0.5144 -0.0714  0.2265
   43DMF     O1  509   1.406   2.621   0.050 -0.0878 -0.3560  0.2964
   43DMF     H1  510   1.508   2.354   0.309  1.2967  1.2628 -0.2714
   43DMF     H2  511   1.386   2.394   0.175  2.2534 -1.9149 -0.9570
   43DMF     H3  512   1.400   2.495   0.320  1.3104  1.6286  0.1370
   43DMF     H4  513   1.696   2.463   0.330  1.2936  1.4794  0.5632
   43DMF     H5  514   1.747   2.597   0.235 -0.3489 -0.6396  0.6814
   43DMF     H6  515   1.758   2.422   0.172 -1.0964 -1.2573 -1.4300
   43DMF     H7  516   1.602   2.660   0.040  0.3729  1.2768  1.6416
   44DMF     C1  517   2.422   1.713   0.194  0.1595  0.2998 -0.5590
   44DMF     N1  518   2.383   1.713   0.052 -0.2073 -0.3474  0.0894
   44DMF     C2  519   2.489   1.713  -0.050 -0.2918 -0.2277  0.7489
   44DMF     C3  520   2.251   1.750   0.020 -0.5067  0.1666 -0.4512
   44DMF     O1  521   2.162   1.764   0.100  0.4674  0.4896 -0.3040
   44DMF     H1  522   2.531   1.713   0.192  0.2573  2.4252  2.5241
   44DMF     H2  523   2.408   1.611   0.232 -1.0388  0.6209 -0.1149
   44DMF     H3  524   2.371   1.787   0.257  1.3434 -0.1365  0.9313
   44DMF     H4  525   2.433   1.690  -0.142 -2.1736  2.0124  1.2875
   44DMF     H5  526   2.562   1.631  -0.042 -1.0377 -1.0234 -0.5038
   44DMF     H6  527   2.541   1.809  -0.057  2.2011 -1.5107  1.1350
   44DMF     H7  528   2.248   1.776  -0.088 -1.4869  2.7484  0.1575
   45DMF     C1  529   2.049   0.935   2.364 -0.2247  0.0795 -0.6162
   45DMF     N1  530   2.110   0.804   2.404  0.6954 -0.4784  0.0855
   45DMF     C2  531   2.231   0.801   2.491  0.7333 -0.9322 -0.2574
   45DMF     C3  532   2.037   0.686   2.386  0.1191  0.2384  0.0942
   45DMF     O1  533   1.937   0.682   2.317  0.1669 -0.5893 -0.0692
   45DMF     H1  534   2.120   1.019   2.372  0.0729  0.4137 -5.4469
   45DMF     H2  535   1.965   0.960   2.430  1.3756  4.1182  0.0546
   45DMF     H3  536   2.019   0.923   2.260 -1.8776  1.1717 -0.2924
   45DMF     H4  537   2.242   0.712   2.555  1.8283 -0.5366  0.1223
   45DMF     H5  538   2.232   0.888   2.557  1.1733  1.0085 -2.7347
   45DMF     H6  539   2.320   0.785   2.429  0.9419  0.2497 -0.2691
   45DMF     H7  540   2.077   0.596   2.435  0.8180  0.7193  0.4077
   46DMF     C1  541   2.270   0.255   0.499  0.5896  0.0380  0.4624
   46DMF     N1  542   2.185   0.146   0.558 -0.1985  0.1545  0.4605
   46DMF     C2  543   2.047   0.125   0.512 -0.3227 -0.5352 -0.3262
   46DMF     C3  544   2.239   0.070   0.668  0.2898  0.0228 -0.3016
   46DMF     O1  545   2.350   0.089   0.716  0.0288 -0.5425 -0.1188
   46DMF     H1  546   2.233   0.307   0.409  1.8474 -1.0573 -0.7274
   46DMF     H2  547   2.361   0.206   0.462  2.3730  1.2381  3.1348
   46DMF     H3  548   2.310   0.328   0.570  0.2595 -1.9472  2.7232
   46DMF     H4  549   1.999   0.042   0.565 -1.0292 -0.5036 -0.9217
   46DMF     H5  550   2.038   0.105   0.405  1.1579  0.0848 -0.5871
   46DMF     H6  551   1.987   0.211   0.545  2.5227  1.9462 -1.2853
   46DMF     H7  552   2.172  -0.009   0.707  1.0127  0.0366  0.9922
   47DMF     C1  553   1.866   1.607   1.455 -0.5600  0.3712 -0.2545
   47DMF     N1  554   1.859   1.756   1.484 -0.5486  0.2584 -0.8061
   47DMF     C2  555   1.740   1.826   1.436  0.2137  0.2211  0.1246
   47DMF     C3  556   1.973   1.831   1.532 -0.3059 -0.2977  0.1733
   47DMF     O1  557   2.082   1.786   1.561  0.3212 -0.4120  0.1379
   47DMF     H1  558   1.826   1.543   1.534  2.2491  0.7235  1.4981
   47DMF     H2  559   1.971   1.576   1.444 -0.3152  1.6134 -1.6774
   47DMF     H3  560   1.809   1.577   1.366 -0.1323 -1.8646  0.1977
   47DMF     H4  561   1.701   1.895   1.511  0.2256 -0.6994  0.9857
   47DMF     H5  562   1.666   1.754   1.400  0.3251  1.1931 -2.1582
   47DMF     H6  563   1.772   1.878   1.345 -0.3062 -2.0900 -1.4142
   47DMF     H7  564   1.950   1.939   1.535 -0.2765 -0.2795 -0.2185
   48DMF     C1  565   0.552   1.899   0.855  0.1781 -0.8017  0.4902
   48DMF     N1  566   0.536   2.042   0.847 -0.4811  0.6793  0.5172
   48DMF     C2  567   0.481   2.113   0.965  0.4364 -0.1896  0.4957
   48DMF     C3  568   0.571   2.114   0.732 -0.0403  0.6487 -0.0292
   48DMF     O1  569   0.621   2.066   0.634  0.8087  0.1936  0.5195
   48DMF     H1  570   0.535   1.878   0.961 -2.6019 -1.1401  0.0123
   48DMF     H2  571   0.652   1.861   0.829 -1.1773 -2.5379 -2.4635
   48DMF     H3  572   0.480   1.851   0.787 -0.5792  2.5275 -1.1306
   48DMF     H4  573   0.555   2.101   1.045 -1.2447  2.0609  2.4919
   48DMF     H5  574   0.390   2.060   0.996 -0.7302  1.2094 -0.4631
   48DMF     H6  575   0.450   2.215   0.936  0.4438 -0.0678  0.9145
   48DMF     H7  576   0.559   2.222   0.756  0.7958  0.8980 -0.6979
   49DMF     C1  577   1.491   1.514   1.423 -1.2604  0.7262  0.4154
   49DMF     N1  578   1.415   1.420   1.354 -0.2359 -0.4141 -0.3675
   49DMF     C2  579   1.456   1.387   1.220  0.3267  0.8002 -0.7001
   49DMF     C3  580   1.299   1.366   1.403  0.4841 -0.1027 -0.0617
   49DMF     O1  581   1.248   1.423   1.499  0.6243  0.6578 -0.3918
   49DMF     H1  582   1.583   1.538   1.368 -0.5179 -1.7521  0.5032
   49DMF     H2  583   1.524   1.472   1.518 -1.4855  3.2008  1.6308
   49DMF     H3  584   1.440   1.610   1.441 -1.2827  0.8746 -0.4073
   49DMF     H4  585   1.387   1.422   1.142 -0.3207  0.3145 -0.3478
   49DMF     H5  586   1.435   1.281   1.200 -1.0705  1.3355 -2.2446
   49DMF     H6  587   1.562   1.415   1.209  0.2135  0.6234 -2.3954
   49DMF     H7  588   1.260   1.277   1.351 -0.4535  0.4878 -0.3613
   50DMF     C1  589   0.113   1.605   0.992  0.5638 -0.2649  0.2517
   50DMF     N1  590   0.255   1.621   0.952  0.1049 -0.2502  0.6269
   50DMF     C2  591   0.351   1.650   1.057 -0.0536  0.5182 -0.1510
   50DMF     C3  592   0.296   1.587   0.820 -0.0724 -0.4550 -1.1610
   50DMF     O1  593   0.228   1.543   0.734 -0.1013  0.1627  0.2323
   50DMF     H1  594   0.084   1.500   0.984  0.7919 -0.2799 -0.3575
   50DMF     H2  595   0.053   1.652   0.913  0.8623  1.4109  0.9930
   50DMF     H3  596   0.082   1.633   1.094  0.6478 -3.1726  1.1067
   50DMF     H4  597   0.440   1.691   1.007 -1.8493  2.5066 -1.7975
   50DMF     H5  598   0.359   1.563   1.122 -2.9284  0.2744 -0.0599
   50DMF     H6  599   0.317   1.730   1.125 -0.9173  1.0351 -1.1879
   50DMF     H7  600   0.403   1.613   0.813 -0.0962 -0.0664 -0.1999
   51DMF     C1  601   0.113   2.162   1.433 -0.1282 -0.3043 -0.1546
   51DMF     N1  602   0.226   2.184   1.342 -0.7854  0.4249 -0.2361
   51DMF     C2  603   0.201   2.255   1.219  0.2601  0.3365  0.7133
   51DMF     C3  604   0.348   2.117   1.362 -0.2446  0.8147  0.7870
   51DMF     O1  605   0.370   2.048   1.456 -0.1212  0.4138 -0.1261
   51DMF     H1  606   0.126   2.225   1.521 -0.6408  0.4882 -0.6438
   51DMF     H2  607   0.129   2.061   1.475 -0.1993  0.1118  0.8878
   51DMF     H3  608   0.017   2.161   1.380 -0.7334 -1.2071  0.9188
   51DMF     H4  609   0.237   2.359   1.220 -0.9018  0.7425  1.0381
   51DMF     H5  610   0.093   2.264   1.200  0.5625  2.3742 -0.1317
   51DMF     H6  611   0.252   2.201   1.138 -0.8161  2.7922 -1.6991
   51DMF     H7  612   0.407   2.130   1.269 -1.0510  0.8224  0.2668
   52DMF     C1  613   2.224   0.519   1.026  0.3135 -0.1808 -0.2411
   52DMF     N1  614   2.312   0.424   0.968 -0.1008  0.6177  0.0620
   52DMF     C2  615   2.414   0.378   1.065 -0.7475  0.3584  0.2495
   52DMF     C3  616   2.289   0.352   0.847 -0.8090 -0.3378  0.2304
   52DMF     O1  617   2.186   0.375   0.786  0.2513  0.2385  0.2713
   52DMF     H1  618   2.190   0.500   1.128  0.5591  0.2076 -0.0889
   52DMF     H2  619   2.130   0.543   0.975 -0.2181  0.7285  1.1603
   52DMF     H3  620   2.280   0.613   1.024 -1.3029  0.8073  0.4075
   52DMF     H4  621   2.417   0.437   1.158 -1.3416  1.0894 -0.1943
   52DMF     H5  622   2.515   0.400   1.027 -1.2126  3.0732  0.4771
   52DMF     H6  623   2.404   0.270   1.083  0.9837  0.2068  0.3964
   52DMF     H7  624   2.377   0.293   0.817  0.9165  1.8875  0.7845
   53DMF     C1  625   1.116   1.971   0.842  0.2866 -0.0729 -0.6224
   53DMF     N1  626   1.018   1.910   0.756  0.6429 -0.1130  0.0609
   53DMF     C2  627   0.970   1.989   0.642  0.4877 -0.1074  0.4756
   53DMF     C3  628   0.991   1.772   0.773  0.0517  0.2240  0.5490
   53DMF     O1  629   1.037   1.701   0.859 -0.6432 -0.5630  0.2972
   53DMF     H1  630   1.206   1.910   0.836  1.5028  1.5888  0.3168
   53DMF     H2  631   1.076   1.966   0.944 -0.9415  1.3921 -1.0037
   53DMF     H3  632   1.142   2.076   0.824 -0.3281  0.0323 -0.9214
   53DMF     H4  633   1.047   1.981   0.565 -0.9150  1.8854 -1.2198
   53DMF     H5  634   0.956   2.095   0.667  0.9335  0.7157 -2.5424
   53DMF     H6  635   0.870   1.948   0.622 -0.6838  2.5508  0.5316
   53DMF     H7  636   0.920   1.737   0.697 -2.3100  0.1758  2.7194
   54DMF     C1  637   1.969   0.307   0.172  0.0937  0.2510 -1.0548
   54DMF     N1  638   2.073   0.310   0.068 -0.5644 -0.2748  0.1360
   54DMF     C2  639   2.199   0.366   0.109 -0.2747  0.9203  1.0517
   54DMF     C3  640   2.057   0.274  -0.072 -0.1555  0.2392 -0.5754
   54DMF     O1  641   1.956   0.224  -0.110  0.5266  0.0078  0.5858
   54DMF     H1  642   1.935   0.409   0.189  0.1238 -0.0109  0.6706
   54DMF     H2  643   2.004   0.271   0.270 -0.4495 -1.6445 -1.5323
   54DMF     H3  644   1.883   0.246   0.141 -1.4769  1.6057  0.5566
   54DMF     H4  645   2.231   0.426   0.022 -1.7667  0.9047  0.4839
   54DMF     H5  646   2.271   0.285   0.127  0.6258  2.1431  3.1222
   54DMF     H6  647   2.194   0.421   0.204  0.8531 -1.0201  2.2622
   54DMF     H7  648   2.143   0.307  -0.133 -0.3993  0.7814 -0.6280
   55DMF     C1  649   1.568   1.004   1.981 -0.2437 -0.4974 -0.2661
   55DMF     N1  650   1.632   0.871   2.029  0.4542 -0.1409  0.1418
   55DMF     C2  651   1.557   0.749   2.004  0.4934 -0.1696  0.5975
   55DMF     C3  652   1.749   0.880   2.107 -0.0123 -0.3965  0.2885
   55DMF     O1  653   1.804   0.984   2.143  1.4215  0.5279  0.6630
   55DMF     H1  654   1.643   1.073   1.941 -1.3222  1.0151  0.2850
   55DMF     H2  655   1.520   1.051   2.067  3.0117  0.6012  1.0439
   55DMF     H3  656   1.494   0.980   1.904 -1.1100 -0.1362  0.4430
   55DMF     H4  657   1.450   0.774   2.009 -0.0233 -2.2018  0.4313
   55DMF     H5  658   1.576   0.680   2.088  0.5436 -1.2513 -0.2990
   55DMF     H6  659   1.579   0.710   1.904  0.7669 -1.0557  0.9937
   55DMF     H7  660   1.797   0.785   2.134 -0.1081  0.0880  2.2252
   56DMF     C1  661   0.312   2.141   1.763  0.3172  0.3247  0.4586
   56DMF     N1  662   0.287   2.185   1.903 -0.0828  0.0456 -0.5923
   56DMF     C2  663   0.400   2.187   1.994 -0.2255 -0.1281  0.1639
   56DMF     C3  664   0.155   2.197   1.960 -0.3202  0.1544 -0.4531
   56DMF     O1  665   0.057   2.184   1.888  0.1017  0.3056 -0.0198
   56DMF     H1  666   0.391   2.067   1.745  0.3974  0.4354  0.3523
   56DMF     H2  667   0.335   2.233   1.708  1.2291  0.6962  1.4410
   56DMF     H3  668   0.220   2.093   1.730  0.8046  0.3288 -0.9551
   56DMF     H4  669   0.478   2.114   1.967 -0.8287 -0.7887  0.2162
   56DMF     H5  670   0.356   2.162   2.091  2.2843 -0.4692  1.2716
   56DMF     H6  671   0.452   2.283   2.009 -0.3156 -0.0128 -0.2651
   56DMF     H7  672   0.150   2.220   2.068 -0.2543 -0.0049 -0.4148
   57DMF     C1  673   1.285   1.798   2.009  0.3481  0.1387 -0.1903
   57DMF     N1  674   1.190   1.738   2.113 -0.2221 -0.4537 -0.1021
   57DMF     C2  675   1.230   1.772   2.253  0.1249 -0.7596 -0.1718
   57DMF     C3  676   1.075   1.660   2.082  0.9092  0.8387 -0.0219
   57DMF     O1  677   1.056   1.611   1.971  0.3348 -0.6980  0.4761
   57DMF     H1  678   1.376   1.739   2.023 -0.3159 -1.0619 -0.8528
   57DMF     H2  679   1.317   1.900   2.036 -0.5873  0.0653  1.2689
   57DMF     H3  680   1.265   1.774   1.904  0.0390  0.5324 -0.2212
   57DMF     H4  681   1.195   1.870   2.289  0.2349 -1.1763  1.0789
   57DMF     H5  682   1.340   1.772   2.254  0.1783 -0.2620 -2.5353
   57DMF     H6  683   1.196   1.700   2.327  2.6355 -1.5912  0.2306
   57DMF     H7  684   1.010   1.629   2.165  1.0069 -0.8279 -0.5460
   58DMF     C1  685   1.112   0.386   0.130 -0.0293 -0.3262  0.3978
   58DMF     N1  686   1.049   0.491   0.047  0.0703 -0.0376 -0.1666
   58DMF     C2  687   1.067   0.633   0.099  0.2898 -0.0776 -0.1627
   58DMF     C3  688   0.991   0.458  -0.078 -0.5628 -0.1374  0.0997
   58DMF     O1  689   0.971   0.347  -0.118 -0.0215 -0.5339  0.2316
   58DMF     H1  690   1.190   0.328   0.079 -1.3318 -1.3766 -0.4516
   58DMF     H2  691   1.037   0.323   0.180  0.0620 -1.8571 -1.3360
   58DMF     H3  692   1.169   0.430   0.212  0.7919 -1.8669  0.6706
   58DMF     H4  693   0.981   0.658   0.163  0.3947  2.8068 -1.0873
   58DMF     H5  694   1.077   0.698   0.012 -1.1631  0.9993  0.4612
   58DMF     H6  695   1.159   0.652   0.156 -0.4494 -0.7948  1.3062
   58DMF     H7  696   0.961   0.551  -0.129  0.2476  1.1115  1.8412
   59DMF     C1  697   0.501   1.318   0.818 -0.2123 -0.7510  0.0023
   59DMF     N1  698   0.631   1.367   0.869 -0.1919  0.1441 -0.5539
   59DMF     C2  699   0.704   1.282   0.966 -0.1795 -0.6200 -0.1380
   59DMF     C3  700   0.678   1.501   0.831  0.6814 -0.0379  0.4966
   59DMF     O1  701   0.612   1.576   0.756 -0.0891  0.4874 -0.3682
   59DMF     H1  702   0.518   1.215   0.782  2.6028 -1.1219  2.2585
   59DMF     H2  703   0.454   1.383   0.744 -0.9279 -2.8501 -1.4453
   59DMF     H3  704   0.435   1.307   0.906 -0.8566 -0.8372 -0.4871
   59DMF     H4  705   0.809   1.278   0.935 -0.3499 -0.3576 -0.7685
   59DMF     H5  706   0.669   1.179   0.972  0.2746 -0.7235  0.8001
   59DMF     H6  707   0.700   1.335   1.061 -2.1028  0.1626 -0.6228
   59DMF     H7  708   0.770   1.531   0.884  0.1761 -1.4505  2.2580
   60DMF     C1  709   0.879   2.411   1.152  0.0838 -0.6793  0.4841
   60DMF     N1  710   0.928   2.350   1.028  0.1279 -0.0957  1.1739
   60DMF     C2  711   1.067   2.301   1.023 -0.2349 -0.5629 -0.5248
   60DMF     C3  712   0.845   2.322   0.922  0.0884 -0.3760 -0.1907
   60DMF     O1  713   0.726   2.349   0.917 -0.5962 -0.3400  0.3162
   60DMF     H1  714   0.930   2.359   1.233  0.2784 -3.6327 -1.4611
   60DMF     H2  715   0.772   2.390   1.166 -0.9187  2.2031 -1.9743
   60DMF     H3  716   0.890   2.521   1.148 -2.1047 -0.4872 -1.4357
   60DMF     H4  717   1.079   2.194   1.045  0.4040  0.1400  2.7799
   60DMF     H5  718   1.130   2.364   1.086  0.4368 -0.8453 -0.9063
   60DMF     H6  719   1.104   2.319   0.921 -0.5797 -0.7744 -0.6889
   60DMF     H7  720   0.904   2.291   0.834  0.4513 -0.6014  0.1283
   61DMF     C1  721   0.840   0.257   0.373 -0.0593  0.5934 -0.0976
   61DMF     N1  722   0.851   0.296   0.525  0.2887 -0.5251  0.0466
   61DMF     C2  723   0.742   0.378   0.590  0.5489  0.1399  0.3738
   61DMF     C3  724   0.976   0.290   0.586  0.2839 -0.4002  0.0385
   61DMF     O1  725   1.076   0.243   0.537  0.0495 -0.8108  0.0704
   61DMF     H1  726   0.740   0.217   0.353  0.6813 -1.4217  0.1046
   61DMF     H2  727   0.916   0.190   0.330  2.3507  3.5746 -0.6361
   61DMF     H3  728   0.846   0.354   0.323  0.7068  1.9225  2.4946
   61DMF     H4  729   0.724   0.310   0.675 -1.2440  0.2591  0.1210
   61DMF     H5  730   0.656   0.378   0.521 -0.8753 -2.6976  2.0264
   61DMF     H6  731   0.780   0.479   0.608 -0.1322  0.3413  0.6845
   61DMF     H7  732   0.976   0.332   0.689 -0.8010  1.6084 -0.7630
   62DMF     C1  733   1.986   0.491   1.974 -0.1888 -0.0024 -0.5835
   62DMF     N1  734   1.917   0.372   1.934 -0.1973 -0.3703  0.6499
   62DMF     C2  735   1.780   0.386   1.882 -0.4406  0.3646  0.3201
   62DMF     C3  736   1.984   0.246   1.951  0.4503  0.0134 -0.2582
   62DMF     O1  737   2.103   0.242   1.985  0.3539  0.0866 -0.1525
   62DMF     H1  738   1.926   0.582   1.964  1.3746  1.2430  0.9686
   62DMF     H2  739   2.075   0.494   1.909 -0.7516 -1.8067 -1.4720
   62DMF     H3  740   2.012   0.476   2.080 -0.0353  0.6304 -0.5286
   62DMF     H4  741   1.785   0.430   1.782 -1.4653  0.7420  0.4278
   62DMF     H5  742   1.730   0.464   1.941  1.7279 -0.2527  3.0935
   62DMF     H6  743   1.721   0.294   1.872  0.1274  0.0485 -0.1179
   62DMF     H7  744   1.917   0.161   1.932 -0.6645  0.3358  1.9579
   63DMF     C1  745   0.598   1.143   1.869 -0.1563 -0.3401  0.2088
   63DMF     N1  746   0.543   1.264   1.931 -1.1556  0.0639 -0.4317
   63DMF     C2  747   0.633   1.344   2.019  0.2301  0.5173 -0.6614
   63DMF     C3  748   0.405   1.284   1.954 -0.3338  0.2735 -0.1530
   63DMF     O1  749   0.321   1.219   1.903  0.0276 -0.7652 -0.4979
   63DMF     H1  750   0.539   1.060   1.911  0.2598 -1.5666 -1.6147
   63DMF     H2  751   0.705   1.133   1.891 -0.0850 -2.6753 -1.0773
   63DMF     H3  752   0.583   1.158   1.762 -0.3892  0.8276  0.4019
   63DMF     H4  753   0.687   1.273   2.083  1.1423 -0.6514 -2.6689
   63DMF     H5  754   0.584   1.419   2.081  1.8742  0.8312  0.2843
   63DMF     H6  755   0.705   1.389   1.948  0.0134  0.4769 -0.9082
   63DMF     H7  756   0.384   1.372   2.017 -2.0161 -0.0983 -0.1739
   64DMF     C1  757   1.292   1.292   0.278  0.3741 -0.3562  0.0618
   64DMF     N1  758   1.306   1.149   0.319 -0.1896 -0.2295  0.4765
   64DMF     C2  759   1.245   1.102   0.440  0.2769 -0.6944  0.2717
   64DMF     C3  760   1.396   1.063   0.252 -0.1449  0.5044 -0.3951
   64DMF     O1  761   1.468   1.099   0.154  0.5678 -0.0458 -0.1250
   64DMF     H1  762   1.394   1.332   0.278  0.8645 -1.5881 -0.5947
   64DMF     H2  763   1.241   1.349   0.356  1.6489  2.4112 -1.0733
   64DMF     H3  764   1.230   1.302   0.188  0.8164  0.7238 -0.1288
   64DMF     H4  765   1.202   1.190   0.491 -0.5731 -1.2164  0.4629
   64DMF     H5  766   1.321   1.059   0.506  0.8285  1.3562  1.0171
   64DMF     H6  767   1.171   1.024   0.418  0.1584 -0.5224  0.0588
   64DMF     H7  768   1.409   0.964   0.299  2.6158  0.6285 -0.8206
   65DMF     C1  769   0.025   0.584   2.224  0.5271 -0.4928  0.2289
   65DMF     N1  770  -0.057   0.490   2.148 -0.3023  0.3407  0.1287
   65DMF     C2  771   0.007   0.433   2.030  1.1917  0.1211 -0.0268
   65DMF     C3  772  -0.184   0.448   2.192  0.0221  0.1840 -0.1204
   65DMF     O1  773  -0.237   0.502   2.289  0.2309 -0.0733  0.5361
   65DMF     H1  774   0.039   0.667   2.154  1.4269 -0.7770  0.0630
   65DMF     H2  775   0.122   0.544   2.256  1.2499  0.7900 -0.3274
   65DMF     H3  776  -0.035   0.624   2.306  0.3757  0.6011 -0.4041
   65DMF     H4  777   0.117   0.433   2.040  1.2204  0.9329 -0.2857
   65DMF     H5  778  -0.016   0.492   1.941 -1.5868 -0.1231  0.5072
   65DMF     H6  779  -0.028   0.331   2.013 -0.2972  0.5231  0.5784
   65DMF     H7  780  -0.240   0.376   2.131  0.6151 -0.5840  0.2422
   66DMF     C1  781   2.225   0.243   1.690  0.6151  0.1121 -0.0389
   66DMF     N1  782   2.156   0.234   1.564 -0.9274  0.1522 -0.4937
   66DMF     C2  783   2.206   0.310   1.446  0.0008 -0.7585 -0.2589
   66DMF     C3  784   2.025   0.181   1.554  0.1842  1.0015 -0.0183
   66DMF     O1  785   1.954   0.140   1.642  0.8030  0.1796  0.4492
   66DMF     H1  786   2.328   0.208   1.671  0.8821  1.1090 -0.4565
   66DMF     H2  787   2.185   0.177   1.768  0.3580  2.2227  1.6523
   66DMF     H3  788   2.223   0.345   1.728 -0.2727 -1.0415  3.1081
   66DMF     H4  789   2.217   0.418   1.456 -3.1167 -0.1121 -2.9533
   66DMF     H5  790   2.153   0.289   1.352 -2.3147  1.5954  0.4654
   66DMF     H6  791   2.309   0.276   1.424  0.2027 -0.6826  0.5308
   66DMF     H7  792   1.984   0.180   1.451 -1.0239 -0.1871  0.4544
   67DMF     C1  793   1.043   0.992   0.014  0.4862  0.1123 -0.6854
   67DMF     N1  794   0.912   0.934   0.026  0.1631 -0.8903 -0.0655
   67DMF     C2  795   0.854   0.943   0.153  0.4268  0.0261 -0.3200
   67DMF     C3  796   0.865   0.836  -0.065  0.0030 -0.4961 -0.0143
   67DMF     O1  797   0.940   0.806  -0.153 -0.6214 -0.8539  0.4822
   67DMF     H1  798   1.111   0.926   0.069 -1.9657 -2.1155 -0.2757
   67DMF     H2  799   1.051   1.094   0.054 -2.3653 -0.0676  0.4135
   67DMF     H3  800   1.078   0.998  -0.090  0.2911 -0.1740 -0.7660
   67DMF     H4  801   0.922   0.989   0.225  2.0790 -1.3620 -0.9568
   67DMF     H5  802   0.833   0.841   0.189 -0.8811  0.0449 -0.9794
   67DMF     H6  803   0.756   0.991   0.145  0.1844 -0.2963  0.6090
   67DMF     H7  804   0.763   0.796  -0.047 -0.2353  0.7506  1.5663
   68DMF     C1  805   0.450   0.197   1.769  0.3372  0.3965  0.5578
   68DMF     N1  806   0.381   0.321   1.738  0.0899  0.2611 -0.5473
   68DMF     C2  807   0.330   0.397   1.851  0.1322  1.2034 -0.7600
   68DMF     C3  808   0.368   0.364   1.603 -0.2171  0.4463  0.0673
   68DMF     O1  809   0.415   0.310   1.505  0.4017 -0.0426 -0.1185
   68DMF     H1  810   0.380   0.116   1.750 -0.0960  0.7173  0.7801
   68DMF     H2  811   0.473   0.199   1.876  1.3307  2.9192  0.3498
   68DMF     H3  812   0.539   0.183   1.706  0.8706 -0.1288  1.4273
   68DMF     H4  813   0.326   0.347   1.948 -2.5566 -0.2502 -1.5517
   68DMF     H5  814   0.227   0.431   1.830 -0.5567 -0.5220 -0.2495
   68DMF     H6  815   0.401   0.477   1.876  0.0411  1.1448 -0.3117
   68DMF     H7  816   0.308   0.456   1.596  0.3949  0.7707 -1.0384
   69DMF     C1  817   0.640   1.833   1.962 -0.2234  0.3024  0.7178
   69DMF     N1  818   0.645   1.859   1.816  0.1226 -0.6671  0.1169
   69DMF     C2  819   0.643   1.744   1.724  0.2548 -0.3202  0.4151
   69DMF     C3  820   0.675   1.987   1.771 -0.5011  0.4921  0.7183
   69DMF     O1  821   0.708   2.078   1.841  0.2416 -0.3892  0.0560
   69DMF     H1  822   0.630   1.725   1.980 -0.4836  0.2462  0.2440
   69DMF     H2  823   0.560   1.891   2.010  0.2844 -0.0111  1.9678
   69DMF     H3  824   0.738   1.864   2.000  1.3065  0.4040 -3.1426
   69DMF     H4  825   0.578   1.657   1.742  1.2101 -1.3419 -0.9914
   69DMF     H5  826   0.740   1.693   1.726  0.1976 -0.5290 -1.1565
   69DMF     H6  827   0.633   1.776   1.619 -0.5164 -1.4877  0.1191
   69DMF     H7  828   0.687   1.999   1.661 -3.2960  1.2408  0.4686
   70DMF     C1  829   1.990   1.758   1.171 -0.7605  0.1582  0.3473
   70DMF     N1  830   1.863   1.796   1.113 -0.0010  0.8047  0.1545
   70DMF     C2  831   1.847   1.939   1.086 -0.0162 -0.2314  0.4723
   70DMF     C3  832   1.752   1.709   1.112 -0.0682  0.0442 -0.4149
   70DMF     O1  833   1.742   1.588   1.136  0.2396  0.0091  0.0656
   70DMF     H1  834   1.993   1.778   1.279  0.4923  1.2751  0.1249
   70DMF     H2  835   2.060   1.816   1.109 -2.7008  1.5873 -0.5695
   70DMF     H3  836   2.010   1.652   1.151  0.1177  0.5183 -0.7253
   70DMF     H4  837   1.829   1.950   0.979  2.4818  0.6433  0.1136
   70DMF     H5  838   1.935   1.998   1.116  0.4103 -1.0127  0.7844
   70DMF     H6  839   1.755   1.983   1.126 -0.0694 -0.7454  0.9199
   70DMF     H7  840   1.667   1.752   1.056  1.3458  0.6670 -2.1705
   71DMF     C1  841   0.855   1.809   1.168 -0.0861 -0.3755  0.4138
   71DMF     N1  842   0.755   1.761   1.257 -0.6101  0.1191 -0.2441
   71DMF     C2  843   0.705   1.847   1.364 -0.4747  0.0360  0.1512
   71DMF     C3  844   0.690   1.637   1.222 -0.1757  0.1007 -0.2274
   71DMF     O1  845   0.706   1.588   1.110  0.7185 -0.2259 -0.2981
   71DMF     H1  846   0.954   1.776   1.205  1.0348  1.8440 -0.5238
   71DMF     H2  847   0.853   1.918   1.168  0.5167 -0.3458  2.0856
   71DMF     H3  848   0.831   1.792   1.062 -0.0178  1.1939  0.1372
   71DMF     H4  849   0.694   1.953   1.337  1.2269 -0.2116 -1.6618
   71DMF     H5  850   0.783   1.841   1.440 -0.1392 -1.4234 -0.3000
   71DMF     H6  851   0.609   1.807   1.399  0.6571 -0.9235  2.2019
   71DMF     H7  852   0.613   1.611   1.297 -0.7696 -0.3488 -0.9781
   72DMF     C1  853   0.672   1.662   0.265 -0.6752 -0.5545  0.1404
   72DMF     N1  854   0.648   1.771   0.355  0.0415 -0.4333 -0.3247
   72DMF     C2  855   0.674   1.750   0.502 -0.2364 -0.5095  0.8445
   72DMF     C3  856   0.601   1.896   0.299 -0.4880  0.4941 -0.3269
   72DMF     O1  857   0.593   1.917   0.182  0.0013  0.2448  0.3904
   72DMF     H1  858   0.681   1.700   0.163 -0.6117 -0.4599  0.1812
   72DMF     H2  859   0.589   1.590   0.272 -1.6881  0.4411 -1.3604
   72DMF     H3  860   0.762   1.607   0.295  0.0465 -0.4463 -1.7703
   72DMF     H4  861   0.748   1.676   0.535 -0.8116 -2.2096 -1.5081
   72DMF     H5  862   0.573   1.727   0.537 -0.9851 -0.0351 -0.9531
   72DMF     H6  863   0.694   1.844   0.556 -0.9525 -0.1735  0.5366
   72DMF     H7  864   0.554   1.960   0.376 -1.0284  0.6684 -0.7961
   73DMF     C1  865   1.972   0.616   1.633 -0.3201 -0.2303 -0.2057
   73DMF     N1  866   1.864   0.596   1.529  0.3670 -0.6454 -0.0467
   73DMF     C2  867   1.722   0.629   1.557 -0.3414  0.5575 -0.0564
   73DMF     C3  868   1.908   0.567   1.400  0.2909  0.6722 -0.0456
   73DMF     O1  869   2.022   0.528   1.379  0.2457 -0.1788  0.1969
   73DMF     H1  870   2.038   0.697   1.601  0.0325 -0.6536 -0.5669
   73DMF     H2  871   2.028   0.522   1.643  2.0988  1.3541  1.7021
   73DMF     H3  872   1.928   0.655   1.725  0.6542 -0.7713  0.4974
   73DMF     H4  873   1.666   0.569   1.485 -0.5109  1.4835 -0.6985
   73DMF     H5  874   1.711   0.737   1.549 -3.1094  0.3556  0.7306
   73DMF     H6  875   1.698   0.597   1.659  0.8585  2.4422  0.8468
   73DMF     H7  876   1.835   0.575   1.317  0.9007 -0.4789 -0.7134
   74DMF     C1  877   1.198   0.031   1.963 -0.2418 -0.1452  0.5514
   74DMF     N1  878   1.095   0.124   2.021  0.5989  0.3311 -0.4478
   74DMF     C2  879   1.106   0.275   1.992  0.2143  0.4643 -0.3289
   74DMF     C3  880   1.002   0.074   2.113  0.2612 -0.1487  0.4134
   74DMF     O1  881   0.987  -0.047   2.129  0.4332 -0.3544  0.4428
   74DMF     H1  882   1.209   0.051   1.856 -0.1853 -3.0305 -0.0126
   74DMF     H2  883   1.152  -0.069   1.969 -1.0430  0.2636  1.2930
   74DMF     H3  884   1.292   0.046   2.017  1.2649  2.4638 -2.6295
   74DMF     H4  885   1.196   0.319   2.037 -0.5014  1.1314  0.4697
   74DMF     H5  886   1.015   0.323   2.031  0.2027  0.4345 -0.3189
   74DMF     H6  887   1.111   0.289   1.883  1.9328 -0.0248 -0.3298
   74DMF     H7  888   0.947   0.148   2.173  0.5296  0.5184 -0.1607
   75DMF     C1  889   0.306   1.277   1.173 -0.5194  0.4297 -0.2932
   75DMF     N1  890   0.431   1.206   1.202 -0.2966 -0.2895 -0.3023
   75DMF     C2  891   0.524   1.269   1.300 -0.2246  0.8613  0.3704
   75DMF     C3  892   0.451   1.070   1.164 -0.0194  0.3620 -0.4442
   75DMF     O1  893   0.365   1.010   1.108 -0.1577  0.0934 -0.3059
   75DMF     H1  894   0.224   1.205   1.178  0.8041 -1.1320 -0.6316
   75DMF     H2  895   0.310   1.335   1.080  0.9688  0.0948 -0.4569
   75DMF     H3  896   0.292   1.347   1.257 -0.7270  0.0569 -0.0173
   75DMF     H4  897   0.529   1.376   1.278  0.9411  0.6076 -0.6824
   75DMF     H5  898   0.626   1.233   1.283 -0.7221 -0.9472  1.0969
   75DMF     H6  899   0.502   1.257   1.407 -0.2543  2.7730  0.5936
   75DMF     H7  900   0.538   1.022   1.213 -0.4566  1.3570  1.3527
   76DMF     C1  901   2.446   2.216   0.807  0.0216  0.2811 -0.7232
   76DMF     N1  902   2.482   2.140   0.923 -0.0008  0.3009 -0.4314
   76DMF     C2  903   2.378   2.136   1.031 -0.4227  0.3839 -0.1085
   76DMF     C3  904   2.605   2.074   0.935 -0.2791 -0.0502 -0.1733
   76DMF     O1  905   2.689   2.082   0.843 -0.0495 -0.4687 -0.0626
   76DMF     H1  906   2.376   2.297   0.830  0.5581  1.0453 -1.7440
   76DMF     H2  907   2.391   2.152   0.737  0.4836 -0.2530 -0.6070
   76DMF     H3  908   2.533   2.262   0.759 -0.2000  1.1357 -0.3218
   76DMF     H4  909   2.416   2.179   1.124  1.7583 -1.0514 -0.2970
   76DMF     H5  910   2.356   2.028   1.038  1.3242 -0.0534 -1.1983
   76DMF     H6  911   2.286   2.189   1.005 -1.6703 -1.2286  0.9000
   76DMF     H7  912   2.628   2.032   1.035 -0.0057 -1.0567 -0.6561
   77DMF     C1  913   2.076   2.414   0.048  0.4695 -0.6573 -0.0990
   77DMF     N1  914   2.160   2.425   0.174 -0.7369 -0.1302 -0.1204
   77DMF     C2  915   2.288   2.495   0.162  0.1499 -0.3483  0.2957
   77DMF     C3  916   2.111   2.379   0.298  0.7755 -0.3977 -0.2829
   77DMF     O1  917   2.006   2.317   0.305 -0.3066 -0.3412  0.0712
   77DMF     H1  918   2.132   2.381  -0.040  1.1833 -0.6321  0.3450
   77DMF     H2  919   2.033   2.514   0.041  1.9336 -0.1172 -1.6509
   77DMF     H3  920   1.984   2.354   0.061 -0.5956  0.7284 -1.0809
   77DMF     H4  921   2.282   2.577   0.234 -2.9006 -0.6921  0.5069
   77DMF     H5  922   2.295   2.542   0.063  0.0127 -1.3833 -0.2175
   77DMF     H6  923   2.361   2.419   0.193 -0.5068  0.1751  3.3033
   77DMF     H7  924   2.161   2.406   0.393 -0.0665 -1.1194  0.3702
   78DMF     C1  925   0.895   1.161   0.559  0.8607 -0.0746  0.4967
   78DMF     N1  926   0.957   1.034   0.588  0.2362  0.2939 -0.6115
   78DMF     C2  927   0.888   0.913   0.541 -0.2949  0.3181 -0.4559
   78DMF     C3  928   1.059   1.026   0.687  0.9569  0.5998  0.4616
   78DMF     O1  929   1.101   1.124   0.742  0.1946 -0.0178 -0.0563
   78DMF     H1  930   0.832   1.190   0.644  0.1359  1.1574 -0.4427
   78DMF     H2  931   0.841   1.151   0.463 -1.3312 -1.5385  1.8267
   78DMF     H3  932   0.967   1.243   0.551  0.5057  0.1599 -0.3787
   78DMF     H4  933   0.801   0.891   0.603 -1.2453  1.0287 -1.5280
   78DMF     H5  934   0.963   0.832   0.537 -0.8100 -0.0564 -4.5255
   78DMF     H6  935   0.850   0.935   0.441 -1.4002  1.2014  0.1493
   78DMF     H7  936   1.094   0.923   0.707  1.0696  0.2370 -1.5921
   79DMF     C1  937   2.459   0.652   1.720 -0.5691 -0.0022 -0.6212
   79DMF     N1  938   2.425   0.607   1.586 -0.0521 -0.1753  0.6782
   79DMF     C2  939   2.359   0.707   1.489 -0.4449  0.2713  0.4906
   79DMF     C3  940   2.473   0.482   1.538  0.2501  0.1627 -0.0597
   79DMF     O1  941   2.524   0.397   1.602  0.2243  0.1119 -0.6352
   79DMF     H1  942   2.371   0.643   1.784 -0.2030 -0.6601 -0.1961
   79DMF     H2  943   2.486   0.757   1.706 -1.1853  0.3106  0.4878
   79DMF     H3  944   2.543   0.592   1.759 -2.1024 -0.4957  2.0318
   79DMF     H4  945   2.436   0.777   1.456  1.6423 -2.3583 -0.4403
   79DMF     H5  946   2.284   0.764   1.545  0.7914  1.3031  1.1233
   79DMF     H6  947   2.330   0.654   1.398  1.0038  2.4586 -1.2906
   79DMF     H7  948   2.453   0.470   1.430 -0.6233 -1.0323  0.2181
   80DMF     C1  949   0.331   1.620   2.312  0.1046  0.4826  0.0942
   80DMF     N1  950   0.383   1.558   2.437 -0.2008 -0.3223 -0.0370
   80DMF     C2  951   0.383   1.644   2.560 -0.3203  0.3228  0.2109
   80DMF     C3  952   0.432   1.424   2.433  0.0424 -0.5467  0.4328
   80DMF     O1  953   0.424   1.352   2.333  0.3377  0.1166 -0.0039
   80DMF     H1  954   0.416   1.656   2.253  0.7316  2.3693  2.0727
   80DMF     H2  955   0.268   1.708   2.329 -0.2161  0.1033  0.9063
   80DMF     H3  956   0.264   1.554   2.256 -1.8042  1.1976  1.4817
   80DMF     H4  957   0.423   1.742   2.532  0.4102 -0.4651 -1.5558
   80DMF     H5  958   0.427   1.583   2.640  0.4089 -0.1616 -0.5522
   80DMF     H6  959   0.278   1.658   2.589 -0.2810  1.7652 -0.3038
   80DMF     H7  960   0.481   1.398   2.529  1.8017 -0.3655 -0.3956
   81DMF     C1  961   1.983   0.950   1.863 -0.2568  0.1108 -0.1498
   81DMF     N1  962   2.109   0.882   1.890  0.3075  0.6406 -0.6784
   81DMF     C2  963   2.116   0.812   2.024 -0.0239  0.3130  0.1046
   81DMF     C3  964   2.212   0.893   1.795 -0.1295 -0.0315  0.6412
   81DMF     O1  965   2.211   0.958   1.691 -0.0075 -0.2134  0.3414
   81DMF     H1  966   2.001   1.028   1.788 -1.7135 -0.3998 -1.0512
   81DMF     H2  967   1.949   0.992   1.958 -5.8472 -0.5428 -1.6832
   81DMF     H3  968   1.915   0.871   1.830 -2.2932  0.2057  3.5646
   81DMF     H4  969   2.116   0.888   2.103 -1.8394  0.2026  0.2289
   81DMF     H5  970   2.202   0.743   2.030  2.0641  2.4639 -3.5228
   81DMF     H6  971   2.032   0.744   2.042 -0.6471  0.4246 -2.2034
   81DMF     H7  972   2.296   0.831   1.831 -1.5935 -1.8639  0.9701
   82DMF     C1  973   1.538   1.989   0.780  0.0525 -0.8230  0.0672
   82DMF     N1  974   1.593   1.909   0.673 -0.1434 -0.4461  0.1404
   82DMF     C2  975   1.679   1.801   0.715  0.1916  0.0592  0.7400
   82DMF     C3  976   1.571   1.944   0.537  0.4586  0.0658 -0.1532
   82DMF     O1  977   1.486   2.028   0.507  0.0497 -0.3375 -0.4533
   82DMF     H1  978   1.561   2.096   0.765 -1.5764 -0.6559 -1.5253
   82DMF     H2  979   1.583   1.965   0.877  2.1191 -0.3008 -0.7515
   82DMF     H3  980   1.428   1.986   0.785 -0.0543  0.3544 -1.1693
   82DMF     H4  981   1.749   1.768   0.638  0.3679 -0.2172  1.0154
   82DMF     H5  982   1.615   1.722   0.758  1.3282 -1.3848 -0.1615
   82DMF     H6  983   1.754   1.837   0.787  2.4033 -1.6912 -0.6407
   82DMF     H7  984   1.621   1.883   0.460  1.1208  0.5736 -0.1265
   83DMF     C1  985   2.086   2.093   0.604  0.4989  0.4547  0.3443
   83DMF     N1  986   2.042   2.035   0.477 -1.1412 -0.3301 -0.1423
   83DMF     C2  987   1.905   1.991   0.461  0.3100  0.4152  0.5459
   83DMF     C3  988   2.129   2.020   0.371  0.6799  0.2892  0.0179
   83DMF     O1  989   2.243   2.059   0.368  0.0067  0.2930  0.5520
   83DMF     H1  990   2.104   2.201   0.609  1.0268  0.2815  2.5232
   83DMF     H2  991   2.176   2.038   0.635 -0.8539 -0.5400  2.6477
   83DMF     H3  992   2.008   2.064   0.675  1.9289 -1.7048  1.0943
   83DMF     H4  993   1.895   1.913   0.385 -1.3296  0.5632  0.5825
   83DMF     H5  994   1.840   2.073   0.428 -1.8964 -1.7439 -0.6897
   83DMF     H6  995   1.868   1.944   0.553 -1.5832 -1.3843 -1.0853
   83DMF     H7  996   2.080   1.965   0.289 -0.7891  0.0614  1.0280
   84DMF     C1  997   0.181   1.020   1.421  0.4073 -0.0058  0.0339
   84DMF     N1  998   0.145   1.072   1.559  0.1167  0.1763  0.4713
   84DMF     C2  999   0.018   1.018   1.624 -0.9047  0.0668 -0.0250
   84DMF     C3 1000   0.214   1.168   1.625 -0.5790 -0.1147 -0.0333
   84DMF     O1 1001   0.321   1.210   1.579  0.2573  0.5518 -0.1147
   84DMF     H1 1002   0.270   0.957   1.420  0.4406  0.0446 -0.3018
   84DMF     H2 1003   0.197   1.104   1.352 -0.6772 -0.2179 -0.4892
   84DMF     H3 1004   0.106   0.955   1.373  2.4539 -1.8904 -0.6492
   84DMF     H4 1005  -0.028   0.955   1.546 -1.3167 -1.3171  1.3232
   84DMF     H5 1006  -0.054   1.091   1.662 -1.4834 -0.9434  0.8282
   84DMF     H6 1007   0.056   0.953   1.703 -0.5663  0.3006  0.0051
   84DMF     H7 1008   0.170   1.196   1.722 -0.6996 -3.2267  0.8647
   85DMF     C1 1009   0.065   0.138   1.372  0.2881 -0.3090 -0.1259
   85DMF     N1 1010   0.031   0.063   1.495 -0.0789  0.2317  0.1489
   85DMF     C2 1011   0.098   0.102   1.627 -0.0374  0.4445  0.0879
   85DMF     C3 1012  -0.060  -0.043   1.491 -0.0458 -0.8699 -0.3392
   85DMF     O1 1013  -0.107  -0.080   1.387  0.6647 -0.3958  0.7015
   85DMF     H1 1014  -0.019   0.134   1.301  0.5233 -0.8666 -0.3751
   85DMF     H2 1015   0.146   0.079   1.329 -0.0888  0.7775 -2.4317
   85DMF     H3 1016   0.100   0.237   1.404 -2.9028  2.2699 -4.0459
   85DMF     H4 1017   0.098   0.010   1.687  0.9192  1.0767  1.0900
   85DMF     H5 1018   0.037   0.179   1.677  1.4857  1.4970  0.3494
   85DMF     H6 1019   0.202   0.129   1.609  0.4478 -1.5156 -0.1047
   85DMF     H7 1020  -0.078  -0.092   1.588  2.7680  1.3163  1.3717
   86DMF     C1 1021   0.876   1.609   2.468  0.0273  0.3609 -0.4635
   86DMF     N1 1022   0.854   1.481   2.401 -0.2234  0.0836 -0.4987
   86DMF     C2 1023   0.769   1.485   2.280  0.6664  0.2628  0.5443
   86DMF     C3 1024   0.913   1.363   2.440 -0.0246  0.3104 -0.0477
   86DMF     O1 1025   0.977   1.349   2.540 -0.5498  0.0627  0.4440
   86DMF     H1 1026   0.956   1.588   2.540 -1.0300 -0.9733  0.3602
   86DMF     H2 1027   0.782   1.634   2.520  0.3308  0.7886 -0.1196
   86DMF     H3 1028   0.913   1.688   2.402  1.0679 -0.1247 -0.4661
   86DMF     H4 1029   0.676   1.430   2.298  0.5992 -0.0466 -0.6932
   86DMF     H5 1030   0.824   1.429   2.203  0.9259 -0.0506  0.9498
   86DMF     H6 1031   0.750   1.588   2.250 -1.0247  0.8383  3.4212
   86DMF     H7 1032   0.902   1.279   2.369 -2.3951 -1.0591  1.8959
   87DMF     C1 1033   1.955   2.323   1.902  0.1765  0.3931  0.8318
   87DMF     N1 1034   2.047   2.213   1.944  0.5421 -0.0504  0.1365
   87DMF     C2 1035   2.165   2.240   2.021  0.0743 -0.0551  0.4643
   87DMF     C3 1036   1.998   2.086   1.922  0.3249 -0.3820  0.7746
   87DMF     O1 1037   1.896   2.061   1.853  0.0827  0.3836 -0.5450
   87DMF     H1 1038   1.937   2.323   1.793 -0.9072  0.1129  1.0023
   87DMF     H2 1039   2.009   2.413   1.932  0.6033 -0.4257  2.5480
   87DMF     H3 1040   1.858   2.314   1.952  0.1322 -0.6691  0.5660
   87DMF     H4 1041   2.191   2.164   2.095 -1.7485 -0.1498  1.0216
   87DMF     H5 1042   2.154   2.335   2.075 -0.9431  0.8512 -1.2617
   87DMF     H6 1043   2.238   2.254   1.940  0.1181  0.9529  0.6725
   87DMF     H7 1044   2.059   2.009   1.972 -1.6465 -4.0201 -2.1295
   88DMF     C1 1045   0.464   0.583   2.357 -0.0820 -0.0370 -0.2725
   88DMF     N1 1046   0.539   0.589   2.230  0.4739 -0.5184  1.2779
   88DMF     C2 1047   0.694   0.579   2.241  0.1221  0.0057 -0.0918
   88DMF     C3 1048   0.470   0.598   2.103  0.4338  0.4975 -0.1534
   88DMF     O1 1049   0.349   0.589   2.084 -0.1979  0.1841  0.4503
   88DMF     H1 1050   0.419   0.483   2.361 -3.3094  1.3940  1.0776
   88DMF     H2 1051   0.380   0.652   2.352 -0.9114 -0.9714  0.4620
   88DMF     H3 1052   0.536   0.601   2.438 -1.4097  2.2132  0.4381
   88DMF     H4 1053   0.735   0.563   2.141  0.7445 -1.0798  0.3228
   88DMF     H5 1054   0.719   0.491   2.301 -0.6734  0.4159  0.8629
   88DMF     H6 1055   0.721   0.664   2.305 -2.3555  2.0446 -1.6626
   88DMF     H7 1056   0.544   0.607   2.021  0.1903 -0.3956 -0.4761
   89DMF     C1 1057   0.292   0.698   1.545 -0.5327 -0.6612  0.4804
   89DMF     N1 1058   0.369   0.799   1.623 -0.9559 -0.1526 -0.1080
   89DMF     C2 1059   0.335   0.813   1.767  0.1839 -0.2266 -0.4541
   89DMF     C3 1060   0.464   0.885   1.562  0.0731 -0.3429 -0.0620
   89DMF     O1 1061   0.506   0.878   1.447  0.0162 -0.5946 -0.3190
   89DMF     H1 1062   0.224   0.637   1.606  0.4579 -1.1805  1.0567
   89DMF     H2 1063   0.359   0.625   1.498  2.3789  1.3254  1.4200
   89DMF     H3 1064   0.216   0.746   1.481  0.7982  2.1558  0.9686
   89DMF     H4 1065   0.395   0.738   1.819 -0.5042 -0.1667  0.4329
   89DMF     H5 1066   0.228   0.798   1.787  0.6851 -0.4530  2.1515
   89DMF     H6 1067   0.352   0.908   1.819  0.7022 -2.1948  3.1439
   89DMF     H7 1068   0.500   0.967   1.627 -0.1017 -0.2621 -0.0669
   90DMF     C1 1069   0.145   0.879   0.176  0.9953  0.3249 -0.6979
   90DMF     N1 1070   0.279   0.921   0.210  0.1113 -0.0548  0.4481
   90DMF     C2 1071   0.287   1.006   0.328 -0.3433  0.6900  0.7050
   90DMF     C3 1072   0.387   0.897   0.131 -0.4712 -0.0649 -1.0472
   90DMF     O1 1073   0.379   0.843   0.020  0.5394 -0.1063  0.4465
   90DMF     H1 1074   0.087   0.972   0.177 -1.2043 -1.0146 -0.2485
   90DMF     H2 1075   0.111   0.800   0.243 -0.6627  0.0129 -1.8863
   90DMF     H3 1076   0.139   0.841   0.073  0.0466  0.7648 -0.8091
   90DMF     H4 1077   0.187   1.048   0.344 -0.4341  1.0438 -0.7450
   90DMF     H5 1078   0.357   1.089   0.314 -0.2722  0.6876  1.0577
   90DMF     H6 1079   0.307   0.952   0.421 -1.6963 -2.7938 -0.9208
   90DMF     H7 1080   0.479   0.921   0.187 -0.0137 -1.5943 -1.1384
   91DMF     C1 1081   0.969   2.298   0.102  0.1733 -0.0972  0.1366
   91DMF     N1 1082   1.030   2.426   0.062  0.5029  0.2250  0.4988
   91DMF     C2 1083   1.004   2.544   0.137  0.3661  0.2229 -0.1959
   91DMF     C3 1084   1.148   2.422  -0.021 -0.0328 -0.3135  0.5505
   91DMF     O1 1085   1.201   2.315  -0.057 -0.4163 -0.4200 -0.1344
   91DMF     H1 1086   1.023   2.262   0.190  0.3857 -1.9016 -0.7073
   91DMF     H2 1087   0.981   2.220   0.026  3.3073  0.5667 -0.1311
   91DMF     H3 1088   0.862   2.310   0.123 -0.3599 -1.8273 -1.4428
   91DMF     H4 1089   0.896   2.563   0.125  0.1332 -1.5134 -0.9411
   91DMF     H5 1090   1.059   2.628   0.092 -0.3406 -0.6156 -2.7012
   91DMF     H6 1091   1.020   2.522   0.243 -2.9690  0.5900  0.4418
   91DMF     H7 1092   1.172   2.522  -0.063  2.5471 -1.7364 -1.4462
   92DMF     C1 1093   1.385   1.674   1.048  0.3368 -1.0960 -0.2114
   92DMF     N1 1094   1.333   1.762   1.154  0.2773  0.2952 -0.1432
   92DMF     C2 1095   1.221   1.711   1.235 -0.3197 -0.1440  0.1420
   92DMF     C3 1096   1.399   1.874   1.202  0.2142 -0.3910 -0.2052
   92DMF     O1 1097   1.501   1.917   1.149 -0.9598  0.0894  0.1412
   92DMF     H1 1098   1.414   1.738   0.963 -3.6725  0.0006 -0.8559
   92DMF     H2 1099   1.318   1.592   1.018  1.6800 -1.9666 -0.9189
   92DMF     H3 1100   1.471   1.618   1.086  1.4388  1.5014  1.1927
   92DMF     H4 1101   1.146   1.783   1.270 -1.4393 -1.7801  1.1759
   92DMF     H5 1102   1.270   1.674   1.326 -2.3969  0.5235  1.5529
   92DMF     H6 1103   1.184   1.620   1.187 -1.0618  0.8842 -1.2953
   92DMF     H7 1104   1.353   1.920   1.292 -2.2593 -2.5193 -0.3064
   93DMF     C1 1105   2.115   0.820   1.172 -0.3292  0.4215  0.1033
   93DMF     N1 1106   2.126   0.943   1.255 -0.1212 -1.0730  0.5455
   93DMF     C2 1107   2.254   1.007   1.289 -0.0406 -0.2560  0.1891
   93DMF     C3 1108   2.010   0.974   1.326 -0.0567 -0.3623 -0.3283
   93DMF     O1 1109   1.905   0.915   1.305  0.1246 -0.0934 -0.4158
   93DMF     H1 1110   2.137   0.836   1.065 -0.5864 -2.2527 -0.3816
   93DMF     H2 1111   2.018   0.769   1.170 -0.7582  1.1899  0.7369
   93DMF     H3 1112   2.195   0.749   1.196 -0.0138 -0.0346 -2.1515
   93DMF     H4 1113   2.252   1.113   1.263 -0.9437 -0.4174 -0.4265
   93DMF     H5 1114   2.323   0.958   1.220 -0.3475 -0.9869  0.3956
   93DMF     H6 1115   2.290   0.986   1.391  0.7267  2.1086  0.4287
   93DMF     H7 1116   2.020   1.062   1.392 -0.3037 -0.3893 -0.2546
   94DMF     C1 1117   1.695   0.831   0.306  0.3794  0.5467  0.4546
   94DMF     N1 1118   1.771   0.754   0.204 -0.4397 -0.1011 -0.5635
   94DMF     C2 1119   1.706   0.666   0.109 -0.1091  0.2085 -0.7743
   94DMF     C3 1120   1.914   0.764   0.214 -0.6318 -0.0391  0.0410
   94DMF     O1 1121   1.969   0.848   0.283  0.2081  0.3630  0.3827
   94DMF     H1 1122   1.760   0.874   0.383  1.8110  3.0083 -2.0571
   94DMF     H2 1123   1.611   0.774   0.347 -0.6884  0.3135 -1.9829
   94DMF     H3 1124   1.647   0.914   0.253 -2.5458 -0.0001  2.1927
   94DMF     H4 1125   1.756   0.569   0.108 -1.9333 -0.7394 -0.6757
   94DMF     H5 1126   1.703   0.705   0.007 -1.4142 -0.5463 -1.0337
   94DMF     H6 1127   1.600   0.647   0.125  0.5483 -0.8581  2.7725
   94DMF     H7 1128   1.965   0.697   0.142 -1.3548 -1.9913  1.3050
   95DMF     C1 1129   2.043   1.195   1.031 -0.2945 -0.2996  0.2108
   95DMF     N1 1130   1.924   1.271   1.043 -0.8613 -0.1906  0.4118
   95DMF     C2 1131   1.847   1.317   0.924 -0.0494  0.1483  0.7255
   95DMF     C3 1132   1.863   1.287   1.174 -0.2571 -0.5985 -0.0886
   95DMF     O1 1133   1.928   1.275   1.274  0.3233 -0.3114  1.1558
   95DMF     H1 1134   2.076   1.199   0.927 -2.0127 -1.6648 -0.4113
   95DMF     H2 1135   2.022   1.093   1.065 -1.3888 -0.0389  0.3401
   95DMF     H3 1136   2.118   1.229   1.104 -0.8062  1.2718  0.0248
   95DMF     H4 1137   1.853   1.246   0.840 -1.3665 -1.2997  1.8297
   95DMF     H5 1138   1.875   1.414   0.880  0.3999 -0.0176  0.6420
   95DMF     H6 1139   1.744   1.329   0.959  0.5124  1.7722  1.8446
   95DMF     H7 1140   1.755   1.309   1.169  0.1267  1.1845 -1.0799
   96DMF     C1 1141   0.033   1.507   1.972 -0.4654  0.8275 -0.1961
   96DMF     N1 1142   0.043   1.377   2.034  0.4731 -0.7714 -0.6864
   96DMF     C2 1143   0.080   1.357   2.173  0.6176 -0.6527 -0.2342
   96DMF     C3 1144   0.002   1.260   1.959  0.0127  0.2018 -0.2057
   96DMF     O1 1145  -0.061   1.265   1.858 -0.1712 -0.3739  0.3146
   96DMF     H1 1146  -0.061   1.510   1.915 -0.6109  1.7304  0.0842
   96DMF     H2 1147   0.123   1.518   1.911 -0.2328 -1.6069 -0.3507
   96DMF     H3 1148   0.033   1.591   2.043 -2.4478 -0.2489  1.1447
   96DMF     H4 1149   0.187   1.332   2.180  0.6563 -0.1784  1.1592
   96DMF     H5 1150   0.014   1.278   2.211 -0.3977  0.4185  0.2808
   96DMF     H6 1151   0.070   1.449   2.233 -1.5747 -1.6753  1.0332
   96DMF     H7 1152   0.019   1.163   2.010 -1.3616 -0.5572 -1.1701
   97DMF     C1 1153   0.846   0.463   1.478  0.4752  0.3817  0.5074
   97DMF     N1 1154   0.734   0.418   1.398  0.2061  0.1470 -0.5612
   97DMF     C2 1155   0.628   0.517   1.366 -0.0374 -0.0289 -0.4800
   97DMF     C3 1156   0.715   0.286   1.353  0.7296  0.9657 -0.0422
   97DMF     O1 1157   0.792   0.190   1.360 -0.3938 -0.6046  0.6869
   97DMF     H1 1158   0.877   0.394   1.557 -0.2787  0.8211  1.1940
   97DMF     H2 1159   0.822   0.566   1.507  1.9625  0.6958  0.6285
   97DMF     H3 1160   0.934   0.454   1.413 -0.1329  2.6646 -0.6649
   97DMF     H4 1161   0.552   0.470   1.302  0.4813 -0.9568 -0.4304
   97DMF     H5 1162   0.668   0.607   1.320 -1.3490  0.8356  0.0420
   97DMF     H6 1163   0.566   0.542   1.453 -1.1562  0.0731 -1.2937
   97DMF     H7 1164   0.614   0.279   1.309  0.5649 -1.3941  0.6128
   98DMF     C1 1165   1.766   2.291   0.694 -0.7877  0.6571 -0.3899
   98DMF     N1 1166   1.735   2.433   0.697 -0.0993 -0.6904  0.4005
   98DMF     C2 1167   1.595   2.473   0.642 -0.4427 -0.0326  0.4232
   98DMF     C3 1168   1.820   2.526   0.768  0.3071 -0.2368 -0.5819
   98DMF     O1 1169   1.927   2.487   0.812 -0.3454  0.6834 -0.4862
   98DMF     H1 1170   1.870   2.268   0.721  0.0320  2.1997 -2.1807
   98DMF     H2 1171   1.751   2.251   0.593  1.9511  1.7289 -1.2912
   98DMF     H3 1172   1.698   2.235   0.760 -1.5723  0.6036 -1.2406
   98DMF     H4 1173   1.564   2.570   0.683 -2.7792 -1.0057  1.0375
   98DMF     H5 1174   1.515   2.406   0.675 -0.8449 -0.3122 -1.0815
   98DMF     H6 1175   1.590   2.476   0.532 -2.1356 -0.0303  0.4859
   98DMF     H7 1176   1.777   2.628   0.770  1.6531  0.3625 -1.5207
   99DMF     C1 1177   0.636   2.126   2.234  0.6205  0.0252  0.0388
   99DMF     N1 1178   0.584   2.008   2.313 -0.1671 -0.2245 -0.1900
   99DMF     C2 1179   0.442   2.010   2.349  0.5506  0.2041 -0.1701
   99DMF     C3 1180   0.669   1.908   2.355  0.2895 -0.7477 -0.1230
   99DMF     O1 1181   0.788   1.904   2.331  0.8316  0.2091  0.1444
   99DMF     H1 1182   0.647   2.113   2.125  2.2893  0.1312  0.1833
   99DMF     H2 1183   0.736   2.155   2.269  1.3169 -0.3433 -1.5737
   99DMF     H3 1184   0.564   2.208   2.248  0.5033 -0.4909  2.6496
   99DMF     H4 1185   0.424   2.037   2.454  2.1321 -0.0130  0.1813
   99DMF     H5 1186   0.417   1.904   2.357  0.9754  0.2041  1.3161
   99DMF     H6 1187   0.379   2.062   2.276 -0.7031 -2.2517 -0.8973
   99DMF     H7 1188   0.615   1.824   2.401  0.3704 -1.2028 -0.8622
  100DMF     C1 1189   0.572   0.343   0.962 -0.3530 -0.9638 -0.1118
  100DMF     N1 1190   0.698   0.278   0.969  0.0754  0.0406  0.0107
  100DMF     C2 1191   0.702   0.141   0.920  0.5125  0.4068 -0.7225
  100DMF     C3 1192   0.809   0.333   1.036 -0.0569 -0.2174 -0.4515
  100DMF     O1 1193   0.812   0.450   1.071  0.2574 -0.0656 -1.0684
  100DMF     H1 1194   0.524   0.353   1.060  2.0170 -0.1360  1.0012
  100DMF     H2 1195   0.502   0.287   0.898  1.4951 -1.0344 -2.1355
  100DMF     H3 1196   0.584   0.441   0.914 -0.7983 -0.0984  1.5241
  100DMF     H4 1197   0.788   0.118   0.855 -0.2634 -0.6922 -1.3822
  100DMF     H5 1198   0.602   0.115   0.882  0.2687  2.0726 -1.2542
  100DMF     H6 1199   0.713   0.071   1.003 -0.8219  0.7305 -0.2688
  100DMF     H7 1200   0.897   0.270   1.059  0.1758  0.8622  1.7491
  101DMF     C1 1201   1.163   0.520   1.084 -0.0229 -0.3811  0.0464
  101DMF     N1 1202   1.246   0.609   1.165  0.8254  0.5795  0.5954
  101DMF     C2 1203   1.193   0.665   1.293 -0.1830  0.3662  0.3494
  101DMF     C3 1204   1.387   0.606   1.146 -0.4568  0.0114 -0.4208
  101DMF     O1 1205   1.435   0.555   1.044 -0.0974  0.3726  0.0677
  101DMF     H1 1206   1.098   0.466   1.153 -1.2643  1.2422  0.1669
  101DMF     H2 1207   1.230   0.448   1.035  0.4255 -0.2089  0.3934
  101DMF     H3 1208   1.108   0.578   1.009 -0.9677 -1.0249  0.2385
  101DMF     H4 1209   1.250   0.754   1.322 -3.8303  2.8020  0.2620
  101DMF     H5 1210   1.199   0.596   1.378 -0.0084  2.4732  2.0626
  101DMF     H6 1211   1.091   0.701   1.276  0.7649  2.5256 -0.8917
  101DMF     H7 1212   1.454   0.642   1.226  0.1495 -0.0537 -0.8943
  102DMF     C1 1213   0.790   1.019   2.184 -0.4023 -0.2824  0.3596
  102DMF     N1 1214   0.651   1.007   2.234  0.3971  0.1984  0.7659
  102DMF     C2 1215   0.619   1.090   2.345  0.1215  0.4531 -0.6302
  102DMF     C3 1216   0.545   0.943   2.162  0.1713  0.1172 -0.0372
  102DMF     O1 1217   0.559   0.876   2.060 -0.4009  0.0086  0.0371
  102DMF     H1 1218   0.796   1.092   2.102 -3.0623 -1.6156 -1.0943
  102DMF     H2 1219   0.820   0.924   2.139  0.5198  0.7669 -1.2695
  102DMF     H3 1220   0.862   1.044   2.262  0.9970  1.8687 -1.5836
  102DMF     H4 1221   0.513   1.077   2.369 -0.1286  0.0482 -1.9229
  102DMF     H5 1222   0.645   1.195   2.325 -1.0565  1.1008  1.1920
  102DMF     H6 1223   0.684   1.047   2.422  1.2355 -2.1678 -2.9268
  102DMF     H7 1224   0.447   0.968   2.206  0.6282  0.1790  0.9546
  103DMF     C1 1225   0.299   1.537   1.685 -0.1878 -0.1420 -0.0347
  103DMF     N1 1226   0.313   1.673   1.717 -0.3692  0.6477  0.1006
  103DMF     C2 1227   0.315   1.768   1.606 -0.0165  0.1860  0.1263
  103DMF     C3 1228   0.336   1.718   1.843  0.6315 -0.2750  0.1671
  103DMF     O1 1229   0.347   1.643   1.938 -0.4654 -0.1172 -0.1276
  103DMF     H1 1230   0.288   1.470   1.770  1.1837 -0.9109 -0.4450
  103DMF     H2 1231   0.392   1.507   1.635 -0.0741  1.2906 -0.7227
  103DMF     H3 1232   0.216   1.518   1.616  0.5594 -1.7887 -0.4991
  103DMF     H4 1233   0.208   1.789   1.596 -0.4269 -1.9847 -0.3048
  103DMF     H5 1234   0.361   1.718   1.519 -2.6450 -0.6210 -0.8345
  103DMF     H6 1235   0.368   1.859   1.636  0.5576 -0.9126  2.5808
  103DMF     H7 1236   0.345   1.828   1.851  0.9508 -0.2151 -0.9569
  104DMF     C1 1237   2.226   1.411   1.345  0.5159 -0.1910  0.0813
  104DMF     N1 1238   2.359   1.357   1.372  0.1160  0.4335 -0.0835
  104DMF     C2 1239   2.399   1.341   1.509  0.9621  0.1306 -0.4398
  104DMF     C3 1240   2.451   1.309   1.266  0.1093 -0.2840 -0.6808
  104DMF     O1 1241   2.429   1.330   1.147 -0.0530  0.3578 -0.0477
  104DMF     H1 1242   2.160   1.331   1.379 -0.0603  0.6397  0.9540
  104DMF     H2 1243   2.206   1.428   1.238  0.3835 -5.1835 -0.7952
  104DMF     H3 1244   2.201   1.499   1.406 -0.3165  0.2223 -0.8263
  104DMF     H4 1245   2.476   1.265   1.525  0.2095 -0.6758 -0.5850
  104DMF     H5 1246   2.310   1.294   1.554  1.4318 -0.7055 -0.3819
  104DMF     H6 1247   2.431   1.436   1.554 -0.6520 -0.1781  1.4726
  104DMF     H7 1248   2.537   1.255   1.310 -0.6358 -1.1455 -0.2694
  105DMF     C1 1249   0.814   2.455   0.571 -0.9598  0.3239  0.7729
  105DMF     N1 1250   0.743   2.401   0.456  1.0611 -0.4124 -0.1303
  105DMF     C2 1251   0.798   2.275   0.405  0.6353 -0.4336  0.2144
  105DMF     C3 1252   0.602   2.428   0.418 -0.2381 -0.6213 -0.6114
  105DMF     O1 1253   0.536   2.519   0.474 -0.2680 -0.4359 -0.0153
  105DMF     H1 1254   0.750   2.414   0.650  0.2867  2.0577  2.7255
  105DMF     H2 1255   0.804   2.565   0.569  0.8001  0.4854 -0.7693
  105DMF     H3 1256   0.918   2.421   0.576 -1.3318 -0.8668  0.4073
  105DMF     H4 1257   0.884   2.242   0.465 -0.2170 -2.6904  0.2343
  105DMF     H5 1258   0.837   2.281   0.302  2.9247 -2.8228  0.8934
  105DMF     H6 1259   0.725   2.195   0.423  1.0695 -0.9587 -0.3457
  105DMF     H7 1260   0.564   2.361   0.339 -0.7305  0.7121 -1.5046
  106DMF     C1 1261   0.883   0.107   1.718 -0.0451 -0.0681 -0.1661
  106DMF     N1 1262   0.859  -0.034   1.775 -0.1343 -0.1811 -0.2717
  106DMF     C2 1263   0.949  -0.146   1.731 -0.0347 -0.4534 -0.0584
  106DMF     C3 1264   0.782  -0.050   1.892  0.2366  0.6110 -0.7134
  106DMF     O1 1265   0.718   0.040   1.946 -0.0482 -0.3754 -0.3924
  106DMF     H1 1266   0.925   0.176   1.792  0.4686 -0.0800 -0.4457
  106DMF     H2 1267   0.781   0.144   1.703 -0.2094 -0.8229 -0.9615
  106DMF     H3 1268   0.945   0.108   1.627  1.3700 -1.8973  0.7606
  106DMF     H4 1269   0.994  -0.194   1.819  2.4519  0.5944 -0.7015
  106DMF     H5 1270   1.025  -0.099   1.668 -0.3264 -0.7240 -0.6162
  106DMF     H6 1271   0.893  -0.208   1.660 -0.9883  0.9054 -0.5010
  106DMF     H7 1272   0.801  -0.144   1.947  1.4608  1.6680  0.7094
  107DMF     C1 1273   1.511   0.324   1.264  0.1059  0.4214 -0.6731
  107DMF     N1 1274   1.617   0.247   1.325  0.4764  0.2465  0.1737
  107DMF     C2 1275   1.653   0.264   1.470 -0.2944  0.9373  0.2895
  107DMF     C3 1276   1.684   0.158   1.247 -0.0941 -0.2703 -0.7244
  107DMF     O1 1277   1.669   0.149   1.122 -0.4966 -0.0708 -0.0903
  107DMF     H1 1278   1.427   0.259   1.238  1.1270 -0.9425 -0.5886
  107DMF     H2 1279   1.546   0.381   1.177 -2.6136 -0.9041 -2.7134
  107DMF     H3 1280   1.478   0.410   1.324 -1.9986  0.3041 -1.6075
  107DMF     H4 1281   1.590   0.329   1.533 -2.6065 -4.2384  3.6950
  107DMF     H5 1282   1.757   0.299   1.473  0.1816 -0.4101 -0.3111
  107DMF     H6 1283   1.646   0.162   1.510 -0.1970  1.2592  1.1422
  107DMF     H7 1284   1.763   0.108   1.307 -1.4589  0.1387  1.4644
  108DMF     C1 1285   0.836   1.107   1.521 -0.3018  0.2213  0.5956
  108DMF     N1 1286   0.903   0.975   1.560 -0.0958  0.2117  0.0205
  108DMF     C2 1287   1.022   0.935   1.480 -0.2476  0.5469  0.2848
  108DMF     C3 1288   0.839   0.888   1.648  0.2015 -0.1032 -0.8349
  108DMF     O1 1289   0.732   0.901   1.703 -0.7788  0.1183 -0.0708
  108DMF     H1 1290   0.773   1.143   1.603 -1.0028 -0.3316  0.3135
  108DMF     H2 1291   0.773   1.103   1.431  2.8564  0.7601 -1.7091
  108DMF     H3 1292   0.912   1.185   1.507 -0.6614  0.4914  0.1300
  108DMF     H4 1293   1.110   0.930   1.545 -0.9442 -2.9808  1.0756
  108DMF     H5 1294   1.040   1.019   1.412 -1.0481  1.7160  1.4802
  108DMF     H6 1295   0.996   0.848   1.418 -0.6706  0.1841  0.9593
  108DMF     H7 1296   0.896   0.793   1.656 -0.9635 -0.7594 -0.1771
  109DMF     C1 1297   0.969   1.280   1.222  0.1849  0.7708  0.4880
  109DMF     N1 1298   1.077   1.304   1.131 -0.3390  0.7402  0.0008
  109DMF     C2 1299   1.070   1.430   1.045 -0.4188  0.2733 -0.1128
  109DMF     C3 1300   1.168   1.200   1.108  0.1084  0.4334 -0.0286
  109DMF     O1 1301   1.173   1.101   1.172  0.1127  0.2013  0.4254
  109DMF     H1 1302   0.890   1.223   1.173  0.4427 -1.1061  2.1921
  109DMF     H2 1303   0.919   1.373   1.253  0.4177  0.4052  2.0256
  109DMF     H3 1304   1.006   1.235   1.315  1.9316  0.0593 -0.5342
  109DMF     H4 1305   1.040   1.520   1.100  1.6783  1.3373 -0.6855
  109DMF     H5 1306   0.992   1.430   0.968 -0.4764 -0.1984 -0.0556
  109DMF     H6 1307   1.170   1.443   1.001  0.2741  3.0264  2.1066
  109DMF     H7 1308   1.226   1.220   1.016 -1.2631  0.8432 -0.8227
  110DMF     C1 1309   0.345   0.571   0.337  0.0279  0.7919 -0.0002
  110DMF     N1 1310   0.446   0.488   0.264 -0.3777 -0.2587  0.3348
  110DMF     C2 1311   0.411   0.348   0.224  0.6939 -0.3532 -0.4998
  110DMF     C3 1312   0.567   0.552   0.235 -0.8558 -0.1929 -0.0513
  110DMF     O1 1313   0.592   0.669   0.269 -0.2832  0.3533 -0.0510
  110DMF     H1 1314   0.390   0.639   0.411 -1.7568  0.4123  1.4533
  110DMF     H2 1315   0.270   0.503   0.378  0.2693 -0.6147 -1.8275
  110DMF     H3 1316   0.308   0.642   0.262  0.6919 -0.3689 -1.4481
  110DMF     H4 1317   0.347   0.338   0.136  1.5624 -2.8623 -0.8924
  110DMF     H5 1318   0.356   0.300   0.306 -0.5454 -1.3766 -1.9193
  110DMF     H6 1319   0.497   0.282   0.207  0.3710 -1.1078  0.7208
  110DMF     H7 1320   0.644   0.488   0.190 -1.9124 -1.2539 -0.3797
  111DMF     C1 1321   1.598   1.964   0.097 -0.0169  0.0227  0.8751
  111DMF     N1 1322   1.559   2.077   0.013 -0.1869  0.0137  0.1915
  111DMF     C2 1323   1.622   2.210   0.035 -0.2038  0.6092 -0.3102
  111DMF     C3 1324   1.439   2.069  -0.066 -0.8193 -0.1505  0.1557
  111DMF     O1 1325   1.374   1.968  -0.084 -0.0574 -0.1133  0.5011
  111DMF     H1 1326   1.620   1.877   0.034 -1.0187 -0.0551  0.6254
  111DMF     H2 1327   1.510   1.943   0.159  0.3350 -0.5868  1.1719
  111DMF     H3 1328   1.685   1.998   0.155  0.9824  0.2412 -0.7100
  111DMF     H4 1329   1.584   2.282  -0.038  0.1143  0.7291 -0.3611
  111DMF     H5 1330   1.731   2.202   0.030 -0.2211 -0.8933  1.2605
  111DMF     H6 1331   1.597   2.244   0.136 -0.7055  2.7745 -1.1335
  111DMF     H7 1332   1.407   2.168  -0.102 -0.2319  0.1753  0.5150
  112DMF     C1 1333   0.116   0.029   0.860  0.4932 -0.0680 -0.3023
  112DMF     N1 1334   0.259   0.027   0.899 -0.2877  0.5722  0.5426
  112DMF     C2 1335   0.343  -0.048   0.792  0.1204  0.1734  0.2938
  112DMF     C3 1336   0.322   0.070   1.013 -0.0054 -0.0952 -0.2271
  112DMF     O1 1337   0.257   0.124   1.101 -0.1056  0.0854 -0.0044
  112DMF     H1 1338   0.099   0.034   0.752 -3.3700  0.1477  0.2294
  112DMF     H2 1339   0.065   0.114   0.907  0.6988 -0.2256  0.2055
  112DMF     H3 1340   0.063  -0.061   0.893 -1.9366  1.0596 -0.9786
  112DMF     H4 1341   0.293  -0.138   0.755 -0.4870  1.2916 -1.6660
  112DMF     H5 1342   0.441  -0.078   0.831  0.3614  1.7010  0.8787
  112DMF     H6 1343   0.359   0.018   0.706 -0.2717  0.5135  0.4772
  112DMF     H7 1344   0.431   0.049   1.016  0.0173  0.1424  1.3752
  113DMF     C1 1345   1.296   0.227   0.806  0.0144 -0.2494  0.0855
  113DMF     N1 1346   1.254   0.150   0.926  0.1581  0.1786  0.2428
  113DMF     C2 1347   1.354   0.077   0.997 -0.1561 -0.6501 -0.3227
  113DMF     C3 1348   1.121   0.127   0.954  0.6207 -0.0493  0.5118
  113DMF     O1 1349   1.034   0.165   0.880  0.4817  0.1341  0.2925
  113DMF     H1 1350   1.221   0.242   0.727  1.3239 -1.3580 -1.4027
  113DMF     H2 1351   1.390   0.186   0.767 -0.5667 -2.8525  1.2833
  113DMF     H3 1352   1.317   0.330   0.837  0.1750  0.4219 -2.1238
  113DMF     H4 1353   1.351   0.120   1.098 -1.3254  0.2281 -0.7225
  113DMF     H5 1354   1.450   0.097   0.948  0.2987 -1.7265  0.1267
  113DMF     H6 1355   1.337  -0.031   0.996 -0.0008 -0.6733 -0.4905
  113DMF     H7 1356   1.087   0.076   1.047  0.0057 -1.0885 -0.2727
  114DMF     C1 1357   0.435   0.069   2.141  0.1154 -0.9538  0.1950
  114DMF     N1 1358   0.367   0.069   2.278 -0.4458 -0.1132 -0.0915
  114DMF     C2 1359   0.358   0.196   2.355  0.3568  0.3075 -0.1259
  114DMF     C3 1360   0.337  -0.064   2.335 -0.2375  0.1889 -0.3271
  114DMF     O1 1361   0.348  -0.171   2.278 -0.4699  0.7203 -0.0201
  114DMF     H1 1362   0.530   0.014   2.134  0.9750  0.5278 -0.3507
  114DMF     H2 1363   0.463   0.170   2.107  0.7502 -0.4399  2.2066
  114DMF     H3 1364   0.367   0.032   2.063 -1.0730  0.2551  0.6413
  114DMF     H4 1365   0.280   0.259   2.309  0.8229  2.0968  1.4853
  114DMF     H5 1366   0.456   0.244   2.341 -0.1328  0.6935 -2.4534
  114DMF     H6 1367   0.333   0.172   2.459  0.1702  1.0068 -0.0058
  114DMF     H7 1368   0.289  -0.053   2.434  0.9636 -1.5541  0.4595
  115DMF     C1 1369   0.286   0.452   0.792  0.0408 -0.1689  0.0243
  115DMF     N1 1370   0.230   0.377   0.681 -0.0160 -0.2514  0.5507
  115DMF     C2 1371   0.322   0.281   0.613 -0.5805  0.7121 -0.0193
  115DMF     C3 1372   0.097   0.371   0.657 -0.4591  0.8745 -0.1615
  115DMF     O1 1373   0.017   0.454   0.691  0.1223  0.5865 -0.0144
  115DMF     H1 1374   0.391   0.477   0.773 -0.0093 -0.1556 -0.2394
  115DMF     H2 1375   0.265   0.399   0.885 -0.4210  0.1554  0.1101
  115DMF     H3 1376   0.246   0.555   0.786 -2.6120 -1.2284 -1.6133
  115DMF     H4 1377   0.420   0.280   0.662  0.3991  1.5435 -1.8892
  115DMF     H5 1378   0.335   0.318   0.511 -1.3573 -0.9873 -0.7576
  115DMF     H6 1379   0.283   0.179   0.600  0.3695  0.1416  1.4642
  115DMF     H7 1380   0.073   0.287   0.589  0.7118  0.6317 -0.2907
  116DMF     C1 1381   2.133   1.294   0.668  0.4125  0.1367 -0.2917
  116DMF     N1 1382   2.089   1.196   0.564  0.1582 -0.1821  0.8741
  116DMF     C2 1383   2.120   1.219   0.428 -0.0570 -0.0289 -0.6174
  116DMF     C3 1384   2.014   1.089   0.604 -0.2847  0.0166  0.1118
  116DMF     O1 1385   1.990   1.060   0.726 -0.0966 -0.3661 -0.0804
  116DMF     H1 1386   2.214   1.356   0.628  1.9157 -1.9269 -0.5123
  116DMF     H2 1387   2.183   1.239   0.749  0.3112 -0.6936 -0.7847
  116DMF     H3 1388   2.042   1.348   0.699  0.1771 -1.1242  1.2930
  116DMF     H4 1389   2.130   1.327   0.410 -2.1089  0.3805  0.5394
  116DMF     H5 1390   2.038   1.171   0.373  1.1664  0.1768 -2.7054
  116DMF     H6 1391   2.218   1.174   0.406  0.2967  0.2471  0.3702
  116DMF     H7 1392   1.987   1.028   0.516  1.5938 -1.1638  0.3291
  117DMF     C1 1393   1.038   1.981   1.612  0.3221  0.2188 -0.2633
  117DMF     N1 1394   1.117   2.078   1.538 -0.4311  0.2426 -0.3205
  117DMF     C2 1395   1.246   2.123   1.589  0.1220 -0.4068 -0.1330
  117DMF     C3 1396   1.077   2.122   1.413  0.2261  0.4800 -0.1863
  117DMF     O1 1397   0.968   2.091   1.362 -0.2908 -0.0614  0.1562
  117DMF     H1 1398   1.082   1.960   1.710  0.9716  1.7656 -0.2058
  117DMF     H2 1399   1.033   1.887   1.555  0.5905 -0.3254  0.6037
  117DMF     H3 1400   0.937   2.020   1.628  0.0274 -0.3551 -0.6755
  117DMF     H4 1401   1.225   2.207   1.656 -0.7342 -0.9155  0.2461
  117DMF     H5 1402   1.316   2.158   1.512  1.0087  0.1160  0.8906
  117DMF     H6 1403   1.296   2.050   1.655  0.3966  0.4652  0.6328
  117DMF     H7 1404   1.146   2.184   1.353 -0.9560 -0.6427 -2.8108
  118DMF     C1 1405   1.172   0.117   1.337  0.3311 -0.1659 -0.1145
  118DMF     N1 1406   1.280   0.101   1.432 -0.1885 -0.7394 -0.0594
  118DMF     C2 1407   1.378  -0.011   1.408  0.1478 -0.4643  0.5570
  118DMF     C3 1408   1.311   0.214   1.522 -0.3288  0.2200  0.9921
  118DMF     O1 1409   1.273   0.327   1.507  0.0225 -0.3931  0.4867
  118DMF     H1 1410   1.193   0.200   1.269 -1.9475  2.2691  2.0584
  118DMF     H2 1411   1.087   0.154   1.396 -0.0953 -0.3680 -0.5899
  118DMF     H3 1412   1.147   0.027   1.279  1.7886 -0.9303  0.4377
  118DMF     H4 1413   1.376  -0.060   1.311 -2.2080  1.0761 -0.2346
  118DMF     H5 1414   1.358  -0.081   1.490  0.0334  0.2017  1.1106
  118DMF     H6 1415   1.482   0.023   1.422 -0.1370  0.7030 -0.0939
  118DMF     H7 1416   1.390   0.189   1.594 -1.0087 -0.1068  1.6234
  119DMF     C1 1417   2.333   1.712   1.250  0.5156 -0.0813 -0.6608
  119DMF     N1 1418   2.430   1.750   1.356 -0.3743  0.4171 -0.3400
  119DMF     C2 1419   2.402   1.705   1.501 -0.1522  0.4212  0.2312
  119DMF     C3 1420   2.535   1.840   1.330  0.1880 -0.1739  0.5932
  119DMF     O1 1421   2.559   1.873   1.212 -0.2475 -0.3151 -0.5959
  119DMF     H1 1422   2.229   1.716   1.285  1.0454  1.3661  0.7814
  119DMF     H2 1423   2.358   1.612   1.212 -1.0988 -0.7038 -0.1502
  119DMF     H3 1424   2.344   1.786   1.170  0.2466  1.6366  0.8464
  119DMF     H4 1425   2.327   1.625   1.498 -1.0589  1.2751 -3.4205
  119DMF     H5 1426   2.359   1.793   1.550 -0.0067  0.9428 -0.5578
  119DMF     H6 1427   2.492   1.673   1.555  0.5839  1.1055 -0.5677
  119DMF     H7 1428   2.598   1.868   1.415  0.7926 -0.9716  0.4105
  120DMF     C1 1429   0.275   1.951   0.347  0.0109  0.2015 -0.2037
  120DMF     N1 1430   0.294   1.844   0.451 -0.4941  0.3584 -0.0637
  120DMF     C2 1431   0.292   1.891   0.593  0.1621  0.0626 -0.1540
  120DMF     C3 1432   0.268   1.708   0.428  0.1477  0.5443 -0.1514
  120DMF     O1 1433   0.238   1.658   0.325  0.3938  0.4153 -0.1094
  120DMF     H1 1434   0.309   1.907   0.253  0.9603  0.5553 -0.0340
  120DMF     H2 1435   0.336   2.040   0.367  0.2583  0.1514 -0.7363
  120DMF     H3 1436   0.172   1.985   0.365  0.7002  1.9156  0.5820
  120DMF     H4 1437   0.390   1.929   0.625 -0.1148  0.8931 -0.2693
  120DMF     H5 1438   0.245   1.821   0.663 -0.0510  0.2772 -0.0840
  120DMF     H6 1439   0.222   1.975   0.594  0.7032  0.5200 -0.1271
  120DMF     H7 1440   0.267   1.655   0.525  3.6463  2.2707  0.9263
  121DMF     C1 1441   0.280   0.468   1.196  0.1013  0.5874  1.0071
  121DMF     N1 1442   0.248   0.606   1.146 -0.0865  0.3063  0.2590
  121DMF     C2 1443   0.354   0.685   1.080  0.6766  0.0550 -0.2766
  121DMF     C3 1444   0.124   0.672   1.180 -0.1441 -0.1272  0.0809
  121DMF     O1 1445   0.044   0.624   1.254 -0.0455 -0.4615 -0.1425
  121DMF     H1 1446   0.188   0.418   1.230 -0.1895  0.5683  0.2103
  121DMF     H2 1447   0.339   0.483   1.287  2.2911  4.0904 -0.8609
  121DMF     H3 1448   0.330   0.414   1.115 -1.6709  1.4056 -0.6979
  121DMF     H4 1449   0.402   0.751   1.153 -2.6349  1.3956  0.7811
  121DMF     H5 1450   0.293   0.750   1.017 -1.1814 -0.4518  0.9368
  121DMF     H6 1451   0.426   0.632   1.017  0.8144 -0.4058  0.2562
  121DMF     H7 1452   0.114   0.765   1.120 -2.2912 -0.1226  0.3936
  122DMF     C1 1453   2.056   1.648   0.762  0.9262 -0.5557  0.4295
  122DMF     N1 1454   2.173   1.681   0.847 -0.7788 -0.2280 -0.8863
  122DMF     C2 1455   2.254   1.560   0.888 -0.0868  0.6744 -0.0575
  122DMF     C3 1456   2.197   1.814   0.871 -0.3829  0.1348 -0.1021
  122DMF     O1 1457   2.117   1.901   0.846 -0.8047  0.2372  0.0024
  122DMF     H1 1458   2.058   1.555   0.704 -0.1154  1.3731 -2.8717
  122DMF     H2 1459   2.038   1.733   0.695  0.4973 -1.2889 -0.3998
  122DMF     H3 1460   1.970   1.632   0.828  1.3810  0.0801  1.1777
  122DMF     H4 1461   2.190   1.471   0.888  1.7911 -0.8198  3.5039
  122DMF     H5 1462   2.303   1.583   0.984 -0.1701 -1.1904  0.4592
  122DMF     H6 1463   2.338   1.549   0.818 -0.3955  1.5712 -0.5682
  122DMF     H7 1464   2.297   1.839   0.912 -0.0701 -0.3924 -0.5461
  123DMF     C1 1465   1.491   0.445   0.315  0.2245  0.0694 -0.1967
  123DMF     N1 1466   1.502   0.327   0.405  0.9641  0.0700 -0.5237
  123DMF     C2 1467   1.385   0.272   0.470 -0.4722 -0.4417  0.2216
  123DMF     C3 1468   1.628   0.271   0.436  0.6655  0.3612 -0.1653
  123DMF     O1 1469   1.732   0.299   0.383 -0.3091  0.4152 -0.1152
  123DMF     H1 1470   1.391   0.464   0.273  0.5873 -1.1167 -1.6431
  123DMF     H2 1471   1.567   0.431   0.237  0.4507  0.0799  0.0221
  123DMF     H3 1472   1.516   0.531   0.378  0.1840 -0.5753  0.7078
  123DMF     H4 1473   1.379   0.162   0.466 -0.8222 -0.4898  1.7632
  123DMF     H5 1474   1.287   0.292   0.424 -0.4798  0.1449  0.5023
  123DMF     H6 1475   1.384   0.299   0.576 -0.8342  1.1977 -0.1952
  123DMF     H7 1476   1.624   0.204   0.523  1.2319 -0.3838 -0.7069
  124DMF     C1 1477   2.261   0.601   0.513  0.0902 -0.4877  0.0579
  124DMF     N1 1478   2.221   0.742   0.511  0.0841  0.0502 -0.3532
  124DMF     C2 1479   2.163   0.800   0.621 -0.5646  0.0210 -0.5346
  124DMF     C3 1480   2.268   0.815   0.403  0.7549  0.3851  0.4487
  124DMF     O1 1481   2.342   0.773   0.313  0.3358 -0.0579 -0.1128
  124DMF     H1 1482   2.216   0.546   0.429 -0.5262  1.4703 -0.9024
  124DMF     H2 1483   2.216   0.552   0.601 -0.4349 -0.0731  0.0220
  124DMF     H3 1484   2.369   0.589   0.502  0.1113 -0.7282  0.5076
  124DMF     H4 1485   2.067   0.847   0.597  0.0541  1.5768 -0.0654
  124DMF     H5 1486   2.228   0.883   0.653 -1.2536  0.0154  0.9457
  124DMF     H6 1487   2.160   0.733   0.708  1.3310 -0.2670 -0.6751
  124DMF     H7 1488   2.222   0.915   0.391  2.0098  0.9669  0.3876
  125DMF     C1 1489   2.495   0.484   0.297  1.0442  0.5849  0.0825
  125DMF     N1 1490   2.579   0.410   0.204 -0.2024 -0.1163  0.3130
  125DMF     C2 1491   2.613   0.471   0.070  0.4491 -0.4448  0.2328
  125DMF     C3 1492   2.596   0.274   0.214 -0.2244 -0.0644  0.3484
  125DMF     O1 1493   2.534   0.207   0.295  0.0442  0.1864 -0.4235
  125DMF     H1 1494   2.391   0.464   0.269  1.0805 -1.1759  1.0645
  125DMF     H2 1495   2.525   0.589   0.289 -0.3756  0.9137 -0.9718
  125DMF     H3 1496   2.502   0.453   0.403  0.5589 -1.5903 -0.4875
  125DMF     H4 1497   2.700   0.537   0.058  0.2805 -0.3978 -0.7827
  125DMF     H5 1498   2.519   0.505   0.023  0.9323 -0.5211 -0.7994
  125DMF     H6 1499   2.638   0.383   0.009 -0.9082 -1.0635  0.5509
  125DMF     H7 1500   2.670   0.232   0.144 -2.6404 -1.3074 -1.5626
   2.50097   2.50097   2.50097
